Title
82282
    1SAPS     N    1   6.380   1.615  10.903  0.0534  0.0868  0.2368
    1SAPS   HN1    2   6.378   1.560  10.815 -0.9635 -1.0887  0.9621
    1SAPS   HN2    3   6.286   1.656  10.921 -0.7453 -1.6479  0.2964
    1SAPS   HN3    4   6.446   1.695  10.899 -1.4959  1.3699 -0.7293
    1SAPS   C12    5   6.422   1.524  11.010 -0.5563  0.0563 -0.2345
    1SAPS  H12A    6   6.510   1.469  10.979 -0.4593  1.0431 -1.8314
    1SAPS   C13    7   6.466   1.602  11.137  0.1911 -0.0327  0.0204
    1SAPS  O13A    8   6.472   1.727  11.129 -0.0879  0.5707 -0.4033
    1SAPS  O13B    9   6.499   1.534  11.236  0.6262 -0.1960  0.3017
    1SAPS   C11   10   6.299   1.434  11.049 -0.2463  0.3328 -0.3454
    1SAPS  H11A   11   6.226   1.505  11.092 -0.1704  0.8003 -0.9765
    1SAPS  H11B   12   6.316   1.363  11.133  2.5620 -2.1107 -2.7315
    1SAPS     P   13   6.253   1.228  10.888 -0.1078 -0.2428  0.0847
    1SAPS   O13   14   6.174   1.146  10.983  0.2262  0.8428 -0.2773
    1SAPS   O14   15   6.218   1.220  10.742  0.4621 -0.5075 -0.3599
    1SAPS   O12   16   6.229   1.379  10.937  0.1805 -0.0288 -0.1009
    1SAPS   O11   17   6.403   1.196  10.908 -0.2025  0.7320  0.6010
    1SAPS    C1   18   6.499   1.249  10.818 -1.1620  0.7890 -0.2744
    1SAPS    HA   19   6.479   1.352  10.783 -0.9609  0.4426 -1.4338
    1SAPS    HB   20   6.591   1.264  10.878 -0.0559  2.4399 -2.2970
    1SAPS    C2   21   6.528   1.152  10.702 -1.1644 -0.1497 -0.3863
    1SAPS    HS   22   6.432   1.139  10.648 -0.7923 -2.2580 -0.6538
    1SAPS   O21   23   6.583   1.028  10.764 -0.0867 -0.2704  0.4589
    1SAPS   C21   24   6.515   0.914  10.748  0.3082  0.1269 -0.2751
    1SAPS   O22   25   6.406   0.911  10.695  0.5554 -0.0726 -0.0787
    1SAPS   C22   26   6.597   0.796  10.803  0.3376  0.1143  0.7425
    1SAPS   H2R   27   6.706   0.819  10.798  0.0618  1.1572 -1.9881
    1SAPS   H2S   28   6.563   0.787  10.908 -1.8023 -1.1214  0.0061
    1SAPS    C3   29   6.633   1.214  10.599  0.2973 -0.3203 -0.3208
    1SAPS    HX   30   6.738   1.205  10.636 -0.5069 -1.6267  1.7988
    1SAPS    HY   31   6.599   1.318  10.582 -1.7809 -1.3057 -2.6410
    1SAPS   O31   32   6.623   1.154  10.469  0.3381 -0.1103  0.2535
    1SAPS   C31   33   6.696   1.048  10.436  0.2038 -0.8361  0.7276
    1SAPS   O32   34   6.763   0.980  10.513 -0.5802 -0.5877  0.1314
    1SAPS   C32   35   6.687   1.019  10.286  0.4762  0.3755  0.3106
    1SAPS   H2X   36   6.731   1.107  10.233  3.6366 -0.7814  0.8355
    1SAPS   H2Y   37   6.582   0.998  10.256  0.5021  1.3960 -0.5980
    1SAPS   C23   38   6.554   0.664  10.720 -0.3150  0.1033  0.2945
    1SAPS   H3R   39   6.444   0.648  10.719 -0.0892 -1.5838  0.6173
    1SAPS   H3S   40   6.603   0.576  10.765 -4.2135 -1.6369  1.6506
    1SAPS   C24   41   6.614   0.681  10.578 -0.9472  0.1864  0.1733
    1SAPS   H4R   42   6.719   0.714  10.591 -0.7885  0.0796 -0.8016
    1SAPS   H4S   43   6.566   0.755  10.511 -0.9310 -0.8797 -1.0521
    1SAPS   C25   44   6.629   0.549  10.507 -0.2038  0.2674 -0.0640
    1SAPS   H5R   45   6.711   0.484  10.542 -1.1450 -2.1024 -1.9906
    1SAPS   C26   46   6.554   0.487  10.409 -0.1271  0.3182 -0.1732
    1SAPS   H6R   47   6.590   0.390  10.371 -1.4392  0.1732 -1.1344
    1SAPS   C27   48   6.433   0.539  10.337  0.2215 -0.6768  0.2600
    1SAPS   H7R   49   6.390   0.630  10.385 -0.4595 -0.3302 -0.9554
    1SAPS   H7S   50   6.350   0.466  10.327 -0.2806 -0.2930  1.4335
    1SAPS   C28   51   6.461   0.587  10.195 -0.0897  0.3761  0.3460
    1SAPS   H8R   52   6.560   0.632  10.180  0.5661 -1.6558 -2.4806
    1SAPS   C29   53   6.386   0.573  10.081 -0.3528  0.0466  0.6453
    1SAPS   H9R   54   6.432   0.621   9.994 -1.4893 -0.9488 -0.5455
    1SAPS  C210   55   6.248   0.513  10.066  0.5203  0.7499 -0.0875
    1SAPS  H10R   56   6.195   0.490  10.161  0.5045 -0.9989 -0.4975
    1SAPS  H10S   57   6.255   0.412  10.021  0.0095  0.7970 -0.2798
    1SAPS  C211   58   6.151   0.582   9.984  0.2282 -0.1307  0.8923
    1SAPS  H11R   59   6.100   0.670  10.027 -1.3531 -0.6204  0.1056
    1SAPS  C212   60   6.134   0.553   9.853  1.0775 -0.0007  0.1099
    1SAPS  H12R   61   6.075   0.617   9.785  0.4451 -1.1470 -0.4487
    1SAPS  C213   62   6.211   0.451   9.759  0.3322  0.2059 -0.3956
    1SAPS  H13R   63   6.319   0.436   9.780  0.3076 -0.8303 -0.9719
    1SAPS  H13S   64   6.225   0.499   9.660 -0.3829  1.3306  0.0219
    1SAPS  C214   65   6.147   0.315   9.736 -0.6534  0.3112 -0.4540
    1SAPS  H14R   66   6.134   0.264   9.833 -1.2728  1.8222  0.3087
    1SAPS  C215   67   6.112   0.262   9.620 -1.2206 -0.0323 -0.2772
    1SAPS  H15R   68   6.055   0.169   9.631 -0.1213 -0.9684 -1.9692
    1SAPS  C216   69   6.123   0.319   9.483  0.1750  0.2202 -0.8232
    1SAPS  H16R   70   6.157   0.424   9.491  0.6254  0.1832 -2.0070
    1SAPS  H16S   71   6.026   0.336   9.432 -1.2137  0.8199  1.8500
    1SAPS  C217   72   6.204   0.245   9.379 -0.4772 -0.3353  0.2939
    1SAPS  H17R   73   6.299   0.204   9.418  0.7631 -0.4564 -2.5933
    1SAPS  H17S   74   6.236   0.314   9.298 -0.0777 -0.9980 -0.1227
    1SAPS  C218   75   6.121   0.135   9.314  0.4783 -0.4113 -0.5731
    1SAPS  H18R   76   6.020   0.164   9.279 -0.0823 -1.5963  0.0140
    1SAPS  H18S   77   6.105   0.054   9.389  0.1558  3.2129  3.6542
    1SAPS  C219   78   6.194   0.062   9.199 -0.6408  0.7675 -0.2032
    1SAPS  H19R   79   6.238   0.130   9.123  0.4747  2.5494  1.9303
    1SAPS  H19S   80   6.125  -0.005   9.144  0.4538 -1.6852  1.2594
    1SAPS  C220   81   6.294  -0.042   9.247 -0.3074  0.0134 -0.2194
    1SAPS  H20R   82   6.242  -0.119   9.308 -2.1595  1.1329 -0.3182
    1SAPS  H20S   83   6.375  -0.003   9.312 -0.2238 -0.8092  0.1902
    1SAPS  H20T   84   6.354  -0.093   9.168  0.6159  1.5913 -0.5800
    1SAPS   C33   85   6.766   0.891  10.254 -0.9046 -0.0472  0.7333
    1SAPS   H3X   86   6.725   0.807  10.315  0.7584 -0.8640  0.7907
    1SAPS   H3Y   87   6.876   0.906  10.260 -0.6278 -1.1303 -1.0514
    1SAPS   C34   88   6.733   0.860  10.108 -0.2452  0.5126 -0.5790
    1SAPS   H4X   89   6.764   0.949  10.050 -1.0578  0.2568 -1.4314
    1SAPS   H4Y   90   6.628   0.842  10.076  0.2890 -0.9871 -1.5781
    1SAPS   C35   91   6.811   0.736  10.055  0.1095 -0.8421  0.4760
    1SAPS   H5X   92   6.766   0.642  10.093 -3.7806  0.3172 -0.7861
    1SAPS   H5Y   93   6.917   0.750  10.087 -0.1482  2.0187  0.3194
    1SAPS   C36   94   6.811   0.731   9.905  0.2171 -0.1314  0.1540
    1SAPS   H6X   95   6.878   0.647   9.874  0.9717  0.2655  0.6904
    1SAPS   H6Y   96   6.849   0.823   9.855 -2.5204  0.8395 -0.3114
    1SAPS   C37   97   6.675   0.696   9.837  0.2475 -0.0614  0.7770
    1SAPS   H7X   98   6.604   0.777   9.863 -1.4106 -0.9477 -0.8187
    1SAPS   H7Y   99   6.639   0.605   9.888  0.2129 -1.9194 -2.3445
    1SAPS   C38  100   6.688   0.677   9.691 -0.5204 -0.4225 -0.9536
    1SAPS   H8X  101   6.755   0.590   9.672 -1.6460 -1.6869  0.5915
    1SAPS   H8Y  102   6.726   0.764   9.633 -0.2528 -0.0249 -0.1833
    1SAPS   C39  103   6.556   0.648   9.628 -0.3872 -0.7074  0.1095
    1SAPS   H9X  104   6.483   0.721   9.669  1.9159  1.1713  1.0533
    1SAPS   H9Y  105   6.519   0.547   9.657 -2.3016 -0.4124 -1.0695
    1SAPS  C310  106   6.575   0.655   9.476  0.7306 -0.7570 -0.1753
    1SAPS  H10X  107   6.671   0.605   9.450  1.1020 -0.6345  0.8908
    1SAPS  H10Y  108   6.575   0.762   9.446  2.7398 -0.0655  1.9778
    1SAPS  C311  109   6.460   0.584   9.412  0.2285  0.4018 -0.3087
    1SAPS  H11X  110   6.368   0.621   9.463 -0.6964  0.9811 -2.2755
    1SAPS  H11Y  111   6.463   0.476   9.433 -0.0667  0.8041  2.0097
    1SAPS  C312  112   6.433   0.637   9.266  0.8710  0.5255 -0.7969
    1SAPS  H12X  113   6.522   0.630   9.199  0.9706 -1.4847 -0.5272
    1SAPS  H12Y  114   6.398   0.742   9.262 -1.7934 -0.2796 -0.7380
    1SAPS  C313  115   6.331   0.555   9.187 -0.2704  0.1894 -0.5754
    1SAPS  H13X  116   6.239   0.537   9.247  0.9626 -3.5486  0.5244
    1SAPS  H13Y  117   6.379   0.456   9.168  1.0154  0.3350  1.6469
    1SAPS  C314  118   6.295   0.602   9.050 -0.1189  0.7072 -0.0523
    1SAPS  H14X  119   6.382   0.608   8.982  0.4155 -0.6446  0.4772
    1SAPS  H14Y  120   6.249   0.703   9.059  1.8642  1.5808  1.0354
    1SAPS  C315  121   6.177   0.522   8.979 -0.1873  0.2839 -0.0369
    1SAPS  H15X  122   6.138   0.567   8.886 -1.9315  1.2016  1.0791
    1SAPS  H15Y  123   6.087   0.523   9.046  0.4661 -1.0973  0.9124
    1SAPS  C316  124   6.226   0.377   8.940 -0.9503  0.9351  0.2586
    1SAPS  H16X  125   6.252   0.333   9.038  1.1249 -0.3268 -0.7847
    1SAPS  H16Y  126   6.325   0.378   8.888 -0.7315  0.1779  0.6465
    1SAPS  C317  127   6.128   0.283   8.866 -0.5544  0.6002 -0.0588
    1SAPS  H17X  128   6.182   0.185   8.860 -1.9810 -0.2550  0.7032
    1SAPS  H17Y  129   6.121   0.327   8.764  0.4091  1.6084  0.2843
    1SAPS  C318  130   5.992   0.264   8.932  0.6042 -0.4697 -0.4332
    1SAPS  H18X  131   5.937   0.176   8.892 -3.0133  1.3814 -0.0237
    1SAPS  H18Y  132   5.929   0.355   8.939  1.9561  0.4578  0.1480
    1SAPS  H18Z  133   6.014   0.236   9.037 -0.1557 -1.0773 -0.4270
    2SAPS     N  134   4.960   1.746  10.940  0.0959 -0.1621 -0.4826
    2SAPS   HN1  135   4.897   1.664  10.953 -1.7823  1.2202 -0.4373
    2SAPS   HN2  136   4.930   1.818  11.009 -1.6545 -1.0264 -0.2911
    2SAPS   HN3  137   4.961   1.787  10.845 -0.5610 -0.4138 -0.6042
    2SAPS   C12  138   5.105   1.730  10.989 -0.2301 -0.0955  0.4809
    2SAPS  H12A  139   5.152   1.828  10.994  0.9266 -0.2774 -3.2877
    2SAPS   C13  140   5.123   1.663  11.123 -0.5119 -0.1235  0.7680
    2SAPS  O13A  141   5.024   1.617  11.187 -0.5375  0.5554 -0.2341
    2SAPS  O13B  142   5.228   1.681  11.180 -0.0737  0.1393 -0.0735
    2SAPS   C11  143   5.174   1.650  10.877  0.2971 -0.5060 -0.1412
    2SAPS  H11A  144   5.137   1.545  10.882 -0.5561 -0.1645  1.0134
    2SAPS  H11B  145   5.282   1.647  10.904  0.4489  2.9560  0.1016
    2SAPS     P  146   5.236   1.830  10.701 -0.5525 -0.0166 -0.1105
    2SAPS   O13  147   5.139   1.936  10.690 -0.5679  0.0046 -0.5356
    2SAPS   O14  148   5.355   1.861  10.787  0.0343 -0.0135  0.4790
    2SAPS   O12  149   5.164   1.699  10.745 -0.2172  0.5227  0.1675
    2SAPS   O11  150   5.279   1.796  10.552 -0.5308 -1.0700 -0.3564
    2SAPS    C1  151   5.317   1.907  10.470 -0.2062 -0.5521  0.5983
    2SAPS    HA  152   5.329   2.004  10.524 -2.1073  0.0637 -0.0104
    2SAPS    HB  153   5.411   1.880  10.418 -1.4922 -0.0841 -2.1147
    2SAPS    C2  154   5.208   1.924  10.364 -0.2535  0.8929  0.2524
    2SAPS    HS  155   5.111   1.935  10.417 -0.4502  1.3481 -0.1921
    2SAPS   O21  156   5.201   1.804  10.283  0.0279  0.0362 -0.3444
    2SAPS   C21  157   5.092   1.738  10.286  0.6677 -0.6055  0.6538
    2SAPS   O22  158   4.996   1.751  10.360  0.1494  0.4248  0.0654
    2SAPS   C22  159   5.095   1.616  10.187  0.2856  0.9068 -0.2087
    2SAPS   H2R  160   5.196   1.609  10.142 -0.3718  0.5418 -1.6985
    2SAPS   H2S  161   5.101   1.524  10.249  1.5344  0.0338 -1.5638
    2SAPS    C3  162   5.233   2.052  10.279  0.5119  0.5339  0.0366
    2SAPS    HX  163   5.334   2.040  10.233  1.4351 -0.4572  2.1711
    2SAPS    HY  164   5.238   2.144  10.341 -1.6406  0.5722  0.2001
    2SAPS   O31  165   5.127   2.068  10.177 -0.0531 -0.3653  0.4374
    2SAPS   C31  166   5.031   2.156  10.212  0.4146 -0.2455  0.3146
    2SAPS   O32  167   5.006   2.190  10.325 -0.0186 -0.3899 -0.3901
    2SAPS   C32  168   4.964   2.203  10.079  0.5074 -0.5804 -0.0483
    2SAPS   H2X  169   5.046   2.234  10.010  0.2075  0.1740 -0.0737
    2SAPS   H2Y  170   4.899   2.287  10.110  1.0160 -0.7189  1.4703
    2SAPS   C23  171   4.973   1.599  10.089  0.0426  0.2893  0.2762
    2SAPS   H3R  172   4.896   1.661  10.140 -1.2317  0.0964 -1.3234
    2SAPS   H3S  173   4.932   1.497  10.098 -1.1123  0.7290  0.2003
    2SAPS   C24  174   5.000   1.643   9.941 -0.3494  0.7119  0.3624
    2SAPS   H4R  175   5.061   1.566   9.890  0.3842 -0.2657  2.5740
    2SAPS   H4S  176   5.063   1.734   9.941  2.4275 -1.0875 -0.4702
    2SAPS   C25  177   4.868   1.662   9.874 -0.0387  1.4611  0.2129
    2SAPS   H5R  178   4.796   1.714   9.940 -0.7159  2.2379 -1.1072
    2SAPS   C26  179   4.826   1.645   9.745 -0.2349  0.0320  0.0206
    2SAPS   H6R  180   4.718   1.655   9.729 -0.3651 -1.8115 -0.4654
    2SAPS   C27  181   4.914   1.596   9.630  0.2598 -0.6270 -0.1320
    2SAPS   H7R  182   5.018   1.572   9.663  0.5750 -2.4099 -2.2103
    2SAPS   H7S  183   4.943   1.676   9.558  0.6871 -1.9050 -1.4087
    2SAPS   C28  184   4.862   1.477   9.559  0.5200 -0.1261  0.0079
    2SAPS   H8R  185   4.880   1.379   9.606 -0.3717 -0.0295  0.5951
    2SAPS   C29  186   4.821   1.459   9.431 -0.2693 -0.3045  0.3494
    2SAPS   H9R  187   4.791   1.360   9.395  1.1987 -0.2310 -1.1879
    2SAPS  C210  188   4.821   1.562   9.325  0.1169 -0.2083  0.3161
    2SAPS  H10R  189   4.879   1.514   9.244 -1.0704  0.8085 -1.1927
    2SAPS  H10S  190   4.884   1.647   9.360  1.2960 -0.9628  0.0879
    2SAPS  C211  191   4.682   1.603   9.276  0.1083  0.2198  0.3380
    2SAPS  H11R  192   4.627   1.654   9.356  1.2664  0.3888  1.0515
    2SAPS  C212  193   4.631   1.595   9.155  0.9284  0.1989 -0.1890
    2SAPS  H12R  194   4.530   1.635   9.138 -0.5882 -1.5342  3.7151
    2SAPS  C213  195   4.698   1.534   9.031 -0.3332  0.2953  0.7942
    2SAPS  H13R  196   4.630   1.492   8.954  0.7870 -1.0425  0.4911
    2SAPS  H13S  197   4.758   1.449   9.069  0.6000  0.4052 -0.3892
    2SAPS  C214  198   4.790   1.636   8.963 -0.2636 -0.0078  0.1594
    2SAPS  H14R  199   4.834   1.720   9.018  0.9236 -0.5446  0.0603
    2SAPS  C215  200   4.801   1.633   8.829  0.1520  0.1280 -0.3959
    2SAPS  H15R  201   4.870   1.694   8.768  0.4261 -0.8370 -1.0629
    2SAPS  C216  202   4.754   1.532   8.734  1.1011 -0.0560 -0.0344
    2SAPS  H16R  203   4.659   1.576   8.696  0.7873 -0.0080  0.8070
    2SAPS  H16S  204   4.734   1.440   8.792 -1.6996  0.7945  0.4634
    2SAPS  C217  205   4.848   1.506   8.613 -0.2739  0.4423 -0.8155
    2SAPS  H17R  206   4.912   1.594   8.590  0.7463  0.2782  1.1954
    2SAPS  H17S  207   4.785   1.494   8.522 -1.7423 -2.2361  0.4438
    2SAPS  C218  208   4.937   1.377   8.641  0.1811 -0.0874  0.0059
    2SAPS  H18R  209   4.869   1.296   8.675  0.0638 -0.2207 -0.5367
    2SAPS  H18S  210   5.020   1.390   8.714  1.2055 -0.8481 -0.9825
    2SAPS  C219  211   5.008   1.316   8.518 -0.3436  0.0153  0.0446
    2SAPS  H19R  212   5.098   1.372   8.484  0.8055 -1.5517  0.3980
    2SAPS  H19S  213   4.950   1.319   8.424  1.1314 -1.5348 -0.9757
    2SAPS  C220  214   5.066   1.182   8.542 -0.8403  0.3987 -0.1168
    2SAPS  H20R  215   5.131   1.147   8.458  3.4183  2.1871  2.1338
    2SAPS  H20S  216   4.987   1.105   8.556  3.4837 -4.6466 -0.2225
    2SAPS  H20T  217   5.124   1.180   8.637 -0.4973 -0.4285 -0.3347
    2SAPS   C33  218   4.889   2.084  10.019  0.0274  0.1022  0.4487
    2SAPS   H3X  219   4.809   2.050  10.087  0.0741 -3.4445 -1.0275
    2SAPS   H3Y  220   4.957   1.997  10.011 -1.8772 -1.3310 -1.5772
    2SAPS   C34  221   4.827   2.105   9.881 -0.1228  0.9848  0.1204
    2SAPS   H4X  222   4.734   2.166   9.886 -0.5848  0.6232 -2.5074
    2SAPS   H4Y  223   4.808   2.003   9.842  0.6712  0.1896  1.7741
    2SAPS   C35  224   4.923   2.166   9.779 -0.3557 -0.0693  0.0459
    2SAPS   H5X  225   5.008   2.095   9.766  1.3998  1.3620  2.9424
    2SAPS   H5Y  226   4.959   2.262   9.823 -2.8365  0.3471  1.3044
    2SAPS   C36  227   4.852   2.204   9.646 -0.1290  0.0060 -0.3176
    2SAPS   H6X  228   4.918   2.275   9.592  1.3161  0.3221  1.7122
    2SAPS   H6Y  229   4.763   2.259   9.681 -1.0571 -2.0119  0.6269
    2SAPS   C37  230   4.816   2.088   9.556 -0.2896  0.0931  0.2494
    2SAPS   H7X  231   4.748   2.035   9.627 -1.0048  2.4924  1.4644
    2SAPS   H7Y  232   4.910   2.028   9.548 -0.2787  0.1951 -0.4238
    2SAPS   C38  233   4.747   2.117   9.424  0.9617  0.1030 -0.5473
    2SAPS   H8X  234   4.805   2.198   9.376 -0.1304  1.1093 -0.2141
    2SAPS   H8Y  235   4.643   2.156   9.437  0.5110 -0.7817 -1.3107
    2SAPS   C39  236   4.740   1.999   9.328  0.2095 -0.1540  0.0207
    2SAPS   H9X  237   4.666   1.925   9.364 -0.7184  1.1319  0.8598
    2SAPS   H9Y  238   4.838   1.949   9.316 -0.7846 -1.9278 -1.2143
    2SAPS  C310  239   4.692   2.043   9.189 -0.0610 -0.2071  0.4878
    2SAPS  H10X  240   4.600   2.106   9.187 -2.9631 -4.0590  0.5529
    2SAPS  H10Y  241   4.650   1.962   9.126 -1.1489  2.6787 -2.8244
    2SAPS  C311  242   4.810   2.082   9.097  0.1217  0.2119  0.1093
    2SAPS  H11X  243   4.896   2.017   9.120 -1.4396 -1.5149  1.3515
    2SAPS  H11Y  244   4.834   2.188   9.119 -1.8663  0.5337  0.9628
    2SAPS  C312  245   4.768   2.055   8.947  0.1188 -0.4822 -0.0578
    2SAPS  H12X  246   4.712   1.959   8.939  0.0707 -0.3852 -0.9778
    2SAPS  H12Y  247   4.866   2.035   8.899  0.0776 -1.0542  0.0924
    2SAPS  C313  248   4.699   2.178   8.876 -0.3325 -0.3966 -0.4921
    2SAPS  H13X  249   4.776   2.257   8.890 -0.9937 -0.1383  2.4922
    2SAPS  H13Y  250   4.610   2.197   8.939  0.3139  1.9164 -0.1928
    2SAPS  C314  251   4.650   2.150   8.735 -0.0607 -0.7475  0.1574
    2SAPS  H14X  252   4.618   2.251   8.701 -1.4198 -0.6397  1.6440
    2SAPS  H14Y  253   4.564   2.082   8.750  1.6301 -2.6445  1.8548
    2SAPS  C315  254   4.748   2.090   8.634 -0.1709  0.2701  0.5668
    2SAPS  H15X  255   4.693   2.080   8.538  0.7665  0.8365 -0.0492
    2SAPS  H15Y  256   4.782   1.989   8.666 -0.2966 -0.5631 -1.7519
    2SAPS  C316  257   4.866   2.175   8.605  0.0354 -0.3174  0.8641
    2SAPS  H16X  258   4.919   2.184   8.702  0.4214 -0.3965  0.6625
    2SAPS  H16Y  259   4.847   2.284   8.592  2.3918 -0.0455 -1.1749
    2SAPS  C317  260   4.956   2.128   8.483  0.0956  0.1183  0.2258
    2SAPS  H17X  261   4.906   2.150   8.386  1.2795 -0.5587 -0.5770
    2SAPS  H17Y  262   4.966   2.018   8.488 -0.0918  0.1099  0.4201
    2SAPS  C318  263   5.098   2.193   8.481  0.1479  0.3810  0.5737
    2SAPS  H18X  264   5.095   2.301   8.456  1.5005  0.6365  1.3896
    2SAPS  H18Y  265   5.167   2.135   8.416 -0.1090 -0.5631  1.1239
    2SAPS  H18Z  266   5.140   2.182   8.584 -0.8071  0.3761  0.9678
    3SAPS     N  267   0.691   2.514  11.076  0.0899  0.2051  0.1187
    3SAPS   HN1  268   0.618   2.441  11.062  1.8291 -1.7267  0.6704
    3SAPS   HN2  269   0.710   2.507  11.178 -4.9617  0.8324  1.3757
    3SAPS   HN3  270   0.653   2.610  11.060 -1.2228 -0.6256 -2.3965
    3SAPS   C12  271   0.799   2.480  10.984 -0.2285 -0.7344 -0.6647
    3SAPS  H12A  272   0.886   2.535  11.016 -1.0222 -1.4952  3.2648
    3SAPS   C13  273   0.845   2.331  10.990 -0.3260  0.6823  0.3567
    3SAPS  O13A  274   0.804   2.256  11.088 -0.1193 -0.4601  0.4199
    3SAPS  O13B  275   0.931   2.287  10.910 -0.3129 -0.4223  0.0062
    3SAPS   C11  276   0.769   2.525  10.843  0.6551  0.0864 -0.0810
    3SAPS  H11A  277   0.682   2.478  10.792  0.5219  0.1570  0.0782
    3SAPS  H11B  278   0.861   2.495  10.789  1.2702 -1.5805  1.7639
    3SAPS     P  279   0.641   2.746  10.794  0.0104  0.1055  0.0824
    3SAPS   O13  280   0.532   2.717  10.888 -0.5276  0.1428  0.0280
    3SAPS   O14  281   0.686   2.887  10.772 -0.3132 -0.0462  0.2083
    3SAPS   O12  282   0.765   2.669  10.837  0.1011 -0.4017  0.1963
    3SAPS   O11  283   0.600   2.676  10.656 -0.0081  0.2732  0.0730
    3SAPS    C1  284   0.694   2.630  10.550  0.6933 -1.2341  0.4932
    3SAPS    HA  285   0.800   2.652  10.576  0.6917 -1.4600  0.6906
    3SAPS    HB  286   0.684   2.520  10.546 -0.8234 -1.0938 -1.9375
    3SAPS    C2  287   0.664   2.699  10.411  0.4304 -0.6199 -0.4441
    3SAPS    HS  288   0.741   2.674  10.334 -0.9351 -0.5167 -1.8965
    3SAPS   O21  289   0.642   2.843  10.419 -0.1414 -0.0430 -0.5334
    3SAPS   C21  290   0.750   2.913  10.442  0.2728 -0.4906  0.3415
    3SAPS   O22  291   0.865   2.874  10.455  0.2222 -0.2898 -0.7123
    3SAPS   C22  292   0.716   3.066  10.450  0.1264  0.1182  0.2955
    3SAPS   H2R  293   0.607   3.086  10.461 -0.0354 -0.0460 -0.8871
    3SAPS   H2S  294   0.749   3.081  10.555  1.9661  1.0310 -0.3773
    3SAPS    C3  295   0.530   2.633  10.356 -0.4974 -0.2722  0.6907
    3SAPS    HX  296   0.454   2.664  10.431 -2.1746 -0.9979 -0.6534
    3SAPS    HY  297   0.544   2.524  10.369 -0.5688 -0.1032  2.3912
    3SAPS   O31  298   0.499   2.679  10.220 -0.4409  0.8104 -0.6194
    3SAPS   C31  299   0.393   2.618  10.166  0.2260 -0.2285  0.4174
    3SAPS   O32  300   0.329   2.531  10.221 -0.2619 -0.2793 -0.2723
    3SAPS   C32  301   0.369   2.670  10.020 -0.3747  1.1253  0.1950
    3SAPS   H2X  302   0.455   2.735   9.996  1.0110 -0.3227  1.0460
    3SAPS   H2Y  303   0.272   2.722  10.006 -1.2556 -0.4365  0.1954
    3SAPS   C23  304   0.780   3.156  10.345  0.1075  0.3830 -0.2584
    3SAPS   H3R  305   0.882   3.112  10.341 -1.3283 -3.6008  1.6289
    3SAPS   H3S  306   0.776   3.254  10.396  1.1748 -0.1906  0.9948
    3SAPS   C24  307   0.697   3.173  10.218 -0.1382 -0.8811  0.1321
    3SAPS   H4R  308   0.608   3.232  10.248 -1.4460 -2.1083 -1.1594
    3SAPS   H4S  309   0.651   3.075  10.192 -0.4121  0.2030 -4.2440
    3SAPS   C25  310   0.767   3.237  10.100  0.0683  0.0797  0.0781
    3SAPS   H5R  311   0.741   3.342  10.085 -1.4197 -0.1176  1.0242
    3SAPS   C26  312   0.838   3.175  10.005  0.1304  0.4458  0.0094
    3SAPS   H6R  313   0.899   3.230   9.932  2.9436 -0.1729  1.7515
    3SAPS   C27  314   0.856   3.023   9.999  0.5227  0.0948  0.9308
    3SAPS   H7R  315   0.873   2.990   9.894 -0.2189 -2.7129  1.6126
    3SAPS   H7S  316   0.755   2.982  10.018 -0.5016  2.3052  0.6008
    3SAPS   C28  317   0.942   2.956  10.103  0.4010  0.0199 -0.2410
    3SAPS   H8R  318   0.945   3.014  10.196 -3.0871  0.3520 -0.1740
    3SAPS   C29  319   0.966   2.825  10.105  0.2090  0.0176  0.3139
    3SAPS   H9R  320   1.030   2.783  10.184 -0.8976 -0.9560  0.7348
    3SAPS  C210  321   0.934   2.724   9.998 -0.1536 -0.0319 -0.4848
    3SAPS  H10R  322   0.843   2.750   9.939  0.1575 -0.2382 -1.0491
    3SAPS  H10S  323   0.897   2.630  10.045  1.8243 -0.3459  0.5598
    3SAPS  C211  324   1.045   2.699   9.897 -0.2636  0.4148  0.2290
    3SAPS  H11R  325   1.135   2.657   9.944 -1.1347  0.3061  1.8596
    3SAPS  C212  326   1.053   2.711   9.762  0.3530 -0.5233 -0.1731
    3SAPS  H12R  327   1.147   2.692   9.707 -0.0784 -0.5131 -0.9198
    3SAPS  C213  328   0.942   2.761   9.678 -0.1479  0.6254  0.7497
    3SAPS  H13R  329   0.844   2.753   9.729 -0.4453 -0.9171 -0.0108
    3SAPS  H13S  330   0.947   2.685   9.597  1.0178 -0.7270  2.0244
    3SAPS  C214  331   0.975   2.898   9.625 -0.6920 -0.0549 -0.3747
    3SAPS  H14R  332   0.925   2.976   9.685  0.0280  0.8092 -0.8714
    3SAPS  C215  333   1.072   2.929   9.538  0.4878 -0.0446 -0.7173
    3SAPS  H15R  334   1.078   3.036   9.514  1.5244 -0.0307 -0.4337
    3SAPS  C216  335   1.159   2.838   9.455 -0.2140 -0.0912 -0.6723
    3SAPS  H16R  336   1.113   2.737   9.451 -2.5576  0.8188  0.8763
    3SAPS  H16S  337   1.249   2.829   9.520 -0.5327  1.7629  0.0831
    3SAPS  C217  338   1.196   2.889   9.317 -0.2043 -0.5865 -0.1845
    3SAPS  H17R  339   1.298   2.848   9.302  0.4701  1.8037 -2.9555
    3SAPS  H17S  340   1.200   3.000   9.311 -0.0722 -0.6458 -1.2543
    3SAPS  C218  341   1.115   2.828   9.198 -0.6508  0.4818 -0.6827
    3SAPS  H18R  342   1.033   2.764   9.238 -0.6964  1.3737  0.7370
    3SAPS  H18S  343   1.181   2.764   9.136 -0.9968 -1.1655  0.5729
    3SAPS  C219  344   1.053   2.937   9.118 -0.0567 -0.0154  0.1957
    3SAPS  H19R  345   1.046   3.024   9.187  1.3472 -0.1212  0.5140
    3SAPS  H19S  346   0.954   2.910   9.077  0.2817  0.7891 -1.2022
    3SAPS  C220  347   1.141   2.978   9.001 -0.5697  0.2880  0.1077
    3SAPS  H20R  348   1.121   3.077   8.956 -0.3385  0.0426 -0.5525
    3SAPS  H20S  349   1.116   2.910   8.916 -0.3305 -0.6285  0.7643
    3SAPS  H20T  350   1.244   2.962   9.039  0.1819  0.7660 -1.6141
    3SAPS   C33  351   0.377   2.547   9.927  0.4705  1.0222  0.3723
    3SAPS   H3X  352   0.279   2.495   9.935  2.0503 -2.9730 -2.5986
    3SAPS   H3Y  353   0.466   2.482   9.937  0.1513  0.4332 -0.4643
    3SAPS   C34  354   0.387   2.594   9.783 -0.3147 -0.2095 -0.1343
    3SAPS   H4X  355   0.484   2.647   9.767  0.4876 -1.9198 -1.2267
    3SAPS   H4Y  356   0.304   2.661   9.750 -2.3418 -2.8337 -0.6795
    3SAPS   C35  357   0.394   2.468   9.692 -0.9431  0.0284  0.2779
    3SAPS   H5X  358   0.303   2.405   9.702 -0.6241 -0.4999 -0.1244
    3SAPS   H5Y  359   0.475   2.401   9.726  0.8038  1.5855 -0.6336
    3SAPS   C36  360   0.408   2.491   9.537 -0.2991  1.1415  0.8220
    3SAPS   H6X  361   0.512   2.528   9.518  0.3512 -1.8572 -2.6161
    3SAPS   H6Y  362   0.341   2.566   9.491 -0.5203  0.5728  0.1987
    3SAPS   C37  363   0.395   2.357   9.466  0.1227 -0.3470  0.8251
    3SAPS   H7X  364   0.303   2.299   9.490 -0.1596 -0.8465 -1.2435
    3SAPS   H7Y  365   0.487   2.298   9.486  0.6717 -1.1322 -3.1621
    3SAPS   C38  366   0.395   2.373   9.313 -0.3524 -0.1557 -0.2126
    3SAPS   H8X  367   0.492   2.420   9.290  0.5259 -1.7212  0.1698
    3SAPS   H8Y  368   0.316   2.446   9.283 -0.9910 -0.0250  1.6685
    3SAPS   C39  369   0.380   2.245   9.234 -0.0445  0.3787  0.1656
    3SAPS   H9X  370   0.289   2.193   9.272 -1.3134 -0.6564 -3.7961
    3SAPS   H9Y  371   0.468   2.178   9.246 -0.2613  0.3362  1.7845
    3SAPS  C310  372   0.357   2.271   9.081 -0.5452 -0.2520  0.1775
    3SAPS  H10X  373   0.424   2.349   9.038  0.1208  0.0420  1.6689
    3SAPS  H10Y  374   0.251   2.302   9.090 -0.3245  0.9408 -0.9479
    3SAPS  C311  375   0.368   2.147   8.995 -0.0672  0.2256 -0.2278
    3SAPS  H11X  376   0.284   2.080   9.023 -0.2945  0.5591 -0.1015
    3SAPS  H11Y  377   0.468   2.099   9.004 -0.7080 -1.2557 -0.7325
    3SAPS  C312  378   0.358   2.170   8.840  0.6465 -0.5166  0.1291
    3SAPS  H12X  379   0.269   2.224   8.800  0.5307 -0.1522  0.8649
    3SAPS  H12Y  380   0.354   2.071   8.790  0.8573  0.3661 -1.7243
    3SAPS  C313  381   0.481   2.242   8.792 -0.3377  0.0851  0.4843
    3SAPS  H13X  382   0.566   2.171   8.802  0.0336  0.3230 -0.7395
    3SAPS  H13Y  383   0.494   2.342   8.839  2.3734  1.2383 -2.3618
    3SAPS  C314  384   0.466   2.275   8.646 -0.3966  0.5211  0.2695
    3SAPS  H14X  385   0.561   2.319   8.610 -0.3497 -0.2619 -0.6151
    3SAPS  H14Y  386   0.384   2.350   8.637 -0.9145 -0.2399 -1.8307
    3SAPS  C315  387   0.436   2.152   8.564 -0.1849  0.4833  0.3378
    3SAPS  H15X  388   0.328   2.129   8.571 -0.3813  1.4987  0.7429
    3SAPS  H15Y  389   0.486   2.062   8.606 -0.1684 -0.1197 -0.9207
    3SAPS  C316  390   0.478   2.168   8.417  0.0795  0.4950 -0.2470
    3SAPS  H16X  391   0.417   2.095   8.360  1.3489 -0.4186 -0.4931
    3SAPS  H16Y  392   0.582   2.134   8.394  0.4622 -0.7721  2.8982
    3SAPS  C317  393   0.446   2.314   8.371 -0.0699  0.2743  0.1055
    3SAPS  H17X  394   0.505   2.395   8.419  0.6700 -0.8657  1.1632
    3SAPS  H17Y  395   0.340   2.332   8.399 -0.4499  0.8652 -1.5776
    3SAPS  C318  396   0.456   2.336   8.220  0.5483 -0.2063 -0.6176
    3SAPS  H18X  397   0.481   2.444   8.215 -2.2099  0.6437  1.6200
    3SAPS  H18Y  398   0.362   2.326   8.162  0.3365 -0.7796 -0.1781
    3SAPS  H18Z  399   0.537   2.274   8.177  0.9940 -0.2961  0.3281
    4SAPS     N  400   2.491   3.879  11.131 -0.0443 -0.3633 -0.3675
    4SAPS   HN1  401   2.574   3.923  11.174 -1.6617  2.1121  0.3972
    4SAPS   HN2  402   2.492   3.919  11.035  1.6204 -0.4788 -0.4212
    4SAPS   HN3  403   2.400   3.914  11.168  0.6295  0.0660  0.9445
    4SAPS   C12  404   2.506   3.734  11.123  0.2789 -0.9380  0.2845
    4SAPS  H12A  405   2.607   3.723  11.085 -0.2887  1.3418 -2.1684
    4SAPS   C13  406   2.496   3.645  11.253  0.1536 -0.3036 -0.4024
    4SAPS  O13A  407   2.478   3.695  11.364 -0.6742  0.2309  0.7270
    4SAPS  O13B  408   2.500   3.519  11.240  0.9434 -0.4357  0.4862
    4SAPS   C11  409   2.400   3.679  11.020  0.5059 -0.2989  0.0728
    4SAPS  H11A  410   2.301   3.688  11.070  0.8962  3.0307  0.5135
    4SAPS  H11B  411   2.415   3.570  11.008  1.1825 -0.2445  0.3924
    4SAPS     P  412   2.515   3.699  10.789  0.5490  0.0132  0.6723
    4SAPS   O13  413   2.644   3.734  10.846  0.3297  0.1894  0.1529
    4SAPS   O14  414   2.489   3.558  10.752  0.3382  0.0510  0.0166
    4SAPS   O12  415   2.404   3.742  10.890  0.1263 -0.3169 -0.4965
    4SAPS   O11  416   2.494   3.774  10.648  0.4463  0.2758  0.2975
    4SAPS    C1  417   2.365   3.787  10.589 -0.1243  0.7314  0.1736
    4SAPS    HA  418   2.281   3.740  10.644  0.0882  1.3244  1.0256
    4SAPS    HB  419   2.343   3.896  10.587  0.5399  0.8640 -0.4174
    4SAPS    C2  420   2.362   3.752  10.430 -0.2140 -0.5129  0.0217
    4SAPS    HS  421   2.255   3.745  10.401  0.3487 -5.3870 -1.6144
    4SAPS   O21  422   2.424   3.623  10.407  0.7177  0.3040  0.8137
    4SAPS   C21  423   2.335   3.524  10.436  0.2323  0.3194 -0.5620
    4SAPS   O22  424   2.218   3.539  10.463  0.1119 -0.6762  0.1663
    4SAPS   C22  425   2.404   3.385  10.433 -0.1646 -0.5086  0.2948
    4SAPS   H2R  426   2.457   3.386  10.336  2.9363  1.5714  1.8721
    4SAPS   H2S  427   2.478   3.376  10.516  1.6469 -1.3270 -1.3319
    4SAPS    C3  428   2.419   3.859  10.335  0.0119 -0.2961  0.1925
    4SAPS    HX  429   2.404   3.828  10.229  1.1693  1.2815 -0.4671
    4SAPS    HY  430   2.527   3.873  10.355  0.2551  0.2187 -1.3337
    4SAPS   O31  431   2.358   3.982  10.363  0.3463 -0.8242 -0.1007
    4SAPS   C31  432   2.305   4.056  10.273  0.4127 -0.4232  0.4306
    4SAPS   O32  433   2.296   4.035  10.153 -0.0875  0.0112 -0.2875
    4SAPS   C32  434   2.236   4.190  10.335 -0.8392 -0.1345 -0.1116
    4SAPS   H2X  435   2.294   4.226  10.423  3.0971 -0.8591 -2.1909
    4SAPS   H2Y  436   2.134   4.161  10.366 -0.1808 -1.0285  1.3028
    4SAPS   C23  437   2.297   3.277  10.446  0.0291  0.2130 -0.2971
    4SAPS   H3R  438   2.235   3.287  10.537  1.6440 -0.2206  0.8896
    4SAPS   H3S  439   2.346   3.178  10.462  2.2727  1.5532  1.8130
    4SAPS   C24  440   2.197   3.268  10.320 -0.2458  1.0724  0.3027
    4SAPS   H4R  441   2.151   3.367  10.302 -3.0087  0.1711  1.7904
    4SAPS   H4S  442   2.112   3.202  10.347  0.2199  0.6152  0.6816
    4SAPS   C25  443   2.258   3.208  10.192 -0.1933 -0.9318 -0.5029
    4SAPS   H5R  444   2.297   3.105  10.205  1.1513 -0.1918  1.8580
    4SAPS   C26  445   2.260   3.260  10.068 -0.4670 -0.3386  0.6194
    4SAPS   H6R  446   2.296   3.203   9.981  1.9484  3.3960 -1.0705
    4SAPS   C27  447   2.215   3.397  10.023 -0.0309 -0.1076  0.1134
    4SAPS   H7R  448   2.277   3.436   9.939  0.7506 -0.1228  0.6729
    4SAPS   H7S  449   2.247   3.469  10.101  0.2418  0.5912 -0.6184
    4SAPS   C28  450   2.066   3.392  10.004 -0.2597 -0.4880  0.4991
    4SAPS   H8R  451   2.001   3.367  10.089 -1.3383 -0.4339 -0.2856
    4SAPS   C29  452   2.005   3.431   9.888  0.1762 -0.3335 -0.7209
    4SAPS   H9R  453   1.895   3.422   9.889 -0.0828  1.6544  2.0976
    4SAPS  C210  454   2.067   3.489   9.766 -0.1784 -0.2559 -0.4120
    4SAPS  H10R  455   2.046   3.421   9.680 -0.9178 -2.2503  1.2452
    4SAPS  H10S  456   2.178   3.482   9.767  0.0035  1.4894 -2.0901
    4SAPS  C211  457   2.017   3.628   9.746 -0.0218 -0.1980 -0.3332
    4SAPS  H11R  458   1.995   3.682   9.839  2.0935 -0.1890  0.2146
    4SAPS  C212  459   1.991   3.691   9.626  0.3283 -0.0592  0.4752
    4SAPS  H12R  460   1.964   3.797   9.633 -1.7869 -0.6670  3.2748
    4SAPS  C213  461   2.003   3.630   9.490 -0.1330 -0.3039 -0.2838
    4SAPS  H13R  462   2.003   3.709   9.412 -0.1036 -0.8047 -0.8046
    4SAPS  H13S  463   1.905   3.585   9.462 -0.7934  0.9967 -0.0932
    4SAPS  C214  464   2.117   3.536   9.458  0.0448  0.0135 -0.0504
    4SAPS  H14R  465   2.192   3.523   9.538 -1.2291  2.3192  1.6242
    4SAPS  C215  466   2.119   3.471   9.337 -0.7497 -0.9982  0.0168
    4SAPS  H15R  467   2.211   3.413   9.317 -0.5691 -1.0696  1.0196
    4SAPS  C216  468   2.018   3.477   9.226  0.8772  0.0828 -0.5196
    4SAPS  H16R  469   1.919   3.518   9.257  1.8724  1.0715  1.4923
    4SAPS  H16S  470   1.998   3.376   9.184 -0.1833 -0.1031  0.3886
    4SAPS  C217  471   2.056   3.569   9.104 -0.3383 -0.1603  0.6692
    4SAPS  H17R  472   2.094   3.661   9.152 -1.4150  1.2436 -1.0602
    4SAPS  H17S  473   1.960   3.588   9.052 -0.3927  0.0531  0.8494
    4SAPS  C218  474   2.157   3.507   9.005 -1.1857 -0.0771 -0.3562
    4SAPS  H18R  475   2.110   3.417   8.961 -2.9836  0.9870 -0.7429
    4SAPS  H18S  476   2.259   3.479   9.039 -2.2247 -1.3880  1.8869
    4SAPS  C219  477   2.189   3.611   8.893 -0.0368 -0.2947  1.0108
    4SAPS  H19R  478   2.214   3.712   8.933 -3.4414  0.2528  2.0632
    4SAPS  H19S  479   2.096   3.632   8.836  0.1503  2.2225  1.4944
    4SAPS  C220  480   2.302   3.569   8.798  0.7181  0.0163 -0.0174
    4SAPS  H20R  481   2.324   3.651   8.726 -2.1220  0.8636 -0.0507
    4SAPS  H20S  482   2.264   3.485   8.736 -0.4963 -0.0471  0.7828
    4SAPS  H20T  483   2.390   3.541   8.859 -1.9148 -2.7904  2.8579
    4SAPS   C33  484   2.211   4.313  10.245 -0.7140 -0.0880  0.4980
    4SAPS   H3X  485   2.303   4.338  10.187 -0.4969  0.7185  1.1659
    4SAPS   H3Y  486   2.195   4.400  10.312 -2.4157  0.3814 -0.4460
    4SAPS   C34  487   2.085   4.293  10.159  0.2265 -0.3577  0.0941
    4SAPS   H4X  488   1.990   4.302  10.216  1.2677  2.5639  1.5699
    4SAPS   H4Y  489   2.096   4.191  10.118 -0.9350  0.0697 -1.3755
    4SAPS   C35  490   2.081   4.402  10.047 -0.1594 -0.4076  0.5335
    4SAPS   H5X  491   2.051   4.498  10.094 -1.2535 -0.3612 -0.2345
    4SAPS   H5Y  492   2.006   4.363   9.975  1.7922 -0.3769 -1.6297
    4SAPS   C36  493   2.206   4.406   9.958  0.0979  0.2105 -0.0982
    4SAPS   H6X  494   2.237   4.301   9.939  1.3982  0.7366 -1.1202
    4SAPS   H6Y  495   2.289   4.464  10.005 -0.4436  0.6695  0.2970
    4SAPS   C37  496   2.190   4.464   9.812  0.5039  1.0710 -0.3752
    4SAPS   H7X  497   2.291   4.484   9.770  1.5104 -1.3501  0.7174
    4SAPS   H7Y  498   2.118   4.546   9.832 -0.9566 -0.2050 -0.2014
    4SAPS   C38  499   2.116   4.367   9.711  0.0386 -0.5906 -0.6111
    4SAPS   H8X  500   2.024   4.323   9.754  0.4927 -1.2261 -0.2632
    4SAPS   H8Y  501   2.181   4.277   9.700  1.1652 -0.1342  1.6229
    4SAPS   C39  502   2.082   4.425   9.578  0.0386 -0.2792 -0.4326
    4SAPS   H9X  503   2.007   4.505   9.592 -1.0354 -1.4598  0.8307
    4SAPS   H9Y  504   2.036   4.338   9.527 -0.1039 -1.8446  2.2048
    4SAPS  C310  505   2.210   4.458   9.492 -0.1408 -0.2922 -0.1844
    4SAPS  H10X  506   2.268   4.364   9.486 -0.6608 -0.9406  2.9172
    4SAPS  H10Y  507   2.277   4.527   9.547 -0.9715  0.9776 -0.7081
    4SAPS  C311  508   2.176   4.506   9.354  0.4557 -0.9989  0.7109
    4SAPS  H11X  509   2.130   4.607   9.361  0.5451 -0.9071 -0.0226
    4SAPS  H11Y  510   2.099   4.438   9.312  0.3307 -0.3639 -0.0977
    4SAPS  C312  511   2.294   4.495   9.248 -0.5429 -0.4159  0.6165
    4SAPS  H12X  512   2.351   4.400   9.248  0.7423  0.3217 -0.5310
    4SAPS  H12Y  513   2.371   4.571   9.274 -0.4092 -0.0120 -0.8867
    4SAPS  C313  514   2.243   4.528   9.104 -0.4245  0.3068 -0.1104
    4SAPS  H13X  515   2.152   4.591   9.109 -1.0605 -0.5627 -0.4516
    4SAPS  H13Y  516   2.210   4.437   9.049  3.1700 -0.6664 -0.9243
    4SAPS  C314  517   2.339   4.604   9.009  0.1451 -0.0224 -0.6428
    4SAPS  H14X  518   2.379   4.700   9.047  1.3553 -0.1904 -1.4421
    4SAPS  H14Y  519   2.283   4.617   8.914 -1.5530 -1.8035  0.0537
    4SAPS  C315  520   2.458   4.517   8.969 -0.0139  0.5719 -0.3848
    4SAPS  H15X  521   2.413   4.422   8.932 -1.8265  1.4602 -0.5962
    4SAPS  H15Y  522   2.507   4.493   9.066 -1.6367  1.5373  0.7419
    4SAPS  C316  523   2.558   4.582   8.874 -0.1028  0.0885 -0.0392
    4SAPS  H16X  524   2.613   4.657   8.935  0.8041  0.4875 -1.3109
    4SAPS  H16Y  525   2.510   4.628   8.786  2.1291  0.4390 -1.1372
    4SAPS  C317  526   2.669   4.485   8.836 -0.7475 -0.3255  0.1428
    4SAPS  H17X  527   2.619   4.397   8.790 -0.8536  0.0917 -0.5472
    4SAPS  H17Y  528   2.713   4.456   8.934 -2.6003  0.1038  1.1561
    4SAPS  C318  529   2.770   4.531   8.735 -0.3980 -0.3884  0.2405
    4SAPS  H18X  530   2.845   4.601   8.776 -2.2057  0.9207  1.5196
    4SAPS  H18Y  531   2.710   4.570   8.649  0.0732  3.0046  1.2786
    4SAPS  H18Z  532   2.831   4.452   8.687 -0.0711  0.8582 -1.4722
    5SAPS     N  533   6.134   4.764  11.349 -0.1768 -0.2835 -0.2508
    5SAPS   HN1  534   6.211   4.695  11.362 -1.0489 -1.2967 -0.2243
    5SAPS   HN2  535   6.096   4.791  11.442 -0.2620  0.8263 -0.5930
    5SAPS   HN3  536   6.053   4.717  11.302  0.1649 -0.3219 -0.8059
    5SAPS   C12  537   6.163   4.893  11.275 -0.9551 -0.0206  0.5537
    5SAPS  H12A  538   6.071   4.949  11.279 -0.9272  0.0205  0.6244
    5SAPS   C13  539   6.273   4.978  11.363  0.3794 -0.5567  0.7843
    5SAPS  O13A  540   6.318   4.921  11.471 -0.0200  0.3654  0.3071
    5SAPS  O13B  541   6.332   5.074  11.307 -0.3409  0.3122 -1.0636
    5SAPS   C11  542   6.205   4.848  11.133 -0.6759 -0.4175  0.2054
    5SAPS  H11A  543   6.305   4.800  11.123  0.3128  1.7560 -1.1065
    5SAPS  H11B  544   6.221   4.943  11.078 -3.4584  0.6894  1.1342
    5SAPS     P  545   5.987   4.808  10.980 -0.3179  0.5130  0.2744
    5SAPS   O13  546   5.875   4.720  11.001  0.0391 -0.2129  0.3483
    5SAPS   O14  547   5.952   4.947  11.000  0.0885  0.5861 -0.3130
    5SAPS   O12  548   6.107   4.767  11.069 -0.0998 -0.1658  0.0512
    5SAPS   O11  549   6.059   4.773  10.834  0.1398 -0.1580  0.1391
    5SAPS    C1  550   6.120   4.650  10.808 -1.1525  0.2910 -0.7907
    5SAPS    HA  551   6.229   4.659  10.831 -1.3537  1.6285 -0.2964
    5SAPS    HB  552   6.081   4.570  10.876 -0.4727 -0.7228 -1.5561
    5SAPS    C2  553   6.105   4.603  10.662  0.3772 -0.0388 -0.2811
    5SAPS    HS  554   6.181   4.523  10.646 -0.0620 -0.0411 -2.7248
    5SAPS   O21  555   6.133   4.709  10.571  0.2624 -0.1988  0.4761
    5SAPS   C21  556   6.263   4.740  10.564 -0.6039 -0.5320  0.0316
    5SAPS   O22  557   6.349   4.681  10.627 -0.2643 -0.5882  0.4832
    5SAPS   C22  558   6.278   4.856  10.461  0.1408 -0.3865 -0.4924
    5SAPS   H2R  559   6.198   4.849  10.385  1.3755 -0.6084 -1.8212
    5SAPS   H2S  560   6.265   4.954  10.513  0.0126 -1.1986  1.0683
    5SAPS    C3  561   5.960   4.555  10.646 -0.4510 -0.9945  0.2270
    5SAPS    HX  562   5.901   4.638  10.691  2.5127  0.4322  1.7435
    5SAPS    HY  563   5.944   4.461  10.703 -0.3824 -0.7909  0.5787
    5SAPS   O31  564   5.915   4.548  10.507 -0.0508  0.1486 -0.3376
    5SAPS   C31  565   5.966   4.453  10.434  1.2573 -0.1727  0.2741
    5SAPS   O32  566   6.035   4.364  10.473  0.1751 -0.0184  0.1881
    5SAPS   C32  567   5.920   4.471  10.285  0.1689  0.4823 -1.0236
    5SAPS   H2X  568   5.823   4.526  10.292 -1.6538 -2.6838  2.3340
    5SAPS   H2Y  569   5.898   4.366  10.255  0.9272 -0.5476  1.7302
    5SAPS   C23  570   6.409   4.851  10.381  0.4740  0.7032  0.4954
    5SAPS   H3R  571   6.424   4.746  10.348  0.8983  0.9266 -0.0316
    5SAPS   H3S  572   6.493   4.885  10.445  0.5414  0.8620  0.3231
    5SAPS   C24  573   6.403   4.942  10.261  0.7305  0.9727  0.5039
    5SAPS   H4R  574   6.500   4.943  10.207 -0.3500  0.8868 -1.5677
    5SAPS   H4S  575   6.379   5.044  10.300  0.2427  1.3023 -0.5975
    5SAPS   C25  576   6.294   4.906  10.153  0.1334  0.9420 -0.2091
    5SAPS   H5R  577   6.248   4.806  10.149  0.1554  0.9688 -2.0543
    5SAPS   C26  578   6.236   4.987  10.067  0.1812  0.6220  0.3196
    5SAPS   H6R  579   6.161   4.954   9.994  2.2220 -0.4922 -1.3723
    5SAPS   C27  580   6.271   5.132  10.059 -0.6311 -0.2216 -0.0923
    5SAPS   H7R  581   6.281   5.150   9.950  0.5947  0.8938  0.1795
    5SAPS   H7S  582   6.367   5.144  10.114 -0.1500 -3.3881 -0.0746
    5SAPS   C28  583   6.170   5.220  10.123 -0.1875  0.8283 -0.5057
    5SAPS   H8R  584   6.189   5.220  10.232 -2.2656 -0.3360 -0.0784
    5SAPS   C29  585   6.057   5.270  10.078 -0.3484 -0.3581 -0.2319
    5SAPS   H9R  586   6.006   5.336  10.149  3.1135  1.4267  0.8040
    5SAPS  C210  587   5.998   5.251   9.941  0.2043 -0.1080 -0.6086
    5SAPS  H10R  588   5.887   5.243   9.950  0.3260  0.2401  2.4995
    5SAPS  H10S  589   6.027   5.161   9.884 -0.9068  0.8341 -2.7868
    5SAPS  C211  590   6.049   5.369   9.860  0.8391 -0.3062 -0.7399
    5SAPS  H11R  591   6.156   5.382   9.881  0.5249 -2.1961  2.8591
    5SAPS  C212  592   5.982   5.444   9.767 -0.0232 -0.2741 -0.7390
    5SAPS  H12R  593   6.036   5.530   9.726  2.2751 -0.9473  0.6566
    5SAPS  C213  594   5.840   5.420   9.725 -0.3027 -0.5047  0.2410
    5SAPS  H13R  595   5.818   5.312   9.714  0.8287 -0.7557  0.2899
    5SAPS  H13S  596   5.821   5.461   9.624 -0.2522 -0.5069  0.2306
    5SAPS  C214  597   5.748   5.482   9.838  0.5264  0.2028  0.8314
    5SAPS  H14R  598   5.754   5.433   9.936  1.0817  0.0520  0.7244
    5SAPS  C215  599   5.650   5.570   9.822  0.1730 -0.5036  0.1237
    5SAPS  H15R  600   5.585   5.594   9.908  1.4550 -0.7183  1.1849
    5SAPS  C216  601   5.607   5.632   9.687 -0.1640 -0.3050 -0.5242
    5SAPS  H16R  602   5.497   5.647   9.692  0.0713  2.2441 -1.6252
    5SAPS  H16S  603   5.634   5.569   9.599 -0.1077 -0.5910 -0.3040
    5SAPS  C217  604   5.698   5.757   9.658 -0.0336  0.3294 -0.1779
    5SAPS  H17R  605   5.805   5.729   9.649 -0.2759 -0.6130 -0.2476
    5SAPS  H17S  606   5.675   5.826   9.742  0.7829 -0.1328  0.4436
    5SAPS  C218  607   5.671   5.828   9.526 -0.1471 -0.8366 -0.1299
    5SAPS  H18R  608   5.563   5.840   9.503  0.2002 -0.5183 -1.7149
    5SAPS  H18S  609   5.711   5.930   9.542  1.1193 -1.5769  1.7020
    5SAPS  C219  610   5.729   5.769   9.397 -1.2687  0.6053 -0.0145
    5SAPS  H19R  611   5.692   5.670   9.365  0.5729  0.1276 -0.7884
    5SAPS  H19S  612   5.839   5.758   9.414 -0.8569  2.0602 -1.4285
    5SAPS  C220  613   5.717   5.877   9.285 -0.4451 -0.7161  0.5101
    5SAPS  H20R  614   5.617   5.925   9.279 -0.8819 -1.7519 -1.1365
    5SAPS  H20S  615   5.739   5.840   9.183 -2.1122 -1.1028  0.2617
    5SAPS  H20T  616   5.794   5.956   9.303 -0.1937 -0.9967  0.6745
    5SAPS   C33  617   6.033   4.518  10.184  0.1233 -0.1171 -0.2505
    5SAPS   H3X  618   6.116   4.444  10.190  0.9230  0.8939  1.8863
    5SAPS   H3Y  619   6.076   4.614  10.220 -1.1814  1.2510 -2.1392
    5SAPS   C34  620   6.000   4.540  10.033 -0.0081 -0.2775  0.2475
    5SAPS   H4X  621   5.923   4.620  10.025 -1.0585 -1.1634  1.1228
    5SAPS   H4Y  622   5.953   4.444  10.004 -0.7769 -0.5508  2.2061
    5SAPS   C35  623   6.124   4.569   9.948  0.6439  0.4493  0.1649
    5SAPS   H5X  624   6.142   4.485   9.878 -0.1354  0.6078 -0.2463
    5SAPS   H5Y  625   6.208   4.583  10.018 -0.1802 -0.4635  1.3847
    5SAPS   C36  626   6.107   4.700   9.876 -0.4952 -0.2628  0.1812
    5SAPS   H6X  627   6.058   4.779   9.937  0.2929 -0.4904  1.1385
    5SAPS   H6Y  628   6.033   4.682   9.795  0.8456  1.3757 -1.4945
    5SAPS   C37  629   6.234   4.752   9.813 -0.2793 -0.9616  0.3935
    5SAPS   H7X  630   6.285   4.674   9.752 -0.9748  1.0194 -2.9816
    5SAPS   H7Y  631   6.310   4.776   9.891 -2.3865  1.9620  1.7136
    5SAPS   C38  632   6.204   4.862   9.712  0.5333  0.1351 -0.2008
    5SAPS   H8X  633   6.127   4.933   9.748  1.0052  0.5320  0.0343
    5SAPS   H8Y  634   6.160   4.820   9.619 -1.0182 -0.3982  0.7451
    5SAPS   C39  635   6.325   4.941   9.675 -0.5993 -0.4914  0.1882
    5SAPS   H9X  636   6.402   4.879   9.624 -0.3783  1.9631 -2.7093
    5SAPS   H9Y  637   6.376   4.992   9.761 -0.7053 -1.8794  1.1086
    5SAPS  C310  638   6.293   5.039   9.566  0.1079  0.0328 -1.1103
    5SAPS  H10X  639   6.234   5.121   9.611 -1.1274 -0.9492 -0.8998
    5SAPS  H10Y  640   6.235   5.004   9.478  0.6637 -2.5327 -0.5093
    5SAPS  C311  641   6.420   5.102   9.513  0.2739 -0.0488 -0.3128
    5SAPS  H11X  642   6.481   5.023   9.465 -0.6389  0.6629 -2.8741
    5SAPS  H11Y  643   6.465   5.141   9.606 -0.9273 -0.2297  0.3678
    5SAPS  C312  644   6.390   5.222   9.424  0.2247 -1.0323 -0.5658
    5SAPS  H12X  645   6.348   5.299   9.492  1.7023  1.3637 -2.2153
    5SAPS  H12Y  646   6.319   5.202   9.342  0.3426  2.2833 -1.6281
    5SAPS  C313  647   6.514   5.299   9.367  0.0851 -0.6906  0.8746
    5SAPS  H13X  648   6.585   5.229   9.318  1.8241  1.6808 -0.1664
    5SAPS  H13Y  649   6.560   5.351   9.453  0.0407  1.3912 -0.2784
    5SAPS  C314  650   6.481   5.408   9.267 -0.5345 -0.8752  0.5711
    5SAPS  H14X  651   6.564   5.478   9.242 -0.7794 -0.7978 -0.0671
    5SAPS  H14Y  652   6.400   5.475   9.304  0.9759  1.6401 -0.4041
    5SAPS  C315  653   6.413   5.365   9.137 -0.5023 -0.0211  0.2832
    5SAPS  H15X  654   6.379   5.449   9.073 -1.8794  0.1789  1.2426
    5SAPS  H15Y  655   6.315   5.322   9.167 -0.9743  1.2357  0.6137
    5SAPS  C316  656   6.493   5.270   9.047 -0.6260  0.3282  0.2223
    5SAPS  H16X  657   6.514   5.172   9.095  1.6390  1.0100  0.7587
    5SAPS  H16Y  658   6.587   5.321   9.014 -0.2915 -0.8471 -0.6892
    5SAPS  C317  659   6.419   5.232   8.919 -0.3485  0.1437 -0.2829
    5SAPS  H17X  660   6.398   5.330   8.870 -0.5266  2.0026  3.2515
    5SAPS  H17Y  661   6.322   5.185   8.945 -0.7227  1.5654  0.9923
    5SAPS  C318  662   6.491   5.126   8.834 -0.4371  0.2350  0.3493
    5SAPS  H18X  663   6.521   5.045   8.903  1.0515  0.9562  0.5921
    5SAPS  H18Y  664   6.584   5.168   8.791  0.7231 -2.2352  0.2880
    5SAPS  H18Z  665   6.439   5.068   8.755  1.6323 -1.1349 -0.0785
    6SAPS     N  666   3.899   3.972  10.736  0.2346  0.0436  0.5544
    6SAPS   HN1  667   3.997   3.988  10.705 -0.1953  2.5707  0.3155
    6SAPS   HN2  668   3.845   3.917  10.667 -0.4285  0.3195  0.8478
    6SAPS   HN3  669   3.863   4.069  10.738  1.2471  0.4884 -1.0406
    6SAPS   C12  670   3.893   3.899  10.858  0.0090 -0.0433  0.0467
    6SAPS  H12A  671   3.955   3.810  10.855  0.3782  0.2405 -0.9775
    6SAPS   C13  672   3.950   3.979  10.978  0.4099  0.1366  0.4543
    6SAPS  O13A  673   3.991   4.096  10.970  0.0014 -0.0275 -0.1510
    6SAPS  O13B  674   3.960   3.914  11.086  0.6415  0.2536  0.3945
    6SAPS   C11  675   3.742   3.869  10.896  0.1079  0.0162 -0.2615
    6SAPS  H11A  676   3.681   3.961  10.909 -0.8909 -0.3446 -2.1130
    6SAPS  H11B  677   3.752   3.818  10.994 -1.3266  0.3780  0.0926
    6SAPS     P  678   3.752   3.648  10.758  0.1436 -0.1354 -0.1033
    6SAPS   O13  679   3.836   3.605  10.873 -0.3926 -0.2882  0.2652
    6SAPS   O14  680   3.661   3.544  10.716 -0.0233  0.0501 -0.6254
    6SAPS   O12  681   3.676   3.773  10.805 -0.4431  0.2898 -0.0519
    6SAPS   O11  682   3.835   3.709  10.641 -0.0444  0.5109  0.1345
    6SAPS    C1  683   3.929   3.631  10.566 -0.1514  0.5061 -0.3708
    6SAPS    HA  684   4.023   3.609  10.620  1.3176  3.9463 -1.2330
    6SAPS    HB  685   3.897   3.528  10.542  0.8811  0.0401  0.1995
    6SAPS    C2  686   3.965   3.693  10.425  0.2393  0.0298  0.5138
    6SAPS    HS  687   4.030   3.779  10.452 -1.2008  0.5146  2.7022
    6SAPS   O21  688   3.845   3.743  10.360  0.6931 -0.2290  0.2237
    6SAPS   C21  689   3.753   3.657  10.306 -0.4471  0.2066  0.4851
    6SAPS   O22  690   3.749   3.539  10.328  0.1526  0.1168  0.2576
    6SAPS   C22  691   3.644   3.727  10.234  0.0777  0.5782 -0.0447
    6SAPS   H2R  692   3.554   3.742  10.298 -1.3234 -0.3984 -1.7081
    6SAPS   H2S  693   3.671   3.830  10.201  0.4231 -0.1010 -1.9842
    6SAPS    C3  694   4.049   3.609  10.326 -0.7950 -0.2680 -0.2488
    6SAPS    HX  695   3.994   3.513  10.319 -0.3173 -0.8269  2.6237
    6SAPS    HY  696   4.149   3.582  10.367 -0.5286 -2.2991 -2.0520
    6SAPS   O31  697   4.063   3.670  10.195 -0.5081 -0.2030 -0.3741
    6SAPS   C31  698   4.156   3.757  10.175 -1.0111 -0.1435  0.4868
    6SAPS   O32  699   4.234   3.801  10.262 -0.4434 -0.2600  1.1592
    6SAPS   C32  700   4.180   3.775  10.023 -0.4289 -0.6968  0.6159
    6SAPS   H2X  701   4.087   3.826   9.989 -0.1507 -1.1982 -0.9672
    6SAPS   H2Y  702   4.189   3.673   9.980 -0.5194 -1.4438  2.2696
    6SAPS   C23  703   3.618   3.659  10.095 -1.2439  0.4934  0.1903
    6SAPS   H3R  704   3.566   3.562  10.113 -0.7261  0.3799  1.1500
    6SAPS   H3S  705   3.718   3.642  10.051 -0.3284  1.1671  1.9147
    6SAPS   C24  706   3.528   3.733   9.997  0.9323  0.0388  0.0383
    6SAPS   H4R  707   3.423   3.744  10.031  0.6041  0.6358 -1.1308
    6SAPS   H4S  708   3.527   3.672   9.904  0.7097 -1.0661  0.7396
    6SAPS   C25  709   3.582   3.875   9.963 -0.2042 -0.4640  0.3140
    6SAPS   H5R  710   3.559   3.970  10.014  0.8340  0.2607 -0.5307
    6SAPS   C26  711   3.690   3.904   9.882  0.0846 -0.5073  0.2242
    6SAPS   H6R  712   3.728   4.007   9.867  0.9816 -0.9660 -0.7711
    6SAPS   C27  713   3.776   3.795   9.811  0.6844 -0.3737  0.4261
    6SAPS   H7R  714   3.731   3.696   9.835 -2.0423  0.8637  0.8459
    6SAPS   H7S  715   3.878   3.785   9.853  1.5655 -0.6191 -1.7086
    6SAPS   C28  716   3.790   3.816   9.666  0.4935 -0.6158  0.4724
    6SAPS   H8R  717   3.731   3.745   9.606  2.4632 -2.2306  0.3040
    6SAPS   C29  718   3.871   3.899   9.599  0.3077  0.5321  0.0864
    6SAPS   H9R  719   3.860   3.913   9.491  1.6976  2.6822  0.1620
    6SAPS  C210  720   3.966   3.996   9.654  0.0594  0.8254  0.4422
    6SAPS  H10R  721   4.066   3.948   9.660  0.4377  1.4516 -0.5324
    6SAPS  H10S  722   3.946   4.011   9.762 -2.1888 -2.0879  0.5424
    6SAPS  C211  723   3.978   4.128   9.580  0.2657  0.3091  0.1749
    6SAPS  H11R  724   3.954   4.210   9.649  0.1811 -0.2917  0.8744
    6SAPS  C212  725   4.011   4.148   9.451 -0.5357 -0.3626  0.2753
    6SAPS  H12R  726   4.039   4.250   9.422  0.1747 -0.2907  1.1618
    6SAPS  C213  727   4.038   4.049   9.334  0.7644  0.2202 -0.2643
    6SAPS  H13R  728   4.077   3.955   9.378  1.2210  1.0744  1.2525
    6SAPS  H13S  729   4.123   4.089   9.274  0.5287 -1.1769 -1.5698
    6SAPS  C214  730   3.924   4.033   9.237  0.4226 -0.4911  0.1925
    6SAPS  H14R  731   3.859   4.118   9.214  1.4296 -0.1968 -1.7422
    6SAPS  C215  732   3.893   3.917   9.177 -0.1701 -0.1762  0.0962
    6SAPS  H15R  733   3.804   3.913   9.112 -0.5248 -1.5033  0.6496
    6SAPS  C216  734   3.959   3.782   9.197 -0.7650  0.3478 -0.9574
    6SAPS  H16R  735   3.885   3.700   9.182 -0.7008  0.2667 -0.8326
    6SAPS  H16S  736   3.991   3.779   9.304  0.0497  1.3074 -1.1718
    6SAPS  C217  737   4.078   3.764   9.111  0.4150 -0.0278  1.0506
    6SAPS  H17R  738   4.132   3.675   9.149  2.5901  1.5394  1.8270
    6SAPS  H17S  739   4.150   3.849   9.117  1.4544 -0.7690 -0.4468
    6SAPS  C218  740   4.038   3.736   8.962 -0.1038  0.3606 -0.3434
    6SAPS  H18R  741   3.939   3.687   8.968  0.5589 -1.2033 -1.4668
    6SAPS  H18S  742   4.101   3.648   8.936 -0.1297 -0.7052  2.7612
    6SAPS  C219  743   4.047   3.862   8.874 -0.2871 -0.1485 -0.0621
    6SAPS  H19R  744   4.116   3.934   8.925  1.4423 -0.0550 -2.3941
    6SAPS  H19S  745   3.949   3.913   8.863  0.7269  1.7697 -0.5408
    6SAPS  C220  746   4.080   3.820   8.733  0.2374 -0.0531 -1.0022
    6SAPS  H20R  747   4.173   3.760   8.733  1.0131  0.8648 -4.5705
    6SAPS  H20S  748   4.081   3.901   8.657 -2.9439  0.7327 -0.3621
    6SAPS  H20T  749   4.007   3.742   8.701  0.5554 -1.2165  0.9974
    6SAPS   C33  750   4.305   3.861   9.998 -0.1476 -0.5828 -0.4202
    6SAPS   H3X  751   4.400   3.815  10.033 -0.1738  0.7814  1.6030
    6SAPS   H3Y  752   4.285   3.955  10.053  0.6272 -0.5892 -0.1191
    6SAPS   C34  753   4.318   3.908   9.849  0.0476 -0.6893  0.1224
    6SAPS   H4X  754   4.395   3.987   9.859 -1.1302  0.5799 -0.5509
    6SAPS   H4Y  755   4.222   3.958   9.823  0.4954 -0.1714 -0.5520
    6SAPS   C35  756   4.368   3.813   9.745 -0.0447  0.0088 -0.6292
    6SAPS   H5X  757   4.292   3.734   9.729 -1.1450  0.6926  0.9768
    6SAPS   H5Y  758   4.456   3.758   9.785 -1.2096 -0.8588  0.8493
    6SAPS   C36  759   4.401   3.871   9.609  0.0230  0.1592 -0.1051
    6SAPS   H6X  760   4.465   3.957   9.638  0.6689 -0.1606 -0.5808
    6SAPS   H6Y  761   4.307   3.919   9.574 -1.6975 -1.2186  2.3255
    6SAPS   C37  762   4.467   3.781   9.501  0.2877 -0.4638 -0.6792
    6SAPS   H7X  763   4.394   3.701   9.476 -0.0959 -0.1710 -0.5133
    6SAPS   H7Y  764   4.560   3.734   9.541 -0.1524 -1.6359 -0.9924
    6SAPS   C38  765   4.508   3.856   9.377 -0.3613 -0.3832  0.4343
    6SAPS   H8X  766   4.548   3.953   9.415 -1.7094  0.0357  0.8322
    6SAPS   H8Y  767   4.419   3.880   9.314  0.6562 -1.8044 -1.6773
    6SAPS   C39  768   4.615   3.778   9.298  0.0414  0.1702 -0.2418
    6SAPS   H9X  769   4.574   3.679   9.269 -1.2272  0.4682  0.4766
    6SAPS   H9Y  770   4.706   3.774   9.362 -2.6836  1.8310  4.1954
    6SAPS  C310  771   4.670   3.858   9.183  0.5694 -0.7965 -0.9986
    6SAPS  H10X  772   4.719   3.953   9.214  2.5774 -2.3121  0.7379
    6SAPS  H10Y  773   4.592   3.894   9.112  1.6409 -1.2367 -2.4316
    6SAPS  C311  774   4.778   3.778   9.113 -0.0050 -0.3671 -0.1447
    6SAPS  H11X  775   4.722   3.692   9.071 -0.6139  0.4863 -1.1361
    6SAPS  H11Y  776   4.857   3.748   9.186  0.1901 -0.6356 -0.4625
    6SAPS  C312  777   4.853   3.844   8.997  0.4796 -0.4370  0.2160
    6SAPS  H12X  778   4.959   3.813   8.985  0.7670  0.7705 -0.5885
    6SAPS  H12Y  779   4.836   3.953   9.011 -0.8527 -0.6071  0.0626
    6SAPS  C313  780   4.787   3.797   8.866  0.2330 -0.5731  0.3906
    6SAPS  H13X  781   4.688   3.848   8.866  1.4170  1.9611  1.9542
    6SAPS  H13Y  782   4.777   3.687   8.854 -2.0667 -0.2093 -1.8732
    6SAPS  C314  783   4.865   3.840   8.741  0.0609 -0.6914 -0.7502
    6SAPS  H14X  784   4.815   3.791   8.654  2.1354 -3.2971 -0.6226
    6SAPS  H14Y  785   4.966   3.796   8.758  0.0864 -0.0115  1.0673
    6SAPS  C315  786   4.869   3.992   8.724 -0.2483 -0.2036 -0.5213
    6SAPS  H15X  787   4.897   4.044   8.818 -1.3964  0.0153 -0.2908
    6SAPS  H15Y  788   4.775   4.046   8.699 -0.9915 -0.2513  1.8756
    6SAPS  C316  789   4.971   4.012   8.618 -0.9787 -0.5106  0.2673
    6SAPS  H16X  790   5.051   3.936   8.633 -0.1658  0.4957  1.1943
    6SAPS  H16Y  791   5.026   4.107   8.631  2.6461 -2.6016  1.9489
    6SAPS  C317  792   4.916   3.986   8.479 -0.0955  0.4656  0.5544
    6SAPS  H17X  793   4.844   3.902   8.469 -0.6571  1.0541 -0.4254
    6SAPS  H17Y  794   5.011   3.955   8.430 -0.6527 -1.3094  0.5131
    6SAPS  C318  795   4.845   4.107   8.420 -0.0491  0.5224  0.0298
    6SAPS  H18X  796   4.903   4.196   8.453  0.1309  0.5727 -0.4142
    6SAPS  H18Y  797   4.743   4.111   8.462  0.9736 -1.5825  3.0663
    6SAPS  H18Z  798   4.846   4.098   8.310 -0.6970  2.2641 -0.1422
    7SAPS     N  799   0.328   2.749  11.047  0.3213 -0.6240  0.0013
    7SAPS   HN1  800   0.266   2.716  10.971  0.3049  0.0107 -0.2702
    7SAPS   HN2  801   0.424   2.752  11.006  0.6661  2.5043  0.7141
    7SAPS   HN3  802   0.334   2.670  11.114  1.7318 -1.5182 -1.1227
    7SAPS   C12  803   0.301   2.889  11.083 -0.0248 -0.5540  0.0723
    7SAPS  H12A  804   0.194   2.904  11.089  0.0354 -0.5122  1.0729
    7SAPS   C13  805   0.365   2.952  11.209 -0.4392 -0.9347 -0.5467
    7SAPS  O13A  806   0.452   2.885  11.270  0.6367  0.0831  0.5486
    7SAPS  O13B  807   0.352   3.077  11.221 -0.3603  0.2720 -0.4412
    7SAPS   C11  808   0.349   2.983  10.968  0.5875 -0.5309  0.6727
    7SAPS  H11A  809   0.460   2.981  10.969  0.7492 -0.3059 -3.1259
    7SAPS  H11B  810   0.319   3.089  10.985 -1.2808 -0.8710 -0.2600
    7SAPS     P  811   0.159   2.999  10.780  0.2092 -0.1351 -0.3907
    7SAPS   O13  812   0.051   2.913  10.840 -0.5204  0.0536 -0.1522
    7SAPS   O14  813   0.150   3.138  10.812  0.1385  0.0891  0.7786
    7SAPS   O12  814   0.304   2.950  10.838  0.4979  0.0565  0.9658
    7SAPS   O11  815   0.151   2.978  10.625 -0.3277  0.1597 -0.4986
    7SAPS    C1  816   0.211   2.857  10.556 -0.0988  0.2645  0.2035
    7SAPS    HA  817   0.291   2.892  10.487 -1.1768 -0.3204 -1.4176
    7SAPS    HB  818   0.272   2.797  10.626  1.6652  1.8833  0.1630
    7SAPS    C2  819   0.110   2.758  10.497 -1.2679 -0.2537 -0.0111
    7SAPS    HS  820   0.156   2.671  10.445 -3.0565 -0.7948 -0.7773
    7SAPS   O21  821   0.022   2.826  10.404 -0.0169  0.1089  0.1391
    7SAPS   C21  822   0.077   2.869  10.287  0.1133 -0.3811 -0.6692
    7SAPS   O22  823   0.193   2.845  10.245 -0.9455  0.2612  0.1964
    7SAPS   C22  824  -0.021   2.961  10.205 -0.6003  0.6523 -0.6636
    7SAPS   H2R  825  -0.061   3.033  10.279  0.3773 -0.1887  0.7339
    7SAPS   H2S  826   0.029   3.027  10.131 -2.2744  0.6895 -1.8028
    7SAPS    C3  827   0.009   2.698  10.600 -0.4644 -1.0150  0.0337
    7SAPS    HX  828  -0.042   2.789  10.638  0.1001 -0.3600 -0.7254
    7SAPS    HY  829   0.076   2.666  10.682 -0.3178  0.3297  0.4585
    7SAPS   O31  830  -0.081   2.601  10.547  0.7080 -0.4342  0.4918
    7SAPS   C31  831  -0.039   2.473  10.554  0.1962 -0.0327 -0.1773
    7SAPS   O32  832   0.063   2.440  10.611  0.3827 -0.2248 -0.2631
    7SAPS   C32  833  -0.156   2.382  10.514 -0.3727 -0.5299 -0.0207
    7SAPS   H2X  834  -0.252   2.437  10.506 -1.0435 -1.7514 -0.6283
    7SAPS   H2Y  835  -0.164   2.312  10.599  2.4612 -0.2202  0.6079
    7SAPS   C23  836  -0.128   2.881  10.132  0.0472 -0.0796 -0.0108
    7SAPS   H3R  837  -0.200   2.954  10.089  0.3546 -0.4373 -1.1772
    7SAPS   H3S  838  -0.189   2.820  10.201 -0.0340 -0.5348 -0.4781
    7SAPS   C24  839  -0.072   2.782  10.030  0.6498  0.7584  0.0610
    7SAPS   H4R  840  -0.031   2.706  10.101  0.1814 -1.0095 -1.4694
    7SAPS   H4S  841   0.009   2.827   9.969 -0.0780  0.4112 -1.1807
    7SAPS   C25  842  -0.183   2.731   9.942 -0.4690  0.1018  0.0336
    7SAPS   H5R  843  -0.263   2.675   9.992 -0.2245  1.3676  1.9317
    7SAPS   C26  844  -0.200   2.753   9.814  0.1735 -0.1133 -0.4304
    7SAPS   H6R  845  -0.273   2.692   9.760 -2.0317  0.4626  1.7292
    7SAPS   C27  846  -0.103   2.831   9.725  1.1339 -0.9329 -0.7854
    7SAPS   H7R  847  -0.055   2.907   9.791  1.6333 -1.3930 -0.6078
    7SAPS   H7S  848  -0.165   2.890   9.655  0.2220 -1.5474 -0.5219
    7SAPS   C28  849   0.001   2.748   9.666 -0.0918  0.4073 -0.1743
    7SAPS   H8R  850   0.061   2.694   9.740 -0.3962  0.6322  0.2388
    7SAPS   C29  851   0.017   2.730   9.535 -0.6070  0.1057  0.1336
    7SAPS   H9R  852   0.106   2.679   9.494 -2.3805 -0.9278 -2.7414
    7SAPS  C210  853  -0.076   2.783   9.429  0.2357 -0.3436 -0.1754
    7SAPS  H10R  854  -0.021   2.784   9.333  2.5708 -3.6301  0.9468
    7SAPS  H10S  855  -0.126   2.881   9.440  1.6722  0.5707 -1.4939
    7SAPS  C211  856  -0.192   2.692   9.408  0.0766 -0.0029  0.3022
    7SAPS  H11R  857  -0.249   2.664   9.498 -2.3513  3.2773 -0.0070
    7SAPS  C212  858  -0.239   2.653   9.288  0.2088 -0.0654  0.8280
    7SAPS  H12R  859  -0.321   2.581   9.283  1.6687 -1.8164  1.0667
    7SAPS  C213  860  -0.176   2.679   9.150  0.5499  0.5837 -0.3286
    7SAPS  H13R  861  -0.099   2.602   9.127 -0.3801 -0.7349  0.8004
    7SAPS  H13S  862  -0.123   2.776   9.151 -1.9586  2.0578  1.6919
    7SAPS  C214  863  -0.288   2.678   9.042 -0.9840 -0.0447  0.4163
    7SAPS  H14R  864  -0.389   2.713   9.070 -1.7422 -1.0968 -0.8877
    7SAPS  C215  865  -0.261   2.669   8.911  0.1136  0.2652  0.6312
    7SAPS  H15R  866  -0.351   2.688   8.851 -0.1571  2.2568  1.6184
    7SAPS  C216  867  -0.124   2.643   8.842  0.1588  0.3253 -0.5084
    7SAPS  H16R  868  -0.113   2.533   8.833  1.9184  0.2150  1.9596
    7SAPS  H16S  869  -0.042   2.677   8.909  1.2437  0.0907 -1.6649
    7SAPS  C217  870  -0.103   2.703   8.696 -0.2135 -0.0440 -0.2058
    7SAPS  H17R  871  -0.002   2.667   8.664 -1.0866 -1.1031 -1.9469
    7SAPS  H17S  872  -0.107   2.813   8.708  0.5405  0.1890 -1.7788
    7SAPS  C218  873  -0.209   2.660   8.597 -0.4428  0.7985 -0.4639
    7SAPS  H18R  874  -0.301   2.616   8.639 -0.3015 -0.0276 -0.9987
    7SAPS  H18S  875  -0.163   2.578   8.537 -0.2067  2.7404 -3.0840
    7SAPS  C219  876  -0.241   2.768   8.498 -0.2766  0.5119  0.2153
    7SAPS  H19R  877  -0.145   2.807   8.458 -0.0718 -1.5723 -1.4586
    7SAPS  H19S  878  -0.289   2.849   8.558  0.4850  0.7088  0.5727
    7SAPS  C220  879  -0.328   2.737   8.372  0.0668 -0.0300 -0.4312
    7SAPS  H20R  880  -0.336   2.815   8.294 -2.1999 -2.8088 -3.2664
    7SAPS  H20S  881  -0.433   2.726   8.405  0.2434 -0.1135  0.1225
    7SAPS  H20T  882  -0.286   2.641   8.334 -2.6582 -1.4913 -0.0260
    7SAPS   C33  883  -0.138   2.299  10.389 -0.5321  0.4885  0.0095
    7SAPS   H3X  884  -0.240   2.258  10.372 -0.2440  0.2606 -1.2729
    7SAPS   H3Y  885  -0.060   2.221  10.403 -1.7651 -0.5996  1.1684
    7SAPS   C34  886  -0.097   2.379  10.263 -0.0662  0.4461 -0.3059
    7SAPS   H4X  887  -0.012   2.449  10.279  0.2589 -0.1306  0.5927
    7SAPS   H4Y  888  -0.185   2.439  10.232 -0.7404 -0.5969 -0.4819
    7SAPS   C35  889  -0.064   2.296  10.143  0.2910 -0.4750 -0.1080
    7SAPS   H5X  890  -0.139   2.214  10.128  1.9301 -1.8092 -1.3967
    7SAPS   H5Y  891   0.038   2.257  10.164 -0.3744 -1.1028  2.1811
    7SAPS   C36  892  -0.062   2.380  10.020  0.3579  0.4451  0.0257
    7SAPS   H6X  893   0.006   2.467  10.033  2.1281 -0.8851  0.0307
    7SAPS   H6Y  894  -0.165   2.421  10.009 -0.0875 -0.7753 -0.5276
    7SAPS   C37  895  -0.029   2.297   9.895  0.4746  0.0593  0.6675
    7SAPS   H7X  896  -0.083   2.200   9.895  0.1548  0.2228 -0.7866
    7SAPS   H7Y  897   0.078   2.267   9.883 -0.2529 -2.1180 -0.8453
    7SAPS   C38  898  -0.080   2.366   9.767 -0.1219  0.3661  0.7696
    7SAPS   H8X  899  -0.026   2.460   9.741 -2.8414  1.6378 -0.7173
    7SAPS   H8Y  900  -0.188   2.387   9.784 -0.3662  0.0886 -0.3616
    7SAPS   C39  901  -0.061   2.272   9.644  0.5308 -0.5457  0.2414
    7SAPS   H9X  902  -0.126   2.185   9.666 -0.6778  0.0105 -1.0093
    7SAPS   H9Y  903   0.042   2.233   9.632  0.0015 -1.4568 -1.6981
    7SAPS  C310  904  -0.102   2.340   9.514  0.2279 -0.0084  0.2589
    7SAPS  H10X  905  -0.043   2.434   9.513 -0.5248  0.5027  1.0791
    7SAPS  H10Y  906  -0.209   2.371   9.518 -0.1091 -0.8950 -1.1244
    7SAPS  C311  907  -0.068   2.256   9.400  0.4138 -0.2956  0.3682
    7SAPS  H11X  908  -0.130   2.165   9.397  0.8218 -0.5590 -1.4192
    7SAPS  H11Y  909   0.040   2.229   9.400  0.4572 -0.1279  0.7676
    7SAPS  C312  910  -0.096   2.328   9.268 -0.3417  0.0911  0.0915
    7SAPS  H12X  911  -0.044   2.426   9.262  1.7439 -0.9748 -0.0750
    7SAPS  H12Y  912  -0.203   2.355   9.256 -1.3216 -2.9256  1.0493
    7SAPS  C313  913  -0.066   2.233   9.152  0.0070 -0.2435 -0.2374
    7SAPS  H13X  914  -0.121   2.137   9.167 -1.0704 -0.3038 -3.5566
    7SAPS  H13Y  915   0.042   2.208   9.153 -0.1681 -1.0444 -0.2500
    7SAPS  C314  916  -0.105   2.288   9.007  0.6192  0.1560  0.2463
    7SAPS  H14X  917  -0.059   2.390   9.008  0.1873  0.4036 -1.4397
    7SAPS  H14Y  918  -0.215   2.280   8.994  0.7189  1.1795 -1.6590
    7SAPS  C315  919  -0.047   2.204   8.899  0.2939  0.6159 -0.2037
    7SAPS  H15X  920  -0.100   2.108   8.880  2.5018 -0.3918 -1.7001
    7SAPS  H15Y  921   0.057   2.177   8.929  0.0942 -0.8509 -0.7440
    7SAPS  C316  922  -0.047   2.266   8.761 -0.3533  0.0260 -0.5350
    7SAPS  H16X  923   0.024   2.351   8.758 -1.3161  0.8355 -0.9219
    7SAPS  H16Y  924  -0.147   2.307   8.735 -2.3879 -2.7594  2.0989
    7SAPS  C317  925   0.007   2.173   8.657 -0.1129 -0.2597  0.3047
    7SAPS  H17X  926  -0.046   2.075   8.649 -1.2134  0.4213 -1.4605
    7SAPS  H17Y  927   0.107   2.138   8.690 -0.8358 -1.1593  1.6186
    7SAPS  C318  928   0.014   2.232   8.514 -0.4764  0.1395 -0.2285
    7SAPS  H18X  929  -0.086   2.224   8.467 -1.7174 -1.9794  2.4820
    7SAPS  H18Y  930   0.093   2.179   8.457 -2.0133 -3.1278  0.4712
    7SAPS  H18Z  931   0.049   2.337   8.506 -0.2640  0.0443 -0.5904
    8SAPS     N  932   5.754   5.100  11.040  0.3459 -0.2718 -0.3000
    8SAPS   HN1  933   5.733   5.178  10.976 -4.4606  1.7112  3.1235
    8SAPS   HN2  934   5.838   5.043  11.015  2.3320  2.2107  0.2957
    8SAPS   HN3  935   5.671   5.038  11.036 -1.5252  1.9300  1.5106
    8SAPS   C12  936   5.754   5.166  11.177  0.2261  0.0661  0.6716
    8SAPS  H12A  937   5.687   5.250  11.167 -0.1693 -0.0607  2.1135
    8SAPS   C13  938   5.693   5.082  11.287 -0.5637 -0.1878 -0.3083
    8SAPS  O13A  939   5.617   4.988  11.260 -0.3061  0.1123 -0.5855
    8SAPS  O13B  940   5.679   5.130  11.402  0.2823  0.0530  0.6392
    8SAPS   C11  941   5.891   5.221  11.214  0.1934  0.1589  0.1950
    8SAPS  H11A  942   5.949   5.133  11.248 -2.2942 -0.9759  1.7466
    8SAPS  H11B  943   5.876   5.279  11.308 -1.6479  1.9839 -1.1132
    8SAPS     P  944   5.939   5.440  11.062  0.2397 -0.2145 -0.1069
    8SAPS   O13  945   5.815   5.482  11.131 -0.0403  0.3544  0.0884
    8SAPS   O14  946   6.056   5.519  11.099  0.1515  0.0146 -0.5915
    8SAPS   O12  947   5.959   5.288  11.105  0.2344 -0.9298  0.4204
    8SAPS   O11  948   5.908   5.435  10.898  0.6012  0.9792 -0.3381
    8SAPS    C1  949   6.013   5.445  10.801 -0.4219  0.0297 -0.6922
    8SAPS    HA  950   5.983   5.504  10.712  2.1518 -2.6004 -3.5780
    8SAPS    HB  951   6.107   5.499  10.827 -0.1472  0.8842 -3.1487
    8SAPS    C2  952   6.035   5.311  10.731  0.1022 -0.2779 -0.1372
    8SAPS    HS  953   6.106   5.258  10.798  2.4113  1.3881 -1.1093
    8SAPS   O21  954   6.103   5.334  10.607  0.5084  0.0442  0.1965
    8SAPS   C21  955   6.238   5.335  10.617  0.3598 -0.0641  0.3627
    8SAPS   O22  956   6.296   5.303  10.720 -0.4841  0.6975 -0.2382
    8SAPS   C22  957   6.289   5.378  10.478  0.0138 -0.8901 -0.2792
    8SAPS   H2R  958   6.229   5.338  10.393  1.2957 -2.4834 -0.4788
    8SAPS   H2S  959   6.274   5.487  10.486  1.2351 -0.5879 -1.6439
    8SAPS    C3  960   5.911   5.237  10.698  0.1663  0.7252 -0.5002
    8SAPS    HX  961   5.849   5.296  10.626  0.2510 -0.0874 -1.2525
    8SAPS    HY  962   5.851   5.221  10.790 -0.3879  0.4695 -0.8987
    8SAPS   O31  963   5.932   5.120  10.621  0.0859 -0.6796  0.6570
    8SAPS   C31  964   5.829   5.032  10.620  0.1116 -0.2356  0.0341
    8SAPS   O32  965   5.749   5.015  10.712 -0.2997  0.1792 -0.3187
    8SAPS   C32  966   5.831   4.930  10.504 -0.2298  0.3468  0.0784
    8SAPS   H2X  967   5.732   4.881  10.497  0.6220 -1.2253 -2.9874
    8SAPS   H2Y  968   5.896   4.844  10.531 -0.2654 -1.0215 -3.6217
    8SAPS   C23  969   6.440   5.345  10.467  0.4882  0.2693  0.0500
    8SAPS   H3R  970   6.449   5.234  10.471 -1.5721 -0.0294 -1.8238
    8SAPS   H3S  971   6.485   5.381  10.562  2.8554 -0.7002 -0.6171
    8SAPS   C24  972   6.506   5.403  10.339  0.2015  0.3833 -0.1765
    8SAPS   H4R  973   6.472   5.337  10.256 -1.4145  0.0868  0.6710
    8SAPS   H4S  974   6.616   5.391  10.341  0.2592  0.1647 -2.2239
    8SAPS   C25  975   6.464   5.548  10.331 -0.2919 -0.1136  0.3885
    8SAPS   H5R  976   6.482   5.612  10.419 -1.9413  1.1140 -0.1251
    8SAPS   C26  977   6.404   5.612  10.231 -0.0045 -0.0075 -0.3148
    8SAPS   H6R  978   6.388   5.721  10.233 -2.3354 -0.2670 -1.0535
    8SAPS   C27  979   6.344   5.553  10.105  0.4751 -0.0583  0.7880
    8SAPS   H7R  980   6.242   5.511  10.119  0.4617 -0.1840  0.3403
    8SAPS   H7S  981   6.407   5.467  10.072 -1.6608 -0.8156 -1.6544
    8SAPS   C28  982   6.336   5.666   9.998 -0.2926 -0.2888  0.0670
    8SAPS   H8R  983   6.308   5.769  10.025 -0.1422 -0.2528  0.0867
    8SAPS   C29  984   6.388   5.653   9.872  0.1053  0.2638  0.3359
    8SAPS   H9R  985   6.378   5.725   9.791 -0.2718  0.2848  0.3970
    8SAPS  C210  986   6.445   5.522   9.826 -0.3941 -0.1188 -0.2472
    8SAPS  H10R  987   6.426   5.504   9.719  1.0378  0.8707 -0.6966
    8SAPS  H10S  988   6.385   5.441   9.871 -0.1149  0.1955  0.7384
    8SAPS  C211  989   6.592   5.490   9.841 -0.6842 -0.1546 -0.3264
    8SAPS  H11R  990   6.633   5.448   9.933 -1.1481  2.7403  1.3076
    8SAPS  C212  991   6.677   5.505   9.738  0.2799 -1.3237 -0.0744
    8SAPS  H12R  992   6.783   5.482   9.758  1.4680  2.1033 -1.6581
    8SAPS  C213  993   6.656   5.568   9.604 -0.2394  0.2122 -0.0693
    8SAPS  H13R  994   6.551   5.576   9.567 -0.0573 -1.0598 -0.9089
    8SAPS  H13S  995   6.702   5.505   9.526  1.6401 -1.7344  2.4671
    8SAPS  C214  996   6.717   5.703   9.602 -0.3501 -0.1217 -0.5393
    8SAPS  H14R  997   6.679   5.765   9.684 -2.2643 -0.3513 -1.1972
    8SAPS  C215  998   6.818   5.743   9.520  0.3185  0.4462  0.4269
    8SAPS  H15R  999   6.866   5.839   9.546  1.8930 -0.3440  0.5724
    8SAPS  C216 1000   6.874   5.659   9.404  0.2124 -0.1122 -0.0472
    8SAPS  H16R 1001   6.876   5.549   9.423  0.0526 -0.1956 -0.5025
    8SAPS  H16S 1002   6.978   5.697   9.400  0.7560 -1.0124  2.8282
    8SAPS  C217 1003   6.801   5.686   9.267 -0.0364 -0.5695 -0.4187
    8SAPS  H17R 1004   6.807   5.796   9.255 -0.5706 -0.3945  0.8410
    8SAPS  H17S 1005   6.694   5.658   9.266 -0.5882  1.3976 -0.3222
    8SAPS  C218 1006   6.881   5.629   9.148 -0.3584 -0.1461  0.3385
    8SAPS  H18R 1007   6.900   5.519   9.152 -0.4057 -0.1564  0.2615
    8SAPS  H18S 1008   6.985   5.669   9.146 -0.7039  0.7346 -0.4058
    8SAPS  C219 1009   6.809   5.644   9.010  0.6092 -0.4482 -0.4283
    8SAPS  H19R 1010   6.819   5.750   8.979  0.7071 -0.3818 -0.1734
    8SAPS  H19S 1011   6.700   5.632   9.026  1.0131 -0.9249  2.3158
    8SAPS  C220 1012   6.864   5.559   8.890  0.2048  0.0702 -0.0059
    8SAPS  H20R 1013   6.969   5.592   8.873  0.0343  1.4302  1.3300
    8SAPS  H20S 1014   6.810   5.573   8.794  1.1891  1.3197 -0.4173
    8SAPS  H20T 1015   6.864   5.450   8.909  0.0764 -0.0411 -0.6087
    8SAPS   C33 1016   5.882   4.976  10.368 -0.0443  0.1888 -0.4750
    8SAPS   H3X 1017   5.971   4.911  10.349 -1.2891 -1.8806  0.4891
    8SAPS   H3Y 1018   5.924   5.079  10.360  0.6837 -0.1184 -0.8009
    8SAPS   C34 1019   5.765   4.955  10.261  0.0596  0.7401 -0.7402
    8SAPS   H4X 1020   5.680   5.020  10.290  0.1246  0.1811  0.8162
    8SAPS   H4Y 1021   5.724   4.852  10.271  2.5223 -0.2457 -0.1226
    8SAPS   C35 1022   5.782   4.989  10.109  0.0341 -0.2736  0.0050
    8SAPS   H5X 1023   5.881   4.950  10.078  0.6675  0.5320  0.9743
    8SAPS   H5Y 1024   5.807   5.097  10.098  3.8988 -0.8434  1.5314
    8SAPS   C36 1025   5.672   4.939  10.016 -0.4109  0.2252 -0.3194
    8SAPS   H6X 1026   5.572   4.969  10.054  0.4007  2.2336  0.3635
    8SAPS   H6Y 1027   5.676   4.829  10.033 -0.0307  0.1535 -0.8681
    8SAPS   C37 1028   5.694   4.979   9.865 -0.1438  0.6649  0.1365
    8SAPS   H7X 1029   5.720   5.087   9.869 -1.3549  1.0926 -1.8209
    8SAPS   H7Y 1030   5.590   4.966   9.829 -1.1007  1.4663  2.4661
    8SAPS   C38 1031   5.797   4.885   9.796 -0.0545 -0.0158  0.2208
    8SAPS   H8X 1032   5.772   4.779   9.817 -1.0203  0.1039 -0.2865
    8SAPS   H8Y 1033   5.899   4.906   9.836  0.0554 -1.8153  1.0070
    8SAPS   C39 1034   5.801   4.887   9.641 -0.3445 -0.2329  0.2578
    8SAPS   H9X 1035   5.698   4.887   9.599 -0.3347 -1.2011  0.2036
    8SAPS   H9Y 1036   5.852   4.798   9.599  1.9071  1.5104 -0.9219
    8SAPS  C310 1037   5.861   5.013   9.578  0.3695 -0.1381 -0.1130
    8SAPS  H10X 1038   5.948   5.048   9.639  0.3704 -1.5901  0.7488
    8SAPS  H10Y 1039   5.788   5.097   9.586 -1.5530 -1.5274 -2.0142
    8SAPS  C311 1040   5.904   4.996   9.438  0.0635  0.0543 -0.2533
    8SAPS  H11X 1041   5.816   4.972   9.374  0.2835  1.2008 -1.0127
    8SAPS  H11Y 1042   5.966   4.905   9.446 -1.6495 -1.0799  1.0123
    8SAPS  C312 1043   5.971   5.122   9.386 -0.9664  0.2698  0.3723
    8SAPS  H12X 1044   6.038   5.157   9.468 -0.4192 -1.3566  0.6388
    8SAPS  H12Y 1045   5.907   5.212   9.377  1.0713  2.0158  2.1390
    8SAPS  C313 1046   6.048   5.106   9.247 -0.3056  0.0524 -0.4380
    8SAPS  H13X 1047   6.127   5.028   9.256  0.4952  0.9167  0.1948
    8SAPS  H13Y 1048   6.109   5.196   9.226  1.7467 -1.2474 -0.3065
    8SAPS  C314 1049   5.941   5.078   9.138 -0.5594  0.0678 -0.4220
    8SAPS  H14X 1050   5.857   5.151   9.145  0.7397  1.5418  0.4438
    8SAPS  H14Y 1051   5.907   4.973   9.153  1.3116 -0.6607 -1.0577
    8SAPS  C315 1052   6.015   5.089   9.008  0.4642  0.7258  0.4003
    8SAPS  H15X 1053   6.120   5.052   9.017  0.5827  0.6190 -1.1780
    8SAPS  H15Y 1054   6.036   5.195   8.981 -0.2489  0.6733 -0.4093
    8SAPS  C316 1055   5.940   5.021   8.896 -0.1249  0.7942 -0.1710
    8SAPS  H16X 1056   5.834   5.054   8.903  0.1985  1.4890  2.2490
    8SAPS  H16Y 1057   5.937   4.912   8.913  2.2382  0.7919  0.4814
    8SAPS  C317 1058   5.999   5.065   8.757  0.4685 -0.8043  1.0001
    8SAPS  H17X 1059   6.109   5.052   8.754  0.7504  1.4038  0.0700
    8SAPS  H17Y 1060   5.992   5.175   8.751  1.1613 -0.8582 -1.7215
    8SAPS  C318 1061   5.911   5.012   8.643  0.0324 -0.0030 -0.0273
    8SAPS  H18X 1062   5.807   5.049   8.633 -0.5172 -1.9151 -2.1022
    8SAPS  H18Y 1063   5.901   4.902   8.641 -4.1411  0.2207 -1.7780
    8SAPS  H18Z 1064   5.966   5.029   8.548  1.5323 -0.6969  0.6835
    9SAPS     N 1065   0.776   3.999   6.194 -0.2244  0.7627 -0.5327
    9SAPS   HN1 1066   0.755   3.906   6.235  2.2257  1.1340  1.7747
    9SAPS   HN2 1067   0.745   4.069   6.264 -1.9388 -0.2306 -0.2342
    9SAPS   HN3 1068   0.733   4.020   6.101 -1.6664  0.3863  0.0219
    9SAPS   C12 1069   0.925   4.019   6.208 -0.6941  0.2375  0.1546
    9SAPS  H12A 1070   0.976   3.975   6.123 -0.3206  2.4786 -0.8703
    9SAPS   C13 1071   0.959   4.170   6.203 -0.4329 -0.3995 -0.1659
    9SAPS  O13A 1072   0.864   4.249   6.217  0.0731 -0.1764 -0.0942
    9SAPS  O13B 1073   1.072   4.198   6.243 -0.7335  0.2270 -0.6001
    9SAPS   C11 1074   0.972   3.952   6.347  1.0877  0.5823  0.2682
    9SAPS  H11A 1075   0.934   4.016   6.429  0.4924  0.9088 -0.2530
    9SAPS  H11B 1076   1.082   3.961   6.359  1.2835 -1.2325  0.1068
    9SAPS     P 1077   1.016   3.694   6.400  0.0416  0.3782  0.5172
    9SAPS   O13 1078   0.924   3.578   6.403 -0.0824 -0.7849  0.1697
    9SAPS   O14 1079   1.127   3.678   6.307 -0.4751 -0.0564  0.0464
    9SAPS   O12 1080   0.925   3.813   6.360  0.2869 -0.5945 -0.1452
    9SAPS   O11 1081   1.072   3.731   6.540 -0.5108  0.1588 -0.3353
    9SAPS    C1 1082   1.002   3.705   6.664  0.1562  0.0172 -0.0613
    9SAPS    HA 1083   0.960   3.602   6.666  0.7895 -0.2409  0.7782
    9SAPS    HB 1084   1.070   3.694   6.751  0.9969  0.5123 -0.6366
    9SAPS    C2 1085   0.900   3.812   6.708 -0.1753  0.3191  0.6354
    9SAPS    HS 1086   0.826   3.818   6.625 -0.1495  0.4937  0.6236
    9SAPS   O21 1087   0.969   3.933   6.715  0.4925 -0.4901  0.3239
    9SAPS   C21 1088   0.893   4.041   6.698 -0.0664 -0.0295  0.5200
    9SAPS   O22 1089   0.781   4.032   6.642  0.0632  0.1711  0.2100
    9SAPS   C22 1090   0.960   4.161   6.762 -0.6788  0.3892  0.1530
    9SAPS   H2R 1091   1.030   4.118   6.836 -1.3940 -1.0652  0.0058
    9SAPS   H2S 1092   1.016   4.215   6.682  1.4025 -2.8334 -0.7400
    9SAPS    C3 1093   0.810   3.772   6.834 -0.1086 -0.0988 -0.2314
    9SAPS    HX 1094   0.820   3.665   6.862 -0.6473  0.2979  1.6265
    9SAPS    HY 1095   0.706   3.791   6.801 -1.4405 -0.4232  3.3245
    9SAPS   O31 1096   0.827   3.850   6.952 -0.1828 -0.6248  0.5341
    9SAPS   C31 1097   0.911   3.806   7.042  0.3611 -0.0342  0.4501
    9SAPS   O32 1098   0.987   3.717   7.032  0.0206  0.0463 -0.1868
    9SAPS   C32 1099   0.897   3.889   7.172  0.2622 -0.1044  0.2854
    9SAPS   H2X 1100   0.787   3.900   7.189  0.2435 -0.6101  0.4848
    9SAPS   H2Y 1101   0.930   3.989   7.136 -3.6027  0.1833 -3.3047
    9SAPS   C23 1102   0.860   4.256   6.832 -0.2157  0.6702  0.4106
    9SAPS   H3R 1103   0.764   4.277   6.779 -1.3146 -1.1473  1.5502
    9SAPS   H3S 1104   0.913   4.352   6.850  1.6366 -0.3741  0.7282
    9SAPS   C24 1105   0.840   4.193   6.975  0.3620  0.2788  0.0736
    9SAPS   H4R 1106   0.940   4.192   7.024  1.0909  1.2073 -1.3055
    9SAPS   H4S 1107   0.801   4.090   6.963 -1.8096  0.8049  1.9807
    9SAPS   C25 1108   0.740   4.281   7.049  0.0074 -0.6616 -0.2104
    9SAPS   H5R 1109   0.668   4.323   6.977  1.2931 -0.0985 -1.2170
    9SAPS   C26 1110   0.742   4.315   7.182  0.5849  0.4922 -0.4979
    9SAPS   H6R 1111   0.671   4.391   7.217  0.4313 -0.5520  1.6229
    9SAPS   C27 1112   0.849   4.270   7.287  0.4126 -0.0962  0.2235
    9SAPS   H7R 1113   0.913   4.190   7.244  2.1954  0.6404  1.4074
    9SAPS   H7S 1114   0.794   4.223   7.372 -0.6167 -0.9818 -0.8847
    9SAPS   C28 1115   0.930   4.389   7.327 -0.2888  0.3841 -0.3093
    9SAPS   H8R 1116   0.958   4.459   7.247  0.9568 -0.5213 -0.7099
    9SAPS   C29 1117   0.964   4.432   7.449  0.2443  0.0922  0.3462
    9SAPS   H9R 1118   1.030   4.520   7.456 -0.4756  0.6551  0.1707
    9SAPS  C210 1119   0.919   4.361   7.578 -0.1312  0.6490  0.0737
    9SAPS  H10R 1120   1.000   4.293   7.612 -0.4042  1.1587  1.8049
    9SAPS  H10S 1121   0.835   4.290   7.565  1.2347 -0.9542 -0.4885
    9SAPS  C211 1122   0.871   4.452   7.682 -0.0140 -1.4514 -0.0712
    9SAPS  H11R 1123   0.805   4.532   7.645  0.3965 -1.9836 -2.0824
    9SAPS  C212 1124   0.907   4.450   7.813  0.1648  0.1792 -0.0726
    9SAPS  H12R 1125   0.861   4.523   7.880  0.0358 -0.6081  0.7180
    9SAPS  C213 1126   0.999   4.349   7.877  0.6535 -0.4200  0.1928
    9SAPS  H13R 1127   1.104   4.382   7.862 -0.0472  1.1128 -1.7668
    9SAPS  H13S 1128   0.988   4.248   7.831 -1.6216 -0.7458  1.3115
    9SAPS  C214 1129   0.961   4.323   8.021 -0.0433  0.2997  0.3556
    9SAPS  H14R 1130   0.882   4.249   8.038  0.5479 -0.2547  0.7372
    9SAPS  C215 1131   1.030   4.368   8.127  0.3434  0.7005  0.0602
    9SAPS  H15R 1132   0.978   4.364   8.224 -0.3907  1.4125 -0.2927
    9SAPS  C216 1133   1.144   4.466   8.129  0.1640  0.0806 -0.1680
    9SAPS  H16R 1134   1.213   4.431   8.050  0.8029 -1.4507  1.0239
    9SAPS  H16S 1135   1.199   4.463   8.226  1.5582 -0.0116 -0.9421
    9SAPS  C217 1136   1.107   4.609   8.089 -0.2513  0.5758 -0.1321
    9SAPS  H17R 1137   1.064   4.617   7.987 -2.5157  0.3710  0.7464
    9SAPS  H17S 1138   1.202   4.666   8.097  1.1967 -1.7244 -0.0797
    9SAPS  C218 1139   1.002   4.664   8.180 -0.3337 -0.2385  0.3254
    9SAPS  H18R 1140   1.033   4.673   8.287 -2.1902 -2.1102  1.0856
    9SAPS  H18S 1141   0.912   4.600   8.187 -0.4333 -0.2761 -1.0298
    9SAPS  C219 1142   0.940   4.800   8.130  0.0180 -0.0656 -0.6367
    9SAPS  H19R 1143   0.848   4.828   8.185  1.2123  0.1782  1.3320
    9SAPS  H19S 1144   0.908   4.795   8.023  2.3458  0.1637 -1.4121
    9SAPS  C220 1145   1.058   4.890   8.122 -0.3746 -0.2506 -0.2649
    9SAPS  H20R 1146   1.148   4.851   8.071 -0.3212 -1.5549  0.7873
    9SAPS  H20S 1147   1.087   4.924   8.224 -0.2890 -1.8361  0.2635
    9SAPS  H20T 1148   1.023   4.976   8.061 -0.0982 -0.0450 -0.1354
    9SAPS   C33 1149   0.942   3.834   7.302  0.0202 -0.8859  0.4382
    9SAPS   H3X 1150   1.053   3.826   7.295 -0.1738 -2.9922 -1.5002
    9SAPS   H3Y 1151   0.906   3.732   7.326 -0.6402 -0.4339  1.4102
    9SAPS   C34 1152   0.913   3.933   7.420 -0.9624  0.5308 -0.2957
    9SAPS   H4X 1153   0.804   3.947   7.437 -1.5912  0.2260 -3.4491
    9SAPS   H4Y 1154   0.963   4.028   7.392  2.5158 -0.5407  1.6299
    9SAPS   C35 1155   0.994   3.877   7.544  0.6111 -0.3741 -0.3455
    9SAPS   H5X 1156   1.105   3.879   7.534  0.5813  0.2408 -0.5461
    9SAPS   H5Y 1157   0.955   3.776   7.568  0.4370  0.2034  1.9477
    9SAPS   C36 1158   0.956   3.938   7.683 -0.1751 -0.7360 -0.2298
    9SAPS   H6X 1159   0.845   3.930   7.691 -0.1892 -0.4078 -0.0777
    9SAPS   H6Y 1160   0.992   4.043   7.688 -2.4228  0.1641 -1.2964
    9SAPS   C37 1161   1.012   3.858   7.814  0.4336 -0.0095  0.2821
    9SAPS   H7X 1162   1.122   3.841   7.824  0.5761 -0.1543 -1.2268
    9SAPS   H7Y 1163   0.968   3.756   7.816 -0.0280  0.1876  2.1960
    9SAPS   C38 1164   0.970   3.938   7.942 -0.4044 -0.8104 -0.0343
    9SAPS   H8X 1165   0.860   3.955   7.944 -1.1356 -4.3884 -1.7240
    9SAPS   H8Y 1166   1.025   4.035   7.939  0.1589 -1.0305  2.0784
    9SAPS   C39 1167   1.003   3.860   8.078  0.1697 -0.2722  1.1662
    9SAPS   H9X 1168   1.113   3.845   8.080  0.1812 -1.0575 -1.7341
    9SAPS   H9Y 1169   0.952   3.762   8.078  0.6529 -0.5879 -1.3126
    9SAPS  C310 1170   0.970   3.952   8.200  0.4425 -0.3245 -0.0943
    9SAPS  H10X 1171   0.860   3.960   8.213  0.0626 -1.3707 -2.2576
    9SAPS  H10Y 1172   0.995   4.057   8.174  1.1081 -0.4330  0.0870
    9SAPS  C311 1173   1.046   3.909   8.334 -0.0711 -0.4216 -0.2089
    9SAPS  H11X 1174   1.147   3.955   8.346 -0.6722  0.5252  1.5930
    9SAPS  H11Y 1175   1.056   3.798   8.334 -1.5051 -0.5796  1.6075
    9SAPS  C312 1176   0.970   3.953   8.459  0.3952  0.6650  0.3991
    9SAPS  H12X 1177   1.035   3.914   8.539  1.7243 -2.0309 -1.8076
    9SAPS  H12Y 1178   0.878   3.891   8.461  0.5859  0.3973  1.8116
    9SAPS  C313 1179   0.949   4.104   8.473 -0.5074 -0.5483  0.0577
    9SAPS  H13X 1180   0.895   4.122   8.569 -1.1786 -0.2540 -0.3681
    9SAPS  H13Y 1181   0.883   4.145   8.393 -1.4258  0.3841  1.2458
    9SAPS  C314 1182   1.071   4.194   8.477  0.1375  0.9461  0.2142
    9SAPS  H14X 1183   1.124   4.190   8.379  0.7413  0.8592  0.5367
    9SAPS  H14Y 1184   1.140   4.147   8.550 -1.5820 -4.0667 -0.9848
    9SAPS  C315 1185   1.044   4.347   8.517 -0.3564  0.3296  0.5655
    9SAPS  H15X 1186   0.968   4.356   8.598 -1.6302  1.4071 -0.7004
    9SAPS  H15Y 1187   0.987   4.393   8.434 -1.0855 -1.2350  0.1500
    9SAPS  C316 1188   1.172   4.428   8.544 -0.1902 -0.2208  0.2181
    9SAPS  H16X 1189   1.233   4.422   8.451  0.3877  1.4408  0.4693
    9SAPS  H16Y 1190   1.232   4.382   8.625 -3.9040 -3.4227  1.4853
    9SAPS  C317 1191   1.149   4.578   8.575  0.3344  0.5986  0.6211
    9SAPS  H17X 1192   1.059   4.603   8.514  1.7412 -0.1561 -1.9520
    9SAPS  H17Y 1193   1.238   4.638   8.547 -0.4000  2.7084  2.5619
    9SAPS  C318 1194   1.127   4.595   8.723 -0.8815 -0.3736  0.3480
    9SAPS  H18X 1195   1.219   4.593   8.786  0.4139  2.8217 -1.2130
    9SAPS  H18Y 1196   1.051   4.522   8.758 -0.2434 -1.2350 -0.0346
    9SAPS  H18Z 1197   1.086   4.697   8.738 -1.1105 -0.4061 -0.0518
   10SAPS     N 1198   1.613   3.334   6.016  0.4045  0.1173 -0.6088
   10SAPS   HN1 1199   1.695   3.316   6.077  0.0158  3.5981  1.1794
   10SAPS   HN2 1200   1.530   3.318   6.077  0.8872 -0.6455 -0.1366
   10SAPS   HN3 1201   1.607   3.269   5.934 -2.9612  0.9331 -1.1823
   10SAPS   C12 1202   1.642   3.471   5.976  0.6843  1.0514 -0.3535
   10SAPS  H12A 1203   1.746   3.485   5.952  0.3012  2.1109 -1.4966
   10SAPS   C13 1204   1.557   3.510   5.853 -0.3708 -0.1301 -0.3208
   10SAPS  O13A 1205   1.475   3.430   5.804  0.1515  0.1213 -0.4439
   10SAPS  O13B 1206   1.583   3.626   5.806 -0.9747 -0.0342 -0.4400
   10SAPS   C11 1207   1.597   3.561   6.091 -0.6280  0.2270  0.2075
   10SAPS  H11A 1208   1.490   3.544   6.116  0.2876 -1.7498  3.2468
   10SAPS  H11B 1209   1.608   3.667   6.058  1.8979 -0.1441 -0.3232
   10SAPS     P 1210   1.691   3.640   6.323 -0.0990 -0.1884  0.2064
   10SAPS   O13 1211   1.798   3.590   6.412  0.3222 -0.0919 -0.1621
   10SAPS   O14 1212   1.722   3.774   6.267 -0.4243 -0.6226  0.8351
   10SAPS   O12 1213   1.684   3.540   6.202 -0.1960  1.3149  0.0427
   10SAPS   O11 1214   1.555   3.636   6.391  0.3018 -0.7057 -0.4496
   10SAPS    C1 1215   1.497   3.510   6.428  0.0963 -0.4854  0.0045
   10SAPS    HA 1216   1.419   3.482   6.353  0.2807 -1.0117  0.0051
   10SAPS    HB 1217   1.566   3.424   6.419  1.0095  0.2129  0.1310
   10SAPS    C2 1218   1.438   3.504   6.567  0.0373 -0.2829 -0.1637
   10SAPS    HS 1219   1.344   3.563   6.559 -1.6225 -3.0031 -3.4500
   10SAPS   O21 1220   1.543   3.558   6.654  0.9501  0.5966 -0.3610
   10SAPS   C21 1221   1.482   3.629   6.758 -0.4886 -0.3670  0.2667
   10SAPS   O22 1222   1.368   3.665   6.766 -0.3209 -0.4424 -0.4922
   10SAPS   C22 1223   1.587   3.657   6.868 -0.2246 -0.9546  0.0710
   10SAPS   H2R 1224   1.622   3.558   6.906 -1.2768 -1.2047  0.4115
   10SAPS   H2S 1225   1.667   3.716   6.817  0.0211 -1.9952 -0.7870
   10SAPS    C3 1226   1.402   3.359   6.611 -0.6554 -0.1150 -0.3745
   10SAPS    HX 1227   1.497   3.302   6.619 -0.8617 -0.2552  1.5242
   10SAPS    HY 1228   1.328   3.313   6.542  0.2683 -1.0439 -0.7705
   10SAPS   O31 1229   1.350   3.358   6.745  0.2815  0.3066  0.3704
   10SAPS   C31 1230   1.215   3.372   6.754  0.5158  1.0039 -0.3765
   10SAPS   O32 1231   1.132   3.368   6.665 -0.7733  0.3175  0.7896
   10SAPS   C32 1232   1.166   3.385   6.904  0.7364 -0.1821 -0.0822
   10SAPS   H2X 1233   1.133   3.491   6.909 -0.8176 -0.5828 -1.1539
   10SAPS   H2Y 1234   1.254   3.385   6.971  2.7324  1.5395 -2.5194
   10SAPS   C23 1235   1.534   3.732   6.989  0.3096 -0.5479 -0.6379
   10SAPS   H3R 1236   1.479   3.822   6.955 -0.7256 -0.7380  0.4874
   10SAPS   H3S 1237   1.611   3.774   7.058 -0.9497  1.1404 -0.2021
   10SAPS   C24 1238   1.442   3.648   7.090  0.4585  0.2173 -0.5221
   10SAPS   H4R 1239   1.351   3.617   7.034 -0.6999 -1.0219  1.8849
   10SAPS   H4S 1240   1.392   3.722   7.156 -0.5062 -0.6916 -0.1948
   10SAPS   C25 1241   1.509   3.542   7.171 -0.2679  0.5229  0.1826
   10SAPS   H5R 1242   1.549   3.460   7.110  1.8797  1.0040  0.8645
   10SAPS   C26 1243   1.520   3.535   7.305  0.7583  0.5242 -0.6669
   10SAPS   H6R 1244   1.586   3.455   7.343  0.0250 -0.5349 -1.5527
   10SAPS   C27 1245   1.482   3.638   7.410 -0.2493  0.0655  0.4965
   10SAPS   H7R 1246   1.505   3.736   7.363 -0.4050  0.4762  1.2610
   10SAPS   H7S 1247   1.552   3.631   7.496 -0.3976  1.0018  0.7010
   10SAPS   C28 1248   1.343   3.633   7.462  0.2916 -0.1183  0.1255
   10SAPS   H8R 1249   1.269   3.626   7.382 -0.6978  0.8679  0.9174
   10SAPS   C29 1250   1.297   3.632   7.592  0.3138 -0.4990 -0.5379
   10SAPS   H9R 1251   1.188   3.626   7.603  0.4070 -2.1600 -0.2913
   10SAPS  C210 1252   1.377   3.636   7.722  0.2913 -0.0393  0.4242
   10SAPS  H10R 1253   1.322   3.712   7.781 -1.4202 -1.1807  0.3897
   10SAPS  H10S 1254   1.478   3.682   7.721 -0.8220  2.5499  0.4686
   10SAPS  C211 1255   1.376   3.510   7.792  0.1506  0.2416 -0.4318
   10SAPS  H11R 1256   1.356   3.425   7.724  1.2433  1.4021 -2.2939
   10SAPS  C212 1257   1.362   3.490   7.929 -0.0769  0.8336  0.6451
   10SAPS  H12R 1258   1.389   3.394   7.976 -2.8965 -1.6087 -2.2562
   10SAPS  C213 1259   1.362   3.606   8.024  0.2048  0.1198 -0.5042
   10SAPS  H13R 1260   1.264   3.598   8.076  0.7433 -0.6027  0.4244
   10SAPS  H13S 1261   1.365   3.707   7.977 -0.5304  1.0486  1.3782
   10SAPS  C214 1262   1.469   3.592   8.132  0.0653 -0.4623  0.0431
   10SAPS  H14R 1263   1.567   3.579   8.086  0.0046 -0.0695 -0.1965
   10SAPS  C215 1264   1.459   3.629   8.261 -0.6860 -0.0036  0.0797
   10SAPS  H15R 1265   1.554   3.626   8.317  0.3260  0.5889 -1.5438
   10SAPS  C216 1266   1.338   3.686   8.334 -0.1167 -0.4779 -0.2451
   10SAPS  H16R 1267   1.240   3.684   8.282 -0.9451  3.4795  0.8053
   10SAPS  H16S 1268   1.351   3.795   8.354 -2.8328 -0.3480  1.3207
   10SAPS  C217 1269   1.326   3.609   8.467  0.1522  0.5947  0.3757
   10SAPS  H17R 1270   1.418   3.608   8.530  0.3096  0.1344  0.1444
   10SAPS  H17S 1271   1.292   3.506   8.444 -0.1397  1.0007 -1.0594
   10SAPS  C218 1272   1.229   3.671   8.563 -0.2853 -0.8970 -0.4691
   10SAPS  H18R 1273   1.127   3.670   8.519 -0.3896  0.2281 -0.2826
   10SAPS  H18S 1274   1.253   3.778   8.583  0.9803 -1.1257 -0.6783
   10SAPS  C219 1275   1.211   3.595   8.695 -0.4663  0.7353 -0.6876
   10SAPS  H19R 1276   1.195   3.486   8.678  0.8612  0.6794 -1.8118
   10SAPS  H19S 1277   1.117   3.633   8.739 -0.1343  1.2506 -0.4058
   10SAPS  C220 1278   1.338   3.599   8.786 -0.0167 -0.4437 -0.8310
   10SAPS  H20R 1279   1.384   3.698   8.810  0.2929 -0.8477  0.2822
   10SAPS  H20S 1280   1.419   3.555   8.724  1.2623  0.9110 -0.1942
   10SAPS  H20T 1281   1.319   3.544   8.880 -0.6351  1.9941  0.5660
   10SAPS   C33 1282   1.038   3.297   6.922 -0.4851 -0.2793 -0.0157
   10SAPS   H3X 1283   1.050   3.187   6.906 -0.5001  0.0082 -2.2873
   10SAPS   H3Y 1284   0.974   3.324   6.835 -0.8223 -0.6357  0.1177
   10SAPS   C34 1285   0.965   3.346   7.052 -0.4416  0.1814 -0.0194
   10SAPS   H4X 1286   0.856   3.325   7.049 -0.1872 -1.2990  0.3621
   10SAPS   H4Y 1287   0.971   3.457   7.058  1.7814  0.1732 -1.1949
   10SAPS   C35 1288   1.024   3.281   7.175 -0.2079  0.3994  0.5322
   10SAPS   H5X 1289   1.128   3.308   7.201 -0.5358 -0.4557  2.9995
   10SAPS   H5Y 1290   1.021   3.172   7.156  0.0558  0.2575  1.2988
   10SAPS   C36 1291   0.944   3.298   7.310  0.0981  0.6240  0.9157
   10SAPS   H6X 1292   0.983   3.225   7.384 -0.1090 -2.1101 -1.5071
   10SAPS   H6Y 1293   0.841   3.264   7.287  0.2556  1.9956 -2.1768
   10SAPS   C37 1294   0.956   3.441   7.362 -0.2378  0.5646 -0.0007
   10SAPS   H7X 1295   0.905   3.499   7.281 -0.1002 -0.9561 -1.2133
   10SAPS   H7Y 1296   1.063   3.470   7.371 -0.1689  0.2658  0.1271
   10SAPS   C38 1297   0.892   3.476   7.500  0.5014 -0.0304  0.5847
   10SAPS   H8X 1298   0.783   3.484   7.483  0.7135  2.2532 -0.0097
   10SAPS   H8Y 1299   0.938   3.574   7.525 -0.3298  0.9124 -1.3734
   10SAPS   C39 1300   0.922   3.358   7.596  0.2498 -0.1606  0.2257
   10SAPS   H9X 1301   1.031   3.358   7.619 -0.3130  1.0875  3.4761
   10SAPS   H9Y 1302   0.888   3.261   7.553 -3.2294  1.3200 -0.6952
   10SAPS  C310 1303   0.850   3.379   7.729  0.3208  0.0375  0.0852
   10SAPS  H10X 1304   0.800   3.287   7.767 -0.1988  0.5372  0.6566
   10SAPS  H10Y 1305   0.778   3.464   7.724 -1.4581 -1.1195  3.0022
   10SAPS  C311 1306   0.946   3.419   7.836 -0.0368  0.5395 -0.4999
   10SAPS  H11X 1307   1.008   3.507   7.809  0.0581  0.5206 -0.3435
   10SAPS  H11Y 1308   1.028   3.344   7.830 -1.3576 -0.9215 -1.2376
   10SAPS  C312 1309   0.904   3.416   7.984  0.2623  0.1300 -0.4974
   10SAPS  H12X 1310   0.872   3.315   8.019 -0.4422 -0.1472 -1.8462
   10SAPS  H12Y 1311   0.824   3.491   8.003  0.0636 -0.5007  1.3721
   10SAPS  C313 1312   1.019   3.465   8.068 -0.9052  0.0729 -1.2732
   10SAPS  H13X 1313   1.050   3.556   8.013 -2.5855  1.3834 -0.1463
   10SAPS  H13Y 1314   1.106   3.395   8.072 -0.7492  0.3258  0.1130
   10SAPS  C314 1315   0.974   3.508   8.214 -0.1700  0.0300  0.1158
   10SAPS  H14X 1316   0.881   3.569   8.215  0.5563  1.2316 -1.5303
   10SAPS  H14Y 1317   1.060   3.560   8.261 -1.0363  2.1240 -0.4996
   10SAPS  C315 1318   0.945   3.384   8.302 -0.1527  0.0452 -0.6884
   10SAPS  H15X 1319   1.037   3.325   8.281  0.5204  1.3907 -1.7505
   10SAPS  H15Y 1320   0.855   3.327   8.271 -0.5991  1.3004 -1.8003
   10SAPS  C316 1321   0.938   3.415   8.450 -0.3749  0.2308  0.9844
   10SAPS  H16X 1322   1.028   3.459   8.498  1.4190  1.4979 -3.1001
   10SAPS  H16Y 1323   0.886   3.331   8.500  0.0032 -1.1544 -0.8393
   10SAPS  C317 1324   0.831   3.522   8.488  0.1739 -0.4986 -0.4104
   10SAPS  H17X 1325   0.732   3.486   8.453 -0.3470 -1.0013  1.4752
   10SAPS  H17Y 1326   0.864   3.616   8.438  0.0993 -0.4427 -0.3534
   10SAPS  C318 1327   0.820   3.542   8.643  0.5786  0.2443 -0.3043
   10SAPS  H18X 1328   0.906   3.491   8.692 -0.8330 -2.0003 -0.0241
   10SAPS  H18Y 1329   0.730   3.489   8.679 -0.9783  3.0615  0.2364
   10SAPS  H18Z 1330   0.811   3.647   8.677 -0.7861  0.1244 -0.2461
   11SAPS     N 1331   0.832   1.102   5.741 -0.2573 -0.0969  0.0551
   11SAPS   HN1 1332   0.906   1.136   5.676  0.8385  1.0484  1.8277
   11SAPS   HN2 1333   0.852   1.134   5.838  1.4133 -1.7456  0.3262
   11SAPS   HN3 1334   0.843   0.998   5.745  0.0721 -0.1376 -1.3191
   11SAPS   C12 1335   0.693   1.125   5.702 -1.0744 -0.2530  0.2177
   11SAPS  H12A 1336   0.688   1.232   5.687 -0.9342 -0.3002 -0.1943
   11SAPS   C13 1337   0.650   1.051   5.575  0.5318  0.2344  0.0807
   11SAPS  O13A 1338   0.734   0.988   5.510 -0.3293 -0.3146  0.4509
   11SAPS  O13B 1339   0.531   1.077   5.529  0.2559  0.4511 -0.2249
   11SAPS   C11 1340   0.593   1.080   5.811  0.4038 -0.3199 -0.0974
   11SAPS  H11A 1341   0.572   0.971   5.797  0.5018 -0.3256 -0.2070
   11SAPS  H11B 1342   0.498   1.134   5.793  0.9240  0.9572  0.8750
   11SAPS     P 1343   0.565   1.131   6.066  0.2880  0.1716  0.1744
   11SAPS   O13 1344   0.536   1.274   6.040 -0.2118 -0.0591 -0.2995
   11SAPS   O14 1345   0.450   1.042   6.085 -0.0969 -0.1768  0.4833
   11SAPS   O12 1346   0.652   1.092   5.940 -0.0301  0.2924  0.1183
   11SAPS   O11 1347   0.673   1.108   6.187  0.8937 -0.3435 -0.1643
   11SAPS    C1 1348   0.750   0.995   6.186 -0.3238 -0.1137  0.2734
   11SAPS    HA 1349   0.682   0.910   6.168  0.4695 -0.8635  0.7455
   11SAPS    HB 1350   0.828   1.010   6.109 -0.5078 -1.5874 -0.2173
   11SAPS    C2 1351   0.817   0.967   6.322 -0.0629  1.2453 -0.1789
   11SAPS    HS 1352   0.743   0.953   6.403  0.2849  0.3586 -0.0128
   11SAPS   O21 1353   0.900   1.080   6.367  0.5003 -0.2631  0.3425
   11SAPS   C21 1354   0.851   1.176   6.432  0.1680 -0.2123  0.5625
   11SAPS   O22 1355   0.736   1.199   6.477 -0.0152  0.0369  0.0539
   11SAPS   C22 1356   0.963   1.280   6.451 -0.0504 -0.6079 -0.1616
   11SAPS   H2R 1357   1.062   1.233   6.468  1.3942  2.2141 -0.0890
   11SAPS   H2S 1358   0.978   1.331   6.353 -1.1825  0.4438  0.1902
   11SAPS    C3 1359   0.910   0.840   6.320 -0.3075 -0.1557  0.5104
   11SAPS    HX 1360   0.978   0.870   6.238 -2.9065  1.4260 -1.2114
   11SAPS    HY 1361   0.847   0.752   6.294 -1.7742  0.6422  1.2837
   11SAPS   O31 1362   0.976   0.820   6.448 -0.2209  0.2132 -0.3579
   11SAPS   C31 1363   0.905   0.784   6.550 -0.6275  0.1853 -0.6962
   11SAPS   O32 1364   0.786   0.766   6.559 -1.2571  0.3231  0.0778
   11SAPS   C32 1365   0.997   0.786   6.675 -0.3545  0.3541 -0.4841
   11SAPS   H2X 1366   1.079   0.713   6.661  0.1904  0.6946  0.8334
   11SAPS   H2Y 1367   0.941   0.729   6.751  2.7040  0.9996  2.5199
   11SAPS   C23 1368   0.923   1.381   6.564  0.3693  0.5181  0.5393
   11SAPS   H3R 1369   0.814   1.402   6.553 -0.5503 -2.3410  2.7649
   11SAPS   H3S 1370   0.987   1.469   6.542  2.0842 -0.1869  2.3926
   11SAPS   C24 1371   0.954   1.331   6.700 -0.2219  0.2714  0.4190
   11SAPS   H4R 1372   1.063   1.310   6.693 -0.2734 -0.0411  0.5175
   11SAPS   H4S 1373   0.900   1.237   6.725  0.4416 -0.0795  0.5474
   11SAPS   C25 1374   0.943   1.441   6.810  0.5423 -0.2553 -0.0615
   11SAPS   H5R 1375   0.858   1.508   6.790  1.4783  0.6098 -1.3163
   11SAPS   C26 1376   1.011   1.451   6.923 -0.9736 -0.9494 -0.1895
   11SAPS   H6R 1377   0.997   1.540   6.986  1.1093 -0.8957  0.2767
   11SAPS   C27 1378   1.111   1.352   6.977  0.0875  0.4159 -0.0234
   11SAPS   H7R 1379   1.206   1.407   6.995  0.2602  0.6201 -1.4417
   11SAPS   H7S 1380   1.133   1.278   6.897  2.7776 -1.0487  1.9120
   11SAPS   C28 1381   1.061   1.276   7.096  0.2342  0.5642 -0.0313
   11SAPS   H8R 1382   0.968   1.226   7.064  1.8827 -2.2590 -0.7967
   11SAPS   C29 1383   1.106   1.253   7.219  0.1621 -0.8544  0.3252
   11SAPS   H9R 1384   1.044   1.199   7.292 -0.0676 -0.2052  0.6164
   11SAPS  C210 1385   1.238   1.303   7.269  0.0542 -0.1421 -0.3272
   11SAPS  H10R 1386   1.209   1.390   7.332  0.6428  0.2290 -0.5667
   11SAPS  H10S 1387   1.313   1.346   7.201  0.7900  0.1039  0.6169
   11SAPS  C211 1388   1.309   1.195   7.348  0.4971  0.0969 -0.4703
   11SAPS  H11R 1389   1.342   1.112   7.283 -1.0935  0.5438 -1.9447
   11SAPS  C212 1390   1.344   1.188   7.480  0.5307 -0.0377  0.0107
   11SAPS  H12R 1391   1.401   1.102   7.519  4.0013  1.4351 -1.3875
   11SAPS  C213 1392   1.321   1.301   7.586  0.4895 -0.1597 -0.1273
   11SAPS  H13R 1393   1.310   1.395   7.527 -1.5715  0.1492  0.6699
   11SAPS  H13S 1394   1.418   1.305   7.641 -0.3939 -2.2563  1.7554
   11SAPS  C214 1395   1.197   1.262   7.670  0.6196 -0.1044  0.6366
   11SAPS  H14R 1396   1.101   1.242   7.620  0.6168  1.2720  0.0590
   11SAPS  C215 1397   1.199   1.266   7.809  0.8461  0.5609  0.1115
   11SAPS  H15R 1398   1.102   1.244   7.856  0.8900 -0.2407 -0.1530
   11SAPS  C216 1399   1.310   1.297   7.900 -0.3414 -0.5187  1.2349
   11SAPS  H16R 1400   1.395   1.236   7.862 -0.6930 -0.4000  0.2161
   11SAPS  H16S 1401   1.290   1.262   8.003  1.4951 -3.1070  0.8059
   11SAPS  C217 1402   1.359   1.440   7.912  0.4974 -0.7994  0.3993
   11SAPS  H17R 1403   1.376   1.480   7.810  0.7318  0.8880  1.0702
   11SAPS  H17S 1404   1.447   1.463   7.975 -0.2548  3.1628  0.2787
   11SAPS  C218 1405   1.256   1.533   7.971 -0.0078 -0.2839 -0.1546
   11SAPS  H18R 1406   1.214   1.476   8.057 -0.0204 -0.6417 -0.3973
   11SAPS  H18S 1407   1.178   1.561   7.897 -1.1257 -0.4875  0.9141
   11SAPS  C219 1408   1.305   1.662   8.029 -0.3528 -0.2965 -0.1538
   11SAPS  H19R 1409   1.360   1.713   7.947  0.8315  1.4369  1.6165
   11SAPS  H19S 1410   1.381   1.635   8.106  0.5391  0.2154 -0.8224
   11SAPS  C220 1411   1.198   1.760   8.079 -0.1293 -0.4513  0.8922
   11SAPS  H20R 1412   1.168   1.724   8.180 -1.0556 -0.6359  0.5628
   11SAPS  H20S 1413   1.114   1.765   8.006  0.5249 -0.1451  0.1473
   11SAPS  H20T 1414   1.224   1.867   8.093 -2.5232  0.2586  0.4167
   11SAPS   C33 1415   1.028   0.926   6.730  0.0367  0.0251  0.2690
   11SAPS   H3X 1416   0.933   0.966   6.771 -0.4041 -0.4632 -0.2691
   11SAPS   H3Y 1417   1.055   1.001   6.653 -0.7481  1.7492  1.5932
   11SAPS   C34 1418   1.120   0.920   6.851  0.2845  0.3098  0.7327
   11SAPS   H4X 1419   1.165   1.020   6.869  0.6842  0.5216 -1.1974
   11SAPS   H4Y 1420   1.205   0.852   6.833 -0.3788 -0.2591 -0.3900
   11SAPS   C35 1421   1.044   0.874   6.980  0.0949 -0.6294 -0.0961
   11SAPS   H5X 1422   1.009   0.771   6.962  2.3393 -2.0770  2.9339
   11SAPS   H5Y 1423   0.967   0.950   7.006 -0.1829 -0.1690 -2.1186
   11SAPS   C36 1424   1.144   0.862   7.092 -0.9136  0.1751 -0.1245
   11SAPS   H6X 1425   1.214   0.948   7.096 -0.9559  0.2216 -0.4114
   11SAPS   H6Y 1426   1.200   0.768   7.074  1.7579  1.3119  1.6489
   11SAPS   C37 1427   1.071   0.847   7.229 -0.2724  0.3819 -0.0942
   11SAPS   H7X 1428   1.013   0.752   7.231  2.0910 -1.1409  0.8257
   11SAPS   H7Y 1429   1.010   0.938   7.250 -0.7679 -0.0564  0.4285
   11SAPS   C38 1430   1.178   0.840   7.346 -0.6731  0.6377 -0.1708
   11SAPS   H8X 1431   1.226   0.937   7.371 -0.4834  0.9075 -1.5059
   11SAPS   H8Y 1432   1.266   0.784   7.309  0.2304  1.1991  1.0584
   11SAPS   C39 1433   1.124   0.769   7.468  0.4623 -0.4412 -0.4735
   11SAPS   H9X 1434   1.098   0.667   7.432  2.1858 -1.2692  0.5328
   11SAPS   H9Y 1435   1.030   0.825   7.488  1.1849  0.3605  0.8394
   11SAPS  C310 1436   1.220   0.764   7.581  0.4228  0.0426 -0.2606
   11SAPS  H10X 1437   1.324   0.738   7.550  0.1742  0.5351 -1.5954
   11SAPS  H10Y 1438   1.194   0.688   7.658  0.8079  0.2783  0.1081
   11SAPS  C311 1439   1.209   0.884   7.670 -0.3329 -0.0275  0.2261
   11SAPS  H11X 1440   1.107   0.891   7.713 -0.3516 -0.7011  0.3009
   11SAPS  H11Y 1441   1.218   0.977   7.609 -0.1430  0.5915  1.1745
   11SAPS  C312 1442   1.308   0.892   7.781  0.7513  0.4703  0.5529
   11SAPS  H12X 1443   1.328   0.992   7.827  0.6217 -0.3191  2.4338
   11SAPS  H12Y 1444   1.406   0.850   7.747 -0.1128 -0.7438 -0.5135
   11SAPS  C313 1445   1.258   0.805   7.895  0.5587 -0.1291  0.6029
   11SAPS  H13X 1446   1.292   0.703   7.868  1.5983  0.5510 -0.7856
   11SAPS  H13Y 1447   1.148   0.806   7.911  0.4387 -2.5118  0.3185
   11SAPS  C314 1448   1.318   0.853   8.027 -0.1976  0.5924 -0.9185
   11SAPS  H14X 1449   1.327   0.964   8.035  0.3887  0.5836 -1.3778
   11SAPS  H14Y 1450   1.417   0.805   8.037  0.1870  1.4955 -0.2596
   11SAPS  C315 1451   1.226   0.815   8.142 -0.6672  0.5035  0.4619
   11SAPS  H15X 1452   1.214   0.705   8.139  1.6745  0.1847  1.0002
   11SAPS  H15Y 1453   1.130   0.871   8.130 -0.3272  1.2969  1.3385
   11SAPS  C316 1454   1.288   0.854   8.277 -0.5493  0.4415  0.6537
   11SAPS  H16X 1455   1.396   0.832   8.271  0.1538  3.7105 -2.5288
   11SAPS  H16Y 1456   1.249   0.780   8.349  2.2317 -0.1249  1.6949
   11SAPS  C317 1457   1.248   0.984   8.338  0.0069 -0.7846 -0.6347
   11SAPS  H17X 1458   1.139   0.988   8.319  0.2044 -0.0694 -1.7085
   11SAPS  H17Y 1459   1.287   1.072   8.282  1.7258 -1.1711 -0.1170
   11SAPS  C318 1460   1.267   1.002   8.488 -0.0152  0.5682 -0.4058
   11SAPS  H18X 1461   1.234   0.915   8.549 -0.1166  0.5846 -0.4366
   11SAPS  H18Y 1462   1.221   1.098   8.517 -0.6081  0.6853 -1.6505
   11SAPS  H18Z 1463   1.375   1.006   8.513  0.1268 -2.5956 -0.0108
   12SAPS     N 1464   0.138   2.722   5.735 -0.0470  0.0084 -0.1768
   12SAPS   HN1 1465   0.045   2.767   5.742 -1.1164 -1.8730 -1.3615
   12SAPS   HN2 1466   0.135   2.688   5.637  1.8232  0.2585 -0.3639
   12SAPS   HN3 1467   0.132   2.634   5.790  0.6696 -0.5709 -0.9989
   12SAPS   C12 1468   0.256   2.807   5.760 -0.1539  0.0960  0.3854
   12SAPS  H12A 1469   0.325   2.785   5.680 -2.2808  3.0440 -2.5404
   12SAPS   C13 1470   0.225   2.957   5.732 -0.4054  0.0591 -0.4594
   12SAPS  O13A 1471   0.101   2.991   5.732  0.3061 -0.3671 -0.4657
   12SAPS  O13B 1472   0.316   3.041   5.750  0.1941 -0.4303 -0.0315
   12SAPS   C11 1473   0.298   2.784   5.908 -0.0851 -0.2935 -0.2330
   12SAPS  H11A 1474   0.214   2.794   5.980  1.0419 -2.6624  1.5691
   12SAPS  H11B 1475   0.367   2.868   5.931 -1.7528  0.9179  0.5740
   12SAPS     P 1476   0.508   2.627   5.953 -0.1705 -0.1556  0.1970
   12SAPS   O13 1477   0.515   2.475   5.956 -0.0167 -0.5159 -0.4658
   12SAPS   O14 1478   0.583   2.704   5.846 -0.1122 -0.3309 -0.4314
   12SAPS   O12 1479   0.355   2.650   5.930 -0.0972 -0.6969  0.2292
   12SAPS   O11 1480   0.542   2.695   6.098 -0.6656  0.1140  0.5169
   12SAPS    C1 1481   0.467   2.661   6.217 -0.5947  0.2978  0.7176
   12SAPS    HA 1482   0.359   2.661   6.189 -0.1429 -2.1888 -1.3730
   12SAPS    HB 1483   0.494   2.559   6.252 -1.2156  0.3393  1.3408
   12SAPS    C2 1484   0.505   2.759   6.332  0.2295  0.0470  0.1012
   12SAPS    HS 1485   0.454   2.721   6.424 -2.5943  0.4608 -1.1713
   12SAPS   O21 1486   0.447   2.890   6.307 -0.4928  0.3848  0.5685
   12SAPS   C21 1487   0.317   2.903   6.324  0.6178 -0.5205  0.2716
   12SAPS   O22 1488   0.244   2.826   6.376  0.4710  0.0493 -1.2296
   12SAPS   C22 1489   0.272   3.035   6.278 -0.5033 -0.6100  0.6253
   12SAPS   H2R 1490   0.303   3.049   6.173  0.2298 -0.9329  0.7895
   12SAPS   H2S 1491   0.161   3.039   6.265 -0.2130 -1.2955 -2.9327
   12SAPS    C3 1492   0.660   2.775   6.364  0.4554 -0.1109  0.3527
   12SAPS    HX 1493   0.705   2.828   6.277 -0.2250 -1.0065 -0.5699
   12SAPS    HY 1494   0.697   2.671   6.355 -0.0326 -0.2729  0.1480
   12SAPS   O31 1495   0.690   2.827   6.490 -0.2621  0.2671  0.1875
   12SAPS   C31 1496   0.673   2.960   6.509  0.4993 -0.3926 -0.1317
   12SAPS   O32 1497   0.656   3.043   6.421  0.0548 -0.1395  0.1864
   12SAPS   C32 1498   0.667   2.995   6.661 -0.0599  0.3863 -0.0889
   12SAPS   H2X 1499   0.760   2.956   6.707  0.0166 -0.8491 -1.2189
   12SAPS   H2Y 1500   0.571   2.957   6.703 -0.5810  0.2959 -1.2975
   12SAPS   C23 1501   0.320   3.147   6.373  0.0999  0.3385  0.5490
   12SAPS   H3R 1502   0.314   3.247   6.325 -1.0278 -0.2571 -0.5726
   12SAPS   H3S 1503   0.428   3.121   6.375 -0.5188 -2.5057  1.4534
   12SAPS   C24 1504   0.248   3.150   6.512  0.4811 -0.1790 -0.0292
   12SAPS   H4R 1505   0.251   3.051   6.562  0.1462 -0.2621 -0.1763
   12SAPS   H4S 1506   0.141   3.175   6.494  0.0860 -0.7498  1.3713
   12SAPS   C25 1507   0.308   3.244   6.607  0.0339  0.5430  0.0961
   12SAPS   H5R 1508   0.393   3.306   6.576  1.9744 -0.9160  2.0909
   12SAPS   C26 1509   0.265   3.263   6.736  0.2516 -0.4287  0.3146
   12SAPS   H6R 1510   0.308   3.345   6.795  0.8239 -2.5203  3.0438
   12SAPS   C27 1511   0.149   3.202   6.803 -0.4252  0.5714 -0.8978
   12SAPS   H7R 1512   0.098   3.130   6.737 -1.8336 -1.3703  2.1128
   12SAPS   H7S 1513   0.079   3.284   6.829 -0.0311  0.0682  2.1206
   12SAPS   C28 1514   0.192   3.120   6.920 -0.1274  0.5284  0.2846
   12SAPS   H8R 1515   0.228   3.025   6.878  1.9748  1.0433  0.8059
   12SAPS   C29 1516   0.195   3.138   7.056 -0.3149  0.1402  0.0968
   12SAPS   H9R 1517   0.233   3.058   7.120 -1.1551  0.7574  1.4086
   12SAPS  C210 1518   0.158   3.266   7.122  0.3150  0.3598  0.3888
   12SAPS  H10R 1519   0.092   3.333   7.062 -0.4004 -0.9033 -0.2611
   12SAPS  H10S 1520   0.253   3.317   7.151  0.9071 -0.1556 -0.5907
   12SAPS  C211 1521   0.090   3.231   7.246 -0.3624 -0.6031 -0.0488
   12SAPS  H11R 1522  -0.020   3.235   7.240 -0.3088  0.7015 -0.3775
   12SAPS  C212 1523   0.145   3.193   7.366  0.2892 -0.1583 -0.5177
   12SAPS  H12R 1524   0.084   3.169   7.453 -2.1279  0.6437 -1.9078
   12SAPS  C213 1525   0.289   3.173   7.397 -0.5361 -0.6600  0.5208
   12SAPS  H13R 1526   0.347   3.161   7.303 -1.6689 -3.3024  0.0858
   12SAPS  H13S 1527   0.303   3.075   7.448  0.8207  0.4728  2.4600
   12SAPS  C214 1528   0.334   3.296   7.482 -0.3861  0.9124 -0.4546
   12SAPS  H14R 1529   0.312   3.384   7.420 -1.0629  2.5599  1.9777
   12SAPS  C215 1530   0.407   3.305   7.587 -1.4215 -0.4613  0.2581
   12SAPS  H15R 1531   0.410   3.409   7.623 -1.2643 -0.3116 -0.1769
   12SAPS  C216 1532   0.476   3.198   7.669  1.0676  0.5935 -0.8099
   12SAPS  H16R 1533   0.586   3.213   7.662  0.9323  1.5939 -0.9777
   12SAPS  H16S 1534   0.452   3.093   7.641 -0.4344  1.1005 -1.5648
   12SAPS  C217 1535   0.447   3.194   7.824 -0.8168  0.1524  0.3213
   12SAPS  H17R 1536   0.343   3.171   7.853 -1.1804  0.9070 -0.3461
   12SAPS  H17S 1537   0.460   3.298   7.862 -1.2462  0.7031 -0.9479
   12SAPS  C218 1538   0.547   3.106   7.901  0.0552 -0.9578  0.3421
   12SAPS  H18R 1539   0.645   3.112   7.849 -0.8575  0.8275 -1.2946
   12SAPS  H18S 1540   0.500   3.006   7.891 -1.9041 -0.1133  0.7074
   12SAPS  C219 1541   0.558   3.156   8.047 -0.8454  0.0372 -0.3693
   12SAPS  H19R 1542   0.457   3.169   8.091 -1.8301 -0.1290 -2.4570
   12SAPS  H19S 1543   0.619   3.249   8.046 -1.1291  0.2778 -2.9750
   12SAPS  C220 1544   0.628   3.048   8.134 -0.0485 -0.1837  0.2566
   12SAPS  H20R 1545   0.567   2.955   8.129 -0.4451  0.0460  0.6793
   12SAPS  H20S 1546   0.646   3.086   8.237 -0.5768  1.9518 -0.3968
   12SAPS  H20T 1547   0.732   3.034   8.096 -0.0481 -2.7029  0.9580
   12SAPS   C33 1548   0.659   3.141   6.692  0.2653 -0.1979  0.2899
   12SAPS   H3X 1549   0.573   3.170   6.628  1.1193 -2.4345 -2.0235
   12SAPS   H3Y 1550   0.748   3.193   6.652 -0.1123 -0.9887 -1.6576
   12SAPS   C34 1551   0.629   3.176   6.839 -0.0065  0.0299 -0.3330
   12SAPS   H4X 1552   0.698   3.114   6.901 -0.8884 -1.2760 -0.6233
   12SAPS   H4Y 1553   0.521   3.150   6.851 -0.1009 -0.5279 -2.0917
   12SAPS   C35 1554   0.643   3.323   6.874 -0.8179 -0.5044  1.4956
   12SAPS   H5X 1555   0.602   3.372   6.784 -0.2209 -1.9177  0.4216
   12SAPS   H5Y 1556   0.750   3.352   6.863 -0.7289 -1.1967  0.4283
   12SAPS   C36 1557   0.572   3.371   7.004 -0.1702 -0.4689 -0.0277
   12SAPS   H6X 1558   0.595   3.314   7.096 -1.3399  0.7734  1.0879
   12SAPS   H6Y 1559   0.462   3.354   6.999 -0.5934  0.2265  3.9960
   12SAPS   C37 1560   0.594   3.518   7.026  0.1066 -0.1972 -0.1927
   12SAPS   H7X 1561   0.557   3.584   6.944 -0.4838  2.2048  1.8815
   12SAPS   H7Y 1562   0.703   3.539   7.037 -0.3634  1.3604  2.1315
   12SAPS   C38 1563   0.523   3.570   7.152 -0.1081 -0.5561 -0.0710
   12SAPS   H8X 1564   0.413   3.551   7.151 -0.1423 -0.3607 -0.0598
   12SAPS   H8Y 1565   0.544   3.679   7.153  1.7630 -0.8902  0.0387
   12SAPS   C39 1566   0.578   3.503   7.277  0.3086 -0.7454 -0.1032
   12SAPS   H9X 1567   0.688   3.510   7.266  0.2749 -0.0717 -0.0465
   12SAPS   H9Y 1568   0.545   3.397   7.273 -0.5737 -0.5697  1.5926
   12SAPS  C310 1569   0.538   3.579   7.402  0.0472 -0.1082  0.8267
   12SAPS  H10X 1570   0.590   3.526   7.485  2.5106 -2.2089 -1.8549
   12SAPS  H10Y 1571   0.429   3.582   7.421 -0.0954  2.9356  0.1292
   12SAPS  C311 1572   0.590   3.722   7.419  0.0586  0.3335  0.4017
   12SAPS  H11X 1573   0.568   3.788   7.333  0.3810  0.4080  0.3726
   12SAPS  H11Y 1574   0.699   3.700   7.411 -0.1096 -1.5282  2.3588
   12SAPS  C312 1575   0.556   3.781   7.558  0.1605 -0.1821  0.5846
   12SAPS  H12X 1576   0.445   3.785   7.546  0.1035  0.2875  1.1753
   12SAPS  H12Y 1577   0.588   3.885   7.577 -0.0979 -0.3078  1.8624
   12SAPS  C313 1578   0.589   3.704   7.686 -0.2970 -0.2827  0.4209
   12SAPS  H13X 1579   0.697   3.678   7.684  0.1380  1.3227  0.8469
   12SAPS  H13Y 1580   0.532   3.609   7.695  0.8692 -1.0276  0.1046
   12SAPS  C314 1581   0.567   3.797   7.816 -0.1507  0.2849 -0.1363
   12SAPS  H14X 1582   0.461   3.830   7.801  0.2186  1.8485  0.5264
   12SAPS  H14Y 1583   0.628   3.889   7.806  1.1200 -0.5563 -0.2573
   12SAPS  C315 1584   0.582   3.715   7.943  0.2657 -0.2892  1.1873
   12SAPS  H15X 1585   0.688   3.682   7.945  0.4247  0.2231  3.1969
   12SAPS  H15Y 1586   0.514   3.627   7.947  0.0769 -0.2315 -0.3540
   12SAPS  C316 1587   0.555   3.796   8.071 -0.3352 -0.2394 -0.0802
   12SAPS  H16X 1588   0.447   3.822   8.076 -0.6809 -1.4630 -0.7168
   12SAPS  H16Y 1589   0.610   3.892   8.069  0.8264 -0.7946  1.9157
   12SAPS  C317 1590   0.602   3.718   8.195  0.9100  0.0690 -0.6924
   12SAPS  H17X 1591   0.588   3.787   8.281 -0.0426 -1.9255  0.8311
   12SAPS  H17Y 1592   0.709   3.688   8.182  0.6332 -1.8886  0.9600
   12SAPS  C318 1593   0.533   3.586   8.224  0.0509  0.4360  0.1798
   12SAPS  H18X 1594   0.563   3.540   8.320  2.2222  0.5575 -0.3765
   12SAPS  H18Y 1595   0.562   3.506   8.153 -1.9395  0.6732 -0.9666
   12SAPS  H18Z 1596   0.426   3.614   8.229  0.4480  1.8701  1.2971
   13SAPS     N 1597   1.734   6.378   6.001  0.4553 -0.2029 -0.6776
   13SAPS   HN1 1598   1.712   6.277   5.996  0.6389 -0.2610 -0.3286
   13SAPS   HN2 1599   1.699   6.410   6.094  0.2071  1.3105 -1.2699
   13SAPS   HN3 1600   1.684   6.433   5.928 -1.6681 -3.2471 -1.6932
   13SAPS   C12 1601   1.888   6.408   6.013 -0.3942 -0.5223 -1.1055
   13SAPS  H12A 1602   1.926   6.348   6.094  0.7659  1.0471 -0.4307
   13SAPS   C13 1603   1.976   6.372   5.892  0.2526  0.3676  0.0117
   13SAPS  O13A 1604   1.917   6.324   5.789 -0.6657  0.1976 -0.2977
   13SAPS  O13B 1605   2.101   6.386   5.901  0.0847  0.4399 -0.5717
   13SAPS   C11 1606   1.899   6.559   6.045  0.2754 -0.2858 -0.0090
   13SAPS  H11A 1607   1.873   6.600   5.945  0.9520 -0.5513 -0.2995
   13SAPS  H11B 1608   2.001   6.601   6.058  0.1035 -0.3504  1.7415
   13SAPS     P 1609   1.781   6.761   6.170  0.1628 -0.0190 -0.0083
   13SAPS   O13 1610   1.808   6.843   6.044 -0.8376  0.1122 -0.2321
   13SAPS   O14 1611   1.655   6.783   6.236  0.2515  0.7469 -0.3536
   13SAPS   O12 1612   1.817   6.606   6.155  0.4747  0.2705  0.0955
   13SAPS   O11 1613   1.897   6.804   6.272  0.3080  0.3230 -0.5568
   13SAPS    C1 1614   1.944   6.718   6.376  0.2953  0.0875 -0.4591
   13SAPS    HA 1615   1.999   6.638   6.322 -1.0444 -2.0393  1.1602
   13SAPS    HB 1616   2.009   6.774   6.446  2.5438 -1.5480 -1.1168
   13SAPS    C2 1617   1.841   6.647   6.473 -0.2051 -0.7559  0.3734
   13SAPS    HS 1618   1.793   6.573   6.405 -0.6043  0.4015 -0.6354
   13SAPS   O21 1619   1.753   6.740   6.527  0.1806  0.1346  0.3175
   13SAPS   C21 1620   1.637   6.689   6.560  0.0915  0.3526  0.0718
   13SAPS   O22 1621   1.604   6.574   6.549  0.4086 -0.4514  0.1927
   13SAPS   C22 1622   1.550   6.804   6.620 -0.2882  0.7294 -0.0264
   13SAPS   H2R 1623   1.579   6.823   6.725  3.2563 -1.9622 -0.3455
   13SAPS   H2S 1624   1.589   6.892   6.563  0.0858 -0.7144 -2.1004
   13SAPS    C3 1625   1.898   6.572   6.591 -0.0152 -0.1423 -0.5876
   13SAPS    HX 1626   1.955   6.482   6.560  0.8401  1.0768 -2.7141
   13SAPS    HY 1627   1.820   6.531   6.659  0.6356 -1.8613 -0.8187
   13SAPS   O31 1628   1.982   6.660   6.665 -0.3239  0.1132 -0.2998
   13SAPS   C31 1629   1.931   6.726   6.772 -0.1183  0.0287 -0.0401
   13SAPS   O32 1630   1.814   6.725   6.805  0.1700  0.4661 -0.3665
   13SAPS   C32 1631   2.038   6.798   6.851 -0.3631 -0.3402 -0.8865
   13SAPS   H2X 1632   2.068   6.742   6.943 -1.8771  0.0391 -0.1231
   13SAPS   H2Y 1633   2.003   6.899   6.882  1.6632  0.6776 -1.7546
   13SAPS   C23 1634   1.398   6.792   6.602  0.8763 -0.9076  0.0398
   13SAPS   H3R 1635   1.377   6.704   6.666 -0.9707  0.6446  1.6987
   13SAPS   H3S 1636   1.361   6.765   6.500 -1.3417  1.0897  0.2397
   13SAPS   C24 1637   1.319   6.930   6.635  0.0026 -0.2468 -0.3902
   13SAPS   H4R 1638   1.212   6.917   6.611  0.0395 -1.2888 -0.0520
   13SAPS   H4S 1639   1.366   7.020   6.590  0.6919  0.1789  1.1131
   13SAPS   C25 1640   1.328   6.966   6.780 -0.5095 -0.1146  0.4814
   13SAPS   H5R 1641   1.419   7.023   6.805  1.6680 -1.0243 -4.3310
   13SAPS   C26 1642   1.242   6.923   6.878  0.1162 -0.9165  0.7237
   13SAPS   H6R 1643   1.270   6.948   6.982  1.6090 -3.7291  1.0992
   13SAPS   C27 1644   1.131   6.827   6.849  0.4257 -0.1050 -0.8614
   13SAPS   H7R 1645   1.155   6.722   6.875 -0.7207 -0.5090 -1.3894
   13SAPS   H7S 1646   1.103   6.817   6.742 -1.0703 -0.2455 -0.4729
   13SAPS   C28 1647   1.011   6.885   6.918 -0.7717  0.2781  0.3040
   13SAPS   H8R 1648   0.953   6.958   6.859  1.1248  1.7643  0.1667
   13SAPS   C29 1649   0.965   6.852   7.043 -0.5564  0.1965 -0.0993
   13SAPS   H9R 1650   0.886   6.916   7.084 -0.4842 -0.9410  1.9455
   13SAPS  C210 1651   1.024   6.747   7.140  0.1829  0.0377 -0.4121
   13SAPS  H10R 1652   1.134   6.731   7.130  0.0374 -1.2817 -0.1443
   13SAPS  H10S 1653   0.987   6.651   7.099  0.0534  0.8419 -2.2383
   13SAPS  C211 1654   0.985   6.773   7.287  1.0409  0.3803  0.9230
   13SAPS  H11R 1655   0.897   6.837   7.305  1.4853  0.5756  2.6043
   13SAPS  C212 1656   1.031   6.713   7.399 -0.2741  0.0687  0.1563
   13SAPS  H12R 1657   1.009   6.754   7.498  0.3595  1.4739 -0.2571
   13SAPS  C213 1658   1.143   6.611   7.395 -0.3493 -0.3459 -0.4151
   13SAPS  H13R 1659   1.183   6.602   7.291  1.0686  0.5858  0.0275
   13SAPS  H13S 1660   1.104   6.513   7.429 -2.0049 -0.0014 -1.2434
   13SAPS  C214 1661   1.262   6.656   7.483  0.4507 -0.0281  0.1643
   13SAPS  H14R 1662   1.247   6.630   7.589 -1.0531 -0.5989 -0.1712
   13SAPS  C215 1663   1.379   6.719   7.449  0.4863 -0.5083 -0.4305
   13SAPS  H15R 1664   1.447   6.740   7.532  0.1352  0.1271 -0.2989
   13SAPS  C216 1665   1.416   6.752   7.306  0.4236 -0.0264 -0.0273
   13SAPS  H16R 1666   1.399   6.857   7.276  0.9439  0.6122  1.7751
   13SAPS  H16S 1667   1.345   6.699   7.239  1.2873 -1.5363  0.1960
   13SAPS  C217 1668   1.559   6.693   7.271  0.6720 -0.2006 -0.2965
   13SAPS  H17R 1669   1.543   6.587   7.242 -0.3900  0.3351 -1.8549
   13SAPS  H17S 1670   1.629   6.708   7.356  1.3178  0.2371 -0.8995
   13SAPS  C218 1671   1.625   6.763   7.151  0.5354 -0.3530  0.8031
   13SAPS  H18R 1672   1.590   6.867   7.167 -1.4952 -1.0680  1.2459
   13SAPS  H18S 1673   1.570   6.732   7.060  0.6909  0.7398  0.3132
   13SAPS  C219 1674   1.776   6.756   7.145  0.0126  0.3793  0.4875
   13SAPS  H19R 1675   1.807   6.813   7.235 -3.4045  1.8416  0.9191
   13SAPS  H19S 1676   1.807   6.800   7.049  0.9375  2.6643  1.7617
   13SAPS  C220 1677   1.838   6.615   7.143 -0.7741 -0.4157  0.9328
   13SAPS  H20R 1678   1.779   6.558   7.068  0.5317 -0.4537 -0.0854
   13SAPS  H20S 1679   1.818   6.586   7.249 -1.9691 -0.7827  0.6284
   13SAPS  H20T 1680   1.941   6.630   7.106 -2.1233  2.0106 -2.2000
   13SAPS   C33 1681   2.174   6.805   6.764  0.3119  0.8520  0.1116
   13SAPS   H3X 1682   2.151   6.852   6.666 -0.5908  0.4229  0.1024
   13SAPS   H3Y 1683   2.210   6.701   6.750  0.2927  0.6588  1.4277
   13SAPS   C34 1684   2.286   6.887   6.828 -0.4420 -0.5811 -0.6407
   13SAPS   H4X 1685   2.383   6.864   6.780  0.7155 -1.1202  1.8050
   13SAPS   H4Y 1686   2.291   6.867   6.937 -0.8269 -0.7241 -0.6457
   13SAPS   C35 1687   2.261   7.041   6.821  0.3164 -0.3041  0.1596
   13SAPS   H5X 1688   2.327   7.100   6.888  1.7831 -1.6732  0.0123
   13SAPS   H5Y 1689   2.155   7.055   6.850  0.3866 -0.1263  0.3291
   13SAPS   C36 1690   2.272   7.103   6.673  0.1395 -0.7723  0.1711
   13SAPS   H6X 1691   2.197   7.059   6.604 -1.2266  1.0983  0.3880
   13SAPS   H6Y 1692   2.379   7.082   6.652  0.2162 -0.0992 -0.1483
   13SAPS   C37 1693   2.233   7.254   6.671 -0.2483  0.1145 -0.3214
   13SAPS   H7X 1694   2.151   7.265   6.745 -1.2230  2.2100 -1.6193
   13SAPS   H7Y 1695   2.191   7.293   6.575  0.0288 -2.7672 -1.7269
   13SAPS   C38 1696   2.352   7.349   6.704  0.3883 -0.7867  0.3106
   13SAPS   H8X 1697   2.429   7.350   6.625 -0.1044 -2.2026 -0.2175
   13SAPS   H8Y 1698   2.394   7.314   6.801  2.8851 -0.3131 -0.5353
   13SAPS   C39 1699   2.322   7.499   6.713 -0.2068 -0.3157 -0.8654
   13SAPS   H9X 1700   2.282   7.534   6.615 -2.9471  0.1012  0.3194
   13SAPS   H9Y 1701   2.418   7.548   6.739 -1.5934  1.8398  0.5578
   13SAPS  C310 1702   2.216   7.549   6.810 -0.0585  0.5009  0.6189
   13SAPS  H10X 1703   2.125   7.494   6.777  0.1372 -0.1828  1.1853
   13SAPS  H10Y 1704   2.205   7.655   6.779 -3.0209 -0.2669 -1.3482
   13SAPS  C311 1705   2.252   7.511   6.958 -0.2249  0.7947 -0.4256
   13SAPS  H11X 1706   2.350   7.553   6.989 -0.0916 -0.3390  0.8184
   13SAPS  H11Y 1707   2.253   7.402   6.980  1.3467  0.6873 -0.9495
   13SAPS  C312 1708   2.144   7.558   7.058 -0.1710 -0.1314 -0.0108
   13SAPS  H12X 1709   2.075   7.473   7.078 -1.2457  1.1072  1.9708
   13SAPS  H12Y 1710   2.088   7.647   7.023  0.0120 -0.2398 -0.5758
   13SAPS  C313 1711   2.212   7.580   7.198  0.0387  0.0617 -0.3243
   13SAPS  H13X 1712   2.286   7.662   7.192  1.2324 -0.6144  2.8309
   13SAPS  H13Y 1713   2.283   7.498   7.223 -0.4141 -0.5297 -0.9469
   13SAPS  C314 1714   2.113   7.602   7.314 -0.4567 -0.3738 -0.1367
   13SAPS  H14X 1715   2.167   7.607   7.411 -1.7528 -0.7147  0.6369
   13SAPS  H14Y 1716   2.052   7.510   7.324 -0.7720 -0.0264  1.5272
   13SAPS  C315 1717   2.034   7.731   7.307 -0.6813 -0.4446  0.2481
   13SAPS  H15X 1718   1.956   7.742   7.228 -0.3912  1.1220  0.1488
   13SAPS  H15Y 1719   2.109   7.811   7.290 -0.3312 -0.6624  0.7405
   13SAPS  C316 1720   1.982   7.774   7.446 -0.3042  0.7605  0.4458
   13SAPS  H16X 1721   2.073   7.775   7.510 -1.1929  0.7244  1.7718
   13SAPS  H16Y 1722   1.922   7.688   7.484  1.8590 -0.2788  1.6807
   13SAPS  C317 1723   1.901   7.911   7.452  0.3571 -0.2631  0.6742
   13SAPS  H17X 1724   1.897   7.948   7.347  1.6080 -0.6845  0.4604
   13SAPS  H17Y 1725   1.966   7.982   7.506  1.1099  0.3547 -0.9818
   13SAPS  C318 1726   1.755   7.919   7.511  0.7727  0.5822 -0.0266
   13SAPS  H18X 1727   1.725   8.025   7.521 -1.7206 -0.1728  1.3320
   13SAPS  H18Y 1728   1.752   7.865   7.609  2.1594  0.3799 -0.0686
   13SAPS  H18Z 1729   1.687   7.869   7.439  0.6643  2.1997 -1.1036
   14SAPS     N 1730   1.059   2.336   5.567  0.6138  0.6862  0.2909
   14SAPS   HN1 1731   1.023   2.241   5.591 -1.5217  1.0932 -1.0448
   14SAPS   HN2 1732   0.974   2.389   5.539  0.0921 -0.1278  0.3076
   14SAPS   HN3 1733   1.118   2.332   5.482  1.7310  1.5734  1.0025
   14SAPS   C12 1734   1.120   2.393   5.689 -0.6322 -0.8477 -0.2781
   14SAPS  H12A 1735   1.227   2.389   5.675 -0.1265  0.8107  2.4310
   14SAPS   C13 1736   1.074   2.537   5.719 -0.1273 -0.3815  0.4679
   14SAPS  O13A 1737   0.977   2.593   5.663 -0.4005  0.3242 -0.7233
   14SAPS  O13B 1738   1.131   2.595   5.818  0.1974 -0.4122  0.5565
   14SAPS   C11 1739   1.114   2.297   5.811 -0.3866 -0.7523 -0.0265
   14SAPS  H11A 1740   1.007   2.293   5.840 -1.6103 -2.8672 -4.0590
   14SAPS  H11B 1741   1.178   2.358   5.879 -1.3811 -0.3175  0.5328
   14SAPS     P 1742   1.322   2.134   5.823 -0.1492  0.1090  0.4809
   14SAPS   O13 1743   1.347   1.989   5.786  0.5333  0.6668 -0.1282
   14SAPS   O14 1744   1.409   2.235   5.761 -0.9363  0.1311 -0.1082
   14SAPS   O12 1745   1.174   2.165   5.783  0.2695 -0.0749 -0.0444
   14SAPS   O11 1746   1.318   2.158   5.982 -0.1123  0.1247  0.1659
   14SAPS    C1 1747   1.226   2.072   6.047 -0.3192 -0.0830  0.2916
   14SAPS    HA 1748   1.120   2.090   6.019 -0.6561 -1.2296  0.7394
   14SAPS    HB 1749   1.240   1.964   6.024  1.2020 -0.1769  1.5379
   14SAPS    C2 1750   1.241   2.098   6.199  0.3546  1.3671  0.5957
   14SAPS    HS 1751   1.189   2.013   6.249  3.4548 -1.0349  0.1052
   14SAPS   O21 1752   1.208   2.234   6.222  0.5321 -0.4053  0.1809
   14SAPS   C21 1753   1.075   2.251   6.238  0.3178  0.0897  0.2131
   14SAPS   O22 1754   0.990   2.165   6.224 -0.4078  0.7486 -0.1217
   14SAPS   C22 1755   1.049   2.403   6.266 -0.0024  0.8546  0.0594
   14SAPS   H2R 1756   1.118   2.432   6.349 -0.1456 -1.2912  1.0124
   14SAPS   H2S 1757   1.086   2.461   6.179 -2.5102  3.3047  0.4964
   14SAPS    C3 1758   1.384   2.073   6.249  0.0728 -0.4682 -0.0638
   14SAPS    HX 1759   1.449   2.154   6.210  0.9026 -1.5361 -1.0093
   14SAPS    HY 1760   1.413   1.974   6.206 -0.0994 -1.4821  2.0058
   14SAPS   O31 1761   1.395   2.060   6.387  0.2143  0.1970 -0.0682
   14SAPS   C31 1762   1.409   2.173   6.453 -0.0516 -0.1328  0.8076
   14SAPS   O32 1763   1.423   2.283   6.400  0.3010  0.0929  0.3638
   14SAPS   C32 1764   1.410   2.157   6.599 -0.5854  0.0213 -0.2516
   14SAPS   H2X 1765   1.409   2.261   6.638 -1.4627  0.0197 -0.2474
   14SAPS   H2Y 1766   1.497   2.092   6.624 -1.9338 -0.6352  3.5054
   14SAPS   C23 1767   0.907   2.439   6.289  0.1163  0.3167 -0.3168
   14SAPS   H3R 1768   0.844   2.373   6.226 -1.7234  2.0775 -0.4287
   14SAPS   H3S 1769   0.881   2.539   6.249 -2.3241  0.1370  0.5852
   14SAPS   C24 1770   0.855   2.432   6.438  0.5738  0.4029  0.5010
   14SAPS   H4R 1771   0.756   2.482   6.448 -0.6507 -1.8537  0.5048
   14SAPS   H4S 1772   0.931   2.490   6.494  0.7270 -0.4368  1.1982
   14SAPS   C25 1773   0.838   2.287   6.490 -0.0721 -0.0921 -0.1433
   14SAPS   H5R 1774   0.798   2.226   6.408  0.3001 -1.6757  0.8078
   14SAPS   C26 1775   0.868   2.239   6.615  0.4238  0.2045 -0.4496
   14SAPS   H6R 1776   0.841   2.137   6.645  4.8517 -1.2534 -0.7741
   14SAPS   C27 1777   0.926   2.318   6.730  0.4062 -0.2814  0.6660
   14SAPS   H7R 1778   0.967   2.417   6.702 -2.9341  1.3399  1.0156
   14SAPS   H7S 1779   1.008   2.262   6.779  0.6143  1.3465  2.3115
   14SAPS   C28 1780   0.814   2.340   6.833  0.1954  1.0135  0.6068
   14SAPS   H8R 1781   0.778   2.251   6.886 -2.2049  1.7263  0.2948
   14SAPS   C29 1782   0.758   2.459   6.871 -0.0336 -0.4692 -0.2182
   14SAPS   H9R 1783   0.686   2.454   6.953  0.5279  0.4052  0.3457
   14SAPS  C210 1784   0.797   2.599   6.822  0.1135 -0.3919  0.8424
   14SAPS  H10R 1785   0.826   2.588   6.716 -2.2108  1.9705 -0.1484
   14SAPS  H10S 1786   0.887   2.628   6.882 -1.2130  2.6884  1.5554
   14SAPS  C211 1787   0.687   2.696   6.843 -0.2781  0.3339  0.5123
   14SAPS  H11R 1788   0.602   2.692   6.773  0.2307  2.0474 -0.2736
   14SAPS  C212 1789   0.657   2.770   6.956 -0.0427 -0.1853 -0.1102
   14SAPS  H12R 1790   0.559   2.819   6.964  0.1348  0.3067 -0.8015
   14SAPS  C213 1791   0.741   2.781   7.079  0.4452 -0.6026  0.7938
   14SAPS  H13R 1792   0.832   2.720   7.064  0.6247 -0.4065  1.0858
   14SAPS  H13S 1793   0.694   2.731   7.166 -1.0732  0.5821  0.6856
   14SAPS  C214 1794   0.774   2.930   7.100  0.2071 -0.0710 -0.7448
   14SAPS  H14R 1795   0.849   2.971   7.031  0.4127 -0.1200 -0.5538
   14SAPS  C215 1796   0.719   3.012   7.193 -0.0121  0.0583 -0.0058
   14SAPS  H15R 1797   0.760   3.114   7.199 -1.7210  0.7108  1.7301
   14SAPS  C216 1798   0.604   2.983   7.288  0.6512 -0.4216  0.9012
   14SAPS  H16R 1799   0.554   2.883   7.283  0.6687 -0.5480  2.6616
   14SAPS  H16S 1800   0.526   3.060   7.272 -0.1121 -0.3790  4.1711
   14SAPS  C217 1801   0.636   2.979   7.435 -0.7104 -0.0978  0.1432
   14SAPS  H17R 1802   0.539   2.965   7.487 -1.7577  1.8034 -1.1478
   14SAPS  H17S 1803   0.681   3.076   7.463  0.5695 -0.3108 -1.0759
   14SAPS  C218 1804   0.724   2.868   7.486 -0.3351 -0.7258 -0.0840
   14SAPS  H18R 1805   0.829   2.882   7.453 -0.4175 -1.1706 -0.5575
   14SAPS  H18S 1806   0.685   2.766   7.464  0.1659 -1.2880  1.4593
   14SAPS  C219 1807   0.732   2.881   7.641  0.6397  0.4745  0.3802
   14SAPS  H19R 1808   0.629   2.891   7.682  0.7922  0.7158  0.6993
   14SAPS  H19S 1809   0.779   2.977   7.667  0.7510  0.6684 -0.5092
   14SAPS  C220 1810   0.808   2.766   7.706 -0.6596 -0.1622 -0.3037
   14SAPS  H20R 1811   0.916   2.769   7.680 -0.4386  0.8184  0.6485
   14SAPS  H20S 1812   0.763   2.667   7.682 -2.2989  0.0403  1.6436
   14SAPS  H20T 1813   0.800   2.768   7.817  0.7223 -0.8866 -0.1730
   14SAPS   C33 1814   1.287   2.083   6.654  0.5316  0.3011 -0.1838
   14SAPS   H3X 1815   1.287   1.980   6.614  0.9950  0.5229 -0.7702
   14SAPS   H3Y 1816   1.192   2.133   6.624 -0.2031 -0.1113  1.3284
   14SAPS   C34 1817   1.298   2.079   6.800 -0.9606  0.2652 -0.6847
   14SAPS   H4X 1818   1.383   2.015   6.831 -0.2837  0.8554 -1.2887
   14SAPS   H4Y 1819   1.202   2.033   6.833  0.3897 -1.2016  1.3855
   14SAPS   C35 1820   1.327   2.210   6.871 -0.4363  0.6834 -0.4173
   14SAPS   H5X 1821   1.282   2.295   6.814  1.0739  2.3604  0.7952
   14SAPS   H5Y 1822   1.436   2.228   6.862 -0.4253  1.2510  0.7301
   14SAPS   C36 1823   1.278   2.207   7.011 -0.0446  0.4498  0.0279
   14SAPS   H6X 1824   1.324   2.123   7.068 -0.7041  0.2606  0.2915
   14SAPS   H6Y 1825   1.169   2.186   7.017  0.4192 -2.2535  0.4113
   14SAPS   C37 1826   1.303   2.333   7.095 -0.6323 -0.4421 -0.2370
   14SAPS   H7X 1827   1.245   2.423   7.064 -0.5718  0.1673  1.3044
   14SAPS   H7Y 1828   1.409   2.360   7.080 -1.3717  1.8536 -1.8709
   14SAPS   C38 1829   1.280   2.318   7.243  0.3767  0.1288  0.2320
   14SAPS   H8X 1830   1.341   2.228   7.266 -0.3696 -0.8669 -1.4763
   14SAPS   H8Y 1831   1.172   2.299   7.259 -0.4696  3.3891 -0.8009
   14SAPS   C39 1832   1.319   2.439   7.329  0.5985 -0.6076 -0.3863
   14SAPS   H9X 1833   1.278   2.529   7.279  1.4410  0.9932  1.6874
   14SAPS   H9Y 1834   1.428   2.456   7.315  0.4598 -0.1650 -0.9620
   14SAPS  C310 1835   1.288   2.432   7.477  0.1479  0.2935  0.2249
   14SAPS  H10X 1836   1.377   2.410   7.540  0.7705  3.0073  0.4084
   14SAPS  H10Y 1837   1.210   2.356   7.500 -0.0152  0.4915  0.3271
   14SAPS  C311 1838   1.245   2.560   7.541 -0.1954 -0.2511  0.5473
   14SAPS  H11X 1839   1.153   2.609   7.505  1.9691  2.3440 -1.9175
   14SAPS  H11Y 1840   1.319   2.641   7.522 -0.7801  0.5094  1.4581
   14SAPS  C312 1841   1.227   2.554   7.692 -0.2225 -0.2907 -0.6274
   14SAPS  H12X 1842   1.330   2.536   7.732  0.2046  0.7553 -1.2154
   14SAPS  H12Y 1843   1.149   2.483   7.724 -0.6664  1.0597  1.5157
   14SAPS  C313 1844   1.197   2.692   7.748 -0.1898 -0.1016 -0.6163
   14SAPS  H13X 1845   1.107   2.739   7.703 -0.2358  2.4723  1.8929
   14SAPS  H13Y 1846   1.284   2.760   7.733  0.8025 -1.2962 -0.4559
   14SAPS  C314 1847   1.166   2.679   7.900  0.1352 -0.4614 -0.7444
   14SAPS  H14X 1848   1.252   2.634   7.953 -0.5826  0.9890  1.8671
   14SAPS  H14Y 1849   1.085   2.602   7.906  1.1290 -1.3942  2.6563
   14SAPS  C315 1850   1.121   2.802   7.970 -0.5499  0.1755 -0.4466
   14SAPS  H15X 1851   1.052   2.859   7.905 -0.6741  0.1932 -0.2995
   14SAPS  H15Y 1852   1.216   2.859   7.979 -1.3634  1.3434  1.3563
   14SAPS  C316 1853   1.065   2.781   8.110  0.4060 -0.8475  0.4741
   14SAPS  H16X 1854   1.142   2.775   8.190  0.1172 -2.7569  0.6621
   14SAPS  H16Y 1855   1.004   2.688   8.103 -2.3267  0.6612  2.3332
   14SAPS  C317 1856   0.972   2.899   8.149 -0.4606 -0.3835  0.0143
   14SAPS  H17X 1857   0.898   2.858   8.220 -0.4259 -1.5375 -0.6004
   14SAPS  H17Y 1858   0.904   2.913   8.063 -0.6015 -2.7050 -0.3099
   14SAPS  C318 1859   1.040   3.030   8.198  1.0710  1.1344  0.0482
   14SAPS  H18X 1860   1.085   3.087   8.114  1.0670 -0.9516 -1.4612
   14SAPS  H18Y 1861   1.124   3.003   8.265  1.2717  3.7156  0.9446
   14SAPS  H18Z 1862   0.972   3.102   8.249  0.5388 -1.1620  2.7954
   15SAPS     N 1863   1.286   1.027   5.554 -0.4100  0.4287 -0.4078
   15SAPS   HN1 1864   1.218   1.037   5.476 -0.3496  1.7358 -0.3091
   15SAPS   HN2 1865   1.373   0.974   5.530 -2.3371 -2.5330 -1.3249
   15SAPS   HN3 1866   1.245   0.956   5.617  4.1321 -2.1639  0.0989
   15SAPS   C12 1867   1.309   1.164   5.609  0.0606 -0.4837 -0.2703
   15SAPS  H12A 1868   1.347   1.223   5.527 -1.5745 -1.6347 -1.9244
   15SAPS   C13 1869   1.181   1.231   5.657 -0.4688  0.6987 -0.0691
   15SAPS  O13A 1870   1.068   1.175   5.647  0.3144 -0.3432  0.4622
   15SAPS  O13B 1871   1.192   1.350   5.692  0.2229 -0.4194  0.0033
   15SAPS   C11 1872   1.406   1.141   5.730  0.1820 -0.3531  0.0464
   15SAPS  H11A 1873   1.346   1.091   5.809  0.3254  3.7721  3.1587
   15SAPS  H11B 1874   1.427   1.240   5.775  1.0542 -0.4471 -0.1484
   15SAPS     P 1875   1.662   1.093   5.768  0.0987 -0.1058  0.3547
   15SAPS   O13 1876   1.749   1.006   5.683  0.2339 -0.6819  0.2721
   15SAPS   O14 1877   1.690   1.239   5.768 -0.0131  0.1050  0.0237
   15SAPS   O12 1878   1.520   1.065   5.711 -0.1627 -0.3215 -0.0632
   15SAPS   O11 1879   1.675   1.027   5.908  0.4951  0.2389 -0.5586
   15SAPS    C1 1880   1.580   0.929   5.955  0.4516 -0.1965  0.4578
   15SAPS    HA 1881   1.498   0.905   5.883  0.8833 -1.7813  0.4596
   15SAPS    HB 1882   1.629   0.832   5.975  2.6779  0.9784  1.0089
   15SAPS    C2 1883   1.513   0.972   6.088 -0.5054 -0.4388  0.1151
   15SAPS    HS 1884   1.418   0.916   6.082  0.0610 -1.2896 -1.4718
   15SAPS   O21 1885   1.497   1.114   6.091 -0.3264 -0.1898 -0.2178
   15SAPS   C21 1886   1.379   1.157   6.127 -0.7331 -0.0995 -0.4487
   15SAPS   O22 1887   1.285   1.086   6.164  0.5835 -0.4775  0.3195
   15SAPS   C22 1888   1.376   1.311   6.114  0.5768  0.4510  0.3399
   15SAPS   H2R 1889   1.469   1.361   6.148  2.7165 -2.6188 -0.5160
   15SAPS   H2S 1890   1.361   1.330   6.005  0.3490  6.0648  1.0818
   15SAPS    C3 1891   1.598   0.934   6.217 -0.3462  0.0010  0.3167
   15SAPS    HX 1892   1.703   0.957   6.190  0.7454 -4.3656  0.0238
   15SAPS    HY 1893   1.595   0.823   6.211 -0.1662  0.0708 -1.8692
   15SAPS   O31 1894   1.549   0.993   6.342  0.1648 -0.3384  0.1698
   15SAPS   C31 1895   1.445   0.935   6.397 -0.4115  0.1481 -0.1333
   15SAPS   O32 1896   1.380   0.847   6.348 -0.3420 -0.0748  0.1038
   15SAPS   C32 1897   1.430   1.005   6.527 -0.3352 -0.5757  0.6344
   15SAPS   H2X 1898   1.530   1.024   6.571 -0.1880  2.2681 -0.6931
   15SAPS   H2Y 1899   1.362   0.941   6.587 -0.8538 -1.1166 -0.5021
   15SAPS   C23 1900   1.255   1.383   6.181 -0.1768 -0.5372  0.0530
   15SAPS   H3R 1901   1.248   1.372   6.291 -0.6425  0.4222  0.1264
   15SAPS   H3S 1902   1.161   1.344   6.137 -0.0438 -3.5552  2.1662
   15SAPS   C24 1903   1.243   1.533   6.154  0.6965 -0.1783  0.2345
   15SAPS   H4R 1904   1.143   1.556   6.197  0.6148 -0.2774  0.1033
   15SAPS   H4S 1905   1.229   1.556   6.046 -0.0082 -0.1605  0.3244
   15SAPS   C25 1906   1.354   1.615   6.218  0.6571 -0.8016 -0.3724
   15SAPS   H5R 1907   1.452   1.622   6.167  0.6126 -0.2239 -0.3774
   15SAPS   C26 1908   1.342   1.677   6.332  0.1548  0.0098 -0.2220
   15SAPS   H6R 1909   1.433   1.725   6.369 -0.1303 -0.3511  1.0021
   15SAPS   C27 1910   1.223   1.671   6.425 -0.3112  0.0292 -0.3058
   15SAPS   H7R 1911   1.255   1.708   6.525 -0.2271  0.9812 -0.6679
   15SAPS   H7S 1912   1.197   1.565   6.441  0.4404  0.3413  4.1582
   15SAPS   C28 1913   1.113   1.757   6.372  1.1182 -0.6944 -0.9065
   15SAPS   H8R 1914   1.107   1.773   6.263 -0.9246 -5.0273 -1.6676
   15SAPS   C29 1915   1.013   1.795   6.448 -0.3550 -0.1044  0.2557
   15SAPS   H9R 1916   0.942   1.860   6.396 -2.0798 -1.2436  1.1072
   15SAPS  C210 1917   0.990   1.772   6.592 -0.0611  0.2463 -0.1578
   15SAPS  H10R 1918   1.075   1.815   6.649  0.6198 -0.5660 -0.5362
   15SAPS  H10S 1919   0.993   1.663   6.615 -0.7075  0.1446 -0.5356
   15SAPS  C211 1920   0.865   1.824   6.649 -0.4157 -0.0277 -0.1497
   15SAPS  H11R 1921   0.782   1.827   6.577  0.3842 -3.7604 -1.4424
   15SAPS  C212 1922   0.842   1.862   6.777 -0.5372  0.2832 -0.0290
   15SAPS  H12R 1923   0.741   1.891   6.812 -0.7521  0.6300 -0.9028
   15SAPS  C213 1924   0.953   1.845   6.879  0.1536 -0.9233  0.5126
   15SAPS  H13R 1925   1.002   1.945   6.872  4.2477 -2.6990  1.0106
   15SAPS  H13S 1926   1.021   1.758   6.863  0.7428 -0.4010  0.1254
   15SAPS  C214 1927   0.896   1.829   7.013  0.0476 -0.1806  0.6593
   15SAPS  H14R 1928   0.876   1.727   7.049  0.4822 -0.4897  0.0576
   15SAPS  C215 1929   0.874   1.922   7.105  0.6107 -0.4337 -0.2478
   15SAPS  H15R 1930   0.820   1.898   7.197 -1.4104  0.9656 -0.9981
   15SAPS  C216 1931   0.893   2.075   7.080 -0.6875  0.0162  0.9424
   15SAPS  H16R 1932   0.797   2.118   7.044 -0.9347 -1.7147 -0.6795
   15SAPS  H16S 1933   0.970   2.101   7.004  0.3843  1.5882  2.5165
   15SAPS  C217 1934   0.913   2.148   7.215 -0.5868  0.5343  0.3433
   15SAPS  H17R 1935   1.012   2.133   7.264  0.3955  1.0046 -1.4242
   15SAPS  H17S 1936   0.833   2.122   7.288 -0.9985  0.5719 -0.0858
   15SAPS  C218 1937   0.876   2.296   7.193  0.2936 -1.0273  0.2905
   15SAPS  H18R 1938   0.772   2.301   7.154  0.8325 -3.6090 -1.7113
   15SAPS  H18S 1939   0.953   2.347   7.132 -0.5079  2.0978  1.7043
   15SAPS  C219 1940   0.880   2.375   7.330 -0.2194  0.3471  0.3674
   15SAPS  H19R 1941   0.975   2.366   7.386  0.8245  1.0457 -1.2396
   15SAPS  H19S 1942   0.790   2.349   7.391  0.2698  1.0640  1.4193
   15SAPS  C220 1943   0.857   2.523   7.303  0.3246 -0.5903 -0.1393
   15SAPS  H20R 1944   0.819   2.577   7.393 -0.0713  0.6391 -1.0145
   15SAPS  H20S 1945   0.770   2.543   7.237 -0.3198 -0.8035  0.6255
   15SAPS  H20T 1946   0.954   2.561   7.263  1.2699 -0.7485  1.8778
   15SAPS   C33 1947   1.365   1.144   6.522 -0.1374 -0.6021  0.0607
   15SAPS   H3X 1948   1.265   1.123   6.477  1.0103 -2.3743 -1.7888
   15SAPS   H3Y 1949   1.422   1.212   6.456 -1.5747  1.7162  1.0748
   15SAPS   C34 1950   1.351   1.204   6.664  0.4396 -0.2376  0.7238
   15SAPS   H4X 1951   1.295   1.126   6.720 -0.0500  0.1452  0.7699
   15SAPS   H4Y 1952   1.294   1.298   6.650  1.8454  0.5624  0.1879
   15SAPS   C35 1953   1.485   1.229   6.734  0.3345  0.4049 -0.5928
   15SAPS   H5X 1954   1.549   1.291   6.668  3.5703 -0.6661  1.3412
   15SAPS   H5Y 1955   1.535   1.131   6.750 -0.0724  0.3612  0.5050
   15SAPS   C36 1956   1.464   1.280   6.880 -0.0340 -0.0446 -0.0547
   15SAPS   H6X 1957   1.404   1.204   6.935  0.0486 -0.7669 -0.9355
   15SAPS   H6Y 1958   1.402   1.372   6.890 -0.3972 -0.2566 -0.3346
   15SAPS   C37 1959   1.596   1.303   6.958  0.0443 -0.6097  0.2545
   15SAPS   H7X 1960   1.633   1.388   6.897  0.1583 -2.0588 -1.8309
   15SAPS   H7Y 1961   1.671   1.223   6.940  1.2683  0.6908 -0.5993
   15SAPS   C38 1962   1.571   1.329   7.104  0.1174  0.1332  0.1185
   15SAPS   H8X 1963   1.531   1.238   7.152 -0.8121  1.4619  2.0293
   15SAPS   H8Y 1964   1.483   1.398   7.100 -1.4957 -1.8798 -3.4767
   15SAPS   C39 1965   1.684   1.378   7.189  0.0398  0.0404  0.2749
   15SAPS   H9X 1966   1.739   1.470   7.159  1.2857 -0.2790  1.4410
   15SAPS   H9Y 1967   1.770   1.308   7.184  2.1658  2.4230  1.4193
   15SAPS  C310 1968   1.629   1.395   7.330  0.4132 -0.1766  0.0468
   15SAPS  H10X 1969   1.602   1.291   7.359  0.0502 -0.6824 -1.9612
   15SAPS  H10Y 1970   1.539   1.460   7.322 -0.0628 -0.6983  0.9358
   15SAPS  C311 1971   1.730   1.448   7.432 -0.3168  0.6210  0.7257
   15SAPS  H11X 1972   1.784   1.533   7.384  0.4554  0.1859  0.7985
   15SAPS  H11Y 1973   1.809   1.374   7.459  0.8202  1.3923 -0.3700
   15SAPS  C312 1974   1.677   1.492   7.569 -0.0579  0.8224 -0.1906
   15SAPS  H12X 1975   1.659   1.399   7.626 -0.1444  1.4320  0.8063
   15SAPS  H12Y 1976   1.576   1.538   7.554  0.1961  0.7938 -2.2421
   15SAPS  C313 1977   1.766   1.580   7.657  0.2131  0.4582  0.2886
   15SAPS  H13X 1978   1.790   1.678   7.611  0.1130  0.8064  0.9667
   15SAPS  H13Y 1979   1.859   1.529   7.690 -0.6862 -0.9436  0.7350
   15SAPS  C314 1980   1.686   1.609   7.787 -0.4641  0.6527  0.3081
   15SAPS  H14X 1981   1.669   1.509   7.832  0.4047 -0.9122 -2.5737
   15SAPS  H14Y 1982   1.593   1.655   7.746 -0.5953  0.2035  0.0891
   15SAPS  C315 1983   1.762   1.705   7.885  0.9527  0.3936 -0.2826
   15SAPS  H15X 1984   1.778   1.805   7.840 -1.6061  1.0378  0.0831
   15SAPS  H15Y 1985   1.859   1.657   7.910  0.0089 -1.2086  0.4770
   15SAPS  C316 1986   1.682   1.705   8.021 -0.1289 -0.3277  0.0025
   15SAPS  H16X 1987   1.575   1.725   7.999  0.0073  0.2384 -0.1767
   15SAPS  H16Y 1988   1.731   1.784   8.082 -2.8197  1.5881 -0.1574
   15SAPS  C317 1989   1.698   1.572   8.101 -0.6679 -0.4696  0.9202
   15SAPS  H17X 1990   1.808   1.561   8.103 -0.5023  0.2635 -1.3049
   15SAPS  H17Y 1991   1.655   1.488   8.042 -1.8466  1.2431 -0.7599
   15SAPS  C318 1992   1.636   1.572   8.239  0.2136 -0.5031 -1.0909
   15SAPS  H18X 1993   1.694   1.636   8.309  1.3170 -1.6664 -0.8850
   15SAPS  H18Y 1994   1.636   1.473   8.290 -0.1728  0.5877  1.1684
   15SAPS  H18Z 1995   1.533   1.613   8.232  0.2718  0.0494  0.7618
   16SAPS     N 1996   4.621   5.108   6.066 -0.3468  0.6485  1.1536
   16SAPS   HN1 1997   4.586   5.126   6.162  1.1755 -1.6835  2.2182
   16SAPS   HN2 1998   4.701   5.172   6.049 -0.5548  0.7212  0.4163
   16SAPS   HN3 1999   4.544   5.129   5.999 -0.8929 -1.8884  0.9054
   16SAPS   C12 2000   4.653   4.963   6.027 -0.6854  0.4382 -0.3755
   16SAPS  H12A 2001   4.567   4.898   6.036  0.8449 -1.6068  0.1459
   16SAPS   C13 2002   4.710   4.943   5.885  0.5286  0.8678 -0.1077
   16SAPS  O13A 2003   4.739   5.040   5.811 -0.2758 -0.3243 -0.1852
   16SAPS  O13B 2004   4.743   4.826   5.851  0.9714  0.7960  0.2781
   16SAPS   C11 2005   4.755   4.905   6.128 -0.5175 -0.0600 -0.1450
   16SAPS  H11A 2006   4.849   4.964   6.137  0.5573 -1.7136 -0.1318
   16SAPS  H11B 2007   4.779   4.805   6.086 -2.7594 -0.3302 -0.8811
   16SAPS     P 2008   4.779   4.835   6.373 -0.2637 -0.5306  0.1737
   16SAPS   O13 2009   4.780   4.688   6.343 -0.4373  0.4521 -0.1428
   16SAPS   O14 2010   4.911   4.893   6.380 -0.4104  0.2804 -0.1437
   16SAPS   O12 2011   4.686   4.912   6.260  0.0025 -0.0745 -0.4412
   16SAPS   O11 2012   4.710   4.867   6.511 -0.5213 -0.2038  0.0865
   16SAPS    C1 2013   4.721   5.002   6.562 -0.3170  0.1525  0.1262
   16SAPS    HA 2014   4.758   5.069   6.482  0.7952 -0.9522 -0.3148
   16SAPS    HB 2015   4.621   5.037   6.595 -0.1386  0.1870  0.6550
   16SAPS    C2 2016   4.817   5.010   6.684  0.3958  0.3817  0.4459
   16SAPS    HS 2017   4.909   4.958   6.648  0.2398  0.8783 -0.7176
   16SAPS   O21 2018   4.756   4.936   6.792 -0.1723 -0.2843  0.3952
   16SAPS   C21 2019   4.834   4.901   6.890 -0.4013  0.3646 -1.1463
   16SAPS   O22 2020   4.960   4.910   6.894  0.4348 -0.0784 -0.6992
   16SAPS   C22 2021   4.755   4.857   7.007 -0.1112 -0.2109  0.0764
   16SAPS   H2R 2022   4.735   4.948   7.067 -0.9108 -0.5865  0.4069
   16SAPS   H2S 2023   4.656   4.828   6.965  0.7409 -1.0752 -1.4142
   16SAPS    C3 2024   4.858   5.155   6.731 -0.0010 -0.1826  0.1392
   16SAPS    HX 2025   4.908   5.206   6.646 -1.4819 -0.0808 -0.7088
   16SAPS    HY 2026   4.932   5.137   6.812  0.4850  1.1815  0.0084
   16SAPS   O31 2027   4.756   5.233   6.782  0.4030 -0.5929  0.3204
   16SAPS   C31 2028   4.784   5.353   6.814  0.5773  0.2522  0.4499
   16SAPS   O32 2029   4.890   5.410   6.794 -0.1017 -0.3266 -0.0578
   16SAPS   C32 2030   4.659   5.411   6.883  0.4212  0.4632  1.0207
   16SAPS   H2X 2031   4.605   5.460   6.799 -0.2623 -3.2986 -0.9707
   16SAPS   H2Y 2032   4.690   5.480   6.964  0.5813 -1.2914  2.5170
   16SAPS   C23 2033   4.814   4.742   7.084  0.4612 -0.3089 -0.2258
   16SAPS   H3R 2034   4.913   4.769   7.128  0.7445 -0.4904 -0.7484
   16SAPS   H3S 2035   4.828   4.651   7.023  0.7760  0.2586 -1.0137
   16SAPS   C24 2036   4.722   4.689   7.199  0.3579  0.1110 -0.6920
   16SAPS   H4R 2037   4.778   4.607   7.249  0.3647  0.2155 -0.5270
   16SAPS   H4S 2038   4.626   4.649   7.162  0.5955 -1.4248  0.2592
   16SAPS   C25 2039   4.682   4.805   7.291  0.2086 -0.5880 -0.2377
   16SAPS   H5R 2040   4.746   4.895   7.283  0.0985 -0.5500 -0.7651
   16SAPS   C26 2041   4.564   4.806   7.362 -0.2805  0.5630 -0.1143
   16SAPS   H6R 2042   4.548   4.890   7.431  1.5776  1.5981 -0.8672
   16SAPS   C27 2043   4.458   4.702   7.365  0.8841 -0.5341  0.4787
   16SAPS   H7R 2044   4.506   4.607   7.396  2.7990 -0.2282 -1.2996
   16SAPS   H7S 2045   4.412   4.692   7.264 -0.9690 -1.6106  1.3779
   16SAPS   C28 2046   4.346   4.726   7.469 -0.1984 -0.0137 -0.7585
   16SAPS   H8R 2047   4.249   4.711   7.419  0.6719 -2.6898 -1.8657
   16SAPS   C29 2048   4.361   4.750   7.603 -0.2339 -0.3214 -1.1489
   16SAPS   H9R 2049   4.265   4.760   7.656 -0.2814 -0.9473 -1.1121
   16SAPS  C210 2050   4.483   4.772   7.687 -0.3509 -0.0218  0.0801
   16SAPS  H10R 2051   4.453   4.779   7.793 -0.9205 -0.2861 -0.0572
   16SAPS  H10S 2052   4.519   4.874   7.665 -2.7785  1.5938  2.9535
   16SAPS  C211 2053   4.595   4.666   7.695 -0.6380  1.0260 -0.2726
   16SAPS  H11R 2054   4.553   4.565   7.701  0.4817  0.6517  2.7545
   16SAPS  C212 2055   4.724   4.688   7.709  0.0574 -0.0797  1.2654
   16SAPS  H12R 2056   4.787   4.598   7.714  0.0167 -0.2284 -0.4511
   16SAPS  C213 2057   4.792   4.824   7.718  0.5037 -0.5296 -0.4184
   16SAPS  H13R 2058   4.752   4.880   7.805  0.7406 -2.6597  1.1471
   16SAPS  H13S 2059   4.770   4.871   7.620 -1.9563 -1.5665 -0.4251
   16SAPS  C214 2060   4.940   4.809   7.740 -0.3884 -0.0992  0.2205
   16SAPS  H14R 2061   4.976   4.764   7.833  1.8203  2.3809  0.6708
   16SAPS  C215 2062   5.037   4.829   7.648  0.3848  0.6031  0.0834
   16SAPS  H15R 2063   5.140   4.805   7.677  0.5753  0.6306 -0.5584
   16SAPS  C216 2064   5.011   4.859   7.501 -1.0334 -0.1183  0.6763
   16SAPS  H16R 2065   4.958   4.957   7.502 -0.2666  0.3138  0.4185
   16SAPS  H16S 2066   4.950   4.778   7.456  0.5941 -1.1096  0.1895
   16SAPS  C217 2067   5.142   4.876   7.423  0.0894 -0.2026  0.2867
   16SAPS  H17R 2068   5.218   4.800   7.451 -0.8279 -2.2319 -2.2603
   16SAPS  H17S 2069   5.193   4.971   7.451  2.7636 -1.5450  0.3887
   16SAPS  C218 2070   5.116   4.858   7.267  0.7038 -0.1412  0.6834
   16SAPS  H18R 2071   5.037   4.929   7.235  1.8310 -0.1957 -2.6226
   16SAPS  H18S 2072   5.079   4.753   7.269 -0.5666  0.2831  0.6546
   16SAPS  C219 2073   5.242   4.886   7.190 -0.0848  0.1650 -0.2389
   16SAPS  H19R 2074   5.330   4.845   7.245 -0.8345 -2.2116 -0.6838
   16SAPS  H19S 2075   5.257   4.993   7.167  0.1526  0.6287  1.8784
   16SAPS  C220 2076   5.258   4.809   7.057 -0.2137  0.1433  0.2344
   16SAPS  H20R 2077   5.352   4.837   7.006 -1.5269 -0.2183 -2.5336
   16SAPS  H20S 2078   5.181   4.824   6.979  0.3279  0.4910 -0.2407
   16SAPS  H20T 2079   5.266   4.700   7.074  3.7172  0.6493  3.0466
   16SAPS   C33 2080   4.563   5.302   6.944  0.4538  0.0923 -0.4058
   16SAPS   H3X 2081   4.530   5.232   6.864  1.8724 -0.6146 -0.4054
   16SAPS   H3Y 2082   4.479   5.358   6.989  0.1755  0.8079 -1.7423
   16SAPS   C34 2083   4.626   5.219   7.054  0.2519 -0.4812 -0.3365
   16SAPS   H4X 2084   4.682   5.281   7.127  1.1914 -1.7678  0.0625
   16SAPS   H4Y 2085   4.700   5.152   7.004  0.1886  1.0782 -2.7146
   16SAPS   C35 2086   4.528   5.140   7.137  0.9080  0.7629  0.4945
   16SAPS   H5X 2087   4.597   5.072   7.192 -1.8155 -2.2091  0.5029
   16SAPS   H5Y 2088   4.472   5.071   7.071  2.4631 -0.0307 -0.0594
   16SAPS   C36 2089   4.434   5.226   7.223  0.7234  0.4252 -0.1291
   16SAPS   H6X 2090   4.356   5.274   7.159  3.1543  1.9130 -2.1857
   16SAPS   H6Y 2091   4.475   5.305   7.289  0.0967 -0.0148  0.8000
   16SAPS   C37 2092   4.374   5.126   7.329 -0.3076 -0.7929  0.7106
   16SAPS   H7X 2093   4.453   5.099   7.403  1.4000  0.1100 -0.7176
   16SAPS   H7Y 2094   4.340   5.032   7.282  1.6026 -1.5265  0.7076
   16SAPS   C38 2095   4.263   5.188   7.414  0.1736 -0.1880 -0.0654
   16SAPS   H8X 2096   4.180   5.214   7.345  1.9714  0.3076 -2.1452
   16SAPS   H8Y 2097   4.299   5.288   7.449 -2.2984  0.1944  1.5989
   16SAPS   C39 2098   4.211   5.117   7.540  0.2913 -0.0571  0.5406
   16SAPS   H9X 2099   4.210   5.010   7.513 -0.0665  0.4375 -1.5825
   16SAPS   H9Y 2100   4.107   5.147   7.564 -0.6178  0.9496 -3.7829
   16SAPS  C310 2101   4.292   5.135   7.662  0.4143  0.4114  0.2023
   16SAPS  H10X 2102   4.301   5.244   7.679  1.2106  0.2485  0.8811
   16SAPS  H10Y 2103   4.394   5.094   7.646  1.0917  1.8146  0.7005
   16SAPS  C311 2104   4.227   5.071   7.782  0.5705 -0.0469  0.1919
   16SAPS  H11X 2105   4.243   4.962   7.795 -0.9443 -0.4475 -1.0191
   16SAPS  H11Y 2106   4.119   5.096   7.778  0.4094 -0.8786 -1.8988
   16SAPS  C312 2107   4.278   5.128   7.922  0.5162  0.3932  0.9201
   16SAPS  H12X 2108   4.388   5.117   7.920  0.4815 -0.0956  1.3987
   16SAPS  H12Y 2109   4.239   5.065   8.005 -1.0996 -3.2366 -2.2594
   16SAPS  C313 2110   4.227   5.264   7.967 -0.2097 -0.1642 -0.4637
   16SAPS  H13X 2111   4.119   5.249   7.990 -0.3590 -1.5785 -1.8816
   16SAPS  H13Y 2112   4.224   5.339   7.885 -0.8202 -1.3524 -1.5686
   16SAPS  C314 2113   4.311   5.301   8.089 -0.1240  0.0066  0.4429
   16SAPS  H14X 2114   4.415   5.322   8.058  0.3249 -0.0361  1.8425
   16SAPS  H14Y 2115   4.316   5.206   8.147 -0.7115  1.1456  2.4525
   16SAPS  C315 2116   4.251   5.417   8.169  0.0210 -0.4954 -0.3387
   16SAPS  H15X 2117   4.171   5.473   8.117 -1.5335  0.8533  3.2239
   16SAPS  H15Y 2118   4.320   5.502   8.189 -0.6963 -0.5573  2.9099
   16SAPS  C316 2119   4.194   5.372   8.303 -0.6737 -0.4588  0.0902
   16SAPS  H16X 2120   4.191   5.458   8.373 -0.1960 -1.2013  1.0442
   16SAPS  H16Y 2121   4.275   5.307   8.342 -0.0070 -1.0505 -2.1025
   16SAPS  C317 2122   4.063   5.297   8.288 -0.1388 -0.8287  0.3227
   16SAPS  H17X 2123   4.023   5.269   8.387 -0.3152 -3.1749 -0.3615
   16SAPS  H17Y 2124   4.079   5.204   8.229  1.7965 -1.6018  1.9644
   16SAPS  C318 2125   3.955   5.379   8.218  0.0001  0.5093  0.1315
   16SAPS  H18X 2126   3.998   5.384   8.116  0.4924  1.7337  0.3802
   16SAPS  H18Y 2127   3.944   5.484   8.255  1.2482  0.6816  0.0440
   16SAPS  H18Z 2128   3.853   5.335   8.218 -0.7576  2.0394  3.0306
   17SAPC     N 2129   2.715   0.096  10.752  0.1569 -0.1330  0.2444
   17SAPC   C12 2130   2.798   0.078  10.623 -0.0729 -0.5248  0.2783
   17SAPC  H12A 2131   2.740   0.023  10.551  0.7495  0.9215 -1.5589
   17SAPC  H12B 2132   2.887   0.024  10.653  0.1155 -1.1228 -1.2653
   17SAPC   C13 2133   2.684  -0.043  10.794  0.1863  0.2321 -0.3273
   17SAPC  H13A 2134   2.637  -0.053  10.891 -0.2178  0.0520 -0.5376
   17SAPC  H13B 2135   2.626  -0.100  10.723 -0.3216  0.7731 -0.3538
   17SAPC  H13C 2136   2.780  -0.091  10.805  0.2217  0.2848 -0.4080
   17SAPC   C14 2137   2.781   0.172  10.857 -0.0654  0.2544  0.1918
   17SAPC  H14A 2138   2.868   0.116  10.888 -1.2805 -1.9541 -0.2205
   17SAPC  H14B 2139   2.820   0.263  10.813 -0.2966 -0.0505 -0.6652
   17SAPC  H14C 2140   2.720   0.197  10.942 -1.0731  0.6670 -0.6218
   17SAPC   C15 2141   2.585   0.167  10.727  0.2034  0.0481  0.8826
   17SAPC  H15A 2142   2.591   0.250  10.659 -1.7506 -0.0450  0.5456
   17SAPC  H15B 2143   2.516   0.096  10.684  1.4098 -1.3755  1.1886
   17SAPC  H15C 2144   2.540   0.196  10.821  0.8505 -1.2416  1.6187
   17SAPC   C11 2145   2.855   0.197  10.535 -0.3969 -0.5448 -0.3108
   17SAPC  H11A 2146   2.767   0.259  10.511  0.1325  0.4878  0.3207
   17SAPC  H11B 2147   2.895   0.150  10.443 -1.8176 -0.9785 -0.7303
   17SAPC     P 2148   3.094   0.244  10.621  0.1815 -0.3333 -0.3546
   17SAPC   O13 2149   3.156   0.351  10.701 -0.3696 -0.1294  0.0171
   17SAPC   O14 2150   3.108   0.107  10.675 -0.0492  0.3682  0.3093
   17SAPC   O12 2151   2.945   0.280  10.613  0.0296 -0.3489 -0.5652
   17SAPC   O11 2152   3.140   0.254  10.470  0.4838 -0.1756 -0.3047
   17SAPC    C1 2153   3.135   0.370  10.393 -0.0978 -0.3060 -0.5156
   17SAPC    HA 2154   3.109   0.460  10.453 -0.7301 -0.3911 -0.6568
   17SAPC    HB 2155   3.242   0.386  10.368  0.3780 -0.7917  1.0626
   17SAPC    C2 2156   3.059   0.355  10.268 -0.3416  0.3659 -0.0480
   17SAPC    HS 2157   2.949   0.346  10.286 -0.2931  0.9239  0.5765
   17SAPC   O21 2158   3.111   0.236  10.195 -0.3089 -0.4111 -0.3467
   17SAPC   C21 2159   3.030   0.176  10.110  0.0251 -0.5335  0.1604
   17SAPC   O22 2160   2.907   0.181  10.115 -0.3934  0.1586 -0.2814
   17SAPC   C22 2161   3.123   0.102  10.009  0.0150  0.1930  0.7212
   17SAPC   H2R 2162   3.216   0.158   9.986 -0.4851  0.1566 -1.7136
   17SAPC   H2S 2163   3.151   0.004  10.053 -1.2732  0.5969  2.5227
   17SAPC    C3 2164   3.083   0.483  10.177 -0.5414  0.0994  0.1391
   17SAPC    HX 2165   3.192   0.502  10.179 -0.1900 -1.7716  1.6013
   17SAPC    HY 2166   3.037   0.574  10.222  0.4896  0.6448  0.1054
   17SAPC   O31 2167   3.033   0.471  10.045 -0.0583 -0.7451  0.2629
   17SAPC   C31 2168   2.906   0.486  10.026  0.1087  0.2269  0.2828
   17SAPC   O32 2169   2.815   0.506  10.101  0.2063  0.1457 -0.6454
   17SAPC   C32 2170   2.873   0.461   9.878 -0.1034 -0.9661  0.5143
   17SAPC   H2X 2171   2.964   0.414   9.833  1.6020  2.6083 -0.0882
   17SAPC   H2Y 2172   2.852   0.562   9.838 -0.8166 -1.4683 -0.4137
   17SAPC   C23 2173   3.055   0.086   9.864 -0.2735 -0.1636  0.7718
   17SAPC   H3R 2174   3.027   0.182   9.816 -0.2205  0.0355  1.1321
   17SAPC   H3S 2175   2.965   0.021   9.874 -0.7329  0.3015 -0.1777
   17SAPC   C24 2176   3.155   0.020   9.765  0.0049 -0.2295  0.2051
   17SAPC   H4R 2177   3.185  -0.078   9.807  1.0336  0.4665  1.1692
   17SAPC   H4S 2178   3.243   0.088   9.761 -0.4367  0.5863  2.4812
   17SAPC   C25 2179   3.088  -0.013   9.628 -0.3400 -0.1963 -0.5546
   17SAPC   H5R 2180   3.048  -0.115   9.633 -1.8455  0.4199  0.9705
   17SAPC   C26 2181   3.083   0.074   9.528  0.3938 -0.4388 -0.5269
   17SAPC   H6R 2182   3.026   0.052   9.437 -0.0943  2.1768 -0.9232
   17SAPC   C27 2183   3.149   0.209   9.533  0.3147 -0.2039  0.6828
   17SAPC   H7R 2184   3.237   0.202   9.466 -0.7698 -1.5906 -0.6511
   17SAPC   H7S 2185   3.186   0.236   9.634  0.9027 -0.3140  0.5008
   17SAPC   C28 2186   3.045   0.308   9.469  0.4467 -0.8626  0.3120
   17SAPC   H8R 2187   3.004   0.383   9.538 -0.3128 -1.4517  0.5187
   17SAPC   C29 2188   2.992   0.308   9.340 -0.1078  0.8357 -0.4719
   17SAPC   H9R 2189   2.925   0.391   9.313  0.9697  1.5442 -0.9919
   17SAPC  C210 2190   3.043   0.220   9.230 -0.4061  0.0394  0.6367
   17SAPC  H10R 2191   2.956   0.172   9.178 -0.4138  1.3417 -0.6061
   17SAPC  H10S 2192   3.116   0.148   9.273 -0.1458 -1.7220 -2.3860
   17SAPC  C211 2193   3.125   0.289   9.132  0.5000  0.0690  0.3507
   17SAPC  H11R 2194   3.178   0.374   9.179  0.1085  0.9962 -0.8254
   17SAPC  C212 2195   3.136   0.265   9.003  0.3373  0.6393  0.7241
   17SAPC  H12R 2196   3.194   0.321   8.929 -1.0068 -0.8361 -1.5862
   17SAPC  C213 2197   3.058   0.147   8.935  0.3482 -0.3715  0.0714
   17SAPC  H13R 2198   3.025   0.167   8.831 -0.1574 -0.7094  0.1609
   17SAPC  H13S 2199   2.957   0.136   8.980 -0.8544  2.7152 -1.6392
   17SAPC  C214 2200   3.131   0.013   8.944 -0.3590 -0.8267  0.2969
   17SAPC  H14R 2201   3.121  -0.039   9.040  0.3258  0.3905  1.0487
   17SAPC  C215 2202   3.196  -0.049   8.848 -0.6361 -0.3398  0.1027
   17SAPC  H15R 2203   3.239  -0.149   8.864  0.2214 -0.1102 -0.6784
   17SAPC  C216 2204   3.231   0.009   8.715  0.0560  0.8350 -0.0194
   17SAPC  H16R 2205   3.184   0.110   8.708  0.1646  1.0037  1.3743
   17SAPC  H16S 2206   3.165  -0.038   8.638 -0.3251  2.0895 -0.4826
   17SAPC  C217 2207   3.379   0.006   8.668  0.5383 -0.5091  0.3048
   17SAPC  H17R 2208   3.382   0.050   8.566  1.5030 -1.1752  0.0355
   17SAPC  H17S 2209   3.429  -0.093   8.677  0.7601 -0.4174  0.1069
   17SAPC  C218 2210   3.455   0.095   8.769 -0.7835  0.4455  0.4449
   17SAPC  H18R 2211   3.453   0.047   8.869 -0.7107  1.0880  0.7611
   17SAPC  H18S 2212   3.413   0.198   8.774  0.2238  0.9410 -0.7224
   17SAPC  C219 2213   3.607   0.078   8.739 -0.0562  0.1228 -0.0551
   17SAPC  H19R 2214   3.636  -0.027   8.757  0.6579  0.5699  1.6972
   17SAPC  H19S 2215   3.653   0.143   8.817  1.6718 -1.7889  0.5991
   17SAPC  C220 2216   3.655   0.117   8.594 -0.2649  0.1308 -0.5663
   17SAPC  H20R 2217   3.642   0.228   8.589  2.1667  0.5470  0.8674
   17SAPC  H20S 2218   3.597   0.066   8.514 -0.9280  0.3844 -0.2619
   17SAPC  H20T 2219   3.763   0.096   8.583  0.0473  0.6322  1.1647
   17SAPC   C33 2220   2.744   0.367   9.855 -0.1215 -0.4082 -0.1528
   17SAPC   H3X 2221   2.648   0.409   9.892  1.0616 -0.3437  3.2468
   17SAPC   H3Y 2222   2.763   0.262   9.886  0.1066 -0.3167  0.0165
   17SAPC   C34 2223   2.718   0.369   9.698  0.0778 -0.0680 -0.1311
   17SAPC   H4X 2224   2.800   0.319   9.641  0.5274  0.6443 -0.1122
   17SAPC   H4Y 2225   2.717   0.474   9.661  0.9544 -0.2511 -0.7291
   17SAPC   C35 2226   2.582   0.292   9.677  0.0532  0.5990  1.0898
   17SAPC   H5X 2227   2.504   0.320   9.751 -1.6807  0.9472 -0.7741
   17SAPC   H5Y 2228   2.593   0.182   9.675 -0.1227  0.5691 -1.3687
   17SAPC   C36 2229   2.521   0.322   9.539 -0.1463 -0.4717 -0.1030
   17SAPC   H6X 2230   2.479   0.423   9.521  0.8879  0.1740  0.9675
   17SAPC   H6Y 2231   2.436   0.251   9.526 -1.3071  0.5712  1.5574
   17SAPC   C37 2232   2.627   0.311   9.430 -0.1313  0.2269 -0.1788
   17SAPC   H7X 2233   2.682   0.216   9.417 -0.7919 -0.2391  0.3758
   17SAPC   H7Y 2234   2.706   0.388   9.445  0.3078  0.6935 -3.9321
   17SAPC   C38 2235   2.565   0.355   9.290  0.5162 -0.2691 -0.4677
   17SAPC   H8X 2236   2.504   0.447   9.292 -1.9123 -1.7229 -2.3305
   17SAPC   H8Y 2237   2.483   0.285   9.261 -0.0539 -0.0121  0.4923
   17SAPC   C39 2238   2.674   0.368   9.184  0.3906  0.3987  0.4248
   17SAPC   H9X 2239   2.757   0.297   9.202  0.0027 -0.0510  0.4391
   17SAPC   H9Y 2240   2.722   0.469   9.181 -1.9074  1.5345 -2.0788
   17SAPC  C310 2241   2.622   0.363   9.043  0.0532 -0.0232 -0.3444
   17SAPC  H10X 2242   2.554   0.450   9.036 -0.5105 -0.5875 -2.4141
   17SAPC  H10Y 2243   2.552   0.278   9.027 -0.4469  0.1872  0.6210
   17SAPC  C311 2244   2.732   0.377   8.934 -0.0136  0.1691 -0.3807
   17SAPC  H11X 2245   2.676   0.387   8.839 -1.9557  1.3099  0.8080
   17SAPC  H11Y 2246   2.794   0.285   8.925  0.9570  0.7270  0.4646
   17SAPC  C312 2247   2.821   0.499   8.936  0.2461 -0.3880 -0.3828
   17SAPC  H12X 2248   2.894   0.492   9.020  0.5572  4.4284  0.0335
   17SAPC  H12Y 2249   2.764   0.589   8.966  0.3938  0.3047 -2.0933
   17SAPC  C313 2250   2.899   0.542   8.814  0.1874  0.4412  0.2598
   17SAPC  H13X 2251   2.827   0.555   8.731  1.1823 -1.6265 -1.0147
   17SAPC  H13Y 2252   2.966   0.457   8.791  0.3170  0.3591  0.9206
   17SAPC  C314 2253   2.979   0.669   8.848 -0.4948  0.2807  0.3140
   17SAPC  H14X 2254   3.035   0.657   8.943 -0.7024  0.1949  0.4282
   17SAPC  H14Y 2255   2.909   0.753   8.868 -0.9690 -0.5623  2.4425
   17SAPC  C315 2256   3.061   0.722   8.727 -0.1729  0.1594  0.6418
   17SAPC  H15X 2257   3.075   0.831   8.742  2.3267  0.0721 -0.5148
   17SAPC  H15Y 2258   3.024   0.709   8.623 -1.4780 -1.2499  1.2540
   17SAPC  C316 2259   3.197   0.649   8.733 -0.0131 -0.0490  0.1581
   17SAPC  H16X 2260   3.175   0.541   8.748 -1.4925  0.3394  0.9617
   17SAPC  H16Y 2261   3.259   0.683   8.818  2.7474 -0.5928 -1.5063
   17SAPC  C317 2262   3.298   0.664   8.616 -1.0255  0.5645 -0.2549
   17SAPC  H17X 2263   3.238   0.685   8.524 -0.2787 -3.2097 -1.7706
   17SAPC  H17Y 2264   3.350   0.566   8.612 -3.3163 -0.7639  0.5651
   17SAPC  C318 2265   3.395   0.783   8.642 -0.3135  0.2350  0.1603
   17SAPC  H18X 2266   3.471   0.801   8.563 -0.7942  0.0316 -0.3628
   17SAPC  H18Y 2267   3.344   0.882   8.648  0.8674  0.8372  0.3727
   17SAPC  H18Z 2268   3.443   0.778   8.742 -0.4478  0.8964  0.2656
   18SAPC     N 2269   4.765   1.424  10.495  0.0988 -0.4991  0.6755
   18SAPC   C12 2270   4.618   1.378  10.516  0.0338 -0.3474  0.8628
   18SAPC  H12A 2271   4.612   1.321  10.607 -0.9975  1.1327  1.7646
   18SAPC  H12B 2272   4.594   1.312  10.433 -0.0897 -0.7610  1.2274
   18SAPC   C13 2273   4.774   1.536  10.390  0.2015 -0.4747 -0.3783
   18SAPC  H13A 2274   4.869   1.589  10.391 -0.1392  0.1512 -0.4158
   18SAPC  H13B 2275   4.762   1.492  10.292  2.0006 -2.6117  0.2571
   18SAPC  H13C 2276   4.707   1.620  10.400  1.6096  0.6556  0.0463
   18SAPC   C14 2277   4.816   1.478  10.622  0.6534  0.0372  0.3712
   18SAPC  H14A 2278   4.793   1.420  10.709  0.3382 -1.9021 -0.9400
   18SAPC  H14B 2279   4.924   1.474  10.624  0.6233 -0.4262  0.9685
   18SAPC  H14C 2280   4.788   1.581  10.637 -0.0935  0.1098 -1.2803
   18SAPC   C15 2281   4.853   1.314  10.452 -0.2880  0.3999  0.3362
   18SAPC  H15A 2282   4.875   1.248  10.535 -1.0912 -0.4283 -0.0821
   18SAPC  H15B 2283   4.812   1.256  10.371 -1.3054  0.1232  1.0241
   18SAPC  H15C 2284   4.947   1.355  10.420  0.3285  0.4546  2.0797
   18SAPC   C11 2285   4.511   1.492  10.525 -0.9370  0.0877  0.4711
   18SAPC  H11A 2286   4.414   1.438  10.520  0.1170 -1.8575 -3.4789
   18SAPC  H11B 2287   4.516   1.552  10.431  1.6656  0.9693  1.0809
   18SAPC     P 2288   4.509   1.730  10.621  0.1825 -0.8455 -0.1486
   18SAPC   O13 2289   4.470   1.792  10.752 -0.5725  0.3971 -0.4142
   18SAPC   O14 2290   4.628   1.796  10.554 -0.3862 -0.2295  0.0480
   18SAPC   O12 2291   4.533   1.577  10.640 -0.1000  0.2106  0.2518
   18SAPC   O11 2292   4.388   1.743  10.524 -0.3383 -0.3328  0.3208
   18SAPC    C1 2293   4.264   1.671  10.529  0.2572  0.4517  0.0799
   18SAPC    HA 2294   4.270   1.579  10.592 -0.5199 -0.4935 -1.1904
   18SAPC    HB 2295   4.179   1.733  10.563  0.7901  1.2878 -0.0877
   18SAPC    C2 2296   4.227   1.607  10.388 -0.4670 -0.3932  0.4313
   18SAPC    HS 2297   4.274   1.510  10.361 -1.8420 -1.3638  1.3778
   18SAPC   O21 2298   4.238   1.707  10.285  0.0707 -0.0826 -0.3224
   18SAPC   C21 2299   4.340   1.699  10.193 -0.1431  0.0941  0.5992
   18SAPC   O22 2300   4.431   1.617  10.202 -0.1585 -0.2112  0.3745
   18SAPC   C22 2301   4.331   1.800  10.074  0.0044  0.6098  0.3310
   18SAPC   H2R 2302   4.243   1.778  10.010  0.9099 -0.2561 -0.6635
   18SAPC   H2S 2303   4.318   1.900  10.120 -0.8903  0.5882  0.1309
   18SAPC    C3 2304   4.077   1.574  10.390 -0.0199  0.5070  0.0855
   18SAPC    HX 2305   4.010   1.647  10.440  0.4569 -1.4900  4.0680
   18SAPC    HY 2306   4.071   1.481  10.451  3.2067  0.3311  0.2989
   18SAPC   O31 2307   4.038   1.529  10.256 -0.6429  0.8780  0.0462
   18SAPC   C31 2308   3.958   1.602  10.192  0.7699 -0.7750  0.0183
   18SAPC   O32 2309   3.893   1.697  10.237 -0.3174 -0.0262  0.6042
   18SAPC   C32 2310   3.960   1.551  10.050  0.2953 -0.1823  0.6942
   18SAPC   H2X 2311   3.936   1.443  10.055 -1.3543  0.1689  0.9951
   18SAPC   H2Y 2312   4.059   1.570  10.005  0.3093  0.1592  0.8638
   18SAPC   C23 2313   4.447   1.786   9.973  0.0532 -1.2756  0.4633
   18SAPC   H3R 2314   4.452   1.688   9.922 -0.0954  0.0005 -2.1750
   18SAPC   H3S 2315   4.540   1.800  10.033 -0.3335 -3.1161  1.5554
   18SAPC   C24 2316   4.447   1.899   9.875  0.2165 -0.2369  0.4508
   18SAPC   H4R 2317   4.456   1.991   9.936  0.2625 -1.0994  1.7878
   18SAPC   H4S 2318   4.342   1.898   9.838  0.0346  0.9042  0.9085
   18SAPC   C25 2319   4.533   1.898   9.752 -0.3680 -0.0980  0.4665
   18SAPC   H5R 2320   4.640   1.896   9.779 -0.5173  0.7151  1.1487
   18SAPC   C26 2321   4.499   1.882   9.615 -1.2059 -0.2434 -0.3190
   18SAPC   H6R 2322   4.579   1.867   9.541 -0.9994 -2.2404  0.2461
   18SAPC   C27 2323   4.358   1.870   9.568 -0.1408  0.7854 -0.1020
   18SAPC   H7R 2324   4.343   1.961   9.507 -0.3762  0.4232 -0.5964
   18SAPC   H7S 2325   4.282   1.873   9.648  0.0332  1.2719  0.0456
   18SAPC   C28 2326   4.334   1.744   9.479  0.5748 -0.2165  0.1003
   18SAPC   H8R 2327   4.311   1.657   9.541  0.5233  0.1208  0.5639
   18SAPC   C29 2328   4.338   1.746   9.341 -0.0392  0.5551 -0.7302
   18SAPC   H9R 2329   4.313   1.651   9.292  2.6197 -1.3113  1.2790
   18SAPC  C210 2330   4.377   1.863   9.258  0.7294  0.3116  0.6194
   18SAPC  H10R 2331   4.446   1.821   9.181  0.0856 -0.0286  0.2169
   18SAPC  H10S 2332   4.436   1.944   9.304  1.4101  1.1433 -1.5706
   18SAPC  C211 2333   4.251   1.918   9.185 -0.0286  0.5208  0.1015
   18SAPC  H11R 2334   4.185   1.974   9.252 -2.2799 -2.4206  0.5554
   18SAPC  C212 2335   4.222   1.908   9.052  0.1607  0.0810 -0.3800
   18SAPC  H12R 2336   4.126   1.950   9.018 -0.0927  0.2147  0.4744
   18SAPC  C213 2337   4.292   1.815   8.957 -0.2561 -0.3022  0.3060
   18SAPC  H13R 2338   4.350   1.736   9.010  1.0711  0.2339 -0.2999
   18SAPC  H13S 2339   4.357   1.877   8.891  1.0564  0.0750  1.8826
   18SAPC  C214 2340   4.194   1.744   8.857  0.1817  0.2637  0.6635
   18SAPC  H14R 2341   4.095   1.718   8.897 -1.0177  0.8382 -1.7151
   18SAPC  C215 2342   4.205   1.707   8.733 -0.7143  0.6341 -0.3888
   18SAPC  H15R 2343   4.125   1.651   8.682 -1.1809  0.6799  0.2818
   18SAPC  C216 2344   4.325   1.725   8.643 -0.5018 -0.5943 -0.2921
   18SAPC  H16R 2345   4.421   1.683   8.681  0.8041  1.8777 -0.6791
   18SAPC  H16S 2346   4.340   1.834   8.635 -1.7335 -0.3759  0.1117
   18SAPC  C217 2347   4.298   1.682   8.494  0.4252 -0.3941  0.3257
   18SAPC  H17R 2348   4.378   1.730   8.433  0.1306  1.6145  1.4194
   18SAPC  H17S 2349   4.208   1.735   8.455  0.2046 -1.0967 -0.1239
   18SAPC  C218 2350   4.285   1.532   8.475  0.1235 -0.2283 -0.7962
   18SAPC  H18R 2351   4.196   1.502   8.535 -0.1545 -0.5792 -1.3725
   18SAPC  H18S 2352   4.377   1.486   8.515  0.5429  1.3185  0.0945
   18SAPC  C219 2353   4.265   1.510   8.327  0.6187  0.2702 -0.1983
   18SAPC  H19R 2354   4.172   1.560   8.292 -0.9582 -0.5862  2.4662
   18SAPC  H19S 2355   4.245   1.400   8.323 -1.5966  0.6391 -1.9621
   18SAPC  C220 2356   4.380   1.540   8.237  0.3329  0.4203 -0.1328
   18SAPC  H20R 2357   4.351   1.504   8.136  3.5586  1.9755 -1.7774
   18SAPC  H20S 2358   4.476   1.488   8.258 -1.7444 -3.4541  0.6151
   18SAPC  H20T 2359   4.392   1.648   8.215 -1.1107  0.2810 -1.8684
   18SAPC   C33 2360   3.859   1.638   9.963 -0.5984  0.3573  0.0160
   18SAPC   H3X 2361   3.866   1.742  10.001 -0.2325  0.3667 -0.0767
   18SAPC   H3Y 2362   3.759   1.594   9.984 -1.3013  2.2119  0.7568
   18SAPC   C34 2363   3.905   1.626   9.814  0.6828 -0.5695  0.1812
   18SAPC   H4X 2364   4.013   1.639   9.796  0.4401 -1.2567 -2.0248
   18SAPC   H4Y 2365   3.863   1.721   9.774  0.0497 -0.7780  0.3319
   18SAPC   C35 2366   3.861   1.496   9.743  0.1488  0.8664 -0.0456
   18SAPC   H5X 2367   3.751   1.488   9.748  0.3144 -1.1233  2.4612
   18SAPC   H5Y 2368   3.903   1.404   9.790  1.2266 -0.7798 -3.8624
   18SAPC   C36 2369   3.894   1.488   9.588 -0.1530  0.6186 -0.5238
   18SAPC   H6X 2370   3.883   1.386   9.546 -3.1767  0.9531 -0.7677
   18SAPC   H6Y 2371   4.002   1.515   9.588  0.4605 -1.5658  0.9049
   18SAPC   C37 2372   3.830   1.598   9.500  0.5262 -0.0321  0.1512
   18SAPC   H7X 2373   3.864   1.696   9.541 -0.2522 -0.5330  2.0655
   18SAPC   H7Y 2374   3.721   1.589   9.516  0.5397  0.6555  0.6761
   18SAPC   C38 2375   3.857   1.588   9.344 -1.0487  0.0700  0.0882
   18SAPC   H8X 2376   3.820   1.678   9.290 -3.8304 -1.1419 -0.2289
   18SAPC   H8Y 2377   3.795   1.504   9.305 -1.1951 -0.7131  1.8829
   18SAPC   C39 2378   4.000   1.555   9.306 -0.1858 -0.3611  0.1625
   18SAPC   H9X 2379   4.051   1.462   9.341  1.2683  0.1609 -0.4930
   18SAPC   H9Y 2380   4.063   1.631   9.357 -1.2552 -0.0405  1.0500
   18SAPC  C310 2381   4.021   1.552   9.148  0.1717  0.2253 -0.0094
   18SAPC  H10X 2382   4.126   1.543   9.113  0.1264  0.4848 -0.2124
   18SAPC  H10Y 2383   3.986   1.651   9.112 -0.7818  0.0068  0.3003
   18SAPC  C311 2384   3.945   1.437   9.074 -0.2823 -0.6224  0.1681
   18SAPC  H11X 2385   3.838   1.461   9.092 -0.8882 -2.7625 -0.3925
   18SAPC  H11Y 2386   3.964   1.344   9.131  0.1821  0.6114  2.1017
   18SAPC  C312 2387   3.957   1.424   8.920 -0.0688 -0.0910  0.2031
   18SAPC  H12X 2388   4.058   1.387   8.893  0.2726  1.2904 -0.4787
   18SAPC  H12Y 2389   3.938   1.523   8.875 -0.2650 -1.0614 -1.9829
   18SAPC  C313 2390   3.851   1.339   8.861 -0.1042 -0.1312 -0.5353
   18SAPC  H13X 2391   3.751   1.387   8.864 -0.7687 -1.4290 -1.0567
   18SAPC  H13Y 2392   3.846   1.237   8.906  0.4781  0.0665 -0.0019
   18SAPC  C314 2393   3.869   1.329   8.708 -0.4925  0.9212  0.7691
   18SAPC  H14X 2394   3.968   1.291   8.677 -0.3522  1.3521  0.6741
   18SAPC  H14Y 2395   3.861   1.433   8.668  1.2818  0.3709 -1.2360
   18SAPC  C315 2396   3.757   1.245   8.650  0.4196 -0.3461  0.1240
   18SAPC  H15X 2397   3.658   1.289   8.674  0.1217 -0.4306 -0.9009
   18SAPC  H15Y 2398   3.768   1.145   8.696  3.7115  0.4557  1.4020
   18SAPC  C316 2399   3.758   1.230   8.491 -0.5416  0.0900  0.4420
   18SAPC  H16X 2400   3.866   1.227   8.465 -0.7264 -0.8875 -0.2544
   18SAPC  H16Y 2401   3.702   1.311   8.439 -0.8042  1.4974  2.7336
   18SAPC  C317 2402   3.704   1.092   8.450  0.5265  0.4384 -0.2542
   18SAPC  H17X 2403   3.767   1.015   8.500 -0.5472 -0.2046  0.1273
   18SAPC  H17Y 2404   3.710   1.083   8.340  0.1517 -0.7729 -0.1852
   18SAPC  C318 2405   3.561   1.075   8.506 -0.5375 -0.7324  0.2673
   18SAPC  H18X 2406   3.513   1.173   8.485  2.4636  0.7723 -0.0390
   18SAPC  H18Y 2407   3.557   1.048   8.614  1.5130  1.2796  0.9147
   18SAPC  H18Z 2408   3.513   0.987   8.458 -1.6313 -0.8619  1.5504
   19SAPC     N 2409   1.536   2.453  10.883 -0.1941  0.4338 -0.4125
   19SAPC   C12 2410   1.543   2.384  10.749 -0.6681  0.2801 -0.4040
   19SAPC  H12A 2411   1.588   2.288  10.770  1.5725  1.5437  0.9587
   19SAPC  H12B 2412   1.609   2.444  10.688 -0.1727  0.5101  0.3490
   19SAPC   C13 2413   1.464   2.364  10.978  0.1320 -0.4480  0.3183
   19SAPC  H13A 2414   1.512   2.269  10.996  0.8117 -0.6040 -1.9850
   19SAPC  H13B 2415   1.451   2.416  11.071 -0.3016  0.2051 -0.0969
   19SAPC  H13C 2416   1.369   2.342  10.931 -0.0557  2.5354 -0.9276
   19SAPC   C14 2417   1.677   2.455  10.936 -0.0321  0.2738  0.6714
   19SAPC  H14A 2418   1.745   2.534  10.907 -1.7000  1.9503  1.1698
   19SAPC  H14B 2419   1.678   2.463  11.044 -1.5099 -0.1969  0.7451
   19SAPC  H14C 2420   1.722   2.360  10.913  0.6545  0.8739 -0.5649
   19SAPC   C15 2421   1.470   2.587  10.878 -0.0067  1.0157  0.0504
   19SAPC  H15A 2422   1.502   2.639  10.967  1.8172 -2.8519  1.8985
   19SAPC  H15B 2423   1.500   2.648  10.794 -2.0723  0.9086 -0.8232
   19SAPC  H15C 2424   1.362   2.576  10.882  0.1194 -0.1985  0.6493
   19SAPC   C11 2425   1.411   2.364  10.672  0.5086  0.2463 -0.6407
   19SAPC  H11A 2426   1.445   2.327  10.573  1.5752  0.5001 -0.3820
   19SAPC  H11B 2427   1.364   2.465  10.669  1.7245  0.8506 -0.2051
   19SAPC     P 2428   1.321   2.121  10.718  0.4611 -0.0007  0.1086
   19SAPC   O13 2429   1.458   2.082  10.699  0.3234 -0.3516  0.1027
   19SAPC   O14 2430   1.238   2.043  10.812  0.0906  0.2284 -0.0668
   19SAPC   O12 2431   1.322   2.271  10.740 -0.3023 -0.5118 -0.2133
   19SAPC   O11 2432   1.234   2.112  10.589 -0.6351  0.0379 -0.1864
   19SAPC    C1 2433   1.106   2.164  10.566  0.6357  0.2791 -0.6162
   19SAPC    HA 2434   1.037   2.131  10.647  0.4904  0.6504 -0.5865
   19SAPC    HB 2435   1.103   2.275  10.556 -0.7239  0.6472  2.6406
   19SAPC    C2 2436   1.031   2.099  10.447  0.1131 -0.1027  0.3849
   19SAPC    HS 2437   1.006   1.992  10.463  1.0366 -0.4017 -0.0888
   19SAPC   O21 2438   1.103   2.115  10.326 -0.0169 -0.4498  0.3078
   19SAPC   C21 2439   1.194   2.020  10.297 -0.0115  0.0265  0.2130
   19SAPC   O22 2440   1.219   1.929  10.368 -0.5116  0.7266 -0.1530
   19SAPC   C22 2441   1.267   2.048  10.163 -0.2973 -0.2090  0.4790
   19SAPC   H2R 2442   1.182   2.069  10.094 -0.0258  1.1377  0.5284
   19SAPC   H2S 2443   1.326   2.141  10.183  0.6049 -0.5158 -0.6354
   19SAPC    C3 2444   0.892   2.171  10.428  0.8914 -0.0412  0.1433
   19SAPC    HX 2445   0.896   2.276  10.463  1.4116  0.0362 -0.1344
   19SAPC    HY 2446   0.820   2.124  10.498  0.8033  1.1121  0.8536
   19SAPC   O31 2447   0.831   2.152  10.294  0.0888  0.1465 -0.0783
   19SAPC   C31 2448   0.817   2.257  10.221 -0.6348 -0.4454 -1.1785
   19SAPC   O32 2449   0.863   2.367  10.251 -0.0452  0.1630  0.1615
   19SAPC   C32 2450   0.742   2.233  10.085  0.3238  0.4135 -0.4543
   19SAPC   H2X 2451   0.632   2.229  10.100  0.4302 -2.0323  0.1128
   19SAPC   H2Y 2452   0.773   2.132  10.050  0.3106  0.1423  0.2928
   19SAPC   C23 2453   1.347   1.937  10.105 -0.2623  0.2994  0.5334
   19SAPC   H3R 2454   1.300   1.837  10.094  3.7718 -1.7050 -0.8339
   19SAPC   H3S 2455   1.426   1.923  10.183 -0.2193  0.5611  0.5366
   19SAPC   C24 2456   1.418   1.968   9.969  0.0991  0.5393  0.1655
   19SAPC   H4R 2457   1.464   2.069   9.971  1.2619  0.0256 -0.0121
   19SAPC   H4S 2458   1.337   1.969   9.893 -1.2741 -0.7510  1.5532
   19SAPC   C25 2459   1.518   1.854   9.935  0.2699  0.0603  0.2812
   19SAPC   H5R 2460   1.570   1.809  10.021 -0.5981  0.0685  0.8213
   19SAPC   C26 2461   1.535   1.801   9.812 -0.0127  0.2078  0.1859
   19SAPC   H6R 2462   1.628   1.744   9.795  0.1942 -0.4641  2.9836
   19SAPC   C27 2463   1.465   1.839   9.679  0.0110  1.0465 -0.0108
   19SAPC   H7R 2464   1.377   1.905   9.693 -1.0470 -0.5950  1.4997
   19SAPC   H7S 2465   1.422   1.745   9.639 -0.2635 -0.0774  2.7657
   19SAPC   C28 2466   1.566   1.907   9.593  0.3470 -0.0975 -0.0583
   19SAPC   H8R 2467   1.640   1.969   9.643  1.4424 -0.4368 -1.2071
   19SAPC   C29 2468   1.558   1.911   9.461 -0.0140 -0.3619  0.8756
   19SAPC   H9R 2469   1.627   1.985   9.417  0.1596  1.1740  3.5215
   19SAPC  C210 2470   1.450   1.847   9.372  0.0576  0.3132  0.8260
   19SAPC  H10R 2471   1.367   1.811   9.437  0.5080 -0.4691  0.9820
   19SAPC  H10S 2472   1.496   1.753   9.333  0.0927  0.9198 -0.6654
   19SAPC  C211 2473   1.389   1.942   9.268 -0.0293 -0.0521  0.1590
   19SAPC  H11R 2474   1.399   2.048   9.296 -1.0213 -0.3928  2.0166
   19SAPC  C212 2475   1.335   1.904   9.152 -0.2133  0.1332 -0.0194
   19SAPC  H12R 2476   1.267   1.967   9.093 -1.1595  0.6570  1.5729
   19SAPC  C213 2477   1.330   1.762   9.104 -0.2769 -0.4339 -0.0472
   19SAPC  H13R 2478   1.357   1.685   9.179  0.1411 -2.3885 -2.1125
   19SAPC  H13S 2479   1.398   1.759   9.016 -1.0990 -1.4354 -0.6762
   19SAPC  C214 2480   1.194   1.721   9.058  0.3287 -0.1296  0.1828
   19SAPC  H14R 2481   1.113   1.773   9.111 -0.5987  0.3007 -1.5722
   19SAPC  C215 2482   1.162   1.646   8.955  0.5267 -0.3379 -0.5045
   19SAPC  H15R 2483   1.054   1.631   8.942  0.5728 -0.6021 -0.5964
   19SAPC  C216 2484   1.248   1.574   8.851  0.4143 -0.0087 -0.7471
   19SAPC  H16R 2485   1.250   1.467   8.882  2.5868 -0.1405 -1.2111
   19SAPC  H16S 2486   1.353   1.607   8.852  1.1157 -2.0119  1.4370
   19SAPC  C217 2487   1.196   1.586   8.704  0.4462 -0.2158 -0.4386
   19SAPC  H17R 2488   1.173   1.692   8.678  1.2770  0.9802  3.0936
   19SAPC  H17S 2489   1.100   1.531   8.693  0.2387 -0.0865  0.5660
   19SAPC  C218 2490   1.295   1.529   8.605  0.2045 -0.1309  0.1120
   19SAPC  H18R 2491   1.301   1.419   8.624 -0.1093 -0.6083 -2.2373
   19SAPC  H18S 2492   1.389   1.582   8.630  1.2896 -1.7378 -0.4027
   19SAPC  C219 2493   1.244   1.551   8.463  0.7576 -0.2319  0.7388
   19SAPC  H19R 2494   1.310   1.498   8.391  1.3976 -1.9306  2.4533
   19SAPC  H19S 2495   1.233   1.654   8.424  1.4661 -0.5352 -0.3151
   19SAPC  C220 2496   1.114   1.480   8.434  0.2175  0.3199  0.0703
   19SAPC  H20R 2497   1.112   1.373   8.463  0.0945 -0.3397 -2.1301
   19SAPC  H20S 2498   1.081   1.487   8.328 -1.7944  2.1717  0.7697
   19SAPC  H20T 2499   1.033   1.528   8.492  0.3129 -0.7414  1.1093
   19SAPC   C33 2500   0.783   2.323   9.969 -0.0444  0.0161  0.4611
   19SAPC   H3X 2501   0.889   2.356   9.981 -0.8321  2.0259  2.6637
   19SAPC   H3Y 2502   0.718   2.411   9.983 -1.8161 -1.1579 -0.0009
   19SAPC   C34 2503   0.754   2.265   9.831  0.0075  0.1824  0.8577
   19SAPC   H4X 2504   0.650   2.227   9.834  0.0120  0.2082  2.2583
   19SAPC   H4Y 2505   0.819   2.178   9.808 -0.8313 -0.7988  2.0484
   19SAPC   C35 2506   0.766   2.377   9.727 -0.0769  0.1392  1.2139
   19SAPC   H5X 2507   0.858   2.432   9.754  1.3199 -1.4809 -0.0558
   19SAPC   H5Y 2508   0.680   2.446   9.738  0.7151  1.8157 -1.8978
   19SAPC   C36 2509   0.797   2.332   9.581  0.2009  0.2504  0.4311
   19SAPC   H6X 2510   0.731   2.248   9.549 -0.5431  1.4749 -1.4094
   19SAPC   H6Y 2511   0.896   2.283   9.574 -0.6895 -1.4365 -1.6436
   19SAPC   C37 2512   0.804   2.442   9.469  0.3103  0.1136 -0.2537
   19SAPC   H7X 2513   0.886   2.517   9.478  1.8671 -1.4707 -0.7385
   19SAPC   H7Y 2514   0.704   2.490   9.466 -0.0859 -0.6861 -0.0587
   19SAPC   C38 2515   0.817   2.381   9.330  0.0765  0.3217  0.7783
   19SAPC   H8X 2516   0.734   2.311   9.302  0.5722  0.8714 -2.5548
   19SAPC   H8Y 2517   0.907   2.316   9.324  0.5680  1.0641 -0.1524
   19SAPC   C39 2518   0.814   2.496   9.228 -0.3851  0.8008 -0.4688
   19SAPC   H9X 2519   0.910   2.550   9.238  1.8052 -2.8099 -0.1913
   19SAPC   H9Y 2520   0.723   2.558   9.246 -0.6606  0.4082 -0.4792
   19SAPC  C310 2521   0.789   2.449   9.081 -0.5116  0.1452  0.4436
   19SAPC  H10X 2522   0.690   2.398   9.074 -0.8559  0.9770 -1.2507
   19SAPC  H10Y 2523   0.860   2.368   9.052  1.7699  1.6822  1.4753
   19SAPC  C311 2524   0.812   2.565   8.983  0.0221 -0.6923  0.0462
   19SAPC  H11X 2525   0.911   2.615   8.986 -2.6266  5.3606  1.9279
   19SAPC  H11Y 2526   0.737   2.635   9.026  0.0552  0.8642 -2.2421
   19SAPC  C312 2527   0.777   2.525   8.838 -0.4264  0.2299 -0.0910
   19SAPC  H12X 2528   0.669   2.515   8.814 -0.3614 -3.0321  0.4455
   19SAPC  H12Y 2529   0.814   2.422   8.814 -2.9013 -0.5866 -0.6724
   19SAPC  C313 2530   0.845   2.625   8.744  0.5639 -0.2052 -0.2633
   19SAPC  H13X 2531   0.950   2.635   8.778  0.2703 -0.2896  0.7164
   19SAPC  H13Y 2532   0.808   2.729   8.755  0.3160 -0.3935  0.8751
   19SAPC  C314 2533   0.832   2.592   8.596 -0.2240 -0.0878 -0.3585
   19SAPC  H14X 2534   0.863   2.679   8.535 -1.2387 -0.0958 -0.9131
   19SAPC  H14Y 2535   0.729   2.558   8.572 -0.2876 -0.7955  0.8198
   19SAPC  C315 2536   0.912   2.470   8.548 -0.0071  0.0554  0.2329
   19SAPC  H15X 2537   0.890   2.390   8.622  1.8585 -1.6314 -0.9415
   19SAPC  H15Y 2538   1.021   2.491   8.554  0.3512 -1.5990  0.1082
   19SAPC  C316 2539   0.869   2.418   8.411  0.1955 -0.0969 -0.2765
   19SAPC  H16X 2540   0.856   2.502   8.339  1.7854 -1.6992 -2.5590
   19SAPC  H16Y 2541   0.769   2.370   8.416 -0.0567  0.5367  1.4669
   19SAPC  C317 2542   0.971   2.324   8.359  0.2602  0.1347 -0.5739
   19SAPC  H17X 2543   0.991   2.236   8.424 -0.8519 -1.6481 -2.5134
   19SAPC  H17Y 2544   1.051   2.392   8.323 -0.0976 -0.1005 -1.8874
   19SAPC  C318 2545   0.903   2.263   8.229  0.8674 -0.3699  0.1965
   19SAPC  H18X 2546   0.953   2.182   8.172  0.9980  0.3565 -0.7533
   19SAPC  H18Y 2547   0.889   2.351   8.164 -1.5120 -0.5889  0.3356
   19SAPC  H18Z 2548   0.808   2.224   8.270  0.5027  1.5609  1.3093
   20SAPC     N 2549   1.173   5.222  11.087  0.2457  0.0576  0.0519
   20SAPC   C12 2550   1.127   5.204  10.940 -0.1176  0.2053  0.5573
   20SAPC  H12A 2551   1.021   5.182  10.942  0.0957 -0.8520  2.0677
   20SAPC  H12B 2552   1.188   5.120  10.912  0.2489  0.8266 -0.5850
   20SAPC   C13 2553   1.102   5.344  11.150 -0.4398  0.0740  0.0622
   20SAPC  H13A 2554   0.996   5.344  11.132 -0.0352 -0.0575 -2.7013
   20SAPC  H13B 2555   1.118   5.349  11.257 -1.0115  1.2074  0.1188
   20SAPC  H13C 2556   1.144   5.441  11.124 -0.5329 -0.8490 -4.1755
   20SAPC   C14 2557   1.131   5.098  11.167  0.0347 -0.8683  0.0061
   20SAPC  H14A 2558   1.024   5.097  11.186  0.4708  0.8202  3.0327
   20SAPC  H14B 2559   1.155   4.997  11.135 -0.2057 -1.4613  1.6127
   20SAPC  H14C 2560   1.167   5.100  11.268 -0.0186  2.4225  0.0452
   20SAPC   C15 2561   1.324   5.239  11.101 -0.0831 -0.7133 -0.0918
   20SAPC  H15A 2562   1.382   5.148  11.096 -0.3285 -0.9060  0.4643
   20SAPC  H15B 2563   1.371   5.313  11.038  1.2952 -0.2081  1.4911
   20SAPC  H15C 2564   1.339   5.271  11.202  0.4259 -2.8592  0.5742
   20SAPC   C11 2565   1.167   5.320  10.839  0.6133 -0.4437 -0.0351
   20SAPC  H11A 2566   1.128   5.416  10.877  1.4269 -0.3271  0.5314
   20SAPC  H11B 2567   1.118   5.306  10.740  0.4695  0.2396 -0.0604
   20SAPC     P 2568   1.366   5.454  10.751  0.1233 -0.0503 -0.2578
   20SAPC   O13 2569   1.318   5.584  10.809 -0.4314 -0.0998  0.1378
   20SAPC   O14 2570   1.514   5.440  10.760  0.0671  0.1161 -0.5084
   20SAPC   O12 2571   1.307   5.324  10.826  0.1003 -0.3374 -0.3809
   20SAPC   O11 2572   1.308   5.443  10.606  0.0507  0.2598 -0.1865
   20SAPC    C1 2573   1.404   5.423  10.503 -0.0490  0.3323  0.5678
   20SAPC    HA 2574   1.488   5.356  10.531  1.0495  1.3794 -0.1749
   20SAPC    HB 2575   1.365   5.370  10.413 -0.7106  1.7330  0.0052
   20SAPC    C2 2576   1.453   5.564  10.446  0.0030 -0.1265 -0.3055
   20SAPC    HS 2577   1.501   5.609  10.536 -0.0290 -1.0709  0.2042
   20SAPC   O21 2578   1.335   5.642  10.400 -0.1401  0.5699 -0.1041
   20SAPC   C21 2579   1.330   5.766  10.448  0.0675 -0.3124  0.7528
   20SAPC   O22 2580   1.425   5.831  10.492 -0.2724  0.1475  0.4041
   20SAPC   C22 2581   1.183   5.814  10.427 -0.6431  0.0482 -0.3458
   20SAPC   H2R 2582   1.120   5.724  10.414  3.2628 -2.8007 -1.5482
   20SAPC   H2S 2583   1.156   5.876  10.515 -2.3022 -0.4381 -0.4816
   20SAPC    C3 2584   1.559   5.548  10.340  0.7623  0.7978  0.1008
   20SAPC    HX 2585   1.649   5.493  10.376  0.1389 -0.1898  0.1685
   20SAPC    HY 2586   1.594   5.644  10.297  0.4962  0.8258 -0.0563
   20SAPC   O31 2587   1.508   5.460  10.236  0.8065 -0.0951  0.5930
   20SAPC   C31 2588   1.472   5.517  10.122  0.1224 -0.6332 -0.3029
   20SAPC   O32 2589   1.487   5.636  10.087 -0.3855  1.2366  0.4322
   20SAPC   C32 2590   1.421   5.408  10.035  0.1226 -0.1688  0.3274
   20SAPC   H2X 2591   1.315   5.392  10.064  0.2557  0.8904  1.5011
   20SAPC   H2Y 2592   1.483   5.319  10.061  0.0145 -1.0331 -2.1393
   20SAPC   C23 2593   1.177   5.903  10.302 -0.4550 -0.0068 -1.1471
   20SAPC   H3R 2594   1.255   5.980  10.319 -0.0600  0.0180 -2.8469
   20SAPC   H3S 2595   1.077   5.951  10.291 -1.4162 -1.8014 -0.5399
   20SAPC   C24 2596   1.209   5.822  10.169 -0.6764  0.1143  0.0146
   20SAPC   H4R 2597   1.317   5.797  10.175 -0.1841  2.2328  0.4824
   20SAPC   H4S 2598   1.196   5.893  10.085 -2.4053 -1.5655 -1.2135
   20SAPC   C25 2599   1.139   5.689  10.143  0.1556 -0.0792 -0.2378
   20SAPC   H5R 2600   1.170   5.607  10.210  2.4163 -1.5055 -2.8636
   20SAPC   C26 2601   1.068   5.661  10.036  0.0511 -0.3321  0.1253
   20SAPC   H6R 2602   1.029   5.558  10.027  0.6787 -0.4529 -1.4333
   20SAPC   C27 2603   1.031   5.759   9.931 -0.5694 -0.1121 -0.5610
   20SAPC   H7R 2604   1.118   5.811   9.885  0.0304 -0.4111  0.2088
   20SAPC   H7S 2605   0.967   5.840   9.972 -0.2861  0.4806 -1.2624
   20SAPC   C28 2606   0.953   5.700   9.817  0.1681 -0.1652 -0.1660
   20SAPC   H8R 2607   1.014   5.687   9.726 -2.2334 -0.9871 -1.7481
   20SAPC   C29 2608   0.822   5.664   9.808  0.5131  0.1388  0.6723
   20SAPC   H9R 2609   0.795   5.591   9.730 -2.1864 -0.3318  1.9343
   20SAPC  C210 2610   0.713   5.683   9.905  0.1583 -0.2974 -0.6636
   20SAPC  H10R 2611   0.742   5.751   9.987 -0.1988  1.1382 -1.6909
   20SAPC  H10S 2612   0.696   5.581   9.946  0.9313 -0.9082 -1.8103
   20SAPC  C211 2613   0.582   5.743   9.852  0.2976  0.1769  0.4276
   20SAPC  H11R 2614   0.584   5.848   9.819 -0.7771  0.5320  1.4000
   20SAPC  C212 2615   0.462   5.684   9.853 -0.1245  0.6755  0.4363
   20SAPC  H12R 2616   0.377   5.748   9.826  0.8329  1.5876 -0.5188
   20SAPC  C213 2617   0.432   5.548   9.900 -0.9024 -0.0077 -0.1560
   20SAPC  H13R 2618   0.473   5.535  10.002  1.8492 -0.7796 -1.2606
   20SAPC  H13S 2619   0.480   5.476   9.829 -1.3990 -0.1179 -0.3835
   20SAPC  C214 2620   0.280   5.519   9.891  0.1226  0.0555 -0.0505
   20SAPC  H14R 2621   0.252   5.534   9.786  0.1959  2.3418  0.2076
   20SAPC  C215 2622   0.201   5.488   9.993 -0.3396 -0.2622  0.7737
   20SAPC  H15R 2623   0.094   5.466   9.975 -0.4574  0.2089  0.8863
   20SAPC  C216 2624   0.228   5.458  10.138  0.5280 -0.0120  0.3361
   20SAPC  H16R 2625   0.338   5.442  10.139  1.2249  3.6146 -1.3784
   20SAPC  H16S 2626   0.174   5.373  10.185 -0.1244 -0.1426 -0.6310
   20SAPC  C217 2627   0.180   5.576  10.227 -0.8618 -0.0461  0.2422
   20SAPC  H17R 2628   0.200   5.678  10.191 -0.4049  0.3251  1.4743
   20SAPC  H17S 2629   0.238   5.572  10.322 -0.5491  2.2079  0.1992
   20SAPC  C218 2630   0.030   5.565  10.254 -0.1474 -0.6797  0.3603
   20SAPC  H18R 2631  -0.005   5.465  10.288 -2.2973 -0.8388 -2.0126
   20SAPC  H18S 2632  -0.028   5.578  10.160  0.9611 -0.7363 -0.3466
   20SAPC  C219 2633  -0.025   5.666  10.360  0.1369 -0.0521  0.5228
   20SAPC  H19R 2634  -0.133   5.647  10.376 -0.0348  0.0652 -0.4058
   20SAPC  H19S 2635  -0.006   5.773  10.339  2.2123 -0.3034  0.9104
   20SAPC  C220 2636   0.043   5.639  10.494  0.4217  0.0508 -0.2365
   20SAPC  H20R 2637   0.152   5.663  10.495  0.5223 -0.3211  1.9924
   20SAPC  H20S 2638   0.036   5.530  10.512 -0.5000 -0.1858 -1.8163
   20SAPC  H20T 2639   0.003   5.691  10.583  1.4529  0.6693 -0.1130
   20SAPC   C33 2640   1.429   5.448   9.884 -0.0216 -0.5637 -0.6276
   20SAPC   H3X 2641   1.533   5.452   9.845  0.1798 -0.7872 -0.1230
   20SAPC   H3Y 2642   1.387   5.550   9.873 -0.8000 -0.9474 -1.3268
   20SAPC   C34 2643   1.353   5.343   9.800 -0.1620 -0.6137  0.7682
   20SAPC   H4X 2644   1.245   5.348   9.827 -0.3553 -0.5102  0.0099
   20SAPC   H4Y 2645   1.399   5.247   9.831 -1.3094 -0.7630  2.0817
   20SAPC   C35 2646   1.352   5.366   9.646 -0.0321  0.0358  0.3849
   20SAPC   H5X 2647   1.293   5.285   9.597  0.9867  0.3188 -1.3948
   20SAPC   H5Y 2648   1.451   5.365   9.596 -0.8585 -0.6227 -1.3650
   20SAPC   C36 2649   1.282   5.501   9.609 -0.6807  0.4342 -0.1900
   20SAPC   H6X 2650   1.345   5.587   9.641 -1.4692  0.2877  1.8897
   20SAPC   H6Y 2651   1.185   5.503   9.662 -1.3629 -0.7907 -1.3146
   20SAPC   C37 2652   1.260   5.505   9.460  0.3730 -0.9617 -0.3696
   20SAPC   H7X 2653   1.215   5.407   9.433 -0.1577 -1.3203  1.6337
   20SAPC   H7Y 2654   1.337   5.529   9.383 -0.3475  0.1035 -0.7753
   20SAPC   C38 2655   1.137   5.597   9.430 -0.1747 -0.3931  0.4061
   20SAPC   H8X 2656   1.154   5.702   9.464  0.2809 -0.7591  1.3663
   20SAPC   H8Y 2657   1.049   5.562   9.488 -1.6686  3.6930  0.9460
   20SAPC   C39 2658   1.099   5.602   9.281 -0.8801 -0.1743 -0.7763
   20SAPC   H9X 2659   1.126   5.508   9.229 -1.0501 -1.1826  0.8898
   20SAPC   H9Y 2660   1.155   5.680   9.226 -1.1205  1.1169  0.7362
   20SAPC  C310 2661   0.947   5.638   9.272 -0.1784  0.5174  0.3007
   20SAPC  H10X 2662   0.927   5.733   9.326 -0.4275  0.3254  0.5473
   20SAPC  H10Y 2663   0.899   5.551   9.321  0.7984 -0.6452 -0.7484
   20SAPC  C311 2664   0.915   5.645   9.123 -0.2975 -0.2732 -0.1420
   20SAPC  H11X 2665   0.968   5.728   9.070 -0.4804 -1.6168 -2.5754
   20SAPC  H11Y 2666   0.809   5.677   9.115 -0.0204  0.6312 -0.3896
   20SAPC  C312 2667   0.917   5.514   9.037  0.1464  0.3238  0.3737
   20SAPC  H12X 2668   0.816   5.507   8.990  0.9540  0.2612 -1.4404
   20SAPC  H12Y 2669   0.925   5.432   9.112 -2.4360  0.3523  0.7605
   20SAPC  C313 2670   1.037   5.502   8.935 -0.6823  0.4153  0.3543
   20SAPC  H13X 2671   1.138   5.497   8.983 -0.2265  1.0067 -0.5198
   20SAPC  H13Y 2672   1.041   5.602   8.888  0.2560 -0.2111 -0.9708
   20SAPC  C314 2673   1.023   5.399   8.821  0.4135 -0.0925 -0.5528
   20SAPC  H14X 2674   1.022   5.302   8.875 -0.3777  0.1848 -0.0439
   20SAPC  H14Y 2675   1.117   5.402   8.763 -0.2186 -0.8353 -1.6403
   20SAPC  C315 2676   0.903   5.413   8.726  0.0618  0.2490 -0.1117
   20SAPC  H15X 2677   0.872   5.520   8.727 -0.4360  0.1054 -0.1734
   20SAPC  H15Y 2678   0.829   5.336   8.754 -0.9372  0.5735 -1.6963
   20SAPC  C316 2679   0.937   5.379   8.578 -0.1737 -0.2081  0.3958
   20SAPC  H16X 2680   0.998   5.286   8.577  1.8820  1.0527 -1.7102
   20SAPC  H16Y 2681   1.013   5.451   8.540  2.5290 -1.9240  2.1969
   20SAPC  C317 2682   0.824   5.365   8.478  1.4259  0.4091  0.3971
   20SAPC  H17X 2683   0.754   5.290   8.522  0.8027  0.5338 -0.3562
   20SAPC  H17Y 2684   0.875   5.325   8.388 -1.1417  0.3749 -1.1538
   20SAPC  C318 2685   0.750   5.498   8.433 -0.4563  0.4794 -0.4608
   20SAPC  H18X 2686   0.681   5.527   8.515  1.3300  1.9783  0.6074
   20SAPC  H18Y 2687   0.697   5.479   8.338 -2.8847  0.6175  0.7885
   20SAPC  H18Z 2688   0.830   5.574   8.418  0.9233 -0.1583  2.7622
   21SAPC     N 2689   3.471   5.088  11.086 -0.2676 -0.1203 -0.2320
   21SAPC   C12 2690   3.446   5.085  10.936  0.1143  0.6314  0.2469
   21SAPC  H12A 2691   3.354   5.132  10.905 -0.1603 -0.7932 -1.2160
   21SAPC  H12B 2692   3.442   4.980  10.910 -1.1068  0.9234 -0.8860
   21SAPC   C13 2693   3.363   5.021  11.163  0.4863 -0.0202  0.5400
   21SAPC  H13A 2694   3.343   4.921  11.129  0.8687 -0.0018  0.2494
   21SAPC  H13B 2695   3.386   5.022  11.269  2.0120 -1.1785  0.2568
   21SAPC  H13C 2696   3.271   5.076  11.148  1.1452  1.4539  1.6424
   21SAPC   C14 2697   3.596   5.031  11.123 -0.0952  0.4991  0.8074
   21SAPC  H14A 2698   3.587   4.926  11.097 -0.4845  0.6170  0.4700
   21SAPC  H14B 2699   3.683   5.066  11.070  0.3327 -0.7972  0.5990
   21SAPC  H14C 2700   3.610   5.029  11.231 -0.5200  3.0948  0.9670
   21SAPC   C15 2701   3.463   5.229  11.137 -0.1248 -0.3015  0.3336
   21SAPC  H15A 2702   3.485   5.244  11.241  0.6258  0.1135  0.1189
   21SAPC  H15B 2703   3.538   5.281  11.080  1.1305 -1.9738  0.3859
   21SAPC  H15C 2704   3.365   5.273  11.119  0.7623  0.9159 -1.9078
   21SAPC   C11 2705   3.563   5.137  10.851 -0.0504 -0.3472  0.0327
   21SAPC  H11A 2706   3.562   5.247  10.871 -2.6684 -0.3925  0.5182
   21SAPC  H11B 2707   3.535   5.127  10.744 -1.0105  1.2278  0.0951
   21SAPC     P 2708   3.734   4.966  10.780 -0.4414 -0.1071 -0.0177
   21SAPC   O13 2709   3.864   4.912  10.813  0.0084  0.3650  0.1171
   21SAPC   O14 2710   3.624   4.869  10.788 -0.1260 -0.1070  0.1316
   21SAPC   O12 2711   3.691   5.084  10.876 -0.0058 -0.5197 -0.2105
   21SAPC   O11 2712   3.736   5.027  10.635 -0.1939 -0.0880  0.1173
   21SAPC    C1 2713   3.796   5.149  10.607 -0.0770  0.7290  0.2959
   21SAPC    HA 2714   3.709   5.216  10.587 -0.5082 -0.0773 -0.6108
   21SAPC    HB 2715   3.849   5.197  10.692  1.0584 -0.0524  0.0442
   21SAPC    C2 2716   3.895   5.142  10.480  0.6316 -0.1754  0.2672
   21SAPC    HS 2717   3.953   5.236  10.485 -0.1565  0.2893  0.8271
   21SAPC   O21 2718   3.822   5.124  10.358 -0.5007  0.4264  0.4768
   21SAPC   C21 2719   3.751   5.223  10.315 -0.5713 -0.5518 -0.1714
   21SAPC   O22 2720   3.738   5.332  10.370  0.3462 -0.0864  0.8686
   21SAPC   C22 2721   3.669   5.178  10.193  0.2256  0.4595  0.5218
   21SAPC   H2R 2722   3.564   5.160  10.226  0.3048 -0.2944  0.3887
   21SAPC   H2S 2723   3.668   5.261  10.120  0.1092 -0.5011 -0.5902
   21SAPC    C3 2724   3.989   5.025  10.495  0.1123  0.4429  0.1637
   21SAPC    HX 2725   3.928   4.934  10.514  0.5374  0.1768  0.2594
   21SAPC    HY 2726   4.057   5.035  10.582  0.7287 -0.4360 -0.2074
   21SAPC   O31 2727   4.073   5.012  10.377 -0.2805  0.1279 -0.0748
   21SAPC   C31 2728   4.036   4.917  10.293 -1.4637  0.6477 -0.6961
   21SAPC   O32 2729   3.939   4.849  10.311  0.4370  0.2335  0.0939
   21SAPC   C32 2730   4.132   4.904  10.174 -0.0673  0.0704 -0.5014
   21SAPC   H2X 2731   4.234   4.900  10.219 -0.4766 -0.2077  0.4164
   21SAPC   H2Y 2732   4.119   4.996  10.113 -0.3635 -0.9993 -2.0954
   21SAPC   C23 2733   3.720   5.052  10.111  0.6489  0.0989 -0.3160
   21SAPC   H3R 2734   3.737   4.961  10.173 -2.0049 -0.4821 -0.3080
   21SAPC   H3S 2735   3.821   5.080  10.076  0.7560  0.0652 -0.0406
   21SAPC   C24 2736   3.647   5.024   9.981 -0.6907  0.0095 -0.7060
   21SAPC   H4R 2737   3.691   4.931   9.938  1.8549  0.9329 -0.2560
   21SAPC   H4S 2738   3.670   5.113   9.919  2.3851  0.5061  0.9679
   21SAPC   C25 2739   3.503   5.011   9.989  0.7107 -0.1958 -0.1059
   21SAPC   H5R 2740   3.476   4.947  10.075  0.1967  0.3130  0.1159
   21SAPC   C26 2741   3.404   5.066   9.919 -0.0328 -0.1660  0.5443
   21SAPC   H6R 2742   3.302   5.036   9.945 -0.3558 -0.5664 -1.0910
   21SAPC   C27 2743   3.417   5.158   9.797 -0.0040  1.1892  0.1754
   21SAPC   H7R 2744   3.375   5.100   9.712  2.6350  1.9013 -1.7799
   21SAPC   H7S 2745   3.526   5.170   9.776  0.2176  0.0060  0.5317
   21SAPC   C28 2746   3.345   5.289   9.805 -0.0024 -0.0946 -0.5437
   21SAPC   H8R 2747   3.419   5.366   9.831  0.5973 -1.3998  1.9409
   21SAPC   C29 2748   3.211   5.322   9.771  0.0928 -0.1313  0.9349
   21SAPC   H9R 2749   3.169   5.424   9.775 -1.3827 -0.7294  1.4899
   21SAPC  C210 2750   3.096   5.221   9.738 -0.0537  0.9325  0.4087
   21SAPC  H10R 2751   3.131   5.117   9.753 -3.3532  0.0680  3.2181
   21SAPC  H10S 2752   3.069   5.230   9.630  0.4276  1.2891  0.3164
   21SAPC  C211 2753   2.972   5.245   9.815 -0.2989  0.9324  0.3577
   21SAPC  H11R 2754   2.983   5.234   9.924 -2.3148 -3.2626  0.3621
   21SAPC  C212 2755   2.848   5.277   9.774 -0.3775  0.0414  0.2395
   21SAPC  H12R 2756   2.770   5.279   9.851  1.3984  1.1914  2.1069
   21SAPC  C213 2757   2.812   5.301   9.627 -0.2637  0.4896  0.2217
   21SAPC  H13R 2758   2.872   5.234   9.563  1.5397  1.1330  1.1408
   21SAPC  H13S 2759   2.845   5.401   9.589 -0.0574  0.4579  0.3160
   21SAPC  C214 2760   2.660   5.287   9.619  0.2188 -0.0332  0.1126
   21SAPC  H14R 2761   2.612   5.197   9.659  0.4527 -0.6388 -0.9239
   21SAPC  C215 2762   2.581   5.368   9.550  0.2264  0.9068 -0.2275
   21SAPC  H15R 2763   2.473   5.356   9.540  0.4440 -1.0539 -0.7087
   21SAPC  C216 2764   2.622   5.489   9.471 -0.3352 -0.8349  0.4255
   21SAPC  H16R 2765   2.715   5.482   9.411  0.5756  0.8738  1.5658
   21SAPC  H16S 2766   2.623   5.576   9.540 -1.2880 -0.0635 -0.5038
   21SAPC  C217 2767   2.514   5.518   9.368  0.1251 -0.0374 -0.4968
   21SAPC  H17R 2768   2.531   5.613   9.313 -1.8983  0.1154 -0.9169
   21SAPC  H17S 2769   2.411   5.527   9.410  0.3743 -0.1126  0.1461
   21SAPC  C218 2770   2.514   5.420   9.247 -0.1928  0.1605 -0.1847
   21SAPC  H18R 2771   2.457   5.330   9.279 -0.6619  0.0243 -1.3308
   21SAPC  H18S 2772   2.616   5.389   9.217 -0.5486 -0.6464 -0.6221
   21SAPC  C219 2773   2.447   5.480   9.121  0.9244  0.1798 -0.1976
   21SAPC  H19R 2774   2.491   5.581   9.101  2.8835 -0.5146  0.3404
   21SAPC  H19S 2775   2.337   5.482   9.136  1.2738 -1.0473  3.3676
   21SAPC  C220 2776   2.464   5.391   8.999  0.3654  0.1787 -0.1573
   21SAPC  H20R 2777   2.424   5.290   9.022  0.3822 -0.0038 -0.9220
   21SAPC  H20S 2778   2.572   5.399   8.973  1.6845  0.1005  4.4096
   21SAPC  H20T 2779   2.398   5.427   8.918 -3.1574 -2.3173  1.3668
   21SAPC   C33 2780   4.106   4.784  10.081  0.4690  0.8249  0.4098
   21SAPC   H3X 2781   4.007   4.803  10.034  0.1811 -2.4128 -0.5548
   21SAPC   H3Y 2782   4.093   4.685  10.129 -0.7929 -0.1506 -1.8166
   21SAPC   C34 2783   4.207   4.757   9.977  0.5716 -0.0795  0.1016
   21SAPC   H4X 2784   4.182   4.679   9.902 -2.9367  0.9997 -0.0114
   21SAPC   H4Y 2785   4.305   4.744  10.027  0.1140  0.1259  1.0749
   21SAPC   C35 2786   4.226   4.882   9.884 -0.1867  0.0595  0.3325
   21SAPC   H5X 2787   4.259   4.967   9.949 -1.8461 -0.1810  1.5523
   21SAPC   H5Y 2788   4.126   4.912   9.845  0.8245  1.5272 -1.2944
   21SAPC   C36 2789   4.331   4.862   9.774  0.0152  0.5530  0.0935
   21SAPC   H6X 2790   4.283   4.817   9.684  2.7371 -0.5526 -0.9056
   21SAPC   H6Y 2791   4.416   4.798   9.807 -0.3349 -0.1414 -0.3259
   21SAPC   C37 2792   4.393   4.994   9.739 -0.4475  0.6723  0.0813
   21SAPC   H7X 2793   4.407   5.046   9.836 -2.8533  1.4440  0.0959
   21SAPC   H7Y 2794   4.322   5.057   9.681 -0.3294  0.3814 -0.3853
   21SAPC   C38 2795   4.516   4.969   9.656 -0.8068  0.1912  1.0358
   21SAPC   H8X 2796   4.586   4.904   9.712 -0.3260 -0.3571 -0.1494
   21SAPC   H8Y 2797   4.573   5.064   9.662  1.9143 -1.1914 -0.7588
   21SAPC   C39 2798   4.494   4.925   9.512 -0.1550 -1.2851 -0.2294
   21SAPC   H9X 2799   4.417   4.996   9.476  0.3842 -1.0118 -0.8504
   21SAPC   H9Y 2800   4.460   4.819   9.508  1.4950 -1.8704  0.4376
   21SAPC  C310 2801   4.615   4.941   9.414  0.4719 -0.4870 -0.2610
   21SAPC  H10X 2802   4.630   5.051   9.411 -2.0350 -0.0870 -0.2436
   21SAPC  H10Y 2803   4.589   4.921   9.308 -0.8132 -0.4479  0.0246
   21SAPC  C311 2804   4.745   4.861   9.440 -0.0908  0.3038 -0.0404
   21SAPC  H11X 2805   4.733   4.754   9.468  0.6652 -0.1774 -1.4191
   21SAPC  H11Y 2806   4.793   4.897   9.533 -0.4593  0.5640  0.0484
   21SAPC  C312 2807   4.832   4.841   9.312  0.1967 -0.2057  0.3700
   21SAPC  H12X 2808   4.856   4.943   9.276 -2.6481  1.3007  2.4205
   21SAPC  H12Y 2809   4.779   4.783   9.234  2.6797 -3.3870  0.7865
   21SAPC  C313 2810   4.956   4.758   9.334  0.2905  0.4550  0.5277
   21SAPC  H13X 2811   4.935   4.659   9.380 -0.6270 -0.0185 -0.8732
   21SAPC  H13Y 2812   5.031   4.805   9.402  0.2422 -1.4865  2.0144
   21SAPC  C314 2813   5.037   4.737   9.200 -0.1158 -0.4365 -0.1224
   21SAPC  H14X 2814   4.970   4.677   9.135 -0.9056  0.2116  0.0692
   21SAPC  H14Y 2815   5.125   4.676   9.227 -0.5014 -1.7616 -1.7260
   21SAPC  C315 2816   5.062   4.867   9.127 -0.7401 -0.3406 -0.1421
   21SAPC  H15X 2817   5.081   4.947   9.202 -4.1917  3.7452 -3.1689
   21SAPC  H15Y 2818   4.974   4.909   9.074 -0.7279 -0.4044 -0.2143
   21SAPC  C316 2819   5.181   4.879   9.030  0.2830  0.6068 -0.1202
   21SAPC  H16X 2820   5.271   4.854   9.091 -0.8867 -0.0226  1.4184
   21SAPC  H16Y 2821   5.206   4.980   8.991 -2.2150  0.8545 -1.2487
   21SAPC  C317 2822   5.184   4.786   8.904 -0.5389 -0.6786  0.0131
   21SAPC  H17X 2823   5.100   4.807   8.835  0.1458  2.1626 -0.0811
   21SAPC  H17Y 2824   5.180   4.678   8.930 -0.8051 -0.4451  0.9856
   21SAPC  C318 2825   5.317   4.814   8.834  0.3638  0.3295 -0.4366
   21SAPC  H18X 2826   5.329   4.918   8.796  1.7279  0.2285 -0.3558
   21SAPC  H18Y 2827   5.339   4.747   8.748 -1.0573  0.9041 -1.2728
   21SAPC  H18Z 2828   5.395   4.800   8.913  0.2340 -2.3429 -0.6833
   22SAPC     N 2829   0.506   1.489  10.696  0.5702  0.1426 -0.4390
   22SAPC   C12 2830   0.450   1.583  10.592  0.3190  0.0482 -0.2176
   22SAPC  H12A 2831   0.356   1.546  10.556 -0.3927  0.2533  1.3557
   22SAPC  H12B 2832   0.515   1.579  10.505  0.6241  1.8103 -0.1100
   22SAPC   C13 2833   0.640   1.537  10.745  0.7635 -0.3388 -0.1801
   22SAPC  H13A 2834   0.681   1.482  10.827 -0.8833 -1.5441 -0.1241
   22SAPC  H13B 2835   0.709   1.539  10.662 -0.5313  1.1750 -1.2996
   22SAPC  H13C 2836   0.636   1.635  10.790  0.9781 -0.0903 -0.6900
   22SAPC   C14 2837   0.412   1.497  10.813  0.4051 -0.0048  0.0152
   22SAPC  H14A 2838   0.315   1.451  10.801  0.1567  0.5704 -0.2285
   22SAPC  H14B 2839   0.452   1.441  10.896 -1.3187 -0.9400  0.2693
   22SAPC  H14C 2840   0.407   1.601  10.844  0.7796  0.0811 -0.2030
   22SAPC   C15 2841   0.516   1.349  10.650 -0.6152 -0.3746  0.7315
   22SAPC  H15A 2842   0.423   1.299  10.625 -0.6326  0.1550 -0.2894
   22SAPC  H15B 2843   0.572   1.353  10.558  1.3848 -1.4395  1.8223
   22SAPC  H15C 2844   0.568   1.284  10.719 -1.4328 -0.8845  0.8840
   22SAPC   C11 2845   0.436   1.735  10.618 -0.2695  0.6096 -0.3585
   22SAPC  H11A 2846   0.421   1.785  10.520 -0.3832 -0.2085 -0.7618
   22SAPC  H11B 2847   0.528   1.778  10.663 -2.4584  2.3525  2.8760
   22SAPC     P 2848   0.179   1.758  10.683  0.1218  0.8106  0.1642
   22SAPC   O13 2849   0.148   1.615  10.711 -0.7363 -0.1522  0.3001
   22SAPC   O14 2850   0.098   1.849  10.765  0.0533 -0.7516  0.0616
   22SAPC   O12 2851   0.332   1.781  10.707  0.4790  0.3071 -0.2922
   22SAPC   O11 2852   0.150   1.790  10.531  0.1022 -0.0238 -0.5582
   22SAPC    C1 2853   0.033   1.737  10.463 -0.0057 -0.3819  0.5567
   22SAPC    HA 2854  -0.029   1.668  10.524 -0.7350 -0.5407 -0.3397
   22SAPC    HB 2855  -0.028   1.825  10.432  3.5976  2.6844  1.4226
   22SAPC    C2 2856   0.062   1.646  10.343 -0.2633  0.2192  0.2664
   22SAPC    HS 2857  -0.037   1.626  10.296  0.4332 -3.7222  0.0756
   22SAPC   O21 2858   0.127   1.528  10.387  0.3365 -0.3801 -0.0042
   22SAPC   C21 2859   0.088   1.412  10.346  0.5674 -0.1525 -0.5299
   22SAPC   O22 2860  -0.007   1.390  10.271  0.1417  0.1771 -0.2056
   22SAPC   C22 2861   0.184   1.307  10.410  0.1951  0.0161  0.2910
   22SAPC   H2R 2862   0.256   1.351  10.482  0.0027 -1.5451  1.5189
   22SAPC   H2S 2863   0.128   1.224  10.458  0.4200  0.3983  1.2351
   22SAPC    C3 2864   0.154   1.709  10.238 -0.1648 -0.0759  0.2886
   22SAPC    HX 2865   0.249   1.719  10.296 -0.1595 -1.6916  0.6144
   22SAPC    HY 2866   0.113   1.808  10.209 -1.2957 -0.2507  1.2226
   22SAPC   O31 2867   0.182   1.642  10.121  0.1362  0.1691  0.0734
   22SAPC   C31 2868   0.082   1.641  10.041 -0.2779 -0.2703 -0.0099
   22SAPC   O32 2869  -0.020   1.707  10.042  0.3994  0.3379 -0.5664
   22SAPC   C32 2870   0.107   1.536   9.927 -1.0362 -0.3398 -0.3754
   22SAPC   H2X 2871   0.082   1.431   9.954 -0.6899 -0.5562 -0.8852
   22SAPC   H2Y 2872   0.216   1.541   9.908 -0.8694 -0.5102  0.5058
   22SAPC   C23 2873   0.266   1.226  10.304  0.3858 -0.0637 -0.3084
   22SAPC   H3R 2874   0.206   1.196  10.216  0.4243 -2.1542  0.3175
   22SAPC   H3S 2875   0.281   1.132  10.362 -0.5755  0.0954  0.2107
   22SAPC   C24 2876   0.406   1.271  10.268  1.0764  0.3622  0.0497
   22SAPC   H4R 2877   0.445   1.188  10.205  1.1038 -0.5251  1.2102
   22SAPC   H4S 2878   0.469   1.279  10.359  1.3191  0.3263 -0.1151
   22SAPC   C25 2879   0.410   1.411  10.207  0.3865 -0.2459  0.4386
   22SAPC   H5R 2880   0.363   1.492  10.264  0.8283  0.4052 -0.1155
   22SAPC   C26 2881   0.453   1.446  10.080  0.0005  0.7661 -0.9050
   22SAPC   H6R 2882   0.447   1.549  10.042  0.5901  1.1471  0.0144
   22SAPC   C27 2883   0.505   1.347   9.971  0.0342 -0.7710 -0.3350
   22SAPC   H7R 2884   0.558   1.261  10.018  0.5046 -0.6827 -0.6988
   22SAPC   H7S 2885   0.574   1.408   9.909 -0.2129 -1.8109 -1.6875
   22SAPC   C28 2886   0.388   1.296   9.893  0.4458  0.2641  0.0537
   22SAPC   H8R 2887   0.298   1.276   9.954 -1.0220 -0.7840 -2.2967
   22SAPC   C29 2888   0.386   1.282   9.757 -0.1844  0.2195 -0.3563
   22SAPC   H9R 2889   0.290   1.245   9.718 -0.8295  1.1622  0.2705
   22SAPC  C210 2890   0.500   1.298   9.668  0.1963 -0.5198  0.1429
   22SAPC  H10R 2891   0.587   1.348   9.716  1.0663  0.5978 -2.4157
   22SAPC  H10S 2892   0.475   1.371   9.588 -0.5758 -0.8425  0.0812
   22SAPC  C211 2893   0.552   1.158   9.632  0.4085  0.5529  0.2232
   22SAPC  H11R 2894   0.543   1.082   9.712  0.2344  0.9350  0.5751
   22SAPC  C212 2895   0.615   1.121   9.522 -0.6673 -0.2453  0.5285
   22SAPC  H12R 2896   0.653   1.018   9.516  2.1308  0.6044  2.1468
   22SAPC  C213 2897   0.636   1.217   9.400  0.1666 -0.2835  1.0413
   22SAPC  H13R 2898   0.724   1.282   9.416  0.3526 -0.1384 -0.4097
   22SAPC  H13S 2899   0.554   1.291   9.387 -0.4775 -1.1635 -0.1170
   22SAPC  C214 2900   0.659   1.151   9.264  0.2228  0.7682  0.2918
   22SAPC  H14R 2901   0.755   1.100   9.248  0.3909  1.0795  0.3032
   22SAPC  C215 2902   0.563   1.125   9.174 -0.1535 -0.3061  0.2088
   22SAPC  H15R 2903   0.607   1.090   9.080 -0.3451  2.5603 -1.0451
   22SAPC  C216 2904   0.416   1.155   9.176 -0.0845 -0.2782 -0.7826
   22SAPC  H16R 2905   0.399   1.219   9.265  0.8086 -2.1492  0.7954
   22SAPC  H16S 2906   0.364   1.057   9.179 -2.9172  0.9852 -3.5317
   22SAPC  C217 2907   0.379   1.248   9.061 -0.1661  0.2576 -0.5478
   22SAPC  H17R 2908   0.462   1.317   9.034  0.3293 -0.1016  0.0426
   22SAPC  H17S 2909   0.281   1.295   9.081 -0.6213  0.3039 -2.6225
   22SAPC  C218 2910   0.361   1.183   8.924  0.5594  0.2645  0.4230
   22SAPC  H18R 2911   0.391   1.076   8.918  1.6695  0.5876 -0.0400
   22SAPC  H18S 2912   0.434   1.233   8.858  2.9484 -1.3991  1.6378
   22SAPC  C219 2913   0.209   1.189   8.891  0.0839 -0.0210  0.7987
   22SAPC  H19R 2914   0.183   1.294   8.865 -0.7092 -0.2383  0.6893
   22SAPC  H19S 2915   0.145   1.157   8.976  0.4601 -2.5347  0.1912
   22SAPC  C220 2916   0.175   1.097   8.770  0.2736 -0.2928 -0.5290
   22SAPC  H20R 2917   0.246   1.107   8.684  1.0185 -1.9703 -0.1444
   22SAPC  H20S 2918   0.075   1.123   8.728 -1.0771 -1.6627  1.6442
   22SAPC  H20T 2919   0.176   0.992   8.805  2.0319 -0.7382 -1.7947
   22SAPC   C33 2920   0.017   1.577   9.803 -0.3845  0.0537  0.7053
   22SAPC   H3X 2921   0.055   1.667   9.749 -2.5419  0.9403  0.5500
   22SAPC   H3Y 2922  -0.090   1.595   9.827 -0.0790  2.0323  0.8062
   22SAPC   C34 2923   0.042   1.473   9.695  0.4544 -0.3116 -0.3835
   22SAPC   H4X 2924   0.018   1.371   9.729  1.1438 -0.2087  0.4238
   22SAPC   H4Y 2925   0.152   1.477   9.678  1.0415 -1.2396  2.7254
   22SAPC   C35 2926  -0.032   1.495   9.560  0.0696  0.0286 -0.6210
   22SAPC   H5X 2927  -0.022   1.600   9.526  0.9409  0.7641  1.6962
   22SAPC   H5Y 2928  -0.138   1.473   9.585  0.4665 -0.0175  1.1227
   22SAPC   C36 2929   0.017   1.407   9.442  0.3194  0.0084 -0.1833
   22SAPC   H6X 2930   0.014   1.301   9.476 -0.4438  0.7684  2.3616
   22SAPC   H6Y 2931   0.123   1.435   9.422  0.0910  0.1952 -1.1771
   22SAPC   C37 2932  -0.059   1.436   9.314  0.5388  0.0774 -0.2890
   22SAPC   H7X 2933  -0.065   1.545   9.297  0.8349  0.2420  0.6168
   22SAPC   H7Y 2934  -0.163   1.398   9.327 -0.4922  2.3049 -1.4685
   22SAPC   C38 2935  -0.003   1.364   9.194 -0.0788  0.0747 -0.1135
   22SAPC   H8X 2936  -0.012   1.256   9.216 -0.7321  0.4851  1.8290
   22SAPC   H8Y 2937   0.105   1.390   9.192 -0.5715  2.3809 -2.9881
   22SAPC   C39 2938  -0.058   1.407   9.052 -0.1104  0.1832 -0.1888
   22SAPC   H9X 2939   0.011   1.373   8.972  0.7931  3.5787 -0.9927
   22SAPC   H9Y 2940  -0.062   1.517   9.042  1.2793  0.3324  0.6017
   22SAPC  C310 2941  -0.199   1.353   9.020 -0.1607 -0.5188  0.6591
   22SAPC  H10X 2942  -0.266   1.401   9.094  0.2113  2.9289 -1.0220
   22SAPC  H10Y 2943  -0.200   1.242   9.028  0.5632 -0.4344  2.2686
   22SAPC  C311 2944  -0.248   1.394   8.877 -0.1649  0.4835 -0.7147
   22SAPC  H11X 2945  -0.191   1.482   8.840  2.6137 -1.6166 -1.8231
   22SAPC  H11Y 2946  -0.356   1.421   8.873  0.4073  3.0072 -0.7971
   22SAPC  C312 2947  -0.237   1.278   8.778  0.0914  0.2820 -0.3329
   22SAPC  H12X 2948  -0.285   1.191   8.826  0.9898  0.1398  0.3449
   22SAPC  H12Y 2949  -0.133   1.239   8.769  0.5230  0.9126  1.4535
   22SAPC  C313 2950  -0.293   1.300   8.633  0.3233 -0.2195  0.0780
   22SAPC  H13X 2951  -0.403   1.305   8.647  0.2123  0.0365 -0.8389
   22SAPC  H13Y 2952  -0.261   1.213   8.572  0.1045  0.0366 -0.4048
   22SAPC  C314 2953  -0.242   1.422   8.559 -0.4732  0.7394  0.2457
   22SAPC  H14X 2954  -0.240   1.516   8.617 -1.2709  0.4960  0.6811
   22SAPC  H14Y 2955  -0.315   1.444   8.478 -0.2494  0.7214  0.0364
   22SAPC  C315 2956  -0.101   1.419   8.506 -0.6048  0.8484  0.0045
   22SAPC  H15X 2957  -0.033   1.427   8.594  0.0034  2.0800 -0.5444
   22SAPC  H15Y 2958  -0.082   1.507   8.441  2.6865 -0.4963 -1.0494
   22SAPC  C316 2959  -0.081   1.297   8.410 -0.3232  0.0953  1.0087
   22SAPC  H16X 2960  -0.177   1.289   8.354  0.8165  2.1836 -1.4257
   22SAPC  H16Y 2961  -0.063   1.200   8.461 -3.6201 -1.8082 -1.0604
   22SAPC  C317 2962   0.030   1.327   8.305 -0.0690 -0.7908 -0.6766
   22SAPC  H17X 2963   0.097   1.390   8.367  0.7092  1.4763 -3.5754
   22SAPC  H17Y 2964  -0.020   1.389   8.228 -2.7869 -1.8921  0.0933
   22SAPC  C318 2965   0.105   1.205   8.249 -0.0330 -0.1828  0.0149
   22SAPC  H18X 2966   0.059   1.107   8.274 -3.6246  0.8030 -1.9443
   22SAPC  H18Y 2967   0.207   1.205   8.293  0.4014 -0.8623 -0.9578
   22SAPC  H18Z 2968   0.124   1.209   8.139 -0.9860 -0.7400 -0.1832
   23SAPC     N 2969   5.115   2.523  10.667 -0.7369  0.3737 -0.2856
   23SAPC   C12 2970   5.050   2.658  10.649  0.0416  0.8571 -0.5979
   23SAPC  H12A 2971   4.959   2.643  10.592  1.7366  0.8027 -3.4668
   23SAPC  H12B 2972   5.112   2.720  10.586  0.5871  0.5302 -0.3808
   23SAPC   C13 2973   5.111   2.471  10.804  0.8895 -0.1518  0.0420
   23SAPC  H13A 2974   5.150   2.540  10.877  0.2081 -1.4231  1.6843
   23SAPC  H13B 2975   5.010   2.440  10.825  0.0698  2.3061 -0.0318
   23SAPC  H13C 2976   5.178   2.389  10.826  2.2169  0.7311 -0.5983
   23SAPC   C14 2977   5.039   2.417  10.588  0.1962 -0.1708  0.7253
   23SAPC  H14A 2978   5.098   2.327  10.576 -0.7932 -1.0506  2.0216
   23SAPC  H14B 2979   4.947   2.389  10.637 -0.8166  1.9927  0.1624
   23SAPC  H14C 2980   5.009   2.455  10.492 -1.3375 -0.7970  0.9251
   23SAPC   C15 2981   5.263   2.542  10.623 -0.0247  0.7932  0.4001
   23SAPC  H15A 2982   5.299   2.615  10.693  2.0484 -0.6753  0.9630
   23SAPC  H15B 2983   5.321   2.452  10.638  0.2394  0.5444 -1.7703
   23SAPC  H15C 2984   5.283   2.581  10.524  1.0492 -0.5175  0.0619
   23SAPC   C11 2985   5.023   2.744  10.777 -0.2512 -0.4992 -0.4868
   23SAPC  H11A 2986   4.956   2.685  10.843 -2.4626  2.2186 -0.1000
   23SAPC  H11B 2987   4.972   2.835  10.740  2.1765  0.7891 -0.9193
   23SAPC     P 2988   5.268   2.849  10.779  0.3990  0.7246 -0.0528
   23SAPC   O13 2989   5.279   2.992  10.818  0.1823 -0.4592  0.2844
   23SAPC   O14 2990   5.378   2.759  10.811 -0.3345 -0.8502  0.9524
   23SAPC   O12 2991   5.141   2.786  10.845  0.0416  0.0039  0.4566
   23SAPC   O11 2992   5.254   2.849  10.626  0.1774  0.0814 -0.4902
   23SAPC    C1 2993   5.368   2.887  10.544 -0.0998 -0.7419  0.2140
   23SAPC    HA 2994   5.434   2.960  10.595  2.4235 -1.2369 -2.1091
   23SAPC    HB 2995   5.432   2.798  10.524 -0.6807 -1.4864  1.4997
   23SAPC    C2 2996   5.334   2.960  10.408 -0.6409 -0.0633 -0.3048
   23SAPC    HS 2997   5.303   3.064  10.432 -0.4641  0.6758 -2.9412
   23SAPC   O21 2998   5.230   2.897  10.339 -0.6481  0.1604 -0.2229
   23SAPC   C21 2999   5.135   2.976  10.284 -0.2383 -0.4522 -0.3093
   23SAPC   O22 3000   5.139   3.098  10.281 -0.0204  0.3454  0.8665
   23SAPC   C22 3001   5.019   2.888  10.232 -0.1744  0.1415 -0.2857
   23SAPC   H2R 3002   5.061   2.804  10.174  1.1433  0.2965  0.4078
   23SAPC   H2S 3003   4.971   2.842  10.321  0.1843 -0.6498 -0.4966
   23SAPC    C3 3004   5.459   2.977  10.325 -0.2924  0.0005 -0.3218
   23SAPC    HX 3005   5.497   2.880  10.287 -1.5135  0.0272 -1.6986
   23SAPC    HY 3006   5.536   3.022  10.391 -0.8376 -0.4224  0.6157
   23SAPC   O31 3007   5.425   3.053  10.206 -0.6303  0.5333  0.6073
   23SAPC   C31 3008   5.478   3.181  10.212 -0.4478  0.0318 -0.6779
   23SAPC   O32 3009   5.528   3.229  10.312 -0.0799 -0.3263 -0.1214
   23SAPC   C32 3010   5.434   3.266  10.093 -0.0369 -0.0707 -0.1892
   23SAPC   H2X 3011   5.368   3.341  10.141 -1.1279 -1.9979  1.4967
   23SAPC   H2Y 3012   5.365   3.204  10.031 -1.7931  0.3292  1.2800
   23SAPC   C23 3013   4.916   2.953  10.142 -0.1067 -0.6695  0.6826
   23SAPC   H3R 3014   4.879   3.046  10.190  2.4074 -0.0255  1.5494
   23SAPC   H3S 3015   4.840   2.873  10.134  1.8520 -2.5712  0.0950
   23SAPC   C24 3016   4.953   2.983   9.990  0.2745 -0.4062 -0.2780
   23SAPC   H4R 3017   4.860   2.999   9.932  1.4501 -1.3466 -2.5678
   23SAPC   H4S 3018   4.992   2.886   9.952 -0.4254 -0.2423 -1.4721
   23SAPC   C25 3019   5.037   3.111   9.969  0.3791  0.2497 -0.0110
   23SAPC   H5R 3020   5.008   3.209  10.009  0.6799  1.1964 -1.9934
   23SAPC   C26 3021   5.154   3.107   9.896  0.8898  0.7146 -0.2888
   23SAPC   H6R 3022   5.207   3.204   9.888 -1.4687  1.9014 -3.3769
   23SAPC   C27 3023   5.214   2.993   9.832 -0.7606  0.2341  0.0663
   23SAPC   H7R 3024   5.212   2.903   9.897 -0.1560  0.8315  0.9433
   23SAPC   H7S 3025   5.322   3.021   9.831 -0.5634 -0.3602  1.5383
   23SAPC   C28 3026   5.176   2.971   9.690 -1.0499 -0.0650 -0.3164
   23SAPC   H8R 3027   5.111   2.882   9.682  0.7426 -1.4907  0.1669
   23SAPC   C29 3028   5.202   3.043   9.575  0.1500  0.6301 -0.2232
   23SAPC   H9R 3029   5.179   3.001   9.476  0.0985  0.5101 -0.1610
   23SAPC  C210 3030   5.283   3.176   9.579  0.2238  0.2013  0.1707
   23SAPC  H10R 3031   5.380   3.157   9.528  1.2356  1.8015  1.4102
   23SAPC  H10S 3032   5.305   3.210   9.682  2.1607 -0.1111 -0.0965
   23SAPC  C211 3033   5.197   3.283   9.508 -0.4524  0.3009 -0.1164
   23SAPC  H11R 3034   5.090   3.260   9.508 -0.1812 -1.2053  1.3713
   23SAPC  C212 3035   5.236   3.402   9.456 -1.1325  0.1260  0.1220
   23SAPC  H12R 3036   5.155   3.463   9.413 -0.8054  1.1286  0.8965
   23SAPC  C213 3037   5.377   3.449   9.471 -0.1738  0.3711  0.0287
   23SAPC  H13R 3038   5.428   3.429   9.374 -1.4327  0.1987 -0.6264
   23SAPC  H13S 3039   5.424   3.389   9.551 -0.8651 -1.8780 -1.1598
   23SAPC  C214 3040   5.397   3.593   9.502  0.0402  0.3266  0.6208
   23SAPC  H14R 3041   5.422   3.649   9.410  1.2678  0.5359  1.0742
   23SAPC  C215 3042   5.381   3.653   9.619  0.6339 -0.6680  0.5692
   23SAPC  H15R 3043   5.386   3.762   9.628 -0.9717 -0.5300  0.1045
   23SAPC  C216 3044   5.335   3.578   9.742 -0.2637  0.0995 -0.6014
   23SAPC  H16R 3045   5.416   3.512   9.781 -1.1956  0.0441  1.3277
   23SAPC  H16S 3046   5.253   3.508   9.715  0.8672 -0.2331 -3.6134
   23SAPC  C217 3047   5.289   3.664   9.859 -0.6973 -0.1319  0.0868
   23SAPC  H17R 3048   5.211   3.735   9.823  0.1196  0.4968 -0.4861
   23SAPC  H17S 3049   5.368   3.727   9.906 -0.5940 -0.0440 -0.2009
   23SAPC  C218 3050   5.230   3.570   9.964 -0.5320 -0.2587 -0.1063
   23SAPC  H18R 3051   5.315   3.524  10.018  1.0650  2.6696  0.1093
   23SAPC  H18S 3052   5.176   3.490   9.909 -0.5821 -0.5580  0.3805
   23SAPC  C219 3053   5.135   3.631  10.072  0.5753  1.3282  0.1290
   23SAPC  H19R 3054   5.056   3.676  10.008  0.7107 -0.4239 -1.3805
   23SAPC  H19S 3055   5.187   3.709  10.131  0.0689  1.9875 -0.2865
   23SAPC  C220 3056   5.076   3.527  10.171 -0.1158 -0.7201  0.2505
   23SAPC  H20R 3057   4.996   3.578  10.229  1.6860  1.5587  0.8929
   23SAPC  H20S 3058   5.143   3.475  10.243 -0.9808 -0.6485  1.1369
   23SAPC  H20T 3059   5.021   3.451  10.111 -1.6890  1.8233 -1.7141
   23SAPC   C33 3060   5.550   3.321  10.013 -0.3750  0.4537 -0.1089
   23SAPC   H3X 3061   5.637   3.347  10.077 -1.4018 -0.3905  1.6989
   23SAPC   H3Y 3062   5.517   3.420   9.976  2.8858  1.1643 -1.3997
   23SAPC   C34 3063   5.606   3.236   9.905 -0.1384 -0.3181  1.2827
   23SAPC   H4X 3064   5.522   3.179   9.860 -0.1868 -0.2023  1.2266
   23SAPC   H4Y 3065   5.682   3.163   9.942  0.1742 -0.5907  0.1421
   23SAPC   C35 3066   5.680   3.313   9.789  0.0270  0.3529 -0.0788
   23SAPC   H5X 3067   5.777   3.353   9.826  1.0339 -1.0582 -1.0860
   23SAPC   H5Y 3068   5.614   3.393   9.749 -2.0491 -1.6770 -0.9486
   23SAPC   C36 3069   5.706   3.215   9.672 -0.7805  0.5571  0.4915
   23SAPC   H6X 3070   5.609   3.163   9.657 -0.3819  0.4173 -1.9799
   23SAPC   H6Y 3071   5.778   3.139   9.709  1.0818  1.3508 -1.3118
   23SAPC   C37 3072   5.734   3.287   9.543 -0.2487 -0.9651 -0.2071
   23SAPC   H7X 3073   5.835   3.334   9.540  0.4934 -2.4724 -2.6962
   23SAPC   H7Y 3074   5.656   3.365   9.534 -0.2422 -0.7954  1.0613
   23SAPC   C38 3075   5.731   3.193   9.425  0.0192  0.4419  0.3632
   23SAPC   H8X 3076   5.634   3.139   9.431  1.0883 -1.7834 -1.0301
   23SAPC   H8Y 3077   5.794   3.102   9.432 -2.3546 -1.4314 -0.9997
   23SAPC   C39 3078   5.749   3.264   9.293  0.9246  0.5774  0.9547
   23SAPC   H9X 3079   5.855   3.297   9.282  1.8993 -1.7967  2.4567
   23SAPC   H9Y 3080   5.673   3.345   9.293 -1.2955 -1.3880  1.8396
   23SAPC  C310 3081   5.705   3.176   9.171  0.1331 -0.5064  0.0089
   23SAPC  H10X 3082   5.615   3.120   9.202  1.0378 -1.0165  1.8449
   23SAPC  H10Y 3083   5.787   3.107   9.139  0.0374  0.0719 -1.6066
   23SAPC  C311 3084   5.672   3.256   9.040  0.5599  0.4149  0.3089
   23SAPC  H11X 3085   5.593   3.333   9.049 -0.8153 -0.8606 -0.4014
   23SAPC  H11Y 3086   5.633   3.188   8.962 -1.2857  0.7809  0.8699
   23SAPC  C312 3087   5.792   3.335   8.986  0.4460  0.3879  0.1175
   23SAPC  H12X 3088   5.882   3.271   8.977  1.4290  1.5569  1.2336
   23SAPC  H12Y 3089   5.824   3.406   9.065  0.1215  1.1471 -0.4275
   23SAPC  C313 3090   5.755   3.410   8.857  0.0842  0.1295  0.1957
   23SAPC  H13X 3091   5.669   3.480   8.873  0.2738  0.3525  0.2430
   23SAPC  H13Y 3092   5.705   3.338   8.789  0.5645 -0.3933  0.3909
   23SAPC  C314 3093   5.877   3.483   8.791 -0.2295  0.2772 -0.0057
   23SAPC  H14X 3094   5.948   3.404   8.758 -1.0143 -0.0848 -0.8473
   23SAPC  H14Y 3095   5.925   3.549   8.867  0.2394  1.5663 -1.3704
   23SAPC  C315 3096   5.827   3.569   8.683  0.3414 -0.2738  0.2440
   23SAPC  H15X 3097   5.729   3.616   8.702 -0.8660 -2.5724  0.0674
   23SAPC  H15Y 3098   5.804   3.493   8.605  1.5981 -1.4350  0.9557
   23SAPC  C316 3099   5.937   3.662   8.629 -0.1121 -0.2372 -0.7320
   23SAPC  H16X 3100   6.028   3.604   8.602  0.6323  1.9311 -3.4023
   23SAPC  H16Y 3101   5.963   3.735   8.708  3.8818  0.3557 -2.3750
   23SAPC  C317 3102   5.890   3.752   8.514  0.4641  0.0520 -0.2522
   23SAPC  H17X 3103   5.789   3.789   8.539  0.8204  0.7101  0.2364
   23SAPC  H17Y 3104   5.869   3.682   8.430 -0.6199  1.0954 -0.8790
   23SAPC  C318 3105   5.992   3.857   8.473 -0.3492 -0.1342  0.4549
   23SAPC  H18X 3106   6.078   3.801   8.430 -2.5203 -2.4432 -1.1186
   23SAPC  H18Y 3107   6.016   3.916   8.564 -0.0911 -0.5002  0.6249
   23SAPC  H18Z 3108   5.950   3.931   8.402  1.2437 -1.6004 -2.1885
   24SAPC     N 3109   0.795   3.223  10.931  0.4173  0.4791  0.1999
   24SAPC   C12 3110   0.867   3.189  10.800 -0.1910 -0.0274 -0.5822
   24SAPC  H12A 3111   0.798   3.157  10.724  0.2725 -0.4843 -0.8194
   24SAPC  H12B 3112   0.939   3.111  10.820  0.3443  0.7207  0.5081
   24SAPC   C13 3113   0.693   3.117  10.962 -0.2623  0.2353  0.0145
   24SAPC  H13A 3114   0.664   3.060  10.876  0.1941  1.7748 -1.2136
   24SAPC  H13B 3115   0.737   3.039  11.022 -1.4726 -0.3659  0.1422
   24SAPC  H13C 3116   0.604   3.155  11.011 -0.6306 -1.3159  0.5852
   24SAPC   C14 3117   0.891   3.216  11.041  0.6117  0.7372 -0.2696
   24SAPC  H14A 3118   0.967   3.293  11.033 -2.1677  3.5236 -2.2297
   24SAPC  H14B 3119   0.841   3.251  11.130  0.8135 -0.7915  0.4838
   24SAPC  H14C 3120   0.919   3.114  11.064 -2.0414  0.5966  3.1683
   24SAPC   C15 3121   0.721   3.355  10.923  0.0715  0.3143 -0.6068
   24SAPC  H15A 3122   0.641   3.348  10.851  0.1183  2.2940 -0.9197
   24SAPC  H15B 3123   0.685   3.365  11.024  0.7331  1.3546 -0.4612
   24SAPC  H15C 3124   0.792   3.432  10.896  0.2811 -0.1906 -1.5400
   24SAPC   C11 3125   0.959   3.304  10.738  1.1337  0.1721 -0.7396
   24SAPC  H11A 3126   0.896   3.390  10.707  0.8562  0.2075 -0.0998
   24SAPC  H11B 3127   0.999   3.267  10.641  1.8590  2.3012 -1.2998
   24SAPC     P 3128   1.089   3.494  10.867 -0.0246  0.2246 -0.0798
   24SAPC   O13 3129   0.964   3.543  10.927  0.2717  0.2782  0.0287
   24SAPC   O14 3130   1.208   3.522  10.956 -0.2403  0.0094  0.4483
   24SAPC   O12 3131   1.074   3.343  10.817  0.0562 -0.0176 -0.5592
   24SAPC   O11 3132   1.100   3.578  10.734  0.7093  0.1930  0.3423
   24SAPC    C1 3133   1.218   3.605  10.657  0.2327  0.4883  0.7441
   24SAPC    HA 3134   1.230   3.711  10.628  0.4086  0.0780 -0.7515
   24SAPC    HB 3135   1.310   3.582  10.714  1.7865  0.4405 -1.6764
   24SAPC    C2 3136   1.227   3.519  10.525  0.0425  0.4945 -0.3019
   24SAPC    HS 3137   1.300   3.580  10.468 -0.1563  0.4121 -0.6494
   24SAPC   O21 3138   1.110   3.499  10.451  0.3347 -0.1039 -0.0338
   24SAPC   C21 3139   1.049   3.610  10.400  0.0754  0.0171  0.4818
   24SAPC   O22 3140   1.081   3.722  10.431  0.6796  0.5336 -0.0987
   24SAPC   C22 3141   0.938   3.572  10.304  0.3557  0.6643 -0.5285
   24SAPC   H2R 3142   0.930   3.461  10.310  0.9992  0.6675  0.7967
   24SAPC   H2S 3143   0.849   3.614  10.356 -0.5871 -0.1804 -1.4181
   24SAPC    C3 3144   1.296   3.379  10.537 -0.3044 -0.3003 -0.9196
   24SAPC    HX 3145   1.218   3.307  10.569  0.7738 -1.4075 -0.7058
   24SAPC    HY 3146   1.377   3.390  10.612 -0.7394  0.3090 -0.5293
   24SAPC   O31 3147   1.345   3.340  10.405 -0.0213 -0.1093  0.2011
   24SAPC   C31 3148   1.335   3.209  10.387  0.5316 -0.4997 -0.1092
   24SAPC   O32 3149   1.298   3.129  10.474 -0.6452 -0.6689 -0.3418
   24SAPC   C32 3150   1.339   3.177  10.236  0.0290  0.8074  0.0376
   24SAPC   H2X 3151   1.447   3.155  10.230 -0.2890 -1.2731  1.1769
   24SAPC   H2Y 3152   1.307   3.265  10.176 -0.6276  1.4819  1.3326
   24SAPC   C23 3153   0.966   3.616  10.162  0.3943  0.0815 -0.0306
   24SAPC   H3R 3154   0.971   3.727  10.153  0.9707  0.0636 -0.0201
   24SAPC   H3S 3155   0.872   3.594  10.108  1.3150 -1.9249 -0.9021
   24SAPC   C24 3156   1.078   3.535  10.095  0.9598 -0.1977  0.3978
   24SAPC   H4R 3157   1.041   3.431  10.079 -0.8041  0.0559  2.3437
   24SAPC   H4S 3158   1.162   3.519  10.166 -1.0388  0.8003  3.1664
   24SAPC   C25 3159   1.131   3.598   9.972  0.5647  0.5575  0.2799
   24SAPC   H5R 3160   1.142   3.708   9.968 -1.7746  0.8284 -1.3926
   24SAPC   C26 3161   1.176   3.528   9.862 -0.2184  0.9402 -0.1094
   24SAPC   H6R 3162   1.220   3.592   9.784  2.2156 -1.6768 -1.0530
   24SAPC   C27 3163   1.182   3.377   9.858  0.1307 -0.1294  0.7235
   24SAPC   H7R 3164   1.087   3.336   9.897  0.8113 -0.8936  1.6381
   24SAPC   H7S 3165   1.268   3.340   9.917 -0.4217 -1.5892  0.6623
   24SAPC   C28 3166   1.200   3.338   9.714  0.6598  1.0687  0.4066
   24SAPC   H8R 3167   1.294   3.287   9.690 -0.7064 -0.7784 -1.3630
   24SAPC   C29 3168   1.110   3.345   9.609 -0.1918  0.6118 -0.4414
   24SAPC   H9R 3169   1.151   3.326   9.509  1.3850 -2.6562  0.6863
   24SAPC  C210 3170   0.972   3.397   9.603  0.6375  0.0042 -0.0566
   24SAPC  H10R 3171   0.954   3.461   9.513  0.2423  0.1794  0.1432
   24SAPC  H10S 3172   0.951   3.468   9.686 -2.1147 -2.6029  1.6653
   24SAPC  C211 3173   0.861   3.295   9.611 -0.1775  0.8440 -0.2368
   24SAPC  H11R 3174   0.818   3.279   9.711 -1.5533 -3.9664 -1.3552
   24SAPC  C212 3175   0.797   3.233   9.505 -0.1942  0.2830 -0.2299
   24SAPC  H12R 3176   0.714   3.162   9.518 -1.0176  1.3726  0.6953
   24SAPC  C213 3177   0.843   3.253   9.361  0.2814  0.3024 -1.1677
   24SAPC  H13R 3178   0.884   3.156   9.327 -1.0270 -1.4356  1.7621
   24SAPC  H13S 3179   0.931   3.321   9.357  0.0468  0.5777 -1.7238
   24SAPC  C214 3180   0.723   3.300   9.282  0.3304  0.4802  0.3525
   24SAPC  H14R 3181   0.657   3.367   9.339  0.0734 -2.2558  3.5750
   24SAPC  C215 3182   0.701   3.270   9.153 -0.1849 -0.0441  0.1475
   24SAPC  H15R 3183   0.615   3.311   9.099  1.0457  3.6446  0.7021
   24SAPC  C216 3184   0.789   3.192   9.064  0.6135  0.6570 -0.4631
   24SAPC  H16R 3185   0.817   3.093   9.106 -3.2877  0.8241  3.1406
   24SAPC  H16S 3186   0.888   3.242   9.066  0.9769 -0.0677 -0.0173
   24SAPC  C217 3187   0.734   3.181   8.918  0.5804 -0.4826 -0.4928
   24SAPC  H17R 3188   0.716   3.283   8.878 -1.4024 -0.5737  0.0313
   24SAPC  H17S 3189   0.638   3.126   8.925  0.8902 -0.8940  0.7661
   24SAPC  C218 3190   0.821   3.097   8.825  0.2710 -0.2931  0.2865
   24SAPC  H18R 3191   0.816   2.989   8.852 -0.5494 -0.3751 -0.1610
   24SAPC  H18S 3192   0.924   3.139   8.830  0.4758 -0.4284 -1.7878
   24SAPC  C219 3193   0.771   3.105   8.675 -0.1573  0.1395 -0.2267
   24SAPC  H19R 3194   0.793   3.211   8.650  2.1414  0.0794  1.2333
   24SAPC  H19S 3195   0.662   3.082   8.676 -0.1845  0.2384 -0.8366
   24SAPC  C220 3196   0.842   3.000   8.588 -0.2331 -0.8824 -0.6341
   24SAPC  H20R 3197   0.789   2.998   8.490 -2.0118 -2.1085  0.2939
   24SAPC  H20S 3198   0.825   2.898   8.628 -0.2944 -1.2222 -1.4990
   24SAPC  H20T 3199   0.947   3.028   8.566 -0.1626 -1.2721 -0.7947
   24SAPC   C33 3200   1.255   3.053  10.203  0.3943  0.6277 -0.2894
   24SAPC   H3X 3201   1.157   3.050  10.256  0.1848 -0.5558 -0.7271
   24SAPC   H3Y 3202   1.292   2.964  10.258  0.4526  1.5851  1.2786
   24SAPC   C34 3203   1.252   3.029  10.052 -0.0997  0.5718  0.1349
   24SAPC   H4X 3204   1.181   3.103  10.009  1.2828  1.5745 -0.4893
   24SAPC   H4Y 3205   1.217   2.925  10.034 -0.4851  0.7721 -0.2844
   24SAPC   C35 3206   1.391   3.043   9.984  0.7281 -0.3822 -0.5218
   24SAPC   H5X 3207   1.473   2.991  10.036  1.1225  0.2762 -0.4759
   24SAPC   H5Y 3208   1.416   3.150   9.970  0.5220  0.0703  2.0856
   24SAPC   C36 3209   1.398   2.981   9.846  0.4347  0.0461 -0.5766
   24SAPC   H6X 3210   1.347   3.038   9.765  1.7982  0.6078 -1.0654
   24SAPC   H6Y 3211   1.369   2.874   9.840 -0.3729  0.1363  1.2218
   24SAPC   C37 3212   1.541   2.974   9.790  0.1006  0.0471  0.4946
   24SAPC   H7X 3213   1.595   2.908   9.861  0.9529  0.1727 -0.0195
   24SAPC   H7Y 3214   1.588   3.075   9.789 -1.5965  0.8671  0.3657
   24SAPC   C38 3215   1.552   2.929   9.642  0.1604  0.2255 -0.1066
   24SAPC   H8X 3216   1.494   2.836   9.623 -1.5364  1.6969 -2.6607
   24SAPC   H8Y 3217   1.659   2.906   9.624  1.1592  3.3711  1.1696
   24SAPC   C39 3218   1.495   3.034   9.545  0.3052  0.3470  0.2574
   24SAPC   H9X 3219   1.545   3.129   9.575 -1.0452  1.4451 -0.8300
   24SAPC   H9Y 3220   1.384   3.041   9.547  0.2376 -0.0436 -1.2053
   24SAPC  C310 3221   1.532   2.990   9.401 -0.4091 -0.1144 -0.6815
   24SAPC  H10X 3222   1.481   2.898   9.366  1.2362 -0.5790 -1.9712
   24SAPC  H10Y 3223   1.641   2.968   9.404 -0.2558  0.5174  2.9719
   24SAPC  C311 3224   1.507   3.103   9.296 -0.0304  0.1709 -0.0200
   24SAPC  H11X 3225   1.566   3.190   9.330 -0.6236  0.2261  0.9110
   24SAPC  H11Y 3226   1.400   3.133   9.309  0.5660  2.1369  0.6351
   24SAPC  C312 3227   1.546   3.060   9.160 -0.9094 -0.4756  0.6490
   24SAPC  H12X 3228   1.502   2.960   9.141  1.2366 -1.4710  0.5872
   24SAPC  H12Y 3229   1.655   3.048   9.137 -1.1361 -0.4901 -0.5076
   24SAPC  C313 3230   1.490   3.159   9.051 -0.2593  0.0322  0.4456
   24SAPC  H13X 3231   1.550   3.252   9.061 -1.5188  1.1022 -1.4902
   24SAPC  H13Y 3232   1.380   3.163   9.064 -0.2808 -2.9225  2.3474
   24SAPC  C314 3233   1.505   3.103   8.907 -0.0612  0.9241  1.0432
   24SAPC  H14X 3234   1.468   2.998   8.904 -0.0603  0.9357  0.4765
   24SAPC  H14Y 3235   1.611   3.107   8.876 -0.2336  0.8484  0.4274
   24SAPC  C315 3236   1.420   3.180   8.804  0.0003  0.4018 -0.0586
   24SAPC  H15X 3237   1.429   3.290   8.817 -0.4829  0.4674 -0.2781
   24SAPC  H15Y 3238   1.316   3.160   8.838 -0.7802  3.0095 -0.6878
   24SAPC  C316 3239   1.420   3.144   8.655 -0.0054 -0.2321  0.0901
   24SAPC  H16X 3240   1.410   3.035   8.638  0.4634 -0.1478 -0.8263
   24SAPC  H16Y 3241   1.521   3.159   8.610 -0.2602 -1.3065 -0.8884
   24SAPC  C317 3242   1.312   3.221   8.578  0.1713 -0.7264 -0.2687
   24SAPC  H17X 3243   1.325   3.182   8.475  2.2116 -0.8311 -0.0110
   24SAPC  H17Y 3244   1.330   3.331   8.582  0.4949 -0.6529 -2.6729
   24SAPC  C318 3245   1.168   3.191   8.624 -0.1015 -0.2282  0.1195
   24SAPC  H18X 3246   1.135   3.248   8.714 -0.6469 -2.5333  1.4554
   24SAPC  H18Y 3247   1.148   3.083   8.639 -0.6564 -0.6171 -2.7820
   24SAPC  H18Z 3248   1.092   3.226   8.550 -0.8698  0.8884  1.3766
   25SAPC     N 3249   6.522   6.347   5.940 -0.4783  0.1965  0.4861
   25SAPC   C12 3250   6.589   6.405   6.062 -0.7771 -0.6269 -0.0432
   25SAPC  H12A 3251   6.553   6.506   6.069 -0.0663 -0.0533 -3.2570
   25SAPC  H12B 3252   6.697   6.401   6.057 -0.8017 -3.2492 -0.0802
   25SAPC   C13 3253   6.555   6.203   5.923  0.0144  0.4057 -0.2577
   25SAPC  H13A 3254   6.647   6.184   5.868  0.9066 -1.5611  1.7421
   25SAPC  H13B 3255   6.559   6.146   6.014  0.6574 -1.8482 -1.6179
   25SAPC  H13C 3256   6.484   6.150   5.863  1.5708 -1.2063 -0.7708
   25SAPC   C14 3257   6.370   6.357   5.936 -0.9100 -0.5388  0.5060
   25SAPC  H14A 3258   6.338   6.460   5.926  0.3231 -0.3594 -2.3086
   25SAPC  H14B 3259   6.329   6.306   5.851  1.7603  0.9232 -1.8000
   25SAPC  H14C 3260   6.326   6.325   6.030  0.9997  0.1962  1.7031
   25SAPC   C15 3261   6.571   6.412   5.811  0.2903  0.4127 -0.0727
   25SAPC  H15A 3262   6.562   6.519   5.815  1.7798  0.5848 -0.8408
   25SAPC  H15B 3263   6.666   6.372   5.780 -0.2780  2.1022 -4.8986
   25SAPC  H15C 3264   6.506   6.387   5.728 -1.1936 -2.2569  1.6951
   25SAPC   C11 3265   6.554   6.334   6.197  0.6710 -0.5949 -0.9126
   25SAPC  H11A 3266   6.444   6.320   6.189  0.7167 -0.2317 -2.5397
   25SAPC  H11B 3267   6.583   6.394   6.286  1.8064 -0.1008 -1.5960
   25SAPC     P 3268   6.771   6.200   6.245 -0.0297 -0.2213 -0.5217
   25SAPC   O13 3269   6.807   6.057   6.230  0.5725 -0.1674 -1.0478
   25SAPC   O14 3270   6.840   6.302   6.155 -0.6357  0.3863 -0.0961
   25SAPC   O12 3271   6.619   6.210   6.208  0.0144 -0.0084 -0.1323
   25SAPC   O11 3272   6.764   6.249   6.399 -0.7189 -0.3169  0.1857
   25SAPC    C1 3273   6.703   6.156   6.491 -0.2664  0.0646  0.5102
   25SAPC    HA 3274   6.690   6.056   6.445 -0.3207  0.6042 -0.6891
   25SAPC    HB 3275   6.773   6.143   6.576 -0.9720 -1.2348  0.9196
   25SAPC    C2 3276   6.572   6.208   6.557  0.3574  0.9765 -0.4658
   25SAPC    HS 3277   6.507   6.223   6.468 -0.1309 -0.7700 -0.4284
   25SAPC   O21 3278   6.597   6.329   6.632 -0.0704  0.6499 -0.1706
   25SAPC   C21 3279   6.482   6.407   6.629  0.2060  0.2871 -0.6673
   25SAPC   O22 3280   6.378   6.368   6.581 -0.3985  0.5404  0.2884
   25SAPC   C22 3281   6.505   6.538   6.705 -0.0846  0.0644  0.4819
   25SAPC   H2R 3282   6.546   6.517   6.806 -0.9145  2.8461  1.5070
   25SAPC   H2S 3283   6.584   6.592   6.647 -0.0821 -0.4647 -0.0145
   25SAPC    C3 3284   6.501   6.095   6.646 -0.5013  0.1944  0.2661
   25SAPC    HX 3285   6.484   6.009   6.577  0.4380 -1.6580  2.1975
   25SAPC    HY 3286   6.410   6.148   6.679  0.0803  0.9996  0.6096
   25SAPC   O31 3287   6.596   6.069   6.760 -0.4311 -0.2191 -0.5373
   25SAPC   C31 3288   6.528   6.045   6.874 -0.0955  0.1812 -0.4994
   25SAPC   O32 3289   6.410   6.023   6.886 -0.6128  0.4862  0.7996
   25SAPC   C32 3290   6.624   6.048   6.991  0.5573  0.2186 -0.5584
   25SAPC   H2X 3291   6.715   6.098   6.951  1.3930 -0.2709  0.6649
   25SAPC   H2Y 3292   6.645   5.945   7.025 -0.4623  0.0666 -0.3466
   25SAPC   C23 3293   6.386   6.635   6.707 -0.2950  0.5576  0.4969
   25SAPC   H3R 3294   6.349   6.646   6.603 -0.2082  0.1035  0.4182
   25SAPC   H3S 3295   6.446   6.728   6.722  2.8250 -1.2420  0.0107
   25SAPC   C24 3296   6.271   6.592   6.802 -0.2667 -0.4602  0.3673
   25SAPC   H4R 3297   6.220   6.509   6.749  0.1658  1.1504 -2.7801
   25SAPC   H4S 3298   6.203   6.680   6.797 -0.1354 -0.3901 -0.1644
   25SAPC   C25 3299   6.319   6.576   6.943 -0.5350 -0.4676 -0.1839
   25SAPC   H5R 3300   6.340   6.668   7.000 -3.1133 -1.4044  2.5973
   25SAPC   C26 3301   6.316   6.464   7.012 -0.2162 -0.0429  0.1693
   25SAPC   H6R 3302   6.368   6.463   7.109  1.5172  0.6042 -0.7128
   25SAPC   C27 3303   6.264   6.334   6.955  0.0114  0.1888 -0.1926
   25SAPC   H7R 3304   6.320   6.243   6.985 -2.1833 -0.3499  2.6679
   25SAPC   H7S 3305   6.262   6.327   6.845 -1.0316  1.1768 -0.2520
   25SAPC   C28 3306   6.124   6.306   7.002  0.0356 -0.2843  0.0809
   25SAPC   H8R 3307   6.046   6.363   6.950  1.6922  2.2893  0.2529
   25SAPC   C29 3308   6.078   6.208   7.083 -0.7000 -0.2520  0.0748
   25SAPC   H9R 3309   5.971   6.211   7.110 -0.9739 -2.5455 -0.6148
   25SAPC  C210 3310   6.165   6.108   7.158  0.3312 -0.4004 -0.4505
   25SAPC  H10R 3311   6.249   6.164   7.204 -1.7783  1.1314  1.8478
   25SAPC  H10S 3312   6.212   6.049   7.077  0.7631 -1.2898  0.4237
   25SAPC  C211 3313   6.112   6.003   7.255  0.2638  0.1675 -0.7341
   25SAPC  H11R 3314   6.106   5.897   7.227  0.2916 -0.3923  1.2458
   25SAPC  C212 3315   6.069   6.031   7.382 -0.4487 -0.8374 -0.9141
   25SAPC  H12R 3316   6.022   5.953   7.444  2.2092 -1.9649 -0.1933
   25SAPC  C213 3317   6.076   6.167   7.444 -0.6005  0.2844  0.0391
   25SAPC  H13R 3318   5.987   6.220   7.405 -0.7940  0.7919  1.1288
   25SAPC  H13S 3319   6.159   6.227   7.400 -0.3000 -1.8485 -2.5298
   25SAPC  C214 3320   6.062   6.164   7.590  0.1674 -1.1324 -0.0981
   25SAPC  H14R 3321   6.155   6.152   7.648  0.9468 -1.2202 -1.3425
   25SAPC  C215 3322   5.957   6.158   7.673  0.3842 -0.5490 -0.1506
   25SAPC  H15R 3323   5.972   6.142   7.780  0.6316 -2.9198 -0.4876
   25SAPC  C216 3324   5.807   6.160   7.651  0.8164 -0.4596  0.1562
   25SAPC  H16R 3325   5.751   6.073   7.690 -1.7251  1.4707  1.1351
   25SAPC  H16S 3326   5.788   6.171   7.542 -0.3054 -1.2805  0.2570
   25SAPC  C217 3327   5.745   6.281   7.716  0.4787  0.2148  0.2984
   25SAPC  H17R 3328   5.635   6.268   7.712  0.5932 -1.0627  0.9969
   25SAPC  H17S 3329   5.768   6.375   7.661  1.7626  0.2545  0.8670
   25SAPC  C218 3330   5.780   6.298   7.863  0.2280 -0.2397 -0.4062
   25SAPC  H18R 3331   5.738   6.397   7.892 -1.0071 -0.5502 -1.0702
   25SAPC  H18S 3332   5.889   6.316   7.877  0.0036  1.9176 -1.0049
   25SAPC  C219 3333   5.744   6.179   7.955 -0.7612  0.1344  0.5350
   25SAPC  H19R 3334   5.824   6.158   8.030 -0.4355 -1.0572 -0.1160
   25SAPC  H19S 3335   5.740   6.088   7.892  0.1447 -0.6106  1.5086
   25SAPC  C220 3336   5.609   6.192   8.022  0.4284  0.0773 -0.3297
   25SAPC  H20R 3337   5.608   6.118   8.105 -1.8477  2.5930  2.0854
   25SAPC  H20S 3338   5.532   6.183   7.942  1.7991 -2.1211 -1.5139
   25SAPC  H20T 3339   5.598   6.283   8.085 -2.7833 -1.3549  1.4159
   25SAPC   C33 3340   6.578   6.127   7.125  0.6727 -0.5524 -0.5398
   25SAPC   H3X 3341   6.484   6.084   7.167  0.5534 -0.5704 -0.8235
   25SAPC   H3Y 3342   6.544   6.227   7.089 -1.1556 -0.2121  1.8459
   25SAPC   C34 3343   6.680   6.154   7.232 -0.1386 -0.3085 -0.7262
   25SAPC   H4X 3344   6.773   6.199   7.192 -0.0042 -1.0270 -1.2385
   25SAPC   H4Y 3345   6.711   6.057   7.276 -3.8105 -0.9079  0.9052
   25SAPC   C35 3346   6.624   6.247   7.336  0.4122 -0.1258  0.1766
   25SAPC   H5X 3347   6.608   6.342   7.280 -0.5655 -2.2421 -3.4940
   25SAPC   H5Y 3348   6.700   6.266   7.415 -1.6872  2.8288  1.7077
   25SAPC   C36 3349   6.498   6.194   7.407  0.3018  0.2782  0.0252
   25SAPC   H6X 3350   6.515   6.090   7.443 -1.2438  0.1968  0.6374
   25SAPC   H6Y 3351   6.424   6.196   7.324  0.1653  2.5283  0.1250
   25SAPC   C37 3352   6.447   6.287   7.516  0.4660 -0.5425 -0.1111
   25SAPC   H7X 3353   6.337   6.277   7.527  0.3642  1.4155  1.1187
   25SAPC   H7Y 3354   6.450   6.394   7.487  1.6602 -0.2801  0.9021
   25SAPC   C38 3355   6.516   6.266   7.656  0.3031  0.5051 -0.2521
   25SAPC   H8X 3356   6.619   6.309   7.653  0.1714  0.8551 -3.4342
   25SAPC   H8Y 3357   6.526   6.158   7.675 -0.3954  0.2897 -1.0442
   25SAPC   C39 3358   6.438   6.334   7.778 -0.0092  0.4158  0.4715
   25SAPC   H9X 3359   6.338   6.288   7.798  0.1394 -0.1439 -0.0455
   25SAPC   H9Y 3360   6.422   6.437   7.738 -0.9008 -0.6980 -2.2648
   25SAPC  C310 3361   6.531   6.351   7.900  0.5750  0.1994 -0.8970
   25SAPC  H10X 3362   6.616   6.421   7.886 -1.9161  3.7373  0.2254
   25SAPC  H10Y 3363   6.553   6.244   7.918 -2.7024 -0.1252  2.4126
   25SAPC  C311 3364   6.451   6.410   8.025  0.2425  0.7174  0.5953
   25SAPC  H11X 3365   6.358   6.350   8.036 -0.9989  2.1879 -1.2125
   25SAPC  H11Y 3366   6.409   6.513   8.019 -0.7252  0.5718  3.5494
   25SAPC  C312 3367   6.536   6.424   8.152  0.5257 -0.4243 -0.2465
   25SAPC  H12X 3368   6.626   6.486   8.132 -0.8255  1.8068  0.3682
   25SAPC  H12Y 3369   6.555   6.316   8.170 -2.7340 -1.4530 -2.1227
   25SAPC  C313 3370   6.462   6.496   8.269 -0.2646 -0.1529  0.5523
   25SAPC  H13X 3371   6.374   6.550   8.228  0.3756  2.3034  2.1696
   25SAPC  H13Y 3372   6.525   6.574   8.316 -0.7221  2.5706 -2.9114
   25SAPC  C314 3373   6.413   6.397   8.375  0.1434 -0.3564  0.2609
   25SAPC  H14X 3374   6.493   6.324   8.398  0.2831 -0.6864 -1.1532
   25SAPC  H14Y 3375   6.331   6.345   8.320  0.8287  0.5940 -1.7884
   25SAPC  C315 3376   6.374   6.456   8.508  0.5232 -0.4008 -0.7091
   25SAPC  H15X 3377   6.331   6.558   8.495 -0.6736 -0.7939 -0.0519
   25SAPC  H15Y 3378   6.466   6.471   8.567  0.7237  0.2300 -1.1707
   25SAPC  C316 3379   6.288   6.358   8.594  0.8585 -0.0330 -0.2894
   25SAPC  H16X 3380   6.196   6.330   8.539 -0.3169  1.2079  0.9582
   25SAPC  H16Y 3381   6.257   6.413   8.685  1.2185 -0.9139  0.3745
   25SAPC  C317 3382   6.358   6.231   8.630 -0.5866 -0.2181  0.5846
   25SAPC  H17X 3383   6.457   6.266   8.665  0.6447  0.2305 -3.0106
   25SAPC  H17Y 3384   6.369   6.173   8.536 -0.3827 -0.2363  0.6193
   25SAPC  C318 3385   6.293   6.146   8.740  0.3742  0.1142  0.1147
   25SAPC  H18X 3386   6.193   6.117   8.699  0.4468 -1.2407  0.8350
   25SAPC  H18Y 3387   6.283   6.191   8.840 -0.7771  0.0065  0.0671
   25SAPC  H18Z 3388   6.348   6.049   8.741  1.6779  0.7268 -2.5556
   26SAPC     N 3389   5.142   0.198   6.276 -0.4850  0.1466 -0.1056
   26SAPC   C12 3390   5.110   0.048   6.293 -1.2181  0.1827 -0.2128
   26SAPC  H12A 3391   5.135  -0.018   6.211 -1.0881 -2.4002  1.7684
   26SAPC  H12B 3392   5.004   0.030   6.303 -1.3867  0.6364 -1.0943
   26SAPC   C13 3393   5.069   0.252   6.157 -0.9002  0.6779 -0.0307
   26SAPC  H13A 3394   4.963   0.245   6.176 -0.7640  1.1763  0.9427
   26SAPC  H13B 3395   5.108   0.351   6.139  2.0454 -0.0231  1.7543
   26SAPC  H13C 3396   5.080   0.198   6.064 -2.2602 -0.6207  0.5166
   26SAPC   C14 3397   5.111   0.275   6.397 -0.0117 -0.1900 -0.1647
   26SAPC  H14A 3398   5.151   0.238   6.491 -0.2607  0.9584  0.4054
   26SAPC  H14B 3399   5.125   0.378   6.368 -0.3613  0.2622  1.2047
   26SAPC  H14C 3400   5.004   0.271   6.411 -0.0184 -0.2287 -0.2276
   26SAPC   C15 3401   5.289   0.220   6.260 -0.8266  0.3304 -0.3601
   26SAPC  H15A 3402   5.324   0.183   6.164  0.5861  0.4525  0.0883
   26SAPC  H15B 3403   5.299   0.327   6.266 -1.6845  0.3932  0.0958
   26SAPC  H15C 3404   5.336   0.164   6.339 -2.5190  0.0751  0.5152
   26SAPC   C11 3405   5.170  -0.028   6.419  0.3139 -0.4568  0.9741
   26SAPC  H11A 3406   5.127  -0.128   6.437  1.6245 -1.7096 -2.1900
   26SAPC  H11B 3407   5.141   0.036   6.505 -0.7934  0.6070 -0.1441
   26SAPC     P 3408   5.381  -0.065   6.565 -0.0907 -0.0892  0.2619
   26SAPC   O13 3409   5.300  -0.151   6.655  0.1735 -0.7456  0.0065
   26SAPC   O14 3410   5.520  -0.107   6.533  0.7561 -0.2365  0.4948
   26SAPC   O12 3411   5.312  -0.048   6.420 -0.3716 -0.1947 -0.0675
   26SAPC   O11 3412   5.392   0.084   6.628 -0.3937 -0.0778  0.4915
   26SAPC    C1 3413   5.524   0.143   6.657 -0.0900 -0.7035 -0.4722
   26SAPC    HA 3414   5.593   0.138   6.571  1.2704 -1.7992  0.6363
   26SAPC    HB 3415   5.508   0.251   6.674 -0.3370 -0.3957 -2.4255
   26SAPC    C2 3416   5.605   0.091   6.784  0.0896 -0.2053  0.2208
   26SAPC    HS 3417   5.624  -0.014   6.751 -3.6094 -1.0304  0.2609
   26SAPC   O21 3418   5.510   0.083   6.886  0.8837  0.2893  0.0982
   26SAPC   C21 3419   5.485  -0.023   6.951 -0.5722 -0.2043 -0.5069
   26SAPC   O22 3420   5.537  -0.133   6.935  0.6305  0.2361 -0.4925
   26SAPC   C22 3421   5.373  -0.012   7.051 -0.9709  0.0361 -0.0919
   26SAPC   H2R 3422   5.302   0.064   7.013 -0.9804 -1.2641 -2.9313
   26SAPC   H2S 3423   5.331  -0.115   7.059 -1.0182  0.1245  0.9360
   26SAPC    C3 3424   5.741   0.154   6.822 -0.6745  0.3816 -0.5566
   26SAPC    HX 3425   5.739   0.265   6.834  2.7492  0.7624 -2.0670
   26SAPC    HY 3426   5.812   0.134   6.738  1.0025  1.3322  0.5552
   26SAPC   O31 3427   5.798   0.088   6.939 -0.2108 -0.2646  0.3675
   26SAPC   C31 3428   5.868  -0.027   6.916  0.2063 -0.4396  0.0736
   26SAPC   O32 3429   5.895  -0.067   6.803 -0.1512 -0.3872  0.0127
   26SAPC   C32 3430   5.925  -0.081   7.047  0.3015  0.9457  0.0247
   26SAPC   H2X 3431   5.877  -0.027   7.132  1.3166  3.7662 -1.0677
   26SAPC   H2Y 3432   6.035  -0.069   7.038  0.6206 -0.4953  1.5860
   26SAPC   C23 3433   5.424   0.034   7.189 -0.1511 -0.2426  0.2202
   26SAPC   H3R 3434   5.515  -0.017   7.227 -1.8582 -0.1186  5.2510
   26SAPC   H3S 3435   5.342  -0.001   7.256  1.0027 -1.2570  1.1522
   26SAPC   C24 3436   5.440   0.183   7.187  0.5846  0.0559 -0.0910
   26SAPC   H4R 3437   5.438   0.214   7.294  0.7835 -1.0824  0.2601
   26SAPC   H4S 3438   5.360   0.229   7.125 -1.4136 -0.9555  1.6135
   26SAPC   C25 3439   5.576   0.232   7.134  0.0602  0.9726  0.2170
   26SAPC   H5R 3440   5.579   0.276   7.033 -0.9092 -0.2948 -0.3856
   26SAPC   C26 3441   5.692   0.244   7.198  0.1900  0.1499 -0.0560
   26SAPC   H6R 3442   5.773   0.300   7.149  0.3936  1.1575  1.3762
   26SAPC   C27 3443   5.712   0.200   7.338  0.3861 -0.4532  0.2455
   26SAPC   H7R 3444   5.749   0.095   7.348  1.9810  0.0445 -0.2085
   26SAPC   H7S 3445   5.616   0.222   7.390  0.8613  1.1714  0.4855
   26SAPC   C28 3446   5.812   0.290   7.404 -0.1162  0.5876  0.3406
   26SAPC   H8R 3447   5.804   0.396   7.374 -1.0825  0.6377  0.7395
   26SAPC   C29 3448   5.916   0.248   7.481 -0.3607 -0.0236 -0.3830
   26SAPC   H9R 3449   5.971   0.326   7.536  2.4386 -1.3468 -1.1519
   26SAPC  C210 3450   5.960   0.119   7.535  0.8598  0.4500  0.4496
   26SAPC  H10R 3451   6.064   0.129   7.574  0.6670  1.1947  0.7987
   26SAPC  H10S 3452   5.967   0.037   7.461  0.9388  0.5622  0.3311
   26SAPC  C211 3453   5.872   0.076   7.653 -0.3349 -0.1238 -0.6124
   26SAPC  H11R 3454   5.792   0.001   7.640 -2.4899  1.4691  2.4057
   26SAPC  C212 3455   5.903   0.093   7.781 -0.6790 -0.0768 -0.8257
   26SAPC  H12R 3456   5.826   0.088   7.859 -0.3470  0.0267 -0.4925
   26SAPC  C213 3457   6.020   0.174   7.836  0.2722  0.3403 -0.0360
   26SAPC  H13R 3458   6.089   0.210   7.756 -0.7348  2.2359 -0.1175
   26SAPC  H13S 3459   6.070   0.108   7.910 -2.5273 -0.4311  1.3076
   26SAPC  C214 3460   5.963   0.300   7.902 -0.0059  0.0926 -0.2414
   26SAPC  H14R 3461   5.877   0.344   7.850  0.0857  1.7728  0.9660
   26SAPC  C215 3462   6.006   0.360   8.014  0.7496 -0.5296  0.1676
   26SAPC  H15R 3463   5.966   0.459   8.041  0.3929 -0.1574 -1.6116
   26SAPC  C216 3464   6.122   0.316   8.093  0.7980 -0.4485 -0.2802
   26SAPC  H16R 3465   6.185   0.408   8.087  0.4352 -0.2243 -0.7274
   26SAPC  H16S 3466   6.188   0.236   8.055  1.7593  0.6701 -1.0423
   26SAPC  C217 3467   6.099   0.288   8.243  0.9248  0.2023  0.4894
   26SAPC  H17R 3468   6.059   0.184   8.241  0.0844  0.5235  0.0884
   26SAPC  H17S 3469   6.022   0.354   8.289 -1.2796 -3.1070  1.9527
   26SAPC  C218 3470   6.229   0.291   8.325  0.0841  0.5811 -0.4366
   26SAPC  H18R 3471   6.270   0.394   8.320 -2.2886  1.6276  0.4461
   26SAPC  H18S 3472   6.297   0.216   8.277 -0.6697 -0.3942 -0.0222
   26SAPC  C219 3473   6.211   0.249   8.475  0.3348  0.5598  0.0028
   26SAPC  H19R 3474   6.155   0.154   8.472  0.1673  0.4721  3.0849
   26SAPC  H19S 3475   6.148   0.324   8.528 -1.5115 -2.1533  1.8512
   26SAPC  C220 3476   6.346   0.234   8.544  0.0004 -0.0667 -0.7653
   26SAPC  H20R 3477   6.404   0.328   8.533  0.3760 -0.3887 -1.6992
   26SAPC  H20S 3478   6.409   0.154   8.501  0.8217  0.0262  0.2368
   26SAPC  H20T 3479   6.325   0.212   8.650  0.1564 -0.1623 -0.7551
   26SAPC   C33 3480   5.895  -0.229   7.069  0.0019  0.6282  1.4878
   26SAPC   H3X 3481   5.954  -0.295   7.001 -2.3143 -1.1060  1.0433
   26SAPC   H3Y 3482   5.789  -0.248   7.042  0.1552  1.7060  0.0096
   26SAPC   C34 3483   5.908  -0.271   7.215  0.5056  0.3077 -0.1300
   26SAPC   H4X 3484   5.886  -0.380   7.224  0.3839  0.4094  0.8562
   26SAPC   H4Y 3485   5.832  -0.218   7.277  1.2471  3.3666 -1.6504
   26SAPC   C35 3486   6.040  -0.246   7.277 -0.5954  0.2226  0.5578
   26SAPC   H5X 3487   6.069  -0.139   7.275 -1.1049  0.4459  2.6619
   26SAPC   H5Y 3488   6.123  -0.307   7.235 -2.6974 -2.1105 -0.4399
   26SAPC   C36 3489   6.037  -0.269   7.429  0.4536  0.6422  0.6272
   26SAPC   H6X 3490   6.019  -0.377   7.445 -1.0920  0.7959  0.1428
   26SAPC   H6Y 3491   5.953  -0.215   7.479 -2.1443 -1.9367 -0.6678
   26SAPC   C37 3492   6.174  -0.243   7.483 -0.0508  0.3769  0.2263
   26SAPC   H7X 3493   6.198  -0.135   7.481  0.9345  0.1675 -0.1297
   26SAPC   H7Y 3494   6.252  -0.286   7.416  0.4683  1.7242 -0.0655
   26SAPC   C38 3495   6.202  -0.291   7.630  0.2135 -0.2034  0.1451
   26SAPC   H8X 3496   6.278  -0.218   7.666 -1.9085  2.8241 -1.1228
   26SAPC   H8Y 3497   6.230  -0.398   7.633 -1.9047 -0.7706  1.9323
   26SAPC   C39 3498   6.084  -0.266   7.731 -1.1395  0.7387 -1.0031
   26SAPC   H9X 3499   6.001  -0.340   7.728 -0.5222 -0.0727  0.7075
   26SAPC   H9Y 3500   6.036  -0.168   7.709 -0.8299  0.3107 -3.8936
   26SAPC  C310 3501   6.137  -0.273   7.874  0.3429  0.6357 -0.9595
   26SAPC  H10X 3502   6.212  -0.191   7.872  0.1884  0.7765 -1.1132
   26SAPC  H10Y 3503   6.189  -0.369   7.894  0.8490  0.9986 -0.5295
   26SAPC  C311 3504   6.029  -0.252   7.985  0.4315  0.4514 -0.6041
   26SAPC  H11X 3505   5.968  -0.344   7.995 -1.7938  2.0854  2.3145
   26SAPC  H11Y 3506   5.963  -0.164   7.970 -0.4211 -0.0682  0.0884
   26SAPC  C312 3507   6.106  -0.231   8.126  0.4130  0.0340 -0.3542
   26SAPC  H12X 3508   6.197  -0.171   8.106  0.3238  0.7246  1.1783
   26SAPC  H12Y 3509   6.135  -0.333   8.162  0.5936 -0.7838 -2.6835
   26SAPC  C313 3510   6.008  -0.177   8.233 -0.1797 -0.2430 -0.4166
   26SAPC  H13X 3511   5.931  -0.256   8.241 -0.5229  0.0736 -0.5858
   26SAPC  H13Y 3512   5.933  -0.099   8.210  1.2998  0.9617 -1.2938
   26SAPC  C314 3513   6.063  -0.162   8.377  0.1044  0.7832 -0.1633
   26SAPC  H14X 3514   6.156  -0.103   8.365  0.6066  0.1763  0.6398
   26SAPC  H14Y 3515   6.105  -0.263   8.397  4.0244  1.0365 -5.0761
   26SAPC  C315 3516   5.959  -0.117   8.483  0.6769  0.0684 -0.0450
   26SAPC  H15X 3517   5.874  -0.187   8.496 -1.2830  2.6950  2.2574
   26SAPC  H15Y 3518   5.904  -0.025   8.453  0.9847  1.1779  2.5100
   26SAPC  C316 3519   6.022  -0.083   8.612 -0.0801 -0.8715  1.4798
   26SAPC  H16X 3520   5.976   0.012   8.645 -1.3377 -0.5195 -1.0702
   26SAPC  H16Y 3521   6.129  -0.053   8.611 -0.5711  0.9381  0.6702
   26SAPC  C317 3522   5.994  -0.189   8.724 -0.1902 -0.1136 -0.1954
   26SAPC  H17X 3523   6.044  -0.284   8.695 -1.3048 -1.1506  1.1278
   26SAPC  H17Y 3524   5.886  -0.213   8.725  0.1390 -1.7239 -0.1428
   26SAPC  C318 3525   6.044  -0.153   8.867  0.0893  0.1131  1.0172
   26SAPC  H18X 3526   6.149  -0.121   8.849 -0.6496  1.8161 -0.4311
   26SAPC  H18Y 3527   6.039  -0.243   8.932  2.0721 -1.5599 -0.9834
   26SAPC  H18Z 3528   5.993  -0.066   8.913  2.6456  2.0318  0.4178
   27SAPC     N 3529   4.323   4.344   6.318  0.4228 -0.6017 -0.2711
   27SAPC   C12 3530   4.328   4.359   6.467  0.0194  0.0130 -0.4547
   27SAPC  H12A 3531   4.415   4.413   6.504  1.1893 -1.0235 -1.6043
   27SAPC  H12B 3532   4.342   4.260   6.508  0.9545 -0.3857 -1.6790
   27SAPC   C13 3533   4.464   4.332   6.279  0.5982 -0.2957  0.3713
   27SAPC  H13A 3534   4.462   4.301   6.175 -0.2403 -3.3650  1.1771
   27SAPC  H13B 3535   4.519   4.423   6.296  1.2665 -0.1687 -2.0456
   27SAPC  H13C 3536   4.512   4.257   6.341 -0.1958 -0.0249  1.3336
   27SAPC   C14 3537   4.237   4.229   6.275  0.2357 -0.0813  0.3127
   27SAPC  H14A 3538   4.270   4.139   6.325  0.4733 -0.7061 -0.9495
   27SAPC  H14B 3539   4.131   4.241   6.293  0.4252  3.6698 -0.2276
   27SAPC  H14C 3540   4.254   4.212   6.170 -1.8836 -0.8611  0.0695
   27SAPC   C15 3541   4.272   4.476   6.270 -0.4085  0.4676  1.0830
   27SAPC  H15A 3542   4.172   4.493   6.306 -0.5596  0.3499  0.7205
   27SAPC  H15B 3543   4.322   4.558   6.320 -0.1504  0.7265  0.4160
   27SAPC  H15C 3544   4.284   4.490   6.164 -1.4402  2.5425  1.1916
   27SAPC   C11 3545   4.219   4.430   6.531  0.1619  0.1251  0.6741
   27SAPC  H11A 3546   4.226   4.536   6.499 -1.1025 -0.5804 -2.2275
   27SAPC  H11B 3547   4.238   4.432   6.641 -1.3195  1.5988  0.9378
   27SAPC     P 3548   4.011   4.302   6.620 -0.3054 -0.0145  0.1680
   27SAPC   O13 3549   3.881   4.254   6.562  0.3790  0.0869 -0.0453
   27SAPC   O14 3550   4.104   4.197   6.660  0.4198  0.3924  0.5731
   27SAPC   O12 3551   4.087   4.382   6.508 -0.3346 -0.4083  0.1977
   27SAPC   O11 3552   3.977   4.407   6.733  0.5400  0.4795  0.7886
   27SAPC    C1 3553   3.892   4.359   6.840 -0.8536  0.3330 -0.6228
   27SAPC    HA 3554   3.814   4.287   6.809 -0.0386 -0.7114 -0.3021
   27SAPC    HB 3555   3.952   4.290   6.903  1.2087  0.2006 -2.5982
   27SAPC    C2 3556   3.834   4.476   6.926  0.7412  0.3585  0.2192
   27SAPC    HS 3557   3.759   4.516   6.854  1.0870 -0.4836 -0.6254
   27SAPC   O21 3558   3.934   4.574   6.955 -0.2162  0.4327  0.7580
   27SAPC   C21 3559   3.949   4.677   6.881  0.3837  0.1406 -0.8847
   27SAPC   O22 3560   3.863   4.709   6.797  0.0750 -0.0552  0.3558
   27SAPC   C22 3561   4.085   4.740   6.912 -0.1054  0.2578  0.3088
   27SAPC   H2R 3562   4.120   4.706   7.012  0.4975 -0.6476 -0.1901
   27SAPC   H2S 3563   4.156   4.708   6.832 -0.5158  1.5773 -0.6098
   27SAPC    C3 3564   3.765   4.420   7.051  0.2693  0.0894 -0.0060
   27SAPC    HX 3565   3.677   4.364   7.012 -0.1643  1.0910 -0.4874
   27SAPC    HY 3566   3.722   4.508   7.103 -1.3685 -1.3733  1.2453
   27SAPC   O31 3567   3.835   4.332   7.138 -0.6268  0.3363 -0.3589
   27SAPC   C31 3568   3.775   4.212   7.175  0.0229  0.0464  0.0793
   27SAPC   O32 3569   3.667   4.177   7.136 -0.3890  0.3265 -0.3106
   27SAPC   C32 3570   3.865   4.137   7.271 -0.1377 -0.0323  0.1614
   27SAPC   H2X 3571   3.970   4.171   7.277 -0.3454  0.7029 -0.2894
   27SAPC   H2Y 3572   3.855   4.030   7.243  0.4457  0.3430 -1.5908
   27SAPC   C23 3573   4.083   4.894   6.915 -0.5030  0.3786  0.3634
   27SAPC   H3R 3574   4.023   4.927   6.827 -0.9148 -1.4727 -0.0951
   27SAPC   H3S 3575   4.182   4.945   6.907 -0.5462  0.7613  2.0189
   27SAPC   C24 3576   4.031   4.942   7.053  0.0744 -1.0721 -0.0259
   27SAPC   H4R 3577   4.037   5.052   7.059  0.8877 -1.1419  0.4922
   27SAPC   H4S 3578   4.106   4.911   7.129 -0.3090 -0.6909  0.5181
   27SAPC   C25 3579   3.897   4.894   7.104  0.4535  0.1889 -0.0332
   27SAPC   H5R 3580   3.823   4.878   7.024 -0.3048 -1.4819  0.9435
   27SAPC   C26 3581   3.858   4.874   7.234  0.1333 -0.7330  0.1219
   27SAPC   H6R 3582   3.756   4.837   7.248 -0.5204  0.4412 -1.3163
   27SAPC   C27 3583   3.946   4.896   7.357 -0.2855  0.3997 -0.7409
   27SAPC   H7R 3584   3.893   4.956   7.435 -1.5309  0.4189 -1.5781
   27SAPC   H7S 3585   4.040   4.950   7.331 -0.5942  0.9257 -0.7763
   27SAPC   C28 3586   3.984   4.762   7.410  0.3452  0.0073  0.3379
   27SAPC   H8R 3587   4.018   4.694   7.331  0.8620 -0.3562  0.8730
   27SAPC   C29 3588   3.972   4.722   7.540 -0.6654  0.4696  0.3331
   27SAPC   H9R 3589   4.009   4.621   7.560 -1.5551  0.1411  0.3347
   27SAPC  C210 3590   3.919   4.809   7.651  0.6262 -0.2512  0.0739
   27SAPC  H10R 3591   3.831   4.860   7.607 -0.8264 -2.0366  0.7910
   27SAPC  H10S 3592   3.990   4.892   7.671  1.9079 -0.8581 -1.6872
   27SAPC  C211 3593   3.862   4.736   7.774  0.0528 -0.1117 -0.2043
   27SAPC  H11R 3594   3.769   4.684   7.747  0.2857 -0.1842 -0.8792
   27SAPC  C212 3595   3.911   4.728   7.897  0.2330  0.6017 -0.8415
   27SAPC  H12R 3596   3.846   4.681   7.972 -1.3731  1.8790 -1.3758
   27SAPC  C213 3597   4.029   4.797   7.951 -0.5325 -0.4511 -0.3978
   27SAPC  H13R 3598   4.084   4.856   7.874 -0.5056  1.5602  1.0821
   27SAPC  H13S 3599   4.112   4.727   7.977  0.1577  0.0377 -1.2123
   27SAPC  C214 3600   3.987   4.890   8.069  0.2106 -0.3674  0.1811
   27SAPC  H14R 3601   3.939   4.984   8.040  1.1974  1.2091  3.2517
   27SAPC  C215 3602   4.019   4.865   8.197 -0.6686 -0.2105 -0.0674
   27SAPC  H15R 3603   3.981   4.937   8.271  1.3111  1.0139 -0.1541
   27SAPC  C216 3604   4.086   4.751   8.262 -0.6024 -0.4215  0.3589
   27SAPC  H16R 3605   4.187   4.786   8.291 -0.2260  1.3860 -2.6715
   27SAPC  H16S 3606   4.106   4.661   8.200  1.5477 -0.2734  0.7839
   27SAPC  C217 3607   4.013   4.715   8.388  0.4022  0.1142  0.2502
   27SAPC  H17R 3608   4.059   4.622   8.427 -3.2081 -1.5031  1.1091
   27SAPC  H17S 3609   3.914   4.671   8.363  1.4364 -1.8670 -0.6326
   27SAPC  C218 3610   4.007   4.817   8.504 -0.3799  0.1161  0.0488
   27SAPC  H18R 3611   3.979   4.915   8.460  0.8293  0.3291 -0.2824
   27SAPC  H18S 3612   4.104   4.818   8.558  0.6204 -1.2560 -1.6176
   27SAPC  C219 3613   3.894   4.790   8.613 -0.1317  0.0594 -0.0926
   27SAPC  H19R 3614   3.908   4.687   8.652  0.8436  0.4738  0.6980
   27SAPC  H19S 3615   3.795   4.769   8.568 -1.2510  3.1555  0.7056
   27SAPC  C220 3616   3.879   4.902   8.721  0.0540 -0.3605 -0.1423
   27SAPC  H20R 3617   3.979   4.919   8.766 -0.4042  3.2545 -0.1884
   27SAPC  H20S 3618   3.805   4.876   8.800  0.0839  2.2225  0.8111
   27SAPC  H20T 3619   3.857   5.005   8.687  0.1394  1.0565  3.6310
   27SAPC   C33 3620   3.806   4.125   7.416 -0.3459  0.6960  1.1079
   27SAPC   H3X 3621   3.860   4.040   7.462  0.1186  0.9029  0.9534
   27SAPC   H3Y 3622   3.699   4.093   7.417  0.4439 -2.4734 -0.7616
   27SAPC   C34 3623   3.829   4.244   7.513  0.4009 -0.0210  0.3454
   27SAPC   H4X 3624   3.773   4.327   7.463 -1.1593  0.6853  3.0711
   27SAPC   H4Y 3625   3.938   4.264   7.513  0.3955  0.0213  0.9366
   27SAPC   C35 3626   3.757   4.226   7.645 -0.5702 -0.1694  0.7637
   27SAPC   H5X 3627   3.775   4.121   7.675 -1.8190 -0.5272  0.3112
   27SAPC   H5Y 3628   3.648   4.230   7.624 -0.4628 -0.2149  0.1819
   27SAPC   C36 3629   3.796   4.319   7.760 -0.1398 -0.6128 -0.1753
   27SAPC   H6X 3630   3.792   4.422   7.720 -1.8011 -0.7644 -0.4417
   27SAPC   H6Y 3631   3.898   4.292   7.796  0.5051  1.5808 -0.2414
   27SAPC   C37 3632   3.697   4.303   7.876  0.1159  0.2578  0.2032
   27SAPC   H7X 3633   3.697   4.200   7.919  1.9147  0.4620  0.7765
   27SAPC   H7Y 3634   3.592   4.313   7.838  0.0050 -0.8732  0.1724
   27SAPC   C38 3635   3.705   4.418   7.980  0.0916 -0.0325  0.8120
   27SAPC   H8X 3636   3.666   4.519   7.957  1.0702  0.3442  0.7581
   27SAPC   H8Y 3637   3.813   4.421   8.007  0.2998 -3.9971  1.0512
   27SAPC   C39 3638   3.636   4.364   8.106 -0.3518 -0.2022 -0.5668
   27SAPC   H9X 3639   3.663   4.260   8.132  0.2713  0.2355  0.6465
   27SAPC   H9Y 3640   3.527   4.371   8.088 -0.3349  0.2058 -0.5303
   27SAPC  C310 3641   3.680   4.453   8.228 -0.0630  0.3752 -0.0812
   27SAPC  H10X 3642   3.633   4.552   8.213  0.4675  0.7088  0.4333
   27SAPC  H10Y 3643   3.791   4.460   8.234 -0.1914  1.0495  2.0069
   27SAPC  C311 3644   3.623   4.394   8.363  0.7482 -0.3555 -0.8113
   27SAPC  H11X 3645   3.669   4.468   8.432  1.6298 -0.7186 -0.9954
   27SAPC  H11Y 3646   3.649   4.291   8.396  0.9828  0.2687  1.0615
   27SAPC  C312 3647   3.470   4.409   8.354 -0.2332  0.4708 -0.0798
   27SAPC  H12X 3648   3.429   4.329   8.289  0.8553 -0.2330  0.0664
   27SAPC  H12Y 3649   3.456   4.515   8.323  0.0042  1.0475  1.7202
   27SAPC  C313 3650   3.394   4.400   8.489 -0.1896  0.3779  0.3232
   27SAPC  H13X 3651   3.310   4.472   8.478  0.6377  1.1927 -1.0503
   27SAPC  H13Y 3652   3.456   4.443   8.571  1.4950  2.3768 -1.8555
   27SAPC  C314 3653   3.351   4.254   8.515 -0.6991 -0.4040 -0.2094
   27SAPC  H14X 3654   3.435   4.185   8.493  0.3849  1.2885 -1.7211
   27SAPC  H14Y 3655   3.266   4.225   8.449 -0.4060 -0.7340 -0.4436
   27SAPC  C315 3656   3.313   4.235   8.663 -0.3799  0.1076 -0.9536
   27SAPC  H15X 3657   3.222   4.297   8.675  0.0582  1.1498 -2.8148
   27SAPC  H15Y 3658   3.394   4.280   8.725  0.1617 -1.5058 -0.4122
   27SAPC  C316 3659   3.306   4.092   8.710 -0.0628 -0.4165  0.7932
   27SAPC  H16X 3660   3.408   4.050   8.696 -0.2358 -0.3243 -1.0990
   27SAPC  H16Y 3661   3.238   4.030   8.647 -0.6140 -2.0694  2.9035
   27SAPC  C317 3662   3.269   4.079   8.855 -0.3225 -0.3449 -0.3388
   27SAPC  H17X 3663   3.163   4.109   8.865 -0.1728  1.2109 -2.7750
   27SAPC  H17Y 3664   3.333   4.159   8.898  1.5227 -1.0496 -1.6242
   27SAPC  C318 3665   3.307   3.947   8.915  0.3301  0.0321  0.6863
   27SAPC  H18X 3666   3.412   3.921   8.892 -0.0268 -0.8486  0.0303
   27SAPC  H18Y 3667   3.243   3.870   8.866  1.4119 -0.9180  0.7234
   27SAPC  H18Z 3668   3.284   3.936   9.024  1.4352  2.0736  1.1688
   28SAPC     N 3669   5.518   3.462   6.239  0.0268  0.1547  0.3341
   28SAPC   C12 3670   5.510   3.492   6.385  0.0364  0.6357 -0.1283
   28SAPC  H12A 3671   5.425   3.435   6.422 -0.3135 -0.0518 -1.8892
   28SAPC  H12B 3672   5.501   3.596   6.413  1.0856  0.6007  0.3568
   28SAPC   C13 3673   5.493   3.314   6.202  0.2361 -0.5038  0.4506
   28SAPC  H13A 3674   5.540   3.298   6.106 -0.9363 -0.5714 -0.1299
   28SAPC  H13B 3675   5.542   3.258   6.281  0.2090 -0.3841  0.5519
   28SAPC  H13C 3676   5.388   3.297   6.184  0.1720  1.4079 -1.3288
   28SAPC   C14 3677   5.422   3.555   6.169  0.4301  0.0522  0.2279
   28SAPC  H14A 3678   5.323   3.548   6.210  1.2784 -0.4681  2.2748
   28SAPC  H14B 3679   5.452   3.659   6.174 -2.5593  1.1893 -2.3364
   28SAPC  H14C 3680   5.411   3.523   6.066  0.7654 -2.0043  0.7890
   28SAPC   C15 3681   5.643   3.499   6.179  0.4915  0.8866  0.1009
   28SAPC  H15A 3682   5.640   3.478   6.074 -3.7605  3.1853 -0.4469
   28SAPC  H15B 3683   5.674   3.602   6.186 -0.5926  1.1407  2.3655
   28SAPC  H15C 3684   5.720   3.452   6.239 -1.5404 -0.4980  1.7730
   28SAPC   C11 3685   5.625   3.433   6.472  0.3798 -0.1953 -1.0134
   28SAPC  H11A 3686   5.596   3.450   6.578  1.3454 -0.7210 -0.6473
   28SAPC  H11B 3687   5.725   3.481   6.464 -0.1585  0.9318 -1.1411
   28SAPC     P 3688   5.563   3.182   6.523 -0.1852 -0.6040  0.3306
   28SAPC   O13 3689   5.425   3.227   6.516 -0.1697 -0.0786  0.5135
   28SAPC   O14 3690   5.589   3.057   6.449 -0.2950 -0.4766 -0.0098
   28SAPC   O12 3691   5.647   3.295   6.449 -0.5236 -0.2003  0.0320
   28SAPC   O11 3692   5.608   3.186   6.675 -0.3508 -0.7061 -0.2299
   28SAPC    C1 3693   5.736   3.131   6.708  0.3302 -0.3172 -0.0881
   28SAPC    HA 3694   5.801   3.116   6.619  0.2984  0.0241 -0.1695
   28SAPC    HB 3695   5.790   3.192   6.783 -1.1875  0.6917  0.2418
   28SAPC    C2 3696   5.719   2.985   6.772  0.4415  0.8287 -0.8578
   28SAPC    HS 3697   5.641   2.944   6.704 -0.0620  0.9292 -0.3536
   28SAPC   O21 3698   5.676   2.999   6.906  0.1172 -0.0645  0.2645
   28SAPC   C21 3699   5.596   2.904   6.951  0.4245  0.3422  0.0655
   28SAPC   O22 3700   5.549   2.806   6.887  0.1491 -0.2515  0.0094
   28SAPC   C22 3701   5.556   2.941   7.094 -0.4065  0.5114  0.0217
   28SAPC   H2R 3702   5.603   3.036   7.127 -2.2792  1.2390  0.7770
   28SAPC   H2S 3703   5.446   2.958   7.094 -0.3641  0.8231  0.9666
   28SAPC    C3 3704   5.843   2.902   6.761 -0.0482 -0.5369 -0.6098
   28SAPC    HX 3705   5.920   2.966   6.809  0.3413 -0.1378 -1.7292
   28SAPC    HY 3706   5.873   2.893   6.654  0.7356  1.3236 -0.5862
   28SAPC   O31 3707   5.830   2.772   6.823  0.6526 -0.2021  0.0335
   28SAPC   C31 3708   5.837   2.664   6.750  1.3765  0.9450  0.2740
   28SAPC   O32 3709   5.876   2.657   6.633 -0.0164  0.5133  0.3008
   28SAPC   C32 3710   5.767   2.549   6.829 -0.0685 -0.0707 -0.1146
   28SAPC   H2X 3711   5.659   2.538   6.810  0.0216  1.4403 -1.8185
   28SAPC   H2Y 3712   5.779   2.582   6.934  0.2344  1.3557 -0.5695
   28SAPC   C23 3713   5.587   2.821   7.188 -0.8025  0.8292  0.6270
   28SAPC   H3R 3714   5.695   2.795   7.198 -1.0137 -0.6826 -0.6052
   28SAPC   H3S 3715   5.532   2.732   7.152  1.7271  0.3881 -2.6429
   28SAPC   C24 3716   5.545   2.867   7.326 -0.5162  0.4191 -0.7658
   28SAPC   H4R 3717   5.631   2.926   7.365  0.1001  0.1059 -1.6070
   28SAPC   H4S 3718   5.458   2.934   7.315 -1.6478 -0.7110  0.9008
   28SAPC   C25 3719   5.506   2.755   7.420 -0.4366  1.0597 -0.4957
   28SAPC   H5R 3720   5.420   2.694   7.390  1.0000 -0.0782 -2.5226
   28SAPC   C26 3721   5.577   2.723   7.529 -0.5175 -0.7812 -0.8192
   28SAPC   H6R 3722   5.543   2.637   7.589 -0.1315 -0.9293 -0.8081
   28SAPC   C27 3723   5.693   2.810   7.582  0.1424  0.4441  0.5737
   28SAPC   H7R 3724   5.650   2.898   7.636 -0.6661  0.0797  0.5356
   28SAPC   H7S 3725   5.757   2.849   7.500 -0.1044  1.3751  0.8082
   28SAPC   C28 3726   5.775   2.719   7.663  0.7154  0.4229  0.3446
   28SAPC   H8R 3727   5.844   2.658   7.603  0.6943 -0.5531  1.2956
   28SAPC   C29 3728   5.762   2.692   7.791  0.2009  0.2774 -0.3860
   28SAPC   H9R 3729   5.813   2.608   7.842 -0.5960 -0.7126 -1.1855
   28SAPC  C210 3730   5.647   2.743   7.879 -0.2663 -0.1926 -0.0292
   28SAPC  H10R 3731   5.595   2.653   7.921  1.0458 -1.3566 -0.8098
   28SAPC  H10S 3732   5.576   2.800   7.816  0.7215 -0.0532 -1.0447
   28SAPC  C211 3733   5.684   2.836   7.999 -0.5594 -0.1945 -0.1795
   28SAPC  H11R 3734   5.681   2.944   7.979 -0.5292 -0.0992  0.3103
   28SAPC  C212 3735   5.738   2.799   8.117 -0.1386  0.0932 -0.6005
   28SAPC  H12R 3736   5.754   2.876   8.194  0.7447  1.0384 -1.6878
   28SAPC  C213 3737   5.770   2.659   8.159  0.0172  0.2833 -0.2770
   28SAPC  H13R 3738   5.720   2.596   8.082  0.4357  0.2599 -0.5324
   28SAPC  H13S 3739   5.721   2.635   8.255  0.9939  0.0451  0.1686
   28SAPC  C214 3740   5.914   2.618   8.153 -0.1701  0.2377 -0.0050
   28SAPC  H14R 3741   5.941   2.569   8.059  0.9112  0.1304  0.3440
   28SAPC  C215 3742   6.007   2.639   8.247 -0.2415  0.2479 -0.2984
   28SAPC  H15R 3743   6.109   2.599   8.239  0.8391  2.8012 -0.3527
   28SAPC  C216 3744   5.989   2.700   8.382  0.2859 -0.2380  0.5927
   28SAPC  H16R 3745   5.895   2.758   8.383 -1.9984 -3.5757 -0.5502
   28SAPC  H16S 3746   6.074   2.769   8.403  0.8168 -0.2418 -1.3668
   28SAPC  C217 3747   5.979   2.593   8.487 -0.1939  0.7425 -0.0840
   28SAPC  H17R 3748   6.065   2.523   8.484 -0.6615 -0.0868  2.7938
   28SAPC  H17S 3749   5.887   2.530   8.485  0.5981 -0.4246 -0.9193
   28SAPC  C218 3750   5.988   2.656   8.627 -0.1906 -0.1872 -0.3182
   28SAPC  H18R 3751   5.897   2.720   8.619  1.1469  2.1943  1.9085
   28SAPC  H18S 3752   6.070   2.730   8.633  0.5619 -0.8859 -1.6791
   28SAPC  C219 3753   5.993   2.563   8.743 -0.6574  0.7537  0.2573
   28SAPC  H19R 3754   6.022   2.619   8.834  1.3337  0.5391 -0.1963
   28SAPC  H19S 3755   6.077   2.491   8.726 -0.5421  0.7777  0.7283
   28SAPC  C220 3756   5.865   2.485   8.761  0.3363 -0.6461 -0.1193
   28SAPC  H20R 3757   5.855   2.402   8.834 -1.9265  0.7426  1.2830
   28SAPC  H20S 3758   5.840   2.444   8.661  0.9354 -1.0825 -0.0874
   28SAPC  H20T 3759   5.779   2.555   8.776  1.6786  0.6166  2.1426
   28SAPC   C33 3760   5.842   2.415   6.806  0.4030  0.1564  0.0242
   28SAPC   H3X 3761   5.824   2.387   6.700 -3.2114 -1.3673  0.8775
   28SAPC   H3Y 3762   5.787   2.338   6.864  3.6069 -0.8278  2.0039
   28SAPC   C34 3763   5.994   2.417   6.835 -0.3426  0.7769  0.3377
   28SAPC   H4X 3764   6.041   2.503   6.783  1.5276 -0.8387 -0.7809
   28SAPC   H4Y 3765   6.035   2.320   6.800 -1.0474  0.3266  0.7270
   28SAPC   C35 3766   6.029   2.430   6.991  0.0840 -0.0881  0.1310
   28SAPC   H5X 3767   5.978   2.524   7.018 -2.3785 -0.8192 -1.6120
   28SAPC   H5Y 3768   6.138   2.444   7.009 -0.1010  2.5404 -0.4224
   28SAPC   C36 3769   5.990   2.313   7.071 -0.8319  0.3970 -0.3987
   28SAPC   H6X 3770   6.039   2.232   7.012  0.2105  1.8111 -1.5676
   28SAPC   H6Y 3771   5.881   2.291   7.063 -0.7160  0.3048 -2.0772
   28SAPC   C37 3772   6.047   2.291   7.213 -0.2969 -0.0892 -0.8242
   28SAPC   H7X 3773   6.152   2.319   7.238 -1.1285 -0.2818  3.8830
   28SAPC   H7Y 3774   6.048   2.185   7.246  0.1515  0.2902  0.4492
   28SAPC   C38 3775   5.970   2.369   7.318  0.2521 -0.5662  0.1673
   28SAPC   H8X 3776   5.861   2.349   7.308  0.2488 -0.7148  0.5164
   28SAPC   H8Y 3777   5.980   2.478   7.298 -3.0735  0.0679  1.3353
   28SAPC   C39 3778   6.004   2.318   7.459 -0.2839 -0.5098  0.3164
   28SAPC   H9X 3779   6.115   2.318   7.467 -0.2661 -0.7298  0.0850
   28SAPC   H9Y 3780   5.966   2.214   7.458 -4.1102  0.7143  1.7117
   28SAPC  C310 3781   5.951   2.403   7.571 -0.4054 -0.3105 -0.2090
   28SAPC  H10X 3782   5.846   2.430   7.544  0.0543  0.1026 -1.6451
   28SAPC  H10Y 3783   6.008   2.498   7.577  0.9140 -1.1265  0.4285
   28SAPC  C311 3784   5.950   2.339   7.713 -0.8984 -0.0653  0.0941
   28SAPC  H11X 3785   5.918   2.233   7.699 -1.6737  0.1352  0.3036
   28SAPC  H11Y 3786   5.884   2.389   7.787  1.6237  0.4652  2.1611
   28SAPC  C312 3787   6.090   2.325   7.780 -0.1490  0.3266  0.4859
   28SAPC  H12X 3788   6.141   2.423   7.769  0.8717 -0.1845  0.5616
   28SAPC  H12Y 3789   6.157   2.249   7.734  0.3022 -0.5825  2.5269
   28SAPC  C313 3790   6.072   2.295   7.926  0.3109 -0.5767  0.5930
   28SAPC  H13X 3791   6.019   2.197   7.927 -1.5481  0.3753  0.0545
   28SAPC  H13Y 3792   6.009   2.373   7.973 -0.5156 -0.8858  0.0261
   28SAPC  C314 3793   6.207   2.302   8.001  0.6509  0.4629  0.1686
   28SAPC  H14X 3794   6.278   2.228   7.959 -1.4130 -1.0048 -0.9359
   28SAPC  H14Y 3795   6.178   2.275   8.105 -2.4314 -1.7023 -1.0868
   28SAPC  C315 3796   6.268   2.442   8.015  0.7269 -0.2553  0.4330
   28SAPC  H15X 3797   6.202   2.508   8.075 -0.7913 -3.6524  2.8612
   28SAPC  H15Y 3798   6.287   2.506   7.926 -0.3383  0.5235  0.7538
   28SAPC  C316 3799   6.408   2.439   8.078 -0.9282 -0.5162 -0.9700
   28SAPC  H16X 3800   6.454   2.539   8.063  0.9277 -1.0408  0.8115
   28SAPC  H16Y 3801   6.467   2.373   8.011  0.2356 -0.9815  0.4554
   28SAPC  C317 3802   6.435   2.394   8.228 -0.5799  0.0457  0.4220
   28SAPC  H17X 3803   6.526   2.447   8.263 -1.4796  2.2088 -0.3267
   28SAPC  H17Y 3804   6.444   2.284   8.224  0.6858  0.0661  1.9824
   28SAPC  C318 3805   6.312   2.420   8.315 -0.0457 -0.3862  0.3015
   28SAPC  H18X 3806   6.334   2.397   8.421 -1.8090 -0.9755  0.5672
   28SAPC  H18Y 3807   6.216   2.376   8.280 -0.0082  0.4791 -0.9685
   28SAPC  H18Z 3808   6.287   2.528   8.307 -1.4894 -0.5715  1.6991
   29SAPC     N 3809   0.747   3.287   6.161  0.1998 -0.4121 -0.4004
   29SAPC   C12 3810   0.609   3.266   6.226  0.2654 -0.1318 -0.1049
   29SAPC  H12A 3811   0.620   3.187   6.298 -1.0615 -1.9919 -1.8288
   29SAPC  H12B 3812   0.540   3.242   6.147 -0.8531  0.0258  0.7930
   29SAPC   C13 3813   0.839   3.366   6.241 -0.7032  0.0304  0.2905
   29SAPC  H13A 3814   0.844   3.339   6.346 -0.5542 -0.3355  0.1936
   29SAPC  H13B 3815   0.936   3.370   6.193  0.4121 -0.7031  2.3245
   29SAPC  H13C 3816   0.802   3.467   6.237 -2.0082 -0.4317  0.2312
   29SAPC   C14 3817   0.806   3.155   6.155 -0.5663  0.7516 -0.0842
   29SAPC  H14A 3818   0.818   3.104   6.250 -2.8796 -1.3686 -0.8389
   29SAPC  H14B 3819   0.737   3.093   6.099  0.7189  0.4439 -1.3855
   29SAPC  H14C 3820   0.900   3.162   6.102 -1.2225  3.7117 -1.0271
   29SAPC   C15 3821   0.741   3.346   6.024 -0.3689  0.3840  0.0643
   29SAPC  H15A 3822   0.705   3.448   6.026 -0.6805  0.2846 -0.2924
   29SAPC  H15B 3823   0.841   3.359   5.987 -0.1114  0.1812  0.6698
   29SAPC  H15C 3824   0.688   3.286   5.951  2.3042 -0.0343 -1.6526
   29SAPC   C11 3825   0.552   3.398   6.292 -0.0499  0.7153 -0.5236
   29SAPC  H11A 3826   0.631   3.436   6.361  0.5561 -0.7303 -0.3820
   29SAPC  H11B 3827   0.456   3.382   6.347  0.9381  1.9797  1.7382
   29SAPC     P 3828   0.408   3.500   6.095 -0.0943 -0.1292  0.2323
   29SAPC   O13 3829   0.443   3.579   5.976 -0.5770 -0.0529  0.1255
   29SAPC   O14 3830   0.368   3.358   6.072  0.7625  0.5645  0.3459
   29SAPC   O12 3831   0.523   3.505   6.204  0.8359  0.9254 -0.0448
   29SAPC   O11 3832   0.289   3.577   6.170 -0.9461  0.6519 -0.4524
   29SAPC    C1 3833   0.320   3.678   6.261  0.5246 -0.2989 -0.4184
   29SAPC    HA 3834   0.429   3.699   6.269  0.4059 -0.2612  1.5298
   29SAPC    HB 3835   0.272   3.775   6.235  0.5799 -0.3287 -0.6332
   29SAPC    C2 3836   0.281   3.645   6.409  0.0706 -0.3592 -0.4073
   29SAPC    HS 3837   0.365   3.580   6.441  1.2738  1.7894  1.0568
   29SAPC   O21 3838   0.166   3.569   6.410  0.3903  0.0429  0.1654
   29SAPC   C21 3839   0.045   3.609   6.362 -0.4050  0.7506 -0.6184
   29SAPC   O22 3840   0.011   3.725   6.354  0.8147 -0.7254  0.2222
   29SAPC   C22 3841  -0.031   3.478   6.311 -0.3811 -0.2394  0.4810
   29SAPC   H2R 3842  -0.118   3.511   6.249  0.0965 -1.0686 -0.6699
   29SAPC   H2S 3843   0.028   3.416   6.241  0.4370  2.3040 -1.2189
   29SAPC    C3 3844   0.273   3.775   6.491 -0.6385 -0.2014 -0.5163
   29SAPC    HX 3845   0.214   3.848   6.433 -1.2735 -0.1367  0.1807
   29SAPC    HY 3846   0.378   3.806   6.506  0.0074 -2.6563  0.7390
   29SAPC   O31 3847   0.188   3.746   6.607  0.6198 -0.2350 -0.0657
   29SAPC   C31 3848   0.250   3.686   6.711 -0.0205 -0.2910 -0.4898
   29SAPC   O32 3849   0.363   3.654   6.721 -0.4342 -0.0276  0.0253
   29SAPC   C32 3850   0.150   3.683   6.826  0.4381  0.2967  0.2759
   29SAPC   H2X 3851   0.061   3.625   6.792  1.2916 -0.8883 -0.0019
   29SAPC   H2Y 3852   0.125   3.790   6.842  0.2511  0.0593  1.6905
   29SAPC   C23 3853  -0.091   3.367   6.408  0.1852 -0.0863 -0.5136
   29SAPC   H3R 3854  -0.023   3.333   6.488  1.5519  0.3348 -1.4660
   29SAPC   H3S 3855  -0.119   3.282   6.342 -0.8137  0.0480 -0.2854
   29SAPC   C24 3856  -0.213   3.426   6.476 -0.2018 -0.0623  0.5731
   29SAPC   H4R 3857  -0.243   3.347   6.548 -3.0479 -0.6642 -1.1314
   29SAPC   H4S 3858  -0.297   3.434   6.405  0.1121 -1.0768  0.0725
   29SAPC   C25 3859  -0.193   3.555   6.560  0.0593  0.1047  0.1962
   29SAPC   H5R 3860  -0.190   3.652   6.508  0.8381  0.5558  1.0517
   29SAPC   C26 3861  -0.165   3.559   6.683  0.0300  0.1173  0.0189
   29SAPC   H6R 3862  -0.151   3.658   6.729  0.2574 -0.1323  0.4992
   29SAPC   C27 3863  -0.162   3.436   6.777 -0.7662  0.1942 -0.3439
   29SAPC   H7R 3864  -0.101   3.457   6.868  0.3531 -2.0188 -0.5227
   29SAPC   H7S 3865  -0.114   3.346   6.734 -1.9935  0.0629 -1.5025
   29SAPC   C28 3866  -0.295   3.389   6.828  0.6653  0.1107  0.1291
   29SAPC   H8R 3867  -0.370   3.386   6.747  1.9014  0.1960 -1.0498
   29SAPC   C29 3868  -0.338   3.346   6.949  0.1183 -0.2019  0.0389
   29SAPC   H9R 3869  -0.445   3.322   6.962  0.1824 -1.1149 -0.9969
   29SAPC  C210 3870  -0.262   3.324   7.080 -0.0755  0.8037 -0.0726
   29SAPC  H10R 3871  -0.153   3.318   7.057 -0.1020  1.5401 -0.4131
   29SAPC  H10S 3872  -0.294   3.232   7.133  1.6403 -0.3181 -0.8676
   29SAPC  C211 3873  -0.274   3.445   7.172 -0.1020 -0.5503  0.7092
   29SAPC  H11R 3874  -0.304   3.532   7.111 -1.3655 -1.2954  0.2190
   29SAPC  C212 3875  -0.274   3.454   7.308  0.0710 -0.1940 -0.2916
   29SAPC  H12R 3876  -0.279   3.556   7.350 -0.0746 -0.8126  1.2199
   29SAPC  C213 3877  -0.250   3.352   7.418  0.6246 -0.1621  0.5347
   29SAPC  H13R 3878  -0.165   3.284   7.400  0.1957 -1.0120  1.6637
   29SAPC  H13S 3879  -0.337   3.284   7.406  0.9322 -0.2772 -1.6089
   29SAPC  C214 3880  -0.243   3.398   7.559 -0.3433 -0.5865  0.2677
   29SAPC  H14R 3881  -0.343   3.423   7.597 -0.7937  1.1356 -1.8500
   29SAPC  C215 3882  -0.133   3.419   7.642 -0.1182  0.0654 -0.7528
   29SAPC  H15R 3883  -0.157   3.451   7.745 -2.7662 -1.5690 -0.7784
   29SAPC  C216 3884   0.012   3.399   7.611  0.1371 -0.3815  0.2135
   29SAPC  H16R 3885   0.038   3.451   7.516  0.5572 -0.0260  0.5176
   29SAPC  H16S 3886   0.042   3.294   7.591  0.5310  0.2712 -3.3011
   29SAPC  C217 3887   0.093   3.460   7.728 -0.0443 -0.0507  0.7866
   29SAPC  H17R 3888   0.055   3.560   7.755 -3.7084 -0.9796 -0.3072
   29SAPC  H17S 3889   0.192   3.464   7.678  0.4849 -3.9483  1.2129
   29SAPC  C218 3890   0.104   3.374   7.846 -0.9137  0.4880 -1.0898
   29SAPC  H18R 3891   0.131   3.266   7.836  1.3170  0.5291  2.5214
   29SAPC  H18S 3892   0.006   3.389   7.895  0.9788  1.6259  2.8021
   29SAPC  C219 3893   0.193   3.435   7.959  0.2839 -0.2896 -0.2928
   29SAPC  H19R 3894   0.168   3.542   7.974  3.8870  0.6942 -0.3409
   29SAPC  H19S 3895   0.298   3.444   7.923  0.8250  1.4834  1.5674
   29SAPC  C220 3896   0.194   3.386   8.104  0.6368  0.4189 -0.5527
   29SAPC  H20R 3897   0.090   3.372   8.140  0.6877 -1.3815 -0.9981
   29SAPC  H20S 3898   0.244   3.464   8.167  0.4532  0.6650 -0.7127
   29SAPC  H20T 3899   0.245   3.289   8.123  1.0129  0.5130 -1.0623
   29SAPC   C33 3900   0.196   3.625   6.960 -0.6663  0.3435  0.6056
   29SAPC   H3X 3901   0.290   3.679   6.982  0.2887 -1.3438  0.8343
   29SAPC   H3Y 3902   0.221   3.516   6.962 -0.8583  0.3042  0.8524
   29SAPC   C34 3903   0.094   3.643   7.077  0.3116 -0.0986 -0.2705
   29SAPC   H4X 3904   0.024   3.558   7.086  0.2396 -0.2712 -2.0694
   29SAPC   H4Y 3905   0.031   3.723   7.032 -2.2395 -1.6374  0.4057
   29SAPC   C35 3906   0.162   3.704   7.198 -0.1571  0.0017 -0.3447
   29SAPC   H5X 3907   0.198   3.806   7.170  0.0186 -0.0115 -0.1649
   29SAPC   H5Y 3908   0.239   3.629   7.223 -2.4095 -1.8666  1.5100
   29SAPC   C36 3909   0.082   3.731   7.334  0.2002  0.0337 -0.3047
   29SAPC   H6X 3910   0.037   3.639   7.376 -1.5523  1.2685  0.6717
   29SAPC   H6Y 3911  -0.010   3.791   7.314 -0.6604 -1.0610  0.2291
   29SAPC   C37 3912   0.172   3.786   7.447  1.0579 -0.3417 -0.5088
   29SAPC   H7X 3913   0.219   3.880   7.411 -0.5947  0.6921 -0.0701
   29SAPC   H7Y 3914   0.250   3.710   7.469 -2.5063 -4.1071  0.3449
   29SAPC   C38 3915   0.087   3.819   7.566  0.5830  0.4412 -0.3429
   29SAPC   H8X 3916   0.050   3.723   7.609  1.1521  0.8369  1.0811
   29SAPC   H8Y 3917   0.001   3.881   7.533  1.1300  1.3174 -0.1512
   29SAPC   C39 3918   0.166   3.898   7.674  0.1895  0.2447 -0.3836
   29SAPC   H9X 3919   0.190   3.998   7.633  2.0234  0.0404  0.1139
   29SAPC   H9Y 3920   0.260   3.841   7.689 -0.1047 -0.2438 -0.3759
   29SAPC  C310 3921   0.086   3.913   7.806  0.2744  0.0195  0.2349
   29SAPC  H10X 3922   0.051   3.814   7.841 -0.9579  0.0992 -0.7176
   29SAPC  H10Y 3923  -0.007   3.973   7.795  0.2669  0.2145  1.2567
   29SAPC  C311 3924   0.170   3.976   7.919  0.1392  0.4715  0.0113
   29SAPC  H11X 3925   0.222   4.070   7.889  0.1720  0.2323 -0.6836
   29SAPC  H11Y 3926   0.253   3.909   7.951 -1.3485 -1.0192  0.9006
   29SAPC  C312 3927   0.091   4.019   8.046  0.4298  0.1995  0.2657
   29SAPC  H12X 3928   0.056   3.928   8.100  0.1374 -0.0601 -0.3444
   29SAPC  H12Y 3929  -0.000   4.072   8.010 -0.1936 -0.9068  0.1693
   29SAPC  C313 3930   0.168   4.124   8.133  0.3872 -0.1197  0.1182
   29SAPC  H13X 3931   0.202   4.199   8.059 -1.2556  1.2364  0.6705
   29SAPC  H13Y 3932   0.261   4.080   8.175 -0.0994  0.7390  2.2650
   29SAPC  C314 3933   0.090   4.178   8.258 -0.3796  0.7858  0.3866
   29SAPC  H14X 3934   0.048   4.098   8.323 -2.3670  0.8176 -0.7605
   29SAPC  H14Y 3935   0.006   4.220   8.198 -2.4081 -2.6635  0.5368
   29SAPC  C315 3936   0.166   4.275   8.346  0.0189 -0.4152 -0.8076
   29SAPC  H15X 3937   0.216   4.354   8.287  2.7014 -1.3944  0.0173
   29SAPC  H15Y 3938   0.244   4.219   8.402 -1.4404 -2.2441 -0.4795
   29SAPC  C316 3939   0.087   4.350   8.455  0.3601 -0.4108 -0.0980
   29SAPC  H16X 3940   0.040   4.274   8.520  2.3940 -0.1756  1.7569
   29SAPC  H16Y 3941   0.009   4.395   8.389  0.8182 -0.2621 -0.5437
   29SAPC  C317 3942   0.176   4.466   8.504  0.0032 -0.2986  0.1997
   29SAPC  H17X 3943   0.204   4.532   8.419 -0.0278 -0.6475 -0.0820
   29SAPC  H17Y 3944   0.274   4.418   8.527 -0.8975 -1.7880  1.0394
   29SAPC  C318 3945   0.129   4.547   8.626  0.3030  0.0853 -0.0093
   29SAPC  H18X 3946   0.205   4.623   8.653 -1.6786  1.9904  0.5260
   29SAPC  H18Y 3947   0.105   4.480   8.711 -1.6513  0.0981 -0.5033
   29SAPC  H18Z 3948   0.036   4.605   8.609 -0.7459 -1.0170  1.7088
   30SAPC     N 3949   1.393   5.865   6.166  0.4925 -0.6483 -0.0469
   30SAPC   C12 3950   1.475   5.998   6.180  0.0874  0.2426  0.3058
   30SAPC  H12A 3951   1.416   6.074   6.229 -0.4237  0.0249  0.0376
   30SAPC  H12B 3952   1.478   6.033   6.078  0.4680  1.7885  0.8259
   30SAPC   C13 3953   1.335   5.833   6.298  0.2599 -0.4210  0.1760
   30SAPC  H13A 3954   1.297   5.925   6.340  1.0503 -0.0930  0.2031
   30SAPC  H13B 3955   1.251   5.766   6.289 -0.2529  0.2411  0.0241
   30SAPC  H13C 3956   1.411   5.788   6.360  2.8562  1.1591 -1.6490
   30SAPC   C14 3957   1.298   5.883   6.056  0.6069 -1.1935  0.6352
   30SAPC  H14A 3958   1.239   5.797   6.031  1.2031 -2.0002  1.8903
   30SAPC  H14B 3959   1.222   5.958   6.067  1.3172  0.6018 -4.2166
   30SAPC  H14C 3960   1.342   5.925   5.967 -0.0584 -0.9471  0.4213
   30SAPC   C15 3961   1.475   5.755   6.123 -0.0121  0.2537 -0.3262
   30SAPC  H15A 3962   1.564   5.766   6.183 -0.1149 -2.1063  0.3433
   30SAPC  H15B 3963   1.422   5.661   6.126 -0.7568  0.6390 -0.9097
   30SAPC  H15C 3964   1.518   5.765   6.024  1.1708  4.2166  0.3894
   30SAPC   C11 3965   1.625   5.992   6.230  0.4002 -0.0878  0.3232
   30SAPC  H11A 3966   1.626   5.938   6.328 -0.4226 -1.1177 -0.2126
   30SAPC  H11B 3967   1.668   6.089   6.261  0.9372  0.2227 -1.3123
   30SAPC     P 3968   1.778   6.019   6.025 -0.0630  0.2551 -0.1071
   30SAPC   O13 3969   1.846   5.931   5.930 -0.4608  0.6625 -0.1485
   30SAPC   O14 3970   1.679   6.115   5.962  0.0430 -0.1498 -0.1835
   30SAPC   O12 3971   1.706   5.928   6.131 -0.2385  0.2713  0.1751
   30SAPC   O11 3972   1.882   6.095   6.111 -0.0241  0.1291 -0.7230
   30SAPC    C1 3973   2.017   6.060   6.129 -0.1894  0.6592  0.1146
   30SAPC    HA 3974   2.053   6.013   6.035  1.1686  4.1058 -1.2825
   30SAPC    HB 3975   2.069   6.159   6.128 -1.8344  1.6264 -2.8834
   30SAPC    C2 3976   2.021   5.975   6.262  0.5774 -0.4790 -0.3939
   30SAPC    HS 3977   1.960   5.883   6.248  0.7681 -0.5836 -0.5526
   30SAPC   O21 3978   1.984   6.060   6.363 -0.0087  0.4243 -0.2600
   30SAPC   C21 3979   1.921   6.003   6.470  0.0717  0.1458 -0.3915
   30SAPC   O22 3980   1.878   5.889   6.471 -0.1519  0.1583 -0.8148
   30SAPC   C22 3981   1.905   6.110   6.577 -0.3711 -0.4126  0.1753
   30SAPC   H2R 3982   2.003   6.164   6.571 -0.2174 -0.7326 -0.2450
   30SAPC   H2S 3983   1.828   6.184   6.547  0.0791 -0.0159 -0.0348
   30SAPC    C3 3984   2.166   5.936   6.291  0.6085  0.1264  0.9020
   30SAPC    HX 3985   2.228   6.028   6.295 -0.5996  1.0086  0.1196
   30SAPC    HY 3986   2.194   5.881   6.198  0.5386 -2.3933  2.2846
   30SAPC   O31 3987   2.186   5.854   6.409 -0.2780  0.2251 -0.5118
   30SAPC   C31 3988   2.186   5.727   6.408  0.4323  0.6463 -0.7159
   30SAPC   O32 3989   2.171   5.659   6.307 -0.2748 -0.1486 -0.4565
   30SAPC   C32 3990   2.205   5.665   6.540 -0.4864 -0.6990 -0.0449
   30SAPC   H2X 3991   2.242   5.563   6.513 -0.3063 -0.1877 -1.8478
   30SAPC   H2Y 3992   2.111   5.657   6.598 -0.0299  1.6640  1.1278
   30SAPC   C23 3993   1.879   6.050   6.719  0.1413 -0.5119 -0.0380
   30SAPC   H3R 3994   1.943   5.960   6.735 -0.4742 -1.2564 -1.4592
   30SAPC   H3S 3995   1.780   5.998   6.726 -0.8298  0.8431 -2.3098
   30SAPC   C24 3996   1.868   6.165   6.824  0.8690  0.4989  0.1670
   30SAPC   H4R 3997   1.839   6.121   6.922 -0.0683 -1.0686 -0.7784
   30SAPC   H4S 3998   1.796   6.240   6.785  1.3277  0.8844  0.0565
   30SAPC   C25 3999   1.996   6.242   6.838  0.6210 -0.4975  0.1489
   30SAPC   H5R 4000   1.997   6.326   6.767 -0.5624 -1.4570 -1.0504
   30SAPC   C26 4001   2.102   6.229   6.921  0.3554 -0.3284  0.0296
   30SAPC   H6R 4002   2.185   6.298   6.901 -0.8321  0.5356 -2.2951
   30SAPC   C27 4003   2.108   6.122   7.026  0.2428  0.4617  0.1150
   30SAPC   H7R 4004   2.069   6.029   6.979 -0.7166  0.7607  0.3000
   30SAPC   H7S 4005   2.043   6.143   7.113 -1.2940 -2.2863 -0.2410
   30SAPC   C28 4006   2.248   6.094   7.062 -0.3237  0.3082 -0.8025
   30SAPC   H8R 4007   2.319   6.098   6.978  1.2268  1.2268  0.4701
   30SAPC   C29 4008   2.303   6.094   7.189 -0.2442  0.5185  0.0316
   30SAPC   H9R 4009   2.408   6.064   7.203 -0.2191  1.1959  1.3866
   30SAPC  C210 4010   2.218   6.126   7.311 -0.4312  0.1407 -0.5178
   30SAPC  H10R 4011   2.144   6.044   7.325 -0.6341  0.3963 -0.0876
   30SAPC  H10S 4012   2.147   6.207   7.282 -1.7535 -0.7787  0.0631
   30SAPC  C211 4013   2.292   6.157   7.443 -0.0528 -0.0165  0.3020
   30SAPC  H11R 4014   2.396   6.193   7.441 -0.1485  0.7691  3.7412
   30SAPC  C212 4015   2.242   6.136   7.564  0.4201  0.1454  0.0931
   30SAPC  H12R 4016   2.303   6.150   7.654 -0.6050  0.4988  0.7488
   30SAPC  C213 4017   2.101   6.080   7.602  0.2395 -0.0677 -0.4782
   30SAPC  H13R 4018   2.046   6.018   7.529  0.7924  0.0273 -0.9818
   30SAPC  H13S 4019   2.038   6.170   7.615  1.3878  0.5132  1.5830
   30SAPC  C214 4020   2.109   5.988   7.724 -0.4023 -0.1860 -0.0415
   30SAPC  H14R 4021   2.119   5.883   7.696 -3.4807 -0.2002 -1.5662
   30SAPC  C215 4022   2.103   6.016   7.856 -0.0348 -0.4561 -0.6533
   30SAPC  H15R 4023   2.103   5.937   7.932  0.5554  0.5015  0.3763
   30SAPC  C216 4024   2.091   6.154   7.904 -0.0834 -0.0904 -0.6977
   30SAPC  H16R 4025   2.042   6.128   8.001 -1.7564 -0.5043 -1.6228
   30SAPC  H16S 4026   2.015   6.201   7.838 -0.6337 -1.8217 -1.3413
   30SAPC  C217 4027   2.216   6.230   7.923  0.2325  0.1280 -0.7324
   30SAPC  H17R 4028   2.268   6.250   7.826  0.3593 -0.6524 -0.8274
   30SAPC  H17S 4029   2.282   6.174   7.992  1.4149  0.6993 -1.3589
   30SAPC  C218 4030   2.184   6.364   7.995 -0.1232  0.0845 -1.0915
   30SAPC  H18R 4031   2.125   6.439   7.939 -0.3703 -1.2419 -2.6888
   30SAPC  H18S 4032   2.285   6.406   8.012  0.2294 -1.1040 -0.0602
   30SAPC  C219 4033   2.123   6.338   8.128 -0.2084  0.0785 -0.6637
   30SAPC  H19R 4034   2.165   6.243   8.168 -3.1762 -0.6064  1.1796
   30SAPC  H19S 4035   2.015   6.323   8.105 -0.9659  1.6356  1.5518
   30SAPC  C220 4036   2.153   6.449   8.222 -0.0157  0.0845  0.0716
   30SAPC  H20R 4037   2.130   6.426   8.329  1.3246  2.7311  1.0140
   30SAPC  H20S 4038   2.104   6.546   8.198 -1.0771 -0.6613 -0.8405
   30SAPC  H20T 4039   2.262   6.471   8.222  0.4320 -1.8978  0.5559
   30SAPC   C33 4040   2.303   5.750   6.623  0.1760  0.4377  0.2895
   30SAPC   H3X 4041   2.257   5.844   6.661  1.6911  1.4107 -0.2141
   30SAPC   H3Y 4042   2.392   5.784   6.567 -1.3300  2.8356 -0.8460
   30SAPC   C34 4043   2.353   5.671   6.747 -0.4982 -0.4793 -0.3708
   30SAPC   H4X 4044   2.426   5.746   6.786  0.3853 -1.7412  0.4659
   30SAPC   H4Y 4045   2.404   5.578   6.717 -0.3194 -0.2285 -0.8531
   30SAPC   C35 4046   2.243   5.642   6.853  0.5467 -0.2028 -0.1554
   30SAPC   H5X 4047   2.181   5.555   6.822 -1.7751  1.4327 -0.3647
   30SAPC   H5Y 4048   2.173   5.728   6.858 -0.2775 -0.8673  0.0362
   30SAPC   C36 4049   2.303   5.608   6.987  0.2496  0.0969  0.1107
   30SAPC   H6X 4050   2.389   5.540   6.973 -0.6410 -0.4461 -4.0268
   30SAPC   H6Y 4051   2.222   5.568   7.051 -1.2190 -0.1300 -1.8058
   30SAPC   C37 4052   2.358   5.729   7.059  0.4545 -0.4420 -0.0550
   30SAPC   H7X 4053   2.287   5.815   7.057  0.0066 -0.7359  1.6385
   30SAPC   H7Y 4054   2.451   5.769   7.014  0.1102 -0.6863 -0.9986
   30SAPC   C38 4055   2.394   5.695   7.209  0.8392  0.0472  0.3646
   30SAPC   H8X 4056   2.413   5.585   7.213 -0.2654 -0.1632  0.3005
   30SAPC   H8Y 4057   2.294   5.712   7.255  2.1633  1.5974  2.8469
   30SAPC   C39 4058   2.496   5.776   7.290  0.5577  0.4679 -0.1923
   30SAPC   H9X 4059   2.526   5.871   7.241 -0.3693  0.7363 -0.2534
   30SAPC   H9Y 4060   2.589   5.715   7.290  0.6347  0.5484  1.0996
   30SAPC  C310 4061   2.449   5.818   7.433 -0.5602 -0.3433  0.3624
   30SAPC  H10X 4062   2.418   5.730   7.493  1.6045 -0.1448  1.8963
   30SAPC  H10Y 4063   2.370   5.896   7.423 -2.0058 -1.6050  1.4606
   30SAPC  C311 4064   2.568   5.881   7.513 -0.8192  0.2542  0.1201
   30SAPC  H11X 4065   2.611   5.961   7.449  1.2840 -0.6915  0.2694
   30SAPC  H11Y 4066   2.638   5.795   7.518  0.7721  1.5446  0.8343
   30SAPC  C312 4067   2.536   5.922   7.654 -0.2127 -0.5348 -0.1695
   30SAPC  H12X 4068   2.545   5.839   7.727 -1.3941  0.1663  0.8260
   30SAPC  H12Y 4069   2.435   5.966   7.647 -0.8341 -1.9881 -0.6387
   30SAPC  C313 4070   2.618   6.038   7.716 -0.9130  0.2123 -0.0544
   30SAPC  H13X 4071   2.565   6.080   7.803 -0.9896  0.5152 -0.2453
   30SAPC  H13Y 4072   2.628   6.123   7.644 -3.8323  0.1224 -0.6859
   30SAPC  C314 4073   2.758   5.992   7.758  0.5271 -0.3694  0.4387
   30SAPC  H14X 4074   2.831   6.062   7.711 -1.2645  0.2994 -1.4689
   30SAPC  H14Y 4075   2.780   5.892   7.714 -0.2249 -0.5097  0.3797
   30SAPC  C315 4076   2.777   5.988   7.907  0.5490 -0.2988 -0.2760
   30SAPC  H15X 4077   2.877   5.943   7.924  0.3383 -0.5747  0.2756
   30SAPC  H15Y 4078   2.703   5.936   7.973  1.8518 -0.5158  1.0738
   30SAPC  C316 4079   2.784   6.132   7.951  0.4412  0.1850  0.0870
   30SAPC  H16X 4080   2.683   6.176   7.949  0.4536  0.3794 -3.3176
   30SAPC  H16Y 4081   2.852   6.186   7.881  1.3188 -3.2071 -1.9041
   30SAPC  C317 4082   2.837   6.143   8.093 -0.0556 -0.0526 -1.1361
   30SAPC  H17X 4083   2.917   6.068   8.108  0.4703  0.6266 -0.4915
   30SAPC  H17Y 4084   2.765   6.101   8.166  1.9212 -1.8042 -0.0753
   30SAPC  C318 4085   2.883   6.285   8.126 -0.0445  0.1505 -0.1275
   30SAPC  H18X 4086   2.906   6.290   8.234  0.1871  1.0968 -0.2169
   30SAPC  H18Y 4087   2.796   6.352   8.112 -0.0203  0.6029  1.6156
   30SAPC  H18Z 4088   2.971   6.315   8.065 -0.3289  4.7015  1.3595
   31SAPC     N 4089   2.680   4.895   6.242 -0.3863 -0.5298 -0.3257
   31SAPC   C12 4090   2.753   4.947   6.361 -0.0864  0.0903 -0.1186
   31SAPC  H12A 4091   2.680   4.983   6.431 -2.6018 -0.5289 -2.2826
   31SAPC  H12B 4092   2.801   5.038   6.329 -2.9956  1.6000 -0.5263
   31SAPC   C13 4093   2.785   4.869   6.137 -0.0045 -0.0240  0.2224
   31SAPC  H13A 4094   2.851   4.794   6.178  0.3682  0.7592  1.0925
   31SAPC  H13B 4095   2.740   4.818   6.054 -0.8174  0.5843  0.2700
   31SAPC  H13C 4096   2.843   4.953   6.101  0.9501 -0.2412  1.2152
   31SAPC   C14 4097   2.595   4.783   6.272  0.0414 -0.5855  0.2294
   31SAPC  H14A 4098   2.514   4.811   6.338  0.6688  0.5194  0.5479
   31SAPC  H14B 4099   2.544   4.751   6.182 -1.2434 -0.7324  0.9974
   31SAPC  H14C 4100   2.646   4.708   6.331 -2.5024 -1.9345  0.8494
   31SAPC   C15 4101   2.595   5.000   6.183  0.2488  0.2621 -0.1190
   31SAPC  H15A 4102   2.537   4.954   6.105 -2.2454 -1.2913  2.4636
   31SAPC  H15B 4103   2.528   5.033   6.261 -0.3128 -1.5410  0.2103
   31SAPC  H15C 4104   2.652   5.084   6.144  1.4343 -0.0046  0.9619
   31SAPC   C11 4105   2.862   4.860   6.429 -0.6318  0.3073 -0.4723
   31SAPC  H11A 4106   2.805   4.775   6.472  1.2546 -0.5496  0.4797
   31SAPC  H11B 4107   2.900   4.921   6.514  0.9765  0.7864 -1.4865
   31SAPC     P 4108   3.100   4.918   6.331 -0.3280 -0.4886  0.0961
   31SAPC   O13 4109   3.203   4.855   6.249 -0.8550  0.1082  0.0833
   31SAPC   O14 4110   3.053   5.051   6.286 -0.2957 -0.1201  0.2727
   31SAPC   O12 4111   2.977   4.819   6.347 -0.7167  0.8034 -0.2676
   31SAPC   O11 4112   3.151   4.929   6.478  0.3861  0.2997  0.3906
   31SAPC    C1 4113   3.174   4.824   6.570 -0.1954 -0.3307  0.2129
   31SAPC    HA 4114   3.110   4.734   6.558 -0.3923  0.0130 -1.6911
   31SAPC    HB 4115   3.279   4.790   6.558 -0.0645 -0.1204  0.7316
   31SAPC    C2 4116   3.153   4.867   6.714 -0.3701 -0.0171 -0.0222
   31SAPC    HS 4117   3.046   4.896   6.720  0.4923  3.1069  3.5158
   31SAPC   O21 4118   3.243   4.973   6.736  0.3941 -0.6014  0.1318
   31SAPC   C21 4119   3.188   5.079   6.805 -0.3337  0.8171 -0.0997
   31SAPC   O22 4120   3.066   5.085   6.821  0.2835 -0.3548  0.2599
   31SAPC   C22 4121   3.294   5.175   6.858  0.2249 -0.0615  0.9524
   31SAPC   H2R 4122   3.393   5.130   6.838  1.6534  1.4768  3.9205
   31SAPC   H2S 4123   3.287   5.267   6.795 -2.4219 -1.1872 -0.5738
   31SAPC    C3 4124   3.190   4.760   6.823 -0.3182 -0.6940  0.4186
   31SAPC    HX 4125   3.300   4.754   6.836 -0.0065  1.7346 -0.6313
   31SAPC    HY 4126   3.150   4.666   6.778  0.3485 -0.5591 -0.4634
   31SAPC   O31 4127   3.138   4.797   6.951  0.8688 -0.0853  0.0033
   31SAPC   C31 4128   3.011   4.779   6.973  0.2929  0.5170  0.1700
   31SAPC   O32 4129   2.932   4.725   6.898  0.2758  0.0113 -0.2578
   31SAPC   C32 4130   2.979   4.818   7.111  0.2185  0.6835 -0.9100
   31SAPC   H2X 4131   3.023   4.737   7.174 -0.5120  1.6362  0.8958
   31SAPC   H2Y 4132   2.869   4.804   7.120  0.5576 -0.9994  1.7272
   31SAPC   C23 4133   3.276   5.219   7.004  0.1459  0.5574  0.8001
   31SAPC   H3R 4134   3.285   5.136   7.077  0.4180  1.4614  1.8297
   31SAPC   H3S 4135   3.178   5.269   7.023  0.6377  2.4042 -1.0703
   31SAPC   C24 4136   3.372   5.325   7.050 -0.4643  0.2544  1.1369
   31SAPC   H4R 4137   3.340   5.349   7.153 -3.2074  0.1252  0.3932
   31SAPC   H4S 4138   3.360   5.419   6.993  2.0073 -0.0676 -0.0773
   31SAPC   C25 4139   3.515   5.276   7.041  0.8493 -0.0821  1.2731
   31SAPC   H5R 4140   3.553   5.292   6.939  1.3058 -3.5340  0.7619
   31SAPC   C26 4141   3.588   5.222   7.139 -0.5386 -0.0463  0.3528
   31SAPC   H6R 4142   3.691   5.201   7.106 -1.5237 -0.3530 -2.8217
   31SAPC   C27 4143   3.568   5.204   7.291 -0.5271  0.1545 -0.5236
   31SAPC   H7R 4144   3.610   5.112   7.337  0.7714  0.6896 -0.5833
   31SAPC   H7S 4145   3.461   5.199   7.317 -0.5908 -1.3056 -0.9483
   31SAPC   C28 4146   3.607   5.329   7.374  0.5985  0.0808 -0.4337
   31SAPC   H8R 4147   3.634   5.417   7.315  0.3633 -0.3359 -1.1881
   31SAPC   C29 4148   3.629   5.320   7.513 -0.2139  0.0965  0.7751
   31SAPC   H9R 4149   3.652   5.414   7.567 -0.4399  0.2787  0.5551
   31SAPC  C210 4150   3.621   5.192   7.593 -0.3786 -0.5718 -0.2180
   31SAPC  H10R 4151   3.610   5.107   7.521  2.7921  0.9220 -2.7408
   31SAPC  H10S 4152   3.528   5.182   7.652 -0.4831 -0.0621 -0.2900
   31SAPC  C211 4153   3.752   5.176   7.670 -0.1211  0.4663  0.0446
   31SAPC  H11R 4154   3.838   5.219   7.616  0.3086 -0.1021  0.2675
   31SAPC  C212 4155   3.780   5.120   7.785  0.2149 -0.1556 -0.3072
   31SAPC  H12R 4156   3.879   5.089   7.821  0.7734  0.5879 -1.1681
   31SAPC  C213 4157   3.670   5.068   7.873  0.1880  0.0695 -0.1562
   31SAPC  H13R 4158   3.690   4.967   7.916 -0.2502  0.2983  0.6224
   31SAPC  H13S 4159   3.579   5.051   7.811 -0.2949  1.4847  0.1284
   31SAPC  C214 4160   3.638   5.168   7.984 -0.4798  0.0990  0.7757
   31SAPC  H14R 4161   3.629   5.270   7.945  0.1623 -0.7117 -1.6411
   31SAPC  C215 4162   3.608   5.130   8.109  0.7519  0.4005 -0.5531
   31SAPC  H15R 4163   3.584   5.200   8.191 -1.3231 -2.6982  1.7010
   31SAPC  C216 4164   3.608   4.988   8.166  0.0493  0.2729  0.4132
   31SAPC  H16R 4165   3.710   4.944   8.158 -0.5573 -0.8345 -2.0562
   31SAPC  H16S 4166   3.561   4.924   8.088  2.8140 -0.9207 -0.3702
   31SAPC  C217 4167   3.553   4.962   8.308  0.0106  0.1295 -0.0392
   31SAPC  H17R 4168   3.446   4.991   8.317 -0.5503 -1.5491 -0.7745
   31SAPC  H17S 4169   3.626   5.014   8.373  0.7983  0.9093 -1.5190
   31SAPC  C218 4170   3.567   4.814   8.351 -0.3192 -0.4251  0.1935
   31SAPC  H18R 4171   3.677   4.798   8.354 -0.0688  1.2027  0.3185
   31SAPC  H18S 4172   3.526   4.742   8.276 -1.5524  0.4337  0.0166
   31SAPC  C219 4173   3.533   4.787   8.495 -1.0363  0.2568  0.3292
   31SAPC  H19R 4174   3.602   4.832   8.569 -1.6180  0.0717  0.9908
   31SAPC  H19S 4175   3.552   4.678   8.503  2.8242  0.6739 -1.1296
   31SAPC  C220 4176   3.392   4.832   8.530 -0.3937 -0.3405 -0.3252
   31SAPC  H20R 4177   3.322   4.818   8.445 -2.0192  0.4179  0.8305
   31SAPC  H20S 4178   3.404   4.940   8.552  2.1934 -0.5613 -0.3262
   31SAPC  H20T 4179   3.352   4.772   8.614 -0.4372 -1.6150 -1.2215
   31SAPC   C33 4180   3.028   4.955   7.162 -0.1779 -0.4535 -0.1688
   31SAPC   H3X 4181   2.973   5.041   7.117  0.0810 -1.1593 -1.9192
   31SAPC   H3Y 4182   3.135   4.976   7.145 -0.7227  1.6878 -1.3650
   31SAPC   C34 4183   3.007   4.961   7.309  0.3238 -0.1604 -0.6282
   31SAPC   H4X 4184   3.055   4.873   7.356  0.5765  0.3487  0.0925
   31SAPC   H4Y 4185   2.903   4.946   7.347  1.0628 -3.1474  0.5117
   31SAPC   C35 4186   3.076   5.087   7.366 -0.4488  0.3544  0.2506
   31SAPC   H5X 4187   3.028   5.174   7.318  1.2171 -0.1525 -2.5887
   31SAPC   H5Y 4188   3.182   5.092   7.334 -0.8212  0.3468 -1.0475
   31SAPC   C36 4189   3.071   5.094   7.519  1.0563  0.0873  0.0974
   31SAPC   H6X 4190   3.094   4.996   7.565  0.1073 -0.0854  0.2281
   31SAPC   H6Y 4191   2.970   5.124   7.555  1.5532  2.1655 -0.1012
   31SAPC   C37 4192   3.147   5.214   7.581  0.1525 -0.4200  0.7687
   31SAPC   H7X 4193   3.106   5.300   7.524 -1.5916 -0.6471  1.6062
   31SAPC   H7Y 4194   3.254   5.199   7.554 -0.4206 -0.3924 -1.8160
   31SAPC   C38 4195   3.114   5.244   7.725 -0.1045  0.5467 -0.5212
   31SAPC   H8X 4196   3.005   5.262   7.735 -0.0319 -0.0397  1.9151
   31SAPC   H8Y 4197   3.162   5.335   7.765  0.0383 -0.2338  1.1757
   31SAPC   C39 4198   3.146   5.132   7.822  0.5182 -0.1573 -0.3304
   31SAPC   H9X 4199   3.255   5.134   7.843  0.4103 -1.7131  0.5416
   31SAPC   H9Y 4200   3.105   5.032   7.797  0.9159 -1.0180  2.2377
   31SAPC  C310 4201   3.060   5.156   7.949 -0.3873  0.0364 -0.4321
   31SAPC  H10X 4202   3.063   5.067   8.015  2.5266  0.7080  0.5101
   31SAPC  H10Y 4203   2.954   5.174   7.924 -0.3287 -0.9301 -1.4820
   31SAPC  C311 4204   3.119   5.269   8.035  0.6939 -0.0210 -0.2161
   31SAPC  H11X 4205   3.066   5.362   8.007  0.9568 -0.2873 -1.6764
   31SAPC  H11Y 4206   3.229   5.286   8.028  0.6535  0.5349  0.4168
   31SAPC  C312 4207   3.077   5.254   8.186 -0.6370  0.7895  0.6576
   31SAPC  H12X 4208   3.134   5.173   8.236  1.0397  0.2714 -1.9164
   31SAPC  H12Y 4209   2.971   5.221   8.178  0.1468 -2.0326  0.7959
   31SAPC  C313 4210   3.084   5.382   8.258  0.2475 -0.2811  0.0235
   31SAPC  H13X 4211   3.035   5.367   8.357 -0.1527  0.9921  0.0337
   31SAPC  H13Y 4212   3.031   5.460   8.199 -1.3164 -0.8193  0.6420
   31SAPC  C314 4213   3.224   5.431   8.274  0.2483  0.6137 -0.0764
   31SAPC  H14X 4214   3.255   5.482   8.180 -1.8572 -1.2514 -1.8933
   31SAPC  H14Y 4215   3.281   5.338   8.298 -0.5084  0.5643  1.6935
   31SAPC  C315 4216   3.247   5.537   8.378  0.3318 -0.5258  0.2363
   31SAPC  H15X 4217   3.222   5.488   8.475  0.5095  0.0527  0.5878
   31SAPC  H15Y 4218   3.180   5.624   8.361  0.3254 -0.7225 -0.7719
   31SAPC  C316 4219   3.392   5.588   8.378 -0.0283  0.7604 -0.5068
   31SAPC  H16X 4220   3.398   5.679   8.440 -0.7513  1.8152 -1.9267
   31SAPC  H16Y 4221   3.418   5.614   8.273  0.4482 -0.2768 -0.6675
   31SAPC  C317 4222   3.495   5.482   8.428  0.0635  0.1476 -0.5052
   31SAPC  H17X 4223   3.507   5.416   8.339  1.1994  0.6438 -0.7375
   31SAPC  H17Y 4224   3.458   5.433   8.520  2.5835  0.4332  0.7355
   31SAPC  C318 4225   3.638   5.540   8.473 -0.0768  0.1507 -0.2476
   31SAPC  H18X 4226   3.623   5.604   8.562 -1.0383  1.8677 -1.5800
   31SAPC  H18Y 4227   3.666   5.596   8.381 -1.1849 -0.4316 -0.9773
   31SAPC  H18Z 4228   3.717   5.467   8.499  1.1236  0.7825 -1.9071
   32SAPC     N 4229   5.020   0.815   6.506 -0.3665 -0.1183 -0.9977
   32SAPC   C12 4230   5.041   0.667   6.458 -0.1032  0.1388 -0.0061
   32SAPC  H12A 4231   5.021   0.595   6.536 -2.1167  0.4564 -0.1704
   32SAPC  H12B 4232   5.146   0.661   6.435  0.0303  0.9301  0.3781
   32SAPC   C13 4233   4.880   0.829   6.531  0.7244  0.0768 -0.8812
   32SAPC  H13A 4234   4.846   0.796   6.628  0.5651  1.4072 -0.4696
   32SAPC  H13B 4235   4.852   0.933   6.537  3.8321  0.9589  0.1249
   32SAPC  H13C 4236   4.829   0.771   6.455 -1.0098  0.3860  0.0125
   32SAPC   C14 4237   5.101   0.839   6.629 -0.1696 -0.1462  0.2990
   32SAPC  H14A 4238   5.102   0.942   6.660 -0.6605 -0.4872  1.4956
   32SAPC  H14B 4239   5.067   0.784   6.716  1.9787 -1.2336  0.5229
   32SAPC  H14C 4240   5.207   0.822   6.616 -0.2519 -0.1212 -0.4484
   32SAPC   C15 4241   5.061   0.909   6.400  0.5266 -0.3825 -0.0846
   32SAPC  H15A 4242   5.023   1.009   6.413  0.8129 -0.2505 -0.2571
   32SAPC  H15B 4243   5.168   0.897   6.393  0.8078 -2.2537  4.4148
   32SAPC  H15C 4244   5.019   0.883   6.304 -0.9275  1.5791 -0.0422
   32SAPC   C11 4245   4.961   0.628   6.329 -0.2966 -0.3117 -0.0520
   32SAPC  H11A 4246   5.000   0.533   6.289  0.6041  0.4520 -1.0283
   32SAPC  H11B 4247   4.981   0.697   6.245 -0.5230 -0.7504 -0.4681
   32SAPC     P 4248   4.747   0.497   6.405 -0.0380 -0.0905  0.0890
   32SAPC   O13 4249   4.614   0.531   6.459 -1.0860  0.4129  0.3791
   32SAPC   O14 4250   4.750   0.409   6.286 -0.1398 -0.3685  0.2084
   32SAPC   O12 4251   4.820   0.630   6.351  0.2766 -0.0568  0.8437
   32SAPC   O11 4252   4.844   0.461   6.516  0.2066  0.0786 -0.0199
   32SAPC    C1 4253   4.791   0.427   6.643  0.3005  0.0026  0.1387
   32SAPC    HA 4254   4.799   0.512   6.714  0.0663 -1.3746  1.8738
   32SAPC    HB 4255   4.687   0.388   6.647 -0.2237  1.2239 -0.9696
   32SAPC    C2 4256   4.865   0.298   6.697  0.4417 -0.1531  0.3249
   32SAPC    HS 4257   4.821   0.268   6.795  1.9272 -0.5047  0.9125
   32SAPC   O21 4258   5.005   0.335   6.699 -0.1316  0.4233 -0.1300
   32SAPC   C21 4259   5.064   0.313   6.815 -0.2295  0.4220 -0.0806
   32SAPC   O22 4260   5.014   0.257   6.914 -0.3716 -0.1015  0.5489
   32SAPC   C22 4261   5.210   0.357   6.809  0.1295 -0.1078  0.7805
   32SAPC   H2R 4262   5.272   0.280   6.859 -0.6061 -0.2329  1.5255
   32SAPC   H2S 4263   5.247   0.364   6.705  0.1677 -1.4608  0.6881
   32SAPC    C3 4264   4.839   0.178   6.603 -0.1901  0.0563 -0.3137
   32SAPC    HX 4265   4.870   0.210   6.501  2.7631 -0.4113  0.3444
   32SAPC    HY 4266   4.730   0.160   6.611  0.1919 -1.9100  1.2390
   32SAPC   O31 4267   4.918   0.063   6.637 -0.2166  0.1284  0.4231
   32SAPC   C31 4268   4.881  -0.011   6.740 -0.2835 -0.5689  0.4291
   32SAPC   O32 4269   4.768  -0.000   6.789 -0.3455 -0.6468  0.6314
   32SAPC   C32 4270   4.990  -0.104   6.780  0.9342 -0.1525  0.1763
   32SAPC   H2X 4271   5.086  -0.048   6.783  0.5115  0.6439 -0.5762
   32SAPC   H2Y 4272   4.997  -0.192   6.712 -0.1302  0.1093 -0.2934
   32SAPC   C23 4273   5.220   0.493   6.880  0.7094  0.3862 -0.2635
   32SAPC   H3R 4274   5.186   0.475   6.985 -0.0456 -3.8989 -1.0815
   32SAPC   H3S 4275   5.146   0.549   6.820 -1.6217 -1.5722  0.6201
   32SAPC   C24 4276   5.351   0.562   6.868  0.5421  0.1907 -0.0360
   32SAPC   H4R 4277   5.374   0.568   6.759 -1.3084  1.6042 -0.3928
   32SAPC   H4S 4278   5.429   0.501   6.918  0.6998  0.9868  0.7202
   32SAPC   C25 4279   5.351   0.706   6.920  0.1640  0.4237 -0.4901
   32SAPC   H5R 4280   5.320   0.779   6.844  0.4059  0.4703 -0.5445
   32SAPC   C26 4281   5.407   0.750   7.028 -0.1778  0.1234  0.0755
   32SAPC   H6R 4282   5.392   0.856   7.050 -1.3364 -0.1758  0.7933
   32SAPC   C27 4283   5.471   0.663   7.138 -0.4553 -0.1695  0.2460
   32SAPC   H7R 4284   5.579   0.645   7.117 -0.9910 -3.0378 -0.5646
   32SAPC   H7S 4285   5.444   0.556   7.152  2.8403 -1.0318  0.9461
   32SAPC   C28 4286   5.442   0.716   7.279 -0.4819  0.1563  0.3178
   32SAPC   H8R 4287   5.333   0.712   7.291 -0.4652 -0.5182  0.2681
   32SAPC   C29 4288   5.528   0.751   7.378 -0.2045 -1.1639 -0.0315
   32SAPC   H9R 4289   5.486   0.787   7.473  0.1088 -2.9083  0.8191
   32SAPC  C210 4290   5.674   0.755   7.381  0.2239  0.2275  0.4397
   32SAPC  H10R 4291   5.703   0.859   7.354 -1.3955  1.0750  1.8019
   32SAPC  H10S 4292   5.716   0.690   7.301  1.0792  0.6855  0.5023
   32SAPC  C211 4293   5.741   0.709   7.507  0.3181  0.3072 -0.0217
   32SAPC  H11R 4294   5.775   0.604   7.504 -1.1862 -0.2346  0.7915
   32SAPC  C212 4295   5.751   0.780   7.621  0.3831  0.2426  0.1728
   32SAPC  H12R 4296   5.793   0.732   7.711  0.8501  0.1613 -0.0906
   32SAPC  C213 4297   5.703   0.922   7.642 -0.3614  0.3066  0.0388
   32SAPC  H13R 4298   5.628   0.915   7.724 -0.7270 -0.2766 -0.3308
   32SAPC  H13S 4299   5.670   0.976   7.551 -2.7716 -1.2876 -0.1587
   32SAPC  C214 4300   5.822   1.007   7.677  0.1641  0.1514 -0.3312
   32SAPC  H14R 4301   5.895   1.012   7.594 -1.1697  0.8218 -1.5030
   32SAPC  C215 4302   5.836   1.087   7.788  0.2747 -0.2233  0.5632
   32SAPC  H15R 4303   5.924   1.151   7.803 -1.1893  2.4381 -1.3673
   32SAPC  C216 4304   5.721   1.094   7.887 -0.1661  0.0484  0.2806
   32SAPC  H16R 4305   5.628   1.121   7.832  0.7812  1.5837 -0.6571
   32SAPC  H16S 4306   5.736   1.181   7.955 -0.3662  0.9566 -0.7971
   32SAPC  C217 4307   5.709   0.966   7.973 -0.2019 -0.1426  0.0355
   32SAPC  H17R 4308   5.690   0.876   7.911 -1.4357 -0.2739  0.5816
   32SAPC  H17S 4309   5.627   0.981   8.046 -0.7449  2.4517 -0.9596
   32SAPC  C218 4310   5.837   0.935   8.060  0.5254  0.0154 -0.1695
   32SAPC  H18R 4311   5.830   1.008   8.143 -0.8306 -0.9542  0.6042
   32SAPC  H18S 4312   5.928   0.958   8.000 -1.0973  2.2723 -1.9842
   32SAPC  C219 4313   5.843   0.795   8.121  0.4151 -0.4602  0.2634
   32SAPC  H19R 4314   5.935   0.794   8.183  1.5207  0.6538 -1.2673
   32SAPC  H19S 4315   5.844   0.717   8.042 -3.9943 -0.7826  0.3044
   32SAPC  C220 4316   5.707   0.764   8.203 -0.2407  0.1216 -0.5255
   32SAPC  H20R 4317   5.727   0.678   8.270  1.0298  1.4741  0.9308
   32SAPC  H20S 4318   5.623   0.750   8.132  0.9092 -3.8318 -1.3242
   32SAPC  H20T 4319   5.681   0.849   8.270  0.3594 -0.1221  0.0376
   32SAPC   C33 4320   4.970  -0.166   6.925  0.1426  0.0149  0.2617
   32SAPC   H3X 4321   5.070  -0.208   6.950  2.0717  3.9560 -0.0738
   32SAPC   H3Y 4322   4.894  -0.248   6.924 -1.5671  1.5526 -0.0354
   32SAPC   C34 4323   4.941  -0.062   7.045  0.4946  0.1073 -0.5327
   32SAPC   H4X 4324   4.841  -0.017   7.027 -0.6120 -0.3278  3.6227
   32SAPC   H4Y 4325   5.018   0.019   7.048  0.7637 -0.0708 -1.7372
   32SAPC   C35 4326   4.946  -0.130   7.183 -0.1953 -0.0900  0.0130
   32SAPC   H5X 4327   5.027  -0.206   7.185  0.0090  0.1310  0.5151
   32SAPC   H5Y 4328   4.849  -0.181   7.202 -0.8306  0.9908 -0.2246
   32SAPC   C36 4329   4.989  -0.043   7.303 -0.3517 -0.1347  0.0844
   32SAPC   H6X 4330   4.937   0.055   7.299  0.9044  0.5688 -4.2462
   32SAPC   H6Y 4331   5.092  -0.009   7.280 -0.5165 -0.7354 -1.7396
   32SAPC   C37 4332   4.997  -0.113   7.441  0.7691  0.6622 -0.8220
   32SAPC   H7X 4333   5.064  -0.202   7.445  1.3578  1.1338  0.4340
   32SAPC   H7Y 4334   4.894  -0.148   7.463  0.9794  0.7946  0.4681
   32SAPC   C38 4335   5.038  -0.024   7.564 -0.4547 -0.2094  0.1610
   32SAPC   H8X 4336   4.978   0.069   7.564 -0.4516 -0.1528  2.1768
   32SAPC   H8Y 4337   5.142   0.009   7.545 -0.5725 -0.0858 -0.2639
   32SAPC   C39 4338   5.018  -0.094   7.705 -0.8288 -0.4718 -0.0806
   32SAPC   H9X 4339   5.038  -0.203   7.698 -3.1512 -1.0043  0.6384
   32SAPC   H9Y 4340   4.914  -0.070   7.735 -0.7789 -1.0225  0.5657
   32SAPC  C310 4341   5.104  -0.040   7.819 -0.2021 -0.0820  0.0341
   32SAPC  H10X 4342   5.096   0.069   7.804 -0.6875 -0.3378 -1.8641
   32SAPC  H10Y 4343   5.209  -0.073   7.807 -0.4889 -0.7513 -0.8200
   32SAPC  C311 4344   5.063  -0.095   7.954 -0.6351  0.8974 -0.4156
   32SAPC  H11X 4345   5.153  -0.088   8.019 -1.2644 -2.1508  0.9761
   32SAPC  H11Y 4346   5.037  -0.201   7.937 -1.5559  0.8713  0.9833
   32SAPC  C312 4347   4.963  -0.017   8.029  0.1506 -0.1395  0.6154
   32SAPC  H12X 4348   4.896   0.024   7.950  0.8674  0.2437  0.1983
   32SAPC  H12Y 4349   5.003   0.071   8.084  0.2175  0.1658  0.0859
   32SAPC  C313 4350   4.875  -0.110   8.111 -0.4911  0.3556  0.9942
   32SAPC  H13X 4351   4.837  -0.205   8.069  0.9782  1.0502 -2.2069
   32SAPC  H13Y 4352   4.783  -0.048   8.118 -0.1339  0.8449  1.4581
   32SAPC  C314 4353   4.941  -0.134   8.253 -0.6153  0.2949 -0.1623
   32SAPC  H14X 4354   4.963  -0.035   8.297  2.0748 -0.8501  1.2992
   32SAPC  H14Y 4355   5.032  -0.197   8.239 -3.3269 -4.0475  0.0370
   32SAPC  C315 4356   4.848  -0.200   8.344 -0.2500  0.4889  0.2150
   32SAPC  H15X 4357   4.837  -0.304   8.309  1.2454 -0.0928  1.3114
   32SAPC  H15Y 4358   4.746  -0.158   8.340 -2.0100 -3.0113  2.6674
   32SAPC  C316 4359   4.889  -0.196   8.493  0.4168  0.1516  0.6058
   32SAPC  H16X 4360   4.999  -0.212   8.497  0.5470  1.1190  1.1076
   32SAPC  H16Y 4361   4.828  -0.268   8.551  0.6217 -0.2145  0.3691
   32SAPC  C317 4362   4.880  -0.066   8.577  0.0154  0.6225  0.1871
   32SAPC  H17X 4363   4.781  -0.015   8.574  0.4214  1.4046 -0.3301
   32SAPC  H17Y 4364   4.945   0.010   8.527 -1.0711  0.3380 -1.7804
   32SAPC  C318 4365   4.926  -0.077   8.724 -0.0815 -0.0154 -0.0689
   32SAPC  H18X 4366   4.963   0.022   8.757  0.2394  0.3574 -1.4697
   32SAPC  H18Y 4367   5.014  -0.145   8.720 -0.1338 -0.0367 -1.2592
   32SAPC  H18Z 4368   4.842  -0.115   8.786  0.8568  0.9598  1.8986
   33POPC     N 4369   2.101   6.394  10.905 -0.0764 -0.3176 -1.2725
   33POPC   C12 4370   2.090   6.396  10.750  0.5007 -0.4748 -0.0506
   33POPC  H12A 4371   2.000   6.454  10.734  0.2682 -0.6960  0.4456
   33POPC  H12B 4372   2.090   6.291  10.722 -1.7282 -0.8506  1.1215
   33POPC   C13 4373   2.091   6.526  10.966  0.0744 -0.7491 -0.8059
   33POPC  H13A 4374   1.995   6.574  10.969  0.7410  0.7329 -1.7865
   33POPC  H13B 4375   2.129   6.535  11.066 -1.3717 -1.0767 -0.2015
   33POPC  H13C 4376   2.144   6.599  10.906 -0.8822  0.0504 -0.6961
   33POPC   C14 4377   1.993   6.307  10.962  0.8050  0.1657  0.0808
   33POPC  H14A 4378   1.896   6.352  10.944  1.3415  2.6880  2.7400
   33POPC  H14B 4379   2.001   6.207  10.922 -2.1712  0.3190 -1.2130
   33POPC  H14C 4380   1.998   6.302  11.070  2.2965  1.4268  0.0930
   33POPC   C15 4381   2.232   6.342  10.954 -0.2357  0.3461  0.4957
   33POPC  H15A 4382   2.218   6.310  11.056 -2.5756 -0.2410  0.0560
   33POPC  H15B 4383   2.322   6.402  10.948 -0.0266  0.0818  0.9378
   33POPC  H15C 4384   2.257   6.254  10.895  0.3726  0.9835 -0.2277
   33POPC   C11 4385   2.211   6.457  10.673 -0.2324 -0.8609  0.1296
   33POPC  H11A 4386   2.210   6.421  10.568  2.7219 -1.1910  0.1390
   33POPC  H11B 4387   2.308   6.421  10.713 -0.3371 -0.8361  0.4058
   33POPC     P 4388   2.327   6.681  10.612 -0.0072  0.3482  0.4883
   33POPC   O13 4389   2.463   6.622  10.634 -0.3421 -0.1596 -0.1570
   33POPC   O14 4390   2.318   6.829  10.639  0.1072 -0.0778  0.1422
   33POPC   O12 4391   2.207   6.601  10.675  0.2203 -0.0873  1.1853
   33POPC   O11 4392   2.315   6.662  10.454  0.1471  0.4687 -0.5047
   33POPC    C1 4393   2.181   6.657  10.404 -0.4608 -0.2884  0.7322
   33POPC    HA 4394   2.142   6.553  10.412  0.7882 -1.0478 -1.9297
   33POPC    HB 4395   2.122   6.734  10.458  1.2550  1.8243 -0.2584
   33POPC    C2 4396   2.183   6.711  10.263  0.1084  0.4166  0.0224
   33POPC    HS 4397   2.274   6.668  10.215  1.1392  0.9110  1.4557
   33POPC   O21 4398   2.187   6.855  10.275  1.0758  0.2232  0.1783
   33POPC   C21 4399   2.304   6.903  10.242  0.3028  0.4705 -0.4294
   33POPC   O22 4400   2.398   6.836  10.194  0.0814  0.2440 -0.7650
   33POPC   C22 4401   2.301   7.056  10.281 -0.0499 -1.0922 -0.2116
   33POPC   H2R 4402   2.368   7.086  10.364 -0.5644  1.5983 -0.6923
   33POPC   H2S 4403   2.195   7.080  10.302  0.0643  0.0241 -0.8063
   33POPC    C3 4404   2.053   6.657  10.191  0.0269  0.4570  0.6633
   33POPC    HX 4405   1.972   6.724  10.225 -1.0078  0.7554 -2.1944
   33POPC    HY 4406   2.033   6.553  10.227  0.4773 -0.6074 -1.9375
   33POPC   O31 4407   2.064   6.650  10.050 -0.4521  0.2879  0.1435
   33POPC   C31 4408   1.984   6.733   9.978  0.1073  0.5019  1.1778
   33POPC   O32 4409   1.916   6.823  10.024  0.2634  0.1491  0.0345
   33POPC   C32 4410   1.996   6.688   9.831 -0.3398  0.3462  0.4632
   33POPC   H2X 4411   1.924   6.603   9.830  1.2900 -1.1456 -1.5511
   33POPC   H2Y 4412   2.091   6.637   9.802 -1.8163 -0.9652 -2.4842
   33POPC   C23 4413   2.350   7.137  10.155  0.1002  0.3071 -0.6036
   33POPC   H3R 4414   2.454   7.108  10.130  1.0515 -0.3716  3.4725
   33POPC   H3S 4415   2.360   7.244  10.184  2.7411  0.3212 -1.2692
   33POPC   C24 4416   2.256   7.126  10.033  0.2023 -0.4592  0.0532
   33POPC   H4R 4417   2.153   7.134  10.074  0.9605  0.6371  1.8428
   33POPC   H4S 4418   2.250   7.030   9.978  1.2567 -1.4551  1.6073
   33POPC   C25 4419   2.273   7.233   9.933 -0.0337 -0.1688 -0.0312
   33POPC   H5R 4420   2.380   7.255   9.913  0.7593 -2.0391  1.7831
   33POPC   H5S 4421   2.244   7.325   9.990 -2.4464 -0.1748 -1.1254
   33POPC   C26 4422   2.179   7.217   9.810  0.0762 -0.5299  0.0742
   33POPC   H6R 4423   2.071   7.223   9.835 -0.5236 -1.8340 -1.9886
   33POPC   H6S 4424   2.190   7.110   9.784 -0.4434 -0.8069  0.9530
   33POPC   C27 4425   2.209   7.310   9.690  0.2457  0.1797 -0.2164
   33POPC   H7R 4426   2.315   7.287   9.664 -0.0266 -1.9944  0.4241
   33POPC   H7S 4427   2.204   7.414   9.731 -1.6423 -0.4038  1.1651
   33POPC   C28 4428   2.118   7.284   9.569 -0.0020  0.2490  0.2544
   33POPC   H8R 4429   2.120   7.368   9.497 -0.8869  1.2793  1.3814
   33POPC   H8S 4430   2.013   7.295   9.605  0.2801 -1.3586  1.7030
   33POPC   C29 4431   2.141   7.150   9.501 -0.7887 -0.3256 -0.6163
   33POPC   H91 4432   2.179   7.068   9.564 -0.2139  0.8442  0.5972
   33POPC  C210 4433   2.129   7.127   9.371  0.3430  0.1761  0.7922
   33POPC  H101 4434   2.159   7.028   9.332  0.7164  0.5624  0.0574
   33POPC  C211 4435   2.084   7.227   9.268 -0.1750  0.0977  0.0446
   33POPC  H11R 4436   2.158   7.309   9.254  0.0614 -0.0171  0.6014
   33POPC  H11S 4437   1.990   7.277   9.302 -1.6712 -1.2070 -1.9654
   33POPC  C212 4438   2.043   7.164   9.140  0.1065  0.6493  0.1439
   33POPC  H12R 4439   1.977   7.237   9.089 -0.2216  0.9771  1.0194
   33POPC  H12S 4440   1.980   7.075   9.160  0.6048  0.1817 -0.3164
   33POPC  C213 4441   2.156   7.139   9.032  0.2339 -0.5632 -0.1659
   33POPC  H13R 4442   2.245   7.095   9.083  0.8323  1.5981  0.7626
   33POPC  H13S 4443   2.192   7.239   8.999 -1.6531  0.3290  0.3678
   33POPC  C214 4444   2.101   7.078   8.902  0.1420  0.4005 -0.3127
   33POPC  H14R 4445   2.053   6.979   8.917 -3.3394  1.3258 -3.5897
   33POPC  H14S 4446   2.180   7.061   8.825  0.9190  2.1009  0.0649
   33POPC  C215 4447   1.998   7.162   8.836  0.2394 -0.2855  0.2135
   33POPC  H15R 4448   2.037   7.265   8.826  0.7308 -0.5346 -0.5035
   33POPC  H15S 4449   1.901   7.163   8.892  0.2408  2.1407  0.2862
   33POPC  C216 4450   1.956   7.123   8.691  0.6990 -0.0098  0.4743
   33POPC  H16R 4451   1.946   7.012   8.683 -2.9228  0.3401 -1.8457
   33POPC  H16S 4452   2.046   7.147   8.631  1.9053 -0.0165  2.1909
   33POPC  C217 4453   1.831   7.181   8.635 -0.3156 -0.0458  0.1115
   33POPC  H17R 4454   1.804   7.143   8.535 -1.3008 -1.9043  1.0363
   33POPC  H17S 4455   1.853   7.290   8.625 -0.0472 -0.1837 -0.8956
   33POPC  C218 4456   1.700   7.165   8.719 -0.4078 -0.3721  0.0619
   33POPC  H18R 4457   1.616   7.204   8.657  0.3966 -0.1364 -0.8983
   33POPC  H18S 4458   1.712   7.225   8.811  0.9433 -3.0675  1.7733
   33POPC  H18T 4459   1.695   7.058   8.746  0.9763 -0.4493  0.0595
   33POPC   C33 4460   1.950   6.784   9.717  0.2156  0.1178 -0.7498
   33POPC   H3X 4461   1.986   6.889   9.729  1.5238 -0.3238 -0.6486
   33POPC   H3Y 4462   1.839   6.789   9.722  0.2316  1.0127 -1.0099
   33POPC   C34 4463   1.973   6.719   9.579  0.1386  0.1832  0.1154
   33POPC   H4X 4464   1.941   6.615   9.602  0.5594 -0.0100 -0.1579
   33POPC   H4Y 4465   2.080   6.712   9.550 -0.2394 -1.5647 -0.9754
   33POPC   C35 4466   1.897   6.780   9.462  0.1844  0.0527  0.7092
   33POPC   H5X 4467   1.930   6.886   9.465 -1.2144  0.4903  1.3594
   33POPC   H5Y 4468   1.789   6.785   9.485 -0.4039  1.5934 -1.9227
   33POPC   C36 4469   1.922   6.700   9.326  0.0959 -0.1234  0.0278
   33POPC   H6X 4470   1.894   6.594   9.345 -0.7024  0.4984  2.7053
   33POPC   H6Y 4471   2.027   6.697   9.291  0.3303 -2.1968  0.7759
   33POPC   C37 4472   1.844   6.769   9.214 -0.5885 -0.1441  0.5665
   33POPC   H7X 4473   1.896   6.864   9.186  0.5169 -1.0549 -0.5884
   33POPC   H7Y 4474   1.738   6.789   9.238 -1.7838 -1.0656 -3.2850
   33POPC   C38 4475   1.841   6.681   9.091 -1.0994 -0.8477 -0.4335
   33POPC   H8X 4476   1.758   6.610   9.106 -1.2936 -0.7441 -0.9891
   33POPC   H8Y 4477   1.939   6.631   9.074 -0.6239  0.3456 -1.3568
   33POPC   C39 4478   1.807   6.773   8.969  0.3880 -0.0768  0.4560
   33POPC   H9X 4479   1.881   6.855   8.964 -0.8898  1.2192  1.7707
   33POPC   H9Y 4480   1.703   6.809   8.983  0.5000  1.3635 -1.8626
   33POPC  C310 4481   1.802   6.688   8.842 -0.0422  0.1193  0.0205
   33POPC  H10X 4482   1.739   6.598   8.861  1.4465 -0.6159  1.7855
   33POPC  H10Y 4483   1.906   6.652   8.827  0.2951  1.4482 -1.0027
   33POPC  C311 4484   1.759   6.762   8.715 -0.0082  0.4195  0.2438
   33POPC  H11X 4485   1.807   6.860   8.699  0.9203  0.0747  0.8193
   33POPC  H11Y 4486   1.649   6.777   8.727  0.1917  0.3639  2.6081
   33POPC  C312 4487   1.791   6.674   8.588  0.1395 -0.3612 -0.3096
   33POPC  H12X 4488   1.754   6.573   8.613  2.7255 -1.6610 -1.3674
   33POPC  H12Y 4489   1.901   6.664   8.572  0.3325  1.1166 -0.0587
   33POPC  C313 4490   1.732   6.715   8.460 -0.6703 -0.2496 -0.2361
   33POPC  H13X 4491   1.762   6.821   8.441  1.5610 -0.2295  2.6995
   33POPC  H13Y 4492   1.622   6.710   8.469 -0.5096 -1.2130  1.4846
   33POPC  C314 4493   1.784   6.639   8.339 -0.7303 -0.5331  0.2672
   33POPC  H14X 4494   1.770   6.530   8.356  0.2827 -0.5521  1.0550
   33POPC  H14Y 4495   1.894   6.645   8.326 -0.6404 -2.0305  0.1211
   33POPC  C315 4496   1.711   6.672   8.207 -0.7077  0.1533  0.0717
   33POPC  H15X 4497   1.603   6.661   8.226 -0.6712 -0.7133 -0.1808
   33POPC  H15Y 4498   1.730   6.592   8.132 -3.3450 -1.8403  1.3408
   33POPC  C316 4499   1.739   6.815   8.155  0.3051  0.2095 -0.3827
   33POPC  H16X 4500   1.781   6.879   8.236 -0.2114 -0.5586  0.5157
   33POPC  H16Y 4501   1.642   6.856   8.120 -0.0393 -1.4185 -1.4407
   33POPC  H16Z 4502   1.812   6.806   8.072  0.9145 -1.7483  0.3110
   34POPC     N 4503   1.271   1.223  11.007 -0.3930 -0.8984 -0.8057
   34POPC   C12 4504   1.131   1.285  11.010 -0.1319 -0.2732 -0.2189
   34POPC  H12A 4505   1.131   1.372  11.074 -0.4790 -0.5002  0.0962
   34POPC  H12B 4506   1.067   1.209  11.055 -1.7963  0.3901 -1.3792
   34POPC   C13 4507   1.359   1.320  10.941 -0.2477  0.3100  0.1940
   34POPC  H13A 4508   1.464   1.298  10.950 -0.6811 -1.5352  1.2228
   34POPC  H13B 4509   1.319   1.326  10.840 -1.8587 -1.3376  0.6729
   34POPC  H13C 4510   1.351   1.417  10.987  0.2603  0.2172  0.4874
   34POPC   C14 4511   1.324   1.193  11.142 -0.3748 -0.0139  0.2256
   34POPC  H14A 4512   1.262   1.127  11.202 -0.7947  1.8677  1.9802
   34POPC  H14B 4513   1.413   1.134  11.126  0.4500  1.5049 -1.0050
   34POPC  H14C 4514   1.349   1.279  11.202  4.5455  0.2930 -1.8169
   34POPC   C15 4515   1.272   1.100  10.927 -0.2067  0.1011  0.1738
   34POPC  H15A 4516   1.226   1.116  10.831  0.3747  0.7251 -0.0041
   34POPC  H15B 4517   1.231   1.011  10.973  2.4778 -3.0173 -2.8111
   34POPC  H15C 4518   1.376   1.086  10.900  0.0687  2.4774 -0.1746
   34POPC   C11 4519   1.058   1.320  10.881  0.6468  0.4509  0.7567
   34POPC  H11A 4520   1.123   1.395  10.831 -0.3803 -0.0860 -1.5375
   34POPC  H11B 4521   0.969   1.381  10.906 -1.1531 -0.3944 -2.8105
   34POPC     P 4522   0.998   1.211  10.654  0.2492 -0.1577 -0.0582
   34POPC   O13 4523   1.050   1.345  10.607  0.2802  0.7350 -0.3135
   34POPC   O14 4524   0.862   1.167  10.621  0.4888 -0.6351  0.1984
   34POPC   O12 4525   1.031   1.201  10.808 -0.1565  0.1131  0.3524
   34POPC   O11 4526   1.110   1.105  10.610 -0.0153  0.2641 -0.0630
   34POPC    C1 4527   1.230   1.144  10.542  0.3265  0.0396  0.2935
   34POPC    HA 4528   1.290   1.051  10.540 -0.4318 -0.4757  0.7340
   34POPC    HB 4529   1.288   1.221  10.597  0.2620  1.6992 -1.8374
   34POPC    C2 4530   1.203   1.185  10.400  0.1212 -0.0387  0.4389
   34POPC    HS 4531   1.143   1.278  10.400  0.8197  0.5831 -3.3088
   34POPC   O21 4532   1.140   1.074  10.340 -0.1749 -0.1484  0.2181
   34POPC   C21 4533   1.043   1.099  10.255  0.5153 -0.3568 -0.0581
   34POPC   O22 4534   1.010   1.210  10.217 -0.1325 -0.7115 -0.0475
   34POPC   C22 4535   0.991   0.971  10.195 -0.0162  0.2241 -0.2510
   34POPC   H2R 4536   0.922   0.922  10.268  0.3271  0.2683  0.1021
   34POPC   H2S 4537   1.080   0.906  10.181 -1.2043 -1.7374  0.7403
   34POPC    C3 4538   1.329   1.225  10.315 -0.1989  0.8070 -0.1382
   34POPC    HX 4539   1.381   1.127  10.329 -1.6767  0.0078 -0.1061
   34POPC    HY 4540   1.388   1.305  10.366  0.1115  0.3263  0.2764
   34POPC   O31 4541   1.316   1.244  10.171  0.0296 -0.0797 -0.5261
   34POPC   C31 4542   1.294   1.365  10.119  0.5311  0.9532 -0.1201
   34POPC   O32 4543   1.282   1.469  10.181  0.4655 -0.0356 -0.1248
   34POPC   C32 4544   1.284   1.341   9.972 -0.4753 -0.1793 -0.2578
   34POPC   H2X 4545   1.189   1.288   9.950 -1.7526  2.2501 -0.9549
   34POPC   H2Y 4546   1.369   1.278   9.938 -1.1282 -1.2148 -0.0179
   34POPC   C23 4547   0.910   0.985  10.060  0.5282  0.0335 -1.3604
   34POPC   H3R 4548   0.835   1.067  10.058  1.9357  1.3304 -2.8446
   34POPC   H3S 4549   0.853   0.890  10.044 -0.5303 -0.0801  2.1462
   34POPC   C24 4550   1.000   1.009   9.943 -0.4051  0.3968  1.1573
   34POPC   H4R 4551   1.047   0.911   9.918 -0.4103  0.0541  2.3816
   34POPC   H4S 4552   1.080   1.085   9.962  0.0713  0.0794  0.4503
   34POPC   C25 4553   0.926   1.058   9.811  0.3191 -0.0147 -0.2725
   34POPC   H5R 4554   0.844   1.127   9.841 -1.2335 -0.8210 -2.3976
   34POPC   H5S 4555   0.879   0.969   9.764  1.5993 -0.4036 -0.8814
   34POPC   C26 4556   1.019   1.120   9.704  0.1726 -0.6946  1.4500
   34POPC   H6R 4557   1.106   1.055   9.680 -0.1084 -0.9280  1.0400
   34POPC   H6S 4558   1.059   1.215   9.746  0.2330  0.4672 -1.0163
   34POPC   C27 4559   0.935   1.142   9.578 -0.0665  0.5603  0.2675
   34POPC   H7R 4560   0.854   1.216   9.596  0.0546  0.6642  0.3976
   34POPC   H7S 4561   0.876   1.055   9.543  0.2970  0.9272 -1.3342
   34POPC   C28 4562   1.018   1.176   9.454 -0.3807  0.0003  0.7307
   34POPC   H8R 4563   0.941   1.164   9.375  0.5686 -0.1427 -0.2007
   34POPC   H8S 4564   1.092   1.095   9.439 -1.2209 -0.5970 -0.3238
   34POPC   C29 4565   1.075   1.314   9.435 -0.2953  0.5306 -0.2991
   34POPC   H91 4566   1.086   1.375   9.526  1.9972 -0.2941  0.0304
   34POPC  C210 4567   1.108   1.360   9.315  0.4221 -0.1036  1.5054
   34POPC  H101 4568   1.147   1.462   9.309  1.3920 -0.5238  0.3454
   34POPC  C211 4569   1.098   1.296   9.173 -0.3283  0.8693 -0.1604
   34POPC  H11R 4570   1.072   1.188   9.182 -1.2129  1.1631  0.9830
   34POPC  H11S 4571   1.194   1.312   9.118 -0.9994 -0.4800 -1.8457
   34POPC  C212 4572   0.984   1.339   9.080  0.1474 -0.4301 -0.0810
   34POPC  H12R 4573   0.992   1.450   9.079  0.8146 -0.4366  1.0957
   34POPC  H12S 4574   0.881   1.327   9.119 -0.3098 -0.4948 -1.2827
   34POPC  C213 4575   0.989   1.299   8.934 -0.6943  0.2910  0.0442
   34POPC  H13R 4576   0.999   1.189   8.918  1.5301  0.6720 -1.8665
   34POPC  H13S 4577   1.083   1.339   8.890 -0.2233 -1.3205 -0.5070
   34POPC  C214 4578   0.877   1.356   8.851  0.0671  0.2144 -0.3460
   34POPC  H14R 4579   0.868   1.467   8.851  1.5761  0.3631  0.2296
   34POPC  H14S 4580   0.787   1.311   8.898  2.7127 -2.2148  2.9195
   34POPC  C215 4581   0.885   1.313   8.707  0.3086 -0.1922  0.9489
   34POPC  H15R 4582   0.859   1.205   8.711  1.5372 -0.5840 -0.6550
   34POPC  H15S 4583   0.985   1.339   8.665 -0.0812  1.2229  0.8363
   34POPC  C216 4584   0.773   1.380   8.616 -0.0922  0.6656  0.0073
   34POPC  H16R 4585   0.799   1.488   8.615  0.3504  0.6190  2.0577
   34POPC  H16S 4586   0.676   1.378   8.671  0.3833  0.7413  0.8646
   34POPC  C217 4587   0.755   1.318   8.470 -0.0848  0.6394  0.2397
   34POPC  H17R 4588   0.712   1.216   8.472 -1.3136  1.1388  1.6179
   34POPC  H17S 4589   0.856   1.317   8.425  0.6048  1.6281  1.6775
   34POPC  C218 4590   0.668   1.394   8.374 -0.0535 -0.2810  0.2338
   34POPC  H18R 4591   0.567   1.404   8.418  0.6505  1.3947  1.5607
   34POPC  H18S 4592   0.655   1.340   8.277  2.1580 -1.5088  0.5543
   34POPC  H18T 4593   0.712   1.492   8.345 -0.3496  0.6699  2.7931
   34POPC   C33 4594   1.285   1.473   9.891 -0.4550 -0.3058 -0.5155
   34POPC   H3X 4595   1.376   1.532   9.915 -0.3474  0.3915 -2.4355
   34POPC   H3Y 4596   1.193   1.529   9.920 -0.3150 -0.2317 -0.2202
   34POPC   C34 4597   1.298   1.460   9.736 -0.4460  0.6612 -0.6225
   34POPC   H4X 4598   1.292   1.566   9.703 -0.9253  1.0608  0.6738
   34POPC   H4Y 4599   1.207   1.422   9.687 -0.8559 -0.2114  0.7406
   34POPC   C35 4600   1.419   1.380   9.690 -0.2496 -0.1083  0.2564
   34POPC   H5X 4601   1.421   1.275   9.724 -3.0050 -0.8033 -1.3998
   34POPC   H5Y 4602   1.507   1.437   9.726 -0.3742  0.9358 -0.9879
   34POPC   C36 4603   1.434   1.389   9.539 -0.5940 -0.5136 -0.1206
   34POPC   H6X 4604   1.337   1.433   9.505 -0.2095  0.9613  0.6143
   34POPC   H6Y 4605   1.440   1.285   9.501 -0.2421 -0.3200 -0.6137
   34POPC   C37 4606   1.548   1.471   9.485  0.2181 -0.1273 -0.6042
   34POPC   H7X 4607   1.645   1.441   9.531  1.4991  1.5341 -2.0654
   34POPC   H7Y 4608   1.527   1.576   9.516 -0.2690 -0.7768  1.3941
   34POPC   C38 4609   1.552   1.476   9.336  0.7548 -0.7554  0.2311
   34POPC   H8X 4610   1.459   1.516   9.291  0.3593 -2.2537 -0.3538
   34POPC   H8Y 4611   1.550   1.369   9.307 -1.3677 -0.5820 -0.3845
   34POPC   C39 4612   1.671   1.545   9.273 -0.1388 -0.2283  0.4928
   34POPC   H9X 4613   1.757   1.511   9.334 -1.4370 -0.2305  2.4231
   34POPC   H9Y 4614   1.669   1.656   9.283  2.8690 -0.0758  0.1617
   34POPC  C310 4615   1.690   1.505   9.127 -0.0700  0.2644  0.4080
   34POPC  H10X 4616   1.664   1.397   9.120 -1.4188  0.6117 -0.1692
   34POPC  H10Y 4617   1.798   1.514   9.103 -0.1617  0.8304  0.1832
   34POPC  C311 4618   1.611   1.589   9.021  0.0516  0.1064  0.2417
   34POPC  H11X 4619   1.637   1.692   9.054  3.5886 -0.0515 -1.5966
   34POPC  H11Y 4620   1.503   1.565   9.036 -0.5122  0.9862 -2.0162
   34POPC  C312 4621   1.630   1.556   8.872  0.1808 -0.2473 -0.0441
   34POPC  H12X 4622   1.736   1.565   8.837  0.2891  1.8511  0.6615
   34POPC  H12Y 4623   1.594   1.643   8.813  0.8189  0.3443  0.4239
   34POPC  C313 4624   1.566   1.421   8.836  0.0917 -0.3425 -0.6043
   34POPC  H13X 4625   1.460   1.435   8.864 -0.5463 -1.0702 -2.4987
   34POPC  H13Y 4626   1.605   1.337   8.897 -1.8724 -1.2202 -0.4913
   34POPC  C314 4627   1.593   1.378   8.692 -0.9067 -0.1349 -0.1428
   34POPC  H14X 4628   1.702   1.357   8.686 -0.7474  0.7722 -0.5287
   34POPC  H14Y 4629   1.570   1.460   8.622  1.3879 -0.0081 -0.8434
   34POPC  C315 4630   1.517   1.251   8.654 -0.3472 -0.2613 -0.1626
   34POPC  H15X 4631   1.542   1.244   8.546  0.3183  1.7836 -0.1851
   34POPC  H15Y 4632   1.407   1.261   8.671 -0.5832 -1.3645 -0.9294
   34POPC  C316 4633   1.567   1.119   8.716  0.2346  0.0750  0.2781
   34POPC  H16X 4634   1.549   1.117   8.826  0.4618  3.2403  0.4491
   34POPC  H16Y 4635   1.677   1.109   8.709  0.1226 -1.6018  0.5400
   34POPC  H16Z 4636   1.517   1.034   8.665 -0.5048  0.2119  0.7516
   35POPC     N 4637   1.553   4.692  11.537 -0.7138  0.2790  0.3281
   35POPC   C12 4638   1.465   4.667  11.415  0.2717 -0.1864  0.0091
   35POPC  H12A 4639   1.403   4.755  11.413 -1.3935 -1.2129  2.1503
   35POPC  H12B 4640   1.407   4.579  11.439 -1.4376  0.0387 -2.8527
   35POPC   C13 4641   1.654   4.590  11.560  0.8320 -0.0838  0.7280
   35POPC  H13A 4642   1.713   4.577  11.471  1.9689 -0.5411  1.5143
   35POPC  H13B 4643   1.725   4.617  11.638  0.5619 -0.6951  1.1904
   35POPC  H13C 4644   1.611   4.494  11.585  2.0741 -0.4247  1.7272
   35POPC   C14 4645   1.620   4.819  11.511 -0.7020 -0.3389 -0.1363
   35POPC  H14A 4646   1.564   4.911  11.500  1.4190  0.9298 -1.2502
   35POPC  H14B 4647   1.702   4.846  11.576 -2.3060  0.5400  1.6224
   35POPC  H14C 4648   1.678   4.814  11.419  0.0995  0.5192  0.3033
   35POPC   C15 4649   1.470   4.713  11.654 -0.3438  0.1267 -0.3149
   35POPC  H15A 4650   1.435   4.618  11.693 -0.0876 -0.1276 -0.6984
   35POPC  H15B 4651   1.389   4.780  11.629  0.3255  0.4266 -1.7233
   35POPC  H15C 4652   1.531   4.749  11.736 -1.2774 -1.5417  1.2115
   35POPC   C11 4653   1.532   4.654  11.276  0.4398 -0.2724  0.4476
   35POPC  H11A 4654   1.451   4.625  11.205  1.2605 -1.2859 -0.0939
   35POPC  H11B 4655   1.609   4.574  11.272  0.3666 -0.3482  0.5294
   35POPC     P 4656   1.525   4.898  11.171  0.3760 -0.3950  0.3902
   35POPC   O13 4657   1.621   5.009  11.161 -0.3386 -0.4291 -0.2545
   35POPC   O14 4658   1.399   4.921  11.249 -0.1683  0.0643  0.3736
   35POPC   O12 4659   1.600   4.771  11.224 -0.2298 -0.0313  0.1661
   35POPC   O11 4660   1.494   4.852  11.020 -0.5460 -0.3821 -0.4140
   35POPC    C1 4661   1.559   4.748  10.951  0.3526  0.8072 -0.4472
   35POPC    HA 4662   1.599   4.668  11.016  1.4684  2.5387  1.0979
   35POPC    HB 4663   1.648   4.793  10.902 -0.3307  2.8180  0.0301
   35POPC    C2 4664   1.481   4.691  10.824  0.1001 -0.3318 -0.0211
   35POPC    HS 4665   1.549   4.657  10.743  1.0701  0.4254  0.4488
   35POPC   O21 4666   1.409   4.800  10.768  0.4736 -0.1689 -0.0999
   35POPC   C21 4667   1.472   4.889  10.687  0.1120  0.1245 -0.5838
   35POPC   O22 4668   1.579   4.869  10.642 -0.2316 -0.2365  0.1056
   35POPC   C22 4669   1.379   5.010  10.673 -0.1930 -0.2016 -0.1037
   35POPC   H2R 4670   1.407   5.075  10.758 -0.7478 -0.3134  0.1710
   35POPC   H2S 4671   1.274   4.982  10.697  0.3213 -1.9878  0.2225
   35POPC    C3 4672   1.394   4.565  10.860 -0.2310  0.5344 -1.1153
   35POPC    HX 4673   1.340   4.589  10.954  0.6730  0.3741 -0.5446
   35POPC    HY 4674   1.453   4.474  10.884 -0.5270  1.0091  1.8633
   35POPC   O31 4675   1.302   4.522  10.758 -0.3325 -0.0564 -0.3903
   35POPC   C31 4676   1.347   4.504  10.635  0.2481 -0.4132  0.1617
   35POPC   O32 4677   1.462   4.506  10.594  0.2134  0.0218 -0.0037
   35POPC   C32 4678   1.236   4.473  10.542 -0.2695 -0.2988  0.4424
   35POPC   H2X 4679   1.160   4.554  10.556  0.0975 -0.0440  0.9967
   35POPC   H2Y 4680   1.205   4.367  10.559 -0.5655 -0.3646 -0.4426
   35POPC   C23 4681   1.381   5.082  10.542 -0.4681 -0.2324  0.4952
   35POPC   H3R 4682   1.485   5.095  10.506 -0.7723 -1.1064 -0.7577
   35POPC   H3S 4683   1.337   5.182  10.561 -0.8679 -0.2860 -0.1419
   35POPC   C24 4684   1.299   5.015  10.426 -0.0257 -0.4688 -0.5617
   35POPC   H4R 4685   1.273   5.068  10.332  0.5269  1.9578  0.5759
   35POPC   H4S 4686   1.200   4.998  10.473  0.8199  0.2868  1.6669
   35POPC   C25 4687   1.350   4.874  10.381  0.5254 -0.6928 -0.1481
   35POPC   H5R 4688   1.316   4.796  10.452 -0.2938  0.8630  1.2143
   35POPC   H5S 4689   1.460   4.868  10.395  0.3865 -0.3192  1.2520
   35POPC   C26 4690   1.315   4.838  10.239 -0.1931  0.3042  0.7471
   35POPC   H6R 4691   1.206   4.842  10.218 -0.1548 -0.0671  0.4727
   35POPC   H6S 4692   1.337   4.731  10.221  0.2693  0.4182  0.6318
   35POPC   C27 4693   1.382   4.936  10.143  0.4155  0.5584 -0.1691
   35POPC   H7R 4694   1.486   4.946  10.180  0.7421 -0.4274 -0.7937
   35POPC   H7S 4695   1.337   5.038  10.139  1.5044  1.0618  0.0058
   35POPC   C28 4696   1.395   4.872  10.007 -0.8887 -0.4882 -0.3620
   35POPC   H8R 4697   1.464   4.787  10.024 -1.0795 -0.0597  3.5926
   35POPC   H8S 4698   1.447   4.943   9.940 -1.6201  0.5317  0.1170
   35POPC   C29 4699   1.275   4.826   9.941 -0.0107 -0.0488  0.1239
   35POPC   H91 4700   1.209   4.757   9.996 -0.4284 -0.8023 -1.2846
   35POPC  C210 4701   1.234   4.856   9.815 -0.6617  0.1033  0.9868
   35POPC  H101 4702   1.135   4.826   9.779 -0.0881  0.1426 -0.7001
   35POPC  C211 4703   1.293   4.947   9.710 -0.0568  0.9042 -0.8174
   35POPC  H11R 4704   1.400   4.970   9.730  0.0136 -0.0712 -0.0364
   35POPC  H11S 4705   1.238   5.044   9.702 -1.1415  0.1919 -3.2050
   35POPC  C212 4706   1.302   4.892   9.569 -0.1791 -1.0378  0.3105
   35POPC  H12R 4707   1.368   4.803   9.555  1.8576  0.6155 -1.3399
   35POPC  H12S 4708   1.339   4.972   9.502 -3.2219 -0.1325 -0.4399
   35POPC  C213 4709   1.167   4.862   9.510  0.6820  0.7355 -0.2701
   35POPC  H13R 4710   1.099   4.948   9.528  0.9937  0.6323  1.5466
   35POPC  H13S 4711   1.124   4.765   9.542  0.5827  0.1889 -1.9286
   35POPC  C214 4712   1.187   4.860   9.353  0.3902  0.4665  0.7504
   35POPC  H14R 4713   1.257   4.776   9.334 -2.2362 -1.5175 -0.8085
   35POPC  H14S 4714   1.235   4.958   9.331  0.7944  0.5703  1.9766
   35POPC  C215 4715   1.060   4.832   9.263  0.8732 -0.0680 -0.0214
   35POPC  H15R 4716   0.974   4.897   9.289 -0.6771 -1.8123 -0.5151
   35POPC  H15S 4717   1.037   4.727   9.292 -0.8805  0.6510  1.3849
   35POPC  C216 4718   1.100   4.827   9.115  0.4411 -0.3632 -0.1946
   35POPC  H16R 4719   1.017   4.778   9.060 -0.9584 -0.1910  1.6415
   35POPC  H16S 4720   1.190   4.764   9.102  1.0264  0.2316  0.7987
   35POPC  C217 4721   1.122   4.969   9.057  0.1117  0.5754  0.0709
   35POPC  H17R 4722   1.229   4.993   9.075  0.0714  1.0122 -0.2646
   35POPC  H17S 4723   1.056   5.030   9.123  1.3543  0.8960  1.0558
   35POPC  C218 4724   1.101   4.971   8.908  0.1259  0.1769 -0.1485
   35POPC  H18R 4725   1.183   4.916   8.858  0.2633  0.6977 -0.5059
   35POPC  H18S 4726   1.097   5.076   8.871 -0.9157 -0.0388 -0.6845
   35POPC  H18T 4727   0.995   4.940   8.895 -0.9041  2.7498  1.3056
   35POPC   C33 4728   1.277   4.482  10.390 -0.6400  0.4378  0.2772
   35POPC   H3X 4729   1.356   4.409  10.364  0.4193  1.0662  1.5815
   35POPC   H3Y 4730   1.326   4.580  10.375 -0.2599  0.1004 -0.8008
   35POPC   C34 4731   1.159   4.472  10.294  0.2340 -0.7011  0.2692
   35POPC   H4X 4732   1.110   4.571  10.300  4.2846  1.5524  0.1439
   35POPC   H4Y 4733   1.082   4.392  10.302 -1.5182  0.8821 -0.0881
   35POPC   C35 4734   1.214   4.452  10.144  0.6043 -0.0175  1.0649
   35POPC   H5X 4735   1.263   4.353  10.154 -1.2762 -0.8910  2.1757
   35POPC   H5Y 4736   1.288   4.529  10.116 -0.7757  1.0539  0.2230
   35POPC   C36 4737   1.088   4.443  10.045  0.4139  0.8306 -0.2862
   35POPC   H6X 4738   1.010   4.518  10.069 -2.3971 -0.9862 -2.9261
   35POPC   H6Y 4739   1.033   4.350  10.071 -0.0018  1.3593  0.7700
   35POPC   C37 4740   1.135   4.457   9.901 -0.4681 -0.0509  0.5847
   35POPC   H7X 4741   1.217   4.383   9.891 -2.4928 -2.3946  0.3265
   35POPC   H7Y 4742   1.170   4.562   9.891  0.2636 -0.1406  1.9356
   35POPC   C38 4743   1.036   4.443   9.786  0.3957  0.0360 -0.2913
   35POPC   H8X 4744   0.962   4.525   9.791  0.2455 -0.1660  1.6799
   35POPC   H8Y 4745   0.971   4.356   9.810 -0.8848  1.5360  1.9889
   35POPC   C39 4746   1.111   4.439   9.657  0.5426 -0.3013 -0.2079
   35POPC   H9X 4747   1.183   4.354   9.655  1.7307  0.6910 -0.6768
   35POPC   H9Y 4748   1.178   4.527   9.646 -0.8911  1.0278  1.2033
   35POPC  C310 4749   1.019   4.420   9.531  0.2228 -0.3262  0.4202
   35POPC  H10X 4750   0.941   4.497   9.515 -2.4765 -2.6022  1.8177
   35POPC  H10Y 4751   0.952   4.332   9.536  1.3883 -1.3925 -1.2972
   35POPC  C311 4752   1.097   4.414   9.400  0.2548  0.4356 -0.0408
   35POPC  H11X 4753   1.170   4.331   9.410  0.0335  0.2652  0.1746
   35POPC  H11Y 4754   1.158   4.507   9.390  1.4864  0.0200  2.6453
   35POPC  C312 4755   1.008   4.390   9.280  0.0482 -0.7579  0.4368
   35POPC  H12X 4756   0.941   4.479   9.273  1.0626  0.1892  2.0702
   35POPC  H12Y 4757   0.941   4.305   9.302 -2.5206  1.2442  0.8037
   35POPC  C313 4758   1.094   4.377   9.156 -0.3375 -0.2306 -0.1468
   35POPC  H13X 4759   1.156   4.285   9.166  0.4525  0.4822  2.3973
   35POPC  H13Y 4760   1.168   4.460   9.155 -0.1084 -0.3879  1.2952
   35POPC  C314 4761   1.003   4.368   9.036 -0.1826  0.7633  0.2348
   35POPC  H14X 4762   1.067   4.391   8.948 -0.6137  2.8646  0.4148
   35POPC  H14Y 4763   0.920   4.441   9.029 -0.1740  0.9050  1.4381
   35POPC  C315 4764   0.940   4.226   9.024 -0.1352  0.2191  0.3189
   35POPC  H15X 4765   0.892   4.194   9.119 -1.8322 -0.8554 -0.8332
   35POPC  H15Y 4766   1.018   4.150   9.002  0.2464  0.7851 -0.3279
   35POPC  C316 4767   0.837   4.222   8.907  0.1648  1.1728 -0.1440
   35POPC  H16X 4768   0.793   4.323   8.925  1.3057  1.3196  2.4093
   35POPC  H16Y 4769   0.761   4.142   8.910  0.9254  0.3561 -1.5464
   35POPC  H16Z 4770   0.886   4.218   8.808  0.8948 -0.8080  0.2549
   36POPC     N 4771   2.102   2.123  11.225 -0.7816 -0.1589  0.4739
   36POPC   C12 4772   2.182   2.203  11.127  0.3853  0.1476  0.2173
   36POPC  H12A 4773   2.289   2.202  11.133  0.5545 -2.7187 -1.5419
   36POPC  H12B 4774   2.147   2.304  11.143 -1.5317 -0.2419 -1.0995
   36POPC   C13 4775   1.956   2.130  11.205 -0.5638  0.9671 -0.4573
   36POPC  H13A 4776   1.923   2.231  11.223  0.9468  1.7463 -1.8384
   36POPC  H13B 4777   1.923   2.099  11.107 -2.2349  2.5460 -0.4634
   36POPC  H13C 4778   1.904   2.068  11.277 -2.6283  0.8074 -2.0002
   36POPC   C14 4779   2.149   1.977  11.219  0.1821 -0.0327 -0.5944
   36POPC  H14A 4780   2.104   1.911  11.292  0.4958  0.0941 -0.2817
   36POPC  H14B 4781   2.124   1.938  11.121 -0.7585 -1.1121  0.0409
   36POPC  H14C 4782   2.256   1.971  11.234  0.1772  1.1637 -0.0015
   36POPC   C15 4783   2.135   2.180  11.357  0.4004  0.6555  0.3083
   36POPC  H15A 4784   2.118   2.285  11.369 -4.1849  0.4298 -2.1337
   36POPC  H15B 4785   2.234   2.161  11.398  1.0110  1.9674 -0.5141
   36POPC  H15C 4786   2.072   2.140  11.435  1.0969  1.6565  1.4232
   36POPC   C11 4787   2.152   2.167  10.980  1.0943  0.5571 -0.1524
   36POPC  H11A 4788   2.197   2.239  10.909  1.6737  0.1077 -0.2585
   36POPC  H11B 4789   2.043   2.183  10.966  0.3979 -0.3992  3.1948
   36POPC     P 4790   2.335   2.017  10.886 -0.0384  0.1704  0.3189
   36POPC   O13 4791   2.377   1.878  10.860 -0.0867  0.1985  0.0670
   36POPC   O14 4792   2.427   2.096  10.968  0.2428 -0.2051  0.4098
   36POPC   O12 4793   2.188   2.032  10.947 -0.0350  0.0448 -0.4438
   36POPC   O11 4794   2.309   2.094  10.749  0.5843 -0.2926 -0.0181
   36POPC    C1 4795   2.189   2.073  10.668 -0.2604  0.7700 -0.4117
   36POPC    HA 4796   2.147   2.169  10.632 -0.4660  0.6514 -0.4891
   36POPC    HB 4797   2.113   2.013  10.722  0.3185  2.1766  2.1210
   36POPC    C2 4798   2.233   2.006  10.538 -0.0489  0.5756 -0.8330
   36POPC    HS 4799   2.284   1.913  10.571  1.9699  2.1031  0.6124
   36POPC   O21 4800   2.332   2.093  10.478 -0.0155  0.9753  0.2897
   36POPC   C21 4801   2.413   2.027  10.395  0.2067  0.1795  0.5172
   36POPC   O22 4802   2.422   1.908  10.388 -0.1924 -0.9448  0.1993
   36POPC   C22 4803   2.485   2.131  10.299 -0.7837 -0.4550 -0.4979
   36POPC   H2R 4804   2.595   2.135  10.315 -0.5018 -1.0079 -2.1041
   36POPC   H2S 4805   2.451   2.232  10.329  1.8621  0.8983 -1.6771
   36POPC    C3 4806   2.111   1.971  10.442  0.4821  0.3943  0.6790
   36POPC    HX 4807   2.057   2.064  10.416 -0.0547 -0.2583 -0.6591
   36POPC    HY 4808   2.043   1.903  10.498  2.8687 -1.3769  1.6254
   36POPC   O31 4809   2.148   1.902  10.319  0.1843  0.2984  0.2780
   36POPC   C31 4810   2.168   1.777  10.333  0.2595  0.4886  0.3103
   36POPC   O32 4811   2.154   1.718  10.440 -0.4361 -0.3350 -0.2080
   36POPC   C32 4812   2.199   1.708  10.198  0.4127  0.4757  0.5285
   36POPC   H2X 4813   2.276   1.763  10.139 -0.6579  2.9106  1.2390
   36POPC   H2Y 4814   2.105   1.716  10.138 -0.7705 -1.3869  2.0519
   36POPC   C23 4815   2.465   2.111  10.153 -0.4570 -0.5996  0.3360
   36POPC   H3R 4816   2.503   2.011  10.121  1.2035  0.4529 -1.0990
   36POPC   H3S 4817   2.519   2.194  10.104 -1.4024  0.1256  0.4873
   36POPC   C24 4818   2.311   2.118  10.112 -0.7855  1.0635 -0.1458
   36POPC   H4R 4819   2.268   2.218  10.131 -2.8032  0.3493 -0.7009
   36POPC   H4S 4820   2.253   2.049  10.177  0.1421  0.9693  0.6075
   36POPC   C25 4821   2.288   2.057   9.970 -0.1573  0.0669 -0.1904
   36POPC   H5R 4822   2.178   2.045   9.959 -0.0436 -0.6302 -0.6578
   36POPC   H5S 4823   2.331   1.957   9.951  1.4963  0.4793  1.1211
   36POPC   C26 4824   2.325   2.150   9.857 -0.7054  0.2275 -0.0165
   36POPC   H6R 4825   2.435   2.165   9.860 -0.5249 -0.9636  3.4252
   36POPC   H6S 4826   2.272   2.247   9.866 -1.2196  0.1828 -2.0223
   36POPC   C27 4827   2.291   2.088   9.721  0.2499  0.0730  0.6128
   36POPC   H7R 4828   2.181   2.090   9.704  0.4544  1.3766 -0.8210
   36POPC   H7S 4829   2.338   1.987   9.713  0.7583  0.1463  2.2231
   36POPC   C28 4830   2.331   2.159   9.597 -0.4442 -0.3122  0.3307
   36POPC   H8R 4831   2.301   2.099   9.509  0.7070  2.1118 -1.8597
   36POPC   H8S 4832   2.442   2.165   9.589 -0.3621 -1.6600  0.2392
   36POPC   C29 4833   2.279   2.302   9.566 -0.2419  0.0485 -0.4043
   36POPC   H91 4834   2.273   2.355   9.662  1.7862  0.6991 -0.6037
   36POPC  C210 4835   2.232   2.365   9.460  0.0911  0.0585  0.0808
   36POPC  H101 4836   2.187   2.466   9.457 -0.8070 -0.3376 -1.9546
   36POPC  C211 4837   2.227   2.296   9.326  0.4613  0.7964  0.3238
   36POPC  H11R 4838   2.183   2.194   9.330 -0.5506  1.1018 -1.5733
   36POPC  H11S 4839   2.327   2.292   9.278 -0.3068 -1.2729 -1.2367
   36POPC  C212 4840   2.137   2.367   9.226 -0.3440 -0.7681 -0.1433
   36POPC  H12R 4841   2.173   2.472   9.225  2.3917 -1.5322  2.6176
   36POPC  H12S 4842   2.032   2.369   9.263 -0.3172 -2.0808  0.0340
   36POPC  C213 4843   2.132   2.283   9.097 -0.1292 -0.3448 -0.6617
   36POPC  H13R 4844   2.085   2.191   9.135  2.2648 -1.5219 -0.3567
   36POPC  H13S 4845   2.229   2.246   9.056 -0.4893 -3.1504  0.7976
   36POPC  C214 4846   2.056   2.355   8.986 -0.4200  0.0121  0.4987
   36POPC  H14R 4847   2.127   2.438   8.967 -0.2283 -0.4711 -1.0057
   36POPC  H14S 4848   1.962   2.397   9.028 -0.3663 -0.1721  0.8096
   36POPC  C215 4849   2.027   2.274   8.856 -0.1563  0.3088 -0.0352
   36POPC  H15R 4850   1.960   2.187   8.869 -0.9352  1.0940  1.4924
   36POPC  H15S 4851   2.125   2.244   8.813  0.7367  3.2752 -0.3248
   36POPC  C216 4852   1.978   2.367   8.747 -1.0296 -0.5172 -0.2921
   36POPC  H16R 4853   2.042   2.458   8.751  0.2360 -1.4379  1.3970
   36POPC  H16S 4854   1.869   2.389   8.753 -0.8393  0.4678 -0.2129
   36POPC  C217 4855   2.011   2.308   8.611  0.2096 -0.0457  0.5447
   36POPC  H17R 4856   1.984   2.200   8.605 -1.8764  0.1973  3.3589
   36POPC  H17S 4857   2.120   2.325   8.594  0.7815 -2.3120  1.4772
   36POPC  C218 4858   1.924   2.386   8.504  0.1733  0.6976 -1.1275
   36POPC  H18R 4859   1.921   2.495   8.523 -0.7065  0.7402 -1.4836
   36POPC  H18S 4860   1.817   2.360   8.517  0.3408  0.4203 -0.2225
   36POPC  H18T 4861   1.957   2.366   8.400  2.2644  0.9268 -0.5580
   36POPC   C33 4862   2.225   1.558  10.215 -0.1880 -0.6107 -0.1120
   36POPC   H3X 4863   2.144   1.494  10.255 -0.9543 -1.5584 -2.9429
   36POPC   H3Y 4864   2.314   1.550  10.282  0.7530 -1.7732 -1.4424
   36POPC   C34 4865   2.264   1.500  10.071 -0.3975 -0.1083 -0.5994
   36POPC   H4X 4866   2.322   1.406  10.083 -1.2094 -0.4971  0.4642
   36POPC   H4Y 4867   2.342   1.563  10.023  1.1153 -1.1437  0.4152
   36POPC   C35 4868   2.147   1.485   9.971 -0.2759  0.1483 -0.2533
   36POPC   H5X 4869   2.080   1.572   9.984  0.3888  0.5343  0.6972
   36POPC   H5Y 4870   2.086   1.395   9.995 -0.4359  0.2792 -0.1617
   36POPC   C36 4871   2.198   1.485   9.834 -0.5061  0.1451  0.7415
   36POPC   H6X 4872   2.203   1.378   9.807  0.6475  0.1918  0.7031
   36POPC   H6Y 4873   2.300   1.527   9.816 -1.1077  1.7370  0.8500
   36POPC   C37 4874   2.105   1.570   9.737  1.2762 -0.0586  0.1279
   36POPC   H7X 4875   2.002   1.548   9.773  0.3913  0.0507 -2.1555
   36POPC   H7Y 4876   2.120   1.543   9.630  1.7520  2.8542 -0.6365
   36POPC   C38 4877   2.136   1.723   9.752 -0.8819  0.0761 -0.1578
   36POPC   H8X 4878   2.231   1.752   9.702 -0.1431 -1.8703  0.0582
   36POPC   H8Y 4879   2.169   1.740   9.856 -2.2287 -2.5225  0.7800
   36POPC   C39 4880   2.027   1.820   9.693  0.6531  0.2190  0.6976
   36POPC   H9X 4881   2.054   1.925   9.715  0.7864  0.5740 -1.0211
   36POPC   H9Y 4882   1.929   1.789   9.736  1.0814 -0.4246  1.2242
   36POPC  C310 4883   1.992   1.784   9.543 -0.3751  0.4533  0.3773
   36POPC  H10X 4884   1.894   1.829   9.516 -0.7453  0.5325  1.7556
   36POPC  H10Y 4885   1.983   1.674   9.529  1.9007  0.2770 -0.0698
   36POPC  C311 4886   2.104   1.836   9.459 -0.0388  0.9446  0.3521
   36POPC  H11X 4887   2.206   1.809   9.494 -0.1728  0.7691  0.6137
   36POPC  H11Y 4888   2.104   1.947   9.453  1.6199  0.9096 -0.8675
   36POPC  C312 4889   2.092   1.785   9.310 -0.2011  0.2485 -0.3962
   36POPC  H12X 4890   2.096   1.674   9.307 -1.4938  0.1676  0.3831
   36POPC  H12Y 4891   2.179   1.824   9.251 -0.7118  1.4766 -0.3748
   36POPC  C313 4892   1.968   1.853   9.245  0.1488 -0.2471 -0.0777
   36POPC  H13X 4893   1.988   1.962   9.233 -0.6470  0.3842  3.3247
   36POPC  H13Y 4894   1.879   1.837   9.309  0.9529 -0.0016  1.1196
   36POPC  C314 4895   1.942   1.796   9.106  0.2069  0.2654 -0.7711
   36POPC  H14X 4896   1.863   1.864   9.067 -0.5198  1.2475  2.1603
   36POPC  H14Y 4897   1.909   1.690   9.110  0.7558 -0.0588 -3.2018
   36POPC  C315 4898   2.064   1.810   9.015  0.4921  0.8306  0.4335
   36POPC  H15X 4899   2.129   1.723   9.041 -0.6999  0.0088  0.7205
   36POPC  H15Y 4900   2.119   1.904   9.036 -0.1069  1.5497 -1.0827
   36POPC  C316 4901   2.020   1.814   8.868  0.5620 -0.0539 -0.1110
   36POPC  H16X 4902   2.095   1.878   8.817  0.9937 -0.5451 -0.0965
   36POPC  H16Y 4903   1.919   1.858   8.853  0.3714  0.1111  1.5053
   36POPC  H16Z 4904   2.021   1.710   8.828 -0.7315  0.1552 -0.7448
   37POPC     N 4905   6.387   4.842   6.066 -0.6049 -0.4115 -0.8928
   37POPC   C12 4906   6.357   4.785   6.197  0.2321 -0.3109  0.2728
   37POPC  H12A 4907   6.367   4.678   6.186 -2.7847 -0.6284 -0.1893
   37POPC  H12B 4908   6.253   4.790   6.226  0.4880  0.3139  1.1067
   37POPC   C13 4909   6.539   4.827   6.042  0.2388 -0.2642 -0.3626
   37POPC  H13A 4910   6.599   4.890   6.106  1.7332 -2.4621  0.5131
   37POPC  H13B 4911   6.568   4.726   6.067  4.1207  0.4620 -1.3252
   37POPC  H13C 4912   6.553   4.854   5.939 -1.6655  2.0523 -0.1083
   37POPC   C14 4913   6.312   4.765   5.963  0.0164  0.0123  0.7699
   37POPC  H14A 4914   6.329   4.803   5.863  0.8044  0.1968  0.9675
   37POPC  H14B 4915   6.339   4.660   5.952 -0.6421  0.0360 -1.7346
   37POPC  H14C 4916   6.205   4.759   5.975  0.1536 -1.6137  1.5910
   37POPC   C15 4917   6.357   4.986   6.058 -0.1777  0.1029  0.7728
   37POPC  H15A 4918   6.423   5.044   6.121  1.2659 -0.4763 -0.1262
   37POPC  H15B 4919   6.251   5.000   6.072 -0.3702 -1.3779  0.9727
   37POPC  H15C 4920   6.373   5.019   5.956 -1.6629 -1.6065 -0.0715
   37POPC   C11 4921   6.443   4.822   6.314 -0.8402  0.0024  0.1114
   37POPC  H11A 4922   6.551   4.810   6.291 -1.0635 -0.6074 -0.6745
   37POPC  H11B 4923   6.434   4.748   6.397 -1.1149  0.6736  0.6884
   37POPC     P 4924   6.277   4.983   6.445 -0.2042  0.0024  0.0973
   37POPC   O13 4925   6.168   4.888   6.415  0.0305 -0.0941 -0.0329
   37POPC   O14 4926   6.247   5.125   6.431 -0.3198  0.6539  0.3489
   37POPC   O12 4927   6.407   4.956   6.365 -0.1627  0.0527 -0.7258
   37POPC   O11 4928   6.312   4.958   6.593  0.5369 -0.5557  0.4963
   37POPC    C1 4929   6.450   4.997   6.630 -0.2234  0.0860  0.1757
   37POPC    HA 4930   6.472   5.098   6.591 -0.7968 -0.1677 -0.8531
   37POPC    HB 4931   6.522   4.924   6.588 -0.2494 -1.3583  2.4794
   37POPC    C2 4932   6.459   4.995   6.783  0.4495  0.5255  0.2591
   37POPC    HS 4933   6.446   4.890   6.817  0.8371  0.8002  1.2762
   37POPC   O21 4934   6.370   5.089   6.843 -0.1917 -0.4474 -0.1380
   37POPC   C21 4935   6.332   5.049   6.964  0.6517 -0.5396 -0.1464
   37POPC   O22 4936   6.354   4.938   7.013 -0.2522 -0.0582 -0.9331
   37POPC   C22 4937   6.276   5.170   7.042 -0.2363  0.2146  0.7059
   37POPC   H2R 4938   6.186   5.219   6.999 -0.0067  1.3958  1.5162
   37POPC   H2S 4939   6.361   5.240   7.040 -1.0810  1.2839 -1.5686
   37POPC    C3 4940   6.605   5.039   6.811 -0.4857  0.1216 -0.6151
   37POPC    HX 4941   6.615   5.136   6.757  2.0395  1.0670  1.3458
   37POPC    HY 4942   6.677   4.977   6.754  0.5293  1.8189 -1.2781
   37POPC   O31 4943   6.632   5.058   6.950 -0.2239 -0.4495 -0.7305
   37POPC   C31 4944   6.669   4.941   7.006 -0.1092 -0.2157  0.1115
   37POPC   O32 4945   6.659   4.832   6.953  0.1764  0.3678 -0.6400
   37POPC   C32 4946   6.704   4.957   7.154  0.4068 -0.3124  0.2551
   37POPC   H2X 4947   6.608   4.988   7.200  1.2442  0.6013  1.4650
   37POPC   H2Y 4948   6.766   5.048   7.168 -0.8405  0.5948  0.0515
   37POPC   C23 4949   6.248   5.145   7.197  0.7831 -1.3346 -0.0354
   37POPC   H3R 4950   6.338   5.102   7.247  2.0093  0.8457 -0.2655
   37POPC   H3S 4951   6.161   5.076   7.196 -0.4091  0.1428  0.3462
   37POPC   C24 4952   6.200   5.277   7.260  0.5204  0.0050  0.7077
   37POPC   H4R 4953   6.111   5.305   7.201  0.2637  0.6453  1.3831
   37POPC   H4S 4954   6.277   5.356   7.248  0.0079  0.3433 -0.4090
   37POPC   C25 4955   6.155   5.270   7.409  1.1156 -0.4377 -0.2718
   37POPC   H5R 4956   6.073   5.198   7.428 -0.7183  2.1531  2.6745
   37POPC   H5S 4957   6.116   5.371   7.434  0.7452  0.0640 -2.6852
   37POPC   C26 4958   6.274   5.239   7.495  0.4398  0.0828  1.2341
   37POPC   H6R 4959   6.340   5.321   7.459 -1.2443  1.1010  0.3208
   37POPC   H6S 4960   6.312   5.139   7.468  2.7338  1.6426 -1.9983
   37POPC   C27 4961   6.237   5.247   7.645 -1.1265 -0.3356 -0.5049
   37POPC   H7R 4962   6.156   5.175   7.665  0.2642 -1.3060  2.1773
   37POPC   H7S 4963   6.194   5.348   7.663  0.5729  0.5102 -0.8723
   37POPC   C28 4964   6.349   5.228   7.749  0.2471  0.4203 -0.2356
   37POPC   H8R 4965   6.382   5.122   7.752  0.0276  0.3328 -0.7556
   37POPC   H8S 4966   6.303   5.245   7.848 -0.6558 -1.0062 -0.3800
   37POPC   C29 4967   6.460   5.322   7.725 -0.7487  0.6083  0.5318
   37POPC   H91 4968   6.434   5.428   7.738 -0.4760  0.7204  0.1720
   37POPC  C210 4969   6.585   5.278   7.697  0.6560 -0.7363  0.0210
   37POPC  H101 4970   6.645   5.362   7.658 -0.8670  0.9283  1.0645
   37POPC  C211 4971   6.637   5.139   7.676 -0.1406 -0.3906 -0.0958
   37POPC  H11R 4972   6.565   5.080   7.615 -0.5215  0.4025 -0.4293
   37POPC  H11S 4973   6.648   5.085   7.772 -3.7516 -1.0316  0.1102
   37POPC  C212 4974   6.772   5.141   7.610 -0.4978  0.2436 -0.3873
   37POPC  H12R 4975   6.803   5.041   7.572  1.3116  0.1250  1.2657
   37POPC  H12S 4976   6.845   5.176   7.686 -0.8781 -1.0490  0.6199
   37POPC  C213 4977   6.788   5.229   7.488 -0.5797 -0.0811  0.6326
   37POPC  H13R 4978   6.775   5.338   7.506  0.7204  0.2275 -0.1806
   37POPC  H13S 4979   6.722   5.192   7.406 -0.0399  0.1242  0.1032
   37POPC  C214 4980   6.930   5.234   7.428  0.0618  0.5108 -0.4530
   37POPC  H14R 4981   6.999   5.298   7.486 -1.2538  1.2013  0.3939
   37POPC  H14S 4982   6.921   5.286   7.330 -0.5370  1.3127  0.0203
   37POPC  C215 4983   6.997   5.105   7.397  0.9343  0.3931 -0.2678
   37POPC  H15R 4984   6.916   5.044   7.351 -1.0911  2.2298  0.6893
   37POPC  H15S 4985   7.045   5.060   7.487  2.2975  1.0170 -0.6505
   37POPC  C216 4986   7.114   5.110   7.294  0.2591 -0.2923  0.0325
   37POPC  H16R 4987   7.197   5.164   7.344  0.2928  1.1861 -1.5424
   37POPC  H16S 4988   7.095   5.184   7.214  1.2815  0.5710  0.5665
   37POPC  C217 4989   7.162   4.974   7.244  0.7770 -0.0608  0.0551
   37POPC  H17R 4990   7.067   4.937   7.200 -0.2519  1.3636  0.9883
   37POPC  H17S 4991   7.181   4.900   7.324  1.8175 -0.1214 -0.2287
   37POPC  C218 4992   7.266   4.988   7.138 -0.0967  0.4035  0.1264
   37POPC  H18R 4993   7.357   5.034   7.182  1.6268 -1.9429 -0.8015
   37POPC  H18S 4994   7.232   5.036   7.044 -0.6889  1.6848  0.9575
   37POPC  H18T 4995   7.292   4.883   7.113 -1.4686  0.1473 -0.3306
   37POPC   C33 4996   6.746   4.820   7.220 -0.3698  0.1053  0.0955
   37POPC   H3X 4997   6.854   4.793   7.226 -0.3797 -0.3125 -1.2552
   37POPC   H3Y 4998   6.709   4.733   7.161  1.5404 -0.3266 -0.5446
   37POPC   C34 4999   6.696   4.811   7.368  0.4799 -0.1326  0.2736
   37POPC   H4X 5000   6.589   4.840   7.364  1.0129  2.1066  0.9309
   37POPC   H4Y 5001   6.746   4.889   7.430 -0.3712 -0.4952  1.4556
   37POPC   C35 5002   6.700   4.674   7.443 -0.0498  0.6828  0.2102
   37POPC   H5X 5003   6.799   4.629   7.419  0.8420  2.4747  0.4274
   37POPC   H5Y 5004   6.633   4.609   7.382  1.3606  0.1876 -0.8675
   37POPC   C36 5005   6.671   4.689   7.595 -0.2686  0.4807 -0.0601
   37POPC   H6X 5006   6.751   4.756   7.632 -0.8997 -0.4320  3.3178
   37POPC   H6Y 5007   6.693   4.593   7.646 -0.1929 -0.2400 -1.3814
   37POPC   C37 5008   6.532   4.745   7.634 -0.3910  0.4139 -0.0844
   37POPC   H7X 5009   6.451   4.680   7.594  1.4879 -2.1949  0.0835
   37POPC   H7Y 5010   6.525   4.852   7.607 -2.4118  0.5272  0.6663
   37POPC   C38 5011   6.512   4.743   7.790 -0.1860 -0.2707  0.0619
   37POPC   H8X 5012   6.604   4.791   7.830 -1.2599  0.9536  1.1509
   37POPC   H8Y 5013   6.511   4.642   7.837  0.3303 -0.0133  0.6393
   37POPC   C39 5014   6.389   4.821   7.833  0.5995  0.1234 -1.1883
   37POPC   H9X 5015   6.297   4.788   7.782 -0.7756  2.7073 -0.5391
   37POPC   H9Y 5016   6.378   4.927   7.803  2.3583  1.2068  1.5753
   37POPC  C310 5017   6.373   4.819   7.991  0.0761 -0.0094  0.1628
   37POPC  H10X 5018   6.293   4.889   8.026  0.7729  0.8422  0.0786
   37POPC  H10Y 5019   6.464   4.865   8.034 -0.3748  1.8850 -0.7689
   37POPC  C311 5020   6.357   4.677   8.046 -0.4133  0.1184 -0.9013
   37POPC  H11X 5021   6.441   4.612   8.011 -1.5372 -0.9286 -1.7219
   37POPC  H11Y 5022   6.262   4.634   8.008 -1.1305 -1.7454  2.5570
   37POPC  C312 5023   6.374   4.669   8.198  0.4336 -0.1537 -0.9319
   37POPC  H12X 5024   6.292   4.737   8.231  0.8541  0.4271 -1.0658
   37POPC  H12Y 5025   6.467   4.713   8.241  0.4367 -2.0367  1.1361
   37POPC  C313 5026   6.362   4.526   8.250 -0.4621  0.2058  0.0527
   37POPC  H13X 5027   6.420   4.520   8.345  0.2881  3.0451 -0.1465
   37POPC  H13Y 5028   6.426   4.461   8.187 -1.7032 -1.9634  0.8808
   37POPC  C314 5029   6.224   4.451   8.251  0.0207  0.2168 -0.9710
   37POPC  H14X 5030   6.234   4.346   8.287 -3.6187 -0.2732 -1.0185
   37POPC  H14Y 5031   6.169   4.454   8.155  0.7160  2.3951 -1.3436
   37POPC  C315 5032   6.127   4.501   8.364 -0.2130 -0.1703  0.6661
   37POPC  H15X 5033   6.110   4.606   8.334  1.2663  0.2082  1.0858
   37POPC  H15Y 5034   6.172   4.495   8.465  0.8400 -0.6628  0.1904
   37POPC  C316 5035   5.995   4.427   8.367  0.8619  0.7899  0.4256
   37POPC  H16X 5036   5.919   4.490   8.418 -0.4470 -1.5258  1.4885
   37POPC  H16Y 5037   5.995   4.329   8.420  0.0068  0.8266  0.5137
   37POPC  H16Z 5038   5.950   4.407   8.267  0.6473 -2.1796  1.0101
   38POPC     N 5039   6.819   1.956   5.997 -0.3534  0.2579  0.0969
   38POPC   C12 5040   6.691   2.024   5.978  0.4423 -0.3459 -0.5529
   38POPC  H12A 5041   6.625   1.961   5.920  2.3148 -1.6474 -1.3709
   38POPC  H12B 5042   6.709   2.118   5.928  0.0157 -1.0614 -2.1002
   38POPC   C13 5043   6.907   2.047   6.085  0.5721  0.5855 -0.5507
   38POPC  H13A 5044   6.861   2.063   6.182 -0.0892 -0.8924 -0.5953
   38POPC  H13B 5045   7.004   2.001   6.087  1.2572  1.7827 -2.9486
   38POPC  H13C 5046   6.921   2.145   6.042  0.7642  0.4065 -0.8975
   38POPC   C14 5047   6.794   1.820   6.063 -0.5235 -0.5210  0.6413
   38POPC  H14A 5048   6.717   1.834   6.137 -3.0990 -0.9161 -1.7805
   38POPC  H14B 5049   6.749   1.753   5.992 -0.7111  1.8979 -1.6706
   38POPC  H14C 5050   6.872   1.761   6.108 -0.1925  1.9222  3.6018
   38POPC   C15 5051   6.884   1.940   5.860  0.1992  0.2201  0.4276
   38POPC  H15A 5052   6.987   1.912   5.854  0.0362 -0.1035 -1.6604
   38POPC  H15B 5053   6.886   2.031   5.802 -0.2948 -1.0429 -1.6735
   38POPC  H15C 5054   6.835   1.866   5.799 -0.0063 -0.1992  1.0906
   38POPC   C11 5055   6.594   2.048   6.105 -0.6150 -0.1181  0.4818
   38POPC  H11A 5056   6.521   2.125   6.070  0.8237  1.1927  0.2413
   38POPC  H11B 5057   6.656   2.089   6.188 -1.2811  0.0138  0.9176
   38POPC     P 5058   6.496   1.889   6.282 -0.0803 -0.1856  0.2999
   38POPC   O13 5059   6.442   2.009   6.347 -0.0756 -0.4083  0.0192
   38POPC   O14 5060   6.607   1.807   6.341 -0.5937 -0.1356  0.1025
   38POPC   O12 5061   6.534   1.924   6.134  0.6097 -0.3599 -0.5972
   38POPC   O11 5062   6.369   1.796   6.252 -0.0906  0.4526  0.9217
   38POPC    C1 5063   6.394   1.677   6.169  1.1864 -0.0810 -0.5755
   38POPC    HA 5064   6.489   1.628   6.199  0.7102 -0.7881 -0.1931
   38POPC    HB 5065   6.419   1.696   6.062 -0.0140 -2.4937 -1.3687
   38POPC    C2 5066   6.275   1.576   6.188 -0.2275 -0.4093  1.2463
   38POPC    HS 5067   6.193   1.596   6.116 -0.4054 -0.4657  1.4320
   38POPC   O21 5068   6.232   1.581   6.325 -0.4761 -0.8756 -0.1928
   38POPC   C21 5069   6.120   1.524   6.348  0.1920 -0.1336  0.1886
   38POPC   O22 5070   6.040   1.487   6.268  0.1960 -0.2060  0.5614
   38POPC   C22 5071   6.095   1.517   6.505 -1.0556 -0.3989 -0.2717
   38POPC   H2R 5072   6.142   1.606   6.552 -1.2279 -0.1170 -0.6282
   38POPC   H2S 5073   6.154   1.428   6.537 -0.4369 -0.1749 -0.7852
   38POPC    C3 5074   6.321   1.434   6.146 -0.3979 -1.2229 -0.5126
   38POPC    HX 5075   6.340   1.451   6.038 -0.0084  1.5926 -0.0705
   38POPC    HY 5076   6.232   1.368   6.137 -0.7032 -0.7120 -1.4433
   38POPC   O31 5077   6.439   1.378   6.215  0.2777  0.3201  0.1369
   38POPC   C31 5078   6.403   1.289   6.304  0.9208  0.0264 -0.5770
   38POPC   O32 5079   6.290   1.257   6.331 -0.3402  0.1307  0.2288
   38POPC   C32 5080   6.530   1.238   6.365  0.1449  0.2240  0.3544
   38POPC   H2X 5081   6.605   1.320   6.363 -0.5866  0.9190  1.0555
   38POPC   H2Y 5082   6.558   1.148   6.306  0.4191 -0.1870  1.0985
   38POPC   C23 5083   5.950   1.492   6.544 -0.0032 -0.2395  0.4656
   38POPC   H3R 5084   5.897   1.404   6.502 -1.1802  0.1834  1.0293
   38POPC   H3S 5085   5.881   1.572   6.511 -0.0249  0.0012  1.0750
   38POPC   C24 5086   5.937   1.488   6.694  1.4505 -0.2544  0.3029
   38POPC   H4R 5087   5.949   1.592   6.732 -1.3220  0.2029  0.0946
   38POPC   H4S 5088   6.015   1.421   6.737  0.9369  0.7791  3.0459
   38POPC   C25 5089   5.801   1.449   6.745  0.2526 -0.0906  0.3339
   38POPC   H5R 5090   5.813   1.340   6.755  3.6341  0.2824  1.3866
   38POPC   H5S 5091   5.718   1.479   6.677  0.1387  0.1255  0.5636
   38POPC   C26 5092   5.769   1.522   6.872  0.1082  0.4398 -0.4578
   38POPC   H6R 5093   5.727   1.623   6.854 -0.0088  0.5108  0.1959
   38POPC   H6S 5094   5.859   1.541   6.935 -0.4706 -0.2549  0.5926
   38POPC   C27 5095   5.673   1.438   6.949  0.5215  0.1237  0.0546
   38POPC   H7R 5096   5.701   1.331   6.960 -1.9253 -0.6047 -0.3824
   38POPC   H7S 5097   5.580   1.427   6.890  1.6527 -0.6996 -1.6515
   38POPC   C28 5098   5.628   1.500   7.083 -0.3438 -1.2270  0.2573
   38POPC   H8R 5099   5.536   1.451   7.123 -1.2141  0.5240  0.5169
   38POPC   H8S 5100   5.595   1.606   7.074  2.2410  0.1271  4.0902
   38POPC   C29 5101   5.745   1.490   7.180 -0.0099 -0.3707  0.0013
   38POPC   H91 5102   5.821   1.568   7.163 -1.1663  0.6915 -0.4374
   38POPC  C210 5103   5.774   1.408   7.287  0.0638 -0.0411 -0.2712
   38POPC  H101 5104   5.868   1.421   7.342 -0.3932  1.0561  0.2847
   38POPC  C211 5105   5.688   1.299   7.335  0.7345 -0.4272  0.3834
   38POPC  H11R 5106   5.747   1.205   7.343  0.3757 -0.5908  1.3126
   38POPC  H11S 5107   5.603   1.280   7.266  0.8781  1.3320 -0.3291
   38POPC  C212 5108   5.610   1.345   7.456  0.0764 -0.0234  0.3591
   38POPC  H12R 5109   5.525   1.275   7.474  0.9099 -1.6823 -1.6499
   38POPC  H12S 5110   5.562   1.441   7.430 -2.2724 -1.5452 -1.3307
   38POPC  C213 5111   5.699   1.362   7.584 -0.0537 -0.4252  0.5378
   38POPC  H13R 5112   5.764   1.447   7.551 -1.7132  0.0946 -1.5913
   38POPC  H13S 5113   5.753   1.265   7.593  0.7748 -0.2692 -2.0815
   38POPC  C214 5114   5.614   1.393   7.710  0.1143 -0.0071 -0.2646
   38POPC  H14R 5115   5.554   1.305   7.743  0.8750  0.1783  1.7296
   38POPC  H14S 5116   5.532   1.465   7.686 -1.3619 -1.1189  1.2141
   38POPC  C215 5117   5.706   1.451   7.831  0.3285 -0.3966  0.1019
   38POPC  H15R 5118   5.751   1.548   7.801 -2.2212  0.2741 -1.8917
   38POPC  H15S 5119   5.784   1.372   7.838 -1.2825 -2.0173  0.7792
   38POPC  C216 5120   5.629   1.478   7.964  0.3618  0.5839 -0.5630
   38POPC  H16R 5121   5.569   1.387   7.981  2.5299 -1.5671 -3.4060
   38POPC  H16S 5122   5.565   1.567   7.945  0.6046  1.1952  1.2199
   38POPC  C217 5123   5.728   1.504   8.081 -0.7735 -0.0791  0.2204
   38POPC  H17R 5124   5.666   1.540   8.166  0.3585  3.6346 -0.3705
   38POPC  H17S 5125   5.774   1.600   8.051 -4.5656  1.7395 -0.2758
   38POPC  C218 5126   5.842   1.402   8.106  0.3754 -0.2417 -0.4410
   38POPC  H18R 5127   5.905   1.436   8.191  0.6331 -1.1232 -0.2765
   38POPC  H18S 5128   5.904   1.399   8.014  2.3324  1.1578  0.7588
   38POPC  H18T 5129   5.808   1.298   8.119  0.0964  0.0492  1.3938
   38POPC   C33 5130   6.537   1.200   6.518  0.2038  0.3296  0.6085
   38POPC   H3X 5131   6.638   1.160   6.542  0.2637 -0.3321 -0.6533
   38POPC   H3Y 5132   6.458   1.123   6.536 -0.7503  1.3947  1.0724
   38POPC   C34 5133   6.523   1.309   6.619 -0.5888 -0.5686  0.6128
   38POPC   H4X 5134   6.416   1.336   6.605 -0.0612  1.6907  0.5224
   38POPC   H4Y 5135   6.573   1.404   6.590  0.1494 -1.4181 -0.9944
   38POPC   C35 5136   6.549   1.275   6.774  0.2507 -0.4832  1.0293
   38POPC   H5X 5137   6.657   1.255   6.784  0.6021  1.3037  1.2638
   38POPC   H5Y 5138   6.484   1.191   6.807 -0.3647  0.4756  2.3776
   38POPC   C36 5139   6.514   1.395   6.852 -0.4496  0.7083  0.4739
   38POPC   H6X 5140   6.412   1.431   6.825 -0.9460 -0.3958  0.8095
   38POPC   H6Y 5141   6.581   1.478   6.822 -1.8856  1.6780 -0.1622
   38POPC   C37 5142   6.516   1.378   7.005 -0.0205 -0.4044 -0.1239
   38POPC   H7X 5143   6.590   1.301   7.035 -0.1712 -0.8099 -0.7684
   38POPC   H7Y 5144   6.414   1.356   7.044 -0.9581  2.6707 -0.5249
   38POPC   C38 5145   6.547   1.521   7.065  0.0212  1.0460  0.0070
   38POPC   H8X 5146   6.470   1.589   7.023 -0.2599  0.6475 -0.1267
   38POPC   H8Y 5147   6.649   1.552   7.036  0.4225 -0.8539 -0.7035
   38POPC   C39 5148   6.538   1.518   7.222 -0.0616 -0.4437  0.9458
   38POPC   H9X 5149   6.431   1.502   7.248 -0.2612  1.3175  1.2889
   38POPC   H9Y 5150   6.562   1.620   7.257  0.4792 -0.8862  1.9106
   38POPC  C310 5151   6.623   1.412   7.285  0.3869  0.7147 -0.2000
   38POPC  H10X 5152   6.711   1.390   7.219 -0.8479 -0.3010 -1.5744
   38POPC  H10Y 5153   6.558   1.322   7.288 -2.2515  2.4853 -1.0239
   38POPC  C311 5154   6.663   1.453   7.422  0.0044  0.5798  0.4055
   38POPC  H11X 5155   6.715   1.551   7.422  0.6229  0.2661  1.2481
   38POPC  H11Y 5156   6.725   1.379   7.478  0.7512  1.4866  0.7956
   38POPC  C312 5157   6.532   1.469   7.501  0.0507 -0.4281  0.3922
   38POPC  H12X 5158   6.443   1.421   7.455 -0.3359  0.7849 -0.1760
   38POPC  H12Y 5159   6.486   1.570   7.499  0.2266 -0.3580 -1.4075
   38POPC  C313 5160   6.548   1.434   7.647  0.2119 -0.2573  0.0615
   38POPC  H13X 5161   6.587   1.330   7.645  1.1213  0.0826 -0.8579
   38POPC  H13Y 5162   6.446   1.433   7.692  0.5398 -0.3436  0.8069
   38POPC  C314 5163   6.633   1.529   7.727  0.4077  0.6548 -0.8699
   38POPC  H14X 5164   6.562   1.612   7.742 -0.8632 -0.6233  0.5924
   38POPC  H14Y 5165   6.717   1.576   7.672  0.2980  0.0277 -1.6000
   38POPC  C315 5166   6.680   1.472   7.862  0.3293  0.4442 -0.0066
   38POPC  H15X 5167   6.749   1.385   7.858 -0.3925 -0.3157  2.4228
   38POPC  H15Y 5168   6.590   1.444   7.920  1.7609  0.0515  2.1128
   38POPC  C316 5169   6.748   1.592   7.928  0.1445 -0.0602 -0.4150
   38POPC  H16X 5170   6.830   1.618   7.857 -0.7573 -0.6772 -1.7244
   38POPC  H16Y 5171   6.795   1.580   8.028 -1.0643 -1.2099  0.0416
   38POPC  H16Z 5172   6.683   1.681   7.917  0.0423 -0.0833  0.0069
   39POPC     N 5173   5.642   0.026   5.990  0.2165 -0.3658  0.3575
   39POPC   C12 5174   5.712   0.085   6.110  0.4459  0.1531  0.0452
   39POPC  H12A 5175   5.779   0.165   6.081 -0.8706  1.3086  0.0424
   39POPC  H12B 5176   5.777   0.011   6.153  1.4639  0.9212 -0.1169
   39POPC   C13 5177   5.729  -0.072   5.926 -0.1344 -0.1847  0.4912
   39POPC  H13A 5178   5.827  -0.038   5.896  0.1462 -1.2856  0.1137
   39POPC  H13B 5179   5.732  -0.157   5.992 -2.3425 -3.2299 -2.9329
   39POPC  H13C 5180   5.687  -0.116   5.837  1.2241 -1.0170  0.2411
   39POPC   C14 5181   5.518  -0.056   6.032  1.0802 -0.8259 -1.0187
   39POPC  H14A 5182   5.446   0.017   6.067 -0.7891 -2.8290 -0.4731
   39POPC  H14B 5183   5.472  -0.114   5.954 -1.2227  0.4678 -0.7002
   39POPC  H14C 5184   5.533  -0.124   6.115  1.4477  1.1310  0.5989
   39POPC   C15 5185   5.601   0.120   5.885  0.2776  0.1892 -0.0628
   39POPC  H15A 5186   5.542   0.201   5.925  0.6783  0.3221  0.2618
   39POPC  H15B 5187   5.537   0.076   5.809 -0.2503  1.5383 -0.4321
   39POPC  H15C 5188   5.684   0.172   5.840  1.6401 -0.6533  1.3896
   39POPC   C11 5189   5.634   0.149   6.222 -0.2960  0.2954  0.3340
   39POPC  H11A 5190   5.713   0.181   6.292  1.9767 -4.4198  0.2839
   39POPC  H11B 5191   5.574   0.067   6.267  1.1221 -1.8516 -1.4933
   39POPC     P 5192   5.617   0.395   6.134 -0.3538 -0.0016  0.2765
   39POPC   O13 5193   5.502   0.489   6.114  0.1903 -0.3624 -0.3497
   39POPC   O14 5194   5.704   0.375   6.017  0.5948  0.0958  0.4177
   39POPC   O12 5195   5.557   0.258   6.174 -0.1076  0.5540 -0.0240
   39POPC   O11 5196   5.712   0.436   6.252 -0.4689  0.2786  0.0575
   39POPC    C1 5197   5.641   0.472   6.371 -0.4789  0.5919  0.3485
   39POPC    HA 5198   5.569   0.392   6.400 -0.7242  0.6675 -0.0379
   39POPC    HB 5199   5.597   0.572   6.353  2.7428  1.7113 -2.1675
   39POPC    C2 5200   5.743   0.477   6.490  0.2278  0.5703  0.2428
   39POPC    HS 5201   5.808   0.565   6.468 -0.3244  0.4474 -2.2415
   39POPC   O21 5202   5.808   0.352   6.492 -0.1570  0.6263 -0.1951
   39POPC   C21 5203   5.930   0.343   6.442 -0.0440 -0.3831  0.1659
   39POPC   O22 5204   5.993   0.438   6.395 -0.4414  0.3884  0.5167
   39POPC   C22 5205   5.984   0.201   6.473 -0.5114  0.4352  0.5569
   39POPC   H2R 5206   6.001   0.150   6.376 -3.8317  0.1143  0.0131
   39POPC   H2S 5207   5.904   0.156   6.536 -1.5810  0.4957 -0.6958
   39POPC    C3 5208   5.676   0.512   6.627  0.3641  0.4989 -0.3641
   39POPC    HX 5209   5.591   0.441   6.633  0.0692  0.7092 -1.7321
   39POPC    HY 5210   5.628   0.612   6.625  1.6547  1.1455 -1.5780
   39POPC   O31 5211   5.759   0.495   6.738 -0.4073 -0.3399 -0.4369
   39POPC   C31 5212   5.860   0.576   6.753  0.4306 -1.1455 -0.0255
   39POPC   O32 5213   5.897   0.665   6.678  0.0219  0.4473  0.3827
   39POPC   C32 5214   5.927   0.526   6.881  0.0929  0.0848  0.1973
   39POPC   H2X 5215   5.868   0.440   6.919 -2.5567  0.6138 -2.4463
   39POPC   H2Y 5216   6.028   0.487   6.856  0.0878  0.2227 -0.0305
   39POPC   C23 5217   6.119   0.194   6.545  0.4937 -0.1609  0.6550
   39POPC   H3R 5218   6.185   0.269   6.495  0.3247 -0.2908  0.2375
   39POPC   H3S 5219   6.166   0.094   6.533  0.4979 -0.1534  0.6098
   39POPC   C24 5220   6.115   0.222   6.687 -0.4315  0.1482 -0.1649
   39POPC   H4R 5221   6.059   0.139   6.735 -1.4473 -1.2311 -3.4530
   39POPC   H4S 5222   6.062   0.314   6.719  0.0678 -0.1341  1.6056
   39POPC   C25 5223   6.256   0.226   6.760 -0.6482 -0.6158 -0.1421
   39POPC   H5R 5224   6.319   0.292   6.696 -2.5971  2.0222  0.5273
   39POPC   H5S 5225   6.315   0.131   6.757 -0.7454 -0.6638 -1.1816
   39POPC   C26 5226   6.252   0.269   6.907  0.2595  0.5613 -0.1028
   39POPC   H6R 5227   6.189   0.360   6.918 -1.5442 -0.7959  1.5482
   39POPC   H6S 5228   6.349   0.315   6.934 -0.2352 -0.3021  3.6880
   39POPC   C27 5229   6.211   0.154   7.005 -0.1782 -0.3194  0.2163
   39POPC   H7R 5230   6.297   0.084   7.011 -0.2190 -0.2187  3.2237
   39POPC   H7S 5231   6.129   0.103   6.950  0.5037 -0.0355 -1.1170
   39POPC   C28 5232   6.157   0.195   7.143  0.6486 -0.0552  0.6765
   39POPC   H8R 5233   6.109   0.108   7.193 -1.5930  1.3931  1.1906
   39POPC   H8S 5234   6.072   0.266   7.131  1.1503  0.7317  1.6522
   39POPC   C29 5235   6.269   0.271   7.208 -0.3805  0.0058 -0.1269
   39POPC   H91 5236   6.283   0.370   7.160  0.2461  0.7889  1.6082
   39POPC  C210 5237   6.341   0.249   7.320 -0.0333 -0.0643 -0.2771
   39POPC  H101 5238   6.413   0.325   7.353 -1.0168  0.8626 -0.2008
   39POPC  C211 5239   6.328   0.134   7.415 -0.7764 -0.1719 -0.3023
   39POPC  H11R 5240   6.421   0.078   7.391 -0.2623  0.3240  0.4869
   39POPC  H11S 5241   6.235   0.075   7.403 -1.9620  1.2218  1.4598
   39POPC  C212 5242   6.330   0.185   7.560 -0.6202  0.5619  0.4935
   39POPC  H12R 5243   6.234   0.239   7.575 -1.1576  0.3328 -1.7570
   39POPC  H12S 5244   6.419   0.249   7.573 -2.1986  3.0486 -0.2896
   39POPC  C213 5245   6.340   0.069   7.659  0.3420  0.4978 -1.1066
   39POPC  H13R 5246   6.388  -0.022   7.618  0.4706  0.5239 -1.0124
   39POPC  H13S 5247   6.235   0.039   7.679  1.0962 -1.2898  0.4126
   39POPC  C214 5248   6.419   0.112   7.792  0.3387  0.8539  0.4031
   39POPC  H14R 5249   6.375   0.211   7.817 -1.4861  0.4718 -1.0732
   39POPC  H14S 5250   6.524   0.130   7.760  0.7789 -0.0870  1.2740
   39POPC  C215 5251   6.415   0.018   7.914 -0.3675 -0.4082 -0.1526
   39POPC  H15R 5252   6.447  -0.085   7.886  0.4577  0.0997 -1.1699
   39POPC  H15S 5253   6.311   0.014   7.952 -0.1795  0.9362  0.5763
   39POPC  C216 5254   6.504   0.071   8.023 -1.0483 -0.2223  0.0297
   39POPC  H16R 5255   6.460   0.171   8.042 -2.8927 -1.0039  0.1759
   39POPC  H16S 5256   6.604   0.099   7.984 -1.4360  0.0945 -0.7553
   39POPC  C217 5257   6.513  -0.006   8.152 -0.7773  0.0612 -0.0378
   39POPC  H17R 5258   6.566  -0.099   8.124 -1.0864  0.0924 -0.7476
   39POPC  H17S 5259   6.412  -0.035   8.188 -0.6497 -2.2322 -1.2887
   39POPC  C218 5260   6.590   0.076   8.258  0.6949  0.1718  0.0081
   39POPC  H18R 5261   6.616   0.025   8.353 -0.9410  2.6202  1.9050
   39POPC  H18S 5262   6.524   0.157   8.295  1.0396  0.4154  0.0957
   39POPC  H18T 5263   6.681   0.124   8.215 -0.1236  0.2979 -1.6540
   39POPC   C33 5264   5.949   0.639   6.987  0.5431  0.1042  0.1459
   39POPC   H3X 5265   5.851   0.681   7.017  0.4800  1.5470 -1.8901
   39POPC   H3Y 5266   5.997   0.731   6.949 -2.3174  1.6228 -0.0551
   39POPC   C34 5267   6.013   0.576   7.121 -0.1847  0.0774  0.2355
   39POPC   H4X 5268   6.111   0.528   7.101  0.5242  1.5240  0.1142
   39POPC   H4Y 5269   5.949   0.497   7.166  1.7773 -1.2371  0.8099
   39POPC   C35 5270   6.032   0.682   7.229  0.2579 -0.1604  0.0464
   39POPC   H5X 5271   5.928   0.720   7.232 -0.0744 -0.7468 -2.0092
   39POPC   H5Y 5272   6.100   0.756   7.181 -0.6799  0.8870  0.3030
   39POPC   C36 5273   6.073   0.609   7.354  0.1041 -0.2230 -1.0086
   39POPC   H6X 5274   6.164   0.547   7.337 -0.2827 -1.1963  0.3390
   39POPC   H6Y 5275   5.991   0.547   7.396 -0.5323  1.3990  0.2117
   39POPC   C37 5276   6.106   0.710   7.471  0.7760  0.1138  0.2274
   39POPC   H7X 5277   6.018   0.774   7.492 -0.5571 -2.0550  1.6371
   39POPC   H7Y 5278   6.195   0.765   7.435  1.3646 -1.5642 -1.0141
   39POPC   C38 5279   6.158   0.645   7.605 -0.3303 -0.0003 -0.2968
   39POPC   H8X 5280   6.239   0.572   7.582  0.4520  1.2630 -1.7931
   39POPC   H8Y 5281   6.071   0.583   7.634 -0.4214 -1.4186 -3.2093
   39POPC   C39 5282   6.195   0.750   7.703 -0.1255  0.1956 -0.0223
   39POPC   H9X 5283   6.112   0.822   7.713  1.1911  1.4250  4.1107
   39POPC   H9Y 5284   6.275   0.821   7.671  1.3713 -1.7613 -0.8795
   39POPC  C310 5285   6.220   0.686   7.842 -0.3219  0.4689  0.2943
   39POPC  H10X 5286   6.300   0.608   7.842 -0.1276  0.6548 -0.6891
   39POPC  H10Y 5287   6.123   0.633   7.854 -0.8117  1.1267 -0.5830
   39POPC  C311 5288   6.228   0.788   7.948 -0.0949 -0.2252  0.4546
   39POPC  H11X 5289   6.125   0.831   7.951  0.4049  0.9671  1.1204
   39POPC  H11Y 5290   6.321   0.846   7.936  0.9540 -1.9385 -0.0824
   39POPC  C312 5291   6.250   0.719   8.087 -0.4005 -0.8953 -0.2457
   39POPC  H12X 5292   6.356   0.683   8.083  0.5556  1.6854 -0.1109
   39POPC  H12Y 5293   6.176   0.639   8.108 -1.0789 -0.3774 -0.6674
   39POPC  C313 5294   6.244   0.821   8.207 -0.1373  0.3245  0.3602
   39POPC  H13X 5295   6.149   0.878   8.198 -0.7162 -0.4975  1.1417
   39POPC  H13Y 5296   6.333   0.888   8.198  0.3592 -0.5804 -3.4878
   39POPC  C314 5297   6.241   0.757   8.350 -0.4886 -0.2063 -0.3982
   39POPC  H14X 5298   6.242   0.843   8.419 -1.8725  1.0789 -1.8848
   39POPC  H14Y 5299   6.337   0.701   8.361 -1.4657 -1.7295  0.8794
   39POPC  C315 5300   6.128   0.659   8.381 -0.0673 -0.7171  0.1317
   39POPC  H15X 5301   6.121   0.576   8.308 -0.8352 -0.3618 -0.1995
   39POPC  H15Y 5302   6.034   0.714   8.366 -0.7979 -2.4382 -2.0342
   39POPC  C316 5303   6.124   0.620   8.530 -0.1327 -0.4411  0.0825
   39POPC  H16X 5304   6.221   0.582   8.568 -0.2049 -1.3852 -0.6345
   39POPC  H16Y 5305   6.050   0.537   8.544  1.0165 -1.7155 -1.0909
   39POPC  H16Z 5306   6.087   0.703   8.594 -3.4761  2.1559 -4.5902
   40POPC     N 5307   4.555   5.767   6.345  0.6948 -0.0582 -0.0688
   40POPC   C12 5308   4.429   5.705   6.383  0.6790  0.1591 -0.0775
   40POPC  H12A 5309   4.409   5.703   6.489  1.4474  2.5964  0.1618
   40POPC  H12B 5310   4.432   5.601   6.351  1.4538  0.0941  0.1886
   40POPC   C13 5311   4.664   5.677   6.395 -0.3032  0.1597  0.5543
   40POPC  H13A 5312   4.667   5.661   6.502  0.5015 -2.0163  0.2644
   40POPC  H13B 5313   4.676   5.583   6.344  1.7145  0.8892 -0.4298
   40POPC  H13C 5314   4.754   5.733   6.375  0.2536 -0.1912  1.9501
   40POPC   C14 5315   4.580   5.783   6.194 -0.3358  0.4086 -0.6750
   40POPC  H14A 5316   4.587   5.683   6.152  0.3724 -0.3028  1.0575
   40POPC  H14B 5317   4.500   5.840   6.150 -0.0279  0.4742 -1.1639
   40POPC  H14C 5318   4.660   5.849   6.165 -1.7656  1.9792 -1.2069
   40POPC   C15 5319   4.573   5.903   6.405  0.1211  0.0124  0.0634
   40POPC  H15A 5320   4.664   5.951   6.374  0.5689  0.0694  1.3985
   40POPC  H15B 5321   4.564   5.898   6.513 -0.6637 -0.6226 -0.0181
   40POPC  H15C 5322   4.493   5.970   6.376 -0.0363  0.3374  1.1947
   40POPC   C11 5323   4.306   5.756   6.304  0.2583 -0.1630  0.0357
   40POPC  H11A 5324   4.212   5.699   6.320 -1.0872  1.5928 -1.0728
   40POPC  H11B 5325   4.325   5.744   6.195 -0.0500 -1.3285  0.1068
   40POPC     P 5326   4.207   5.955   6.444 -0.3106  0.0237 -0.0087
   40POPC   O13 5327   4.068   5.984   6.398 -0.1704  0.3737  0.1225
   40POPC   O14 5328   4.281   6.066   6.513  0.4627 -0.5754 -0.7370
   40POPC   O12 5329   4.287   5.895   6.313  0.5104  0.3883 -0.0473
   40POPC   O11 5330   4.209   5.835   6.549  0.2467 -0.0773 -0.1623
   40POPC    C1 5331   4.104   5.791   6.632 -0.4490 -0.8313  1.2678
   40POPC    HA 5332   4.086   5.681   6.628 -0.2210 -0.8246 -1.0859
   40POPC    HB 5333   4.014   5.848   6.602  0.0882  0.0553  1.2962
   40POPC    C2 5334   4.139   5.831   6.781  0.2354  0.8799 -0.1682
   40POPC    HS 5335   4.175   5.936   6.783 -1.6782  1.6033 -1.2779
   40POPC   O21 5336   4.237   5.733   6.813 -0.9790 -0.0710 -0.7717
   40POPC   C21 5337   4.323   5.773   6.911 -0.9968  0.3078  0.5794
   40POPC   O22 5338   4.345   5.891   6.941 -0.2934  0.3605 -0.1252
   40POPC   C22 5339   4.375   5.646   6.982  0.3453 -0.2923  0.5803
   40POPC   H2R 5340   4.485   5.645   6.965 -0.1114  1.0320 -3.4831
   40POPC   H2S 5341   4.334   5.557   6.928  0.0674  0.4535 -0.4673
   40POPC    C3 5342   4.015   5.812   6.870  0.5608 -0.3171 -0.3035
   40POPC    HX 5343   3.996   5.703   6.878  0.4928 -0.2238  1.1489
   40POPC    HY 5344   3.924   5.841   6.813  0.8388 -1.4025 -1.3406
   40POPC   O31 5345   4.022   5.873   6.994  0.3526  0.0735 -0.1986
   40POPC   C31 5346   3.984   5.998   6.999 -0.2816  0.0826 -0.9543
   40POPC   O32 5347   3.935   6.056   6.905 -0.9700  0.3107  0.1051
   40POPC   C32 5348   4.009   6.051   7.143 -1.0571  0.1221  1.0705
   40POPC   H2X 5349   3.919   6.116   7.156 -1.6103 -0.6702  1.2217
   40POPC   H2Y 5350   4.098   6.117   7.135 -0.7570 -0.4857 -1.4367
   40POPC   C23 5351   4.323   5.634   7.125  0.0511  0.3795 -0.5008
   40POPC   H3R 5352   4.344   5.528   7.152 -1.7713 -0.1149 -0.8555
   40POPC   H3S 5353   4.212   5.645   7.127 -0.1082 -1.0544  0.3181
   40POPC   C24 5354   4.400   5.723   7.221 -0.0943  0.0637 -0.1016
   40POPC   H4R 5355   4.403   5.830   7.191  3.0718  0.0997 -0.0269
   40POPC   H4S 5356   4.505   5.688   7.214 -0.5891 -1.7665  1.0618
   40POPC   C25 5357   4.364   5.704   7.376  0.2690  0.7784 -0.2817
   40POPC   H5R 5358   4.255   5.719   7.391  0.2258  0.4560 -0.2631
   40POPC   H5S 5359   4.414   5.778   7.443 -2.3848  0.8030  1.8246
   40POPC   C26 5360   4.405   5.566   7.428 -0.1166 -0.3056  0.2609
   40POPC   H6R 5361   4.515   5.552   7.413  0.0690 -0.1434  1.3636
   40POPC   H6S 5362   4.347   5.491   7.370  0.2235  0.3474 -0.9600
   40POPC   C27 5363   4.375   5.538   7.581  0.1840 -0.1956  0.6142
   40POPC   H7R 5364   4.399   5.432   7.605  0.3911  0.0723  1.6683
   40POPC   H7S 5365   4.268   5.547   7.609  0.0118 -1.5762  0.4440
   40POPC   C28 5366   4.455   5.620   7.684 -0.3505 -0.4979 -0.0699
   40POPC   H8R 5367   4.438   5.726   7.655 -1.2191 -1.1185 -2.0284
   40POPC   H8S 5368   4.565   5.605   7.672 -0.4237 -1.9764  0.8717
   40POPC   C29 5369   4.411   5.594   7.827 -0.5683  0.2490  0.1566
   40POPC   H91 5370   4.382   5.490   7.849 -1.2901  0.1958 -0.9699
   40POPC  C210 5371   4.397   5.690   7.924 -0.2576 -0.7581  0.1824
   40POPC  H101 5372   4.357   5.662   8.023 -0.2205 -0.6189  0.2376
   40POPC  C211 5373   4.411   5.838   7.917 -0.2653 -0.2294  0.3003
   40POPC  H11R 5374   4.311   5.882   7.937 -0.6039 -0.4945 -0.7634
   40POPC  H11S 5375   4.448   5.868   7.817 -0.6656 -0.3028  0.1254
   40POPC  C212 5376   4.489   5.903   8.034 -0.0956  0.0475 -0.2390
   40POPC  H12R 5377   4.473   6.011   8.014 -1.6076 -0.4099 -1.7305
   40POPC  H12S 5378   4.599   5.894   8.018 -0.2279  0.5649 -1.5686
   40POPC  C213 5379   4.464   5.862   8.179  0.8273  0.7092 -0.2379
   40POPC  H13R 5380   4.521   5.927   8.248  0.6970  0.2633  0.3020
   40POPC  H13S 5381   4.505   5.760   8.194  0.0743  0.2181 -1.3927
   40POPC  C214 5382   4.312   5.855   8.221  0.0836  0.3019  0.3062
   40POPC  H14R 5383   4.254   5.786   8.155  0.4474  1.5749 -1.4300
   40POPC  H14S 5384   4.265   5.955   8.209 -0.8069 -0.0261  0.9721
   40POPC  C215 5385   4.293   5.809   8.366  0.1149 -0.1489 -0.1747
   40POPC  H15R 5386   4.318   5.897   8.430 -0.4246 -0.0773 -0.0543
   40POPC  H15S 5387   4.357   5.720   8.382  0.0121 -0.1494  0.2614
   40POPC  C216 5388   4.144   5.768   8.399 -0.4787  0.2396 -0.2351
   40POPC  H16R 5389   4.118   5.698   8.317  0.2077  1.6696 -1.7360
   40POPC  H16S 5390   4.078   5.857   8.391 -1.9280 -0.6138  1.6303
   40POPC  C217 5391   4.132   5.722   8.545  0.1870 -0.0248  0.6551
   40POPC  H17R 5392   4.129   5.809   8.613  1.1045  1.2365 -0.8265
   40POPC  H17S 5393   4.227   5.667   8.565  0.9627  0.5233 -1.2702
   40POPC  C218 5394   4.006   5.630   8.566 -0.4124  0.4023  0.2575
   40POPC  H18R 5395   4.032   5.568   8.655  2.3067  1.7155  0.4679
   40POPC  H18S 5396   3.994   5.559   8.482 -0.1822 -0.1891  0.7234
   40POPC  H18T 5397   3.918   5.698   8.579  0.8798  2.0816  0.5842
   40POPC   C33 5398   4.016   5.954   7.269  1.4413  0.6809  0.9393
   40POPC   H3X 5399   4.102   5.884   7.261  1.7458  1.0307  1.0684
   40POPC   H3Y 5400   3.925   5.890   7.266  1.6678  0.2654 -3.5353
   40POPC   C34 5401   4.022   6.030   7.400  0.4985 -0.1282  0.1904
   40POPC   H4X 5402   3.934   6.097   7.408  0.9639  0.5202 -0.0802
   40POPC   H4Y 5403   4.112   6.095   7.403  0.8119 -0.4954 -0.6572
   40POPC   C35 5404   4.014   5.940   7.526 -0.0575  0.2964 -0.2147
   40POPC   H5X 5405   4.096   5.864   7.521 -0.1784  0.0493  1.3029
   40POPC   H5Y 5406   3.916   5.889   7.538  1.6519 -2.8594  1.7068
   40POPC   C36 5407   4.027   6.030   7.648 -0.0894 -0.2836  0.4140
   40POPC   H6X 5408   3.951   6.110   7.650  1.4156  1.3315 -2.1008
   40POPC   H6Y 5409   4.125   6.076   7.623  0.7867 -2.2901 -0.0929
   40POPC   C37 5410   4.021   5.964   7.791  0.2322  0.2626  0.1188
   40POPC   H7X 5411   4.108   5.896   7.804  0.5101  0.5214 -0.4025
   40POPC   H7Y 5412   3.924   5.910   7.803  0.6529 -0.4584  0.3492
   40POPC   C38 5413   4.027   6.067   7.902  0.2816 -0.8138  0.3802
   40POPC   H8X 5414   4.028   6.012   7.999  2.4406 -1.3293  0.1112
   40POPC   H8Y 5415   3.928   6.116   7.914  0.1591 -0.9139 -0.1935
   40POPC   C39 5416   4.145   6.166   7.893  0.2097 -0.8288  0.2296
   40POPC   H9X 5417   4.140   6.233   7.805  3.6203 -0.7738 -0.0422
   40POPC   H9Y 5418   4.238   6.111   7.868 -0.5272 -1.6194 -0.8969
   40POPC  C310 5419   4.170   6.241   8.021  0.1954  0.3625  0.2410
   40POPC  H10X 5420   4.192   6.160   8.094 -2.8783  1.0698  2.1327
   40POPC  H10Y 5421   4.071   6.278   8.056 -0.2080  1.4477 -1.9014
   40POPC  C311 5422   4.276   6.350   8.003  0.2933  0.2883  0.2816
   40POPC  H11X 5423   4.243   6.429   7.932 -2.6624 -0.6506  0.4738
   40POPC  H11Y 5424   4.372   6.310   7.964  0.2196  1.0241 -0.6924
   40POPC  C312 5425   4.310   6.411   8.135  0.2097  0.0506 -0.5285
   40POPC  H12X 5426   4.334   6.326   8.202 -1.4973  0.7045  1.0098
   40POPC  H12Y 5427   4.221   6.459   8.182  0.7770  0.0330  0.5991
   40POPC  C313 5428   4.422   6.507   8.117 -0.1942 -0.5150  0.3163
   40POPC  H13X 5429   4.520   6.455   8.103  0.4311  0.9557 -1.1492
   40POPC  H13Y 5430   4.430   6.572   8.207  1.4760  0.5171 -0.5148
   40POPC  C314 5431   4.402   6.607   7.998 -0.7024 -0.1908 -0.9737
   40POPC  H14X 5432   4.294   6.631   7.986 -0.4859  0.6444 -1.2881
   40POPC  H14Y 5433   4.440   6.555   7.908 -0.0119  1.5749 -1.7451
   40POPC  C315 5434   4.470   6.744   8.015  0.6793 -0.5845  0.3734
   40POPC  H15X 5435   4.479   6.777   7.909 -0.1545 -1.5645 -0.0208
   40POPC  H15Y 5436   4.570   6.740   8.062  1.6056 -0.3559 -1.4666
   40POPC  C316 5437   4.380   6.852   8.082 -1.1121  0.3479 -0.1051
   40POPC  H16X 5438   4.347   6.820   8.183  0.1262  0.4110  0.3398
   40POPC  H16Y 5439   4.290   6.869   8.020 -1.9500  1.6716  1.3895
   40POPC  H16Z 5440   4.448   6.936   8.105  0.4825 -1.3576  1.8174
   41CHL1    C3 5441   0.998   0.592  10.247  0.6580  0.3423 -0.4239
   41CHL1    H3 5442   0.995   0.702  10.256  3.1781  0.2924  3.9747
   41CHL1    O3 5443   1.004   0.545  10.382  0.1777  0.5942  0.3735
   41CHL1   H3' 5444   1.048   0.460  10.378 -0.2498  0.3940 -0.1919
   41CHL1    C4 5445   0.876   0.533  10.180 -0.0251 -0.1806  0.1750
   41CHL1   H4A 5446   0.891   0.423  10.184  1.3212  0.0259  1.3575
   41CHL1   H4B 5447   0.785   0.568  10.234  0.0931 -0.1460  0.3500
   41CHL1    C5 5448   0.869   0.576  10.040 -0.4152 -0.1437  0.7335
   41CHL1    C6 5449   0.772   0.650   9.992  0.4108  0.5189  0.4126
   41CHL1    H6 5450   0.691   0.676  10.062 -1.6941  0.5635 -1.8920
   41CHL1    C7 5451   0.749   0.679   9.843 -0.6199 -0.4905  0.1054
   41CHL1   H7A 5452   0.645   0.666   9.806 -0.5590  0.3922 -0.3966
   41CHL1   H7B 5453   0.758   0.789   9.832  1.2431 -0.7692 -1.9637
   41CHL1    C8 5454   0.848   0.609   9.748 -1.2035  0.1341 -0.2250
   41CHL1    H8 5455   0.810   0.506   9.731 -0.6430  0.1192 -1.5107
   41CHL1   C14 5456   0.858   0.691   9.618  0.2812 -0.4993 -0.2835
   41CHL1   H14 5457   0.907   0.787   9.647  2.9738 -1.9714  0.3905
   41CHL1   C15 5458   0.731   0.723   9.544  0.8357  0.3367 -0.4435
   41CHL1  H15A 5459   0.676   0.627   9.536 -1.3181  1.2166  2.3349
   41CHL1  H15B 5460   0.666   0.796   9.596 -0.6969 -1.3242  0.0771
   41CHL1   C16 5461   0.772   0.770   9.408 -0.5997  0.1257  0.2941
   41CHL1  H16A 5462   0.710   0.713   9.336  1.3003 -0.0131 -1.3165
   41CHL1  H16B 5463   0.752   0.878   9.393 -0.3074  0.7130  3.3820
   41CHL1   C17 5464   0.921   0.733   9.400  0.0187  0.0244 -0.2204
   41CHL1   H17 5465   0.979   0.822   9.435  0.2172  0.9280 -2.6745
   41CHL1   C13 5466   0.948   0.629   9.517 -0.4279  0.4663 -0.7618
   41CHL1   C18 5467   0.896   0.489   9.459 -0.2336  0.0700 -0.2577
   41CHL1  H18A 5468   0.823   0.512   9.379  1.9062  1.7933 -1.8444
   41CHL1  H18B 5469   0.980   0.442   9.404 -2.0663 -2.2289 -1.2289
   41CHL1  H18C 5470   0.842   0.425   9.532 -1.1437  0.8961 -0.1945
   41CHL1   C12 5471   1.088   0.621   9.583  0.6562 -0.0575  0.1117
   41CHL1  H12A 5472   1.146   0.574   9.500  0.5625  1.4658 -0.8533
   41CHL1  H12B 5473   1.132   0.722   9.594 -0.2224  0.4313 -0.6962
   41CHL1   C11 5474   1.087   0.541   9.708  0.0807 -0.2497 -0.3498
   41CHL1  H11A 5475   1.056   0.435   9.690 -1.3067 -0.6062  3.1892
   41CHL1  H11B 5476   1.188   0.531   9.753 -1.1328 -2.9301  2.1724
   41CHL1    C9 5477   0.983   0.611   9.803 -0.3445 -0.2421 -0.0254
   41CHL1    H9 5478   1.014   0.717   9.811 -0.2821 -0.0840 -1.8359
   41CHL1   C10 5479   0.990   0.537   9.949  0.7243 -0.0640  0.3106
   41CHL1   C19 5480   0.991   0.380   9.926 -0.4682  0.0802  0.1619
   41CHL1  H19A 5481   0.976   0.323  10.021 -0.5176 -0.8140 -0.3680
   41CHL1  H19B 5482   0.910   0.362   9.852 -0.5187 -0.5537  0.3632
   41CHL1  H19C 5483   1.091   0.345   9.894  0.1601  0.7870  1.2765
   41CHL1    C1 5484   1.117   0.591  10.027  1.6385  0.3347  0.0105
   41CHL1   H1A 5485   1.213   0.555   9.985  1.4070  0.5917 -0.7456
   41CHL1   H1B 5486   1.115   0.702  10.024 -1.9760  0.5432  2.8547
   41CHL1    C2 5487   1.120   0.544  10.178  0.3240  0.3287  0.0541
   41CHL1   H2A 5488   1.218   0.578  10.218  1.1954 -0.2980 -1.4564
   41CHL1   H2B 5489   1.134   0.434  10.182  0.6193  0.3968  2.0658
   41CHL1   C20 5490   0.985   0.704   9.261 -0.7898  0.4744 -0.4950
   41CHL1   H20 5491   0.995   0.599   9.227 -0.8877  1.1563 -2.8250
   41CHL1   C21 5492   1.132   0.751   9.267 -0.3019 -0.2542  0.3962
   41CHL1  H21A 5493   1.184   0.696   9.349  0.8865 -1.1657 -0.9111
   41CHL1  H21B 5494   1.146   0.858   9.292  1.2948 -0.8770  2.5095
   41CHL1  H21C 5495   1.192   0.724   9.177 -0.0197 -0.5292  0.6578
   41CHL1   C22 5496   0.901   0.774   9.150 -0.3223  0.2011  0.0424
   41CHL1  H22A 5497   0.796   0.739   9.142 -0.5465  0.9640 -0.5039
   41CHL1  H22B 5498   0.912   0.882   9.172 -0.1931  0.6302 -1.9035
   41CHL1   C23 5499   0.950   0.757   9.011  0.1282  0.7902  0.9715
   41CHL1  H23A 5500   1.052   0.799   8.998  0.9818 -1.3478  0.3166
   41CHL1  H23B 5501   0.960   0.647   8.997 -0.8632  0.8242 -0.2144
   41CHL1   C24 5502   0.842   0.801   8.912  0.6705  0.1026 -0.1570
   41CHL1  H24A 5503   0.739   0.768   8.938  1.2874 -0.5347  1.6235
   41CHL1  H24B 5504   0.842   0.911   8.902 -2.9165  0.2782  0.5192
   41CHL1   C25 5505   0.882   0.765   8.775 -0.3087  1.0366 -0.3083
   41CHL1   H25 5506   0.986   0.801   8.758 -0.1779 -0.4359 -3.3266
   41CHL1   C26 5507   0.888   0.614   8.749  0.1411  0.4025  0.1858
   41CHL1  H26A 5508   0.965   0.563   8.810 -1.1250  0.2732  1.7733
   41CHL1  H26B 5509   0.788   0.569   8.770  0.3960 -1.0725 -1.5493
   41CHL1  H26C 5510   0.898   0.585   8.643 -4.3897  0.8829 -0.6070
   41CHL1   C27 5511   0.788   0.827   8.683  0.1912 -0.2484  0.4255
   41CHL1  H27A 5512   0.684   0.791   8.696  0.4560 -1.0182  0.4740
   41CHL1  H27B 5513   0.790   0.934   8.710 -0.8540 -0.5373  1.7689
   41CHL1  H27C 5514   0.819   0.819   8.576 -0.1381 -0.7534  0.3661
   42CHL1    C3 5515   2.049   6.196   9.982  0.3827  0.3007 -0.0799
   42CHL1    H3 5516   2.137   6.129   9.970  0.2626 -0.3195  2.1696
   42CHL1    O3 5517   2.043   6.240  10.117  0.3378 -0.1082  0.4595
   42CHL1   H3' 5518   1.969   6.300  10.114  0.5983  0.1855 -0.2139
   42CHL1    C4 5519   2.046   6.326   9.898  0.2948  0.0106  0.7191
   42CHL1   H4A 5520   1.967   6.388   9.946  1.7252  0.8221  2.1368
   42CHL1   H4B 5521   2.142   6.377   9.924  0.4238 -0.4545  1.1765
   42CHL1    C5 5522   2.018   6.312   9.755  0.8861  0.4046  0.4191
   42CHL1    C6 5523   2.110   6.348   9.665  0.3058 -0.7774  0.0643
   42CHL1    H6 5524   2.207   6.391   9.694  1.1496  0.1522 -3.6181
   42CHL1    C7 5525   2.088   6.337   9.515  0.2867 -0.5617 -0.1243
   42CHL1   H7A 5526   2.088   6.439   9.469  0.8058 -0.9393 -0.9784
   42CHL1   H7B 5527   2.167   6.267   9.482  0.9008 -0.9913  2.1149
   42CHL1    C8 5528   1.948   6.286   9.469 -0.6151  0.2418 -0.0379
   42CHL1    H8 5529   1.879   6.372   9.485 -0.7935 -0.1960  1.7778
   42CHL1   C14 5530   1.962   6.225   9.327  0.8112  0.0698 -0.0799
   42CHL1   H14 5531   2.012   6.129   9.351 -0.4969 -0.3042  1.2695
   42CHL1   C15 5532   2.031   6.305   9.215  0.4216 -0.1185  0.0338
   42CHL1  H15A 5533   2.011   6.413   9.227 -2.7222 -0.4090 -1.4836
   42CHL1  H15B 5534   2.141   6.292   9.211  0.6141  1.6886 -1.9901
   42CHL1   C16 5535   1.971   6.255   9.076  0.1205 -0.1738  0.0209
   42CHL1  H16A 5536   1.925   6.343   9.026 -1.5718 -1.2509 -0.4121
   42CHL1  H16B 5537   2.044   6.211   9.005  0.2258 -0.2631  0.1830
   42CHL1   C17 5538   1.859   6.157   9.121 -0.2997  0.1196 -0.5529
   42CHL1   H17 5539   1.914   6.062   9.140  3.2325  1.8585 -1.0919
   42CHL1   C13 5540   1.823   6.193   9.272 -0.2977 -0.5440 -0.3340
   42CHL1   C18 5541   1.725   6.311   9.271  0.1239 -0.1366  0.4200
   42CHL1  H18A 5542   1.629   6.277   9.228  0.2814  1.3250 -1.2099
   42CHL1  H18B 5543   1.721   6.360   9.371  1.3381  3.4582 -1.1048
   42CHL1  H18C 5544   1.771   6.397   9.217  0.6201  0.7062  2.1200
   42CHL1   C12 5545   1.768   6.080   9.364 -0.1295 -0.7506  0.9668
   42CHL1  H12A 5546   1.668   6.055   9.323  0.4778  2.1815 -2.8422
   42CHL1  H12B 5547   1.831   5.989   9.356 -1.3372 -1.9524  3.6414
   42CHL1   C11 5548   1.756   6.125   9.511 -0.1137  0.3716 -0.4025
   42CHL1  H11A 5549   1.682   6.208   9.517 -0.6068  0.0730 -1.9178
   42CHL1  H11B 5550   1.724   6.039   9.573  0.8209 -0.9701 -1.7158
   42CHL1    C9 5551   1.896   6.181   9.566 -0.3145 -0.1045 -0.0077
   42CHL1    H9 5552   1.966   6.095   9.560 -2.6961 -2.0825 -2.2605
   42CHL1   C10 5553   1.891   6.231   9.719 -0.2798  0.3400 -0.0512
   42CHL1   C19 5554   1.771   6.324   9.739 -0.0973 -0.2916  0.7978
   42CHL1  H19A 5555   1.773   6.420   9.685  0.8513 -0.2108  0.9496
   42CHL1  H19B 5556   1.667   6.289   9.722 -0.1165  0.0994  0.0893
   42CHL1  H19C 5557   1.785   6.342   9.848  0.8229  0.4969  0.5614
   42CHL1    C1 5558   1.888   6.100   9.808 -0.4703 -0.0364 -0.4036
   42CHL1   H1A 5559   1.798   6.036   9.800 -2.1851  2.1013  0.7690
   42CHL1   H1B 5560   1.962   6.034   9.757 -1.9756 -0.2959 -2.3745
   42CHL1    C2 5561   1.916   6.118   9.958 -0.7915 -0.2973 -0.3206
   42CHL1   H2A 5562   1.914   6.021  10.013 -0.5533  0.8499  1.8315
   42CHL1   H2B 5563   1.840   6.186  10.000  1.3189  1.5980  0.6365
   42CHL1   C20 5564   1.751   6.118   9.020  0.5672  0.3768  0.6889
   42CHL1   H20 5565   1.676   6.070   9.087 -0.3345  1.2073  0.2830
   42CHL1   C21 5566   1.813   6.009   8.926  0.1388  0.6981 -0.2554
   42CHL1  H21A 5567   1.737   5.952   8.868  1.6985 -0.8743 -0.8189
   42CHL1  H21B 5568   1.867   5.931   8.983 -1.6400 -0.1804  0.2905
   42CHL1  H21C 5569   1.873   6.059   8.847 -0.5476  1.3169 -0.3992
   42CHL1   C22 5570   1.704   6.238   8.940  0.0710 -0.1860  0.1469
   42CHL1  H22A 5571   1.675   6.326   9.001  1.9007 -2.7632  5.2716
   42CHL1  H22B 5572   1.787   6.275   8.875  0.4897 -0.0275  0.7694
   42CHL1   C23 5573   1.574   6.208   8.857 -0.0682  0.3869  0.8067
   42CHL1  H23A 5574   1.582   6.115   8.796  1.6931  0.9129  0.1953
   42CHL1  H23B 5575   1.488   6.192   8.925 -2.3429 -0.6407 -2.1118
   42CHL1   C24 5576   1.538   6.325   8.765  0.5708 -0.1853  0.3730
   42CHL1  H24A 5577   1.514   6.410   8.832  2.0914  0.2538  0.3804
   42CHL1  H24B 5578   1.617   6.355   8.694 -0.5518 -1.6577 -1.6150
   42CHL1   C25 5579   1.409   6.286   8.682 -0.1857 -0.3677 -0.1059
   42CHL1   H25 5580   1.331   6.261   8.757 -4.5065  3.1132 -2.8490
   42CHL1   C26 5581   1.348   6.405   8.607  0.6320 -0.4321  0.9301
   42CHL1  H26A 5582   1.433   6.454   8.554 -1.4452 -0.4072 -2.7220
   42CHL1  H26B 5583   1.272   6.374   8.531  1.6973 -0.1297 -0.2937
   42CHL1  H26C 5584   1.314   6.486   8.675  0.3761  0.8327 -0.6323
   42CHL1   C27 5585   1.439   6.179   8.579 -0.2690  0.7221  0.0349
   42CHL1  H27A 5586   1.511   6.213   8.501  0.9579 -2.4580 -0.3318
   42CHL1  H27B 5587   1.472   6.084   8.625 -1.1130  0.1595 -0.4914
   42CHL1  H27C 5588   1.352   6.156   8.514 -0.1134 -0.9098  0.3796
   43CHL1    C3 5589   2.998   2.406  10.043  0.6013  0.5500 -0.3653
   43CHL1    H3 5590   2.907   2.459  10.007 -1.4402 -1.8974  0.8982
   43CHL1    O3 5591   2.982   2.367  10.174 -0.1926  0.3608  0.1899
   43CHL1   H3' 5592   3.071   2.344  10.202  1.2049  3.7179 -1.0500
   43CHL1    C4 5593   3.017   2.276   9.964 -0.4980 -0.6496  0.6375
   43CHL1   H4A 5594   3.105   2.224  10.007 -1.1643 -2.1183  0.3192
   43CHL1   H4B 5595   2.933   2.203   9.970 -2.4875  1.3851 -0.9296
   43CHL1    C5 5596   3.051   2.292   9.816  0.3591  0.4911  0.3312
   43CHL1    C6 5597   2.984   2.231   9.713  0.6579 -0.6649  0.1361
   43CHL1    H6 5598   2.904   2.158   9.730 -0.1093  0.3518  1.0298
   43CHL1    C7 5599   3.020   2.251   9.567  0.1798  0.3529  0.0140
   43CHL1   H7A 5600   3.032   2.152   9.518  0.8666 -0.7396  2.2585
   43CHL1   H7B 5601   2.953   2.313   9.503  2.2157  1.1632 -1.4529
   43CHL1    C8 5602   3.157   2.318   9.543 -0.2516 -0.7033  0.5657
   43CHL1    H8 5603   3.238   2.243   9.555  0.5833  0.2386  0.9687
   43CHL1   C14 5604   3.174   2.374   9.402  0.5091 -0.4512 -0.1586
   43CHL1   H14 5605   3.112   2.466   9.397 -0.7124 -1.1822  0.9572
   43CHL1   C15 5606   3.127   2.294   9.278  0.6184  0.0976  1.0761
   43CHL1  H15A 5607   3.133   2.187   9.307 -0.9620 -0.4582 -0.4372
   43CHL1  H15B 5608   3.018   2.315   9.266  0.8281  1.7206  1.7965
   43CHL1   C16 5609   3.213   2.333   9.161  0.5301  0.5741  0.4435
   43CHL1  H16A 5610   3.289   2.257   9.132  0.6776  1.9616 -3.3893
   43CHL1  H16B 5611   3.164   2.376   9.072  1.6972 -0.1848 -0.5974
   43CHL1   C17 5612   3.293   2.452   9.215 -0.2592  0.0388 -0.5359
   43CHL1   H17 5613   3.219   2.535   9.210 -0.3838 -0.1130 -1.3322
   43CHL1   C13 5614   3.309   2.431   9.365  0.2177 -0.8753  0.0186
   43CHL1   C18 5615   3.414   2.328   9.385 -0.1222 -0.3249  0.2020
   43CHL1  H18A 5616   3.517   2.359   9.357 -0.5756  0.3467 -0.7899
   43CHL1  H18B 5617   3.419   2.302   9.492 -0.8387  0.5462  0.4530
   43CHL1  H18C 5618   3.391   2.239   9.322  0.6894  0.0665 -0.6811
   43CHL1   C12 5619   3.330   2.554   9.455  0.0931 -0.0088 -0.0261
   43CHL1  H12A 5620   3.433   2.586   9.427  0.7371 -2.5952 -0.8684
   43CHL1  H12B 5621   3.263   2.639   9.429  0.0253  0.3471  1.2388
   43CHL1   C11 5622   3.311   2.513   9.609 -0.0835  0.1979  0.2295
   43CHL1  H11A 5623   3.402   2.453   9.632 -0.1343 -0.3357 -0.8923
   43CHL1  H11B 5624   3.313   2.606   9.670 -1.3362 -0.2582  0.9926
   43CHL1    C9 5625   3.187   2.433   9.644 -0.3586  0.6276  0.2251
   43CHL1    H9 5626   3.113   2.515   9.628  1.1818  1.8863 -0.6816
   43CHL1   C10 5627   3.168   2.388   9.793  0.4334  0.0866  1.0959
   43CHL1   C19 5628   3.305   2.314   9.831  0.1113  0.8247 -0.0056
   43CHL1  H19A 5629   3.399   2.374   9.828 -0.1284  1.4569  2.6386
   43CHL1  H19B 5630   3.295   2.278   9.936  0.7775 -0.4366 -0.3556
   43CHL1  H19C 5631   3.322   2.221   9.773  0.7785  0.9618 -0.0389
   43CHL1    C1 5632   3.156   2.511   9.888 -0.2683 -0.4158 -0.2327
   43CHL1   H1A 5633   3.249   2.572   9.890 -0.8316  0.4547  1.2379
   43CHL1   H1B 5634   3.085   2.586   9.845 -0.2775 -1.0297 -1.3335
   43CHL1    C2 5635   3.129   2.484  10.037  0.2853  0.6427  0.1282
   43CHL1   H2A 5636   3.122   2.578  10.096 -0.3906 -0.2962  1.5901
   43CHL1   H2B 5637   3.207   2.420  10.083  0.2848  0.1926 -0.4828
   43CHL1   C20 5638   3.414   2.507   9.133 -0.0479  0.5299  0.0900
   43CHL1   H20 5639   3.512   2.458   9.150  0.1139  0.4158 -1.1041
   43CHL1   C21 5640   3.435   2.653   9.147 -0.5258 -0.3063 -0.2041
   43CHL1  H21A 5641   3.514   2.689   9.077  1.1906 -1.3582  1.0995
   43CHL1  H21B 5642   3.466   2.686   9.248 -1.3830 -0.8016  0.2302
   43CHL1  H21C 5643   3.344   2.707   9.113 -1.0529  0.1978  1.8784
   43CHL1   C22 5644   3.390   2.474   8.984 -0.1295 -0.0696  0.1270
   43CHL1  H22A 5645   3.389   2.364   8.966  1.4821 -0.1041  0.0649
   43CHL1  H22B 5646   3.293   2.509   8.945 -0.4093 -1.4709 -0.4907
   43CHL1   C23 5647   3.500   2.527   8.891  0.4929  0.2931  0.4024
   43CHL1  H23A 5648   3.482   2.633   8.862 -0.5136 -0.1288 -0.5683
   43CHL1  H23B 5649   3.601   2.504   8.933  0.0958 -1.6019  0.3818
   43CHL1   C24 5650   3.506   2.452   8.753  0.0505 -0.5581  0.1295
   43CHL1  H24A 5651   3.530   2.344   8.765 -0.1890 -0.4727  1.5769
   43CHL1  H24B 5652   3.405   2.448   8.707 -0.1768  0.6203  0.4804
   43CHL1   C25 5653   3.605   2.508   8.653  0.1299  0.2561  0.9556
   43CHL1   H25 5654   3.598   2.617   8.635  2.3046  0.3268  0.2430
   43CHL1   C26 5655   3.753   2.475   8.690 -0.9734 -0.5089  0.2084
   43CHL1  H26A 5656   3.771   2.498   8.797  0.4650 -1.5144  0.2112
   43CHL1  H26B 5657   3.788   2.375   8.657 -0.0405  0.4855 -1.9949
   43CHL1  H26C 5658   3.826   2.532   8.628 -0.1666 -0.6563  1.0044
   43CHL1   C27 5659   3.589   2.436   8.514  0.2816 -0.3944  0.1633
   43CHL1  H27A 5660   3.513   2.481   8.446  1.5653 -0.4662 -1.3911
   43CHL1  H27B 5661   3.687   2.433   8.461 -0.2555 -0.2564 -0.8585
   43CHL1  H27C 5662   3.570   2.329   8.537 -1.2967 -0.2370 -0.3090
   44CHL1    C3 5663   1.640   0.265  10.075  0.0110  0.2434 -0.1110
   44CHL1    H3 5664   1.657   0.161  10.040 -0.4717  0.4898 -1.1082
   44CHL1    O3 5665   1.666   0.284  10.210 -0.1495 -0.1602 -0.1146
   44CHL1   H3' 5666   1.600   0.243  10.265 -0.2705 -0.5124 -0.5229
   44CHL1    C4 5667   1.726   0.351   9.990  0.1354  0.0597 -0.3127
   44CHL1   H4A 5668   1.704   0.458  10.009  0.2067  0.3541 -1.7332
   44CHL1   H4B 5669   1.834   0.335  10.012 -0.1352 -0.6769  0.5217
   44CHL1    C5 5670   1.706   0.329   9.838  0.0652 -0.2652 -0.4243
   44CHL1    C6 5671   1.797   0.284   9.750 -0.5703 -0.1570 -0.4794
   44CHL1    H6 5672   1.899   0.256   9.779  0.3067  2.8319 -0.3214
   44CHL1    C7 5673   1.771   0.259   9.609 -0.1636  0.2387  0.5550
   44CHL1   H7A 5674   1.857   0.290   9.546  0.1948 -0.3474  0.7550
   44CHL1   H7B 5675   1.774   0.148   9.604  0.3931  0.2989 -1.0939
   44CHL1    C8 5676   1.637   0.317   9.558  0.6061 -0.7105  0.0810
   44CHL1    H8 5677   1.664   0.425   9.551  0.3789 -0.7072 -1.0572
   44CHL1   C14 5678   1.603   0.264   9.425 -0.5295  0.0417 -0.4581
   44CHL1   H14 5679   1.579   0.157   9.438 -0.5950  0.0890 -0.1809
   44CHL1   C15 5680   1.713   0.275   9.315  0.3864 -0.3941  0.1732
   44CHL1  H15A 5681   1.779   0.364   9.323  1.0357 -0.3067 -4.0220
   44CHL1  H15B 5682   1.779   0.187   9.315  1.7767  0.5867  1.6256
   44CHL1   C16 5683   1.633   0.287   9.181 -0.1916  0.6956  0.1556
   44CHL1  H16A 5684   1.651   0.383   9.130 -1.1086  0.0030 -1.5398
   44CHL1  H16B 5685   1.654   0.201   9.114  0.4966  1.2906 -0.4001
   44CHL1   C17 5686   1.488   0.274   9.222  1.0724  0.5719  0.4933
   44CHL1   H17 5687   1.466   0.166   9.235 -0.4780  0.5272 -1.9459
   44CHL1   C13 5688   1.483   0.333   9.368 -0.6241 -0.2692 -0.0937
   44CHL1   C18 5689   1.496   0.486   9.355  0.2580  0.4231 -0.1707
   44CHL1  H18A 5690   1.588   0.518   9.300 -0.1416  1.4430 -0.2707
   44CHL1  H18B 5691   1.405   0.527   9.307  0.4065  0.2976 -0.5657
   44CHL1  H18C 5692   1.504   0.537   9.453 -0.4256 -0.7719  0.5265
   44CHL1   C12 5693   1.363   0.294   9.456 -0.2271  0.0555  0.4706
   44CHL1  H12A 5694   1.271   0.342   9.418 -1.7001 -1.6987  1.6815
   44CHL1  H12B 5695   1.352   0.184   9.443 -2.4863  0.3480 -0.4650
   44CHL1   C11 5696   1.382   0.342   9.598 -0.5790  0.2161 -0.8227
   44CHL1  H11A 5697   1.375   0.453   9.609  2.9876  0.4146  1.1115
   44CHL1  H11B 5698   1.294   0.309   9.656 -1.6613 -0.1050 -2.5700
   44CHL1    C9 5699   1.519   0.300   9.657 -1.1441  0.2070 -0.1796
   44CHL1    H9 5700   1.510   0.189   9.664  1.2840 -0.1407 -1.4074
   44CHL1   C10 5701   1.555   0.344   9.802 -0.4281  0.0109 -0.9347
   44CHL1   C19 5702   1.528   0.499   9.810 -0.4310  0.1731  0.1934
   44CHL1  H19A 5703   1.597   0.555   9.743  0.4017  1.1964  1.8372
   44CHL1  H19B 5704   1.421   0.523   9.793 -1.0110 -1.9969  0.4974
   44CHL1  H19C 5705   1.563   0.537   9.909  0.3226 -0.0158  0.0119
   44CHL1    C1 5706   1.468   0.269   9.905  0.0436  0.3212 -0.9110
   44CHL1   H1A 5707   1.360   0.292   9.889 -0.2701 -0.6038 -0.2173
   44CHL1   H1B 5708   1.484   0.161   9.886 -0.1772  0.1297 -0.0461
   44CHL1    C2 5709   1.496   0.297  10.055  0.2357  0.0926  0.1990
   44CHL1   H2A 5710   1.434   0.231  10.119 -0.2969  0.3780 -0.0224
   44CHL1   H2B 5711   1.462   0.401  10.072  1.5080  0.3280  1.5077
   44CHL1   C20 5712   1.394   0.340   9.117 -0.0399  0.3625 -0.3592
   44CHL1   H20 5713   1.415   0.448   9.105  0.2808  0.1788 -1.6387
   44CHL1   C21 5714   1.246   0.342   9.155 -0.4182 -0.5928  0.0424
   44CHL1  H21A 5715   1.230   0.233   9.172  1.3543 -0.8115  0.5807
   44CHL1  H21B 5716   1.190   0.374   9.065 -0.4117 -2.4738 -0.6902
   44CHL1  H21C 5717   1.219   0.416   9.232  0.7860 -0.7560  0.6469
   44CHL1   C22 5718   1.427   0.284   8.970 -0.6856  0.0184  0.0276
   44CHL1  H22A 5719   1.365   0.341   8.897 -1.1087  0.0629  0.4236
   44CHL1  H22B 5720   1.533   0.306   8.944  0.3565 -4.1159  0.0504
   44CHL1   C23 5721   1.399   0.140   8.949  0.1118 -0.5363 -0.0132
   44CHL1  H23A 5722   1.485   0.071   8.961 -1.0458 -1.8829  0.7656
   44CHL1  H23B 5723   1.315   0.116   9.017 -0.7136  1.4090 -0.2860
   44CHL1   C24 5724   1.362   0.122   8.800 -0.4424  0.5157  0.2206
   44CHL1  H24A 5725   1.275   0.178   8.760 -0.2445  0.0804 -0.8452
   44CHL1  H24B 5726   1.452   0.164   8.750 -0.0201  0.2148  0.7127
   44CHL1   C25 5727   1.347  -0.025   8.768 -0.1746  0.0156  0.5826
   44CHL1   H25 5728   1.437  -0.078   8.803 -0.3104  0.4010  1.5467
   44CHL1   C26 5729   1.223  -0.085   8.837  0.0420  0.5028 -0.4304
   44CHL1  H26A 5730   1.129  -0.034   8.806  0.0978 -0.0215 -1.5147
   44CHL1  H26B 5731   1.200  -0.188   8.799 -1.6637  0.9178 -0.6154
   44CHL1  H26C 5732   1.240  -0.089   8.946  2.4616  0.6982 -0.7583
   44CHL1   C27 5733   1.343  -0.051   8.613 -0.0741 -0.2396  0.2751
   44CHL1  H27A 5734   1.334  -0.157   8.582  0.1381 -0.3851  0.6970
   44CHL1  H27B 5735   1.248  -0.018   8.566 -0.0406 -1.7930 -0.9382
   44CHL1  H27C 5736   1.435  -0.006   8.570 -0.8463  1.5407  0.3724
   45CHL1    C3 5737   0.571   0.209  10.330 -0.8270  0.4946  0.1134
   45CHL1    H3 5738   0.617   0.306  10.356  0.7424 -0.2448  0.1879
   45CHL1    O3 5739   0.534   0.135  10.450 -0.0152 -0.2263 -0.0460
   45CHL1   H3' 5740   0.485   0.065  10.407  0.5887  0.0900 -1.3027
   45CHL1    C4 5741   0.439   0.224  10.252  0.5570  0.8695  0.6232
   45CHL1   H4A 5742   0.388   0.126  10.241 -1.1508  1.6379  1.2604
   45CHL1   H4B 5743   0.382   0.292  10.319  2.9886  1.7712  1.8750
   45CHL1    C5 5744   0.472   0.287  10.122 -0.2172  0.3878 -0.2634
   45CHL1    C6 5745   0.422   0.408  10.089  0.4277  0.3401  0.1966
   45CHL1    H6 5746   0.340   0.450  10.150 -0.2333 -0.1026 -0.3815
   45CHL1    C7 5747   0.436   0.481   9.960  0.3326 -0.5267  0.0335
   45CHL1   H7A 5748   0.341   0.528   9.926  1.1193  0.0533 -1.3879
   45CHL1   H7B 5749   0.512   0.560   9.974  1.6229 -1.8228  0.5456
   45CHL1    C8 5750   0.490   0.387   9.845  0.1211 -1.1099  0.1131
   45CHL1    H8 5751   0.538   0.453   9.769  0.5960 -2.2969 -0.6560
   45CHL1   C14 5752   0.377   0.323   9.762 -0.4243 -0.0234 -0.2010
   45CHL1   H14 5753   0.326   0.267   9.843  0.8915 -0.0080  0.6574
   45CHL1   C15 5754   0.275   0.422   9.702  1.1191 -0.1455 -0.2653
   45CHL1  H15A 5755   0.185   0.359   9.685  1.6502 -1.2565  0.8616
   45CHL1  H15B 5756   0.256   0.515   9.759  0.6361  0.2890 -1.1038
   45CHL1   C16 5757   0.335   0.448   9.564 -0.3269  0.4262  0.0435
   45CHL1  H16A 5758   0.255   0.430   9.490  0.3874 -2.6671 -0.1133
   45CHL1  H16B 5759   0.379   0.550   9.553 -1.1134  1.0497  2.1033
   45CHL1   C17 5760   0.436   0.333   9.533  0.5501  0.2184  0.4582
   45CHL1   H17 5761   0.535   0.383   9.546  0.4207  0.6310 -0.0862
   45CHL1   C13 5762   0.423   0.233   9.648 -0.1285  0.3442 -0.3818
   45CHL1   C18 5763   0.309   0.125   9.628  0.4721  0.0877 -0.5806
   45CHL1  H18A 5764   0.221   0.164   9.572  1.3862  0.4227 -1.8058
   45CHL1  H18B 5765   0.338   0.038   9.566 -0.5328  0.6326 -1.8582
   45CHL1  H18C 5766   0.270   0.078   9.721 -1.7107 -2.2451 -2.5344
   45CHL1   C12 5767   0.547   0.145   9.686  0.1367  0.2816  0.5326
   45CHL1  H12A 5768   0.521   0.050   9.738  0.5339 -0.4184 -0.5078
   45CHL1  H12B 5769   0.602   0.114   9.595  0.1067 -1.1242  0.9682
   45CHL1   C11 5770   0.655   0.215   9.776 -0.1436 -0.0815 -0.3524
   45CHL1  H11A 5771   0.741   0.150   9.804  0.6355  1.4824  1.0601
   45CHL1  H11B 5772   0.687   0.296   9.708 -1.5065 -0.6874 -1.7868
   45CHL1    C9 5773   0.600   0.289   9.904 -0.0861 -0.6677  0.2872
   45CHL1    H9 5774   0.672   0.359   9.951  0.3082 -2.7797  3.1258
   45CHL1   C10 5775   0.571   0.203  10.033  0.4508 -0.4250 -0.3187
   45CHL1   C19 5776   0.508   0.072   9.995  0.7880 -0.1663 -0.1147
   45CHL1  H19A 5777   0.589   0.010   9.950  1.3039  1.4103 -1.4402
   45CHL1  H19B 5778   0.456   0.021  10.080 -0.3314  0.3354 -0.4873
   45CHL1  H19C 5779   0.428   0.091   9.920 -0.6733  0.6603  1.5804
   45CHL1    C1 5780   0.702   0.181  10.113  0.2332 -0.2298  0.4760
   45CHL1   H1A 5781   0.764   0.107  10.056  0.6162  0.5905 -0.1939
   45CHL1   H1B 5782   0.756   0.277  10.123  0.3780 -0.4434  2.0318
   45CHL1    C2 5783   0.677   0.126  10.257  0.2532  0.2558 -1.3980
   45CHL1   H2A 5784   0.769   0.113  10.316  0.7272 -4.2595 -2.7817
   45CHL1   H2B 5785   0.637   0.022  10.250 -1.6013  0.5799  2.1044
   45CHL1   C20 5786   0.414   0.276   9.390 -0.1101  0.4198  0.4728
   45CHL1   H20 5787   0.317   0.223   9.385 -0.4514  1.1443 -1.9803
   45CHL1   C21 5788   0.523   0.172   9.343  0.1499  0.3519 -0.2171
   45CHL1  H21A 5789   0.627   0.213   9.340  0.2366  0.1350 -0.2406
   45CHL1  H21B 5790   0.497   0.135   9.241 -0.1405  0.0339 -0.0286
   45CHL1  H21C 5791   0.514   0.080   9.403 -1.1357 -0.0199 -0.9454
   45CHL1   C22 5792   0.402   0.372   9.267  0.5181 -0.4279  0.2345
   45CHL1  H22A 5793   0.400   0.324   9.166  2.2786 -0.9810  0.4167
   45CHL1  H22B 5794   0.310   0.433   9.272 -0.4354 -1.5788 -1.9390
   45CHL1   C23 5795   0.523   0.461   9.237 -0.0404  0.3701  0.1447
   45CHL1  H23A 5796   0.541   0.531   9.321  0.7911 -0.9883  1.1313
   45CHL1  H23B 5797   0.616   0.400   9.228  0.0541  0.4164  0.7852
   45CHL1   C24 5798   0.511   0.543   9.104  0.2452  0.5529  0.1486
   45CHL1  H24A 5799   0.611   0.591   9.089  1.7918 -1.9636  1.6820
   45CHL1  H24B 5800   0.494   0.457   9.036 -0.0323 -0.5942  1.6160
   45CHL1   C25 5801   0.392   0.640   9.098  0.4294 -0.2534 -0.2787
   45CHL1   H25 5802   0.297   0.583   9.091  0.3888 -0.2197 -0.0061
   45CHL1   C26 5803   0.385   0.744   9.208 -0.2204  0.3187  0.0253
   45CHL1  H26A 5804   0.351   0.686   9.296 -0.8458  0.6707  0.0189
   45CHL1  H26B 5805   0.492   0.771   9.222  0.5190 -2.4004  0.1420
   45CHL1  H26C 5806   0.314   0.828   9.191 -1.6532 -0.9800 -0.6343
   45CHL1   C27 5807   0.408   0.723   8.963 -0.0751  1.0363 -0.1895
   45CHL1  H27A 5808   0.410   0.648   8.881 -0.3857  0.7406  0.0694
   45CHL1  H27B 5809   0.323   0.791   8.943 -0.3750  0.2764 -1.6563
   45CHL1  H27C 5810   0.503   0.780   8.977 -0.7044  2.7236 -2.1711
   46CHL1    C3 5811   2.461   2.946   9.891 -0.5606  0.0033  0.2582
   46CHL1    H3 5812   2.505   2.845   9.874  0.7893  0.7139 -0.6796
   46CHL1    O3 5813   2.407   2.948  10.027  0.2102 -0.0080  0.7074
   46CHL1   H3' 5814   2.473   3.003  10.069 -0.9262  1.5857  0.5197
   46CHL1    C4 5815   2.585   3.045   9.880  0.1377 -0.4160 -0.5307
   46CHL1   H4A 5816   2.544   3.135   9.930 -0.6366 -0.1725 -1.5690
   46CHL1   H4B 5817   2.665   3.005   9.947  0.2000 -2.9340 -1.9789
   46CHL1    C5 5818   2.632   3.092   9.744  0.5487 -0.4241 -0.0517
   46CHL1    C6 5819   2.761   3.098   9.703 -0.5743 -0.4168  0.2991
   46CHL1    H6 5820   2.838   3.059   9.772 -0.8191 -1.3049  0.0704
   46CHL1    C7 5821   2.800   3.136   9.560 -0.1013  0.6016 -0.1129
   46CHL1   H7A 5822   2.894   3.195   9.567  0.7829 -0.2756 -3.0639
   46CHL1   H7B 5823   2.813   3.040   9.505 -1.8497  0.0989  0.2923
   46CHL1    C8 5824   2.690   3.218   9.480  0.1746  0.1689 -0.5952
   46CHL1    H8 5825   2.692   3.319   9.524  0.4834  0.8005 -1.9926
   46CHL1   C14 5826   2.724   3.232   9.327  0.9256 -0.3500  1.0419
   46CHL1   H14 5827   2.720   3.124   9.298 -0.9470 -0.3571  1.1994
   46CHL1   C15 5828   2.850   3.310   9.289 -0.1923 -0.0566 -1.0427
   46CHL1  H15A 5829   2.838   3.408   9.340 -2.2119 -0.6780 -0.2168
   46CHL1  H15B 5830   2.948   3.270   9.320 -0.2816  0.8932  0.6035
   46CHL1   C16 5831   2.833   3.328   9.141  0.4567  0.6278 -0.0849
   46CHL1  H16A 5832   2.866   3.430   9.114  1.9926  0.4755  1.0513
   46CHL1  H16B 5833   2.889   3.243   9.096 -1.7308 -0.6119 -0.6221
   46CHL1   C17 5834   2.684   3.296   9.109 -0.6445 -0.0069 -0.1119
   46CHL1   H17 5835   2.682   3.188   9.082 -0.7029  0.0713 -0.4259
   46CHL1   C13 5836   2.611   3.294   9.245 -0.6194  0.0617  0.5239
   46CHL1   C18 5837   2.577   3.440   9.283 -0.3290  0.7796  0.0101
   46CHL1  H18A 5838   2.491   3.466   9.218 -0.0907 -3.5468 -2.4200
   46CHL1  H18B 5839   2.543   3.455   9.388  0.8076 -0.2279  0.5407
   46CHL1  H18C 5840   2.667   3.504   9.273  0.6952 -0.6313 -0.0948
   46CHL1   C12 5841   2.487   3.207   9.257 -0.0231 -0.1138  0.2901
   46CHL1  H12A 5842   2.407   3.242   9.188 -0.1645  0.3892  0.7086
   46CHL1  H12B 5843   2.506   3.106   9.214 -0.1044 -0.5799  1.3156
   46CHL1   C11 5844   2.445   3.186   9.401  0.6167 -0.1287 -0.4387
   46CHL1  H11A 5845   2.411   3.287   9.431  0.1067  0.1927 -2.0121
   46CHL1  H11B 5846   2.358   3.118   9.397  0.4902 -0.0195  0.3678
   46CHL1    C9 5847   2.561   3.139   9.501  0.8149 -0.5406 -0.7712
   46CHL1    H9 5848   2.576   3.037   9.461 -1.0924 -1.6992  1.2999
   46CHL1   C10 5849   2.516   3.122   9.644 -0.4484  0.1142 -0.1450
   46CHL1   C19 5850   2.456   3.260   9.692 -0.3582  0.1144 -0.5899
   46CHL1  H19A 5851   2.445   3.268   9.802  0.7477 -0.3377 -0.4268
   46CHL1  H19B 5852   2.512   3.351   9.661 -2.0609  1.2041 -0.5801
   46CHL1  H19C 5853   2.359   3.266   9.639 -1.4870  0.8081  1.4686
   46CHL1    C1 5854   2.408   3.009   9.649 -0.3453 -0.3693  0.1622
   46CHL1   H1A 5855   2.327   3.063   9.596 -0.5885 -1.6995 -0.8667
   46CHL1   H1B 5856   2.426   2.916   9.591  0.6727 -0.1018  0.0182
   46CHL1    C2 5857   2.357   2.981   9.791  0.2504 -0.0623  0.4432
   46CHL1   H2A 5858   2.286   2.899   9.768  3.2607 -2.5469 -0.7777
   46CHL1   H2B 5859   2.295   3.065   9.828 -1.2111 -0.2197 -1.4668
   46CHL1   C20 5860   2.628   3.378   8.991 -0.5038  0.4147  0.0170
   46CHL1   H20 5861   2.572   3.468   9.025 -0.3776  0.4286  0.1922
   46CHL1   C21 5862   2.521   3.286   8.929  0.5401  0.3011 -0.4082
   46CHL1  H21A 5863   2.559   3.183   8.913  0.0017  0.2023 -1.0800
   46CHL1  H21B 5864   2.482   3.324   8.832  0.9574 -1.6161 -1.3817
   46CHL1  H21C 5865   2.438   3.275   9.002  1.1538 -0.6578  0.1733
   46CHL1   C22 5866   2.737   3.416   8.883 -0.1320 -0.7239  0.4483
   46CHL1  H22A 5867   2.809   3.493   8.918 -2.3370  1.7231 -0.1183
   46CHL1  H22B 5868   2.798   3.326   8.863  1.5388  0.6186 -0.7608
   46CHL1   C23 5869   2.681   3.469   8.752  0.1194  0.2523 -0.0182
   46CHL1  H23A 5870   2.635   3.385   8.696 -0.5010  0.1120  0.6843
   46CHL1  H23B 5871   2.601   3.542   8.777 -0.3633 -0.3692  0.2963
   46CHL1   C24 5872   2.783   3.537   8.664 -0.5072 -0.2180 -0.1115
   46CHL1  H24A 5873   2.814   3.636   8.704 -1.5724 -0.2830  0.9285
   46CHL1  H24B 5874   2.869   3.467   8.649  0.1309  0.6458 -0.6032
   46CHL1   C25 5875   2.724   3.568   8.525 -0.0808  0.4634 -0.4603
   46CHL1   H25 5876   2.672   3.477   8.490  0.9348 -1.7260  3.1535
   46CHL1   C26 5877   2.617   3.680   8.541  0.0559 -0.6613 -0.7544
   46CHL1  H26A 5878   2.663   3.772   8.583 -2.9042 -0.0591  1.4533
   46CHL1  H26B 5879   2.578   3.706   8.440 -1.0403  2.4625  0.3646
   46CHL1  H26C 5880   2.537   3.655   8.614  1.1415  0.0444  0.7200
   46CHL1   C27 5881   2.826   3.610   8.422 -0.4514  0.2827 -0.0663
   46CHL1  H27A 5882   2.895   3.524   8.409 -0.3861  0.2735  0.3300
   46CHL1  H27B 5883   2.792   3.630   8.319  1.3029  1.7840 -0.4133
   46CHL1  H27C 5884   2.889   3.691   8.465 -0.0265 -0.1081  0.0625
   47CHL1    C3 5885   3.481   1.999  10.183  1.0593 -0.3961 -0.2804
   47CHL1    H3 5886   3.428   2.094  10.164  3.0073  0.8864  0.3182
   47CHL1    O3 5887   3.517   2.000  10.319  1.0096  0.3997 -0.2509
   47CHL1   H3' 5888   3.557   1.915  10.336  0.4040  0.4669  1.7497
   47CHL1    C4 5889   3.384   1.880  10.148  0.1792 -0.4215  0.6069
   47CHL1   H4A 5890   3.436   1.785  10.173  2.6304  1.0399  1.3905
   47CHL1   H4B 5891   3.296   1.881  10.215 -0.8463 -2.2664 -0.6256
   47CHL1    C5 5892   3.348   1.877  10.002  0.5309 -0.3703 -0.3816
   47CHL1    C6 5893   3.217   1.878   9.965 -0.2165 -0.1787 -0.3716
   47CHL1    H6 5894   3.139   1.896  10.041  0.0700  0.0433 -0.1266
   47CHL1    C7 5895   3.168   1.872   9.822  0.3740  0.1989  0.0294
   47CHL1   H7A 5896   3.093   1.793   9.801 -0.5972  0.8482  0.9048
   47CHL1   H7B 5897   3.125   1.972   9.798  1.5016  0.5025 -0.8275
   47CHL1    C8 5898   3.289   1.842   9.715 -0.0887  0.4387 -0.4488
   47CHL1    H8 5899   3.293   1.732   9.727 -0.0452  0.3398 -1.3608
   47CHL1   C14 5900   3.245   1.876   9.573 -0.1009 -0.7999 -0.3147
   47CHL1   H14 5901   3.250   1.987   9.570 -0.4979 -0.7619 -4.2510
   47CHL1   C15 5902   3.105   1.842   9.521 -0.4656 -0.1298 -0.7967
   47CHL1  H15A 5903   3.087   1.738   9.555  4.0539 -0.2481  2.1203
   47CHL1  H15B 5904   3.032   1.918   9.559 -0.2533  0.0633 -0.7710
   47CHL1   C16 5905   3.123   1.844   9.367 -0.4420  0.0217  0.1977
   47CHL1  H16A 5906   3.092   1.742   9.335 -0.0126 -0.2965  0.7848
   47CHL1  H16B 5907   3.050   1.901   9.305  0.0685 -1.0151 -1.4227
   47CHL1   C17 5908   3.273   1.875   9.335 -0.2429 -0.3783  0.4683
   47CHL1   H17 5909   3.282   1.985   9.323  1.7085 -0.7274 -1.9922
   47CHL1   C13 5910   3.354   1.835   9.471  0.1641  0.0984  0.3083
   47CHL1   C18 5911   3.361   1.676   9.469  0.5521  0.4758 -0.7155
   47CHL1  H18A 5912   3.448   1.645   9.406 -1.1349 -2.2954 -1.8579
   47CHL1  H18B 5913   3.391   1.635   9.568  2.9649  2.0064 -0.7267
   47CHL1  H18C 5914   3.261   1.642   9.435  0.4713 -0.4495  0.3777
   47CHL1   C12 5915   3.479   1.906   9.507 -0.3185 -0.0704 -0.7267
   47CHL1  H12A 5916   3.556   1.873   9.433 -0.0193  0.3978 -0.6251
   47CHL1  H12B 5917   3.474   2.016   9.491 -0.5780 -0.1117 -0.9313
   47CHL1   C11 5918   3.531   1.874   9.648  0.3440 -0.0364  0.2044
   47CHL1  H11A 5919   3.566   1.768   9.649  0.2830 -0.0556  1.4632
   47CHL1  H11B 5920   3.625   1.933   9.652 -0.5082  1.4233 -0.4060
   47CHL1    C9 5921   3.423   1.895   9.754 -0.4089 -0.9027 -0.1763
   47CHL1    H9 5922   3.417   2.006   9.745  1.4159 -0.6342  1.3239
   47CHL1   C10 5923   3.460   1.875   9.902  0.6828 -0.1389 -0.5457
   47CHL1   C19 5924   3.533   1.740   9.924  1.2963 -0.1148 -0.2299
   47CHL1  H19A 5925   3.562   1.727  10.030  1.9822  4.3979  0.3087
   47CHL1  H19B 5926   3.476   1.652   9.886  0.0743  0.2428  0.7218
   47CHL1  H19C 5927   3.628   1.757   9.869  1.0904 -0.5123 -0.7296
   47CHL1    C1 5928   3.555   1.988   9.944 -1.1152 -0.6200  0.2311
   47CHL1   H1A 5929   3.638   1.975   9.871 -1.6036 -2.5444 -0.0513
   47CHL1   H1B 5930   3.513   2.086   9.913 -2.3740 -1.6889 -1.6011
   47CHL1    C2 5931   3.600   1.991  10.087 -0.7498  0.9088  0.2153
   47CHL1   H2A 5932   3.667   2.079  10.098  0.7735 -0.4411  2.7908
   47CHL1   H2B 5933   3.664   1.906  10.119  0.9783  1.9494 -0.3177
   47CHL1   C20 5934   3.329   1.831   9.193 -0.0792  0.1637 -0.5381
   47CHL1   H20 5935   3.353   1.724   9.209 -1.5493  0.1164  1.9727
   47CHL1   C21 5936   3.464   1.902   9.162  0.3733 -0.3263 -1.1832
   47CHL1  H21A 5937   3.461   2.003   9.209  0.3218 -0.0922 -1.6851
   47CHL1  H21B 5938   3.484   1.914   9.054  1.2204 -1.7033 -1.2038
   47CHL1  H21C 5939   3.547   1.846   9.210 -0.6435 -0.5984  0.3533
   47CHL1   C22 5940   3.230   1.839   9.074  0.0930  0.4241  0.4552
   47CHL1  H22A 5941   3.280   1.796   8.985 -0.0250  3.7488 -1.3751
   47CHL1  H22B 5942   3.134   1.786   9.092 -0.6339  1.1005 -1.1339
   47CHL1   C23 5943   3.199   1.986   9.035 -0.2578  0.1526  0.4533
   47CHL1  H23A 5944   3.136   2.023   9.119 -0.0948 -1.7824  1.4673
   47CHL1  H23B 5945   3.297   2.034   9.010  0.4904 -0.6334  1.7808
   47CHL1   C24 5946   3.107   2.004   8.916 -0.5358 -0.5455  1.4145
   47CHL1  H24A 5947   3.156   1.973   8.821 -1.8440  1.3864  0.0200
   47CHL1  H24B 5948   3.023   1.935   8.938 -1.1443  0.5740  2.7908
   47CHL1   C25 5949   3.059   2.149   8.903  0.2187 -0.5369 -0.5367
   47CHL1   H25 5950   3.047   2.197   9.002  0.5065  0.6090 -1.0381
   47CHL1   C26 5951   3.148   2.250   8.830  0.5227 -0.2284 -0.3553
   47CHL1  H26A 5952   3.119   2.356   8.846 -1.3691 -0.9543  1.2920
   47CHL1  H26B 5953   3.137   2.233   8.721 -0.3335 -0.4450 -0.2372
   47CHL1  H26C 5954   3.253   2.243   8.867  0.6533  0.3591 -0.6048
   47CHL1   C27 5955   2.925   2.136   8.820 -0.0969 -0.5733  0.3260
   47CHL1  H27A 5956   2.899   2.239   8.785 -1.1574 -0.4769  1.3379
   47CHL1  H27B 5957   2.925   2.080   8.724 -1.7315  1.1889 -0.7863
   47CHL1  H27C 5958   2.835   2.101   8.875 -3.2014 -0.2920 -4.0110
   48CHL1    C3 5959   4.455   1.301  10.047  0.5819  0.5437  0.8512
   48CHL1    H3 5960   4.449   1.190  10.042  0.3955  0.5471  1.0219
   48CHL1    O3 5961   4.476   1.343  10.181 -0.3738 -0.5135  0.2451
   48CHL1   H3' 5962   4.481   1.438  10.166  0.2418 -0.4186  0.9812
   48CHL1    C4 5963   4.570   1.339   9.951 -0.5086 -0.2863  1.2398
   48CHL1   H4A 5964   4.590   1.449   9.957  0.1170 -0.2886 -0.4231
   48CHL1   H4B 5965   4.662   1.299   9.998  0.3366 -0.3009 -0.3620
   48CHL1    C5 5966   4.556   1.300   9.807  0.0472  0.4680  0.1964
   48CHL1    C6 5967   4.645   1.235   9.734 -0.4599  0.1086  0.4240
   48CHL1    H6 5968   4.743   1.220   9.782  0.4277  0.8450 -1.0744
   48CHL1    C7 5969   4.629   1.187   9.587  0.7316  0.3883 -0.3507
   48CHL1   H7A 5970   4.726   1.207   9.537  0.4881 -0.0558 -1.0178
   48CHL1   H7B 5971   4.613   1.077   9.593 -0.0894  0.5637  0.9705
   48CHL1    C8 5972   4.515   1.259   9.522  0.3996  0.4953  0.0887
   48CHL1    H8 5973   4.546   1.363   9.503 -0.6938  0.9260  0.5534
   48CHL1   C14 5974   4.487   1.176   9.397 -0.8124  0.3121 -0.5721
   48CHL1   H14 5975   4.465   1.078   9.444  4.3997 -0.8503  0.1118
   48CHL1   C15 5976   4.599   1.164   9.297  0.9700  0.0340  0.0139
   48CHL1  H15A 5977   4.639   1.266   9.282  2.2171 -0.8051 -3.4836
   48CHL1  H15B 5978   4.679   1.086   9.304 -0.0492 -1.0983 -0.4429
   48CHL1   C16 5979   4.520   1.127   9.165 -0.6570  0.0477  0.1144
   48CHL1  H16A 5980   4.570   1.180   9.081  1.2981  0.6867  1.5822
   48CHL1  H16B 5981   4.547   1.020   9.152 -0.6100 -0.1672  1.7741
   48CHL1   C17 5982   4.370   1.135   9.195  0.0636  0.0299 -0.6360
   48CHL1   H17 5983   4.341   1.034   9.231  0.8260 -0.8253 -2.3452
   48CHL1   C13 5984   4.360   1.221   9.325 -0.7645 -0.3514  0.4709
   48CHL1   C18 5985   4.361   1.363   9.284 -0.2154 -0.1257 -0.1065
   48CHL1  H18A 5986   4.256   1.391   9.262 -0.1213  2.4296  2.0694
   48CHL1  H18B 5987   4.388   1.431   9.368  0.5768  0.8240 -1.1004
   48CHL1  H18C 5988   4.436   1.377   9.203 -0.0216 -0.7203 -0.0379
   48CHL1   C12 5989   4.252   1.188   9.422 -0.2238 -0.1640  0.5499
   48CHL1  H12A 5990   4.150   1.204   9.381 -0.3824 -0.5296  0.7951
   48CHL1  H12B 5991   4.249   1.079   9.445  1.5210 -0.6527 -1.2850
   48CHL1   C11 5992   4.262   1.269   9.556 -0.0003  0.0003 -0.0501
   48CHL1  H11A 5993   4.224   1.372   9.541  0.2414 -0.0367 -0.9632
   48CHL1  H11B 5994   4.185   1.233   9.628  1.2246 -1.1339  0.7332
   48CHL1    C9 5995   4.396   1.249   9.620 -0.4110  0.2407 -0.0542
   48CHL1    H9 5996   4.398   1.143   9.654  2.8787  0.5972  1.2235
   48CHL1   C10 5997   4.416   1.333   9.747  0.0086  0.1048 -0.0473
   48CHL1   C19 5998   4.406   1.485   9.708  1.3719 -0.0618 -0.0432
   48CHL1  H19A 5999   4.472   1.507   9.621  0.6628 -0.5906 -0.7375
   48CHL1  H19B 6000   4.303   1.523   9.694  1.1334 -0.4140  0.6974
   48CHL1  H19C 6001   4.445   1.545   9.793 -0.3355  1.6866 -0.4159
   48CHL1    C1 6002   4.305   1.303   9.850 -0.6771 -1.0137  0.4562
   48CHL1   H1A 6003   4.216   1.353   9.807 -0.3336 -0.4352  0.4125
   48CHL1   H1B 6004   4.291   1.194   9.835 -0.3927 -0.5752 -4.3764
   48CHL1    C2 6005   4.327   1.360   9.995  0.2317 -0.5630  0.4731
   48CHL1   H2A 6006   4.236   1.336  10.053 -1.1739  2.2370 -0.3711
   48CHL1   H2B 6007   4.325   1.471  10.000 -2.0614 -0.5267  0.0246
   48CHL1   C20 6008   4.287   1.160   9.066 -0.0124 -0.0800 -0.7154
   48CHL1   H20 6009   4.318   1.260   9.030  2.8362 -1.1055 -1.4033
   48CHL1   C21 6010   4.139   1.154   9.095  0.1167  0.0043 -0.4582
   48CHL1  H21A 6011   4.113   1.048   9.118 -1.9584  0.0130 -2.3302
   48CHL1  H21B 6012   4.075   1.188   9.010 -1.1100  0.7362  0.7250
   48CHL1  H21C 6013   4.102   1.208   9.185 -0.0812 -0.8651 -0.0056
   48CHL1   C22 6014   4.321   1.068   8.944  0.0645 -0.0952 -0.4781
   48CHL1  H22A 6015   4.431   1.051   8.939  0.1396  0.6437 -1.5817
   48CHL1  H22B 6016   4.255   0.979   8.952 -1.3989  0.9543 -0.5231
   48CHL1   C23 6017   4.282   1.130   8.807 -0.1496  0.2482 -0.7093
   48CHL1  H23A 6018   4.172   1.121   8.790 -0.2738 -0.4983  0.3773
   48CHL1  H23B 6019   4.306   1.238   8.811  3.5944 -0.4581 -0.3625
   48CHL1   C24 6020   4.358   1.064   8.693  0.1415 -0.6852 -0.2878
   48CHL1  H24A 6021   4.468   1.080   8.690  0.2537 -1.5666 -1.6160
   48CHL1  H24B 6022   4.351   0.954   8.696  2.0360 -0.8894 -1.6695
   48CHL1   C25 6023   4.302   1.097   8.544  0.4838 -0.2417 -0.1287
   48CHL1   H25 6024   4.337   1.197   8.512  0.6638 -0.6776 -1.3303
   48CHL1   C26 6025   4.368   1.004   8.440  0.3210 -0.2243 -0.2807
   48CHL1  H26A 6026   4.328   0.902   8.457 -0.8471  0.7428  4.1728
   48CHL1  H26B 6027   4.354   1.038   8.335  0.2865  0.7593  0.0322
   48CHL1  H26C 6028   4.474   0.988   8.471  0.8701  4.3193  1.0183
   48CHL1   C27 6029   4.144   1.090   8.532 -0.1133 -0.5999  0.2273
   48CHL1  H27A 6030   4.120   0.993   8.580 -1.6088 -0.4650 -0.1941
   48CHL1  H27B 6031   4.095   1.179   8.579 -0.6230  1.1069 -3.2145
   48CHL1  H27C 6032   4.133   1.089   8.422  1.4804  2.3262 -0.0554
   49CHL1    C3 6033   2.583   6.636   9.950 -0.1300 -0.2563 -0.0046
   49CHL1    H3 6034   2.655   6.557   9.921  3.7130  2.8045  0.2434
   49CHL1    O3 6035   2.589   6.666  10.086  0.4879  0.4484 -0.2695
   49CHL1   H3' 6036   2.535   6.744  10.099  2.8163  1.8651  1.6355
   49CHL1    C4 6037   2.640   6.758   9.877 -0.1276 -0.0126  0.0477
   49CHL1   H4A 6038   2.611   6.856   9.920  0.3817 -0.1277  0.6754
   49CHL1   H4B 6039   2.749   6.740   9.892 -0.0275 -2.5297 -2.8139
   49CHL1    C5 6040   2.626   6.754   9.729 -0.3261 -0.1571  0.5497
   49CHL1    C6 6041   2.728   6.779   9.642  0.0672  0.5825  0.5153
   49CHL1    H6 6042   2.830   6.801   9.679  0.3530  0.2717 -0.0745
   49CHL1    C7 6043   2.721   6.767   9.490 -0.2275 -0.1977 -0.2500
   49CHL1   H7A 6044   2.784   6.847   9.446 -1.3320  0.6479 -0.3636
   49CHL1   H7B 6045   2.769   6.672   9.459 -1.0628 -0.7791  0.2025
   49CHL1    C8 6046   2.569   6.760   9.442 -0.0640 -0.8566  0.5157
   49CHL1    H8 6047   2.527   6.862   9.451  0.7766 -0.3370 -1.0338
   49CHL1   C14 6048   2.560   6.723   9.294  0.3089 -0.6178  0.1031
   49CHL1   H14 6049   2.591   6.616   9.288 -0.7343 -0.9529  0.5401
   49CHL1   C15 6050   2.654   6.786   9.191 -0.0934 -0.3322  0.3182
   49CHL1  H15A 6051   2.664   6.896   9.205 -0.4584 -0.3322  0.5893
   49CHL1  H15B 6052   2.754   6.739   9.194 -0.4550 -1.1663 -0.2403
   49CHL1   C16 6053   2.589   6.757   9.053 -0.8538  0.1296  0.2914
   49CHL1  H16A 6054   2.604   6.843   8.985 -2.6223  2.8860  3.0822
   49CHL1  H16B 6055   2.637   6.666   9.012  0.9074 -0.2149  2.9095
   49CHL1   C17 6056   2.451   6.704   9.077  1.3804  0.4281  0.4975
   49CHL1   H17 6057   2.455   6.593   9.075  0.4235  0.0285  5.5326
   49CHL1   C13 6058   2.420   6.724   9.232 -0.1514 -0.5583 -0.5751
   49CHL1   C18 6059   2.358   6.857   9.248 -0.6310  0.1431 -0.6016
   49CHL1  H18A 6060   2.338   6.888   9.353  0.0105  0.9029 -0.6864
   49CHL1  H18B 6061   2.430   6.935   9.213  1.2084 -1.5355 -0.7006
   49CHL1  H18C 6062   2.263   6.862   9.191 -1.6789  1.3609  1.1446
   49CHL1   C12 6063   2.336   6.618   9.308  0.2293 -0.5068  0.1864
   49CHL1  H12A 6064   2.231   6.632   9.277  1.2114  2.3586 -2.4312
   49CHL1  H12B 6065   2.379   6.524   9.269  0.3846  0.6831 -2.8161
   49CHL1   C11 6066   2.353   6.631   9.463 -0.0807 -0.2206  0.1103
   49CHL1  H11A 6067   2.285   6.715   9.488  0.8668  0.2249  1.2816
   49CHL1  H11B 6068   2.306   6.534   9.492 -1.5808  0.5371  0.3128
   49CHL1    C9 6069   2.487   6.663   9.528 -0.2187  0.3027  0.9569
   49CHL1    H9 6070   2.544   6.568   9.520  0.2706  0.7459 -2.4806
   49CHL1   C10 6071   2.481   6.707   9.676 -0.4359 -0.5148 -1.0383
   49CHL1   C19 6072   2.387   6.825   9.698  0.3758  0.4555  0.0163
   49CHL1  H19A 6073   2.382   6.868   9.800 -3.0992  1.2250 -0.3473
   49CHL1  H19B 6074   2.396   6.901   9.617  0.5456  0.0265 -0.3746
   49CHL1  H19C 6075   2.280   6.797   9.695  0.6260 -0.5041 -0.9283
   49CHL1    C1 6076   2.427   6.585   9.760  0.3308  0.2212 -0.3915
   49CHL1   H1A 6077   2.323   6.564   9.728  0.5640 -0.8226 -0.5012
   49CHL1   H1B 6078   2.492   6.500   9.730 -2.2146 -2.0307  0.0754
   49CHL1    C2 6079   2.442   6.608   9.912  0.0807 -0.6438  0.2595
   49CHL1   H2A 6080   2.399   6.519   9.964  0.0269  0.1897  1.7045
   49CHL1   H2B 6081   2.376   6.693   9.940  0.3881 -0.2945 -0.0780
   49CHL1   C20 6082   2.349   6.750   8.969  0.4857 -0.1683 -0.5852
   49CHL1   H20 6083   2.329   6.859   8.980  1.7029 -0.1560  2.2114
   49CHL1   C21 6084   2.213   6.669   8.985 -0.0648 -0.0788 -0.2508
   49CHL1  H21A 6085   2.159   6.699   9.077 -0.1524 -1.3030  0.1197
   49CHL1  H21B 6086   2.245   6.563   8.999 -0.3331  0.0129  1.2339
   49CHL1  H21C 6087   2.137   6.686   8.905 -2.3995  2.0870  2.2404
   49CHL1   C22 6088   2.410   6.737   8.825  0.2592 -0.3565  1.0061
   49CHL1  H22A 6089   2.510   6.785   8.823 -0.8348  2.0860  1.2926
   49CHL1  H22B 6090   2.410   6.629   8.797 -1.8221 -0.2542  0.4577
   49CHL1   C23 6091   2.332   6.816   8.718  0.2663 -0.2148 -0.4203
   49CHL1  H23A 6092   2.228   6.779   8.717 -0.4248  1.5014  1.4757
   49CHL1  H23B 6093   2.331   6.921   8.755  4.1449  0.2025 -1.1037
   49CHL1   C24 6094   2.397   6.808   8.579  0.0909  0.8032 -0.6337
   49CHL1  H24A 6095   2.474   6.886   8.561 -0.8978  2.2278  0.9978
   49CHL1  H24B 6096   2.420   6.704   8.547 -1.0511  0.1674  0.4987
   49CHL1   C25 6097   2.309   6.857   8.466 -0.6433 -0.1141  0.2412
   49CHL1   H25 6098   2.383   6.858   8.383 -0.2668 -2.5652  0.4848
   49CHL1   C26 6099   2.203   6.761   8.425  0.0049  0.0982 -0.5072
   49CHL1  H26A 6100   2.254   6.670   8.388 -0.5074 -0.5136  0.2600
   49CHL1  H26B 6101   2.144   6.729   8.514 -0.7632  0.5933 -0.8270
   49CHL1  H26C 6102   2.133   6.799   8.347 -1.1142 -0.4453  0.2040
   49CHL1   C27 6103   2.253   7.000   8.492 -0.2418 -0.2490  0.4490
   49CHL1  H27A 6104   2.326   7.082   8.480  1.7650 -1.7749  1.6116
   49CHL1  H27B 6105   2.171   7.027   8.422 -3.2536 -1.9480  3.0106
   49CHL1  H27C 6106   2.207   7.000   8.594  1.6435 -0.1201  1.3531
   50CHL1    C3 6107   6.504   1.398  10.122 -0.6161  0.3909  0.1137
   50CHL1    H3 6108   6.476   1.295  10.152 -0.2922  0.3385  0.2392
   50CHL1    O3 6109   6.559   1.471  10.235 -0.7805 -0.5029 -0.0066
   50CHL1   H3' 6110   6.641   1.426  10.259 -0.0525  0.4703 -0.5827
   50CHL1    C4 6111   6.618   1.383  10.013 -0.4928 -0.5319 -0.7484
   50CHL1   H4A 6112   6.654   1.485   9.988 -2.3060  0.4284  0.3152
   50CHL1   H4B 6113   6.706   1.328  10.053 -0.0699 -0.4427 -1.5313
   50CHL1    C5 6114   6.564   1.318   9.885  0.2675  0.8457 -0.2698
   50CHL1    C6 6115   6.629   1.213   9.833 -0.2906 -0.5814 -0.9138
   50CHL1    H6 6116   6.726   1.184   9.875  0.8535  1.0895 -2.2109
   50CHL1    C7 6117   6.586   1.137   9.717 -0.7040 -0.0738  0.6507
   50CHL1   H7A 6118   6.677   1.114   9.657 -0.5604 -0.7361  1.0998
   50CHL1   H7B 6119   6.545   1.039   9.748 -0.5491 -0.0966  0.7839
   50CHL1    C8 6120   6.486   1.212   9.633 -0.3601 -0.9900  0.3033
   50CHL1    H8 6121   6.543   1.296   9.588  1.1921 -2.1615 -0.0180
   50CHL1   C14 6122   6.437   1.121   9.516  0.7266 -0.5997  0.8312
   50CHL1   H14 6123   6.382   1.036   9.562 -0.9105  0.9332  1.8227
   50CHL1   C15 6124   6.536   1.066   9.416 -0.1042 -0.0653  0.1929
   50CHL1  H15A 6125   6.609   1.149   9.401  0.3840 -0.6640 -0.8011
   50CHL1  H15B 6126   6.593   0.981   9.458  1.4625  1.5298  1.4704
   50CHL1   C16 6127   6.457   1.040   9.288  0.9615 -0.0041  0.7364
   50CHL1  H16A 6128   6.490   1.113   9.210 -0.8463 -0.5174 -0.5789
   50CHL1  H16B 6129   6.464   0.939   9.241 -3.3069 -0.4413  0.6343
   50CHL1   C17 6130   6.312   1.086   9.319  0.5802 -0.0014  0.4744
   50CHL1   H17 6131   6.259   1.002   9.369 -0.9843  1.7870  1.9861
   50CHL1   C13 6132   6.333   1.191   9.432  0.7674  0.3376  0.0035
   50CHL1   C18 6133   6.380   1.322   9.372 -0.5250 -0.1956  0.4252
   50CHL1  H18A 6134   6.290   1.373   9.333 -0.0801 -0.3908 -0.8986
   50CHL1  H18B 6135   6.434   1.376   9.453 -3.4158  2.1140  0.9575
   50CHL1  H18C 6136   6.454   1.310   9.290 -2.9436  2.8568 -2.4989
   50CHL1   C12 6137   6.207   1.218   9.528 -0.1979 -0.0681 -0.2038
   50CHL1  H12A 6138   6.124   1.267   9.473 -1.2790 -1.1027  0.4470
   50CHL1  H12B 6139   6.165   1.121   9.563 -1.3645  0.4468 -0.1138
   50CHL1   C11 6140   6.253   1.317   9.643  0.3793  0.3524 -0.7555
   50CHL1  H11A 6141   6.282   1.417   9.605  3.1605  0.3362  0.9987
   50CHL1  H11B 6142   6.169   1.328   9.714  0.8958 -0.6629  0.0384
   50CHL1    C9 6143   6.377   1.273   9.723  0.0934  0.6034 -0.0544
   50CHL1    H9 6144   6.336   1.181   9.770  0.5311  0.6248  0.3833
   50CHL1   C10 6145   6.427   1.367   9.829 -1.8171 -0.1551 -0.1635
   50CHL1   C19 6146   6.453   1.508   9.763 -0.1770 -0.8741  0.1052
   50CHL1  H19A 6147   6.489   1.512   9.657 -4.9629 -0.0255 -1.7362
   50CHL1  H19B 6148   6.362   1.570   9.755 -0.3885 -1.3371 -1.4653
   50CHL1  H19C 6149   6.528   1.562   9.824 -0.5619 -0.5048  0.2534
   50CHL1    C1 6150   6.328   1.374   9.948 -0.3038  0.3907 -0.1441
   50CHL1   H1A 6151   6.236   1.424   9.909  0.0847  0.4906 -0.9662
   50CHL1   H1B 6152   6.313   1.272   9.988  1.6458  0.7473  1.6716
   50CHL1    C2 6153   6.378   1.463  10.065  0.2670 -0.2554  0.4102
   50CHL1   H2A 6154   6.294   1.475  10.137 -0.0895  1.0285 -0.1846
   50CHL1   H2B 6155   6.400   1.568  10.035 -1.1742 -0.5072 -1.6926
   50CHL1   C20 6156   6.233   1.127   9.191  0.1361  0.3214 -0.0110
   50CHL1   H20 6157   6.281   1.215   9.143 -0.7359  0.7000 -0.2153
   50CHL1   C21 6158   6.091   1.176   9.225 -0.3387  0.2304 -0.0508
   50CHL1  H21A 6159   6.108   1.276   9.270  2.3966 -0.4926  0.6981
   50CHL1  H21B 6160   6.036   1.116   9.301 -1.3926  1.5576  0.2720
   50CHL1  H21C 6161   6.034   1.202   9.134 -0.3991  0.8544  0.1608
   50CHL1   C22 6162   6.217   1.013   9.091  0.2082  0.5939  0.0320
   50CHL1  H22A 6163   6.309   0.951   9.096  0.8692  1.5998  0.5610
   50CHL1  H22B 6164   6.132   0.942   9.104 -0.3851  0.8566 -2.0411
   50CHL1   C23 6165   6.202   1.068   8.946  0.5809 -0.3638 -0.3275
   50CHL1  H23A 6166   6.112   1.131   8.930 -2.1923 -3.6134  1.0745
   50CHL1  H23B 6167   6.293   1.122   8.911 -0.2693 -0.0417 -2.1528
   50CHL1   C24 6168   6.191   0.951   8.840  0.3730  0.1680  0.7623
   50CHL1  H24A 6169   6.284   0.891   8.849  2.1494  2.9136  2.2207
   50CHL1  H24B 6170   6.101   0.889   8.858 -0.7075  1.8095  1.1951
   50CHL1   C25 6171   6.187   0.996   8.688  0.1952  0.2233 -0.7527
   50CHL1   H25 6172   6.204   0.903   8.630  0.7306 -0.0076 -0.2295
   50CHL1   C26 6173   6.050   1.044   8.649  0.1944  0.1071 -0.5784
   50CHL1  H26A 6174   5.972   0.966   8.663 -1.0262  1.3186 -0.4833
   50CHL1  H26B 6175   6.028   1.129   8.717  1.1900  0.8493 -1.1608
   50CHL1  H26C 6176   6.049   1.069   8.541 -1.2030  1.5578 -0.2693
   50CHL1   C27 6177   6.297   1.098   8.648  0.2752  0.9634  0.4904
   50CHL1  H27A 6178   6.335   1.080   8.545 -1.5897  0.9512 -0.2333
   50CHL1  H27B 6179   6.258   1.201   8.663 -0.3882  0.9153 -0.7503
   50CHL1  H27C 6180   6.390   1.087   8.708  1.1443 -1.0553 -1.0978
   51CHL1    C3 6181   0.346   1.959  10.064  0.4361  0.0513 -0.2025
   51CHL1    H3 6182   0.282   1.870  10.082  0.3610  0.3678  1.2254
   51CHL1    O3 6183   0.398   1.998  10.187 -0.0522 -0.1758 -0.1983
   51CHL1   H3' 6184   0.417   2.092  10.186  2.2009 -0.5861 -0.7108
   51CHL1    C4 6185   0.461   1.912   9.974 -0.7359 -0.6838 -0.5577
   51CHL1   H4A 6186   0.530   1.999   9.973 -1.0405 -0.4392 -0.4478
   51CHL1   H4B 6187   0.503   1.831  10.036  1.6906  1.3144  0.6054
   51CHL1    C5 6188   0.432   1.862   9.838  0.7967  0.3147 -0.6126
   51CHL1    C6 6189   0.464   1.738   9.807 -0.4039 -0.0745  0.2133
   51CHL1    H6 6190   0.522   1.676   9.877 -0.2013  0.1631  0.2534
   51CHL1    C7 6191   0.423   1.679   9.672 -0.8012 -0.2956  0.9485
   51CHL1   H7A 6192   0.513   1.632   9.627  0.8182  0.3230  3.3133
   51CHL1   H7B 6193   0.344   1.604   9.691 -2.2678  1.0434  0.3514
   51CHL1    C8 6194   0.377   1.786   9.573 -0.3510  0.0615 -0.0151
   51CHL1    H8 6195   0.458   1.858   9.549 -2.6917  3.3894  1.1723
   51CHL1   C14 6196   0.317   1.729   9.454 -0.6879 -0.2283  0.2010
   51CHL1   H14 6197   0.229   1.673   9.495 -1.2082  1.8331  2.0811
   51CHL1   C15 6198   0.417   1.635   9.377 -0.0454 -0.2609 -0.3528
   51CHL1  H15A 6199   0.516   1.686   9.371 -1.0630  1.7204 -1.8086
   51CHL1  H15B 6200   0.427   1.541   9.435 -2.7453  0.9601  2.3578
   51CHL1   C16 6201   0.361   1.621   9.239  0.0857 -0.1835  0.6025
   51CHL1  H16A 6202   0.444   1.640   9.168  0.9033 -0.8040  1.3688
   51CHL1  H16B 6203   0.317   1.523   9.212 -2.4376  1.1615 -0.5805
   51CHL1   C17 6204   0.234   1.718   9.230  0.1708 -0.1575  0.3257
   51CHL1   H17 6205   0.151   1.655   9.267  1.3409 -2.3642 -0.6053
   51CHL1   C13 6206   0.255   1.821   9.347 -0.1974 -0.3755 -0.4949
   51CHL1   C18 6207   0.363   1.929   9.309  0.0628  0.5544 -0.8378
   51CHL1  H18A 6208   0.457   1.877   9.280 -0.0646 -0.9202  1.2062
   51CHL1  H18B 6209   0.317   1.997   9.234  0.4307  1.5229 -0.2060
   51CHL1  H18C 6210   0.394   1.981   9.402 -1.5022 -2.1913  1.3361
   51CHL1   C12 6211   0.138   1.883   9.415  0.4358  0.9371  0.7141
   51CHL1  H12A 6212   0.102   1.960   9.344 -1.4094  0.1132  0.6739
   51CHL1  H12B 6213   0.046   1.822   9.429 -0.7181  2.6086  0.6773
   51CHL1   C11 6214   0.170   1.955   9.544 -0.4559  0.5302 -0.3140
   51CHL1  H11A 6215   0.222   2.046   9.506 -1.3570 -0.0174 -3.0833
   51CHL1  H11B 6216   0.082   1.978   9.609 -0.3915 -2.0761  0.7971
   51CHL1    C9 6217   0.265   1.873   9.639 -0.1796  0.5319  0.2505
   51CHL1    H9 6218   0.202   1.792   9.681  0.3540 -0.4932 -0.8597
   51CHL1   C10 6219   0.329   1.954   9.757  0.5891  0.5249 -0.6063
   51CHL1   C19 6220   0.403   2.074   9.706  0.1080 -0.2275 -0.7724
   51CHL1  H19A 6221   0.480   2.035   9.637  1.1456  1.8059 -0.8290
   51CHL1  H19B 6222   0.339   2.139   9.643  1.2454 -0.6995 -2.4790
   51CHL1  H19C 6223   0.453   2.138   9.783 -1.0640 -0.0577 -0.1199
   51CHL1    C1 6224   0.216   2.008   9.851  0.3784 -0.5619  1.3513
   51CHL1   H1A 6225   0.169   2.087   9.788 -2.6699 -3.0715  0.1644
   51CHL1   H1B 6226   0.138   1.933   9.875 -4.1145  2.3273 -2.3096
   51CHL1    C2 6227   0.266   2.069   9.985 -0.2487  0.9908 -0.0812
   51CHL1   H2A 6228   0.181   2.113  10.042 -3.2024 -3.2478 -0.6495
   51CHL1   H2B 6229   0.338   2.152   9.968  3.0044 -1.5718  0.2372
   51CHL1   C20 6230   0.217   1.767   9.090  0.0961  0.0593 -0.2863
   51CHL1   H20 6231   0.295   1.845   9.074 -0.5860  1.0520  1.0097
   51CHL1   C21 6232   0.087   1.854   9.080  0.2411  0.1122  0.1276
   51CHL1  H21A 6233   0.108   1.956   9.120 -0.7912  0.6247 -0.5731
   51CHL1  H21B 6234   0.010   1.815   9.149  2.0600 -3.7471  0.2175
   51CHL1  H21C 6235   0.047   1.864   8.977  0.8562 -0.8705 -0.2213
   51CHL1   C22 6236   0.222   1.662   8.986 -0.1608  0.0829  0.2143
   51CHL1  H22A 6237   0.315   1.604   9.003 -1.1906 -1.4785  0.7382
   51CHL1  H22B 6238   0.150   1.577   8.989  2.4493 -2.2951  0.2339
   51CHL1   C23 6239   0.220   1.719   8.841 -0.0803  0.6589 -0.3147
   51CHL1  H23A 6240   0.117   1.753   8.819 -0.8811 -1.4210 -0.0577
   51CHL1  H23B 6241   0.285   1.809   8.836  1.6444 -0.3588  1.8050
   51CHL1   C24 6242   0.250   1.610   8.723  0.4522 -0.4347  0.4912
   51CHL1  H24A 6243   0.340   1.563   8.769  0.9359  0.7652  0.8042
   51CHL1  H24B 6244   0.160   1.549   8.701 -0.2447  0.6239  0.3910
   51CHL1   C25 6245   0.296   1.667   8.586 -0.5826  0.3005  0.2317
   51CHL1   H25 6246   0.222   1.730   8.533  0.4322 -0.7843 -2.6365
   51CHL1   C26 6247   0.425   1.745   8.600  0.0411  0.2034 -0.4605
   51CHL1  H26A 6248   0.405   1.834   8.663 -2.1117  0.7804 -1.8543
   51CHL1  H26B 6249   0.511   1.685   8.635 -0.7913 -0.8766 -0.2105
   51CHL1  H26C 6250   0.450   1.780   8.497 -1.0482 -1.6903 -1.4335
   51CHL1   C27 6251   0.344   1.551   8.497 -0.5410 -0.6153 -0.2634
   51CHL1  H27A 6252   0.413   1.593   8.421  1.8268  0.7826  2.4512
   51CHL1  H27B 6253   0.383   1.472   8.565  0.3047  0.8231  1.0061
   51CHL1  H27C 6254   0.264   1.502   8.438 -0.5519 -0.8324 -0.0730
   52CHL1    C3 6255   4.032   0.491  10.176 -0.0469 -0.7412  0.2041
   52CHL1    H3 6256   3.970   0.553  10.245 -0.4954  2.1294 -2.5745
   52CHL1    O3 6257   4.148   0.452  10.243  0.2799 -0.0324 -0.2451
   52CHL1   H3' 6258   4.208   0.523  10.266  0.8428 -0.6571  0.2782
   52CHL1    C4 6259   3.946   0.375  10.133  0.2037 -0.2082  0.6458
   52CHL1   H4A 6260   3.994   0.290  10.079  0.7541 -0.1854  1.0813
   52CHL1   H4B 6261   3.914   0.334  10.231  2.0127  0.5922  1.6443
   52CHL1    C5 6262   3.827   0.419  10.053  0.6540  0.5192  0.5664
   52CHL1    C6 6263   3.702   0.385  10.091 -0.5023 -0.4698 -0.1451
   52CHL1    H6 6264   3.677   0.322  10.177 -0.4370  0.5524  0.6369
   52CHL1    C7 6265   3.580   0.422  10.015  0.3376  0.5297  0.2909
   52CHL1   H7A 6266   3.506   0.341   9.999 -1.7811  1.8972  2.6181
   52CHL1   H7B 6267   3.520   0.491  10.078 -1.1671  0.5083 -1.0388
   52CHL1    C8 6268   3.603   0.493   9.879 -0.6119 -0.2054 -0.2918
   52CHL1    H8 6269   3.625   0.421   9.796  0.3636  0.7031 -0.8487
   52CHL1   C14 6270   3.480   0.582   9.842 -0.5904  0.0825  0.1814
   52CHL1   H14 6271   3.470   0.662   9.918 -3.0050 -0.4265  0.4762
   52CHL1   C15 6272   3.332   0.519   9.846 -0.4391 -0.3171  0.1803
   52CHL1  H15A 6273   3.332   0.432   9.777  0.4011  0.3961 -0.7406
   52CHL1  H15B 6274   3.280   0.508   9.944 -2.1607 -0.3901 -0.7083
   52CHL1   C16 6275   3.251   0.625   9.767 -0.6043  0.4213 -0.5506
   52CHL1  H16A 6276   3.179   0.574   9.700 -1.3695 -0.6172  1.0241
   52CHL1  H16B 6277   3.182   0.670   9.841  0.6835 -2.1891  2.4405
   52CHL1   C17 6278   3.349   0.738   9.709 -0.1585 -0.5121  0.2385
   52CHL1   H17 6279   3.360   0.819   9.784  0.1616  0.1690 -0.5394
   52CHL1   C13 6280   3.482   0.659   9.708  0.3207 -0.0479  0.0359
   52CHL1   C18 6281   3.491   0.560   9.586  0.4507 -0.7927 -0.1588
   52CHL1  H18A 6282   3.395   0.506   9.570  1.0453 -1.4709 -1.5270
   52CHL1  H18B 6283   3.511   0.613   9.491  0.5606 -1.1133 -0.3144
   52CHL1  H18C 6284   3.567   0.482   9.607  0.9853 -0.0351  0.8539
   52CHL1   C12 6285   3.614   0.746   9.715  0.1269 -0.2758  0.3131
   52CHL1  H12A 6286   3.622   0.789   9.612 -1.3431  2.1117  1.1200
   52CHL1  H12B 6287   3.607   0.829   9.789 -0.5123  0.1367 -0.1902
   52CHL1   C11 6288   3.741   0.658   9.745 -0.1647 -0.2351 -0.2901
   52CHL1  H11A 6289   3.756   0.589   9.659 -0.0026 -0.4919 -0.0557
   52CHL1  H11B 6290   3.832   0.722   9.738 -1.2351  1.1834 -2.5804
   52CHL1    C9 6291   3.731   0.582   9.881 -0.4209  0.3002 -0.0601
   52CHL1    H9 6292   3.708   0.661   9.957  2.6175  1.9018 -0.6630
   52CHL1   C10 6293   3.856   0.508   9.933  0.2934  0.0478  0.7018
   52CHL1   C19 6294   3.932   0.430   9.830  0.0650 -0.3671 -0.4606
   52CHL1  H19A 6295   4.030   0.398   9.872  0.4451  1.4157  0.1088
   52CHL1  H19B 6296   3.879   0.334   9.814 -0.0324 -1.0806  3.1966
   52CHL1  H19C 6297   3.947   0.483   9.734 -1.1287 -0.0314 -0.4677
   52CHL1    C1 6298   3.942   0.624   9.982 -1.0320 -0.3435  0.0870
   52CHL1   H1A 6299   3.978   0.691   9.901  1.5855 -1.2018  0.4512
   52CHL1   H1B 6300   3.879   0.685  10.051  0.8276 -2.4029  3.9142
   52CHL1    C2 6301   4.071   0.579  10.057  0.2669 -0.1369 -0.3651
   52CHL1   H2A 6302   4.113   0.674  10.098  0.6916  0.2474 -1.6426
   52CHL1   H2B 6303   4.143   0.539   9.983 -0.0742  1.3821 -1.5698
   52CHL1   C20 6304   3.327   0.805   9.573 -0.3751 -0.2707 -0.0496
   52CHL1   H20 6305   3.419   0.813   9.511  0.2793 -1.2332  0.7593
   52CHL1   C21 6306   3.286   0.946   9.617  0.3420 -0.3790 -0.0246
   52CHL1  H21A 6307   3.376   0.997   9.659 -1.0021  0.8430  1.5397
   52CHL1  H21B 6308   3.206   0.934   9.692  0.4527  0.0276  0.1610
   52CHL1  H21C 6309   3.246   1.023   9.548 -0.9010  1.2347  2.3383
   52CHL1   C22 6310   3.225   0.737   9.483 -0.1366  0.0115  0.1663
   52CHL1  H22A 6311   3.249   0.632   9.455  0.3323 -0.4856  2.2657
   52CHL1  H22B 6312   3.124   0.734   9.529 -0.5660 -0.1173 -0.7472
   52CHL1   C23 6313   3.195   0.813   9.347 -0.2002  0.3865  0.0395
   52CHL1  H23A 6314   3.127   0.758   9.278  0.7881 -0.6150 -0.1745
   52CHL1  H23B 6315   3.138   0.900   9.386  0.2455  1.5219 -1.7154
   52CHL1   C24 6316   3.306   0.868   9.270 -0.4797  0.8866 -0.1049
   52CHL1  H24A 6317   3.375   0.923   9.338  1.3299 -0.3210 -0.8902
   52CHL1  H24B 6318   3.363   0.782   9.228  0.8576  1.2244  0.9501
   52CHL1   C25 6319   3.262   0.946   9.153 -0.1342 -0.4793  0.7148
   52CHL1   H25 6320   3.186   0.885   9.100  1.2366 -3.5050  2.0370
   52CHL1   C26 6321   3.201   1.084   9.197 -0.7782  0.0277  0.6122
   52CHL1  H26A 6322   3.170   1.146   9.110 -0.5110  0.8872  1.1229
   52CHL1  H26B 6323   3.111   1.072   9.262 -0.2116  0.2783  1.4516
   52CHL1  H26C 6324   3.277   1.142   9.253  1.2956  0.2976 -2.2837
   52CHL1   C27 6325   3.363   0.972   9.038  0.0068 -0.0528  0.2636
   52CHL1  H27A 6326   3.314   1.051   8.977  2.4070  0.1694 -1.5305
   52CHL1  H27B 6327   3.455   1.018   9.080 -0.6752 -0.8102  2.7497
   52CHL1  H27C 6328   3.388   0.878   8.984 -0.0661  1.0095 -1.7019
   53CHL1    C3 6329   5.195   1.293  10.023 -0.7425  0.5275  0.4406
   53CHL1    H3 6330   5.108   1.362  10.010 -1.7671 -0.8079  0.0271
   53CHL1    O3 6331   5.224   1.264  10.159 -0.1622 -0.4126  0.4670
   53CHL1   H3' 6332   5.140   1.228  10.188 -0.6170 -1.0670 -1.4690
   53CHL1    C4 6333   5.161   1.158   9.950  0.7710  0.1648 -0.2052
   53CHL1   H4A 6334   5.242   1.087   9.977  0.7817  0.7792  1.4937
   53CHL1   H4B 6335   5.070   1.111   9.995  1.5129 -1.6829 -0.5544
   53CHL1    C5 6336   5.155   1.172   9.796  0.5425 -0.0639  0.2228
   53CHL1    C6 6337   5.047   1.118   9.731 -0.8340 -1.0106 -0.1128
   53CHL1    H6 6338   4.975   1.059   9.789  0.9056 -3.4255 -0.2301
   53CHL1    C7 6339   5.023   1.132   9.581  0.3056 -0.2065 -0.1948
   53CHL1   H7A 6340   4.992   1.038   9.530  0.6502  0.3771 -1.5379
   53CHL1   H7B 6341   4.937   1.201   9.565  0.1921  0.3002  2.2592
   53CHL1    C8 6342   5.144   1.189   9.507 -0.3026  0.5324  0.0400
   53CHL1    H8 6343   5.216   1.105   9.503  0.8208  1.4779 -0.3018
   53CHL1   C14 6344   5.106   1.240   9.366  0.1292  0.8129 -0.3842
   53CHL1   H14 6345   5.044   1.331   9.382 -0.2150  0.6188 -0.5895
   53CHL1   C15 6346   5.030   1.149   9.270 -0.5908  0.8020 -0.3320
   53CHL1  H15A 6347   5.078   1.050   9.279  1.6264  1.7855 -0.5505
   53CHL1  H15B 6348   4.924   1.152   9.305 -0.4367  1.3716  0.1051
   53CHL1   C16 6349   5.055   1.204   9.124 -0.4088 -0.2156  0.2548
   53CHL1  H16A 6350   5.092   1.119   9.063  0.5118  0.6461 -0.4233
   53CHL1  H16B 6351   4.965   1.260   9.089 -1.7072 -0.9222  2.2757
   53CHL1   C17 6352   5.172   1.312   9.149  0.0500  0.4095 -0.1269
   53CHL1   H17 6353   5.117   1.405   9.176 -2.6717 -1.7157  2.2635
   53CHL1   C13 6354   5.229   1.281   9.288 -0.7283  0.1725 -0.1096
   53CHL1   C18 6355   5.337   1.171   9.278  0.2212 -0.6671  0.3074
   53CHL1  H18A 6356   5.301   1.076   9.232 -0.7525 -0.3813  0.4613
   53CHL1  H18B 6357   5.427   1.203   9.222  2.6550 -1.3721  3.5059
   53CHL1  H18C 6358   5.380   1.134   9.373  1.9146  0.5317  0.0345
   53CHL1   C12 6359   5.300   1.399   9.361  0.4844 -0.6011  0.1894
   53CHL1  H12A 6360   5.387   1.441   9.306  0.5197  0.5211  1.0765
   53CHL1  H12B 6361   5.221   1.477   9.356 -0.5352 -1.6340 -0.4935
   53CHL1   C11 6362   5.334   1.368   9.508 -0.1417  0.3417 -0.0652
   53CHL1  H11A 6363   5.427   1.308   9.516 -0.9734 -1.0148 -0.2437
   53CHL1  H11B 6364   5.363   1.461   9.563 -0.1943 -1.8855  4.1545
   53CHL1    C9 6365   5.218   1.297   9.589 -0.1310  0.0166 -0.0976
   53CHL1    H9 6366   5.149   1.383   9.601  1.9319  1.4340  2.9093
   53CHL1   C10 6367   5.265   1.253   9.729 -0.9823  0.8322  0.1433
   53CHL1   C19 6368   5.396   1.167   9.719  0.3081  0.1248 -0.2126
   53CHL1  H19A 6369   5.398   1.090   9.640  2.5647 -0.9030  0.7590
   53CHL1  H19B 6370   5.485   1.230   9.700 -0.1947  1.7052  2.1643
   53CHL1  H19C 6371   5.411   1.117   9.817 -3.0032  0.6969  0.7396
   53CHL1    C1 6372   5.293   1.386   9.813 -0.7098  0.2345  0.3718
   53CHL1   H1A 6373   5.389   1.430   9.778 -0.6438 -0.5238 -0.4402
   53CHL1   H1B 6374   5.210   1.459   9.797 -0.8238 -0.0590 -0.4329
   53CHL1    C2 6375   5.314   1.363   9.956 -0.3257  0.2725  0.0855
   53CHL1   H2A 6376   5.328   1.456  10.015  1.0162 -0.2619  0.6545
   53CHL1   H2B 6377   5.408   1.304   9.965 -1.5689 -1.5134  2.4663
   53CHL1   C20 6378   5.266   1.345   9.032  0.3770  0.6764 -0.3088
   53CHL1   H20 6379   5.356   1.400   9.067 -1.3991  2.7119  1.4610
   53CHL1   C21 6380   5.192   1.445   8.942 -0.1357 -0.4268  1.2700
   53CHL1  H21A 6381   5.153   1.539   8.988 -1.9559 -0.3809 -0.2149
   53CHL1  H21B 6382   5.106   1.392   8.895  0.0612  2.0335 -2.3127
   53CHL1  H21C 6383   5.259   1.468   8.856  0.6142  1.6368  2.3256
   53CHL1   C22 6384   5.297   1.222   8.949  1.1416  0.9102  0.9314
   53CHL1  H22A 6385   5.308   1.131   9.012 -1.4650 -2.6026 -3.1582
   53CHL1  H22B 6386   5.213   1.198   8.881  3.0281 -0.6519 -0.9928
   53CHL1   C23 6387   5.425   1.216   8.869  0.1033 -0.2307 -0.4589
   53CHL1  H23A 6388   5.417   1.141   8.787  0.1323  1.1603 -1.7683
   53CHL1  H23B 6389   5.448   1.316   8.827  0.1918 -0.3781 -0.7612
   53CHL1   C24 6390   5.539   1.163   8.957 -0.2638  0.6595  1.0727
   53CHL1  H24A 6391   5.563   1.234   9.039 -0.2124  0.9217  0.8307
   53CHL1  H24B 6392   5.523   1.070   9.016 -1.0769  0.6444  0.8409
   53CHL1   C25 6393   5.663   1.140   8.879  1.0338 -0.9677  0.3566
   53CHL1   H25 6394   5.637   1.090   8.784  0.0584  2.2895 -1.2277
   53CHL1   C26 6395   5.718   1.279   8.838  0.6918  0.2797  0.1046
   53CHL1  H26A 6396   5.815   1.266   8.786  3.7853  1.8631  4.7731
   53CHL1  H26B 6397   5.653   1.336   8.768  1.2202 -0.2264 -0.8183
   53CHL1  H26C 6398   5.745   1.332   8.932 -1.4762  1.6844  0.0101
   53CHL1   C27 6399   5.772   1.064   8.950  0.9212  0.1452  0.1108
   53CHL1  H27A 6400   5.859   1.057   8.881  1.1718  2.6128  0.1074
   53CHL1  H27B 6401   5.821   1.113   9.036 -0.0035 -1.9177  1.8945
   53CHL1  H27C 6402   5.735   0.967   8.990 -0.4048 -0.7129 -2.8820
   54CHL1    C3 6403   0.455   3.566  10.219 -0.3278  0.3070 -0.4515
   54CHL1    H3 6404   0.430   3.460  10.198 -0.0378  0.5662 -2.2910
   54CHL1    O3 6405   0.485   3.594  10.349 -0.0693 -0.1268 -0.5058
   54CHL1   H3' 6406   0.401   3.603  10.393  1.3803 -1.1965  2.8124
   54CHL1    C4 6407   0.573   3.613  10.138 -0.0439  0.0881 -0.1623
   54CHL1   H4A 6408   0.609   3.713  10.168  1.3382 -0.2708 -0.5338
   54CHL1   H4B 6409   0.655   3.542  10.163 -0.9077 -1.8794 -2.5072
   54CHL1    C5 6410   0.557   3.616   9.988  0.4495 -0.4195 -0.6416
   54CHL1    C6 6411   0.637   3.555   9.903  0.1258 -0.1331 -0.1565
   54CHL1    H6 6412   0.717   3.489   9.939 -0.5766  0.1363  2.0186
   54CHL1    C7 6413   0.615   3.567   9.753 -0.2433 -0.2596 -0.1193
   54CHL1   H7A 6414   0.712   3.573   9.699 -0.6884 -3.6597 -1.5416
   54CHL1   H7B 6415   0.567   3.471   9.727  1.8291 -1.1766 -0.7564
   54CHL1    C8 6416   0.523   3.674   9.712  0.0777 -0.3961  0.4809
   54CHL1    H8 6417   0.570   3.774   9.722 -3.7734  1.8786 -1.7400
   54CHL1   C14 6418   0.487   3.661   9.565 -0.1490  0.2812 -0.1745
   54CHL1   H14 6419   0.432   3.564   9.562 -2.4246  1.4379  1.2712
   54CHL1   C15 6420   0.614   3.639   9.470  0.7517 -0.1508  0.7353
   54CHL1  H15A 6421   0.703   3.701   9.496  0.1204  0.3915  1.6592
   54CHL1  H15B 6422   0.648   3.533   9.466 -0.5939 -0.5810  0.0677
   54CHL1   C16 6423   0.554   3.678   9.331  0.3734 -0.2713  0.8537
   54CHL1  H16A 6424   0.601   3.766   9.283 -0.8909 -0.3123 -0.5502
   54CHL1  H16B 6425   0.567   3.591   9.264 -0.8852  1.1824 -1.4098
   54CHL1   C17 6426   0.403   3.717   9.356 -0.1749  0.3083  0.1258
   54CHL1   H17 6427   0.353   3.618   9.348 -0.9017  0.8004 -2.2512
   54CHL1   C13 6428   0.394   3.755   9.505  0.1037  0.0449  0.1057
   54CHL1   C18 6429   0.447   3.898   9.514  0.5551 -0.4106  0.1702
   54CHL1  H18A 6430   0.369   3.972   9.486 -2.5762 -3.2826  0.7226
   54CHL1  H18B 6431   0.491   3.930   9.611 -0.2371  1.4297 -0.0347
   54CHL1  H18C 6432   0.533   3.915   9.445 -0.2244  1.1302 -0.4715
   54CHL1   C12 6433   0.263   3.749   9.584 -0.9906 -0.6334 -0.1387
   54CHL1  H12A 6434   0.195   3.830   9.549  0.9608  1.7479  1.2137
   54CHL1  H12B 6435   0.215   3.649   9.581  0.0811 -1.1728  0.2816
   54CHL1   C11 6436   0.284   3.777   9.734 -0.3300  0.6986  0.5071
   54CHL1  H11A 6437   0.303   3.883   9.761  0.8679  0.7860 -0.6125
   54CHL1  H11B 6438   0.186   3.758   9.783  0.3364 -0.7388  1.3186
   54CHL1    C9 6439   0.397   3.681   9.797  0.2198 -0.7232  0.6211
   54CHL1    H9 6440   0.341   3.585   9.784 -1.8479  0.6429 -1.3722
   54CHL1   C10 6441   0.432   3.700   9.948 -0.6978  0.3783  0.7322
   54CHL1   C19 6442   0.474   3.847   9.977  0.7849 -0.6834  0.4544
   54CHL1  H19A 6443   0.487   3.854  10.087 -0.4427 -1.0262  0.6296
   54CHL1  H19B 6444   0.564   3.892   9.930 -0.9599  1.0178 -1.4592
   54CHL1  H19C 6445   0.382   3.907   9.963  0.5891 -0.9581  0.5789
   54CHL1    C1 6446   0.304   3.662  10.038  0.6411  0.5865  0.2789
   54CHL1   H1A 6447   0.216   3.725  10.013 -0.6050 -0.4689  1.8913
   54CHL1   H1B 6448   0.277   3.559  10.009 -1.5977  1.5849 -1.5130
   54CHL1    C2 6449   0.329   3.654  10.186 -0.6076  0.5398 -0.6121
   54CHL1   H2A 6450   0.238   3.605  10.225 -0.0814 -2.3789 -2.7441
   54CHL1   H2B 6451   0.332   3.755  10.232 -1.2472 -0.9225  2.9771
   54CHL1   C20 6452   0.343   3.823   9.251  0.0661 -0.1693  0.1555
   54CHL1   H20 6453   0.389   3.921   9.278  2.3311 -1.6839  2.2571
   54CHL1   C21 6454   0.187   3.820   9.271  1.3130 -0.2433  0.2805
   54CHL1  H21A 6455   0.153   3.716   9.291 -0.3867  0.0399 -0.9039
   54CHL1  H21B 6456   0.134   3.867   9.185 -1.1144 -1.0979  1.2157
   54CHL1  H21C 6457   0.154   3.884   9.355  0.5414  0.3709 -0.4649
   54CHL1   C22 6458   0.376   3.793   9.102  0.6299 -0.4120  0.2179
   54CHL1  H22A 6459   0.347   3.881   9.040  0.3162 -1.8226 -1.7223
   54CHL1  H22B 6460   0.487   3.795   9.091  0.5150 -1.5857 -1.3594
   54CHL1   C23 6461   0.317   3.658   9.050  0.4442  0.1096 -0.3572
   54CHL1  H23A 6462   0.356   3.584   9.123 -1.5615 -1.8053 -1.0896
   54CHL1  H23B 6463   0.207   3.657   9.061  0.4283  0.0337 -0.5125
   54CHL1   C24 6464   0.353   3.622   8.903  0.3275  0.5945 -0.6807
   54CHL1  H24A 6465   0.327   3.702   8.830  1.8517  1.3423 -0.4551
   54CHL1  H24B 6466   0.463   3.614   8.885  0.2763 -0.8392 -0.4663
   54CHL1   C25 6467   0.284   3.494   8.860 -0.1664  0.3943 -0.8818
   54CHL1   H25 6468   0.175   3.515   8.869 -0.1525  0.1045  0.0395
   54CHL1   C26 6469   0.320   3.466   8.716  0.0314 -0.4103 -0.4076
   54CHL1  H26A 6470   0.279   3.370   8.679 -1.4951  0.8393 -2.1324
   54CHL1  H26B 6471   0.281   3.545   8.649  1.8678 -0.5443 -1.7057
   54CHL1  H26C 6472   0.430   3.469   8.704 -0.0757 -2.1897 -2.3163
   54CHL1   C27 6473   0.312   3.371   8.945  0.1331 -0.5964 -0.4364
   54CHL1  H27A 6474   0.271   3.382   9.048  0.4530  0.7883 -0.4386
   54CHL1  H27B 6475   0.247   3.293   8.898 -0.4417  0.3816 -1.3082
   54CHL1  H27C 6476   0.419   3.345   8.954  0.3665  0.5557  0.4032
   55CHL1    C3 6477   5.998   0.994  10.092  0.6415  0.7458  0.8139
   55CHL1    H3 6478   6.038   0.892  10.114  1.0453  0.7051 -0.0436
   55CHL1    O3 6479   6.038   1.063  10.199 -0.3775  0.3660  0.0299
   55CHL1   H3' 6480   5.967   1.061  10.264  1.6934  0.4227  2.4478
   55CHL1    C4 6481   6.070   1.050   9.967 -0.0709 -0.5001 -0.5499
   55CHL1   H4A 6482   6.042   1.155   9.948  1.9722  0.1354 -0.3291
   55CHL1   H4B 6483   6.180   1.059   9.985  0.1007 -1.7088 -0.8509
   55CHL1    C5 6484   6.039   0.968   9.846 -0.0365 -0.5230  0.0822
   55CHL1    C6 6485   6.137   0.913   9.778 -0.7056 -0.2083  0.1723
   55CHL1    H6 6486   6.238   0.939   9.813 -0.9171 -0.6156  1.1313
   55CHL1    C7 6487   6.111   0.857   9.647 -0.4083  0.2965 -0.5002
   55CHL1   H7A 6488   6.188   0.899   9.579  1.1809  1.4325  1.8854
   55CHL1   H7B 6489   6.131   0.748   9.654  0.1866  0.4048 -0.4897
   55CHL1    C8 6490   5.967   0.882   9.591 -0.6770 -0.2129  0.8030
   55CHL1    H8 6491   5.942   0.985   9.557 -1.4699 -1.0239 -1.2685
   55CHL1   C14 6492   5.939   0.786   9.479 -0.2806  0.4335 -0.5714
   55CHL1   H14 6493   5.941   0.687   9.529 -0.9772  0.4776 -0.4504
   55CHL1   C15 6494   6.043   0.768   9.365 -0.7005 -0.1754  0.5495
   55CHL1  H15A 6495   6.059   0.867   9.316 -3.4242  0.2890  0.4628
   55CHL1  H15B 6496   6.138   0.718   9.394  0.8096  1.5071 -1.2239
   55CHL1   C16 6497   5.964   0.696   9.255  0.2914  0.8528  0.6872
   55CHL1  H16A 6498   5.963   0.755   9.161 -0.8501 -0.7419 -0.3633
   55CHL1  H16B 6499   6.006   0.596   9.230  0.0469  1.1243 -0.9344
   55CHL1   C17 6500   5.817   0.693   9.306 -0.3738  0.6359 -0.4907
   55CHL1   H17 6501   5.804   0.600   9.364  0.7323  0.7872  0.0178
   55CHL1   C13 6502   5.800   0.799   9.416 -0.0676 -0.4310 -0.4280
   55CHL1   C18 6503   5.777   0.936   9.343 -0.7397  0.1600 -0.2009
   55CHL1  H18A 6504   5.674   0.934   9.301 -1.0036 -0.8336  0.4589
   55CHL1  H18B 6505   5.782   1.014   9.421 -1.0560 -0.4112  0.3987
   55CHL1  H18C 6506   5.851   0.960   9.263  0.4190  1.4531  1.2100
   55CHL1   C12 6507   5.692   0.775   9.523 -0.9484  0.1996 -0.1338
   55CHL1  H12A 6508   5.589   0.799   9.490 -2.3410 -2.9627  1.4923
   55CHL1  H12B 6509   5.693   0.665   9.533 -3.0863  0.2350  1.0046
   55CHL1   C11 6510   5.713   0.864   9.651  0.6213  0.6532 -0.1959
   55CHL1  H11A 6511   5.690   0.968   9.621  1.0143  0.7136 -0.2932
   55CHL1  H11B 6512   5.646   0.821   9.728  2.0309  0.8797  1.1919
   55CHL1    C9 6513   5.861   0.858   9.703 -1.2022  0.4756  0.1375
   55CHL1    H9 6514   5.875   0.751   9.730  0.4315  0.6211 -0.0004
   55CHL1   C10 6515   5.886   0.956   9.823  0.5128 -0.4119 -0.0339
   55CHL1   C19 6516   5.821   1.095   9.787 -0.3627 -0.3903  0.6760
   55CHL1  H19A 6517   5.857   1.171   9.859 -0.2418 -0.6116  0.8528
   55CHL1  H19B 6518   5.861   1.124   9.688  0.6799 -0.5969  1.0278
   55CHL1  H19C 6519   5.710   1.087   9.784 -0.6034  1.4150 -3.9147
   55CHL1    C1 6520   5.814   0.901   9.947 -0.3468 -0.2399 -0.5232
   55CHL1   H1A 6521   5.704   0.893   9.929 -0.3946 -2.3499  0.3818
   55CHL1   H1B 6522   5.856   0.800   9.966  0.4810  0.4987  1.9839
   55CHL1    C2 6523   5.845   0.996  10.075 -0.3712 -0.0687  0.3823
   55CHL1   H2A 6524   5.785   0.963  10.162 -1.5304  1.7843  0.3268
   55CHL1   H2B 6525   5.813   1.100  10.053 -0.1808 -0.4860 -2.2516
   55CHL1   C20 6526   5.711   0.688   9.195  0.2846 -0.2721 -1.0205
   55CHL1   H20 6527   5.688   0.792   9.163  0.6721  0.2565  0.3288
   55CHL1   C21 6528   5.572   0.654   9.257  0.5153  0.5842 -0.0343
   55CHL1  H21A 6529   5.501   0.643   9.172  1.6148  1.6924 -1.1494
   55CHL1  H21B 6530   5.541   0.748   9.307  1.9680 -0.4000  2.9237
   55CHL1  H21C 6531   5.563   0.565   9.322  2.0503 -0.2060 -0.8291
   55CHL1   C22 6532   5.751   0.604   9.074  0.2480 -1.1733  0.2144
   55CHL1  H22A 6533   5.856   0.628   9.049 -0.3436 -0.5246 -1.8462
   55CHL1  H22B 6534   5.744   0.496   9.099  0.4857 -1.2415 -0.0077
   55CHL1   C23 6535   5.669   0.638   8.950  0.2380  0.0983  0.0013
   55CHL1  H23A 6536   5.602   0.551   8.937 -1.9490  1.6496  0.3504
   55CHL1  H23B 6537   5.608   0.728   8.975 -0.1122 -0.0102 -0.4377
   55CHL1   C24 6538   5.737   0.688   8.819 -0.0232 -0.1570 -0.0991
   55CHL1  H24A 6539   5.786   0.782   8.851 -0.4772 -0.5600  1.9435
   55CHL1  H24B 6540   5.808   0.608   8.790  0.7075  0.2350  0.5776
   55CHL1   C25 6541   5.639   0.724   8.703 -0.5495 -0.3130 -0.9728
   55CHL1   H25 6542   5.561   0.790   8.746  1.0015 -0.2383  2.0280
   55CHL1   C26 6543   5.705   0.812   8.597 -0.2012  0.8119 -0.0893
   55CHL1  H26A 6544   5.737   0.910   8.639  1.0325  0.6830 -0.6819
   55CHL1  H26B 6545   5.801   0.764   8.568 -0.0814  0.9045  0.1556
   55CHL1  H26C 6546   5.642   0.829   8.507  0.8605 -2.7193 -1.6967
   55CHL1   C27 6547   5.589   0.598   8.633 -0.1663 -0.4484  0.8619
   55CHL1  H27A 6548   5.527   0.527   8.691 -2.2671  0.8169  0.2806
   55CHL1  H27B 6549   5.525   0.640   8.553 -0.2786  0.1813  1.2772
   55CHL1  H27C 6550   5.675   0.542   8.590 -0.7360 -1.6450  1.2422
   56CHL1    C3 6551   2.990   4.047  10.009  0.1319  0.4371 -0.5688
   56CHL1    H3 6552   2.958   4.149   9.977 -2.3315 -0.1312 -0.1463
   56CHL1    O3 6553   2.916   4.012  10.123  0.2153 -0.6556 -0.0155
   56CHL1   H3' 6554   2.830   4.053  10.108  1.4331  1.7825 -0.9486
   56CHL1    C4 6555   2.958   3.956   9.896  0.0323  0.6617  0.1053
   56CHL1   H4A 6556   2.988   3.853   9.925 -0.5180  0.7849  1.1744
   56CHL1   H4B 6557   2.850   3.945   9.869 -0.1075 -0.9130  1.1502
   56CHL1    C5 6558   3.036   4.006   9.775 -0.2358 -0.2800  0.5727
   56CHL1    C6 6559   2.965   4.030   9.657 -0.4243  0.6829 -0.0923
   56CHL1    H6 6560   2.856   4.021   9.649 -0.2689 -1.4873 -0.3887
   56CHL1    C7 6561   3.035   4.064   9.528  0.1746  0.9399  0.0259
   56CHL1   H7A 6562   2.996   3.996   9.450 -2.2005  0.8022  1.2234
   56CHL1   H7B 6563   3.009   4.163   9.485 -0.9949  0.4165 -0.5221
   56CHL1    C8 6564   3.189   4.054   9.536 -0.3504  0.4386  0.0662
   56CHL1    H8 6565   3.217   3.947   9.521  1.3743  1.0629 -1.6850
   56CHL1   C14 6566   3.253   4.145   9.435 -0.1991  0.7589  0.4412
   56CHL1   H14 6567   3.226   4.250   9.460  0.2725  0.8880  0.4101
   56CHL1   C15 6568   3.213   4.118   9.286  0.5004 -0.0355  0.5874
   56CHL1  H15A 6569   3.207   4.011   9.260 -0.6935  0.3839 -1.0138
   56CHL1  H15B 6570   3.119   4.162   9.245  0.7542  0.0399  0.0705
   56CHL1   C16 6571   3.334   4.189   9.207  0.3967  1.0515  0.5154
   56CHL1  H16A 6572   3.365   4.113   9.132 -2.1601  0.9292 -0.5327
   56CHL1  H16B 6573   3.290   4.269   9.143  1.2352  0.3293 -1.0403
   56CHL1   C17 6574   3.442   4.234   9.311  0.2122 -0.3814  0.0127
   56CHL1   H17 6575   3.417   4.337   9.345  0.1843  0.0574 -1.2681
   56CHL1   C13 6576   3.408   4.139   9.430 -0.1123 -0.4907  0.4568
   56CHL1   C18 6577   3.448   3.993   9.390  0.0091 -0.0983 -0.0107
   56CHL1  H18A 6578   3.394   3.942   9.307  1.8754 -1.1335 -0.6251
   56CHL1  H18B 6579   3.557   3.990   9.372 -0.0880 -3.7348 -0.7663
   56CHL1  H18C 6580   3.430   3.936   9.483  2.5468 -0.2759  0.4257
   56CHL1   C12 6581   3.466   4.184   9.565  0.0800  0.3757  0.1724
   56CHL1  H12A 6582   3.575   4.161   9.571  0.1683  1.0359  1.4401
   56CHL1  H12B 6583   3.456   4.294   9.574 -0.2361  0.4368 -0.7741
   56CHL1   C11 6584   3.404   4.106   9.678  0.1717 -0.0524  0.3885
   56CHL1  H11A 6585   3.434   4.001   9.658  0.9796  0.3720 -0.7263
   56CHL1  H11B 6586   3.434   4.143   9.778  0.1842  0.8842  0.0516
   56CHL1    C9 6587   3.250   4.103   9.667 -0.3049  0.8035  0.2344
   56CHL1    H9 6588   3.216   4.208   9.683  1.1378  1.2027  0.7842
   56CHL1   C10 6589   3.186   4.021   9.788 -0.0248 -0.5382 -0.4597
   56CHL1   C19 6590   3.241   3.872   9.788 -0.2563  0.6710 -0.4553
   56CHL1  H19A 6591   3.351   3.871   9.801 -0.4243  1.5063  1.4027
   56CHL1  H19B 6592   3.205   3.815   9.877  1.9468  1.6293  1.1495
   56CHL1  H19C 6593   3.226   3.817   9.693  0.5129 -1.8721  0.8066
   56CHL1    C1 6594   3.228   4.091   9.926  0.2213  0.5440  0.0032
   56CHL1   H1A 6595   3.335   4.064   9.938  0.6333  1.2317 -1.7532
   56CHL1   H1B 6596   3.214   4.200   9.912 -2.7688  0.1267 -1.0665
   56CHL1    C2 6597   3.140   4.045  10.042  0.6446 -0.3988 -0.8945
   56CHL1   H2A 6598   3.149   4.109  10.133 -1.8991 -1.1558 -0.0380
   56CHL1   H2B 6599   3.172   3.943  10.073  1.8227  0.0471 -0.5760
   56CHL1   C20 6600   3.584   4.247   9.249 -0.4272  0.1464  0.5412
   56CHL1   H20 6601   3.616   4.148   9.208  1.2817  0.2969  1.4514
   56CHL1   C21 6602   3.685   4.288   9.356  0.5834  0.0256 -0.4885
   56CHL1  H21A 6603   3.645   4.354   9.436  1.0102 -0.4530  0.1212
   56CHL1  H21B 6604   3.781   4.321   9.311  1.3003  0.9365  1.6037
   56CHL1  H21C 6605   3.712   4.198   9.415  3.8025  2.2600  1.8194
   56CHL1   C22 6606   3.583   4.344   9.125  0.0183 -0.0180  0.8729
   56CHL1  H22A 6607   3.680   4.323   9.076 -0.2943 -2.3834  1.1466
   56CHL1  H22B 6608   3.517   4.311   9.041  0.4290  0.5213  0.3347
   56CHL1   C23 6609   3.570   4.490   9.163 -0.7555  0.6067  0.0908
   56CHL1  H23A 6610   3.489   4.498   9.238 -2.4443 -1.3919 -1.3882
   56CHL1  H23B 6611   3.661   4.528   9.213 -0.4616 -1.5601  1.3271
   56CHL1   C24 6612   3.520   4.571   9.042  0.1192 -0.5175  0.5078
   56CHL1  H24A 6613   3.423   4.532   9.002  0.4385  0.9269 -1.8281
   56CHL1  H24B 6614   3.507   4.676   9.077 -1.7765 -0.5229 -0.0456
   56CHL1   C25 6615   3.629   4.584   8.933 -0.3449  0.3262 -0.0931
   56CHL1   H25 6616   3.664   4.485   8.897  0.1502  1.0729 -1.7763
   56CHL1   C26 6617   3.584   4.667   8.815 -0.1744 -0.0314 -0.2456
   56CHL1  H26A 6618   3.487   4.642   8.766  0.5420  0.8476 -2.2145
   56CHL1  H26B 6619   3.578   4.774   8.847 -0.1060  0.3156 -1.3611
   56CHL1  H26C 6620   3.669   4.668   8.744  1.5012 -0.0391  1.6581
   56CHL1   C27 6621   3.763   4.641   8.993 -0.6062  0.0401 -0.9223
   56CHL1  H27A 6622   3.749   4.726   9.063 -0.2281 -1.1763  0.6925
   56CHL1  H27B 6623   3.814   4.569   9.060  0.7099  1.0276 -0.8157
   56CHL1  H27C 6624   3.841   4.654   8.914 -2.3462  2.9504 -2.3242
   57CHL1    C3 6625   3.720   2.487  10.071  0.0883 -0.1176 -0.0823
   57CHL1    H3 6626   3.622   2.534  10.046  0.7309  0.0470 -2.4761
   57CHL1    O3 6627   3.708   2.425  10.197 -0.1219  0.4088 -0.2701
   57CHL1   H3' 6628   3.791   2.377  10.199 -0.4705 -0.2203  2.3822
   57CHL1    C4 6629   3.746   2.387   9.956  0.1374  0.4901  0.0645
   57CHL1   H4A 6630   3.841   2.332   9.969  0.3006  0.2565 -1.7905
   57CHL1   H4B 6631   3.667   2.310   9.970 -0.3779  1.1200  0.6704
   57CHL1    C5 6632   3.759   2.453   9.825 -0.8150 -0.1945  0.3076
   57CHL1    C6 6633   3.689   2.396   9.724  0.3596  0.0180 -0.1773
   57CHL1    H6 6634   3.621   2.310   9.736 -0.9337  1.0960  0.4702
   57CHL1    C7 6635   3.705   2.437   9.578 -1.1503  0.0460 -0.4971
   57CHL1   H7A 6636   3.723   2.345   9.518  1.1024 -0.6173  1.0569
   57CHL1   H7B 6637   3.609   2.478   9.538 -1.9848 -0.1755  1.1850
   57CHL1    C8 6638   3.828   2.536   9.555 -0.3236 -0.0495 -0.7781
   57CHL1    H8 6639   3.919   2.472   9.547  0.0730  0.0424  1.9683
   57CHL1   C14 6640   3.810   2.609   9.428 -0.0074  0.3249  0.8222
   57CHL1   H14 6641   3.732   2.688   9.438 -0.0023  0.7699 -1.8218
   57CHL1   C15 6642   3.785   2.530   9.299 -0.2868  0.0730  0.0989
   57CHL1  H15A 6643   3.846   2.438   9.288  1.3366  0.8956  1.6916
   57CHL1  H15B 6644   3.677   2.501   9.300 -1.0495  2.5838  2.3671
   57CHL1   C16 6645   3.808   2.622   9.180  0.0322  0.6582 -0.0517
   57CHL1  H16A 6646   3.882   2.590   9.104 -1.5698 -1.6432 -0.7776
   57CHL1  H16B 6647   3.721   2.650   9.118 -0.5942 -2.1411 -0.5942
   57CHL1   C17 6648   3.857   2.755   9.244 -0.6068  0.3018 -0.4406
   57CHL1   H17 6649   3.775   2.827   9.265  0.0523  0.5112  1.7202
   57CHL1   C13 6650   3.915   2.712   9.382  0.0622 -0.3312 -0.5926
   57CHL1   C18 6651   4.049   2.633   9.360 -0.3910 -0.4946 -0.0329
   57CHL1  H18A 6652   4.079   2.582   9.454  1.1538  0.8189  0.2325
   57CHL1  H18B 6653   4.039   2.564   9.274 -0.0898 -0.6201  0.0321
   57CHL1  H18C 6654   4.135   2.699   9.335 -0.5381  0.5978  2.0506
   57CHL1   C12 6655   3.928   2.815   9.502  0.7856 -0.7912  0.4751
   57CHL1  H12A 6656   4.017   2.877   9.477  0.0027  0.6381  1.1656
   57CHL1  H12B 6657   3.848   2.892   9.498  3.0306  1.6703 -2.8492
   57CHL1   C11 6658   3.947   2.745   9.634 -0.7243  0.2249 -0.8294
   57CHL1  H11A 6659   4.046   2.694   9.633 -0.7227  0.1069  1.4857
   57CHL1  H11B 6660   3.947   2.815   9.720  1.0569  1.4867 -1.7917
   57CHL1    C9 6661   3.841   2.637   9.669 -0.4305 -0.1692 -0.0490
   57CHL1    H9 6662   3.742   2.686   9.684 -1.9595 -2.5339 -1.5942
   57CHL1   C10 6663   3.860   2.568   9.811 -0.5530  0.2658 -0.1358
   57CHL1   C19 6664   3.998   2.498   9.825 -0.0496 -0.4862  0.1591
   57CHL1  H19A 6665   4.013   2.429   9.910 -0.9084 -0.7281  0.1229
   57CHL1  H19B 6666   4.043   2.454   9.733  2.3455  0.0242  1.0294
   57CHL1  H19C 6667   4.062   2.585   9.849 -0.9272  0.0149  0.7257
   57CHL1    C1 6668   3.846   2.668   9.929 -0.3289 -0.1946  0.7363
   57CHL1   H1A 6669   3.931   2.738   9.942  1.6351 -2.3130 -0.1431
   57CHL1   H1B 6670   3.762   2.739   9.911 -0.3425 -0.5345 -0.6030
   57CHL1    C2 6671   3.834   2.589  10.065 -0.1128 -0.2128 -0.1346
   57CHL1   H2A 6672   3.838   2.648  10.159  0.3565 -0.1350 -0.2023
   57CHL1   H2B 6673   3.925   2.526  10.073 -0.0665 -0.1754 -0.3581
   57CHL1   C20 6674   3.949   2.833   9.147  0.6057 -0.5630  0.0042
   57CHL1   H20 6675   4.027   2.766   9.105  0.5659 -1.9629  2.0279
   57CHL1   C21 6676   4.027   2.956   9.219  0.1161  0.0102 -0.2185
   57CHL1  H21A 6677   4.106   2.912   9.283 -0.2077 -2.6459 -1.5132
   57CHL1  H21B 6678   3.960   3.009   9.290 -0.9452 -0.4855 -0.8149
   57CHL1  H21C 6679   4.075   3.026   9.147  0.8837 -1.5694 -1.3066
   57CHL1   C22 6680   3.875   2.888   9.025 -0.0091  0.2474  0.0194
   57CHL1  H22A 6681   3.811   2.804   8.994 -1.0153  0.5802  1.1201
   57CHL1  H22B 6682   3.813   2.977   9.050 -0.1233 -0.1835  1.3544
   57CHL1   C23 6683   3.951   2.932   8.903  0.2118  0.4514 -1.3676
   57CHL1  H23A 6684   4.017   3.018   8.928  0.2000  0.0420  0.1843
   57CHL1  H23B 6685   4.021   2.852   8.871  2.2416  2.6283 -2.7175
   57CHL1   C24 6686   3.862   2.956   8.782  0.2504 -0.1216  0.5132
   57CHL1  H24A 6687   3.794   2.869   8.772  0.7676 -0.3918 -0.8108
   57CHL1  H24B 6688   3.796   3.045   8.796 -0.2338 -0.4809  0.5515
   57CHL1   C25 6689   3.929   2.972   8.641 -1.2978  0.0480  0.0325
   57CHL1   H25 6690   3.997   2.886   8.626 -1.8441 -0.3735 -0.0454
   57CHL1   C26 6691   3.828   2.992   8.528  0.1604  0.1718 -0.0614
   57CHL1  H26A 6692   3.883   3.011   8.434  3.0317  1.6154  1.7659
   57CHL1  H26B 6693   3.748   2.915   8.517 -1.0762  1.5900 -1.5568
   57CHL1  H26C 6694   3.762   3.081   8.539  1.3243  1.0664 -0.1669
   57CHL1   C27 6695   4.024   3.092   8.652  0.2484  0.7184  0.2387
   57CHL1  H27A 6696   4.076   3.115   8.556  0.9976  0.6115  0.6121
   57CHL1  H27B 6697   3.946   3.171   8.662 -0.1486  0.1381  2.1896
   57CHL1  H27C 6698   4.101   3.080   8.731  0.1480  1.7085  0.5108
   58CHL1    C3 6699   0.294   3.188   9.971 -0.2661 -0.1804 -0.1635
   58CHL1    H3 6700   0.285   3.081  10.001  1.3244  0.3457  2.4868
   58CHL1    O3 6701   0.298   3.270  10.087  0.0841  0.2530 -0.0476
   58CHL1   H3' 6702   0.355   3.218  10.144 -1.0835 -0.1778  0.7382
   58CHL1    C4 6703   0.432   3.198   9.893 -0.1468 -0.3688  0.0184
   58CHL1   H4A 6704   0.449   3.306   9.873  0.8343 -0.8320 -1.9261
   58CHL1   H4B 6705   0.505   3.168   9.971 -1.0093 -0.9194  0.6363
   58CHL1    C5 6706   0.437   3.112   9.765 -0.0454 -0.2971 -0.3447
   58CHL1    C6 6707   0.521   3.010   9.756  0.1508  0.4675 -0.1960
   58CHL1    H6 6708   0.599   2.987   9.830 -1.2260  1.0439  1.4977
   58CHL1    C7 6709   0.530   2.936   9.626 -0.5428  0.0805  0.1366
   58CHL1   H7A 6710   0.637   2.937   9.594 -0.3882 -2.1987  0.4446
   58CHL1   H7B 6711   0.493   2.831   9.628 -0.4513  0.0568  0.5585
   58CHL1    C8 6712   0.458   3.005   9.504  0.1050 -0.1297 -0.0957
   58CHL1    H8 6713   0.517   3.078   9.445 -0.0711 -2.1071 -2.9156
   58CHL1   C14 6714   0.441   2.889   9.398  0.4127  0.2486 -0.8331
   58CHL1   H14 6715   0.386   2.810   9.453  2.0361  0.1622  0.7604
   58CHL1   C15 6716   0.560   2.827   9.331  0.9260 -0.2905 -0.2580
   58CHL1  H15A 6717   0.615   2.905   9.275  1.8933 -2.0554 -1.8835
   58CHL1  H15B 6718   0.624   2.772   9.402  1.6938  1.0081  0.0938
   58CHL1   C16 6719   0.491   2.734   9.231  0.9076 -0.6611  0.3819
   58CHL1  H16A 6720   0.555   2.713   9.142 -1.0535  0.3169 -1.3550
   58CHL1  H16B 6721   0.477   2.641   9.290 -0.7711 -0.1710  0.7943
   58CHL1   C17 6722   0.351   2.793   9.192 -0.0490  0.1991 -0.3130
   58CHL1   H17 6723   0.287   2.721   9.246 -0.5333 -1.0871 -2.5099
   58CHL1   C13 6724   0.354   2.927   9.272 -0.2457 -0.1471 -0.3715
   58CHL1   C18 6725   0.415   3.040   9.182 -0.1027 -0.2638 -0.4637
   58CHL1  H18A 6726   0.494   3.004   9.113  1.6384  2.7651 -0.2422
   58CHL1  H18B 6727   0.336   3.079   9.115 -1.8027 -0.3745  1.3977
   58CHL1  H18C 6728   0.472   3.117   9.239  0.9252 -1.5581  0.3165
   58CHL1   C12 6729   0.214   2.974   9.329  1.1430  0.5199 -0.5413
   58CHL1  H12A 6730   0.133   2.981   9.254 -0.5694  0.6485  1.2552
   58CHL1  H12B 6731   0.178   2.885   9.385 -0.6219  0.9507 -0.9572
   58CHL1   C11 6732   0.227   3.094   9.432 -0.9000 -0.3651 -0.2093
   58CHL1  H11A 6733   0.276   3.184   9.388 -1.1909  0.2024  0.6022
   58CHL1  H11B 6734   0.124   3.117   9.466 -1.2227 -0.1750 -1.2636
   58CHL1    C9 6735   0.323   3.058   9.549 -0.6045 -0.2364  0.3877
   58CHL1    H9 6736   0.282   2.961   9.586 -0.3949 -1.9249 -3.2835
   58CHL1   C10 6737   0.324   3.152   9.665 -0.3606 -0.3745  0.0222
   58CHL1   C19 6738   0.353   3.299   9.618 -0.0636  0.7207 -0.1580
   58CHL1  H19A 6739   0.296   3.332   9.529 -0.1327 -0.4008 -0.5457
   58CHL1  H19B 6740   0.336   3.373   9.699  1.5387  0.7810  0.1642
   58CHL1  H19C 6741   0.455   3.305   9.574  1.0145  0.4322  2.1301
   58CHL1    C1 6742   0.188   3.144   9.742 -0.4002  0.1595 -0.2210
   58CHL1   H1A 6743   0.102   3.167   9.676 -0.2974  0.4339 -0.2593
   58CHL1   H1B 6744   0.173   3.039   9.776 -0.9452  0.0250 -0.8541
   58CHL1    C2 6745   0.182   3.224   9.875 -0.0622 -0.3130  0.0774
   58CHL1   H2A 6746   0.086   3.205   9.927 -0.9929  4.3326  0.5196
   58CHL1   H2B 6747   0.198   3.333   9.859 -0.9852 -0.3383 -1.1226
   58CHL1   C20 6748   0.303   2.790   9.041  0.0058  0.5209 -0.5354
   58CHL1   H20 6749   0.372   2.854   8.981 -0.9302  1.9228 -0.1797
   58CHL1   C21 6750   0.159   2.848   9.012 -0.7590  0.2570  0.4301
   58CHL1  H21A 6751   0.090   2.783   9.070 -2.0520  1.1666 -0.0490
   58CHL1  H21B 6752   0.128   2.841   8.905 -1.6498  1.2340  0.6107
   58CHL1  H21C 6753   0.144   2.954   9.042  0.2535  0.1861  1.2563
   58CHL1   C22 6754   0.322   2.646   8.988 -0.5850  0.5535 -0.3427
   58CHL1  H22A 6755   0.422   2.604   9.012  0.1734  2.1979 -0.5106
   58CHL1  H22B 6756   0.248   2.576   9.033 -0.7780 -0.2913 -1.9152
   58CHL1   C23 6757   0.309   2.616   8.833 -0.4144 -0.3357  0.3286
   58CHL1  H23A 6758   0.313   2.505   8.823 -0.3789 -0.2841 -0.2675
   58CHL1  H23B 6759   0.210   2.652   8.799 -1.3087 -0.3499  2.7340
   58CHL1   C24 6760   0.410   2.693   8.742  0.3270  0.4861 -0.2112
   58CHL1  H24A 6761   0.398   2.802   8.758  0.3388  0.7601 -1.8924
   58CHL1  H24B 6762   0.515   2.683   8.778  0.3380  1.7390  0.1508
   58CHL1   C25 6763   0.415   2.664   8.591  0.1206  0.3578  0.6774
   58CHL1   H25 6764   0.447   2.558   8.577  0.5954  0.4034  1.3651
   58CHL1   C26 6765   0.282   2.676   8.513  0.7738  0.3875 -0.2981
   58CHL1  H26A 6766   0.233   2.773   8.534 -2.8803 -1.1780 -0.8492
   58CHL1  H26B 6767   0.303   2.660   8.405 -0.7353  0.3964 -0.6116
   58CHL1  H26C 6768   0.210   2.596   8.540 -2.1795  1.5642 -3.9327
   58CHL1   C27 6769   0.521   2.756   8.522 -0.2862  0.1765  0.6096
   58CHL1  H27A 6770   0.485   2.860   8.538  0.6373  0.3237  1.8441
   58CHL1  H27B 6771   0.616   2.727   8.571 -0.6146 -1.7324  0.2043
   58CHL1  H27C 6772   0.531   2.733   8.413  0.6789  2.4825  0.1439
   59CHL1    C3 6773   6.630   3.379  10.120 -0.4647  0.0571  0.2230
   59CHL1    H3 6774   6.731   3.334  10.128 -0.1095  1.1242  3.2902
   59CHL1    O3 6775   6.569   3.407  10.244  0.1883 -0.5573 -0.3876
   59CHL1   H3' 6776   6.580   3.328  10.298 -0.5708 -0.4020  0.0073
   59CHL1    C4 6777   6.640   3.504  10.031  0.5806  0.6434 -0.1993
   59CHL1   H4A 6778   6.542   3.557  10.035 -0.3623 -0.9919 -0.6484
   59CHL1   H4B 6779   6.717   3.574  10.069  0.5217  0.3852  0.4046
   59CHL1    C5 6780   6.674   3.467   9.892 -0.0675 -0.1888  0.2524
   59CHL1    C6 6781   6.789   3.504   9.836  0.3617 -0.2192  0.6400
   59CHL1    H6 6782   6.844   3.587   9.884 -0.3889  1.6187 -1.4908
   59CHL1    C7 6783   6.837   3.475   9.691  0.2502 -0.2590  0.4603
   59CHL1   H7A 6784   6.880   3.566   9.644 -0.0774 -0.4883 -0.2913
   59CHL1   H7B 6785   6.911   3.392   9.688  0.1353 -0.3548 -2.0656
   59CHL1    C8 6786   6.720   3.430   9.601  0.2442  0.0540  0.4515
   59CHL1    H8 6787   6.656   3.518   9.579  1.0983  0.4167 -0.7229
   59CHL1   C14 6788   6.777   3.376   9.467 -0.2346 -0.3819 -0.3859
   59CHL1   H14 6789   6.854   3.299   9.488 -0.6266 -1.0083 -1.1903
   59CHL1   C15 6790   6.865   3.469   9.377 -0.5979 -0.2392  0.5202
   59CHL1  H15A 6791   6.840   3.576   9.362 -0.0407 -0.1576  0.1653
   59CHL1  H15B 6792   6.968   3.459   9.415 -0.7289  1.0495  1.2345
   59CHL1   C16 6793   6.852   3.403   9.243  0.1933 -0.3580 -0.2416
   59CHL1  H16A 6794   6.809   3.480   9.176 -0.0552  0.2943  0.6571
   59CHL1  H16B 6795   6.954   3.379   9.207  0.0611  1.8010 -2.2875
   59CHL1   C17 6796   6.757   3.278   9.257 -0.1079 -0.2636  0.3256
   59CHL1   H17 6797   6.826   3.197   9.286 -1.2344 -0.4673  2.5996
   59CHL1   C13 6798   6.671   3.308   9.378  0.7128 -0.0782 -0.2478
   59CHL1   C18 6799   6.560   3.409   9.348 -0.6475  0.0914  0.0393
   59CHL1  H18A 6800   6.599   3.507   9.314  2.0391 -0.0546  2.3257
   59CHL1  H18B 6801   6.493   3.376   9.266  0.0753  0.5340 -0.7421
   59CHL1  H18C 6802   6.509   3.433   9.444 -1.7470  0.8245 -0.7052
   59CHL1   C12 6803   6.605   3.185   9.453 -1.2043 -0.2293  0.0479
   59CHL1  H12A 6804   6.514   3.149   9.400 -1.8260  0.1328  0.8556
   59CHL1  H12B 6805   6.686   3.113   9.477  1.5931  2.8170  0.4029
   59CHL1   C11 6806   6.550   3.231   9.592 -0.3083  0.0233 -1.0234
   59CHL1  H11A 6807   6.447   3.264   9.565 -1.4981 -0.4493  2.3638
   59CHL1  H11B 6808   6.521   3.149   9.661  1.1395  0.5234  0.2333
   59CHL1    C9 6809   6.648   3.320   9.681  0.4395 -0.0578  0.0050
   59CHL1    H9 6810   6.731   3.250   9.705  2.5864  0.8873 -3.7776
   59CHL1   C10 6811   6.587   3.367   9.814 -0.4077  0.0056 -0.2438
   59CHL1   C19 6812   6.454   3.442   9.795  0.7294 -0.1914  0.0819
   59CHL1  H19A 6813   6.459   3.508   9.705  0.3692  0.2227  0.3615
   59CHL1  H19B 6814   6.380   3.366   9.764  0.0740 -0.3706  1.9741
   59CHL1  H19C 6815   6.406   3.494   9.880  0.5285  1.5886 -1.0514
   59CHL1    C1 6816   6.578   3.247   9.908  0.1855  0.7080 -0.1797
   59CHL1   H1A 6817   6.486   3.191   9.881 -0.4861  1.6408  0.1318
   59CHL1   H1B 6818   6.660   3.172   9.903 -1.8222 -1.5559 -1.2155
   59CHL1    C2 6819   6.540   3.274  10.056  0.6890 -0.0752 -0.7492
   59CHL1   H2A 6820   6.534   3.183  10.119 -3.1597 -0.7468 -1.8253
   59CHL1   H2B 6821   6.435   3.309  10.063  0.8375  0.2799 -0.2718
   59CHL1   C20 6822   6.688   3.237   9.124  0.2858  0.0135  0.0806
   59CHL1   H20 6823   6.612   3.317   9.114 -0.9125 -0.7653  2.2089
   59CHL1   C21 6824   6.630   3.100   9.135  0.2352  0.7199 -0.1966
   59CHL1  H21A 6825   6.709   3.022   9.146 -0.7695 -0.4852 -1.2926
   59CHL1  H21B 6826   6.579   3.066   9.043 -0.3476 -0.0264  0.3937
   59CHL1  H21C 6827   6.575   3.078   9.229  1.5488 -1.3327  0.1641
   59CHL1   C22 6828   6.783   3.244   9.006 -0.2085 -0.3124  0.3478
   59CHL1  H22A 6829   6.803   3.352   8.988 -2.3491 -0.2082 -2.0864
   59CHL1  H22B 6830   6.872   3.178   9.015 -1.0644 -1.4284  0.8904
   59CHL1   C23 6831   6.730   3.218   8.866 -0.0252  0.2651 -0.3898
   59CHL1  H23A 6832   6.713   3.109   8.856  0.7490  0.0231  0.7985
   59CHL1  H23B 6833   6.635   3.274   8.851  0.1367  0.7075  0.2051
   59CHL1   C24 6834   6.828   3.254   8.757  0.4665 -0.5624  0.3839
   59CHL1  H24A 6835   6.840   3.364   8.745 -0.2021 -0.4895  0.3014
   59CHL1  H24B 6836   6.924   3.198   8.758  0.7656 -0.1168 -0.9114
   59CHL1   C25 6837   6.773   3.219   8.611 -0.3027  0.2166 -0.3125
   59CHL1   H25 6838   6.665   3.244   8.609 -0.0057  1.7173  0.4113
   59CHL1   C26 6839   6.842   3.316   8.502  0.3993 -0.1825 -0.0065
   59CHL1  H26A 6840   6.780   3.295   8.412 -0.2935 -0.4155  0.5169
   59CHL1  H26B 6841   6.817   3.423   8.516  1.7025  0.0679  0.5516
   59CHL1  H26C 6842   6.951   3.297   8.497 -0.0351 -2.9517 -1.2939
   59CHL1   C27 6843   6.784   3.067   8.589  0.8366  0.6017 -0.0729
   59CHL1  H27A 6844   6.708   3.004   8.640  0.3077  0.0128 -1.5376
   59CHL1  H27B 6845   6.786   3.027   8.485 -0.7821 -2.5424  0.9856
   59CHL1  H27C 6846   6.888   3.033   8.612  1.2381 -0.3763 -2.8838
   60CHL1    C3 6847   1.376   2.659  10.293 -0.1844  0.0113 -0.2208
   60CHL1    H3 6848   1.287   2.721  10.269  0.5547  1.3486  0.4435
   60CHL1    O3 6849   1.420   2.677  10.426 -0.2076  0.1083 -0.1830
   60CHL1   H3' 6850   1.506   2.635  10.421 -0.2965 -0.1631  0.4899
   60CHL1    C4 6851   1.342   2.508  10.267  0.3739  0.1293  0.3129
   60CHL1   H4A 6852   1.420   2.445  10.315  1.6144  2.0495  0.9412
   60CHL1   H4B 6853   1.253   2.483  10.330 -0.2392  0.0508 -0.5724
   60CHL1    C5 6854   1.312   2.467  10.121  0.6062  0.3015 -0.1323
   60CHL1    C6 6855   1.205   2.396  10.075  0.9763 -0.0177 -0.4595
   60CHL1    H6 6856   1.135   2.349  10.146  1.4787 -1.8616 -1.1398
   60CHL1    C7 6857   1.191   2.352   9.939  0.5925  0.4255  0.4186
   60CHL1   H7A 6858   1.162   2.245   9.948  0.1459  0.5983  1.1243
   60CHL1   H7B 6859   1.105   2.405   9.892  0.7740 -0.0373 -0.4619
   60CHL1    C8 6860   1.318   2.376   9.852  0.3470 -0.0461  0.3157
   60CHL1    H8 6861   1.383   2.288   9.872 -0.2083 -0.6110 -0.3131
   60CHL1   C14 6862   1.268   2.381   9.711  0.9346  0.0210 -0.0763
   60CHL1   H14 6863   1.192   2.462   9.712  1.2156  0.3331 -1.6513
   60CHL1   C15 6864   1.186   2.259   9.660 -0.2652 -0.1945  0.1381
   60CHL1  H15A 6865   1.223   2.158   9.688 -1.2235 -0.4846  0.4337
   60CHL1  H15B 6866   1.081   2.267   9.696 -0.4895 -1.6923 -0.1065
   60CHL1   C16 6867   1.187   2.283   9.508 -0.1486  0.2470 -0.2914
   60CHL1  H16A 6868   1.241   2.195   9.466 -0.5594  0.4290 -1.2411
   60CHL1  H16B 6869   1.085   2.303   9.467  0.0686  1.1339 -0.4080
   60CHL1   C17 6870   1.273   2.415   9.477  0.2852  0.2587  0.0031
   60CHL1   H17 6871   1.197   2.497   9.482 -2.5908 -2.2796  1.4201
   60CHL1   C13 6872   1.366   2.413   9.601 -1.2681 -0.3774  0.0914
   60CHL1   C18 6873   1.473   2.294   9.588 -0.5134  0.3799 -0.4766
   60CHL1  H18A 6874   1.553   2.324   9.518  0.4309 -0.8284  0.0710
   60CHL1  H18B 6875   1.524   2.274   9.685 -0.1661  1.1277 -0.4951
   60CHL1  H18C 6876   1.429   2.197   9.557  0.4177  0.6338 -2.7377
   60CHL1   C12 6877   1.437   2.548   9.638 -0.0576  0.3479  0.1511
   60CHL1  H12A 6878   1.510   2.576   9.560 -0.3866  0.3924 -0.1403
   60CHL1  H12B 6879   1.364   2.631   9.654  0.8559  1.0203  1.0285
   60CHL1   C11 6880   1.499   2.543   9.778 -0.0132  0.0981 -0.4112
   60CHL1  H11A 6881   1.582   2.469   9.778 -2.5794 -3.0735 -2.5112
   60CHL1  H11B 6882   1.533   2.645   9.804 -1.7072  0.3053  1.1860
   60CHL1    C9 6883   1.389   2.512   9.882  0.3674  0.1469  0.2445
   60CHL1    H9 6884   1.308   2.586   9.867  1.0244  0.5851 -1.4339
   60CHL1   C10 6885   1.423   2.520  10.032 -0.0819  0.6036  0.5542
   60CHL1   C19 6886   1.552   2.431  10.055  0.5346 -0.3500  0.3154
   60CHL1  H19A 6887   1.533   2.325  10.026 -1.0504  0.3973 -1.6198
   60CHL1  H19B 6888   1.640   2.473  10.000  0.1066  1.3830  0.8915
   60CHL1  H19C 6889   1.584   2.433  10.161 -0.9366  0.1720  0.7686
   60CHL1    C1 6890   1.451   2.664  10.064  0.6262 -0.5152 -0.1698
   60CHL1   H1A 6891   1.508   2.711   9.981  1.7676 -1.0833  0.2665
   60CHL1   H1B 6892   1.353   2.713  10.054  0.6403 -0.8086 -2.0405
   60CHL1    C2 6893   1.491   2.701  10.210  0.2819  0.6226 -0.3586
   60CHL1   H2A 6894   1.505   2.811  10.217 -0.5380  0.6816  0.5237
   60CHL1   H2B 6895   1.585   2.649  10.236  0.6004  1.0493 -0.6504
   60CHL1   C20 6896   1.331   2.408   9.339  0.4812 -0.0248 -0.3521
   60CHL1   H20 6897   1.405   2.326   9.329 -0.5252 -1.1256  0.6912
   60CHL1   C21 6898   1.407   2.537   9.309 -0.0057 -0.0095  0.1029
   60CHL1  H21A 6899   1.509   2.524   9.351 -0.4460 -0.4173  1.0903
   60CHL1  H21B 6900   1.357   2.628   9.348  2.3916  0.9212  1.2070
   60CHL1  H21C 6901   1.409   2.538   9.198  0.2920 -0.8845  0.0883
   60CHL1   C22 6902   1.226   2.370   9.219  0.6442 -0.0178  0.3529
   60CHL1  H22A 6903   1.162   2.286   9.254  0.1376  0.4395  0.5347
   60CHL1  H22B 6904   1.160   2.459   9.208  0.5078 -0.1907 -0.2689
   60CHL1   C23 6905   1.273   2.329   9.084  0.0887  0.3472  0.2414
   60CHL1  H23A 6906   1.334   2.412   9.043  0.7217 -0.5290 -0.6227
   60CHL1  H23B 6907   1.319   2.229   9.098  0.1953  0.7542  3.9040
   60CHL1   C24 6908   1.151   2.318   8.983  0.5000 -0.3396  0.5557
   60CHL1  H24A 6909   1.081   2.246   9.030  0.4792  0.5799  1.9941
   60CHL1  H24B 6910   1.098   2.414   8.998 -1.2710 -0.8829 -1.7025
   60CHL1   C25 6911   1.177   2.299   8.833 -0.8649  0.8317 -0.6246
   60CHL1   H25 6912   1.270   2.238   8.825 -0.3606  1.3289  1.0281
   60CHL1   C26 6913   1.063   2.212   8.783  0.3490  0.0871  1.0019
   60CHL1  H26A 6914   1.078   2.120   8.844  4.4368  0.5251  0.9191
   60CHL1  H26B 6915   0.968   2.261   8.812 -0.1613 -0.3351  0.1267
   60CHL1  H26C 6916   1.053   2.191   8.674  0.5610 -0.1673  1.0291
   60CHL1   C27 6917   1.189   2.430   8.751 -0.2089 -0.0256  0.4593
   60CHL1  H27A 6918   1.211   2.414   8.644  2.3439 -0.3274  0.9779
   60CHL1  H27B 6919   1.087   2.469   8.772 -0.1638 -1.3710  4.0265
   60CHL1  H27C 6920   1.260   2.501   8.797 -1.7019  2.9696 -1.5602
   61CHL1    C3 6921   5.344   2.488  10.170 -0.1665 -0.5073 -1.0641
   61CHL1    H3 6922   5.450   2.466  10.198 -0.3624  0.1665  0.2760
   61CHL1    O3 6923   5.272   2.470  10.289  0.2508  0.5586  0.0997
   61CHL1   H3' 6924   5.335   2.422  10.342  1.1935 -0.8221 -2.1128
   61CHL1    C4 6925   5.315   2.628  10.112  0.6357 -0.8775 -0.1000
   61CHL1   H4A 6926   5.205   2.630  10.097  0.7377  2.1393 -0.9739
   61CHL1   H4B 6927   5.336   2.704  10.190 -3.0209  0.5876 -0.3280
   61CHL1    C5 6928   5.380   2.655   9.976 -0.1099  0.6548  0.1691
   61CHL1    C6 6929   5.462   2.760   9.955 -0.8438 -0.4416 -0.4962
   61CHL1    H6 6930   5.482   2.842  10.025  1.2945  1.1875 -2.8218
   61CHL1    C7 6931   5.528   2.787   9.820  0.4632 -0.2662 -0.5933
   61CHL1   H7A 6932   5.520   2.897   9.812 -1.0356 -0.1290  1.6766
   61CHL1   H7B 6933   5.633   2.753   9.818  0.3657 -0.6105 -3.1308
   61CHL1    C8 6934   5.462   2.715   9.703  0.5651 -0.0805 -1.0175
   61CHL1    H8 6935   5.363   2.765   9.695  1.3903  2.8490  3.5128
   61CHL1   C14 6936   5.544   2.732   9.570 -0.5515  0.2280  0.1081
   61CHL1   H14 6937   5.649   2.698   9.582 -0.4484  1.1714  2.6171
   61CHL1   C15 6938   5.555   2.879   9.525  0.7892  0.2537  1.0539
   61CHL1  H15A 6939   5.458   2.933   9.519  1.1253  0.7423 -0.4434
   61CHL1  H15B 6940   5.631   2.932   9.587 -0.0901  0.7110  1.7655
   61CHL1   C16 6941   5.592   2.865   9.377 -0.4802  0.2921 -0.4816
   61CHL1  H16A 6942   5.526   2.919   9.306  0.7505 -2.8343 -4.4038
   61CHL1  H16B 6943   5.696   2.903   9.362 -1.3268  2.4583 -1.2274
   61CHL1   C17 6944   5.575   2.711   9.338 -0.2329 -1.0565 -0.3713
   61CHL1   H17 6945   5.674   2.660   9.333  0.0409 -0.4832 -0.9084
   61CHL1   C13 6946   5.484   2.656   9.447 -0.1773  0.7523 -0.3395
   61CHL1   C18 6947   5.343   2.709   9.413 -0.0119  0.7295  0.2728
   61CHL1  H18A 6948   5.309   2.650   9.326  0.0971  2.1575 -0.7714
   61CHL1  H18B 6949   5.268   2.679   9.490 -0.1561 -3.4518 -1.2635
   61CHL1  H18C 6950   5.331   2.817   9.392  2.7009  1.4773  2.0753
   61CHL1   C12 6951   5.488   2.506   9.497 -0.1334 -0.4196 -0.2058
   61CHL1  H12A 6952   5.467   2.423   9.426  2.3275 -2.6620  1.4840
   61CHL1  H12B 6953   5.593   2.479   9.521  0.2283  1.3320  0.2577
   61CHL1   C11 6954   5.397   2.484   9.619 -0.4734  0.2017 -0.3028
   61CHL1  H11A 6955   5.290   2.497   9.592 -0.4776 -0.1394 -0.4531
   61CHL1  H11B 6956   5.409   2.375   9.637 -0.1929  0.4615  1.1730
   61CHL1    C9 6957   5.436   2.569   9.741 -0.3411  0.6416  0.0835
   61CHL1    H9 6958   5.535   2.525   9.766  0.5159  2.1676 -0.4808
   61CHL1   C10 6959   5.346   2.555   9.865  0.1881 -0.5524 -0.9094
   61CHL1   C19 6960   5.198   2.571   9.827  0.5196 -0.2709  0.0465
   61CHL1  H19A 6961   5.144   2.475   9.813 -3.7933  1.6068  2.0243
   61CHL1  H19B 6962   5.144   2.597   9.920  0.6366  0.1223  0.0090
   61CHL1  H19C 6963   5.172   2.643   9.746  2.0225 -0.4269 -0.6123
   61CHL1    C1 6964   5.372   2.417   9.928  0.0450  0.4487 -0.2771
   61CHL1   H1A 6965   5.339   2.344   9.851 -3.0205 -0.8032  2.0086
   61CHL1   H1B 6966   5.482   2.405   9.937 -0.2540 -2.1006  0.7533
   61CHL1    C2 6967   5.309   2.388  10.061 -0.0540  0.1346  0.2482
   61CHL1   H2A 6968   5.337   2.284  10.087 -1.4073 -0.1561  0.6155
   61CHL1   H2B 6969   5.199   2.393  10.049  0.0310 -0.4492 -0.9830
   61CHL1   C20 6970   5.529   2.697   9.194 -0.0807 -0.3429  0.0579
   61CHL1   H20 6971   5.442   2.757   9.162 -0.6750 -1.3745 -0.3273
   61CHL1   C21 6972   5.497   2.556   9.167 -0.3887  0.4570 -0.3691
   61CHL1  H21A 6973   5.567   2.485   9.214 -0.8595 -0.0115 -0.3706
   61CHL1  H21B 6974   5.490   2.545   9.057 -0.7855  0.9300 -0.3963
   61CHL1  H21C 6975   5.397   2.534   9.210  0.5456 -0.2198  1.5558
   61CHL1   C22 6976   5.640   2.751   9.105  0.9940 -0.5976  0.0037
   61CHL1  H22A 6977   5.655   2.860   9.115  2.2844 -0.8302  0.8838
   61CHL1  H22B 6978   5.727   2.691   9.141 -0.4516 -1.7470  1.7314
   61CHL1   C23 6979   5.634   2.722   8.953 -0.8400 -0.2307 -0.6336
   61CHL1  H23A 6980   5.722   2.764   8.900  1.1809  0.5231  2.9387
   61CHL1  H23B 6981   5.634   2.612   8.937 -0.7926 -0.4413  0.6847
   61CHL1   C24 6982   5.508   2.777   8.890  0.6069  0.0184 -0.8441
   61CHL1  H24A 6983   5.418   2.723   8.928  1.2326 -1.4178 -1.3425
   61CHL1  H24B 6984   5.499   2.884   8.918  0.4726 -0.5977  1.7446
   61CHL1   C25 6985   5.497   2.754   8.737 -0.5011  0.0313 -0.4412
   61CHL1   H25 6986   5.553   2.662   8.709 -0.3493  0.3736 -1.2716
   61CHL1   C26 6987   5.355   2.764   8.681 -0.4702  0.0495  0.7126
   61CHL1  H26A 6988   5.366   2.763   8.570 -2.5379 -1.0370  0.4594
   61CHL1  H26B 6989   5.284   2.680   8.699 -0.3729 -0.3994 -0.8814
   61CHL1  H26C 6990   5.307   2.855   8.723 -0.3119  1.1223 -1.3188
   61CHL1   C27 6991   5.593   2.853   8.673 -0.4794 -0.0968  0.5229
   61CHL1  H27A 6992   5.557   2.865   8.569 -1.4205 -0.9694  0.7325
   61CHL1  H27B 6993   5.588   2.949   8.730  0.3844 -0.3100  0.9721
   61CHL1  H27C 6994   5.697   2.821   8.694 -1.4619 -1.2861  4.3394
   62CHL1    C3 6995   3.970   3.063  10.277 -0.4921 -0.5764 -0.0477
   62CHL1    H3 6996   4.063   3.120  10.294 -0.5528 -0.4459 -0.1534
   62CHL1    O3 6997   3.928   3.001  10.389  0.2568 -0.6103 -0.9107
   62CHL1   H3' 6998   3.947   2.908  10.380 -3.0516 -1.3234 -1.6089
   62CHL1    C4 6999   3.866   3.161  10.218  0.2840 -0.3649 -0.3069
   62CHL1   H4A 7000   3.770   3.110  10.198  0.7971 -0.9742 -1.3652
   62CHL1   H4B 7001   3.849   3.235  10.298 -0.4481  0.4089 -1.1587
   62CHL1    C5 7002   3.913   3.236  10.092  0.0810 -0.2320 -1.0289
   62CHL1    C6 7003   3.919   3.371  10.082  0.0401  0.0815  0.0338
   62CHL1    H6 7004   3.891   3.442  10.162  1.4866 -0.9869  1.5650
   62CHL1    C7 7005   3.952   3.439   9.952 -0.0689 -0.1838  0.1963
   62CHL1   H7A 7006   3.880   3.521   9.931 -0.0826 -0.0260  0.8312
   62CHL1   H7B 7007   4.045   3.499   9.960 -0.1431 -0.1118  0.5376
   62CHL1    C8 7008   3.948   3.348   9.832  0.2330  0.6151  0.0198
   62CHL1    H8 7009   3.840   3.327   9.818  0.5716 -0.9777 -0.4150
   62CHL1   C14 7010   4.009   3.407   9.710  0.1803  0.0130 -0.3885
   62CHL1   H14 7011   4.117   3.422   9.733  0.1671 -1.1872  0.5774
   62CHL1   C15 7012   3.965   3.543   9.655  0.6377 -0.1321  1.1217
   62CHL1  H15A 7013   3.856   3.555   9.671  0.7743 -0.5093  2.3913
   62CHL1  H15B 7014   4.006   3.630   9.710 -1.2767  0.4292  1.7377
   62CHL1   C16 7015   4.005   3.553   9.505 -0.4333  0.4022 -0.7456
   62CHL1  H16A 7016   3.909   3.570   9.451 -0.6304 -2.1264 -1.3205
   62CHL1  H16B 7017   4.077   3.633   9.479  0.9104 -0.5169  0.0441
   62CHL1   C17 7018   4.066   3.411   9.471 -0.4621 -0.4366  0.3710
   62CHL1   H17 7019   4.175   3.426   9.491 -0.4887  0.6652 -0.2354
   62CHL1   C13 7020   4.015   3.317   9.587 -0.2821  0.5994  1.2105
   62CHL1   C18 7021   3.874   3.268   9.545 -0.7250  0.5617 -0.1409
   62CHL1  H18A 7022   3.817   3.362   9.532  0.0595  1.1377  0.4625
   62CHL1  H18B 7023   3.890   3.212   9.450  3.9984  0.1609  0.6281
   62CHL1  H18C 7024   3.821   3.205   9.619 -0.7516 -0.0517 -0.6809
   62CHL1   C12 7025   4.103   3.192   9.620 -0.9487 -0.4347  0.4433
   62CHL1  H12A 7026   4.114   3.143   9.520  2.1667  0.4107  0.2681
   62CHL1  H12B 7027   4.203   3.231   9.647 -0.8107  0.2305 -0.8950
   62CHL1   C11 7028   4.040   3.122   9.737 -0.2347  0.0521 -0.0705
   62CHL1  H11A 7029   3.942   3.076   9.711  0.1477 -0.0814 -1.3246
   62CHL1  H11B 7030   4.107   3.038   9.768 -1.0554 -0.9072 -0.8125
   62CHL1    C9 7031   4.015   3.214   9.861  0.4611 -0.1227  1.0930
   62CHL1    H9 7032   4.120   3.248   9.877  1.2164 -0.2899 -2.5557
   62CHL1   C10 7033   3.947   3.136   9.985  0.0036 -1.0052  0.1354
   62CHL1   C19 7034   3.819   3.060   9.941  0.3940 -0.9349  0.3945
   62CHL1  H19A 7035   3.754   3.130   9.885  1.9299 -0.5204 -0.9514
   62CHL1  H19B 7036   3.836   2.980   9.866 -0.6404 -0.9969  0.2158
   62CHL1  H19C 7037   3.769   3.003  10.022 -0.2804 -3.4613 -1.6536
   62CHL1    C1 7038   4.045   3.030  10.040  0.3740  0.1992 -0.7329
   62CHL1   H1A 7039   4.050   2.951   9.962 -2.5738 -1.7052  0.8185
   62CHL1   H1B 7040   4.147   3.072  10.044  1.0275 -0.6366 -4.3941
   62CHL1    C2 7041   4.009   2.957  10.174  0.3703 -0.1222  0.3362
   62CHL1   H2A 7042   4.098   2.912  10.223 -0.4824  0.3263  2.4154
   62CHL1   H2B 7043   3.926   2.885  10.156  0.4053 -0.1075  0.1134
   62CHL1   C20 7044   4.060   3.359   9.325 -0.7731 -0.2694 -0.0466
   62CHL1   H20 7045   4.053   3.249   9.329  1.1881 -0.4068  0.6854
   62CHL1   C21 7046   4.180   3.415   9.258  0.5950  1.1595 -0.0025
   62CHL1  H21A 7047   4.180   3.399   9.148  2.2081  2.1305 -0.1879
   62CHL1  H21B 7048   4.271   3.364   9.296 -0.6852  0.2871  2.0510
   62CHL1  H21C 7049   4.192   3.522   9.285  1.2955  1.0997 -0.0395
   62CHL1   C22 7050   3.937   3.414   9.254 -0.3169  0.1833  0.9718
   62CHL1  H22A 7051   3.850   3.391   9.318 -0.9422  0.2342  0.1611
   62CHL1  H22B 7052   3.946   3.524   9.241  0.9389 -0.1101 -1.1207
   62CHL1   C23 7053   3.892   3.355   9.111 -1.0602 -0.1699  0.3022
   62CHL1  H23A 7054   3.982   3.381   9.051 -0.2504  3.0733  2.6899
   62CHL1  H23B 7055   3.879   3.245   9.123 -0.2444 -0.1532  1.4577
   62CHL1   C24 7056   3.775   3.418   9.041  0.6377 -0.1311  0.1930
   62CHL1  H24A 7057   3.685   3.383   9.094 -0.1989 -2.2815 -2.4166
   62CHL1  H24B 7058   3.777   3.529   9.041  0.1320 -0.1067 -1.0539
   62CHL1   C25 7059   3.752   3.359   8.912 -0.4588  0.4442  0.8004
   62CHL1   H25 7060   3.766   3.250   8.920  2.0819  0.5178 -1.4325
   62CHL1   C26 7061   3.610   3.392   8.851 -0.0329  0.0210 -0.0961
   62CHL1  H26A 7062   3.540   3.322   8.902  1.0099  0.0487  1.4346
   62CHL1  H26B 7063   3.590   3.499   8.873  1.0595  0.2088  0.0553
   62CHL1  H26C 7064   3.596   3.380   8.741  0.0313  2.7213 -0.4632
   62CHL1   C27 7065   3.856   3.419   8.806 -0.1204  0.2375 -0.0325
   62CHL1  H27A 7066   3.841   3.523   8.771  1.2510  0.0177 -1.4197
   62CHL1  H27B 7067   3.964   3.410   8.827 -0.1812 -1.7495 -0.3054
   62CHL1  H27C 7068   3.830   3.363   8.713 -3.2017  2.0020 -0.3742
   63CHL1    C3 7069   0.891   1.721  10.182  0.4270  0.5664 -0.2848
   63CHL1    H3 7070   0.783   1.696  10.185  0.7343 -0.8547  0.6636
   63CHL1    O3 7071   0.942   1.721  10.316 -0.2283  0.4954  0.0356
   63CHL1   H3' 7072   0.968   1.629  10.322 -0.8207  0.1940 -1.5392
   63CHL1    C4 7073   0.958   1.619  10.082 -0.1219  0.2187 -0.1219
   63CHL1   H4A 7074   1.069   1.616  10.089 -0.1478 -0.9207 -0.0543
   63CHL1   H4B 7075   0.937   1.513  10.108 -4.0150  1.1612  1.3070
   63CHL1    C5 7076   0.925   1.636   9.933  0.5267 -0.6891  0.0984
   63CHL1    C6 7077   0.889   1.532   9.856  0.8534 -0.1074 -0.1971
   63CHL1    H6 7078   0.878   1.435   9.908 -0.2351  1.7586  3.3266
   63CHL1    C7 7079   0.849   1.543   9.718 -0.7814  0.1727 -0.4939
   63CHL1   H7A 7080   0.904   1.462   9.665  0.3227 -0.4814  1.5499
   63CHL1   H7B 7081   0.742   1.521   9.703 -0.8437  1.6737 -2.8495
   63CHL1    C8 7082   0.900   1.677   9.653  0.6455  0.7279  0.2284
   63CHL1    H8 7083   1.010   1.665   9.641  0.6445 -0.4213  1.1545
   63CHL1   C14 7084   0.827   1.701   9.524 -0.0734  0.7433  0.0074
   63CHL1   H14 7085   0.723   1.724   9.554  0.1202 -0.5596  1.8054
   63CHL1   C15 7086   0.820   1.581   9.426  0.0834 -0.1595  0.1509
   63CHL1  H15A 7087   0.912   1.519   9.437 -0.3429 -0.4443  2.7219
   63CHL1  H15B 7088   0.734   1.515   9.447 -0.5082  0.8763  1.0942
   63CHL1   C16 7089   0.798   1.649   9.285  0.2104  0.9801  0.4170
   63CHL1  H16A 7090   0.884   1.615   9.222 -1.1932  1.2124 -1.7278
   63CHL1  H16B 7091   0.702   1.616   9.241  0.5916 -1.3904  1.2251
   63CHL1   C17 7092   0.798   1.803   9.315 -0.3167 -0.4822 -0.4688
   63CHL1   H17 7093   0.697   1.841   9.339 -0.3626  0.0879 -1.4921
   63CHL1   C13 7094   0.874   1.826   9.444 -0.1402  0.5675  0.5305
   63CHL1   C18 7095   1.031   1.809   9.405  0.0849 -1.5816 -0.2123
   63CHL1  H18A 7096   1.049   1.733   9.326  0.4242 -1.4039 -0.3094
   63CHL1  H18B 7097   1.063   1.910   9.370  0.3320 -0.7657  2.1829
   63CHL1  H18C 7098   1.090   1.785   9.496  0.2330  2.0612  0.8280
   63CHL1   C12 7099   0.841   1.950   9.524  0.8431  0.7039 -0.7244
   63CHL1  H12A 7100   0.881   2.045   9.483  3.3885 -0.2780 -0.6849
   63CHL1  H12B 7101   0.730   1.961   9.529  0.7219  0.1246 -1.7474
   63CHL1   C11 7102   0.899   1.934   9.666 -0.0304  0.2502 -0.0089
   63CHL1  H11A 7103   1.007   1.959   9.666  0.6106 -2.2110 -0.2307
   63CHL1  H11B 7104   0.843   2.009   9.726 -0.1534 -1.0288  1.5328
   63CHL1    C9 7105   0.871   1.797   9.736  0.6800  0.2673 -1.0098
   63CHL1    H9 7106   0.761   1.803   9.750  0.7511 -0.7277  0.1612
   63CHL1   C10 7107   0.929   1.781   9.883  0.1189 -0.1365 -0.1571
   63CHL1   C19 7108   1.080   1.831   9.879 -0.0503 -0.3979  0.5050
   63CHL1  H19A 7109   1.081   1.940   9.899 -0.1658 -0.5574  1.4283
   63CHL1  H19B 7110   1.138   1.787   9.962 -1.3227 -2.9428  0.1530
   63CHL1  H19C 7111   1.130   1.815   9.781  0.4453  3.8545 -0.1082
   63CHL1    C1 7112   0.845   1.871   9.981 -0.8264 -0.7455 -0.0141
   63CHL1   H1A 7113   0.849   1.977   9.949 -1.1821  0.7236  4.1892
   63CHL1   H1B 7114   0.740   1.838   9.968 -0.8436 -0.7372  0.0971
   63CHL1    C2 7115   0.893   1.866  10.134 -0.5087  0.9872  0.6948
   63CHL1   H2A 7116   0.825   1.931  10.192 -1.7290  0.8256 -0.5144
   63CHL1   H2B 7117   0.991   1.917  10.129 -0.7916  1.4171 -1.3102
   63CHL1   C20 7118   0.834   1.887   9.186  0.5496 -0.1742 -0.5018
   63CHL1   H20 7119   0.942   1.869   9.170  0.2209 -1.1919 -1.7359
   63CHL1   C21 7120   0.806   2.038   9.214 -0.4523  0.6210 -0.1364
   63CHL1  H21A 7121   0.702   2.040   9.255 -0.6486 -0.4767 -0.5491
   63CHL1  H21B 7122   0.824   2.102   9.125 -2.5843 -0.1677 -1.2244
   63CHL1  H21C 7123   0.881   2.070   9.289  0.1401  0.5635 -0.7048
   63CHL1   C22 7124   0.760   1.829   9.060  0.3252 -0.7064 -0.2170
   63CHL1  H22A 7125   0.775   1.720   9.041  0.3031 -0.7162 -0.1771
   63CHL1  H22B 7126   0.654   1.859   9.072  0.9755  1.5554  0.4244
   63CHL1   C23 7127   0.823   1.893   8.919  0.3322 -0.0807 -0.7603
   63CHL1  H23A 7128   0.790   1.998   8.902  1.8612  0.9530  1.9387
   63CHL1  H23B 7129   0.931   1.886   8.946  0.7183 -2.0016 -2.5911
   63CHL1   C24 7130   0.809   1.812   8.788 -0.1778  0.6101  0.7044
   63CHL1  H24A 7131   0.864   1.716   8.799  1.5983  1.2935 -1.3627
   63CHL1  H24B 7132   0.702   1.792   8.767  0.1837 -3.2893  1.8495
   63CHL1   C25 7133   0.873   1.888   8.667 -0.0623 -0.0895 -0.4025
   63CHL1   H25 7134   0.970   1.929   8.703 -0.8961  1.2585  0.3849
   63CHL1   C26 7135   0.889   1.791   8.550 -0.1724  0.3987  0.1274
   63CHL1  H26A 7136   0.975   1.720   8.550 -0.0703  0.4559  2.4589
   63CHL1  H26B 7137   0.793   1.739   8.530 -1.2961  2.2497  0.5361
   63CHL1  H26C 7138   0.899   1.853   8.458 -1.2802 -0.4272 -0.5700
   63CHL1   C27 7139   0.791   2.006   8.630  0.4817 -0.3480  0.1179
   63CHL1  H27A 7140   0.794   2.089   8.704  1.8052  1.0034 -1.3773
   63CHL1  H27B 7141   0.846   2.052   8.545  0.6574 -1.9898 -0.6876
   63CHL1  H27C 7142   0.688   1.977   8.599  1.6377 -2.5335 -1.9773
   64CHL1    C3 7143   5.566   1.871  10.079  0.2544  0.0024  0.4379
   64CHL1    H3 7144   5.642   1.802  10.037 -1.1965 -1.1460 -0.3926
   64CHL1    O3 7145   5.599   1.880  10.214 -0.2012 -0.0361 -0.8241
   64CHL1   H3' 7146   5.665   1.817  10.243  0.0949  0.4787 -0.3644
   64CHL1    C4 7147   5.559   2.007  10.020 -0.3738  0.1851  0.0715
   64CHL1   H4A 7148   5.483   2.072  10.069  0.4243  0.1683  1.3683
   64CHL1   H4B 7149   5.657   2.059  10.030  0.3480 -1.0293 -0.4817
   64CHL1    C5 7150   5.524   1.987   9.878 -0.7289 -0.1022  0.0562
   64CHL1    C6 7151   5.598   2.045   9.788 -0.5952 -0.8243  0.6280
   64CHL1    H6 7152   5.688   2.103   9.813 -2.3982  2.9603 -0.7750
   64CHL1    C7 7153   5.568   2.043   9.641  0.2424 -0.9227  0.2377
   64CHL1   H7A 7154   5.591   2.143   9.599 -0.9023  0.0244  1.7600
   64CHL1   H7B 7155   5.643   1.977   9.594  1.5904 -0.3330  1.5042
   64CHL1    C8 7156   5.427   2.006   9.614  0.2363 -0.0197 -0.0336
   64CHL1    H8 7157   5.371   2.101   9.632  2.0139  1.2062 -0.6780
   64CHL1   C14 7158   5.416   1.963   9.465 -0.1169  0.1048  0.3049
   64CHL1   H14 7159   5.475   1.869   9.456  0.4129  0.5109 -0.6641
   64CHL1   C15 7160   5.473   2.064   9.358 -0.0283  0.3904 -0.3215
   64CHL1  H15A 7161   5.443   2.168   9.381  1.2461  0.6067  0.4930
   64CHL1  H15B 7162   5.582   2.048   9.341 -0.1479 -0.7354 -0.1203
   64CHL1   C16 7163   5.391   2.028   9.229 -0.0678 -0.3135  0.6054
   64CHL1  H16A 7164   5.337   2.118   9.193  0.1952 -1.1320 -2.0163
   64CHL1  H16B 7165   5.462   1.990   9.152 -2.8295 -3.1933 -0.7273
   64CHL1   C17 7166   5.294   1.919   9.268  0.2694  0.2637 -0.1212
   64CHL1   H17 7167   5.344   1.826   9.234 -1.7828  0.2631 -3.7125
   64CHL1   C13 7168   5.275   1.924   9.421  0.8312  0.1325 -0.7658
   64CHL1   C18 7169   5.181   2.051   9.444 -0.9023 -0.3513  0.5576
   64CHL1  H18A 7170   5.078   2.027   9.408 -0.2073 -1.1533 -0.9829
   64CHL1  H18B 7171   5.188   2.080   9.551 -0.4958 -0.5782  0.5934
   64CHL1  H18C 7172   5.209   2.134   9.375  0.5680 -1.2981 -0.0291
   64CHL1   C12 7173   5.230   1.800   9.498 -0.1981 -0.1583 -0.1985
   64CHL1  H12A 7174   5.124   1.768   9.494  0.1449 -1.8660  1.8859
   64CHL1  H12B 7175   5.283   1.706   9.471  0.5981  1.1602 -3.7117
   64CHL1   C11 7176   5.247   1.830   9.651  0.6208 -0.4471 -0.4875
   64CHL1  H11A 7177   5.174   1.911   9.672  1.2323 -0.3078  1.2311
   64CHL1  H11B 7178   5.219   1.737   9.704  6.1902 -1.5806  1.1164
   64CHL1    C9 7179   5.385   1.883   9.695  0.5844  0.0347  0.0727
   64CHL1    H9 7180   5.461   1.804   9.678 -1.1324 -1.7507  0.3383
   64CHL1   C10 7181   5.397   1.912   9.850  0.3551  0.9762  0.2573
   64CHL1   C19 7182   5.281   2.002   9.888  0.7690 -0.0037 -0.0345
   64CHL1  H19A 7183   5.285   2.085   9.815  0.1702 -0.8569 -1.0736
   64CHL1  H19B 7184   5.186   1.945   9.898 -0.3168  1.8789  0.9647
   64CHL1  H19C 7185   5.293   2.050   9.987 -2.4211  2.1432 -0.5470
   64CHL1    C1 7186   5.401   1.778   9.938 -0.1297  0.3834  0.5026
   64CHL1   H1A 7187   5.301   1.730   9.925 -0.2387  0.9938 -1.2202
   64CHL1   H1B 7188   5.467   1.705   9.888 -1.9080 -0.0661 -1.3365
   64CHL1    C2 7189   5.442   1.798  10.085 -0.0935  0.6608 -0.1461
   64CHL1   H2A 7190   5.449   1.698  10.132  0.1407 -0.0987 -1.7114
   64CHL1   H2B 7191   5.365   1.864  10.129 -0.4146 -0.2155  0.6237
   64CHL1   C20 7192   5.177   1.919   9.166  0.1556  0.3690 -0.2907
   64CHL1   H20 7193   5.121   2.014   9.177  1.2856  0.8617  1.5900
   64CHL1   C21 7194   5.094   1.792   9.188 -0.0976  0.1512  0.4271
   64CHL1  H21A 7195   5.061   1.785   9.294  0.7206  3.3731  1.0218
   64CHL1  H21B 7196   5.156   1.702   9.172 -1.6596 -0.6682 -1.4522
   64CHL1  H21C 7197   4.998   1.790   9.132  0.0320 -1.9211  0.2191
   64CHL1   C22 7198   5.227   1.918   9.017  0.0990 -0.1435  0.0228
   64CHL1  H22A 7199   5.273   2.012   8.980 -1.1837  0.2060 -0.7344
   64CHL1  H22B 7200   5.315   1.851   9.002 -1.3890 -1.9000 -1.4041
   64CHL1   C23 7201   5.111   1.887   8.921  0.5534 -0.1833  0.1277
   64CHL1  H23A 7202   5.073   1.784   8.931  1.6818 -0.5148  1.3947
   64CHL1  H23B 7203   5.032   1.952   8.965 -0.2354 -2.6029  2.5930
   64CHL1   C24 7204   5.140   1.940   8.775  0.2577 -0.0285 -0.4521
   64CHL1  H24A 7205   5.052   1.933   8.706  0.8351 -0.0665 -1.1980
   64CHL1  H24B 7206   5.168   2.047   8.783 -0.6240  0.2872 -1.4114
   64CHL1   C25 7207   5.266   1.875   8.708  0.3238 -0.3154 -0.5953
   64CHL1   H25 7208   5.337   1.860   8.791 -1.8431  1.5361  1.7471
   64CHL1   C26 7209   5.237   1.731   8.660 -0.0103 -0.3721  0.5437
   64CHL1  H26A 7210   5.322   1.694   8.599  0.5263  0.6508  0.6498
   64CHL1  H26B 7211   5.238   1.653   8.739 -0.0302 -0.1354  0.7782
   64CHL1  H26C 7212   5.136   1.731   8.612  1.2561  1.0984 -2.3882
   64CHL1   C27 7213   5.326   1.969   8.605  0.5569  0.2129  0.1834
   64CHL1  H27A 7214   5.423   1.931   8.567  0.0692  0.8249 -1.8213
   64CHL1  H27B 7215   5.254   1.981   8.521 -0.9064  3.3840  1.7237
   64CHL1  H27C 7216   5.346   2.073   8.638  1.2497  0.1351  0.0242
   65CHL1    C3 7217   1.992   5.121  10.226 -0.2321 -0.2245 -0.3461
   65CHL1    H3 7218   2.064   5.188  10.174  0.4542 -1.2799 -0.7829
   65CHL1    O3 7219   2.016   5.135  10.361  0.1766  0.5221 -0.0719
   65CHL1   H3' 7220   1.983   5.052  10.396  0.3174  0.7901  0.7122
   65CHL1    C4 7221   1.844   5.141  10.201  0.3902 -0.4652 -0.5425
   65CHL1   H4A 7222   1.789   5.059  10.250  1.5124  0.4715  2.4884
   65CHL1   H4B 7223   1.814   5.236  10.250  1.2916  0.1851 -1.2085
   65CHL1    C5 7224   1.817   5.136  10.046  0.7400 -0.2842 -0.0705
   65CHL1    C6 7225   1.754   5.235   9.974  0.5303  0.0423  0.8257
   65CHL1    H6 7226   1.730   5.326  10.032  0.9497 -0.7141  2.2347
   65CHL1    C7 7227   1.714   5.225   9.827  0.5386 -0.2992 -0.5787
   65CHL1   H7A 7228   1.611   5.260   9.803  0.5673 -0.5664 -1.1116
   65CHL1   H7B 7229   1.785   5.293   9.776 -0.7205  1.1820 -0.4403
   65CHL1    C8 7230   1.745   5.080   9.770 -0.0336 -0.1869 -0.0718
   65CHL1    H8 7231   1.658   5.020   9.802  0.3102 -0.2354  0.7826
   65CHL1   C14 7232   1.757   5.089   9.617 -0.2561  1.1009  0.0017
   65CHL1   H14 7233   1.853   5.144   9.603  0.7587 -0.0842  1.9306
   65CHL1   C15 7234   1.643   5.168   9.541  0.4694  0.3092  0.7955
   65CHL1  H15A 7235   1.550   5.153   9.600  0.6229 -5.1669  0.1999
   65CHL1  H15B 7236   1.669   5.275   9.540 -0.5922  0.6277 -1.9542
   65CHL1   C16 7237   1.642   5.103   9.400 -0.5181  0.7484  0.0123
   65CHL1  H16A 7238   1.541   5.060   9.384 -1.6238  3.4728 -0.9889
   65CHL1  H16B 7239   1.651   5.182   9.322 -2.0560  1.5918  0.6538
   65CHL1   C17 7240   1.760   4.997   9.402  0.2680 -0.2183  0.6924
   65CHL1   H17 7241   1.852   5.049   9.368 -0.1273  0.0698  0.0363
   65CHL1   C13 7242   1.772   4.956   9.551 -0.2678  0.6037  0.3745
   65CHL1   C18 7243   1.652   4.860   9.581  0.1485 -0.3530 -0.4481
   65CHL1  H18A 7244   1.635   4.852   9.690 -0.8414 -1.4896 -0.6683
   65CHL1  H18B 7245   1.562   4.905   9.535  0.4344  0.6152 -0.0902
   65CHL1  H18C 7246   1.670   4.759   9.538 -1.9752 -0.9509 -0.0410
   65CHL1   C12 7247   1.908   4.892   9.603 -0.4688 -0.4861 -0.1695
   65CHL1  H12A 7248   1.911   4.792   9.555 -0.5389 -0.4397 -0.2709
   65CHL1  H12B 7249   1.995   4.956   9.577 -1.7645  1.0598 -0.8259
   65CHL1   C11 7250   1.908   4.876   9.756  0.1848  0.1068  0.3262
   65CHL1  H11A 7251   1.835   4.796   9.778 -0.5765  1.0853  1.5112
   65CHL1  H11B 7252   2.007   4.833   9.785  1.8290  3.4868  0.3103
   65CHL1    C9 7253   1.870   5.015   9.830  0.4446  0.0404  0.4446
   65CHL1    H9 7254   1.949   5.088   9.802  0.3961  0.1022  0.4693
   65CHL1   C10 7255   1.875   5.010   9.986 -0.2001  0.7718  0.3307
   65CHL1   C19 7256   1.790   4.879  10.025 -0.8726 -0.2695  0.3715
   65CHL1  H19A 7257   1.841   4.785   9.994  0.6362  1.0529 -1.3900
   65CHL1  H19B 7258   1.769   4.875  10.134 -0.6679 -1.7993  0.3756
   65CHL1  H19C 7259   1.689   4.875   9.978 -0.0244 -0.5686 -1.5404
   65CHL1    C1 7260   2.020   4.975  10.031 -0.0052 -0.2433  0.1539
   65CHL1   H1A 7261   2.044   4.873   9.994  1.7831 -0.2448  1.2100
   65CHL1   H1B 7262   2.088   5.052   9.991 -0.8966  1.1919  1.3085
   65CHL1    C2 7263   2.041   4.986  10.178  0.2838 -0.6106 -0.2788
   65CHL1   H2A 7264   2.142   4.964  10.218 -0.4361  0.3925  2.2962
   65CHL1   H2B 7265   1.968   4.916  10.222 -0.3945  0.2598  0.0221
   65CHL1   C20 7266   1.755   4.884   9.294  0.4487 -0.4245 -0.6491
   65CHL1   H20 7267   1.679   4.807   9.320 -1.0403  1.3785  0.6366
   65CHL1   C21 7268   1.897   4.816   9.272 -0.4007 -0.2094 -0.3609
   65CHL1  H21A 7269   1.975   4.860   9.338 -0.8161  1.0203 -0.6533
   65CHL1  H21B 7270   1.932   4.849   9.171 -1.9957 -0.3717 -0.9884
   65CHL1  H21C 7271   1.896   4.706   9.284  0.0504 -0.2090 -0.2997
   65CHL1   C22 7272   1.709   4.955   9.165 -0.2259  0.8658 -1.2197
   65CHL1  H22A 7273   1.605   4.992   9.165  0.0401  1.6240 -1.6193
   65CHL1  H22B 7274   1.784   5.034   9.143  1.5399 -0.8517 -1.7006
   65CHL1   C23 7275   1.709   4.863   9.039 -0.4197 -0.3158  0.2423
   65CHL1  H23A 7276   1.803   4.804   9.035 -0.0008  0.2947  0.8529
   65CHL1  H23B 7277   1.623   4.792   9.045 -0.1723 -0.6538 -0.1739
   65CHL1   C24 7278   1.686   4.940   8.909 -0.0752 -0.1325  0.0245
   65CHL1  H24A 7279   1.581   4.976   8.912  0.4540  1.9212 -2.8193
   65CHL1  H24B 7280   1.740   5.036   8.918  0.3865 -0.3558 -0.3115
   65CHL1   C25 7281   1.728   4.869   8.774  0.0146 -0.3379  0.1922
   65CHL1   H25 7282   1.686   4.767   8.766  4.7994 -2.4500 -1.2631
   65CHL1   C26 7283   1.683   4.961   8.662  0.1652  0.6189 -0.1890
   65CHL1  H26A 7284   1.583   5.006   8.680  0.4823  0.4507  2.2729
   65CHL1  H26B 7285   1.754   5.047   8.667  0.1470  0.6080  0.2638
   65CHL1  H26C 7286   1.691   4.916   8.561  2.3853  0.4799 -0.0014
   65CHL1   C27 7287   1.880   4.854   8.769  0.1472  0.0351  0.6507
   65CHL1  H27A 7288   1.919   4.772   8.833  0.2520  1.6424  2.7955
   65CHL1  H27B 7289   1.904   4.830   8.664 -3.2352 -1.7368  0.1410
   65CHL1  H27C 7290   1.933   4.949   8.795  0.4514 -0.2688  1.1733
   66CHL1    C3 7291   6.185   3.002  10.208  0.4016 -0.5274  0.0273
   66CHL1    H3 7292   6.284   3.051  10.201 -0.0890  0.2112 -2.7705
   66CHL1    O3 7293   6.142   2.995  10.346 -0.0615 -0.1765  0.2299
   66CHL1   H3' 7294   6.065   2.939  10.342  1.2041 -1.9301 -1.6155
   66CHL1    C4 7295   6.070   3.072  10.137 -0.0008 -0.1344 -0.1012
   66CHL1   H4A 7296   5.978   3.017  10.161 -0.5287  1.0865  0.7743
   66CHL1   H4B 7297   6.058   3.172  10.183  0.3496 -0.3612  0.4858
   66CHL1    C5 7298   6.102   3.070   9.992 -0.0334  0.4234 -0.0792
   66CHL1    C6 7299   6.109   3.187   9.921  0.2429  0.3472 -0.7362
   66CHL1    H6 7300   6.090   3.281   9.976 -2.1893 -0.2320 -0.4761
   66CHL1    C7 7301   6.143   3.203   9.770  0.5492  0.5204 -0.3568
   66CHL1   H7A 7302   6.077   3.282   9.729 -1.4907 -0.0576  1.6141
   66CHL1   H7B 7303   6.250   3.230   9.756  0.5679  0.4365 -0.3771
   66CHL1    C8 7304   6.108   3.069   9.690 -0.3849 -0.2823 -0.3416
   66CHL1    H8 7305   5.997   3.061   9.690 -0.3448 -0.8782 -0.4115
   66CHL1   C14 7306   6.171   3.070   9.549 -0.1001  0.8503  0.4548
   66CHL1   H14 7307   6.281   3.069   9.560 -0.1338  0.6436  0.7945
   66CHL1   C15 7308   6.128   3.186   9.461  0.0663  0.1769 -0.2522
   66CHL1  H15A 7309   6.018   3.190   9.471 -0.2030 -1.9710 -1.7158
   66CHL1  H15B 7310   6.179   3.277   9.501 -0.8678  0.6328 -0.0701
   66CHL1   C16 7311   6.167   3.141   9.326 -0.5382 -0.5428 -0.3011
   66CHL1  H16A 7312   6.092   3.154   9.246  2.4481  0.6222 -3.1397
   66CHL1  H16B 7313   6.257   3.199   9.297  0.0445 -1.1167  0.3136
   66CHL1   C17 7314   6.210   2.980   9.334  0.6089 -0.3055 -0.3720
   66CHL1   H17 7315   6.320   2.978   9.354  0.2674 -2.8689  1.9546
   66CHL1   C13 7316   6.147   2.937   9.468 -0.4006 -0.5329  0.3172
   66CHL1   C18 7317   5.991   2.918   9.448  0.9754 -0.7023  0.0094
   66CHL1  H18A 7318   5.960   2.999   9.378  0.7784 -1.9596 -1.4160
   66CHL1  H18B 7319   5.969   2.822   9.398 -2.1221 -0.5397  0.8950
   66CHL1  H18C 7320   5.935   2.926   9.543  2.0300  3.8309  0.4837
   66CHL1   C12 7321   6.207   2.823   9.551  0.5015 -0.5062 -0.6578
   66CHL1  H12A 7322   6.212   2.727   9.495  2.6309 -1.3616  0.8346
   66CHL1  H12B 7323   6.316   2.843   9.561  0.6835 -2.5332  4.2269
   66CHL1   C11 7324   6.149   2.811   9.695 -0.9854 -0.3582 -0.1636
   66CHL1  H11A 7325   6.043   2.781   9.703 -0.2691 -2.9437  0.4081
   66CHL1  H11B 7326   6.213   2.737   9.747 -1.9408 -0.2125  1.2452
   66CHL1    C9 7327   6.164   2.948   9.774 -0.3551  0.8609  0.8171
   66CHL1    H9 7328   6.272   2.973   9.769 -0.1555 -0.1269 -0.1302
   66CHL1   C10 7329   6.124   2.933   9.924 -1.4635 -0.4077  0.9738
   66CHL1   C19 7330   5.993   2.852   9.924  0.5380 -0.1956  0.4965
   66CHL1  H19A 7331   5.931   2.882   9.837 -0.1448 -0.1250  1.0048
   66CHL1  H19B 7332   5.998   2.741   9.925 -2.7198 -0.4822 -1.1810
   66CHL1  H19C 7333   5.924   2.878  10.007 -1.0440  0.4475 -0.9537
   66CHL1    C1 7334   6.237   2.869  10.010 -0.2815  0.1698  0.2678
   66CHL1   H1A 7335   6.254   2.767   9.970 -1.3732  0.6571 -1.5445
   66CHL1   H1B 7336   6.331   2.928   9.997 -1.0433  1.3353 -0.1065
   66CHL1    C2 7337   6.213   2.856  10.158  0.2982  0.1362  0.1210
   66CHL1   H2A 7338   6.303   2.815  10.209  0.0779 -0.4726  0.0231
   66CHL1   H2B 7339   6.128   2.786  10.171  1.7097 -1.9100 -1.0020
   66CHL1   C20 7340   6.179   2.903   9.209 -0.1581  0.0119 -0.0571
   66CHL1   H20 7341   6.070   2.899   9.187 -0.2241  2.0634 -0.2933
   66CHL1   C21 7342   6.232   2.755   9.220 -0.0298 -0.3417 -0.5992
   66CHL1  H21A 7343   6.227   2.701   9.124  0.4471  0.3052 -0.9948
   66CHL1  H21B 7344   6.162   2.698   9.284 -1.9843  4.0428  1.6146
   66CHL1  H21C 7345   6.335   2.748   9.262 -0.8290  1.3982  1.9114
   66CHL1   C22 7346   6.247   2.962   9.086  0.0684  0.5216 -0.1187
   66CHL1  H22A 7347   6.236   3.072   9.074  0.2285  0.5681  0.1399
   66CHL1  H22B 7348   6.356   2.945   9.100 -0.1337  0.4732  1.5525
   66CHL1   C23 7349   6.195   2.900   8.959 -0.0673 -1.1178 -0.4562
   66CHL1  H23A 7350   6.158   2.795   8.963 -1.2270 -0.7015  0.2968
   66CHL1  H23B 7351   6.100   2.953   8.937 -0.1229 -1.8957 -2.2908
   66CHL1   C24 7352   6.286   2.915   8.826  0.4389 -0.0703  0.3718
   66CHL1  H24A 7353   6.382   2.860   8.823 -0.2771 -1.2955 -1.6432
   66CHL1  H24B 7354   6.219   2.886   8.743  0.0898 -1.1647  1.0200
   66CHL1   C25 7355   6.323   3.067   8.809  0.0097 -0.1722 -0.4539
   66CHL1   H25 7356   6.399   3.090   8.887 -0.2172 -0.7186 -0.0670
   66CHL1   C26 7357   6.404   3.087   8.676  0.5785 -0.0428 -0.4299
   66CHL1  H26A 7358   6.335   3.050   8.597  0.1685  2.5724 -1.3893
   66CHL1  H26B 7359   6.419   3.193   8.648  1.3999  0.2142  0.9211
   66CHL1  H26C 7360   6.496   3.024   8.678  0.8270  0.1641 -2.4996
   66CHL1   C27 7361   6.205   3.160   8.824 -1.1012  0.1226  0.2741
   66CHL1  H27A 7362   6.132   3.125   8.749 -1.4215 -0.3324  0.7914
   66CHL1  H27B 7363   6.153   3.151   8.922 -0.1481  0.4338  0.8340
   66CHL1  H27C 7364   6.234   3.267   8.810 -1.0579 -0.1166 -1.6012
   67CHL1    C3 7365   4.472   3.544  10.289  0.4634  0.0412 -0.8875
   67CHL1    H3 7366   4.439   3.632  10.230 -0.4260 -0.1855 -0.7299
   67CHL1    O3 7367   4.428   3.551  10.423  0.3690 -0.3245  0.0732
   67CHL1   H3' 7368   4.429   3.461  10.456  0.6138 -0.6116 -0.6978
   67CHL1    C4 7369   4.410   3.417  10.226 -0.3758 -0.1449  0.1819
   67CHL1   H4A 7370   4.427   3.321  10.279  0.9129  0.3473  0.6855
   67CHL1   H4B 7371   4.302   3.434  10.244  0.1603  1.1579  2.4986
   67CHL1    C5 7372   4.452   3.408  10.079  0.4048  0.1087  0.7262
   67CHL1    C6 7373   4.356   3.413   9.983 -0.8856 -0.6431  0.3340
   67CHL1    H6 7374   4.252   3.406  10.016 -1.5523 -1.3705 -1.7371
   67CHL1    C7 7375   4.387   3.404   9.840 -0.2776 -0.2106  0.6732
   67CHL1   H7A 7376   4.313   3.337   9.790  2.3579 -0.3467 -3.4998
   67CHL1   H7B 7377   4.373   3.503   9.791  0.2881 -0.8267 -0.7634
   67CHL1    C8 7378   4.538   3.352   9.812 -0.2601  0.0291  0.1491
   67CHL1    H8 7379   4.538   3.241   9.818 -0.2758  0.0966  2.4119
   67CHL1   C14 7380   4.579   3.389   9.672  0.3751 -0.3469  0.5698
   67CHL1   H14 7381   4.585   3.500   9.672 -1.0455 -0.2529  1.0373
   67CHL1   C15 7382   4.481   3.345   9.565 -0.7420 -0.3165 -0.3207
   67CHL1  H15A 7383   4.433   3.246   9.584  0.6899 -0.6287  2.0427
   67CHL1  H15B 7384   4.405   3.422   9.541  0.7154  1.1511 -0.4363
   67CHL1   C16 7385   4.570   3.333   9.435  1.0646  0.5505 -0.2313
   67CHL1  H16A 7386   4.569   3.225   9.411 -0.1013  0.5769 -0.3421
   67CHL1  H16B 7387   4.527   3.398   9.356 -0.6835 -0.9686 -0.5909
   67CHL1   C17 7388   4.710   3.370   9.482  0.5371 -0.8758  0.1560
   67CHL1   H17 7389   4.701   3.480   9.491 -0.2515 -0.8571 -0.6628
   67CHL1   C13 7390   4.715   3.335   9.632  0.1531  0.1816  0.2858
   67CHL1   C18 7391   4.718   3.180   9.643 -0.3973  0.4327 -0.4314
   67CHL1  H18A 7392   4.815   3.150   9.599  0.0263  1.6359 -0.3561
   67CHL1  H18B 7393   4.715   3.149   9.750 -0.4094  2.2410  0.1220
   67CHL1  H18C 7394   4.637   3.130   9.585 -0.9996  0.8683  0.0213
   67CHL1   C12 7395   4.819   3.407   9.715  0.4790  0.0870  0.1088
   67CHL1  H12A 7396   4.925   3.378   9.697  0.7579  1.8992 -1.5209
   67CHL1  H12B 7397   4.817   3.516   9.694  0.9500 -0.0487 -0.7071
   67CHL1   C11 7398   4.791   3.391   9.866  0.2379 -0.1598 -0.4728
   67CHL1  H11A 7399   4.826   3.289   9.891  2.8782  0.7349 -0.2376
   67CHL1  H11B 7400   4.850   3.465   9.924 -0.4004  0.7254 -0.9195
   67CHL1    C9 7401   4.639   3.412   9.906  0.3520  0.1743 -0.1354
   67CHL1    H9 7402   4.626   3.521   9.889 -0.8043  0.0861  0.0817
   67CHL1   C10 7403   4.602   3.397  10.057  0.1562 -0.1960  0.2033
   67CHL1   C19 7404   4.659   3.260  10.111 -0.4543 -0.2018  0.9126
   67CHL1  H19A 7405   4.626   3.254  10.217 -2.3675 -0.1497  0.3636
   67CHL1  H19B 7406   4.626   3.178  10.044  0.6364  1.0174 -1.2515
   67CHL1  H19C 7407   4.768   3.253  10.093 -0.6700 -2.8273  0.1432
   67CHL1    C1 7408   4.674   3.509  10.137  0.3743  0.9683 -0.9324
   67CHL1   H1A 7409   4.785   3.500  10.132  0.2763  0.3965 -3.1380
   67CHL1   H1B 7410   4.656   3.610  10.094 -0.2323  1.2744  0.0210
   67CHL1    C2 7411   4.622   3.537  10.287  0.0924  0.2807  0.4692
   67CHL1   H2A 7412   4.672   3.631  10.321  0.7602  0.1510 -0.1374
   67CHL1   H2B 7413   4.665   3.460  10.354 -0.6981  1.0952  1.9942
   67CHL1   C20 7414   4.826   3.332   9.394 -0.1802 -0.7870 -0.1067
   67CHL1   H20 7415   4.916   3.330   9.461 -0.5545 -0.4417  0.4148
   67CHL1   C21 7416   4.856   3.449   9.289  0.1645  0.2640  0.0236
   67CHL1  H21A 7417   4.861   3.550   9.336  1.5707 -0.9787  2.7933
   67CHL1  H21B 7418   4.778   3.445   9.210  3.4712  4.3264 -4.0651
   67CHL1  H21C 7419   4.948   3.424   9.231  0.4265  1.1808  0.0202
   67CHL1   C22 7420   4.812   3.193   9.320 -0.5086 -0.4565  0.2926
   67CHL1  H22A 7421   4.789   3.110   9.390  0.7397  1.3594  3.0262
   67CHL1  H22B 7422   4.714   3.202   9.267  0.0741  0.4735 -0.6616
   67CHL1   C23 7423   4.939   3.157   9.232 -0.5062 -0.2955 -0.3722
   67CHL1  H23A 7424   4.935   3.227   9.146  1.8850  0.8637  0.3530
   67CHL1  H23B 7425   5.034   3.182   9.285 -0.9612  0.2390  0.2068
   67CHL1   C24 7426   4.938   3.007   9.202  0.4153  0.1599 -0.7392
   67CHL1  H24A 7427   4.942   2.960   9.302  0.9368 -1.5653 -1.5384
   67CHL1  H24B 7428   4.847   2.984   9.141  0.1276  3.4091 -1.7452
   67CHL1   C25 7429   5.054   2.955   9.126 -0.2036 -0.7716 -0.2687
   67CHL1   H25 7430   5.051   2.845   9.139  0.0847 -0.9771 -1.8050
   67CHL1   C26 7431   5.036   2.983   8.971 -0.2397 -0.1777 -0.5551
   67CHL1  H26A 7432   4.944   2.935   8.931  0.7011 -2.7516  0.1838
   67CHL1  H26B 7433   5.024   3.092   8.951  1.8738  0.0851 -0.5995
   67CHL1  H26C 7434   5.116   2.933   8.914  1.8007 -0.0417  1.9813
   67CHL1   C27 7435   5.186   3.000   9.183 -0.5372 -0.1961 -0.6021
   67CHL1  H27A 7436   5.275   2.965   9.126  0.9816 -0.7042  1.9496
   67CHL1  H27B 7437   5.195   3.111   9.180 -3.6751  0.1495 -2.3234
   67CHL1  H27C 7438   5.215   2.965   9.284  0.9539 -1.1580 -1.3432
   68CHL1    C3 7439   2.549   3.723  10.031 -0.3486 -0.5071 -0.7872
   68CHL1    H3 7440   2.558   3.827  10.070 -0.9707 -0.8091  0.1897
   68CHL1    O3 7441   2.567   3.637  10.140  0.2914  0.8161  0.0686
   68CHL1   H3' 7442   2.588   3.555  10.094  0.8108  0.6744  0.5541
   68CHL1    C4 7443   2.415   3.697   9.966  0.3698 -0.4415  0.0078
   68CHL1   H4A 7444   2.389   3.591   9.943 -0.7813 -0.3677  0.9141
   68CHL1   H4B 7445   2.331   3.715  10.036 -0.2057  0.8474 -0.9726
   68CHL1    C5 7446   2.401   3.792   9.849 -0.3049 -0.0528  0.3745
   68CHL1    C6 7447   2.306   3.886   9.839 -0.0297 -0.4408 -0.0883
   68CHL1    H6 7448   2.232   3.884   9.920  0.0766 -1.5838 -0.0080
   68CHL1    C7 7449   2.277   3.959   9.709  0.2862 -0.4876 -0.4130
   68CHL1   H7A 7450   2.170   3.960   9.680  0.7480  0.7173 -2.2569
   68CHL1   H7B 7451   2.300   4.067   9.724 -1.9510  0.0665 -0.5708
   68CHL1    C8 7452   2.350   3.900   9.585  0.2903  0.1100  0.1242
   68CHL1    H8 7453   2.296   3.804   9.567  0.1517 -0.0696  1.3892
   68CHL1   C14 7454   2.347   3.999   9.476  0.9448  0.5135  1.0298
   68CHL1   H14 7455   2.401   4.092   9.504 -0.3667  1.9734 -0.9779
   68CHL1   C15 7456   2.215   4.070   9.428 -0.0304 -0.1890  0.1282
   68CHL1  H15A 7457   2.144   3.984   9.429  1.1854 -1.2335  1.6475
   68CHL1  H15B 7458   2.183   4.144   9.504 -1.1585 -0.0169 -0.4910
   68CHL1   C16 7459   2.251   4.115   9.283 -0.7890  0.0500  0.3908
   68CHL1  H16A 7460   2.182   4.061   9.215 -0.5053  0.3551 -0.1474
   68CHL1  H16B 7461   2.235   4.224   9.269 -1.7317  0.1121  1.7252
   68CHL1   C17 7462   2.404   4.072   9.256 -0.5454 -0.2619 -0.4723
   68CHL1   H17 7463   2.459   4.154   9.307 -1.4389 -0.4764  0.9034
   68CHL1   C13 7464   2.415   3.950   9.349 -0.9216 -0.0837  0.4079
   68CHL1   C18 7465   2.346   3.828   9.284  0.0321  0.0124 -0.3502
   68CHL1  H18A 7466   2.345   3.738   9.349 -1.5065 -0.8207 -1.4598
   68CHL1  H18B 7467   2.240   3.857   9.271  0.3031  1.3987  0.3094
   68CHL1  H18C 7468   2.392   3.790   9.190  1.2673 -0.3274  0.3728
   68CHL1   C12 7469   2.563   3.910   9.385  0.5833  0.0882  0.1488
   68CHL1  H12A 7470   2.620   3.879   9.295  0.6823  0.9372 -0.0978
   68CHL1  H12B 7471   2.593   4.008   9.428 -1.0848  0.4793  0.4989
   68CHL1   C11 7472   2.580   3.807   9.500  0.1675  0.6579  0.0388
   68CHL1  H11A 7473   2.538   3.711   9.462  1.1399  0.4207 -0.4540
   68CHL1  H11B 7474   2.682   3.786   9.538  0.2204  0.2976 -0.2957
   68CHL1    C9 7475   2.495   3.856   9.618  0.3839  0.6572  0.2594
   68CHL1    H9 7476   2.531   3.956   9.650 -2.2679  1.2270  1.7738
   68CHL1   C10 7477   2.505   3.761   9.739 -0.7100  0.3035  0.0603
   68CHL1   C19 7478   2.492   3.613   9.689  0.0804  0.2758 -0.5242
   68CHL1  H19A 7479   2.410   3.592   9.617 -0.3293 -2.3283  0.5918
   68CHL1  H19B 7480   2.590   3.587   9.643  1.5541  4.1478  0.1133
   68CHL1  H19C 7481   2.481   3.540   9.773 -3.4276  1.3867  0.1271
   68CHL1    C1 7482   2.641   3.783   9.816 -0.0619 -0.6465  0.1731
   68CHL1   H1A 7483   2.721   3.771   9.740 -0.1488 -0.3340  0.0316
   68CHL1   H1B 7484   2.652   3.890   9.842  0.8830 -0.5768 -0.4625
   68CHL1    C2 7485   2.664   3.699   9.934  0.3846 -0.0767  0.1365
   68CHL1   H2A 7486   2.759   3.723   9.987 -0.1017  0.5914  0.7194
   68CHL1   H2B 7487   2.672   3.591   9.906 -1.2371 -0.2574  0.3097
   68CHL1   C20 7488   2.453   4.072   9.115  0.2410  0.4763 -0.1694
   68CHL1   H20 7489   2.475   3.973   9.070  3.7352  0.2161  1.7163
   68CHL1   C21 7490   2.594   4.140   9.106 -0.3612  0.1096  0.5953
   68CHL1  H21A 7491   2.591   4.248   9.131  0.7069  0.5926 -1.1899
   68CHL1  H21B 7492   2.642   4.133   9.006 -0.2526  1.5449  0.5339
   68CHL1  H21C 7493   2.662   4.098   9.183  0.9239  1.7482  0.4119
   68CHL1   C22 7494   2.354   4.141   9.016  1.0146  0.3828  0.4621
   68CHL1  H22A 7495   2.263   4.077   9.027 -1.1731  2.8573 -1.6419
   68CHL1  H22B 7496   2.326   4.245   9.045 -0.7915  0.4450 -1.2674
   68CHL1   C23 7497   2.405   4.124   8.871 -0.6857  0.1703 -0.1577
   68CHL1  H23A 7498   2.494   4.188   8.853 -0.8843  0.2150 -0.9879
   68CHL1  H23B 7499   2.434   4.016   8.869 -0.3951  0.2568 -1.2797
   68CHL1   C24 7500   2.306   4.167   8.768  1.1012 -0.1735 -0.3573
   68CHL1  H24A 7501   2.213   4.106   8.770 -0.0344  1.5200  1.2509
   68CHL1  H24B 7502   2.286   4.273   8.791 -0.6186 -0.8996  1.7474
   68CHL1   C25 7503   2.367   4.145   8.626  0.8827  0.0491  0.1944
   68CHL1   H25 7504   2.460   4.203   8.610  0.3764  0.5192 -1.2577
   68CHL1   C26 7505   2.411   3.995   8.601  0.0453  0.3739 -0.4323
   68CHL1  H26A 7506   2.505   3.968   8.655 -0.4929 -0.1904  0.2331
   68CHL1  H26B 7507   2.328   3.928   8.629  0.3704  0.4765  0.8304
   68CHL1  H26C 7508   2.439   3.977   8.495  0.8659  0.8842 -0.3185
   68CHL1   C27 7509   2.263   4.189   8.519  0.1202  0.2573 -0.1356
   68CHL1  H27A 7510   2.248   4.299   8.528 -0.6936  0.1347  0.0754
   68CHL1  H27B 7511   2.300   4.175   8.415 -1.1284  0.1667 -0.5896
   68CHL1  H27C 7512   2.163   4.149   8.549  0.3188  1.2487  2.0575
   69CHL1    C3 7513   0.597   1.030   6.700 -0.6333  0.1402  0.1219
   69CHL1    H3 7514   0.700   0.994   6.677 -0.9345 -0.2754 -0.5832
   69CHL1    O3 7515   0.535   1.059   6.577 -0.1078  0.1199 -0.4408
   69CHL1   H3' 7516   0.603   1.113   6.536  0.7052 -0.2303  0.3885
   69CHL1    C4 7517   0.534   0.918   6.781  0.2821 -0.0815  0.5898
   69CHL1   H4A 7518   0.426   0.943   6.780  0.5692  1.2656  0.8935
   69CHL1   H4B 7519   0.535   0.830   6.714 -1.7407 -0.3897  0.9072
   69CHL1    C5 7520   0.585   0.897   6.921  0.2920  0.3186 -0.6438
   69CHL1    C6 7521   0.646   0.787   6.970 -0.4740 -0.0045  0.4859
   69CHL1    H6 7522   0.649   0.698   6.905 -2.8160 -0.5299  1.0029
   69CHL1    C7 7523   0.692   0.766   7.115 -0.3843  0.2671 -0.5968
   69CHL1   H7A 7524   0.652   0.673   7.160  2.5038  0.7465  3.4561
   69CHL1   H7B 7525   0.803   0.765   7.114 -0.3113  2.0994 -2.6312
   69CHL1    C8 7526   0.633   0.877   7.203 -0.6627 -0.1569  0.1489
   69CHL1    H8 7527   0.524   0.860   7.210 -1.0157  2.2907  2.0297
   69CHL1   C14 7528   0.695   0.886   7.346  0.7475  0.1288  0.4894
   69CHL1   H14 7529   0.805   0.894   7.336  0.9097 -0.1076  1.9587
   69CHL1   C15 7530   0.692   0.761   7.437  0.1949  0.2645 -0.1734
   69CHL1  H15A 7531   0.587   0.724   7.432  0.1183  0.4401  0.1363
   69CHL1  H15B 7532   0.773   0.693   7.404  0.5238  0.5124  0.1234
   69CHL1   C16 7533   0.724   0.804   7.574  0.3744  0.5403  0.1544
   69CHL1  H16A 7534   0.647   0.767   7.645 -1.6312 -0.0005 -2.1573
   69CHL1  H16B 7535   0.820   0.761   7.610 -0.0195  0.0030  0.5708
   69CHL1   C17 7536   0.735   0.956   7.568  0.0715 -0.1071  0.2949
   69CHL1   H17 7537   0.844   0.968   7.550  0.1015 -2.0370 -1.1352
   69CHL1   C13 7538   0.663   1.002   7.437  0.2795  0.3022 -0.7196
   69CHL1   C18 7539   0.505   1.005   7.457 -0.3002  0.7455  0.3601
   69CHL1  H18A 7540   0.473   0.905   7.494 -0.0962  0.2852 -0.6755
   69CHL1  H18B 7541   0.494   1.087   7.531  0.5784 -1.3425  2.9303
   69CHL1  H18C 7542   0.447   1.030   7.365 -1.0550 -0.0417  0.6101
   69CHL1   C12 7543   0.728   1.124   7.364  0.0240  0.1462  0.5974
   69CHL1  H12A 7544   0.724   1.215   7.428  1.0140 -0.4342  1.5210
   69CHL1  H12B 7545   0.835   1.098   7.354 -0.2745 -0.5250 -1.0800
   69CHL1   C11 7546   0.660   1.146   7.222 -0.1286 -0.0565 -0.6651
   69CHL1  H11A 7547   0.555   1.177   7.243  0.3719  0.7815  0.7414
   69CHL1  H11B 7548   0.715   1.233   7.180  2.2752 -0.1440  2.0024
   69CHL1    C9 7549   0.660   1.011   7.130  0.1619 -0.3858 -0.1221
   69CHL1    H9 7550   0.765   1.003   7.095 -0.5175  2.5781 -3.3599
   69CHL1   C10 7551   0.585   1.033   7.000  0.1538  0.0104  0.1398
   69CHL1   C19 7552   0.435   1.066   7.037 -0.2202 -0.0597  0.0520
   69CHL1  H19A 7553   0.382   0.987   7.095 -0.3581  0.2486  0.3497
   69CHL1  H19B 7554   0.426   1.162   7.092 -0.6317  0.7471 -1.3764
   69CHL1  H19C 7555   0.378   1.074   6.942 -2.2900 -0.0839  1.2301
   69CHL1    C1 7556   0.652   1.153   6.920 -0.0333 -0.0422  0.9005
   69CHL1   H1A 7557   0.644   1.252   6.970 -0.6681 -0.6603  2.0630
   69CHL1   H1B 7558   0.759   1.125   6.916 -0.7069 -2.9965  1.2104
   69CHL1    C2 7559   0.601   1.167   6.773  0.4290  0.8056 -0.0976
   69CHL1   H2A 7560   0.667   1.237   6.719  0.4321  1.1250  0.3172
   69CHL1   H2B 7561   0.496   1.204   6.778  0.5217  1.0683 -0.0816
   69CHL1   C20 7562   0.706   1.028   7.704  0.2846  0.2947  0.2809
   69CHL1   H20 7563   0.596   1.026   7.724  0.0823  0.7423 -0.7204
   69CHL1   C21 7564   0.745   1.172   7.701 -0.7087  0.0682  0.0064
   69CHL1  H21A 7565   0.687   1.234   7.628  0.2569  0.7185 -0.2286
   69CHL1  H21B 7566   0.845   1.183   7.654 -0.3898 -2.1848  0.0775
   69CHL1  H21C 7567   0.750   1.223   7.799  0.6215  0.0420 -0.0372
   69CHL1   C22 7568   0.786   0.957   7.813 -0.3694  0.3529  0.1829
   69CHL1  H22A 7569   0.757   0.850   7.813 -2.0872  0.7937  0.2486
   69CHL1  H22B 7570   0.894   0.964   7.787 -0.5263  0.3544 -0.4847
   69CHL1   C23 7571   0.765   1.001   7.957 -0.4526 -0.3844  0.1397
   69CHL1  H23A 7572   0.827   1.093   7.961 -1.4775  0.2802  1.6872
   69CHL1  H23B 7573   0.657   1.026   7.967 -0.2096  0.6823  0.2756
   69CHL1   C24 7574   0.815   0.897   8.062  0.1395  0.0056  0.1290
   69CHL1  H24A 7575   0.748   0.809   8.046  0.7429 -0.4729  0.2116
   69CHL1  H24B 7576   0.917   0.870   8.027  0.3873  1.6612 -0.5109
   69CHL1   C25 7577   0.813   0.924   8.209  0.3163 -0.3411 -0.1767
   69CHL1   H25 7578   0.886   1.006   8.226  1.5010 -1.4287  0.1359
   69CHL1   C26 7579   0.682   0.962   8.275 -0.0927  0.3647 -0.0558
   69CHL1  H26A 7580   0.621   1.029   8.211 -0.2741  1.5702  1.3127
   69CHL1  H26B 7581   0.624   0.868   8.287 -1.0089 -0.0893 -5.4044
   69CHL1  H26C 7582   0.703   1.009   8.374  1.4015  0.2892 -0.3202
   69CHL1   C27 7583   0.879   0.818   8.291  0.0078  0.3084  0.7699
   69CHL1  H27A 7584   0.913   0.848   8.392  0.7135 -1.7719  1.2072
   69CHL1  H27B 7585   0.805   0.737   8.310  1.5724 -0.9731  1.6393
   69CHL1  H27C 7586   0.955   0.761   8.234 -3.1679 -2.4142 -1.1318
   70CHL1    C3 7587   5.802   3.847   7.266  0.2046  0.4850 -0.2601
   70CHL1    H3 7588   5.790   3.957   7.251  0.9540  0.7706  1.0689
   70CHL1    O3 7589   5.811   3.780   7.143  0.1369 -0.2777  0.7207
   70CHL1   H3' 7590   5.878   3.828   7.093  0.5296  0.5612  1.9958
   70CHL1    C4 7591   5.927   3.810   7.352 -0.0084  0.2303 -0.3638
   70CHL1   H4A 7592   5.935   3.699   7.344 -1.1278  0.1569 -0.6361
   70CHL1   H4B 7593   6.017   3.854   7.303 -0.1335  0.8313 -0.0574
   70CHL1    C5 7594   5.903   3.860   7.495 -0.9764 -0.1853 -0.0795
   70CHL1    C6 7595   6.002   3.933   7.549 -0.2036 -0.5673 -0.3839
   70CHL1    H6 7596   6.095   3.951   7.493  0.6121 -1.5860  0.5853
   70CHL1    C7 7597   6.010   3.997   7.686  0.3265  0.7874 -0.0760
   70CHL1   H7A 7598   6.103   3.969   7.741  0.3647  2.5132  0.7922
   70CHL1   H7B 7599   5.996   4.107   7.678 -2.7406  0.5212  0.5083
   70CHL1    C8 7600   5.884   3.943   7.772 -1.1421 -0.3684  0.9311
   70CHL1    H8 7601   5.917   3.847   7.817 -0.9910 -0.1357  1.3128
   70CHL1   C14 7602   5.852   4.033   7.886  0.0862  0.2556 -1.0766
   70CHL1   H14 7603   5.824   4.129   7.837  4.3621  1.8286 -0.7931
   70CHL1   C15 7604   5.972   4.066   7.974 -0.5544 -0.4688 -0.2887
   70CHL1  H15A 7605   6.026   3.972   8.002 -0.7682 -0.6754 -0.5714
   70CHL1  H15B 7606   6.026   4.140   7.911 -3.0065 -0.4580 -2.5402
   70CHL1   C16 7607   5.905   4.115   8.105  0.3830 -0.0374 -0.3738
   70CHL1  H16A 7608   5.941   4.050   8.188 -2.0244  1.3178  1.8880
   70CHL1  H16B 7609   5.922   4.219   8.141 -0.3093 -0.8427  2.5551
   70CHL1   C17 7610   5.743   4.098   8.088 -1.1704  0.8340  0.0858
   70CHL1   H17 7611   5.719   4.195   8.040 -1.7924  0.0376 -1.2975
   70CHL1   C13 7612   5.734   3.989   7.973 -0.9743 -0.1473 -0.1814
   70CHL1   C18 7613   5.768   3.851   8.038 -0.2722 -0.5399  1.1165
   70CHL1  H18A 7614   5.688   3.828   8.112 -1.5485  2.6713  0.9178
   70CHL1  H18B 7615   5.770   3.762   7.973 -0.6494 -0.5364  1.0952
   70CHL1  H18C 7616   5.861   3.848   8.098  0.0810 -0.2475  0.5861
   70CHL1   C12 7617   5.603   3.988   7.891 -0.2836  0.1965  0.1348
   70CHL1  H12A 7618   5.516   3.953   7.949 -1.7476 -2.3595 -3.2445
   70CHL1  H12B 7619   5.578   4.093   7.863  0.4881  0.7665  1.4783
   70CHL1   C11 7620   5.619   3.909   7.761  0.1365 -0.5447  0.2875
   70CHL1  H11A 7621   5.634   3.801   7.784  0.8713 -0.8122 -1.2369
   70CHL1  H11B 7622   5.533   3.921   7.692  2.0742  0.1859 -2.1599
   70CHL1    C9 7623   5.753   3.933   7.678  0.4848 -0.0281 -1.1226
   70CHL1    H9 7624   5.735   4.033   7.634 -0.4484  0.3272  0.0139
   70CHL1   C10 7625   5.775   3.838   7.565  0.2581  0.0247 -0.4905
   70CHL1   C19 7626   5.779   3.692   7.616  0.2306  0.4577  0.1811
   70CHL1  H19A 7627   5.807   3.617   7.539  2.8729 -1.2807  2.6377
   70CHL1  H19B 7628   5.850   3.683   7.700 -0.9278  0.8574  1.2384
   70CHL1  H19C 7629   5.678   3.675   7.661 -0.7486 -1.0982 -2.3441
   70CHL1    C1 7630   5.655   3.854   7.469  1.0544 -0.1797 -0.2029
   70CHL1   H1A 7631   5.566   3.808   7.516  0.5745 -0.1086 -1.0071
   70CHL1   H1B 7632   5.632   3.962   7.452  0.7322  0.0528  1.6012
   70CHL1    C2 7633   5.667   3.787   7.328  0.1309  0.4929  1.1648
   70CHL1   H2A 7634   5.573   3.795   7.270  0.4025 -1.7643  0.3391
   70CHL1   H2B 7635   5.679   3.677   7.340  1.8726  0.8376  3.4482
   70CHL1   C20 7636   5.670   4.089   8.218  0.3217 -0.1958  0.0430
   70CHL1   H20 7637   5.707   3.998   8.270  1.9605 -0.3686 -1.2962
   70CHL1   C21 7638   5.523   4.070   8.193 -0.9362 -0.7271  0.3670
   70CHL1  H21A 7639   5.465   4.076   8.288  0.1775 -1.0032  1.0834
   70CHL1  H21B 7640   5.506   3.969   8.150  0.7705  0.5449 -3.7335
   70CHL1  H21C 7641   5.488   4.156   8.131 -3.0767 -0.3390  1.9751
   70CHL1   C22 7642   5.695   4.216   8.306 -0.3056  0.0894 -0.1360
   70CHL1  H22A 7643   5.804   4.237   8.312 -0.4663  1.0527 -0.2784
   70CHL1  H22B 7644   5.641   4.300   8.256  0.3179  0.5001 -0.1274
   70CHL1   C23 7645   5.660   4.210   8.461  0.3532 -0.3142 -0.6246
   70CHL1  H23A 7646   5.679   4.311   8.503 -0.3422 -0.5422  0.2912
   70CHL1  H23B 7647   5.549   4.196   8.464  0.0402  1.6204 -2.0748
   70CHL1   C24 7648   5.736   4.111   8.545 -0.0795 -0.2099  0.7810
   70CHL1  H24A 7649   5.716   4.009   8.504  2.5035 -0.3854 -0.2234
   70CHL1  H24B 7650   5.844   4.130   8.530 -0.3526  1.1529  0.4300
   70CHL1   C25 7651   5.701   4.110   8.695 -0.0559  0.5437  0.5262
   70CHL1   H25 7652   5.589   4.111   8.697 -0.2816 -3.0268 -1.4807
   70CHL1   C26 7653   5.733   3.981   8.770  0.0226  0.8008  0.3637
   70CHL1  H26A 7654   5.694   3.887   8.726  1.0553 -0.0590  1.2390
   70CHL1  H26B 7655   5.842   3.966   8.782 -0.3191 -0.4219  2.3729
   70CHL1  H26C 7656   5.686   3.979   8.871 -0.2197 -0.2776  0.2405
   70CHL1   C27 7657   5.758   4.226   8.767 -0.6328  0.0215  0.3799
   70CHL1  H27A 7658   5.866   4.234   8.741 -0.8413 -1.4147 -1.0827
   70CHL1  H27B 7659   5.719   4.319   8.721  2.5191  0.9174 -0.7694
   70CHL1  H27C 7660   5.736   4.223   8.876  0.1894 -2.3784  0.5496
   71CHL1    C3 7661   4.858   2.858   6.813 -0.3355  0.5772  0.5878
   71CHL1    H3 7662   4.930   2.941   6.829 -0.5086  0.3784  2.6270
   71CHL1    O3 7663   4.826   2.877   6.674 -0.4894  0.7589 -0.0716
   71CHL1   H3' 7664   4.748   2.932   6.676 -1.0124  0.2786 -2.7404
   71CHL1    C4 7665   4.912   2.719   6.824 -0.3510  0.3292 -0.0054
   71CHL1   H4A 7666   4.839   2.659   6.766  0.9631 -2.3737  0.9335
   71CHL1   H4B 7667   5.012   2.707   6.775 -0.0666  1.9053  0.1392
   71CHL1    C5 7668   4.914   2.661   6.968  0.2793  0.5152 -0.0511
   71CHL1    C6 7669   5.019   2.592   7.017 -0.6487 -0.3349 -0.4109
   71CHL1    H6 7670   5.108   2.574   6.954  0.6355  1.9364  0.6214
   71CHL1    C7 7671   5.027   2.551   7.162  0.1714  0.2040  0.2054
   71CHL1   H7A 7672   5.058   2.445   7.170 -0.4285 -0.0535 -0.7550
   71CHL1   H7B 7673   5.105   2.607   7.218  2.3000 -1.2511 -1.1385
   71CHL1    C8 7674   4.895   2.566   7.242 -0.0429 -0.2179 -0.3069
   71CHL1    H8 7675   4.828   2.485   7.207 -0.3582 -1.2930  2.5458
   71CHL1   C14 7676   4.915   2.565   7.391  0.3961 -0.3551 -0.0118
   71CHL1   H14 7677   4.986   2.649   7.409  1.0621  0.0655 -3.7661
   71CHL1   C15 7678   5.000   2.451   7.445  0.0809  0.4356  0.4706
   71CHL1  H15A 7679   4.976   2.355   7.395  1.2710 -0.1617  1.0013
   71CHL1  H15B 7680   5.104   2.485   7.431  0.6438 -0.0670  2.9656
   71CHL1   C16 7681   4.964   2.436   7.595 -0.6705  0.7683 -0.1917
   71CHL1  H16A 7682   4.924   2.335   7.619  2.0733 -0.7984 -1.5969
   71CHL1  H16B 7683   5.056   2.447   7.658 -0.6021  0.4164 -0.2287
   71CHL1   C17 7684   4.858   2.547   7.616 -0.1399 -0.3500 -0.3384
   71CHL1   H17 7685   4.925   2.636   7.625  1.3941 -1.4460 -0.4285
   71CHL1   C13 7686   4.794   2.563   7.478 -1.0546  0.8586 -0.7877
   71CHL1   C18 7687   4.699   2.442   7.441  0.1235 -0.1433 -0.4507
   71CHL1  H18A 7688   4.755   2.346   7.444 -3.8710 -2.8086 -2.6053
   71CHL1  H18B 7689   4.609   2.435   7.506  0.8278 -1.5246  0.4335
   71CHL1  H18C 7690   4.664   2.454   7.337  0.9164  1.8529 -0.5350
   71CHL1   C12 7691   4.723   2.707   7.449  0.5648  0.8975 -0.5924
   71CHL1  H12A 7692   4.623   2.709   7.497  1.7187 -0.8123  2.0878
   71CHL1  H12B 7693   4.774   2.786   7.507 -2.7300  1.6310  1.5200
   71CHL1   C11 7694   4.697   2.716   7.299 -0.6947 -0.2886 -0.1511
   71CHL1  H11A 7695   4.616   2.648   7.265  0.4606 -1.0872 -1.3947
   71CHL1  H11B 7696   4.659   2.820   7.288  1.7353  0.6398 -0.2547
   71CHL1    C9 7697   4.825   2.692   7.207 -0.6396 -0.4692  0.6472
   71CHL1    H9 7698   4.892   2.779   7.224  0.3269 -0.3034 -3.0980
   71CHL1   C10 7699   4.798   2.710   7.054 -0.1756  0.4253  0.1613
   71CHL1   C19 7700   4.681   2.606   7.016  0.2494  0.9919  0.1168
   71CHL1  H19A 7701   4.594   2.608   7.084 -0.4071 -2.2984 -0.4823
   71CHL1  H19B 7702   4.650   2.615   6.910 -1.2687 -2.3682  0.1851
   71CHL1  H19C 7703   4.727   2.505   7.021  1.5890  1.4141 -2.0766
   71CHL1    C1 7704   4.755   2.858   7.033  0.5826  0.2902 -0.2686
   71CHL1   H1A 7705   4.659   2.882   7.083  0.1002 -1.7106 -0.1517
   71CHL1   H1B 7706   4.841   2.915   7.073  0.8225  0.7420 -1.3906
   71CHL1    C2 7707   4.729   2.897   6.886 -0.1694  0.0593 -0.3573
   71CHL1   H2A 7708   4.700   3.004   6.878  0.2502  0.2040 -0.0487
   71CHL1   H2B 7709   4.644   2.835   6.852 -0.1790 -1.5419  2.3187
   71CHL1   C20 7710   4.777   2.522   7.742 -0.5480  1.0419 -0.8445
   71CHL1   H20 7711   4.695   2.451   7.720  1.7170 -1.2354 -2.4249
   71CHL1   C21 7712   4.709   2.646   7.797  0.2270 -0.2593 -0.3865
   71CHL1  H21A 7713   4.666   2.616   7.895  0.7213 -0.0971 -0.1171
   71CHL1  H21B 7714   4.628   2.677   7.727 -0.3500 -0.0355  0.3636
   71CHL1  H21C 7715   4.779   2.731   7.813  0.3044 -0.0974 -1.4913
   71CHL1   C22 7716   4.860   2.464   7.866  0.9957  0.1568 -0.0498
   71CHL1  H22A 7717   4.777   2.451   7.939  0.9340  2.6306  0.4322
   71CHL1  H22B 7718   4.902   2.365   7.839 -0.8455 -0.0776 -2.3499
   71CHL1   C23 7719   4.973   2.556   7.922 -0.1303  0.2340  0.1626
   71CHL1  H23A 7720   5.038   2.597   7.841  1.1617 -0.4985  0.8004
   71CHL1  H23B 7721   4.924   2.636   7.980 -0.0349  0.3555  0.0760
   71CHL1   C24 7722   5.074   2.486   8.020  0.1899 -0.1165  0.4551
   71CHL1  H24A 7723   5.010   2.438   8.097 -0.3581 -0.0630  0.0421
   71CHL1  H24B 7724   5.120   2.397   7.972 -1.7291 -2.3381  2.4442
   71CHL1   C25 7725   5.174   2.579   8.098 -0.9552  0.6201  0.0740
   71CHL1   H25 7726   5.233   2.513   8.165  1.4770  1.5742 -1.0153
   71CHL1   C26 7727   5.272   2.642   7.993 -0.1650  0.2338  0.5161
   71CHL1  H26A 7728   5.370   2.681   8.029 -0.3505  1.6598 -0.4698
   71CHL1  H26B 7729   5.278   2.571   7.908 -0.3622  0.0147  0.6858
   71CHL1  H26C 7730   5.216   2.721   7.939 -1.5522 -1.1923 -0.2271
   71CHL1   C27 7731   5.105   2.689   8.188 -0.2118 -0.8132  0.0101
   71CHL1  H27A 7732   5.060   2.776   8.136  0.8160 -0.1177  0.2754
   71CHL1  H27B 7733   5.033   2.633   8.253 -3.2801  3.7119  0.9542
   71CHL1  H27C 7734   5.194   2.734   8.236  1.6599 -0.0128 -3.8531
   72CHL1    C3 7735   5.355   4.203   7.099 -0.6680 -0.1697  0.7454
   72CHL1    H3 7736   5.250   4.174   7.077 -0.0376 -1.9140 -0.1464
   72CHL1    O3 7737   5.434   4.200   6.974 -0.0770  0.0767 -0.4202
   72CHL1   H3' 7738   5.512   4.253   6.992  0.9714 -0.2707 -3.4070
   72CHL1    C4 7739   5.370   4.342   7.156  0.8955  0.3644  0.1797
   72CHL1   H4A 7740   5.474   4.381   7.155  0.2414  2.2244 -0.4957
   72CHL1   H4B 7741   5.322   4.411   7.083 -0.8907 -1.0966 -0.1050
   72CHL1    C5 7742   5.306   4.353   7.295  0.3402  0.1289  0.0035
   72CHL1    C6 7743   5.214   4.440   7.327  0.0006  0.7892 -0.6448
   72CHL1    H6 7744   5.169   4.504   7.250 -1.9358  1.5336  1.0086
   72CHL1    C7 7745   5.163   4.465   7.466 -0.1799  0.5871  0.5276
   72CHL1   H7A 7746   5.158   4.575   7.486 -1.2141  0.8057 -0.7949
   72CHL1   H7B 7747   5.056   4.435   7.470 -0.0177 -0.6722 -2.4971
   72CHL1    C8 7748   5.242   4.385   7.573 -0.1181 -0.4788  0.4045
   72CHL1    H8 7749   5.332   4.443   7.603  0.9168 -1.5701 -0.5000
   72CHL1   C14 7750   5.158   4.367   7.702  0.1222  0.0167  0.1577
   72CHL1   H14 7751   5.080   4.299   7.660  0.1418  0.5634 -0.7994
   72CHL1   C15 7752   5.074   4.486   7.759  0.0209  0.5405 -0.3454
   72CHL1  H15A 7753   5.140   4.575   7.768 -0.3065  0.5693  2.7547
   72CHL1  H15B 7754   4.991   4.520   7.693 -0.3528  0.9040  0.2988
   72CHL1   C16 7755   5.043   4.451   7.907  0.5252  0.2193  0.5334
   72CHL1  H16A 7756   5.079   4.532   7.975 -1.1095 -0.0479  1.7927
   72CHL1  H16B 7757   4.932   4.454   7.913  0.4305  1.0092 -1.1303
   72CHL1   C17 7758   5.111   4.310   7.922  0.0902  0.4139  0.1402
   72CHL1   H17 7759   5.039   4.230   7.892  0.3166  0.7706 -1.4186
   72CHL1   C13 7760   5.233   4.311   7.825 -0.4780 -0.4689  0.3350
   72CHL1   C18 7761   5.356   4.398   7.867 -0.9871  0.3826 -0.0939
   72CHL1  H18A 7762   5.428   4.409   7.783 -0.7447 -1.5313 -0.1769
   72CHL1  H18B 7763   5.318   4.494   7.906 -1.8493 -0.3854  1.0157
   72CHL1  H18C 7764   5.407   4.350   7.954  0.3383  1.1346 -0.4190
   72CHL1   C12 7765   5.275   4.169   7.778 -0.1050 -0.0350 -0.2990
   72CHL1  H12A 7766   5.356   4.125   7.840  0.8613  0.6625 -1.0257
   72CHL1  H12B 7767   5.189   4.100   7.786  1.7042 -2.3807 -0.1719
   72CHL1   C11 7768   5.349   4.167   7.638  0.5563 -0.7786 -0.2859
   72CHL1  H11A 7769   5.455   4.196   7.654  0.7724 -1.3700 -0.6080
   72CHL1  H11B 7770   5.352   4.059   7.610 -0.7944 -0.1535 -3.2617
   72CHL1    C9 7771   5.280   4.252   7.526  0.5287  0.4202 -0.8217
   72CHL1    H9 7772   5.185   4.199   7.503 -0.6803  2.4172 -0.6768
   72CHL1   C10 7773   5.360   4.249   7.395  1.0234  0.0071 -0.4234
   72CHL1   C19 7774   5.504   4.298   7.410  0.0912 -0.0396  0.1799
   72CHL1  H19A 7775   5.568   4.301   7.318 -0.1850 -3.0433 -0.2056
   72CHL1  H19B 7776   5.495   4.403   7.445  0.8081  0.4593 -1.0538
   72CHL1  H19C 7777   5.564   4.235   7.479  1.1789  1.3508  0.5615
   72CHL1    C1 7778   5.356   4.107   7.331  0.0717 -0.1935 -0.3252
   72CHL1   H1A 7779   5.411   4.031   7.389 -0.3432 -2.8156 -3.1409
   72CHL1   H1B 7780   5.251   4.070   7.320 -0.8443  2.1483 -0.1561
   72CHL1    C2 7781   5.423   4.106   7.191  0.4367  0.4234 -0.0807
   72CHL1   H2A 7782   5.410   4.002   7.155  0.6124  0.3804 -0.0228
   72CHL1   H2B 7783   5.534   4.114   7.195  0.3567  1.3404  0.6291
   72CHL1   C20 7784   5.149   4.269   8.065  0.5320  0.2773 -0.0942
   72CHL1   H20 7785   5.251   4.305   8.092  0.0608  0.5386  1.3952
   72CHL1   C21 7786   5.144   4.115   8.071  0.0315  0.3960  0.1759
   72CHL1  H21A 7787   5.046   4.088   8.028  0.7941 -0.8754 -0.8080
   72CHL1  H21B 7788   5.136   4.075   8.175 -1.8574 -2.8121 -1.0948
   72CHL1  H21C 7789   5.220   4.058   8.015  0.0442 -1.0502  1.5892
   72CHL1   C22 7790   5.044   4.325   8.173 -0.9216  0.1664 -0.0234
   72CHL1  H22A 7791   5.014   4.429   8.147  0.9019  1.0198  1.0457
   72CHL1  H22B 7792   4.947   4.273   8.169 -0.0980 -1.3621 -0.9395
   72CHL1   C23 7793   5.113   4.338   8.314  0.5484  0.1999 -0.1363
   72CHL1  H23A 7794   5.101   4.241   8.367 -0.0412  1.3527  1.9899
   72CHL1  H23B 7795   5.222   4.358   8.303  1.1824 -2.0712  1.2091
   72CHL1   C24 7796   5.049   4.442   8.404 -0.1198  0.2156  0.5970
   72CHL1  H24A 7797   5.043   4.538   8.348  3.2548 -0.0986 -0.4957
   72CHL1  H24B 7798   4.942   4.415   8.414 -0.2073  0.0051 -0.7579
   72CHL1   C25 7799   5.109   4.460   8.543 -0.2123 -0.9298 -0.8728
   72CHL1   H25 7800   5.089   4.366   8.600  1.9491 -0.8934  0.0439
   72CHL1   C26 7801   5.262   4.489   8.527 -0.3247 -0.3713 -0.5760
   72CHL1  H26A 7802   5.277   4.563   8.446 -1.8696  1.1655  0.4870
   72CHL1  H26B 7803   5.300   4.523   8.626 -1.6990 -1.4808  0.3824
   72CHL1  H26C 7804   5.319   4.401   8.490  3.2603  1.1849  0.7935
   72CHL1   C27 7805   5.037   4.564   8.628  0.0833 -0.6905  0.1590
   72CHL1  H27A 7806   4.929   4.548   8.609  0.0558  2.0679 -2.9680
   72CHL1  H27B 7807   5.066   4.568   8.735  1.5016  0.3854 -0.2338
   72CHL1  H27C 7808   5.053   4.659   8.572 -1.4448 -1.9708 -2.6779
   73CHL1    C3 7809   4.930   4.219   7.040 -0.4562  0.3682  0.0469
   73CHL1    H3 7810   5.038   4.243   7.051 -0.3069  0.7073 -1.8007
   73CHL1    O3 7811   4.912   4.240   6.903  0.4729  0.5154 -0.0773
   73CHL1   H3' 7812   4.859   4.317   6.880  0.4024  0.2456 -0.8472
   73CHL1    C4 7813   4.901   4.077   7.086 -0.1750 -0.0371  0.5712
   73CHL1   H4A 7814   4.802   4.039   7.054  0.1396 -1.9188  1.6540
   73CHL1   H4B 7815   4.979   4.014   7.038 -2.1391 -0.3516 -2.4716
   73CHL1    C5 7816   4.904   4.064   7.237  0.4227  0.8520  0.0204
   73CHL1    C6 7817   4.977   3.971   7.301 -0.1407  0.2418  0.3880
   73CHL1    H6 7818   5.034   3.897   7.242 -2.2837 -0.4905 -0.8521
   73CHL1    C7 7819   4.966   3.935   7.451 -0.2316 -0.3100  0.1166
   73CHL1   H7A 7820   4.967   3.825   7.466  1.2149 -0.4367 -0.7485
   73CHL1   H7B 7821   5.045   3.986   7.511  0.1935 -2.4234  1.4842
   73CHL1    C8 7822   4.842   4.008   7.513 -0.6675 -0.0418  0.3956
   73CHL1    H8 7823   4.752   3.956   7.474 -0.2432 -0.2152 -0.3740
   73CHL1   C14 7824   4.855   3.999   7.664 -0.0870 -0.0953 -0.4270
   73CHL1   H14 7825   4.940   4.069   7.681  0.1128 -0.1167 -1.2828
   73CHL1   C15 7826   4.881   3.867   7.734  0.1594  0.5140 -0.4588
   73CHL1  H15A 7827   4.827   3.785   7.681 -0.6636 -0.1263  1.2911
   73CHL1  H15B 7828   4.985   3.831   7.752  0.0422  1.0915  1.6404
   73CHL1   C16 7829   4.803   3.883   7.871 -0.3372 -0.2707  0.5657
   73CHL1  H16A 7830   4.717   3.815   7.853 -0.0630 -0.2165 -1.1056
   73CHL1  H16B 7831   4.857   3.849   7.963 -0.9105  0.6048  1.2431
   73CHL1   C17 7832   4.764   4.031   7.887 -0.0549 -0.1006 -0.2375
   73CHL1   H17 7833   4.854   4.087   7.921  0.0915  0.7327 -1.8702
   73CHL1   C13 7834   4.737   4.068   7.738 -0.3115  0.1820 -0.6914
   73CHL1   C18 7835   4.604   4.004   7.691 -0.0162  0.2869 -0.1257
   73CHL1  H18A 7836   4.590   4.011   7.581  0.4582  0.0233 -0.2016
   73CHL1  H18B 7837   4.590   3.899   7.722  1.7406 -0.4826 -1.7231
   73CHL1  H18C 7838   4.513   4.051   7.735  0.3701  0.0174  0.9977
   73CHL1   C12 7839   4.750   4.217   7.701  1.0522 -0.0974 -0.8750
   73CHL1  H12A 7840   4.664   4.277   7.738 -0.1623 -0.0813 -3.4805
   73CHL1  H12B 7841   4.844   4.251   7.750  0.1820 -0.6060  1.2662
   73CHL1   C11 7842   4.744   4.240   7.551  0.2665 -0.1767 -0.6304
   73CHL1  H11A 7843   4.637   4.235   7.523 -0.1038 -1.0427  0.8945
   73CHL1  H11B 7844   4.767   4.345   7.522  0.3219 -0.0456 -0.1110
   73CHL1    C9 7845   4.837   4.152   7.464 -0.2697  0.8113 -0.2579
   73CHL1    H9 7846   4.939   4.195   7.472  0.1713  0.3432 -2.5203
   73CHL1   C10 7847   4.805   4.162   7.307 -0.6573 -0.4973  0.2394
   73CHL1   C19 7848   4.663   4.126   7.283 -0.1276 -0.4792  0.0624
   73CHL1  H19A 7849   4.594   4.207   7.316  0.4533 -0.0955  0.3489
   73CHL1  H19B 7850   4.649   4.119   7.173  0.4101  0.7738 -0.1097
   73CHL1  H19C 7851   4.643   4.025   7.324  0.4601 -1.6212 -2.2462
   73CHL1    C1 7852   4.851   4.301   7.261 -0.6923 -0.3778 -0.1886
   73CHL1   H1A 7853   4.799   4.381   7.318 -0.3871 -0.0648 -0.3451
   73CHL1   H1B 7854   4.957   4.316   7.291 -1.8257  1.7302  3.4723
   73CHL1    C2 7855   4.842   4.325   7.111 -0.0537  0.0492 -0.4107
   73CHL1   H2A 7856   4.893   4.419   7.079 -0.1859 -0.0509 -0.9114
   73CHL1   H2B 7857   4.740   4.321   7.066  0.5774 -0.2505 -1.8549
   73CHL1   C20 7858   4.644   4.060   7.979 -0.5361  0.5108 -0.0872
   73CHL1   H20 7859   4.544   4.045   7.932 -1.8815  1.6497  2.2458
   73CHL1   C21 7860   4.650   4.207   8.035 -0.6535 -0.4755  0.2344
   73CHL1  H21A 7861   4.555   4.230   8.087  0.3469 -0.1390  1.9936
   73CHL1  H21B 7862   4.667   4.283   7.956 -1.3068  0.4404  0.9553
   73CHL1  H21C 7863   4.728   4.227   8.113  0.3663  0.8092 -1.0594
   73CHL1   C22 7864   4.646   3.962   8.102 -0.3914 -0.5014  0.8834
   73CHL1  H22A 7865   4.624   3.861   8.060 -2.7898  1.3551 -2.8461
   73CHL1  H22B 7866   4.750   3.978   8.137  0.9475  1.6437 -3.3863
   73CHL1   C23 7867   4.543   4.003   8.215  0.4885  0.0806 -0.1716
   73CHL1  H23A 7868   4.581   4.093   8.268 -1.0626  1.8332 -1.9127
   73CHL1  H23B 7869   4.449   4.030   8.162 -0.0077 -3.4291 -1.3091
   73CHL1   C24 7870   4.515   3.884   8.310  0.2491 -0.0722  0.3726
   73CHL1  H24A 7871   4.474   3.812   8.235 -0.6917  1.7970 -0.9881
   73CHL1  H24B 7872   4.611   3.847   8.353  2.2915  2.2402 -1.8298
   73CHL1   C25 7873   4.425   3.922   8.424 -0.9791 -0.0498  0.4280
   73CHL1   H25 7874   4.337   3.975   8.381 -0.5525  1.4104  1.2788
   73CHL1   C26 7875   4.373   3.790   8.491  0.5762 -0.2549  0.4152
   73CHL1  H26A 7876   4.456   3.734   8.540  1.2727 -1.5466 -2.0785
   73CHL1  H26B 7877   4.292   3.825   8.559  0.0498  1.5864 -1.0662
   73CHL1  H26C 7878   4.332   3.718   8.417  0.1130 -0.9783  1.3453
   73CHL1   C27 7879   4.499   4.011   8.523 -0.2271 -0.2924  0.1946
   73CHL1  H27A 7880   4.438   4.019   8.615 -0.6476 -2.4678  0.1590
   73CHL1  H27B 7881   4.597   3.967   8.554  0.2853  1.5412  1.2998
   73CHL1  H27C 7882   4.515   4.112   8.480  0.3362 -0.5863 -0.3006
   74CHL1    C3 7883   3.392   4.694   7.151 -0.3272 -0.0720 -0.9519
   74CHL1    H3 7884   3.310   4.769   7.147  1.1169  1.7304  1.1937
   74CHL1    O3 7885   3.457   4.695   7.024 -0.7382  0.1319 -0.4291
   74CHL1   H3' 7886   3.437   4.604   7.001 -1.6060  0.1834  0.0535
   74CHL1    C4 7887   3.494   4.738   7.256 -0.2276  0.7741  0.5855
   74CHL1   H4A 7888   3.575   4.663   7.242  0.0552  1.6155 -3.5602
   74CHL1   H4B 7889   3.542   4.833   7.226 -0.3504  0.5271 -0.4152
   74CHL1    C5 7890   3.439   4.735   7.396  0.1128  0.0071 -0.2727
   74CHL1    C6 7891   3.462   4.838   7.481  0.0622 -1.0533  0.3227
   74CHL1    H6 7892   3.516   4.928   7.448 -1.0785 -0.2416  0.5808
   74CHL1    C7 7893   3.411   4.848   7.626 -0.7501 -0.2447  0.5882
   74CHL1   H7A 7894   3.488   4.891   7.693 -1.0983 -0.0476  0.8625
   74CHL1   H7B 7895   3.318   4.908   7.627  0.6673  2.1003 -0.3022
   74CHL1    C8 7896   3.376   4.701   7.666 -0.1816 -0.5904 -0.7260
   74CHL1    H8 7897   3.466   4.639   7.686 -1.3781 -1.6696  1.8693
   74CHL1   C14 7898   3.307   4.716   7.804 -0.6029  0.1728  0.6236
   74CHL1   H14 7899   3.215   4.779   7.799 -1.6517 -0.9346  3.8781
   74CHL1   C15 7900   3.392   4.790   7.915 -0.0519 -0.1278  0.9242
   74CHL1  H15A 7901   3.500   4.767   7.904 -0.2964 -1.1045  0.4990
   74CHL1  H15B 7902   3.375   4.900   7.912  1.3921  0.1135  0.9321
   74CHL1   C16 7903   3.335   4.731   8.044  0.4273  0.1483  0.3745
   74CHL1  H16A 7904   3.411   4.666   8.094 -0.2029 -1.4014 -0.6400
   74CHL1  H16B 7905   3.294   4.806   8.115 -0.4544 -0.3791  0.4323
   74CHL1   C17 7906   3.221   4.632   8.005 -0.2680 -0.3313  0.2128
   74CHL1   H17 7907   3.135   4.701   7.997  0.5109  0.6156 -0.1434
   74CHL1   C13 7908   3.258   4.581   7.863 -0.8628  0.5513 -0.6379
   74CHL1   C18 7909   3.369   4.477   7.880  0.0617  0.1869  0.1321
   74CHL1  H18A 7910   3.453   4.516   7.942 -0.3207  0.8730  0.2205
   74CHL1  H18B 7911   3.329   4.387   7.931 -1.3059  0.8980  0.3622
   74CHL1  H18C 7912   3.414   4.458   7.780  0.9322  3.0740 -0.1221
   74CHL1   C12 7913   3.151   4.529   7.761  0.3978 -1.3103 -0.0902
   74CHL1  H12A 7914   3.124   4.434   7.812 -4.1095 -0.7202 -0.9369
   74CHL1  H12B 7915   3.059   4.592   7.766  0.5768 -1.0950  0.7713
   74CHL1   C11 7916   3.209   4.505   7.622 -0.0836 -0.1369 -1.1104
   74CHL1  H11A 7917   3.285   4.425   7.630 -1.2582 -1.2308 -0.5237
   74CHL1  H11B 7918   3.126   4.465   7.558 -0.0257  0.2578 -1.4353
   74CHL1    C9 7919   3.281   4.633   7.567  0.5348 -0.5430  0.8846
   74CHL1    H9 7920   3.197   4.703   7.550  0.3433 -1.1997 -1.1801
   74CHL1   C10 7921   3.353   4.607   7.431  0.0112  0.3202  0.6940
   74CHL1   C19 7922   3.451   4.486   7.462 -0.1029  0.3244  0.0424
   74CHL1  H19A 7923   3.397   4.391   7.444  1.2764 -0.4547 -0.1426
   74CHL1  H19B 7924   3.541   4.490   7.397 -1.4975  0.8518 -1.9207
   74CHL1  H19C 7925   3.491   4.493   7.566  0.8060  0.3930 -0.3011
   74CHL1    C1 7926   3.259   4.566   7.316 -0.1093  0.7265 -0.0927
   74CHL1   H1A 7927   3.202   4.474   7.341 -1.4819  1.5608 -0.0480
   74CHL1   H1B 7928   3.181   4.645   7.315  2.1820  3.1295 -0.0612
   74CHL1    C2 7929   3.322   4.562   7.178 -0.1865 -0.8231  0.4025
   74CHL1   H2A 7930   3.259   4.527   7.093 -0.7829  2.0752 -0.4277
   74CHL1   H2B 7931   3.393   4.476   7.180 -0.9928 -1.5021  0.7171
   74CHL1   C20 7932   3.184   4.541   8.126  0.2458 -0.3508  0.1851
   74CHL1   H20 7933   3.269   4.473   8.150  0.7032 -0.3824 -1.4311
   74CHL1   C21 7934   3.053   4.458   8.087 -0.0765 -0.4187 -0.1513
   74CHL1  H21A 7935   3.012   4.412   8.180 -1.1657 -1.3060 -1.0362
   74CHL1  H21B 7936   3.083   4.385   8.008  2.5174 -0.2725  0.5862
   74CHL1  H21C 7937   2.971   4.527   8.059  1.5791  1.3974 -0.7792
   74CHL1   C22 7938   3.144   4.624   8.253 -0.1170  0.3294 -0.3142
   74CHL1  H22A 7939   3.113   4.546   8.326 -2.4278  1.7690  0.3643
   74CHL1  H22B 7940   3.237   4.677   8.284 -0.1226 -0.1674  0.5674
   74CHL1   C23 7941   3.024   4.728   8.249 -0.1181  0.1801 -0.1282
   74CHL1  H23A 7942   3.046   4.809   8.176  0.0705  1.2652  1.1067
   74CHL1  H23B 7943   2.940   4.668   8.207  0.8623  0.1084 -2.1225
   74CHL1   C24 7944   2.988   4.782   8.387 -0.5307  0.5808 -0.3553
   74CHL1  H24A 7945   3.004   4.701   8.462  0.2528  0.6794 -0.4086
   74CHL1  H24B 7946   3.061   4.861   8.415 -1.4952  1.0505  0.9914
   74CHL1   C25 7947   2.844   4.840   8.397 -0.1320  0.6109  0.3106
   74CHL1   H25 7948   2.764   4.772   8.360  0.4410  0.6880 -1.1002
   74CHL1   C26 7949   2.806   4.885   8.538 -0.2260 -0.1799 -0.1072
   74CHL1  H26A 7950   2.843   4.816   8.617 -0.8331 -0.2758  0.0947
   74CHL1  H26B 7951   2.837   4.990   8.555 -1.2778  0.1734 -0.2888
   74CHL1  H26C 7952   2.695   4.877   8.545 -0.2229 -0.5436 -0.4284
   74CHL1   C27 7953   2.827   4.971   8.311 -0.0947  0.1158  1.0386
   74CHL1  H27A 7954   2.853   4.953   8.204 -3.1642 -1.6913  0.4800
   74CHL1  H27B 7955   2.721   5.003   8.311  0.2621  1.3771  0.2641
   74CHL1  H27C 7956   2.894   5.052   8.347  2.0232 -1.1077  0.0921
   75CHL1    C3 7957   6.798   1.902   6.565 -0.5164 -0.1431  0.4097
   75CHL1    H3 7958   6.704   1.961   6.567 -0.2564  0.3929 -1.3587
   75CHL1    O3 7959   6.840   1.873   6.427  0.0089 -0.1084  0.1411
   75CHL1   H3' 7960   6.753   1.851   6.392  0.1014  1.0947 -0.9388
   75CHL1    C4 7961   6.914   1.974   6.630 -0.6917 -0.0357  0.1669
   75CHL1   H4A 7962   7.003   1.911   6.609 -1.4855 -1.4555  0.9557
   75CHL1   H4B 7963   6.931   2.067   6.572  0.6957 -0.6356 -0.4326
   75CHL1    C5 7964   6.890   2.008   6.774 -0.2494  0.2630 -0.2594
   75CHL1    C6 7965   6.888   2.130   6.816  0.2595 -0.2627  0.1556
   75CHL1    H6 7966   6.922   2.210   6.749  1.3449 -0.5561  0.3413
   75CHL1    C7 7967   6.881   2.166   6.965  0.7821  0.0806 -0.8205
   75CHL1   H7A 7968   6.946   2.249   6.999 -0.6678  1.4387 -1.2258
   75CHL1   H7B 7969   6.781   2.214   6.978  1.3815  1.3751 -0.8662
   75CHL1    C8 7970   6.887   2.040   7.056 -0.7010  0.2977  0.3418
   75CHL1    H8 7971   6.986   1.990   7.063 -1.5328 -1.3853  0.6465
   75CHL1   C14 7972   6.852   2.069   7.204 -0.4763  0.4995 -0.1971
   75CHL1   H14 7973   6.745   2.098   7.194 -0.1629  1.1891 -1.8889
   75CHL1   C15 7974   6.941   2.175   7.276  0.5104  0.4250  0.9992
   75CHL1  H15A 7975   7.046   2.139   7.280  0.2369 -0.5868 -0.2822
   75CHL1  H15B 7976   6.953   2.275   7.228  2.7864 -0.3589 -0.2405
   75CHL1   C16 7977   6.902   2.171   7.421  0.5923  0.3003  0.2661
   75CHL1  H16A 7978   6.984   2.184   7.495  0.9596  1.5508 -0.3324
   75CHL1  H16B 7979   6.831   2.254   7.444  1.6365  0.8234  1.7742
   75CHL1   C17 7980   6.822   2.037   7.434  0.3363 -0.4992 -0.2719
   75CHL1   H17 7981   6.722   2.085   7.425  0.6242  0.4103  1.0312
   75CHL1   C13 7982   6.845   1.949   7.303 -0.1157  0.0031  0.0697
   75CHL1   C18 7983   6.984   1.878   7.324  0.8035  0.0438  0.0866
   75CHL1  H18A 7984   6.976   1.783   7.381 -2.1652  1.2428  1.9296
   75CHL1  H18B 7985   7.029   1.853   7.226  0.5671  1.8913 -0.5269
   75CHL1  H18C 7986   7.055   1.946   7.375 -0.9617  1.3321  0.9568
   75CHL1   C12 7987   6.736   1.856   7.248  0.1794  0.6704  0.4467
   75CHL1  H12A 7988   6.712   1.767   7.311 -2.1926  2.8891  2.9591
   75CHL1  H12B 7989   6.637   1.906   7.260 -0.4850  0.0084 -1.8714
   75CHL1   C11 7990   6.765   1.815   7.098  0.0518 -0.2557 -0.2738
   75CHL1  H11A 7991   6.840   1.732   7.093  0.0961 -0.1475 -1.7019
   75CHL1  H11B 7992   6.673   1.764   7.062  0.6853 -1.7351  0.0805
   75CHL1    C9 7993   6.797   1.928   6.997 -0.3394  0.1949 -0.4616
   75CHL1    H9 7994   6.703   1.983   6.976 -0.7636  1.3549  3.6190
   75CHL1   C10 7995   6.846   1.878   6.861 -0.6659 -0.0211 -0.0339
   75CHL1   C19 7996   6.979   1.792   6.882  0.4482  0.6225 -0.2351
   75CHL1  H19A 7997   6.968   1.694   6.932 -0.2128 -0.6002 -2.6101
   75CHL1  H19B 7998   7.032   1.760   6.789  0.6187 -0.3209  0.1760
   75CHL1  H19C 7999   7.059   1.846   6.937 -1.7146  1.2337  2.5302
   75CHL1    C1 8000   6.743   1.790   6.792  0.3281  0.6152 -0.1334
   75CHL1   H1A 8001   6.749   1.696   6.853 -1.2247 -0.4102 -1.4706
   75CHL1   H1B 8002   6.647   1.842   6.811  0.1443  0.9921 -1.9969
   75CHL1    C2 8003   6.773   1.770   6.640  0.1495  0.6642 -0.5940
   75CHL1   H2A 8004   6.687   1.720   6.591  1.7085  0.6340 -3.5043
   75CHL1   H2B 8005   6.858   1.701   6.620  0.9156  1.7651 -1.2821
   75CHL1   C20 8006   6.843   1.960   7.571  0.5908 -0.2382  0.0128
   75CHL1   H20 8007   6.944   1.915   7.575  1.1423  0.5453 -3.0212
   75CHL1   C21 8008   6.761   1.828   7.560  0.2578  0.4540 -0.9434
   75CHL1  H21A 8009   6.655   1.839   7.527 -0.9715 -3.0126  1.3422
   75CHL1  H21B 8010   6.772   1.777   7.658  0.7624 -0.9132 -1.6927
   75CHL1  H21C 8011   6.801   1.761   7.481  1.0388 -0.0920 -0.0994
   75CHL1   C22 8012   6.809   2.048   7.699 -0.0833 -0.6749 -0.2183
   75CHL1  H22A 8013   6.868   2.142   7.696  1.0928 -1.4030 -2.9033
   75CHL1  H22B 8014   6.702   2.074   7.686 -0.1785 -0.8396  0.2089
   75CHL1   C23 8015   6.820   1.979   7.833  0.8624  0.0042  0.0722
   75CHL1  H23A 8016   6.727   1.920   7.844 -1.6725  3.5505 -0.5815
   75CHL1  H23B 8017   6.909   1.913   7.845  0.7758 -0.2274 -0.4939
   75CHL1   C24 8018   6.825   2.056   7.961  0.1038 -0.1647  0.2146
   75CHL1  H24A 8019   6.912   2.124   7.974 -1.1785  1.3125  1.4286
   75CHL1  H24B 8020   6.728   2.109   7.973  0.1545  0.0703 -0.3385
   75CHL1   C25 8021   6.827   1.963   8.083 -0.2086 -0.6998 -0.0300
   75CHL1   H25 8022   6.743   1.893   8.064 -0.0368 -0.7405 -0.6454
   75CHL1   C26 8023   6.956   1.875   8.100  0.6845  0.6404  0.4646
   75CHL1  H26A 8024   6.945   1.813   8.191 -1.3773  1.5400  0.8774
   75CHL1  H26B 8025   6.984   1.818   8.008  0.0245  1.6174 -0.3608
   75CHL1  H26C 8026   7.043   1.944   8.114  0.6094  0.5575  1.3547
   75CHL1   C27 8027   6.793   2.036   8.214 -0.1068 -0.3141  0.2915
   75CHL1  H27A 8028   6.767   1.957   8.287  0.7357 -0.6935  0.2023
   75CHL1  H27B 8029   6.879   2.099   8.248  2.5072 -3.4202 -0.0363
   75CHL1  H27C 8030   6.701   2.096   8.196 -0.2247 -0.3359  0.8143
   76CHL1    C3 8031   5.801   5.828   7.160 -0.0880 -0.0813 -0.3879
   76CHL1    H3 8032   5.873   5.912   7.159 -2.1804  1.7916  0.3003
   76CHL1    O3 8033   5.755   5.804   7.024  0.1487 -0.4729  0.3971
   76CHL1   H3' 8034   5.823   5.741   6.998 -1.1295 -1.3516 -0.9275
   76CHL1    C4 8035   5.872   5.702   7.212  0.0512  0.6120 -0.0421
   76CHL1   H4A 8036   5.813   5.615   7.177 -1.6646  1.0379  1.5961
   76CHL1   H4B 8037   5.970   5.686   7.162 -0.5014  0.3315 -1.0627
   76CHL1    C5 8038   5.893   5.694   7.359 -0.3594  0.4266 -0.0863
   76CHL1    C6 8039   6.017   5.664   7.409 -1.0956  0.5367 -0.0790
   76CHL1    H6 8040   6.106   5.645   7.346  0.8321  0.0395  2.6023
   76CHL1    C7 8041   6.047   5.646   7.558 -0.2197 -0.1897 -0.7558
   76CHL1   H7A 8042   6.103   5.553   7.582 -0.0884  0.1121  0.1282
   76CHL1   H7B 8043   6.107   5.729   7.601 -0.9981  0.4533 -0.8842
   76CHL1    C8 8044   5.919   5.645   7.648  0.5448  0.1570 -0.1718
   76CHL1    H8 8045   5.863   5.549   7.638 -2.6879  1.7178  1.3784
   76CHL1   C14 8046   5.961   5.655   7.792 -0.1325 -1.0299  0.0461
   76CHL1   H14 8047   6.001   5.759   7.790  0.7340 -1.3508 -1.4302
   76CHL1   C15 8048   6.071   5.567   7.846 -0.6266  0.3893  0.2365
   76CHL1  H15A 8049   6.080   5.464   7.806 -0.4110 -0.0097  1.2660
   76CHL1  H15B 8050   6.165   5.623   7.831  0.1794 -0.9445  0.1850
   76CHL1   C16 8051   6.053   5.585   7.996  0.1730 -0.0606  0.1270
   76CHL1  H16A 8052   6.039   5.487   8.047  0.8013 -0.8698 -1.1971
   76CHL1  H16B 8053   6.140   5.631   8.048  0.9104 -0.3882 -0.7883
   76CHL1   C17 8054   5.919   5.667   8.023  0.2773 -0.4213  0.6685
   76CHL1   H17 8055   5.947   5.775   8.026 -1.9340  0.2135  0.0615
   76CHL1   C13 8056   5.847   5.655   7.888  0.3822 -0.0072  0.1776
   76CHL1   C18 8057   5.771   5.520   7.882  0.3280  0.0496 -0.0883
   76CHL1  H18A 8058   5.682   5.534   7.947  1.3096  1.7753  0.9399
   76CHL1  H18B 8059   5.734   5.493   7.781 -3.5395  2.0828  0.6240
   76CHL1  H18C 8060   5.829   5.439   7.932 -0.7062  0.0344  1.1350
   76CHL1   C12 8061   5.746   5.770   7.849  0.0217  0.4036  0.4207
   76CHL1  H12A 8062   5.663   5.769   7.923 -1.5899  1.3488 -1.2916
   76CHL1  H12B 8063   5.804   5.864   7.863  0.5095  0.2467 -0.4579
   76CHL1   C11 8064   5.694   5.770   7.699  0.3418 -0.2524  0.6115
   76CHL1  H11A 8065   5.624   5.684   7.691  1.2940 -0.9937  0.0952
   76CHL1  H11B 8066   5.641   5.862   7.667  0.7965 -0.8433 -2.0553
   76CHL1    C9 8067   5.816   5.753   7.608  0.0938  0.0691  0.0045
   76CHL1    H9 8068   5.874   5.847   7.622  0.1688 -0.3824  3.5633
   76CHL1   C10 8069   5.775   5.732   7.461 -0.5137  0.0821  0.0393
   76CHL1   C19 8070   5.675   5.619   7.449  0.4066  0.0952 -0.7972
   76CHL1  H19A 8071   5.713   5.522   7.490 -0.0046 -0.5405 -1.8679
   76CHL1  H19B 8072   5.583   5.640   7.507  1.1798 -1.5651  1.1796
   76CHL1  H19C 8073   5.639   5.592   7.347  0.2591 -0.5208 -0.5899
   76CHL1    C1 8074   5.716   5.861   7.406  0.3440 -0.4095 -1.1018
   76CHL1   H1A 8075   5.630   5.875   7.474  1.3630 -1.0396  0.3652
   76CHL1   H1B 8076   5.795   5.939   7.416 -0.3692  0.3882 -1.5252
   76CHL1    C2 8077   5.681   5.848   7.255 -1.2500  0.2037 -0.5261
   76CHL1   H2A 8078   5.622   5.938   7.228 -0.8821 -0.1497 -2.6527
   76CHL1   H2B 8079   5.610   5.763   7.242  2.2110 -2.8002 -1.3141
   76CHL1   C20 8080   5.847   5.624   8.150  0.4140 -0.1071  0.4821
   76CHL1   H20 8081   5.821   5.516   8.141  0.3294 -0.0795  0.3815
   76CHL1   C21 8082   5.718   5.702   8.174  0.0059  0.5772  0.3740
   76CHL1  H21A 8083   5.657   5.669   8.261 -0.5538 -0.5894 -0.4256
   76CHL1  H21B 8084   5.651   5.690   8.086  1.2878  2.7737 -0.9964
   76CHL1  H21C 8085   5.741   5.811   8.182  1.2748  0.3791 -0.3702
   76CHL1   C22 8086   5.939   5.641   8.276  0.4679  0.4900  0.1667
   76CHL1  H22A 8087   6.043   5.605   8.265  0.4669  0.3672  0.5378
   76CHL1  H22B 8088   5.942   5.749   8.302  1.7723  0.1895  1.3997
   76CHL1   C23 8089   5.886   5.560   8.396  0.5668  0.0069  0.0709
   76CHL1  H23A 8090   5.776   5.551   8.383  0.5093 -0.7172  1.0500
   76CHL1  H23B 8091   5.926   5.457   8.400 -0.7243 -0.7172 -2.9598
   76CHL1   C24 8092   5.927   5.622   8.525 -0.0906  0.1983  0.1945
   76CHL1  H24A 8093   6.038   5.625   8.523 -0.1056  2.3170  0.3917
   76CHL1  H24B 8094   5.892   5.728   8.520  0.7846  0.4987  0.2753
   76CHL1   C25 8095   5.863   5.572   8.654  0.6167  0.4843  0.0745
   76CHL1   H25 8096   5.885   5.464   8.648 -1.7316 -0.0332 -0.0536
   76CHL1   C26 8097   5.927   5.632   8.778 -0.2822 -0.2872 -0.0115
   76CHL1  H26A 8098   5.900   5.565   8.862  2.0960 -0.5382  0.6361
   76CHL1  H26B 8099   6.038   5.634   8.767 -0.2731  1.4453  0.0712
   76CHL1  H26C 8100   5.891   5.732   8.809  1.1284 -0.2365  1.6151
   76CHL1   C27 8101   5.715   5.589   8.673  0.7599 -0.4248  1.0419
   76CHL1  H27A 8102   5.676   5.532   8.760 -1.9956 -1.3088 -0.6371
   76CHL1  H27B 8103   5.681   5.694   8.687  0.4831 -0.2966 -0.4302
   76CHL1  H27C 8104   5.655   5.553   8.587  0.5638  1.0743  0.5211
   77CHL1    C3 8105   6.323   1.800   6.813  0.1469 -0.1240 -0.3154
   77CHL1    H3 8106   6.402   1.722   6.820 -0.7611 -1.5270 -3.5860
   77CHL1    O3 8107   6.302   1.816   6.673 -0.1453 -0.1480  0.2266
   77CHL1   H3' 8108   6.373   1.769   6.628  1.2801  0.9343  1.2513
   77CHL1    C4 8109   6.189   1.772   6.880 -0.0256  0.8812  0.1791
   77CHL1   H4A 8110   6.124   1.859   6.855 -1.3992  0.0255  0.6627
   77CHL1   H4B 8111   6.149   1.679   6.835  0.2924  0.7273  0.2113
   77CHL1    C5 8112   6.204   1.759   7.031 -0.4735 -0.1074 -0.2377
   77CHL1    C6 8113   6.159   1.655   7.099  0.4917  0.0975 -0.1590
   77CHL1    H6 8114   6.103   1.576   7.047  1.6602 -0.5993 -0.4175
   77CHL1    C7 8115   6.169   1.633   7.249  0.0916 -0.4801  0.0289
   77CHL1   H7A 8116   6.082   1.588   7.302 -1.6397 -0.1872 -2.4005
   77CHL1   H7B 8117   6.261   1.575   7.272 -0.1126 -0.9372 -0.3145
   77CHL1    C8 8118   6.196   1.774   7.319  0.3240 -0.3897 -0.9151
   77CHL1    H8 8119   6.096   1.822   7.329 -0.4055 -2.2634  5.5688
   77CHL1   C14 8120   6.245   1.754   7.464  0.6593  0.0838 -0.9623
   77CHL1   H14 8121   6.345   1.705   7.459  1.2742  1.1583  0.1976
   77CHL1   C15 8122   6.154   1.659   7.554 -0.3682  0.3629  0.9241
   77CHL1  H15A 8123   6.048   1.679   7.525 -0.6610 -1.9928  0.1886
   77CHL1  H15B 8124   6.168   1.549   7.550 -0.9372  0.2626  1.5268
   77CHL1   C16 8125   6.185   1.708   7.697 -0.8620 -0.1195 -0.3889
   77CHL1  H16A 8126   6.091   1.735   7.750  0.4921  1.6430  1.2325
   77CHL1  H16B 8127   6.222   1.626   7.762  0.3124  0.8797  0.2388
   77CHL1   C17 8128   6.287   1.827   7.690  0.2604 -0.0693 -0.1740
   77CHL1   H17 8129   6.391   1.790   7.682  0.4784  0.6576 -0.8889
   77CHL1   C13 8130   6.256   1.879   7.543 -0.8644 -0.4192 -0.4041
   77CHL1   C18 8131   6.120   1.951   7.543  0.2296 -0.5146 -0.0574
   77CHL1  H18A 8132   6.092   1.972   7.438  0.2478 -1.2227 -0.2084
   77CHL1  H18B 8133   6.047   1.888   7.598  1.8647 -3.9349 -1.5515
   77CHL1  H18C 8134   6.121   2.051   7.593 -1.7224 -0.6560  0.3395
   77CHL1   C12 8135   6.362   1.974   7.472  0.0752 -0.4527  1.0541
   77CHL1  H12A 8136   6.369   2.076   7.516 -0.8880 -1.0778  2.7510
   77CHL1  H12B 8137   6.459   1.924   7.488  0.6660  0.1534 -0.4754
   77CHL1   C11 8138   6.328   2.000   7.324  0.7419  0.0639  0.0971
   77CHL1  H11A 8139   6.237   2.064   7.316  0.5027 -0.3426 -0.5413
   77CHL1  H11B 8140   6.408   2.053   7.268 -0.7676  0.7590 -1.5336
   77CHL1    C9 8141   6.304   1.864   7.249 -0.4488  0.1905 -0.0718
   77CHL1    H9 8142   6.399   1.807   7.255 -1.2691 -1.3951 -1.4121
   77CHL1   C10 8143   6.270   1.881   7.100  0.2626 -0.1892  0.9534
   77CHL1   C19 8144   6.173   2.007   7.082 -0.1018  0.4260  0.0096
   77CHL1  H19A 8145   6.148   2.019   6.974  4.3826  0.0803 -1.2653
   77CHL1  H19B 8146   6.082   1.994   7.143 -0.2947  1.9766  0.0949
   77CHL1  H19C 8147   6.223   2.104   7.099  0.2932  0.3462 -0.6492
   77CHL1    C1 8148   6.396   1.912   7.023  0.7351  0.1171 -0.4779
   77CHL1   H1A 8149   6.443   2.003   7.066  0.4070 -0.2603  0.7470
   77CHL1   H1B 8150   6.468   1.828   7.037 -0.1643 -0.5624  0.1981
   77CHL1    C2 8151   6.376   1.931   6.874  0.0454  0.0074 -0.3322
   77CHL1   H2A 8152   6.477   1.949   6.831 -0.6752  0.6395 -1.8470
   77CHL1   H2B 8153   6.310   2.018   6.852  0.8491  0.3183 -1.6916
   77CHL1   C20 8154   6.276   1.926   7.807  0.1180  0.1995 -0.6586
   77CHL1   H20 8155   6.184   1.986   7.797  0.5507  0.8293 -0.9213
   77CHL1   C21 8156   6.399   2.016   7.797  0.8018  0.3553 -0.0570
   77CHL1  H21A 8157   6.421   2.088   7.878  0.6375  0.6884 -0.3039
   77CHL1  H21B 8158   6.395   2.084   7.710 -0.6310  3.2688  2.1128
   77CHL1  H21C 8159   6.491   1.954   7.795 -0.8781 -2.3661  0.7987
   77CHL1   C22 8160   6.279   1.866   7.953  1.1944 -0.3678  0.3430
   77CHL1  H22A 8161   6.227   1.942   8.014 -0.5689 -2.2916  1.3451
   77CHL1  H22B 8162   6.212   1.778   7.945  2.7090 -1.5938  0.5465
   77CHL1   C23 8163   6.412   1.800   8.001 -0.0289  0.2962  0.5397
   77CHL1  H23A 8164   6.454   1.730   7.925 -0.5131  1.5833 -0.9722
   77CHL1  H23B 8165   6.481   1.885   8.014 -0.0793  0.5647 -0.7961
   77CHL1   C24 8166   6.408   1.710   8.127  0.0386 -0.3505 -0.2994
   77CHL1  H24A 8167   6.342   1.623   8.105 -1.0383 -0.2082  2.0484
   77CHL1  H24B 8168   6.504   1.667   8.161 -1.1367 -2.1930  0.8767
   77CHL1   C25 8169   6.359   1.791   8.252  0.0807  0.7435 -0.0422
   77CHL1   H25 8170   6.259   1.830   8.222  0.6219  2.5175  0.3646
   77CHL1   C26 8171   6.365   1.701   8.374 -0.0987 -0.3089 -0.2750
   77CHL1  H26A 8172   6.471   1.671   8.386 -0.0954 -0.5800 -0.9651
   77CHL1  H26B 8173   6.309   1.746   8.459 -0.9324  1.4310 -1.6773
   77CHL1  H26C 8174   6.325   1.600   8.350 -1.7308 -0.6304  3.1422
   77CHL1   C27 8175   6.439   1.918   8.280  0.0126  0.1064  0.2247
   77CHL1  H27A 8176   6.425   1.952   8.385  1.6893 -1.0071  0.8519
   77CHL1  H27B 8177   6.543   1.881   8.269  0.4566  0.5385  2.4476
   77CHL1  H27C 8178   6.424   2.003   8.210  2.7117 -1.5118 -2.5121
   78CHL1    C3 8179   0.283   2.610   6.667  0.7141  0.5628  1.2307
   78CHL1    H3 8180   0.391   2.636   6.662  0.8246 -0.1098 -0.2215
   78CHL1    O3 8181   0.229   2.583   6.540  0.5065 -0.8986 -0.1253
   78CHL1   H3' 8182   0.212   2.667   6.498 -0.7197 -1.3155 -0.5230
   78CHL1    C4 8183   0.274   2.483   6.755  0.2722 -0.0831  0.6290
   78CHL1   H4A 8184   0.168   2.455   6.741  0.0792  1.4718 -1.6464
   78CHL1   H4B 8185   0.340   2.404   6.712  0.4317 -0.2262  1.1305
   78CHL1    C5 8186   0.317   2.508   6.898  0.4881 -0.7294  0.4279
   78CHL1    C6 8187   0.405   2.436   6.968 -0.0613 -0.3370 -0.1076
   78CHL1    H6 8188   0.444   2.349   6.912 -1.2992 -0.9552 -0.0363
   78CHL1    C7 8189   0.435   2.462   7.104  0.4346  0.4512  0.1377
   78CHL1   H7A 8190   0.453   2.364   7.153 -0.2597  0.6141  0.7391
   78CHL1   H7B 8191   0.528   2.521   7.111 -0.9506  3.0567 -1.8160
   78CHL1    C8 8192   0.337   2.552   7.179  0.3259 -0.0350 -0.3445
   78CHL1    H8 8193   0.253   2.482   7.196  0.5512 -0.2498 -0.1170
   78CHL1   C14 8194   0.389   2.590   7.319  0.4726  0.5380  0.2035
   78CHL1   H14 8195   0.472   2.660   7.295  0.5107  0.3472 -0.2359
   78CHL1   C15 8196   0.460   2.479   7.400  0.6015 -0.2519  0.1799
   78CHL1  H15A 8197   0.406   2.382   7.398  1.6593 -0.9742  2.9876
   78CHL1  H15B 8198   0.564   2.464   7.365 -0.1448 -1.8079 -1.6032
   78CHL1   C16 8199   0.458   2.555   7.532 -0.3835 -0.2186  0.0226
   78CHL1  H16A 8200   0.417   2.490   7.612  2.0097  1.6481  2.9925
   78CHL1  H16B 8201   0.562   2.584   7.562  0.0190 -1.1411 -0.4545
   78CHL1   C17 8202   0.372   2.684   7.530  0.1368  0.8920 -0.7065
   78CHL1   H17 8203   0.440   2.770   7.515  0.6503  0.4400 -1.0062
   78CHL1   C13 8204   0.280   2.661   7.404 -0.7600 -0.4406 -0.2800
   78CHL1   C18 8205   0.158   2.572   7.437 -0.5426  0.6164 -0.6230
   78CHL1  H18A 8206   0.193   2.492   7.506  3.6606  1.4539 -1.4998
   78CHL1  H18B 8207   0.082   2.626   7.498 -2.0313 -2.5248  0.4945
   78CHL1  H18C 8208   0.108   2.528   7.348 -0.9971  2.6248 -1.4266
   78CHL1   C12 8209   0.239   2.790   7.326 -0.7306 -0.0227  0.1940
   78CHL1  H12A 8210   0.155   2.839   7.380 -1.2230  0.1060 -0.6765
   78CHL1  H12B 8211   0.328   2.855   7.316  0.0738 -0.8370  1.7032
   78CHL1   C11 8212   0.187   2.748   7.181  0.2412 -0.5537  0.5086
   78CHL1  H11A 8213   0.100   2.687   7.212  1.0382 -2.6466 -1.0579
   78CHL1  H11B 8214   0.149   2.837   7.127  0.7655 -0.6986 -0.1144
   78CHL1    C9 8215   0.284   2.663   7.098 -0.3299  0.0825  0.3738
   78CHL1    H9 8216   0.376   2.720   7.071  0.3096 -0.7550  0.7129
   78CHL1   C10 8217   0.234   2.626   6.960 -0.4565 -0.0929 -0.5829
   78CHL1   C19 8218   0.082   2.588   6.961 -0.7354  0.7559  0.2329
   78CHL1  H19A 8219   0.015   2.673   6.983  1.1240  1.9255  1.6444
   78CHL1  H19B 8220   0.037   2.536   6.874 -1.3158  1.8586 -0.1443
   78CHL1  H19C 8221   0.061   2.528   7.053 -0.4088 -0.2583 -0.3335
   78CHL1    C1 8222   0.238   2.752   6.871 -0.1162 -0.2078  0.4109
   78CHL1   H1A 8223   0.156   2.814   6.913 -0.9885 -0.5031 -0.8016
   78CHL1   H1B 8224   0.334   2.806   6.878 -0.7361  0.8688  0.8421
   78CHL1    C2 8225   0.201   2.723   6.729  0.3674  0.0881 -0.1340
   78CHL1   H2A 8226   0.205   2.820   6.676 -1.2504  1.0283  1.3667
   78CHL1   H2B 8227   0.094   2.694   6.733  0.1251 -0.3588 -4.6844
   78CHL1   C20 8228   0.303   2.710   7.670 -0.0827  0.0107 -0.4677
   78CHL1   H20 8229   0.240   2.620   7.689  0.9530 -0.8651 -1.0796
   78CHL1   C21 8230   0.211   2.835   7.663  1.0348 -0.8645 -0.3277
   78CHL1  H21A 8231   0.274   2.916   7.620  0.0378 -1.0401 -2.2476
   78CHL1  H21B 8232   0.169   2.882   7.754  2.1521  0.7429 -0.6018
   78CHL1  H21C 8233   0.134   2.822   7.584 -0.0790 -0.0152  0.5958
   78CHL1   C22 8234   0.409   2.717   7.778 -0.6091  0.6318 -0.1309
   78CHL1  H22A 8235   0.504   2.666   7.752  0.7227  1.4364  2.7591
   78CHL1  H22B 8236   0.430   2.822   7.807 -0.9389  0.6757 -0.0494
   78CHL1   C23 8237   0.359   2.643   7.905 -1.1932 -0.2302  0.6441
   78CHL1  H23A 8238   0.261   2.686   7.935 -0.8797  0.7257  0.3227
   78CHL1  H23B 8239   0.354   2.537   7.871  1.8918  0.2204 -1.5489
   78CHL1   C24 8240   0.453   2.658   8.031  0.4277 -0.3908  0.5321
   78CHL1  H24A 8241   0.449   2.756   8.082  2.1140 -0.5466  1.0228
   78CHL1  H24B 8242   0.410   2.594   8.111 -0.9253 -0.4407 -0.2069
   78CHL1   C25 8243   0.601   2.626   8.013 -0.6989  0.1724 -0.6222
   78CHL1   H25 8244   0.642   2.703   7.944  0.2687 -0.8019 -1.1671
   78CHL1   C26 8245   0.683   2.649   8.140 -0.2526  0.4328  0.1734
   78CHL1  H26A 8246   0.792   2.667   8.126 -0.5493  0.8335 -1.9235
   78CHL1  H26B 8247   0.635   2.730   8.199 -1.6379 -1.5913  1.9592
   78CHL1  H26C 8248   0.654   2.556   8.194  0.5858  0.1929  0.2350
   78CHL1   C27 8249   0.638   2.492   7.945  0.3053 -0.7580  0.2580
   78CHL1  H27A 8250   0.611   2.486   7.837 -0.2152 -0.0985  0.3428
   78CHL1  H27B 8251   0.748   2.482   7.945  0.4310  0.3667 -0.3732
   78CHL1  H27C 8252   0.592   2.401   7.988  0.2929 -0.6216  0.5368
   79CHL1    C3 8253   6.228   2.878   6.965  0.1406 -0.5098 -0.6809
   79CHL1    H3 8254   6.329   2.834   6.957 -0.8680 -2.7203 -2.5666
   79CHL1    O3 8255   6.189   2.876   6.828  0.1959  0.2041 -0.1002
   79CHL1   H3' 8256   6.188   2.782   6.806  2.3521 -0.1205  0.9696
   79CHL1    C4 8257   6.133   2.792   7.058  0.0602  0.2014 -0.1522
   79CHL1   H4A 8258   6.024   2.804   7.039 -0.4314 -0.4413  2.0127
   79CHL1   H4B 8259   6.145   2.690   7.014  0.3499  0.5690 -0.9392
   79CHL1    C5 8260   6.157   2.799   7.206 -0.7181  0.3658 -0.0395
   79CHL1    C6 8261   6.177   2.686   7.280 -0.4152  0.6669 -0.1330
   79CHL1    H6 8262   6.148   2.594   7.228 -1.8623  0.4957  0.8874
   79CHL1    C7 8263   6.206   2.697   7.423 -0.5155 -0.1678 -0.7008
   79CHL1   H7A 8264   6.165   2.617   7.488  0.9041 -1.1238 -0.9339
   79CHL1   H7B 8265   6.313   2.672   7.435 -0.7613 -1.1393 -0.4290
   79CHL1    C8 8266   6.177   2.842   7.488  0.0603 -0.0717 -0.2886
   79CHL1    H8 8267   6.067   2.843   7.507  0.2041 -2.1707  1.0172
   79CHL1   C14 8268   6.238   2.851   7.631 -0.1327 -0.2069 -0.3803
   79CHL1   H14 8269   6.346   2.832   7.615  0.1462  1.8135 -1.2893
   79CHL1   C15 8270   6.191   2.743   7.726 -0.0966 -0.8690 -0.5358
   79CHL1  H15A 8271   6.083   2.723   7.710 -0.2981  0.0942 -0.4066
   79CHL1  H15B 8272   6.246   2.648   7.706  0.5579 -0.5231 -0.4377
   79CHL1   C16 8273   6.223   2.793   7.870 -0.9524 -0.6148 -0.0255
   79CHL1  H16A 8274   6.133   2.780   7.934 -0.3972  0.1154  0.9464
   79CHL1  H16B 8275   6.311   2.738   7.908  1.0622  3.1280  1.2418
   79CHL1   C17 8276   6.256   2.948   7.845  0.0367 -0.7568 -0.5064
   79CHL1   H17 8277   6.367   2.955   7.842  0.0526 -0.3362  0.8064
   79CHL1   C13 8278   6.209   2.985   7.701  0.3781  0.3018  0.2413
   79CHL1   C18 8279   6.056   3.012   7.705 -0.3872  0.2084  0.6527
   79CHL1  H18A 8280   6.044   3.121   7.720 -0.4126 -0.0173  2.4398
   79CHL1  H18B 8281   5.992   2.993   7.617 -1.5809 -0.3102  1.6091
   79CHL1  H18C 8282   5.992   2.958   7.778 -1.7957  2.2735  1.0168
   79CHL1   C12 8283   6.290   3.084   7.618  0.1357  0.2300  0.5555
   79CHL1  H12A 8284   6.302   3.187   7.658 -2.9363  0.6327  0.6366
   79CHL1  H12B 8285   6.394   3.045   7.612 -0.3615 -0.9349 -2.6126
   79CHL1   C11 8286   6.232   3.088   7.474 -0.0242  0.7489  0.1715
   79CHL1  H11A 8287   6.127   3.124   7.470  0.6246  2.6359 -2.2668
   79CHL1  H11B 8288   6.284   3.154   7.402 -2.4793 -0.2562 -2.7285
   79CHL1    C9 8289   6.232   2.945   7.400  0.0773  0.0495  0.6110
   79CHL1    H9 8290   6.339   2.917   7.388  0.0627  0.3860 -0.4168
   79CHL1   C10 8291   6.174   2.939   7.262  0.1629 -0.6184  0.2118
   79CHL1   C19 8292   6.023   2.992   7.258 -0.0011 -0.0902 -0.0468
   79CHL1  H19A 8293   5.988   2.995   7.153  0.0975  1.1931 -0.0628
   79CHL1  H19B 8294   5.972   2.937   7.339  1.8983 -0.5432  0.9043
   79CHL1  H19C 8295   6.022   3.102   7.274  0.0072  0.0630 -1.0731
   79CHL1    C1 8296   6.264   3.030   7.161 -0.2792  0.5647 -0.3813
   79CHL1   H1A 8297   6.271   3.136   7.195 -0.2837  0.9709 -1.5803
   79CHL1   H1B 8298   6.368   2.991   7.166 -0.8457 -1.6484 -3.5110
   79CHL1    C2 8299   6.238   3.026   7.007  0.1245  0.3899  0.3427
   79CHL1   H2A 8300   6.306   3.092   6.948 -1.9968  0.5771 -2.0705
   79CHL1   H2B 8301   6.139   3.073   6.988 -0.8210 -1.6663 -0.1214
   79CHL1   C20 8302   6.214   3.034   7.967  0.3812 -0.0536  0.2082
   79CHL1   H20 8303   6.107   3.013   7.988  0.2060 -0.0569 -0.6542
   79CHL1   C21 8304   6.228   3.185   7.930  0.1726 -0.0802  0.0963
   79CHL1  H21A 8305   6.229   3.250   8.019  2.5881  1.2435 -0.8205
   79CHL1  H21B 8306   6.136   3.213   7.874  2.2092  2.1405 -2.3645
   79CHL1  H21C 8307   6.317   3.205   7.867  0.0102  1.9862  0.4652
   79CHL1   C22 8308   6.290   2.993   8.094  0.7575 -0.3729 -0.1674
   79CHL1  H22A 8309   6.269   2.885   8.113  1.0027 -0.7249 -1.7447
   79CHL1  H22B 8310   6.400   3.001   8.081  0.4927  0.5654 -2.1254
   79CHL1   C23 8311   6.254   3.060   8.227 -0.2456 -0.0213 -0.4706
   79CHL1  H23A 8312   6.301   2.999   8.307 -0.6037  0.1490 -0.1238
   79CHL1  H23B 8313   6.297   3.162   8.222  1.9494 -0.8685  0.0072
   79CHL1   C24 8314   6.103   3.062   8.256 -0.1068 -0.3257  0.3066
   79CHL1  H24A 8315   6.042   3.126   8.189  0.7653  0.4880  0.2663
   79CHL1  H24B 8316   6.052   2.966   8.234 -1.4032  0.4804 -0.3639
   79CHL1   C25 8317   6.073   3.113   8.404  0.4731  0.2019  0.8839
   79CHL1   H25 8318   6.154   3.067   8.464  0.7680  0.4376  0.6690
   79CHL1   C26 8319   6.083   3.262   8.429  0.3085  0.1463  0.0260
   79CHL1  H26A 8320   6.058   3.278   8.536 -2.2358 -3.2480  0.1458
   79CHL1  H26B 8321   6.185   3.285   8.392  0.6413  1.4199  1.6300
   79CHL1  H26C 8322   6.000   3.300   8.366  0.4392  2.0923  0.9666
   79CHL1   C27 8323   5.939   3.066   8.459 -0.0174  0.2263  0.0296
   79CHL1  H27A 8324   5.857   3.122   8.410 -1.5629 -1.4536  0.5965
   79CHL1  H27B 8325   5.922   2.957   8.443 -2.4601  0.5675 -0.0806
   79CHL1  H27C 8326   5.916   3.080   8.566 -2.1161  1.0018 -0.4718
   80CHL1    C3 8327   5.385   2.252   6.914 -0.4620  0.3488 -0.8533
   80CHL1    H3 8328   5.420   2.147   6.907  1.8789  0.7850  2.1833
   80CHL1    O3 8329   5.353   2.306   6.787 -0.0309  0.5768 -0.2222
   80CHL1   H3' 8330   5.372   2.400   6.794 -0.0149  0.5103  0.8271
   80CHL1    C4 8331   5.263   2.264   7.013  0.8105 -0.5648  0.0838
   80CHL1   H4A 8332   5.233   2.370   7.001  0.6634 -0.7986 -2.2228
   80CHL1   H4B 8333   5.179   2.200   6.978  1.7246 -0.4970 -2.5328
   80CHL1    C5 8334   5.288   2.236   7.155 -0.4544  0.3466  0.3722
   80CHL1    C6 8335   5.221   2.134   7.209 -0.4123 -0.4351 -0.5501
   80CHL1    H6 8336   5.144   2.080   7.152  0.1641 -1.0026 -0.8024
   80CHL1    C7 8337   5.237   2.096   7.354 -0.8197  0.0545  0.2895
   80CHL1   H7A 8338   5.141   2.093   7.409  0.7270  1.0125  3.2685
   80CHL1   H7B 8339   5.288   1.998   7.359 -0.2535  0.2421 -1.1933
   80CHL1    C8 8340   5.323   2.196   7.429 -0.8695 -0.0283 -0.5315
   80CHL1    H8 8341   5.269   2.293   7.442  0.5876  0.7264  0.0763
   80CHL1   C14 8342   5.368   2.142   7.564 -0.8527  0.3331 -0.4716
   80CHL1   H14 8343   5.446   2.066   7.540 -2.2136 -0.6226 -2.1199
   80CHL1   C15 8344   5.266   2.070   7.652  0.5655 -0.6249  0.5922
   80CHL1  H15A 8345   5.168   2.122   7.649  0.7467 -0.2416  1.0934
   80CHL1  H15B 8346   5.250   1.963   7.626  1.2828 -0.1837 -1.9359
   80CHL1   C16 8347   5.326   2.075   7.793 -0.6683  0.2870 -0.5539
   80CHL1  H16A 8348   5.259   2.114   7.872  0.4998  0.7873  0.2259
   80CHL1  H16B 8349   5.355   1.971   7.818 -1.1616  0.0269 -1.0643
   80CHL1   C17 8350   5.456   2.158   7.780  0.0349 -0.4891 -0.5034
   80CHL1   H17 8351   5.535   2.082   7.763 -1.4626 -1.7054 -2.5017
   80CHL1   C13 8352   5.438   2.244   7.657  0.0986 -0.3069  0.8815
   80CHL1   C18 8353   5.344   2.363   7.681 -0.2377 -0.1142  0.0573
   80CHL1  H18A 8354   5.385   2.448   7.740 -1.7302 -0.0864  1.1023
   80CHL1  H18B 8355   5.315   2.413   7.586  0.4560  0.4081  0.1121
   80CHL1  H18C 8356   5.251   2.332   7.733 -1.5023  3.1478 -0.0417
   80CHL1   C12 8357   5.562   2.282   7.584  0.0972  0.5231  0.3824
   80CHL1  H12A 8358   5.617   2.364   7.637  0.1382  1.4353 -1.0062
   80CHL1  H12B 8359   5.628   2.193   7.578  0.2901  0.4328  2.7777
   80CHL1   C11 8360   5.534   2.336   7.443  0.1337  0.4497  0.8326
   80CHL1  H11A 8361   5.484   2.434   7.460  1.3853  0.9754  1.6799
   80CHL1  H11B 8362   5.628   2.347   7.385 -0.6684  1.7240 -0.2599
   80CHL1    C9 8363   5.448   2.240   7.348 -0.6575 -0.2006  0.1171
   80CHL1    H9 8364   5.507   2.147   7.333  0.1477  0.1955  0.7570
   80CHL1   C10 8365   5.407   2.308   7.216 -0.3960 -0.1611 -0.2078
   80CHL1   C19 8366   5.355   2.454   7.235 -0.2586 -0.3340 -0.2421
   80CHL1  H19A 8367   5.275   2.464   7.311 -0.7684  0.7558 -0.8909
   80CHL1  H19B 8368   5.446   2.512   7.263  0.2596 -1.3507  0.2100
   80CHL1  H19C 8369   5.324   2.494   7.136  3.5916  2.3628 -0.5888
   80CHL1    C1 8370   5.524   2.295   7.118 -0.3371 -0.0524 -0.0797
   80CHL1   H1A 8371   5.597   2.369   7.158 -1.3184  0.1457  1.4450
   80CHL1   H1B 8372   5.569   2.194   7.126  0.2801  0.3767  3.2891
   80CHL1    C2 8373   5.498   2.339   6.976 -0.6922  0.1685 -0.3877
   80CHL1   H2A 8374   5.586   2.298   6.922  0.2953 -2.3257  2.7874
   80CHL1   H2B 8375   5.490   2.449   6.962  0.3725  0.0688 -2.0451
   80CHL1   C20 8376   5.488   2.228   7.912 -0.2846  0.1731  0.8895
   80CHL1   H20 8377   5.429   2.322   7.921 -1.9294 -0.7019 -0.1729
   80CHL1   C21 8378   5.636   2.269   7.907  0.3066  0.0068  0.3967
   80CHL1  H21A 8379   5.639   2.348   7.828  1.6327 -0.7094 -0.2966
   80CHL1  H21B 8380   5.708   2.188   7.883 -0.7995 -1.2088  1.0533
   80CHL1  H21C 8381   5.667   2.309   8.006  0.2145 -2.4633  1.4774
   80CHL1   C22 8382   5.466   2.130   8.031  0.6864 -0.3297 -0.1059
   80CHL1  H22A 8383   5.363   2.092   8.043  1.1171 -1.5000 -0.0622
   80CHL1  H22B 8384   5.527   2.041   8.006  1.3208  0.5237 -1.8076
   80CHL1   C23 8385   5.494   2.167   8.174  0.3148  1.0615  0.4653
   80CHL1  H23A 8386   5.453   2.084   8.235  1.4630 -0.2637 -0.4980
   80CHL1  H23B 8387   5.604   2.173   8.189  0.1566  0.0248  2.3005
   80CHL1   C24 8388   5.438   2.302   8.217 -0.0167 -0.1066  0.1210
   80CHL1  H24A 8389   5.478   2.389   8.161  2.4140  1.1489  3.4509
   80CHL1  H24B 8390   5.327   2.303   8.209 -0.1525  0.1395  1.6922
   80CHL1   C25 8391   5.473   2.323   8.362  0.0679  0.2727 -0.2650
   80CHL1   H25 8392   5.447   2.231   8.418  1.1872  0.2760  0.2893
   80CHL1   C26 8393   5.620   2.345   8.384 -0.9822 -0.2741 -0.4286
   80CHL1  H26A 8394   5.686   2.262   8.351  0.0536  1.7730 -4.1386
   80CHL1  H26B 8395   5.656   2.422   8.313  0.4491 -0.1791  0.3711
   80CHL1  H26C 8396   5.630   2.386   8.487  0.4707  0.2866 -0.7715
   80CHL1   C27 8397   5.386   2.435   8.420 -0.2475 -0.1866 -0.5164
   80CHL1  H27A 8398   5.427   2.481   8.512 -1.5273  0.1521 -0.0896
   80CHL1  H27B 8399   5.372   2.518   8.346 -0.1659 -1.3806 -1.9148
   80CHL1  H27C 8400   5.284   2.401   8.447  0.0972 -0.7952  0.0267
   81CHL1    C3 8401   3.266   1.605   6.809 -0.2704  0.0918  0.2225
   81CHL1    H3 8402   3.361   1.657   6.834 -0.9200  0.9482  1.0073
   81CHL1    O3 8403   3.270   1.596   6.667 -0.1586  0.4103  0.2176
   81CHL1   H3' 8404   3.199   1.537   6.641 -0.7306  1.2433 -0.1557
   81CHL1    C4 8405   3.264   1.468   6.879  0.0105 -0.1155  0.2345
   81CHL1   H4A 8406   3.168   1.416   6.859 -0.2851  0.2394  0.7129
   81CHL1   H4B 8407   3.345   1.404   6.837 -1.1417 -0.9137 -0.8508
   81CHL1    C5 8408   3.292   1.477   7.031  0.4490  0.2404 -0.1393
   81CHL1    C6 8409   3.390   1.416   7.099  0.0110  0.3436  0.4784
   81CHL1    H6 8410   3.460   1.348   7.048 -1.0376  0.0653 -0.6589
   81CHL1    C7 8411   3.419   1.426   7.254 -0.0721 -0.2395 -0.0491
   81CHL1   H7A 8412   3.450   1.325   7.287  1.5531 -0.1892 -1.2984
   81CHL1   H7B 8413   3.512   1.484   7.266 -0.5706  0.2382  1.6931
   81CHL1    C8 8414   3.305   1.489   7.331 -0.4827 -0.1006 -0.3548
   81CHL1    H8 8415   3.232   1.407   7.350 -0.7980  0.7839  2.6874
   81CHL1   C14 8416   3.353   1.555   7.460  0.0601 -0.0255 -0.4928
   81CHL1   H14 8417   3.414   1.641   7.427 -0.8305  0.0333 -2.0771
   81CHL1   C15 8418   3.442   1.461   7.558  0.1572 -0.5684  0.0297
   81CHL1  H15A 8419   3.410   1.355   7.548  0.4417 -0.6227 -0.3611
   81CHL1  H15B 8420   3.550   1.473   7.532  0.1943  1.0528  0.8307
   81CHL1   C16 8421   3.406   1.514   7.700  0.4587  0.3651 -0.5988
   81CHL1  H16A 8422   3.362   1.429   7.757  0.2204  0.9530  0.1064
   81CHL1  H16B 8423   3.506   1.528   7.749  0.4963 -1.8713  0.0595
   81CHL1   C17 8424   3.316   1.635   7.685 -0.1008 -0.7998  0.9589
   81CHL1   H17 8425   3.395   1.708   7.658 -0.3587 -0.0811  2.0654
   81CHL1   C13 8426   3.243   1.614   7.555  0.5804  0.3040  0.4135
   81CHL1   C18 8427   3.137   1.500   7.584  0.6550 -1.0700  0.6052
   81CHL1  H18A 8428   3.088   1.472   7.488 -0.2064  1.9738  0.0704
   81CHL1  H18B 8429   3.175   1.409   7.636  3.2291  0.1744  1.0599
   81CHL1  H18C 8430   3.056   1.551   7.640  0.1493  0.0593 -1.0768
   81CHL1   C12 8431   3.179   1.729   7.483 -0.1801 -0.7891  0.7011
   81CHL1  H12A 8432   3.090   1.782   7.525  1.0867  2.7484 -0.6526
   81CHL1  H12B 8433   3.260   1.805   7.471 -0.9686 -0.2523 -1.8147
   81CHL1   C11 8434   3.128   1.688   7.336  0.2052  0.4051  0.5124
   81CHL1  H11A 8435   3.038   1.626   7.357  0.3755  0.1960  0.6239
   81CHL1  H11B 8436   3.099   1.781   7.284  2.3042  1.5929  1.3416
   81CHL1    C9 8437   3.234   1.612   7.253 -0.5393 -0.1020  0.3244
   81CHL1    H9 8438   3.311   1.692   7.245 -1.1096  0.3674 -0.6590
   81CHL1   C10 8439   3.193   1.565   7.101  0.3163  0.5798 -0.1061
   81CHL1   C19 8440   3.060   1.486   7.114 -0.0657 -0.0624  0.0470
   81CHL1  H19A 8441   3.022   1.435   7.023 -0.5934 -3.2545  1.8998
   81CHL1  H19B 8442   3.073   1.410   7.194  0.8587  0.5921  0.5412
   81CHL1  H19C 8443   2.971   1.547   7.139 -1.3261 -0.9861 -1.9696
   81CHL1    C1 8444   3.179   1.697   7.023  0.4512 -0.1898  0.0949
   81CHL1   H1A 8445   3.091   1.748   7.066 -0.5490 -0.3839 -1.6241
   81CHL1   H1B 8446   3.271   1.756   7.041 -0.4571  1.2705  0.0913
   81CHL1    C2 8447   3.152   1.692   6.867  0.1602 -0.4324  0.0990
   81CHL1   H2A 8448   3.150   1.789   6.812 -0.1176 -0.1497  0.6034
   81CHL1   H2B 8449   3.065   1.627   6.843 -0.0239 -0.1823  0.0724
   81CHL1   C20 8450   3.232   1.669   7.815  0.0476 -0.4081 -0.3204
   81CHL1   H20 8451   3.164   1.582   7.822 -1.1295  0.6050  2.2302
   81CHL1   C21 8452   3.168   1.808   7.798  0.2978 -0.2691  0.3768
   81CHL1  H21A 8453   3.078   1.798   7.733  1.6991 -1.3874 -1.5193
   81CHL1  H21B 8454   3.245   1.882   7.765  0.5304  0.1824  1.8715
   81CHL1  H21C 8455   3.148   1.853   7.897  0.4179  0.2756  0.1568
   81CHL1   C22 8456   3.319   1.649   7.942  0.2488 -0.3437  0.8761
   81CHL1  H22A 8457   3.325   1.539   7.956 -0.8396 -0.6862 -0.9555
   81CHL1  H22B 8458   3.419   1.683   7.907 -0.6762  2.0719  0.3161
   81CHL1   C23 8459   3.258   1.710   8.064 -0.0477 -0.4480 -0.9309
   81CHL1  H23A 8460   3.329   1.696   8.149 -1.6472 -1.4665  0.3095
   81CHL1  H23B 8461   3.254   1.821   8.055  0.7025 -0.5236 -2.5751
   81CHL1   C24 8462   3.113   1.657   8.104 -0.5877 -0.2370  0.0786
   81CHL1  H24A 8463   3.085   1.722   8.189  1.5722  3.4241 -1.7309
   81CHL1  H24B 8464   3.037   1.671   8.024 -2.3361 -0.5720  1.6303
   81CHL1   C25 8465   3.109   1.507   8.134 -0.6587 -0.1137  0.4595
   81CHL1   H25 8466   3.173   1.458   8.058  1.1977  0.4483  1.5928
   81CHL1   C26 8467   3.148   1.464   8.280  0.2104  0.3262  1.0096
   81CHL1  H26A 8468   3.255   1.488   8.298  0.1913  2.2690 -1.0523
   81CHL1  H26B 8469   3.090   1.511   8.362 -1.8271 -1.0675  0.4281
   81CHL1  H26C 8470   3.130   1.355   8.287  1.7078  0.0575  0.9999
   81CHL1   C27 8471   2.960   1.458   8.122  0.2419 -0.0905  0.5605
   81CHL1  H27A 8472   2.954   1.348   8.133 -0.3761  0.0338  1.6063
   81CHL1  H27B 8473   2.893   1.491   8.204 -1.1450 -0.5423 -0.3571
   81CHL1  H27C 8474   2.918   1.498   8.027  0.9417  1.0966  0.7258
   82CHL1    C3 8475   2.966   2.105   6.875 -0.1932 -0.1354  0.0252
   82CHL1    H3 8476   3.036   2.191   6.879 -0.3696  0.0438 -0.6810
   82CHL1    O3 8477   2.947   2.052   6.742 -0.3663  0.2474 -0.0520
   82CHL1   H3' 8478   2.894   1.972   6.745 -0.2311  0.1459 -0.4135
   82CHL1    C4 8479   3.028   1.996   6.973  0.0285  0.1240  0.2846
   82CHL1   H4A 8480   2.961   1.909   6.963 -1.1403  0.9303  0.9026
   82CHL1   H4B 8481   3.125   1.969   6.926 -0.1448  1.0015 -0.6242
   82CHL1    C5 8482   3.047   2.059   7.115 -0.0743  0.2516  0.5527
   82CHL1    C6 8483   3.166   2.078   7.170  0.3060 -1.1690 -0.5942
   82CHL1    H6 8484   3.249   2.057   7.102  0.2137 -1.3788 -0.6447
   82CHL1    C7 8485   3.190   2.127   7.312  0.5392  0.0610  0.5489
   82CHL1   H7A 8486   3.263   2.065   7.368  1.4051 -2.8442 -3.3341
   82CHL1   H7B 8487   3.231   2.230   7.310 -1.7524  1.0321  0.8431
   82CHL1    C8 8488   3.054   2.130   7.394  0.1695  0.2670 -0.2678
   82CHL1    H8 8489   3.034   2.030   7.437  2.0766 -0.5893 -1.2621
   82CHL1   C14 8490   3.075   2.220   7.513 -0.0623  0.0402  0.2272
   82CHL1   H14 8491   3.087   2.321   7.467 -1.1473  0.3672  0.6240
   82CHL1   C15 8492   3.203   2.200   7.601  0.2065  0.1259  0.4222
   82CHL1  H15A 8493   3.239   2.095   7.604  0.0007  0.0450  0.0878
   82CHL1  H15B 8494   3.291   2.253   7.561 -1.7885  3.7169  0.3937
   82CHL1   C16 8495   3.160   2.256   7.735  0.4969  0.9517 -0.6713
   82CHL1  H16A 8496   3.169   2.175   7.809 -0.3108  1.9677  0.5822
   82CHL1  H16B 8497   3.224   2.340   7.769 -0.0713  1.2015 -0.1966
   82CHL1   C17 8498   3.005   2.313   7.716 -0.1219  0.5568 -0.4278
   82CHL1   H17 8499   3.011   2.420   7.689 -0.9965  0.8607  0.5254
   82CHL1   C13 8500   2.946   2.225   7.605 -0.2315 -0.0665 -0.3392
   82CHL1   C18 8501   2.914   2.092   7.667 -0.4324  0.1794  0.7881
   82CHL1  H18A 8502   2.990   2.065   7.743 -1.2197 -0.1773  1.4613
   82CHL1  H18B 8503   2.823   2.094   7.731  0.5663 -0.6713  2.2920
   82CHL1  H18C 8504   2.911   2.003   7.599  2.3254  1.2891 -0.9667
   82CHL1   C12 8505   2.829   2.276   7.517  0.4500 -0.6985  0.1746
   82CHL1  H12A 8506   2.742   2.266   7.585 -0.0676  0.8234 -0.2188
   82CHL1  H12B 8507   2.852   2.384   7.501  0.2252 -0.6518  0.1619
   82CHL1   C11 8508   2.803   2.195   7.392  0.3229  0.6190 -0.6274
   82CHL1  H11A 8509   2.773   2.094   7.427 -2.2649  2.0397  1.5784
   82CHL1  H11B 8510   2.721   2.239   7.331 -0.9806 -0.6770  0.1279
   82CHL1    C9 8511   2.936   2.184   7.312 -0.1881  0.4579  0.4852
   82CHL1    H9 8512   2.962   2.287   7.277 -1.6997  0.6209 -0.2330
   82CHL1   C10 8513   2.916   2.099   7.181 -0.3066  0.3078 -0.5879
   82CHL1   C19 8514   2.829   1.972   7.199  0.1524 -0.0901 -0.2063
   82CHL1  H19A 8515   2.859   1.912   7.287 -0.0392 -2.9795 -1.9577
   82CHL1  H19B 8516   2.726   2.013   7.209  0.1080  0.5443 -2.6564
   82CHL1  H19C 8517   2.822   1.915   7.103  0.1799  1.9170 -1.4528
   82CHL1    C1 8518   2.843   2.197   7.083  0.5143  0.3513  0.7133
   82CHL1   H1A 8519   2.742   2.215   7.124  1.2399  2.3238  1.7368
   82CHL1   H1B 8520   2.897   2.294   7.076  1.0562 -0.0667 -1.8310
   82CHL1    C2 8521   2.832   2.139   6.939  0.3011  0.2921  0.0121
   82CHL1   H2A 8522   2.768   2.211   6.884 -1.6055  0.2690  2.0340
   82CHL1   H2B 8523   2.770   2.046   6.939 -0.7373  0.9001 -2.8120
   82CHL1   C20 8524   2.930   2.330   7.849 -0.6398  0.6804 -0.4193
   82CHL1   H20 8525   2.872   2.237   7.867 -0.9437  0.3575 -2.7772
   82CHL1   C21 8526   2.833   2.455   7.824  0.8777  0.5306 -0.3302
   82CHL1  H21A 8527   2.759   2.431   7.744 -0.5243  0.5271  0.9085
   82CHL1  H21B 8528   2.891   2.546   7.798 -0.1783  0.8146 -1.8152
   82CHL1  H21C 8529   2.776   2.477   7.918  0.7904 -2.9240  0.5561
   82CHL1   C22 8530   3.017   2.363   7.978 -0.0949  0.0124  0.7928
   82CHL1  H22A 8531   3.099   2.430   7.944  2.0893 -2.8931  0.0337
   82CHL1  H22B 8532   2.947   2.424   8.039  0.5659  1.1154  0.4834
   82CHL1   C23 8533   3.057   2.241   8.063 -0.5353  0.6368  0.5448
   82CHL1  H23A 8534   2.960   2.193   8.090  0.0489  0.4007  2.3242
   82CHL1  H23B 8535   3.118   2.171   8.003 -0.4269 -0.0317  1.4311
   82CHL1   C24 8536   3.141   2.285   8.182 -0.2667  0.1984  0.3192
   82CHL1  H24A 8537   3.239   2.320   8.143 -1.1159  1.5163 -0.7225
   82CHL1  H24B 8538   3.093   2.378   8.218 -0.2662  1.0684 -1.7434
   82CHL1   C25 8539   3.157   2.188   8.294  0.3671 -0.4275 -0.3825
   82CHL1   H25 8540   3.068   2.166   8.357  1.9173  0.4773  2.3240
   82CHL1   C26 8541   3.208   2.057   8.244  0.3188 -0.4645  0.3690
   82CHL1  H26A 8542   3.128   2.021   8.176  1.6172 -0.1683 -1.3838
   82CHL1  H26B 8543   3.296   2.080   8.180 -1.4660  0.4825 -1.9056
   82CHL1  H26C 8544   3.232   1.994   8.332 -1.4552 -0.4668  0.8792
   82CHL1   C27 8545   3.248   2.244   8.411 -0.2078 -0.4468  0.9686
   82CHL1  H27A 8546   3.242   2.194   8.510  3.6747 -0.7753  1.1896
   82CHL1  H27B 8547   3.353   2.227   8.379 -0.2158  0.0031  0.6924
   82CHL1  H27C 8548   3.230   2.353   8.424  2.2086 -0.0030  1.0371
   83CHL1    C3 8549   6.328   0.857   6.686  0.2707  0.2210  0.0476
   83CHL1    H3 8550   6.328   0.966   6.665 -0.6937  0.3940  0.8791
   83CHL1    O3 8551   6.280   0.807   6.564  0.4763  0.6067  0.3789
   83CHL1   H3' 8552   6.255   0.715   6.572 -2.7388  1.0500 -2.2407
   83CHL1    C4 8553   6.461   0.793   6.708  0.3157 -0.7577  0.7134
   83CHL1   H4A 8554   6.446   0.683   6.702 -0.2413 -0.6011 -1.9256
   83CHL1   H4B 8555   6.535   0.820   6.629  0.7950 -0.3177  1.3061
   83CHL1    C5 8556   6.522   0.831   6.844 -0.2427  0.0756  0.4586
   83CHL1    C6 8557   6.644   0.894   6.843  0.7837 -0.4024 -1.4349
   83CHL1    H6 8558   6.697   0.914   6.749  0.0552  0.2170 -1.7299
   83CHL1    C7 8559   6.719   0.932   6.976  0.1353 -0.2000  0.1059
   83CHL1   H7A 8560   6.828   0.910   6.968 -0.1792 -1.4524 -1.1503
   83CHL1   H7B 8561   6.714   1.040   7.000  2.2784 -0.1651  0.6265
   83CHL1    C8 8562   6.652   0.854   7.096 -0.5213  0.1692  0.7628
   83CHL1    H8 8563   6.691   0.750   7.091  0.2409  0.3969  1.5264
   83CHL1   C14 8564   6.707   0.916   7.224 -0.0080  0.8697 -0.4126
   83CHL1   H14 8565   6.650   1.011   7.230 -0.1432  0.7071  1.1461
   83CHL1   C15 8566   6.862   0.944   7.236  0.7830 -0.2533  0.6030
   83CHL1  H15A 8567   6.899   0.861   7.172 -1.4676  0.4751 -1.8572
   83CHL1  H15B 8568   6.890   1.039   7.185  1.9914 -0.8709  0.0808
   83CHL1   C16 8569   6.885   0.949   7.390  0.0588  0.4202 -0.4818
   83CHL1  H16A 8570   6.980   0.899   7.421  0.7225 -1.3580 -4.6489
   83CHL1  H16B 8571   6.889   1.055   7.420 -0.4125  0.0763  0.8839
   83CHL1   C17 8572   6.749   0.895   7.459 -0.9611 -0.0051 -0.5709
   83CHL1   H17 8573   6.702   0.991   7.490  0.7422  0.3341  1.1337
   83CHL1   C13 8574   6.662   0.829   7.350 -0.7119  0.6062 -0.8833
   83CHL1   C18 8575   6.709   0.681   7.339 -0.3677  0.1745 -0.1368
   83CHL1  H18A 8576   6.690   0.614   7.425  2.1584 -0.8724 -0.2895
   83CHL1  H18B 8577   6.643   0.632   7.265  1.0479 -0.9602 -0.7177
   83CHL1  H18C 8578   6.817   0.673   7.311 -0.3659  1.3368 -0.5152
   83CHL1   C12 8579   6.508   0.849   7.361  0.3139  0.6062  0.4049
   83CHL1  H12A 8580   6.466   0.801   7.452 -2.3972  0.9119 -0.6089
   83CHL1  H12B 8581   6.484   0.956   7.380  0.9086  0.5058  1.9017
   83CHL1   C11 8582   6.439   0.797   7.234  0.1782  0.2682  0.0986
   83CHL1  H11A 8583   6.445   0.687   7.236 -1.4445  0.1580  0.0809
   83CHL1  H11B 8584   6.329   0.814   7.234  0.1827  0.6507 -2.5399
   83CHL1    C9 8585   6.495   0.855   7.102  0.2439  0.3307  0.3026
   83CHL1    H9 8586   6.474   0.964   7.095  0.3360  0.4396  1.5967
   83CHL1   C10 8587   6.434   0.796   6.972 -0.4663 -0.0201  0.3347
   83CHL1   C19 8588   6.427   0.639   6.986 -0.6330 -0.0608 -0.2592
   83CHL1  H19A 8589   6.396   0.587   6.894 -1.4605 -1.6368  0.8619
   83CHL1  H19B 8590   6.530   0.609   7.018 -0.9111 -0.4539  0.2763
   83CHL1  H19C 8591   6.353   0.612   7.064 -0.7091  0.9321  0.0319
   83CHL1    C1 8592   6.290   0.841   6.939 -0.2151 -0.4699  0.3154
   83CHL1   H1A 8593   6.217   0.815   7.018 -0.1722  1.0896  0.9181
   83CHL1   H1B 8594   6.284   0.952   6.947 -0.8736 -0.2507 -2.4335
   83CHL1    C2 8595   6.235   0.819   6.798 -0.3304 -0.9398  0.1086
   83CHL1   H2A 8596   6.132   0.860   6.786 -0.2774 -1.6004 -3.6487
   83CHL1   H2B 8597   6.220   0.709   6.789 -2.1506 -0.6194 -1.2269
   83CHL1   C20 8598   6.774   0.819   7.596 -0.2932  0.2763  0.5053
   83CHL1   H20 8599   6.835   0.727   7.580  0.8061  1.4477 -2.8150
   83CHL1   C21 8600   6.642   0.790   7.667 -0.8354 -0.1860  0.0983
   83CHL1  H21A 8601   6.638   0.770   7.777 -2.2918  0.8145  0.2618
   83CHL1  H21B 8602   6.593   0.703   7.618  0.1768 -0.4151 -0.5178
   83CHL1  H21C 8603   6.578   0.881   7.657 -1.1294 -0.3962  0.0430
   83CHL1   C22 8604   6.868   0.897   7.698  0.2506 -0.3952  0.3572
   83CHL1  H22A 8605   6.966   0.920   7.650 -0.1050 -1.6258 -1.0159
   83CHL1  H22B 8606   6.819   0.995   7.718  2.4997  1.5101 -2.6566
   83CHL1   C23 8607   6.912   0.816   7.822  0.9284 -0.0692  0.1986
   83CHL1  H23A 8608   6.825   0.789   7.885 -0.2551 -0.3204 -1.4673
   83CHL1  H23B 8609   6.960   0.726   7.779 -3.0740 -1.8857 -0.9475
   83CHL1   C24 8610   7.014   0.892   7.909 -0.7115  0.6302 -0.4642
   83CHL1  H24A 8611   7.082   0.939   7.835 -2.5107  0.9419 -2.0103
   83CHL1  H24B 8612   6.961   0.982   7.948 -1.6297  0.0662 -0.3701
   83CHL1   C25 8613   7.078   0.802   8.015  0.1745  0.0664 -0.0891
   83CHL1   H25 8614   7.092   0.696   7.984 -2.1306 -0.1694 -0.5374
   83CHL1   C26 8615   7.214   0.854   8.052 -0.6239  0.1029 -0.0800
   83CHL1  H26A 8616   7.196   0.958   8.085 -1.8876  0.4555 -1.7207
   83CHL1  H26B 8617   7.254   0.793   8.135 -2.2313 -0.8810  0.0028
   83CHL1  H26C 8618   7.288   0.843   7.970  1.4709  1.2002  1.5793
   83CHL1   C27 8619   6.992   0.805   8.144 -0.6461 -0.3339  0.9769
   83CHL1  H27A 8620   6.891   0.772   8.112 -1.4801  1.1884  1.9296
   83CHL1  H27B 8621   7.030   0.741   8.227 -0.5996 -2.4838 -0.6186
   83CHL1  H27C 8622   6.993   0.907   8.188  0.4711 -0.6414  1.7049
   84CHL1    C3 8623   3.835   6.547   6.864 -0.6757  0.8436  1.1030
   84CHL1    H3 8624   3.911   6.629   6.867 -0.6759  1.0079 -1.3679
   84CHL1    O3 8625   3.806   6.512   6.727 -0.3119 -0.2108 -0.1055
   84CHL1   H3' 8626   3.738   6.444   6.729 -0.1094 -0.4698 -1.1483
   84CHL1    C4 8627   3.878   6.419   6.943  0.2240 -0.2167 -0.4963
   84CHL1   H4A 8628   3.802   6.339   6.926  0.5446 -0.3838 -1.1546
   84CHL1   H4B 8629   3.969   6.377   6.895 -1.5604 -3.0862 -1.6618
   84CHL1    C5 8630   3.898   6.458   7.087  0.7778  0.2699  0.6287
   84CHL1    C6 8631   4.018   6.449   7.143 -0.1997  0.0291  0.2704
   84CHL1    H6 8632   4.110   6.421   7.090  0.8698  1.0972  1.4992
   84CHL1    C7 8633   4.055   6.497   7.276 -0.0190  0.0350  0.0471
   84CHL1   H7A 8634   4.139   6.432   7.308  0.6197  1.4142  1.2550
   84CHL1   H7B 8635   4.098   6.599   7.272 -2.1662  0.9965  0.2958
   84CHL1    C8 8636   3.927   6.499   7.365 -0.0482  0.4544  0.3454
   84CHL1    H8 8637   3.896   6.393   7.375  0.9914  0.1421  0.3229
   84CHL1   C14 8638   3.956   6.560   7.498 -0.0464 -0.3179  0.7327
   84CHL1   H14 8639   3.983   6.667   7.481 -2.4008  0.0340 -1.2318
   84CHL1   C15 8640   4.080   6.504   7.569 -0.6192  0.6115 -0.3904
   84CHL1  H15A 8641   4.096   6.398   7.542 -1.5289  0.0977  0.9734
   84CHL1  H15B 8642   4.170   6.564   7.545  0.4800 -0.7728  0.1246
   84CHL1   C16 8643   4.059   6.535   7.718  0.8239 -0.6697 -0.4693
   84CHL1  H16A 8644   4.046   6.437   7.769 -1.0407  1.7650  4.3924
   84CHL1  H16B 8645   4.136   6.596   7.770 -0.4771  2.9295 -2.4455
   84CHL1   C17 8646   3.918   6.605   7.721  0.5624 -1.2673  0.2839
   84CHL1   H17 8647   3.943   6.710   7.693 -0.9067 -1.1098 -0.5583
   84CHL1   C13 8648   3.841   6.554   7.596 -0.1429 -0.2294  0.2389
   84CHL1   C18 8649   3.779   6.413   7.624 -0.6842  0.4334  0.1884
   84CHL1  H18A 8650   3.852   6.344   7.671  1.3612  2.9328  0.9446
   84CHL1  H18B 8651   3.695   6.432   7.694 -0.5952  0.0260  0.4140
   84CHL1  H18C 8652   3.745   6.369   7.528  1.0039  1.5950 -0.9959
   84CHL1   C12 8653   3.728   6.646   7.538  0.2927  0.4136 -0.2422
   84CHL1  H12A 8654   3.635   6.632   7.598  0.4584  2.1034  0.4851
   84CHL1  H12B 8655   3.752   6.755   7.541 -0.6728  0.8485 -3.6728
   84CHL1   C11 8656   3.696   6.613   7.389 -0.2190 -1.0412 -0.2361
   84CHL1  H11A 8657   3.641   6.518   7.405 -1.0325 -0.1483  3.1343
   84CHL1  H11B 8658   3.628   6.693   7.351  1.9590  0.8460 -0.4012
   84CHL1    C9 8659   3.814   6.581   7.301 -0.3961 -0.3227 -0.2701
   84CHL1    H9 8660   3.870   6.674   7.278  0.8250 -0.7836  0.7105
   84CHL1   C10 8661   3.775   6.525   7.155 -1.0715  0.2048 -0.6268
   84CHL1   C19 8662   3.675   6.404   7.170 -0.0911  0.2647 -0.6016
   84CHL1  H19A 8663   3.667   6.338   7.081  1.2263  0.7513 -1.1035
   84CHL1  H19B 8664   3.690   6.337   7.257  1.6496  1.1985 -0.1455
   84CHL1  H19C 8665   3.574   6.449   7.180  0.4397  1.2249  0.5761
   84CHL1    C1 8666   3.724   6.641   7.064 -0.5032  0.5670 -0.5165
   84CHL1   H1A 8667   3.629   6.675   7.110  0.1083 -2.1612  3.3150
   84CHL1   H1B 8668   3.811   6.709   7.079  1.5247 -1.7623 -0.9878
   84CHL1    C2 8669   3.707   6.599   6.916 -0.1204  0.2662  0.4952
   84CHL1   H2A 8670   3.681   6.687   6.854  0.5362  0.6211  0.7158
   84CHL1   H2B 8671   3.631   6.518   6.916 -0.9668  1.0530  0.9879
   84CHL1   C20 8672   3.852   6.612   7.862 -0.4140 -0.9737 -0.2723
   84CHL1   H20 8673   3.742   6.612   7.847 -0.6286 -0.6427  1.1467
   84CHL1   C21 8674   3.887   6.745   7.936  0.5490 -0.3197 -0.3467
   84CHL1  H21A 8675   3.832   6.753   8.032 -2.2032  1.4875 -1.8928
   84CHL1  H21B 8676   3.839   6.828   7.879  1.3511  0.7895  0.5589
   84CHL1  H21C 8677   3.996   6.763   7.949  0.8673 -1.6216 -1.0492
   84CHL1   C22 8678   3.884   6.489   7.946 -0.1814  0.1054  0.4521
   84CHL1  H22A 8679   3.890   6.397   7.884  1.1669 -0.0520  0.7846
   84CHL1  H22B 8680   3.986   6.503   7.987  1.8136 -2.9135 -2.8695
   84CHL1   C23 8681   3.786   6.464   8.054  0.3940  0.5911  0.1148
   84CHL1  H23A 8682   3.836   6.409   8.137 -2.0385 -4.0952 -1.1914
   84CHL1  H23B 8683   3.759   6.563   8.096 -0.8511 -1.1390  3.8185
   84CHL1   C24 8684   3.659   6.377   8.016 -0.3716 -0.8602  0.1547
   84CHL1  H24A 8685   3.632   6.410   7.913  1.2074 -0.5294 -0.1761
   84CHL1  H24B 8686   3.697   6.274   7.998  0.3292 -0.8790  1.5701
   84CHL1   C25 8687   3.535   6.371   8.108 -0.5611  0.1816  0.5545
   84CHL1   H25 8688   3.512   6.473   8.145 -1.6028 -0.3054  1.2812
   84CHL1   C26 8689   3.414   6.307   8.041 -0.3984 -0.5960 -0.5733
   84CHL1  H26A 8690   3.431   6.206   7.998 -1.2500 -1.4035  0.9014
   84CHL1  H26B 8691   3.336   6.297   8.120  0.7943  0.5309  0.7927
   84CHL1  H26C 8692   3.361   6.375   7.972  1.2285 -0.9938 -2.2792
   84CHL1   C27 8693   3.566   6.318   8.247 -0.3851 -0.7653  0.1443
   84CHL1  H27A 8694   3.485   6.356   8.314 -1.3373 -0.8355 -0.9449
   84CHL1  H27B 8695   3.560   6.207   8.253 -3.4292 -0.6207  3.1772
   84CHL1  H27C 8696   3.662   6.365   8.277 -1.5225  1.2139  0.8619
   85CHL1    C3 8697   2.605   4.997   6.766  0.4932  0.5644 -0.4568
   85CHL1    H3 8698   2.672   4.923   6.813 -1.3709 -0.0178  1.4413
   85CHL1    O3 8699   2.560   4.961   6.634  0.1163 -0.0188 -0.3700
   85CHL1   H3' 8700   2.529   4.872   6.649  0.2785  0.1788  1.3217
   85CHL1    C4 8701   2.488   5.018   6.855 -0.0953  0.3331 -0.3022
   85CHL1   H4A 8702   2.428   5.100   6.810 -0.3967  1.4055  1.9287
   85CHL1   H4B 8703   2.418   4.932   6.853  1.2034 -0.8727  1.9705
   85CHL1    C5 8704   2.530   5.053   6.991  0.4614  0.0405  0.0696
   85CHL1    C6 8705   2.496   4.977   7.098  0.1300 -0.6028 -0.4411
   85CHL1    H6 8706   2.435   4.886   7.091  2.6056 -2.4349  0.6444
   85CHL1    C7 8707   2.524   5.020   7.240  0.1950 -0.6396 -0.2110
   85CHL1   H7A 8708   2.437   4.997   7.306  1.1236  3.7450  3.0419
   85CHL1   H7B 8709   2.610   4.962   7.279  0.1971 -0.8311 -0.4939
   85CHL1    C8 8710   2.553   5.165   7.255  0.8736 -0.4334 -0.2411
   85CHL1    H8 8711   2.461   5.226   7.245  0.8872 -0.2185  0.7959
   85CHL1   C14 8712   2.613   5.185   7.405  0.2172 -0.3458  0.3778
   85CHL1   H14 8713   2.704   5.122   7.402 -0.0489 -0.7776  1.2249
   85CHL1   C15 8714   2.527   5.142   7.524 -0.0405  0.5604  0.0445
   85CHL1  H15A 8715   2.418   5.160   7.521 -0.2904 -0.7417  0.4500
   85CHL1  H15B 8716   2.537   5.033   7.541 -1.5475  0.6932  2.2286
   85CHL1   C16 8717   2.594   5.216   7.637 -0.3669  0.0847 -0.0934
   85CHL1  H16A 8718   2.519   5.260   7.707  0.6725  0.9686  0.4845
   85CHL1  H16B 8719   2.661   5.157   7.703  1.1683  0.8094 -0.9458
   85CHL1   C17 8720   2.689   5.318   7.581  0.0263 -0.3254  0.1973
   85CHL1   H17 8721   2.790   5.272   7.578 -0.3917 -1.2285 -0.9790
   85CHL1   C13 8722   2.650   5.327   7.428 -0.0786  0.0740 -0.4486
   85CHL1   C18 8723   2.520   5.416   7.410  0.0906 -0.4727 -0.0509
   85CHL1  H18A 8724   2.483   5.414   7.306  1.2322  3.4871 -0.7054
   85CHL1  H18B 8725   2.440   5.381   7.479 -0.1478  1.4414  0.7203
   85CHL1  H18C 8726   2.551   5.522   7.429  0.6976  0.0604 -3.4166
   85CHL1   C12 8727   2.757   5.363   7.324 -0.1726 -0.0553 -0.6862
   85CHL1  H12A 8728   2.807   5.461   7.341  0.6850 -0.0087 -3.0905
   85CHL1  H12B 8729   2.844   5.294   7.334 -0.1162  0.2078  0.8002
   85CHL1   C11 8730   2.705   5.348   7.183 -0.2923 -0.5359  0.1843
   85CHL1  H11A 8731   2.635   5.425   7.144  0.0043 -0.4163 -0.1197
   85CHL1  H11B 8732   2.803   5.357   7.132  0.4238 -0.5792  1.5131
   85CHL1    C9 8733   2.656   5.205   7.153  1.2365 -0.8645 -0.1361
   85CHL1    H9 8734   2.740   5.133   7.167  1.4096 -1.1097 -2.1215
   85CHL1   C10 8735   2.606   5.181   7.004 -0.2805 -0.3678  0.0617
   85CHL1   C19 8736   2.510   5.294   6.968 -0.1297 -0.2691 -0.3707
   85CHL1  H19A 8737   2.415   5.285   7.025 -1.0406  0.5106 -1.7181
   85CHL1  H19B 8738   2.546   5.397   6.986  0.7125 -0.7665  0.9387
   85CHL1  H19C 8739   2.475   5.287   6.863 -0.6518  0.7329 -0.2719
   85CHL1    C1 8740   2.721   5.170   6.904 -0.4911 -0.4805 -0.5816
   85CHL1   H1A 8741   2.777   5.266   6.913 -2.1416  0.3563  3.4371
   85CHL1   H1B 8742   2.785   5.092   6.951  0.5220 -0.4113 -1.8107
   85CHL1    C2 8743   2.693   5.118   6.759  0.1286 -0.3179  0.2222
   85CHL1   H2A 8744   2.789   5.099   6.705 -0.5045 -1.6545 -0.4706
   85CHL1   H2B 8745   2.639   5.200   6.707 -0.7689 -2.0808 -1.7526
   85CHL1   C20 8746   2.695   5.449   7.663 -0.9310 -0.1183 -0.5214
   85CHL1   H20 8747   2.592   5.491   7.666 -0.6677  0.4953  0.2877
   85CHL1   C21 8748   2.790   5.553   7.589 -0.7050 -0.2239  0.2893
   85CHL1  H21A 8749   2.732   5.582   7.499 -0.5095  1.3968  0.6547
   85CHL1  H21B 8750   2.882   5.494   7.570  0.1298  1.1191  0.0239
   85CHL1  H21C 8751   2.808   5.638   7.659  0.4234 -1.8011  1.9928
   85CHL1   C22 8752   2.731   5.426   7.816  0.5119 -0.3451  0.3661
   85CHL1  H22A 8753   2.664   5.346   7.856 -0.5561  0.1642 -0.3480
   85CHL1  H22B 8754   2.837   5.395   7.829  1.7193  2.9637 -0.7756
   85CHL1   C23 8755   2.718   5.554   7.903  0.5701  0.2293  0.5234
   85CHL1  H23A 8756   2.804   5.623   7.890  1.6552 -0.3970  3.5293
   85CHL1  H23B 8757   2.635   5.618   7.867  0.9649  0.0453 -0.7863
   85CHL1   C24 8758   2.695   5.526   8.054  0.0800  0.1163  0.0441
   85CHL1  H24A 8759   2.608   5.460   8.076  1.2665 -0.8706  2.1389
   85CHL1  H24B 8760   2.787   5.477   8.093  0.7513  1.6091  0.4305
   85CHL1   C25 8761   2.671   5.660   8.137  0.2329  0.4027  0.1941
   85CHL1   H25 8762   2.731   5.742   8.094  1.2665 -0.1361  0.5681
   85CHL1   C26 8763   2.526   5.709   8.119 -0.2400  0.2798  0.3533
   85CHL1  H26A 8764   2.489   5.735   8.018  0.0729  0.4737  0.2880
   85CHL1  H26B 8765   2.453   5.630   8.149 -0.0095  0.3080  1.0034
   85CHL1  H26C 8766   2.500   5.791   8.189  1.7956  2.4250 -1.2314
   85CHL1   C27 8767   2.700   5.631   8.288 -0.2123 -0.2490  0.8890
   85CHL1  H27A 8768   2.680   5.727   8.341 -2.7696  0.8917 -1.8365
   85CHL1  H27B 8769   2.631   5.556   8.331 -0.5201 -0.6873 -0.3239
   85CHL1  H27C 8770   2.804   5.594   8.296 -0.4282 -1.4345 -1.1427
   86CHL1    C3 8771   3.685   1.582   6.674 -0.8534 -0.0825 -0.8883
   86CHL1    H3 8772   3.584   1.543   6.699  0.5824 -2.4679  1.8693
   86CHL1    O3 8773   3.712   1.558   6.540 -0.5476 -0.1874  0.2379
   86CHL1   H3' 8774   3.806   1.538   6.531 -0.1668  1.4849  0.2909
   86CHL1    C4 8775   3.698   1.738   6.700  0.2245 -0.4400 -0.0732
   86CHL1   H4A 8776   3.796   1.786   6.678  0.3692  0.7994  2.8197
   86CHL1   H4B 8777   3.625   1.790   6.635  1.8671  2.5568  0.3002
   86CHL1    C5 8778   3.672   1.771   6.842  0.4128 -0.2390 -0.0883
   86CHL1    C6 8779   3.569   1.852   6.875 -0.1674  0.3585  0.1539
   86CHL1    H6 8780   3.500   1.895   6.801 -0.0742 -1.3143 -0.9425
   86CHL1    C7 8781   3.540   1.905   7.011 -0.2453 -0.1615  0.4609
   86CHL1   H7A 8782   3.533   2.015   7.007  3.1694  0.1564 -0.0144
   86CHL1   H7B 8783   3.441   1.862   7.037  0.3679 -2.0871 -0.2069
   86CHL1    C8 8784   3.646   1.864   7.123 -0.4697 -0.0362  0.1824
   86CHL1    H8 8785   3.731   1.932   7.100 -2.3414  2.4074  0.1217
   86CHL1   C14 8786   3.591   1.879   7.262 -0.5876  0.2606  0.2986
   86CHL1   H14 8787   3.507   1.807   7.270  0.5137 -1.4305 -2.1053
   86CHL1   C15 8788   3.531   2.011   7.317 -0.6122 -0.0807 -0.1853
   86CHL1  H15A 8789   3.585   2.104   7.290 -1.8510  0.5768 -0.4854
   86CHL1  H15B 8790   3.426   2.021   7.281 -0.8466  1.4557  0.8505
   86CHL1   C16 8791   3.548   1.992   7.473 -0.0498  0.1003  0.3444
   86CHL1  H16A 8792   3.594   2.090   7.501  0.2983  0.4795 -1.4016
   86CHL1  H16B 8793   3.448   1.958   7.504 -0.2033 -1.2975 -1.5122
   86CHL1   C17 8794   3.636   1.871   7.502 -0.0019 -0.1241  0.1544
   86CHL1   H17 8795   3.566   1.788   7.527  0.2514 -0.5676 -0.5692
   86CHL1   C13 8796   3.700   1.846   7.367  0.0605  0.5737  0.1572
   86CHL1   C18 8797   3.823   1.934   7.347 -0.6035  0.0664 -1.0638
   86CHL1  H18A 8798   3.802   2.043   7.358 -0.0896 -0.0445  1.6241
   86CHL1  H18B 8799   3.903   1.913   7.421 -0.5111  1.4572 -0.7364
   86CHL1  H18C 8800   3.869   1.925   7.246 -0.6794  1.8027 -1.2910
   86CHL1   C12 8801   3.734   1.690   7.347 -0.3597 -0.0391  0.3840
   86CHL1  H12A 8802   3.803   1.649   7.424 -0.6470 -1.6571 -0.1878
   86CHL1  H12B 8803   3.638   1.635   7.362 -0.9530 -0.6856 -4.4029
   86CHL1   C11 8804   3.784   1.661   7.209 -0.0797 -0.1736 -0.1139
   86CHL1  H11A 8805   3.887   1.702   7.213  0.3522 -1.3110  1.5657
   86CHL1  H11B 8806   3.790   1.551   7.198  0.3091 -0.0075 -1.8487
   86CHL1    C9 8807   3.696   1.721   7.098  0.3082 -0.3145  0.2305
   86CHL1    H9 8808   3.604   1.659   7.098  0.3665 -0.4211 -0.9913
   86CHL1   C10 8809   3.753   1.697   6.953  0.3315 -0.6564 -0.8561
   86CHL1   C19 8810   3.904   1.748   6.955 -0.1199  0.3870 -0.2599
   86CHL1  H19A 8811   3.973   1.673   7.000 -1.4140 -1.4841 -1.2280
   86CHL1  H19B 8812   3.933   1.742   6.848 -1.9094 -1.4571 -0.6943
   86CHL1  H19C 8813   3.914   1.851   6.993 -0.9566  0.7529 -0.9979
   86CHL1    C1 8814   3.747   1.547   6.912 -0.2269  0.0563  0.1893
   86CHL1   H1A 8815   3.833   1.504   6.969  0.5305  0.3150 -0.7174
   86CHL1   H1B 8816   3.654   1.495   6.942 -1.8775  1.4426 -2.1697
   86CHL1    C2 8817   3.789   1.515   6.766  0.0544  0.5455  0.4201
   86CHL1   H2A 8818   3.789   1.405   6.757 -2.0259  0.5090  0.3191
   86CHL1   H2B 8819   3.890   1.555   6.744 -0.5936  2.4405  0.7161
   86CHL1   C20 8820   3.727   1.901   7.622  0.0441  0.1843  0.0784
   86CHL1   H20 8821   3.779   1.998   7.606  0.0314  0.6197  2.2378
   86CHL1   C21 8822   3.823   1.788   7.651 -0.5334  0.0057  0.0573
   86CHL1  H21A 8823   3.871   1.822   7.745  0.9595  2.3061 -1.4157
   86CHL1  H21B 8824   3.894   1.781   7.565 -2.2861  0.5115 -1.5128
   86CHL1  H21C 8825   3.789   1.686   7.680  0.6060 -0.3043  0.3459
   86CHL1   C22 8826   3.636   1.923   7.753  0.3026 -0.0367 -0.1427
   86CHL1  H22A 8827   3.559   1.995   7.719  0.1248 -0.8805 -1.6070
   86CHL1  H22B 8828   3.580   1.830   7.779  2.1331 -0.7451  1.4926
   86CHL1   C23 8829   3.707   1.970   7.874  0.2887 -0.6134 -0.3254
   86CHL1  H23A 8830   3.781   1.895   7.909 -1.3399 -1.5333  1.3336
   86CHL1  H23B 8831   3.766   2.062   7.852 -2.3004  0.5841 -2.9027
   86CHL1   C24 8832   3.604   1.990   7.986  0.2363  0.4298 -0.1180
   86CHL1  H24A 8833   3.553   2.081   7.949  0.4879  0.3586 -0.6431
   86CHL1  H24B 8834   3.539   1.900   7.985 -1.6573  1.7342 -0.2607
   86CHL1   C25 8835   3.663   2.000   8.121  0.0757  0.6163  0.7689
   86CHL1   H25 8836   3.709   1.900   8.136  1.2342  1.1633  0.9291
   86CHL1   C26 8837   3.779   2.096   8.133  1.2137 -0.5206  0.0584
   86CHL1  H26A 8838   3.748   2.200   8.110  2.8646  0.2757  1.2831
   86CHL1  H26B 8839   3.810   2.107   8.239 -1.2858 -0.0167  0.8107
   86CHL1  H26C 8840   3.865   2.066   8.070  0.5433 -0.0566 -1.1198
   86CHL1   C27 8841   3.550   2.013   8.226 -0.3369  0.1948 -0.8392
   86CHL1  H27A 8842   3.582   1.988   8.330  0.2153  2.6590 -0.3528
   86CHL1  H27B 8843   3.514   2.118   8.232 -0.6971  0.1441 -1.9946
   86CHL1  H27C 8844   3.462   1.948   8.206  0.9198 -1.4040 -1.3855
   87CHL1    C3 8845   4.499   6.373   6.857 -0.5479  0.4026 -0.0451
   87CHL1    H3 8846   4.573   6.291   6.843  0.9074  1.6167  0.2608
   87CHL1    O3 8847   4.452   6.409   6.728 -0.4570 -0.4029  0.1096
   87CHL1   H3' 8848   4.388   6.479   6.743 -1.7230 -1.4851  0.0105
   87CHL1    C4 8849   4.379   6.332   6.950  0.0895 -0.4306 -0.0566
   87CHL1   H4A 8850   4.312   6.421   6.951  2.8435  1.7987 -1.1885
   87CHL1   H4B 8851   4.323   6.252   6.896 -0.9747  0.5362 -0.4450
   87CHL1    C5 8852   4.423   6.300   7.087 -0.5743 -0.3314  0.1928
   87CHL1    C6 8853   4.387   6.183   7.141  0.0868  0.8142  0.4112
   87CHL1    H6 8854   4.330   6.103   7.091 -0.6337  0.1314  2.2141
   87CHL1    C7 8855   4.420   6.142   7.277  0.3972 -0.2056 -0.2660
   87CHL1   H7A 8856   4.328   6.096   7.317  0.7845  0.5977  1.6640
   87CHL1   H7B 8857   4.511   6.079   7.284 -0.1640 -1.2661 -1.9498
   87CHL1    C8 8858   4.462   6.262   7.369  0.6722 -0.1470  0.0018
   87CHL1    H8 8859   4.370   6.322   7.389 -0.3539 -1.2687 -1.1790
   87CHL1   C14 8860   4.538   6.217   7.493  0.3503  0.0817 -0.3551
   87CHL1   H14 8861   4.629   6.170   7.450 -0.4245 -0.7621 -1.1204
   87CHL1   C15 8862   4.471   6.104   7.570 -0.4863  0.5238 -0.4914
   87CHL1  H15A 8863   4.365   6.134   7.588 -1.2063 -2.1256  0.1151
   87CHL1  H15B 8864   4.477   6.008   7.514 -0.5460  0.4411 -0.3563
   87CHL1   C16 8865   4.556   6.114   7.708  0.4746 -0.1388 -0.4808
   87CHL1  H16A 8866   4.475   6.130   7.782 -0.5774  0.0610 -1.6373
   87CHL1  H16B 8867   4.618   6.025   7.732 -1.1149 -1.2020 -0.1504
   87CHL1   C17 8868   4.648   6.239   7.707 -0.3892 -0.0423 -0.3396
   87CHL1   H17 8869   4.751   6.220   7.672  0.3763 -0.1767  1.8378
   87CHL1   C13 8870   4.589   6.327   7.593  0.5977  0.8514  0.5663
   87CHL1   C18 8871   4.468   6.408   7.638  0.3908 -0.8107 -0.9601
   87CHL1  H18A 8872   4.411   6.448   7.551 -0.5999  0.6363  0.3005
   87CHL1  H18B 8873   4.405   6.340   7.698  2.0388 -0.3035  1.4699
   87CHL1  H18C 8874   4.510   6.491   7.698  0.3438 -0.6220 -1.1831
   87CHL1   C12 8875   4.689   6.406   7.512  0.7188 -0.5451  0.3479
   87CHL1  H12A 8876   4.717   6.498   7.566 -0.6690 -0.1904  0.4934
   87CHL1  H12B 8877   4.781   6.352   7.481  0.7661 -0.4651  0.3502
   87CHL1   C11 8878   4.631   6.466   7.380  0.4223 -0.1501 -0.1421
   87CHL1  H11A 8879   4.554   6.540   7.410  1.2872  0.1763  1.3871
   87CHL1  H11B 8880   4.711   6.510   7.318  0.2308  1.0181  0.4144
   87CHL1    C9 8881   4.566   6.353   7.297  0.3541 -0.5959  0.2135
   87CHL1    H9 8882   4.650   6.289   7.261 -1.5690 -2.0087 -2.0652
   87CHL1   C10 8883   4.506   6.407   7.162  0.2535  0.1218 -0.0230
   87CHL1   C19 8884   4.420   6.534   7.190  0.4638  0.2711 -1.0556
   87CHL1  H19A 8885   4.380   6.574   7.094  0.1553 -0.2407 -1.1442
   87CHL1  H19B 8886   4.336   6.498   7.252  0.9125 -1.2846 -1.3144
   87CHL1  H19C 8887   4.471   6.611   7.252  1.1219  1.1579 -2.6223
   87CHL1    C1 8888   4.616   6.451   7.062  0.3306 -0.2456 -0.0206
   87CHL1   H1A 8889   4.664   6.531   7.122  1.2713 -1.1582  0.4713
   87CHL1   H1B 8890   4.679   6.360   7.053  1.3435  0.4051  0.4075
   87CHL1    C2 8891   4.574   6.492   6.918  0.7006  0.0066 -0.1247
   87CHL1   H2A 8892   4.672   6.517   6.872 -0.7793  1.5963 -2.6172
   87CHL1   H2B 8893   4.504   6.578   6.922  1.7201  1.0388 -2.6143
   87CHL1   C20 8894   4.673   6.314   7.841  0.2774 -0.4721 -0.2901
   87CHL1   H20 8895   4.573   6.346   7.877  0.7161  0.2251  0.3443
   87CHL1   C21 8896   4.754   6.444   7.845  0.7772  0.1959  0.3165
   87CHL1  H21A 8897   4.703   6.515   7.776  2.3024 -1.0659 -2.2396
   87CHL1  H21B 8898   4.857   6.419   7.812  0.2471  0.4833 -1.7093
   87CHL1  H21C 8899   4.764   6.482   7.949 -0.9520 -1.0340  0.9746
   87CHL1   C22 8900   4.739   6.229   7.950  0.0658  0.1330  0.2668
   87CHL1  H22A 8901   4.685   6.133   7.935 -1.7826  1.3241 -1.3639
   87CHL1  H22B 8902   4.844   6.207   7.921 -0.4861 -1.9828 -0.2634
   87CHL1   C23 8903   4.715   6.266   8.097 -0.8087  0.5072 -0.6720
   87CHL1  H23A 8904   4.768   6.363   8.111  0.4246 -0.1153 -0.8365
   87CHL1  H23B 8905   4.605   6.280   8.095 -1.1278 -1.6613 -2.2287
   87CHL1   C24 8906   4.760   6.162   8.207  0.2092  0.2440 -0.0619
   87CHL1  H24A 8907   4.709   6.064   8.197  0.2649  0.0380  1.4308
   87CHL1  H24B 8908   4.865   6.126   8.201  0.7703  1.4623  1.5624
   87CHL1   C25 8909   4.739   6.213   8.355 -1.2549  0.4383 -0.5476
   87CHL1   H25 8910   4.761   6.321   8.367  1.5349 -0.2655  1.7280
   87CHL1   C26 8911   4.591   6.193   8.400  0.4406 -0.5264  0.1608
   87CHL1  H26A 8912   4.577   6.211   8.508  0.0341  0.8811 -0.1002
   87CHL1  H26B 8913   4.527   6.274   8.359  0.8050  0.3000  1.2042
   87CHL1  H26C 8914   4.551   6.090   8.384 -1.2826  0.2204 -0.7135
   87CHL1   C27 8915   4.825   6.136   8.449  0.0350  0.2405  0.5973
   87CHL1  H27A 8916   4.806   6.030   8.422 -0.7936  1.0183 -2.1210
   87CHL1  H27B 8917   4.934   6.157   8.444  0.0145  0.4202  0.8935
   87CHL1  H27C 8918   4.785   6.149   8.552 -0.0876  1.3465  0.4189
   88CHL1    C3 8919   1.358   6.378   6.669 -0.0728 -0.4665 -0.3347
   88CHL1    H3 8920   1.280   6.302   6.648  0.4496 -1.3843  0.9565
   88CHL1    O3 8921   1.362   6.464   6.554 -0.0211  0.0280 -0.4699
   88CHL1   H3' 8922   1.441   6.514   6.575  1.4025 -2.3844  0.2859
   88CHL1    C4 8923   1.319   6.466   6.786  0.7065 -0.2239 -0.3371
   88CHL1   H4A 8924   1.378   6.559   6.794  0.7682 -0.3004  0.0999
   88CHL1   H4B 8925   1.216   6.500   6.762  0.8753  1.0685  0.6751
   88CHL1    C5 8926   1.313   6.394   6.922 -0.4763  0.5907  0.1570
   88CHL1    C6 8927   1.206   6.393   7.002  0.1771  0.4221 -1.0647
   88CHL1    H6 8928   1.115   6.454   6.993 -0.1562  0.2511  0.6907
   88CHL1    C7 8929   1.216   6.325   7.138  0.2660  0.3875  0.6633
   88CHL1   H7A 8930   1.176   6.398   7.212 -1.4125  0.8685 -0.6474
   88CHL1   H7B 8931   1.153   6.234   7.143  0.4055  0.2839  0.5145
   88CHL1    C8 8932   1.356   6.285   7.178  1.3817 -0.0383 -0.3656
   88CHL1    H8 8933   1.401   6.384   7.202  1.6625 -0.3383  0.3654
   88CHL1   C14 8934   1.357   6.193   7.303 -0.4986 -0.3136 -0.3094
   88CHL1   H14 8935   1.310   6.101   7.263  1.4804 -0.3089 -2.9587
   88CHL1   C15 8936   1.281   6.247   7.424 -0.8855  0.1791  0.6580
   88CHL1  H15A 8937   1.296   6.356   7.439 -1.5439  1.0199 -3.4617
   88CHL1  H15B 8938   1.173   6.228   7.408 -1.4750  3.2699  0.3088
   88CHL1   C16 8939   1.339   6.175   7.544  0.0380  0.1425  0.5074
   88CHL1  H16A 8940   1.394   6.245   7.611 -2.3886  1.1941  1.5206
   88CHL1  H16B 8941   1.264   6.116   7.599  0.3113 -1.4441 -0.7290
   88CHL1   C17 8942   1.453   6.082   7.488 -0.3921 -0.2508 -0.0920
   88CHL1   H17 8943   1.415   5.982   7.455 -1.1633 -0.8172  2.3431
   88CHL1   C13 8944   1.495   6.157   7.360  0.1095  0.5750  0.2804
   88CHL1   C18 8945   1.579   6.282   7.392  0.0695  0.5249 -0.2190
   88CHL1  H18A 8946   1.578   6.361   7.314  0.7354  1.0784  0.3254
   88CHL1  H18B 8947   1.539   6.342   7.476 -0.5441  0.7210 -0.6443
   88CHL1  H18C 8948   1.685   6.253   7.403  0.4342  1.5699 -0.8651
   88CHL1   C12 8949   1.558   6.070   7.250  0.1320  0.2698  0.1014
   88CHL1  H12A 8950   1.659   6.041   7.285 -0.5910  0.6411  2.6929
   88CHL1  H12B 8951   1.493   5.982   7.230  0.3864 -0.0807  0.8280
   88CHL1   C11 8952   1.572   6.157   7.119  0.1908  0.3750  0.0294
   88CHL1  H11A 8953   1.649   6.236   7.133 -2.4192  2.9427  0.6311
   88CHL1  H11B 8954   1.603   6.088   7.037  2.4952  0.6690  0.5663
   88CHL1    C9 8955   1.433   6.222   7.062 -0.4921 -0.2945 -0.2979
   88CHL1    H9 8956   1.364   6.140   7.032 -0.0910 -1.3902  1.5988
   88CHL1   C10 8957   1.448   6.321   6.938  0.0769  0.0523 -0.3780
   88CHL1   C19 8958   1.559   6.429   6.965  0.6532  0.0689  0.4078
   88CHL1  H19A 8959   1.546   6.472   7.067 -0.6587 -0.5655  0.5316
   88CHL1  H19B 8960   1.663   6.390   6.964  0.7232  0.1979  1.3120
   88CHL1  H19C 8961   1.550   6.518   6.900  2.1584 -0.3210 -0.3856
   88CHL1    C1 8962   1.491   6.232   6.815 -0.3674 -0.0023  0.0214
   88CHL1   H1A 8963   1.585   6.178   6.840 -1.2030 -1.0258  1.0866
   88CHL1   H1B 8964   1.422   6.145   6.820  1.2545 -1.3059  1.1896
   88CHL1    C2 8965   1.487   6.301   6.684 -0.0460  0.0108 -0.4510
   88CHL1   H2A 8966   1.494   6.228   6.601  1.9085 -1.6334  1.0516
   88CHL1   H2B 8967   1.573   6.370   6.673 -1.1241  1.0814 -2.7447
   88CHL1   C20 8968   1.554   6.056   7.596 -0.5709  0.0663  0.2134
   88CHL1   H20 8969   1.591   6.148   7.645 -2.2758  0.2813  1.1955
   88CHL1   C21 8970   1.680   5.972   7.543  0.1174 -0.6008 -0.3643
   88CHL1  H21A 8971   1.737   5.933   7.629  0.7473  1.6645  0.3194
   88CHL1  H21B 8972   1.741   6.051   7.494 -1.9457 -0.1630 -2.4202
   88CHL1  H21C 8973   1.644   5.881   7.490 -0.0138 -1.1789  0.6977
   88CHL1   C22 8974   1.491   5.989   7.723 -0.3743 -0.0936  0.0685
   88CHL1  H22A 8975   1.386   6.017   7.747 -0.9788 -1.7678 -0.4655
   88CHL1  H22B 8976   1.474   5.883   7.693 -0.2741  0.1873 -1.0433
   88CHL1   C23 8977   1.564   6.003   7.858 -0.1551 -0.5242  0.6625
   88CHL1  H23A 8978   1.505   5.948   7.934 -0.4225 -2.6068 -0.9678
   88CHL1  H23B 8979   1.666   5.960   7.847  0.5910  1.4075 -0.6265
   88CHL1   C24 8980   1.567   6.150   7.905 -0.1025  0.1108  0.1635
   88CHL1  H24A 8981   1.632   6.205   7.834  2.1534 -3.0248 -0.3999
   88CHL1  H24B 8982   1.467   6.197   7.904 -0.9612 -1.5551  1.8291
   88CHL1   C25 8983   1.614   6.156   8.051  0.3581 -0.8375 -0.5469
   88CHL1   H25 8984   1.551   6.096   8.120  0.6727  0.1612  0.6463
   88CHL1   C26 8985   1.754   6.112   8.065  0.0534  0.2576  0.3876
   88CHL1  H26A 8986   1.821   6.161   7.990 -0.1042 -1.7285 -1.1376
   88CHL1  H26B 8987   1.797   6.122   8.167  2.3063 -0.9766 -0.3611
   88CHL1  H26C 8988   1.760   6.003   8.046  1.7194  0.1958  1.0290
   88CHL1   C27 8989   1.603   6.303   8.100 -0.4269 -0.1994  1.0574
   88CHL1  H27A 8990   1.628   6.373   8.018 -1.1341 -1.2962 -0.1410
   88CHL1  H27B 8991   1.500   6.328   8.135 -0.5020  1.4812 -0.3036
   88CHL1  H27C 8992   1.662   6.319   8.192 -3.8449 -2.9807  4.0994
   89CHL1    C3 8993   4.814   0.637   7.027  0.5236  0.8971  0.3209
   89CHL1    H3 8994   4.906   0.613   6.971  1.5642  1.3450  1.7673
   89CHL1    O3 8995   4.705   0.653   6.937 -0.0239  0.0448 -0.4125
   89CHL1   H3' 8996   4.677   0.563   6.922 -1.8541  0.3004  1.1502
   89CHL1    C4 8997   4.781   0.523   7.125 -0.1997 -0.2240  0.3611
   89CHL1   H4A 8998   4.685   0.534   7.179  0.8840  0.2235  2.2944
   89CHL1   H4B 8999   4.766   0.436   7.057 -0.1046 -0.5421  0.7402
   89CHL1    C5 9000   4.876   0.506   7.234  0.6127  0.0700  0.2535
   89CHL1    C6 9001   4.929   0.382   7.258  0.3781 -0.2985 -0.2501
   89CHL1    H6 9002   4.902   0.293   7.199  0.6381  0.5362 -1.6728
   89CHL1    C7 9003   5.026   0.347   7.373 -0.7120  0.0087  0.4208
   89CHL1   H7A 9004   5.001   0.254   7.430  1.6585 -0.0794  1.4365
   89CHL1   H7B 9005   5.122   0.319   7.326  2.2513  2.3608  4.4647
   89CHL1    C8 9006   5.045   0.463   7.467 -0.2055 -0.3985 -0.2795
   89CHL1    H8 9007   4.951   0.473   7.526 -1.3341 -1.4012 -1.8519
   89CHL1   C14 9008   5.159   0.443   7.563 -0.3532 -0.3275  0.0728
   89CHL1   H14 9009   5.249   0.432   7.499 -1.4833 -2.8557 -1.2326
   89CHL1   C15 9010   5.167   0.315   7.652  0.4445 -0.1403  0.1257
   89CHL1  H15A 9011   5.063   0.316   7.689  0.2539  0.1951 -0.3894
   89CHL1  H15B 9012   5.171   0.214   7.606 -1.5656 -1.1504  2.0306
   89CHL1   C16 9013   5.267   0.352   7.758  0.0344 -0.0002 -0.3217
   89CHL1  H16A 9014   5.222   0.330   7.857  2.3775  0.5812  0.9107
   89CHL1  H16B 9015   5.362   0.296   7.756 -1.2580 -2.3337 -0.4664
   89CHL1   C17 9016   5.306   0.502   7.733  0.2958 -0.0255  0.4129
   89CHL1   H17 9017   5.398   0.496   7.671 -1.4041 -4.6553 -2.2183
   89CHL1   C13 9018   5.189   0.564   7.653  0.7578 -0.3444 -0.2770
   89CHL1   C18 9019   5.069   0.599   7.745  0.1100  0.6188 -0.3908
   89CHL1  H18A 9020   5.048   0.520   7.820  1.0263  1.1297  0.4099
   89CHL1  H18B 9021   5.100   0.694   7.793 -0.3281  0.6966 -0.2541
   89CHL1  H18C 9022   4.974   0.632   7.696  1.1224  1.0088 -2.2007
   89CHL1   C12 9023   5.222   0.684   7.559  0.1088  0.6027 -1.1078
   89CHL1  H12A 9024   5.248   0.773   7.620 -1.0105 -0.4032  0.9713
   89CHL1  H12B 9025   5.309   0.649   7.500  0.2066 -2.8016  0.8361
   89CHL1   C11 9026   5.096   0.717   7.472  0.2049 -0.4765 -0.8360
   89CHL1  H11A 9027   5.022   0.765   7.539  1.7354 -0.0567  0.6302
   89CHL1  H11B 9028   5.129   0.798   7.403  0.4148 -1.7674 -2.3160
   89CHL1    C9 9029   5.057   0.594   7.391  0.7608 -0.4620  0.5189
   89CHL1    H9 9030   5.146   0.578   7.326  3.7247 -1.1706  4.4063
   89CHL1   C10 9031   4.934   0.627   7.299  0.0371  0.0173 -0.2129
   89CHL1   C19 9032   4.814   0.675   7.389  0.0462  0.4541 -0.3150
   89CHL1  H19A 9033   4.805   0.621   7.486  1.8600 -0.3166 -0.5425
   89CHL1  H19B 9034   4.843   0.778   7.420 -0.3415  0.0609  1.4985
   89CHL1  H19C 9035   4.717   0.676   7.335  0.1138  0.7448 -0.4351
   89CHL1    C1 9036   4.965   0.746   7.194  0.0868  0.0759  0.1290
   89CHL1   H1A 9037   4.996   0.842   7.240 -0.9431  0.5293 -0.1163
   89CHL1   H1B 9038   5.047   0.713   7.127  0.5554  1.8444 -0.2312
   89CHL1    C2 9039   4.837   0.766   7.109 -0.4638 -0.7110  0.2660
   89CHL1   H2A 9040   4.848   0.857   7.046 -1.4308  0.0458  1.1729
   89CHL1   H2B 9041   4.744   0.781   7.167 -0.7353 -0.4274 -0.2320
   89CHL1   C20 9042   5.345   0.570   7.872 -0.3955 -0.4608  1.0406
   89CHL1   H20 9043   5.260   0.552   7.941 -0.4794 -0.8091  0.8478
   89CHL1   C21 9044   5.376   0.721   7.837  0.0795  0.1213 -0.1827
   89CHL1  H21A 9045   5.421   0.766   7.928  0.5324 -0.8552  0.0849
   89CHL1  H21B 9046   5.280   0.775   7.818 -0.4860 -1.0379 -0.7035
   89CHL1  H21C 9047   5.441   0.721   7.746  1.2435  0.5287  0.6270
   89CHL1   C22 9048   5.482   0.523   7.927 -0.3492  0.7884 -0.2864
   89CHL1  H22A 9049   5.539   0.463   7.853 -0.8580 -0.2528  0.1423
   89CHL1  H22B 9050   5.542   0.609   7.965 -0.1630  1.2086 -1.4996
   89CHL1   C23 9051   5.452   0.433   8.051 -0.2131 -0.2388 -0.6444
   89CHL1  H23A 9052   5.383   0.480   8.124 -0.2446 -0.1972 -0.7010
   89CHL1  H23B 9053   5.398   0.344   8.012 -0.3468  0.4474 -2.0878
   89CHL1   C24 9054   5.578   0.383   8.118 -0.0938  0.7641  0.0431
   89CHL1  H24A 9055   5.620   0.315   8.042 -0.6559  2.2654 -1.6789
   89CHL1  H24B 9056   5.645   0.468   8.143  1.1479 -0.3304  0.5126
   89CHL1   C25 9057   5.562   0.298   8.255  0.5632 -0.1651  0.2812
   89CHL1   H25 9058   5.502   0.207   8.233  3.9042 -2.0784 -1.8209
   89CHL1   C26 9059   5.697   0.254   8.301  0.3909  0.4877  0.1231
   89CHL1  H26A 9060   5.756   0.344   8.331  3.0249 -1.2647  0.4951
   89CHL1  H26B 9061   5.690   0.189   8.390  1.4463 -0.6873 -0.6221
   89CHL1  H26C 9062   5.740   0.194   8.218  0.2758  0.0189  0.4036
   89CHL1   C27 9063   5.494   0.375   8.372 -0.3479 -0.0788  1.0500
   89CHL1  H27A 9064   5.509   0.318   8.466  2.4249 -1.4324 -0.0998
   89CHL1  H27B 9065   5.551   0.468   8.393  0.1503  0.1432 -1.0232
   89CHL1  H27C 9066   5.388   0.398   8.349  0.2024  0.7961 -0.8106
   90CHL1    C3 9067   1.834   4.119   6.907  0.6185  0.2134 -0.4342
   90CHL1    H3 9068   1.943   4.140   6.906  0.2478  2.5549  1.0380
   90CHL1    O3 9069   1.790   4.139   6.767  0.0422  0.2109 -0.6371
   90CHL1   H3' 9070   1.792   4.235   6.766 -1.1613  0.3120  1.2728
   90CHL1    C4 9071   1.807   3.974   6.942 -0.1993 -0.0268 -1.0178
   90CHL1   H4A 9072   1.700   3.948   6.924  0.2151 -0.5479 -2.9347
   90CHL1   H4B 9073   1.875   3.924   6.870  1.0355  2.1393 -1.4116
   90CHL1    C5 9074   1.843   3.940   7.087  0.3702  0.9073 -0.2458
   90CHL1    C6 9075   1.918   3.833   7.131  0.4547 -0.0225 -0.5832
   90CHL1    H6 9076   1.963   3.763   7.060  1.3229 -1.7842  1.5757
   90CHL1    C7 9077   1.940   3.808   7.277 -0.2888  0.3131 -0.3180
   90CHL1   H7A 9078   1.928   3.700   7.302 -1.1890  0.2088 -1.1590
   90CHL1   H7B 9079   2.040   3.843   7.310 -0.5624  1.2529 -0.4755
   90CHL1    C8 9080   1.838   3.875   7.372 -0.4360 -0.4568  0.2391
   90CHL1    H8 9081   1.741   3.825   7.355 -0.4306 -0.7141  0.9524
   90CHL1   C14 9082   1.882   3.867   7.518  0.4253 -0.0510 -0.9634
   90CHL1   H14 9083   1.979   3.920   7.529  0.5308 -0.4653  0.3942
   90CHL1   C15 9084   1.896   3.726   7.581  0.4711  0.7215 -0.3564
   90CHL1  H15A 9085   1.804   3.673   7.549  1.1434 -0.1751 -0.8643
   90CHL1  H15B 9086   1.988   3.673   7.549  0.8661  1.4906 -0.5239
   90CHL1   C16 9087   1.895   3.759   7.733  0.4691  0.1418  0.6700
   90CHL1  H16A 9088   1.812   3.705   7.783  1.5303 -1.0917  1.1437
   90CHL1  H16B 9089   1.984   3.741   7.797 -0.9609 -2.4897  2.0599
   90CHL1   C17 9090   1.858   3.915   7.752  0.4507 -0.4504 -0.2731
   90CHL1   H17 9091   1.958   3.964   7.759  1.2409 -1.9095 -0.9932
   90CHL1   C13 9092   1.797   3.949   7.611 -0.8730 -0.4869 -0.1991
   90CHL1   C18 9093   1.648   3.909   7.607 -0.0372  0.3357 -0.2674
   90CHL1  H18A 9094   1.633   3.800   7.626  0.8072 -0.3642 -3.1700
   90CHL1  H18B 9095   1.588   3.963   7.683  0.7567  0.6148  0.1724
   90CHL1  H18C 9096   1.605   3.916   7.504 -1.5806  1.3171  0.4017
   90CHL1   C12 9097   1.811   4.097   7.572  0.7548 -0.2264  0.0952
   90CHL1  H12A 9098   1.751   4.166   7.635  0.3029 -1.6008  1.2165
   90CHL1  H12B 9099   1.921   4.114   7.571  0.9193 -1.1444  0.9446
   90CHL1   C11 9100   1.755   4.118   7.429  0.3127  0.3079 -0.4582
   90CHL1  H11A 9101   1.647   4.095   7.419  0.5939 -0.9890 -0.6791
   90CHL1  H11B 9102   1.764   4.227   7.411 -0.7730  0.4126 -0.4118
   90CHL1    C9 9103   1.832   4.026   7.329  0.1657 -0.3158 -0.3724
   90CHL1    H9 9104   1.933   4.072   7.330 -0.0130  0.1401 -1.8314
   90CHL1   C10 9105   1.777   4.034   7.184  0.4891 -0.1597  0.0439
   90CHL1   C19 9106   1.616   4.015   7.194 -0.0768 -0.0979  0.4117
   90CHL1  H19A 9107   1.570   4.107   7.237 -0.7456 -0.0434 -0.3973
   90CHL1  H19B 9108   1.571   3.990   7.096  0.8855 -2.1560  0.4491
   90CHL1  H19C 9109   1.580   3.937   7.264 -4.0915 -1.7980 -3.1364
   90CHL1    C1 9110   1.792   4.178   7.134  0.2775 -0.0946 -0.4565
   90CHL1   H1A 9111   1.734   4.247   7.199 -1.3415 -0.2295 -1.6857
   90CHL1   H1B 9112   1.897   4.213   7.133  0.5302 -0.7582 -2.8739
   90CHL1    C2 9113   1.743   4.203   6.996  0.6206  0.7464 -0.4161
   90CHL1   H2A 9114   1.737   4.312   6.979  1.6232  1.0063  0.7439
   90CHL1   H2B 9115   1.637   4.173   6.982  1.1548 -0.2259 -2.8274
   90CHL1   C20 9116   1.791   3.954   7.878  0.6481  0.1594  0.5252
   90CHL1   H20 9117   1.688   3.912   7.882 -0.1886  2.1641  1.5750
   90CHL1   C21 9118   1.786   4.105   7.883 -0.0809 -0.1718  0.0141
   90CHL1  H21A 9119   1.698   4.147   7.828  0.5990  1.1014 -0.1464
   90CHL1  H21B 9120   1.880   4.146   7.840  0.3007 -1.3407 -0.2994
   90CHL1  H21C 9121   1.775   4.147   7.986 -0.5630 -0.9395  0.2839
   90CHL1   C22 9122   1.872   3.903   8.003  0.1309 -0.4059 -0.9176
   90CHL1  H22A 9123   1.902   3.797   7.988 -0.4927 -0.7461  0.1451
   90CHL1  H22B 9124   1.964   3.966   8.001  0.5730 -1.0529 -2.2381
   90CHL1   C23 9125   1.795   3.901   8.131 -0.0728  0.0505 -0.2108
   90CHL1  H23A 9126   1.782   4.004   8.172  0.2188 -1.3330  3.7425
   90CHL1  H23B 9127   1.689   3.872   8.111 -0.5188  1.3828  0.1156
   90CHL1   C24 9128   1.852   3.813   8.244 -0.2740  0.1588 -0.5329
   90CHL1  H24A 9129   1.771   3.803   8.320 -0.5673 -0.6704 -0.9395
   90CHL1  H24B 9130   1.860   3.712   8.198  0.5051 -0.6517  1.2587
   90CHL1   C25 9131   1.995   3.853   8.286  1.3573 -0.5088 -0.1931
   90CHL1   H25 9132   2.062   3.831   8.199  1.1050  0.1111 -0.5494
   90CHL1   C26 9133   2.007   4.000   8.327 -0.9750 -0.2332  0.3488
   90CHL1  H26A 9134   2.085   4.007   8.405  0.1777 -2.9851 -0.4472
   90CHL1  H26B 9135   2.027   4.065   8.239 -0.0378 -2.0067 -0.7982
   90CHL1  H26C 9136   1.908   4.026   8.370 -0.0674 -0.1591  2.4925
   90CHL1   C27 9137   2.054   3.763   8.399 -0.7446  0.1479  0.7035
   90CHL1  H27A 9138   1.997   3.773   8.494 -0.7556 -1.5277  0.8930
   90CHL1  H27B 9139   2.053   3.656   8.371 -0.5886  0.5704 -1.0005
   90CHL1  H27C 9140   2.159   3.795   8.419 -0.5636  1.6559 -2.1831
   91CHL1    C3 9141   5.293   3.472   7.393 -0.6802  0.4819  0.3150
   91CHL1    H3 9142   5.315   3.365   7.417 -0.6030  0.4632  0.1608
   91CHL1    O3 9143   5.300   3.491   7.251  0.1469 -0.2006  0.4038
   91CHL1   H3' 9144   5.243   3.565   7.230 -0.1678 -0.8515 -1.1981
   91CHL1    C4 9145   5.160   3.513   7.446 -0.1108  0.4051  0.0101
   91CHL1   H4A 9146   5.122   3.604   7.394 -2.2968  0.5156  1.6559
   91CHL1   H4B 9147   5.079   3.445   7.413 -0.4076  0.6735  0.1741
   91CHL1    C5 9148   5.144   3.527   7.598 -0.0861  1.0845  0.6055
   91CHL1    C6 9149   5.051   3.456   7.661  0.3730  0.1086  0.0983
   91CHL1    H6 9150   4.990   3.388   7.600  1.9139  0.7885 -2.3666
   91CHL1    C7 9151   5.027   3.472   7.806 -0.4362  0.2039 -0.0514
   91CHL1   H7A 9152   4.921   3.494   7.831 -0.8397 -0.9989 -0.5948
   91CHL1   H7B 9153   5.058   3.379   7.858 -0.6442  1.2326  2.0107
   91CHL1    C8 9154   5.120   3.577   7.879 -0.1543 -1.2534 -0.5224
   91CHL1    H8 9155   5.076   3.676   7.855 -0.3257 -1.2174 -0.0707
   91CHL1   C14 9156   5.115   3.558   8.027 -0.0146 -0.7390  0.0890
   91CHL1   H14 9157   5.161   3.460   8.053 -0.6045 -0.6492  1.5315
   91CHL1   C15 9158   4.978   3.544   8.090  0.7381  0.1552  0.3774
   91CHL1  H15A 9159   4.898   3.610   8.050  0.5785 -0.7696 -0.8930
   91CHL1  H15B 9160   4.937   3.440   8.091  0.3363  0.2894 -0.6642
   91CHL1   C16 9161   5.005   3.582   8.237  0.0214 -0.3271  0.3267
   91CHL1  H16A 9162   4.952   3.676   8.264  1.7170  0.4026  1.2767
   91CHL1  H16B 9163   4.952   3.508   8.301  0.0892  0.9345  1.9183
   91CHL1   C17 9164   5.159   3.607   8.261  0.3801  0.3799 -0.0363
   91CHL1   H17 9165   5.211   3.511   8.281  1.0194  0.8207  0.4482
   91CHL1   C13 9166   5.205   3.645   8.118  0.2506 -0.6393  0.1025
   91CHL1   C18 9167   5.163   3.795   8.089  0.4860 -0.7350  0.1175
   91CHL1  H18A 9168   5.154   3.830   7.984 -1.7216  0.3258  0.6013
   91CHL1  H18B 9169   5.061   3.808   8.131  0.2239 -2.8228  0.2481
   91CHL1  H18C 9170   5.230   3.860   8.149  0.2704 -0.3577 -0.0500
   91CHL1   C12 9171   5.351   3.619   8.076  0.4243 -0.3051 -0.1843
   91CHL1  H12A 9172   5.433   3.675   8.127 -0.4615  1.0158 -0.1566
   91CHL1  H12B 9173   5.377   3.511   8.080 -0.4334 -0.6608 -2.5603
   91CHL1   C11 9174   5.369   3.640   7.921 -0.2167 -0.0122  0.5207
   91CHL1  H11A 9175   5.362   3.750   7.910  0.5781 -0.1843 -2.6415
   91CHL1  H11B 9176   5.472   3.606   7.898 -0.5697  0.0039 -1.2366
   91CHL1    C9 9177   5.262   3.567   7.828 -0.1142  0.2399 -0.3738
   91CHL1    H9 9178   5.295   3.462   7.842  0.3851  0.4010 -0.3008
   91CHL1   C10 9179   5.265   3.600   7.672  0.0545 -1.3376 -0.6862
   91CHL1   C19 9180   5.260   3.753   7.647  0.4272 -0.1716 -0.4069
   91CHL1  H19A 9181   5.264   3.779   7.539 -3.6311 -1.8642 -1.1788
   91CHL1  H19B 9182   5.166   3.788   7.695  0.5433  0.0130 -0.3132
   91CHL1  H19C 9183   5.338   3.796   7.713  0.3266 -1.0993  0.3333
   91CHL1    C1 9184   5.397   3.559   7.603  0.5461 -0.1888  0.5353
   91CHL1   H1A 9185   5.474   3.630   7.640  0.5433  0.3933 -0.5153
   91CHL1   H1B 9186   5.417   3.455   7.635  1.8219 -0.2835 -0.5140
   91CHL1    C2 9187   5.401   3.559   7.452  0.3274 -0.8330 -0.5230
   91CHL1   H2A 9188   5.508   3.545   7.423  1.0987  1.6296  0.7864
   91CHL1   H2B 9189   5.383   3.661   7.411 -0.1488 -1.5939 -2.3039
   91CHL1   C20 9190   5.187   3.698   8.377  0.0251  0.5928 -0.3568
   91CHL1   H20 9191   5.172   3.804   8.345  1.5414  0.7935 -0.4627
   91CHL1   C21 9192   5.330   3.694   8.410  0.0299 -0.0728  0.0400
   91CHL1  H21A 9193   5.367   3.591   8.428  0.0124 -0.1169 -0.1707
   91CHL1  H21B 9194   5.353   3.759   8.498  1.0668  0.3231 -0.4997
   91CHL1  H21C 9195   5.394   3.733   8.328  2.2234  1.0412  2.1195
   91CHL1   C22 9196   5.112   3.668   8.510 -0.0279  0.0460 -0.1159
   91CHL1  H22A 9197   5.155   3.736   8.586  1.4077  1.4512 -2.0827
   91CHL1  H22B 9198   5.002   3.676   8.498  0.0241 -0.2603 -0.8617
   91CHL1   C23 9199   5.134   3.525   8.569 -0.9309  0.3024 -0.3420
   91CHL1  H23A 9200   5.067   3.462   8.506 -0.2165  0.9921 -1.8188
   91CHL1  H23B 9201   5.238   3.488   8.560 -0.8781  0.5952 -0.9594
   91CHL1   C24 9202   5.091   3.516   8.722 -0.1612 -0.7603 -0.0896
   91CHL1  H24A 9203   5.132   3.604   8.776 -2.1541 -1.3477  2.5663
   91CHL1  H24B 9204   4.983   3.543   8.720 -0.2921 -1.1311  1.2141
   91CHL1   C25 9205   5.123   3.386   8.804  0.0846  0.4961  0.6599
   91CHL1   H25 9206   5.055   3.305   8.769 -0.0985  1.5753 -1.6640
   91CHL1   C26 9207   5.264   3.341   8.797 -0.9344  0.2004  0.1394
   91CHL1  H26A 9208   5.286   3.322   8.690 -2.4511  0.3131 -0.2074
   91CHL1  H26B 9209   5.332   3.422   8.833 -1.9652  0.7867  0.8158
   91CHL1  H26C 9210   5.283   3.249   8.856  1.9773  0.9745  0.5743
   91CHL1   C27 9211   5.071   3.413   8.947  0.3773  0.3456  0.1135
   91CHL1  H27A 9212   5.104   3.514   8.980  0.8287  0.1787  0.1841
   91CHL1  H27B 9213   4.960   3.410   8.948  0.3612  0.9364  0.2300
   91CHL1  H27C 9214   5.122   3.344   9.018  0.7417  0.3346 -0.1531
   92CHL1    C3 9215   1.190   6.007   6.627 -0.1033 -0.2540  0.0537
   92CHL1    H3 9216   1.262   6.083   6.664 -1.1173  1.6231 -1.6342
   92CHL1    O3 9217   1.181   6.027   6.488 -0.1124  0.3721  0.3606
   92CHL1   H3' 9218   1.097   6.073   6.477  0.0922  1.1206  1.7458
   92CHL1    C4 9219   1.244   5.866   6.673 -0.2568 -0.4534  0.9209
   92CHL1   H4A 9220   1.184   5.782   6.634  1.5738  0.2622 -4.1520
   92CHL1   H4B 9221   1.345   5.856   6.628  0.1970  0.2370  1.7603
   92CHL1    C5 9222   1.254   5.854   6.823  0.4513 -0.4141 -0.3249
   92CHL1    C6 9223   1.365   5.820   6.884  0.2494 -0.2209 -0.1029
   92CHL1    H6 9224   1.456   5.791   6.829  1.2921 -3.2321  2.8582
   92CHL1    C7 9225   1.366   5.786   7.032  0.0651  0.0357  0.0631
   92CHL1   H7A 9226   1.401   5.681   7.045  0.9008  0.2453 -0.4224
   92CHL1   H7B 9227   1.436   5.854   7.084 -1.8626  1.9623  0.2909
   92CHL1    C8 9228   1.227   5.795   7.098 -0.8156 -0.5234 -0.0650
   92CHL1    H8 9229   1.182   5.697   7.071  2.8758 -3.0189  1.9174
   92CHL1   C14 9230   1.251   5.797   7.252 -0.1409  0.2836 -0.2969
   92CHL1   H14 9231   1.317   5.884   7.276 -1.5226  0.6788  2.4764
   92CHL1   C15 9232   1.319   5.676   7.316 -0.3657 -0.2113  0.1892
   92CHL1  H15A 9233   1.266   5.580   7.297 -1.9055  0.9196 -1.6639
   92CHL1  H15B 9234   1.428   5.675   7.296 -0.8163 -0.5596 -2.5649
   92CHL1   C16 9235   1.288   5.693   7.467 -0.1364  0.3130 -0.2973
   92CHL1  H16A 9236   1.258   5.592   7.500  0.0159  0.4934  0.4076
   92CHL1  H16B 9237   1.380   5.722   7.524  0.3207 -2.0901  0.2877
   92CHL1   C17 9238   1.164   5.789   7.474  0.5309  0.4302  0.0059
   92CHL1   H17 9239   1.187   5.895   7.498 -1.6321  0.4802  2.2381
   92CHL1   C13 9240   1.118   5.803   7.328  0.1010 -0.1842  0.3015
   92CHL1   C18 9241   1.019   5.690   7.295  0.5190  0.0755  0.0651
   92CHL1  H18A 9242   0.988   5.686   7.188 -0.9040  1.2727  0.4022
   92CHL1  H18B 9243   1.056   5.591   7.331  0.3390 -0.8227 -2.0573
   92CHL1  H18C 9244   0.925   5.711   7.350  0.4921 -1.1585  0.5302
   92CHL1   C12 9245   1.050   5.933   7.284 -0.8558  0.0673  0.0485
   92CHL1  H12A 9246   0.959   5.959   7.342  0.5114  0.9060  1.9609
   92CHL1  H12B 9247   1.122   6.014   7.309 -1.3088  0.4217  0.2242
   92CHL1   C11 9248   1.019   5.944   7.135 -0.0512 -0.0206 -0.3197
   92CHL1  H11A 9249   0.931   5.879   7.116 -0.2506 -0.0395  0.6007
   92CHL1  H11B 9250   0.991   6.048   7.109 -1.1497 -0.2231  0.0260
   92CHL1    C9 9251   1.141   5.908   7.049  0.7276 -0.2091  0.5321
   92CHL1    H9 9252   1.200   6.001   7.065  0.4120  0.0970 -0.0614
   92CHL1   C10 9253   1.115   5.885   6.898 -0.4047 -0.2962  0.3630
   92CHL1   C19 9254   1.013   5.780   6.873  0.3723  0.3392  0.6892
   92CHL1  H19A 9255   0.921   5.778   6.935  0.7261 -0.7754  1.1915
   92CHL1  H19B 9256   0.983   5.783   6.766  0.0240 -1.5355  0.6967
   92CHL1  H19C 9257   1.063   5.685   6.900  2.8956  1.0121 -1.2416
   92CHL1    C1 9258   1.071   6.020   6.836 -0.1418 -0.6394 -0.0351
   92CHL1   H1A 9259   0.971   6.042   6.879  0.5241  0.1362  1.1594
   92CHL1   H1B 9260   1.138   6.104   6.863  1.2229 -1.9909  0.9513
   92CHL1    C2 9261   1.053   6.030   6.681 -0.2632  0.1344 -0.2335
   92CHL1   H2A 9262   1.018   6.131   6.651 -1.0157  0.0569  0.3325
   92CHL1   H2B 9263   0.979   5.956   6.645 -0.3218  0.1480 -0.1441
   92CHL1   C20 9264   1.064   5.742   7.588 -0.5675 -0.3701  0.6559
   92CHL1   H20 9265   1.014   5.649   7.554 -1.4256  0.9327 -1.9733
   92CHL1   C21 9266   0.966   5.859   7.603 -0.2261  0.0382  0.3738
   92CHL1  H21A 9267   0.891   5.864   7.522  0.3214  0.6247 -0.1059
   92CHL1  H21B 9268   1.011   5.960   7.612 -1.6139  1.1464 -3.3345
   92CHL1  H21C 9269   0.898   5.844   7.690  0.0083  0.2386  0.5915
   92CHL1   C22 9270   1.136   5.709   7.722  0.3202 -0.0431  0.8214
   92CHL1  H22A 9271   1.211   5.628   7.711  0.2253 -0.2119  1.4095
   92CHL1  H22B 9272   1.184   5.804   7.755 -0.2631  0.6395 -0.2215
   92CHL1   C23 9273   1.045   5.670   7.833 -0.0934  0.0312  0.1170
   92CHL1  H23A 9274   0.961   5.742   7.849  1.9340  2.2645  1.4224
   92CHL1  H23B 9275   1.003   5.572   7.800 -0.4803  0.1349  0.2894
   92CHL1   C24 9276   1.124   5.647   7.969  0.3785  1.2373 -0.2482
   92CHL1  H24A 9277   1.199   5.567   7.949  0.7029  1.5654 -0.3628
   92CHL1  H24B 9278   1.189   5.737   7.975 -0.1281  1.8071 -2.3841
   92CHL1   C25 9279   1.032   5.616   8.091 -0.0788 -0.2477  0.3579
   92CHL1   H25 9280   1.094   5.596   8.181 -0.7500 -0.1114  0.8598
   92CHL1   C26 9281   0.939   5.727   8.125 -0.4222 -0.1123  0.2211
   92CHL1  H26A 9282   0.884   5.719   8.221  0.1237 -0.5727  0.4993
   92CHL1  H26B 9283   1.001   5.819   8.120  1.3394 -1.2130  0.7635
   92CHL1  H26C 9284   0.849   5.735   8.061 -0.3339 -0.8809 -0.0071
   92CHL1   C27 9285   0.952   5.494   8.069  0.0252 -0.2255  0.2993
   92CHL1  H27A 9286   0.869   5.481   8.142  0.4601  0.7589  1.0026
   92CHL1  H27B 9287   0.923   5.500   7.962  1.2042 -3.2621 -0.2880
   92CHL1  H27C 9288   1.015   5.403   8.073 -1.2450 -1.1239  0.4714
   93CHL1    C3 9289   1.231   2.823   6.578  0.1901 -0.1524  0.3457
   93CHL1    H3 9290   1.196   2.928   6.570 -0.9573 -0.5981 -0.7694
   93CHL1    O3 9291   1.239   2.778   6.446 -0.4798 -0.0672 -0.1300
   93CHL1   H3' 9292   1.300   2.707   6.465 -0.9493  0.0232  1.9851
   93CHL1    C4 9293   1.366   2.827   6.640 -0.0382 -0.3698  0.0831
   93CHL1   H4A 9294   1.403   2.722   6.643  1.7084  0.2232  0.9092
   93CHL1   H4B 9295   1.429   2.892   6.576  0.0788  1.7805  2.2413
   93CHL1    C5 9296   1.384   2.884   6.774  0.2866 -0.4031  0.8302
   93CHL1    C6 9297   1.460   2.993   6.803 -0.4133  0.4632  0.3130
   93CHL1    H6 9298   1.536   3.022   6.729 -0.9381 -1.5280 -1.1368
   93CHL1    C7 9299   1.454   3.053   6.940 -0.3211  0.2537  0.2556
   93CHL1   H7A 9300   1.551   3.093   6.978 -0.8004  2.1929 -0.4449
   93CHL1   H7B 9301   1.395   3.147   6.939  0.9239  1.0528 -1.1458
   93CHL1    C8 9302   1.391   2.970   7.050 -0.3125  0.2025  0.5702
   93CHL1    H8 9303   1.470   2.895   7.071 -1.9017 -0.8859  3.2626
   93CHL1   C14 9304   1.375   3.055   7.173  0.3781  0.3928 -0.8715
   93CHL1   H14 9305   1.290   3.123   7.149 -0.5081 -0.1440  0.6121
   93CHL1   C15 9306   1.494   3.133   7.230 -0.1758  0.5279  0.7897
   93CHL1  H15A 9307   1.581   3.065   7.244  0.3428  1.6060  3.2791
   93CHL1  H15B 9308   1.524   3.209   7.154 -0.8877 -0.7363 -0.8344
   93CHL1   C16 9309   1.439   3.180   7.365  0.4014 -0.3134 -0.2240
   93CHL1  H16A 9310   1.524   3.191   7.435 -0.4604  1.0717  0.6489
   93CHL1  H16B 9311   1.393   3.281   7.351  0.0934 -0.5831 -1.2785
   93CHL1   C17 9312   1.318   3.082   7.400 -0.2048 -0.0327  0.3074
   93CHL1   H17 9313   1.228   3.144   7.378 -0.5091 -0.7758 -0.5955
   93CHL1   C13 9314   1.325   2.974   7.292 -0.0429 -0.1016 -0.3212
   93CHL1   C18 9315   1.436   2.874   7.332  0.0576 -0.0045  0.0060
   93CHL1  H18A 9316   1.397   2.783   7.381 -0.5480  2.3613  4.4921
   93CHL1  H18B 9317   1.487   2.829   7.245  2.0645  0.1487  1.0350
   93CHL1  H18C 9318   1.514   2.922   7.395  1.1995 -1.6286 -0.1010
   93CHL1   C12 9319   1.188   2.916   7.252 -0.2152  0.0612  1.0529
   93CHL1  H12A 9320   1.144   2.857   7.335 -0.3597 -1.2804  0.0574
   93CHL1  H12B 9321   1.115   2.997   7.230 -0.6625 -0.5773  0.1047
   93CHL1   C11 9322   1.201   2.826   7.122  0.6180  0.3945 -0.3493
   93CHL1  H11A 9323   1.254   2.733   7.151 -2.1263 -0.9468  0.7181
   93CHL1  H11B 9324   1.096   2.792   7.112  0.2732  0.9200  1.1609
   93CHL1    C9 9325   1.264   2.898   7.005 -0.1285  0.1694  0.1365
   93CHL1    H9 9326   1.185   2.975   6.988  0.0491  0.3824  0.2689
   93CHL1   C10 9327   1.277   2.824   6.871 -0.4563  0.1814 -0.1829
   93CHL1   C19 9328   1.332   2.676   6.900  0.3492 -0.1787 -0.4191
   93CHL1  H19A 9329   1.321   2.626   6.801 -0.7087 -0.5264 -0.1408
   93CHL1  H19B 9330   1.439   2.670   6.927  1.0809  0.1551 -2.9941
   93CHL1  H19C 9331   1.256   2.625   6.964  2.2533 -0.2054  1.9401
   93CHL1    C1 9332   1.138   2.819   6.809  0.0695  1.0482  0.7868
   93CHL1   H1A 9333   1.067   2.759   6.871 -0.0952 -1.9391 -1.9967
   93CHL1   H1B 9334   1.097   2.922   6.809 -1.6681  0.3998 -0.5942
   93CHL1    C2 9335   1.129   2.747   6.665 -0.6595  0.5644 -0.4034
   93CHL1   H2A 9336   1.027   2.754   6.621 -0.8597 -0.5152 -0.1558
   93CHL1   H2B 9337   1.155   2.639   6.672 -1.1582  0.3906 -1.2010
   93CHL1   C20 9338   1.295   3.035   7.549  0.3707 -0.8731 -0.1467
   93CHL1   H20 9339   1.324   2.928   7.551  0.2967 -0.9910 -2.5862
   93CHL1   C21 9340   1.143   3.041   7.575  0.0515 -0.6552 -0.2615
   93CHL1  H21A 9341   1.102   3.144   7.580 -0.7216 -1.0015  0.9321
   93CHL1  H21B 9342   1.123   2.988   7.670 -0.3616  3.2296  2.0142
   93CHL1  H21C 9343   1.082   2.975   7.510 -2.5906  1.3603 -0.0060
   93CHL1   C22 9344   1.368   3.121   7.656 -0.5975 -0.1327 -0.0807
   93CHL1  H22A 9345   1.474   3.140   7.629 -1.5984  3.3040 -2.3560
   93CHL1  H22B 9346   1.328   3.225   7.658 -2.4828 -0.8298  0.9749
   93CHL1   C23 9347   1.349   3.066   7.799 -0.3448  0.1860 -0.2187
   93CHL1  H23A 9348   1.248   3.098   7.831  0.4820  3.1315 -0.2922
   93CHL1  H23B 9349   1.338   2.956   7.789 -2.3117  0.2474  0.7418
   93CHL1   C24 9350   1.453   3.096   7.905  0.2150 -0.4816 -0.0193
   93CHL1  H24A 9351   1.554   3.072   7.866  0.0300 -2.4817  0.6088
   93CHL1  H24B 9352   1.457   3.207   7.915 -1.3819 -0.2157 -1.7818
   93CHL1   C25 9353   1.432   3.018   8.035 -0.8545 -0.4349 -0.0788
   93CHL1   H25 9354   1.322   3.023   8.054 -0.6561  1.0850  0.8961
   93CHL1   C26 9355   1.485   2.875   8.037  0.3154  1.0289 -0.2647
   93CHL1  H26A 9356   1.487   2.845   8.144  0.3259  0.1448 -0.5061
   93CHL1  H26B 9357   1.415   2.807   7.983  0.4464  1.1413 -0.5745
   93CHL1  H26C 9358   1.593   2.868   8.011  0.8643  0.9128  1.8551
   93CHL1   C27 9359   1.502   3.099   8.148  0.9987  0.6880 -0.4567
   93CHL1  H27A 9360   1.496   3.209   8.141 -1.6717  0.5657 -1.2251
   93CHL1  H27B 9361   1.455   3.066   8.244  1.6784 -0.2074 -0.4091
   93CHL1  H27C 9362   1.607   3.064   8.163  0.6027 -0.7307 -0.7877
   94CHL1    C3 9363   3.362   0.628   6.843 -0.1819 -0.6323 -0.4711
   94CHL1    H3 9364   3.435   0.701   6.883  1.5290 -1.7044 -1.5044
   94CHL1    O3 9365   3.400   0.583   6.710  0.4992 -0.7065  0.0153
   94CHL1   H3' 9366   3.364   0.495   6.698  2.1322 -1.6667  1.7297
   94CHL1    C4 9367   3.372   0.509   6.942  0.6157 -0.0155 -0.5545
   94CHL1   H4A 9368   3.326   0.416   6.903 -0.7652 -0.6263  2.2259
   94CHL1   H4B 9369   3.482   0.498   6.947  0.3519 -3.1887  0.7409
   94CHL1    C5 9370   3.312   0.548   7.081  0.1056 -0.3104 -0.0133
   94CHL1    C6 9371   3.401   0.557   7.182  0.0867 -0.3237  0.0185
   94CHL1    H6 9372   3.504   0.521   7.165  0.5101  0.9204 -0.1369
   94CHL1    C7 9373   3.352   0.597   7.322  0.4478  0.2246  0.1631
   94CHL1   H7A 9374   3.400   0.537   7.403  2.3042  1.1009 -0.2276
   94CHL1   H7B 9375   3.382   0.703   7.340  0.9037  0.3055 -1.0040
   94CHL1    C8 9376   3.194   0.579   7.340 -0.3340 -0.1936  0.4088
   94CHL1    H8 9377   3.166   0.472   7.337  1.0850 -0.8318  4.3710
   94CHL1   C14 9378   3.158   0.639   7.473 -0.3644 -0.7981 -0.4553
   94CHL1   H14 9379   3.185   0.746   7.460 -1.5647 -0.4136  0.1079
   94CHL1   C15 9380   3.227   0.590   7.597 -0.3872  0.5616  0.2929
   94CHL1  H15A 9381   3.232   0.480   7.589 -2.4510  0.4508  0.2116
   94CHL1  H15B 9382   3.332   0.626   7.604  0.2977 -1.4607  0.9812
   94CHL1   C16 9383   3.134   0.629   7.706  0.4287  0.8364 -0.0675
   94CHL1  H16A 9384   3.086   0.540   7.751 -1.3071  1.1113 -1.2491
   94CHL1  H16B 9385   3.178   0.694   7.785  0.8248  1.0073 -0.4291
   94CHL1   C17 9386   3.003   0.694   7.648  0.8307  0.0344  0.0429
   94CHL1   H17 9387   3.010   0.804   7.652 -0.0602  0.0881  0.2887
   94CHL1   C13 9388   3.010   0.647   7.497 -0.9207  0.5102 -0.2567
   94CHL1   C18 9389   2.937   0.507   7.488 -0.3684  0.2884 -0.2523
   94CHL1  H18A 9390   2.828   0.529   7.497 -0.5288 -1.0020  1.5325
   94CHL1  H18B 9391   2.955   0.452   7.393  1.9705 -2.3455  1.5390
   94CHL1  H18C 9392   2.953   0.443   7.578 -1.4462 -0.6238 -0.6869
   94CHL1   C12 9393   2.943   0.735   7.390  0.3605 -0.2932  0.0485
   94CHL1  H12A 9394   2.832   0.726   7.400  0.3776 -0.2355  0.2982
   94CHL1  H12B 9395   2.971   0.841   7.403  1.4201 -0.5840  0.2047
   94CHL1   C11 9396   2.976   0.683   7.243  0.4726 -0.9130 -0.8139
   94CHL1  H11A 9397   2.927   0.585   7.223  1.1067 -1.0483 -1.7449
   94CHL1  H11B 9398   2.930   0.756   7.173  0.8706  1.0655  0.9005
   94CHL1    C9 9399   3.129   0.657   7.224  0.7195 -0.2701  0.1601
   94CHL1    H9 9400   3.169   0.761   7.227 -1.4924  0.6256  1.4997
   94CHL1   C10 9401   3.170   0.592   7.089  0.0118  0.3529  0.0109
   94CHL1   C19 9402   3.086   0.462   7.052  0.7103 -1.0037 -0.0435
   94CHL1  H19A 9403   3.097   0.415   6.952 -0.3206  0.1423 -0.7204
   94CHL1  H19B 9404   3.098   0.387   7.133  0.0264 -2.4318 -1.2257
   94CHL1  H19C 9405   2.976   0.478   7.057  0.4826 -2.3226 -0.5879
   94CHL1    C1 9406   3.155   0.698   6.978 -0.1000  0.3091 -0.4427
   94CHL1   H1A 9407   3.047   0.722   6.963 -0.3631 -1.1530 -1.0497
   94CHL1   H1B 9408   3.198   0.793   7.014  1.8465 -0.7338  0.1039
   94CHL1    C2 9409   3.215   0.671   6.836 -0.7357  0.0252 -0.4348
   94CHL1   H2A 9410   3.193   0.756   6.768  2.0838 -0.5814 -2.2781
   94CHL1   H2B 9411   3.168   0.577   6.800 -0.8478 -0.0220 -0.1669
   94CHL1   C20 9412   2.867   0.674   7.732 -0.2931  0.3261 -0.0860
   94CHL1   H20 9413   2.815   0.581   7.700  0.2145 -0.4938  1.3932
   94CHL1   C21 9414   2.760   0.789   7.705 -0.0966 -0.4788  0.4951
   94CHL1  H21A 9415   2.754   0.788   7.594 -0.4201 -0.0381  0.5066
   94CHL1  H21B 9416   2.795   0.888   7.742  0.5065 -0.8681  0.9881
   94CHL1  H21C 9417   2.659   0.767   7.744 -0.4150 -1.7836 -0.9535
   94CHL1   C22 9418   2.882   0.659   7.878  0.4464 -0.3411  0.0178
   94CHL1  H22A 9419   2.774   0.642   7.900 -0.3466  3.2029 -0.5862
   94CHL1  H22B 9420   2.948   0.574   7.904  1.8643  0.2777 -1.4312
   94CHL1   C23 9421   2.927   0.782   7.963 -0.5474  0.1444 -0.5355
   94CHL1  H23A 9422   3.024   0.806   7.914  1.5765  0.2497  3.3225
   94CHL1  H23B 9423   2.860   0.870   7.952  1.6013  1.7118 -1.7897
   94CHL1   C24 9424   2.965   0.754   8.112  0.4225 -0.3425 -0.6142
   94CHL1  H24A 9425   2.876   0.721   8.170 -0.1717 -0.6054 -1.6476
   94CHL1  H24B 9426   3.032   0.665   8.113  1.0131  0.1030 -0.2243
   94CHL1   C25 9427   3.033   0.873   8.178 -0.4198 -0.4724  0.2626
   94CHL1   H25 9428   3.108   0.900   8.101 -1.2238  0.4525 -0.2208
   94CHL1   C26 9429   2.940   0.991   8.200  1.0177  0.2359 -0.4529
   94CHL1  H26A 9430   2.856   0.996   8.127  1.1920  0.1803 -0.6608
   94CHL1  H26B 9431   2.887   0.980   8.297  1.9334 -0.3605 -0.0142
   94CHL1  H26C 9432   2.992   1.088   8.183 -0.0640  0.5450 -2.3938
   94CHL1   C27 9433   3.110   0.843   8.309  0.1763  0.5625  0.3690
   94CHL1  H27A 9434   3.189   0.770   8.282 -0.7631 -0.7803  1.0961
   94CHL1  H27B 9435   3.152   0.939   8.348  1.7358  0.7113 -1.5309
   94CHL1  H27C 9436   3.044   0.800   8.387 -0.8012  0.9445 -0.2303
   95CHL1    C3 9437   3.852   0.139   6.758  0.3063 -0.2054 -0.2496
   95CHL1    H3 9438   3.795   0.045   6.776 -0.4250 -0.2288 -2.4082
   95CHL1    O3 9439   3.827   0.173   6.625 -0.2193  0.0326  0.3267
   95CHL1   H3' 9440   3.914   0.187   6.586  0.1041  2.8841  1.7533
   95CHL1    C4 9441   3.790   0.243   6.855  0.0286 -0.4403  0.2284
   95CHL1   H4A 9442   3.821   0.349   6.842 -1.4683 -0.1574 -1.3308
   95CHL1   H4B 9443   3.681   0.244   6.832 -0.1403 -0.0601  1.0341
   95CHL1    C5 9444   3.815   0.199   7.000 -0.5575 -0.1748 -0.1738
   95CHL1    C6 9445   3.717   0.196   7.095  0.1134 -0.2674 -0.8662
   95CHL1    H6 9446   3.615   0.214   7.059  1.1059  1.6266 -2.9755
   95CHL1    C7 9447   3.738   0.176   7.242 -0.2220 -0.2461  0.0678
   95CHL1   H7A 9448   3.670   0.244   7.297 -0.5874 -1.5382  1.2659
   95CHL1   H7B 9449   3.702   0.076   7.272  0.9956 -0.3239  1.3876
   95CHL1    C8 9450   3.884   0.197   7.278  0.3367 -0.1524 -0.9258
   95CHL1    H8 9451   3.889   0.307   7.262  0.0231  0.0556  0.2715
   95CHL1   C14 9452   3.907   0.153   7.423  0.0796  0.1696  0.5475
   95CHL1   H14 9453   3.907   0.042   7.421  4.0721  0.0242 -0.8444
   95CHL1   C15 9454   3.810   0.200   7.530 -0.0162 -0.3187  0.4035
   95CHL1  H15A 9455   3.800   0.307   7.500  1.9897 -0.2816 -0.3019
   95CHL1  H15B 9456   3.710   0.152   7.530 -0.5667  0.7359 -1.1297
   95CHL1   C16 9457   3.892   0.201   7.655 -0.1989  0.0574 -0.3903
   95CHL1  H16A 9458   3.908   0.306   7.687  2.7231  0.1392 -1.7231
   95CHL1  H16B 9459   3.864   0.131   7.736 -0.4488 -1.5926 -1.8317
   95CHL1   C17 9460   4.039   0.142   7.619  0.0613  0.0797 -0.2122
   95CHL1   H17 9461   4.026   0.032   7.628  1.7647 -0.0690  1.0751
   95CHL1   C13 9462   4.050   0.180   7.466  0.7385  0.7521 -0.4609
   95CHL1   C18 9463   4.087   0.334   7.461 -0.4009  1.0583 -0.1669
   95CHL1  H18A 9464   4.105   0.370   7.357 -2.9407  0.8323 -0.7514
   95CHL1  H18B 9465   4.004   0.386   7.514 -1.4343 -0.4826 -0.1837
   95CHL1  H18C 9466   4.191   0.350   7.496 -0.2144  1.8005 -1.0167
   95CHL1   C12 9467   4.139   0.095   7.388  0.4830 -0.2880  1.0163
   95CHL1  H12A 9468   4.245   0.115   7.414  0.0860  1.6236  1.2892
   95CHL1  H12B 9469   4.117  -0.011   7.415  0.3050 -0.2802  0.9026
   95CHL1   C11 9470   4.120   0.111   7.235 -0.3425 -0.3481 -0.1435
   95CHL1  H11A 9471   4.189   0.193   7.206  2.2809 -2.4293 -0.1901
   95CHL1  H11B 9472   4.175   0.035   7.176  0.6769  1.1771 -1.2510
   95CHL1    C9 9473   3.977   0.118   7.181  0.2514 -0.5562  0.1714
   95CHL1    H9 9474   3.952   0.010   7.180  1.2973 -0.8515 -2.4358
   95CHL1   C10 9475   3.961   0.179   7.031  0.2686 -0.0855 -0.4112
   95CHL1   C19 9476   4.040   0.317   7.036  0.5495  0.6303  0.0840
   95CHL1  H19A 9477   4.147   0.301   7.010  0.5098 -0.2676  0.4260
   95CHL1  H19B 9478   4.002   0.381   6.953 -0.4743 -0.6617 -0.4937
   95CHL1  H19C 9479   4.037   0.367   7.135 -1.0858  3.6930 -1.3483
   95CHL1    C1 9480   4.031   0.084   6.925  0.3083  1.2999  0.0580
   95CHL1   H1A 9481   4.141   0.096   6.935  0.8940 -2.1198 -0.9600
   95CHL1   H1B 9482   4.005  -0.021   6.947  0.9184  1.3896  1.2692
   95CHL1    C2 9483   3.997   0.124   6.775 -0.2430  0.3846 -0.5866
   95CHL1   H2A 9484   4.023   0.042   6.704 -2.9516  1.0372 -2.4840
   95CHL1   H2B 9485   4.064   0.208   6.750  2.3878 -1.0043  1.2732
   95CHL1   C20 9486   4.153   0.182   7.714  0.0458  0.2235  1.3134
   95CHL1   H20 9487   4.214   0.260   7.665  0.3243 -0.1968  0.9834
   95CHL1   C21 9488   4.246   0.058   7.737 -0.0344 -0.5205 -0.3985
   95CHL1  H21A 9489   4.284   0.036   7.635 -0.8360  0.6999 -0.9811
   95CHL1  H21B 9490   4.189  -0.021   7.791  0.8623 -1.3153 -0.5827
   95CHL1  H21C 9491   4.331   0.093   7.800 -0.0087  0.0825 -0.7636
   95CHL1   C22 9492   4.122   0.256   7.852  0.2747  0.1245 -0.3753
   95CHL1  H22A 9493   4.023   0.305   7.847  0.2777  0.4174  1.6954
   95CHL1  H22B 9494   4.115   0.177   7.930  4.0715 -0.4651 -0.4010
   95CHL1   C23 9495   4.222   0.354   7.901 -0.2491  0.7444  0.3720
   95CHL1  H23A 9496   4.323   0.308   7.915 -0.7743 -0.8793 -0.8267
   95CHL1  H23B 9497   4.237   0.437   7.829 -0.9329 -1.1754 -2.1106
   95CHL1   C24 9498   4.192   0.406   8.042  0.0876  0.2555 -0.7826
   95CHL1  H24A 9499   4.087   0.440   8.055 -0.0871  0.0343 -1.5619
   95CHL1  H24B 9500   4.211   0.322   8.113 -0.5994  2.1040  1.7179
   95CHL1   C25 9501   4.289   0.515   8.097  0.0833  0.0004  0.0072
   95CHL1   H25 9502   4.387   0.464   8.105 -0.7298 -1.5279  0.4904
   95CHL1   C26 9503   4.299   0.638   8.003 -0.0658  0.0702 -0.0882
   95CHL1  H26A 9504   4.370   0.627   7.918 -2.2797 -1.1340 -1.8706
   95CHL1  H26B 9505   4.194   0.663   7.978 -0.2907  0.0897  0.8334
   95CHL1  H26C 9506   4.340   0.721   8.065 -0.2897 -0.6888  1.0908
   95CHL1   C27 9507   4.252   0.553   8.234  0.4837  0.1671  0.5865
   95CHL1  H27A 9508   4.328   0.605   8.297  0.2323  0.7383  0.4208
   95CHL1  H27B 9509   4.157   0.610   8.234  0.4601  0.1312  0.1169
   95CHL1  H27C 9510   4.232   0.456   8.286 -0.5872 -0.7360 -1.4048
   96CHL1    C3 9511   1.692   2.697   6.590  0.0137  0.1660  0.3661
   96CHL1    H3 9512   1.627   2.782   6.621  1.7340  1.7250 -0.1412
   96CHL1    O3 9513   1.652   2.631   6.472  0.1837 -0.1006 -0.2392
   96CHL1   H3' 9514   1.729   2.585   6.438  1.5669 -0.1115  2.6109
   96CHL1    C4 9515   1.836   2.751   6.579 -0.4702  0.0470 -0.2227
   96CHL1   H4A 9516   1.896   2.666   6.541  1.2273  0.0036  2.3542
   96CHL1   H4B 9517   1.836   2.828   6.499  3.7989  0.2070 -0.2796
   96CHL1    C5 9518   1.889   2.805   6.707 -0.4045 -0.5924 -0.1659
   96CHL1    C6 9519   1.947   2.923   6.711 -0.1071 -0.2286 -0.1839
   96CHL1    H6 9520   1.963   2.985   6.622  0.5661 -1.9344 -1.2852
   96CHL1    C7 9521   2.005   2.984   6.836 -0.1428 -0.6174  0.6047
   96CHL1   H7A 9522   2.107   3.020   6.809 -0.9895  2.4452  1.0553
   96CHL1   H7B 9523   1.942   3.072   6.860 -2.7947 -2.4368  0.6844
   96CHL1    C8 9524   2.010   2.884   6.944  0.1021  0.2042  0.0459
   96CHL1    H8 9525   2.097   2.824   6.911  0.3844  1.4148 -1.5252
   96CHL1   C14 9526   2.042   2.962   7.074 -0.7926  0.1168 -0.1567
   96CHL1   H14 9527   1.953   3.028   7.084 -1.4141 -0.7477  0.2232
   96CHL1   C15 9528   2.158   3.053   7.075 -0.8655 -0.0524 -0.3970
   96CHL1  H15A 9529   2.250   3.005   7.035  0.6367  0.6587  1.9594
   96CHL1  H15B 9530   2.142   3.138   7.006  1.5494  1.7774  1.0982
   96CHL1   C16 9531   2.169   3.088   7.222  0.2914 -0.4867 -0.3057
   96CHL1  H16A 9532   2.272   3.097   7.263  0.4606 -2.7808 -0.1269
   96CHL1  H16B 9533   2.112   3.183   7.231 -0.8939 -1.1898 -0.0941
   96CHL1   C17 9534   2.077   2.984   7.303 -0.1961 -0.0496  0.0285
   96CHL1   H17 9535   1.978   3.031   7.321  0.9617  2.4718  0.2395
   96CHL1   C13 9536   2.052   2.872   7.199  0.3228  0.6870  0.0475
   96CHL1   C18 9537   2.163   2.769   7.190  0.4846 -1.0078  0.0053
   96CHL1  H18A 9538   2.151   2.693   7.270 -1.5570 -1.7158 -0.8932
   96CHL1  H18B 9539   2.181   2.727   7.089 -1.3587  0.2897 -0.9344
   96CHL1  H18C 9540   2.261   2.809   7.221  1.2380 -1.9429 -1.0865
   96CHL1   C12 9541   1.918   2.797   7.205  0.4381 -0.9580 -0.6044
   96CHL1  H12A 9542   1.916   2.727   7.292 -0.4146  0.2425  0.3773
   96CHL1  H12B 9543   1.836   2.871   7.221  1.1160 -0.0896 -1.1138
   96CHL1   C11 9544   1.869   2.720   7.084  0.3966  0.1779 -0.1497
   96CHL1  H11A 9545   1.950   2.645   7.077  1.5798  1.0473  2.8424
   96CHL1  H11B 9546   1.772   2.665   7.091  0.8468 -0.7261 -0.7570
   96CHL1    C9 9547   1.878   2.806   6.957 -0.5430  0.2966 -0.7911
   96CHL1    H9 9548   1.795   2.878   6.972 -1.6748 -1.0912 -0.2061
   96CHL1   C10 9549   1.857   2.719   6.834 -0.4046 -0.7381  0.5184
   96CHL1   C19 9550   1.961   2.613   6.805 -1.1148  0.5063 -0.0008
   96CHL1  H19A 9551   2.067   2.638   6.828 -0.6199 -2.5918  1.6695
   96CHL1  H19B 9552   1.935   2.523   6.865  0.1185 -0.2948 -0.6273
   96CHL1  H19C 9553   1.971   2.560   6.708  2.8984  1.0095 -0.0171
   96CHL1    C1 9554   1.716   2.656   6.837 -0.0886  0.0288  0.3803
   96CHL1   H1A 9555   1.697   2.577   6.912 -1.6489 -1.1580 -1.1980
   96CHL1   H1B 9556   1.650   2.741   6.864  0.6237  0.6351  0.2465
   96CHL1    C2 9557   1.677   2.598   6.706 -0.6679  0.0334 -0.6088
   96CHL1   H2A 9558   1.571   2.567   6.715 -0.6145  0.2857  1.1999
   96CHL1   H2B 9559   1.741   2.509   6.682  1.1373  1.4052 -1.1348
   96CHL1   C20 9560   2.140   2.946   7.436 -0.2731 -0.8873 -0.2911
   96CHL1   H20 9561   2.244   2.910   7.427  0.6655  1.6445 -0.2309
   96CHL1   C21 9562   2.058   2.847   7.509  0.0872 -0.0969  0.2143
   96CHL1  H21A 9563   2.069   2.751   7.453  3.1801  1.2993 -1.8765
   96CHL1  H21B 9564   1.948   2.860   7.500  0.1638 -0.4256 -1.4845
   96CHL1  H21C 9565   2.082   2.829   7.616  0.8337  1.8375  0.4049
   96CHL1   C22 9566   2.146   3.074   7.534 -0.5213  0.0907 -0.1291
   96CHL1  H22A 9567   2.157   3.173   7.484 -1.4065 -0.0893 -0.6946
   96CHL1  H22B 9568   2.050   3.081   7.589  1.0574  0.8261  2.7127
   96CHL1   C23 9569   2.250   3.052   7.634 -0.2176  0.5823  0.3588
   96CHL1  H23A 9570   2.265   2.942   7.642  1.0891  0.7596  0.5723
   96CHL1  H23B 9571   2.345   3.090   7.591  0.3854 -1.2855 -0.0731
   96CHL1   C24 9572   2.213   3.132   7.759  0.1810 -0.5480  0.4604
   96CHL1  H24A 9573   2.191   3.239   7.740 -0.1515 -0.9364 -1.6833
   96CHL1  H24B 9574   2.118   3.089   7.796 -0.0558 -1.0580 -0.6679
   96CHL1   C25 9575   2.324   3.129   7.868  0.0926 -0.2455  0.1288
   96CHL1   H25 9576   2.356   3.025   7.885  1.0744 -0.4416 -2.3860
   96CHL1   C26 9577   2.445   3.212   7.831 -0.3714 -0.4688 -0.3742
   96CHL1  H26A 9578   2.488   3.178   7.734  1.0680  1.3522 -0.4440
   96CHL1  H26B 9579   2.416   3.318   7.814 -1.1908 -0.7828 -0.9906
   96CHL1  H26C 9580   2.523   3.213   7.910  2.0617 -0.1861 -2.6099
   96CHL1   C27 9581   2.271   3.184   8.001  0.1138  0.1546  0.0503
   96CHL1  H27A 9582   2.182   3.133   8.043 -0.8539  2.0367  0.3734
   96CHL1  H27B 9583   2.353   3.169   8.075  0.1393 -1.0115 -0.1866
   96CHL1  H27C 9584   2.257   3.293   8.011 -0.4432  0.1011 -0.1493
   97OSM      N 9585   0.723   4.615  11.246 -0.1518  0.0452  0.3127
   97OSM    C15 9586   0.778   4.746  11.210 -0.1410  0.5329  0.3623
   97OSM   H15A 9587   0.819   4.755  11.110  0.9643  1.6018  0.8920
   97OSM   H15B 9588   0.854   4.777  11.280 -1.0202  1.2991  0.9994
   97OSM   H15C 9589   0.700   4.820  11.215  0.9641  1.7371  0.3814
   97OSM    C14 9590   0.836   4.514  11.253  0.1686 -0.4620 -0.0948
   97OSM   H14A 9591   0.797   4.416  11.274  0.3418 -0.7004 -0.8459
   97OSM   H14B 9592   0.913   4.536  11.325 -1.1432 -0.5873  1.4022
   97OSM   H14C 9593   0.885   4.514  11.157 -1.3542 -2.5247 -0.9563
   97OSM    C13 9594   0.660   4.614  11.380 -0.1576 -0.5964  0.0331
   97OSM   H13A 9595   0.731   4.650  11.453  1.3050 -2.0324 -0.6282
   97OSM   H13B 9596   0.635   4.514  11.412 -2.3643  0.3309  1.4614
   97OSM   H13C 9597   0.577   4.682  11.397  1.0751  1.5887 -2.0702
   97OSM    C12 9598   0.621   4.583  11.138 -0.5843  0.0517 -0.8349
   97OSM   H12A 9599   0.674   4.618  11.051 -0.4714  2.9258  0.2613
   97OSM   H12B 9600   0.529   4.641  11.137 -0.5127  0.1624 -0.9973
   97OSM    C11 9601   0.589   4.431  11.130  0.9678 -0.0399  0.4129
   97OSM   H11A 9602   0.674   4.374  11.087 -0.0383  0.3166 -2.2594
   97OSM   H11B 9603   0.514   4.427  11.048  1.1373  1.0703  0.1838
   97OSM      P 9604   0.398   4.323  11.286  0.2155 -0.1924 -0.0377
   97OSM    O13 9605   0.416   4.259  11.421  0.3346 -0.3508  0.0192
   97OSM    O14 9606   0.314   4.445  11.278  0.1912  0.1758  0.1618
   97OSM    O11 9607   0.381   4.218  11.167  0.4942  0.9350 -0.4295
   97OSM    O12 9608   0.544   4.374  11.251 -0.0323  0.0122  0.0425
   97OSM    C1S 9609   0.272   4.224  11.072 -1.0947  0.1479 -0.4140
   97OSM    H1S 9610   0.219   4.321  11.064 -1.7181 -0.0157  1.4081
   97OSM    H1T 9611   0.194   4.156  11.112 -3.6641  3.1191  0.0431
   97OSM     NF 9612   0.199   4.204  10.839 -0.2308  0.4303 -0.0424
   97OSM    HNF 9613   0.143   4.122  10.824  1.3068 -0.4576 -1.2094
   97OSM    C2S 9614   0.309   4.179  10.929  0.2126  0.8175 -0.9351
   97OSM    H2S 9615   0.397   4.237  10.896 -0.0592  1.7934 -0.0009
   97OSM    C3S 9616   0.353   4.026  10.934 -0.0218 -0.3862  1.0817
   97OSM    H3S 9617   0.263   3.961  10.936 -0.5042  0.2902  2.0541
   97OSM     O3 9618   0.454   3.995  11.024 -0.6694  0.2502 -0.1330
   97OSM    HO3 9619   0.463   4.076  11.075 -0.0569 -0.0706  0.2827
   97OSM    C4S 9620   0.412   3.990  10.792  0.4677 -0.2285  0.5391
   97OSM    H4S 9621   0.501   4.050  10.768  1.0305 -0.4361  2.0591
   97OSM    C5S 9622   0.369   3.895  10.707  0.2662  0.2439  0.0540
   97OSM    H5S 9623   0.303   3.815  10.744  0.2899 -0.8316 -2.0656
   97OSM    C6S 9624   0.434   3.871  10.573 -0.2016  0.2571 -0.4749
   97OSM    H6S 9625   0.361   3.876  10.490 -0.0895 -1.5772 -0.7088
   97OSM    H6T 9626   0.485   3.773  10.575 -2.3825 -0.9340  0.5457
   97OSM    C7S 9627   0.547   3.972  10.530 -0.4292  0.0474  0.8697
   97OSM    H7S 9628   0.632   3.986  10.600  0.7162 -2.1890  0.0043
   97OSM    H7T 9629   0.517   4.075  10.501 -1.5585 -0.7982 -1.1219
   97OSM    C8S 9630   0.613   3.923  10.397  0.1870 -0.7685 -0.1343
   97OSM    H8S 9631   0.539   3.917  10.315  2.4198 -0.2156 -2.3302
   97OSM    H8T 9632   0.652   3.819  10.409  1.7618 -0.0787  1.2557
   97OSM    C9S 9633   0.739   4.008  10.353 -0.9335 -0.1996 -0.3249
   97OSM    H9S 9634   0.815   4.009  10.434 -2.1658  0.8530  0.8582
   97OSM    H9T 9635   0.705   4.112  10.334  1.3822  0.8226  0.7284
   97OSM   C10S 9636   0.803   3.960  10.223 -0.7026  0.0823 -0.3172
   97OSM   H10S 9637   0.723   3.952  10.146 -0.3714 -3.5543 -0.4545
   97OSM   H10T 9638   0.840   3.856  10.228 -0.2967  0.2621  0.6951
   97OSM   C11S 9639   0.926   4.045  10.184  0.3403 -0.4403 -1.0747
   97OSM   H11S 9640   0.994   4.054  10.271 -2.7642  0.5796  1.4393
   97OSM   H11T 9641   0.895   4.150  10.161 -3.4018 -0.7232  1.6818
   97OSM   C12S 9642   1.011   3.992  10.060  0.1447  1.0876 -0.2137
   97OSM   H12S 9643   1.070   3.904  10.095  0.6043  1.8177  0.9091
   97OSM   H12T 9644   1.086   4.064  10.020  1.6461 -0.1702  0.2161
   97OSM   C13S 9645   0.922   3.945   9.949 -0.1029  0.0396  0.9798
   97OSM   H13S 9646   0.844   4.023   9.933 -1.6769 -1.6472 -0.0427
   97OSM   H13T 9647   0.875   3.849   9.980  0.3400  0.0578  1.7193
   97OSM   C14S 9648   0.988   3.921   9.811  0.6358  0.3954 -0.4725
   97OSM   H14S 9649   1.091   3.881   9.827 -0.1032 -1.5838 -0.4031
   97OSM   H14T 9650   1.017   4.014   9.759  2.2211  0.8401  1.1123
   97OSM   C15S 9651   0.907   3.825   9.722 -0.3292  0.4608  0.0534
   97OSM   H15S 9652   0.801   3.858   9.726 -0.2456  0.9209 -1.0939
   97OSM   H15T 9653   0.901   3.724   9.768  0.0800  1.2321  1.8725
   97OSM   C16S 9654   0.953   3.814   9.574  0.3760  0.3215 -0.0570
   97OSM   H16S 9655   0.909   3.727   9.521  0.8408 -1.1971  1.9017
   97OSM   H16T 9656   1.062   3.795   9.567  0.2453 -0.6150  0.2205
   97OSM   C17S 9657   0.911   3.944   9.508  0.1218 -0.1361 -0.5005
   97OSM   H17S 9658   0.955   4.030   9.563  1.6746 -0.2693 -1.4762
   97OSM   H17T 9659   0.801   3.951   9.524  0.5222  0.5507  2.5266
   97OSM   C18S 9660   0.949   3.954   9.361  0.7623 -0.8424 -0.0230
   97OSM   H18S 9661   0.925   4.051   9.313 -0.3698 -0.8219  0.5554
   97OSM   H18T 9662   0.901   3.873   9.303  1.0420 -2.3426  1.7616
   97OSM   H18U 9663   1.059   3.946   9.351  0.6924 -0.1806 -1.5878
   97OSM    C1F 9664   0.161   4.321  10.812  0.9193 -0.4205 -0.5361
   97OSM     OF 9665   0.226   4.414  10.852  0.6976 -0.2432  0.2748
   97OSM    C2F 9666   0.019   4.329  10.746  0.2680 -0.3288  0.2274
   97OSM    H2F 9667  -0.057   4.343  10.826 -0.1267  1.8114 -0.4593
   97OSM    H2G 9668  -0.003   4.236  10.690 -1.8152 -0.2282  0.7930
   97OSM    C3F 9669   0.027   4.448  10.641 -0.1302  0.0141  0.0101
   97OSM    H3F 9670   0.120   4.440  10.581  1.0336 -4.5172  2.0344
   97OSM    H3G 9671   0.035   4.543  10.699  0.9044 -0.8601  1.3753
   97OSM    C4F 9672  -0.089   4.435  10.548  0.7498  0.4943 -1.0498
   97OSM    H4F 9673  -0.180   4.432  10.612  1.5404 -0.7898  0.0712
   97OSM    H4G 9674  -0.087   4.335  10.500  0.2438 -0.1922  0.2854
   97OSM    C5F 9675  -0.080   4.536  10.436  0.0677 -0.4783  0.0100
   97OSM    H5F 9676  -0.059   4.636  10.481 -0.6009 -0.5042  0.3907
   97OSM    H5G 9677  -0.173   4.545  10.377  0.2889  0.9113 -0.1736
   97OSM    C6F 9678   0.024   4.518  10.328 -0.3222  0.4912  0.7977
   97OSM    H6F 9679  -0.010   4.434  10.263  2.4955  0.2818 -0.5303
   97OSM    H6G 9680   0.119   4.478  10.369  0.5712  1.7949  0.0773
   97OSM    C7F 9681   0.035   4.641  10.238  0.3038  0.2375 -0.4061
   97OSM    H7F 9682   0.091   4.717  10.297  0.1736 -0.2681  0.3847
   97OSM    H7G 9683  -0.071   4.674  10.232  0.5188  0.9509 -0.4290
   97OSM    C8F 9684   0.089   4.594  10.106  0.7279 -1.3584 -0.5433
   97OSM    H8F 9685   0.052   4.678  10.044 -3.1722 -2.8059 -0.4623
   97OSM    H8G 9686   0.033   4.504  10.071 -0.6537 -0.5993 -0.3304
   97OSM    C9F 9687   0.240   4.576  10.114 -0.0460 -0.7819 -0.0470
   97OSM    H9F 9688   0.268   4.503  10.190 -1.5156 -0.0011  1.3028
   97OSM   C10F 9689   0.332   4.632  10.038  0.1026  0.0708 -0.3082
   97OSM   H10F 9690   0.426   4.575  10.032  0.1817 -0.0238  1.2206
   97OSM   C11F 9691   0.304   4.720   9.921  0.0613 -0.3204  0.0784
   97OSM   H11F 9692   0.391   4.788   9.906 -0.0974 -0.5011 -2.0275
   97OSM   H11G 9693   0.221   4.791   9.939  0.1102 -0.1776 -0.2471
   97OSM   C12F 9694   0.302   4.643   9.787  0.0100  0.9871 -0.3806
   97OSM   H12F 9695   0.215   4.574   9.787  0.2158  0.5756 -3.6731
   97OSM   H12G 9696   0.392   4.581   9.767  0.1446  0.9893  0.2147
   97OSM   C13F 9697   0.293   4.732   9.662 -0.3027  0.7239 -0.6434
   97OSM   H13F 9698   0.383   4.793   9.642 -0.3905  0.9306 -0.4198
   97OSM   H13G 9699   0.217   4.805   9.696  0.2954 -0.0583  2.7851
   97OSM   C14F 9700   0.240   4.654   9.539  0.3926  0.0097 -0.7085
   97OSM   H14F 9701   0.130   4.642   9.550  0.5440 -1.5800 -0.5970
   97OSM   H14G 9702   0.297   4.559   9.548  0.2760  0.0484  0.4847
   97OSM   C15F 9703   0.286   4.710   9.402  0.4603  0.2248  0.3612
   97OSM   H15F 9704   0.396   4.715   9.383  0.6165 -3.5905 -0.4031
   97OSM   H15G 9705   0.245   4.813   9.389  0.0259 -0.1212 -1.0975
   97OSM   C16F 9706   0.228   4.636   9.285  0.1870  0.1128  0.1788
   97OSM   H16F 9707   0.121   4.612   9.302  0.4209 -1.8273 -0.7828
   97OSM   H16G 9708   0.285   4.541   9.276 -0.5459 -0.2691 -0.6270
   97OSM   C17F 9709   0.244   4.719   9.156  0.2903 -0.5698 -0.3736
   97OSM   H17F 9710   0.351   4.745   9.146  0.4644 -0.5451  1.2918
   97OSM   H17G 9711   0.187   4.814   9.163  1.0062 -0.1814  0.4574
   97OSM   C18F 9712   0.190   4.645   9.037 -0.1655  0.1323 -1.0873
   97OSM   H18F 9713   0.186   4.719   8.954 -1.7945 -0.9712 -2.0536
   97OSM   H18G 9714   0.083   4.620   9.044  0.0036 -0.1144  1.0729
   97OSM   H18H 9715   0.250   4.556   9.006 -0.9877 -0.9443  0.3260
   98OSM      N 9716   5.199   5.702  11.145 -0.0020 -0.6305  0.7912
   98OSM    C15 9717   5.056   5.687  11.181  0.8912  0.1222  0.7615
   98OSM   H15A 9718   5.006   5.608  11.128  1.4234  0.1511  0.2007
   98OSM   H15B 9719   5.004   5.779  11.155  0.1482 -0.5898 -0.3847
   98OSM   H15C 9720   5.047   5.667  11.286  1.5010  0.1443  0.8234
   98OSM    C14 9721   5.254   5.821  11.204  0.4541 -0.2261 -0.4615
   98OSM   H14A 9722   5.359   5.825  11.181  0.1990  1.8502 -1.5381
   98OSM   H14B 9723   5.223   5.833  11.306 -1.1111  0.2518 -0.9580
   98OSM   H14C 9724   5.213   5.908  11.154  0.3253  1.2724  2.1221
   98OSM    C13 9725   5.268   5.582  11.214  0.1913  0.3933 -0.6808
   98OSM   H13A 9726   5.242   5.495  11.156 -1.9027  1.6597 -1.7956
   98OSM   H13B 9727   5.227   5.583  11.314  0.1681  2.0726 -0.6755
   98OSM   H13C 9728   5.375   5.587  11.224  0.4337 -2.6747 -0.9167
   98OSM    C12 9729   5.223   5.691  10.997 -0.2188 -0.4653 -0.3118
   98OSM   H12A 9730   5.191   5.593  10.966  1.5458 -1.3982  0.6830
   98OSM   H12B 9731   5.329   5.689  10.976 -0.4905 -2.2109 -1.7975
   98OSM    C11 9732   5.164   5.791  10.902 -0.2544  0.0960 -0.0381
   98OSM   H11A 9733   5.063   5.817  10.942  0.1267 -0.0323  1.0532
   98OSM   H11B 9734   5.168   5.746  10.801 -0.3830  0.7814 -0.3488
   98OSM      P 9735   5.179   6.043  10.846  0.1517 -0.9436  0.3690
   98OSM    O13 9736   5.032   6.047  10.864  0.7695 -0.0869 -0.5985
   98OSM    O14 9737   5.254   6.158  10.902  0.5353 -0.8612  0.2133
   98OSM    O11 9738   5.218   6.034  10.696 -0.4764  0.1296  0.2789
   98OSM    O12 9739   5.241   5.914  10.899 -0.5517  0.2758  0.4390
   98OSM    C1S 9740   5.129   5.970  10.596  0.4753  0.1943 -0.2618
   98OSM    H1S 9741   5.028   6.016  10.602 -0.5290 -2.0056  1.7821
   98OSM    H1T 9742   5.118   5.859  10.605  1.5038 -0.1645 -2.6981
   98OSM     NF 9743   5.074   5.968  10.359  0.7966  0.0249  0.2881
   98OSM    HNF 9744   5.033   5.877  10.351 -0.0115  0.4016  0.0518
   98OSM    C2S 9745   5.184   5.978  10.453  0.2311  1.1609  0.5232
   98OSM    H2S 9746   5.242   6.073  10.450  3.1141 -0.5220 -2.3144
   98OSM    C3S 9747   5.294   5.870  10.453 -0.0621  0.3040  0.6214
   98OSM    H3S 9748   5.250   5.769  10.467 -0.2083  0.0780 -1.2759
   98OSM     O3 9749   5.389   5.877  10.558 -0.5287  0.4131 -0.1810
   98OSM    HO3 9750   5.358   5.945  10.618  1.8247  0.5417  0.9912
   98OSM    C4S 9751   5.362   5.854  10.320  0.7158 -0.1742  0.3571
   98OSM    H4S 9752   5.437   5.930  10.292 -0.3323 -0.5008 -4.2026
   98OSM    C5S 9753   5.354   5.754  10.234  0.3759  0.6971  0.1250
   98OSM    H5S 9754   5.293   5.668  10.263  0.4871  0.6077  0.0924
   98OSM    C6S 9755   5.423   5.735  10.104  0.5083 -1.1357  0.0347
   98OSM    H6S 9756   5.490   5.647  10.110 -0.2059 -1.9472 -2.7148
   98OSM    H6T 9757   5.493   5.816  10.075 -0.3978 -0.2104  0.3492
   98OSM    C7S 9758   5.319   5.717   9.994  0.3545 -1.4777 -0.7973
   98OSM    H7S 9759   5.233   5.652  10.023 -1.5863  1.2041 -0.1840
   98OSM    H7T 9760   5.377   5.673   9.910  1.7031 -2.0438  0.3892
   98OSM    C8S 9761   5.251   5.850   9.950  0.4664 -0.4359 -0.4111
   98OSM    H8S 9762   5.320   5.918   9.897 -0.0480 -0.1846 -0.7633
   98OSM    H8T 9763   5.215   5.900  10.043  0.9016  0.7148 -0.8514
   98OSM    C9S 9764   5.136   5.827   9.850 -0.3656 -0.2537 -0.3540
   98OSM    H9S 9765   5.183   5.764   9.770 -2.0508 -0.9418 -0.8585
   98OSM    H9T 9766   5.107   5.923   9.802 -1.3401 -0.8679 -1.0400
   98OSM   C10S 9767   5.016   5.758   9.915 -0.3485  0.3451  0.1658
   98OSM   H10S 9768   4.976   5.825   9.994 -3.4118  0.5803 -1.4579
   98OSM   H10T 9769   5.026   5.659   9.963 -1.8156  1.2109  2.3920
   98OSM   C11S 9770   4.904   5.738   9.809  0.6068 -0.6029  0.0651
   98OSM   H11S 9771   4.878   5.837   9.766  3.8419 -0.0708 -0.8793
   98OSM   H11T 9772   4.815   5.701   9.865  1.0648  0.0795  1.2722
   98OSM   C12S 9773   4.936   5.641   9.692  0.4765 -0.1993 -0.2723
   98OSM   H12S 9774   4.978   5.547   9.733  0.7736 -0.3462 -0.9094
   98OSM   H12T 9775   5.019   5.687   9.634  0.3158  0.7952  0.2702
   98OSM   C13S 9776   4.823   5.609   9.594 -0.4886 -0.3278  0.7349
   98OSM   H13S 9777   4.723   5.584   9.635 -0.0260  0.8291  2.6895
   98OSM   H13T 9778   4.865   5.525   9.534  1.2823 -0.2029  1.7589
   98OSM   C14S 9779   4.799   5.722   9.489  0.6788 -0.1051  0.0878
   98OSM   H14S 9780   4.893   5.749   9.436  0.5557  1.1452  0.4718
   98OSM   H14T 9781   4.750   5.809   9.537 -1.6326 -2.4782  2.3854
   98OSM   C15S 9782   4.708   5.670   9.375  0.4790  1.0374  0.2718
   98OSM   H15S 9783   4.600   5.683   9.398  0.5433 -0.4345  1.6243
   98OSM   H15T 9784   4.722   5.561   9.359 -0.4243  1.2796 -2.7112
   98OSM   C16S 9785   4.755   5.722   9.236 -0.6330 -0.0891  0.1963
   98OSM   H16S 9786   4.864   5.710   9.219 -0.3623  0.0339  1.7357
   98OSM   H16T 9787   4.740   5.831   9.244 -1.2180 -0.1056 -0.5350
   98OSM   C17S 9788   4.681   5.677   9.115  0.1086 -0.2306  0.2951
   98OSM   H17S 9789   4.577   5.711   9.131 -0.2156 -1.4908  0.9986
   98OSM   H17T 9790   4.680   5.567   9.099  3.2931 -0.4307  0.7947
   98OSM   C18S 9791   4.741   5.752   8.992 -1.0871  0.2986 -0.2357
   98OSM   H18S 9792   4.681   5.723   8.903 -1.2917 -2.2265  0.6288
   98OSM   H18T 9793   4.849   5.739   8.968 -1.1995 -2.4326  0.3757
   98OSM   H18U 9794   4.728   5.861   9.010  0.3228  0.4831 -0.2103
   98OSM    C1F 9795   5.010   6.077  10.313 -0.6088 -0.1648  0.1346
   98OSM     OF 9796   5.065   6.183  10.334  0.1154  0.0669  0.2409
   98OSM    C2F 9797   4.879   6.055  10.242  0.4465 -0.1186 -0.8314
   98OSM    H2F 9798   4.793   6.104  10.293  0.7329 -1.2813  0.8663
   98OSM    H2G 9799   4.863   5.946  10.242 -1.5870  0.1390 -2.2179
   98OSM    C3F 9800   4.898   6.104  10.093  0.9035 -0.3737 -0.3718
   98OSM    H3F 9801   4.971   6.044  10.034 -2.1637 -1.8276 -3.0121
   98OSM    H3G 9802   4.923   6.212  10.095 -2.5273  0.5383  0.5923
   98OSM    C4F 9803   4.761   6.078  10.026 -0.0696 -0.4893 -0.1663
   98OSM    H4F 9804   4.674   6.131  10.071  0.5480  1.2643 -0.9428
   98OSM    H4G 9805   4.735   5.970  10.027 -0.2405 -0.4961  2.4201
   98OSM    C5F 9806   4.755   6.134   9.879  0.4315 -0.2981 -0.3846
   98OSM    H5F 9807   4.852   6.116   9.828  1.0276 -1.2348  1.0175
   98OSM    H5G 9808   4.744   6.244   9.881 -1.9666 -0.4810 -0.4931
   98OSM    C6F 9809   4.646   6.070   9.793 -0.5498  0.2397 -0.5552
   98OSM    H6F 9810   4.688   5.969   9.773  0.8231  0.0852  2.4650
   98OSM    H6G 9811   4.652   6.124   9.696 -1.0560 -0.1708 -0.8195
   98OSM    C7F 9812   4.507   6.077   9.848 -0.1341 -0.5016  0.1496
   98OSM    H7F 9813   4.489   6.178   9.892  0.2547  0.7921 -2.4141
   98OSM    H7G 9814   4.488   6.008   9.933  1.6647  0.6507  1.5827
   98OSM    C8F 9815   4.400   6.058   9.742  0.2216 -0.6031 -0.7130
   98OSM    H8F 9816   4.426   6.125   9.658 -0.3844 -0.4660 -0.7938
   98OSM    H8G 9817   4.300   6.087   9.780 -0.3531 -1.3306 -1.5942
   98OSM    C9F 9818   4.401   5.918   9.692 -0.1427  0.0181  0.7597
   98OSM    H9F 9819   4.407   5.835   9.765 -0.3981  0.0775  0.8499
   98OSM   C10F 9820   4.400   5.881   9.558 -0.4168  0.0581  0.1690
   98OSM   H10F 9821   4.393   5.774   9.534 -0.3843  0.1452 -0.2285
   98OSM   C11F 9822   4.384   5.977   9.441  0.4186  0.2785 -0.6753
   98OSM   H11F 9823   4.342   6.078   9.463 -2.5935 -0.9023 -0.4516
   98OSM   H11G 9824   4.310   5.936   9.369  0.6929  1.3689 -1.6026
   98OSM   C12F 9825   4.523   5.997   9.379  0.4553  0.1782  0.3151
   98OSM   H12F 9826   4.582   5.907   9.406 -2.1653 -0.9908  2.6291
   98OSM   H12G 9827   4.565   6.079   9.441 -0.3838  0.0027  1.1389
   98OSM   C13F 9828   4.525   6.040   9.232 -0.3182 -1.0059 -0.0732
   98OSM   H13F 9829   4.481   5.967   9.161 -1.4678  0.8404 -1.3309
   98OSM   H13G 9830   4.631   6.041   9.197 -0.7884 -0.6167 -1.5516
   98OSM   C14F 9831   4.478   6.181   9.214  0.0772  0.4780  1.0324
   98OSM   H14F 9832   4.547   6.246   9.273  0.9430  2.1857 -1.6998
   98OSM   H14G 9833   4.376   6.180   9.257 -0.5023 -2.7093 -0.2055
   98OSM   C15F 9834   4.481   6.238   9.073  0.2745 -0.2983  0.7155
   98OSM   H15F 9835   4.393   6.201   9.016  1.4662 -1.0584 -0.7232
   98OSM   H15G 9836   4.572   6.213   9.013 -0.9662 -2.1116 -0.5157
   98OSM   C16F 9837   4.453   6.391   9.069 -0.1973 -0.1757  0.5099
   98OSM   H16F 9838   4.547   6.450   9.076 -1.1736  1.4093  0.8843
   98OSM   H16G 9839   4.399   6.416   9.163  1.0029  0.4837  1.0496
   98OSM   C17F 9840   4.376   6.438   8.939 -0.9113  0.4625 -0.3098
   98OSM   H17F 9841   4.321   6.351   8.897 -1.4639  1.0252 -0.7821
   98OSM   H17G 9842   4.453   6.469   8.866 -0.4716  0.1237  0.0066
   98OSM   C18F 9843   4.276   6.541   8.966  0.2549 -0.3860 -0.2888
   98OSM   H18F 9844   4.199   6.541   8.885  1.6393 -0.9399 -1.6415
   98OSM   H18G 9845   4.328   6.639   8.967  0.4213 -0.4744 -0.2418
   98OSM   H18H 9846   4.224   6.527   9.064  2.2012 -0.0688  0.8354
   99OSM      N 9847   3.567   6.201  10.674 -0.6716  0.3944 -0.7116
   99OSM    C15 9848   3.658   6.085  10.646  0.0541 -0.5394  0.0946
   99OSM   H15A 9849   3.762   6.115  10.640 -0.8781  2.7004 -3.7973
   99OSM   H15B 9850   3.629   6.022  10.563  0.3155 -2.4616  1.3887
   99OSM   H15C 9851   3.650   6.015  10.728  2.1407 -0.3449  0.5374
   99OSM    C14 9852   3.576   6.262  10.812  0.0873  0.1759 -0.4210
   99OSM   H14A 9853   3.526   6.357  10.827  1.4839  1.0230 -0.8982
   99OSM   H14B 9854   3.677   6.265  10.851  0.2158 -3.7141 -0.0819
   99OSM   H14C 9855   3.532   6.198  10.886 -1.0034  2.0430  0.6161
   99OSM    C13 9856   3.602   6.306  10.573  0.0861  0.3325 -0.1323
   99OSM   H13A 9857   3.580   6.284  10.470 -3.2722  1.7170  0.1558
   99OSM   H13B 9858   3.708   6.327  10.582 -0.2916  1.3619  3.4339
   99OSM   H13C 9859   3.550   6.397  10.599 -0.4751 -0.4673  1.6596
   99OSM    C12 9860   3.422   6.154  10.658  0.5821  0.6925  0.0363
   99OSM   H12A 9861   3.395   6.089  10.741 -2.5996 -0.6751 -1.8691
   99OSM   H12B 9862   3.416   6.077  10.582  1.1413  0.0451  0.6276
   99OSM    C11 9863   3.304   6.256  10.646  0.4003 -0.1619  0.4794
   99OSM   H11A 9864   3.322   6.314  10.553  1.2987 -1.7157 -0.3659
   99OSM   H11B 9865   3.288   6.320  10.736  1.5527  1.2980 -0.3022
   99OSM      P 9866   3.059   6.233  10.565 -0.1379 -0.1302 -0.1358
   99OSM    O13 9867   2.979   6.117  10.516  0.0480  0.2016  0.0824
   99OSM    O14 9868   2.997   6.321  10.663 -0.2902 -0.1672  0.5890
   99OSM    O11 9869   3.115   6.315  10.441  0.9334 -0.4126  0.2180
   99OSM    O12 9870   3.192   6.173  10.620  0.5955  0.2275  0.1185
   99OSM    C1S 9871   3.181   6.245  10.335 -0.7076 -0.0286 -0.5521
   99OSM    H1S 9872   3.214   6.145  10.372  1.3653  1.2477  1.3242
   99OSM    H1T 9873   3.273   6.300  10.306  0.0185 -1.3337 -0.8353
   99OSM     NF 9874   3.179   6.172  10.103  0.0184 -0.1252 -0.3273
   99OSM    HNF 9875   3.198   6.236  10.028 -1.2160  1.6078  0.7805
   99OSM    C2S 9876   3.095   6.216  10.208  0.0264 -0.4568  0.0632
   99OSM    H2S 9877   3.020   6.141  10.240 -0.7672  0.2217 -0.1730
   99OSM    C3S 9878   3.016   6.339  10.154  0.0462  0.6652  0.0965
   99OSM    H3S 9879   3.093   6.419  10.147  1.8466 -0.9014  1.0457
   99OSM     O3 9880   2.913   6.384  10.242  0.4998 -0.0050  0.1316
   99OSM    HO3 9881   2.915   6.338  10.326 -4.3895  1.1678  1.2304
   99OSM    C4S 9882   2.956   6.304  10.020  0.4844 -0.0300  0.1686
   99OSM    H4S 9883   2.928   6.199  10.000  0.9393 -0.3862  1.3207
   99OSM    C5S 9884   2.959   6.392   9.915  1.0562 -0.2732  0.3473
   99OSM    H5S 9885   2.997   6.494   9.931  0.7166  0.1687 -1.5203
   99OSM    C6S 9886   2.908   6.360   9.777  0.7878 -0.0629  0.5167
   99OSM    H6S 9887   2.815   6.421   9.765 -0.3636 -1.8002  0.3002
   99OSM    H6T 9888   2.870   6.258   9.755 -0.1859  0.8184 -2.4237
   99OSM    C7S 9889   3.015   6.398   9.668  0.8897 -0.6539  0.1950
   99OSM    H7S 9890   3.117   6.358   9.683  0.7785 -0.1905  2.5097
   99OSM    H7T 9891   3.034   6.507   9.669  0.3329 -0.4524 -2.7267
   99OSM    C8S 9892   2.970   6.376   9.522 -0.2933 -0.1323  0.4723
   99OSM    H8S 9893   2.864   6.410   9.520 -1.0535 -2.1616  2.3566
   99OSM    H8T 9894   2.956   6.268   9.500  1.5586 -0.5570  1.1998
   99OSM    C9S 9895   3.047   6.449   9.411 -0.2779  0.0492 -0.4209
   99OSM    H9S 9896   3.155   6.425   9.413 -0.4585 -0.9204 -1.6318
   99OSM    H9T 9897   3.046   6.558   9.430 -1.1391  0.1613 -1.0775
   99OSM   C10S 9898   2.988   6.418   9.270  0.1465 -0.4969  0.2185
   99OSM   H10S 9899   2.889   6.468   9.261  0.6813  0.4543 -0.4737
   99OSM   H10T 9900   2.961   6.310   9.280  3.1624 -1.2448  1.1863
   99OSM   C11S 9901   3.083   6.448   9.161 -0.0385  0.4257  0.3152
   99OSM   H11S 9902   3.176   6.388   9.172 -1.0784 -0.9170  2.5708
   99OSM   H11T 9903   3.116   6.553   9.173  1.8247  0.2851 -2.5070
   99OSM   C12S 9904   3.028   6.442   9.007 -0.6573 -0.6245  0.1226
   99OSM   H12S 9905   2.945   6.514   8.988  0.5336  0.2534 -2.1183
   99OSM   H12T 9906   3.112   6.485   8.948  0.5144 -2.0619  0.6790
   99OSM   C13S 9907   2.981   6.301   8.965  0.1770  0.3456  1.0414
   99OSM   H13S 9908   2.887   6.268   9.015 -1.5135 -0.9546 -2.6743
   99OSM   H13T 9909   3.055   6.221   8.984 -0.5954 -0.3108  1.3600
   99OSM   C14S 9910   2.951   6.297   8.817 -0.2298  0.0466  0.0050
   99OSM   H14S 9911   2.869   6.367   8.790 -2.4371 -2.5392 -0.4930
   99OSM   H14T 9912   2.910   6.195   8.803 -0.1546 -0.0737  0.6246
   99OSM   C15S 9913   3.088   6.316   8.738  0.5076 -0.0351  0.0164
   99OSM   H15S 9914   3.162   6.247   8.784 -0.1610 -1.1000 -0.4492
   99OSM   H15T 9915   3.111   6.422   8.759 -1.4909  0.2412  0.9942
   99OSM   C16S 9916   3.068   6.293   8.589  0.8474 -0.9623 -0.5578
   99OSM   H16S 9917   2.996   6.373   8.560  0.1707 -1.4091 -0.1253
   99OSM   H16T 9918   3.033   6.191   8.565  0.3702 -0.6957 -1.0224
   99OSM   C17S 9919   3.190   6.316   8.507  0.2861 -0.0921  0.1698
   99OSM   H17S 9920   3.277   6.260   8.546  0.8322 -0.7606 -1.8952
   99OSM   H17T 9921   3.221   6.422   8.502  0.4374 -0.0447  1.5670
   99OSM   C18S 9922   3.172   6.274   8.365  0.2093  0.2052 -0.3045
   99OSM   H18S 9923   3.263   6.247   8.307 -0.7727 -0.7919 -1.4417
   99OSM   H18T 9924   3.123   6.354   8.305  1.2024 -0.3508 -1.9315
   99OSM   H18U 9925   3.110   6.183   8.366 -1.3679  1.2353 -0.6281
   99OSM    C1F 9926   3.231   6.052  10.094  0.3184  0.3293 -1.0994
   99OSM     OF 9927   3.222   5.976  10.188  0.1410 -0.0319 -0.1559
   99OSM    C2F 9928   3.291   6.008   9.963  0.6234 -0.3040 -0.3135
   99OSM    H2F 9929   3.241   5.911   9.945  1.1922 -0.9689  1.4231
   99OSM    H2G 9930   3.396   5.978   9.980 -0.2831 -2.6569  1.9526
   99OSM    C3F 9931   3.283   6.109   9.843 -0.6033 -0.3283  0.2359
   99OSM    H3F 9932   3.178   6.136   9.820 -0.2302 -1.1028 -2.7955
   99OSM    H3G 9933   3.344   6.195   9.878  0.9709 -1.4331  0.3217
   99OSM    C4F 9934   3.347   6.056   9.711  0.4905  0.5883 -0.7766
   99OSM    H4F 9935   3.356   5.945   9.707 -3.0301  0.2198 -1.8423
   99OSM    H4G 9936   3.446   6.105   9.699  0.6182  0.2370 -1.1696
   99OSM    C5F 9937   3.271   6.087   9.584  0.0277  0.2707  0.1040
   99OSM    H5F 9938   3.235   6.192   9.578 -0.2510  0.1004 -3.3366
   99OSM    H5G 9939   3.178   6.026   9.583  0.0020  0.3086  0.1566
   99OSM    C6F 9940   3.343   6.067   9.452 -0.3165 -0.2955 -0.0873
   99OSM    H6F 9941   3.344   5.959   9.427  0.3881 -0.8433  2.0595
   99OSM    H6G 9942   3.447   6.099   9.471 -0.7389 -0.1611  2.3386
   99OSM    C7F 9943   3.267   6.143   9.340  0.0416 -0.8964  0.9246
   99OSM    H7F 9944   3.270   6.253   9.355  0.6110 -0.6930 -0.5429
   99OSM    H7G 9945   3.158   6.118   9.340 -1.0726  2.9583 -2.6049
   99OSM    C8F 9946   3.317   6.114   9.198  0.2668  0.4993  0.9984
   99OSM    H8F 9947   3.244   6.154   9.125 -2.0661  1.0479  3.4540
   99OSM    H8G 9948   3.329   6.005   9.180 -2.3577  0.4986 -1.4903
   99OSM    C9F 9949   3.441   6.186   9.172 -0.7890 -0.9016 -0.3506
   99OSM    H9F 9950   3.518   6.183   9.250 -2.0999 -3.3600  0.9443
   99OSM   C10F 9951   3.471   6.267   9.067  0.7196 -0.4305 -0.8422
   99OSM   H10F 9952   3.565   6.323   9.058  0.4275  0.8116  2.4355
   99OSM   C11F 9953   3.386   6.304   8.950  0.3369 -0.0414  0.1426
   99OSM   H11F 9954   3.329   6.397   8.970  1.1210  0.4298  0.2179
   99OSM   H11G 9955   3.313   6.226   8.920 -0.2848 -0.0807  1.7019
   99OSM   C12F 9956   3.471   6.306   8.817  0.2020  0.3652  0.3131
   99OSM   H12F 9957   3.402   6.303   8.730  0.9219 -0.9207 -0.2458
   99OSM   H12G 9958   3.532   6.214   8.805 -2.4248 -1.6056  0.8533
   99OSM   C13F 9959   3.552   6.435   8.801  0.3427 -0.0534 -0.6265
   99OSM   H13F 9960   3.628   6.451   8.881 -2.6905  1.9330  2.1162
   99OSM   H13G 9961   3.475   6.514   8.817 -1.6072 -1.9626 -0.0712
   99OSM   C14F 9962   3.617   6.436   8.664  0.4118 -0.3178  0.0208
   99OSM   H14F 9963   3.534   6.455   8.592 -2.1931 -1.6268  2.5184
   99OSM   H14G 9964   3.662   6.340   8.631  3.0824  0.8609 -0.0832
   99OSM   C15F 9965   3.730   6.536   8.645  0.4663 -0.0304 -0.4192
   99OSM   H15F 9966   3.810   6.515   8.719  1.5181  0.2062 -1.4505
   99OSM   H15G 9967   3.699   6.641   8.664  0.6488 -0.2708  1.3383
   99OSM   C16F 9968   3.796   6.543   8.504 -0.6068 -0.3906 -0.1316
   99OSM   H16F 9969   3.709   6.544   8.435 -1.3774  1.1128  0.8160
   99OSM   H16G 9970   3.847   6.447   8.481 -0.5964 -0.2938 -0.5187
   99OSM   C17F 9971   3.893   6.663   8.473 -0.1022  0.7389 -0.2147
   99OSM   H17F 9972   3.985   6.663   8.535 -0.3965  2.0567  0.2504
   99OSM   H17G 9973   3.848   6.763   8.489  0.8239  1.3127 -1.0793
   99OSM   C18F 9974   3.933   6.672   8.324 -0.0083 -0.1148  0.5152
   99OSM   H18F 9975   3.849   6.687   8.254  0.2065 -2.0912 -0.2326
   99OSM   H18G 9976   3.974   6.571   8.301 -1.8126 -0.8741  0.4969
   99OSM   H18H 9977   4.003   6.753   8.295 -1.6897  1.4945  0.7667
  100OSM      N 9978   5.171   1.023  10.768 -0.3125 -0.0626  0.5031
  100OSM    C15 9979   5.233   1.125  10.855  0.5385  0.9365 -0.4743
  100OSM   H15A 9980   5.261   1.083  10.951 -0.3285 -1.0615 -1.0373
  100OSM   H15B 9981   5.165   1.205  10.880 -0.3211  0.2784 -0.6175
  100OSM   H15C 9982   5.316   1.166  10.801  0.3194  0.1878 -1.4185
  100OSM    C14 9983   5.169   1.077  10.629  0.6821 -0.3229 -0.5673
  100OSM   H14A 9984   5.077   1.128  10.606  1.0052  1.1508  1.2012
  100OSM   H14B 9985   5.178   1.000  10.554 -0.8057  0.8063 -1.9744
  100OSM   H14C 9986   5.252   1.145  10.612 -0.5304  1.3235 -0.1690
  100OSM    C13 9987   5.261   0.909  10.767  0.1847 -0.1638 -0.1763
  100OSM   H13A 9988   5.361   0.934  10.737 -0.5980  1.1452 -1.8376
  100OSM   H13B 9989   5.227   0.831  10.700 -0.5933 -0.6690  0.7771
  100OSM   H13C 9990   5.261   0.861  10.864 -1.1321  1.0112  0.4361
  100OSM    C12 9991   5.029   0.993  10.819  0.2508  0.0240  0.2096
  100OSM   H12A 9992   5.032   0.983  10.927 -0.6670 -2.4766  0.0778
  100OSM   H12B 9993   5.001   0.893  10.787  1.8204  0.2025 -1.8924
  100OSM    C11 9994   4.903   1.078  10.778 -0.2950 -0.0498  0.5261
  100OSM   H11A 9995   4.914   1.184  10.810 -0.8316 -0.2012  1.2242
  100OSM   H11B 9996   4.811   1.043  10.830 -1.7340  0.9973 -1.1904
  100OSM      P 9997   4.814   0.963  10.559  0.4759  0.3862 -0.0366
  100OSM    O13 9998   4.750   0.872  10.651  0.0851  0.2017 -0.2393
  100OSM    O14 9999   4.727   1.034  10.460  0.3852  0.0009 -0.1156
  100OSM    O1110000   4.931   0.892  10.475  0.4174  0.2037 -0.1260
  100OSM    O1210001   4.884   1.079  10.638  0.3441 -0.5485 -0.6229
  100OSM    C1S10002   4.909   0.825  10.353  0.1366 -0.1092 -0.2277
  100OSM    H1S10003   4.900   0.907  10.278  2.7305  1.2729  0.8631
  100OSM    H1T10004   4.814   0.767  10.357 -0.3591  0.3761 -2.9147
  100OSM     NF10005   4.983   0.679  10.188  0.2252  0.0822  0.4816
  100OSM    HNF10006   4.942   0.589  10.193 -1.2010  0.4055 -2.8420
  100OSM    C2S10007   5.031   0.737  10.315 -0.1715 -0.1544 -0.2753
  100OSM    H2S10008   5.122   0.798  10.301  0.0970 -0.7290 -1.0644
  100OSM    C3S10009   5.056   0.632  10.430  0.3551 -0.0279 -0.4557
  100OSM    H3S10010   4.960   0.583  10.455 -0.3666  1.9908  1.0485
  100OSM     O310011   5.099   0.682  10.554 -0.4618 -0.0228  0.1661
  100OSM    HO310012   5.035   0.747  10.583  0.3605  1.0432 -0.3340
  100OSM    C4S10013   5.155   0.527  10.379  0.7004 -0.3766 -0.0181
  100OSM    H4S10014   5.112   0.427  10.363 -1.0789  0.6913 -2.5789
  100OSM    C5S10015   5.283   0.529  10.354  0.9897 -0.1325 -0.6048
  100OSM    H5S10016   5.338   0.622  10.372 -0.1955  0.2045  1.6244
  100OSM    C6S10017   5.370   0.417  10.302 -0.6593  0.3054  0.9676
  100OSM    H6S10018   5.408   0.350  10.382 -1.4900 -1.3993  0.0016
  100OSM    H6T10019   5.466   0.459  10.265 -1.3010  2.3214  1.4519
  100OSM    C7S10020   5.299   0.327  10.194 -0.4709  0.2277  0.0161
  100OSM    H7S10021   5.211   0.280  10.242 -0.6605  0.6603  0.0867
  100OSM    H7T10022   5.377   0.254  10.162  2.3914  2.4798  1.3329
  100OSM    C8S10023   5.256   0.410  10.077 -0.0238 -0.0068 -0.1235
  100OSM    H8S10024   5.334   0.480  10.039  0.5081  0.3494  1.5611
  100OSM    H8T10025   5.173   0.481  10.097 -1.3237 -1.8310  1.3274
  100OSM    C9S10026   5.211   0.320   9.962  0.2877 -0.0856 -0.6328
  100OSM    H9S10027   5.120   0.269  10.000  0.7358 -0.5975 -0.2319
  100OSM    H9T10028   5.286   0.242   9.937  2.0181  0.5118  2.1822
  100OSM   C10S10029   5.170   0.395   9.836 -0.4902  0.3023 -0.2859
  100OSM   H10S10030   5.259   0.446   9.793 -1.5720  2.7560  0.1791
  100OSM   H10T10031   5.095   0.473   9.860 -1.3507 -0.7775  0.6647
  100OSM   C11S10032   5.121   0.304   9.723 -0.0988  0.2235 -0.1182
  100OSM   H11S10033   5.199   0.231   9.693  1.1566  1.5673 -0.2526
  100OSM   H11T10034   5.115   0.366   9.630  0.9429  0.0978 -0.2819
  100OSM   C12S10035   4.980   0.246   9.752 -0.4200 -0.2820 -0.4379
  100OSM   H12S10036   4.909   0.323   9.718 -1.3567  0.2978  2.5026
  100OSM   H12T10037   4.967   0.239   9.862 -3.0572  0.4435 -0.6470
  100OSM   C13S10038   4.972   0.113   9.677  0.5628 -0.2167 -0.5146
  100OSM   H13S10039   5.054   0.045   9.708  0.9693 -0.0956 -1.2987
  100OSM   H13T10040   4.989   0.134   9.570  2.4532 -0.9518 -0.3929
  100OSM   C14S10041   4.837   0.040   9.678 -0.2281  0.1550  0.3252
  100OSM   H14S10042   4.814   0.005   9.781  0.9293  1.6750  1.1488
  100OSM   H14T10043   4.858  -0.050   9.617  0.4439  0.0568  0.6794
  100OSM   C15S10044   4.708   0.131   9.641 -0.4294  0.1118 -0.1195
  100OSM   H15S10045   4.688   0.216   9.709 -0.8468 -0.3130  0.2901
  100OSM   H15T10046   4.622   0.062   9.656 -1.0015  1.0565  1.0481
  100OSM   C16S10047   4.681   0.172   9.492  0.0624  1.0876  0.6341
  100OSM   H16S10048   4.573   0.165   9.468  0.2840 -1.8675  0.1082
  100OSM   H16T10049   4.731   0.097   9.428 -1.1180  0.9578 -0.1778
  100OSM   C17S10050   4.730   0.313   9.453  0.1658  0.1329 -0.6968
  100OSM   H17S10051   4.830   0.324   9.499 -1.4257  0.6925  3.0490
  100OSM   H17T10052   4.672   0.400   9.491  1.4324  1.1170 -0.9286
  100OSM   C18S10053   4.743   0.335   9.301  0.1635  0.0446  0.2450
  100OSM   H18S10054   4.829   0.401   9.279  2.2824 -1.8060  2.4130
  100OSM   H18T10055   4.651   0.382   9.259 -0.6324 -0.7734  1.0222
  100OSM   H18U10056   4.770   0.245   9.242  0.0018  0.7976 -1.0284
  100OSM    C1F10057   4.972   0.750  10.072 -0.3522 -0.6461  0.0004
  100OSM     OF10058   5.020   0.866  10.070 -0.0379 -0.0299 -0.0388
  100OSM    C2F10059   4.881   0.685   9.966 -0.2117 -0.3931 -0.4331
  100OSM    H2F10060   4.783   0.657  10.012  0.0618  0.2891  0.5979
  100OSM    H2G10061   4.938   0.592   9.949 -0.1706 -0.7149  1.3628
  100OSM    C3F10062   4.870   0.762   9.833  0.1215 -0.5331 -0.0332
  100OSM    H3F10063   4.968   0.787   9.786 -0.4194  1.0808 -0.3523
  100OSM    H3G10064   4.823   0.861   9.844  0.5873 -0.3182  0.0452
  100OSM    C4F10065   4.794   0.674   9.728  0.2475 -0.0711  0.0433
  100OSM    H4F10066   4.710   0.624   9.781  0.2591  0.2923  0.4060
  100OSM    H4G10067   4.868   0.595   9.703 -0.4719 -0.6290 -0.3647
  100OSM    C5F10068   4.752   0.752   9.610  0.5720 -0.7185 -0.1747
  100OSM    H5F10069   4.831   0.822   9.574  0.0068  0.1499  0.2471
  100OSM    H5G10070   4.664   0.813   9.640  1.5917  1.4290 -1.2467
  100OSM    C6F10071   4.686   0.671   9.501 -0.7014  1.1737 -0.2990
  100OSM    H6F10072   4.627   0.592   9.552 -0.5738  0.5454 -1.1013
  100OSM    H6G10073   4.775   0.620   9.459 -0.1938  0.4562  1.5556
  100OSM    C7F10074   4.610   0.749   9.393 -0.3825  0.2304 -0.2348
  100OSM    H7F10075   4.658   0.846   9.368 -1.5926  0.5170 -1.5282
  100OSM    H7G10076   4.512   0.789   9.426  0.2185  2.3898 -0.8664
  100OSM    C8F10077   4.593   0.667   9.268 -0.8100  0.0089  0.1140
  100OSM    H8F10078   4.557   0.565   9.295  0.4982 -0.9338 -1.4861
  100OSM    H8G10079   4.696   0.647   9.230 -0.5111  1.6119  0.0340
  100OSM    C9F10080   4.508   0.743   9.165  0.5316  0.1933  0.1263
  100OSM    H9F10081   4.428   0.806   9.206  1.8631  0.9960  1.5743
  100OSM   C10F10082   4.542   0.758   9.036  0.2277  0.0815  0.8921
  100OSM   H10F10083   4.472   0.814   8.972 -1.8458 -1.4698  1.6730
  100OSM   C11F10084   4.656   0.707   8.964 -0.2177  0.6813 -0.1182
  100OSM   H11F10085   4.618   0.683   8.863  0.1222 -0.6893  0.0558
  100OSM   H11G10086   4.691   0.608   9.000  0.2690  0.1805 -1.9174
  100OSM   C12F10087   4.781   0.791   8.942 -0.2479 -0.4793  0.2394
  100OSM   H12F10088   4.858   0.739   8.880  0.5288  1.9424 -0.9207
  100OSM   H12G10089   4.825   0.810   9.042  3.5082 -3.0945 -0.6873
  100OSM   C13F10090   4.755   0.928   8.874  0.0446 -0.2234  0.6554
  100OSM   H13F10091   4.849   0.986   8.869  0.6846 -1.2086  0.9991
  100OSM   H13G10092   4.693   0.989   8.943 -1.5305 -2.1345  1.0331
  100OSM   C14F10093   4.705   0.920   8.725  0.3153  0.3572  0.1924
  100OSM   H14F10094   4.671   1.019   8.687 -2.5274 -0.7401 -0.4214
  100OSM   H14G10095   4.612   0.859   8.721  0.6651 -0.1353 -1.3204
  100OSM   C15F10096   4.814   0.860   8.633  0.2023 -0.2181 -0.4239
  100OSM   H15F10097   4.853   0.763   8.671  0.8842 -1.0186 -2.9610
  100OSM   H15G10098   4.904   0.924   8.624 -1.3920  2.1798 -0.1306
  100OSM   C16F10099   4.768   0.840   8.484  0.2045  0.0444  0.1914
  100OSM   H16F10100   4.859   0.826   8.421  0.0751  1.3948 -0.3337
  100OSM   H16G10101   4.744   0.944   8.453 -0.1650 -0.2337 -0.4809
  100OSM   C17F10102   4.659   0.737   8.460  0.0315 -1.3497  0.2466
  100OSM   H17F10103   4.564   0.757   8.515 -0.9111 -0.9224 -1.4688
  100OSM   H17G10104   4.699   0.642   8.501 -0.2135 -1.2828  0.6497
  100OSM   C18F10105   4.627   0.732   8.309 -0.3525  0.7773 -0.6739
  100OSM   H18F10106   4.546   0.659   8.288 -2.1023  2.6971 -0.9912
  100OSM   H18G10107   4.716   0.707   8.248 -1.0050  0.0123 -1.3376
  100OSM   H18H10108   4.591   0.832   8.277 -0.5772  1.6210  1.9216
  101OSM      N10109   5.847   2.042  11.169  0.4548 -0.0056  0.1646
  101OSM    C1510110   5.913   1.920  11.219 -0.5627  0.5371  0.4387
  101OSM   H15A10111   6.019   1.937  11.230 -0.5961  0.5578  0.7477
  101OSM   H15B10112   5.898   1.839  11.150 -0.3183  0.6377  0.2675
  101OSM   H15C10113   5.867   1.897  11.314  0.9176  3.2060  1.9144
  101OSM    C1410114   5.697   2.043  11.193 -0.3680  0.4168 -0.0118
  101OSM   H14A10115   5.667   2.058  11.295 -2.1206 -0.5927 -0.3422
  101OSM   H14B10116   5.651   1.955  11.150  0.6076  0.1369 -0.5314
  101OSM   H14C10117   5.658   2.131  11.145 -0.7024  1.2191  1.6708
  101OSM    C1310118   5.900   2.148  11.262  0.0648  0.4075  0.1981
  101OSM   H13A10119   6.006   2.148  11.244 -0.1490 -2.6356 -1.6682
  101OSM   H13B10120   5.880   2.118  11.364  0.6664 -2.3669 -0.4256
  101OSM   H13C10121   5.847   2.241  11.242 -2.8917 -0.1128  4.2835
  101OSM    C1210122   5.891   2.082  11.036  0.7125  0.3742  0.4488
  101OSM   H12A10123   5.998   2.100  11.036  1.2062 -2.1125  2.2000
  101OSM   H12B10124   5.843   2.177  11.017 -0.0083  0.0859  0.8233
  101OSM    C1110125   5.871   1.989  10.914  0.0590  0.0911 -0.0378
  101OSM   H11A10126   5.899   2.046  10.822  2.2915  0.9084  1.0699
  101OSM   H11B10127   5.764   1.964  10.903 -0.1976  0.8921  0.5408
  101OSM      P10128   6.103   1.866  10.900 -0.5788  0.0017 -0.0701
  101OSM    O1310129   6.161   1.991  10.951  0.3136 -0.6002  0.2387
  101OSM    O1410130   6.151   1.736  10.954 -0.2350 -0.0754  0.0895
  101OSM    O1110131   6.106   1.863  10.745 -0.1920 -0.1383 -0.4694
  101OSM    O1210132   5.953   1.866  10.919  0.0608 -0.0688  0.1834
  101OSM    C1S10133   6.224   1.864  10.668 -0.1159 -0.6767  0.0427
  101OSM    H1S10134   6.277   1.767  10.679 -1.2394 -1.0337  3.2968
  101OSM    H1T10135   6.296   1.937  10.709 -1.6250  0.8858  0.0033
  101OSM     NF10136   6.322   1.901  10.451 -0.4129  0.5303  0.2197
  101OSM    HNF10137   6.382   1.981  10.447  1.1323 -0.5371  1.2104
  101OSM    C2S10138   6.200   1.920  10.523 -0.6706  0.4398 -0.1116
  101OSM    H2S10139   6.121   1.862  10.472 -0.0231  0.8595 -1.6423
  101OSM    C3S10140   6.155   2.065  10.529  0.7743 -0.0933  0.0539
  101OSM    H3S10141   6.243   2.118  10.572 -0.7014 -0.6969  4.2248
  101OSM     O310142   6.035   2.080  10.615 -0.0978  0.1045  0.2270
  101OSM    HO310143   6.037   1.996  10.661  0.4741 -0.1475 -0.2489
  101OSM    C4S10144   6.114   2.113  10.393 -0.4538  0.2102  0.4016
  101OSM    H4S10145   6.185   2.184  10.348 -0.1695 -0.2191  0.1587
  101OSM    C5S10146   6.019   2.063  10.316 -0.4672 -0.4194  0.5240
  101OSM    H5S10147   5.947   1.986  10.346  0.6415 -1.6491  0.1159
  101OSM    C6S10148   6.002   2.099  10.171 -0.3424  0.0150  0.1717
  101OSM    H6S10149   6.091   2.158  10.140 -0.0950 -1.0433 -1.2465
  101OSM    H6T10150   5.912   2.163  10.164 -1.3383 -1.4105 -0.4874
  101OSM    C7S10151   5.991   1.973  10.083  0.0807  0.6295  0.1088
  101OSM    H7S10152   5.892   1.928  10.108  1.0174 -1.7150 -0.1006
  101OSM    H7T10153   6.073   1.900  10.104 -0.1688 -0.7169 -3.0329
  101OSM    C8S10154   5.988   2.008   9.932 -0.1183  0.4061  0.1602
  101OSM    H8S10155   6.077   2.071   9.911 -0.1001  0.3069 -0.0647
  101OSM    H8T10156   5.899   2.074   9.922 -0.7080 -0.3951 -0.0257
  101OSM    C9S10157   5.990   1.884   9.847  0.2888  0.0012  0.6006
  101OSM    H9S10158   5.911   1.810   9.872  0.7208 -1.4088 -1.8899
  101OSM    H9T10159   6.085   1.828   9.858  0.6057  0.3521 -0.2396
  101OSM   C10S10160   5.985   1.916   9.695  1.1087 -0.5310 -0.2942
  101OSM   H10S10161   6.051   2.003   9.672  1.8425 -0.2275  2.5736
  101OSM   H10T10162   5.880   1.939   9.666  1.1703  1.3162  0.7979
  101OSM   C11S10163   6.025   1.803   9.610 -0.8591 -0.1666 -0.4132
  101OSM   H11S10164   5.971   1.711   9.643  0.5872 -0.7781  0.3719
  101OSM   H11T10165   6.134   1.792   9.630 -0.9944  0.8125  1.0086
  101OSM   C12S10166   6.012   1.834   9.456 -0.6931  0.3733 -0.3326
  101OSM   H12S10167   6.051   1.937   9.442 -0.7844  0.3637 -0.6755
  101OSM   H12T10168   5.904   1.832   9.429 -0.9615 -0.0409  0.7231
  101OSM   C13S10169   6.103   1.745   9.376 -0.1779  0.1448 -1.0613
  101OSM   H13S10170   6.081   1.639   9.400 -1.0556  1.0631  2.7286
  101OSM   H13T10171   6.206   1.745   9.416 -1.0668 -0.5281  1.3850
  101OSM   C14S10172   6.109   1.791   9.232  1.4282 -0.1681 -0.6708
  101OSM   H14S10173   6.183   1.872   9.217  0.8515  1.1208  2.6306
  101OSM   H14T10174   6.013   1.838   9.202  1.0437 -1.4968 -1.6345
  101OSM   C15S10175   6.146   1.672   9.140  0.2342  0.6293 -0.3783
  101OSM   H15S10176   6.080   1.585   9.159  3.5652 -2.6959 -2.6917
  101OSM   H15T10177   6.248   1.639   9.168 -0.1202  1.1574  1.6596
  101OSM   C16S10178   6.128   1.683   8.992  0.7827 -0.6185 -0.1499
  101OSM   H16S10179   6.187   1.765   8.945 -0.1110  1.2969  1.8383
  101OSM   H16T10180   6.024   1.711   8.965  0.7093  0.3881  1.0616
  101OSM   C17S10181   6.152   1.546   8.929 -0.4770  0.2824  0.5646
  101OSM   H17S10182   6.063   1.485   8.956 -0.3930  0.2941  0.8676
  101OSM   H17T10183   6.241   1.506   8.982 -0.4854  0.4144  0.6811
  101OSM   C18S10184   6.152   1.552   8.777 -0.0512 -0.4281  0.4975
  101OSM   H18S10185   6.062   1.607   8.742  0.2537 -0.3254 -0.1468
  101OSM   H18T10186   6.165   1.452   8.732 -0.6432  0.4394 -1.7323
  101OSM   H18U10187   6.243   1.606   8.741 -1.1049 -0.6244 -2.7746
  101OSM    C1F10188   6.370   1.782  10.407 -0.5308 -0.0107 -0.3159
  101OSM     OF10189   6.318   1.670  10.428 -0.6360 -1.0726  0.4932
  101OSM    C2F10190   6.515   1.788  10.350 -0.4589  0.2118 -0.0917
  101OSM    H2F10191   6.546   1.681  10.349  2.0571  0.7971  1.9393
  101OSM    H2G10192   6.590   1.837  10.416  0.2936  0.5607 -1.1684
  101OSM    C3F10193   6.539   1.844  10.202 -0.2955  0.7111 -0.1499
  101OSM    H3F10194   6.481   1.770  10.144 -0.5843 -0.3070  1.3982
  101OSM    H3G10195   6.645   1.827  10.173 -0.2862 -1.4197  0.9325
  101OSM    C4F10196   6.500   1.989  10.176 -0.1710  0.2269  0.0953
  101OSM    H4F10197   6.568   2.055  10.234 -0.3063  0.9844 -0.5964
  101OSM    H4G10198   6.398   2.007  10.215  0.6636  0.6708  2.1977
  101OSM    C5F10199   6.505   2.029  10.026 -0.5843  0.1596  0.7917
  101OSM    H5F10200   6.607   2.010   9.986 -0.2666  1.3576  0.9681
  101OSM    H5G10201   6.485   2.136  10.002 -1.7376 -0.6165 -2.1690
  101OSM    C6F10202   6.416   1.941   9.947  0.0961  0.0439 -0.0047
  101OSM    H6F10203   6.474   1.847   9.954 -0.5777 -0.3200  0.8280
  101OSM    H6G10204   6.328   1.918  10.010  0.3158 -1.5025 -0.2380
  101OSM    C7F10205   6.368   1.992   9.815  0.2191  0.5190 -0.1200
  101OSM    H7F10206   6.294   2.074   9.823  1.3189  1.4590  0.5665
  101OSM    H7G10207   6.319   1.899   9.776  0.6462  0.1287  0.2653
  101OSM    C8F10208   6.480   2.038   9.717  0.0565  0.1217  0.1476
  101OSM    H8F10209   6.521   2.137   9.750 -0.0518  0.5741 -1.0160
  101OSM    H8G10210   6.445   2.055   9.613  1.3166  0.1775 -0.2898
  101OSM    C9F10211   6.598   1.942   9.715  0.0967  0.3913  0.2451
  101OSM    H9F10212   6.690   1.976   9.765 -0.8282  0.0353  2.2534
  101OSM   C10F10213   6.608   1.832   9.640  0.2641 -0.5874  0.6697
  101OSM   H10F10214   6.697   1.768   9.633  2.0407  1.8435 -0.6821
  101OSM   C11F10215   6.499   1.784   9.539  0.0974 -0.5287  0.5419
  101OSM   H11F10216   6.393   1.806   9.562  0.1776  1.9000 -1.0598
  101OSM   H11G10217   6.500   1.673   9.548 -1.0501 -0.4316  2.5658
  101OSM   C12F10218   6.532   1.816   9.393  0.1305  0.9010  0.5991
  101OSM   H12F10219   6.638   1.847   9.389 -0.0501  1.6891  1.6509
  101OSM   H12G10220   6.453   1.888   9.362 -0.3556  0.8388  1.6546
  101OSM   C13F10221   6.508   1.688   9.307  0.1805 -0.1889 -0.5749
  101OSM   H13F10222   6.398   1.675   9.307  0.1609 -0.0814  0.2804
  101OSM   H13G10223   6.543   1.588   9.340 -3.2068 -0.7267  1.8680
  101OSM   C14F10224   6.553   1.703   9.156 -0.1367  0.2474  0.1167
  101OSM   H14F10225   6.536   1.608   9.100 -1.1002  1.2739 -1.4251
  101OSM   H14G10226   6.662   1.718   9.144 -0.2291 -0.3639 -1.8767
  101OSM   C15F10227   6.475   1.815   9.081  0.2010  0.0325  0.3618
  101OSM   H15F10228   6.489   1.916   9.125 -3.1938  0.8724 -0.2014
  101OSM   H15G10229   6.366   1.799   9.072 -0.1647  1.8693  0.9825
  101OSM   C16F10230   6.525   1.837   8.937 -0.8208 -0.9568 -0.5867
  101OSM   H16F10231   6.505   1.752   8.868  0.0185 -1.6183 -0.0292
  101OSM   H16G10232   6.635   1.848   8.942 -0.5245 -3.6091  0.7714
  101OSM   C17F10233   6.480   1.973   8.878  0.0458 -0.0980 -0.4955
  101OSM   H17F10234   6.543   2.055   8.919  0.4542 -1.2223  1.2319
  101OSM   H17G10235   6.381   1.989   8.928  0.5856  0.7071  0.3624
  101OSM   C18F10236   6.463   1.964   8.724  1.3373  0.4679  0.0815
  101OSM   H18F10237   6.554   1.953   8.662  0.6561  1.8272 -1.2359
  101OSM   H18G10238   6.413   2.060   8.696 -0.3676 -0.9010 -1.9012
  101OSM   H18H10239   6.394   1.880   8.704  0.7583  1.3706 -2.0027
  102OSM      N10240   3.319   1.070  10.977 -0.0454  0.0922  0.2858
  102OSM    C1510241   3.364   0.935  11.026 -0.7087  0.2084 -0.0009
  102OSM   H15A10242   3.464   0.911  10.995 -1.1475 -1.3521 -0.3150
  102OSM   H15B10243   3.306   0.848  10.997  0.2756 -0.3055 -0.4527
  102OSM   H15C10244   3.359   0.928  11.134 -3.3201 -1.5667 -0.1260
  102OSM    C1410245   3.183   1.103  11.022  0.8082  0.1135 -0.5738
  102OSM   H14A10246   3.187   1.083  11.128  1.3850 -3.1839 -1.1011
  102OSM   H14B10247   3.103   1.045  10.978  0.1671  1.3943 -1.1426
  102OSM   H14C10248   3.159   1.202  10.987 -1.3910 -0.1801 -0.0457
  102OSM    C1310249   3.416   1.164  11.044 -0.1156  0.1810  0.1443
  102OSM   H13A10250   3.366   1.259  11.033  1.1352  0.7124 -1.1927
  102OSM   H13B10251   3.512   1.169  10.996 -0.9233 -0.4534 -1.6287
  102OSM   H13C10252   3.434   1.148  11.149  1.8384  0.3076 -0.1401
  102OSM    C1210253   3.325   1.086  10.823  0.2185  0.1095 -0.4389
  102OSM   H12A10254   3.272   1.002  10.781  1.7384 -1.5846  0.9215
  102OSM   H12B10255   3.425   1.083  10.782  0.9453  0.1789  1.2431
  102OSM    C1110256   3.261   1.211  10.755  0.3784 -0.6053  0.3027
  102OSM   H11A10257   3.157   1.203  10.793 -1.0317 -0.6116 -3.1358
  102OSM   H11B10258   3.247   1.184  10.648  0.7421  0.9396 -0.1476
  102OSM      P10259   3.271   1.462  10.722 -0.4299  0.1505 -0.2083
  102OSM    O1310260   3.138   1.493  10.778 -0.1176  0.4061  0.6664
  102OSM    O1410261   3.370   1.566  10.725 -0.3656  0.3545 -0.1585
  102OSM    O1110262   3.236   1.428  10.569 -0.1314 -0.6220  0.2994
  102OSM    O1210263   3.331   1.328  10.779 -0.0605 -0.3161 -0.2876
  102OSM    C1S10264   3.338   1.386  10.475  0.4498 -0.3833  0.6572
  102OSM    H1S10265   3.381   1.288  10.505 -0.4229 -0.7260  0.8255
  102OSM    H1T10266   3.424   1.457  10.480 -0.8785  1.3181  0.4958
  102OSM     NF10267   3.400   1.308  10.256 -0.4870  0.1825 -0.4592
  102OSM    HNF10268   3.446   1.373  10.196  0.0016  1.9929  1.7296
  102OSM    C2S10269   3.291   1.377  10.330 -0.6731  0.2234  0.1067
  102OSM    H2S10270   3.203   1.309  10.326 -1.8903  1.5829  2.1320
  102OSM    C3S10271   3.244   1.513  10.274  0.2759  0.4399  0.5745
  102OSM    H3S10272   3.331   1.583  10.282  0.9509 -0.0898 -1.4855
  102OSM     O310273   3.136   1.562  10.355  0.7358 -0.0098 -0.0121
  102OSM    HO310274   3.130   1.502  10.430  0.1279  1.4005  1.1255
  102OSM    C4S10275   3.196   1.498  10.130 -0.6213  0.1367 -0.1357
  102OSM    H4S10276   3.273   1.527  10.056 -1.4218 -1.3512 -1.6403
  102OSM    C5S10277   3.077   1.477  10.078  0.6167  0.3025 -0.2155
  102OSM    H5S10278   2.996   1.471  10.153 -0.2924  1.5083 -1.0680
  102OSM    C6S10279   3.049   1.475   9.932  0.0950 -0.8909 -0.1797
  102OSM    H6S10280   3.041   1.582   9.902  0.8279 -0.7684  0.0383
  102OSM    H6T10281   2.952   1.422   9.920 -0.4589 -0.1607  0.9029
  102OSM    C7S10282   3.152   1.410   9.840  0.3063 -0.2998 -0.2558
  102OSM    H7S10283   3.173   1.307   9.874 -0.4292  0.7328  3.8489
  102OSM    H7T10284   3.247   1.467   9.853 -0.1282  0.7784 -1.5737
  102OSM    C8S10285   3.114   1.417   9.693 -0.0617  0.4414  0.3326
  102OSM    H8S10286   3.210   1.405   9.637  0.0828 -2.5648  1.0259
  102OSM    H8T10287   3.062   1.511   9.669 -4.1153 -1.8687 -0.8057
  102OSM    C9S10288   3.027   1.297   9.643  0.4537  0.2032  0.4940
  102OSM    H9S10289   2.953   1.275   9.723 -1.6449  0.4054 -1.2960
  102OSM    H9T10290   3.091   1.206   9.640 -0.0182 -0.1155 -0.8078
  102OSM   C10S10291   2.951   1.303   9.508  0.3579 -0.3935 -0.3192
  102OSM   H10S10292   2.863   1.368   9.527 -1.1035 -2.5381  0.7464
  102OSM   H10T10293   2.912   1.200   9.490 -0.1805 -0.1331 -0.6371
  102OSM   C11S10294   3.034   1.355   9.393  0.4229 -0.1820 -0.5393
  102OSM   H11S10295   3.125   1.296   9.368  0.2187 -0.8852  0.3155
  102OSM   H11T10296   3.078   1.453   9.422 -0.2093 -0.0114 -0.1570
  102OSM   C12S10297   2.956   1.375   9.264 -0.5686  0.0817 -0.6125
  102OSM   H12S10298   2.856   1.423   9.271  0.2428  1.8789 -0.6932
  102OSM   H12T10299   2.924   1.278   9.220 -0.2088 -0.0630 -0.5576
  102OSM   C13S10300   3.046   1.446   9.160  0.3910  0.2039 -0.2825
  102OSM   H13S10301   3.135   1.379   9.156 -1.2763 -2.0828 -1.2266
  102OSM   H13T10302   3.074   1.550   9.186  0.0596  0.0450  0.7527
  102OSM   C14S10303   2.970   1.439   9.020 -0.1352 -0.9218 -0.4890
  102OSM   H14S10304   2.862   1.418   9.039 -0.3198  0.3359 -0.0955
  102OSM   H14T10305   3.018   1.353   8.969  0.0218 -1.9142  1.2483
  102OSM   C15S10306   2.979   1.565   8.936 -0.4823 -0.5104 -0.8191
  102OSM   H15S10307   3.088   1.579   8.917  0.0829 -1.9575  1.0312
  102OSM   H15T10308   2.954   1.654   8.998  1.3669 -0.8691  0.5519
  102OSM   C16S10309   2.881   1.567   8.819 -0.3705  0.1558  0.2207
  102OSM   H16S10310   2.779   1.538   8.851 -1.2751  1.7848 -1.0511
  102OSM   H16T10311   2.921   1.489   8.750 -0.4713  2.8488 -3.1203
  102OSM   C17S10312   2.852   1.689   8.733 -0.2735 -0.0358 -0.1525
  102OSM   H17S10313   2.811   1.767   8.800  0.7693  0.3889  0.0173
  102OSM   H17T10314   2.773   1.656   8.663  0.9177 -2.0430 -0.6493
  102OSM   C18S10315   2.975   1.742   8.663 -0.4035 -0.0497  0.0677
  102OSM   H18S10316   2.950   1.836   8.611 -0.9337  0.7500  1.6873
  102OSM   H18T10317   3.007   1.667   8.588  1.3298 -0.6923  1.3570
  102OSM   H18U10318   3.057   1.758   8.737  0.1256 -0.2409 -0.4662
  102OSM    C1F10319   3.429   1.183  10.274 -0.4638 -0.6215 -0.6926
  102OSM     OF10320   3.369   1.108  10.343 -0.0239  0.7595 -0.5916
  102OSM    C2F10321   3.546   1.127  10.189 -0.2694 -0.1815 -0.2217
  102OSM    H2F10322   3.520   1.019  10.181 -1.4368  0.0610  0.0826
  102OSM    H2G10323   3.632   1.129  10.259  0.5543 -0.6483 -1.2003
  102OSM    C3F10324   3.587   1.200  10.064  0.4017 -0.3292 -0.0240
  102OSM    H3F10325   3.670   1.139  10.024  0.7445 -0.2014  0.4714
  102OSM    H3G10326   3.627   1.300  10.093  2.0173 -1.7293  3.1561
  102OSM    C4F10327   3.482   1.225   9.947 -0.0517 -0.1543  0.4796
  102OSM    H4F10328   3.431   1.323   9.958 -0.3680 -0.1577 -0.8073
  102OSM    H4G10329   3.410   1.140   9.954 -0.3403  0.1141  0.8583
  102OSM    C5F10330   3.553   1.228   9.804  0.3973 -0.1624 -1.4457
  102OSM    H5F10331   3.587   1.124   9.785  0.0736 -0.2482 -1.5608
  102OSM    H5G10332   3.644   1.292   9.801  0.1040  1.0526  4.5006
  102OSM    C6F10333   3.456   1.284   9.698 -0.9615  0.1617  0.1265
  102OSM    H6F10334   3.426   1.386   9.728  1.0242  0.3578  1.6450
  102OSM    H6G10335   3.371   1.213   9.687 -0.6898 -0.0271 -0.8459
  102OSM    C7F10336   3.548   1.295   9.570 -0.6032 -0.7941  0.4771
  102OSM    H7F10337   3.613   1.205   9.572  0.4458 -0.0560  0.3122
  102OSM    H7G10338   3.612   1.385   9.580  0.9341 -1.4403 -2.5047
  102OSM    C8F10339   3.470   1.302   9.438  0.3941  0.0184 -0.2207
  102OSM    H8F10340   3.414   1.398   9.434 -1.5337 -1.0939 -2.1992
  102OSM    H8G10341   3.392   1.224   9.432 -1.3749  1.7938 -2.1827
  102OSM    C9F10342   3.568   1.295   9.327  0.0243  0.8129  0.2959
  102OSM    H9F10343   3.662   1.242   9.347  0.1045  0.6453 -0.4857
  102OSM   C10F10344   3.560   1.339   9.197 -0.0986 -0.1655  0.0224
  102OSM   H10F10345   3.632   1.314   9.118 -0.7238 -0.4515 -0.4670
  102OSM   C11F10346   3.443   1.420   9.152  1.2713 -0.5106  0.0502
  102OSM   H11F10347   3.409   1.491   9.230 -3.3953 -0.5610 -1.6729
  102OSM   H11G10348   3.352   1.357   9.149  1.3199 -0.6908  1.6008
  102OSM   C12F10349   3.458   1.495   9.021  0.5968  0.1140  1.1865
  102OSM   H12F10350   3.549   1.559   9.020 -0.5118  1.7988  2.1794
  102OSM   H12G10351   3.369   1.561   9.011 -0.0355 -1.0791 -2.8696
  102OSM   C13F10352   3.467   1.397   8.901  0.1105 -0.2432  0.2990
  102OSM   H13F10353   3.537   1.312   8.913  0.1739  0.1025  2.8451
  102OSM   H13G10354   3.492   1.460   8.813 -0.5046  1.4163  1.2584
  102OSM   C14F10355   3.334   1.325   8.865 -0.0988 -0.6358 -0.3195
  102OSM   H14F10356   3.264   1.410   8.849  1.1265  0.5294  0.3166
  102OSM   H14G10357   3.307   1.267   8.956  2.4986 -2.0740 -0.3899
  102OSM   C15F10358   3.344   1.231   8.743 -0.2855 -0.2234 -0.3847
  102OSM   H15F10359   3.429   1.162   8.761 -0.7351 -0.4980  0.7929
  102OSM   H15G10360   3.367   1.296   8.657  1.8397  1.7716  1.5686
  102OSM   C16F10361   3.214   1.167   8.706  0.2921  0.0876 -0.0593
  102OSM   H16F10362   3.166   1.095   8.776  1.2108 -0.5057 -0.0237
  102OSM   H16G10363   3.231   1.101   8.618 -1.3579  0.1287 -0.4385
  102OSM   C17F10364   3.102   1.261   8.667  0.6333 -0.8162  0.4629
  102OSM   H17F10365   3.131   1.301   8.567 -1.3124 -3.2712 -1.2308
  102OSM   H17G10366   3.075   1.346   8.733 -2.3774 -0.3280 -1.1757
  102OSM   C18F10367   2.965   1.203   8.657  0.1584  0.2265  0.0527
  102OSM   H18F10368   2.931   1.174   8.759  2.1091  1.0239  0.9933
  102OSM   H18G10369   2.965   1.114   8.591 -0.5532 -0.7916  1.3746
  102OSM   H18H10370   2.893   1.277   8.615 -0.0083  0.6585  1.0631
  103OSM      N10371   1.464   6.024  10.832 -0.0357  0.1022 -0.2252
  103OSM    C1510372   1.411   6.152  10.900 -0.4139  0.6123 -0.1996
  103OSM   H15A10373   1.451   6.240  10.851  1.2649  0.5635  0.9907
  103OSM   H15B10374   1.431   6.151  11.006 -1.3908 -0.3765 -0.0061
  103OSM   H15C10375   1.304   6.159  10.904 -0.5904 -1.3726 -0.3083
  103OSM    C1410376   1.366   5.911  10.865  0.2074 -0.3718 -0.2288
  103OSM   H14A10377   1.263   5.944  10.855 -0.9049 -3.1292  1.1202
  103OSM   H14B10378   1.379   5.883  10.969  0.4256 -0.3035 -0.2374
  103OSM   H14C10379   1.373   5.824  10.802 -3.0133 -1.5585  0.8541
  103OSM    C1310380   1.453   6.052  10.685 -0.1589  0.1151  0.2387
  103OSM   H13A10381   1.470   5.963  10.626  2.1795  1.1970 -0.8532
  103OSM   H13B10382   1.530   6.120  10.651  0.6655 -0.7138  0.4159
  103OSM   H13C10383   1.352   6.080  10.661 -1.2714 -2.1792  1.8062
  103OSM    C1210384   1.607   5.989  10.867 -0.4592  0.2064 -0.0799
  103OSM   H12A10385   1.641   5.901  10.814 -0.4657  0.0322  0.2029
  103OSM   H12B10386   1.615   5.958  10.970 -0.9816  4.2231  1.3440
  103OSM    C1110387   1.713   6.101  10.847  0.3231  0.3915 -0.2802
  103OSM   H11A10388   1.807   6.071  10.898  0.4662  1.4287  0.0810
  103OSM   H11B10389   1.670   6.193  10.892  0.1317  0.9258 -1.5106
  103OSM      P10390   1.875   6.097  10.635  0.3421  0.0199  0.0280
  103OSM    O1310391   1.903   6.227  10.567 -0.1799  0.1852  0.1016
  103OSM    O1410392   1.975   6.041  10.730  0.1999 -0.1333 -0.6546
  103OSM    O1110393   1.840   5.977  10.541  0.3122 -0.1175 -0.3130
  103OSM    O1210394   1.731   6.119  10.704 -0.3752  0.2429 -0.0731
  103OSM    C1S10395   1.748   5.996  10.427  0.3067  0.9852 -0.3290
  103OSM    H1S10396   1.739   6.106  10.411 -0.1985  0.8353 -1.1180
  103OSM    H1T10397   1.646   5.967  10.458  0.2158 -1.8537 -2.8218
  103OSM     NF10398   1.685   5.921  10.197  0.2736  0.5077  0.2807
  103OSM    HNF10399   1.662   5.826  10.179  0.5806  0.2725  1.0987
  103OSM    C2S10400   1.791   5.932  10.291  0.1640  0.1586 -0.3808
  103OSM    H2S10401   1.864   6.006  10.250 -0.0920  0.8821  0.4361
  103OSM    C3S10402   1.853   5.791  10.311  0.2476 -0.3153 -0.8984
  103OSM    H3S10403   1.768   5.724  10.337 -0.0003 -0.0475 -1.0044
  103OSM     O310404   1.961   5.778  10.410 -0.3820 -0.1700 -0.0328
  103OSM    HO310405   1.957   5.855  10.468 -0.3942 -0.4608  0.3534
  103OSM    C4S10406   1.903   5.747  10.186  0.0760  0.2166 -0.4871
  103OSM    H4S10407   1.996   5.798  10.158 -0.0280  0.3040 -0.6771
  103OSM    C5S10408   1.860   5.643  10.115 -0.0734 -0.3824 -0.4359
  103OSM    H5S10409   1.762   5.598  10.135 -1.3352  1.3603 -2.2775
  103OSM    C6S10410   1.915   5.604   9.984 -0.3350  0.8006  0.2879
  103OSM    H6S10411   1.921   5.494   9.977 -2.8370  0.5910  0.7698
  103OSM    H6T10412   2.014   5.651   9.963 -0.2373  0.5402  0.1581
  103OSM    C7S10413   1.813   5.660   9.879 -1.1919  0.1322 -0.5628
  103OSM    H7S10414   1.811   5.770   9.891 -0.9284  0.1951 -1.0442
  103OSM    H7T10415   1.710   5.621   9.893 -1.5498  1.0599 -0.5632
  103OSM    C8S10416   1.857   5.628   9.736  0.3065  0.4203 -0.0271
  103OSM    H8S10417   1.844   5.519   9.722  0.6799  0.5763 -1.7757
  103OSM    H8T10418   1.968   5.637   9.736  0.5650 -1.7458  1.6854
  103OSM    C9S10419   1.785   5.700   9.620  0.0000 -0.1063 -0.4136
  103OSM    H9S10420   1.844   5.793   9.606  1.2961 -0.9344 -0.5719
  103OSM    H9T10421   1.678   5.725   9.640 -0.1844 -2.6184  2.4363
  103OSM   C10S10422   1.803   5.631   9.485 -0.3077 -0.6547  0.2239
  103OSM   H10S10423   1.775   5.524   9.482 -0.2161 -0.6633 -1.9379
  103OSM   H10T10424   1.909   5.629   9.452 -0.2460  2.8423 -0.2278
  103OSM   C11S10425   1.723   5.703   9.379 -0.2233  0.5266 -0.2379
  103OSM   H11S10426   1.745   5.808   9.406  1.5503 -0.0308  0.6213
  103OSM   H11T10427   1.616   5.688   9.403  0.0843  0.1619  0.9911
  103OSM   C12S10428   1.760   5.676   9.230  0.0548  0.4678  0.2958
  103OSM   H12S10429   1.757   5.566   9.213  0.4676  0.7552 -1.8953
  103OSM   H12T10430   1.861   5.711   9.201  0.4923 -1.1176 -0.2134
  103OSM   C13S10431   1.657   5.747   9.137  0.3089 -0.1220  0.1524
  103OSM   H13S10432   1.706   5.733   9.038 -2.4100 -3.3643 -0.9240
  103OSM   H13T10433   1.655   5.853   9.171 -1.5608 -0.1840  0.3395
  103OSM   C14S10434   1.525   5.671   9.136  0.1719 -0.6688 -0.5146
  103OSM   H14S10435   1.476   5.715   9.046 -0.9923 -0.7347  0.0610
  103OSM   H14T10436   1.474   5.720   9.221  0.2227 -1.2320 -0.1566
  103OSM   C15S10437   1.529   5.518   9.142  0.2381 -0.2562  0.2342
  103OSM   H15S10438   1.548   5.489   9.247  0.9811  2.6664  0.9941
  103OSM   H15T10439   1.618   5.479   9.087  0.8553  0.7390  0.5027
  103OSM   C16S10440   1.400   5.463   9.076 -0.2353  0.9418 -0.4005
  103OSM   H16S10441   1.403   5.502   8.972  2.5197 -0.4339 -0.9382
  103OSM   H16T10442   1.309   5.506   9.122 -0.8710  1.2703 -1.8927
  103OSM   C17S10443   1.390   5.308   9.072  0.0332  0.3814  0.3924
  103OSM   H17S10444   1.485   5.262   9.039  0.5833  1.2974  0.6768
  103OSM   H17T10445   1.322   5.270   8.993  0.5695 -0.2405  0.2268
  103OSM   C18S10446   1.333   5.265   9.208  0.1386  0.0164 -0.3025
  103OSM   H18S10447   1.230   5.305   9.223  0.2109  0.4832 -1.0115
  103OSM   H18T10448   1.395   5.295   9.294  0.0821 -1.9778  0.4743
  103OSM   H18U10449   1.333   5.156   9.228 -2.8828 -0.1345 -0.5343
  103OSM    C1F10450   1.617   6.024  10.140 -0.6842 -0.5723 -1.0288
  103OSM     OF10451   1.654   6.139  10.166 -0.6039 -0.5718  0.4421
  103OSM    C2F10452   1.492   6.001  10.061 -0.1844 -0.8919  0.7231
  103OSM    H2F10453   1.402   6.026  10.122  0.5766 -0.7128  1.8192
  103OSM    H2G10454   1.477   5.893  10.041 -0.6107 -1.1028  2.0356
  103OSM    C3F10455   1.491   6.093   9.936 -0.4190 -0.5754 -0.5964
  103OSM    H3F10456   1.588   6.069   9.886  0.2618 -0.9694  0.8489
  103OSM    H3G10457   1.492   6.203   9.952 -3.3561 -0.3703 -1.3314
  103OSM    C4F10458   1.396   6.049   9.824  0.1429  1.0690  0.1597
  103OSM    H4F10459   1.398   6.132   9.750  0.2967 -0.7807 -2.0408
  103OSM    H4G10460   1.292   6.037   9.862 -0.5926  0.9082 -1.7671
  103OSM    C5F10461   1.441   5.925   9.742  0.4799 -0.0286  0.4345
  103OSM    H5F10462   1.465   5.835   9.802 -4.9220 -1.2869  1.2805
  103OSM    H5G10463   1.541   5.950   9.701 -0.1760  2.5024  0.2356
  103OSM    C6F10464   1.346   5.894   9.620 -0.3176 -0.1840 -0.5698
  103OSM    H6F10465   1.248   5.862   9.660  0.4006 -0.6639  0.8450
  103OSM    H6G10466   1.393   5.812   9.562 -0.5311  0.4510 -1.6765
  103OSM    C7F10467   1.325   6.015   9.534  0.1088  0.0261  0.2462
  103OSM    H7F10468   1.417   6.077   9.539  0.3346 -0.2289 -0.6378
  103OSM    H7G10469   1.244   6.076   9.580  1.8741  3.0887 -0.4493
  103OSM    C8F10470   1.299   5.984   9.391  0.6965  0.1475  0.9020
  103OSM    H8F10471   1.197   5.943   9.375  1.0304 -0.8379  1.2067
  103OSM    H8G10472   1.365   5.897   9.369  0.6770  0.3320  0.0834
  103OSM    C9F10473   1.337   6.097   9.291 -0.0800 -0.0895 -0.4968
  103OSM    H9F10474   1.434   6.143   9.316 -0.2753 -0.8824  1.9318
  103OSM   C10F10475   1.265   6.145   9.188  0.0912  0.6482  0.0210
  103OSM   H10F10476   1.327   6.211   9.126  1.1770 -0.0312  0.3433
  103OSM   C11F10477   1.134   6.103   9.143 -0.0172  0.5672  0.9918
  103OSM   H11F10478   1.086   6.194   9.100  2.9020  1.2096 -1.2464
  103OSM   H11G10479   1.079   6.068   9.234  3.2166 -2.3658  2.0273
  103OSM   C12F10480   1.141   5.985   9.052 -0.2884  0.8566  0.1182
  103OSM   H12F10481   1.041   5.948   9.020  0.5159  0.4447 -2.0539
  103OSM   H12G10482   1.185   5.906   9.116  0.5677  2.4363  1.5770
  103OSM   C13F10483   1.210   6.001   8.918 -0.2924  0.5442  0.2787
  103OSM   H13F10484   1.320   6.014   8.929 -0.7096  2.7589  3.4217
  103OSM   H13G10485   1.178   6.093   8.864  0.1312 -0.0153 -0.9487
  103OSM   C14F10486   1.175   5.884   8.829 -0.7438 -0.8905  0.6472
  103OSM   H14F10487   1.175   5.927   8.727 -0.7966 -2.6378 -0.1260
  103OSM   H14G10488   1.069   5.854   8.845 -1.0629 -0.2275 -0.1418
  103OSM   C15F10489   1.277   5.764   8.823  0.1108  0.3797  0.5413
  103OSM   H15F10490   1.226   5.668   8.800 -0.6817  1.5656 -3.4497
  103OSM   H15G10491   1.333   5.760   8.919 -0.8250 -0.8088  1.0689
  103OSM   C16F10492   1.378   5.773   8.708 -0.6421  0.1961  1.0801
  103OSM   H16F10493   1.439   5.865   8.721  1.2112 -0.6945 -0.8109
  103OSM   H16G10494   1.335   5.783   8.606  3.8340 -0.4409 -1.1003
  103OSM   C17F10495   1.472   5.651   8.718 -0.2009 -0.3014 -0.6313
  103OSM   H17F10496   1.498   5.656   8.826 -0.4805  2.4745 -0.6100
  103OSM   H17G10497   1.562   5.679   8.658 -0.5021  0.0071 -0.9444
  103OSM   C18F10498   1.418   5.514   8.677 -0.0993  0.6189 -0.8492
  103OSM   H18F10499   1.487   5.434   8.711  0.5180  1.7765  0.7620
  103OSM   H18G10500   1.430   5.516   8.567 -1.0563 -1.1632 -1.0315
  103OSM   H18H10501   1.312   5.500   8.706  0.8301 -1.1556  2.2225
  104OSM      N10502   4.199   0.270  10.825 -0.2705 -0.2544 -0.2287
  104OSM    C1510503   4.305   0.327  10.913 -0.0429 -0.3354  0.2395
  104OSM   H15A10504   4.348   0.258  10.984  1.1243 -0.4683 -0.5671
  104OSM   H15B10505   4.289   0.424  10.957  2.5732 -0.6590  2.1573
  104OSM   H15C10506   4.382   0.358  10.844 -0.0903 -0.7188  0.0098
  104OSM    C1410507   4.246   0.151  10.757  0.2250 -0.0668  0.7044
  104OSM   H14A10508   4.321   0.187  10.688 -0.4840 -0.0672 -0.0978
  104OSM   H14B10509   4.169   0.106  10.695  0.8099  1.3154 -1.1313
  104OSM   H14C10510   4.281   0.071  10.819  1.0687 -0.6542 -0.4958
  104OSM    C1310511   4.087   0.221  10.912 -0.0100 -0.3097 -0.4679
  104OSM   H13A10512   4.122   0.186  11.008 -1.3902 -2.6595 -0.7448
  104OSM   H13B10513   4.033   0.138  10.868  0.4568 -0.5665 -0.5719
  104OSM   H13C10514   4.020   0.305  10.926 -0.3047 -0.6988  0.5095
  104OSM    C1210515   4.148   0.377  10.723  0.0984  0.5710 -0.6089
  104OSM   H12A10516   4.094   0.451  10.780  0.7961 -0.1822  1.0911
  104OSM   H12B10517   4.082   0.325  10.655  0.5272  0.1169 -0.6900
  104OSM    C1110518   4.260   0.462  10.647  0.5614 -0.1085 -0.0302
  104OSM   H11A10519   4.211   0.515  10.562 -0.2476 -2.3825 -1.0728
  104OSM   H11B10520   4.331   0.388  10.603 -0.3568 -1.0708  0.0752
  104OSM      P10521   4.253   0.682  10.781  0.3008 -0.0359 -0.0530
  104OSM    O1310522   4.140   0.647  10.874 -0.2112  0.3184 -0.5094
  104OSM    O1410523   4.350   0.779  10.837  0.1079  0.6195  0.1003
  104OSM    O1110524   4.200   0.747  10.642 -0.0250  0.1620 -0.4343
  104OSM    O1210525   4.325   0.550  10.733 -1.0601 -0.4563  0.1636
  104OSM    C1S10526   4.300   0.779  10.549 -0.3436 -0.0741  0.2160
  104OSM    H1S10527   4.363   0.689  10.537  3.3700  1.9328  2.6711
  104OSM    H1T10528   4.377   0.854  10.576  2.2766 -2.3414 -0.5609
  104OSM     NF10529   4.329   0.820  10.301  0.5133 -0.0446 -0.5110
  104OSM    HNF10530   4.363   0.913  10.289 -2.9270  1.4843  0.3284
  104OSM    C2S10531   4.234   0.816  10.414 -0.4201  0.4416 -1.3276
  104OSM    H2S10532   4.166   0.731  10.397  2.4774 -2.4671  0.4933
  104OSM    C3S10533   4.155   0.946  10.425 -0.2487  0.0473 -0.0824
  104OSM    H3S10534   4.221   1.032  10.452 -1.4976  0.6958  1.0286
  104OSM     O310535   4.060   0.950  10.534 -0.1354  0.1676 -0.3635
  104OSM    HO310536   4.094   0.879  10.589  0.1393 -1.7194 -2.8274
  104OSM    C4S10537   4.093   0.982  10.291  0.2078 -0.0550 -0.0022
  104OSM    H4S10538   4.158   1.035  10.220 -0.7261  1.1935  0.0390
  104OSM    C5S10539   3.971   0.957  10.250 -0.4373  0.4470 -0.4346
  104OSM    H5S10540   3.906   0.897  10.316  0.2168  1.0961  0.8566
  104OSM    C6S10541   3.913   0.997  10.115 -0.1438  0.1274 -0.1852
  104OSM    H6S10542   3.833   1.073  10.128 -1.6743 -0.9271 -2.8057
  104OSM    H6T10543   3.858   0.914  10.066  0.2230 -0.3262  0.1545
  104OSM    C7S10544   4.007   1.073  10.024 -0.0962  0.3392 -0.0564
  104OSM    H7S10545   4.101   1.020   9.995  0.5965  2.7130 -2.5072
  104OSM    H7T10546   4.048   1.164  10.071 -2.5976  0.8666  1.2712
  104OSM    C8S10547   3.950   1.114   9.885 -0.3595 -0.1081 -0.4919
  104OSM    H8S10548   3.991   1.213   9.855  2.3150 -0.8885  0.3217
  104OSM    H8T10549   3.841   1.132   9.898 -0.1361  1.8642 -0.9995
  104OSM    C9S10550   3.974   1.024   9.760  0.3442 -0.5742  0.3490
  104OSM    H9S10551   3.959   0.924   9.804  0.5975  0.0968  2.0249
  104OSM    H9T10552   4.079   1.022   9.724  0.2812  1.9221 -0.2172
  104OSM   C10S10553   3.879   1.062   9.646  0.3951 -0.2752 -0.0666
  104OSM   H10S10554   3.879   1.170   9.620 -1.5700  0.0310  1.0224
  104OSM   H10T10555   3.772   1.042   9.671 -0.2990  3.4049  0.4995
  104OSM   C11S10556   3.918   0.986   9.515  0.8893  0.1489  0.2353
  104OSM   H11S10557   3.940   0.880   9.540 -1.7064 -1.0449 -2.0822
  104OSM   H11T10558   4.013   1.022   9.469  1.8306 -2.6985 -0.2474
  104OSM   C12S10559   3.815   0.981   9.405  0.2503  0.1172  0.0845
  104OSM   H12S10560   3.787   1.083   9.370 -2.6921  0.3703  2.6905
  104OSM   H12T10561   3.716   0.937   9.430  0.3030 -1.5074 -2.2059
  104OSM   C13S10562   3.877   0.909   9.287  0.4927  0.3362  0.7768
  104OSM   H13S10563   3.900   0.801   9.293 -0.9880 -0.1026 -0.5950
  104OSM   H13T10564   3.973   0.962   9.271  0.9879 -1.1613 -1.5197
  104OSM   C14S10565   3.797   0.925   9.157 -0.6498  0.4814  0.8356
  104OSM   H14S10566   3.780   1.033   9.141 -0.0127  0.4919  0.1964
  104OSM   H14T10567   3.697   0.878   9.168  0.1740 -2.1158 -1.4556
  104OSM   C15S10568   3.864   0.856   9.031  0.4130  0.2850 -0.2172
  104OSM   H15S10569   3.797   0.774   8.997  0.4127  0.3462 -0.3651
  104OSM   H15T10570   3.968   0.823   9.052  0.2364  0.8561  1.8197
  104OSM   C16S10571   3.863   0.951   8.908  0.5284 -0.1316 -0.2081
  104OSM   H16S10572   3.929   1.040   8.919 -0.9042  1.1405 -1.5618
  104OSM   H16T10573   3.761   0.993   8.896  0.2267 -0.4269  1.1573
  104OSM   C17S10574   3.910   0.882   8.778  0.3802  0.3835 -0.1208
  104OSM   H17S10575   4.007   0.830   8.790  0.5707  0.7754  0.0635
  104OSM   H17T10576   3.916   0.967   8.707 -0.5886  0.0196 -0.6575
  104OSM   C18S10577   3.809   0.788   8.714  0.1934  0.9919 -0.2491
  104OSM   H18S10578   3.781   0.712   8.790 -0.8588  0.4988 -1.1220
  104OSM   H18T10579   3.851   0.732   8.628 -0.9934  0.3438 -0.4235
  104OSM   H18U10580   3.719   0.845   8.685 -0.4752  0.0970  0.0189
  104OSM    C1F10581   4.409   0.718  10.258  0.2529  1.2181 -0.2608
  104OSM     OF10582   4.376   0.593  10.262  0.3201 -0.0513 -0.2299
  104OSM    C2F10583   4.552   0.749  10.224  0.3416 -0.7667 -0.1617
  104OSM    H2F10584   4.610   0.657  10.200  1.3081 -0.0974 -0.4552
  104OSM    H2G10585   4.600   0.808  10.304 -0.7010  0.5654 -0.4748
  104OSM    C3F10586   4.550   0.854  10.107  0.0283  0.0860  0.7810
  104OSM    H3F10587   4.656   0.878  10.084 -0.1580  0.3376  0.1404
  104OSM    H3G10588   4.499   0.949  10.137 -0.3668  0.0197  0.3382
  104OSM    C4F10589   4.483   0.803   9.978  0.7810  0.5625  0.5551
  104OSM    H4F10590   4.384   0.758   9.999  1.3911 -1.2263 -0.1600
  104OSM    H4G10591   4.547   0.724   9.933 -1.3632 -0.8412 -0.2090
  104OSM    C5F10592   4.468   0.899   9.864 -0.0302 -0.0618 -0.1768
  104OSM    H5F10593   4.567   0.948   9.852  0.2844 -0.5197  0.4985
  104OSM    H5G10594   4.408   0.987   9.897  1.1979  0.5752  0.4377
  104OSM    C6F10595   4.411   0.831   9.730  0.1577 -0.6083  0.1029
  104OSM    H6F10596   4.481   0.753   9.693 -0.6871 -0.9756 -0.7642
  104OSM    H6G10597   4.402   0.912   9.654 -0.4363  1.5622  2.3277
  104OSM    C7F10598   4.271   0.782   9.755 -0.0875  0.0072 -0.7274
  104OSM    H7F10599   4.208   0.867   9.789  0.3951  0.2700 -0.4912
  104OSM    H7G10600   4.253   0.710   9.837 -2.2011  0.7886 -0.4364
  104OSM    C8F10601   4.208   0.735   9.621  0.0371 -0.7532  0.1084
  104OSM    H8F10602   4.222   0.819   9.550  2.2843 -0.8741  0.3508
  104OSM    H8G10603   4.098   0.722   9.635 -0.0236 -0.0592  0.3075
  104OSM    C9F10604   4.267   0.608   9.569 -0.1843  0.0623  0.0269
  104OSM    H9F10605   4.373   0.594   9.593 -0.1658 -0.1330 -0.1592
  104OSM   C10F10606   4.202   0.515   9.498  0.8279 -0.6040 -0.3664
  104OSM   H10F10607   4.267   0.441   9.450  0.0996 -1.1809 -0.4932
  104OSM   C11F10608   4.054   0.533   9.454  0.3327 -0.1779  0.0831
  104OSM   H11F10609   4.041   0.643   9.449  2.4809  0.0970 -0.4000
  104OSM   H11G10610   3.981   0.508   9.534  1.7887  2.1000  2.2946
  104OSM   C12F10611   4.021   0.487   9.314 -0.6143 -0.2565 -0.9553
  104OSM   H12F10612   3.912   0.509   9.306 -0.5128  0.1481 -1.2174
  104OSM   H12G10613   4.041   0.379   9.297 -1.3572 -0.5576 -0.0544
  104OSM   C13F10614   4.095   0.571   9.209 -0.1668  0.0154  0.3905
  104OSM   H13F10615   4.203   0.549   9.227 -0.4267 -0.5211  1.3856
  104OSM   H13G10616   4.078   0.680   9.214 -3.9376 -0.5183  2.6214
  104OSM   C14F10617   4.063   0.522   9.063 -0.4233 -1.1487 -0.7519
  104OSM   H14F10618   3.957   0.539   9.035 -0.3730 -1.6657 -1.2700
  104OSM   H14G10619   4.077   0.412   9.055  1.4421 -0.8859 -1.5620
  104OSM   C15F10620   4.166   0.585   8.968 -0.1920  0.2060  0.2818
  104OSM   H15F10621   4.265   0.538   8.985 -0.7566 -1.0479  0.2010
  104OSM   H15G10622   4.162   0.696   8.981  0.0430  0.6470 -2.6698
  104OSM   C16F10623   4.145   0.550   8.819  0.1447  1.0809  0.1927
  104OSM   H16F10624   4.046   0.595   8.798 -1.1056 -1.9847 -1.0550
  104OSM   H16G10625   4.148   0.441   8.799  2.5306  1.1613 -0.1567
  104OSM   C17F10626   4.246   0.619   8.726  0.0234 -0.2264 -0.5902
  104OSM   H17F10627   4.265   0.721   8.767  2.5117  0.1204 -2.4354
  104OSM   H17G10628   4.196   0.644   8.630  0.1470  0.9429 -0.3629
  104OSM   C18F10629   4.383   0.538   8.715 -0.2621 -0.2169  0.2238
  104OSM   H18F10630   4.422   0.532   8.819  1.6878 -0.0747 -0.4618
  104OSM   H18G10631   4.458   0.595   8.656  0.9351 -1.3743  0.5771
  104OSM   H18H10632   4.363   0.437   8.675 -2.0960 -0.0544  0.6439
  105OSM      N10633   6.060   2.644  11.223  0.5862 -0.1592 -0.1554
  105OSM    C1510634   6.064   2.696  11.367  0.3507 -0.0493  0.2037
  105OSM   H15A10635   5.967   2.719  11.409 -0.0093  0.5588 -0.9027
  105OSM   H15B10636   6.126   2.784  11.373 -0.2210  0.2932  1.2701
  105OSM   H15C10637   6.110   2.617  11.424 -1.8372 -2.6361 -1.3174
  105OSM    C1410638   6.201   2.613  11.180 -0.3085  0.3953  0.2529
  105OSM   H14A10639   6.269   2.696  11.194  0.7702  0.1880 -3.0361
  105OSM   H14B10640   6.215   2.588  11.076  0.7838 -2.0139  0.8941
  105OSM   H14C10641   6.245   2.532  11.236 -0.0664  0.4148  0.0916
  105OSM    C1310642   5.977   2.523  11.226 -0.5060 -0.1715  0.6148
  105OSM   H13A10643   5.997   2.478  11.323  1.6701  2.1036  1.3343
  105OSM   H13B10644   5.997   2.464  11.139  0.5195  2.4108 -1.0211
  105OSM   H13C10645   5.873   2.553  11.225 -0.2591  0.7141 -0.1312
  105OSM    C1210646   5.998   2.749  11.120 -0.0651  0.2404  0.0287
  105OSM   H12A10647   6.058   2.838  11.115  0.9419 -0.3419  1.3037
  105OSM   H12B10648   5.896   2.771  11.150  0.4931  0.0648  2.2648
  105OSM    C1110649   5.983   2.706  10.967  0.6268  0.7561  0.6380
  105OSM   H11A10650   5.928   2.791  10.921  0.2130  0.4324  0.5289
  105OSM   H11B10651   5.915   2.618  10.965  0.1589  1.0575  1.8989
  105OSM      P10652   6.203   2.786  10.866 -0.4790  0.0928  0.6093
  105OSM    O1310653   6.158   2.922  10.905  0.1197  0.0184 -0.0281
  105OSM    O1410654   6.340   2.749  10.912  0.8765  0.4525 -0.4292
  105OSM    O1110655   6.197   2.784  10.702  0.0011  0.4963 -0.2796
  105OSM    O1210656   6.103   2.671  10.908  0.2714 -0.0615  0.1274
  105OSM    C1S10657   6.075   2.765  10.625  0.0111  0.9090  0.2946
  105OSM    H1S10658   6.049   2.868  10.590 -0.7980  0.3809 -0.7262
  105OSM    H1T10659   5.999   2.717  10.689  0.7627  0.9709  1.2664
  105OSM     NF10660   5.968   2.648  10.443  0.1074  0.6384 -0.3898
  105OSM    HNF10661   5.926   2.560  10.467 -0.7316  0.1591 -3.2248
  105OSM    C2S10662   6.099   2.677  10.497 -0.4519  0.9079 -0.0133
  105OSM    H2S10663   6.149   2.751  10.431 -2.9086  1.9932 -0.7678
  105OSM    C3S10664   6.191   2.551  10.521  0.3148  0.1733  0.3780
  105OSM    H3S10665   6.143   2.477  10.589 -0.3737 -0.8088 -1.1205
  105OSM     O310666   6.319   2.573  10.585  0.2385 -0.0404  0.4699
  105OSM    HO310667   6.317   2.656  10.632  3.1594  0.4505 -0.0722
  105OSM    C4S10668   6.210   2.470  10.391  0.2052  0.0700  0.3465
  105OSM    H4S10669   6.137   2.388  10.397 -0.2086  0.5270  1.9999
  105OSM    C5S10670   6.303   2.488  10.291 -0.2504  0.2206 -0.0090
  105OSM    H5S10671   6.384   2.562  10.302  0.3783 -0.4246 -0.2013
  105OSM    C6S10672   6.318   2.405  10.160 -0.5339  0.2432 -0.6192
  105OSM    H6S10673   6.239   2.327  10.156  0.5409 -0.8881 -0.1795
  105OSM    H6T10674   6.414   2.352  10.179  0.0382  1.3628 -0.3068
  105OSM    C7S10675   6.315   2.482  10.033 -0.0608 -0.2163 -0.3549
  105OSM    H7S10676   6.376   2.574  10.033 -1.0638  0.4657 -0.0098
  105OSM    H7T10677   6.208   2.511  10.023 -0.8696 -2.6557  0.4139
  105OSM    C8S10678   6.362   2.398   9.912  0.3165  0.0064 -0.2414
  105OSM    H8S10679   6.295   2.309   9.910 -2.2320  1.6879  2.3340
  105OSM    H8T10680   6.467   2.362   9.918 -0.3885 -1.9046  2.1546
  105OSM    C9S10681   6.335   2.458   9.775  0.8033  0.0239 -0.0509
  105OSM    H9S10682   6.415   2.533   9.757  1.2392  0.2271  2.4526
  105OSM    H9T10683   6.245   2.523   9.774  2.2245  2.2928 -3.8924
  105OSM   C10S10684   6.330   2.351   9.657 -0.3388 -0.2127  0.0527
  105OSM   H10S10685   6.257   2.275   9.691 -1.2913  0.9550  0.7017
  105OSM   H10T10686   6.424   2.294   9.636 -0.0398 -0.4530  1.9005
  105OSM   C11S10687   6.296   2.431   9.525 -0.4120  0.7500 -0.4818
  105OSM   H11S10688   6.371   2.507   9.492 -0.1667  0.8313  0.2374
  105OSM   H11T10689   6.206   2.491   9.550 -1.5723 -1.8280  2.0861
  105OSM   C12S10690   6.260   2.338   9.412 -0.1775 -0.1956 -0.2073
  105OSM   H12S10691   6.196   2.391   9.338 -1.9029  2.0283  2.6383
  105OSM   H12T10692   6.203   2.257   9.462 -0.3250  0.9946  1.6316
  105OSM   C13S10693   6.380   2.281   9.331  0.3094 -0.4951  0.0242
  105OSM   H13S10694   6.457   2.240   9.400 -0.8263  0.9614  2.2774
  105OSM   H13T10695   6.425   2.367   9.278 -0.4062  1.3235  2.1877
  105OSM   C14S10696   6.341   2.171   9.229  0.8543  0.0606  0.8660
  105OSM   H14S10697   6.281   2.093   9.281 -0.5519 -1.3055 -2.4862
  105OSM   H14T10698   6.427   2.116   9.186 -0.0688  0.6695 -2.0016
  105OSM   C15S10699   6.251   2.224   9.114 -0.5548  0.0432  0.1399
  105OSM   H15S10700   6.162   2.266   9.165  0.1228  1.7680 -0.0379
  105OSM   H15T10701   6.200   2.140   9.061  0.2915 -1.4557  1.6140
  105OSM   C16S10702   6.336   2.303   9.011 -0.5472  0.5154 -0.4254
  105OSM   H16S10703   6.430   2.245   8.996  0.3541  1.1383  2.3413
  105OSM   H16T10704   6.374   2.403   9.042 -0.3111  0.8297 -1.6482
  105OSM   C17S10705   6.254   2.322   8.882 -0.0803  0.0735 -0.3825
  105OSM   H17S10706   6.155   2.355   8.921 -0.2112 -1.5294  0.6881
  105OSM   H17T10707   6.241   2.225   8.831  0.9958 -1.6839  2.4744
  105OSM   C18S10708   6.326   2.407   8.775  0.2692 -0.3007  0.3802
  105OSM   H18S10709   6.328   2.516   8.798 -0.0298 -0.3944  0.8613
  105OSM   H18T10710   6.270   2.395   8.679 -0.6582  2.2258  0.5312
  105OSM   H18U10711   6.429   2.370   8.758 -0.6571 -2.9313 -0.0092
  105OSM    C1F10712   5.887   2.734  10.377  0.0518  0.5767 -0.1377
  105OSM     OF10713   5.925   2.839  10.331  0.3096 -0.0633  0.7571
  105OSM    C2F10714   5.742   2.692  10.380  0.6798 -0.2902 -1.2295
  105OSM    H2F10715   5.680   2.774  10.421 -0.1947 -1.9752  1.0006
  105OSM    H2G10716   5.725   2.596  10.433 -1.9968  1.1733  0.8132
  105OSM    C3F10717   5.699   2.684  10.233  0.1954 -0.4970 -0.1057
  105OSM    H3F10718   5.733   2.775  10.178  0.0716 -0.7002 -0.5223
  105OSM    H3G10719   5.589   2.695  10.245  0.2966 -0.4776  0.8307
  105OSM    C4F10720   5.725   2.548  10.161  0.0092  0.2089 -0.0609
  105OSM    H4F10721   5.659   2.528  10.074  0.4597  0.4505 -0.4697
  105OSM    H4G10722   5.696   2.472  10.236 -1.6661  2.5165  1.7587
  105OSM    C5F10723   5.869   2.521  10.116  0.2025  0.2304  0.0690
  105OSM    H5F10724   5.913   2.473  10.206 -0.1811  0.4512  0.3783
  105OSM    H5G10725   5.914   2.620  10.091 -0.3753  0.3114 -0.6893
  105OSM    C6F10726   5.891   2.426   9.991 -0.1188 -0.0226  0.1494
  105OSM    H6F10727   5.869   2.323  10.025 -2.5190  0.2138 -0.5093
  105OSM    H6G10728   6.000   2.440   9.971  0.2881  0.3331  2.3786
  105OSM    C7F10729   5.815   2.477   9.861 -0.1484  0.6675 -0.2194
  105OSM    H7F10730   5.805   2.587   9.877  0.7857  0.5256  1.5326
  105OSM    H7G10731   5.714   2.431   9.863  0.8996 -1.9502 -2.1022
  105OSM    C8F10732   5.887   2.445   9.728  0.3943  0.2312  0.1498
  105OSM    H8F10733   5.990   2.485   9.743 -0.0867  0.7705  2.3688
  105OSM    H8G10734   5.836   2.506   9.651 -1.7196 -1.0469  0.4555
  105OSM    C9F10735   5.882   2.300   9.707  0.5747 -0.1133  0.2200
  105OSM    H9F10736   5.891   2.236   9.796  1.1963 -1.5917 -0.8681
  105OSM   C10F10737   5.854   2.240   9.589  0.0364 -0.1258  0.6644
  105OSM   H10F10738   5.853   2.130   9.576  2.7746 -0.4684  2.4988
  105OSM   C11F10739   5.824   2.309   9.467  0.0678  0.4371  0.4362
  105OSM   H11F10740   5.865   2.412   9.472  0.2713  0.2928  3.2444
  105OSM   H11G10741   5.714   2.315   9.455 -0.3997 -3.6444  1.0822
  105OSM   C12F10742   5.884   2.230   9.333 -0.1558 -0.0457  0.1679
  105OSM   H12F10743   5.864   2.121   9.337  0.5137 -0.1398  1.4867
  105OSM   H12G10744   5.992   2.255   9.331 -0.2505  0.3951 -1.3498
  105OSM   C13F10745   5.820   2.290   9.202  0.3115  0.1854 -0.1604
  105OSM   H13F10746   5.817   2.401   9.204  0.6150  0.1919 -0.1317
  105OSM   H13G10747   5.714   2.256   9.204  0.5832 -0.6863  0.3716
  105OSM   C14F10748   5.862   2.246   9.066 -0.5634 -0.7557 -0.0883
  105OSM   H14F10749   5.961   2.290   9.039 -1.5899  1.9087  0.2240
  105OSM   H14G10750   5.793   2.284   8.989  1.3346  1.0517 -0.9852
  105OSM   C15F10751   5.867   2.090   9.056  0.0891 -0.2099  0.5328
  105OSM   H15F10752   5.766   2.059   9.090 -0.2248  0.7246  0.4582
  105OSM   H15G10753   5.940   2.045   9.127 -1.2768  0.7852  2.6704
  105OSM   C16F10754   5.916   2.050   8.913  0.3721 -0.5902 -0.1306
  105OSM   H16F10755   5.959   1.948   8.920  2.1615  0.1623  0.2213
  105OSM   H16G10756   5.997   2.112   8.869  0.9920 -1.8312 -0.7952
  105OSM   C17F10757   5.789   2.038   8.823  0.3224 -0.0661 -0.4877
  105OSM   H17F10758   5.722   2.122   8.852 -1.7025 -2.3727  1.9642
  105OSM   H17G10759   5.730   1.952   8.861  1.8472 -0.5056  1.0130
  105OSM   C18F10760   5.817   2.037   8.676  0.1610  0.8454  0.2261
  105OSM   H18F10761   5.724   2.039   8.615 -0.5781  1.1144  1.3312
  105OSM   H18G10762   5.883   1.950   8.655  1.6512  1.4854  1.9758
  105OSM   H18H10763   5.873   2.126   8.640  0.7578  0.2941 -0.2469
  106OSM      N10764   4.589   2.148  10.847  0.1517  0.3631 -0.1631
  106OSM    C1510765   4.458   2.079  10.810 -0.3569  0.9239 -0.4614
  106OSM   H15A10766   4.445   1.994  10.875  1.0088  0.7580 -0.3587
  106OSM   H15B10767   4.468   2.034  10.712  0.0186  1.6094 -0.7410
  106OSM   H15C10768   4.367   2.134  10.793 -1.7550 -0.8646  0.8414
  106OSM    C1410769   4.586   2.223  10.975 -0.1624  0.8892  0.3064
  106OSM   H14A10770   4.687   2.254  10.999 -0.2094 -0.0210  1.8457
  106OSM   H14B10771   4.547   2.172  11.062 -2.0019  0.8617 -0.4933
  106OSM   H14C10772   4.528   2.314  10.965 -0.9503  0.2065 -2.0128
  106OSM    C1310773   4.691   2.038  10.860 -0.1009 -0.3861  0.3748
  106OSM   H13A10774   4.708   2.005  10.962  1.3079 -2.6798 -0.5429
  106OSM   H13B10775   4.785   2.074  10.821 -0.6494 -0.1564 -0.7667
  106OSM   H13C10776   4.650   1.961  10.797  0.6281  0.2296 -0.9020
  106OSM    C1210777   4.627   2.235  10.727 -0.8884 -0.1770 -0.3298
  106OSM   H12A10778   4.643   2.178  10.637 -1.3752 -0.3465 -0.3118
  106OSM   H12B10779   4.728   2.265  10.752 -1.0451 -0.0988  0.2251
  106OSM    C1110780   4.543   2.357  10.692 -0.0836 -0.2529 -0.2289
  106OSM   H11A10781   4.436   2.329  10.691 -0.4272  0.6760  2.8139
  106OSM   H11B10782   4.563   2.387  10.586  2.2970  0.4091  0.3438
  106OSM      P10783   4.702   2.531  10.797  0.3805  0.0888  0.1636
  106OSM    O1310784   4.691   2.649  10.884  1.0691  0.1105  0.0506
  106OSM    O1410785   4.799   2.427  10.835 -0.0031  0.2637  0.1149
  106OSM    O1110786   4.727   2.584  10.652 -0.3773  0.2334  0.3376
  106OSM    O1210787   4.558   2.473  10.773  0.5733  0.7748 -0.0413
  106OSM    C1S10788   4.641   2.672  10.576 -0.4078 -0.4083  0.2838
  106OSM    H1S10789   4.647   2.777  10.611 -2.0055 -0.3622  0.5108
  106OSM    H1T10790   4.538   2.630  10.581 -0.1776 -0.9661  0.4469
  106OSM     NF10791   4.591   2.775  10.342  0.7179 -0.5900 -0.4895
  106OSM    HNF10792   4.527   2.734  10.278 -1.4347 -1.3558  1.9640
  106OSM    C2S10793   4.672   2.687  10.420 -0.1374  0.2214 -0.1895
  106OSM    H2S10794   4.776   2.725  10.410 -0.8327  2.1470 -0.5822
  106OSM    C3S10795   4.683   2.543  10.351 -0.3279 -0.0919 -0.6905
  106OSM    H3S10796   4.580   2.503  10.347 -1.1601  1.7048  1.1254
  106OSM     O310797   4.774   2.454  10.421  0.1129  0.5486  0.4407
  106OSM    HO310798   4.804   2.497  10.502  0.4890 -0.7635  1.0196
  106OSM    C4S10799   4.730   2.565  10.206  0.2617  0.5926 -0.0393
  106OSM    H4S10800   4.645   2.572  10.136 -0.7388 -0.6508  1.0192
  106OSM    C5S10801   4.855   2.562  10.154 -0.0564 -0.5612 -0.1322
  106OSM    H5S10802   4.939   2.551  10.225  1.6175 -0.6652 -2.0530
  106OSM    C6S10803   4.895   2.585  10.012 -0.8722 -0.2461 -0.0256
  106OSM    H6S10804   4.956   2.503   9.968 -0.5520  0.5334 -1.0764
  106OSM    H6T10805   4.958   2.676  10.004 -2.0075  0.7758  2.0232
  106OSM    C7S10806   4.782   2.608   9.903 -0.4388 -0.8797 -0.1498
  106OSM    H7S10807   4.733   2.707   9.911  1.4441  0.0123  1.0734
  106OSM    H7T10808   4.711   2.523   9.894 -1.1091 -0.2727 -0.8666
  106OSM    C8S10809   4.854   2.627   9.767  0.8835  0.1548 -0.0460
  106OSM    H8S10810   4.892   2.526   9.741 -3.7608 -1.1699 -2.5941
  106OSM    H8T10811   4.935   2.701   9.790  1.1753 -0.9079  2.7850
  106OSM    C9S10812   4.767   2.670   9.645  0.0506 -0.7947 -0.1006
  106OSM    H9S10813   4.703   2.759   9.667  1.0692 -0.1939  0.5304
  106OSM    H9T10814   4.704   2.583   9.620  0.2230 -0.5318 -1.5273
  106OSM   C10S10815   4.846   2.681   9.509 -0.1647  0.4209 -0.0563
  106OSM   H10S10816   4.890   2.783   9.513 -1.2204  0.9674 -1.4260
  106OSM   H10T10817   4.777   2.677   9.422  0.5526  2.5157 -0.7967
  106OSM   C11S10818   4.953   2.574   9.490 -0.4180  0.6550  0.8841
  106OSM   H11S10819   4.908   2.474   9.508 -3.3065  1.7790  0.3391
  106OSM   H11T10820   5.044   2.597   9.550 -0.4016 -0.6189  1.3738
  106OSM   C12S10821   4.998   2.569   9.340  0.1887 -0.6798  0.0523
  106OSM   H12S10822   5.059   2.660   9.325 -1.7305  0.6938  0.1720
  106OSM   H12T10823   4.907   2.592   9.280  1.1365  2.4925 -0.3355
  106OSM   C13S10824   5.071   2.441   9.293  0.2214 -1.0945  0.3501
  106OSM   H13S10825   5.012   2.347   9.303 -1.9292  0.2386  0.8901
  106OSM   H13T10826   5.168   2.426   9.345 -0.7795 -0.6802  2.4509
  106OSM   C14S10827   5.103   2.463   9.148 -0.3720  0.1074  0.2893
  106OSM   H14S10828   5.166   2.553   9.136 -2.0956  1.7905  2.7845
  106OSM   H14T10829   5.014   2.476   9.082  1.7976 -1.0621 -3.1127
  106OSM   C15S10830   5.192   2.357   9.093 -0.3329  0.6354  0.4583
  106OSM   H15S10831   5.150   2.255   9.080  0.3300  0.4517 -0.2870
  106OSM   H15T10832   5.287   2.347   9.149  0.4120 -2.6447 -1.1618
  106OSM   C16S10833   5.243   2.400   8.954  0.9524 -0.5938 -0.0052
  106OSM   H16S10834   5.278   2.505   8.963  0.1374 -0.3127 -0.1067
  106OSM   H16T10835   5.154   2.412   8.890  1.4834  0.8648 -0.5172
  106OSM   C17S10836   5.343   2.309   8.889 -0.1397 -0.1163  0.1642
  106OSM   H17S10837   5.288   2.214   8.868 -0.6335  0.4383 -1.1799
  106OSM   H17T10838   5.425   2.285   8.960 -0.5545  1.0265  1.0659
  106OSM   C18S10839   5.407   2.363   8.759  0.5059 -0.4343 -0.9097
  106OSM   H18S10840   5.319   2.391   8.698 -0.0562  2.3436  0.9666
  106OSM   H18T10841   5.454   2.290   8.690 -0.0391  0.5774 -2.4012
  106OSM   H18U10842   5.468   2.455   8.774  0.7482 -0.6623 -0.4762
  106OSM    C1F10843   4.576   2.904  10.381  0.1302 -0.1550  0.4378
  106OSM     OF10844   4.643   2.958  10.468  0.4277  0.6823  0.1972
  106OSM    C2F10845   4.466   2.980  10.319 -0.2709  0.3527 -0.5795
  106OSM    H2F10846   4.492   3.087  10.303 -0.6495  0.2464 -2.0700
  106OSM    H2G10847   4.384   2.980  10.395  1.9384  2.3886  2.0073
  106OSM    C3F10848   4.395   2.928  10.188 -0.0278 -0.2190 -0.4265
  106OSM    H3F10849   4.302   2.986  10.174 -1.2613 -1.2295  2.6065
  106OSM    H3G10850   4.362   2.825  10.216  1.2386 -0.4517  0.2899
  106OSM    C4F10851   4.471   2.925  10.049 -0.0110 -0.1574  0.1744
  106OSM    H4F10852   4.574   2.886  10.065  0.2037  0.5330  0.5418
  106OSM    H4G10853   4.471   3.031  10.013 -1.2775  0.7695  2.6761
  106OSM    C5F10854   4.403   2.845   9.937 -0.0342 -0.4238  0.1801
  106OSM    H5F10855   4.296   2.874   9.929 -0.7083 -2.8864 -0.7419
  106OSM    H5G10856   4.407   2.735   9.954  0.0919 -0.2556  1.3690
  106OSM    C6F10857   4.446   2.874   9.789 -0.3553  1.0924  0.1471
  106OSM    H6F10858   4.550   2.835   9.792  0.3019  2.7764  0.8363
  106OSM    H6G10859   4.458   2.983   9.768  1.2497  0.5488 -2.1437
  106OSM    C7F10860   4.360   2.809   9.683  0.3436 -0.2680 -0.1701
  106OSM    H7F10861   4.255   2.846   9.689  0.4415 -0.0007 -0.1154
  106OSM    H7G10862   4.361   2.700   9.707 -0.0720  0.0989  1.6723
  106OSM    C8F10863   4.408   2.802   9.538  0.1128  0.3924  0.4608
  106OSM    H8F10864   4.348   2.725   9.484  0.3122  0.6452 -0.1318
  106OSM    H8G10865   4.517   2.777   9.533 -0.2155 -0.9571 -0.9761
  106OSM    C9F10866   4.397   2.937   9.473  0.1824  0.2354 -0.2522
  106OSM    H9F10867   4.368   3.019   9.540  0.1106  1.1903 -1.4175
  106OSM   C10F10868   4.402   2.961   9.341 -0.8252  0.2273  0.6358
  106OSM   H10F10869   4.385   3.065   9.310 -0.0616  0.6709  1.6371
  106OSM   C11F10870   4.414   2.860   9.229  0.2647  0.0468 -0.5465
  106OSM   H11F10871   4.311   2.828   9.201  0.5663  0.0309 -1.6964
  106OSM   H11G10872   4.476   2.779   9.272  1.6943  1.7733  0.7951
  106OSM   C12F10873   4.481   2.917   9.098  0.4216 -1.0320  0.3253
  106OSM   H12F10874   4.497   2.834   9.026 -0.7382 -1.3663  0.4285
  106OSM   H12G10875   4.580   2.953   9.134  0.4172  0.6580 -1.2293
  106OSM   C13F10876   4.398   3.037   9.037  0.3099  0.3995 -0.3593
  106OSM   H13F10877   4.409   3.128   9.101  1.6528 -0.3320  0.4836
  106OSM   H13G10878   4.291   3.009   9.041 -0.0155  0.9794 -2.9096
  106OSM   C14F10879   4.421   3.076   8.891 -0.1971  0.4027  0.0581
  106OSM   H14F10880   4.528   3.105   8.886 -0.3171  2.1028  4.0009
  106OSM   H14G10881   4.351   3.162   8.879 -2.6969 -1.3726  1.0178
  106OSM   C15F10882   4.376   2.973   8.785 -0.0078 -0.2045 -0.0493
  106OSM   H15F10883   4.267   2.960   8.798 -0.0362 -0.3023 -0.3835
  106OSM   H15G10884   4.436   2.880   8.788  0.3603 -0.5286 -5.8885
  106OSM   C16F10885   4.395   3.024   8.644 -0.1993 -0.4328  0.6868
  106OSM   H16F10886   4.499   3.054   8.619 -1.3426  0.6206 -3.6178
  106OSM   H16G10887   4.328   3.112   8.632 -1.2384 -1.2917  0.0228
  106OSM   C17F10888   4.362   2.918   8.536  0.1599  0.1899  0.0478
  106OSM   H17F10889   4.329   2.973   8.445 -0.3966  0.0977  0.1857
  106OSM   H17G10890   4.281   2.858   8.584  0.7304 -2.1774 -1.7215
  106OSM   C18F10891   4.480   2.823   8.506  0.8768 -0.0802  0.4277
  106OSM   H18F10892   4.547   2.879   8.437  0.4460  0.1750  0.2124
  106OSM   H18G10893   4.442   2.737   8.448  0.7663  1.5759 -2.1310
  106OSM   H18H10894   4.519   2.787   8.603  0.4717  0.9410  0.9898
  107OSM      N10895   2.166   5.545  10.760 -0.0964  0.3348  0.5556
  107OSM    C1510896   2.287   5.509  10.844  0.0733 -0.5930 -0.0970
  107OSM   H15A10897   2.345   5.435  10.791  0.9137 -0.2728  0.3541
  107OSM   H15B10898   2.256   5.451  10.929 -2.1627  0.1654 -0.3303
  107OSM   H15C10899   2.346   5.596  10.869 -0.5652  0.8233 -3.0489
  107OSM    C1410900   2.059   5.593  10.848  0.0974 -0.2503  0.0946
  107OSM   H14A10901   1.974   5.624  10.790 -0.2652  3.0566  2.1022
  107OSM   H14B10902   2.093   5.679  10.905  0.8263 -0.1645 -0.4556
  107OSM   H14C10903   2.030   5.517  10.919 -0.4813 -0.0325  0.1006
  107OSM    C1310904   2.198   5.649  10.664 -0.8729  0.7798 -0.2872
  107OSM   H13A10905   2.110   5.663  10.603 -0.6390  3.1701 -0.1897
  107OSM   H13B10906   2.283   5.622  10.605 -0.2125  1.5432  0.2971
  107OSM   H13C10907   2.215   5.745  10.710 -2.8163  1.8794 -1.6830
  107OSM    C1210908   2.128   5.418  10.682 -0.5912  0.3282 -0.2877
  107OSM   H12A10909   2.218   5.382  10.635 -1.0143  1.4573 -2.0525
  107OSM   H12B10910   2.068   5.450  10.598  0.0893 -2.0003 -1.7727
  107OSM    C1110911   2.065   5.292  10.753  0.2759  0.2414  0.0497
  107OSM   H11A10912   2.028   5.217  10.681  1.0530 -0.6041  0.5060
  107OSM   H11B10913   1.971   5.321  10.804  0.0846 -1.7856  0.9208
  107OSM      P10914   2.267   5.138  10.836 -0.0327 -0.2027  0.0104
  107OSM    O1310915   2.386   5.231  10.845  0.1133  0.8857  0.0184
  107OSM    O1410916   2.262   5.026  10.934  0.0335 -0.3262  0.0272
  107OSM    O1110917   2.253   5.066  10.696  0.3235 -0.3654  0.5701
  107OSM    O1210918   2.143   5.236  10.858 -0.2522  0.0236 -0.3659
  107OSM    C1S10919   2.169   4.951  10.688 -0.1848  0.5904 -0.4262
  107OSM    H1S10920   2.060   4.973  10.686 -0.1011  1.0278 -0.3067
  107OSM    H1T10921   2.196   4.877  10.766 -1.1551 -0.7583 -1.3346
  107OSM     NF10922   2.116   4.764  10.531  0.0918 -0.2381  0.9458
  107OSM    HNF10923   2.151   4.671  10.522  0.6965 -0.0097  0.8960
  107OSM    C2S10924   2.201   4.881  10.546  0.5513 -0.4074  0.1399
  107OSM    H2S10925   2.155   4.961  10.484 -2.3033 -2.0390 -0.0129
  107OSM    C3S10926   2.352   4.858  10.517 -0.4512  0.4181 -0.9176
  107OSM    H3S10927   2.392   4.785  10.590 -2.0427  0.1871 -0.2221
  107OSM     O310928   2.441   4.967  10.542  0.3778 -0.2725  0.1819
  107OSM    HO310929   2.391   5.021  10.604  0.7656 -0.4668  0.6802
  107OSM    C4S10930   2.369   4.816  10.381 -0.6048  0.0979 -0.4224
  107OSM    H4S10931   2.339   4.899  10.316 -0.2426  0.2838 -0.3556
  107OSM    C5S10932   2.400   4.695  10.333  0.0346 -0.2155 -0.3443
  107OSM    H5S10933   2.399   4.607  10.400 -2.5295 -1.5226 -1.9464
  107OSM    C6S10934   2.399   4.668  10.186 -0.2683  0.0068  0.7747
  107OSM    H6S10935   2.298   4.626  10.167 -0.4747  0.4604  0.8510
  107OSM    H6T10936   2.481   4.595  10.168 -0.2561 -0.3315  2.0752
  107OSM    C7S10937   2.417   4.776  10.084  0.2218 -0.7025 -0.5456
  107OSM    H7S10938   2.524   4.806  10.084  0.0322  0.0812  1.3607
  107OSM    H7T10939   2.355   4.864  10.110 -1.0671 -2.1392  1.6596
  107OSM    C8S10940   2.390   4.729   9.942  0.0697  0.6766 -0.1815
  107OSM    H8S10941   2.292   4.677   9.940  0.4526 -0.0744  0.3118
  107OSM    H8T10942   2.470   4.656   9.919  1.0997  2.3388 -2.1367
  107OSM    C9S10943   2.396   4.836   9.836  0.2872 -0.2920 -0.0310
  107OSM    H9S10944   2.475   4.911   9.858 -0.5203  1.2144 -1.9554
  107OSM    H9T10945   2.302   4.896   9.841  0.6422  0.2016  1.5612
  107OSM   C10S10946   2.388   4.788   9.690 -0.7210 -0.1799  0.5071
  107OSM   H10S10947   2.299   4.725   9.668  0.5769 -1.4441 -1.4163
  107OSM   H10T10948   2.473   4.718   9.673 -0.8709 -0.6199  1.4677
  107OSM   C11S10949   2.401   4.906   9.583  0.0672 -0.7338 -0.1921
  107OSM   H11S10950   2.485   4.970   9.618  1.2545 -1.9196 -0.7681
  107OSM   H11T10951   2.319   4.981   9.584  1.4678  0.8506  0.6963
  107OSM   C12S10952   2.437   4.863   9.440 -0.3405 -0.7386  0.4867
  107OSM   H12S10953   2.350   4.809   9.399 -1.0178 -1.4059  2.6712
  107OSM   H12T10954   2.520   4.791   9.458 -0.7462 -1.8634 -1.8072
  107OSM   C13S10955   2.491   4.976   9.351  0.6819  0.8116  0.1100
  107OSM   H13S10956   2.567   5.034   9.408 -0.3119  4.0668 -1.6214
  107OSM   H13T10957   2.416   5.052   9.322 -0.0479 -0.0945 -0.4277
  107OSM   C14S10958   2.547   4.922   9.215  0.3076  0.7514 -0.5755
  107OSM   H14S10959   2.457   4.879   9.165  0.8866  1.2468 -2.1083
  107OSM   H14T10960   2.622   4.842   9.230 -0.1361  0.2268 -1.1099
  107OSM   C15S10961   2.585   5.044   9.129 -0.1600 -0.2207 -0.5777
  107OSM   H15S10962   2.681   5.086   9.166 -0.0082 -1.4448  0.4966
  107OSM   H15T10963   2.507   5.123   9.134  0.2208  0.1306  0.1191
  107OSM   C16S10964   2.608   5.011   8.982 -0.2511  0.3159  0.9733
  107OSM   H16S10965   2.661   4.913   8.971 -2.2157 -0.7132  0.0551
  107OSM   H16T10966   2.668   5.088   8.929  0.1602  0.0171  0.9982
  107OSM   C17S10967   2.486   5.007   8.893  0.7057 -0.2833  0.1820
  107OSM   H17S10968   2.437   5.106   8.898  1.0730 -0.0046 -1.3120
  107OSM   H17T10969   2.408   4.935   8.926  0.0636  0.6947  0.8403
  107OSM   C18S10970   2.524   4.977   8.744  0.4786  0.1857 -0.2321
  107OSM   H18S10971   2.532   4.866   8.745 -0.2106  0.1321  1.0192
  107OSM   H18T10972   2.616   5.027   8.707  0.9173 -0.1804  0.3637
  107OSM   H18U10973   2.433   5.007   8.686 -0.9198  0.6484  2.0782
  107OSM    C1F10974   1.981   4.780  10.523 -0.4413 -0.5911 -0.0128
  107OSM     OF10975   1.925   4.884  10.488  0.6811  0.3473  0.2265
  107OSM    C2F10976   1.906   4.667  10.577 -0.1531 -0.3061  0.3532
  107OSM    H2F10977   1.844   4.694  10.665 -2.4719  0.6212 -1.4568
  107OSM    H2G10978   1.974   4.591  10.621  0.3328  0.1005  0.3102
  107OSM    C3F10979   1.799   4.606  10.483 -0.3362  0.2616  0.1438
  107OSM    H3F10980   1.728   4.688  10.459  0.1055  1.2509  2.0287
  107OSM    H3G10981   1.754   4.523  10.541  1.4225 -0.4508  0.5542
  107OSM    C4F10982   1.839   4.551  10.344  1.0525 -0.1671 -0.0144
  107OSM    H4F10983   1.911   4.466  10.346 -0.3522 -1.4076 -0.2916
  107OSM    H4G10984   1.890   4.636  10.292  2.2604 -0.1064  1.2000
  107OSM    C5F10985   1.715   4.500  10.270  0.4767 -0.1614 -0.3686
  107OSM    H5F10986   1.625   4.560  10.295  0.4583 -1.1787  2.3450
  107OSM    H5G10987   1.698   4.399  10.312  0.4632  0.0459  0.1423
  107OSM    C6F10988   1.738   4.488  10.123  0.4328  0.3632 -0.0061
  107OSM    H6F10989   1.819   4.412  10.113 -0.8707 -1.9067  4.3012
  107OSM    H6G10990   1.765   4.588  10.081  1.7030  0.3044  0.6068
  107OSM    C7F10991   1.619   4.444  10.038  0.2328  0.0496 -0.2748
  107OSM    H7F10992   1.532   4.512  10.052 -0.0913 -0.3844 -0.1297
  107OSM    H7G10993   1.591   4.347  10.087  0.2480 -0.9299 -2.1215
  107OSM    C8F10994   1.646   4.427   9.896 -0.6526  0.6476  0.4145
  107OSM    H8F10995   1.728   4.354   9.876  1.3201  3.0781 -0.8651
  107OSM    H8G10996   1.688   4.518   9.849  2.4243 -1.3868 -1.1268
  107OSM    C9F10997   1.517   4.387   9.818 -0.2235  0.4449 -0.0206
  107OSM    H9F10998   1.454   4.317   9.875  1.1893 -0.6962  0.1886
  107OSM   C10F10999   1.484   4.416   9.691  0.3211 -1.3901 -0.4238
  107OSM   H10F11000   1.392   4.383   9.640  1.1701  0.1978 -3.2605
  107OSM   C11F11001   1.567   4.510   9.599 -0.5859 -0.4991 -0.7517
  107OSM   H11F11002   1.661   4.548   9.644 -1.6034  0.2202  0.8746
  107OSM   H11G11003   1.513   4.607   9.593 -0.9707 -0.6630  0.0313
  107OSM   C12F11004   1.593   4.470   9.456  0.1928 -0.4830 -0.1199
  107OSM   H12F11005   1.673   4.392   9.450 -1.1517 -1.8918 -0.4838
  107OSM   H12G11006   1.610   4.564   9.401 -0.9597 -1.4549 -2.2578
  107OSM   C13F11007   1.471   4.404   9.388  0.5697  0.2137  0.2007
  107OSM   H13F11008   1.393   4.482   9.376  0.5852  0.3014  0.6491
  107OSM   H13G11009   1.437   4.314   9.444  1.5862  0.7916  1.8047
  107OSM   C14F11010   1.499   4.353   9.242 -0.4056  0.0878  0.1332
  107OSM   H14F11011   1.407   4.381   9.188  0.6727 -0.6612 -2.2320
  107OSM   H14G11012   1.499   4.242   9.242  3.2330 -0.0439  0.3741
  107OSM   C15F11013   1.632   4.400   9.174  0.2182 -0.0799 -0.4294
  107OSM   H15F11014   1.718   4.345   9.219  0.3896  0.5060 -0.0259
  107OSM   H15G11015   1.637   4.509   9.191 -0.3782 -0.3852  2.0788
  107OSM   C16F11016   1.629   4.352   9.032 -0.0786  0.0187 -0.6712
  107OSM   H16F11017   1.546   4.385   8.966  0.2771 -1.2553 -1.7863
  107OSM   H16G11018   1.624   4.242   9.012 -0.7027  0.1123 -1.0513
  107OSM   C17F11019   1.761   4.402   8.957 -0.1794 -0.2468 -0.0509
  107OSM   H17F11020   1.765   4.512   8.944  1.0432 -0.3009 -0.2320
  107OSM   H17G11021   1.752   4.370   8.851 -2.4783  0.1366 -0.0272
  107OSM   C18F11022   1.899   4.363   9.014  0.3379  0.4685 -0.8171
  107OSM   H18F11023   1.906   4.253   9.001  0.4522  0.4750 -0.8188
  107OSM   H18G11024   1.904   4.379   9.124 -0.0384 -0.7649 -0.6045
  107OSM   H18H11025   1.984   4.418   8.966 -0.4437  1.2174 -1.3703
  108OSM      N11026   5.906   1.517  10.653 -0.2949  0.3044  0.2099
  108OSM    C1511027   6.050   1.513  10.704  0.3098 -0.6581  0.0527
  108OSM   H15A11028   6.098   1.416  10.698  0.6345 -0.5306  0.4699
  108OSM   H15B11029   6.062   1.554  10.803  0.7551 -0.4794 -0.0709
  108OSM   H15C11030   6.113   1.583  10.651 -0.7784  1.2716  1.1778
  108OSM    C1411031   5.869   1.661  10.669  0.1786 -0.7383  0.4107
  108OSM   H14A11032   5.845   1.690  10.770 -2.2290  0.4748 -0.4383
  108OSM   H14B11033   5.779   1.693  10.618 -0.1848 -3.2992 -0.7580
  108OSM   H14C11034   5.947   1.721  10.626  1.3431 -2.0275  0.6505
  108OSM    C1311035   5.913   1.482  10.510 -0.5187  0.0805 -0.3212
  108OSM   H13A11036   5.955   1.567  10.457  1.4584 -1.3500 -1.1495
  108OSM   H13B11037   5.815   1.474  10.465 -1.0421  0.8849  0.6160
  108OSM   H13C11038   5.973   1.393  10.501 -1.3133 -0.4985 -0.0177
  108OSM    C1211039   5.820   1.421  10.733  0.3619  0.4050 -0.7833
  108OSM   H12A11040   5.721   1.414  10.690  0.5708 -1.2867 -1.0786
  108OSM   H12B11041   5.799   1.455  10.833 -0.9306 -0.9177 -0.5812
  108OSM    C1111042   5.867   1.278  10.735 -0.1000 -0.2480  0.0880
  108OSM   H11A11043   5.964   1.283  10.789  0.8464  1.4624 -1.6424
  108OSM   H11B11044   5.887   1.235  10.634 -1.4765 -1.9186  0.4740
  108OSM      P11045   5.637   1.156  10.757  0.4270 -0.2317 -0.0547
  108OSM    O1311046   5.605   1.028  10.825 -0.5788  0.0169  0.2439
  108OSM    O1411047   5.529   1.253  10.770 -0.4705 -0.0934 -0.0458
  108OSM    O1111048   5.664   1.134  10.605 -0.3700 -0.0367  0.4640
  108OSM    O1211049   5.775   1.205  10.815 -0.1045 -0.0829  0.4596
  108OSM    C1S11050   5.634   1.232  10.502 -0.3460  0.4752 -0.3112
  108OSM    H1S11051   5.721   1.300  10.493  0.5237 -0.0664  2.9882
  108OSM    H1T11052   5.540   1.285  10.528  0.0720 -0.5175  3.9470
  108OSM     NF11053   5.592   1.252  10.257  0.1165  0.0318 -0.5316
  108OSM    HNF11054   5.500   1.254  10.218 -0.3319  1.3359  0.5138
  108OSM    C2S11055   5.612   1.153  10.367  0.5670 -0.0416 -0.4732
  108OSM    H2S11056   5.695   1.087  10.334  1.2920  0.0596  1.0790
  108OSM    C3S11057   5.496   1.044  10.387  0.2398 -0.4025 -0.3325
  108OSM    H3S11058   5.399   1.099  10.387 -0.8130 -2.1688 -0.1493
  108OSM     O311059   5.500   0.961  10.502  0.6228  0.4008 -0.7324
  108OSM    HO311060   5.570   1.004  10.552 -0.2741 -1.3785  2.3262
  108OSM    C4S11061   5.477   0.961  10.266 -0.2773 -0.9026  1.0203
  108OSM    H4S11062   5.394   0.996  10.202  1.2438 -2.0964 -1.7987
  108OSM    C5S11063   5.530   0.845  10.223 -0.0004  0.5816 -0.2214
  108OSM    H5S11064   5.601   0.789  10.286  0.7278  1.2428 -0.4246
  108OSM    C6S11065   5.498   0.768  10.097  0.3259 -0.7065 -0.3574
  108OSM    H6S11066   5.423   0.690  10.124 -0.9969  0.7821  0.4479
  108OSM    H6T11067   5.588   0.712  10.063  0.1035 -0.7437 -0.9058
  108OSM    C7S11068   5.433   0.839   9.974 -0.1691 -0.1672 -0.1538
  108OSM    H7S11069   5.510   0.903   9.927 -1.4854  2.4802  1.0583
  108OSM    H7T11070   5.351   0.910   9.998 -0.5051 -0.5876 -0.0305
  108OSM    C8S11071   5.391   0.736   9.867 -0.4424  0.0097  0.3236
  108OSM    H8S11072   5.322   0.668   9.921 -2.0308 -0.7562 -2.4843
  108OSM    H8T11073   5.477   0.671   9.840  1.2711  2.8940 -1.7335
  108OSM    C9S11074   5.330   0.797   9.733  0.1521  0.3331  0.0039
  108OSM    H9S11075   5.397   0.868   9.679 -0.3198  3.7468  3.4529
  108OSM    H9T11076   5.252   0.868   9.769  1.0525  0.7661  1.1799
  108OSM   C10S11077   5.284   0.697   9.629 -0.1378  0.1775  0.1279
  108OSM   H10S11078   5.223   0.620   9.681  1.5213 -0.3706  1.3484
  108OSM   H10T11079   5.370   0.635   9.594 -0.3217  0.3516 -0.6628
  108OSM   C11S11080   5.206   0.758   9.515 -0.1212  0.3944  1.1299
  108OSM   H11S11081   5.270   0.835   9.465  2.1443 -1.6789  0.6709
  108OSM   H11T11082   5.116   0.808   9.556 -0.9745  0.4346 -0.6578
  108OSM   C12S11083   5.175   0.647   9.411  0.0956  0.0700 -0.5197
  108OSM   H12S11084   5.108   0.570   9.455  0.9453 -0.0164  0.6660
  108OSM   H12T11085   5.270   0.596   9.384  1.2815  2.3451 -0.9439
  108OSM   C13S11086   5.097   0.698   9.295 -0.2839  0.0282  0.5733
  108OSM   H13S11087   5.043   0.793   9.313 -0.7529  0.0085 -0.6531
  108OSM   H13T11088   5.025   0.624   9.254  0.0335  0.5861 -1.0840
  108OSM   C14S11089   5.203   0.735   9.181  0.4155 -0.6330 -0.1106
  108OSM   H14S11090   5.258   0.644   9.148  0.2894 -0.0464 -2.1272
  108OSM   H14T11091   5.276   0.809   9.221  0.3865 -1.3673  1.3422
  108OSM   C15S11092   5.139   0.796   9.062  0.2840  0.0052 -0.1584
  108OSM   H15S11093   5.086   0.888   9.095  0.7990 -0.1060  1.0419
  108OSM   H15T11094   5.063   0.732   9.014 -0.4011  1.3361 -0.8987
  108OSM   C16S11095   5.236   0.841   8.944  0.4962 -0.1333  0.3718
  108OSM   H16S11096   5.318   0.768   8.930 -0.5695 -1.1799 -0.6449
  108OSM   H16T11097   5.276   0.939   8.979 -2.9282  1.5452  0.0649
  108OSM   C17S11098   5.154   0.869   8.814  0.6496 -0.0036  0.8379
  108OSM   H17S11099   5.072   0.943   8.824 -1.0860 -1.1760 -2.9224
  108OSM   H17T11100   5.101   0.774   8.790  0.8994 -0.6955  2.8325
  108OSM   C18S11101   5.235   0.897   8.690  0.5831  0.1519  0.3872
  108OSM   H18S11102   5.270   1.002   8.692 -3.6237  1.8141 -1.4330
  108OSM   H18T11103   5.179   0.893   8.594  0.5553  0.6080  0.3853
  108OSM   H18U11104   5.326   0.839   8.661  1.2966  2.5169 -2.6984
  108OSM    C1F11105   5.688   1.325  10.220 -0.0276  0.6863 -0.2561
  108OSM     OF11106   5.803   1.307  10.253  0.0287  0.0272 -0.1104
  108OSM    C2F11107   5.646   1.442  10.138 -0.5841 -0.6332  0.1714
  108OSM    H2F11108   5.699   1.527  10.186 -0.8558 -0.4160  0.0924
  108OSM    H2G11109   5.537   1.463  10.148 -0.2905  0.8752  0.5013
  108OSM    C3F11110   5.709   1.421   9.995 -0.3738  0.0467  0.0264
  108OSM    H3F11111   5.672   1.329   9.946 -1.1620  0.7965 -0.8462
  108OSM    H3G11112   5.819   1.433  10.006 -0.2871  0.1758 -0.8884
  108OSM    C4F11113   5.685   1.527   9.888  0.0453 -0.6723  0.3926
  108OSM    H4F11114   5.724   1.625   9.925 -2.1245  0.2796  0.2742
  108OSM    H4G11115   5.576   1.534   9.871 -0.3859  2.6095  3.2126
  108OSM    C5F11116   5.752   1.486   9.756  0.5871 -0.6240  0.1615
  108OSM    H5F11117   5.737   1.376   9.747  0.7133 -0.6011 -0.3275
  108OSM    H5G11118   5.861   1.510   9.754  0.9176 -2.0574  0.0087
  108OSM    C6F11119   5.693   1.549   9.631  0.2333 -0.9591 -0.0192
  108OSM    H6F11120   5.700   1.660   9.636  2.1766 -1.1021  3.8786
  108OSM    H6G11121   5.588   1.517   9.619  0.1102 -0.8803  0.8435
  108OSM    C7F11122   5.766   1.508   9.508  1.0135  0.3449  0.0780
  108OSM    H7F11123   5.817   1.410   9.510  1.3926  0.5102 -0.8801
  108OSM    H7G11124   5.852   1.577   9.496 -0.3240  2.2712  1.0057
  108OSM    C8F11125   5.678   1.505   9.383 -0.3522 -0.3166  0.4851
  108OSM    H8F11126   5.592   1.435   9.379  0.5179 -1.3811 -2.8316
  108OSM    H8G11127   5.741   1.479   9.295  0.8137  1.9340  0.5805
  108OSM    C9F11128   5.619   1.643   9.356  0.3188 -0.6748  0.2306
  108OSM    H9F11129   5.524   1.655   9.409  0.4853 -0.8454  0.5739
  108OSM   C10F11130   5.644   1.740   9.263 -0.0747  0.6732  0.0189
  108OSM   H10F11131   5.578   1.825   9.240  0.6972  1.3328  0.2249
  108OSM   C11F11132   5.758   1.728   9.168  0.4223 -0.0851 -0.2452
  108OSM   H11F11133   5.845   1.680   9.217 -0.8950 -1.9247  0.3903
  108OSM   H11G11134   5.782   1.834   9.147 -0.9011  0.3209  0.2364
  108OSM   C12F11135   5.731   1.659   9.032  0.8979  0.3627 -0.4390
  108OSM   H12F11136   5.722   1.549   9.042 -0.0798  0.3065 -1.6263
  108OSM   H12G11137   5.820   1.687   8.972  1.3196  2.4828  1.0692
  108OSM   C13F11138   5.598   1.704   8.953 -0.6402 -0.4369 -0.2447
  108OSM   H13F11139   5.609   1.811   8.925 -1.5460 -0.7238 -1.8133
  108OSM   H13G11140   5.509   1.671   9.010 -2.3579 -1.3241 -3.2295
  108OSM   C14F11141   5.595   1.631   8.819  0.1969 -0.5083  0.6005
  108OSM   H14F11142   5.502   1.660   8.765  0.3351 -0.7559  0.2229
  108OSM   H14G11143   5.596   1.520   8.823  0.2964 -0.4820  1.4877
  108OSM   C15F11144   5.716   1.652   8.730 -0.1885 -1.0951  0.2354
  108OSM   H15F11145   5.800   1.600   8.781  1.1258  3.1441  2.9689
  108OSM   H15G11146   5.739   1.758   8.708 -0.7228 -1.0526 -0.1331
  108OSM   C16F11147   5.683   1.594   8.590  0.2095 -0.0441  0.3156
  108OSM   H16F11148   5.601   1.646   8.536  0.7527  1.5335  0.9746
  108OSM   H16G11149   5.642   1.492   8.612  1.6631 -1.1627 -1.8080
  108OSM   C17F11150   5.805   1.559   8.504  0.3689  0.4585  0.0013
  108OSM   H17F11151   5.779   1.470   8.442 -1.4379 -0.1817  1.5770
  108OSM   H17G11152   5.891   1.520   8.562 -0.4457 -0.0177  0.9157
  108OSM   C18F11153   5.843   1.666   8.405 -0.6462 -0.1226  0.1491
  108OSM   H18F11154   5.763   1.684   8.330 -1.0752  4.1723  1.3819
  108OSM   H18G11155   5.932   1.643   8.343 -1.4247  0.7359 -1.3675
  108OSM   H18H11156   5.862   1.763   8.456 -1.7873  0.5925 -0.7340
  109OSM      N11157   4.564   6.227  11.016  0.2776 -0.0305 -0.2419
  109OSM    C1511158   4.520   6.092  10.963 -0.7234  0.0482 -0.2266
  109OSM   H15A11159   4.537   6.075  10.858 -1.5017  1.2158 -0.5702
  109OSM   H15B11160   4.414   6.079  10.978 -0.5484 -0.0831  0.9891
  109OSM   H15C11161   4.586   6.026  11.016 -0.1107  0.2238 -0.7572
  109OSM    C1411162   4.532   6.237  11.165  0.3857  1.0067  0.6455
  109OSM   H14A11163   4.425   6.225  11.177  0.4153 -1.2929 -0.7789
  109OSM   H14B11164   4.563   6.332  11.206  1.6222  1.6340 -1.5946
  109OSM   H14C11165   4.592   6.168  11.223  1.2874  1.2492  0.0227
  109OSM    C1311166   4.710   6.231  10.994 -0.3312 -0.6194 -0.1776
  109OSM   H13A11167   4.721   6.208  10.889 -0.4668 -0.2722 -0.2664
  109OSM   H13B11168   4.772   6.153  11.037  1.2974  0.8822  0.2811
  109OSM   H13C11169   4.749   6.327  11.021 -0.9485  0.1378 -1.8577
  109OSM    C1211170   4.488   6.339  10.948 -0.8697  1.3454  0.6047
  109OSM   H12A11171   4.519   6.338  10.845  1.4081 -3.2904  1.0667
  109OSM   H12B11172   4.527   6.432  10.986 -1.9479  1.0631  2.5016
  109OSM    C1111173   4.336   6.340  10.957  1.0980  0.2321  0.0208
  109OSM   H11A11174   4.301   6.424  10.893 -0.6133 -2.2896 -2.6207
  109OSM   H11B11175   4.304   6.357  11.062 -0.5049 -1.3740 -0.1694
  109OSM      P11176   4.119   6.206  10.882 -0.2034  0.3853  0.2151
  109OSM    O1311177   4.057   6.155  11.005 -0.1226  0.1585 -0.0183
  109OSM    O1411178   4.052   6.320  10.814  0.3737  0.9715 -0.5015
  109OSM    O1111179   4.123   6.088  10.774 -0.7290 -0.2634  0.2857
  109OSM    O1211180   4.272   6.226  10.908  0.3468 -0.0352  0.9278
  109OSM    C1S11181   4.215   6.094  10.665  0.3674  0.7852 -0.3612
  109OSM    H1S11182   4.319   6.070  10.698 -0.3029 -0.7478  0.7417
  109OSM    H1T11183   4.231   6.193  10.619  1.0615  0.1887 -1.4711
  109OSM     NF11184   4.307   5.964  10.470 -0.4276 -0.0373  0.2025
  109OSM    HNF11185   4.310   6.008  10.380  0.9309  1.3669  0.8813
  109OSM    C2S11186   4.190   5.988  10.546  0.2041  1.0350  0.7504
  109OSM    H2S11187   4.161   5.892  10.594  0.3064 -0.3876 -1.8304
  109OSM    C3S11188   4.072   6.031  10.469  0.8165 -0.1149 -0.1768
  109OSM    H3S11189   4.082   6.137  10.437  0.6027 -0.9120 -3.1126
  109OSM     O311190   3.963   6.040  10.558 -0.1529  0.3014 -0.6116
  109OSM    HO311191   4.002   6.041  10.645 -1.0035  0.1907 -0.2195
  109OSM    C4S11192   4.030   5.939  10.359 -0.3335  0.1258  0.0463
  109OSM    H4S11193   4.024   5.833  10.386  1.3233 -0.2000 -0.7522
  109OSM    C5S11194   4.027   5.964  10.229 -0.0338 -0.1879  0.0764
  109OSM    H5S11195   4.050   6.067  10.196 -0.8580 -0.0928 -0.2225
  109OSM    C6S11196   3.993   5.872  10.115 -0.3112  0.8327 -0.3757
  109OSM    H6S11197   3.889   5.891  10.081 -1.5391  0.3491  2.7852
  109OSM    H6T11198   3.983   5.767  10.151 -0.1366  1.1509  0.6474
  109OSM    C7S11199   4.089   5.882  10.000 -0.8260 -0.1409 -0.1592
  109OSM    H7S11200   4.186   5.850  10.044 -0.0969 -0.0599 -1.6449
  109OSM    H7T11201   4.081   5.986   9.961  0.3596  0.1001  0.2198
  109OSM    C8S11202   4.070   5.785   9.874 -0.1641 -0.0429 -0.1998
  109OSM    H8S11203   4.068   5.681   9.913  1.3020 -0.8962 -2.1960
  109OSM    H8T11204   4.166   5.779   9.817  0.5794  0.3778  0.9757
  109OSM    C9S11205   3.947   5.821   9.786  0.4177  0.2721  0.0307
  109OSM    H9S11206   3.959   5.926   9.752 -0.0743  0.0318 -0.9209
  109OSM    H9T11207   3.857   5.815   9.850  0.2607  2.2612  0.0733
  109OSM   C10S11208   3.924   5.722   9.668 -0.9723 -0.2090  0.3817
  109OSM   H10S11209   3.825   5.730   9.617 -1.3524 -2.4951  0.6682
  109OSM   H10T11210   3.924   5.616   9.702 -2.3232 -0.0745  0.8885
  109OSM   C11S11211   4.040   5.733   9.566  0.0464 -0.5143  0.8258
  109OSM   H11S11212   4.134   5.704   9.617  0.7984 -0.7922 -0.6509
  109OSM   H11T11213   4.056   5.839   9.535  0.8986 -1.0827 -0.8343
  109OSM   C12S11214   4.021   5.654   9.436 -0.8594  0.6719 -0.2113
  109OSM   H12S11215   3.942   5.701   9.374  0.1200  2.1712 -0.3604
  109OSM   H12T11216   3.988   5.550   9.457  0.2868  0.8731  3.2028
  109OSM   C13S11217   4.141   5.657   9.331 -0.7498 -0.4010 -0.3018
  109OSM   H13S11218   4.221   5.604   9.388 -1.6100  1.7652  3.2008
  109OSM   H13T11219   4.187   5.757   9.316  1.8028 -1.6488 -1.3933
  109OSM   C14S11220   4.107   5.588   9.200 -0.5439 -0.5321  0.9371
  109OSM   H14S11221   4.027   5.654   9.160 -0.6612  0.3354  2.4878
  109OSM   H14T11222   4.082   5.482   9.219 -1.2173 -0.2976  1.4131
  109OSM   C15S11223   4.206   5.596   9.082 -0.3536 -0.0627  0.1830
  109OSM   H15S11224   4.174   5.516   9.011 -1.9140 -0.2061  1.0040
  109OSM   H15T11225   4.307   5.566   9.117  1.2220  4.0062 -0.3350
  109OSM   C16S11226   4.213   5.738   9.020 -0.1164 -0.2768 -0.2369
  109OSM   H16S11227   4.243   5.827   9.079  0.1939 -0.8223  0.4434
  109OSM   H16T11228   4.113   5.768   8.984 -0.0361 -0.4501 -0.6101
  109OSM   C17S11229   4.320   5.730   8.904  0.3630 -0.2880  0.3758
  109OSM   H17S11230   4.317   5.647   8.831 -0.4306  0.0574  0.0003
  109OSM   H17T11231   4.419   5.708   8.949  0.9789 -1.2461 -1.3202
  109OSM   C18S11232   4.317   5.870   8.834 -0.1019  0.4428  0.7863
  109OSM   H18S11233   4.371   5.942   8.899  2.4219  1.1455 -1.8493
  109OSM   H18T11234   4.213   5.899   8.808  0.5495  1.9962 -0.1867
  109OSM   H18U11235   4.380   5.865   8.742  0.0415 -2.0155  0.9455
  109OSM    C1F11236   4.407   5.895  10.523 -0.1522 -0.0343 -0.0712
  109OSM     OF11237   4.397   5.843  10.635  0.2689 -0.2285 -0.6137
  109OSM    C2F11238   4.533   5.881  10.443 -0.0180  0.2707  0.8395
  109OSM    H2F11239   4.621   5.882  10.511 -0.3293  1.2514  1.2574
  109OSM    H2G11240   4.547   5.969  10.376 -0.1550 -1.3364 -1.4284
  109OSM    C3F11241   4.542   5.754  10.357  0.2174 -0.6796 -0.4877
  109OSM    H3F11242   4.545   5.665  10.425  0.9638 -0.3852 -0.1268
  109OSM    H3G11243   4.635   5.773  10.299 -0.2847 -0.1270 -1.1228
  109OSM    C4F11244   4.430   5.732  10.254 -0.1044 -0.4637 -0.0040
  109OSM    H4F11245   4.361   5.817  10.233  0.5717  0.0570 -0.1534
  109OSM    H4G11246   4.376   5.638  10.280  0.7705 -1.5148 -1.7702
  109OSM    C5F11247   4.502   5.714  10.119 -0.0139  0.7142 -0.2933
  109OSM    H5F11248   4.575   5.631  10.135 -0.9001  0.2308  1.4810
  109OSM    H5G11249   4.565   5.800  10.089 -0.6323  1.5234  0.6982
  109OSM    C6F11250   4.416   5.661   9.994  0.2534 -0.3782 -0.5885
  109OSM    H6F11251   4.349   5.742   9.959  0.5545 -0.8310 -2.2963
  109OSM    H6G11252   4.358   5.572  10.030 -1.8258  1.4536  0.8828
  109OSM    C7F11253   4.500   5.607   9.887 -0.2076 -0.2020  0.3003
  109OSM    H7F11254   4.573   5.532   9.923  2.2738  1.9372  0.0315
  109OSM    H7G11255   4.563   5.688   9.846 -0.0712  0.1130  1.1206
  109OSM    C8F11256   4.413   5.548   9.764 -0.7499  0.2654 -0.5978
  109OSM    H8F11257   4.490   5.522   9.689  0.9709 -0.7166  1.3856
  109OSM    H8G11258   4.354   5.626   9.712 -1.1583 -0.9865 -2.0910
  109OSM    C9F11259   4.324   5.426   9.772 -0.2866 -0.3161  0.2861
  109OSM    H9F11260   4.278   5.398   9.868 -0.3664 -1.2147  0.0025
  109OSM   C10F11261   4.312   5.335   9.677 -0.1617 -0.6999  0.1178
  109OSM   H10F11262   4.250   5.244   9.682  1.0305 -1.7158 -2.1169
  109OSM   C11F11263   4.380   5.348   9.542  0.4700  0.1182  0.2964
  109OSM   H11F11264   4.484   5.312   9.552  0.1596 -0.2369  3.0165
  109OSM   H11G11265   4.383   5.450   9.498  1.2573 -0.1065 -0.1877
  109OSM   C12F11266   4.294   5.283   9.427  0.1752  0.5313 -0.6337
  109OSM   H12F11267   4.186   5.307   9.434 -0.4223 -1.6006 -1.6118
  109OSM   H12G11268   4.304   5.173   9.429 -0.2649  0.4997  0.2051
  109OSM   C13F11269   4.332   5.323   9.285  0.0311  0.1214 -0.5846
  109OSM   H13F11270   4.347   5.432   9.274 -0.1828  0.0555 -1.6560
  109OSM   H13G11271   4.253   5.291   9.214  1.6631 -1.1507 -1.9287
  109OSM   C14F11272   4.463   5.259   9.244 -0.0102  0.6480 -0.5236
  109OSM   H14F11273   4.449   5.149   9.238  1.0028  0.2240  2.6995
  109OSM   H14G11274   4.534   5.281   9.326 -0.0859  1.1766 -0.5978
  109OSM   C15F11275   4.524   5.317   9.116 -0.3162 -0.8294 -0.2586
  109OSM   H15F11276   4.525   5.428   9.127 -1.5721 -0.4820 -2.7338
  109OSM   H15G11277   4.463   5.299   9.024  0.1224 -2.1794 -0.3042
  109OSM   C16F11278   4.670   5.282   9.080 -0.2091  0.1868 -1.0371
  109OSM   H16F11279   4.748   5.287   9.159  1.2764 -0.6289 -2.4006
  109OSM   H16G11280   4.702   5.355   9.002 -2.8086  0.2091 -2.2004
  109OSM   C17F11281   4.671   5.151   9.001  0.1472  0.4437 -0.4647
  109OSM   H17F11282   4.632   5.181   8.901 -0.1170  2.3002  0.1540
  109OSM   H17G11283   4.611   5.067   9.041  0.3674  0.0754 -0.9034
  109OSM   C18F11284   4.816   5.103   8.992 -0.0651 -0.1911  0.3798
  109OSM   H18F11285   4.885   5.175   8.943 -0.1847 -0.5804 -0.3897
  109OSM   H18G11286   4.812   5.010   8.930 -1.3996  0.6454 -0.8821
  109OSM   H18H11287   4.844   5.071   9.094  0.2513 -1.6498 -0.1348
  110OSM      N11288   6.152   5.930  11.125 -0.3061 -0.1688  0.1448
  110OSM    C1511289   6.122   5.984  10.989  0.3990  0.5132  0.8451
  110OSM   H15A11290   6.106   6.090  10.992 -2.0039  0.1825  2.5696
  110OSM   H15B11291   6.035   5.930  10.954 -0.3421  1.3453  1.3748
  110OSM   H15C11292   6.200   5.960  10.918  1.4199  2.2456  1.3214
  110OSM    C1411293   6.226   5.807  11.102  0.2392 -0.3450  0.3076
  110OSM   H14A11294   6.307   5.823  11.033 -0.9488 -0.7474 -1.2507
  110OSM   H14B11295   6.164   5.728  11.062  0.4767 -0.9947  1.2026
  110OSM   H14C11296   6.263   5.772  11.197 -1.7352 -0.1801  1.1871
  110OSM    C1311297   6.237   6.031  11.196 -0.4822 -0.0645 -0.2683
  110OSM   H13A11298   6.265   6.016  11.299  0.3251  1.3504 -0.2595
  110OSM   H13B11299   6.196   6.129  11.174  1.1467  0.4291 -1.3159
  110OSM   H13C11300   6.333   6.036  11.145 -1.2160  0.6226 -1.6409
  110OSM    C1211301   6.017   5.901  11.209 -0.0694  0.4033 -0.1962
  110OSM   H12A11302   5.997   5.993  11.262  2.5372  0.2605  1.2042
  110OSM   H12B11303   6.040   5.831  11.287  0.3262  0.8687  0.1092
  110OSM    C1111304   5.890   5.856  11.133 -0.2012  0.3809 -0.5122
  110OSM   H11A11305   5.895   5.749  11.106 -0.9978  0.0132  0.7188
  110OSM   H11B11306   5.875   5.930  11.051 -0.2817  0.3903 -0.4882
  110OSM      P11307   5.632   5.853  11.185 -0.3882  0.1890  0.0139
  110OSM    O1311308   5.565   5.761  11.276 -0.1788 -0.1613 -0.1170
  110OSM    O1411309   5.583   5.997  11.179 -0.1213 -0.0686 -0.3147
  110OSM    O1111310   5.639   5.783  11.048 -0.0647  0.4812  0.1131
  110OSM    O1211311   5.786   5.865  11.232 -0.3464 -0.0590 -0.5143
  110OSM    C1S11312   5.616   5.854  10.925 -0.1923 -0.6607 -0.9271
  110OSM    H1S11313   5.682   5.942  10.908 -1.4993  0.5551  0.1004
  110OSM    H1T11314   5.513   5.894  10.922  1.0956  3.1113 -0.5244
  110OSM     NF11315   5.644   5.835  10.684 -0.2319  0.4795 -0.6066
  110OSM    HNF11316   5.566   5.843  10.622 -0.8893 -2.1832 -0.2056
  110OSM    C2S11317   5.633   5.755  10.810 -0.4042 -0.9324 -0.4314
  110OSM    H2S11318   5.730   5.702  10.818 -0.0694 -0.6534 -2.1739
  110OSM    C3S11319   5.519   5.654  10.823  0.4832  0.3331  0.5585
  110OSM    H3S11320   5.426   5.714  10.813 -0.6715 -1.4302  0.2205
  110OSM     O311321   5.508   5.579  10.944 -0.6423 -0.0838 -0.1995
  110OSM    HO311322   5.570   5.622  11.004 -2.4221  2.5524 -0.1019
  110OSM    C4S11323   5.535   5.556  10.706  0.1114 -0.0844 -0.6772
  110OSM    H4S11324   5.630   5.501  10.714  0.6897  0.5025 -2.9183
  110OSM    C5S11325   5.453   5.528  10.606  0.5376 -0.5565  1.0761
  110OSM    H5S11326   5.357   5.582  10.603  0.6722 -0.3661 -0.6188
  110OSM    C6S11327   5.478   5.431  10.492  0.3454  0.3591 -0.6122
  110OSM    H6S11328   5.378   5.401  10.452  0.6255  1.1561 -1.9639
  110OSM    H6T11329   5.527   5.345  10.543  1.3127  1.2417 -0.0162
  110OSM    C7S11330   5.552   5.490  10.375  0.1882  0.0451 -0.0963
  110OSM    H7S11331   5.655   5.487  10.417 -0.2599  0.8764  1.1174
  110OSM    H7T11332   5.529   5.597  10.360 -2.8090 -0.6648 -1.3477
  110OSM    C8S11333   5.571   5.395  10.256  0.0139  0.1244 -0.0180
  110OSM    H8S11334   5.622   5.304  10.295  0.3251  1.2938  2.5238
  110OSM    H8T11335   5.644   5.445  10.188  0.9847  1.7550  2.1075
  110OSM    C9S11336   5.439   5.336  10.192 -0.1869 -0.3275 -0.1132
  110OSM    H9S11337   5.365   5.419  10.193  0.1601 -0.0127 -0.2381
  110OSM    H9T11338   5.409   5.265  10.272 -0.1319 -0.4732 -0.2211
  110OSM   C10S11339   5.459   5.284  10.052 -1.0061  0.4758  0.1466
  110OSM   H10S11340   5.552   5.225  10.061  0.8796  3.1447 -0.3962
  110OSM   H10T11341   5.485   5.363   9.978 -1.2752  0.1106 -0.3470
  110OSM   C11S11342   5.334   5.202  10.009 -0.2276 -0.2442 -0.4918
  110OSM   H11S11343   5.252   5.277  10.009  1.1225  1.3109  0.8893
  110OSM   H11T11344   5.315   5.137  10.097  3.2653  0.1518  0.7146
  110OSM   C12S11345   5.334   5.134   9.875  0.0006 -0.3732  0.5197
  110OSM   H12S11346   5.233   5.092   9.852  0.5996 -2.2835  1.1718
  110OSM   H12T11347   5.411   5.054   9.880 -1.0613 -1.4999 -0.4586
  110OSM   C13S11348   5.379   5.223   9.759  0.1261  0.0919  0.6297
  110OSM   H13S11349   5.478   5.260   9.793  0.9130 -1.4697  0.1302
  110OSM   H13T11350   5.322   5.319   9.761  1.6378  1.0108  0.9254
  110OSM   C14S11351   5.399   5.168   9.613 -0.2047 -0.0972  0.3106
  110OSM   H14S11352   5.304   5.122   9.581 -0.3858  0.7866 -0.4505
  110OSM   H14T11353   5.480   5.093   9.603  0.1161  0.5485 -2.5831
  110OSM   C15S11354   5.434   5.274   9.508 -0.0388  0.1306  0.0283
  110OSM   H15S11355   5.398   5.376   9.534  2.2558  0.8668  0.5525
  110OSM   H15T11356   5.399   5.241   9.407  2.1331  1.6915 -1.3294
  110OSM   C16S11357   5.587   5.301   9.494  0.1883  0.5513 -0.4174
  110OSM   H16S11358   5.641   5.204   9.501  0.3058  0.6159 -0.4310
  110OSM   H16T11359   5.624   5.349   9.587  1.3617  0.3420 -0.7583
  110OSM   C17S11360   5.635   5.384   9.377  0.2616 -0.6514  0.4713
  110OSM   H17S11361   5.745   5.396   9.370  0.5172 -2.2664  1.2362
  110OSM   H17T11362   5.583   5.480   9.396  0.0876 -0.2647 -1.7294
  110OSM   C18S11363   5.593   5.333   9.239 -0.4980  0.3163  0.3658
  110OSM   H18S11364   5.663   5.381   9.168  0.0184  1.6172  1.7065
  110OSM   H18T11365   5.484   5.349   9.224 -0.7825 -1.9424 -0.4631
  110OSM   H18U11366   5.611   5.223   9.237  2.2458  0.6344  2.3157
  110OSM    C1F11367   5.746   5.909  10.645  0.0607  0.0850 -0.1535
  110OSM     OF11368   5.848   5.894  10.704  0.8175  0.2416  0.4614
  110OSM    C2F11369   5.726   6.007  10.528 -0.1365  0.0086 -0.0074
  110OSM    H2F11370   5.762   6.109  10.552  0.1673  0.6650 -2.8782
  110OSM    H2G11371   5.618   6.025  10.509 -0.5999 -2.9200 -0.6329
  110OSM    C3F11372   5.814   5.960  10.409  0.0447 -0.0606  0.1791
  110OSM    H3F11373   5.924   5.966  10.423  0.3184 -0.6156 -1.4689
  110OSM    H3G11374   5.785   6.030  10.327 -0.1582  0.5162  0.7316
  110OSM    C4F11375   5.793   5.813  10.377 -0.1472  0.2148 -0.0118
  110OSM    H4F11376   5.688   5.779  10.363 -0.7132  1.6151  0.6825
  110OSM    H4G11377   5.823   5.751  10.465  2.9197  0.0249 -1.0868
  110OSM    C5F11378   5.898   5.764  10.274  0.7130  0.1348 -0.1189
  110OSM    H5F11379   5.878   5.655  10.271 -0.4964  0.3645 -1.2554
  110OSM    H5G11380   5.999   5.789  10.313  0.7433  0.1291 -0.1935
  110OSM    C6F11381   5.895   5.833  10.135  1.0539  1.2012  0.2309
  110OSM    H6F11382   5.907   5.944  10.134  1.1983  1.1890  0.4970
  110OSM    H6G11383   5.803   5.827  10.073  0.6078  0.8849  0.9243
  110OSM    C7F11384   6.008   5.774  10.044 -0.8420 -0.1985 -0.3699
  110OSM    H7F11385   6.012   5.666  10.069  0.1876 -0.0543  0.1696
  110OSM    H7G11386   6.105   5.822  10.070 -0.0771 -1.7185 -0.2995
  110OSM    C8F11387   5.993   5.777   9.894 -0.0947 -0.0151 -0.4440
  110OSM    H8F11388   5.907   5.714   9.861 -0.6199  0.6043 -0.2699
  110OSM    H8G11389   6.083   5.726   9.854  0.4211  0.6790 -0.1861
  110OSM    C9F11390   5.983   5.918   9.842 -0.7734  1.0048 -0.2389
  110OSM    H9F11391   5.900   5.973   9.889  0.2590  1.4439  1.1308
  110OSM   C10F11392   6.067   5.972   9.748  0.5000 -0.5375  0.2168
  110OSM   H10F11393   6.045   6.072   9.708 -1.3432 -0.9882 -0.0120
  110OSM   C11F11394   6.189   5.908   9.686  0.2872 -0.5126 -0.2869
  110OSM   H11F11395   6.173   5.799   9.694 -0.8623 -0.4892 -1.8969
  110OSM   H11G11396   6.280   5.942   9.741 -1.1402  2.8435  0.2892
  110OSM   C12F11397   6.210   5.938   9.542  0.0697 -0.1296  0.4028
  110OSM   H12F11398   6.222   6.046   9.521 -2.7609  0.2562  0.4401
  110OSM   H12G11399   6.118   5.892   9.501  0.8303  0.6447 -2.3691
  110OSM   C13F11400   6.319   5.859   9.453  0.1385  0.5835 -0.0349
  110OSM   H13F11401   6.421   5.901   9.466  0.2847  0.6432 -1.2574
  110OSM   H13G11402   6.291   5.860   9.345  0.1986 -1.2917 -0.1093
  110OSM   C14F11403   6.328   5.709   9.485  0.4952  1.1686  0.8487
  110OSM   H14F11404   6.380   5.703   9.582 -0.8244 -0.6603  1.4978
  110OSM   H14G11405   6.398   5.676   9.405 -1.5241  1.5033 -1.1929
  110OSM   C15F11406   6.201   5.624   9.479  0.3489 -0.2005  0.2095
  110OSM   H15F11407   6.133   5.657   9.560 -2.0647  0.4687 -1.9757
  110OSM   H15G11408   6.221   5.515   9.483 -1.5363 -0.5532  2.8811
  110OSM   C16F11409   6.119   5.652   9.353 -0.6548 -0.5881  0.6172
  110OSM   H16F11410   6.180   5.675   9.263 -0.6158 -0.4720  0.6724
  110OSM   H16G11411   6.063   5.748   9.353 -0.3810 -0.3594 -1.8298
  110OSM   C17F11412   6.009   5.551   9.305  0.5270 -0.1329  0.0580
  110OSM   H17F11413   5.934   5.544   9.386 -0.5168 -0.1494 -0.8810
  110OSM   H17G11414   6.061   5.453   9.295  1.3004  0.1025  1.4909
  110OSM   C18F11415   5.940   5.588   9.174 -0.4241  0.5761  0.0985
  110OSM   H18F11416   6.007   5.572   9.087  1.1225  1.6779  1.0359
  110OSM   H18G11417   5.910   5.695   9.168  2.0008  1.2911 -0.3164
  110OSM   H18H11418   5.854   5.519   9.163  2.0768 -2.5571 -1.7105
  111OSM      N11419   4.262   2.677  10.836  0.2956  0.2237  0.2621
  111OSM    C1511420   4.239   2.535  10.799 -0.4847 -0.3258  0.3541
  111OSM   H15A11421   4.197   2.491  10.888  0.6315 -0.7024  0.7124
  111OSM   H15B11422   4.333   2.489  10.774 -0.6642 -0.6095  0.1871
  111OSM   H15C11423   4.173   2.526  10.713  1.6521 -1.2216 -1.3004
  111OSM    C1411424   4.131   2.733  10.871 -0.1133 -0.3403  0.9341
  111OSM   H14A11425   4.146   2.836  10.900 -0.7922 -0.8068  3.1148
  111OSM   H14B11426   4.092   2.678  10.956  2.8101 -1.9542  1.3627
  111OSM   H14C11427   4.068   2.735  10.784  0.2657 -2.5669  0.5471
  111OSM    C1311428   4.357   2.690  10.952  0.3501  0.6739 -0.2438
  111OSM   H13A11429   4.367   2.788  10.997 -0.2607  1.1051 -1.0073
  111OSM   H13B11430   4.454   2.656  10.920  0.2057  0.0765 -0.0499
  111OSM   H13C11431   4.328   2.619  11.028  0.0413 -0.5438 -1.4724
  111OSM    C1211432   4.317   2.749  10.716  0.1394  0.1728  0.4276
  111OSM   H12A11433   4.424   2.734  10.714  0.2394  0.9637 -1.3879
  111OSM   H12B11434   4.320   2.856  10.733  0.8208 -0.0676  2.0851
  111OSM    C1111435   4.265   2.728  10.573  0.5738  0.5815 -0.0169
  111OSM   H11A11436   4.291   2.626  10.537 -1.0676  0.8963 -2.2902
  111OSM   H11B11437   4.325   2.799  10.511  0.1343  0.9975  0.0290
  111OSM      P11438   4.025   2.646  10.483  0.0524 -0.1999 -0.3171
  111OSM    O1311439   3.972   2.553  10.588 -0.1728 -0.1268 -0.1131
  111OSM    O1411440   3.909   2.713  10.414 -0.3587  0.7196  0.0905
  111OSM    O1111441   4.122   2.573  10.383 -0.1073 -0.0403 -0.1113
  111OSM    O1211442   4.125   2.754  10.555  0.4308 -0.3263 -0.1453
  111OSM    C1S11443   4.108   2.435  10.360 -0.3316 -0.1973 -0.9829
  111OSM    H1S11444   4.002   2.401  10.363 -0.6787  0.8971 -0.1155
  111OSM    H1T11445   4.160   2.378  10.439 -0.8101 -0.1904 -0.6561
  111OSM     NF11446   4.156   2.246  10.221  0.3750  0.4835 -0.5335
  111OSM    HNF11447   4.246   2.203  10.216  2.0216  3.7333 -3.4183
  111OSM    C2S11448   4.173   2.393  10.232  0.1488 -0.0472 -0.7289
  111OSM    H2S11449   4.118   2.443  10.150  0.7255  1.1246 -0.4272
  111OSM    C3S11450   4.318   2.447  10.219  0.5641 -0.0370  0.2415
  111OSM    H3S11451   4.380   2.400  10.299 -0.5350 -2.1540 -0.0684
  111OSM     O311452   4.329   2.586  10.229 -0.2029  0.3403 -0.6488
  111OSM    HO311453   4.257   2.603  10.289 -0.3664  0.6591 -0.9281
  111OSM    C4S11454   4.382   2.399  10.094  0.4923 -0.3802 -0.5955
  111OSM    H4S11455   4.431   2.301  10.104  0.1455 -0.3327  2.2195
  111OSM    C5S11456   4.371   2.450   9.970 -0.5758  0.8371 -0.0132
  111OSM    H5S11457   4.310   2.541   9.962 -2.2076 -0.3104 -1.1510
  111OSM    C6S11458   4.436   2.387   9.854  0.0050 -0.9320  0.4328
  111OSM    H6S11459   4.470   2.281   9.859 -1.3679 -1.4611 -0.5276
  111OSM    H6T11460   4.518   2.454   9.821 -0.5345 -0.0668  0.8215
  111OSM    C7S11461   4.333   2.391   9.747  0.0201 -0.8660 -0.8076
  111OSM    H7S11462   4.290   2.493   9.750 -0.5015 -1.1165  0.8218
  111OSM    H7T11463   4.253   2.316   9.760 -1.8195  0.9942 -0.8790
  111OSM    C8S11464   4.401   2.366   9.614 -0.3617 -1.1042  0.1920
  111OSM    H8S11465   4.437   2.260   9.609 -0.0898 -0.9842 -0.4625
  111OSM    H8T11466   4.489   2.433   9.603 -2.0649  1.0794 -0.7416
  111OSM    C9S11467   4.304   2.368   9.500 -0.4809 -0.5896 -0.4062
  111OSM    H9S11468   4.250   2.465   9.493  0.8946  0.2899  0.7142
  111OSM    H9T11469   4.223   2.294   9.519 -0.4021 -0.3817  0.8023
  111OSM   C10S11470   4.384   2.344   9.364 -0.1158 -0.5549  0.7221
  111OSM   H10S11471   4.319   2.336   9.275  1.3877 -0.6108 -0.4199
  111OSM   H10T11472   4.440   2.250   9.383  1.0082  0.1747  1.1365
  111OSM   C11S11473   4.487   2.451   9.335  0.3653 -0.1447  0.0492
  111OSM   H11S11474   4.575   2.457   9.403 -0.5545  0.2180  1.2519
  111OSM   H11T11475   4.444   2.553   9.340 -0.5882 -0.5969  2.0882
  111OSM   C12S11476   4.552   2.430   9.199 -0.4070  0.2206 -0.5500
  111OSM   H12S11477   4.483   2.436   9.113  1.1259  0.7263 -1.7931
  111OSM   H12T11478   4.601   2.331   9.196  2.9746  1.7452 -1.3257
  111OSM   C13S11479   4.661   2.541   9.166  0.0251  0.6011  0.8557
  111OSM   H13S11480   4.727   2.538   9.255 -2.0454 -1.4154  2.4289
  111OSM   H13T11481   4.615   2.642   9.154  1.6226  1.1608 -1.2500
  111OSM   C14S11482   4.726   2.521   9.028 -0.7347  0.8544 -0.3104
  111OSM   H14S11483   4.647   2.501   8.953 -0.4448  1.8378 -0.9119
  111OSM   H14T11484   4.803   2.442   9.028 -1.9838 -0.3952  0.5122
  111OSM   C15S11485   4.799   2.648   8.980 -0.4939  0.0143 -0.4232
  111OSM   H15S11486   4.853   2.695   9.065  0.4144  0.5102 -1.2549
  111OSM   H15T11487   4.727   2.727   8.947  1.2743  1.3903 -1.1730
  111OSM   C16S11488   4.895   2.625   8.856 -0.1961 -0.3027 -0.3635
  111OSM   H16S11489   4.967   2.542   8.871  0.6876  0.3919 -0.6664
  111OSM   H16T11490   4.953   2.717   8.832  1.4310 -0.3172  2.9167
  111OSM   C17S11491   4.808   2.584   8.737 -0.3437  0.0912 -0.3523
  111OSM   H17S11492   4.715   2.643   8.720 -0.1147 -0.0166 -2.0919
  111OSM   H17T11493   4.774   2.480   8.757  0.9230 -1.1141 -3.7612
  111OSM   C18S11494   4.890   2.600   8.605 -0.4757  0.1485  0.1374
  111OSM   H18S11495   4.935   2.702   8.603  1.1184 -0.5379 -0.3589
  111OSM   H18T11496   4.817   2.595   8.522 -1.2647  2.5003  0.5950
  111OSM   H18U11497   4.969   2.523   8.599  1.3710  2.0213 -0.7585
  111OSM    C1F11498   4.041   2.184  10.194 -0.2650  0.0544  0.7369
  111OSM     OF11499   3.937   2.246  10.189  0.1614  0.1396 -0.6922
  111OSM    C2F11500   4.055   2.042  10.160  0.2887 -0.3489 -0.7269
  111OSM    H2F11501   4.023   1.973  10.241 -0.5571  0.1954 -0.5751
  111OSM    H2G11502   4.164   2.029  10.146  0.4313  0.0114 -0.0061
  111OSM    C3F11503   3.984   1.993  10.021  0.1845 -0.9648 -0.0402
  111OSM    H3F11504   3.876   2.016  10.025 -0.2723 -2.5275 -1.8342
  111OSM    H3G11505   4.002   1.883  10.023  3.2145 -0.5716 -0.0438
  111OSM    C4F11506   4.048   2.064   9.903  0.7954 -0.2380 -0.2219
  111OSM    H4F11507   4.150   2.023   9.888  0.8634 -1.1965  2.2955
  111OSM    H4G11508   4.067   2.172   9.920  2.1399 -0.0311 -2.6747
  111OSM    C5F11509   3.964   2.062   9.774 -0.1105 -0.0640  0.1121
  111OSM    H5F11510   3.875   2.128   9.785 -1.6569 -1.8379 -0.9896
  111OSM    H5G11511   3.933   1.959   9.747  3.0839 -0.7283 -1.3948
  111OSM    C6F11512   4.049   2.117   9.659 -0.7888 -0.0241  0.3080
  111OSM    H6F11513   4.122   2.038   9.630  0.7662  1.9123 -1.2995
  111OSM    H6G11514   4.104   2.204   9.700 -0.8389 -0.1545  0.6567
  111OSM    C7F11515   3.970   2.164   9.533  0.0850  0.1340  0.0649
  111OSM    H7F11516   4.037   2.190   9.449 -0.2738  0.2772 -0.1807
  111OSM    H7G11517   3.922   2.260   9.560  1.9817  0.7000  1.6785
  111OSM    C8F11518   3.856   2.069   9.482 -0.5243  0.3069 -0.2844
  111OSM    H8F11519   3.796   2.148   9.431  0.6927  1.5480  0.1282
  111OSM    H8G11520   3.796   2.019   9.561  0.3139  1.7782  1.3824
  111OSM    C9F11521   3.909   1.974   9.387 -0.0426 -0.1307  0.3013
  111OSM    H9F11522   3.990   1.915   9.431 -0.6743 -0.2407  1.3685
  111OSM   C10F11523   3.886   1.961   9.250 -0.5042 -0.2056 -0.5346
  111OSM   H10F11524   3.944   1.881   9.201 -0.2766  0.1259 -0.8193
  111OSM   C11F11525   3.779   2.033   9.170 -0.3303 -0.7607  0.2888
  111OSM   H11F11526   3.686   2.049   9.229 -0.0635  1.8613  0.0856
  111OSM   H11G11527   3.752   1.959   9.091  1.4926  0.7772 -1.8969
  111OSM   C12F11528   3.812   2.175   9.116  1.1333 -0.5755  0.7026
  111OSM   H12F11529   3.830   2.245   9.200  0.5172 -0.3455  0.6457
  111OSM   H12G11530   3.723   2.215   9.064  2.0767  0.8427  0.1291
  111OSM   C13F11531   3.931   2.165   9.027  0.1698 -0.3531  0.3166
  111OSM   H13F11532   3.898   2.107   8.939 -0.4853 -2.6947  1.9923
  111OSM   H13G11533   4.010   2.111   9.085  0.5757 -0.9265 -0.7497
  111OSM   C14F11534   3.980   2.296   8.972 -0.0134 -0.7766  0.8184
  111OSM   H14F11535   4.014   2.352   9.062 -3.3130  0.9607  1.1706
  111OSM   H14G11536   3.904   2.351   8.911 -0.7345 -3.2474 -0.6345
  111OSM   C15F11537   4.109   2.273   8.885  0.6203  0.5268 -0.1194
  111OSM   H15F11538   4.082   2.228   8.787 -1.1391  2.9802 -0.8693
  111OSM   H15G11539   4.180   2.219   8.951  1.8348  3.9898  1.6625
  111OSM   C16F11540   4.179   2.398   8.833  0.6616  0.3400 -0.5241
  111OSM   H16F11541   4.197   2.453   8.927 -0.8146 -0.8740  0.5182
  111OSM   H16G11542   4.108   2.459   8.773 -0.3456 -1.8676 -1.6894
  111OSM   C17F11543   4.313   2.369   8.761  1.2981  0.7559  0.1098
  111OSM   H17F11544   4.295   2.331   8.658 -1.1409 -0.1228  0.7984
  111OSM   H17G11545   4.376   2.297   8.818 -0.5759  0.3820  1.8366
  111OSM   C18F11546   4.395   2.493   8.738 -0.2436 -0.1697  0.0481
  111OSM   H18F11547   4.487   2.461   8.686  0.6036  1.1053  0.7068
  111OSM   H18G11548   4.424   2.544   8.832 -0.4005  1.6474 -0.8365
  111OSM   H18H11549   4.344   2.577   8.687 -0.0376 -0.6638 -0.9930
  112OSM      N11550   4.686   0.118  10.981  0.4473 -0.2439  0.1444
  112OSM    C1511551   4.562   0.066  10.909 -0.0610  0.0774  0.1548
  112OSM   H15A11552   4.568   0.124  10.818 -0.6151  2.2701  1.4468
  112OSM   H15B11553   4.471   0.089  10.962  0.0083 -1.8763  1.2237
  112OSM   H15C11554   4.563  -0.038  10.879 -2.3727 -0.0972  0.4532
  112OSM    C1411555   4.674   0.265  10.996 -0.5480 -0.4359  0.2496
  112OSM   H14A11556   4.662   0.305  10.896 -0.6828 -1.7608 -0.2897
  112OSM   H14B11557   4.762   0.302  11.047 -0.0404 -1.6182  0.2554
  112OSM   H14C11558   4.588   0.283  11.059  0.3927 -0.6534  1.6497
  112OSM    C1311559   4.685   0.062  11.114  0.7762 -0.2568 -0.0869
  112OSM   H13A11560   4.685  -0.046  11.111 -2.1297 -0.3616  0.3809
  112OSM   H13B11561   4.587   0.072  11.159  0.4772 -2.2700 -0.1904
  112OSM   H13C11562   4.756   0.107  11.183  0.0666  1.8690 -0.6654
  112OSM    C1211563   4.823   0.094  10.912  0.1853  0.2534  0.4542
  112OSM   H12A11564   4.844  -0.007  10.944 -0.1113  0.2452  0.6332
  112OSM   H12B11565   4.902   0.155  10.953  0.2203 -0.6962  1.9033
  112OSM    C1111566   4.831   0.109  10.759 -0.0414  0.3909  0.1571
  112OSM   H11A11567   4.753   0.043  10.715 -0.1713 -1.4964  2.9668
  112OSM   H11B11568   4.928   0.069  10.721 -1.1158 -1.4491 -0.8029
  112OSM      P11569   4.908   0.352  10.680  0.0605  0.2333  0.0364
  112OSM    O1311570   4.842   0.482  10.674  0.0877  0.2603 -0.1179
  112OSM    O1411571   5.024   0.341  10.766  0.4969  0.7189  0.2482
  112OSM    O1111572   4.947   0.307  10.531 -1.0266 -0.4177  0.2080
  112OSM    O1211573   4.806   0.243  10.723 -0.3984  0.6002  0.0322
  112OSM    C1S11574   4.846   0.301  10.429 -1.0305 -0.6461 -0.0957
  112OSM    H1S11575   4.830   0.408  10.402 -0.4202 -0.9177 -1.6364
  112OSM    H1T11576   4.755   0.252  10.470 -0.8684 -0.9588 -0.1113
  112OSM     NF11577   4.812   0.217  10.196 -0.4181  0.5540  0.2095
  112OSM    HNF11578   4.774   0.129  10.168 -1.3054  1.2510 -0.8765
  112OSM    C2S11579   4.906   0.218  10.311 -0.2148 -0.4258 -0.0731
  112OSM    H2S11580   4.998   0.264  10.269  0.8103 -1.1837  1.2730
  112OSM    C3S11581   4.951   0.078  10.362 -0.2496  0.0993 -0.1818
  112OSM    H3S11582   4.865   0.032  10.415 -0.3419  0.9546  0.4282
  112OSM     O311583   5.061   0.082  10.456  0.1834 -0.6756  0.1110
  112OSM    HO311584   5.055   0.176  10.477  2.3132 -0.4064 -0.3433
  112OSM    C4S11585   4.982  -0.006  10.244 -0.5960  0.5104 -0.3552
  112OSM    H4S11586   4.896  -0.061  10.202 -0.7872 -0.7117  1.5148
  112OSM    C5S11587   5.097  -0.010  10.177 -0.1835  0.4246 -0.0591
  112OSM    H5S11588   5.180   0.045  10.223  0.3998 -0.3277 -0.1724
  112OSM    C6S11589   5.136  -0.101  10.063  0.1645 -0.2033  0.4112
  112OSM    H6S11590   5.226  -0.163  10.083  0.2013 -0.2084  0.2302
  112OSM    H6T11591   5.161  -0.043   9.972  0.6820 -2.0490 -0.6724
  112OSM    C7S11592   5.027  -0.193  10.010 -0.3605  0.3126 -0.5629
  112OSM    H7S11593   4.958  -0.128   9.952 -1.7628 -0.7113 -0.1100
  112OSM    H7T11594   4.961  -0.233  10.090  0.5526 -0.2466 -0.0735
  112OSM    C8S11595   5.075  -0.301   9.907  0.3484 -0.0708 -0.2151
  112OSM    H8S11596   5.099  -0.256   9.808  1.5546 -2.0205 -0.8525
  112OSM    H8T11597   4.976  -0.348   9.894  0.2857 -0.2938  0.9168
  112OSM    C9S11598   5.182  -0.406   9.943 -0.0733  0.2590  0.8224
  112OSM    H9S11599   5.158  -0.431  10.049 -0.1314 -0.8667  0.5549
  112OSM    H9T11600   5.280  -0.358   9.922 -0.7633  1.3251 -0.0580
  112OSM   C10S11601   5.166  -0.544   9.872 -0.0798 -0.0881 -0.1750
  112OSM   H10S11602   5.072  -0.585   9.913  0.0747 -1.5096 -1.1652
  112OSM   H10T11603   5.250  -0.616   9.883  1.4376  1.5307 -0.6228
  112OSM   C11S11604   5.146  -0.525   9.715  0.0561 -0.0703  0.3999
  112OSM   H11S11605   5.246  -0.490   9.679  0.3448 -0.2600  1.0024
  112OSM   H11T11606   5.077  -0.438   9.709  1.7540  1.3205 -0.1356
  112OSM   C12S11607   5.088  -0.652   9.649  0.0996  0.3994  0.6852
  112OSM   H12S11608   4.986  -0.659   9.693 -0.3465 -1.2346 -0.5171
  112OSM   H12T11609   5.138  -0.745   9.683 -1.3429 -0.5339  0.3498
  112OSM   C13S11610   5.070  -0.631   9.494 -0.3852 -0.3290 -0.0245
  112OSM   H13S11611   5.154  -0.666   9.431 -0.9404 -0.6023 -0.6191
  112OSM   H13T11612   5.074  -0.522   9.469 -1.5418 -0.6301 -1.6961
  112OSM   C14S11613   4.932  -0.688   9.449 -0.4604  0.2509 -0.6066
  112OSM   H14S11614   4.856  -0.629   9.505  0.9071 -0.7784  2.5800
  112OSM   H14T11615   4.925  -0.795   9.477 -0.5905 -0.0251 -1.6432
  112OSM   C15S11616   4.910  -0.657   9.300 -0.5067  0.0391 -0.0700
  112OSM   H15S11617   4.804  -0.687   9.284 -0.4682 -1.3701  1.9643
  112OSM   H15T11618   4.979  -0.717   9.237 -1.3030 -0.6406 -0.3192
  112OSM   C16S11619   4.925  -0.517   9.258 -0.3856  0.5324 -0.2105
  112OSM   H16S11620   5.031  -0.486   9.252 -0.8787  2.1567 -1.1405
  112OSM   H16T11621   4.891  -0.443   9.334 -0.6061 -0.5898  0.8129
  112OSM   C17S11622   4.873  -0.497   9.119 -0.2816 -0.0154 -1.0040
  112OSM   H17S11623   4.773  -0.543   9.123 -0.1488 -0.2435  1.4767
  112OSM   H17T11624   4.940  -0.550   9.048 -1.4633 -1.1163 -1.3170
  112OSM   C18S11625   4.869  -0.357   9.082 -0.1190 -0.2873 -0.1401
  112OSM   H18S11626   4.838  -0.349   8.975  0.1042 -0.8510 -0.2477
  112OSM   H18T11627   4.968  -0.307   9.087 -0.8987  1.5133 -1.5743
  112OSM   H18U11628   4.806  -0.291   9.146 -0.4430 -0.9522  0.2320
  112OSM    C1F11629   4.782   0.330  10.123  0.5456  0.2250  0.2927
  112OSM     OF11630   4.830   0.439  10.159  0.4603  0.4251  0.0656
  112OSM    C2F11631   4.693   0.318  10.000  0.6439  0.2484  0.8037
  112OSM    H2F11632   4.633   0.225  10.013  0.6292  0.3627  1.6604
  112OSM    H2G11633   4.765   0.294   9.919  0.8585 -1.9940  1.5915
  112OSM    C3F11634   4.598   0.430   9.973 -0.1997  0.1582 -0.6000
  112OSM    H3F11635   4.673   0.508   9.947 -0.2124  1.2217  2.1763
  112OSM    H3G11636   4.542   0.454  10.066  1.6923 -2.1514  1.2599
  112OSM    C4F11637   4.502   0.422   9.852 -0.1597 -0.1191  0.9037
  112OSM    H4F11638   4.556   0.409   9.755 -0.9126 -3.5255  0.8095
  112OSM    H4G11639   4.446   0.518   9.847 -0.1847 -0.1793 -0.5080
  112OSM    C5F11640   4.395   0.312   9.865 -0.1908  0.5638 -0.2824
  112OSM    H5F11641   4.351   0.320   9.966 -1.5608 -0.1806 -0.7987
  112OSM    H5G11642   4.438   0.210   9.865 -1.4793 -0.0045  0.7534
  112OSM    C6F11643   4.302   0.323   9.754  0.4354  0.4249 -0.2325
  112OSM    H6F11644   4.358   0.350   9.662  0.1552 -0.3302 -0.6324
  112OSM    H6G11645   4.245   0.417   9.774 -2.6703 -0.6423 -3.1420
  112OSM    C7F11646   4.194   0.221   9.732  0.1241 -0.2873  0.1642
  112OSM    H7F11647   4.124   0.270   9.661 -0.0129 -1.0691 -0.2558
  112OSM    H7G11648   4.133   0.195   9.821 -0.9309 -0.5077 -0.6029
  112OSM    C8F11649   4.249   0.100   9.664  0.4389 -0.1246  0.3584
  112OSM    H8F11650   4.173   0.019   9.663 -1.0771  1.2065 -1.6524
  112OSM    H8G11651   4.330   0.059   9.727  0.2268 -1.3667 -0.1484
  112OSM    C9F11652   4.292   0.134   9.523 -0.7281  0.6589 -0.0295
  112OSM    H9F11653   4.379   0.200   9.521  0.8240 -1.3006 -0.4613
  112OSM   C10F11654   4.251   0.093   9.405  0.4416  0.1988  0.3455
  112OSM   H10F11655   4.289   0.138   9.312 -1.1493  1.5966  0.3110
  112OSM   C11F11656   4.140   0.002   9.367  0.5460 -0.6345 -0.3092
  112OSM   H11F11657   4.106   0.012   9.262 -1.7078 -1.2599  0.3130
  112OSM   H11G11658   4.055   0.036   9.430  1.4814  2.0723 -0.3521
  112OSM   C12F11659   4.159  -0.143   9.397  0.0656  0.2577 -0.0919
  112OSM   H12F11660   4.216  -0.165   9.489  1.4277  1.3129 -0.6377
  112OSM   H12G11661   4.222  -0.184   9.315 -1.0776 -1.4814 -0.1573
  112OSM   C13F11662   4.024  -0.212   9.414 -0.3693 -0.5262  0.1049
  112OSM   H13F11663   3.964  -0.191   9.323 -3.3138 -0.6274  1.8682
  112OSM   H13G11664   3.965  -0.170   9.499 -1.4384  0.3770 -1.0389
  112OSM   C14F11665   4.030  -0.364   9.438 -0.6893 -0.1158  1.4102
  112OSM   H14F11666   4.092  -0.412   9.359 -3.4087  1.7800 -2.1901
  112OSM   H14G11667   3.924  -0.396   9.424 -1.0360 -0.0044  3.5063
  112OSM   C15F11668   4.097  -0.404   9.573  0.3069 -0.2582  0.0518
  112OSM   H15F11669   4.202  -0.369   9.564 -0.9776  3.9680 -0.6474
  112OSM   H15G11670   4.099  -0.515   9.578  1.6173 -0.2991 -0.7939
  112OSM   C16F11671   4.036  -0.360   9.706  0.2148 -0.1005 -0.4067
  112OSM   H16F11672   3.941  -0.418   9.708 -0.7645  1.3730 -1.3673
  112OSM   H16G11673   4.027  -0.251   9.686  4.0164  0.5735  0.8413
  112OSM   C17F11674   4.132  -0.369   9.826 -0.2805  0.0815  0.0788
  112OSM   H17F11675   4.096  -0.322   9.920  1.0379 -0.6506  0.9826
  112OSM   H17G11676   4.225  -0.316   9.799 -0.6017 -0.2828 -1.8546
  112OSM   C18F11677   4.168  -0.514   9.860  0.0271  0.3933 -0.2310
  112OSM   H18F11678   4.225  -0.536   9.952 -0.6761 -1.6230 -0.2482
  112OSM   H18G11679   4.215  -0.569   9.775  0.8702 -2.9700  2.2060
  112OSM   H18H11680   4.068  -0.557   9.882 -0.4776  1.6273 -0.0075
  113OSM      N11681   6.018   0.854  10.751  0.3771 -0.5159 -0.6130
  113OSM    C1511682   5.978   0.985  10.678  0.3597 -1.1417  0.7258
  113OSM   H15A11683   6.063   1.044  10.647  0.3217  1.3426  4.7453
  113OSM   H15B11684   5.929   1.049  10.750  0.5041  0.7037 -0.7508
  113OSM   H15C11685   5.905   0.969  10.600 -0.0701  3.0752  0.0310
  113OSM    C1411686   6.087   0.884  10.878  0.4239  0.0286 -0.2889
  113OSM   H14A11687   6.025   0.922  10.959  0.2549  1.3121 -0.9826
  113OSM   H14B11688   6.163   0.960  10.869  0.5276  0.0145  0.4109
  113OSM   H14C11689   6.136   0.795  10.914 -1.4004 -0.7965  0.2812
  113OSM    C1311690   5.905   0.767  10.787 -1.1217 -0.2623 -0.0517
  113OSM   H13A11691   5.952   0.681  10.833  0.7408  0.1986 -1.0109
  113OSM   H13B11692   5.862   0.732  10.694 -2.2740  1.1752 -0.0775
  113OSM   H13C11693   5.830   0.811  10.851  0.7994  0.8470  1.5823
  113OSM    C1211694   6.105   0.772  10.660 -0.1692  0.2659  0.1992
  113OSM   H12A11695   6.205   0.812  10.651 -0.6992  1.3179 -1.3887
  113OSM   H12B11696   6.055   0.777  10.565 -2.1254 -0.4031  1.1283
  113OSM    C1111697   6.125   0.620  10.689 -0.9498  0.1976 -0.0621
  113OSM   H11A11698   6.204   0.584  10.619 -1.5839  0.2558 -0.8160
  113OSM   H11B11699   6.031   0.565  10.671 -0.0656 -2.1685  1.9035
  113OSM      P11700   6.154   0.468  10.900  0.3150 -0.0309 -0.0293
  113OSM    O1311701   6.271   0.458  10.998  0.6484  0.2097 -0.1686
  113OSM    O1411702   6.022   0.456  10.964 -0.3813  0.2311  0.8436
  113OSM    O1111703   6.171   0.369  10.780 -0.1713 -0.3926  0.4353
  113OSM    O1211704   6.169   0.605  10.825 -0.2678 -0.1909 -0.2067
  113OSM    C1S11705   6.067   0.296  10.709 -1.0377 -0.0775 -0.3311
  113OSM    H1S11706   5.967   0.334  10.738 -0.0581  1.2814  1.4124
  113OSM    H1T11707   6.061   0.194  10.754  0.2444 -0.9637 -2.0327
  113OSM     NF11708   5.952   0.254  10.495  0.2522 -0.0587 -0.6578
  113OSM    HNF11709   5.942   0.162  10.458  0.1070 -0.2179 -0.2239
  113OSM    C2S11710   6.079   0.289  10.554  0.4714 -0.2607  0.6212
  113OSM    H2S11711   6.101   0.385  10.502 -0.6481 -0.2853  0.0724
  113OSM    C3S11712   6.193   0.185  10.522 -0.1788 -0.0115  0.6165
  113OSM    H3S11713   6.174   0.095  10.585  0.3330  0.2436  1.1522
  113OSM     O311714   6.318   0.233  10.563  0.3658  0.2223 -0.0691
  113OSM    HO311715   6.295   0.298  10.630 -1.2492 -0.4387  0.0626
  113OSM    C4S11716   6.209   0.164  10.375  0.3236  0.4638  0.0118
  113OSM    H4S11717   6.259   0.250  10.328 -0.3448  1.7898  1.6100
  113OSM    C5S11718   6.165   0.056  10.308  0.6960  0.6359  0.0048
  113OSM    H5S11719   6.126  -0.026  10.370  0.3478  0.8540  0.0778
  113OSM    C6S11720   6.192   0.033  10.161 -0.0938  0.5450 -0.1520
  113OSM    H6S11721   6.230  -0.071  10.162 -0.4455  0.4153 -0.0673
  113OSM    H6T11722   6.279   0.088  10.120  0.5834 -1.1861 -1.1934
  113OSM    C7S11723   6.071   0.038  10.061  0.0675  0.2784  0.2513
  113OSM    H7S11724   6.035   0.144  10.060  2.2314  1.0830  1.1680
  113OSM    H7T11725   5.993  -0.031  10.101  0.3472  0.5318  1.2839
  113OSM    C8S11726   6.111  -0.017   9.923 -0.2186 -0.1968 -0.1245
  113OSM    H8S11727   6.146  -0.120   9.943 -2.0775 -1.0472 -1.0216
  113OSM    H8T11728   6.196   0.045   9.887  0.4510 -0.4144  1.0184
  113OSM    C9S11729   6.001  -0.037   9.818  0.0438 -0.7764 -0.4233
  113OSM    H9S11730   5.971   0.068   9.798  0.3140 -0.6756 -0.3078
  113OSM    H9T11731   5.920  -0.093   9.869  1.5559 -3.1044 -0.4092
  113OSM   C10S11732   6.034  -0.113   9.677 -0.2346  0.0162 -0.3803
  113OSM   H10S11733   6.069  -0.214   9.708  3.7397  0.6695 -2.0683
  113OSM   H10T11734   6.118  -0.057   9.629  0.8616 -0.9845  0.3097
  113OSM   C11S11735   5.914  -0.106   9.585 -0.2708  0.1918 -0.6132
  113OSM   H11S11736   5.896  -0.004   9.547 -0.6582  0.4718  0.2946
  113OSM   H11T11737   5.824  -0.141   9.640  0.5641 -0.2428  0.5160
  113OSM   C12S11738   5.918  -0.187   9.448 -0.2888 -0.3191  0.3092
  113OSM   H12S11739   5.923  -0.295   9.474  1.5006  0.2502  2.6268
  113OSM   H12T11740   6.010  -0.169   9.388 -1.4004  0.9419 -1.1048
  113OSM   C13S11741   5.807  -0.136   9.360 -0.6535  0.3585 -0.3971
  113OSM   H13S11742   5.837  -0.039   9.314 -1.2643  0.1589 -1.2405
  113OSM   H13T11743   5.712  -0.134   9.417 -2.4072 -0.0688 -3.1072
  113OSM   C14S11744   5.779  -0.230   9.246 -0.5964  0.2481 -0.4175
  113OSM   H14S11745   5.741  -0.313   9.310 -1.1147  0.9935  0.2521
  113OSM   H14T11746   5.871  -0.254   9.188 -0.5437  0.2996 -0.3557
  113OSM   C15S11747   5.665  -0.201   9.155  0.1712  0.2219  0.0338
  113OSM   H15S11748   5.575  -0.183   9.218  0.0982 -0.6990  0.2075
  113OSM   H15T11749   5.645  -0.283   9.083  0.8842  1.0462 -1.1383
  113OSM   C16S11750   5.695  -0.069   9.076 -0.4425 -0.0816  0.1063
  113OSM   H16S11751   5.803  -0.078   9.055 -0.4565 -1.9678  0.6210
  113OSM   H16T11752   5.674   0.024   9.133  0.7164 -0.0725  0.5485
  113OSM   C17S11753   5.603  -0.050   8.960  0.0692  0.2102  0.0365
  113OSM   H17S11754   5.497  -0.048   8.993 -0.3278 -1.1740 -1.0253
  113OSM   H17T11755   5.600  -0.136   8.889  0.6347 -0.4842  0.8391
  113OSM   C18S11756   5.631   0.073   8.879 -0.0591 -0.1963  0.3443
  113OSM   H18S11757   5.606   0.168   8.932  2.3823  0.4953  0.3600
  113OSM   H18T11758   5.560   0.066   8.794  1.3256 -0.5199 -0.8166
  113OSM   H18U11759   5.733   0.087   8.837  0.0552 -2.3721 -0.2220
  113OSM    C1F11760   5.855   0.344  10.477 -0.1657 -0.2645 -0.0747
  113OSM     OF11761   5.850   0.446  10.546  0.1436 -0.7358 -0.5607
  113OSM    C2F11762   5.748   0.311  10.378 -0.2030 -0.1237  0.3818
  113OSM    H2F11763   5.671   0.387  10.401  0.4665  0.0967  2.1067
  113OSM    H2G11764   5.695   0.215  10.396 -2.4802  0.6442 -1.6540
  113OSM    C3F11765   5.791   0.322  10.224  0.0366 -0.1674  0.0657
  113OSM    H3F11766   5.702   0.286  10.170  0.1828  0.5308 -0.6533
  113OSM    H3G11767   5.879   0.260  10.197  0.7187 -0.5355  2.7902
  113OSM    C4F11768   5.805   0.472  10.179  0.5516  0.0745 -0.5984
  113OSM    H4F11769   5.891   0.514  10.235  1.2725 -0.6457 -1.1442
  113OSM    H4G11770   5.711   0.523  10.210  1.2194  1.1042 -0.2259
  113OSM    C5F11771   5.812   0.482  10.031  0.1968  0.4507 -0.0167
  113OSM    H5F11772   5.889   0.413   9.989 -1.6068 -1.8210  0.2350
  113OSM    H5G11773   5.830   0.589  10.007 -1.9811  0.8263 -0.1666
  113OSM    C6F11774   5.679   0.462   9.954 -0.5750 -0.4935 -0.2509
  113OSM    H6F11775   5.590   0.510  10.000 -1.4154  1.2906 -3.4232
  113OSM    H6G11776   5.669   0.353   9.934  0.0176 -0.6501  0.2720
  113OSM    C7F11777   5.689   0.503   9.808  0.2549 -0.3087  0.5816
  113OSM    H7F11778   5.707   0.612   9.809 -0.4274 -0.1544 -0.7257
  113OSM    H7G11779   5.587   0.494   9.763 -0.9860 -0.8492  3.3096
  113OSM    C8F11780   5.794   0.426   9.723 -0.3097 -0.4201  0.7778
  113OSM    H8F11781   5.885   0.427   9.787  0.9183 -0.0444 -0.8947
  113OSM    H8G11782   5.816   0.484   9.631  0.3538 -0.1756  1.0863
  113OSM    C9F11783   5.756   0.283   9.700 -0.0401 -0.5515 -0.0821
  113OSM    H9F11784   5.758   0.220   9.790 -2.6291 -0.6246  0.0123
  113OSM   C10F11785   5.731   0.229   9.580  0.3878 -0.1571  0.0570
  113OSM   H10F11786   5.725   0.120   9.568 -1.1614 -0.1543  0.5769
  113OSM   C11F11787   5.722   0.298   9.441 -0.0142  0.2819 -0.3539
  113OSM   H11F11788   5.827   0.291   9.405  0.2379 -1.0728  0.5604
  113OSM   H11G11789   5.692   0.404   9.456 -0.4138  0.2849 -1.1286
  113OSM   C12F11790   5.622   0.234   9.346  0.1779  0.0414  0.1278
  113OSM   H12F11791   5.661   0.132   9.324  1.9953  0.2989  1.8592
  113OSM   H12G11792   5.620   0.287   9.249  0.8543  2.4514  1.3649
  113OSM   C13F11793   5.477   0.245   9.383 -0.4599 -0.1193  0.2196
  113OSM   H13F11794   5.461   0.349   9.418  0.2889  0.9242 -2.3685
  113OSM   H13G11795   5.463   0.169   9.464 -2.6843  1.0969  1.0593
  113OSM   C14F11796   5.396   0.192   9.261 -0.4753  0.0763  0.6969
  113OSM   H14F11797   5.430   0.088   9.243  0.4395  0.2776  1.2081
  113OSM   H14G11798   5.417   0.255   9.171 -0.2956 -0.9714 -0.0044
  113OSM   C15F11799   5.238   0.191   9.280 -0.3097 -0.6410 -0.8715
  113OSM   H15F11800   5.213   0.281   9.340  1.1799 -0.5518 -0.3226
  113OSM   H15G11801   5.207   0.099   9.334  1.0831 -0.3276  0.5455
  113OSM   C16F11802   5.160   0.206   9.151  0.7944  0.4616 -0.1593
  113OSM   H16F11803   5.198   0.285   9.083  1.0071 -0.0728 -0.6758
  113OSM   H16G11804   5.056   0.236   9.174  0.5905 -1.4056  1.7078
  113OSM   C17F11805   5.165   0.079   9.063  0.2348 -0.2879 -0.7549
  113OSM   H17F11806   5.268   0.041   9.044 -0.1779 -1.7329 -0.1533
  113OSM   H17G11807   5.119   0.106   8.966 -1.2427  0.7308  0.1890
  113OSM   C18F11808   5.072  -0.037   9.116 -0.1084  0.0862  0.3386
  113OSM   H18F11809   5.081  -0.128   9.054 -2.0210  1.4628 -2.1621
  113OSM   H18G11810   4.968   0.002   9.107  0.0143  0.2844 -0.3153
  113OSM   H18H11811   5.104  -0.072   9.216  1.0302 -0.0579 -0.0645
  114OSM      N11812   6.485   4.633  11.665 -0.4592 -0.1838  0.1582
  114OSM    C1511813   6.573   4.513  11.677  0.6238  0.1792 -0.2499
  114OSM   H15A11814   6.579   4.473  11.777  0.2844 -1.6406 -0.9246
  114OSM   H15B11815   6.672   4.555  11.662 -0.3258  2.3185 -1.0752
  114OSM   H15C11816   6.558   4.440  11.599  2.6361 -2.0394  1.3082
  114OSM    C1411817   6.346   4.582  11.679 -0.9942 -0.1067 -0.4425
  114OSM   H14A11818   6.281   4.668  11.670 -0.5781  0.2421 -0.1211
  114OSM   H14B11819   6.342   4.526  11.771  1.5187  0.7259  0.2425
  114OSM   H14C11820   6.323   4.517  11.596 -1.7681  1.1013 -1.2030
  114OSM    C1311821   6.516   4.728  11.778 -0.2061  0.5531  0.1035
  114OSM   H13A11822   6.453   4.816  11.776 -0.2229  0.5454  0.2752
  114OSM   H13B11823   6.620   4.752  11.789 -0.7068  3.2436 -0.3216
  114OSM   H13C11824   6.492   4.680  11.872 -1.4679  0.4138 -0.2678
  114OSM    C1211825   6.505   4.699  11.527  0.2293 -0.2090  0.1591
  114OSM   H12A11826   6.605   4.739  11.524 -0.2493  0.9840 -1.4702
  114OSM   H12B11827   6.446   4.789  11.529  0.4212 -0.0346 -1.1415
  114OSM    C1111828   6.483   4.610  11.402  0.1062  0.4511 -0.4123
  114OSM   H11A11829   6.542   4.518  11.424  0.3248  0.1486 -2.0949
  114OSM   H11B11830   6.525   4.665  11.315 -0.4907  1.6625  0.0564
  114OSM      P11831   6.304   4.451  11.292 -0.0696 -0.2451 -0.2532
  114OSM    O1311832   6.320   4.326  11.376  1.1337  0.0664 -0.5860
  114OSM    O1411833   6.172   4.469  11.228  0.2686  0.0888  0.7267
  114OSM    O1111834   6.421   4.435  11.179  0.4358 -0.6030 -0.2272
  114OSM    O1211835   6.348   4.581  11.374  0.6418 -0.0389  0.0864
  114OSM    C1S11836   6.417   4.533  11.069 -0.4696 -0.1216 -0.1621
  114OSM    H1S11837   6.489   4.613  11.097 -0.9401  0.2007  0.1442
  114OSM    H1T11838   6.316   4.574  11.048 -0.4267 -0.3648 -0.8746
  114OSM     NF11839   6.526   4.582  10.856  0.5712  0.3105 -0.1577
  114OSM    HNF11840   6.472   4.597  10.773 -0.8220  1.1139  0.8533
  114OSM    C2S11841   6.481   4.478  10.940  0.2425 -0.2657  0.0711
  114OSM    H2S11842   6.569   4.415  10.967  0.2165 -1.3814 -2.2177
  114OSM    C3S11843   6.379   4.379  10.881 -0.5128  0.3478  0.0890
  114OSM    H3S11844   6.287   4.437  10.858  0.8104  1.8523 -1.7211
  114OSM     O311845   6.339   4.276  10.965 -0.0353 -0.0669  0.0477
  114OSM    HO311846   6.375   4.316  11.044  2.4093 -0.4491 -0.7958
  114OSM    C4S11847   6.433   4.330  10.750  0.7093  0.7144  0.4556
  114OSM    H4S11848   6.541   4.308  10.750  0.1556 -2.4655  0.1927
  114OSM    C5S11849   6.367   4.317  10.628  0.0610 -0.3850  0.4184
  114OSM    H5S11850   6.258   4.330  10.619 -0.1367 -1.8463  0.4547
  114OSM    C6S11851   6.426   4.276  10.489  0.3199  0.3286 -0.1660
  114OSM    H6S11852   6.367   4.186  10.459 -1.0863  1.2140 -0.1533
  114OSM    H6T11853   6.529   4.234  10.494 -0.3180 -1.1615  2.1606
  114OSM    C7S11854   6.411   4.378  10.373 -0.0215  0.1281 -0.7642
  114OSM    H7S11855   6.456   4.475  10.403 -0.9187  0.4189 -0.3333
  114OSM    H7T11856   6.306   4.396  10.342  0.2643  2.1075 -0.7144
  114OSM    C8S11857   6.489   4.334  10.245 -0.2526 -0.0318 -0.2710
  114OSM    H8S11858   6.460   4.231  10.218  2.3661 -0.9015 -0.0517
  114OSM    H8T11859   6.596   4.323  10.274 -0.4013 -0.3791  0.1432
  114OSM    C9S11860   6.463   4.429  10.129  0.0942  0.0749 -0.2853
  114OSM    H9S11861   6.487   4.533  10.161  1.4840  0.1511 -1.4554
  114OSM    H9T11862   6.356   4.431  10.097  0.1035  0.8681 -0.2874
  114OSM   C10S11863   6.553   4.395  10.002 -0.6102  0.1025 -0.4121
  114OSM   H10S11864   6.515   4.299   9.962 -0.4230  0.3285 -1.1536
  114OSM   H10T11865   6.655   4.386  10.045 -0.3920  0.4044 -0.8562
  114OSM   C11S11866   6.550   4.513   9.896 -0.2780  0.5320 -1.0136
  114OSM   H11S11867   6.580   4.606   9.949 -2.3817  0.4780  0.3856
  114OSM   H11T11868   6.444   4.543   9.881 -1.0448 -1.4086  0.1363
  114OSM   C12S11869   6.617   4.487   9.768 -0.3620  0.1455  0.2883
  114OSM   H12S11870   6.572   4.394   9.726 -0.5029  1.1092 -1.8198
  114OSM   H12T11871   6.721   4.458   9.791 -0.3638  0.8456  1.2233
  114OSM   C13S11872   6.629   4.606   9.671 -0.4379  0.1725 -0.3611
  114OSM   H13S11873   6.691   4.690   9.710 -1.0596 -0.4340  2.0923
  114OSM   H13T11874   6.526   4.640   9.653 -1.2285 -2.1029 -0.5249
  114OSM   C14S11875   6.694   4.558   9.536  1.0192  0.6157 -0.3318
  114OSM   H14S11876   6.639   4.467   9.502  0.0731  1.2338 -0.5168
  114OSM   H14T11877   6.801   4.536   9.556  0.9081  1.4078  1.2736
  114OSM   C15S11878   6.684   4.669   9.436  0.7570 -0.3236  0.3801
  114OSM   H15S11879   6.770   4.656   9.367 -0.5967  0.2353 -1.5072
  114OSM   H15T11880   6.696   4.765   9.492  0.5522  0.4610 -0.8837
  114OSM   C16S11881   6.546   4.682   9.367  0.1367  0.0265  0.3052
  114OSM   H16S11882   6.469   4.689   9.446 -0.2927  1.6296 -0.2089
  114OSM   H16T11883   6.523   4.592   9.306 -1.7775  1.0190 -0.5213
  114OSM   C17S11884   6.531   4.800   9.268 -0.0094  0.3027 -0.5303
  114OSM   H17S11885   6.554   4.894   9.323  1.4419  2.1840 -4.0303
  114OSM   H17T11886   6.424   4.802   9.238 -0.7826 -0.2665  1.9858
  114OSM   C18S11887   6.617   4.794   9.149 -0.1069 -0.3992  0.0486
  114OSM   H18S11888   6.598   4.875   9.076  0.6259 -0.4216 -0.1776
  114OSM   H18T11889   6.603   4.694   9.102  0.2853 -0.8006  0.7778
  114OSM   H18U11890   6.724   4.799   9.177 -0.0627  1.3029 -0.3207
  114OSM    C1F11891   6.630   4.662  10.880 -0.5528 -0.5715  0.1103
  114OSM     OF11892   6.702   4.649  10.982  0.4882  0.4490 -0.4546
  114OSM    C2F11893   6.668   4.760  10.768  0.5292 -0.3571  0.6439
  114OSM    H2F11894   6.583   4.827  10.744 -0.6743 -2.3957 -1.1416
  114OSM    H2G11895   6.682   4.696  10.678 -2.8731 -0.4668  0.0490
  114OSM    C3F11896   6.795   4.840  10.795  0.5225  0.3562 -0.1991
  114OSM    H3F11897   6.882   4.783  10.834 -0.3393 -1.1279 -0.3501
  114OSM    H3G11898   6.777   4.921  10.869  1.7198  0.1852  0.3034
  114OSM    C4F11899   6.830   4.911  10.658 -0.4936 -0.0341  0.5043
  114OSM    H4F11900   6.842   4.838  10.575 -0.0621 -1.6615  1.9343
  114OSM    H4G11901   6.933   4.946  10.679 -0.0534 -1.8650  1.6641
  114OSM    C5F11902   6.727   5.013  10.607 -0.3713 -0.0092  0.2616
  114OSM    H5F11903   6.685   5.073  10.691 -1.1912 -0.5320  0.2310
  114OSM    H5G11904   6.640   4.960  10.565 -0.5055  0.6754 -0.3480
  114OSM    C6F11905   6.787   5.105  10.501  0.7710 -0.5060  0.1159
  114OSM    H6F11906   6.877   5.154  10.545  0.7914 -0.8958  0.5166
  114OSM    H6G11907   6.712   5.181  10.474  1.3281  0.0930  0.2349
  114OSM    C7F11908   6.821   5.021  10.373  0.6406  0.2660  0.0005
  114OSM    H7F11909   6.743   4.947  10.346  1.3673 -0.7693  0.6730
  114OSM    H7G11910   6.914   4.962  10.389  1.3308  0.9544 -1.2885
  114OSM    C8F11911   6.842   5.109  10.246 -0.7362 -0.3263 -0.7355
  114OSM    H8F11912   6.896   5.042  10.175  0.3515 -0.1452 -0.1108
  114OSM    H8G11913   6.911   5.192  10.270 -1.7666  0.4976 -0.5773
  114OSM    C9F11914   6.725   5.178  10.175 -0.4597  0.1097  0.1107
  114OSM    H9F11915   6.696   5.277  10.214 -1.1463  0.1163 -0.4033
  114OSM   C10F11916   6.665   5.127  10.068  0.0401  0.2037 -0.3570
  114OSM   H10F11917   6.579   5.170  10.015  0.1397  1.1799  0.2582
  114OSM   C11F11918   6.702   4.999   9.997  0.2324 -0.5103 -0.1267
  114OSM   H11F11919   6.625   4.923  10.019  0.6770 -1.1889 -0.8684
  114OSM   H11G11920   6.804   4.964  10.024  0.7858  0.9732 -0.1818
  114OSM   C12F11921   6.711   5.022   9.849 -0.2548  0.4185  0.0621
  114OSM   H12F11922   6.609   5.054   9.819 -0.0221  2.1206  0.9452
  114OSM   H12G11923   6.737   4.919   9.816 -0.0024  1.3691 -3.0476
  114OSM   C13F11924   6.814   5.124   9.795  0.7672 -0.0383  0.6370
  114OSM   H13F11925   6.921   5.096   9.809  0.5294 -1.1891  0.1845
  114OSM   H13G11926   6.804   5.225   9.841  2.7304  0.9502 -0.9575
  114OSM   C14F11927   6.808   5.144   9.644  0.9601  0.0213 -0.3713
  114OSM   H14F11928   6.880   5.225   9.621  0.8126  0.6255  1.1735
  114OSM   H14G11929   6.708   5.186   9.623  0.9258  1.0568  1.6428
  114OSM   C15F11930   6.834   5.024   9.550  0.0773 -0.5551 -0.2243
  114OSM   H15F11931   6.754   4.951   9.573  0.1102 -0.0754  1.5752
  114OSM   H15G11932   6.933   4.974   9.565  0.4562  0.0468 -0.6655
  114OSM   C16F11933   6.814   5.047   9.396  0.2141 -0.2448 -0.5165
  114OSM   H16F11934   6.723   5.109   9.381  1.8653  2.3053 -0.7312
  114OSM   H16G11935   6.794   4.955   9.337  0.3581 -0.1562 -0.7058
  114OSM   C17F11936   6.934   5.123   9.324  0.3162 -0.0943  0.4395
  114OSM   H17F11937   7.020   5.059   9.355 -0.0790  0.3798  2.6873
  114OSM   H17G11938   6.953   5.216   9.382 -1.1960 -0.4980  1.6414
  114OSM   C18F11939   6.910   5.161   9.174 -0.1326  0.1723 -0.0484
  114OSM   H18F11940   7.000   5.216   9.137  0.5605 -1.4195 -0.8028
  114OSM   H18G11941   6.814   5.214   9.157 -1.0987 -1.5758 -0.2672
  114OSM   H18H11942   6.902   5.065   9.119 -0.9061  0.1677  0.0592
  115OSM      N11943   1.001   5.151   6.357  0.4129 -0.3804  0.1620
  115OSM    C1511944   1.004   5.094   6.490  0.1388  0.1712 -0.0509
  115OSM   H15A11945   0.907   5.098   6.536 -0.0658 -1.4553 -0.2905
  115OSM   H15B11946   1.081   5.142   6.549 -0.6050  1.0696  0.2102
  115OSM   H15C11947   1.036   4.991   6.496 -1.5133 -0.5120 -1.9289
  115OSM    C1411948   1.144   5.150   6.308  0.6715  0.5851 -0.0118
  115OSM   H14A11949   1.170   5.051   6.272 -0.1287 -0.4091  1.9590
  115OSM   H14B11950   1.214   5.198   6.374  1.1456 -0.2970  0.1381
  115OSM   H14C11951   1.155   5.199   6.213 -1.3739 -0.5429 -0.9113
  115OSM    C1311952   0.918   5.066   6.263  0.5348  0.6723 -0.7884
  115OSM   H13A11953   0.964   4.968   6.261 -0.0656  0.3909 -1.1239
  115OSM   H13B11954   0.922   5.095   6.159  2.5246 -0.7538 -1.1707
  115OSM   H13C11955   0.817   5.069   6.301 -0.0691  0.8832 -2.3442
  115OSM    C1211956   0.938   5.294   6.345 -0.6175  0.5674 -0.0256
  115OSM   H12A11957   0.996   5.352   6.416 -2.2894  2.1425  0.1297
  115OSM   H12B11958   0.842   5.294   6.392 -1.8488  3.4463 -2.2129
  115OSM    C1111959   0.948   5.361   6.201 -0.4767 -0.6951 -0.3375
  115OSM   H11A11960   0.882   5.451   6.204  0.7053  0.2041 -0.4835
  115OSM   H11B11961   0.897   5.294   6.128  0.6046  0.1663 -1.9628
  115OSM      P11962   1.159   5.530   6.175  0.6357 -0.3666 -0.2584
  115OSM    O1311963   1.277   5.531   6.087 -0.1227 -0.3896  0.0975
  115OSM    O1411964   1.058   5.635   6.149 -0.3013 -0.0384 -0.3048
  115OSM    O1111965   1.192   5.541   6.325  0.3581  0.0638  0.0479
  115OSM    O1211966   1.091   5.387   6.160  0.3604  0.5833  0.4420
  115OSM    C1S11967   1.317   5.486   6.369  0.2149  0.0952  0.1090
  115OSM    H1S11968   1.398   5.548   6.326  0.1873  0.5814  0.7332
  115OSM    H1T11969   1.324   5.381   6.332 -1.4041 -0.1621  0.4484
  115OSM     NF11970   1.458   5.424   6.569 -0.0895 -0.4427 -0.3650
  115OSM    HNF11971   1.450   5.327   6.588  1.5504 -0.2416  1.7424
  115OSM    C2S11972   1.331   5.486   6.526 -0.2942 -0.5749 -1.0805
  115OSM    H2S11973   1.340   5.595   6.547 -0.1301 -0.5306 -1.3789
  115OSM    C3S11974   1.203   5.432   6.597 -0.5164  0.4066  0.8095
  115OSM    H3S11975   1.179   5.324   6.585  0.4511  0.4568 -2.1829
  115OSM     O311976   1.085   5.483   6.553  0.2469 -0.3911 -0.7122
  115OSM    HO311977   1.110   5.519   6.467  0.8309  1.0556  0.0206
  115OSM    C4S11978   1.216   5.460   6.740 -0.2153  0.4685 -0.0243
  115OSM    H4S11979   1.230   5.568   6.756 -1.7704  0.7341 -0.2661
  115OSM    C5S11980   1.204   5.364   6.838 -0.0354 -0.1577  0.4388
  115OSM    H5S11981   1.182   5.262   6.805  0.2124  0.2268 -0.9741
  115OSM    C6S11982   1.229   5.390   6.985  0.7154  0.6378  0.2307
  115OSM    H6S11983   1.139   5.360   7.045  0.5068 -3.4283 -1.7619
  115OSM    H6T11984   1.250   5.496   7.010  0.7390  0.4103  1.2465
  115OSM    C7S11985   1.350   5.317   7.035  0.9000  0.3442 -0.6509
  115OSM    H7S11986   1.431   5.297   6.962  1.4329  2.7165 -0.8002
  115OSM    H7T11987   1.313   5.218   7.068  1.3396  0.1852 -0.6313
  115OSM    C8S11988   1.402   5.382   7.165 -0.2947 -0.2180 -0.2314
  115OSM    H8S11989   1.317   5.382   7.235  2.1796 -1.8890  3.0472
  115OSM    H8T11990   1.442   5.484   7.146 -3.0739  0.8046 -1.0324
  115OSM    C9S11991   1.512   5.302   7.220 -0.7640  1.0471  0.2022
  115OSM    H9S11992   1.587   5.286   7.139 -1.1249  0.1170  0.0359
  115OSM    H9T11993   1.473   5.203   7.249  1.4671 -0.5846 -1.9416
  115OSM   C10S11994   1.592   5.369   7.333  0.0161 -0.6919 -0.0547
  115OSM   H10S11995   1.606   5.471   7.291 -2.0133 -0.3724 -0.0707
  115OSM   H10T11996   1.683   5.313   7.363 -0.7893 -2.1099 -0.2059
  115OSM   C11S11997   1.512   5.387   7.462 -0.2836  0.4060 -0.5072
  115OSM   H11S11998   1.516   5.289   7.514 -0.3769  1.2692  1.2198
  115OSM   H11T11999   1.409   5.405   7.425 -0.0232  1.1695 -0.8850
  115OSM   C12S12000   1.575   5.498   7.544 -0.2613 -0.8681  1.6028
  115OSM   H12S12001   1.538   5.594   7.501 -1.0839 -0.6517  2.7308
  115OSM   H12T12002   1.685   5.494   7.533 -0.4084 -0.9759 -0.0636
  115OSM   C13S12003   1.552   5.490   7.696 -0.2827 -0.2447 -0.3546
  115OSM   H13S12004   1.530   5.388   7.735  0.0036  0.4249  1.6616
  115OSM   H13T12005   1.458   5.548   7.705 -1.2716 -1.2656 -3.0721
  115OSM   C14S12006   1.668   5.552   7.775 -0.0029 -0.5006 -0.0347
  115OSM   H14S12007   1.690   5.656   7.742  0.5437 -0.8408 -0.7760
  115OSM   H14T12008   1.766   5.503   7.755  1.5272  2.4028 -0.1840
  115OSM   C15S12009   1.641   5.534   7.923 -0.4446 -0.0579  0.6080
  115OSM   H15S12010   1.724   5.576   7.983 -2.0416  1.3872  1.8907
  115OSM   H15T12011   1.630   5.430   7.961  0.1204 -0.5530 -0.5070
  115OSM   C16S12012   1.514   5.601   7.977  0.7433 -0.2417 -0.5927
  115OSM   H16S12013   1.434   5.567   7.908  0.3317  3.2222 -2.0173
  115OSM   H16T12014   1.514   5.712   7.969 -0.3762  0.0365  2.1156
  115OSM   C17S12015   1.504   5.568   8.131 -0.4655 -0.6084  0.0915
  115OSM   H17S12016   1.608   5.560   8.171 -0.3590 -2.5489 -0.4947
  115OSM   H17T12017   1.454   5.469   8.141 -1.1360 -0.2849  0.0195
  115OSM   C18S12018   1.422   5.676   8.210  0.6663  0.6097 -0.6665
  115OSM   H18S12019   1.387   5.636   8.307  0.8380  1.4219 -0.2653
  115OSM   H18T12020   1.334   5.709   8.150 -0.8925 -2.2851 -0.1807
  115OSM   H18U12021   1.469   5.771   8.242 -3.1839  1.8705  2.0121
  115OSM    C1F12022   1.576   5.476   6.540  0.4030  0.4221  0.3401
  115OSM     OF12023   1.583   5.571   6.469  0.3154 -0.1018 -0.3712
  115OSM    C2F12024   1.699   5.413   6.602  0.0366 -0.2618 -0.2861
  115OSM    H2F12025   1.762   5.361   6.526  2.6271  1.9985  0.1695
  115OSM    H2G12026   1.667   5.339   6.678 -1.0934  1.1360  0.6322
  115OSM    C3F12027   1.796   5.522   6.660 -0.6117 -0.4952 -0.5009
  115OSM    H3F12028   1.811   5.599   6.582  0.6256 -0.4866 -0.2679
  115OSM    H3G12029   1.898   5.491   6.690 -0.2306 -0.4901 -1.7391
  115OSM    C4F12030   1.744   5.595   6.790 -0.1289 -0.6054  0.0007
  115OSM    H4F12031   1.708   5.516   6.860  0.3068  0.0772  1.0311
  115OSM    H4G12032   1.658   5.659   6.763  0.3275 -0.2326 -0.5880
  115OSM    C5F12033   1.850   5.690   6.855  0.7136  0.2238  0.5205
  115OSM    H5F12034   1.874   5.767   6.779  1.2758  0.4995  0.9670
  115OSM    H5G12035   1.950   5.644   6.874  1.5385  0.4432 -2.6629
  115OSM    C6F12036   1.804   5.765   6.974  0.2164 -0.2420  0.4083
  115OSM    H6F12037   1.716   5.830   6.957  0.3622  0.0761  0.8472
  115OSM    H6G12038   1.894   5.817   7.014  0.1883  0.4799 -0.4345
  115OSM    C7F12039   1.772   5.668   7.094  0.3891 -0.4594  0.4427
  115OSM    H7F12040   1.852   5.592   7.096 -1.5287 -2.7494 -2.1087
  115OSM    H7G12041   1.675   5.620   7.069  0.7272 -0.1948 -1.5610
  115OSM    C8F12042   1.739   5.734   7.236  0.0214  0.1103  0.2900
  115OSM    H8F12043   1.720   5.663   7.319 -1.0111  0.1751  0.1112
  115OSM    H8G12044   1.648   5.796   7.229 -1.0640 -1.6062 -2.6073
  115OSM    C9F12045   1.859   5.820   7.272  0.3717 -0.6415 -0.3446
  115OSM    H9F12046   1.851   5.927   7.251 -1.6537 -1.0072 -1.7421
  115OSM   C10F12047   1.976   5.767   7.314 -0.0772 -0.9270  0.3065
  115OSM   H10F12048   2.067   5.827   7.325  0.3259 -1.6860  1.2355
  115OSM   C11F12049   2.001   5.621   7.335 -0.6435 -0.3506 -0.6309
  115OSM   H11F12050   2.058   5.579   7.249  2.3429  0.3108  0.8650
  115OSM   H11G12051   1.908   5.563   7.353 -0.5248 -0.4795 -0.4252
  115OSM   C12F12052   2.099   5.592   7.456  0.1987  0.1592  0.4772
  115OSM   H12F12053   2.192   5.653   7.457 -0.2009  0.7935 -0.0993
  115OSM   H12G12054   2.131   5.486   7.450  2.2200  0.6332  2.1547
  115OSM   C13F12055   2.034   5.600   7.600 -0.4324  0.4607 -0.4194
  115OSM   H13F12056   1.966   5.512   7.603  0.0273  0.1236  0.6781
  115OSM   H13G12057   1.980   5.697   7.614  2.6053  2.0237  1.6364
  115OSM   C14F12058   2.152   5.566   7.695 -0.7055  0.1415  0.1132
  115OSM   H14F12059   2.209   5.660   7.711  0.1920 -0.5134  0.8720
  115OSM   H14G12060   2.214   5.486   7.649 -1.6244  0.1044 -1.1220
  115OSM   C15F12061   2.109   5.512   7.835  0.2056  0.3805  0.5179
  115OSM   H15F12062   2.194   5.474   7.895 -1.0048 -0.4474  1.7750
  115OSM   H15G12063   2.028   5.436   7.823 -1.7320  2.4038  0.1364
  115OSM   C16F12064   2.046   5.629   7.917 -0.0741 -0.0782 -0.0278
  115OSM   H16F12065   1.962   5.678   7.863  0.4131 -1.7762 -2.5180
  115OSM   H16G12066   2.127   5.704   7.903 -1.4072  1.2978 -0.6799
  115OSM   C17F12067   2.013   5.618   8.064  0.0062  0.1604  0.3625
  115OSM   H17F12068   2.103   5.580   8.117 -1.5243 -0.8746  2.3481
  115OSM   H17G12069   1.948   5.529   8.072  1.0566 -0.6787 -0.2329
  115OSM   C18F12070   1.961   5.744   8.135  0.5256  0.0144  0.3057
  115OSM   H18F12071   1.918   5.720   8.234  0.7234 -0.2357  0.3331
  115OSM   H18G12072   1.883   5.788   8.069 -0.0415  0.7647  1.4648
  115OSM   H18H12073   2.032   5.827   8.154 -0.2850  0.7407  0.1852
  116OSM      N12074   6.324   3.201   5.825  0.3121  0.8772  0.2744
  116OSM    C1512075   6.192   3.133   5.798 -0.2428  0.3470 -0.9697
  116OSM   H15A12076   6.217   3.029   5.817  0.1078  0.7670  1.1390
  116OSM   H15B12077   6.143   3.151   5.704  1.6121 -0.0866 -2.0786
  116OSM   H15C12078   6.119   3.159   5.873 -1.5943 -1.1898 -1.6847
  116OSM    C1412079   6.430   3.169   5.731 -1.1754  0.2961  0.4535
  116OSM   H14A12080   6.531   3.196   5.760 -0.0618 -0.8833 -2.0439
  116OSM   H14B12081   6.413   3.199   5.629  0.6251 -3.1316 -1.0230
  116OSM   H14C12082   6.447   3.062   5.737  1.4651  0.6685  0.9175
  116OSM    C1312083   6.279   3.347   5.810  0.2104  0.2980 -0.2998
  116OSM   H13A12084   6.364   3.414   5.817  0.6829 -0.2927 -0.3043
  116OSM   H13B12085   6.213   3.367   5.893  2.5943 -0.4326  1.9412
  116OSM   H13C12086   6.221   3.338   5.719 -0.2409 -3.6659  0.1929
  116OSM    C1212087   6.369   3.171   5.969 -0.0320  0.1547  0.4371
  116OSM   H12A12088   6.290   3.207   6.034 -1.0189 -0.0848 -0.5887
  116OSM   H12B12089   6.460   3.222   5.995  2.5481 -3.1876 -1.2248
  116OSM    C1112090   6.399   3.026   6.000 -0.2500  0.3399  0.5331
  116OSM   H11A12091   6.450   3.025   6.099 -0.9596 -0.0124  0.9025
  116OSM   H11B12092   6.473   2.987   5.926 -1.7799 -1.2099 -0.2561
  116OSM      P12093   6.187   2.912   6.116 -0.3172  0.0433  0.5149
  116OSM    O1312094   6.049   2.951   6.075 -0.6223 -0.0761 -0.7044
  116OSM    O1412095   6.221   2.778   6.155  0.1732  0.1690 -0.0457
  116OSM    O1112096   6.232   3.014   6.226  0.5751  0.2933  0.3556
  116OSM    O1212097   6.284   2.941   5.995 -0.2514  0.4792  0.1038
  116OSM    C1S12098   6.295   2.967   6.350  0.3556 -0.2436 -0.3343
  116OSM    H1S12099   6.396   2.937   6.314  0.7041  1.0508 -0.5137
  116OSM    H1T12100   6.240   2.883   6.396 -1.0011  0.1592 -1.1735
  116OSM     NF12101   6.359   3.016   6.583 -0.4558 -0.7090 -0.7667
  116OSM    HNF12102   6.297   3.000   6.659 -0.3928 -1.5079 -0.8788
  116OSM    C2S12103   6.294   3.073   6.460 -0.2564  0.0390 -0.1572
  116OSM    H2S12104   6.346   3.166   6.428 -1.5994  0.6392 -0.6761
  116OSM    C3S12105   6.151   3.109   6.499 -0.2959 -0.3305  0.0719
  116OSM    H3S12106   6.108   3.012   6.531 -1.4330 -0.0640 -0.5998
  116OSM     O312107   6.074   3.144   6.379  0.4315  0.4239 -0.4680
  116OSM    HO312108   6.146   3.116   6.321  1.7368 -0.7696  1.5967
  116OSM    C4S12109   6.129   3.207   6.611  0.0095  0.8534 -0.0632
  116OSM    H4S12110   6.152   3.162   6.709  0.9031  2.1323  0.3427
  116OSM    C5S12111   6.110   3.341   6.613  0.3981 -0.3688  0.2332
  116OSM    H5S12112   6.128   3.400   6.522 -0.0869  0.0624  0.4154
  116OSM    C6S12113   6.085   3.421   6.733  0.5931  0.8996 -1.0219
  116OSM    H6S12114   5.978   3.449   6.743 -0.2556 -2.6677  1.9355
  116OSM    H6T12115   6.143   3.516   6.736  1.5089  0.3264  0.2502
  116OSM    C7S12116   6.121   3.357   6.870  0.1137 -0.5193 -0.1669
  116OSM    H7S12117   6.217   3.302   6.881  0.4702  0.3772  1.4831
  116OSM    H7T12118   6.054   3.275   6.901  1.1318 -0.3876  2.6252
  116OSM    C8S12119   6.104   3.458   6.982  0.2425  0.0916 -0.3379
  116OSM    H8S12120   5.995   3.472   6.998  0.1981 -0.7958  0.2099
  116OSM    H8T12121   6.155   3.556   6.968  1.4043 -0.5473 -0.7504
  116OSM    C9S12122   6.162   3.408   7.114  0.1285 -0.0642  0.4710
  116OSM    H9S12123   6.273   3.411   7.107  0.1226  2.6655  0.7827
  116OSM    H9T12124   6.136   3.299   7.115 -1.5475  0.3039  0.1991
  116OSM   C10S12125   6.117   3.497   7.231 -0.3228  0.3391 -1.2992
  116OSM   H10S12126   6.010   3.528   7.228 -0.2404  1.5569  2.9060
  116OSM   H10T12127   6.176   3.591   7.224  1.4782 -0.4615  1.4577
  116OSM   C11S12128   6.141   3.429   7.375 -0.1626 -0.5334  1.0188
  116OSM   H11S12129   6.230   3.364   7.361  0.0832  0.2590 -1.6354
  116OSM   H11T12130   6.057   3.360   7.396 -1.0516  0.1475 -0.1690
  116OSM   C12S12131   6.168   3.527   7.491  0.4647  0.1364 -0.7966
  116OSM   H12S12132   6.090   3.602   7.468  0.1645  0.4718  1.0964
  116OSM   H12T12133   6.274   3.559   7.488  0.4562  0.5304  1.3911
  116OSM   C13S12134   6.133   3.462   7.624 -1.0788  0.0105 -0.2188
  116OSM   H13S12135   6.216   3.390   7.638 -1.6518 -1.0223 -1.8116
  116OSM   H13T12136   6.034   3.411   7.626 -1.5041  0.6283 -2.3286
  116OSM   C14S12137   6.153   3.567   7.734 -0.2451 -0.6456 -0.8396
  116OSM   H14S12138   6.067   3.636   7.724 -1.4565 -1.5302  2.2873
  116OSM   H14T12139   6.245   3.628   7.728 -0.1441 -0.8294 -1.1738
  116OSM   C15S12140   6.153   3.515   7.877  0.0398 -0.1040  0.6808
  116OSM   H15S12141   6.256   3.477   7.898  0.5858  1.2657  0.5696
  116OSM   H15T12142   6.081   3.431   7.893  0.1872 -0.2168  0.7591
  116OSM   C16S12143   6.124   3.628   7.983  0.4077  0.3292  0.3325
  116OSM   H16S12144   6.013   3.640   7.985  0.4023  0.2660  2.2459
  116OSM   H16T12145   6.172   3.727   7.965  1.5055  0.3060  2.7094
  116OSM   C17S12146   6.153   3.555   8.110 -0.8476  0.0112 -0.5535
  116OSM   H17S12147   6.261   3.571   8.129 -0.8154 -0.9446  0.1384
  116OSM   H17T12148   6.141   3.444   8.111 -1.7461  0.0971 -0.2322
  116OSM   C18S12149   6.087   3.608   8.239 -0.2074  0.6546  0.4805
  116OSM   H18S12150   5.976   3.603   8.229 -0.3799 -0.4417  2.3098
  116OSM   H18T12151   6.125   3.711   8.255  0.5339  0.6844 -1.3163
  116OSM   H18U12152   6.103   3.548   8.331  0.6187  3.0548  1.9887
  116OSM    C1F12153   6.489   2.982   6.588  0.0933 -0.4693  0.2785
  116OSM     OF12154   6.563   2.993   6.486  0.0439 -1.0162 -0.8881
  116OSM    C2F12155   6.543   2.916   6.706 -0.3615  0.2348  0.2710
  116OSM    H2F12156   6.574   2.811   6.689 -0.2921  0.4851 -1.2393
  116OSM    H2G12157   6.461   2.903   6.780 -1.0976  1.4144 -0.3047
  116OSM    C3F12158   6.653   3.005   6.763 -0.1349  0.3996  0.0968
  116OSM    H3F12159   6.619   3.106   6.792  1.4099  1.6340 -2.0975
  116OSM    H3G12160   6.726   3.004   6.680 -0.8164 -0.5589 -0.5178
  116OSM    C4F12161   6.714   2.938   6.883  0.3669  0.3245  0.1973
  116OSM    H4F12162   6.820   2.971   6.873 -0.1511  1.4524 -2.2241
  116OSM    H4G12163   6.702   2.828   6.875  2.8871 -0.0491  0.7003
  116OSM    C5F12164   6.658   2.986   7.022 -0.1449  0.3153  0.2944
  116OSM    H5F12165   6.548   2.973   7.034 -0.1681  1.1859  1.0517
  116OSM    H5G12166   6.679   3.095   7.023  1.2877  0.0997 -1.2946
  116OSM    C6F12167   6.722   2.927   7.154  0.5484 -0.1946 -0.3747
  116OSM    H6F12168   6.811   2.982   7.191 -1.1091  1.4050  1.4598
  116OSM    H6G12169   6.764   2.828   7.125  5.5192  1.5030  0.0069
  116OSM    C7F12170   6.617   2.908   7.264  0.2460 -0.8182 -0.1741
  116OSM    H7F12171   6.537   2.840   7.230  0.3151 -1.0769  0.1738
  116OSM    H7G12172   6.570   3.006   7.286 -0.9992 -1.6573  1.0659
  116OSM    C8F12173   6.677   2.842   7.392 -0.2573  0.3593  0.3090
  116OSM    H8F12174   6.738   2.753   7.364 -1.3855 -0.1070 -0.7767
  116OSM    H8G12175   6.590   2.793   7.442 -1.5586  1.0439 -1.1658
  116OSM    C9F12176   6.743   2.938   7.482 -1.2319 -0.1281  0.6473
  116OSM    H9F12177   6.803   3.013   7.428 -1.3283 -1.7686 -1.9262
  116OSM   C10F12178   6.736   2.942   7.615 -0.2631  0.0335 -0.0086
  116OSM   H10F12179   6.802   3.013   7.667 -0.7550  0.4537  0.0559
  116OSM   C11F12180   6.647   2.858   7.699 -0.7781 -0.0418 -0.0379
  116OSM   H11F12181   6.646   2.749   7.675  0.3851 -0.4024  1.4131
  116OSM   H11G12182   6.541   2.891   7.691 -0.0953  2.1188 -0.9744
  116OSM   C12F12183   6.701   2.850   7.845 -0.0561  0.1865  0.2293
  116OSM   H12F12184   6.809   2.828   7.849 -0.0981  0.2045  2.3382
  116OSM   H12G12185   6.651   2.769   7.902  1.7687 -0.1411  1.4275
  116OSM   C13F12186   6.677   2.982   7.931 -0.1824  0.1331 -0.5599
  116OSM   H13F12187   6.575   3.023   7.910 -0.2854 -1.0173 -2.5282
  116OSM   H13G12188   6.757   3.055   7.906  1.3448 -0.7150  1.6034
  116OSM   C14F12189   6.678   2.963   8.082 -0.3533 -0.3241 -0.0862
  116OSM   H14F12190   6.614   2.873   8.093 -0.2056 -0.4948 -0.5872
  116OSM   H14G12191   6.634   3.049   8.138 -1.2509 -1.7736  1.5515
  116OSM   C15F12192   6.812   2.921   8.138 -0.6803 -0.4329 -0.5992
  116OSM   H15F12193   6.850   2.829   8.089 -1.3354 -0.7957 -0.4424
  116OSM   H15G12194   6.803   2.886   8.243 -0.0948  0.0866 -0.3763
  116OSM   C16F12195   6.912   3.036   8.140  0.3337  0.0244 -0.2779
  116OSM   H16F12196   6.860   3.104   8.210 -2.2004 -0.6060 -1.4510
  116OSM   H16G12197   6.915   3.090   8.043  0.2110  2.8572  1.1997
  116OSM   C17F12198   7.051   2.998   8.192  0.1172 -0.2837 -0.8380
  116OSM   H17F12199   7.131   3.053   8.139 -0.4050 -0.6801 -2.0748
  116OSM   H17G12200   7.057   2.888   8.173 -2.0786 -0.7278  0.6117
  116OSM   C18F12201   7.056   3.038   8.341 -0.0960 -0.1156  0.5513
  116OSM   H18F12202   7.029   3.146   8.347  2.7033  0.6011  1.9031
  116OSM   H18G12203   7.162   3.030   8.371 -0.1720  2.6633  1.8894
  116OSM   H18H12204   6.992   2.975   8.405 -3.0474  2.8343  0.7844
  117OSM      N12205   4.437   0.677   6.172  0.3114 -0.1605  0.8719
  117OSM    C1512206   4.339   0.712   6.070  0.2552 -0.1899  0.0236
  117OSM   H15A12207   4.362   0.801   6.013 -0.4288 -0.5267 -0.8196
  117OSM   H15B12208   4.243   0.721   6.119  1.0230  2.6320  1.1788
  117OSM   H15C12209   4.328   0.627   6.004  0.1254 -1.0338  1.1023
  117OSM    C1412210   4.406   0.541   6.226 -0.5947  0.1347  0.6577
  117OSM   H14A12211   4.299   0.536   6.237 -0.6263 -2.3692 -0.1802
  117OSM   H14B12212   4.465   0.540   6.316 -0.3201  0.7065  0.4906
  117OSM   H14C12213   4.437   0.465   6.156 -1.8175  1.1588 -1.0933
  117OSM    C1312214   4.578   0.673   6.126 -0.6126  0.3079  0.0900
  117OSM   H13A12215   4.629   0.766   6.105  0.4174 -0.4543 -0.9677
  117OSM   H13B12216   4.574   0.604   6.042 -1.4189 -0.2574  0.5775
  117OSM   H13C12217   4.632   0.638   6.212 -0.6942  0.3032  0.1394
  117OSM    C1212218   4.428   0.784   6.278  0.7290 -0.1612  0.7298
  117OSM   H12A12219   4.448   0.884   6.240 -0.4814  0.7517  2.3561
  117OSM   H12B12220   4.502   0.757   6.352 -0.4808  1.2902  2.5733
  117OSM    C1112221   4.298   0.811   6.359 -0.0284 -0.0758 -0.6025
  117OSM   H11A12222   4.303   0.894   6.433 -1.6333 -1.1944  0.8463
  117OSM   H11B12223   4.276   0.719   6.417  0.2217  0.0130 -0.3612
  117OSM      P12224   4.108   0.961   6.262  0.0904  0.0432  0.3448
  117OSM    O1312225   4.203   1.065   6.219 -1.2794 -0.1048 -0.6195
  117OSM    O1412226   3.983   0.947   6.182  0.1176 -0.2991 -0.0857
  117OSM    O1112227   4.069   0.981   6.411  0.0754  0.3259 -0.6288
  117OSM    O1212228   4.185   0.831   6.274  0.7846  0.3477 -0.0573
  117OSM    C1S12229   3.992   0.881   6.477 -0.1825 -0.7424  0.0046
  117OSM    H1S12230   4.063   0.808   6.521 -0.2597 -0.7226  0.1614
  117OSM    H1T12231   3.917   0.828   6.415  0.0282 -0.7655 -0.2353
  117OSM     NF12232   3.865   0.831   6.682  0.2535  0.2103 -0.3031
  117OSM    HNF12233   3.776   0.791   6.662  0.7568 -0.8352 -0.4826
  117OSM    C2S12234   3.905   0.937   6.591  0.3182 -0.1154  0.1139
  117OSM    H2S12235   3.968   1.008   6.649 -0.5195 -0.2880  1.2611
  117OSM    C3S12236   3.792   1.026   6.538 -0.2656  0.1543  0.6290
  117OSM    H3S12237   3.711   0.970   6.485  1.3856 -0.8616 -0.9206
  117OSM     O312238   3.832   1.107   6.429  0.3429 -0.0728  0.2071
  117OSM    HO312239   3.912   1.067   6.395  0.7227  0.3142  0.6243
  117OSM    C4S12240   3.731   1.107   6.650  0.0157 -0.1083 -0.1374
  117OSM    H4S12241   3.788   1.196   6.679  0.8333 -0.2611 -1.2272
  117OSM    C5S12242   3.612   1.088   6.705 -0.0650 -0.1513  0.1615
  117OSM    H5S12243   3.555   1.002   6.666 -0.6325  0.0991  0.4184
  117OSM    C6S12244   3.558   1.170   6.822  0.0531 -0.3554 -0.6079
  117OSM    H6S12245   3.469   1.230   6.790 -0.4373  0.3648  1.9042
  117OSM    H6T12246   3.635   1.235   6.867 -0.6889 -0.0710  0.2836
  117OSM    C7S12247   3.520   1.081   6.943  0.2207  0.0227  0.2027
  117OSM    H7S12248   3.437   1.017   6.907 -1.1022  2.0265 -0.4998
  117OSM    H7T12249   3.484   1.147   7.025  0.1230 -1.2151  1.1885
  117OSM    C8S12250   3.620   0.982   7.003 -1.0896  0.3460  0.0768
  117OSM    H8S12251   3.715   1.032   7.033 -0.9880 -1.4631  3.2112
  117OSM    H8T12252   3.646   0.903   6.931  0.1034  1.8155 -1.1699
  117OSM    C9S12253   3.582   0.913   7.143 -0.4843  0.0921 -0.1118
  117OSM    H9S12254   3.662   0.852   7.190 -0.5168  0.7944  0.8784
  117OSM    H9T12255   3.506   0.843   7.102  0.2123  0.0182 -1.3433
  117OSM   C10S12256   3.538   1.010   7.254 -0.5743  0.6166 -0.0537
  117OSM   H10S12257   3.431   1.035   7.238 -0.7902  1.6293  2.4376
  117OSM   H10T12258   3.599   1.101   7.239 -3.3855  2.3799 -1.8233
  117OSM   C11S12259   3.555   0.951   7.396  0.0247 -0.0635  0.3068
  117OSM   H11S12260   3.663   0.942   7.418  0.6478  1.6574 -1.7454
  117OSM   H11T12261   3.486   0.868   7.422 -0.4214  0.3260  0.3885
  117OSM   C12S12262   3.511   1.065   7.492 -0.3580 -0.0089 -0.2853
  117OSM   H12S12263   3.417   1.106   7.450 -1.5524 -0.7212  1.5390
  117OSM   H12T12264   3.588   1.145   7.488  0.5579 -0.8537  0.0592
  117OSM   C13S12265   3.493   1.034   7.636 -0.3020 -0.4097 -0.2058
  117OSM   H13S12266   3.586   0.991   7.678  0.5916  0.5425 -1.1753
  117OSM   H13T12267   3.404   0.967   7.649 -0.4663 -0.0778  0.4243
  117OSM   C14S12268   3.468   1.160   7.718  0.1950 -0.7499 -0.3348
  117OSM   H14S12269   3.368   1.199   7.691  0.0919 -1.0845 -0.4344
  117OSM   H14T12270   3.544   1.236   7.689  1.3330 -1.9543 -0.6068
  117OSM   C15S12271   3.473   1.142   7.873 -0.0163  0.1804  0.3862
  117OSM   H15S12272   3.487   1.234   7.933  2.2407 -0.1635  0.4453
  117OSM   H15T12273   3.569   1.093   7.900  0.0426  1.0357  1.8069
  117OSM   C16S12274   3.348   1.063   7.916 -0.0604 -0.2671 -0.0263
  117OSM   H16S12275   3.353   0.963   7.867 -0.1666 -1.3483  2.0446
  117OSM   H16T12276   3.263   1.132   7.895  0.4485  0.4984  0.3846
  117OSM   C17S12277   3.363   1.030   8.067  0.7777  0.5785 -0.2455
  117OSM   H17S12278   3.468   1.010   8.097  1.2799  0.8676 -1.7185
  117OSM   H17T12279   3.321   0.930   8.091  0.7646  0.6627  0.0821
  117OSM   C18S12280   3.302   1.133   8.159 -1.2113  0.2182 -0.0471
  117OSM   H18S12281   3.195   1.156   8.140 -0.9451  0.3445 -1.5529
  117OSM   H18T12282   3.365   1.225   8.156 -1.7547  0.5763 -0.9637
  117OSM   H18U12283   3.298   1.107   8.267  0.0470 -0.1306 -0.0699
  117OSM    C1F12284   3.940   0.774   6.774 -0.4011 -0.0872 -0.7974
  117OSM     OF12285   4.061   0.793   6.784  0.5654  0.0272 -0.1688
  117OSM    C2F12286   3.872   0.673   6.871 -0.4617  0.4899 -0.0709
  117OSM    H2F12287   3.884   0.568   6.835 -2.0659 -0.9816  3.2492
  117OSM    H2G12288   3.764   0.696   6.864 -0.2770  0.9740 -3.9268
  117OSM    C3F12289   3.923   0.680   7.020  0.7595 -0.2319  1.3202
  117OSM    H3F12290   3.914   0.783   7.059  2.0850 -0.1552  1.4663
  117OSM    H3G12291   4.029   0.647   7.022  1.2133  1.0203 -0.1219
  117OSM    C4F12292   3.823   0.604   7.114 -0.7472  0.3723  0.1800
  117OSM    H4F12293   3.807   0.499   7.082 -0.1921  0.4702 -0.4470
  117OSM    H4G12294   3.727   0.659   7.117  0.3966  2.7690 -2.1743
  117OSM    C5F12295   3.869   0.614   7.264 -0.2955  0.0910  0.2041
  117OSM    H5F12296   3.873   0.724   7.280 -0.0094 -0.0734  1.4164
  117OSM    H5G12297   3.974   0.584   7.283  0.3103  0.0770 -2.7623
  117OSM    C6F12298   3.755   0.564   7.359  0.2682 -0.7571  0.4086
  117OSM    H6F12299   3.733   0.456   7.352 -0.6825 -0.5774  0.4953
  117OSM    H6G12300   3.663   0.621   7.332  2.5061  1.9470 -2.2198
  117OSM    C7F12301   3.780   0.605   7.498 -0.0869 -0.1975  0.5528
  117OSM    H7F12302   3.843   0.696   7.505  0.2704 -0.3308 -0.6353
  117OSM    H7G12303   3.849   0.529   7.538 -1.6669 -1.3949  1.1128
  117OSM    C8F12304   3.659   0.609   7.592  0.3337  0.0623  0.2656
  117OSM    H8F12305   3.591   0.525   7.566  0.4144 -0.5483  1.8900
  117OSM    H8G12306   3.610   0.707   7.575 -1.5112 -0.4651  2.1130
  117OSM    C9F12307   3.698   0.580   7.732  0.2926 -0.3303 -0.0862
  117OSM    H9F12308   3.787   0.515   7.732  0.4031 -0.1787 -0.3255
  117OSM   C10F12309   3.636   0.609   7.846  0.5552  0.5410 -0.8911
  117OSM   H10F12310   3.680   0.576   7.941 -2.2056 -0.4841  0.1405
  117OSM   C11F12311   3.509   0.684   7.847 -0.1515 -0.0066  0.1925
  117OSM   H11F12312   3.457   0.684   7.749  1.6576  0.0468 -0.8083
  117OSM   H11G12313   3.535   0.787   7.881  0.9591  0.2181 -1.2764
  117OSM   C12F12314   3.416   0.615   7.954 -0.1564 -0.1218  0.4106
  117OSM   H12F12315   3.323   0.675   7.963 -0.5930 -0.6744 -0.3130
  117OSM   H12G12316   3.453   0.623   8.059 -0.5344 -0.7231  0.5956
  117OSM   C13F12317   3.368   0.471   7.925  0.4586  0.3053 -0.2776
  117OSM   H13F12318   3.460   0.413   7.949  0.4164  0.7608  1.0705
  117OSM   H13G12319   3.342   0.454   7.818 -2.5272  0.1948  0.4001
  117OSM   C14F12320   3.253   0.422   8.016 -0.3191 -0.0857  0.6815
  117OSM   H14F12321   3.255   0.311   8.009 -0.6172 -0.0176 -1.2146
  117OSM   H14G12322   3.155   0.447   7.970  0.5392  0.1300 -1.1353
  117OSM   C15F12323   3.245   0.466   8.160 -0.3832  0.3733  0.2303
  117OSM   H15F12324   3.232   0.576   8.165  0.3479  0.4157  1.6589
  117OSM   H15G12325   3.347   0.459   8.205  0.2954  3.4462 -0.5821
  117OSM   C16F12326   3.143   0.386   8.249  0.9574  0.1911 -0.0936
  117OSM   H16F12327   3.127   0.280   8.219  1.5191  0.2885 -0.7707
  117OSM   H16G12328   3.053   0.448   8.229  1.4582  0.9382 -0.0596
  117OSM   C17F12329   3.159   0.386   8.399  0.3890  0.5094  0.7097
  117OSM   H17F12330   3.207   0.478   8.440  2.0904 -1.1878  2.7417
  117OSM   H17G12331   3.057   0.386   8.443  0.4478  1.0444  0.8604
  117OSM   C18F12332   3.244   0.270   8.451  0.1017 -0.1115 -0.2801
  117OSM   H18F12333   3.327   0.255   8.379 -0.4288  1.3295 -1.2389
  117OSM   H18G12334   3.193   0.172   8.448  2.9359 -1.7214  0.5665
  117OSM   H18H12335   3.281   0.288   8.555 -2.1257 -0.2713  0.5984
  118OSM      N12336   0.140   1.429   5.928 -0.5037  0.4360 -0.7632
  118OSM    C1512337   0.240   1.341   5.996  0.0984  0.4128  0.2879
  118OSM   H15A12338   0.212   1.238   6.012  3.4557 -0.5147  0.9651
  118OSM   H15B12339   0.265   1.380   6.094  1.3097  1.9784 -0.5958
  118OSM   H15C12340   0.339   1.340   5.952 -0.0353 -0.9375 -0.0465
  118OSM    C1412341   0.179   1.570   5.928 -0.3788  0.1399 -0.0046
  118OSM   H14A12342   0.277   1.576   5.882 -0.5570 -0.8949 -0.5360
  118OSM   H14B12343   0.187   1.613   6.027  0.7472  0.2930 -0.1487
  118OSM   H14C12344   0.118   1.626   5.859 -0.5273 -0.5003 -0.3926
  118OSM    C1312345   0.142   1.389   5.790  0.4326  0.0139 -0.1569
  118OSM   H13A12346   0.244   1.384   5.756  0.5298  2.7624 -0.5029
  118OSM   H13B12347   0.089   1.457   5.725 -0.3668 -0.4706 -0.0277
  118OSM   H13C12348   0.087   1.296   5.787 -1.0358  0.8734 -1.0605
  118OSM    C1212349   0.002   1.413   5.991  0.4448  0.3671 -0.5911
  118OSM   H12A12350  -0.062   1.489   5.948  0.4959 -0.0364 -1.4075
  118OSM   H12B12351   0.015   1.424   6.098 -0.6588  1.6250 -0.5552
  118OSM    C1112352  -0.068   1.271   5.971 -0.0610 -1.0055  0.1496
  118OSM   H11A12353  -0.076   1.248   5.863 -2.2579 -1.3468  0.3451
  118OSM   H11B12354  -0.174   1.272   6.004  0.0544  0.3995  0.5532
  118OSM      P12355  -0.064   1.042   6.105  0.1387 -0.1245  0.4067
  118OSM    O1312356  -0.210   1.043   6.091  0.4435 -0.2129  0.1349
  118OSM    O1412357   0.015   0.923   6.066 -0.0159  0.6299 -0.0521
  118OSM    O1112358  -0.030   1.077   6.254  0.7354 -0.3085 -0.5219
  118OSM    O1212359   0.001   1.163   6.032 -0.4664  0.1715 -0.5597
  118OSM    C1S12360   0.106   1.122   6.287 -1.1110  0.7399 -0.2367
  118OSM    H1S12361   0.140   1.199   6.214 -0.6520 -1.6188 -2.6874
  118OSM    H1T12362   0.183   1.043   6.273  2.1446  3.7781 -0.8720
  118OSM     NF12363   0.263   1.230   6.449 -0.1840 -0.7443  0.3108
  118OSM    HNF12364   0.318   1.188   6.521  0.0408 -0.0273  0.5701
  118OSM    C2S12365   0.126   1.184   6.424 -0.4326  0.2603 -0.6983
  118OSM    H2S12366   0.053   1.269   6.427  0.9875  1.5625 -1.6459
  118OSM    C3S12367   0.097   1.086   6.538  0.2578  0.2342 -0.6077
  118OSM    H3S12368   0.180   1.013   6.541 -0.7928 -0.9866  0.8996
  118OSM     O312369  -0.021   1.009   6.511 -0.0740 -0.1929 -0.4232
  118OSM    HO312370  -0.036   1.017   6.416 -0.7267 -1.7738 -0.4850
  118OSM    C4S12371   0.078   1.155   6.670  0.3569 -0.8830  0.0208
  118OSM    H4S12372   0.016   1.246   6.660 -0.9960 -1.8836 -1.0476
  118OSM    C5S12373   0.138   1.136   6.787 -0.2456 -0.2314 -0.5894
  118OSM    H5S12374   0.205   1.049   6.799 -3.1786 -2.5938 -0.2049
  118OSM    C6S12375   0.111   1.227   6.904 -0.0590  0.5597 -0.0255
  118OSM    H6S12376   0.127   1.162   6.993 -0.8211  0.3419 -0.0413
  118OSM    H6T12377   0.005   1.260   6.911 -0.8247 -1.7293  0.1147
  118OSM    C7S12378   0.204   1.341   6.924  0.7464  0.0627 -0.0990
  118OSM    H7S12379   0.208   1.402   6.832  0.7134  1.1013  0.5730
  118OSM    H7T12380   0.306   1.302   6.946 -0.3257 -1.5109  2.7006
  118OSM    C8S12381   0.171   1.437   7.040 -0.4273 -0.4473  0.2778
  118OSM    H8S12382   0.079   1.494   7.015 -1.3729 -2.8861 -2.4176
  118OSM    H8T12383   0.258   1.503   7.056  0.0257 -0.8292 -0.5734
  118OSM    C9S12384   0.152   1.370   7.172 -0.1038  0.1379 -0.8195
  118OSM    H9S12385   0.222   1.283   7.177  1.3624  1.3307  1.8264
  118OSM    H9T12386   0.053   1.319   7.174 -0.3563  0.6407  0.0437
  118OSM   C10S12387   0.191   1.445   7.297  0.9958 -0.5152 -0.3462
  118OSM   H10S12388   0.118   1.524   7.322 -0.0684 -1.4442 -0.4123
  118OSM   H10T12389   0.289   1.495   7.278 -0.0256  1.4771 -0.6164
  118OSM   C11S12390   0.226   1.350   7.418  0.0503 -0.1979 -0.7157
  118OSM   H11S12391   0.307   1.277   7.395  0.2748 -0.7990  1.6505
  118OSM   H11T12392   0.136   1.292   7.445  0.3844 -0.2971  0.2435
  118OSM   C12S12393   0.273   1.447   7.532  0.5414  0.2358  0.0808
  118OSM   H12S12394   0.206   1.536   7.539  1.8714  1.2435  0.4450
  118OSM   H12T12395   0.369   1.492   7.501  0.3418  0.2337 -0.5555
  118OSM   C13S12396   0.284   1.369   7.665  0.0124 -0.2665 -0.5743
  118OSM   H13S12397   0.328   1.268   7.649  2.9959  0.9941 -0.8592
  118OSM   H13T12398   0.177   1.357   7.694  0.5023 -0.0535  1.4969
  118OSM   C14S12399   0.369   1.450   7.767  0.4693  0.3046 -0.4569
  118OSM   H14S12400   0.458   1.488   7.713  1.0850 -0.3177  0.0995
  118OSM   H14T12401   0.407   1.392   7.854 -0.9683 -1.5268 -0.9674
  118OSM   C15S12402   0.299   1.567   7.832  0.0989  0.2965 -0.2348
  118OSM   H15S12403   0.213   1.526   7.890  0.5501 -0.5607 -0.1655
  118OSM   H15T12404   0.244   1.629   7.757  0.5278  0.1396 -0.6829
  118OSM   C16S12405   0.385   1.648   7.927 -0.4543 -0.7566 -0.1868
  118OSM   H16S12406   0.393   1.755   7.895  0.8988 -0.2486  1.6658
  118OSM   H16T12407   0.484   1.609   7.896 -0.5282  0.6522 -2.4925
  118OSM   C17S12408   0.377   1.622   8.079  0.1465 -0.1198  0.4435
  118OSM   H17S12409   0.277   1.651   8.118  0.0757 -2.2184  1.9426
  118OSM   H17T12410   0.454   1.676   8.137 -0.8623 -0.2399  1.9567
  118OSM   C18S12411   0.381   1.466   8.109 -0.3389  0.0226  0.6363
  118OSM   H18S12412   0.487   1.434   8.105 -0.2150  0.4959 -0.1445
  118OSM   H18T12413   0.309   1.406   8.050 -0.8839 -1.4034  2.6678
  118OSM   H18U12414   0.356   1.455   8.216  3.0061 -3.5506  1.2738
  118OSM    C1F12415   0.316   1.335   6.398 -0.7037 -0.6075  1.0186
  118OSM     OF12416   0.267   1.381   6.296  0.1767  0.6310  0.1508
  118OSM    C2F12417   0.439   1.399   6.458  0.1726 -0.4404 -0.3223
  118OSM    H2F12418   0.489   1.454   6.376  0.6119 -0.7858 -0.2919
  118OSM    H2G12419   0.519   1.322   6.470  1.3910  0.5506 -1.7157
  118OSM    C3F12420   0.420   1.469   6.598  0.5125 -0.1070 -0.2725
  118OSM    H3F12421   0.384   1.393   6.669 -0.1856 -0.3796 -0.9069
  118OSM    H3G12422   0.338   1.542   6.579  1.4126  0.3328 -2.8719
  118OSM    C4F12423   0.545   1.537   6.653  0.0251  0.0711 -0.3994
  118OSM    H4F12424   0.567   1.612   6.574 -0.4071 -0.1106 -0.6894
  118OSM    H4G12425   0.629   1.464   6.656  1.7737  1.9790  1.2157
  118OSM    C5F12426   0.527   1.617   6.778 -0.8590 -0.8145 -0.1734
  118OSM    H5F12427   0.428   1.666   6.771 -0.8885 -0.6876  0.8714
  118OSM    H5G12428   0.605   1.695   6.794  0.1811 -1.5847 -1.2752
  118OSM    C6F12429   0.525   1.529   6.902 -0.3764  0.2076 -0.2729
  118OSM    H6F12430   0.619   1.470   6.899 -0.3262  0.2403  0.5474
  118OSM    H6G12431   0.442   1.455   6.908 -0.2757  0.1117 -0.0348
  118OSM    C7F12432   0.525   1.617   7.031 -0.1539 -0.8259  0.5082
  118OSM    H7F12433   0.433   1.677   7.048  1.3012  1.5731  0.3877
  118OSM    H7G12434   0.602   1.698   7.028  0.0355 -0.9814  0.9931
  118OSM    C8F12435   0.542   1.528   7.153 -0.1254 -0.2990 -0.4929
  118OSM    H8F12436   0.642   1.484   7.133 -1.1028 -1.3574 -3.5018
  118OSM    H8G12437   0.460   1.455   7.141  0.1948 -0.9444  1.0431
  118OSM    C9F12438   0.538   1.590   7.288  1.0533 -0.1550 -0.5253
  118OSM    H9F12439   0.439   1.636   7.304  0.8427 -0.9636  0.6355
  118OSM   C10F12440   0.626   1.597   7.389 -0.2111  0.4559  1.0495
  118OSM   H10F12441   0.591   1.638   7.485 -1.0126  1.6616  0.2665
  118OSM   C11F12442   0.765   1.539   7.397  0.4455  0.8585  0.3281
  118OSM   H11F12443   0.801   1.534   7.292  0.2482 -1.1982  0.3128
  118OSM   H11G12444   0.769   1.430   7.419  1.7009 -0.1072 -3.7037
  118OSM   C12F12445   0.862   1.625   7.473  0.0578  0.1335 -0.1460
  118OSM   H12F12446   0.847   1.732   7.447 -2.2815 -0.0082  0.3397
  118OSM   H12G12447   0.968   1.597   7.461 -0.3569 -1.3999 -0.4468
  118OSM   C13F12448   0.829   1.620   7.618 -0.3529 -0.5002 -0.2434
  118OSM   H13F12449   0.902   1.556   7.672 -0.8841 -0.5042  0.4812
  118OSM   H13G12450   0.733   1.567   7.636  0.2759 -0.8708  2.2872
  118OSM   C14F12451   0.811   1.758   7.695  0.2396  0.0951  0.2684
  118OSM   H14F12452   0.739   1.824   7.642 -0.2603 -0.8649 -0.2618
  118OSM   H14G12453   0.910   1.809   7.695  0.9212 -1.1383  2.0208
  118OSM   C15F12454   0.762   1.725   7.839 -0.3021 -0.0123 -0.7085
  118OSM   H15F12455   0.832   1.645   7.870  0.6737  0.6251 -1.2361
  118OSM   H15G12456   0.652   1.706   7.840 -0.1509 -0.9739 -1.4240
  118OSM   C16F12457   0.787   1.847   7.929  0.6671  0.2292  0.5041
  118OSM   H16F12458   0.739   1.938   7.886 -1.9747  0.4020  3.5014
  118OSM   H16G12459   0.895   1.875   7.928  0.9451 -0.8075 -0.5081
  118OSM   C17F12460   0.727   1.828   8.072 -0.1760 -0.5822 -0.2223
  118OSM   H17F12461   0.620   1.801   8.060 -0.5670  1.0848 -0.7450
  118OSM   H17G12462   0.736   1.932   8.110  1.8541 -1.1205  0.9501
  118OSM   C18F12463   0.799   1.720   8.160  0.2639 -0.1609 -0.3403
  118OSM   H18F12464   0.789   1.624   8.105 -0.0756  0.3181 -1.1312
  118OSM   H18G12465   0.732   1.704   8.248 -1.1703 -0.8341 -1.5087
  118OSM   H18H12466   0.901   1.759   8.181  0.0087  0.3551 -0.0199
  119OSM      N12467   1.459   0.274   5.861  0.1303 -0.4423  0.2121
  119OSM    C1512468   1.534   0.185   5.956  0.2327  0.2666 -0.0045
  119OSM   H15A12469   1.560   0.101   5.894  1.1633  0.3640  0.2420
  119OSM   H15B12470   1.481   0.153   6.044 -1.5874 -1.5735 -1.6612
  119OSM   H15C12471   1.629   0.230   5.980  0.9126 -0.4646 -1.2078
  119OSM    C1412472   1.567   0.336   5.775  0.2808  0.5729  0.7510
  119OSM   H14A12473   1.555   0.440   5.748 -0.6328 -0.2602 -2.5095
  119OSM   H14B12474   1.579   0.282   5.682 -1.3244 -1.2775  1.5602
  119OSM   H14C12475   1.664   0.324   5.822  1.4971 -2.4601 -2.0898
  119OSM    C1312476   1.364   0.198   5.768 -0.0985 -0.1349 -0.0375
  119OSM   H13A12477   1.407   0.107   5.730  1.4827  0.2611  0.7244
  119OSM   H13B12478   1.324   0.260   5.689 -1.4065 -0.4876  0.3295
  119OSM   H13C12479   1.279   0.165   5.825 -0.0967 -2.2016 -1.1675
  119OSM    C1212480   1.390   0.379   5.948 -0.0194  0.2300  0.0396
  119OSM   H12A12481   1.348   0.455   5.884  1.4118  1.1581  0.1686
  119OSM   H12B12482   1.467   0.438   5.995 -0.4640 -0.2497  1.4135
  119OSM    C1112483   1.281   0.335   6.040  0.1895 -0.2675 -1.0218
  119OSM   H11A12484   1.248   0.412   6.113  2.2040 -0.2875 -0.0176
  119OSM   H11B12485   1.322   0.265   6.115  0.1938  0.6577 -0.1389
  119OSM      P12486   1.053   0.192   6.022 -0.3350 -0.0415 -0.0927
  119OSM    O1312487   0.928   0.215   5.935 -0.0645 -0.2339 -0.1518
  119OSM    O1412488   1.109   0.054   6.032  0.2771 -0.9122  0.7379
  119OSM    O1112489   1.034   0.242   6.179  0.0361  0.6021  0.1487
  119OSM    O1212490   1.165   0.294   5.969  0.1473  0.4493  0.6259
  119OSM    C1S12491   0.931   0.179   6.260  0.7130  0.1480 -0.1771
  119OSM    H1S12492   0.929   0.070   6.238 -2.5520  0.2195 -0.6769
  119OSM    H1T12493   0.835   0.212   6.216  0.8684 -0.9626 -1.4351
  119OSM     NF12494   0.892   0.101   6.496  0.1486 -0.0988  0.5434
  119OSM    HNF12495   0.797   0.117   6.523 -0.2592  2.3314 -1.8888
  119OSM    C2S12496   0.956   0.208   6.408 -0.0633 -1.4443 -0.1262
  119OSM    H2S12497   1.065   0.201   6.431  0.1006 -0.2831 -0.4969
  119OSM    C3S12498   0.917   0.352   6.435  0.0584 -0.1463 -0.0970
  119OSM    H3S12499   0.808   0.351   6.414 -0.0074  0.9510  0.1369
  119OSM     O312500   0.975   0.450   6.348  0.3932  0.3325 -0.7543
  119OSM    HO312501   1.011   0.392   6.280 -1.0970  0.0217 -1.3232
  119OSM    C4S12502   0.944   0.386   6.576 -0.1716  0.7832  0.2292
  119OSM    H4S12503   1.042   0.339   6.595 -0.0626 -0.4227 -2.8640
  119OSM    C5S12504   0.862   0.433   6.670 -0.2773 -0.0692  0.2826
  119OSM    H5S12505   0.757   0.452   6.641 -0.5160 -0.9755  0.5089
  119OSM    C6S12506   0.893   0.449   6.812 -0.1949  0.5265  0.1241
  119OSM    H6S12507   0.871   0.554   6.841 -1.0013  0.8643 -1.6201
  119OSM    H6T12508   0.998   0.417   6.831 -0.3039 -0.0785 -0.2874
  119OSM    C7S12509   0.794   0.378   6.907  0.0990  0.4822 -0.0106
  119OSM    H7S12510   0.797   0.269   6.886  0.3144  0.1591  1.5503
  119OSM    H7T12511   0.691   0.417   6.890  1.1328  2.8354 -1.3228
  119OSM    C8S12512   0.831   0.407   7.057 -0.2020  0.0107  0.0811
  119OSM    H8S12513   0.844   0.516   7.068  2.4481 -0.2910  0.6206
  119OSM    H8T12514   0.934   0.369   7.073  0.5493  1.3441 -1.4147
  119OSM    C9S12515   0.742   0.343   7.155  0.0565 -0.5439  0.2394
  119OSM    H9S12516   0.722   0.237   7.131  0.7685 -0.7776  0.6491
  119OSM    H9T12517   0.646   0.398   7.146  1.2582  1.4111 -1.4886
  119OSM   C10S12518   0.793   0.346   7.302 -0.1663 -0.3399 -0.1718
  119OSM   H10S12519   0.781   0.452   7.335 -0.3927  0.6896 -3.2843
  119OSM   H10T12520   0.896   0.306   7.287  1.0234  2.4275 -0.0070
  119OSM   C11S12521   0.714   0.251   7.390  0.3340  0.2740 -0.4588
  119OSM   H11S12522   0.737   0.146   7.361  1.5110  0.2329  0.5259
  119OSM   H11T12523   0.606   0.257   7.363  0.4210  1.2140 -0.6151
  119OSM   C12S12524   0.744   0.271   7.540  0.2792  0.0982 -0.2797
  119OSM   H12S12525   0.690   0.199   7.605  0.3643  0.2675 -0.0225
  119OSM   H12T12526   0.706   0.371   7.569 -0.4026  0.2559 -1.6432
  119OSM   C13S12527   0.892   0.257   7.574 -0.4356  0.2520 -0.3751
  119OSM   H13S12528   0.961   0.314   7.507 -1.6043 -0.2599 -2.0881
  119OSM   H13T12529   0.923   0.150   7.578  1.5827  0.8093  0.3825
  119OSM   C14S12530   0.916   0.307   7.714  0.3656 -0.1522 -0.4427
  119OSM   H14S12531   1.021   0.283   7.741  0.2741 -0.2909 -0.2073
  119OSM   H14T12532   0.850   0.244   7.778 -1.1008  1.8561  0.1118
  119OSM   C15S12533   0.897   0.459   7.731  0.1101 -0.2591 -0.8143
  119OSM   H15S12534   0.792   0.491   7.745  0.8067  1.4548  0.9308
  119OSM   H15T12535   0.942   0.522   7.652  0.3845 -0.4907 -0.8449
  119OSM   C16S12536   0.974   0.508   7.863 -0.2267 -0.6834 -0.3494
  119OSM   H16S12537   0.982   0.619   7.859  0.7840 -0.7263  0.2308
  119OSM   H16T12538   1.081   0.479   7.854  0.2089 -0.3078  2.6161
  119OSM   C17S12539   0.913   0.438   7.977  0.1802 -0.0898 -0.6788
  119OSM   H17S12540   0.932   0.329   7.976  4.5998  0.5149 -2.0951
  119OSM   H17T12541   0.804   0.453   7.993  0.6976  0.4252  3.5402
  119OSM   C18S12542   0.967   0.503   8.104 -0.0129 -0.4454  0.8621
  119OSM   H18S12543   0.929   0.606   8.116  0.2898 -0.3210  0.7558
  119OSM   H18T12544   1.077   0.501   8.089  0.4623  0.1385  3.7393
  119OSM   H18U12545   0.959   0.437   8.194  1.5488 -0.8563  0.7218
  119OSM    C1F12546   0.937  -0.021   6.516  0.4849 -0.0077 -0.5321
  119OSM     OF12547   1.044  -0.051   6.465 -0.5761 -0.3185  0.5266
  119OSM    C2F12548   0.854  -0.111   6.609  0.2331  0.1382  0.6756
  119OSM    H2F12549   0.751  -0.124   6.570  0.6886 -1.6955 -0.0164
  119OSM    H2G12550   0.854  -0.055   6.705 -2.5449  1.3965  0.0413
  119OSM    C3F12551   0.912  -0.254   6.622 -0.2171  1.2235 -0.1437
  119OSM    H3F12552   1.019  -0.250   6.651  0.2466 -3.1608 -0.6711
  119OSM    H3G12553   0.903  -0.303   6.523  0.0664 -1.0467  0.8981
  119OSM    C4F12554   0.830  -0.345   6.716 -0.6831 -0.7741  0.0121
  119OSM    H4F12555   0.872  -0.448   6.725 -1.2648 -1.3580 -2.9412
  119OSM    H4G12556   0.723  -0.353   6.688 -1.4293 -0.0482  2.3536
  119OSM    C5F12557   0.809  -0.297   6.862  0.1804 -0.5041  0.6176
  119OSM    H5F12558   0.742  -0.208   6.854  1.5602  0.4246 -1.4863
  119OSM    H5G12559   0.911  -0.276   6.901  0.1327  0.3171  0.3147
  119OSM    C6F12560   0.763  -0.401   6.965 -0.0969  0.5817 -0.1217
  119OSM    H6F12561   0.834  -0.486   6.979  1.4446  2.1127  2.0647
  119OSM    H6G12562   0.664  -0.445   6.942  0.9938 -2.1405  0.0015
  119OSM    C7F12563   0.768  -0.333   7.103  0.4152 -0.3572 -0.0165
  119OSM    H7F12564   0.743  -0.225   7.099  0.4327 -0.3545 -0.0547
  119OSM    H7G12565   0.866  -0.343   7.155  0.1479 -0.2478  0.5180
  119OSM    C8F12566   0.683  -0.396   7.207  0.6367 -0.2037 -1.1469
  119OSM    H8F12567   0.577  -0.369   7.186  0.4576  2.4489  2.2625
  119OSM    H8G12568   0.695  -0.341   7.304  1.3925 -0.3178 -1.1712
  119OSM    C9F12569   0.700  -0.543   7.236 -0.4612 -0.1140 -0.1840
  119OSM    H9F12570   0.675  -0.606   7.149  4.4548 -0.6931 -1.4517
  119OSM   C10F12571   0.763  -0.606   7.335 -0.0495 -0.1608 -0.4386
  119OSM   H10F12572   0.776  -0.716   7.330  0.4612 -0.2665  1.9479
  119OSM   C11F12573   0.824  -0.552   7.460  0.1013 -0.2874  0.2224
  119OSM   H11F12574   0.779  -0.456   7.492 -2.5938 -1.4275  0.1040
  119OSM   H11G12575   0.932  -0.534   7.441  1.1156 -2.4471  3.0531
  119OSM   C12F12576   0.772  -0.651   7.577 -0.3634 -0.1754  0.4814
  119OSM   H12F12577   0.785  -0.758   7.550 -0.4386  0.2805 -1.5147
  119OSM   H12G12578   0.662  -0.640   7.588 -0.5349 -2.4982  1.6351
  119OSM   C13F12579   0.843  -0.616   7.707  0.9562  0.1941 -0.1370
  119OSM   H13F12580   0.807  -0.520   7.749 -1.4519 -0.7628  0.1395
  119OSM   H13G12581   0.954  -0.616   7.700  0.9430  0.5646 -0.3638
  119OSM   C14F12582   0.810  -0.722   7.818 -0.8645  0.0105 -0.3092
  119OSM   H14F12583   0.781  -0.817   7.767  1.4630 -1.2340  0.4757
  119OSM   H14G12584   0.729  -0.697   7.889 -1.4611  0.4379 -1.1276
  119OSM   C15F12585   0.927  -0.760   7.915  0.1231 -0.5372 -0.0077
  119OSM   H15F12586   1.011  -0.784   7.847  0.3810  1.1782 -0.3548
  119OSM   H15G12587   0.896  -0.844   7.980  0.1947 -1.1884 -0.8094
  119OSM   C16F12588   0.981  -0.655   8.018 -0.5432 -0.5290  0.2231
  119OSM   H16F12589   0.917  -0.649   8.108 -0.0982 -1.2001  0.5973
  119OSM   H16G12590   0.983  -0.557   7.967 -0.3001  0.5089  2.1261
  119OSM   C17F12591   1.128  -0.691   8.064  0.6541  0.1129 -0.0145
  119OSM   H17F12592   1.200  -0.644   7.994 -2.5660  0.7727 -3.1536
  119OSM   H17G12593   1.143  -0.797   8.034 -1.2725  0.0284 -0.8580
  119OSM   C18F12594   1.160  -0.673   8.213 -0.7007 -0.5764 -0.3979
  119OSM   H18F12595   1.095  -0.735   8.278  0.0077 -1.5227 -0.5676
  119OSM   H18G12596   1.153  -0.565   8.238  3.2121 -0.5461  1.3685
  119OSM   H18H12597   1.265  -0.708   8.224  0.1952  1.3688 -1.9635
  120OSM      N12598   5.632   3.897   6.819  0.0869 -0.1556 -0.1815
  120OSM    C1512599   5.497   3.839   6.848 -0.2393  0.2214  0.8847
  120OSM   H15A12600   5.418   3.913   6.846  1.1668  1.7764  0.9319
  120OSM   H15B12601   5.501   3.775   6.935  1.3797  0.4756  1.0162
  120OSM   H15C12602   5.476   3.772   6.766 -1.2971 -0.4781  1.6975
  120OSM    C1412603   5.616   3.974   6.695 -0.0178 -0.1814  0.1725
  120OSM   H14A12604   5.711   4.015   6.666 -0.1582  0.3257  0.4194
  120OSM   H14B12605   5.555   4.062   6.705  0.0509 -0.1439  0.2632
  120OSM   H14C12606   5.578   3.919   6.609 -0.9201  0.4124  0.1741
  120OSM    C1312607   5.683   3.988   6.930 -0.1705 -0.5218 -0.6321
  120OSM   H13A12608   5.779   4.030   6.905 -0.8567  1.5250 -0.0438
  120OSM   H13B12609   5.696   3.933   7.022 -3.2275 -2.5669 -1.2661
  120OSM   H13C12610   5.612   4.064   6.959 -0.0357 -1.2534  1.8354
  120OSM    C1212611   5.729   3.784   6.798  0.4729 -0.5842  0.2864
  120OSM   H12A12612   5.711   3.717   6.881 -2.0429  1.1218  1.2385
  120OSM   H12B12613   5.830   3.822   6.804 -0.0176  1.3307 -2.0914
  120OSM    C1112614   5.731   3.702   6.662 -0.6178 -0.1613 -0.8955
  120OSM   H11A12615   5.624   3.686   6.639 -0.4585 -1.9989 -0.4701
  120OSM   H11B12616   5.792   3.610   6.676  0.7953  1.0629  1.8015
  120OSM      P12617   5.923   3.786   6.509  0.2821 -0.3777 -0.0016
  120OSM    O1312618   5.974   3.651   6.468 -0.2465  0.1893 -0.2222
  120OSM    O1412619   5.952   3.894   6.409 -0.0961 -0.1829  0.4727
  120OSM    O1112620   5.995   3.804   6.640 -0.1403  0.0859  0.3516
  120OSM    O1212621   5.772   3.773   6.544  0.1351  0.2292 -0.0221
  120OSM    C1S12622   6.019   3.936   6.696  0.3044  0.0120  0.3777
  120OSM    H1S12623   5.930   3.965   6.755  1.8395  1.4445  2.1116
  120OSM    H1T12624   6.048   4.004   6.612 -0.0581 -1.6476 -1.1485
  120OSM     NF12625   6.138   4.037   6.879  0.1427  0.1454 -0.2607
  120OSM    HNF12626   6.171   4.124   6.842 -1.7858  1.2356  0.4474
  120OSM    C2S12627   6.142   3.927   6.788 -1.1577  0.4099 -0.2246
  120OSM    H2S12628   6.115   3.836   6.847 -2.7389  0.4321 -0.8570
  120OSM    C3S12629   6.275   3.897   6.717 -0.0551 -0.1343  0.0671
  120OSM    H3S12630   6.287   3.955   6.623 -1.6855 -1.4090 -0.9860
  120OSM     O312631   6.267   3.767   6.655 -1.0403 -0.3962 -0.2813
  120OSM    HO312632   6.173   3.754   6.643 -0.6825 -1.9487 -1.6168
  120OSM    C4S12633   6.389   3.912   6.808 -0.2385  0.1418  0.3911
  120OSM    H4S12634   6.457   3.998   6.803  1.6996 -1.2633  1.2629
  120OSM    C5S12635   6.438   3.827   6.902  0.5559  0.7026 -0.3080
  120OSM    H5S12636   6.380   3.734   6.915  0.9709  0.5354  0.4179
  120OSM    C6S12637   6.554   3.850   6.996 -0.6906 -0.0470  0.0348
  120OSM    H6S12638   6.634   3.917   6.956  0.9162 -1.2383  1.1110
  120OSM    H6T12639   6.603   3.755   7.027 -1.0728  0.5798  2.7836
  120OSM    C7S12640   6.513   3.925   7.125 -0.3523 -0.5261  0.0093
  120OSM    H7S12641   6.430   3.997   7.111  1.6113  1.6333 -1.0885
  120OSM    H7T12642   6.604   3.980   7.158 -0.9301  0.4686 -0.0395
  120OSM    C8S12643   6.454   3.828   7.231  0.0566  0.5463  0.5850
  120OSM    H8S12644   6.525   3.743   7.241 -0.9498 -0.4623 -0.4443
  120OSM    H8T12645   6.360   3.783   7.192  1.2200 -0.7341 -0.8536
  120OSM    C9S12646   6.412   3.895   7.372 -0.0901  0.0620  0.7363
  120OSM    H9S12647   6.353   3.815   7.423  0.1611 -0.8999 -0.4248
  120OSM    H9T12648   6.336   3.972   7.349 -1.8017 -1.7540 -0.0376
  120OSM   C10S12649   6.518   3.944   7.462 -0.9778 -0.0498  0.3243
  120OSM   H10S12650   6.564   4.041   7.430 -0.0109 -0.5612  0.1093
  120OSM   H10T12651   6.602   3.873   7.446 -1.1242  0.3417 -2.6255
  120OSM   C11S12652   6.473   3.969   7.607 -0.0596 -0.0983 -0.0935
  120OSM   H11S12653   6.382   4.032   7.603  0.3409  0.4507 -2.8748
  120OSM   H11T12654   6.544   4.032   7.662  0.3151 -0.4475 -0.1724
  120OSM   C12S12655   6.456   3.835   7.675  0.5141 -0.1862 -0.1184
  120OSM   H12S12656   6.458   3.751   7.602  2.0827  0.4663 -0.8558
  120OSM   H12T12657   6.353   3.844   7.717  0.5561  0.4702 -0.1560
  120OSM   C13S12658   6.569   3.805   7.772 -0.1961  0.1875  0.2584
  120OSM   H13S12659   6.591   3.893   7.836 -1.5503 -0.9240  2.3323
  120OSM   H13T12660   6.658   3.785   7.708 -0.1491  1.4684 -0.1183
  120OSM   C14S12661   6.529   3.701   7.871  0.2248 -0.6587  0.3017
  120OSM   H14S12662   6.503   3.607   7.819 -0.9733 -0.3228  0.2603
  120OSM   H14T12663   6.432   3.724   7.919 -1.0019 -1.1693 -1.8282
  120OSM   C15S12664   6.641   3.679   7.978  0.8501 -0.7876  0.6929
  120OSM   H15S12665   6.665   3.772   8.034  1.3844 -1.6400  1.9165
  120OSM   H15T12666   6.732   3.639   7.927 -0.0583 -0.6301 -1.1488
  120OSM   C16S12667   6.596   3.590   8.092  0.0275  0.7548  0.5208
  120OSM   H16S12668   6.496   3.627   8.124 -1.5504 -0.6878 -2.3119
  120OSM   H16T12669   6.671   3.603   8.172  2.4080 -0.3030 -1.4229
  120OSM   C17S12670   6.608   3.434   8.052  0.6154 -0.0315  0.2084
  120OSM   H17S12671   6.712   3.394   8.057 -0.1720 -2.0175  2.6392
  120OSM   H17T12672   6.563   3.405   7.955 -1.1082  0.7704  0.7319
  120OSM   C18S12673   6.544   3.333   8.146  0.0595  0.6815 -0.2360
  120OSM   H18S12674   6.438   3.355   8.171  0.1336  0.8122 -0.0310
  120OSM   H18T12675   6.604   3.313   8.237  1.4572  2.6252 -0.6639
  120OSM   H18U12676   6.525   3.234   8.099 -0.2713  0.2060  0.8663
  120OSM    C1F12677   6.050   4.038   6.987  0.5500  0.3740 -1.1069
  120OSM     OF12678   5.980   3.937   7.018 -0.1787  0.1997 -0.5624
  120OSM    C2F12679   6.027   4.168   7.057  0.1269 -0.4513 -0.0757
  120OSM    H2F12680   5.939   4.214   7.007 -0.2848  0.4587  1.4156
  120OSM    H2G12681   6.118   4.230   7.040 -0.5487  0.2109 -1.4087
  120OSM    C3F12682   6.004   4.159   7.205 -0.3249  0.5708 -0.3460
  120OSM    H3F12683   6.101   4.144   7.257 -1.0006 -1.0886  0.5324
  120OSM    H3G12684   5.934   4.074   7.222  0.9600 -0.5140 -0.3324
  120OSM    C4F12685   5.939   4.282   7.268 -0.2888 -0.6717 -0.4764
  120OSM    H4F12686   5.836   4.290   7.227 -0.2851  0.8638 -0.2780
  120OSM    H4G12687   6.001   4.372   7.245 -1.7700  0.2872 -0.9049
  120OSM    C5F12688   5.927   4.268   7.420 -0.0025  0.2913  0.0516
  120OSM    H5F12689   6.030   4.266   7.462  0.3329 -1.0865 -0.7793
  120OSM    H5G12690   5.869   4.178   7.449 -3.2522  2.7006  1.7021
  120OSM    C6F12691   5.849   4.384   7.497 -0.3824  0.2900  0.9385
  120OSM    H6F12692   5.739   4.365   7.489  0.0090 -1.8490 -0.1510
  120OSM    H6G12693   5.876   4.477   7.444  2.6602 -0.9089  0.1862
  120OSM    C7F12694   5.894   4.381   7.644 -0.2556 -0.3720  0.3237
  120OSM    H7F12695   6.003   4.368   7.658  0.2804  0.2725 -2.4916
  120OSM    H7G12696   5.849   4.287   7.684  1.4209 -0.6913  1.5431
  120OSM    C8F12697   5.847   4.495   7.729  0.4007  0.1941 -1.0725
  120OSM    H8F12698   5.736   4.494   7.724  0.1703  0.2330  1.9810
  120OSM    H8G12699   5.872   4.591   7.678  2.5510  0.1799 -0.1469
  120OSM    C9F12700   5.882   4.481   7.872 -0.8486 -0.1902  0.8183
  120OSM    H9F12701   5.981   4.435   7.883 -0.6782 -0.6366 -1.9948
  120OSM   C10F12702   5.809   4.520   7.977  0.1308 -0.1744 -0.4359
  120OSM   H10F12703   5.851   4.498   8.077 -1.8748 -0.7352  0.3315
  120OSM   C11F12704   5.676   4.593   7.981  0.3093 -0.8265 -0.2240
  120OSM   H11F12705   5.622   4.556   7.891 -2.5748  3.4620 -0.5141
  120OSM   H11G12706   5.687   4.699   7.951 -1.7005  0.0926  1.9688
  120OSM   C12F12707   5.592   4.585   8.101  0.1599  0.1849 -0.3302
  120OSM   H12F12708   5.570   4.481   8.132  2.4092 -0.1891  0.2212
  120OSM   H12G12709   5.493   4.619   8.062 -1.2829 -1.4042  1.7504
  120OSM   C13F12710   5.627   4.669   8.223 -0.6798  0.1306  0.2204
  120OSM   H13F12711   5.629   4.777   8.199 -0.0991  0.1852  0.4868
  120OSM   H13G12712   5.731   4.644   8.254 -0.0329  0.2222 -1.7897
  120OSM   C14F12713   5.537   4.648   8.354 -0.7549 -0.4378 -0.0014
  120OSM   H14F12714   5.535   4.542   8.389 -2.4614 -0.0204  1.3069
  120OSM   H14G12715   5.431   4.671   8.330 -1.2129 -0.8251  1.5068
  120OSM   C15F12716   5.577   4.743   8.471 -0.0990  0.0144 -0.2072
  120OSM   H15F12717   5.683   4.716   8.493 -0.2935 -1.9726 -1.4293
  120OSM   H15G12718   5.518   4.719   8.562  0.7529  0.8307  0.5788
  120OSM   C16F12719   5.566   4.898   8.448  0.3675  0.0477  0.3779
  120OSM   H16F12720   5.495   4.920   8.366  0.6900  0.3330  0.1717
  120OSM   H16G12721   5.669   4.932   8.423  0.0401 -0.5984 -2.0117
  120OSM   C17F12722   5.500   4.965   8.568  0.0031  0.0691  0.7002
  120OSM   H17F12723   5.544   4.940   8.666 -0.3615  1.1889  1.1650
  120OSM   H17G12724   5.399   4.918   8.565 -0.8045  1.6335  2.0413
  120OSM   C18F12725   5.478   5.117   8.554  0.3779  0.4495  0.1235
  120OSM   H18F12726   5.421   5.150   8.644 -0.6976 -0.2566 -0.2723
  120OSM   H18G12727   5.419   5.151   8.467  0.4221 -1.2709 -0.6145
  120OSM   H18H12728   5.570   5.178   8.567  0.2722  0.4186  1.1239
  121OSM      N12729   2.169   0.187   6.055  0.5062 -0.5267  0.4114
  121OSM    C1512730   2.206   0.056   6.115  0.2491  0.0054 -0.3632
  121OSM   H15A12731   2.120   0.014   6.164 -1.9897  1.5025 -2.7530
  121OSM   H15B12732   2.281   0.055   6.192  0.3765 -2.1113 -0.4416
  121OSM   H15C12733   2.244  -0.016   6.043 -1.4241 -1.9820  0.6458
  121OSM    C1412734   2.169   0.295   6.162  0.5136  0.1379 -0.8206
  121OSM   H14A12735   2.095   0.277   6.240  1.7330 -0.8273  0.1549
  121OSM   H14B12736   2.140   0.388   6.117 -4.0393 -0.6185  0.0575
  121OSM   H14C12737   2.265   0.297   6.212 -0.9052  0.4291  2.1344
  121OSM    C1312738   2.276   0.223   5.955 -0.5499 -0.7916 -0.3571
  121OSM   H13A12739   2.267   0.326   5.922  1.2847 -1.1372 -2.1375
  121OSM   H13B12740   2.268   0.165   5.865  1.3455  1.8933 -2.3975
  121OSM   H13C12741   2.378   0.212   5.991  1.0248  0.3224 -4.0615
  121OSM    C1212742   2.037   0.180   5.980 -0.6876 -0.0501 -0.2019
  121OSM   H12A12743   1.950   0.160   6.042 -3.5337 -0.2023 -3.8350
  121OSM   H12B12744   2.044   0.105   5.902 -1.9637  0.7722 -1.1530
  121OSM    C1112745   1.995   0.308   5.886 -0.3475  0.6422 -0.1352
  121OSM   H11A12746   1.901   0.275   5.837  1.3297  0.0949 -3.2817
  121OSM   H11B12747   2.069   0.320   5.804 -2.4954  3.5487 -1.8053
  121OSM      P12748   1.861   0.506   5.978  0.3080 -0.0448  0.1216
  121OSM    O1312749   1.894   0.600   6.083  0.0488 -0.3312  0.0204
  121OSM    O1412750   1.818   0.557   5.845 -0.2494 -0.0456 -0.0673
  121OSM    O1112751   1.757   0.398   6.033  0.0695 -0.3834 -1.2154
  121OSM    O1212752   1.991   0.425   5.955  0.3238 -0.4406 -0.3419
  121OSM    C1S12753   1.767   0.335   6.157  0.0040  0.4031  0.8538
  121OSM    H1S12754   1.874   0.308   6.174  0.1644  1.2431  1.2170
  121OSM    H1T12755   1.712   0.239   6.148 -2.8431  1.8301  1.9436
  121OSM     NF12756   1.732   0.330   6.401 -0.2579  0.2326 -0.4466
  121OSM    HNF12757   1.655   0.287   6.447  0.2829 -2.2607 -1.6525
  121OSM    C2S12758   1.717   0.408   6.281  0.1966 -0.6254  0.5524
  121OSM    H2S12759   1.770   0.505   6.286  1.2636 -0.7488 -3.9372
  121OSM    C3S12760   1.567   0.452   6.238  0.1941  0.2819 -0.6736
  121OSM    H3S12761   1.510   0.365   6.200  3.0519 -1.6107 -0.9925
  121OSM     O312762   1.567   0.553   6.139  0.3145 -0.0951  0.4288
  121OSM    HO312763   1.651   0.526   6.103  0.4675 -1.8013  1.9154
  121OSM    C4S12764   1.491   0.514   6.347 -0.4829 -0.2847  0.7015
  121OSM    H4S12765   1.530   0.613   6.376  0.5949 -0.0686 -1.3360
  121OSM    C5S12766   1.405   0.452   6.428  0.0121  0.2491 -0.0046
  121OSM    H5S12767   1.382   0.345   6.415 -0.6145  0.3277  0.4244
  121OSM    C6S12768   1.346   0.517   6.548 -0.8095  0.0550 -0.1589
  121OSM    H6S12769   1.241   0.491   6.572  0.0834 -1.8090  2.0779
  121OSM    H6T12770   1.325   0.621   6.515 -2.5783 -0.4855 -0.8296
  121OSM    C7S12771   1.427   0.505   6.678 -0.2169 -0.1844  0.4784
  121OSM    H7S12772   1.532   0.540   6.669 -0.0490 -0.6138  0.7396
  121OSM    H7T12773   1.451   0.402   6.712  4.6397  0.7249  0.5624
  121OSM    C8S12774   1.359   0.589   6.795 -0.6410 -0.4244 -0.6563
  121OSM    H8S12775   1.294   0.661   6.741 -1.1739 -1.7313 -1.8109
  121OSM    H8T12776   1.434   0.646   6.853 -1.4461 -0.1527  0.1428
  121OSM    C9S12777   1.273   0.514   6.896  0.2185  0.2216 -0.0081
  121OSM    H9S12778   1.255   0.408   6.869  3.2193 -0.5745  0.6994
  121OSM    H9T12779   1.182   0.575   6.910  0.6972  0.9960 -0.1859
  121OSM   C10S12780   1.340   0.493   7.037 -0.0361  0.2700 -0.7868
  121OSM   H10S12781   1.383   0.587   7.077 -3.9081  0.7026  3.2335
  121OSM   H10T12782   1.421   0.418   7.036  1.0826  1.3902  1.0481
  121OSM   C11S12783   1.232   0.447   7.141  0.1764 -0.1486 -0.1656
  121OSM   H11S12784   1.181   0.366   7.084  0.7155 -3.2884  3.4333
  121OSM   H11T12785   1.166   0.534   7.160  1.2980  0.8769 -0.8780
  121OSM   C12S12786   1.293   0.376   7.262  0.2629  0.0190  0.2598
  121OSM   H12S12787   1.347   0.457   7.315  0.7226  0.2762 -0.5871
  121OSM   H12T12788   1.363   0.294   7.238  0.5500 -0.1590  1.6554
  121OSM   C13S12789   1.180   0.323   7.355  0.0115  0.1064  1.2530
  121OSM   H13S12790   1.114   0.249   7.305  0.8623 -0.0696  0.3892
  121OSM   H13T12791   1.110   0.409   7.369  3.2040  2.9585  1.0711
  121OSM   C14S12792   1.235   0.267   7.488 -0.1819  0.2236 -0.0690
  121OSM   H14S12793   1.318   0.196   7.469  0.6130  1.5107 -1.6744
  121OSM   H14T12794   1.157   0.207   7.539 -0.9257  4.0929  3.8459
  121OSM   C15S12795   1.267   0.375   7.593  0.3025  0.5792  0.7037
  121OSM   H15S12796   1.176   0.429   7.630 -0.1401  1.4224 -1.4245
  121OSM   H15T12797   1.347   0.442   7.554  2.8658 -1.9587  1.3499
  121OSM   C16S12798   1.342   0.319   7.721 -0.5940 -0.2282  0.4204
  121OSM   H16S12799   1.279   0.243   7.771  0.0963 -0.5445  0.8240
  121OSM   H16T12800   1.362   0.396   7.799  0.4250 -1.6778  1.6439
  121OSM   C17S12801   1.478   0.249   7.689 -0.1184 -0.0124 -0.0432
  121OSM   H17S12802   1.557   0.326   7.673 -0.6769  0.8294  1.0968
  121OSM   H17T12803   1.484   0.206   7.587  0.6718  2.0734 -0.9373
  121OSM   C18S12804   1.525   0.159   7.805  0.4092  0.2427 -0.0472
  121OSM   H18S12805   1.505   0.202   7.905  0.3142 -1.0167  0.5035
  121OSM   H18T12806   1.635   0.151   7.788  0.4653  1.6270 -0.4061
  121OSM   H18U12807   1.485   0.056   7.795  0.5115  0.2627 -0.7131
  121OSM    C1F12808   1.849   0.318   6.468  0.0223 -0.4016 -0.0257
  121OSM     OF12809   1.946   0.393   6.436 -0.0548 -0.3150  0.3647
  121OSM    C2F12810   1.867   0.221   6.573  1.0684  0.2684 -1.6371
  121OSM    H2F12811   1.974   0.217   6.602  0.6089  0.6610  0.2765
  121OSM    H2G12812   1.836   0.121   6.535  3.6144 -0.2524 -2.4902
  121OSM    C3F12813   1.769   0.235   6.698  0.3967  0.0018  0.5435
  121OSM    H3F12814   1.784   0.142   6.757  0.3153  0.4862  1.3473
  121OSM    H3G12815   1.661   0.238   6.671  0.5100 -0.5764  0.0141
  121OSM    C4F12816   1.797   0.355   6.786 -0.5402  0.0816  0.8510
  121OSM    H4F12817   1.772   0.447   6.729 -0.1063  0.6957  1.6420
  121OSM    H4G12818   1.901   0.356   6.824  0.4280  1.5788 -1.5746
  121OSM    C5F12819   1.704   0.373   6.906  0.1550 -0.0420  0.1052
  121OSM    H5F12820   1.611   0.315   6.892 -0.6977  1.4727 -0.6952
  121OSM    H5G12821   1.670   0.479   6.905  2.1374  0.6946  1.8635
  121OSM    C6F12822   1.770   0.318   7.037  0.0170 -0.7000 -0.0656
  121OSM    H6F12823   1.803   0.212   7.046  0.5493 -0.3785  2.6404
  121OSM    H6G12824   1.688   0.334   7.111  0.8222 -0.3228  0.7758
  121OSM    C7F12825   1.890   0.404   7.087 -0.0339 -0.2957  0.8035
  121OSM    H7F12826   1.839   0.502   7.097 -1.1248 -0.8716  1.0778
  121OSM    H7G12827   1.973   0.424   7.016  0.2760  0.8495  1.4640
  121OSM    C8F12828   1.934   0.370   7.227  0.2382  0.5544 -0.5898
  121OSM    H8F12829   1.847   0.394   7.292  0.7645  1.8312 -0.3117
  121OSM    H8G12830   2.007   0.447   7.262  0.0550  0.8182 -0.7899
  121OSM    C9F12831   2.000   0.233   7.249  0.0310 -0.6280 -0.8571
  121OSM    H9F12832   2.065   0.205   7.165  2.2134  2.1002 -0.2294
  121OSM   C10F12833   1.987   0.147   7.353 -0.5969 -0.0285  0.2278
  121OSM   H10F12834   2.038   0.051   7.339 -0.3631  0.2171 -0.6393
  121OSM   C11F12835   1.906   0.163   7.484 -0.6699 -0.1680  0.3118
  121OSM   H11F12836   1.867   0.061   7.504  1.2058 -1.1829 -0.9291
  121OSM   H11G12837   1.814   0.220   7.460 -0.6393 -0.3044 -0.1392
  121OSM   C12F12838   1.985   0.224   7.601 -0.1052  0.5724  0.2799
  121OSM   H12F12839   2.015   0.325   7.568 -0.1160  0.3981 -0.2795
  121OSM   H12G12840   2.079   0.164   7.610  0.4379  1.4545  0.5680
  121OSM   C13F12841   1.912   0.229   7.733  0.2875 -1.1174 -0.7612
  121OSM   H13F12842   1.898   0.126   7.771  0.1333 -0.9600 -0.3929
  121OSM   H13G12843   1.818   0.286   7.720 -0.2054 -1.8421 -0.4465
  121OSM   C14F12844   1.994   0.305   7.839 -0.8861  0.0843 -0.1385
  121OSM   H14F12845   2.029   0.404   7.803  2.7668 -1.2123 -0.5878
  121OSM   H14G12846   2.089   0.249   7.838 -0.5529  0.6210  0.3602
  121OSM   C15F12847   1.947   0.305   7.985 -0.3504  0.6988 -0.3577
  121OSM   H15F12848   1.963   0.201   8.022  0.3158  1.5377  1.8500
  121OSM   H15G12849   1.841   0.338   7.983 -1.1362 -1.4863 -4.1918
  121OSM   C16F12850   2.031   0.397   8.066 -0.3244 -0.6981  0.4200
  121OSM   H16F12851   2.044   0.492   8.010 -3.1574 -0.4614 -0.0090
  121OSM   H16G12852   2.132   0.356   8.089  1.0946  1.5033 -1.4024
  121OSM   C17F12853   1.962   0.445   8.199  0.4487  1.0033  0.2674
  121OSM   H17F12854   1.947   0.378   8.286 -1.9259  0.3991 -0.5147
  121OSM   H17G12855   1.861   0.486   8.175 -0.3041  0.1295  1.8401
  121OSM   C18F12856   2.032   0.562   8.250 -0.1859 -0.0789  0.4447
  121OSM   H18F12857   1.986   0.610   8.339  0.8357  0.7332  0.5619
  121OSM   H18G12858   2.029   0.635   8.166  1.7218 -0.2439  0.1794
  121OSM   H18H12859   2.136   0.539   8.281  1.0985  2.6105 -1.4368
  122OSM      N12860   6.373   2.572   5.884  0.6670 -0.2778 -0.3230
  122OSM    C1512861   6.259   2.558   5.974 -0.3814 -0.6366  0.2299
  122OSM   H15A12862   6.182   2.498   5.927  0.4248 -0.0871 -1.8771
  122OSM   H15B12863   6.203   2.650   5.984  1.0382  0.5176 -1.7707
  122OSM   H15C12864   6.292   2.518   6.069  0.9608 -1.1930 -0.4414
  122OSM    C1412865   6.320   2.585   5.747  0.2331  0.3343  0.5010
  122OSM   H14A12866   6.257   2.500   5.724  1.2144 -0.1018 -0.6977
  122OSM   H14B12867   6.398   2.602   5.674 -0.0893 -2.1947 -0.5401
  122OSM   H14C12868   6.258   2.672   5.731  0.3382 -0.0915 -3.1566
  122OSM    C1312869   6.446   2.694   5.919  0.6444 -0.1736  0.5407
  122OSM   H13A12870   6.500   2.678   6.011 -0.1869 -0.8530  0.9228
  122OSM   H13B12871   6.383   2.778   5.941  1.3098  0.8469 -1.2374
  122OSM   H13C12872   6.516   2.726   5.843  1.3286  1.4203  1.7807
  122OSM    C1212873   6.466   2.452   5.904 -0.1434 -0.1490  0.5887
  122OSM   H12A12874   6.552   2.452   5.838  0.6503 -0.8252  1.6085
  122OSM   H12B12875   6.410   2.360   5.889 -0.1693 -0.0703  0.1880
  122OSM    C1112876   6.533   2.442   6.044  0.6404 -0.4980 -0.1355
  122OSM   H11A12877   6.559   2.335   6.056 -0.8071 -0.8436  0.1022
  122OSM   H11B12878   6.451   2.468   6.115  0.7558 -2.2219  0.6772
  122OSM      P12879   6.772   2.506   5.992 -0.1144 -0.4207  0.4916
  122OSM    O1312880   6.743   2.435   5.864 -0.9008  0.0223  0.1208
  122OSM    O1412881   6.846   2.627   5.986 -0.4349  0.0380  0.1968
  122OSM    O1112882   6.846   2.405   6.096 -0.1609 -0.2304  0.2680
  122OSM    O1212883   6.632   2.537   6.063  0.4753 -0.3107 -0.6683
  122OSM    C1S12884   6.819   2.435   6.236 -0.5653 -0.8287  0.1635
  122OSM    H1S12885   6.711   2.429   6.258 -0.6883 -2.7509 -0.7887
  122OSM    H1T12886   6.865   2.535   6.257  0.2631 -1.3818  1.0560
  122OSM     NF12887   6.876   2.363   6.471 -0.2921 -0.7147  0.0329
  122OSM    HNF12888   6.944   2.416   6.521  2.0274 -1.5027 -2.1017
  122OSM    C2S12889   6.896   2.329   6.328 -0.0079  1.0360  0.2698
  122OSM    H2S12890   6.843   2.232   6.316  0.6812  0.8305 -1.3657
  122OSM    C3S12891   7.045   2.312   6.286  0.3297  0.0256 -0.5030
  122OSM    H3S12892   7.098   2.406   6.310 -0.4895  0.5092 -0.5618
  122OSM     O312893   7.067   2.283   6.149  0.1336  0.3301 -0.2866
  122OSM    HO312894   6.987   2.327   6.119  0.7890  0.9735 -1.1503
  122OSM    C4S12895   7.101   2.190   6.364 -0.2403 -0.3888 -0.3143
  122OSM    H4S12896   7.047   2.094   6.358 -2.2397  0.7023 -0.5871
  122OSM    C5S12897   7.214   2.209   6.437 -0.3570  0.1712  0.1659
  122OSM    H5S12898   7.276   2.300   6.445 -0.1784  0.0739 -0.0882
  122OSM    C6S12899   7.276   2.089   6.512  0.7336  0.2192  0.2081
  122OSM    H6S12900   7.357   2.037   6.457  1.6644 -0.4430  2.1050
  122OSM    H6T12901   7.197   2.011   6.520 -0.6926  1.7457  2.0347
  122OSM    C7S12902   7.330   2.120   6.651  0.0968 -0.1041 -0.3163
  122OSM    H7S12903   7.263   2.202   6.684  1.2360  0.6038  0.3106
  122OSM    H7T12904   7.428   2.171   6.643 -0.1074  0.2057 -0.8614
  122OSM    C8S12905   7.328   2.018   6.766  0.2799  0.5740  0.6884
  122OSM    H8S12906   7.421   1.959   6.749  2.0431  3.1993  0.7549
  122OSM    H8T12907   7.242   1.947   6.761  1.0499 -0.2829 -1.9424
  122OSM    C9S12908   7.333   2.078   6.906 -0.5931  0.0202  0.8184
  122OSM    H9S12909   7.239   2.134   6.926 -0.5422  0.6284 -0.5389
  122OSM    H9T12910   7.419   2.147   6.921 -0.1531 -0.8872  2.8276
  122OSM   C10S12911   7.356   1.967   7.019 -0.0944 -0.4269 -0.8997
  122OSM   H10S12912   7.457   1.923   7.005 -0.1250 -0.2910 -1.6035
  122OSM   H10T12913   7.272   1.903   6.984 -1.5572  2.8645 -4.0650
  122OSM   C11S12914   7.326   2.026   7.152 -0.2970 -0.5322 -0.1407
  122OSM   H11S12915   7.222   2.066   7.155 -1.3889 -3.1892  1.3813
  122OSM   H11T12916   7.397   2.111   7.152  0.0111 -0.7844 -0.4989
  122OSM   C12S12917   7.338   1.939   7.276 -0.5774 -0.3098  0.0337
  122OSM   H12S12918   7.431   1.879   7.262  0.3092  1.0041  0.1023
  122OSM   H12T12919   7.246   1.878   7.275 -2.2591  2.0480  1.4712
  122OSM   C13S12920   7.336   2.027   7.401 -0.2075 -0.3357 -0.3704
  122OSM   H13S12921   7.248   2.094   7.397 -0.3393 -0.2279  2.3133
  122OSM   H13T12922   7.433   2.080   7.392 -1.5104  2.0614 -1.0625
  122OSM   C14S12923   7.343   1.957   7.540  1.0156 -0.3811  0.6859
  122OSM   H14S12924   7.401   1.863   7.528  0.9385 -0.4918  1.1775
  122OSM   H14T12925   7.243   1.922   7.572  0.3985  2.1861  1.7844
  122OSM   C15S12926   7.408   2.033   7.650 -0.3054  0.4019  0.3128
  122OSM   H15S12927   7.508   2.055   7.607 -0.7382  0.5277 -0.6573
  122OSM   H15T12928   7.405   1.964   7.737 -1.5791  0.8681  0.6611
  122OSM   C16S12929   7.331   2.151   7.709 -0.7766  0.8914  0.0567
  122OSM   H16S12930   7.278   2.203   7.627  2.5987  0.8778 -2.3745
  122OSM   H16T12931   7.393   2.228   7.760 -1.0480  0.6057  0.8263
  122OSM   C17S12932   7.223   2.109   7.809  0.6308 -0.3424 -0.1046
  122OSM   H17S12933   7.259   2.025   7.872  0.0604 -1.2337 -0.9244
  122OSM   H17T12934   7.148   2.062   7.742  1.9060 -0.8761 -1.2054
  122OSM   C18S12935   7.163   2.230   7.880 -0.0687  0.5701 -0.1566
  122OSM   H18S12936   7.106   2.289   7.806  1.2837  1.3005 -0.6459
  122OSM   H18T12937   7.250   2.288   7.919  0.6442 -0.6235  0.1032
  122OSM   H18U12938   7.107   2.195   7.970 -1.2383  2.3515 -0.1422
  122OSM    C1F12939   6.752   2.364   6.521  0.4607 -0.2166  0.3685
  122OSM     OF12940   6.659   2.305   6.469 -0.0510  0.2192  0.6095
  122OSM    C2F12941   6.720   2.443   6.648  0.0827 -0.2894 -0.5734
  122OSM    H2F12942   6.750   2.549   6.638  0.3891  0.1891  3.5658
  122OSM    H2G12943   6.777   2.389   6.726 -1.1194  0.2593  0.7263
  122OSM    C3F12944   6.574   2.436   6.697 -0.0789 -0.1446 -0.6085
  122OSM    H3F12945   6.553   2.327   6.706  0.7137 -0.3208 -0.8392
  122OSM    H3G12946   6.517   2.479   6.613  0.5584  1.5539 -0.2151
  122OSM    C4F12947   6.546   2.514   6.828 -0.4169  0.0005 -0.3965
  122OSM    H4F12948   6.437   2.535   6.835 -0.2415  1.6501 -1.9726
  122OSM    H4G12949   6.588   2.617   6.826  0.1162 -0.0608  2.5410
  122OSM    C5F12950   6.591   2.439   6.954 -0.2750  0.3854  0.2573
  122OSM    H5F12951   6.702   2.430   6.958 -0.3764 -0.5300  1.3750
  122OSM    H5G12952   6.549   2.337   6.954 -0.7559  0.5540  1.7963
  122OSM    C6F12953   6.533   2.501   7.081  0.2575 -0.9614 -0.5872
  122OSM    H6F12954   6.434   2.451   7.086  0.6592 -1.6461  0.7886
  122OSM    H6G12955   6.520   2.611   7.077 -0.4806 -1.0700 -1.9136
  122OSM    C7F12956   6.614   2.468   7.211 -0.0323 -0.4021  0.1747
  122OSM    H7F12957   6.707   2.529   7.202 -0.3791  0.8147  3.3666
  122OSM    H7G12958   6.660   2.367   7.207  0.9723  0.0502 -0.1122
  122OSM    C8F12959   6.551   2.499   7.351 -0.1228 -0.1015 -0.5103
  122OSM    H8F12960   6.484   2.588   7.348 -1.0932 -0.6949  1.7098
  122OSM    H8G12961   6.634   2.502   7.424 -0.0328 -0.6995 -0.5827
  122OSM    C9F12962   6.451   2.392   7.391  0.2959  0.9008 -0.2013
  122OSM    H9F12963   6.418   2.327   7.309 -0.3410  1.0648 -0.0784
  122OSM   C10F12964   6.420   2.372   7.519 -0.7776  0.7921 -1.1612
  122OSM   H10F12965   6.337   2.302   7.535  1.6355 -2.3025 -1.2010
  122OSM   C11F12966   6.480   2.447   7.638 -0.2570  0.2121  0.0254
  122OSM   H11F12967   6.411   2.474   7.721  0.3401 -2.2818  1.4033
  122OSM   H11G12968   6.513   2.546   7.601  1.2167 -0.4334 -0.4257
  122OSM   C12F12969   6.606   2.369   7.691 -0.3378 -0.2540 -0.1802
  122OSM   H12F12970   6.679   2.334   7.616 -0.2312  2.2413 -1.3188
  122OSM   H12G12971   6.579   2.280   7.752 -1.3385  0.6711  0.7818
  122OSM   C13F12972   6.671   2.463   7.791  0.1453  0.0864 -0.0153
  122OSM   H13F12973   6.593   2.521   7.843  0.0005  2.1792 -2.3780
  122OSM   H13G12974   6.739   2.531   7.735 -0.5389  0.0367 -0.9236
  122OSM   C14F12975   6.751   2.397   7.901  0.6642 -0.6079 -0.3435
  122OSM   H14F12976   6.801   2.305   7.863  0.6678 -0.5269 -0.5348
  122OSM   H14G12977   6.685   2.361   7.983  0.4465 -1.6035 -0.9355
  122OSM   C15F12978   6.847   2.495   7.965  0.1122  0.1809 -0.0299
  122OSM   H15F12979   6.805   2.593   7.997  1.3680  0.6335  0.2668
  122OSM   H15G12980   6.938   2.507   7.903  0.7147 -1.8276  0.3844
  122OSM   C16F12981   6.910   2.426   8.089 -0.3009  0.1316  0.2182
  122OSM   H16F12982   7.001   2.378   8.049 -1.3155  0.9657 -3.4597
  122OSM   H16G12983   6.835   2.351   8.122  0.2537 -1.0514 -1.1228
  122OSM   C17F12984   6.943   2.538   8.190  0.2644 -0.2255  0.0024
  122OSM   H17F12985   6.990   2.620   8.132  0.9899 -1.6586 -1.5135
  122OSM   H17G12986   7.017   2.496   8.261 -0.4076 -3.6522 -1.1508
  122OSM   C18F12987   6.838   2.602   8.278  0.3614 -0.2230 -0.2650
  122OSM   H18F12988   6.778   2.522   8.328 -0.2348 -0.1655 -0.8785
  122OSM   H18G12989   6.765   2.652   8.210  0.4535 -2.1256 -1.8636
  122OSM   H18H12990   6.875   2.678   8.350 -0.3193  0.7847 -0.9572
  123OSM      N12991   6.344   4.084   6.303 -0.5140  0.0805  0.1471
  123OSM    C1512992   6.199   4.114   6.347  0.3099 -0.2297  0.4016
  123OSM   H15A12993   6.156   4.183   6.276 -1.1322 -0.0044  1.4589
  123OSM   H15B12994   6.192   4.173   6.437 -1.2528 -0.9365  0.7756
  123OSM   H15C12995   6.144   4.022   6.363 -0.1946  0.0238  0.1459
  123OSM    C1412996   6.405   3.973   6.376 -0.2524 -0.0020 -0.8063
  123OSM   H14A12997   6.507   3.962   6.344 -0.3522  1.4291 -1.6695
  123OSM   H14B12998   6.355   3.880   6.352  1.3915 -1.5540  1.3061
  123OSM   H14C12999   6.392   3.985   6.483  3.4376  1.9058 -0.4306
  123OSM    C1313000   6.336   4.040   6.158 -0.3568 -0.0493  0.0973
  123OSM   H13A13001   6.292   4.108   6.088  3.3481  1.3936 -1.1035
  123OSM   H13B13002   6.264   3.959   6.158  0.2401 -0.5916  0.0122
  123OSM   H13C13003   6.436   4.011   6.128  0.7077  0.5154  2.7790
  123OSM    C1213004   6.434   4.207   6.319  0.4763  0.0885  0.0287
  123OSM   H12A13005   6.408   4.289   6.253 -1.8174  1.0690  2.0061
  123OSM   H12B13006   6.529   4.181   6.276 -0.1665 -0.0923 -1.3454
  123OSM    C1113007   6.455   4.262   6.459  0.0547  0.3506 -0.3840
  123OSM   H11A13008   6.537   4.337   6.455  0.6585 -0.2222  0.7204
  123OSM   H11B13009   6.479   4.175   6.524  0.3250 -0.2218 -1.2353
  123OSM      P13010   6.282   4.468   6.460  0.0349  0.2246 -0.1017
  123OSM    O1313011   6.299   4.481   6.314  0.2113  0.3876  0.0128
  123OSM    O1413012   6.146   4.489   6.524 -0.5021  0.3294 -0.2186
  123OSM    O1113013   6.387   4.557   6.530  0.2604 -0.6031  0.1618
  123OSM    O1213014   6.334   4.329   6.505 -0.0765 -0.1251  0.6434
  123OSM    C1S13015   6.413   4.573   6.675 -0.1349 -0.2189  0.9506
  123OSM    H1S13016   6.344   4.508   6.733 -0.3770  1.4465  2.6147
  123OSM    H1T13017   6.388   4.679   6.697  1.1426  0.1117  0.8882
  123OSM     NF13018   6.557   4.549   6.874  0.4044 -0.2309 -0.0911
  123OSM    HNF13019   6.578   4.634   6.920  1.4860 -0.4551 -0.1504
  123OSM    C2S13020   6.556   4.543   6.730  0.7701  0.4921  0.2985
  123OSM    H2S13021   6.575   4.440   6.693  1.8301  0.0284  1.9905
  123OSM    C3S13022   6.663   4.637   6.671 -0.8518 -0.3311  0.0472
  123OSM    H3S13023   6.635   4.742   6.696  1.2114  0.6922 -1.6874
  123OSM     O313024   6.663   4.616   6.530 -0.2086 -0.1935  0.0244
  123OSM    HO313025   6.576   4.584   6.505 -1.0131  0.7999  1.3978
  123OSM    C4S13026   6.791   4.593   6.726 -0.5763  0.2774 -0.0615
  123OSM    H4S13027   6.827   4.496   6.689  0.6006  1.1532 -1.3182
  123OSM    C5S13028   6.868   4.669   6.812 -0.3391  0.0639  0.0871
  123OSM    H5S13029   6.840   4.773   6.829 -0.9439 -0.4396  2.4502
  123OSM    C6S13030   7.006   4.635   6.863  0.4394 -0.3410 -0.2143
  123OSM    H6S13031   7.085   4.708   6.837  1.5945 -2.1219 -1.9008
  123OSM    H6T13032   7.043   4.532   6.845  0.3268 -0.5157  0.5111
  123OSM    C7S13033   6.999   4.638   7.021  0.3963 -0.4241 -0.3190
  123OSM    H7S13034   6.931   4.560   7.060  1.0004 -1.7736 -1.8476
  123OSM    H7T13035   6.977   4.743   7.049 -0.0930 -0.6585  0.2145
  123OSM    C8S13036   7.129   4.611   7.092 -0.3940  0.3257  0.4868
  123OSM    H8S13037   7.208   4.690   7.086  0.1537 -0.2746 -0.4943
  123OSM    H8T13038   7.185   4.539   7.029 -1.3344  0.1894 -0.2154
  123OSM    C9S13039   7.120   4.566   7.237 -0.2684 -0.4480 -0.5779
  123OSM    H9S13040   7.080   4.462   7.238  1.4978 -1.1695  0.4115
  123OSM    H9T13041   7.051   4.637   7.289  1.2277  0.4573  0.2518
  123OSM   C10S13042   7.250   4.566   7.316 -0.5229 -0.3143  0.3337
  123OSM   H10S13043   7.301   4.662   7.292 -0.0802 -0.4018  0.9054
  123OSM   H10T13044   7.319   4.490   7.273  1.8850  2.2421 -0.6199
  123OSM   C11S13045   7.234   4.540   7.463 -0.6497 -0.6689 -0.0647
  123OSM   H11S13046   7.333   4.506   7.501 -0.0698 -0.3289 -1.2336
  123OSM   H11T13047   7.164   4.454   7.473  0.6972 -1.7957 -0.1201
  123OSM   C12S13048   7.185   4.661   7.543  0.4058 -0.2881 -1.0021
  123OSM   H12S13049   7.076   4.669   7.522 -0.0009 -1.8560  0.3534
  123OSM   H12T13050   7.234   4.756   7.513 -0.8572  1.9819  3.2942
  123OSM   C13S13051   7.214   4.658   7.691 -0.0304  0.2400 -0.9239
  123OSM   H13S13052   7.149   4.579   7.734 -2.7515  2.7109 -0.1949
  123OSM   H13T13053   7.177   4.748   7.744  0.1134 -0.9645  1.3497
  123OSM   C14S13054   7.358   4.666   7.735  0.1963  0.6286  0.4527
  123OSM   H14S13055   7.401   4.768   7.733 -1.7824  1.5086 -0.4030
  123OSM   H14T13056   7.413   4.596   7.668  1.0122  0.7390  1.0036
  123OSM   C15S13057   7.380   4.619   7.884  0.5840  0.8428  0.2762
  123OSM   H15S13058   7.488   4.593   7.889  0.1939 -0.7022  2.0425
  123OSM   H15T13059   7.323   4.524   7.896  0.5516  0.6561 -1.2413
  123OSM   C16S13060   7.352   4.721   7.994 -0.2876  0.4237  0.3726
  123OSM   H16S13061   7.259   4.781   7.982 -0.2377  0.2227 -1.2738
  123OSM   H16T13062   7.433   4.794   7.975  0.0514 -0.1994 -0.6870
  123OSM   C17S13063   7.372   4.661   8.132 -0.3988 -0.0021 -0.0106
  123OSM   H17S13064   7.376   4.740   8.210 -1.3111 -1.2280  1.3376
  123OSM   H17T13065   7.463   4.597   8.132  0.4160  0.9802  2.9434
  123OSM   C18S13066   7.248   4.586   8.190 -0.0453  0.4424  0.1885
  123OSM   H18S13067   7.268   4.552   8.293  0.6763  0.8307  0.1799
  123OSM   H18T13068   7.234   4.502   8.118  1.3951  1.2735 -1.1315
  123OSM   H18U13069   7.166   4.660   8.184  0.0470  0.5648  0.4652
  123OSM    C1F13070   6.483   4.464   6.950  0.6473  0.3117  0.1984
  123OSM     OF13071   6.449   4.356   6.904  0.7196 -0.8883  0.6676
  123OSM    C2F13072   6.459   4.508   7.095 -0.8493  0.2175  0.4844
  123OSM    H2F13073   6.425   4.614   7.103  1.5328  1.1299 -0.4863
  123OSM    H2G13074   6.563   4.513   7.136 -1.2332 -0.7973  1.6174
  123OSM    C3F13075   6.385   4.401   7.175 -0.0169 -0.1624 -0.3631
  123OSM    H3F13076   6.427   4.298   7.165 -1.6360 -0.8872 -0.0864
  123OSM    H3G13077   6.280   4.404   7.138  0.7095  0.5744 -2.5034
  123OSM    C4F13078   6.385   4.430   7.321 -0.0810 -0.2212 -0.2082
  123OSM    H4F13079   6.325   4.522   7.338 -0.3281 -0.1113 -1.5476
  123OSM    H4G13080   6.486   4.454   7.360 -0.9777 -0.2754  2.3224
  123OSM    C5F13081   6.323   4.312   7.397  0.7922  0.1291 -0.2083
  123OSM    H5F13082   6.387   4.222   7.399 -1.1107 -1.2793 -0.2994
  123OSM    H5G13083   6.232   4.272   7.348  0.8283 -2.1912  1.4657
  123OSM    C6F13084   6.295   4.337   7.545  0.5343  0.0386  0.1704
  123OSM    H6F13085   6.247   4.252   7.598 -0.6607  1.0031  0.6693
  123OSM    H6G13086   6.232   4.428   7.555  1.6046  0.6561  1.7204
  123OSM    C7F13087   6.418   4.376   7.626 -0.2858 -0.7085 -0.4247
  123OSM    H7F13088   6.459   4.470   7.582  1.1055 -1.1609 -0.1532
  123OSM    H7G13089   6.497   4.298   7.624  1.1573  0.6388  1.0096
  123OSM    C8F13090   6.393   4.409   7.777  0.1935  0.0744 -0.2277
  123OSM    H8F13091   6.355   4.514   7.784  0.3700  0.0261  2.2933
  123OSM    H8G13092   6.486   4.405   7.837  0.1898 -1.1346 -0.2779
  123OSM    C9F13093   6.292   4.334   7.851  0.3437 -0.4353 -0.1665
  123OSM    H9F13094   6.189   4.367   7.834  0.6710 -0.0035 -1.3490
  123OSM   C10F13095   6.314   4.222   7.922  0.7358  0.3927  0.0624
  123OSM   H10F13096   6.228   4.174   7.971  0.5242  0.6588 -0.0472
  123OSM   C11F13097   6.441   4.145   7.936 -0.2047  0.5802  0.1447
  123OSM   H11F13098   6.500   4.166   7.844 -0.9995 -2.3571 -1.1478
  123OSM   H11G13099   6.417   4.037   7.940  0.3292  0.2941 -2.4922
  123OSM   C12F13100   6.518   4.178   8.071 -0.3042 -0.0976  0.0976
  123OSM   H12F13101   6.530   4.286   8.095  2.6469 -0.7125  1.8648
  123OSM   H12G13102   6.620   4.143   8.047 -0.4764 -0.7616  0.3294
  123OSM   C13F13103   6.465   4.104   8.194 -1.0041  0.2708  0.3765
  123OSM   H13F13104   6.481   3.994   8.183 -0.8563  0.0773  2.2273
  123OSM   H13G13105   6.357   4.114   8.214 -0.6202  1.4133  2.0700
  123OSM   C14F13106   6.550   4.156   8.311 -0.7204 -0.4541 -0.5365
  123OSM   H14F13107   6.534   4.263   8.336  0.6304 -0.6369  1.3807
  123OSM   H14G13108   6.655   4.135   8.282 -0.8857 -1.3849 -0.4980
  123OSM   C15F13109   6.514   4.091   8.444 -0.8397 -1.0553  0.7600
  123OSM   H15F13110   6.602   4.127   8.502 -0.0818 -2.1968  0.3533
  123OSM   H15G13111   6.524   3.982   8.423 -0.1582 -0.7288 -0.7154
  123OSM   C16F13112   6.373   4.113   8.506 -0.8606  0.1554  1.3182
  123OSM   H16F13113   6.303   4.067   8.433  0.3086 -0.6861  0.6981
  123OSM   H16G13114   6.354   4.222   8.498  1.0030  0.3618 -2.1106
  123OSM   C17F13115   6.348   4.060   8.648  0.3245 -0.3621 -1.1918
  123OSM   H17F13116   6.254   4.106   8.685  0.2086 -2.3615  1.2705
  123OSM   H17G13117   6.430   4.107   8.706 -1.2352  0.9806  0.0343
  123OSM   C18F13118   6.341   3.906   8.657  0.3553 -0.7198 -0.5428
  123OSM   H18F13119   6.312   3.861   8.754  0.5355 -0.5560 -0.4141
  123OSM   H18G13120   6.445   3.877   8.632  2.0613  1.7358  2.9499
  123OSM   H18H13121   6.280   3.863   8.574  0.1035  0.0892 -0.7883
  124OSM      N13122   1.451   4.446   6.238  0.1947  0.2746  0.0541
  124OSM    C1513123   1.319   4.422   6.180  0.5437  0.0996 -0.1520
  124OSM   H15A13124   1.325   4.410   6.072 -1.1029  3.7096 -0.8042
  124OSM   H15B13125   1.251   4.506   6.180  0.1378 -0.0873 -3.2992
  124OSM   H15C13126   1.269   4.336   6.222  0.7624  0.5580  1.0826
  124OSM    C1413127   1.543   4.328   6.219 -0.5711 -0.3815  0.1500
  124OSM   H14A13128   1.640   4.357   6.256 -0.1164  0.7481 -1.7958
  124OSM   H14B13129   1.558   4.304   6.115  0.6021  0.6317  0.0568
  124OSM   H14C13130   1.508   4.240   6.271  1.3630 -1.8509 -0.9004
  124OSM    C1313131   1.492   4.552   6.144 -0.3223 -0.3459  0.7466
  124OSM   H13A13132   1.491   4.519   6.041 -1.2179  0.3644  0.5082
  124OSM   H13B13133   1.596   4.570   6.165 -0.4844  2.1753 -0.2467
  124OSM   H13C13134   1.423   4.634   6.157 -0.4172 -0.5844  1.8710
  124OSM    C1213135   1.439   4.498   6.381 -0.2045 -0.4316  0.0603
  124OSM   H12A13136   1.538   4.513   6.424 -0.3222  1.8989 -0.3497
  124OSM   H12B13137   1.403   4.420   6.446 -2.2841 -1.0143 -1.7027
  124OSM    C1113138   1.366   4.630   6.399  0.6178 -0.8799 -0.2773
  124OSM   H11A13139   1.420   4.710   6.344  0.0745 -0.5744 -0.3770
  124OSM   H11B13140   1.371   4.666   6.504  1.4758 -0.0783 -0.5895
  124OSM      P13141   1.118   4.717   6.398 -0.5247 -0.1680  0.1744
  124OSM    O1313142   1.134   4.834   6.310  0.1624 -0.1784  0.7371
  124OSM    O1413143   0.992   4.641   6.391 -0.8962 -0.3000 -0.2477
  124OSM    O1113144   1.141   4.759   6.551 -0.2510  0.2358 -0.1821
  124OSM    O1213145   1.224   4.614   6.358 -0.5303 -0.3326  0.4050
  124OSM    C1S13146   1.139   4.663   6.657 -0.4662  0.5804  0.5574
  124OSM    H1S13147   1.186   4.567   6.627 -3.1146 -0.7165  0.2112
  124OSM    H1T13148   1.032   4.639   6.673 -0.2329 -1.3898 -0.5262
  124OSM     NF13149   1.177   4.632   6.895 -1.1703 -0.5662 -0.1074
  124OSM    HNF13150   1.114   4.676   6.958  1.0450  2.3871  0.2606
  124OSM    C2S13151   1.205   4.721   6.781 -0.2619 -0.3622  0.1368
  124OSM    H2S13152   1.314   4.730   6.764 -0.2601  0.9303  0.6585
  124OSM    C3S13153   1.153   4.866   6.809 -0.3463  0.1790  0.7653
  124OSM    H3S13154   1.042   4.866   6.817 -0.4311 -1.7000  0.1779
  124OSM     O313155   1.202   4.968   6.719  0.0997 -0.0218  0.2377
  124OSM    HO313156   1.195   4.923   6.634  1.8984 -1.5788  0.8455
  124OSM    C4S13157   1.217   4.908   6.940  0.3188 -0.1767 -0.6616
  124OSM    H4S13158   1.327   4.909   6.945  0.2657 -0.6695  2.4556
  124OSM    C5S13159   1.147   4.940   7.057  0.3384 -0.1829  0.3008
  124OSM    H5S13160   1.038   4.931   7.057  0.3836 -0.7634  0.3394
  124OSM    C6S13161   1.202   4.987   7.189 -0.4048  0.2552  0.2847
  124OSM    H6S13162   1.305   5.025   7.174 -0.3243 -0.2284 -0.4312
  124OSM    H6T13163   1.216   4.898   7.254  2.1070 -0.1036 -0.6296
  124OSM    C7S13164   1.107   5.086   7.256  0.4220  0.9968  0.1352
  124OSM    H7S13165   1.011   5.047   7.296  1.7888 -0.0695  2.5521
  124OSM    H7T13166   1.093   5.183   7.204  1.8061  2.9991  3.2040
  124OSM    C8S13167   1.169   5.135   7.387  0.7332  0.1049  0.2188
  124OSM    H8S13168   1.256   5.194   7.351 -0.5586 -0.4760 -4.5875
  124OSM    H8T13169   1.193   5.045   7.446 -3.0694 -1.0276  0.2946
  124OSM    C9S13170   1.079   5.221   7.475  0.6417  0.0889  0.2618
  124OSM    H9S13171   0.999   5.156   7.517  0.7989  0.8251  1.7825
  124OSM    H9T13172   1.025   5.297   7.414 -2.0396  0.1588  2.5132
  124OSM   C10S13173   1.158   5.288   7.588 -0.0785 -0.1352 -0.4887
  124OSM   H10S13174   1.124   5.394   7.597 -0.5880 -0.5042  3.3535
  124OSM   H10T13175   1.263   5.295   7.552 -0.1692 -1.0905 -0.9716
  124OSM   C11S13176   1.165   5.223   7.726  0.5110 -0.4512  0.0025
  124OSM   H11S13177   1.153   5.114   7.708 -1.7922 -0.1097 -0.8208
  124OSM   H11T13178   1.067   5.241   7.775 -0.0771 -0.0576 -1.2741
  124OSM   C12S13179   1.292   5.235   7.808  0.0147 -0.2187  0.6415
  124OSM   H12S13180   1.288   5.335   7.856 -1.3353  0.4571 -0.8011
  124OSM   H12T13181   1.368   5.219   7.728 -0.5097  0.8232 -0.0844
  124OSM   C13S13182   1.314   5.132   7.915  0.3420 -0.2831 -0.3965
  124OSM   H13S13183   1.374   5.048   7.874  2.1054 -0.3280  2.0154
  124OSM   H13T13184   1.216   5.092   7.949 -0.2214  1.3230 -0.0674
  124OSM   C14S13185   1.390   5.186   8.036  0.4491 -0.1667  0.3213
  124OSM   H14S13186   1.354   5.290   8.051  0.2867  0.1179 -1.7185
  124OSM   H14T13187   1.497   5.188   8.009  0.3852 -2.3198 -0.3093
  124OSM   C15S13188   1.375   5.100   8.165 -0.1508 -0.5165 -0.0740
  124OSM   H15S13189   1.432   5.006   8.150 -3.1675 -2.6943  1.0110
  124OSM   H15T13190   1.270   5.067   8.181 -0.0430 -0.2703  1.2910
  124OSM   C16S13191   1.412   5.187   8.286 -0.6344 -0.0924  0.6600
  124OSM   H16S13192   1.342   5.273   8.291  2.1827  2.2876  2.8933
  124OSM   H16T13193   1.510   5.235   8.264 -0.9549  0.4979  0.5135
  124OSM   C17S13194   1.410   5.114   8.425  0.0453 -0.5847  0.2583
  124OSM   H17S13195   1.420   5.191   8.505 -0.7738  0.9661 -1.0672
  124OSM   H17T13196   1.503   5.052   8.425 -0.9869 -2.2746  2.1334
  124OSM   C18S13197   1.284   5.030   8.450  0.2612  0.3160  0.3232
  124OSM   H18S13198   1.188   5.086   8.453  0.0933 -0.0111  1.3650
  124OSM   H18T13199   1.292   4.971   8.544  0.4088  0.8821  0.6665
  124OSM   H18U13200   1.274   4.954   8.369 -1.4118  1.9655 -1.1216
  124OSM    C1F13201   1.237   4.507   6.915  0.6209 -0.7465 -0.7349
  124OSM     OF13202   1.323   4.467   6.839  0.1019 -0.0815 -0.2930
  124OSM    C2F13203   1.174   4.427   7.026 -0.1039  0.0942 -0.1923
  124OSM    H2F13204   1.107   4.363   6.964  0.2865  2.0227 -2.8132
  124OSM    H2G13205   1.126   4.496   7.098  1.5952  0.4676  0.6224
  124OSM    C3F13206   1.269   4.337   7.103 -1.1539 -0.3988  0.8851
  124OSM    H3F13207   1.321   4.269   7.032 -1.0668  0.1009  0.4640
  124OSM    H3G13208   1.203   4.280   7.172  0.6365  0.1777  3.2535
  124OSM    C4F13209   1.370   4.407   7.188 -0.0765  0.8242  0.0631
  124OSM    H4F13210   1.345   4.500   7.243  0.7498 -0.2363  2.3789
  124OSM    H4G13211   1.451   4.429   7.116 -1.2148 -0.5237 -1.6990
  124OSM    C5F13212   1.419   4.318   7.310 -0.4183 -0.5454  0.0165
  124OSM    H5F13213   1.530   4.325   7.299 -0.4254 -0.7617 -0.1816
  124OSM    H5G13214   1.379   4.216   7.294 -2.4180  0.1974  0.0507
  124OSM    C6F13215   1.369   4.374   7.444  0.5009  0.0396 -0.3891
  124OSM    H6F13216   1.258   4.367   7.447  0.4290  1.3943  0.4365
  124OSM    H6G13217   1.403   4.479   7.452  0.0240  0.1353  0.4542
  124OSM    C7F13218   1.447   4.283   7.545 -0.3329  0.6725  0.6019
  124OSM    H7F13219   1.551   4.305   7.514 -0.1445 -0.6040  0.2673
  124OSM    H7G13220   1.434   4.174   7.532 -1.5546  0.9786 -1.1591
  124OSM    C8F13221   1.419   4.310   7.691  0.4636  0.9297  0.0829
  124OSM    H8F13222   1.410   4.420   7.702 -0.4600  0.7794  1.1444
  124OSM    H8G13223   1.510   4.280   7.747  2.0480  2.4106 -1.6019
  124OSM    C9F13224   1.293   4.244   7.735 -0.5065  0.1170  0.2110
  124OSM    H9F13225   1.203   4.275   7.679 -1.8936 -1.3389  1.5369
  124OSM   C10F13226   1.288   4.142   7.821  0.4714  0.7103  0.9958
  124OSM   H10F13227   1.185   4.126   7.855  0.0061 -1.5880 -1.1626
  124OSM   C11F13228   1.404   4.070   7.880 -0.1029  0.2805  0.1813
  124OSM   H11F13229   1.502   4.122   7.871  0.5207 -0.9218 -0.1946
  124OSM   H11G13230   1.405   3.973   7.824 -2.0035  0.4099 -0.1294
  124OSM   C12F13231   1.406   4.024   8.025  0.5524 -0.0514 -0.3086
  124OSM   H12F13232   1.465   3.931   8.043 -0.0281 -0.3704 -0.0324
  124OSM   H12G13233   1.304   3.996   8.060  0.2161  0.6408 -0.7260
  124OSM   C13F13234   1.453   4.136   8.117  0.5316  0.3468 -0.5404
  124OSM   H13F13235   1.377   4.217   8.121  1.1239  0.8925 -0.1925
  124OSM   H13G13236   1.546   4.182   8.076  0.1603  0.2078 -1.5693
  124OSM   C14F13237   1.467   4.068   8.254 -0.1088 -0.0871  0.4262
  124OSM   H14F13238   1.545   3.989   8.245 -2.0907 -1.9747 -0.9237
  124OSM   H14G13239   1.377   4.004   8.263 -0.0694 -0.2338 -0.1678
  124OSM   C15F13240   1.479   4.152   8.376  0.8652  0.0897  0.0166
  124OSM   H15F13241   1.402   4.231   8.380  1.0853  0.2613  1.5656
  124OSM   H15G13242   1.580   4.195   8.395 -0.4153  2.6975  1.3713
  124OSM   C16F13243   1.452   4.066   8.504 -0.2723  0.2674 -0.7598
  124OSM   H16F13244   1.355   4.012   8.500 -0.4881  0.7124 -1.7989
  124OSM   H16G13245   1.445   4.137   8.589  0.2357  0.1238 -0.5971
  124OSM   C17F13246   1.566   3.963   8.533 -0.3082  0.4274 -0.7000
  124OSM   H17F13247   1.668   4.008   8.529 -0.9517  1.9693 -0.2930
  124OSM   H17G13248   1.581   3.892   8.449  2.9633 -0.4541  0.4456
  124OSM   C18F13249   1.561   3.871   8.661 -0.2891  0.5585  0.0962
  124OSM   H18F13250   1.643   3.797   8.659 -0.2461  0.6080  0.0309
  124OSM   H18G13251   1.466   3.815   8.649  0.1353  0.0756 -1.1524
  124OSM   H18H13252   1.581   3.932   8.752  0.3604  0.5270 -0.0198
  125OSM      N13253   4.078   6.383   6.231 -0.0168  0.0994  0.1735
  125OSM    C1513254   4.190   6.481   6.183 -0.1238  0.3805 -0.1317
  125OSM   H15A13255   4.135   6.561   6.136 -0.3290  0.2246 -0.1583
  125OSM   H15B13256   4.257   6.432   6.115  0.1311 -0.7333  0.8955
  125OSM   H15C13257   4.247   6.529   6.262 -1.2441  2.1437 -0.3183
  125OSM    C1413258   4.005   6.331   6.107  0.1874  0.8596 -0.1185
  125OSM   H14A13259   3.931   6.257   6.134 -1.3098  1.9943 -0.9652
  125OSM   H14B13260   4.072   6.272   6.046 -0.2963  1.1254 -0.9240
  125OSM   H14C13261   3.964   6.414   6.051  0.8777  0.0764 -1.8340
  125OSM    C1313262   4.140   6.273   6.313  0.6074  0.2293  0.1408
  125OSM   H13A13263   4.194   6.312   6.398  0.2516  0.4631  0.2637
  125OSM   H13B13264   4.204   6.204   6.260  0.0953 -1.4199  1.5454
  125OSM   H13C13265   4.058   6.210   6.345 -1.9340  3.3185  0.2670
  125OSM    C1213266   3.989   6.469   6.319 -0.5229  0.6461  0.0635
  125OSM   H12A13267   3.963   6.556   6.260 -0.3020 -0.8612 -2.4415
  125OSM   H12B13268   4.045   6.494   6.407 -0.1299 -2.4107  0.8167
  125OSM    C1113269   3.860   6.411   6.376  0.2204 -1.4577 -0.6000
  125OSM   H11A13270   3.808   6.475   6.451 -0.3813 -2.3298 -0.2653
  125OSM   H11B13271   3.887   6.313   6.421  1.3538  0.3095  2.9704
  125OSM      P13272   3.647   6.478   6.225 -0.1447 -0.2855  0.0607
  125OSM    O1313273   3.703   6.602   6.166  0.3039  0.1290 -0.5388
  125OSM    O1413274   3.557   6.398   6.136 -0.4836  0.1452 -0.4948
  125OSM    O1113275   3.569   6.519   6.369 -0.9042 -0.1120  0.1196
  125OSM    O1213276   3.764   6.387   6.267 -0.3194  0.1147 -0.7923
  125OSM    C1S13277   3.491   6.422   6.440 -0.2064  0.3292  0.4635
  125OSM    H1S13278   3.556   6.335   6.462 -0.7219 -0.6024 -1.4990
  125OSM    H1T13279   3.410   6.378   6.378  0.9801  0.6677 -1.3923
  125OSM     NF13280   3.422   6.349   6.655  0.1024 -0.2594  0.1702
  125OSM    HNF13281   3.331   6.320   6.683  0.3921 -0.0638  1.3506
  125OSM    C2S13282   3.445   6.465   6.576 -0.2698 -1.3336 -0.3241
  125OSM    H2S13283   3.532   6.519   6.619 -0.8594 -0.0258 -0.7281
  125OSM    C3S13284   3.334   6.580   6.559 -0.5116 -0.0064 -0.3941
  125OSM    H3S13285   3.236   6.529   6.552 -0.5063 -0.1630  0.4725
  125OSM     O313286   3.359   6.665   6.450 -0.2728  0.0867  0.1260
  125OSM    HO313287   3.428   6.620   6.400 -1.3885 -0.9148 -0.5365
  125OSM    C4S13288   3.322   6.663   6.686  0.0158  1.0085  0.7961
  125OSM    H4S13289   3.423   6.689   6.720  0.0518  0.6380  0.9777
  125OSM    C5S13290   3.211   6.700   6.758 -0.6399 -0.2393  0.4979
  125OSM    H5S13291   3.119   6.672   6.706 -0.0739  1.9622 -1.9041
  125OSM    C6S13292   3.191   6.788   6.875  0.7868 -0.0015 -0.5142
  125OSM    H6S13293   3.182   6.725   6.967 -0.9276 -1.2012 -1.4594
  125OSM    H6T13294   3.098   6.848   6.868 -0.2638 -1.3875  0.7609
  125OSM    C7S13295   3.309   6.887   6.898 -0.0817  0.2483 -0.5082
  125OSM    H7S13296   3.309   6.959   6.814 -3.1126 -0.3919 -1.1462
  125OSM    H7T13297   3.413   6.846   6.891 -0.7082 -1.1392 -2.3682
  125OSM    C8S13298   3.309   6.976   7.018 -0.1529  0.4034 -1.0218
  125OSM    H8S13299   3.210   7.024   7.027  0.7111  2.2870 -1.1216
  125OSM    H8T13300   3.377   7.064   7.012  0.6154 -0.2362 -2.1302
  125OSM    C9S13301   3.347   6.898   7.145  0.2148  0.6672  1.0018
  125OSM    H9S13302   3.440   6.839   7.125 -0.6591 -0.2212 -0.6756
  125OSM    H9T13303   3.272   6.817   7.158 -1.4892  1.6647 -1.6692
  125OSM   C10S13304   3.367   6.985   7.266  0.3541 -0.5054 -0.5901
  125OSM   H10S13305   3.285   7.060   7.264  2.2523  1.6562 -1.2394
  125OSM   H10T13306   3.453   7.048   7.236  0.3847 -0.8965 -1.3396
  125OSM   C11S13307   3.370   6.906   7.390 -0.2202  1.1433  0.0708
  125OSM   H11S13308   3.458   6.842   7.369 -0.1507  1.1075  0.4753
  125OSM   H11T13309   3.285   6.835   7.400  1.5596 -1.2906 -0.9291
  125OSM   C12S13310   3.377   6.994   7.517 -0.4878 -0.4149  0.1271
  125OSM   H12S13311   3.291   7.063   7.520  0.1038  0.3392  0.1690
  125OSM   H12T13312   3.465   7.058   7.493 -1.6020  0.8295 -0.8068
  125OSM   C13S13313   3.389   6.905   7.638 -0.2769 -0.2280  0.2767
  125OSM   H13S13314   3.458   6.825   7.605 -0.3592  0.9256 -2.9758
  125OSM   H13T13315   3.290   6.856   7.646 -1.3491  1.8754  0.5658
  125OSM   C14S13316   3.447   6.974   7.766 -0.8572  0.1604  0.2482
  125OSM   H14S13317   3.384   7.063   7.788  0.4420  1.7212 -1.9065
  125OSM   H14T13318   3.545   7.018   7.738 -1.1027  0.4175 -0.2217
  125OSM   C15S13319   3.466   6.883   7.890  0.2414 -0.0205 -0.5985
  125OSM   H15S13320   3.531   6.799   7.859  0.2125  0.1982 -1.2762
  125OSM   H15T13321   3.363   6.854   7.923  0.4110  0.1195  0.0743
  125OSM   C16S13322   3.526   6.953   8.014 -0.2734  0.7523 -0.6834
  125OSM   H16S13323   3.462   7.033   8.056 -0.5311  1.3694 -2.1920
  125OSM   H16T13324   3.613   7.009   7.974  0.3909 -1.1357 -2.0417
  125OSM   C17S13325   3.573   6.850   8.126 -0.7497 -0.1686  0.0395
  125OSM   H17S13326   3.651   6.778   8.095 -2.0812 -0.5318 -2.7424
  125OSM   H17T13327   3.482   6.792   8.153  0.7830 -2.6996  0.0780
  125OSM   C18S13328   3.640   6.925   8.248  0.3414 -0.5943 -0.4216
  125OSM   H18S13329   3.674   6.854   8.327  1.9676  2.1244  1.4995
  125OSM   H18T13330   3.575   7.001   8.296 -0.4329 -2.3194  1.3691
  125OSM   H18U13331   3.736   6.958   8.201  1.1071 -0.6854  1.0214
  125OSM    C1F13332   3.509   6.270   6.713  1.1463 -0.5574  0.0574
  125OSM     OF13333   3.623   6.304   6.722 -0.2054  0.4621  0.0098
  125OSM    C2F13334   3.460   6.146   6.787  0.0620  0.6172  0.8227
  125OSM    H2F13335   3.498   6.064   6.724 -1.3355  1.9132 -1.8835
  125OSM    H2G13336   3.349   6.146   6.792 -0.0124  1.6299 -0.2725
  125OSM    C3F13337   3.511   6.146   6.934  0.4934 -0.3039  0.3725
  125OSM    H3F13338   3.479   6.241   6.981 -2.0433 -0.6945 -0.4008
  125OSM    H3G13339   3.621   6.138   6.924  0.3286 -0.6602 -1.5318
  125OSM    C4F13340   3.464   6.019   7.017  0.3735 -0.1290 -0.1251
  125OSM    H4F13341   3.473   5.923   6.963 -0.2358  0.3025 -1.0177
  125OSM    H4G13342   3.362   6.049   7.050  0.5105 -0.4735  0.6371
  125OSM    C5F13343   3.562   5.990   7.136  0.2493 -0.6082  0.0366
  125OSM    H5F13344   3.531   6.073   7.204  0.1075 -2.6942  2.6751
  125OSM    H5G13345   3.669   6.004   7.112  0.4426 -2.2407 -0.1092
  125OSM    C6F13346   3.534   5.861   7.201 -0.5768 -0.2386 -0.4761
  125OSM    H6F13347   3.610   5.794   7.155  1.2445  0.7005  0.9794
  125OSM    H6G13348   3.436   5.815   7.180 -2.2159  2.2818  1.1433
  125OSM    C7F13349   3.571   5.858   7.348 -0.1105 -0.5376 -0.3839
  125OSM    H7F13350   3.512   5.935   7.401 -0.2738 -0.6242 -0.4398
  125OSM    H7G13351   3.682   5.868   7.352  0.0539 -1.2561 -2.1813
  125OSM    C8F13352   3.531   5.728   7.418 -0.0745 -0.2014  0.1504
  125OSM    H8F13353   3.571   5.654   7.345 -0.1894 -1.3630  1.2458
  125OSM    H8G13354   3.421   5.713   7.418 -0.0771 -0.2669  1.3189
  125OSM    C9F13355   3.588   5.703   7.553  0.3423  0.3816 -0.4263
  125OSM    H9F13356   3.698   5.711   7.557  0.4453 -0.0014 -1.9666
  125OSM   C10F13357   3.518   5.680   7.664 -0.9293  0.2498  0.3030
  125OSM   H10F13358   3.568   5.668   7.761  1.0923  1.6099 -0.4928
  125OSM   C11F13359   3.367   5.670   7.661  0.0195  0.2963 -0.4361
  125OSM   H11F13360   3.332   5.579   7.609  0.6933 -0.7119  0.8178
  125OSM   H11G13361   3.307   5.754   7.620 -0.2044 -0.1281 -0.9818
  125OSM   C12F13362   3.303   5.642   7.808  0.2752  0.6904  0.0649
  125OSM   H12F13363   3.364   5.560   7.852  0.7935  2.3230  2.5988
  125OSM   H12G13364   3.202   5.608   7.778 -0.2399  2.7484 -0.6850
  125OSM   C13F13365   3.299   5.772   7.889 -0.2136  0.3714  0.1604
  125OSM   H13F13366   3.260   5.845   7.815 -0.1270 -3.0526 -3.6385
  125OSM   H13G13367   3.402   5.792   7.925 -0.3014  2.0133 -0.4360
  125OSM   C14F13368   3.197   5.763   8.011 -0.0642 -0.1413  0.1299
  125OSM   H14F13369   3.239   5.690   8.084  0.5499  0.8668  0.8216
  125OSM   H14G13370   3.105   5.712   7.976 -0.0049  1.0291 -1.8835
  125OSM   C15F13371   3.166   5.902   8.074  0.3875  1.0736  0.2331
  125OSM   H15F13372   3.081   5.954   8.025  0.1544  0.6528  0.1868
  125OSM   H15G13373   3.264   5.951   8.056  1.2179 -0.3161  0.8081
  125OSM   C16F13374   3.137   5.889   8.222 -0.8684  0.4835  0.5412
  125OSM   H16F13375   3.162   5.989   8.262  0.7132 -0.3124  1.6479
  125OSM   H16G13376   3.218   5.831   8.273  0.3399 -1.3437 -3.0946
  125OSM   C17F13377   3.005   5.840   8.266  0.5618  0.2954 -0.9915
  125OSM   H17F13378   3.001   5.729   8.269  1.4550  0.2427 -1.3570
  125OSM   H17G13379   2.919   5.868   8.201 -0.3197  0.2975  0.1411
  125OSM   C18F13380   2.978   5.869   8.409  0.1215 -0.3860 -0.1829
  125OSM   H18F13381   2.870   5.858   8.430 -0.3774 -0.0898 -2.3910
  125OSM   H18G13382   3.013   5.969   8.441 -1.4924  0.4280 -0.8814
  125OSM   H18H13383   3.030   5.796   8.476  2.5176  1.3620 -0.0062
  126OSM      N13384   4.958   3.887   6.572  0.1033  0.0752  0.4204
  126OSM    C1513385   4.938   3.976   6.693 -0.1476  0.6549  0.5991
  126OSM   H15A13386   4.850   3.955   6.751 -0.2512 -2.1345 -0.4039
  126OSM   H15B13387   4.931   4.079   6.661  0.9814  1.1801  1.8988
  126OSM   H15C13388   5.020   3.982   6.764 -0.3505 -0.5225  0.9497
  126OSM    C1413389   4.848   3.895   6.461 -0.0887  0.0290  0.2336
  126OSM   H14A13390   4.746   3.898   6.496 -0.1395  0.6323  0.0474
  126OSM   H14B13391   4.855   3.812   6.392 -0.0957 -2.3733  2.8992
  126OSM   H14C13392   4.857   3.987   6.405 -1.1340  0.2002  0.3373
  126OSM    C1313393   5.096   3.918   6.521  0.5340 -0.4804 -0.4531
  126OSM   H13A13394   5.170   3.903   6.598 -1.2358 -0.5528  1.3058
  126OSM   H13B13395   5.095   4.024   6.499  1.3152 -0.5555 -0.8614
  126OSM   H13C13396   5.125   3.852   6.441  2.3209  1.5884 -1.6015
  126OSM    C1213397   4.951   3.741   6.616  0.4146  0.1580  0.6712
  126OSM   H12A13398   4.976   3.693   6.522 -1.3297 -0.3217  0.4084
  126OSM   H12B13399   4.851   3.713   6.646  0.7581 -0.1893  1.5317
  126OSM    C1113400   5.035   3.677   6.730  0.1501 -0.0468 -0.0673
  126OSM   H11A13401   5.003   3.570   6.728  1.2665 -0.3951 -2.2793
  126OSM   H11B13402   4.997   3.723   6.823 -0.4606 -0.4261 -0.1142
  126OSM      P13403   5.250   3.601   6.616  0.3170 -0.1167  0.3092
  126OSM    O1313404   5.157   3.538   6.514  0.0433 -0.1595  0.2814
  126OSM    O1413405   5.364   3.670   6.554  0.0311 -0.0098  0.6158
  126OSM    O1113406   5.306   3.492   6.709  0.1935  0.3014 -0.0144
  126OSM    O1213407   5.174   3.691   6.713  0.2226 -0.0474 -0.0071
  126OSM    C1S13408   5.263   3.450   6.840 -0.4477 -0.2370 -0.3202
  126OSM    H1S13409   5.174   3.384   6.833  0.4246 -1.5811  0.7918
  126OSM    H1T13410   5.236   3.542   6.896 -0.5620 -0.3181 -0.2423
  126OSM     NF13411   5.332   3.297   7.031  0.4341  0.0894  0.0475
  126OSM    HNF13412   5.333   3.342   7.119 -3.4976  1.4158 -0.3927
  126OSM    C2S13413   5.376   3.369   6.912  0.2920  0.2888 -0.1170
  126OSM    H2S13414   5.416   3.289   6.845  1.7105  0.4581  0.4824
  126OSM    C3S13415   5.497   3.460   6.939 -0.2665 -0.3401  0.8230
  126OSM    H3S13416   5.462   3.537   7.012 -2.1928 -0.5834  0.1980
  126OSM     O313417   5.547   3.523   6.826 -0.1317 -0.2788 -1.1069
  126OSM    HO313418   5.479   3.508   6.760  1.4596 -3.4255 -2.2335
  126OSM    C4S13419   5.611   3.379   7.004  0.2327  0.1738 -0.1299
  126OSM    H4S13420   5.644   3.283   6.962  1.3674 -0.2184  1.5660
  126OSM    C5S13421   5.669   3.405   7.120 -0.6242  0.7128  0.1430
  126OSM    H5S13422   5.643   3.484   7.191 -0.9886  1.9051 -1.2711
  126OSM    C6S13423   5.778   3.313   7.170  0.4987 -0.2100  0.3487
  126OSM    H6S13424   5.875   3.343   7.125 -0.8904  2.3663 -1.1618
  126OSM    H6T13425   5.753   3.205   7.163  0.7951 -0.3709  1.5694
  126OSM    C7S13426   5.801   3.332   7.321  0.0314  0.4501  0.2865
  126OSM    H7S13427   5.827   3.438   7.343  0.5696 -0.0281  2.1283
  126OSM    H7T13428   5.895   3.281   7.349  1.5892  2.8362 -0.3257
  126OSM    C8S13429   5.680   3.279   7.395  0.2350  0.2542 -0.7421
  126OSM    H8S13430   5.659   3.172   7.374 -1.4599  0.0805  1.5121
  126OSM    H8T13431   5.592   3.334   7.355 -0.6566  0.2427  1.1247
  126OSM    C9S13432   5.705   3.303   7.543  0.4009  0.2079  0.4390
  126OSM    H9S13433   5.703   3.413   7.558  1.4816  0.4710 -1.1299
  126OSM    H9T13434   5.809   3.276   7.571  0.8150  0.7136 -0.5549
  126OSM   C10S13435   5.615   3.207   7.629 -0.5416  0.3348 -0.1375
  126OSM   H10S13436   5.603   3.110   7.576 -3.6768  0.1367  0.7518
  126OSM   H10T13437   5.514   3.248   7.646 -0.3914  1.1154 -1.0483
  126OSM   C11S13438   5.694   3.177   7.766  0.4357 -0.0619  0.7876
  126OSM   H11S13439   5.797   3.142   7.742 -0.9626 -1.6535 -4.1750
  126OSM   H11T13440   5.651   3.086   7.812 -0.4234 -0.4107 -0.6435
  126OSM   C12S13441   5.692   3.300   7.855 -0.3083  0.0791  0.4613
  126OSM   H12S13442   5.590   3.323   7.893 -0.9548 -0.2154 -1.0240
  126OSM   H12T13443   5.726   3.394   7.807 -0.6006  0.2521  0.5866
  126OSM   C13S13444   5.784   3.279   7.978  0.2291 -0.3083  0.2327
  126OSM   H13S13445   5.881   3.241   7.937 -0.4142  1.2678 -3.1193
  126OSM   H13T13446   5.736   3.195   8.033 -0.1452 -0.2784 -0.0406
  126OSM   C14S13447   5.821   3.408   8.056 -0.2969 -0.0528 -0.0748
  126OSM   H14S13448   5.862   3.478   7.980 -0.6372  0.8862  0.5882
  126OSM   H14T13449   5.910   3.373   8.114 -0.2650  0.1491 -0.0027
  126OSM   C15S13450   5.723   3.469   8.161 -0.2363 -0.0811  0.4110
  126OSM   H15S13451   5.622   3.479   8.115 -0.5610 -4.2899 -0.2006
  126OSM   H15T13452   5.762   3.568   8.194 -1.3092  0.0199  1.4529
  126OSM   C16S13453   5.702   3.381   8.285  0.6595  0.2037 -0.0918
  126OSM   H16S13454   5.800   3.379   8.338 -0.3182  1.4291  1.8790
  126OSM   H16T13455   5.668   3.286   8.239 -1.0110 -0.7579  2.8380
  126OSM   C17S13456   5.595   3.433   8.386  0.0373 -0.0033  1.1041
  126OSM   H17S13457   5.503   3.447   8.324  0.8005 -0.5548 -0.2066
  126OSM   H17T13458   5.632   3.530   8.423 -0.5864  1.5211 -1.9377
  126OSM   C18S13459   5.551   3.360   8.512 -0.3224  0.0760 -0.2790
  126OSM   H18S13460   5.644   3.322   8.558  0.9604 -0.8974 -3.4035
  126OSM   H18T13461   5.478   3.277   8.498  0.6001 -0.7369 -0.3476
  126OSM   H18U13462   5.503   3.431   8.583  1.1735  2.8304 -1.8972
  126OSM    C1F13463   5.235   3.211   7.029 -0.4818  0.0031  0.3653
  126OSM     OF13464   5.183   3.170   6.927  0.2821 -0.3518  0.5030
  126OSM    C2F13465   5.205   3.153   7.165 -0.4851  0.0489  0.0240
  126OSM    H2F13466   5.134   3.223   7.213 -2.7531 -1.1022 -1.5210
  126OSM    H2G13467   5.303   3.143   7.217  0.4544 -0.0853 -1.6941
  126OSM    C3F13468   5.149   3.010   7.173  0.6699  0.5089 -0.9588
  126OSM    H3F13469   5.195   2.941   7.100  2.1098 -0.7409  1.0116
  126OSM    H3G13470   5.046   3.025   7.135  0.8770  0.2912 -1.6217
  126OSM    C4F13471   5.134   2.945   7.316 -0.6287 -0.5909  0.5468
  126OSM    H4F13472   5.234   2.901   7.336 -1.5726 -2.8700  0.5489
  126OSM    H4G13473   5.061   2.861   7.324  0.6867 -1.8541 -0.1325
  126OSM    C5F13474   5.098   3.035   7.428 -0.6404  0.1124  0.8140
  126OSM    H5F13475   4.999   3.080   7.405 -2.6964 -4.5619 -0.4997
  126OSM    H5G13476   5.176   3.115   7.427  1.0624 -1.4587  2.0048
  126OSM    C6F13477   5.107   2.973   7.565 -0.1759  0.4018  0.2261
  126OSM    H6F13478   5.200   2.914   7.579  0.6968  1.3556 -1.2410
  126OSM    H6G13479   5.029   2.896   7.583  1.2022 -1.0541  0.2121
  126OSM    C7F13480   5.109   3.076   7.684 -0.7450  0.0557 -0.3706
  126OSM    H7F13481   5.087   3.030   7.783 -1.2259  2.1285  0.5383
  126OSM    H7G13482   5.037   3.157   7.662 -0.5852  0.4768  0.6168
  126OSM    C8F13483   5.256   3.129   7.702  0.6235 -0.0124 -0.3123
  126OSM    H8F13484   5.255   3.228   7.753 -0.5568  0.5958 -1.4592
  126OSM    H8G13485   5.288   3.158   7.600 -1.4096  0.6724 -0.8162
  126OSM    C9F13486   5.353   3.031   7.763 -0.2901 -0.0646  0.1191
  126OSM    H9F13487   5.392   2.949   7.701  0.3796 -0.2453  0.7648
  126OSM   C10F13488   5.397   3.038   7.890 -0.8305  0.8185 -0.8430
  126OSM   H10F13489   5.465   2.959   7.924 -0.5648  0.4361 -2.2083
  126OSM   C11F13490   5.349   3.135   8.000 -0.2200  0.4457 -0.7163
  126OSM   H11F13491   5.261   3.189   7.959  0.3749  0.2668 -2.2912
  126OSM   H11G13492   5.414   3.223   8.015 -0.2461  0.0664  2.4521
  126OSM   C12F13493   5.320   3.064   8.139 -0.3192  0.2637  0.6847
  126OSM   H12F13494   5.419   3.018   8.160 -0.3746  0.5330  1.5896
  126OSM   H12G13495   5.241   2.989   8.115 -1.2214  0.4043  2.9526
  126OSM   C13F13496   5.286   3.162   8.257 -0.1658  0.3237 -0.7866
  126OSM   H13F13497   5.201   3.226   8.224  0.7454  1.4304 -1.0294
  126OSM   H13G13498   5.368   3.236   8.268 -0.9186  1.0650  0.0132
  126OSM   C14F13499   5.264   3.080   8.379 -0.2999 -0.3216 -0.1402
  126OSM   H14F13500   5.345   3.090   8.455  0.5319  0.4684 -1.1044
  126OSM   H14G13501   5.252   2.974   8.349 -2.4947 -0.5227  1.2081
  126OSM   C15F13502   5.128   3.106   8.454 -0.5498  0.0632 -0.1727
  126OSM   H15F13503   5.051   3.091   8.376  0.7559  0.0822 -1.5202
  126OSM   H15G13504   5.122   3.211   8.491  0.4133 -0.0579  0.3677
  126OSM   C16F13505   5.086   3.004   8.559 -0.4978 -0.4877  0.3142
  126OSM   H16F13506   5.161   3.025   8.638 -0.0713 -1.8640  0.2984
  126OSM   H16G13507   5.091   2.900   8.521  1.2609 -0.4708  0.3864
  126OSM   C17F13508   4.952   3.025   8.633 -0.2034 -0.2920  0.5778
  126OSM   H17F13509   4.955   3.126   8.678  2.8991 -0.6243  1.3548
  126OSM   H17G13510   4.940   2.950   8.714  0.8163 -0.5299  0.5313
  126OSM   C18F13511   4.826   3.001   8.548 -0.8342  1.0647  0.2792
  126OSM   H18F13512   4.732   3.038   8.596 -2.0096  0.9210 -1.7977
  126OSM   H18G13513   4.809   2.893   8.528 -1.4923  0.5893  2.9938
  126OSM   H18H13514   4.832   3.057   8.453  2.9130 -0.5631 -0.6222
  127OSM      N13515   5.749   5.624   6.257 -0.1483 -0.0527 -0.0030
  127OSM    C1513516   5.704   5.746   6.183 -0.2996 -0.2888 -0.3727
  127OSM   H15A13517   5.719   5.832   6.247  2.7980  1.9758 -3.7521
  127OSM   H15B13518   5.605   5.736   6.142 -0.7567 -1.5459  0.9586
  127OSM   H15C13519   5.766   5.761   6.096 -0.6268  1.6141 -0.3221
  127OSM    C1413520   5.756   5.512   6.158  0.0453  0.0319 -0.1439
  127OSM   H14A13521   5.799   5.421   6.195 -0.9699 -0.7249 -0.7646
  127OSM   H14B13522   5.833   5.533   6.086  0.7651  0.7940  0.8156
  127OSM   H14C13523   5.660   5.492   6.112  0.7503  1.1630 -2.2400
  127OSM    C1313524   5.887   5.648   6.305  0.1266 -0.6928  0.2318
  127OSM   H13A13525   5.944   5.683   6.219 -1.2877 -1.4918 -1.0803
  127OSM   H13B13526   5.925   5.551   6.332 -1.9250 -0.6065  4.0378
  127OSM   H13C13527   5.900   5.713   6.390 -0.5261 -0.1671 -0.0683
  127OSM    C1213528   5.660   5.585   6.374 -0.3417 -0.6232 -0.2371
  127OSM   H12A13529   5.710   5.495   6.409 -0.9414 -0.3637  1.3268
  127OSM   H12B13530   5.555   5.571   6.354 -0.3021 -2.7441  0.7440
  127OSM    C1113531   5.649   5.679   6.499  0.2427  0.1057 -0.2161
  127OSM   H11A13532   5.747   5.722   6.530  0.2158  0.0603 -0.0729
  127OSM   H11B13533   5.595   5.620   6.575 -0.6397 -0.5223 -1.2905
  127OSM      P13534   5.443   5.833   6.463 -0.2286  0.3704 -0.4133
  127OSM    O1313535   5.430   5.965   6.406  0.2883 -0.3552  0.0810
  127OSM    O1413536   5.370   5.718   6.407 -0.4928 -0.3694 -0.0235
  127OSM    O1113537   5.420   5.848   6.614 -0.2465 -0.1588  0.0915
  127OSM    O1213538   5.594   5.799   6.463  0.2619 -0.4779  0.2059
  127OSM    C1S13539   5.503   5.916   6.709 -0.4606  0.1407  0.3317
  127OSM    H1S13540   5.521   6.018   6.668  0.1066 -0.3777 -0.7535
  127OSM    H1T13541   5.606   5.881   6.729  0.3399  1.5295 -1.0821
  127OSM     NF13542   5.524   5.998   6.937 -0.3578  0.0120 -0.6416
  127OSM    HNF13543   5.583   5.947   6.999 -1.9782 -0.1075  0.8708
  127OSM    C2S13544   5.441   5.921   6.852 -0.3771  0.4859  0.1308
  127OSM    H2S13545   5.339   5.964   6.841 -0.5260  0.1577  0.2196
  127OSM    C3S13546   5.418   5.770   6.897  0.6115 -0.3357  0.4460
  127OSM    H3S13547   5.515   5.717   6.905  1.4296  1.1331  0.6200
  127OSM     O313548   5.347   5.689   6.804  0.0821  0.5711 -0.2249
  127OSM    HO313549   5.345   5.749   6.729 -1.7438  1.1830  0.2676
  127OSM    C4S13550   5.362   5.773   7.035 -0.1898 -0.0126 -0.5169
  127OSM    H4S13551   5.435   5.817   7.104 -1.2492  0.0308  0.6164
  127OSM    C5S13552   5.235   5.757   7.074  0.2327 -0.0105  1.0074
  127OSM    H5S13553   5.165   5.744   6.990  0.6172  3.1471  0.0995
  127OSM    C6S13554   5.186   5.778   7.216  0.2994  0.2115  0.6940
  127OSM    H6S13555   5.143   5.684   7.257 -2.7205  1.0117 -0.3259
  127OSM    H6T13556   5.098   5.846   7.216 -2.3252 -2.9005 -0.0673
  127OSM    C7S13557   5.290   5.815   7.323  0.1198 -0.7703 -0.6089
  127OSM    H7S13558   5.315   5.922   7.310  1.0355 -0.8824  0.1318
  127OSM    H7T13559   5.381   5.751   7.320  0.8189  0.0594  1.4334
  127OSM    C8S13560   5.229   5.789   7.464  0.5570 -0.4872  0.4391
  127OSM    H8S13561   5.221   5.678   7.463  2.7623 -0.7186 -2.1632
  127OSM    H8T13562   5.135   5.845   7.482  0.0802 -1.3063  0.5953
  127OSM    C9S13563   5.327   5.833   7.571  0.1226  0.2152 -0.3796
  127OSM    H9S13564   5.368   5.936   7.572 -1.2676  0.7980  1.0557
  127OSM    H9T13565   5.414   5.766   7.558  0.7169  1.0951 -1.0365
  127OSM   C10S13566   5.265   5.821   7.716  0.5591 -0.7428 -0.3487
  127OSM   H10S13567   5.207   5.726   7.723 -2.2892  0.8978 -0.1088
  127OSM   H10T13568   5.187   5.899   7.725  0.0370 -1.4088  1.2017
  127OSM   C11S13569   5.366   5.838   7.833 -0.1959  0.1620  0.0558
  127OSM   H11S13570   5.432   5.923   7.804  1.1884 -1.0967 -0.6632
  127OSM   H11T13571   5.425   5.744   7.820  1.2660  1.2189 -1.4949
  127OSM   C12S13572   5.292   5.859   7.968 -0.6120 -0.2268  0.4561
  127OSM   H12S13573   5.229   5.772   7.997 -0.1329 -0.7392 -0.0291
  127OSM   H12T13574   5.228   5.950   7.967  1.2331  1.1312  0.4801
  127OSM   C13S13575   5.400   5.874   8.080 -0.0044  0.3013 -0.2945
  127OSM   H13S13576   5.480   5.937   8.034  0.8967 -2.1401 -2.2789
  127OSM   H13T13577   5.436   5.770   8.095  0.3203  0.5597  0.8166
  127OSM   C14S13578   5.341   5.920   8.207 -0.4332  0.3000  0.2011
  127OSM   H14S13579   5.244   5.867   8.215 -0.5638  0.5627  0.3782
  127OSM   H14T13580   5.297   6.022   8.201  3.0409  1.8435 -1.6711
  127OSM   C15S13581   5.433   5.920   8.334  0.3276  0.3998 -0.4752
  127OSM   H15S13582   5.531   5.970   8.315 -0.2438  1.4794 -0.6360
  127OSM   H15T13583   5.460   5.812   8.345  2.1188  0.6717 -1.7128
  127OSM   C16S13584   5.370   5.970   8.455  1.0569 -0.2419  0.0291
  127OSM   H16S13585   5.273   5.917   8.470  1.2789 -0.5943  0.2362
  127OSM   H16T13586   5.361   6.079   8.436 -0.7621 -0.1077  1.3557
  127OSM   C17S13587   5.449   5.940   8.580 -0.2417 -0.4407  0.0008
  127OSM   H17S13588   5.542   5.879   8.572  0.1590  0.2726 -1.1138
  127OSM   H17T13589   5.381   5.884   8.646 -0.8458 -1.0258 -1.0859
  127OSM   C18S13590   5.498   6.074   8.639  0.0921 -0.1918  0.2376
  127OSM   H18S13591   5.412   6.127   8.684 -0.1470  1.4299 -1.9917
  127OSM   H18T13592   5.537   6.144   8.563 -1.3710 -1.0150 -1.3255
  127OSM   H18U13593   5.581   6.071   8.713  1.2650 -0.0448 -1.0327
  127OSM    C1F13594   5.524   6.132   6.923 -0.3994  0.2854  0.5467
  127OSM     OF13595   5.447   6.192   6.852 -0.5512 -0.2255 -0.3145
  127OSM    C2F13596   5.635   6.209   6.990 -0.2200 -0.1009  0.3968
  127OSM    H2F13597   5.688   6.265   6.910  1.7750 -0.6246  1.2820
  127OSM    H2G13598   5.719   6.141   7.017  0.4093 -0.0341 -1.3243
  127OSM    C3F13599   5.582   6.303   7.105  0.0654 -0.0877  0.9536
  127OSM    H3F13600   5.483   6.342   7.072 -0.4218 -1.5387  0.6208
  127OSM    H3G13601   5.658   6.383   7.115  0.7421 -0.8884  2.5035
  127OSM    C4F13602   5.555   6.225   7.234  0.0268 -0.0362 -0.3036
  127OSM    H4F13603   5.642   6.168   7.274 -0.0229  0.7827  1.0319
  127OSM    H4G13604   5.474   6.151   7.215  1.6871 -1.5684 -1.7883
  127OSM    C5F13605   5.502   6.315   7.345 -0.3674 -0.0191  0.7529
  127OSM    H5F13606   5.483   6.239   7.423 -0.3528 -1.4085 -0.5532
  127OSM    H5G13607   5.409   6.348   7.293 -0.7295 -2.3935 -0.2133
  127OSM    C6F13608   5.591   6.429   7.390 -0.6627 -0.0816 -0.7514
  127OSM    H6F13609   5.613   6.500   7.307  0.3757  0.1877 -0.2699
  127OSM    H6G13610   5.683   6.382   7.432 -1.8292 -0.3677  1.6519
  127OSM    C7F13611   5.526   6.510   7.507 -0.0719  0.1528  0.6293
  127OSM    H7F13612   5.501   6.448   7.596 -0.4001  0.0486  0.4649
  127OSM    H7G13613   5.431   6.558   7.474  0.4984  1.6129  1.0375
  127OSM    C8F13614   5.613   6.625   7.544  0.1273  0.4012  0.4030
  127OSM    H8F13615   5.664   6.664   7.454  0.9571 -2.1104 -0.2908
  127OSM    H8G13616   5.693   6.587   7.611  0.5114 -0.2796 -0.4257
  127OSM    C9F13617   5.545   6.741   7.610 -0.2062  0.5060  0.0565
  127OSM    H9F13618   5.515   6.825   7.546 -1.2629 -0.1944 -0.4047
  127OSM   C10F13619   5.521   6.752   7.744 -0.0997 -0.2390  0.2269
  127OSM   H10F13620   5.461   6.837   7.780 -1.2516 -2.1155  3.0957
  127OSM   C11F13621   5.558   6.640   7.846 -0.1394 -0.1695  0.4209
  127OSM   H11F13622   5.635   6.570   7.806  0.1438  1.9108 -3.1164
  127OSM   H11G13623   5.465   6.586   7.876 -0.4798 -0.9598 -1.8366
  127OSM   C12F13624   5.623   6.711   7.975  0.7645  0.3092  0.1174
  127OSM   H12F13625   5.563   6.799   8.006  0.7225 -0.4231  2.3082
  127OSM   H12G13626   5.729   6.742   7.961  0.9160 -0.8375 -1.6033
  127OSM   C13F13627   5.617   6.618   8.101 -0.5163 -0.0663 -0.1211
  127OSM   H13F13628   5.665   6.669   8.187 -0.3421  1.2795 -0.9836
  127OSM   H13G13629   5.683   6.531   8.076 -2.2013 -0.5263 -3.6336
  127OSM   C14F13630   5.484   6.550   8.143  0.2384 -0.0247 -0.1628
  127OSM   H14F13631   5.494   6.475   8.225  1.1153  1.3999  1.0885
  127OSM   H14G13632   5.444   6.498   8.054 -1.4973 -1.6782  1.4827
  127OSM   C15F13633   5.389   6.657   8.199 -0.1389 -0.6722  0.9856
  127OSM   H15F13634   5.287   6.616   8.211  0.3888 -1.9419  1.3417
  127OSM   H15G13635   5.380   6.731   8.117  0.2100  0.3776  1.8664
  127OSM   C16F13636   5.426   6.727   8.331  0.1610  0.0826  0.0556
  127OSM   H16F13637   5.513   6.795   8.315 -0.2829  0.6346 -0.0195
  127OSM   H16G13638   5.460   6.646   8.400  0.1214  0.4012  0.4532
  127OSM   C17F13639   5.300   6.791   8.393  0.7192 -0.1591 -0.7276
  127OSM   H17F13640   5.230   6.709   8.421  3.9463 -2.8570  0.0733
  127OSM   H17G13641   5.259   6.861   8.317  1.4167  1.5168  0.3772
  127OSM   C18F13642   5.336   6.857   8.528  0.8792 -0.5429 -0.3389
  127OSM   H18F13643   5.416   6.932   8.510  0.9259  0.0253  1.9395
  127OSM   H18G13644   5.364   6.788   8.610 -3.2668 -2.4709 -0.2843
  127OSM   H18H13645   5.251   6.919   8.565 -0.6823 -1.8122 -1.6525
  128OSM      N13646   3.672   1.668   6.128  0.1062  0.8304  0.8738
  128OSM    C1513647   3.765   1.551   6.087  0.6348 -0.2199 -0.4916
  128OSM   H15A13648   3.765   1.466   6.154  3.4816 -1.9141 -2.3997
  128OSM   H15B13649   3.864   1.595   6.081  0.4982  0.6953  2.4282
  128OSM   H15C13650   3.743   1.509   5.989  2.1736 -1.5614 -0.3090
  128OSM    C1413651   3.675   1.773   6.018 -0.5598  0.5119  0.5062
  128OSM   H14A13652   3.648   1.716   5.930 -0.8686 -2.2461  2.2470
  128OSM   H14B13653   3.766   1.830   6.023 -0.1232  0.2442 -2.5853
  128OSM   H14C13654   3.592   1.841   6.028  1.1611  2.6117  1.1647
  128OSM    C1313655   3.526   1.626   6.125  0.4380 -0.9392  0.5773
  128OSM   H13A13656   3.510   1.542   6.192 -1.4375  1.3631  3.2739
  128OSM   H13B13657   3.501   1.580   6.030  2.9868 -1.3851  0.0476
  128OSM   H13C13658   3.458   1.706   6.151  0.1992 -1.0949  0.4387
  128OSM    C1213659   3.716   1.724   6.258  0.1417  0.0902  0.2410
  128OSM   H12A13660   3.678   1.661   6.337 -3.6980 -0.0411 -1.4835
  128OSM   H12B13661   3.674   1.822   6.273 -1.3204 -0.6038  0.8540
  128OSM    C1113662   3.867   1.757   6.286 -0.6623 -0.1378  0.7559
  128OSM   H11A13663   3.928   1.664   6.288  0.9102  0.8356 -0.1381
  128OSM   H11B13664   3.887   1.794   6.389 -3.2129  0.8313  0.9691
  128OSM      P13665   3.903   2.000   6.190 -0.1411 -0.2983  0.3176
  128OSM    O1313666   4.025   2.071   6.160 -0.0164  0.3653 -0.5078
  128OSM    O1413667   3.790   2.036   6.108  0.3798 -0.3436  0.0431
  128OSM    O1113668   3.864   2.021   6.336 -0.3289  0.1565  0.1450
  128OSM    O1213669   3.925   1.849   6.197  0.7904  0.6189 -0.2425
  128OSM    C1S13670   3.778   2.123   6.391  0.5596  0.3379 -1.1594
  128OSM    H1S13671   3.672   2.110   6.360 -0.0795  0.8417  0.7151
  128OSM    H1T13672   3.815   2.225   6.367  1.0773  0.3044 -0.5338
  128OSM     NF13673   3.679   2.217   6.603 -0.2202  0.0588  0.7193
  128OSM    HNF13674   3.705   2.308   6.633  2.9186 -0.6455  0.4923
  128OSM    C2S13675   3.783   2.129   6.549  1.0799  0.2474  0.5117
  128OSM    H2S13676   3.753   2.028   6.584 -3.3839  1.6112  1.3244
  128OSM    C3S13677   3.933   2.164   6.589 -0.1269 -0.3267 -0.7703
  128OSM    H3S13678   3.970   2.255   6.535  1.1397 -0.4598 -0.1589
  128OSM     O313679   4.022   2.061   6.543 -0.3953 -0.0648  0.4133
  128OSM    HO313680   3.976   2.013   6.474 -1.6293  1.7735 -0.1347
  128OSM    C4S13681   3.930   2.185   6.731 -0.2367 -0.3930 -0.4558
  128OSM    H4S13682   3.933   2.288   6.768  0.8085 -1.2150  1.9962
  128OSM    C5S13683   3.946   2.095   6.833  0.0448  0.1580  0.3800
  128OSM    H5S13684   3.972   1.992   6.806  1.5632  0.7431 -0.4920
  128OSM    C6S13685   3.950   2.147   6.970 -0.2514  0.1455 -0.2970
  128OSM    H6S13686   4.031   2.222   6.984 -1.0024  1.1340 -1.0620
  128OSM    H6T13687   3.953   2.059   7.037 -1.2441  0.2925 -0.0466
  128OSM    C7S13688   3.824   2.224   7.006  0.3911  0.3100 -0.7727
  128OSM    H7S13689   3.737   2.156   6.990  0.0915  0.4125  0.3605
  128OSM    H7T13690   3.812   2.317   6.946  1.0663  1.9625  1.5232
  128OSM    C8S13691   3.816   2.264   7.158  0.2003  0.1790  0.9122
  128OSM    H8S13692   3.917   2.305   7.178  1.9301 -1.9976 -2.3964
  128OSM    H8T13693   3.789   2.170   7.212 -2.2313  0.6360  0.6146
  128OSM    C9S13694   3.700   2.353   7.191  0.5717  0.3065 -0.0985
  128OSM    H9S13695   3.610   2.289   7.174  0.4356  0.4448  0.1052
  128OSM    H9T13696   3.680   2.442   7.127 -2.4522  0.9986  1.6103
  128OSM   C10S13697   3.698   2.400   7.337 -0.1846  0.3547  0.3971
  128OSM   H10S13698   3.771   2.483   7.351 -0.7653  1.4412 -2.4256
  128OSM   H10T13699   3.718   2.314   7.404  1.5038 -0.1508 -0.6848
  128OSM   C11S13700   3.558   2.453   7.366 -0.9883  0.3582 -0.0630
  128OSM   H11S13701   3.485   2.370   7.355  2.1887 -2.6477  0.1016
  128OSM   H11T13702   3.532   2.527   7.288  0.8323  0.2290 -0.8378
  128OSM   C12S13703   3.538   2.509   7.506 -0.3757  0.1445 -0.1106
  128OSM   H12S13704   3.433   2.546   7.511 -0.5018 -0.1074 -0.8188
  128OSM   H12T13705   3.612   2.589   7.529  0.3460 -0.3633 -0.6404
  128OSM   C13S13706   3.547   2.405   7.625  0.1051 -0.0613  0.0467
  128OSM   H13S13707   3.635   2.339   7.609 -1.1627 -1.7309 -0.3435
  128OSM   H13T13708   3.458   2.338   7.628  1.1757 -1.4861  1.2128
  128OSM   C14S13709   3.556   2.477   7.762  0.2073  0.0815 -0.2276
  128OSM   H14S13710   3.484   2.561   7.757  2.8166  2.5644  1.2777
  128OSM   H14T13711   3.657   2.523   7.761 -0.2166  1.1394 -2.8158
  128OSM   C15S13712   3.548   2.390   7.888 -0.0614  0.4226  0.1369
  128OSM   H15S13713   3.636   2.331   7.921 -0.8958 -0.0087  1.6720
  128OSM   H15T13714   3.458   2.324   7.887 -0.2095  0.6151  0.7190
  128OSM   C16S13715   3.503   2.474   8.017 -0.6221 -0.1384 -0.4867
  128OSM   H16S13716   3.487   2.404   8.102  2.0470  0.5560  0.7184
  128OSM   H16T13717   3.408   2.528   7.996 -1.0519 -0.8718 -0.4579
  128OSM   C17S13718   3.604   2.570   8.080 -0.6397  0.3398  0.3924
  128OSM   H17S13719   3.551   2.613   8.168  0.3433  1.4837  0.4312
  128OSM   H17T13720   3.630   2.658   8.019  2.0153  0.1014  1.0652
  128OSM   C18S13721   3.730   2.516   8.136 -0.2751 -0.5249 -0.0443
  128OSM   H18S13722   3.709   2.446   8.219 -0.6888 -1.0940 -0.6169
  128OSM   H18T13723   3.809   2.587   8.168  2.1229 -2.6010 -0.9751
  128OSM   H18U13724   3.788   2.469   8.053  1.1520 -1.3142  1.3436
  128OSM    C1F13725   3.555   2.182   6.596  0.7314 -0.5500  0.0512
  128OSM     OF13726   3.521   2.070   6.564 -0.3748 -0.0121 -0.0554
  128OSM    C2F13727   3.454   2.286   6.634  0.2293 -0.1690  0.4018
  128OSM    H2F13728   3.357   2.264   6.585  0.7072  2.4018 -1.8727
  128OSM    H2G13729   3.487   2.383   6.591 -0.6701 -0.2094 -0.4041
  128OSM    C3F13730   3.430   2.286   6.786 -0.1729  0.4409  0.0574
  128OSM    H3F13731   3.512   2.254   6.854 -0.3671  0.9328  0.5370
  128OSM    H3G13732   3.350   2.211   6.801 -0.9150  1.2427  0.2030
  128OSM    C4F13733   3.373   2.425   6.827  0.1419  0.2248  0.2791
  128OSM    H4F13734   3.294   2.451   6.753  2.3855 -0.5845 -2.5809
  128OSM    H4G13735   3.454   2.501   6.821 -1.1625  2.1236  3.8865
  128OSM    C5F13736   3.304   2.429   6.964 -0.5351  0.6250  0.6231
  128OSM    H5F13737   3.376   2.395   7.042 -1.4052 -2.4507  0.2119
  128OSM    H5G13738   3.231   2.345   6.956  0.5274 -0.2797  0.0995
  128OSM    C6F13739   3.238   2.564   6.996  0.3579 -0.5420  0.4334
  128OSM    H6F13740   3.182   2.597   6.905  0.6276 -2.4887 -0.4973
  128OSM    H6G13741   3.323   2.630   7.023  0.0873 -0.0869  0.1886
  128OSM    C7F13742   3.144   2.564   7.119 -0.7479  0.0077  0.4022
  128OSM    H7F13743   3.203   2.523   7.204 -0.9522  1.7838  1.4579
  128OSM    H7G13744   3.059   2.497   7.095  0.6838 -0.8949 -2.6362
  128OSM    C8F13745   3.099   2.703   7.161  0.7194 -0.9252 -0.3185
  128OSM    H8F13746   3.043   2.760   7.084  0.9826  2.1768  1.6202
  128OSM    H8G13747   3.189   2.756   7.199  0.7549 -1.8318  0.9256
  128OSM    C9F13748   2.996   2.674   7.274  0.5933 -0.3555 -0.0106
  128OSM    H9F13749   2.895   2.664   7.231  1.0413 -0.1600 -1.1639
  128OSM   C10F13750   3.017   2.664   7.401  0.3190 -0.1877 -0.7584
  128OSM   H10F13751   2.924   2.663   7.460  0.7991 -0.2143  0.0054
  128OSM   C11F13752   3.150   2.693   7.472 -0.1509  0.1445 -0.0157
  128OSM   H11F13753   3.220   2.726   7.393 -0.5530 -1.7342 -1.2386
  128OSM   H11G13754   3.190   2.605   7.526  1.5859  0.4659 -0.7296
  128OSM   C12F13755   3.125   2.808   7.564  0.6987  0.3406 -0.3939
  128OSM   H12F13756   3.043   2.781   7.634  0.2401  0.8593 -0.7240
  128OSM   H12G13757   3.096   2.898   7.505 -0.1026  1.9775  2.3068
  128OSM   C13F13758   3.238   2.859   7.653  0.4163  0.0795 -0.2463
  128OSM   H13F13759   3.213   2.958   7.698 -0.4275 -1.5285  3.1100
  128OSM   H13G13760   3.324   2.872   7.584  1.1279  0.4460  0.6810
  128OSM   C14F13761   3.277   2.768   7.768  0.2303  0.3764 -0.0208
  128OSM   H14F13762   3.354   2.820   7.829  0.7864  0.0249 -0.4057
  128OSM   H14G13763   3.318   2.671   7.731  0.3809  0.5198 -0.2357
  128OSM   C15F13764   3.157   2.757   7.870 -0.4607  0.0265 -0.6946
  128OSM   H15F13765   3.107   2.658   7.864  0.5888 -0.4957 -1.3256
  128OSM   H15G13766   3.088   2.839   7.843  0.1337  0.4353 -0.9835
  128OSM   C16F13767   3.197   2.769   8.017  0.8000  0.3159 -0.5696
  128OSM   H16F13768   3.302   2.736   8.031  0.1957 -1.7758 -0.6128
  128OSM   H16G13769   3.148   2.686   8.070 -0.0187  2.1158  1.6479
  128OSM   C17F13770   3.155   2.896   8.091 -1.0109  0.0715  0.6841
  128OSM   H17F13771   3.098   2.874   8.184 -1.6764  1.0528  0.5164
  128OSM   H17G13772   3.092   2.966   8.033 -1.8523 -1.8944 -0.8527
  128OSM   C18F13773   3.290   2.963   8.144 -0.5457 -0.4674 -0.0587
  128OSM   H18F13774   3.351   2.982   8.053  0.2522 -1.1959  0.3146
  128OSM   H18G13775   3.351   2.899   8.210 -0.6881 -0.4239  0.1164
  128OSM   H18H13776   3.268   3.059   8.197  0.3259  0.7496 -1.7866
  129OSM      N13777   1.575   2.509   6.043 -0.6447  0.0118  0.1628
  129OSM    C1513778   1.599   2.649   6.095 -0.1786 -0.1537 -0.2828
  129OSM   H15A13779   1.642   2.656   6.194  1.0226 -1.3003 -0.6892
  129OSM   H15B13780   1.505   2.701   6.104 -0.7490 -0.9823 -1.2265
  129OSM   H15C13781   1.658   2.700   6.020 -0.8044 -0.7521 -1.2062
  129OSM    C1413782   1.445   2.460   6.109  0.3302  0.0985  0.5125
  129OSM   H14A13783   1.366   2.531   6.090 -1.2038 -0.7725  3.0316
  129OSM   H14B13784   1.452   2.464   6.217  0.9897 -1.2498  0.5480
  129OSM   H14C13785   1.411   2.368   6.064  1.4678 -0.8304  1.4649
  129OSM    C1313786   1.561   2.520   5.894 -0.1405 -0.6712  0.8713
  129OSM   H13A13787   1.498   2.448   5.844 -1.1140 -0.4335  1.7197
  129OSM   H13B13788   1.652   2.489   5.845 -2.3348  0.3855 -4.7460
  129OSM   H13C13789   1.549   2.623   5.864 -1.2936 -0.5878  1.5516
  129OSM    C1213790   1.703   2.427   6.072  0.2717  0.3716 -0.9209
  129OSM   H12A13791   1.740   2.434   6.173  0.0655 -1.5696 -0.6686
  129OSM   H12B13792   1.782   2.455   6.004  0.3913  0.8937 -0.5735
  129OSM    C1113793   1.688   2.277   6.060  0.2542  0.7506 -0.6189
  129OSM   H11A13794   1.643   2.248   5.963  0.4893  0.8394 -0.7534
  129OSM   H11B13795   1.622   2.240   6.142 -1.0389 -0.2080 -2.0400
  129OSM      P13796   1.870   2.087   6.101  0.1807 -0.2437  0.1748
  129OSM    O1313797   1.820   1.993   6.003  0.1073 -0.4089 -0.2312
  129OSM    O1413798   2.018   2.100   6.110 -0.3416  0.6104 -0.5923
  129OSM    O1113799   1.799   2.056   6.243 -0.2068 -0.4469  0.0565
  129OSM    O1213800   1.818   2.233   6.073 -0.5145  0.0344  0.0763
  129OSM    C1S13801   1.876   2.091   6.360 -0.0883 -0.0820 -0.4067
  129OSM    H1S13802   1.891   2.201   6.359  1.7608 -0.2923 -1.5338
  129OSM    H1T13803   1.978   2.046   6.355  0.5662  1.0813  1.4286
  129OSM     NF13804   1.869   2.089   6.599 -0.4194  0.0167 -0.3136
  129OSM    HNF13805   1.923   2.015   6.638  0.7452  1.0194  0.0471
  129OSM    C2S13806   1.798   2.043   6.485 -0.7916 -0.8212  0.8127
  129OSM    H2S13807   1.696   2.086   6.488 -0.2205  1.2065 -2.6166
  129OSM    C3S13808   1.787   1.891   6.481  0.0098 -0.2211 -0.7737
  129OSM    H3S13809   1.893   1.858   6.481  1.1466  2.5891  3.8198
  129OSM     O313810   1.700   1.854   6.372 -0.3542  0.2682 -0.2066
  129OSM    HO313811   1.682   1.936   6.324 -0.4902  0.5289  0.2812
  129OSM    C4S13812   1.734   1.836   6.614 -0.6327 -0.0604 -0.7581
  129OSM    H4S13813   1.819   1.806   6.677 -2.2510  0.8280  2.0146
  129OSM    C5S13814   1.610   1.813   6.655 -0.4356  0.0575  0.2575
  129OSM    H5S13815   1.533   1.850   6.585  0.3289 -1.9947 -1.8150
  129OSM    C6S13816   1.555   1.768   6.791  0.0189 -0.5770 -0.2786
  129OSM    H6S13817   1.560   1.847   6.870  0.4079  0.6675 -1.5047
  129OSM    H6T13818   1.617   1.685   6.832  0.4867  0.5537  1.4416
  129OSM    C7S13819   1.411   1.707   6.777  0.1379 -0.4466  0.1991
  129OSM    H7S13820   1.416   1.624   6.704 -0.0643 -1.9573  1.8369
  129OSM    H7T13821   1.345   1.790   6.745 -1.1236 -1.1025  1.0382
  129OSM    C8S13822   1.350   1.642   6.907  0.3485 -0.0380  0.0538
  129OSM    H8S13823   1.425   1.574   6.954  0.1287  0.3584  0.9994
  129OSM    H8T13824   1.252   1.593   6.889  0.3163  0.5559 -1.5445
  129OSM    C9S13825   1.308   1.747   7.012  0.0699  0.2433  0.5942
  129OSM    H9S13826   1.231   1.811   6.963 -0.6074 -2.3962 -2.0578
  129OSM    H9T13827   1.402   1.806   7.024  2.0984 -2.0909 -2.4997
  129OSM   C10S13828   1.261   1.679   7.138  0.0900 -0.1923  0.1080
  129OSM   H10S13829   1.341   1.616   7.182  0.7370 -1.2804 -2.4414
  129OSM   H10T13830   1.183   1.605   7.111  2.0606 -2.6529  0.7555
  129OSM   C11S13831   1.210   1.770   7.243 -0.0297 -0.1712  0.3571
  129OSM   H11S13832   1.104   1.795   7.225  0.3450  0.4726 -1.0928
  129OSM   H11T13833   1.262   1.867   7.227 -1.2805  0.6082  0.8803
  129OSM   C12S13834   1.229   1.726   7.388 -0.0646 -0.4096 -0.3401
  129OSM   H12S13835   1.332   1.699   7.421 -0.0587  0.2152  0.1806
  129OSM   H12T13836   1.164   1.637   7.404  0.4470 -1.3885 -3.1717
  129OSM   C13S13837   1.168   1.828   7.494  0.1791  0.1079  0.2002
  129OSM   H13S13838   1.057   1.813   7.493  0.2423 -0.3868 -0.8379
  129OSM   H13T13839   1.199   1.931   7.469  0.3779  0.1254  0.5132
  129OSM   C14S13840   1.200   1.831   7.651  0.0838 -0.5498 -0.2167
  129OSM   H14S13841   1.310   1.843   7.656  0.0336 -0.6115  1.6659
  129OSM   H14T13842   1.164   1.734   7.693 -2.1472  0.1049 -0.5103
  129OSM   C15S13843   1.142   1.944   7.740  0.2838 -0.6210 -0.3412
  129OSM   H15S13844   1.229   1.980   7.798  0.9889 -3.2246  0.3380
  129OSM   H15T13845   1.063   1.916   7.812  1.0970 -0.5754  0.5866
  129OSM   C16S13846   1.087   2.071   7.665  0.0289 -0.0592  0.6048
  129OSM   H16S13847   0.988   2.051   7.618  0.8206  1.5414 -1.9830
  129OSM   H16T13848   1.155   2.105   7.583 -0.9772  0.8982  0.1382
  129OSM   C17S13849   1.091   2.195   7.759 -0.2452  0.2271  1.1942
  129OSM   H17S13850   1.050   2.276   7.695  1.2702 -1.3167 -1.9563
  129OSM   H17T13851   1.192   2.230   7.790  1.5618 -1.7545 -1.8597
  129OSM   C18S13852   1.003   2.186   7.883 -0.1259  0.5987 -0.4384
  129OSM   H18S13853   0.899   2.162   7.852 -0.4494  1.2087  0.1470
  129OSM   H18T13854   0.996   2.284   7.934  1.0688  1.2397 -1.4758
  129OSM   H18U13855   1.041   2.096   7.937  0.9718  0.7112 -1.0050
  129OSM    C1F13856   1.888   2.212   6.642  0.7463 -0.0557  0.4096
  129OSM     OF13857   1.841   2.309   6.577  0.2607  0.7972  0.4810
  129OSM    C2F13858   1.963   2.224   6.767  0.1021 -0.1335  0.1272
  129OSM    H2F13859   1.980   2.332   6.791  1.1854 -0.1990 -0.3104
  129OSM    H2G13860   2.064   2.179   6.754  0.2707  0.3880 -0.4079
  129OSM    C3F13861   1.893   2.160   6.889  0.0782 -0.0303 -0.9381
  129OSM    H3F13862   1.952   2.194   6.977 -1.7502  2.7465 -0.6739
  129OSM    H3G13863   1.883   2.050   6.902  1.2859 -0.0605 -0.0281
  129OSM    C4F13864   1.757   2.220   6.918 -0.9731 -0.6833  0.1263
  129OSM    H4F13865   1.686   2.170   6.849  1.9333 -1.8986 -2.1885
  129OSM    H4G13866   1.748   2.324   6.880  1.7707 -0.5276 -0.2959
  129OSM    C5F13867   1.715   2.213   7.060 -0.0836 -0.4380  0.1133
  129OSM    H5F13868   1.760   2.126   7.112  0.5362  0.1964  0.6560
  129OSM    H5G13869   1.604   2.215   7.067 -0.3355  1.9389 -2.6258
  129OSM    C6F13870   1.760   2.334   7.140 -0.7254 -0.2617  0.3243
  129OSM    H6F13871   1.700   2.424   7.114  0.2263 -0.2064 -1.9239
  129OSM    H6G13872   1.865   2.353   7.111 -0.9033 -0.9778 -0.8755
  129OSM    C7F13873   1.739   2.319   7.288  0.8599  0.6041  0.1710
  129OSM    H7F13874   1.796   2.232   7.327 -1.4191 -1.9206 -1.7168
  129OSM    H7G13875   1.633   2.288   7.304  0.7415 -0.0371 -1.6231
  129OSM    C8F13876   1.782   2.438   7.375 -0.2319  0.0333  0.0288
  129OSM    H8F13877   1.892   2.453   7.369  0.4916 -3.9193  0.6673
  129OSM    H8G13878   1.770   2.405   7.481  1.9793  1.1605  0.6962
  129OSM    C9F13879   1.699   2.558   7.361  0.9152 -1.1401  0.1763
  129OSM    H9F13880   1.652   2.557   7.262  0.6059 -2.2468  0.3246
  129OSM   C10F13881   1.677   2.659   7.453 -0.5619  0.6625  0.6769
  129OSM   H10F13882   1.606   2.740   7.429  0.3170  1.0757 -0.6701
  129OSM   C11F13883   1.740   2.655   7.590  0.0966 -1.0790  0.2534
  129OSM   H11F13884   1.799   2.745   7.617  1.2121 -1.1110 -1.8428
  129OSM   H11G13885   1.805   2.565   7.591  0.8389 -0.5498  0.4405
  129OSM   C12F13886   1.633   2.624   7.693 -0.2072 -0.0334  0.3101
  129OSM   H12F13887   1.556   2.551   7.662  0.7743 -0.9978  0.0553
  129OSM   H12G13888   1.573   2.717   7.701 -0.0724 -0.0182  1.2259
  129OSM   C13F13889   1.690   2.583   7.830 -1.1151  0.1446  0.1923
  129OSM   H13F13890   1.722   2.676   7.882  0.2638 -0.4999  0.5344
  129OSM   H13G13891   1.766   2.505   7.809 -1.5258 -0.3608  0.5615
  129OSM   C14F13892   1.583   2.526   7.923  0.1583  0.3681  0.6780
  129OSM   H14F13893   1.555   2.438   7.862 -0.2958  1.7300 -1.1659
  129OSM   H14G13894   1.495   2.592   7.905 -1.1037 -1.1068  1.1531
  129OSM   C15F13895   1.602   2.513   8.077  0.4409 -0.2073  0.0244
  129OSM   H15F13896   1.633   2.618   8.099 -0.8386  0.7350 -2.2910
  129OSM   H15G13897   1.688   2.446   8.100  0.7162 -0.1953 -0.9354
  129OSM   C16F13898   1.482   2.459   8.143  0.5718 -0.0839 -0.6132
  129OSM   H16F13899   1.480   2.348   8.136  0.6475 -0.0796 -0.7120
  129OSM   H16G13900   1.385   2.497   8.104  0.2250 -0.1066  0.2239
  129OSM   C17F13901   1.477   2.492   8.293 -0.6046  0.6087 -0.2522
  129OSM   H17F13902   1.467   2.602   8.299 -0.8833  0.5652  0.1356
  129OSM   H17G13903   1.570   2.453   8.339  0.0733 -0.2848 -2.2479
  129OSM   C18F13904   1.356   2.420   8.350 -0.0330  0.1751  0.2165
  129OSM   H18F13905   1.354   2.320   8.301 -1.7949  1.1986 -1.9559
  129OSM   H18G13906   1.262   2.470   8.318 -0.7562 -0.0679  1.8417
  129OSM   H18H13907   1.351   2.407   8.461  1.0729 -1.0002  0.1514
  130OSM      N13908   5.026   1.467   6.017  0.0361  0.6022 -0.4009
  130OSM    C1513909   4.906   1.477   5.923 -0.9049  0.9375 -0.2132
  130OSM   H15A13910   4.844   1.390   5.942 -1.2686  1.5865  1.9290
  130OSM   H15B13911   4.932   1.485   5.819  2.1208  0.5364  0.4159
  130OSM   H15C13912   4.839   1.554   5.959 -1.3289 -0.5636  2.5398
  130OSM    C1413913   5.108   1.345   5.979  0.0188  0.1445  0.0144
  130OSM   H14A13914   5.194   1.350   6.044 -1.0598  1.8172  1.3916
  130OSM   H14B13915   5.134   1.358   5.875  1.9779 -0.3086  0.4035
  130OSM   H14C13916   5.061   1.249   5.994  0.0983 -0.2180 -1.8311
  130OSM    C1313917   5.111   1.590   6.007  0.2014 -0.2567 -0.2572
  130OSM   H13A13918   5.163   1.615   5.915  1.7015 -0.1242  0.6033
  130OSM   H13B13919   5.185   1.607   6.083 -0.6987  0.7226  0.4273
  130OSM   H13C13920   5.035   1.666   6.022  0.9803  0.1882  1.7417
  130OSM    C1213921   4.975   1.457   6.163  0.2001  0.4861  1.1267
  130OSM   H12A13922   4.911   1.543   6.179 -1.8143 -0.2448 -2.0262
  130OSM   H12B13923   5.057   1.451   6.232 -0.6499 -1.9200  2.0574
  130OSM    C1113924   4.890   1.327   6.200 -0.2328  0.4490  0.7262
  130OSM   H11A13925   4.887   1.328   6.311  1.4508  1.9639  0.8110
  130OSM   H11B13926   4.949   1.239   6.165 -3.4860 -0.9985 -1.6788
  130OSM      P13927   4.652   1.421   6.198  0.0574  0.0802  0.2552
  130OSM    O1313928   4.656   1.547   6.120 -0.3305 -0.2461  0.4283
  130OSM    O1413929   4.519   1.353   6.200 -0.7926  0.1393 -0.2557
  130OSM    O1113930   4.692   1.458   6.346 -0.5377  0.5220  0.0883
  130OSM    O1213931   4.756   1.319   6.146  0.1038  0.7976  0.2826
  130OSM    C1S13932   4.629   1.406   6.462 -0.3027 -0.0758  0.4033
  130OSM    H1S13933   4.648   1.297   6.460  0.7218  0.0840 -1.3288
  130OSM    H1T13934   4.519   1.420   6.470 -0.2731  0.5592 -0.1988
  130OSM     NF13935   4.644   1.399   6.705 -0.1355 -0.0979 -0.2064
  130OSM    HNF13936   4.566   1.447   6.746 -0.0762  0.0409 -0.2551
  130OSM    C2S13937   4.690   1.468   6.585 -1.1405  0.2488 -1.1351
  130OSM    H2S13938   4.801   1.462   6.584 -1.2114 -1.3504 -1.7620
  130OSM    C3S13939   4.668   1.620   6.597  0.5849 -0.3632  0.3468
  130OSM    H3S13940   4.558   1.637   6.596  0.4938 -0.5806 -2.8939
  130OSM     O313941   4.724   1.689   6.481  0.3837 -0.2910 -0.4376
  130OSM    HO313942   4.744   1.615   6.424 -0.2868 -1.8847  1.3205
  130OSM    C4S13943   4.726   1.674   6.732  0.2674 -0.1831  0.3356
  130OSM    H4S13944   4.832   1.647   6.743  0.3043  0.3907  1.5630
  130OSM    C5S13945   4.664   1.738   6.837  0.7344  0.2218  0.3121
  130OSM    H5S13946   4.556   1.758   6.836  0.4247 -1.1516 -2.1071
  130OSM    C6S13947   4.732   1.774   6.961 -0.4345 -0.3957 -0.4232
  130OSM    H6S13948   4.684   1.854   7.022  0.4577  0.8672 -1.3393
  130OSM    H6T13949   4.829   1.823   6.942 -1.2487  1.0838 -0.9307
  130OSM    C7S13950   4.776   1.660   7.062 -0.5423  0.6540 -0.3079
  130OSM    H7S13951   4.812   1.706   7.157  0.8774 -1.5127  0.2785
  130OSM    H7T13952   4.863   1.606   7.018  0.4590  3.2538 -1.7301
  130OSM    C8S13953   4.665   1.560   7.110 -0.6857 -0.2803  0.5545
  130OSM    H8S13954   4.699   1.454   7.113 -1.2037 -0.4416  0.7998
  130OSM    H8T13955   4.576   1.560   7.043  0.4442  2.8084 -1.1871
  130OSM    C9S13956   4.606   1.589   7.248 -0.5895  0.2756 -0.7568
  130OSM    H9S13957   4.531   1.670   7.233 -0.5379  0.6421  0.8438
  130OSM    H9T13958   4.690   1.635   7.304  1.4610  0.7249 -3.9154
  130OSM   C10S13959   4.534   1.480   7.316 -0.1680 -0.8147  0.2818
  130OSM   H10S13960   4.601   1.392   7.312 -0.2756 -0.9698  1.5591
  130OSM   H10T13961   4.450   1.453   7.247 -0.4793  1.2538 -0.2250
  130OSM   C11S13962   4.498   1.504   7.462  0.0083  0.2847  0.3175
  130OSM   H11S13963   4.420   1.429   7.486 -0.7030  0.3178 -1.6946
  130OSM   H11T13964   4.466   1.610   7.476  0.1450  0.5641 -1.3549
  130OSM   C12S13965   4.618   1.483   7.554 -0.5104  0.5538 -0.6978
  130OSM   H12S13966   4.696   1.556   7.524  1.4458 -0.5515  1.4449
  130OSM   H12T13967   4.644   1.379   7.525 -1.8945  0.0370 -0.1605
  130OSM   C13S13968   4.601   1.494   7.703  0.0649 -0.8057  0.1102
  130OSM   H13S13969   4.509   1.434   7.716 -0.4701 -0.2416 -0.9536
  130OSM   H13T13970   4.577   1.599   7.733 -1.6032 -1.4668  1.2236
  130OSM   C14S13971   4.725   1.444   7.769 -0.0246 -0.6252 -0.9790
  130OSM   H14S13972   4.795   1.530   7.761 -1.9924  1.1519 -0.0016
  130OSM   H14T13973   4.758   1.356   7.710 -0.9839 -0.6691 -1.4603
  130OSM   C15S13974   4.712   1.398   7.916 -0.0066 -0.8936  0.3900
  130OSM   H15S13975   4.658   1.301   7.916 -0.8370 -0.5502 -2.7597
  130OSM   H15T13976   4.644   1.468   7.970 -2.5608 -1.6528 -1.6226
  130OSM   C16S13977   4.857   1.394   7.977  0.1483  0.1403  0.0996
  130OSM   H16S13978   4.904   1.488   7.941  1.3447  0.1473  1.5956
  130OSM   H16T13979   4.912   1.311   7.928  0.8589  1.2586 -1.0743
  130OSM   C17S13980   4.845   1.393   8.132  0.2229 -0.7164  0.0409
  130OSM   H17S13981   4.792   1.484   8.167  0.2124 -0.3298 -0.9455
  130OSM   H17T13982   4.947   1.402   8.176  1.8190 -1.1258 -3.2590
  130OSM   C18S13983   4.773   1.268   8.185 -0.2670 -0.2166  0.5683
  130OSM   H18S13984   4.820   1.194   8.117  2.2113  2.3804 -0.7686
  130OSM   H18T13985   4.664   1.285   8.170 -0.5941 -1.1130  1.7532
  130OSM   H18U13986   4.796   1.251   8.292  0.5535  0.3942  0.4989
  130OSM    C1F13987   4.665   1.273   6.735 -0.3298  0.6326  0.2725
  130OSM     OF13988   4.735   1.206   6.659  0.6692  0.0165 -0.1804
  130OSM    C2F13989   4.586   1.223   6.851 -0.1007 -0.3088 -0.9300
  130OSM    H2F13990   4.479   1.208   6.825 -0.0400 -2.8074 -0.0130
  130OSM    H2G13991   4.582   1.300   6.931  0.5512 -0.5569 -0.6517
  130OSM    C3F13992   4.646   1.088   6.903  0.3673  0.1636  0.3229
  130OSM    H3F13993   4.749   1.101   6.942  0.6966  1.8752 -0.9495
  130OSM    H3G13994   4.653   1.015   6.819  0.7933  0.6576 -0.0790
  130OSM    C4F13995   4.564   1.028   7.021 -0.1524 -0.2214 -0.2169
  130OSM    H4F13996   4.611   0.937   7.064 -0.5742 -0.4556 -0.2494
  130OSM    H4G13997   4.461   1.000   6.991 -0.5541 -3.5381  3.3562
  130OSM    C5F13998   4.554   1.124   7.134  0.1596  0.4336  0.1084
  130OSM    H5F13999   4.471   1.198   7.130 -2.9120 -2.8014 -1.1925
  130OSM    H5G14000   4.652   1.175   7.146  0.8681 -1.1987  1.7760
  130OSM    C6F14001   4.533   1.050   7.264  0.5669  0.2623 -0.0839
  130OSM    H6F14002   4.599   0.962   7.271  2.9433  1.7108 -2.4634
  130OSM    H6G14003   4.427   1.020   7.254 -0.3630  3.3318 -0.7586
  130OSM    C7F14004   4.531   1.141   7.388  0.5463 -0.0447 -0.4943
  130OSM    H7F14005   4.465   1.230   7.377  0.7732  0.2579  0.4914
  130OSM    H7G14006   4.633   1.182   7.403  0.4770 -0.3725  1.0928
  130OSM    C8F14007   4.490   1.066   7.521  0.1462 -0.0832 -0.0843
  130OSM    H8F14008   4.387   1.026   7.514  0.3196 -0.8047  1.1606
  130OSM    H8G14009   4.481   1.143   7.600 -2.1911 -0.7493  0.3566
  130OSM    C9F14010   4.594   0.956   7.556 -0.5324  0.2188 -1.1972
  130OSM    H9F14011   4.583   0.868   7.491  0.9747 -1.1848  0.3608
  130OSM   C10F14012   4.695   0.946   7.651 -0.3337 -0.1705  0.4807
  130OSM   H10F14013   4.754   0.854   7.663 -0.3791 -0.1529  0.8650
  130OSM   C11F14014   4.718   1.045   7.762 -0.2525 -0.2968 -0.2944
  130OSM   H11F14015   4.628   1.101   7.792  0.4597  0.7762 -0.1212
  130OSM   H11G14016   4.800   1.116   7.738 -2.5061  1.9504 -1.7571
  130OSM   C12F14017   4.763   0.967   7.886  0.6030  0.0265 -0.5006
  130OSM   H12F14018   4.711   0.871   7.904 -1.4482  0.8563 -1.6933
  130OSM   H12G14019   4.730   1.027   7.973  0.9320  2.0786 -1.7169
  130OSM   C13F14020   4.914   0.930   7.896 -0.1373  0.5338 -0.2385
  130OSM   H13F14021   4.973   1.024   7.895 -0.0637  0.6436  3.2676
  130OSM   H13G14022   4.944   0.874   7.805  2.4823  1.4440 -0.0262
  130OSM   C14F14023   4.939   0.850   8.028  0.0514 -0.6784 -0.1330
  130OSM   H14F14024   4.879   0.756   8.030  0.3890 -0.8830  1.7887
  130OSM   H14G14025   4.908   0.918   8.110  0.8744  0.6234 -0.8788
  130OSM   C15F14026   5.083   0.823   8.069  0.3226 -0.4143  0.0380
  130OSM   H15F14027   5.141   0.918   8.076  0.5322 -0.6022  0.9045
  130OSM   H15G14028   5.148   0.760   8.005  1.0956  1.6809 -1.3821
  130OSM   C16F14029   5.090   0.758   8.209  0.0328  0.0410  0.5049
  130OSM   H16F14030   5.055   0.652   8.206 -0.0080  0.0732 -0.8972
  130OSM   H16G14031   5.021   0.812   8.276  1.2966  1.5291  0.6607
  130OSM   C17F14032   5.233   0.746   8.268 -0.1417 -0.1429 -0.3993
  130OSM   H17F14033   5.288   0.684   8.194  0.2367 -0.5727  0.2297
  130OSM   H17G14034   5.230   0.694   8.366 -1.6121  2.1383  0.8707
  130OSM   C18F14035   5.309   0.884   8.279  0.0834 -0.2190 -0.2347
  130OSM   H18F14036   5.394   0.905   8.346 -0.4594  0.0861  0.3637
  130OSM   H18G14037   5.234   0.959   8.311  1.5072  0.0501  2.8424
  130OSM   H18H14038   5.332   0.917   8.175 -2.0541 -0.4887 -0.8577
  131OSM      N14039   3.024   0.436   5.755 -0.2348 -0.2690 -0.2209
  131OSM    C1514040   2.903   0.394   5.675  0.3949 -0.0365 -1.0148
  131OSM   H15A14041   2.901   0.286   5.675  0.6073 -0.0415 -0.7461
  131OSM   H15B14042   2.890   0.448   5.582 -0.6282 -2.5802 -2.4643
  131OSM   H15C14043   2.816   0.418   5.735  0.3269 -1.8506 -0.3170
  131OSM    C1414044   3.137   0.449   5.656 -0.8069  0.1532 -0.0310
  131OSM   H14A14045   3.143   0.358   5.597 -1.4281  1.1896 -1.7775
  131OSM   H14B14046   3.238   0.466   5.690 -1.6749  1.7844  1.9213
  131OSM   H14C14047   3.113   0.522   5.580  1.8126 -1.3355 -2.5027
  131OSM    C1314048   3.001   0.573   5.818  0.1098 -0.3023 -0.4247
  131OSM   H13A14049   3.078   0.626   5.872 -2.3223  2.6405  0.4321
  131OSM   H13B14050   2.918   0.569   5.886  0.0421 -4.7060 -0.5017
  131OSM   H13C14051   2.987   0.648   5.741 -0.0896  3.3891  2.8923
  131OSM    C1214052   3.049   0.330   5.856  0.5666 -0.8984  0.1258
  131OSM   H12A14053   3.031   0.237   5.803 -0.8561  0.6249 -2.2671
  131OSM   H12B14054   2.992   0.346   5.946 -0.6186  1.1562 -0.9314
  131OSM    C1114055   3.186   0.331   5.923  0.6122  0.0399  0.2249
  131OSM   H11A14056   3.233   0.432   5.922  1.0818 -0.1742  0.2073
  131OSM   H11B14057   3.260   0.268   5.868  0.3629  1.7597 -2.2331
  131OSM      P14058   3.299   0.286   6.161  0.0312  0.0260 -0.1040
  131OSM    O1314059   3.291   0.167   6.245  0.2230  0.1990  0.3275
  131OSM    O1414060   3.426   0.303   6.090 -0.4061 -0.5382  0.2123
  131OSM    O1114061   3.279   0.414   6.251  0.6921  0.2900  0.4524
  131OSM    O1214062   3.170   0.293   6.065  0.0359 -0.3731  0.0852
  131OSM    C1S14063   3.147   0.441   6.303  0.5645 -0.1527  0.2276
  131OSM    H1S14064   3.115   0.354   6.365  0.3522 -0.6686 -0.5949
  131OSM    H1T14065   3.063   0.448   6.231  0.7915  1.0360  0.0669
  131OSM     NF14066   3.027   0.558   6.478  0.1442 -0.5282  0.7841
  131OSM    HNF14067   2.953   0.616   6.443  1.6981 -0.4100 -2.7409
  131OSM    C2S14068   3.146   0.562   6.397  0.2245  0.2960 -0.0293
  131OSM    H2S14069   3.229   0.551   6.470  0.4049 -0.1381 -0.2938
  131OSM    C3S14070   3.169   0.691   6.317  0.0379 -0.0509 -0.1541
  131OSM    H3S14071   3.091   0.712   6.240 -0.0057 -0.9152 -0.3549
  131OSM     O314072   3.296   0.700   6.249 -0.6825 -0.1373  0.2980
  131OSM    HO314073   3.341   0.618   6.229  0.7802  0.6581  0.1738
  131OSM    C4S14074   3.156   0.805   6.414  0.0883  0.3838 -0.0229
  131OSM    H4S14075   3.057   0.853   6.402  0.0862  0.7691  1.3861
  131OSM    C5S14076   3.249   0.861   6.497 -0.1071 -0.0327 -0.2787
  131OSM    H5S14077   3.355   0.834   6.480 -0.3484 -0.6321 -0.8567
  131OSM    C6S14078   3.225   0.968   6.596 -0.3035  0.6006 -0.2294
  131OSM    H6S14079   3.256   1.062   6.546  1.4222 -0.6286 -1.6115
  131OSM    H6T14080   3.288   0.953   6.686  2.8099  0.4972 -2.2672
  131OSM    C7S14081   3.076   0.982   6.627 -0.6555  0.2693  0.1975
  131OSM    H7S14082   3.037   0.888   6.670  2.2430 -0.1135  2.2779
  131OSM    H7T14083   3.008   1.000   6.540  0.6342 -0.0833 -0.9295
  131OSM    C8S14084   3.047   1.099   6.723 -0.1779  0.1914  0.2265
  131OSM    H8S14085   2.937   1.108   6.733 -0.4468  1.9274 -2.8188
  131OSM    H8T14086   3.075   1.191   6.667 -0.0128 -1.2027 -2.0878
  131OSM    C9S14087   3.125   1.098   6.853 -0.2131  0.2222 -0.1627
  131OSM    H9S14088   3.207   1.172   6.845  0.7829 -0.7073  1.1096
  131OSM    H9T14089   3.168   0.996   6.864  0.8198  0.2523 -3.1460
  131OSM   C10S14090   3.031   1.136   6.970 -0.6209 -0.3270 -0.5246
  131OSM   H10S14091   2.954   1.058   6.989 -1.0668  0.7758  2.8049
  131OSM   H10T14092   2.983   1.235   6.952 -0.3171 -0.0811 -0.0019
  131OSM   C11S14093   3.092   1.132   7.113 -0.4687 -0.1882  0.3031
  131OSM   H11S14094   3.172   1.206   7.138  0.9807 -2.2859  2.2893
  131OSM   H11T14095   3.146   1.036   7.126 -1.1594 -0.6258 -0.0194
  131OSM   C12S14096   2.979   1.133   7.225  0.7100 -0.1988  0.1764
  131OSM   H12S14097   2.916   1.042   7.210  0.7259 -0.5541  2.0126
  131OSM   H12T14098   2.907   1.217   7.214  0.9519  0.1737  1.3378
  131OSM   C13S14099   3.031   1.134   7.369 -0.1140 -0.4545 -0.0061
  131OSM   H13S14100   3.120   1.200   7.375  0.4231 -1.1393 -0.3065
  131OSM   H13T14101   3.059   1.032   7.403  0.9605  0.0663  0.7268
  131OSM   C14S14102   2.934   1.183   7.479 -0.0346 -0.0850 -0.4829
  131OSM   H14S14103   2.832   1.137   7.474 -1.2958  2.4747  0.2122
  131OSM   H14T14104   2.911   1.288   7.452  1.2148 -0.1166 -1.7779
  131OSM   C15S14105   2.974   1.171   7.622 -0.5767 -0.4041  1.2753
  131OSM   H15S14106   3.065   1.233   7.640  0.9314 -1.7754 -1.0756
  131OSM   H15T14107   2.989   1.065   7.651 -1.6825 -0.9644 -0.0958
  131OSM   C16S14108   2.861   1.231   7.703 -0.0577 -0.3056 -0.2123
  131OSM   H16S14109   2.765   1.192   7.664  0.7382 -0.9706 -1.5589
  131OSM   H16T14110   2.850   1.341   7.697 -2.6352 -0.4438  0.5283
  131OSM   C17S14111   2.867   1.189   7.851 -0.1319 -1.0302  0.7721
  131OSM   H17S14112   2.930   1.263   7.906  0.6042 -1.2819  0.2816
  131OSM   H17T14113   2.916   1.090   7.855 -1.4681 -1.7420  0.0019
  131OSM   C18S14114   2.729   1.184   7.914 -0.3309  0.0039  0.4669
  131OSM   H18S14115   2.725   1.149   8.020 -3.1360 -1.4402 -0.0155
  131OSM   H18T14116   2.684   1.102   7.854  0.3386 -0.5518  0.7117
  131OSM   H18U14117   2.669   1.277   7.904  1.2492  0.9464 -0.6832
  131OSM    C1F14118   2.993   0.470   6.572 -1.0606  0.1460  0.4439
  131OSM     OF14119   3.078   0.384   6.613  0.3660 -0.6582 -0.3542
  131OSM    C2F14120   2.853   0.478   6.623  0.5373  0.9173  0.2300
  131OSM    H2F14121   2.790   0.398   6.579 -1.6762  2.5252  0.3169
  131OSM    H2G14122   2.808   0.574   6.590  0.6322  2.1619  3.3184
  131OSM    C3F14123   2.838   0.469   6.774  0.9826 -0.5378 -0.0869
  131OSM    H3F14124   2.885   0.555   6.827  1.5937 -0.5249 -0.6416
  131OSM    H3G14125   2.894   0.380   6.810 -1.2059 -1.8459  0.3002
  131OSM    C4F14126   2.692   0.455   6.820  0.3672  0.4266  0.5738
  131OSM    H4F14127   2.642   0.368   6.772  0.5113  0.9113 -0.4867
  131OSM    H4G14128   2.632   0.545   6.796 -1.5042 -1.4919 -2.6628
  131OSM    C5F14129   2.692   0.423   6.972 -0.3946 -0.0290  0.1689
  131OSM    H5F14130   2.736   0.505   7.033 -0.7061  1.8885 -2.0530
  131OSM    H5G14131   2.760   0.336   6.985  0.0089  0.3955  1.0303
  131OSM    C6F14132   2.553   0.379   7.016 -0.3322 -0.1927 -0.7444
  131OSM    H6F14133   2.510   0.302   6.948  1.8434 -1.2335 -1.0088
  131OSM    H6G14134   2.494   0.473   7.026  0.2668  0.1853 -0.7379
  131OSM    C7F14135   2.552   0.318   7.157 -0.0560 -0.1494  0.0147
  131OSM    H7F14136   2.642   0.254   7.162  0.6016  0.7829  0.3610
  131OSM    H7G14137   2.465   0.250   7.167 -1.2880  0.9830 -2.2095
  131OSM    C8F14138   2.555   0.426   7.265 -0.5375 -0.2976  0.7388
  131OSM    H8F14139   2.470   0.497   7.260 -0.2396  0.0028 -0.0971
  131OSM    H8G14140   2.641   0.495   7.251 -1.4437  0.4888 -1.3783
  131OSM    C9F14141   2.565   0.358   7.394  0.0383 -0.4981 -0.8042
  131OSM    H9F14142   2.664   0.312   7.410  0.5371  0.4904 -0.9480
  131OSM   C10F14143   2.464   0.337   7.482  0.5785  0.3247 -0.8455
  131OSM   H10F14144   2.481   0.284   7.576 -3.4801  1.5956  0.7967
  131OSM   C11F14145   2.318   0.374   7.473 -0.2464 -0.0645  0.3308
  131OSM   H11F14146   2.261   0.278   7.473 -1.6455  0.7239 -0.9918
  131OSM   H11G14147   2.284   0.422   7.379 -0.1416 -0.1048  0.2713
  131OSM   C12F14148   2.290   0.465   7.588 -0.4385 -0.7735 -0.0547
  131OSM   H12F14149   2.328   0.415   7.680 -0.4650 -1.1965 -0.2750
  131OSM   H12G14150   2.181   0.480   7.598 -0.3409 -0.0306 -0.0240
  131OSM   C13F14151   2.354   0.606   7.586  0.8709  0.0188  0.5454
  131OSM   H13F14152   2.314   0.643   7.489 -2.1605 -1.1086  1.2627
  131OSM   H13G14153   2.464   0.593   7.577  0.8390 -0.4582  0.8520
  131OSM   C14F14154   2.330   0.690   7.707  0.6002  0.6468 -0.3672
  131OSM   H14F14155   2.221   0.691   7.730  0.9610 -0.2026  1.5765
  131OSM   H14G14156   2.360   0.792   7.676  2.7764  0.5852  1.3007
  131OSM   C15F14157   2.413   0.639   7.831  0.0110  0.2024  0.0840
  131OSM   H15F14158   2.516   0.622   7.795 -0.3064  0.5117 -1.0354
  131OSM   H15G14159   2.386   0.537   7.865  0.1252 -0.1591 -0.8641
  131OSM   C16F14160   2.412   0.730   7.963  0.1247 -0.1932 -0.4901
  131OSM   H16F14161   2.475   0.818   7.940  0.8447 -1.1677 -2.4679
  131OSM   H16G14162   2.465   0.677   8.046 -0.9110  0.8518  0.8879
  131OSM   C17F14163   2.269   0.750   8.018 -0.0730  0.7366 -0.2526
  131OSM   H17F14164   2.236   0.647   8.042  1.5670  0.0503 -0.8155
  131OSM   H17G14165   2.203   0.781   7.934 -0.0701 -0.6743 -0.7876
  131OSM   C18F14166   2.241   0.855   8.121  0.2148 -0.0730 -0.3500
  131OSM   H18F14167   2.302   0.836   8.212  0.9765  0.6505 -0.6942
  131OSM   H18G14168   2.135   0.874   8.150  0.1534 -0.2911 -0.4317
  131OSM   H18H14169   2.281   0.954   8.090  1.4956  0.3359  2.2604
  132OSM      N14170   4.350   1.908   6.156  0.1704  0.2925 -0.1530
  132OSM    C1514171   4.279   1.948   6.033  0.5240  0.2225 -0.8413
  132OSM   H15A14172   4.195   2.009   6.063  1.6006  0.0712  2.9885
  132OSM   H15B14173   4.254   1.856   5.982  0.3992 -1.0354  1.3448
  132OSM   H15C14174   4.349   1.998   5.967  0.0885  2.6038  0.3989
  132OSM    C1414175   4.249   1.843   6.255  0.1493  0.5475  0.5153
  132OSM   H14A14176   4.161   1.905   6.267 -1.1074 -1.3689  1.8166
  132OSM   H14B14177   4.295   1.836   6.353  2.4288  0.6664 -0.4899
  132OSM   H14C14178   4.214   1.746   6.223  1.2402  0.2267  0.2397
  132OSM    C1314179   4.448   1.808   6.115 -0.6781  0.5396  1.0285
  132OSM   H13A14180   4.400   1.716   6.085  0.8604 -0.4606  1.4624
  132OSM   H13B14181   4.517   1.783   6.195 -0.5570  2.1689  1.4782
  132OSM   H13C14182   4.496   1.852   6.029 -2.5724  2.1875  0.7407
  132OSM    C1214183   4.418   2.025   6.216 -0.1883  0.4557  0.0111
  132OSM   H12A14184   4.459   2.006   6.314  2.1332  0.0781 -0.9566
  132OSM   H12B14185   4.339   2.096   6.232 -1.6696 -1.0356 -0.4269
  132OSM    C1114186   4.529   2.106   6.139 -0.0224 -0.0559  0.2814
  132OSM   H11A14187   4.596   2.043   6.076 -2.0628 -0.8251 -1.2462
  132OSM   H11B14188   4.585   2.151   6.224 -1.7818  0.6965  1.0813
  132OSM      P14189   4.465   2.357   6.107  0.2976  0.2170  0.2711
  132OSM    O1314190   4.549   2.439   6.019  0.0267 -0.1361  0.0970
  132OSM    O1414191   4.324   2.400   6.115  0.6777 -0.0030 -0.9931
  132OSM    O1114192   4.531   2.358   6.251 -0.3737  0.2155 -0.0344
  132OSM    O1214193   4.476   2.207   6.053  0.0586 -0.1149  0.4462
  132OSM    C1S14194   4.451   2.405   6.366 -0.5609  0.4203 -0.4755
  132OSM    H1S14195   4.350   2.359   6.370  0.3515 -1.9924 -2.1607
  132OSM    H1T14196   4.430   2.513   6.355  0.9052  0.7201 -0.5651
  132OSM     NF14197   4.425   2.424   6.610  0.5292  0.5947 -0.2991
  132OSM    HNF14198   4.427   2.518   6.643  0.6175 -0.2243  2.2460
  132OSM    C2S14199   4.518   2.384   6.502  0.1826 -0.2412  0.2791
  132OSM    H2S14200   4.541   2.276   6.513 -0.3201 -0.4788 -0.8707
  132OSM    C3S14201   4.658   2.450   6.500 -0.6651  0.1657 -0.1934
  132OSM    H3S14202   4.648   2.558   6.477 -2.7277 -0.0894 -0.7200
  132OSM     O314203   4.739   2.409   6.395  0.1078 -0.3293  0.1374
  132OSM    HO314204   4.670   2.370   6.341 -0.5638 -0.7707  1.2748
  132OSM    C4S14205   4.729   2.423   6.631 -0.4919 -0.0211 -0.0781
  132OSM    H4S14206   4.723   2.510   6.697 -1.9362  0.0862 -0.3327
  132OSM    C5S14207   4.800   2.318   6.671  0.4371  1.1220  0.4708
  132OSM    H5S14208   4.823   2.233   6.606 -1.5648  0.7587  0.1577
  132OSM    C6S14209   4.846   2.312   6.818 -0.1334 -0.4181  0.0156
  132OSM    H6S14210   4.816   2.405   6.870 -0.7211 -0.5038 -0.1516
  132OSM    H6T14211   4.956   2.313   6.830  0.1063  1.8337 -1.6039
  132OSM    C7S14212   4.790   2.188   6.892  0.2545 -0.0800  0.5858
  132OSM    H7S14213   4.826   2.097   6.839  2.2074 -0.8974  3.1156
  132OSM    H7T14214   4.679   2.188   6.883  0.3589  0.7505 -1.2209
  132OSM    C8S14215   4.822   2.195   7.042  0.4132 -0.3236  0.4177
  132OSM    H8S14216   4.750   2.270   7.080  0.2031 -0.5211  0.4073
  132OSM    H8T14217   4.926   2.230   7.058 -0.0177  0.6830  1.1061
  132OSM    C9S14218   4.793   2.072   7.125  0.4949  0.0616 -0.7178
  132OSM    H9S14219   4.844   1.982   7.085 -1.1724 -0.5344 -1.5988
  132OSM    H9T14220   4.684   2.054   7.115  0.4328  0.6189 -1.1100
  132OSM   C10S14221   4.837   2.098   7.264 -0.4090  0.0645 -0.8983
  132OSM   H10S14222   4.795   2.188   7.315 -0.8891 -0.6708  0.0491
  132OSM   H10T14223   4.947   2.115   7.266 -0.3647 -0.2441  0.0296
  132OSM   C11S14224   4.806   1.976   7.356  1.0027  0.5768  0.0878
  132OSM   H11S14225   4.854   1.882   7.322  2.6776  0.9008  1.4040
  132OSM   H11T14226   4.696   1.968   7.343  1.0251 -0.3709  0.4804
  132OSM   C12S14227   4.834   2.002   7.500  0.1214 -0.9653 -0.2746
  132OSM   H12S14228   4.799   2.105   7.519 -1.4352 -1.2388 -1.4275
  132OSM   H12T14229   4.945   2.005   7.498  0.1243  1.0152  0.5189
  132OSM   C13S14230   4.770   1.909   7.596  0.3783  0.7962  0.0632
  132OSM   H13S14231   4.797   1.806   7.562  0.2033  0.5782  0.5632
  132OSM   H13T14232   4.661   1.925   7.584  0.2549 -0.0791 -0.0726
  132OSM   C14S14233   4.828   1.930   7.736  1.6404  0.9659  0.3379
  132OSM   H14S14234   4.839   2.036   7.766 -1.9188  1.2819  1.1052
  132OSM   H14T14235   4.925   1.880   7.757  0.7392 -1.4613 -0.8666
  132OSM   C15S14236   4.731   1.862   7.845 -0.2378  0.5486 -0.1003
  132OSM   H15S14237   4.724   1.752   7.826 -0.7636  0.8064 -1.5290
  132OSM   H15T14238   4.628   1.903   7.848  0.3393  2.0223  0.0439
  132OSM   C16S14239   4.769   1.890   7.987  0.1373  0.0935  0.3763
  132OSM   H16S14240   4.711   1.979   8.020 -0.0117  0.2497 -0.3002
  132OSM   H16T14241   4.879   1.909   7.992  0.4676 -0.6106 -2.6276
  132OSM   C17S14242   4.749   1.769   8.077  0.2680  0.0760 -0.0324
  132OSM   H17S14243   4.819   1.691   8.042 -0.2188 -0.4016  0.0497
  132OSM   H17T14244   4.646   1.731   8.061  0.7803 -2.1234  1.4418
  132OSM   C18S14245   4.766   1.797   8.225  0.5285 -0.4148 -0.1396
  132OSM   H18S14246   4.702   1.879   8.265  1.1130 -0.7166  1.4828
  132OSM   H18T14247   4.875   1.815   8.238 -0.0242  1.1741  3.2220
  132OSM   H18U14248   4.736   1.710   8.286 -0.7102 -0.3361 -0.5973
  132OSM    C1F14249   4.332   2.349   6.666 -0.0480  0.1662 -0.0424
  132OSM     OF14250   4.292   2.243   6.618  0.0691 -0.4930  0.7605
  132OSM    C2F14251   4.272   2.400   6.791  0.0724  0.6338 -1.1375
  132OSM    H2F14252   4.211   2.315   6.829  0.5082  0.6056 -0.4687
  132OSM    H2G14253   4.208   2.489   6.770  0.2205  0.7181 -1.2322
  132OSM    C3F14254   4.383   2.432   6.896 -0.2310 -0.3998 -0.0439
  132OSM    H3F14255   4.440   2.514   6.846  0.9923  0.2361  2.2426
  132OSM    H3G14256   4.456   2.349   6.909 -1.0813 -1.1038  0.3468
  132OSM    C4F14257   4.328   2.472   7.029  0.1022 -0.7585 -0.8536
  132OSM    H4F14258   4.235   2.530   7.009 -0.2645 -1.0780 -0.1075
  132OSM    H4G14259   4.390   2.545   7.084 -0.4716 -1.4482  0.7664
  132OSM    C5F14260   4.305   2.369   7.141  0.2740  0.2671  0.4353
  132OSM    H5F14261   4.383   2.290   7.132  1.7325  1.8078 -1.4113
  132OSM    H5G14262   4.206   2.326   7.117 -1.3621  1.8789  3.6099
  132OSM    C6F14263   4.294   2.418   7.286  0.1071 -0.0699  0.4791
  132OSM    H6F14264   4.208   2.488   7.294  0.6926  0.5205  1.8456
  132OSM    H6G14265   4.384   2.481   7.305 -0.2751  0.7992 -0.4201
  132OSM    C7F14266   4.280   2.311   7.391 -0.4305 -0.1711 -0.3434
  132OSM    H7F14267   4.332   2.334   7.486 -1.9243  0.8107  0.2879
  132OSM    H7G14268   4.331   2.220   7.354 -0.1907  0.2385 -1.0293
  132OSM    C8F14269   4.137   2.262   7.408  0.2067  0.5275  0.0181
  132OSM    H8F14270   4.142   2.169   7.468  1.4858 -0.6395 -1.8267
  132OSM    H8G14271   4.103   2.230   7.307  1.2859 -1.7085  0.3000
  132OSM    C9F14272   4.041   2.361   7.466  0.1113  0.0514  0.1379
  132OSM    H9F14273   4.054   2.466   7.436  0.8233  0.0109  0.2838
  132OSM   C10F14274   3.955   2.348   7.569  0.2623 -1.0126  0.1667
  132OSM   H10F14275   3.906   2.440   7.604  2.4813 -0.2323  1.4531
  132OSM   C11F14276   3.938   2.215   7.643  0.0939  0.2224 -0.3150
  132OSM   H11F14277   3.951   2.131   7.571  0.4238  0.0505 -0.0584
  132OSM   H11G14278   3.837   2.203   7.689  0.7697 -1.8427  0.7789
  132OSM   C12F14279   4.026   2.188   7.768  0.4618 -0.0825  0.7899
  132OSM   H12F14280   4.132   2.200   7.738  0.8684 -0.9428  1.7973
  132OSM   H12G14281   4.011   2.079   7.787  1.3374 -0.5807 -1.1438
  132OSM   C13F14282   4.013   2.285   7.886 -0.2600  0.4009 -0.2665
  132OSM   H13F14283   3.909   2.287   7.925 -0.5094  0.7017 -0.9221
  132OSM   H13G14284   4.034   2.386   7.843 -1.0066  1.0215  0.7942
  132OSM   C14F14285   4.108   2.273   8.001 -0.4501 -0.1378 -0.6131
  132OSM   H14F14286   4.069   2.204   8.079  1.5337  0.3870  0.9527
  132OSM   H14G14287   4.111   2.371   8.053  0.6984 -0.8524  0.7399
  132OSM   C15F14288   4.250   2.236   7.975 -0.6022 -0.7330  0.5211
  132OSM   H15F14289   4.260   2.135   7.930  3.5794 -0.3671  0.1912
  132OSM   H15G14290   4.305   2.228   8.072  2.7321  0.9838 -1.0698
  132OSM   C16F14291   4.326   2.350   7.893  0.2233 -0.3059 -0.3789
  132OSM   H16F14292   4.313   2.441   7.956  1.5010 -0.2687 -0.1510
  132OSM   H16G14293   4.291   2.366   7.789  0.7494 -1.5118 -0.7596
  132OSM   C17F14294   4.475   2.318   7.897  0.3375 -0.0300  0.1548
  132OSM   H17F14295   4.500   2.287   8.001 -0.1451  0.1814  0.3375
  132OSM   H17G14296   4.540   2.408   7.889  0.9848 -0.3346  1.5656
  132OSM   C18F14297   4.530   2.210   7.791  0.2812 -0.0057 -0.2776
  132OSM   H18F14298   4.640   2.198   7.799  0.0018 -1.3219  3.2647
  132OSM   H18G14299   4.508   2.257   7.693  3.0950  2.2242  0.0195
  132OSM   H18H14300   4.482   2.111   7.803  1.6710 -0.7134 -0.4196
  133SAPE     N14301   1.115   0.798  10.544 -0.0397 -0.6733 -0.3934
  133SAPE   HN114302   1.143   0.892  10.579 -1.4921 -1.0993  2.1700
  133SAPE   HN214303   1.200   0.769  10.491  1.3621  2.6757 -0.2263
  133SAPE   HN314304   1.024   0.807  10.495  0.9821  0.3778 -2.1918
  133SAPE   C1214305   1.120   0.729  10.671  1.0372 -0.5239  0.8490
  133SAPE  H12A14306   1.090   0.623  10.656  0.7127 -0.7113  2.6307
  133SAPE  H12B14307   1.061   0.794  10.738  1.7827  0.3460  0.6741
  133SAPE   C1114308   1.261   0.730  10.736  0.0976 -0.0367  0.1845
  133SAPE  H11A14309   1.322   0.641  10.708  1.1393 -0.2763  2.8763
  133SAPE  H11B14310   1.238   0.721  10.844  0.2524  0.7711  0.2929
  133SAPE     P14311   1.482   0.861  10.731  0.0361  0.0043  0.2729
  133SAPE   O1314312   1.527   0.995  10.763 -0.7390  0.2746  0.1886
  133SAPE   O1414313   1.537   0.751  10.814 -0.4907  0.3150  0.2596
  133SAPE   O1214314   1.329   0.856  10.717  0.4521  0.2137 -0.3446
  133SAPE   O1114315   1.523   0.838  10.580 -0.0103 -0.4503  1.4127
  133SAPE    C114316   1.592   0.713  10.545 -0.5425  0.2503  0.3576
  133SAPE    HA14317   1.673   0.677  10.612 -1.0272 -3.2168 -0.7209
  133SAPE    HB14318   1.522   0.633  10.515  0.2121  0.0754 -0.9918
  133SAPE    C214319   1.663   0.735  10.404  0.2894 -0.0976  0.4873
  133SAPE    HS14320   1.740   0.814  10.418 -0.5053  0.3224  2.8801
  133SAPE   O2114321   1.564   0.768  10.308  0.0889 -0.0706  0.3878
  133SAPE   C2114322   1.600   0.845  10.215  0.4041 -0.2468 -0.4422
  133SAPE   O2214323   1.706   0.914  10.209  0.2585 -0.3537 -0.4065
  133SAPE   C2214324   1.490   0.858  10.109  0.3772 -0.4067 -0.0619
  133SAPE   H2R14325   1.490   0.769  10.042 -0.3961 -0.3517 -0.1432
  133SAPE   H2S14326   1.396   0.832  10.162 -0.4443 -1.0954 -1.7538
  133SAPE    C314327   1.736   0.609  10.352  0.0854 -0.3608 -0.2503
  133SAPE    HX14328   1.662   0.529  10.331 -1.9202  0.7354  2.0363
  133SAPE    HY14329   1.803   0.560  10.426  0.1717  1.7753  1.2101
  133SAPE   O3114330   1.820   0.640  10.234 -0.3181 -0.5582 -0.0426
  133SAPE   C3114331   1.945   0.686  10.250 -0.1817 -0.4618  0.2264
  133SAPE   O3214332   1.993   0.722  10.358  0.0321 -0.0408 -0.3483
  133SAPE   C3214333   2.019   0.700  10.119  0.3634 -0.3427 -0.3621
  133SAPE   H2X14334   2.006   0.598  10.077 -5.3524 -0.9299  1.9193
  133SAPE   H2Y14335   2.121   0.742  10.133  0.9926 -1.4133 -1.4962
  133SAPE   C2314336   1.482   0.982  10.017 -0.2829 -0.1933  0.4232
  133SAPE   H3R14337   1.569   0.968   9.951 -0.7791 -2.6575  0.1840
  133SAPE   H3S14338   1.499   1.067  10.086  2.7743  0.7315 -1.3131
  133SAPE   C2414339   1.354   0.989   9.939  0.0194 -0.2140 -0.0697
  133SAPE   H4R14340   1.344   1.074   9.868 -2.8652 -1.6225 -1.5490
  133SAPE   H4S14341   1.268   1.001  10.008  1.2730  4.7135  0.9627
  133SAPE   C2514342   1.330   0.865   9.858 -0.5084  0.2971  0.1044
  133SAPE   H5R14343   1.269   0.785   9.903  0.2623 -0.0998  0.4770
  133SAPE   C2614344   1.388   0.836   9.740  0.5843 -0.2057  0.6484
  133SAPE   H6R14345   1.369   0.737   9.696 -2.4484  0.2961  0.6575
  133SAPE   C2714346   1.481   0.920   9.652  0.0455  0.0286 -0.2444
  133SAPE   H7R14347   1.541   0.846   9.594  0.2940 -1.5495  1.9098
  133SAPE   H7S14348   1.558   0.981   9.704  0.3260  1.2289 -1.9624
  133SAPE   C2814349   1.394   1.016   9.570  0.1692  0.5060  0.5309
  133SAPE   H8R14350   1.308   1.058   9.625  1.9510  2.8502  1.7622
  133SAPE   C2914351   1.413   1.044   9.439 -0.6116  0.5895  0.3718
  133SAPE   H9R14352   1.332   1.098   9.387 -0.1447 -0.3626 -1.4204
  133SAPE  C21014353   1.525   0.990   9.353  1.0075 -0.0298  0.5416
  133SAPE  H10R14354   1.498   0.887   9.322  1.4221  0.3574 -1.2566
  133SAPE  H10S14355   1.622   0.979   9.406  0.4253 -1.9532  1.2922
  133SAPE  C21114356   1.541   1.077   9.226 -0.5771  1.1720 -0.4451
  133SAPE  H11R14357   1.617   1.156   9.236  0.3823  0.6339 -2.8782
  133SAPE  C21214358   1.488   1.060   9.110  0.9461 -0.1509  0.5649
  133SAPE  H12R14359   1.504   1.143   9.039  2.0018 -0.2321  0.6852
  133SAPE  C21314360   1.384   0.955   9.078 -0.4083 -0.0709 -1.1644
  133SAPE  H13R14361   1.301   0.956   9.151  1.1927 -1.4665  0.7698
  133SAPE  H13S14362   1.435   0.861   9.109 -0.5239  0.6403  1.4242
  133SAPE  C21414363   1.330   0.954   8.939 -0.1899 -0.7319 -0.1948
  133SAPE  H14R14364   1.291   1.051   8.905 -0.8196 -1.0462 -0.3969
  133SAPE  C21514365   1.328   0.848   8.857 -0.1346 -0.8289 -0.2432
  133SAPE  H15R14366   1.275   0.857   8.761  1.6804 -1.2524 -1.3500
  133SAPE  C21614367   1.385   0.709   8.876 -0.4852  0.3976  0.3974
  133SAPE  H16R14368   1.308   0.638   8.914 -1.2395  0.0044 -1.7389
  133SAPE  H16S14369   1.462   0.724   8.955 -1.0025  0.7494  0.8472
  133SAPE  C21714370   1.426   0.634   8.752  0.0206 -0.6789 -0.4074
  133SAPE  H17R14371   1.494   0.552   8.785  0.0412 -0.4430  0.1427
  133SAPE  H17S14372   1.487   0.690   8.678  1.1781 -0.4138  0.7158
  133SAPE  C21814373   1.305   0.572   8.682  0.1603  0.8580  0.5261
  133SAPE  H18R14374   1.239   0.646   8.630 -0.0673  1.5435  1.7437
  133SAPE  H18S14375   1.246   0.513   8.755  0.4540 -0.6055 -0.3776
  133SAPE  C21914376   1.361   0.480   8.570  0.3711 -0.4575  0.4205
  133SAPE  H19R14377   1.412   0.395   8.621  2.4774 -0.4002 -1.4266
  133SAPE  H19S14378   1.446   0.529   8.518  1.1034  0.0089  2.0190
  133SAPE  C22014379   1.247   0.422   8.483 -0.6320 -0.2250 -0.3841
  133SAPE  H20R14380   1.194   0.504   8.430  0.9080  0.3090 -1.1800
  133SAPE  H20S14381   1.168   0.372   8.542 -1.1759  2.3565  1.2115
  133SAPE  H20T14382   1.294   0.360   8.404 -1.1178  1.7316 -2.3044
  133SAPE   C3314383   1.945   0.801  10.019  0.2484  0.5468  0.2534
  133SAPE   H3X14384   2.004   0.895  10.028 -0.6282  1.0539  0.9532
  133SAPE   H3Y14385   1.839   0.816  10.047  0.3893  0.1990  1.0207
  133SAPE   C3414386   1.957   0.751   9.872 -0.3748  0.5024 -0.0242
  133SAPE   H4X14387   1.915   0.648   9.882 -0.7049  0.6924  0.5722
  133SAPE   H4Y14388   2.065   0.750   9.843  0.3129 -1.5656  2.2039
  133SAPE   C3514389   1.869   0.826   9.777  0.2063  0.3340 -0.3681
  133SAPE   H5X14390   1.896   0.931   9.755 -1.0935  0.4600 -1.5092
  133SAPE   H5Y14391   1.768   0.832   9.823  0.7863  0.5565  0.9201
  133SAPE   C3614392   1.848   0.754   9.638 -0.3342  0.3927 -0.2745
  133SAPE   H6X14393   1.755   0.794   9.592 -0.4457 -1.4517 -1.8228
  133SAPE   H6Y14394   1.829   0.648   9.665  2.4508  0.1459  1.0132
  133SAPE   C3714395   1.964   0.780   9.544  0.4919  0.5233  0.4934
  133SAPE   H7X14396   2.059   0.747   9.591 -0.4625 -2.4601  0.5136
  133SAPE   H7Y14397   1.977   0.886   9.510  2.9804 -0.0591 -0.5830
  133SAPE   C3814398   1.958   0.708   9.408  0.0397  0.2283 -0.5714
  133SAPE   H8X14399   1.906   0.610   9.402 -2.0300  1.3618 -3.8317
  133SAPE   H8Y14400   2.058   0.688   9.364  0.6614  2.4954 -0.3347
  133SAPE   C3914401   1.880   0.791   9.308 -0.4734  0.9238  0.0472
  133SAPE   H9X14402   1.934   0.888   9.298  0.3450  0.5101  0.3122
  133SAPE   H9Y14403   1.775   0.812   9.336 -0.8200 -0.3558 -0.2712
  133SAPE  C31014404   1.869   0.706   9.180  0.4335  0.3839  0.0429
  133SAPE  H10X14405   1.791   0.629   9.198  1.9311 -0.7267  2.2574
  133SAPE  H10Y14406   1.971   0.667   9.156 -0.1414  0.0525 -2.1252
  133SAPE  C31114407   1.825   0.795   9.059  0.8333  0.2624  0.0118
  133SAPE  H11X14408   1.904   0.869   9.035  0.7435  0.5627  0.6405
  133SAPE  H11Y14409   1.733   0.844   9.095 -1.7227 -2.4256 -2.2860
  133SAPE  C31214410   1.794   0.712   8.935  0.0935  0.2436 -0.1474
  133SAPE  H12X14411   1.713   0.638   8.956 -0.5439  1.1207  0.5544
  133SAPE  H12Y14412   1.879   0.653   8.896 -0.2873  0.8230 -1.9371
  133SAPE  C31314413   1.742   0.801   8.817 -0.1705  0.3019  0.2622
  133SAPE  H13X14414   1.806   0.892   8.813  1.1151 -0.2156  4.1564
  133SAPE  H13Y14415   1.642   0.839   8.848  0.1283  0.9278  0.4822
  133SAPE  C31414416   1.750   0.728   8.688 -0.5545  0.0403  0.1502
  133SAPE  H14X14417   1.694   0.633   8.696  1.5402 -1.2142  0.5549
  133SAPE  H14Y14418   1.857   0.717   8.661 -0.3599  2.2401 -0.2140
  133SAPE  C31514419   1.704   0.823   8.576 -0.5555  0.2020 -0.6009
  133SAPE  H15X14420   1.760   0.919   8.580 -2.2745  1.3102 -1.5274
  133SAPE  H15Y14421   1.603   0.857   8.605  0.0155  0.8752  0.6684
  133SAPE  C31614422   1.698   0.757   8.443 -0.2050 -0.0635  0.0105
  133SAPE  H16X14423   1.601   0.704   8.428  1.3760 -3.4401  0.8385
  133SAPE  H16Y14424   1.780   0.683   8.443  1.7727  2.0176 -0.3419
  133SAPE  C31714425   1.719   0.860   8.325  0.3547  0.0289  0.2837
  133SAPE  H17X14426   1.813   0.917   8.336  0.1580  0.3716  0.1941
  133SAPE  H17Y14427   1.633   0.930   8.324 -0.1667 -0.5871 -1.2509
  133SAPE  C31814428   1.716   0.792   8.195 -0.2055 -0.4476  1.1543
  133SAPE  H18X14429   1.759   0.689   8.192 -0.9312 -0.7586  1.0611
  133SAPE  H18Y14430   1.763   0.846   8.110 -0.2072 -1.6554  0.3614
  133SAPE  H18Z14431   1.611   0.768   8.166 -0.2172 -2.3139  2.5370
  134SAPE     N14432   2.450   1.638  10.782  0.3907 -0.0653 -0.2379
  134SAPE   HN114433   2.408   1.714  10.838  0.5870  0.9472 -1.4121
  134SAPE   HN214434   2.450   1.558  10.848  0.6458  0.5894  0.5586
  134SAPE   HN314435   2.546   1.670  10.761 -0.3278 -0.0194 -4.2558
  134SAPE   C1214436   2.380   1.620  10.650  0.2838  0.6463 -0.0497
  134SAPE  H12A14437   2.409   1.704  10.583  2.6503 -0.6042 -0.6950
  134SAPE  H12B14438   2.270   1.627  10.665  0.3913  2.6684  0.0447
  134SAPE   C1114439   2.425   1.483  10.588 -0.5932  0.2622  0.5118
  134SAPE  H11A14440   2.535   1.492  10.572 -0.8695  0.5938 -1.4653
  134SAPE  H11B14441   2.378   1.481  10.488  2.2947  0.1283 -0.9510
  134SAPE     P14442   2.440   1.232  10.680  0.0371 -0.0046  0.0018
  134SAPE   O1314443   2.543   1.225  10.787  0.2219 -0.1443 -0.3358
  134SAPE   O1414444   2.338   1.129  10.694 -0.0246  0.0023  0.0272
  134SAPE   O1214445   2.380   1.377  10.677 -0.2964 -0.0519 -0.1044
  134SAPE   O1114446   2.517   1.225  10.535  0.6773 -0.0837  0.2550
  134SAPE    C114447   2.644   1.159  10.512  0.0723 -0.0128  0.5605
  134SAPE    HA14448   2.717   1.176  10.594 -4.0725  0.0004  4.6145
  134SAPE    HB14449   2.631   1.049  10.518 -2.1436  0.1089 -0.8828
  134SAPE    C214450   2.706   1.201  10.372 -0.4004 -0.1606 -0.3310
  134SAPE    HS14451   2.805   1.153  10.367 -0.9184 -1.1735 -1.4778
  134SAPE   O2114452   2.730   1.343  10.370  0.1100 -0.3573 -0.3693
  134SAPE   C2114453   2.639   1.435  10.332 -0.4308  0.4170 -0.5671
  134SAPE   O2214454   2.522   1.413  10.294  0.5534  0.4652 -0.7121
  134SAPE   C2214455   2.714   1.572  10.322 -0.4470 -0.5599  0.3421
  134SAPE   H2R14456   2.753   1.602  10.421  0.7759  0.6050 -0.4569
  134SAPE   H2S14457   2.806   1.556  10.261 -1.2510  1.7457 -1.6280
  134SAPE    C314458   2.635   1.151  10.240  0.0236  0.6399 -0.0715
  134SAPE    HX14459   2.527   1.173  10.250  0.2357  0.7267  3.5070
  134SAPE    HY14460   2.643   1.040  10.240  1.3605  0.7174 -0.0733
  134SAPE   O3114461   2.694   1.203  10.120  0.1687 -0.5180 -0.5998
  134SAPE   C3114462   2.618   1.247  10.019  0.2161  0.1696 -0.0205
  134SAPE   O3214463   2.501   1.222  10.002  0.3347  0.4485 -0.7732
  134SAPE   C3214464   2.700   1.323   9.916  0.6577  0.3001 -0.0901
  134SAPE   H2X14465   2.787   1.265   9.880 -0.1965 -0.3067 -1.2070
  134SAPE   H2Y14466   2.733   1.417   9.966 -0.9424 -0.6485  3.0565
  134SAPE   C2314467   2.632   1.690  10.258 -0.0865  0.5256 -0.3190
  134SAPE   H3R14468   2.658   1.794  10.288  1.7175  0.0917 -0.2449
  134SAPE   H3S14469   2.526   1.675  10.288  0.1144 -4.6038 -1.3753
  134SAPE   C2414470   2.627   1.692  10.101  0.4851  0.7256  0.0489
  134SAPE   H4R14471   2.548   1.768  10.083 -0.8001 -0.5759 -0.0308
  134SAPE   H4S14472   2.595   1.590  10.070  1.9551  0.8324 -1.9771
  134SAPE   C2514473   2.751   1.737  10.031  0.0541  0.1264 -0.7243
  134SAPE   H5R14474   2.847   1.708  10.076  0.5333  1.4797 -0.8212
  134SAPE   C2614475   2.772   1.816   9.930  0.4876 -0.5740  0.4278
  134SAPE   H6R14476   2.875   1.837   9.895  0.2708 -2.0596 -1.2948
  134SAPE   C2714477   2.654   1.893   9.861 -0.2168  0.9164 -0.2903
  134SAPE   H7R14478   2.611   1.968   9.931  1.2574  1.8914 -0.3814
  134SAPE   H7S14479   2.567   1.828   9.840  0.2607  0.3117 -0.4396
  134SAPE   C2814480   2.684   1.979   9.736  0.2635  0.9311  0.6625
  134SAPE   H8R14481   2.722   2.081   9.755 -0.5085  1.3815 -0.1324
  134SAPE   C2914482   2.668   1.939   9.605  0.0414 -0.8303 -0.2181
  134SAPE   H9R14483   2.703   2.009   9.528  1.9016 -0.0578  1.2424
  134SAPE  C21014484   2.615   1.812   9.545  0.5256  0.2671 -0.3830
  134SAPE  H10R14485   2.565   1.818   9.446  0.4926  0.7948 -0.3370
  134SAPE  H10S14486   2.543   1.773   9.620  0.0055  0.2874 -0.8631
  134SAPE  C21114487   2.726   1.715   9.526  0.1051  0.3853 -0.0443
  134SAPE  H11R14488   2.747   1.655   9.617  1.5260  2.2390  0.9145
  134SAPE  C21214489   2.792   1.694   9.415  0.3601  0.8317  0.8272
  134SAPE  H12R14490   2.872   1.618   9.417 -0.8619 -0.5090  0.2036
  134SAPE  C21314491   2.780   1.779   9.292  0.7712 -0.3477  0.6575
  134SAPE  H13R14492   2.876   1.817   9.251  0.2230 -0.9879 -1.3230
  134SAPE  H13S14493   2.723   1.873   9.310  0.7507  0.1083 -1.5102
  134SAPE  C21414494   2.712   1.707   9.182 -0.2339 -0.4433 -0.4485
  134SAPE  H14R14495   2.709   1.597   9.189  2.0825 -0.5087  0.4578
  134SAPE  C21514496   2.673   1.775   9.069 -0.2924 -0.6596 -0.5109
  134SAPE  H15R14497   2.612   1.722   8.993  0.0485 -1.6153 -0.1357
  134SAPE  C21614498   2.688   1.919   9.043 -0.4210  0.4086 -0.0133
  134SAPE  H16R14499   2.750   1.918   8.951 -1.0696 -1.0874 -0.4598
  134SAPE  H16S14500   2.749   1.966   9.123  1.4392  0.5135 -1.3947
  134SAPE  C21714501   2.564   2.004   8.998  0.1963 -0.9875  0.2616
  134SAPE  H17R14502   2.524   1.945   8.913  0.4528 -0.9816  0.1346
  134SAPE  H17S14503   2.597   2.102   8.957 -0.7404 -0.1412  1.4418
  134SAPE  C21814504   2.446   2.024   9.096 -0.2627 -0.0129 -0.1753
  134SAPE  H18R14505   2.402   1.924   9.113  0.2424 -0.2785 -0.4130
  134SAPE  H18S14506   2.359   2.080   9.055  0.2367 -0.1822 -1.5501
  134SAPE  C21914507   2.496   2.090   9.228 -0.8212  0.1496 -0.3919
  134SAPE  H19R14508   2.566   2.023   9.283 -0.0382  1.7895  0.7069
  134SAPE  H19S14509   2.413   2.106   9.300  0.1499 -2.0971  1.3547
  134SAPE  C22014510   2.572   2.224   9.210 -0.9816 -0.0759 -0.1009
  134SAPE  H20R14511   2.679   2.212   9.182 -0.0023  1.3080  2.6349
  134SAPE  H20S14512   2.580   2.277   9.307  0.5078  0.5348 -0.5204
  134SAPE  H20T14513   2.516   2.280   9.132 -1.8914 -0.9755 -0.1093
  134SAPE   C3314514   2.631   1.369   9.786  0.4092 -0.5850 -0.0447
  134SAPE   H3X14515   2.697   1.442   9.734  0.0993  0.9635  1.6228
  134SAPE   H3Y14516   2.534   1.416   9.814  0.9415  1.6101 -1.5926
  134SAPE   C3414517   2.607   1.252   9.688  0.3311  0.1712 -0.5865
  134SAPE   H4X14518   2.543   1.176   9.737  2.3898 -0.3947  1.3729
  134SAPE   H4Y14519   2.702   1.200   9.665  0.9782  1.0293  0.0735
  134SAPE   C3514520   2.553   1.308   9.557 -0.0097 -0.1005  0.1500
  134SAPE   H5X14521   2.525   1.223   9.490  1.5604  0.1065 -0.8002
  134SAPE   H5Y14522   2.631   1.361   9.500  1.5992 -1.5382  0.9140
  134SAPE   C3614523   2.424   1.398   9.567  0.2898 -0.6777 -0.0630
  134SAPE   H6X14524   2.458   1.500   9.594 -0.9749 -0.9075  2.6519
  134SAPE   H6Y14525   2.373   1.353   9.655 -2.4906  2.7638  0.2923
  134SAPE   C3714526   2.344   1.401   9.440 -0.8488 -0.2765  0.3024
  134SAPE   H7X14527   2.242   1.369   9.472 -2.2846  2.8084 -0.8127
  134SAPE   H7Y14528   2.372   1.320   9.370  0.0605  0.5597 -0.3164
  134SAPE   C3814529   2.349   1.532   9.361 -0.0036 -0.1903 -0.3468
  134SAPE   H8X14530   2.449   1.579   9.372 -0.1785  0.2363 -0.5625
  134SAPE   H8Y14531   2.294   1.614   9.414  0.1441  0.6183 -1.4059
  134SAPE   C3914532   2.302   1.519   9.225  0.3955  1.0045 -0.1498
  134SAPE   H9X14533   2.285   1.621   9.184  0.8400  1.5419  0.9667
  134SAPE   H9Y14534   2.205   1.465   9.219 -0.0663  1.6281  1.2172
  134SAPE  C31014535   2.399   1.446   9.128 -0.2837  0.4685 -0.5662
  134SAPE  H10X14536   2.409   1.338   9.152 -0.3799  0.7260  0.6900
  134SAPE  H10Y14537   2.501   1.485   9.149  0.1327 -1.6665  1.8290
  134SAPE  C31114538   2.364   1.465   8.980 -0.8470 -0.2095 -0.8403
  134SAPE  H11X14539   2.333   1.570   8.962  0.1455  0.0242 -1.2529
  134SAPE  H11Y14540   2.273   1.401   8.980 -0.1309 -1.2914  0.2004
  134SAPE  C31214541   2.468   1.426   8.883  0.2856 -0.1110 -0.0768
  134SAPE  H12X14542   2.502   1.320   8.888 -1.1817 -0.5821  0.3885
  134SAPE  H12Y14543   2.545   1.503   8.906 -1.4174  0.8973  2.7894
  134SAPE  C31314544   2.413   1.444   8.738  0.8143 -0.1464  0.4668
  134SAPE  H13X14545   2.378   1.548   8.721  0.6641 -0.5897 -2.5217
  134SAPE  H13Y14546   2.327   1.375   8.722  0.0123  0.6033  1.4133
  134SAPE  C31414547   2.528   1.437   8.636 -0.6800  0.1542 -0.2060
  134SAPE  H14X14548   2.582   1.340   8.647  0.8431  1.0728  1.0288
  134SAPE  H14Y14549   2.605   1.517   8.646  0.0708 -0.3484 -1.6699
  134SAPE  C31514550   2.476   1.436   8.495 -0.2877 -0.3186  0.4194
  134SAPE  H15X14551   2.408   1.524   8.484  0.6091  0.3696  0.2540
  134SAPE  H15Y14552   2.419   1.341   8.490 -2.4263  0.9231 -0.4845
  134SAPE  C31614553   2.597   1.443   8.389  0.2346 -0.4345  0.0878
  134SAPE  H16X14554   2.664   1.355   8.398 -2.2101 -2.1845  3.1398
  134SAPE  H16Y14555   2.658   1.534   8.410  1.7313 -1.5659  0.8404
  134SAPE  C31714556   2.549   1.457   8.244  1.2945  0.0664 -0.2167
  134SAPE  H17X14557   2.629   1.472   8.168  0.6302 -2.3373 -1.4896
  134SAPE  H17Y14558   2.489   1.550   8.234  2.9653  1.0144 -1.9337
  134SAPE  C31814559   2.469   1.332   8.194  1.2817  0.5304 -0.3678
  134SAPE  H18X14560   2.379   1.307   8.254  1.0583  0.0258 -0.9011
  134SAPE  H18Y14561   2.550   1.256   8.188  0.7782 -0.2168  1.4793
  134SAPE  H18Z14562   2.441   1.356   8.089 -2.2318 -1.0853  0.0624
  135SAPE     N14563   2.733   5.538  10.572  0.9934  0.1482  0.3691
  135SAPE   HN114564   2.655   5.470  10.581  0.9617  0.3022  1.2992
  135SAPE   HN214565   2.816   5.476  10.557  1.2674  0.9230 -1.7265
  135SAPE   HN314566   2.751   5.586  10.662  1.5358  0.4596  0.1020
  135SAPE   C1214567   2.707   5.627  10.454  0.0944  0.0348  0.0011
  135SAPE  H12A14568   2.750   5.572  10.367 -1.6689  0.2466 -1.0323
  135SAPE  H12B14569   2.752   5.728  10.461 -2.4294  1.3705 -1.9471
  135SAPE   C1114570   2.559   5.659  10.428  0.3372 -0.4137  0.9643
  135SAPE  H11A14571   2.509   5.565  10.394  2.6037 -0.6411 -2.1513
  135SAPE  H11B14572   2.544   5.732  10.346 -0.5085 -1.1564  0.4288
  135SAPE     P14573   2.493   5.879  10.569 -0.0372 -0.0055 -0.2685
  135SAPE   O1314574   2.376   5.925  10.655  0.2910  0.6631 -0.1115
  135SAPE   O1414575   2.622   5.934  10.614  0.0947  0.3587  0.5035
  135SAPE   O1214576   2.511   5.715  10.553  0.2465  0.3812  0.3429
  135SAPE   O1114577   2.466   5.924  10.419  0.5743 -0.3748 -0.1078
  135SAPE    C114578   2.337   5.912  10.362 -0.1619 -0.0455  0.1968
  135SAPE    HA14579   2.299   5.808  10.365 -0.7121  0.0064 -2.5519
  135SAPE    HB14580   2.276   5.990  10.411  0.9956 -0.4819  2.4872
  135SAPE    C214581   2.335   5.954  10.207  0.2608  0.4735 -0.2377
  135SAPE    HS14582   2.229   5.953  10.173  0.9697  0.5610 -2.6413
  135SAPE   O2114583   2.418   5.866  10.128 -0.1366  0.3374  0.5345
  135SAPE   C2114584   2.368   5.746  10.110 -0.2297  0.4653  0.1753
  135SAPE   O2214585   2.262   5.706  10.153  0.4842  0.2428 -0.1007
  135SAPE   C2214586   2.463   5.660  10.029  0.6909  1.4883  0.4018
  135SAPE   H2R14587   2.533   5.624  10.107 -1.3870  0.0985  1.7207
  135SAPE   H2S14588   2.402   5.572   9.999  1.2796  0.2909  2.5546
  135SAPE    C314589   2.383   6.104  10.192 -0.3693  0.0239  0.3677
  135SAPE    HX14590   2.468   6.128  10.259  0.6308 -1.2401 -0.3940
  135SAPE    HY14591   2.290   6.146  10.235 -0.4842 -0.0805  0.2207
  135SAPE   O3114592   2.401   6.146  10.056  0.3130  0.3608  0.2146
  135SAPE   C3114593   2.523   6.142   9.999  0.7570 -0.7278 -0.0482
  135SAPE   O3214594   2.625   6.098  10.053  0.2939 -0.6640 -0.5669
  135SAPE   C3214595   2.518   6.222   9.872  0.3069  0.1786 -0.4496
  135SAPE   H2X14596   2.594   6.302   9.870  2.4117 -1.7260 -2.0904
  135SAPE   H2Y14597   2.419   6.269   9.855 -0.6155 -0.8808  1.6066
  135SAPE   C2314598   2.542   5.723   9.916 -0.3531 -0.2913  0.1648
  135SAPE   H3R14599   2.625   5.657   9.883 -0.2406 -1.1738  2.0788
  135SAPE   H3S14600   2.593   5.813   9.957  0.4467 -0.8321  0.3841
  135SAPE   C2414601   2.470   5.734   9.784  0.8119 -0.0990 -0.0668
  135SAPE   H4R14602   2.413   5.641   9.763 -2.5346  1.5522  1.0440
  135SAPE   H4S14603   2.539   5.751   9.699  0.3095 -0.1176 -0.4869
  135SAPE   C2514604   2.369   5.849   9.783  0.0421  0.4250  0.4872
  135SAPE   H5R14605   2.352   5.912   9.871  0.1640 -0.3570  1.0787
  135SAPE   C2614606   2.306   5.880   9.668  0.3450  0.1426 -0.5788
  135SAPE   H6R14607   2.240   5.967   9.674 -2.2024 -1.7503  1.1194
  135SAPE   C2714608   2.319   5.809   9.536  0.3750 -0.7561  0.5941
  135SAPE   H7R14609   2.381   5.717   9.544  0.0883 -1.1856 -1.4216
  135SAPE   H7S14610   2.378   5.872   9.466 -1.2001  1.9383  1.5583
  135SAPE   C2814611   2.190   5.762   9.479 -0.0439  0.9130  0.1066
  135SAPE   H8R14612   2.111   5.736   9.552  1.3255 -1.6453  0.7906
  135SAPE   C2914613   2.157   5.752   9.352 -0.0104 -0.1093  0.3798
  135SAPE   H9R14614   2.059   5.711   9.323 -0.4374  0.7382  0.5962
  135SAPE  C21014615   2.257   5.773   9.233  0.6960  0.1230 -0.4701
  135SAPE  H10R14616   2.236   5.689   9.163  1.9395  0.6979 -1.5742
  135SAPE  H10S14617   2.360   5.754   9.271  0.0095 -1.0573  0.9000
  135SAPE  C21114618   2.224   5.904   9.172  0.7381 -0.3520 -0.2111
  135SAPE  H11R14619   2.202   5.983   9.246 -2.5099  0.3189 -1.6937
  135SAPE  C21214620   2.232   5.936   9.043  0.1169  0.0240  0.6728
  135SAPE  H12R14621   2.213   6.039   9.010 -2.6901  0.0877  2.1666
  135SAPE  C21314622   2.259   5.833   8.929  0.0823  0.2654  0.4278
  135SAPE  H13R14623   2.318   5.750   8.975 -0.0666  0.4308  0.9212
  135SAPE  H13S14624   2.335   5.866   8.854 -1.4220  2.9669 -0.0093
  135SAPE  C21414625   2.134   5.763   8.866 -0.6656  0.6133  0.7504
  135SAPE  H14R14626   2.077   5.697   8.933 -1.7156  1.4666  0.7287
  135SAPE  C21514627   2.080   5.780   8.742  0.7023  0.1704 -0.2104
  135SAPE  H15R14628   1.984   5.732   8.718  1.0466 -0.3766 -0.5003
  135SAPE  C21614629   2.148   5.870   8.640  0.6085 -0.1540  0.6670
  135SAPE  H16R14630   2.221   5.937   8.689  3.6663 -2.5874 -0.2681
  135SAPE  H16S14631   2.068   5.938   8.602  0.1630  1.2757  3.8178
  135SAPE  C21714632   2.210   5.809   8.510 -0.1709  0.1830 -0.0412
  135SAPE  H17R14633   2.131   5.740   8.475 -0.3258 -1.4968  3.2055
  135SAPE  H17S14634   2.290   5.738   8.543 -1.5932 -0.4207  2.3892
  135SAPE  C21814635   2.256   5.919   8.419  0.5331 -0.0748  0.0832
  135SAPE  H18R14636   2.178   5.993   8.391  1.2666  0.0505 -1.8141
  135SAPE  H18S14637   2.292   5.880   8.321  0.4105 -0.9241  0.3744
  135SAPE  C21914638   2.375   6.001   8.466  0.2570  0.4130  0.2207
  135SAPE  H19R14639   2.456   5.925   8.477  1.8404  1.7960 -1.2037
  135SAPE  H19S14640   2.347   6.047   8.563  1.7098  1.0091  0.3908
  135SAPE  C22014641   2.446   6.118   8.384 -0.5076  0.5169  0.2648
  135SAPE  H20R14642   2.373   6.196   8.353 -0.5173  0.5064  0.2607
  135SAPE  H20S14643   2.478   6.079   8.285 -0.9727  0.3668  0.1689
  135SAPE  H20T14644   2.534   6.160   8.436  1.1946 -2.2556 -0.1851
  135SAPE   C3314645   2.564   6.149   9.740  0.2507  0.0858 -0.3950
  135SAPE   H3X14646   2.518   6.048   9.744  1.5060 -0.5164 -0.4348
  135SAPE   H3Y14647   2.674   6.132   9.736  0.6137  1.7677  1.2009
  135SAPE   C3414648   2.520   6.230   9.613 -0.4352 -1.2685 -0.3704
  135SAPE   H4X14649   2.571   6.329   9.612  1.0106 -1.9599 -2.5986
  135SAPE   H4Y14650   2.410   6.245   9.616 -0.2617  0.5571 -1.7298
  135SAPE   C3514651   2.545   6.166   9.476 -0.5969 -0.1742 -0.0217
  135SAPE   H5X14652   2.501   6.064   9.467  0.2895 -0.7101  1.4487
  135SAPE   H5Y14653   2.653   6.149   9.458 -0.9220 -0.0178 -2.3936
  135SAPE   C3614654   2.505   6.264   9.362  0.3622 -0.1508 -0.1838
  135SAPE   H6X14655   2.554   6.363   9.367  0.9591 -0.4412 -0.2073
  135SAPE   H6Y14656   2.395   6.282   9.368  0.7017  2.0608  0.4129
  135SAPE   C3714657   2.541   6.197   9.230  0.0760  0.1103 -0.2846
  135SAPE   H7X14658   2.494   6.097   9.228 -1.1940  0.6911 -1.5205
  135SAPE   H7Y14659   2.651   6.188   9.217 -0.0903 -1.2775 -0.8475
  135SAPE   C3814660   2.482   6.272   9.103  0.2350  0.4499  0.2937
  135SAPE   H8X14661   2.544   6.362   9.082  3.3204 -2.0649 -2.4526
  135SAPE   H8Y14662   2.371   6.280   9.104  0.2121  0.1037  0.5422
  135SAPE   C3914663   2.507   6.182   8.977  0.3687 -0.8770 -0.0870
  135SAPE   H9X14664   2.449   6.087   8.983 -0.4592 -0.3524  0.2258
  135SAPE   H9Y14665   2.613   6.150   8.974  0.0125 -2.3988  1.6734
  135SAPE  C31014666   2.453   6.253   8.838 -0.3848 -0.0039  0.1350
  135SAPE  H10X14667   2.485   6.179   8.762  1.3798  0.3867  0.4432
  135SAPE  H10Y14668   2.508   6.348   8.822  1.0811 -0.7715  0.4551
  135SAPE  C31114669   2.302   6.278   8.836 -0.0298  0.1692  0.0048
  135SAPE  H11X14670   2.253   6.356   8.898 -2.1756 -0.9567 -0.2046
  135SAPE  H11Y14671   2.255   6.184   8.869 -0.1577 -0.3910 -1.6634
  135SAPE  C31214672   2.249   6.313   8.694 -0.2951  0.0281  0.5719
  135SAPE  H12X14673   2.269   6.227   8.626  1.8763  0.9707 -0.0639
  135SAPE  H12Y14674   2.304   6.395   8.644 -2.3249  1.4586  0.5539
  135SAPE  C31314675   2.100   6.344   8.682 -0.4091  0.3124 -0.2110
  135SAPE  H13X14676   2.096   6.446   8.638 -1.0644  1.0048  1.3696
  135SAPE  H13Y14677   2.070   6.341   8.789 -0.7786  1.1332 -0.2836
  135SAPE  C31414678   2.029   6.245   8.596  0.2955  0.3337  1.0729
  135SAPE  H14X14679   2.021   6.145   8.645 -0.9976 -1.3438 -2.2868
  135SAPE  H14Y14680   2.080   6.226   8.499  0.3860  0.1883  1.1492
  135SAPE  C31514681   1.890   6.289   8.569 -0.6602 -0.3101 -0.2860
  135SAPE  H15X14682   1.900   6.398   8.552  0.0151 -0.1750  0.8384
  135SAPE  H15Y14683   1.841   6.278   8.668  1.5927  1.7760  1.1940
  135SAPE  C31614684   1.825   6.213   8.459 -0.1918  0.7595  0.3024
  135SAPE  H16X14685   1.878   6.212   8.362 -1.3059  3.9552 -0.4602
  135SAPE  H16Y14686   1.727   6.258   8.434 -0.3400 -0.3453 -1.2626
  135SAPE  C31714687   1.789   6.071   8.506 -0.0093 -0.2032 -0.0973
  135SAPE  H17X14688   1.723   6.085   8.594 -1.4563  3.0459 -1.5114
  135SAPE  H17Y14689   1.880   6.011   8.525 -1.2131 -1.5231  1.9743
  135SAPE  C31814690   1.715   5.989   8.406 -0.3388  0.4159 -0.9907
  135SAPE  H18X14691   1.775   5.954   8.320 -2.0930 -3.2426 -0.8998
  135SAPE  H18Y14692   1.629   6.049   8.368  0.4341  2.6799  0.6071
  135SAPE  H18Z14693   1.682   5.895   8.454  1.0389  0.4305  0.0334
  136SAPE     N14694   0.265   4.619  11.059 -0.1908 -0.1170  0.1550
  136SAPE   HN114695   0.188   4.586  10.997 -0.5928 -3.2955  2.1139
  136SAPE   HN214696   0.344   4.630  10.992 -0.1892  1.1999  0.3429
  136SAPE   HN314697   0.287   4.538  11.121 -2.3494  0.6863  2.1134
  136SAPE   C1214698   0.230   4.735  11.150  0.2051 -0.2492 -0.3948
  136SAPE  H12A14699   0.151   4.711  11.225 -1.6794  3.2111 -1.0740
  136SAPE  H12B14700   0.197   4.821  11.089 -0.5413  0.4867  0.9828
  136SAPE   C1114701   0.358   4.789  11.223 -0.1721  0.9294  0.0611
  136SAPE  H11A14702   0.406   4.717  11.292  2.5374  0.6117 -1.9929
  136SAPE  H11B14703   0.326   4.878  11.282  0.4647  2.0690 -1.2496
  136SAPE     P14704   0.483   4.966  11.070  0.0009 -0.0836 -0.0504
  136SAPE   O1314705   0.351   5.029  11.040 -0.3555  0.7932 -0.0041
  136SAPE   O1414706   0.580   5.031  11.164 -0.4529  0.2295 -0.3065
  136SAPE   O1214707   0.453   4.817  11.123  0.2037 -0.0550 -0.1382
  136SAPE   O1114708   0.571   4.941  10.937 -0.0766  0.3999  0.7068
  136SAPE    C114709   0.559   5.042  10.829 -0.1392  0.3210 -0.3596
  136SAPE    HA14710   0.453   5.073  10.817  0.0179  0.3234 -1.9493
  136SAPE    HB14711   0.612   5.134  10.863  1.3854  0.0719 -1.9034
  136SAPE    C214712   0.616   5.006  10.692  0.0001 -0.6424  0.0607
  136SAPE    HS14713   0.604   5.087  10.617  1.5397  0.5328  1.0452
  136SAPE   O2114714   0.562   4.879  10.654  0.0946  0.3034 -0.5516
  136SAPE   C2114715   0.442   4.886  10.614  0.5149  0.6908 -0.0748
  136SAPE   O2214716   0.370   4.981  10.598 -0.1142  0.2494 -0.5077
  136SAPE   C2214717   0.385   4.742  10.590 -0.6821  0.6342  0.1624
  136SAPE   H2R14718   0.441   4.669  10.653 -1.7153 -0.0320  0.3306
  136SAPE   H2S14719   0.279   4.750  10.622 -0.9974  2.4403 -1.1570
  136SAPE    C314720   0.772   4.987  10.683  0.6581 -0.5430 -0.3428
  136SAPE    HX14721   0.799   4.915  10.764 -0.9443  0.1112  0.8275
  136SAPE    HY14722   0.821   5.084  10.703 -3.4226  2.0284 -1.6426
  136SAPE   O3114723   0.807   4.940  10.552  0.1368 -0.3561  0.0073
  136SAPE   C3114724   0.925   4.884  10.542  0.0392  0.4537 -0.5845
  136SAPE   O3214725   1.012   4.892  10.630  0.7731  0.6469  0.0560
  136SAPE   C3214726   0.930   4.796  10.421  0.3820 -0.1970 -0.2673
  136SAPE   H2X14727   0.856   4.716  10.442  0.5432 -0.0080  1.1404
  136SAPE   H2Y14728   1.026   4.743  10.405  0.8935  1.0259 -1.4992
  136SAPE   C2314729   0.386   4.703  10.444  0.6354 -0.5709  0.4270
  136SAPE   H3R14730   0.327   4.780  10.390  0.2121 -1.6460 -0.6862
  136SAPE   H3S14731   0.333   4.606  10.433  1.0413 -0.7920  0.4045
  136SAPE   C2414732   0.531   4.685  10.387 -0.1249 -0.0418 -0.1673
  136SAPE   H4R14733   0.570   4.788  10.403 -2.0260  0.6485  0.3824
  136SAPE   H4S14734   0.530   4.668  10.277  1.1838 -1.6565  0.0432
  136SAPE   C2514735   0.624   4.590  10.470  0.4485  0.3456 -0.9290
  136SAPE   H5R14736   0.651   4.624  10.572 -1.8882  1.9211 -0.7510
  136SAPE   C2614737   0.668   4.467  10.427  0.5480  0.5214 -0.3624
  136SAPE   H6R14738   0.740   4.402  10.479 -1.4311 -0.5274  1.2614
  136SAPE   C2714739   0.628   4.408  10.297 -0.9819 -0.0200  0.1801
  136SAPE   H7R14740   0.541   4.467  10.259 -1.0162  1.6692  2.6312
  136SAPE   H7S14741   0.595   4.304  10.315  0.9017 -0.4307  1.5558
  136SAPE   C2814742   0.742   4.402  10.196 -0.0640 -0.5735 -0.2491
  136SAPE   H8R14743   0.840   4.413  10.245 -2.0583 -0.1142  4.2061
  136SAPE   C2914744   0.740   4.362  10.068  0.0473  0.6683  0.0755
  136SAPE   H9R14745   0.831   4.370  10.007 -0.7950  1.3350 -1.1535
  136SAPE  C21014746   0.617   4.333   9.986 -0.0857  0.3126  0.0875
  136SAPE  H10R14747   0.588   4.420   9.922  1.3867  0.3050 -0.6241
  136SAPE  H10S14748   0.530   4.328  10.056  1.5357  0.0377  2.1791
  136SAPE  C21114749   0.647   4.207   9.912 -0.1697  0.2133  0.8135
  136SAPE  H11R14750   0.650   4.118   9.977 -1.9658  0.3085  1.0769
  136SAPE  C21214751   0.666   4.194   9.780  0.5368 -0.5358  0.5161
  136SAPE  H12R14752   0.687   4.096   9.735  2.5192  0.7021 -1.4925
  136SAPE  C21314753   0.669   4.303   9.677 -0.2500  0.4889 -0.1571
  136SAPE  H13R14754   0.758   4.287   9.613 -0.5018 -1.1233 -0.1419
  136SAPE  H13S14755   0.671   4.404   9.723 -0.1516  0.6965 -0.6144
  136SAPE  C21414756   0.537   4.315   9.604 -0.4078  0.5679 -0.0771
  136SAPE  H14R14757   0.443   4.333   9.658 -1.3757 -2.8132 -0.3789
  136SAPE  C21514758   0.508   4.288   9.475  0.2218 -0.0657  0.0089
  136SAPE  H15R14759   0.404   4.284   9.441  0.1545 -2.1128  0.3290
  136SAPE  C21614760   0.616   4.240   9.376  0.4652 -0.3580  0.6213
  136SAPE  H16R14761   0.615   4.130   9.362  1.5226 -0.1581 -1.3487
  136SAPE  H16S14762   0.716   4.264   9.419  0.0422  1.2171  0.7843
  136SAPE  C21714763   0.610   4.312   9.232 -0.2975 -0.1397 -0.3510
  136SAPE  H17R14764   0.710   4.286   9.193  0.8608  1.2562  1.5241
  136SAPE  H17S14765   0.600   4.422   9.219  0.4025 -0.1584 -1.1485
  136SAPE  C21814766   0.502   4.242   9.135  0.8005 -0.0844  0.2603
  136SAPE  H18R14767   0.419   4.215   9.203  0.3017 -1.3466 -0.8058
  136SAPE  H18S14768   0.546   4.145   9.101  1.3412  0.6026 -1.0957
  136SAPE  C21914769   0.452   4.324   9.018  0.0958 -0.7306 -0.5297
  136SAPE  H19R14770   0.533   4.374   8.961  0.4772 -0.3708  0.3137
  136SAPE  H19S14771   0.392   4.407   9.060  1.0648 -0.5836  0.5824
  136SAPE  C22014772   0.360   4.249   8.918 -0.1600  0.3003 -0.0172
  136SAPE  H20R14773   0.425   4.187   8.853  1.0449  2.8211 -1.3535
  136SAPE  H20S14774   0.308   4.330   8.863  1.3728  1.1516 -0.2766
  136SAPE  H20T14775   0.277   4.191   8.964 -0.2468 -2.4436 -3.2503
  136SAPE   C3314776   0.880   4.867  10.291 -0.4085  0.1499  0.2985
  136SAPE   H3X14777   0.968   4.922  10.251 -1.4315 -0.7852 -3.6689
  136SAPE   H3Y14778   0.797   4.938  10.316 -2.7962 -1.3012 -2.8123
  136SAPE   C3414779   0.843   4.778  10.169  0.3305 -0.1760  0.3216
  136SAPE   H4X14780   0.748   4.732  10.201 -0.7698  1.3265 -0.6776
  136SAPE   H4Y14781   0.925   4.703  10.166  1.4098  0.8984  1.4602
  136SAPE   C3514782   0.811   4.841  10.029  1.0640  0.2849 -0.4454
  136SAPE   H5X14783   0.908   4.883   9.994  2.0819 -0.3560  1.4390
  136SAPE   H5Y14784   0.752   4.933  10.050  0.8710 -0.0601  0.5970
  136SAPE   C3614785   0.749   4.749   9.922  0.3655  0.3603  0.5649
  136SAPE   H6X14786   0.655   4.696   9.951 -0.5686  1.3335 -0.5784
  136SAPE   H6Y14787   0.828   4.671   9.912 -2.0978 -2.6959  2.5813
  136SAPE   C3714788   0.729   4.827   9.786  0.3698  0.7570  0.2376
  136SAPE   H7X14789   0.817   4.896   9.779  1.7336 -1.0023 -0.8805
  136SAPE   H7Y14790   0.637   4.888   9.800 -0.0882 -0.4425  3.0099
  136SAPE   C3814791   0.734   4.728   9.674  0.0808 -0.5389  0.3269
  136SAPE   H8X14792   0.663   4.644   9.690  0.2881 -0.9280 -0.6695
  136SAPE   H8Y14793   0.834   4.681   9.659  0.8068  1.8379 -3.8354
  136SAPE   C3914794   0.702   4.786   9.537  0.3541 -0.4974  0.1596
  136SAPE   H9X14795   0.747   4.886   9.523  1.2624 -1.0107 -0.7925
  136SAPE   H9Y14796   0.594   4.812   9.538  0.7246  1.1421  0.1202
  136SAPE  C31014797   0.736   4.695   9.421 -0.6449  0.0616  0.5801
  136SAPE  H10X14798   0.685   4.597   9.427 -0.0874 -0.2105  0.9608
  136SAPE  H10Y14799   0.846   4.679   9.428 -0.5366  0.2643 -0.5212
  136SAPE  C31114800   0.693   4.761   9.284 -0.0075 -0.0830  0.1291
  136SAPE  H11X14801   0.734   4.864   9.293 -0.8380  0.2744 -0.1191
  136SAPE  H11Y14802   0.583   4.769   9.280 -0.1791 -2.3463 -2.8860
  136SAPE  C31214803   0.726   4.694   9.149  0.4125  0.0480  0.7424
  136SAPE  H12X14804   0.663   4.606   9.124  1.8279 -0.2939 -1.9417
  136SAPE  H12Y14805   0.830   4.656   9.144  0.2316 -0.3778  0.0100
  136SAPE  C31314806   0.696   4.785   9.031 -0.4213  0.1982 -0.6432
  136SAPE  H13X14807   0.752   4.881   9.039 -0.9408  0.3884  1.0763
  136SAPE  H13Y14808   0.591   4.821   9.030 -0.0733  1.2567 -1.3492
  136SAPE  C31414809   0.742   4.716   8.909  0.4548  0.0821  0.6223
  136SAPE  H14X14810   0.737   4.608   8.933  0.0214  0.3205  1.6879
  136SAPE  H14Y14811   0.848   4.734   8.883  0.7148 -2.2495 -0.1535
  136SAPE  C31514812   0.642   4.735   8.792 -0.2025 -0.1847 -0.7796
  136SAPE  H15X14813   0.673   4.827   8.738  1.6587 -0.6944 -0.6734
  136SAPE  H15Y14814   0.538   4.760   8.821 -0.3698 -0.1057 -1.4226
  136SAPE  C31614815   0.622   4.614   8.690  1.1028 -0.0465 -0.3761
  136SAPE  H16X14816   0.533   4.642   8.629  0.0080  1.1872  1.6689
  136SAPE  H16Y14817   0.582   4.524   8.742  1.8556 -0.4860 -0.5485
  136SAPE  C31714818   0.743   4.585   8.598  0.2636 -0.9859 -0.0561
  136SAPE  H17X14819   0.726   4.500   8.529  1.5971  0.0449 -1.7356
  136SAPE  H17Y14820   0.839   4.569   8.650  0.2760  2.2903  1.1509
  136SAPE  C31814821   0.773   4.699   8.497  0.3864  0.2079 -0.6789
  136SAPE  H18X14822   0.682   4.737   8.448 -0.3229 -0.0907  0.3695
  136SAPE  H18Y14823   0.845   4.657   8.423 -0.1416 -0.0763 -1.0335
  136SAPE  H18Z14824   0.829   4.780   8.550 -1.1382  0.1443  1.1193
  137SAPE     N14825   5.190   4.090  11.087  0.4126  0.4264 -0.3691
  137SAPE   HN114826   5.200   4.040  10.996 -0.8728  1.0935 -0.8891
  137SAPE   HN214827   5.268   4.159  11.084  1.3323 -0.6132 -1.3249
  137SAPE   HN314828   5.207   4.017  11.160 -0.0340 -1.0626 -1.6890
  137SAPE   C1214829   5.055   4.153  11.097  0.2552 -0.7976 -0.7945
  137SAPE  H12A14830   5.069   4.257  11.133  0.5855 -0.7453 -1.0632
  137SAPE  H12B14831   4.995   4.111  11.180  1.3240 -2.0294 -0.6179
  137SAPE   C1114832   4.979   4.142  10.964  0.1217 -0.2344  0.2604
  137SAPE  H11A14833   5.033   4.209  10.894 -2.4972  2.8686  0.9402
  137SAPE  H11B14834   4.877   4.185  10.971 -0.2337 -0.2979 -2.8367
  137SAPE     P14835   4.915   3.992  10.769 -0.2744  0.1046  0.0479
  137SAPE   O1314836   4.918   3.850  10.744 -0.1857  0.5290  0.7905
  137SAPE   O1414837   4.782   4.056  10.753 -0.5320  0.3508 -1.1392
  137SAPE   O1214838   4.971   4.005  10.910 -0.8116 -0.4031 -0.4177
  137SAPE   O1114839   5.021   4.063  10.678  0.0451 -0.1700  0.7224
  137SAPE    C114840   5.151   4.012  10.674  0.8214  0.0542 -0.5152
  137SAPE    HA14841   5.207   4.039  10.766 -0.1418 -1.5155  0.5650
  137SAPE    HB14842   5.143   3.901  10.664 -1.1471 -0.0515  1.5426
  137SAPE    C214843   5.245   4.055  10.550 -0.3263 -0.0247  0.1208
  137SAPE    HS14844   5.346   4.022  10.582 -0.7820 -0.5365  1.0469
  137SAPE   O2114845   5.256   4.199  10.524 -0.7059  0.2657  0.1143
  137SAPE   C2114846   5.311   4.269  10.623 -0.2871  0.7083  0.0664
  137SAPE   O2214847   5.352   4.218  10.727 -0.0148 -0.0542  0.2718
  137SAPE   C2214848   5.328   4.424  10.590 -0.5203 -0.2758 -1.1194
  137SAPE   H2R14849   5.304   4.445  10.484 -0.0411  0.2785 -1.1232
  137SAPE   H2S14850   5.254   4.477  10.655  1.5439 -0.4550  1.5560
  137SAPE    C314851   5.209   3.986  10.415  0.7215 -0.1756 -0.2629
  137SAPE    HX14852   5.237   3.880  10.429 -0.9415 -0.4123  1.7951
  137SAPE    HY14853   5.271   4.030  10.334  0.3875  0.9641  0.0821
  137SAPE   O3114854   5.067   4.004  10.382 -0.3686 -0.5030 -0.2418
  137SAPE   C3114855   4.975   3.914  10.369  0.2290 -0.2941  0.0920
  137SAPE   O3214856   4.991   3.788  10.369  0.7102 -0.7926  0.6484
  137SAPE   C3214857   4.842   3.981  10.345 -0.5116  0.2445 -0.2465
  137SAPE   H2X14858   4.849   4.090  10.330 -0.9444  0.4768  1.1213
  137SAPE   H2Y14859   4.793   3.964  10.444 -0.4627 -0.9724 -0.4091
  137SAPE   C2314860   5.473   4.476  10.620 -0.6462  1.3726  0.1448
  137SAPE   H3R14861   5.508   4.436  10.718  1.0231  2.1130 -0.1173
  137SAPE   H3S14862   5.482   4.584  10.641  0.3677  0.8456  2.8963
  137SAPE   C2414863   5.582   4.429  10.518  0.0899  0.1986  0.1316
  137SAPE   H4R14864   5.675   4.473  10.559 -1.0673  0.8796  2.1887
  137SAPE   H4S14865   5.566   4.477  10.420 -3.3996  0.2252  0.5640
  137SAPE   C2514866   5.610   4.277  10.514 -0.7596  0.2234 -0.5484
  137SAPE   H5R14867   5.593   4.240  10.616 -1.5486  0.2097 -0.6810
  137SAPE   C2614868   5.650   4.191  10.412  0.3002  0.2162  0.1411
  137SAPE   H6R14869   5.668   4.087  10.444 -0.6597  0.2392  0.8082
  137SAPE   C2714870   5.674   4.221  10.269  0.9116 -0.8517 -0.1527
  137SAPE   H7R14871   5.771   4.185  10.229  1.0357 -1.3631  0.5690
  137SAPE   H7S14872   5.679   4.331  10.264  1.7329 -0.9246 -1.1841
  137SAPE   C2814873   5.567   4.179  10.179  0.6138 -0.3772 -0.5305
  137SAPE   H8R14874   5.491   4.256  10.161  0.2393 -0.2158  1.5340
  137SAPE   C2914875   5.545   4.064  10.121  0.2410  0.4193  0.1176
  137SAPE   H9R14876   5.447   4.044  10.075  0.7427  1.1131 -1.3084
  137SAPE  C21014877   5.647   3.953  10.140  0.5083  0.3128 -0.1430
  137SAPE  H10R14878   5.625   3.914  10.242  1.3309 -0.7811 -0.3729
  137SAPE  H10S14879   5.752   3.990  10.143  0.5833  0.1028 -0.1985
  137SAPE  C21114880   5.660   3.833  10.050 -0.1922 -0.0767  0.3415
  137SAPE  H11R14881   5.668   3.740  10.107 -1.6064 -0.0174  0.6618
  137SAPE  C21214882   5.664   3.825   9.918 -0.4121 -0.2400 -0.3473
  137SAPE  H12R14883   5.676   3.726   9.874 -2.8522 -0.6250 -0.2709
  137SAPE  C21314884   5.646   3.935   9.819 -0.1821  0.3018 -0.4999
  137SAPE  H13R14885   5.604   4.024   9.870  0.6541  1.4526 -1.7230
  137SAPE  H13S14886   5.578   3.901   9.738 -0.3764 -1.5565  0.4054
  137SAPE  C21414887   5.777   3.975   9.758 -0.6026 -0.1357  0.9347
  137SAPE  H14R14888   5.839   4.049   9.810 -0.1308  0.4057 -0.3611
  137SAPE  C21514889   5.835   3.907   9.659 -0.3036 -0.1726  0.5180
  137SAPE  H15R14890   5.931   3.934   9.614 -1.5273 -2.5931 -4.2218
  137SAPE  C21614891   5.790   3.780   9.594  0.0259  1.2589  0.5732
  137SAPE  H16R14892   5.697   3.736   9.635  1.2938  0.4847  2.8206
  137SAPE  H16S14893   5.869   3.710   9.628 -1.5987 -1.0245 -0.1487
  137SAPE  C21714894   5.806   3.773   9.437 -0.1917  0.5774 -0.6781
  137SAPE  H17R14895   5.815   3.667   9.403 -0.7310  0.9621 -2.0819
  137SAPE  H17S14896   5.904   3.817   9.409 -0.5594  0.3101 -2.4718
  137SAPE  C21814897   5.692   3.836   9.358  0.0678  0.1790  0.6358
  137SAPE  H18R14898   5.697   3.942   9.393 -0.8149  0.7987 -0.9687
  137SAPE  H18S14899   5.588   3.804   9.381 -0.3748 -0.2242 -1.6649
  137SAPE  C21914900   5.705   3.840   9.205 -0.5317 -0.6276  0.1986
  137SAPE  H19R14901   5.811   3.856   9.176 -0.7720  0.6194 -0.0332
  137SAPE  H19S14902   5.653   3.926   9.158 -0.7466  0.4023  2.2422
  137SAPE  C22014903   5.661   3.707   9.132 -0.0778 -0.6725  0.6765
  137SAPE  H20R14904   5.559   3.666   9.149  0.2016 -1.6822 -0.0128
  137SAPE  H20S14905   5.737   3.631   9.158  3.3039  2.1446 -0.1715
  137SAPE  H20T14906   5.673   3.727   9.024  1.3695  0.5890  1.0321
  137SAPE   C3314907   4.757   3.906  10.249  0.1893  0.7428  0.4173
  137SAPE   H3X14908   4.655   3.949  10.254  1.2746  3.7744 -0.9120
  137SAPE   H3Y14909   4.756   3.796  10.262 -0.4778  0.8072  0.9280
  137SAPE   C3414910   4.808   3.927  10.096  0.0318 -0.4224  0.1606
  137SAPE   H4X14911   4.891   3.858  10.070 -1.4571 -1.6271 -1.6703
  137SAPE   H4Y14912   4.829   4.036  10.098 -0.0171 -0.3887 -0.7926
  137SAPE   C3514913   4.689   3.903  10.002  0.3824  0.5702  0.9454
  137SAPE   H5X14914   4.602   3.957  10.044  0.5854  1.0938  0.7142
  137SAPE   H5Y14915   4.670   3.794   9.998 -0.1153  0.6685  0.5241
  137SAPE   C3614916   4.724   3.962   9.863 -0.4813 -0.8817 -0.1193
  137SAPE   H6X14917   4.797   4.045   9.866  0.1406 -1.3464 -1.5103
  137SAPE   H6Y14918   4.631   3.998   9.815  0.0970  1.7070  0.5418
  137SAPE   C3714919   4.782   3.845   9.782 -0.1968 -0.4925 -1.1908
  137SAPE   H7X14920   4.706   3.765   9.789 -0.6284 -0.1418 -1.7964
  137SAPE   H7Y14921   4.878   3.814   9.830 -0.2721 -1.5550 -1.6880
  137SAPE   C3814922   4.821   3.893   9.645 -0.9669 -0.0313 -0.0627
  137SAPE   H8X14923   4.855   3.998   9.634 -1.8794  0.0157 -4.4808
  137SAPE   H8Y14924   4.733   3.894   9.577 -1.9569 -1.1570  1.1441
  137SAPE   C3914925   4.923   3.800   9.576  0.0119 -0.2889 -0.5601
  137SAPE   H9X14926   4.875   3.710   9.532  3.2328 -2.2199 -0.3991
  137SAPE   H9Y14927   5.002   3.768   9.647 -1.1025 -3.0136 -0.4619
  137SAPE  C31014928   4.985   3.868   9.450 -0.8085 -0.0824  0.0640
  137SAPE  H10X14929   5.014   3.972   9.475 -0.7519 -0.1463  0.2667
  137SAPE  H10Y14930   4.903   3.871   9.374 -2.4536  1.6095  1.7897
  137SAPE  C31114931   5.098   3.798   9.373 -0.4472  0.0951  0.3536
  137SAPE  H11X14932   5.060   3.706   9.325 -0.7484  0.7850 -0.7600
  137SAPE  H11Y14933   5.175   3.771   9.448 -0.3451  0.5283  0.4101
  137SAPE  C31214934   5.150   3.890   9.263 -0.4885 -0.5789  0.0892
  137SAPE  H12X14935   5.156   3.993   9.305  2.8341 -0.5046 -0.2634
  137SAPE  H12Y14936   5.073   3.890   9.184  1.3754 -0.1269 -1.8196
  137SAPE  C31314937   5.282   3.851   9.192 -0.3653  0.3329  0.2386
  137SAPE  H13X14938   5.266   3.747   9.157 -0.2303  0.4102 -0.0597
  137SAPE  H13Y14939   5.363   3.835   9.267 -2.0624  0.3056  2.1392
  137SAPE  C31414940   5.339   3.930   9.069 -0.5490  0.6027  0.1999
  137SAPE  H14X14941   5.418   3.865   9.025 -0.6904  0.2943  0.4010
  137SAPE  H14Y14942   5.398   4.015   9.111  1.2425 -0.7096  0.4427
  137SAPE  C31514943   5.231   3.970   8.963  0.1233  0.0506 -0.6879
  137SAPE  H15X14944   5.169   4.037   9.027  3.3230  2.3357  0.2832
  137SAPE  H15Y14945   5.176   3.879   8.931  1.0898 -1.0238  0.5893
  137SAPE  C31614946   5.280   4.055   8.848 -0.2573 -0.1624  0.7919
  137SAPE  H16X14947   5.338   4.148   8.867 -0.7967  0.9930 -2.5988
  137SAPE  H16Y14948   5.192   4.101   8.797  1.0326 -0.0347 -1.4369
  137SAPE  C31714949   5.350   3.970   8.741 -0.3436  0.0712  0.5382
  137SAPE  H17X14950   5.296   3.873   8.744 -0.6963  0.2698  0.6224
  137SAPE  H17Y14951   5.458   3.963   8.768 -0.6295  0.0377  1.7366
  137SAPE  C31814952   5.330   4.048   8.614  0.1258  0.0267  0.0486
  137SAPE  H18X14953   5.234   4.022   8.565 -0.1141 -0.4016  0.7319
  137SAPE  H18Y14954   5.409   4.016   8.542 -2.3892  0.0636 -2.9570
  137SAPE  H18Z14955   5.336   4.158   8.631  1.0291  0.0783 -0.5375
  138SAPE     N14956   2.737   2.307  10.656 -0.8191  0.1472 -0.4471
  138SAPE   HN114957   2.792   2.244  10.719 -0.0338 -1.4798 -2.6113
  138SAPE   HN214958   2.750   2.283  10.555  0.5525  1.1437 -0.5421
  138SAPE   HN314959   2.780   2.401  10.662  1.0090 -0.6192 -0.6809
  138SAPE   C1214960   2.588   2.310  10.690 -0.6626 -0.7462 -0.6038
  138SAPE  H12A14961   2.587   2.362  10.787  2.9585  1.4834 -1.5672
  138SAPE  H12B14962   2.544   2.208  10.692 -1.2035 -0.5169 -0.6454
  138SAPE   C1114963   2.513   2.399  10.588 -0.1660  0.1739  0.3501
  138SAPE  H11A14964   2.404   2.379  10.597 -0.2492 -0.2243 -1.2149
  138SAPE  H11B14965   2.544   2.356  10.490 -0.6719 -1.7894  1.0104
  138SAPE     P14966   2.478   2.622  10.703 -0.1983 -0.0353  0.4819
  138SAPE   O1314967   2.527   2.573  10.837  0.4245 -0.1637 -0.1808
  138SAPE   O1414968   2.503   2.764  10.672 -0.1654 -0.5997  0.0482
  138SAPE   O1214969   2.545   2.534  10.591  0.0852  0.0598  0.1533
  138SAPE   O1114970   2.322   2.600  10.695  0.1603  0.2290 -0.4107
  138SAPE    C114971   2.245   2.681  10.610  0.2061  0.5641  0.5418
  138SAPE    HA14972   2.144   2.690  10.655 -0.1846  0.5554 -0.3262
  138SAPE    HB14973   2.284   2.783  10.589 -0.0593  0.6632  0.5335
  138SAPE    C214974   2.224   2.599  10.476  0.0929 -0.7460 -0.1817
  138SAPE    HS14975   2.220   2.489  10.494  0.0886 -1.2376 -2.7831
  138SAPE   O2114976   2.337   2.633  10.393  0.3514  0.0275 -0.3297
  138SAPE   C2114977   2.375   2.536  10.303  1.1171 -0.4241 -0.6742
  138SAPE   O2214978   2.323   2.426  10.303  0.6226  0.7851  0.1884
  138SAPE   C2214979   2.479   2.590  10.202 -0.1028  0.5017 -0.2926
  138SAPE   H2R14980   2.444   2.688  10.162 -2.3013  0.4164  1.2169
  138SAPE   H2S14981   2.569   2.612  10.263  0.8152  0.5142 -1.6082
  138SAPE    C314982   2.092   2.646  10.403 -0.1453  0.2590  0.5485
  138SAPE    HX14983   2.084   2.757  10.409  1.9437  0.5850 -1.1191
  138SAPE    HY14984   2.008   2.606  10.462 -1.8189 -0.0230 -1.8926
  138SAPE   O3114985   2.083   2.603  10.264  0.1709 -0.8088  0.1478
  138SAPE   C3114986   1.965   2.574  10.217 -0.0701  0.5492  0.4422
  138SAPE   O3214987   1.858   2.588  10.276 -0.2679 -0.5119 -0.2738
  138SAPE   C3214988   1.974   2.527  10.067 -0.0076 -0.5330  0.7096
  138SAPE   H2X14989   1.874   2.552  10.026  0.2186 -0.0808  0.4263
  138SAPE   H2Y14990   1.974   2.416  10.070  0.1096 -0.5313  0.7985
  138SAPE   C2314991   2.511   2.478  10.099 -0.1693  0.3317  0.2019
  138SAPE   H3R14992   2.414   2.437  10.063 -0.1035  1.2749 -1.1182
  138SAPE   H3S14993   2.571   2.398  10.148  0.0944  0.1725 -0.3781
  138SAPE   C2414994   2.593   2.537   9.987  0.6588 -0.1765  0.3259
  138SAPE   H4R14995   2.692   2.572  10.025  1.0667 -0.9444 -0.0114
  138SAPE   H4S14996   2.542   2.626   9.944 -1.3818 -1.8096 -0.8333
  138SAPE   C2514997   2.610   2.422   9.886  0.1481 -0.4679  0.3267
  138SAPE   H5R14998   2.585   2.323   9.926 -0.8737 -0.6079 -0.6139
  138SAPE   C2614999   2.652   2.427   9.752 -0.1623 -0.2138 -0.4110
  138SAPE   H6R15000   2.653   2.331   9.699  1.3425 -1.0528  1.0486
  138SAPE   C2715001   2.684   2.560   9.679 -0.6939  0.0956 -0.7208
  138SAPE   H7R15002   2.738   2.620   9.756 -0.2233 -2.5287  1.1442
  138SAPE   H7S15003   2.596   2.621   9.648 -2.1516 -1.6305 -0.1497
  138SAPE   C2815004   2.774   2.530   9.559 -0.0986 -0.0768  0.2209
  138SAPE   H8R15005   2.882   2.512   9.575  0.0383 -1.2217 -1.7604
  138SAPE   C2915006   2.733   2.539   9.431 -0.2450 -0.5034 -0.0336
  138SAPE   H9R15007   2.811   2.533   9.354  0.2471 -0.3680  0.4456
  138SAPE  C21015008   2.593   2.573   9.378  0.2327  1.1206 -0.1264
  138SAPE  H10R15009   2.519   2.520   9.442  1.5147 -1.3276 -0.5614
  138SAPE  H10S15010   2.585   2.536   9.274  1.4570  1.3426 -0.3059
  138SAPE  C21115011   2.551   2.716   9.378  0.2299 -0.0766  0.3345
  138SAPE  H11R15012   2.506   2.755   9.471 -0.6122  0.7481 -0.3948
  138SAPE  C21215013   2.549   2.801   9.276 -0.0767 -0.1599  0.7822
  138SAPE  H12R15014   2.525   2.908   9.282 -1.3992 -0.2593 -1.4531
  138SAPE  C21315015   2.586   2.772   9.133  0.0978 -0.6596 -0.0614
  138SAPE  H13R15016   2.577   2.661   9.126  0.2116 -0.7767  1.4668
  138SAPE  H13S15017   2.689   2.801   9.103 -0.0781 -0.7338 -0.7670
  138SAPE  C21415018   2.506   2.853   9.036 -0.3326  0.6514 -0.4259
  138SAPE  H14R15019   2.484   2.955   9.070 -1.3641 -0.4093  2.3564
  138SAPE  C21515020   2.459   2.818   8.911 -0.6374 -0.2953 -0.2565
  138SAPE  H15R15021   2.412   2.893   8.846 -2.4113  0.2139  1.5174
  138SAPE  C21615022   2.479   2.683   8.839  0.4020 -0.6860  0.6896
  138SAPE  H16R15023   2.576   2.643   8.876  1.9741  1.3236 -0.9953
  138SAPE  H16S15024   2.492   2.703   8.730  2.6044 -3.2075  0.3753
  138SAPE  C21715025   2.369   2.574   8.868 -0.2828  0.1619 -0.5476
  138SAPE  H17R15026   2.279   2.582   8.803  0.5742 -0.4439 -1.8421
  138SAPE  H17S15027   2.339   2.596   8.973  0.2556  0.6280 -0.4884
  138SAPE  C21815028   2.429   2.428   8.871 -0.0238  0.4428  0.6738
  138SAPE  H18R15029   2.342   2.360   8.874  0.2620  0.0794  0.6945
  138SAPE  H18S15030   2.494   2.414   8.960  1.2135  2.6138  0.1821
  138SAPE  C21915031   2.491   2.393   8.737 -0.1096 -0.3437 -0.2734
  138SAPE  H19R15032   2.573   2.466   8.719  0.0380 -0.2724  0.6640
  138SAPE  H19S15033   2.421   2.411   8.653  0.5492  2.9508 -0.2538
  138SAPE  C22015034   2.536   2.240   8.727 -0.1873 -0.6739  0.9811
  138SAPE  H20R15035   2.618   2.221   8.799  0.0814 -0.6673  0.6769
  138SAPE  H20S15036   2.575   2.221   8.625  1.3976 -1.9794  1.7961
  138SAPE  H20T15037   2.455   2.170   8.756  1.1798 -2.0107  1.7237
  138SAPE   C3315038   2.088   2.592   9.981  0.0994  0.6199  0.3214
  138SAPE   H3X15039   2.186   2.571  10.028 -0.3692 -0.4342  0.8570
  138SAPE   H3Y15040   2.078   2.702   9.988  2.7096  0.8202  2.8568
  138SAPE   C3415041   2.082   2.558   9.831 -0.3342  0.0547  0.3885
  138SAPE   H4X15042   2.038   2.456   9.824 -1.1243  0.3862  0.3941
  138SAPE   H4Y15043   2.187   2.549   9.797 -0.6557 -3.0027 -0.0963
  138SAPE   C3515044   1.991   2.649   9.739  0.3477 -0.4947 -0.1955
  138SAPE   H5X15045   2.023   2.754   9.754 -0.9911 -0.1490  0.4598
  138SAPE   H5Y15046   1.887   2.645   9.779  0.3493  0.9008 -0.0191
  138SAPE   C3615047   1.993   2.617   9.598  0.4690  0.0222 -0.3248
  138SAPE   H6X15048   1.968   2.508   9.600 -0.7686  0.3000  1.1201
  138SAPE   H6Y15049   2.091   2.622   9.546  1.2261 -2.7761  0.6323
  138SAPE   C3715050   1.885   2.685   9.518  0.8475 -0.7407 -0.1499
  138SAPE   H7X15051   1.879   2.794   9.536  1.8108 -0.4444 -1.4857
  138SAPE   H7Y15052   1.786   2.651   9.554  0.8030 -1.6738 -1.0895
  138SAPE   C3815053   1.895   2.649   9.365  0.0259 -0.0106  0.2601
  138SAPE   H8X15054   1.913   2.539   9.359  0.4093 -0.0331  1.4196
  138SAPE   H8Y15055   1.983   2.691   9.312 -0.3830 -0.4503 -0.7788
  138SAPE   C3915056   1.775   2.687   9.281  0.1311  0.1559 -0.0078
  138SAPE   H9X15057   1.789   2.794   9.254 -1.2028  0.0897 -1.1057
  138SAPE   H9Y15058   1.677   2.677   9.331 -0.1131  0.6001 -0.3889
  138SAPE  C31015059   1.771   2.620   9.141 -0.4445  0.1194 -0.7061
  138SAPE  H10X15060   1.723   2.520   9.136  3.1901 -1.7434 -3.5887
  138SAPE  H10Y15061   1.880   2.609   9.119 -0.4814  1.6687 -1.8300
  138SAPE  C31115062   1.703   2.712   9.033 -0.1378  0.1150  0.5420
  138SAPE  H11X15063   1.747   2.815   9.036 -1.1496  0.5555  0.4624
  138SAPE  H11Y15064   1.599   2.727   9.069  0.4322  0.9647  1.9263
  138SAPE  C31215065   1.706   2.664   8.883  0.1504  0.4433 -0.2630
  138SAPE  H12X15066   1.648   2.569   8.880  0.0671  0.3909  1.8589
  138SAPE  H12Y15067   1.814   2.647   8.863  0.4167  1.9366 -0.2492
  138SAPE  C31315068   1.655   2.774   8.785 -0.4109  0.5625  0.3073
  138SAPE  H13X15069   1.712   2.867   8.808  2.2986 -0.2319 -2.5049
  138SAPE  H13Y15070   1.549   2.795   8.813 -0.5057 -0.4861  0.7980
  138SAPE  C31415071   1.667   2.730   8.638 -0.6333  0.0084  0.5002
  138SAPE  H14X15072   1.648   2.621   8.638  0.1421 -0.2180 -2.3456
  138SAPE  H14Y15073   1.769   2.730   8.594 -0.7853 -2.4451  0.0156
  138SAPE  C31515074   1.571   2.807   8.548 -0.0492 -0.0823  0.6410
  138SAPE  H15X15075   1.593   2.770   8.446 -3.5889 -1.3615  0.2096
  138SAPE  H15Y15076   1.589   2.916   8.555  1.4242 -0.3750  2.5038
  138SAPE  C31615077   1.425   2.770   8.580 -0.0418  0.4968 -0.6530
  138SAPE  H16X15078   1.398   2.823   8.673  2.7073  1.6125 -0.3709
  138SAPE  H16Y15079   1.426   2.660   8.596 -0.0024  0.5964  0.0516
  138SAPE  C31715080   1.326   2.809   8.467 -0.7558  0.3309 -0.8860
  138SAPE  H17X15081   1.364   2.764   8.372 -1.8641 -1.3067 -0.6016
  138SAPE  H17Y15082   1.316   2.918   8.453  0.7422  0.3325 -2.4217
  138SAPE  C31815083   1.186   2.741   8.500 -1.6724  0.1791 -0.3417
  138SAPE  H18X15084   1.196   2.630   8.510  1.2207  0.1392 -2.5463
  138SAPE  H18Y15085   1.130   2.766   8.408  0.5988 -1.3558 -2.2609
  138SAPE  H18Z15086   1.146   2.783   8.595  2.0489  0.9237  1.0549
  139SAPE     N15087   1.370   2.902  10.598  0.4873  0.0608  0.3682
  139SAPE   HN115088   1.315   2.956  10.529  1.5027  1.2070  0.4067
  139SAPE   HN215089   1.407   2.817  10.552 -1.4525  0.6824 -2.6036
  139SAPE   HN315090   1.319   2.886  10.687 -1.1384  1.0788 -0.3348
  139SAPE   C1215091   1.490   2.984  10.630  0.1037  0.4947  0.5313
  139SAPE  H12A15092   1.436   3.069  10.677 -0.6518  0.3818 -0.1113
  139SAPE  H12B15093   1.535   3.007  10.531  0.0713 -0.4054  0.2953
  139SAPE   C1115094   1.583   2.911  10.723 -0.0188  0.7119  0.1272
  139SAPE  H11A15095   1.526   2.884  10.814 -1.6753  1.7533 -0.5286
  139SAPE  H11B15096   1.665   2.984  10.743  0.3390  0.6857 -1.1292
  139SAPE     P15097   1.774   2.714  10.687 -0.0882 -0.0344  0.0644
  139SAPE   O1315098   1.814   2.737  10.828  0.3384  0.8197  0.2735
  139SAPE   O1415099   1.767   2.578  10.636  0.1635 -0.3790  0.3464
  139SAPE   O1215100   1.633   2.784  10.665 -0.6275  0.0821  0.0722
  139SAPE   O1115101   1.881   2.784  10.600 -0.1931 -0.1577  0.0140
  139SAPE    C115102   1.929   2.916  10.625  0.1092  0.6060 -0.0488
  139SAPE    HA15103   1.901   2.956  10.724 -0.0832  0.5288 -0.0710
  139SAPE    HB15104   2.040   2.910  10.617  0.1416 -2.2820  1.3451
  139SAPE    C215105   1.871   3.019  10.528  0.1558  0.2837 -0.3265
  139SAPE    HS15106   1.760   3.025  10.532 -0.0654  0.4727 -4.0004
  139SAPE   O2115107   1.897   2.992  10.396  0.3866  0.1332 -0.4991
  139SAPE   C2115108   1.813   2.997  10.295  0.2019 -0.3870  0.1847
  139SAPE   O2215109   1.691   3.010  10.300  0.4943  0.2133 -0.2162
  139SAPE   C2215110   1.888   3.012  10.168  0.1907 -0.0973 -0.0110
  139SAPE   H2R15111   1.933   3.113  10.159 -0.7351  0.2672 -0.6265
  139SAPE   H2S15112   1.971   2.937  10.168 -0.1544 -0.4924 -0.8263
  139SAPE    C315113   1.912   3.160  10.574  0.0423 -0.0870  0.2732
  139SAPE    HX15114   2.023   3.154  10.578  0.0533 -1.7275 -1.2608
  139SAPE    HY15115   1.875   3.180  10.677  0.5440 -1.3322  0.7133
  139SAPE   O3115116   1.868   3.262  10.487 -0.1239 -0.2778  0.1837
  139SAPE   C3115117   1.737   3.292  10.509 -0.5277 -0.4230  0.6849
  139SAPE   O3215118   1.658   3.232  10.576 -0.3030  0.2855 -0.2562
  139SAPE   C3215119   1.712   3.411  10.414  0.8001  0.1837  0.1265
  139SAPE   H2X15120   1.784   3.493  10.435 -0.1626  1.4511 -1.3549
  139SAPE   H2Y15121   1.607   3.441  10.434  0.0347 -0.9602 -1.8803
  139SAPE   C2315122   1.797   2.990  10.045 -0.2916  0.4559 -0.1180
  139SAPE   H3R15123   1.748   3.087  10.020 -0.1006  0.7063  0.4482
  139SAPE   H3S15124   1.733   2.901  10.062  2.4465 -1.1590  2.9409
  139SAPE   C2415125   1.882   2.940   9.924 -0.6457 -0.8190 -0.3147
  139SAPE   H4R15126   1.796   2.928   9.855 -2.3002  2.8413  0.8426
  139SAPE   H4S15127   1.919   2.838   9.949  1.1455  0.2051  1.5343
  139SAPE   C2515128   2.000   3.030   9.881  1.0292 -0.2145 -0.5237
  139SAPE   H5R15129   2.087   3.023   9.948 -0.7812 -2.2357  1.8134
  139SAPE   C2615130   2.009   3.113   9.771 -0.5950 -0.4644  0.0937
  139SAPE   H6R15131   2.105   3.165   9.758 -0.1815 -1.2384 -0.0296
  139SAPE   C2715132   1.906   3.118   9.665  0.4204 -0.6020 -0.9146
  139SAPE   H7R15133   1.814   3.161   9.710  0.7522 -1.8783  1.1172
  139SAPE   H7S15134   1.883   3.017   9.626  0.3464 -0.2143 -1.9280
  139SAPE   C2815135   1.950   3.201   9.544  0.3124  0.4614 -0.5953
  139SAPE   H8R15136   1.948   3.311   9.555 -0.1098  0.5565 -1.5087
  139SAPE   C2915137   1.989   3.152   9.432  0.0103  0.3951  0.0146
  139SAPE   H9R15138   2.026   3.215   9.350  1.4686  0.6803  0.8619
  139SAPE  C21015139   2.006   3.010   9.387  0.3217  0.2081 -0.6087
  139SAPE  H10R15140   1.920   2.968   9.330  1.0152 -3.1178  0.5660
  139SAPE  H10S15141   2.023   2.947   9.477 -0.1912  0.5315 -0.2818
  139SAPE  C21115142   2.116   2.974   9.292  0.3336 -0.2355  0.1879
  139SAPE  H11R15143   2.208   2.964   9.351  0.4955  0.8696  0.1372
  139SAPE  C21215144   2.122   2.969   9.158 -0.2539 -0.3529  0.0116
  139SAPE  H12R15145   2.218   2.957   9.106 -0.2095  1.3331 -0.3399
  139SAPE  C21315146   2.005   2.984   9.068 -0.1387  1.0870  0.8128
  139SAPE  H13R15147   2.003   3.091   9.037 -0.3500  0.9732  0.4333
  139SAPE  H13S15148   1.917   2.970   9.133  0.9069  1.8493  2.4744
  139SAPE  C21415149   2.023   2.890   8.945  0.8656 -0.1600  0.1106
  139SAPE  H14R15150   2.030   2.781   8.961 -2.8543 -0.7006 -0.9284
  139SAPE  C21515151   2.025   2.924   8.817  0.3607 -0.2881 -0.4503
  139SAPE  H15R15152   2.055   2.851   8.740  2.1781  0.0651 -0.1214
  139SAPE  C21615153   2.004   3.066   8.769 -0.7149  0.0747 -0.6221
  139SAPE  H16R15154   2.024   3.140   8.849 -0.5421  0.2705 -0.8477
  139SAPE  H16S15155   1.894   3.075   8.757 -1.0375 -0.4753  1.4918
  139SAPE  C21715156   2.082   3.098   8.646  0.2644  0.3080  0.5612
  139SAPE  H17R15157   2.033   3.193   8.614  0.0510 -0.4767 -1.5727
  139SAPE  H17S15158   2.071   3.029   8.561  0.2666 -0.7451  1.3985
  139SAPE  C21815159   2.229   3.123   8.674 -0.1204  0.2762  0.0260
  139SAPE  H18R15160   2.275   3.026   8.703 -1.1691  0.0537  1.0170
  139SAPE  H18S15161   2.225   3.195   8.759 -2.1936 -0.5466  0.6746
  139SAPE  C21915162   2.319   3.188   8.566  1.1257 -0.4132  0.0582
  139SAPE  H19R15163   2.415   3.217   8.615  0.3972 -1.3625  2.1797
  139SAPE  H19S15164   2.258   3.276   8.536  0.7464  0.1189  2.2186
  139SAPE  C22015165   2.358   3.105   8.450 -0.0071  0.2841 -0.2031
  139SAPE  H20R15166   2.420   3.157   8.374  0.5648 -0.6041 -0.3554
  139SAPE  H20S15167   2.277   3.077   8.380 -1.2051 -0.5201  1.4211
  139SAPE  H20T15168   2.412   3.020   8.497  0.2644 -0.4394 -1.7848
  139SAPE   C3315169   1.724   3.379  10.257 -0.0885 -0.2665 -0.3662
  139SAPE   H3X15170   1.674   3.283  10.234 -0.4584 -0.1349 -0.1290
  139SAPE   H3Y15171   1.829   3.364  10.225 -0.2222 -1.9461 -0.0609
  139SAPE   C3415172   1.657   3.488  10.167 -0.0749  0.0474  0.3932
  139SAPE   H4X15173   1.722   3.577  10.151 -1.4358  1.1354  0.6608
  139SAPE   H4Y15174   1.563   3.527  10.212 -0.1767  1.8857 -1.2674
  139SAPE   C3515175   1.626   3.436  10.024  0.3572 -0.0298  0.3509
  139SAPE   H5X15176   1.545   3.360  10.030  0.0121  0.1181 -1.7025
  139SAPE   H5Y15177   1.714   3.379   9.990 -0.1858  0.1936 -1.5395
  139SAPE   C3615178   1.598   3.538   9.920 -0.4720 -1.0124  0.1304
  139SAPE   H6X15179   1.671   3.621   9.928  0.0874 -1.6382  2.2585
  139SAPE   H6Y15180   1.494   3.575   9.933 -0.3997 -1.2413  1.5490
  139SAPE   C3715181   1.606   3.490   9.776  0.0052  0.1742  0.1908
  139SAPE   H7X15182   1.529   3.412   9.760  0.7502 -0.4027 -0.6470
  139SAPE   H7Y15183   1.708   3.459   9.746 -0.2607  1.2350 -2.0232
  139SAPE   C3815184   1.590   3.608   9.676  0.3374 -0.3742  0.1150
  139SAPE   H8X15185   1.662   3.689   9.700 -0.6247  0.8158 -0.8956
  139SAPE   H8Y15186   1.490   3.653   9.691  1.0639  1.4160 -0.1971
  139SAPE   C3915187   1.595   3.578   9.524 -0.6903 -0.1248  0.0173
  139SAPE   H9X15188   1.672   3.499   9.516 -0.9585 -0.7872  2.8749
  139SAPE   H9Y15189   1.641   3.672   9.486  0.2646 -0.7724 -0.4460
  139SAPE  C31015190   1.461   3.537   9.461 -0.0243  0.2801  0.3433
  139SAPE  H10X15191   1.384   3.613   9.489 -0.1628  0.5690 -0.7672
  139SAPE  H10Y15192   1.430   3.438   9.501  1.0060  0.2556  1.1323
  139SAPE  C31115193   1.477   3.523   9.313 -0.0438  0.3017  0.0415
  139SAPE  H11X15194   1.551   3.443   9.297  0.4385  0.1969  2.5131
  139SAPE  H11Y15195   1.509   3.616   9.261 -0.7909 -0.3100 -1.5824
  139SAPE  C31215196   1.351   3.472   9.244  0.9219  0.5981  0.2353
  139SAPE  H12X15197   1.323   3.374   9.288  0.8484  0.5459  0.0745
  139SAPE  H12Y15198   1.377   3.466   9.136  0.8644  2.0479  0.1168
  139SAPE  C31315199   1.231   3.559   9.255 -0.8458 -0.4693  0.1480
  139SAPE  H13X15200   1.264   3.661   9.227  0.1093 -0.6274  0.6791
  139SAPE  H13Y15201   1.200   3.554   9.362 -1.6796 -0.9673 -0.1029
  139SAPE  C31415202   1.126   3.511   9.158  0.1478 -0.1571 -0.0118
  139SAPE  H14X15203   1.088   3.411   9.186  0.3164 -0.3699 -0.5318
  139SAPE  H14Y15204   1.169   3.500   9.056 -1.3203 -0.4942 -0.6099
  139SAPE  C31515205   1.008   3.605   9.145  0.0613  0.3919 -0.8268
  139SAPE  H15X15206   1.056   3.704   9.128  2.3178 -0.4774  0.1228
  139SAPE  H15Y15207   0.960   3.603   9.245  2.3344 -1.2690  0.3190
  139SAPE  C31615208   0.922   3.573   9.024 -0.3979  0.6294 -0.2298
  139SAPE  H16X15209   0.980   3.570   8.930  2.0687 -0.3876  1.2356
  139SAPE  H16Y15210   0.866   3.479   9.043  1.3147 -0.2992  0.3596
  139SAPE  C31715211   0.793   3.669   9.011 -0.2545  0.9579 -0.0948
  139SAPE  H17X15212   0.737   3.654   9.106  0.3902  1.4900  0.3724
  139SAPE  H17Y15213   0.733   3.624   8.928 -0.0111 -2.1902  1.2754
  139SAPE  C31815214   0.825   3.817   8.989  0.7025  0.3062  0.2060
  139SAPE  H18X15215   0.886   3.856   9.073 -1.4702 -1.3300  2.6744
  139SAPE  H18Y15216   0.731   3.876   8.977  0.8383  1.0980  2.6122
  139SAPE  H18Z15217   0.871   3.830   8.888 -0.8975  2.9717 -0.3070
  140SAPE     N15218   3.311   6.755  10.644  0.8028  0.0185  0.2143
  140SAPE   HN115219   3.335   6.764  10.543 -1.4621 -1.1738 -0.5205
  140SAPE   HN215220   3.267   6.660  10.647 -0.2800  0.4076 -1.6519
  140SAPE   HN315221   3.234   6.822  10.662 -0.5446 -1.9106  2.1492
  140SAPE   C1215222   3.407   6.764  10.751  0.1952  0.3716 -0.2639
  140SAPE  H12A15223   3.354   6.788  10.846 -2.6891  0.9663 -1.8963
  140SAPE  H12B15224   3.473   6.850  10.725 -0.2144  1.7774  2.8396
  140SAPE   C1115225   3.495   6.636  10.741  0.4400 -0.4751 -0.7141
  140SAPE  H11A15226   3.432   6.547  10.762  0.9187 -0.4864  0.8441
  140SAPE  H11B15227   3.578   6.637  10.816  0.5877 -0.5201 -0.8757
  140SAPE     P15228   3.691   6.664  10.558  0.2735 -0.4524  0.0575
  140SAPE   O1315229   3.686   6.811  10.542  0.2730 -0.8018 -0.6215
  140SAPE   O1415230   3.805   6.610  10.632  0.5148  0.3936  0.2615
  140SAPE   O1215231   3.550   6.609  10.618 -0.6141 -0.4844 -0.2717
  140SAPE   O1115232   3.681   6.601  10.419  0.1925 -0.3345  0.2817
  140SAPE    C115233   3.579   6.627  10.322  0.0204 -0.3898  0.3675
  140SAPE    HA15234   3.498   6.692  10.361  0.2742  1.1192 -1.4883
  140SAPE    HB15235   3.617   6.697  10.245 -1.1099 -0.7589 -0.5485
  140SAPE    C215236   3.524   6.497  10.259  0.2930  0.0675 -0.1488
  140SAPE    HS15237   3.489   6.426  10.337  0.6992 -2.9692 -2.5340
  140SAPE   O2115238   3.629   6.429  10.182  0.2511  0.3684  0.0233
  140SAPE   C2115239   3.599   6.304  10.132 -0.0752  0.8241 -0.4486
  140SAPE   O2215240   3.506   6.233  10.174  0.2248 -0.3779  0.1762
  140SAPE   C2215241   3.708   6.260  10.031  0.1431 -0.0407  0.0493
  140SAPE   H2R15242   3.716   6.339   9.954  0.7989 -1.3845 -1.3269
  140SAPE   H2S15243   3.808   6.244  10.077 -0.2483  1.1953  1.3784
  140SAPE    C315244   3.405   6.523  10.160  0.1855 -0.1412  0.2990
  140SAPE    HX15245   3.346   6.614  10.187  0.8890  0.2320  0.6016
  140SAPE    HY15246   3.338   6.435  10.171  2.7334 -2.0964  1.2446
  140SAPE   O3115247   3.443   6.546  10.025  0.0850 -0.0559  0.2132
  140SAPE   C3115248   3.366   6.499   9.923 -0.5231  0.3605 -0.4405
  140SAPE   O3215249   3.272   6.424   9.937  0.0241  0.1686 -0.1214
  140SAPE   C3215250   3.419   6.554   9.790 -0.0667  0.3778  0.8751
  140SAPE   H2X15251   3.475   6.646   9.815  0.0301  1.1848 -1.9581
  140SAPE   H2Y15252   3.340   6.589   9.721 -0.5985  0.4689  1.5201
  140SAPE   C2315253   3.653   6.135   9.963  0.6443  0.1036 -0.3968
  140SAPE   H3R15254   3.547   6.149   9.931  0.4819 -1.4849 -0.6661
  140SAPE   H3S15255   3.659   6.060  10.045  0.8202  1.1054  0.5319
  140SAPE   C2415256   3.741   6.092   9.842 -0.0946 -0.4322  0.5489
  140SAPE   H4R15257   3.714   5.990   9.808  0.4837 -0.6287  0.6681
  140SAPE   H4S15258   3.845   6.091   9.882 -0.4231  2.2123  1.6966
  140SAPE   C2515259   3.754   6.194   9.728 -0.3655  0.6174  0.6007
  140SAPE   H5R15260   3.732   6.299   9.751  0.1822  0.8461  0.0763
  140SAPE   C2615261   3.776   6.158   9.599 -0.1952 -0.1319  0.1381
  140SAPE   H6R15262   3.780   6.241   9.527 -1.3440 -1.7274 -1.8586
  140SAPE   C2715263   3.797   6.015   9.542  0.1581  0.2186  0.3356
  140SAPE   H7R15264   3.784   5.938   9.622  1.6383 -0.9529 -0.4935
  140SAPE   H7S15265   3.904   5.990   9.523 -0.1423 -2.1022  1.3415
  140SAPE   C2815266   3.729   5.969   9.416  0.1182 -0.1084  0.4713
  140SAPE   H8R15267   3.658   5.886   9.428  0.0703 -0.1687 -0.1978
  140SAPE   C2915268   3.748   6.015   9.291  0.3295  0.2008  0.1326
  140SAPE   H9R15269   3.692   5.964   9.211  1.5171 -0.4594 -0.3040
  140SAPE  C21015270   3.852   6.117   9.244 -0.1404 -0.1469 -0.0965
  140SAPE  H10R15271   3.899   6.172   9.328  1.0708  2.0888 -2.1015
  140SAPE  H10S15272   3.794   6.195   9.191  1.3252  0.9918 -0.0838
  140SAPE  C21115273   3.967   6.063   9.161  0.6248 -0.0811 -0.7315
  140SAPE  H11R15274   4.018   5.979   9.209 -0.3614 -1.1054 -1.4220
  140SAPE  C21215275   4.022   6.111   9.045 -0.3998  0.5159  0.2727
  140SAPE  H12R15276   4.107   6.057   9.001  0.8057  1.5018  1.2856
  140SAPE  C21315277   3.971   6.232   8.976  0.6782 -0.8521  0.5784
  140SAPE  H13R15278   4.059   6.291   8.941 -0.4603  0.6024  0.0240
  140SAPE  H13S15279   3.929   6.307   9.046 -1.7397 -0.9257 -0.6594
  140SAPE  C21415280   3.881   6.199   8.857  0.6439  0.2852  0.6386
  140SAPE  H14R15281   3.777   6.194   8.894  0.2317  0.0759 -0.5121
  140SAPE  C21515282   3.914   6.168   8.729  0.4296 -0.0830 -0.2579
  140SAPE  H15R15283   3.827   6.154   8.662 -0.3344  1.3755  0.3819
  140SAPE  C21615284   4.059   6.152   8.691  0.0552  0.0797 -0.3673
  140SAPE  H16R15285   4.074   6.043   8.669  2.4620 -0.1996  2.1279
  140SAPE  H16S15286   4.130   6.168   8.775 -0.6761  0.0815  0.2506
  140SAPE  C21715287   4.099   6.233   8.564 -0.5802 -0.1218  0.2784
  140SAPE  H17R15288   4.011   6.256   8.501 -0.6916  2.0588  1.1175
  140SAPE  H17S15289   4.172   6.176   8.504  0.8515  1.4921  0.4014
  140SAPE  C21815290   4.159   6.374   8.593 -0.1591  1.6372  0.3134
  140SAPE  H18R15291   4.235   6.356   8.673  2.0588  1.4728 -1.7308
  140SAPE  H18S15292   4.086   6.448   8.632  0.5744  2.6232 -0.1206
  140SAPE  C21915293   4.234   6.428   8.466  0.2462 -0.5359 -0.0867
  140SAPE  H19R15294   4.160   6.468   8.393  0.7264 -0.5085 -0.5604
  140SAPE  H19S15295   4.289   6.343   8.420  3.9704  2.2246 -1.2542
  140SAPE  C22015296   4.331   6.534   8.501  0.1623 -0.3234 -0.0770
  140SAPE  H20R15297   4.392   6.569   8.415 -0.5838  1.7019  0.1826
  140SAPE  H20S15298   4.399   6.500   8.583  1.0870  2.2385  0.2977
  140SAPE  H20T15299   4.273   6.614   8.550 -1.4189 -0.9620 -0.8209
  140SAPE   C3315300   3.517   6.454   9.728  0.3634 -0.2741 -0.2292
  140SAPE   H3X15301   3.482   6.349   9.725  0.1317 -0.2066  0.0438
  140SAPE   H3Y15302   3.613   6.455   9.785  1.1996 -1.6626 -1.5534
  140SAPE   C3415303   3.564   6.492   9.582  0.3691  0.3112  0.1469
  140SAPE   H4X15304   3.632   6.407   9.561 -0.1476 -0.1942  0.4957
  140SAPE   H4Y15305   3.623   6.586   9.575  1.0804 -0.2750 -2.5789
  140SAPE   C3515306   3.446   6.507   9.479 -0.3433 -0.3632  0.2491
  140SAPE   H5X15307   3.394   6.603   9.498  0.0499 -0.1300  0.1676
  140SAPE   H5Y15308   3.372   6.424   9.479 -0.4267 -0.4363 -2.8625
  140SAPE   C3615309   3.509   6.495   9.333  1.1637  0.3306  0.4447
  140SAPE   H6X15310   3.420   6.499   9.267  1.1501 -0.5729  0.4059
  140SAPE   H6Y15311   3.551   6.393   9.322 -1.5582 -0.7378 -0.6944
  140SAPE   C3715312   3.597   6.620   9.298 -0.0953  0.7780  0.2037
  140SAPE   H7X15313   3.670   6.644   9.379  0.2070 -0.4741  0.3257
  140SAPE   H7Y15314   3.531   6.706   9.278 -1.2714 -0.7215 -2.9763
  140SAPE   C3815315   3.672   6.599   9.164  1.2173  0.2974 -0.1974
  140SAPE   H8X15316   3.602   6.575   9.082 -2.6184 -2.8096  3.5418
  140SAPE   H8Y15317   3.746   6.516   9.172  0.6157 -0.0594  2.9647
  140SAPE   C3915318   3.747   6.730   9.137 -0.1322 -0.3602 -0.1782
  140SAPE   H9X15319   3.805   6.755   9.228 -0.6654  1.2423 -0.2437
  140SAPE   H9Y15320   3.671   6.812   9.137 -0.0098 -0.2377  0.8585
  140SAPE  C31015321   3.824   6.726   9.005 -0.5715  0.0890 -0.0588
  140SAPE  H10X15322   3.755   6.721   8.919 -1.5293  1.6203  0.5701
  140SAPE  H10Y15323   3.902   6.647   9.002 -1.2280 -0.5228 -1.3614
  140SAPE  C31115324   3.908   6.848   8.974 -0.2702 -0.5141  0.3064
  140SAPE  H11X15325   3.982   6.863   9.056  0.0889 -0.2642 -0.0598
  140SAPE  H11Y15326   3.843   6.938   8.973 -2.6966 -2.1624  0.5024
  140SAPE  C31215327   3.976   6.835   8.833 -0.1153  0.3945 -0.7521
  140SAPE  H12X15328   3.910   6.790   8.755  0.3008  1.3797 -1.6942
  140SAPE  H12Y15329   4.058   6.762   8.855 -0.2232  0.6212  0.4575
  140SAPE  C31315330   4.021   6.971   8.782  0.0200  0.3004  0.0030
  140SAPE  H13X15331   4.078   7.022   8.863 -0.0794 -0.1542  0.3702
  140SAPE  H13Y15332   3.928   7.025   8.755 -0.2240  0.1037  0.4266
  140SAPE  C31415333   4.105   6.978   8.656 -0.2621  0.0732  0.0368
  140SAPE  H14X15334   4.103   7.080   8.612 -0.5282 -0.3258 -0.8931
  140SAPE  H14Y15335   4.068   6.910   8.577  0.1800  0.5508 -0.5860
  140SAPE  C31515336   4.247   6.942   8.676 -0.2568 -0.7636 -0.5908
  140SAPE  H15X15337   4.263   6.833   8.691 -0.7392 -1.0746 -2.1783
  140SAPE  H15Y15338   4.278   6.991   8.770  0.1482 -1.3582 -0.4048
  140SAPE  C31615339   4.333   6.989   8.565  0.0532  0.2281  0.1508
  140SAPE  H16X15340   4.328   7.100   8.554 -0.8860  0.1811  0.0662
  140SAPE  H16Y15341   4.292   6.943   8.473 -0.6577  2.8223 -0.9061
  140SAPE  C31715342   4.477   6.948   8.574 -0.5295 -0.0867 -0.8610
  140SAPE  H17X15343   4.487   6.845   8.615 -0.4557 -0.6626 -2.2585
  140SAPE  H17Y15344   4.522   7.025   8.640 -0.6756 -1.1942  0.5793
  140SAPE  C31815345   4.540   6.942   8.439 -0.3627  0.1566 -0.3532
  140SAPE  H18X15346   4.504   6.873   8.360  1.2154  0.1998 -1.1656
  140SAPE  H18Y15347   4.646   6.911   8.456 -1.2723 -3.1817 -0.0606
  140SAPE  H18Z15348   4.539   7.046   8.400  0.3473  0.3090  0.0004
  141SAPE     N15349   5.419   6.206  11.103  0.4348  0.0922  0.4392
  141SAPE   HN115350   5.372   6.251  11.184  1.2131  0.6095  0.6116
  141SAPE   HN215351   5.345   6.150  11.055 -0.3744 -0.2811  2.0486
  141SAPE   HN315352   5.498   6.144  11.128  2.3579  1.4082 -2.0049
  141SAPE   C1215353   5.477   6.312  11.014  0.5510  0.0667 -0.1186
  141SAPE  H12A15354   5.516   6.384  11.089 -1.5093 -0.1797  1.2606
  141SAPE  H12B15355   5.407   6.349  10.937  2.9234  0.3819 -2.2655
  141SAPE   C1115356   5.593   6.245  10.933 -0.2572  0.3636 -0.0116
  141SAPE  H11A15357   5.558   6.168  10.862  0.0186  0.6734 -0.4862
  141SAPE  H11B15358   5.653   6.191  11.009  0.4122 -0.4973 -1.1377
  141SAPE     P15359   5.761   6.437  10.944 -0.1288  0.0703 -0.5727
  141SAPE   O1315360   5.672   6.553  10.978 -0.0337  0.1652  0.1852
  141SAPE   O1415361   5.822   6.357  11.060 -0.5039  0.3115 -0.0198
  141SAPE   O1215362   5.670   6.336  10.856  0.4078 -0.3925  0.4130
  141SAPE   O1115363   5.880   6.477  10.847 -0.2168  0.0606  0.0980
  141SAPE    C115364   5.937   6.383  10.755 -0.0491  0.1317  0.3354
  141SAPE    HA15365   6.046   6.399  10.749  0.0393 -0.6889 -0.5678
  141SAPE    HB15366   5.917   6.279  10.788 -1.3670  0.7268  1.5028
  141SAPE    C215367   5.886   6.420  10.615 -0.1577  0.9355  0.4632
  141SAPE    HS15368   5.915   6.526  10.605  0.0179  0.6599 -3.6326
  141SAPE   O2115369   5.748   6.389  10.597 -0.1524 -0.2975 -0.4287
  141SAPE   C2115370   5.667   6.487  10.582  0.1092 -0.5416 -0.0810
  141SAPE   O2215371   5.694   6.605  10.595  0.2983 -0.1634  0.6473
  141SAPE   C2215372   5.528   6.428  10.572 -0.0915  0.4649 -0.0860
  141SAPE   H2R15373   5.510   6.385  10.673 -0.6830  0.2910 -0.2632
  141SAPE   H2S15374   5.458   6.511  10.548  0.1928  0.6754 -0.1930
  141SAPE    C315375   5.959   6.325  10.510 -0.5194 -0.2112  0.3539
  141SAPE    HX15376   5.930   6.341  10.404  0.4900  1.4932  0.2818
  141SAPE    HY15377   5.916   6.224  10.524 -0.8418 -0.4977 -2.2184
  141SAPE   O3115378   6.110   6.323  10.516 -0.0477  0.0719  0.6055
  141SAPE   C3115379   6.167   6.408  10.423  0.7025 -0.3722 -0.3393
  141SAPE   O3215380   6.113   6.485  10.350  0.4256 -0.5838  0.4380
  141SAPE   C3215381   6.320   6.406  10.449  0.3933  0.2442 -0.0007
  141SAPE   H2X15382   6.352   6.301  10.432 -0.9513  0.0376 -1.4155
  141SAPE   H2Y15383   6.325   6.419  10.559  1.3331 -1.4918  0.2091
  141SAPE   C2315384   5.486   6.322  10.467  0.1439 -0.0919 -0.5376
  141SAPE   H3R15385   5.387   6.286  10.499  0.5881  0.8084  2.0926
  141SAPE   H3S15386   5.558   6.238  10.477 -0.5025 -0.6057 -0.1911
  141SAPE   C2415387   5.460   6.376  10.331 -0.3749  0.4393 -0.5686
  141SAPE   H4R15388   5.558   6.409  10.290 -0.1041  2.0707  1.2154
  141SAPE   H4S15389   5.394   6.465  10.328  0.1197  0.8082 -0.6541
  141SAPE   C2515390   5.402   6.271  10.240  0.1052  0.4923  0.3348
  141SAPE   H5R15391   5.299   6.236  10.258  0.4576 -1.9563 -1.8244
  141SAPE   C2615392   5.457   6.212  10.131  0.6575 -0.4566 -0.3501
  141SAPE   H6R15393   5.387   6.152  10.072 -1.2532 -0.1172  1.4573
  141SAPE   C2715394   5.592   6.242  10.080 -0.6362  0.7722  0.1527
  141SAPE   H7R15395   5.660   6.261  10.165  1.1475 -0.7961 -0.8499
  141SAPE   H7S15396   5.587   6.339  10.027  2.3267  0.6118 -0.6075
  141SAPE   C2815397   5.663   6.136   9.994  0.0052 -0.0853  0.0970
  141SAPE   H8R15398   5.756   6.106  10.044 -0.3667  2.1020  2.2911
  141SAPE   C2915399   5.639   6.104   9.864  0.7950 -0.1429 -0.3757
  141SAPE   H9R15400   5.706   6.029   9.818  2.0058  1.5576 -1.4841
  141SAPE  C21015401   5.531   6.168   9.772 -0.4731 -0.2568 -0.1379
  141SAPE  H10R15402   5.440   6.200   9.827 -0.3538 -0.1695  0.0093
  141SAPE  H10S15403   5.506   6.088   9.699  0.4602 -0.9652  0.2799
  141SAPE  C21115404   5.594   6.283   9.696  0.4646  0.4164  0.0602
  141SAPE  H11R15405   5.633   6.366   9.755  0.3545  0.8524 -0.4716
  141SAPE  C21215406   5.604   6.297   9.564  0.2745  0.4272  0.2759
  141SAPE  H12R15407   5.649   6.389   9.524 -0.0902  0.4155 -0.1707
  141SAPE  C21315408   5.559   6.202   9.459  0.2039  0.2437 -0.3304
  141SAPE  H13R15409   5.512   6.110   9.501  2.1209  0.5280  2.7863
  141SAPE  H13S15410   5.649   6.160   9.409 -0.1887  0.9980 -1.7099
  141SAPE  C21415411   5.454   6.271   9.371  0.2275  0.2874  0.4658
  141SAPE  H14R15412   5.382   6.340   9.417 -2.6877 -0.8927 -1.9708
  141SAPE  C21515413   5.438   6.250   9.237 -0.2831  0.6114 -0.3298
  141SAPE  H15R15414   5.352   6.293   9.184  0.0256  0.3366 -1.0690
  141SAPE  C21615415   5.523   6.164   9.145  0.4802  0.2435 -0.0276
  141SAPE  H16R15416   5.617   6.140   9.199 -0.5721 -2.5726  0.7690
  141SAPE  H16S15417   5.545   6.222   9.053 -1.8277 -0.4640 -1.0992
  141SAPE  C21715418   5.458   6.027   9.100  0.2732  0.0703  0.1249
  141SAPE  H17R15419   5.431   5.979   9.196 -2.9877  0.2921 -0.5522
  141SAPE  H17S15420   5.529   5.967   9.039  0.6566  0.4714  0.1729
  141SAPE  C21815421   5.327   6.050   9.024 -0.3922 -0.1684  0.1542
  141SAPE  H18R15422   5.331   6.132   8.950  2.9423  0.9092  1.3579
  141SAPE  H18S15423   5.254   6.089   9.098  0.2112  1.2374  0.0383
  141SAPE  C21915424   5.286   5.919   8.955 -0.4403 -0.2429  0.1276
  141SAPE  H19R15425   5.279   5.850   9.042  0.4175 -1.2432 -0.5627
  141SAPE  H19S15426   5.375   5.904   8.890  0.5661 -0.7295  1.5458
  141SAPE  C22015427   5.156   5.931   8.879  0.2015 -0.5637  0.1869
  141SAPE  H20R15428   5.164   6.017   8.810  1.0210 -1.6536 -1.1529
  141SAPE  H20S15429   5.069   5.947   8.946  0.1544  0.7906 -0.1874
  141SAPE  H20T15430   5.129   5.849   8.808 -3.0359  2.4701 -2.4037
  141SAPE   C3315431   6.401   6.509  10.370 -0.0259 -0.0508  0.0726
  141SAPE   H3X15432   6.503   6.508  10.416 -0.6472 -2.0692  1.5592
  141SAPE   H3Y15433   6.363   6.610  10.398 -2.7014 -1.2518  1.1480
  141SAPE   C3415434   6.397   6.498  10.221  0.3041  0.2899 -0.3502
  141SAPE   H4X15435   6.305   6.553  10.193  0.0406  0.9484  1.6084
  141SAPE   H4Y15436   6.395   6.391  10.193  1.5564 -0.0331  0.6720
  141SAPE   C3515437   6.514   6.556  10.146 -0.9077  0.7686  0.3192
  141SAPE   H5X15438   6.598   6.492  10.180 -1.2840 -0.3103 -0.7401
  141SAPE   H5Y15439   6.512   6.662  10.178 -3.6825  0.6080  1.0209
  141SAPE   C3615440   6.509   6.539   9.996  0.0826 -0.1480 -0.1061
  141SAPE   H6X15441   6.465   6.444   9.960 -0.3652 -0.3661  0.9914
  141SAPE   H6Y15442   6.615   6.533   9.965  0.3619  0.3992  0.6999
  141SAPE   C3715443   6.435   6.656   9.929  0.4817 -0.7801  0.1019
  141SAPE   H7X15444   6.484   6.753   9.950 -1.7937  0.4281  0.1478
  141SAPE   H7Y15445   6.334   6.642   9.973 -0.0303 -0.1769 -0.8667
  141SAPE   C3815446   6.426   6.629   9.774  0.3578  0.8841  0.2446
  141SAPE   H8X15447   6.531   6.621   9.738 -0.1911 -0.6674 -1.1599
  141SAPE   H8Y15448   6.376   6.718   9.730  0.3329  0.7368 -0.0271
  141SAPE   C3915449   6.340   6.509   9.729  0.0432 -0.5446  0.1874
  141SAPE   H9X15450   6.246   6.518   9.789  0.4416 -1.2090  0.9361
  141SAPE   H9Y15451   6.381   6.408   9.751  1.5074  0.2399  1.1874
  141SAPE  C31015452   6.316   6.509   9.580 -0.2414 -0.3587  0.0506
  141SAPE  H10X15453   6.409   6.473   9.531  0.6906 -0.4143  1.8095
  141SAPE  H10Y15454   6.292   6.609   9.537  0.2324 -0.7165 -1.0967
  141SAPE  C31115455   6.207   6.416   9.543 -0.1158  0.2872  0.1777
  141SAPE  H11X15456   6.111   6.444   9.592 -0.4966 -2.6908  1.4175
  141SAPE  H11Y15457   6.233   6.322   9.596 -0.8267 -0.1479 -0.2260
  141SAPE  C31215458   6.195   6.393   9.386 -0.0222 -0.4132 -0.3444
  141SAPE  H12X15459   6.285   6.335   9.358 -0.5260 -1.7483  0.6699
  141SAPE  H12Y15460   6.181   6.488   9.330 -2.2297 -0.5257 -0.0783
  141SAPE  C31315461   6.086   6.292   9.336 -0.4519 -0.0607  0.1333
  141SAPE  H13X15462   6.006   6.295   9.413 -0.5805 -2.6415  0.1808
  141SAPE  H13Y15463   6.136   6.193   9.337 -1.9730 -1.0264 -3.4339
  141SAPE  C31415464   6.037   6.334   9.198 -0.4748  0.4691 -0.6676
  141SAPE  H14X15465   6.120   6.344   9.125 -0.2980 -0.4220 -0.5998
  141SAPE  H14Y15466   5.990   6.433   9.211 -2.4214 -0.5240  0.2417
  141SAPE  C31515467   5.937   6.237   9.150  0.0310  0.1291 -0.4181
  141SAPE  H15X15468   5.853   6.241   9.222  1.8139  3.6804  1.8022
  141SAPE  H15Y15469   5.983   6.136   9.142 -1.1292 -0.4151 -0.3833
  141SAPE  C31615470   5.879   6.276   9.018  0.2767  0.4467  0.3925
  141SAPE  H16X15471   5.964   6.301   8.952 -1.4036  3.4763 -0.7987
  141SAPE  H16Y15472   5.819   6.369   9.022 -1.7563 -0.7715 -0.0790
  141SAPE  C31715473   5.810   6.154   8.956 -0.1921  0.2019 -0.1113
  141SAPE  H17X15474   5.726   6.185   8.891  0.8090  0.4966 -1.3102
  141SAPE  H17Y15475   5.768   6.087   9.034 -1.0180  1.5365  0.6329
  141SAPE  C31815476   5.905   6.066   8.871 -0.0632  0.1553 -0.1134
  141SAPE  H18X15477   5.950   6.136   8.797  4.1100  1.8086  3.5657
  141SAPE  H18Y15478   5.860   5.974   8.830  0.5299 -0.8730  1.4533
  141SAPE  H18Z15479   5.993   6.034   8.931 -0.2485 -0.2309 -0.0494
  142SAPE     N15480   5.363   5.066  11.261 -0.0045 -0.4140 -0.0660
  142SAPE   HN115481   5.351   5.148  11.324 -1.4017 -1.1802  0.7042
  142SAPE   HN215482   5.461   5.031  11.258 -0.7770 -2.7648 -0.0137
  142SAPE   HN315483   5.333   5.101  11.167  4.7125 -1.7068 -2.3450
  142SAPE   C1215484   5.291   4.949  11.311  0.6420 -0.0722  0.0263
  142SAPE  H12A15485   5.298   4.946  11.422 -2.2956  1.8445  0.3906
  142SAPE  H12B15486   5.338   4.862  11.262  0.6622  1.2919 -2.5698
  142SAPE   C1115487   5.147   4.946  11.256  0.3615 -0.1234  0.3039
  142SAPE  H11A15488   5.093   5.037  11.290  1.1159  0.9236 -1.1870
  142SAPE  H11B15489   5.093   4.858  11.299 -0.0521 -0.2899 -0.5317
  142SAPE     P15490   5.158   4.815  11.022  0.0109  0.1729 -0.3691
  142SAPE   O1315491   5.253   4.719  11.075  0.2701 -0.3661 -0.6582
  142SAPE   O1415492   5.021   4.772  11.000  0.1058  0.9887  0.0465
  142SAPE   O1215493   5.144   4.945  11.114 -0.0402 -0.6119  0.4451
  142SAPE   O1115494   5.220   4.884  10.899  0.3293  0.0457  0.2470
  142SAPE    C115495   5.176   5.004  10.841  0.0167 -0.4467  0.4022
  142SAPE    HA15496   5.068   5.027  10.858  0.3336  0.1792  1.7323
  142SAPE    HB15497   5.239   5.081  10.890 -0.1331 -0.9916  1.4875
  142SAPE    C215498   5.192   4.999  10.686  0.5730 -0.1319  0.4990
  142SAPE    HS15499   5.256   5.081  10.647 -0.1801  0.0857 -0.3032
  142SAPE   O2115500   5.055   5.000  10.625  0.0446 -0.1130  0.3643
  142SAPE   C2115501   5.004   5.127  10.622  0.7976  0.1236 -0.1665
  142SAPE   O2215502   5.048   5.217  10.690 -0.2040  0.5062 -0.4256
  142SAPE   C2215503   4.893   5.143  10.515 -0.0562 -0.1321 -0.1186
  142SAPE   H2R15504   4.809   5.077  10.545  0.0313  0.2341  0.9715
  142SAPE   H2S15505   4.856   5.248  10.521  0.5614  0.1756 -1.4364
  142SAPE    C315506   5.262   4.868  10.646 -0.4462 -0.8595  0.0949
  142SAPE    HX15507   5.185   4.793  10.675  0.1350 -1.6058 -0.2490
  142SAPE    HY15508   5.353   4.864  10.710  0.2670  2.5262 -0.5351
  142SAPE   O3115509   5.280   4.863  10.503 -0.7897  0.0637  0.2348
  142SAPE   C3115510   5.381   4.922  10.443  0.8654 -0.2712  0.2175
  142SAPE   O3215511   5.472   4.982  10.497  0.2349 -0.1893 -0.0859
  142SAPE   C3215512   5.378   4.888  10.295  0.7053 -0.1156 -0.2499
  142SAPE   H2X15513   5.455   4.946  10.241  1.7320  0.5406  1.8032
  142SAPE   H2Y15514   5.274   4.914  10.264  1.3336  3.0342 -0.1102
  142SAPE   C2315515   4.927   5.115  10.370  0.0562 -0.3356  0.0941
  142SAPE   H3R15516   4.834   5.115  10.310 -0.1295  1.4787  0.3304
  142SAPE   H3S15517   4.955   5.007  10.371 -1.5673 -0.7673  0.8536
  142SAPE   C2415518   5.033   5.208  10.305  0.0219  0.5253  0.3334
  142SAPE   H4R15519   5.060   5.166  10.206  2.6241  1.1282  0.7148
  142SAPE   H4S15520   5.125   5.211  10.366 -1.0341 -1.0301  2.1182
  142SAPE   C2515521   4.973   5.349  10.290 -0.7033  0.2536  0.1010
  142SAPE   H5R15522   4.959   5.395  10.389 -1.3882  1.2012 -0.4173
  142SAPE   C2615523   4.931   5.419  10.182  0.5375  1.0432 -0.1167
  142SAPE   H6R15524   4.888   5.520  10.191  0.5559  1.3320 -2.5409
  142SAPE   C2715525   4.940   5.367  10.034 -0.1026  0.4467 -0.6085
  142SAPE   H7R15526   4.967   5.260  10.031  1.1791  0.7103  0.5051
  142SAPE   H7S15527   5.029   5.402   9.978  0.3729 -1.8306 -1.3643
  142SAPE   C2815528   4.821   5.401   9.960 -0.1605  0.0037 -0.0374
  142SAPE   H8R15529   4.771   5.491   9.999  0.4000  0.0376  0.6189
  142SAPE   C2915530   4.779   5.355   9.843 -0.4990  0.3934 -0.4323
  142SAPE   H9R15531   4.683   5.398   9.813 -1.3406 -1.2389 -0.1594
  142SAPE  C21015532   4.840   5.258   9.751 -0.0440  0.0803 -0.2750
  142SAPE  H10R15533   4.776   5.269   9.660 -0.1952 -1.1552 -0.3326
  142SAPE  H10S15534   4.817   5.155   9.787 -0.3992  0.5803  0.9628
  142SAPE  C21115535   4.985   5.271   9.717 -0.1749  0.4638 -1.1253
  142SAPE  H11R15536   5.069   5.285   9.788  0.9513  0.6948 -2.4586
  142SAPE  C21215537   5.031   5.266   9.589 -0.1660 -0.8763 -0.1478
  142SAPE  H12R15538   5.137   5.297   9.585 -0.7021  1.4898  1.7889
  142SAPE  C21315539   4.965   5.252   9.456 -0.3064 -0.3864  0.0855
  142SAPE  H13R15540   4.926   5.351   9.423  0.2520 -0.2995 -0.3164
  142SAPE  H13S15541   4.884   5.176   9.459 -0.8828  0.1954 -0.3744
  142SAPE  C21415542   5.061   5.206   9.349  0.9641 -0.1085 -0.0332
  142SAPE  H14R15543   5.076   5.097   9.346 -1.7730 -0.5312 -1.5762
  142SAPE  C21515544   5.132   5.284   9.258 -0.5099 -0.1710  0.0054
  142SAPE  H15R15545   5.207   5.236   9.193  0.0032 -1.9973  1.8401
  142SAPE  C21615546   5.130   5.435   9.241 -0.0337  0.3597  0.5714
  142SAPE  H16R15547   5.022   5.461   9.250  0.3329  2.8318 -0.9704
  142SAPE  H16S15548   5.162   5.466   9.139  1.3208 -1.5900  0.3571
  142SAPE  C21715549   5.217   5.494   9.347  0.0861  0.1524 -0.1900
  142SAPE  H17R15550   5.324   5.481   9.322 -0.4027 -0.3179 -2.2086
  142SAPE  H17S15551   5.204   5.458   9.452  2.0475 -0.2873 -0.0615
  142SAPE  C21815552   5.184   5.647   9.352 -0.4747  0.0694 -0.0990
  142SAPE  H18R15553   5.076   5.662   9.375 -0.3812  2.0165 -0.7596
  142SAPE  H18S15554   5.211   5.704   9.261  0.5039 -1.7144 -0.9779
  142SAPE  C21915555   5.254   5.723   9.467 -0.4491 -0.6413 -0.2121
  142SAPE  H19R15556   5.364   5.711   9.462 -0.4528 -0.4786 -0.7724
  142SAPE  H19S15557   5.220   5.686   9.566  2.3426  1.0654  1.5165
  142SAPE  C22015558   5.232   5.873   9.460  0.2794 -0.6190 -0.0001
  142SAPE  H20R15559   5.281   5.917   9.371  0.9852  1.7714  1.4659
  142SAPE  H20S15560   5.284   5.934   9.538 -0.5598 -1.5133  1.3101
  142SAPE  H20T15561   5.124   5.899   9.455 -0.0232 -1.4621  1.4404
  142SAPE   C3315562   5.405   4.739  10.277  0.4313  0.2396  0.3405
  142SAPE   H3X15563   5.349   4.669  10.343  1.8821 -0.2175  1.1493
  142SAPE   H3Y15564   5.510   4.730  10.312  0.5909  1.8636  0.3337
  142SAPE   C3415565   5.395   4.692  10.136 -0.2923  0.0818 -0.0658
  142SAPE   H4X15566   5.443   4.758  10.061 -1.5950  0.9609 -0.1631
  142SAPE   H4Y15567   5.287   4.686  10.110 -0.3567 -1.8583  0.4695
  142SAPE   C3515568   5.450   4.549  10.112  0.8453 -0.0982 -0.0285
  142SAPE   H5X15569   5.400   4.472  10.175  0.1206  0.8354  0.5725
  142SAPE   H5Y15570   5.558   4.559  10.137  1.3369 -1.8239 -1.2929
  142SAPE   C3615571   5.450   4.509   9.968  0.0521  0.1655  0.6242
  142SAPE   H6X15572   5.401   4.574   9.893 -2.6918 -2.8746 -0.4648
  142SAPE   H6Y15573   5.387   4.421   9.945 -1.6639  1.6616 -0.6679
  142SAPE   C3715574   5.597   4.476   9.920  0.1228 -0.7083  0.7957
  142SAPE   H7X15575   5.640   4.387   9.970  0.4740 -0.9556  0.0710
  142SAPE   H7Y15576   5.663   4.561   9.949 -0.3292  0.9747 -2.6119
  142SAPE   C3815577   5.622   4.454   9.768 -1.0778 -0.1360 -0.3715
  142SAPE   H8X15578   5.556   4.518   9.706 -1.5768 -0.7192 -0.4576
  142SAPE   H8Y15579   5.605   4.347   9.742  0.8394 -0.3568 -0.8754
  142SAPE   C3915580   5.776   4.474   9.730  0.8494 -0.0160 -0.6391
  142SAPE   H9X15581   5.832   4.396   9.786  0.3583  0.2979  0.3140
  142SAPE   H9Y15582   5.803   4.569   9.781  0.8516 -1.7428  2.8877
  142SAPE  C31015583   5.801   4.468   9.584 -0.0576 -0.2782 -0.2891
  142SAPE  H10X15584   5.753   4.553   9.530 -1.8585 -1.5280 -0.7360
  142SAPE  H10Y15585   5.759   4.372   9.546 -0.6294 -0.7058  1.3538
  142SAPE  C31115586   5.948   4.472   9.546 -0.1519 -0.0922 -0.7290
  142SAPE  H11X15587   6.019   4.405   9.600 -0.1701 -0.4333 -1.1245
  142SAPE  H11Y15588   5.988   4.569   9.582  3.0237 -0.6090 -2.4449
  142SAPE  C31215589   5.976   4.479   9.396  0.2843 -0.0541 -0.2467
  142SAPE  H12X15590   5.910   4.550   9.342 -0.1994 -0.2914  0.0268
  142SAPE  H12Y15591   5.964   4.379   9.351  3.4841 -0.3272 -0.7138
  142SAPE  C31315592   6.127   4.515   9.370  0.2585  0.8311  0.2260
  142SAPE  H13X15593   6.176   4.446   9.442 -1.8792 -0.8682  0.1564
  142SAPE  H13Y15594   6.148   4.623   9.384  0.5969  0.9821 -1.2580
  142SAPE  C31415595   6.158   4.480   9.220 -0.8444  0.0869  0.6417
  142SAPE  H14X15596   6.066   4.438   9.176 -1.4398  0.7189  1.2436
  142SAPE  H14Y15597   6.228   4.395   9.212 -1.7355 -0.5729 -0.3989
  142SAPE  C31515598   6.216   4.595   9.148  0.2060  0.1027 -0.4109
  142SAPE  H15X15599   6.320   4.615   9.182 -0.3109 -1.2077  2.2255
  142SAPE  H15Y15600   6.156   4.688   9.161  0.2203  0.0243  0.2433
  142SAPE  C31615601   6.205   4.578   9.000 -0.6340  0.6843 -0.2621
  142SAPE  H16X15602   6.101   4.549   8.974 -0.3080  0.6049 -1.5721
  142SAPE  H16Y15603   6.262   4.484   8.980 -0.4623  0.1474  2.4311
  142SAPE  C31715604   6.254   4.697   8.918  1.1780  0.5824  0.4608
  142SAPE  H17X15605   6.357   4.724   8.951  2.2677 -3.5871  1.1327
  142SAPE  H17Y15606   6.194   4.788   8.936 -0.0096  0.0947 -0.8389
  142SAPE  C31815607   6.234   4.674   8.768 -0.6599  0.3337  0.0460
  142SAPE  H18X15608   6.329   4.630   8.730 -0.5323  1.1494 -0.6134
  142SAPE  H18Y15609   6.221   4.774   8.720 -0.3422 -0.5177 -1.9444
  142SAPE  H18Z15610   6.151   4.603   8.751  0.7125 -0.8223 -2.5528
  143SAPE     N15611   0.185   3.697  11.264  0.2033  0.4186  0.2716
  143SAPE   HN115612   0.262   3.748  11.312  1.2458  1.5903 -2.4052
  143SAPE   HN215613   0.105   3.692  11.330 -1.3409  0.1473 -1.5463
  143SAPE   HN315614   0.217   3.600  11.246  1.1147  0.2767  2.3974
  143SAPE   C1215615   0.145   3.776  11.141 -0.0373  0.1153 -0.4930
  143SAPE  H12A15616   0.087   3.711  11.072 -0.5513  0.3595 -0.3002
  143SAPE  H12B15617   0.235   3.798  11.080  0.0657 -0.8521 -0.7103
  143SAPE   C1115618   0.062   3.900  11.162  0.8711  0.2936 -0.1367
  143SAPE  H11A15619   0.115   3.973  11.228 -1.0224 -0.2326  2.0926
  143SAPE  H11B15620  -0.032   3.864  11.209  1.3112  0.1149  0.6257
  143SAPE     P15621  -0.084   4.050  10.983  0.4168 -0.0485  0.0924
  143SAPE   O1315622  -0.200   3.969  11.025  0.1828  0.4215  0.8298
  143SAPE   O1415623  -0.075   4.185  11.042  0.5046  0.0567  0.1358
  143SAPE   O1215624   0.041   3.962  11.031  0.2659 -0.5839 -0.3563
  143SAPE   O1115625  -0.071   4.047  10.825  0.0452 -0.0683 -0.0223
  143SAPE    C115626  -0.049   3.915  10.771  0.1964  0.0173  0.5640
  143SAPE    HA15627   0.060   3.890  10.776  0.2389  0.0067 -0.2918
  143SAPE    HB15628  -0.101   3.833  10.825 -0.4357 -0.7617 -1.1603
  143SAPE    C215629  -0.102   3.910  10.629 -0.1024  0.1716  0.1052
  143SAPE    HS15630  -0.088   3.811  10.580  1.4557  0.4885 -0.1668
  143SAPE   O2115631  -0.033   4.023  10.554 -0.4888  0.2150  0.5434
  143SAPE   C2115632   0.054   3.987  10.460  0.5475 -0.2064 -0.2174
  143SAPE   O2215633   0.094   3.871  10.442  0.2149 -0.4009  0.0147
  143SAPE   C2215634   0.089   4.107  10.378 -0.3793 -0.1024  0.3555
  143SAPE   H2R15635  -0.002   4.156  10.335 -0.3478 -0.2729  0.0889
  143SAPE   H2S15636   0.140   4.185  10.439  1.6669 -1.3020  0.2620
  143SAPE    C315637  -0.253   3.929  10.625 -0.2125 -0.3453  0.3304
  143SAPE    HX15638  -0.276   4.011  10.697 -1.0430 -1.3814  1.2725
  143SAPE    HY15639  -0.309   3.837  10.652  1.0150 -1.1309  0.2723
  143SAPE   O3115640  -0.298   3.972  10.492 -0.8611 -0.4489 -0.0626
  143SAPE   C3115641  -0.296   3.881  10.397  0.1593 -0.0652 -0.3786
  143SAPE   O3215642  -0.281   3.761  10.414 -0.0269  0.0645  0.0939
  143SAPE   C3215643  -0.316   3.953  10.268  0.1254  0.3207  0.7845
  143SAPE   H2X15644  -0.261   4.049  10.268 -2.0720  1.6811 -1.5396
  143SAPE   H2Y15645  -0.420   3.989  10.265 -0.8395 -2.2588  0.3788
  143SAPE   C2315646   0.180   4.081  10.257 -0.3264  0.6399  0.4250
  143SAPE   H3R15647   0.124   4.013  10.189 -0.1154 -0.2405  1.1025
  143SAPE   H3S15648   0.273   4.033  10.295 -0.5379 -0.3711 -0.2946
  143SAPE   C2415649   0.218   4.203  10.184  0.2772 -0.0913 -0.6509
  143SAPE   H4R15650   0.290   4.263  10.244 -2.7207  0.0232  3.2193
  143SAPE   H4S15651   0.125   4.261  10.163  0.8622  0.1766 -2.8250
  143SAPE   C2515652   0.282   4.165  10.054 -0.6808  0.2578 -0.3936
  143SAPE   H5R15653   0.383   4.126  10.074 -0.7992  1.0339  1.9994
  143SAPE   C2615654   0.235   4.181   9.930  0.6181 -0.4350  0.5341
  143SAPE   H6R15655   0.299   4.159   9.842 -0.8643  1.3082 -1.0862
  143SAPE   C2715656   0.099   4.237   9.889  0.4954  0.6148 -0.0635
  143SAPE   H7R15657   0.104   4.335   9.837  1.2120 -0.4772 -2.1782
  143SAPE   H7S15658   0.045   4.266   9.982  1.5581 -0.7705  1.0446
  143SAPE   C2815659   0.015   4.135   9.805  0.1229  0.4417  0.1341
  143SAPE   H8R15660  -0.022   4.042   9.850 -0.4244  0.3264 -0.5324
  143SAPE   C2915661  -0.003   4.154   9.672  0.7728 -0.5393  0.4413
  143SAPE   H9R15662  -0.047   4.071   9.615 -1.0272  1.4933 -1.2603
  143SAPE  C21015663   0.032   4.264   9.578 -0.0202 -0.0994  0.3346
  143SAPE  H10R15664   0.062   4.359   9.628 -1.9759  0.2385  0.9240
  143SAPE  H10S15665  -0.057   4.284   9.515  0.2488 -2.1648 -0.8086
  143SAPE  C21115666   0.133   4.220   9.472 -0.3192 -0.1899 -0.1469
  143SAPE  H11R15667   0.208   4.144   9.499  0.3413 -0.0598 -1.5214
  143SAPE  C21215668   0.115   4.232   9.338 -0.9359 -0.5231 -0.5106
  143SAPE  H12R15669   0.195   4.183   9.281  0.3211 -1.1539  1.6486
  143SAPE  C21315670   0.002   4.305   9.265  0.5059  0.0807 -0.6075
  143SAPE  H13R15671   0.051   4.359   9.181 -1.2000  0.8377 -1.1409
  143SAPE  H13S15672  -0.033   4.384   9.335 -0.1474 -0.1052 -0.7177
  143SAPE  C21415673  -0.111   4.221   9.229 -0.4462 -0.9757  0.0309
  143SAPE  H14R15674  -0.106   4.115   9.258 -3.3814 -1.3306 -0.4997
  143SAPE  C21515675  -0.210   4.258   9.143 -0.1782  0.3485  0.6113
  143SAPE  H15R15676  -0.286   4.182   9.118  0.9258 -1.1711  1.6605
  143SAPE  C21615677  -0.232   4.388   9.074  0.7818  0.1527 -0.0868
  143SAPE  H16R15678  -0.169   4.468   9.120  1.7901 -1.6205  1.7776
  143SAPE  H16S15679  -0.336   4.420   9.097  0.1048 -0.7180 -1.7943
  143SAPE  C21715680  -0.217   4.379   8.920 -0.0732 -0.0587 -0.3775
  143SAPE  H17R15681  -0.293   4.304   8.891 -1.9045  0.5586  2.4204
  143SAPE  H17S15682  -0.121   4.325   8.903  1.0436  1.9565 -0.8370
  143SAPE  C21815683  -0.236   4.506   8.848 -0.1412 -0.6844 -0.2233
  143SAPE  H18R15684  -0.167   4.584   8.887  2.9809 -2.0201 -2.5554
  143SAPE  H18S15685  -0.338   4.547   8.861 -0.9889 -2.9824  0.9869
  143SAPE  C21915686  -0.210   4.497   8.696  0.1459  0.2380  0.4028
  143SAPE  H19R15687  -0.116   4.446   8.666  0.9193  1.5465  0.5229
  143SAPE  H19S15688  -0.219   4.603   8.667  0.3558 -0.1066 -0.9665
  143SAPE  C22015689  -0.327   4.419   8.621 -0.2247 -0.5598 -0.4353
  143SAPE  H20R15690  -0.426   4.468   8.623  0.2212  0.3224  1.1815
  143SAPE  H20S15691  -0.338   4.316   8.661 -0.6154 -0.1584  0.5109
  143SAPE  H20T15692  -0.295   4.422   8.514 -1.4524  3.2832 -0.8360
  143SAPE   C3315693  -0.287   3.867  10.142 -0.1522 -0.0427  0.3110
  143SAPE   H3X15694  -0.364   3.787  10.136 -1.0343  0.8331 -0.4285
  143SAPE   H3Y15695  -0.193   3.809  10.151 -1.6896 -3.0503 -1.3480
  143SAPE   C3415696  -0.301   3.943  10.013 -0.0439  0.5602 -0.3548
  143SAPE   H4X15697  -0.254   4.044  10.017  3.0221 -0.7964  0.5986
  143SAPE   H4Y15698  -0.408   3.944   9.984  0.3034  1.4074 -1.6760
  143SAPE   C3515699  -0.238   3.860   9.897  0.7688 -0.1166 -0.4975
  143SAPE   H5X15700  -0.275   3.757   9.916  0.5027  0.3096  1.6328
  143SAPE   H5Y15701  -0.129   3.869   9.917  0.6203 -1.7677  1.3793
  143SAPE   C3615702  -0.272   3.917   9.758  0.5030  0.1970 -0.2700
  143SAPE   H6X15703  -0.246   4.025   9.767  3.5739 -0.4617 -0.1835
  143SAPE   H6Y15704  -0.383   3.915   9.759  0.4961  0.0691  0.9107
  143SAPE   C3715705  -0.221   3.841   9.636 -0.7004 -0.5357  0.9683
  143SAPE   H7X15706  -0.244   3.738   9.667 -0.0820 -0.3132  2.2062
  143SAPE   H7Y15707  -0.111   3.859   9.631 -0.6184 -1.1356  0.4870
  143SAPE   C3815708  -0.297   3.863   9.504  0.0381 -0.0276  0.5839
  143SAPE   H8X15709  -0.304   3.971   9.479 -0.7392 -0.5631 -1.7881
  143SAPE   H8Y15710  -0.397   3.817   9.498 -0.7838  1.4604  2.0158
  143SAPE   C3915711  -0.207   3.804   9.390 -0.1293  0.2944 -0.0054
  143SAPE   H9X15712  -0.196   3.695   9.408 -0.5447 -0.0747 -1.7789
  143SAPE   H9Y15713  -0.105   3.846   9.405  0.2021 -1.2987  3.0530
  143SAPE  C31015714  -0.273   3.833   9.258 -0.2726 -0.3027  0.1366
  143SAPE  H10X15715  -0.303   3.940   9.248 -0.1182 -0.3865 -1.5973
  143SAPE  H10Y15716  -0.362   3.771   9.233 -1.5751  2.4392 -2.8332
  143SAPE  C31115717  -0.173   3.810   9.141  0.1772  0.4785 -0.1413
  143SAPE  H11X15718  -0.152   3.701   9.134 -0.4375  0.2647  1.0608
  143SAPE  H11Y15719  -0.073   3.850   9.168  0.8093 -1.0878 -0.0234
  143SAPE  C31215720  -0.242   3.866   9.017  0.0948 -0.5432  0.7376
  143SAPE  H12X15721  -0.254   3.977   9.013 -0.2904 -0.5772 -2.9880
  143SAPE  H12Y15722  -0.338   3.813   9.002 -0.7846  1.1661 -0.0402
  143SAPE  C31315723  -0.169   3.846   8.876 -0.8658 -0.5389 -0.9413
  143SAPE  H13X15724  -0.224   3.902   8.797 -1.2934  0.3835 -0.0083
  143SAPE  H13Y15725  -0.151   3.739   8.850 -1.8944 -1.3337  1.3354
  143SAPE  C31415726  -0.029   3.909   8.877  0.7056  0.2784 -0.8639
  143SAPE  H14X15727   0.033   3.851   8.949 -0.4089 -0.1389 -0.2222
  143SAPE  H14Y15728  -0.032   4.011   8.922  1.5241  0.5205 -1.3131
  143SAPE  C31515729   0.048   3.904   8.740 -0.1582  0.5882 -1.2037
  143SAPE  H15X15730   0.155   3.890   8.762 -0.3106 -0.3851 -1.0023
  143SAPE  H15Y15731   0.039   4.004   8.692  0.4438  1.3916  0.3024
  143SAPE  C31615732   0.021   3.773   8.656  0.3483 -0.2246 -0.4366
  143SAPE  H16X15733  -0.086   3.777   8.626  0.1460  3.9219  0.1970
  143SAPE  H16Y15734   0.042   3.697   8.735 -0.6678  2.1120  2.2874
  143SAPE  C31715735   0.122   3.754   8.544 -0.2678 -0.1496  1.0732
  143SAPE  H17X15736   0.144   3.645   8.534 -0.4853 -0.3545  2.5962
  143SAPE  H17Y15737   0.217   3.803   8.574 -1.4019  2.4012  0.7191
  143SAPE  C31815738   0.061   3.807   8.412 -0.0270  0.7162  0.2014
  143SAPE  H18X15739  -0.049   3.792   8.417 -0.2372  2.1161  0.3036
  143SAPE  H18Y15740   0.117   3.760   8.328 -0.2573 -1.9403  1.4553
  143SAPE  H18Z15741   0.071   3.918   8.412 -0.6690  0.7848 -0.4502
  144SAPE     N15742   2.576   2.771  11.027  0.0124  0.0723  0.6306
  144SAPE   HN115743   2.498   2.810  11.083  0.4293  0.1254  1.1845
  144SAPE   HN215744   2.537   2.725  10.942  1.7728 -1.6446  0.6536
  144SAPE   HN315745   2.631   2.702  11.083 -1.7150 -0.2173  2.0556
  144SAPE   C1215746   2.676   2.872  10.982 -0.2482 -0.5519 -0.5217
  144SAPE  H12A15747   2.727   2.912  11.072 -2.3133  0.0448  0.4240
  144SAPE  H12B15748   2.635   2.960  10.927  2.6693  0.9359 -0.5085
  144SAPE   C1115749   2.781   2.826  10.881  0.2712 -0.3077 -0.7796
  144SAPE  H11A15750   2.825   2.914  10.830 -1.6301  0.6349 -0.8663
  144SAPE  H11B15751   2.734   2.766  10.800  0.0789 -1.1793 -0.0502
  144SAPE     P15752   3.029   2.765  10.932 -0.3431  0.2143  0.1385
  144SAPE   O1315753   3.060   2.896  10.985  0.2198  0.0855 -0.8469
  144SAPE   O1415754   3.106   2.652  10.984 -0.6318  0.5925  0.2715
  144SAPE   O1215755   2.874   2.740  10.955 -0.2988  0.2883 -0.3881
  144SAPE   O1115756   3.049   2.780  10.778 -0.5477 -0.7191 -0.4974
  144SAPE    C115757   3.105   2.901  10.712 -0.0086  0.3918 -0.5506
  144SAPE    HA15758   3.040   2.989  10.730 -1.7334 -1.0234  0.6084
  144SAPE    HB15759   3.201   2.925  10.762  0.7481 -1.4793 -1.0020
  144SAPE    C215760   3.144   2.888  10.562 -0.5971 -0.5475  0.0600
  144SAPE    HS15761   3.143   2.990  10.518 -2.1306 -1.2280 -1.6496
  144SAPE   O2115762   3.055   2.808  10.481  0.3310 -0.1578  0.2620
  144SAPE   C2115763   2.930   2.853  10.478  0.0737  0.0442  0.9323
  144SAPE   O2215764   2.889   2.956  10.527  0.1162  0.1860 -0.6128
  144SAPE   C2215765   2.831   2.754  10.401  0.4473 -0.1788  0.1742
  144SAPE   H2R15766   2.823   2.659  10.458  3.6172 -0.3695  0.4897
  144SAPE   H2S15767   2.740   2.817  10.403  0.5379  0.0150 -1.0191
  144SAPE    C315768   3.288   2.829  10.538 -0.0851 -0.1231 -0.0958
  144SAPE    HX15769   3.289   2.718  10.536 -1.0280 -0.1300 -0.3288
  144SAPE    HY15770   3.348   2.865  10.625 -0.8533  0.1052  0.3436
  144SAPE   O3115771   3.350   2.874  10.417  0.6374  0.6369 -0.2614
  144SAPE   C3115772   3.355   2.798  10.308  0.5069  0.6069  0.2697
  144SAPE   O3215773   3.309   2.684  10.299  0.5036  0.7005 -0.4695
  144SAPE   C3215774   3.421   2.882  10.192 -0.6186  0.2208 -0.4332
  144SAPE   H2X15775   3.520   2.920  10.224 -0.2560 -0.5498 -0.6262
  144SAPE   H2Y15776   3.350   2.964  10.166 -0.2024  0.5580 -0.5141
  144SAPE   C2315777   2.870   2.712  10.258 -0.1671  0.4965 -0.1054
  144SAPE   H3R15778   2.828   2.612  10.234 -0.0577  0.3009  0.5127
  144SAPE   H3S15779   2.979   2.693  10.257 -0.1148  0.6801 -2.1901
  144SAPE   C2415780   2.833   2.817  10.156  0.3149  0.4164  0.3500
  144SAPE   H4R15781   2.722   2.820  10.148  0.4274  0.3923 -1.8471
  144SAPE   H4S15782   2.857   2.767  10.060 -2.3124 -0.6460  0.1577
  144SAPE   C2515783   2.911   2.947  10.154 -0.0198 -0.4407 -0.2640
  144SAPE   H5R15784   2.878   3.019  10.231 -0.4290 -1.4447  0.5238
  144SAPE   C2615785   2.999   2.990  10.065  0.1145 -0.3130  0.4762
  144SAPE   H6R15786   3.059   3.079  10.087 -1.0536  0.5990  0.0287
  144SAPE   C2715787   3.051   2.917   9.940  0.5021 -0.0774 -0.5292
  144SAPE   H7R15788   2.967   2.854   9.903 -0.1157 -0.7215  1.8026
  144SAPE   H7S15789   3.126   2.838   9.962  0.1384 -1.5937 -4.0441
  144SAPE   C2815790   3.083   3.012   9.835  0.9923 -0.1368  0.5569
  144SAPE   H8R15791   3.095   3.117   9.866 -1.7830  0.4432 -0.0155
  144SAPE   C2915792   3.105   2.973   9.709  0.1427  0.4042 -0.1503
  144SAPE   H9R15793   3.154   3.044   9.640  2.0945  1.0951  1.8459
  144SAPE  C21015794   3.099   2.832   9.643  0.3979  0.0635 -0.1255
  144SAPE  H10R15795   3.071   2.754   9.718 -0.1700 -0.1253 -0.5287
  144SAPE  H10S15796   3.199   2.808   9.601  0.1193 -1.3886 -0.0313
  144SAPE  C21115797   2.993   2.828   9.535  0.0153  0.1774 -0.1551
  144SAPE  H11R15798   2.891   2.826   9.574 -0.7209 -0.0831 -1.9845
  144SAPE  C21215799   3.002   2.828   9.397 -0.3281  0.2792  0.1358
  144SAPE  H12R15800   2.911   2.824   9.336  0.3712  1.6854 -1.0686
  144SAPE  C21315801   3.127   2.836   9.317  0.1086  0.6970 -0.2693
  144SAPE  H13R15802   3.143   2.742   9.260  1.2956  0.6698  0.0749
  144SAPE  H13S15803   3.219   2.851   9.378  0.0305 -0.1232  0.0656
  144SAPE  C21415804   3.118   2.951   9.227  0.1683  0.0275  0.6237
  144SAPE  H14R15805   3.204   3.017   9.244  1.0959 -1.4081  1.8380
  144SAPE  C21515806   3.039   2.964   9.113 -0.4497 -0.0266 -0.0050
  144SAPE  H15R15807   3.055   3.058   9.058 -0.2194  0.6499  1.1918
  144SAPE  C21615808   2.948   2.863   9.056  0.4667 -0.0211  0.2954
  144SAPE  H16R15809   2.871   2.914   8.995 -0.9274 -0.2203  1.8025
  144SAPE  H16S15810   2.888   2.813   9.136 -0.3553 -0.3627 -0.5220
  144SAPE  C21715811   3.021   2.754   8.975  0.3657  0.4302  0.5262
  144SAPE  H17R15812   3.118   2.723   9.020  1.5302  2.6620 -0.3334
  144SAPE  H17S15813   3.061   2.788   8.878  1.6339 -0.6061  0.6640
  144SAPE  C21815814   2.935   2.627   8.955  0.5324  0.7262 -0.3299
  144SAPE  H18R15815   2.991   2.555   8.892  0.1550 -0.4292  0.6203
  144SAPE  H18S15816   2.834   2.645   8.911 -0.0130 -0.5468  0.3526
  144SAPE  C21915817   2.901   2.551   9.087  1.1569  0.3442  0.0292
  144SAPE  H19R15818   2.836   2.610   9.154  2.0972  0.7742  0.5748
  144SAPE  H19S15819   2.992   2.515   9.140  0.6434  0.1942  0.8113
  144SAPE  C22015820   2.817   2.422   9.062 -0.2218  0.0732 -0.1860
  144SAPE  H20R15821   2.786   2.384   9.161  2.4905  0.3796  0.8803
  144SAPE  H20S15822   2.878   2.342   9.014  1.7924  2.1872 -1.3701
  144SAPE  H20T15823   2.725   2.448   9.005  0.3029  1.3908 -0.4691
  144SAPE   C3315824   3.434   2.793  10.069 -0.4687 -0.4479 -0.6159
  144SAPE   H3X15825   3.342   2.737  10.044 -1.8124  1.1013  0.6244
  144SAPE   H3Y15826   3.519   2.725  10.088 -0.1813 -1.1670 -3.8570
  144SAPE   C3415827   3.475   2.885   9.948  0.2237  0.7997  0.6424
  144SAPE   H4X15828   3.579   2.919   9.966  1.1726  0.1295 -2.7439
  144SAPE   H4Y15829   3.402   2.968   9.952 -1.1533 -0.3133 -0.1006
  144SAPE   C3515830   3.481   2.807   9.814 -0.0289 -0.1381  1.2868
  144SAPE   H5X15831   3.385   2.751   9.800  0.6872 -1.7611  2.5408
  144SAPE   H5Y15832   3.560   2.729   9.822  0.5461  0.2049 -0.5748
  144SAPE   C3615833   3.507   2.901   9.699  0.0594  0.0262  0.0805
  144SAPE   H6X15834   3.616   2.917   9.708  0.3643 -1.4313 -0.6242
  144SAPE   H6Y15835   3.462   2.999   9.727  1.5575  0.3885  1.3358
  144SAPE   C3715836   3.479   2.853   9.552 -0.1159 -0.3797  0.6106
  144SAPE   H7X15837   3.371   2.855   9.526 -0.3193 -0.2461  1.4283
  144SAPE   H7Y15838   3.518   2.754   9.521 -1.4709 -0.2369 -1.7622
  144SAPE   C3815839   3.559   2.947   9.451 -0.0151 -0.1104  0.0141
  144SAPE   H8X15840   3.575   2.891   9.356 -2.3571  0.4327 -0.7818
  144SAPE   H8Y15841   3.658   2.978   9.492 -0.3411 -0.3855  1.0314
  144SAPE   C3915842   3.474   3.059   9.401 -0.3169  1.0023 -0.1201
  144SAPE   H9X15843   3.443   3.120   9.488  1.5849 -0.3562  1.6004
  144SAPE   H9Y15844   3.380   3.020   9.356 -1.5804  2.4626  1.1421
  144SAPE  C31015845   3.528   3.147   9.290 -0.1420 -0.6680  0.3132
  144SAPE  H10X15846   3.623   3.185   9.333  1.0700 -1.6638 -1.3573
  144SAPE  H10Y15847   3.461   3.235   9.286 -1.1739 -1.2487  2.8124
  144SAPE  C31115848   3.554   3.073   9.155  0.0003  0.2445  0.4698
  144SAPE  H11X15849   3.635   3.001   9.178  0.2508  0.5717  0.6289
  144SAPE  H11Y15850   3.589   3.147   9.080 -1.8853 -0.0808 -0.7896
  144SAPE  C31215851   3.419   3.011   9.095 -0.3205 -0.2285 -0.3325
  144SAPE  H12X15852   3.345   3.093   9.098 -0.9995 -0.7519 -1.7105
  144SAPE  H12Y15853   3.391   2.928   9.162 -0.7367  1.8868  2.2592
  144SAPE  C31315854   3.455   2.964   8.948 -0.2092  0.4419  0.5773
  144SAPE  H13X15855   3.517   2.872   8.958 -0.8736  0.0005  0.6807
  144SAPE  H13Y15856   3.511   3.034   8.882  1.8986 -1.7082 -0.0165
  144SAPE  C31415857   3.335   2.925   8.862  0.2299 -0.1183  0.6851
  144SAPE  H14X15858   3.281   3.022   8.854  1.2180  0.3584 -0.6404
  144SAPE  H14Y15859   3.265   2.860   8.919 -0.6066 -0.0880 -0.2839
  144SAPE  C31515860   3.376   2.871   8.722  0.4957  0.1545  0.3618
  144SAPE  H15X15861   3.457   2.795   8.736  0.0067 -0.2385  1.0976
  144SAPE  H15Y15862   3.409   2.945   8.646 -1.5948  1.9758  1.1271
  144SAPE  C31615863   3.269   2.805   8.637 -0.0693 -0.2588  0.2196
  144SAPE  H16X15864   3.198   2.885   8.608 -0.9116 -0.5505  1.4146
  144SAPE  H16Y15865   3.236   2.714   8.692 -1.8400  0.3582  0.2275
  144SAPE  C31715866   3.333   2.753   8.503 -0.1474 -0.1441  0.5763
  144SAPE  H17X15867   3.392   2.662   8.528  0.9531  0.7751  1.4074
  144SAPE  H17Y15868   3.400   2.830   8.460  1.7818 -0.7366  2.3468
  144SAPE  C31815869   3.221   2.709   8.415 -0.2192  0.5236  0.2303
  144SAPE  H18X15870   3.159   2.633   8.468 -1.3455  0.0501 -1.6744
  144SAPE  H18Y15871   3.246   2.668   8.315 -1.8622 -0.9347  0.3641
  144SAPE  H18Z15872   3.152   2.794   8.395 -0.9289 -0.0016  0.4167
  145SAPE     N15873   2.747   3.994  10.747 -0.0255  0.0323 -0.4299
  145SAPE   HN115874   2.700   4.038  10.829  3.5391  2.6904  0.4484
  145SAPE   HN215875   2.712   3.897  10.756  0.5677 -0.1499 -0.0743
  145SAPE   HN315876   2.846   4.002  10.775  0.0586  0.8355 -0.9050
  145SAPE   C1215877   2.710   4.075  10.629  0.8965  0.1439 -0.3924
  145SAPE  H12A15878   2.740   4.010  10.544  0.9634  0.6326 -0.7476
  145SAPE  H12B15879   2.760   4.174  10.629  0.5898  0.3018 -0.0078
  145SAPE   C1115880   2.562   4.105  10.625 -0.6945 -0.0401  0.1583
  145SAPE  H11A15881   2.501   4.012  10.632 -1.0062  0.1583  0.0921
  145SAPE  H11B15882   2.545   4.150  10.525  2.6999 -0.8743 -0.9290
  145SAPE     P15883   2.444   4.157  10.869 -0.1003 -0.0331 -0.0040
  145SAPE   O1315884   2.508   4.044  10.929  0.3531  0.3862  0.1465
  145SAPE   O1415885   2.435   4.281  10.948  0.1796  0.3445 -0.1038
  145SAPE   O1215886   2.520   4.198  10.733  0.2669  0.2772  0.1924
  145SAPE   O1115887   2.295   4.116  10.820  0.3348 -0.5279  0.3490
  145SAPE    C115888   2.225   4.217  10.750  0.3187 -1.0007  0.3217
  145SAPE    HA15889   2.220   4.312  10.809  2.2757  0.5674 -1.8411
  145SAPE    HB15890   2.267   4.235  10.649 -0.5229  3.4117  0.5535
  145SAPE    C215891   2.081   4.164  10.713  0.9849  0.1436  0.3356
  145SAPE    HS15892   2.025   4.142  10.806  1.2094 -2.3011 -0.0401
  145SAPE   O2115893   2.092   4.056  10.617 -0.1804 -0.1825  0.4343
  145SAPE   C2115894   1.994   3.973  10.606 -0.3624 -0.2793  0.1829
  145SAPE   O2215895   1.892   3.976  10.676  0.3754  0.1490  0.5078
  145SAPE   C2215896   2.034   3.872  10.505 -0.0028 -0.5801  0.3431
  145SAPE   H2R15897   2.088   3.930  10.427 -2.8214  1.0998 -0.4960
  145SAPE   H2S15898   2.101   3.797  10.553 -0.0582  0.7400  2.6277
  145SAPE    C315899   1.993   4.286  10.656 -0.4450  0.1584  0.3728
  145SAPE    HX15900   2.026   4.327  10.558  1.4440 -0.2872  0.7855
  145SAPE    HY15901   2.004   4.375  10.722 -2.3421  1.6174 -1.1431
  145SAPE   O3115902   1.855   4.251  10.641 -0.3290  0.1641  0.7314
  145SAPE   C3115903   1.773   4.277  10.736 -0.7879  0.6661  0.0311
  145SAPE   O3215904   1.805   4.341  10.836  0.4684  0.6516 -0.5662
  145SAPE   C3215905   1.628   4.231  10.707  0.5498 -0.1534  0.2024
  145SAPE   H2X15906   1.565   4.322  10.719 -0.0445 -0.3849 -1.0265
  145SAPE   H2Y15907   1.600   4.156  10.785  1.1988 -0.9822 -0.3455
  145SAPE   C2315908   1.915   3.794  10.449  0.1761 -0.2548  0.1971
  145SAPE   H3R15909   1.842   3.859  10.397  2.1683  1.1785 -0.9712
  145SAPE   H3S15910   1.868   3.744  10.536 -1.3612 -0.0179 -0.4766
  145SAPE   C2415911   1.934   3.688  10.345  0.4140  0.1452  0.2155
  145SAPE   H4R15912   1.838   3.644  10.312  0.9586 -0.5137 -0.5539
  145SAPE   H4S15913   1.982   3.598  10.391 -1.4045 -0.0976  1.7577
  145SAPE   C2515914   2.012   3.739  10.230 -0.3243  0.1520 -0.3876
  145SAPE   H5R15915   2.121   3.736  10.244 -0.1648  2.2084 -0.7644
  145SAPE   C2615916   1.970   3.802  10.121  0.0224 -0.3658  0.0735
  145SAPE   H6R15917   2.048   3.832  10.050  0.2264  3.5780  1.7121
  145SAPE   C2715918   1.832   3.841  10.091 -0.4127 -0.1636 -0.0952
  145SAPE   H7R15919   1.763   3.802  10.169 -0.1516 -0.5723 -0.0647
  145SAPE   H7S15920   1.819   3.782   9.997  0.9988 -1.1829  0.3043
  145SAPE   C2815921   1.809   3.984  10.071  0.0751 -0.4946  0.7912
  145SAPE   H8R15922   1.766   4.039  10.156 -1.3788 -1.3133  0.6054
  145SAPE   C2915923   1.804   4.042   9.949 -0.1591  0.4506 -0.0648
  145SAPE   H9R15924   1.774   4.147   9.933 -1.3850 -0.1607 -2.2629
  145SAPE  C21015925   1.833   3.974   9.816 -0.1903  0.0907 -0.3157
  145SAPE  H10R15926   1.730   3.945   9.786 -0.3400 -0.0720  0.3325
  145SAPE  H10S15927   1.897   3.885   9.834 -2.8841 -1.5126  2.3469
  145SAPE  C21115928   1.892   4.062   9.709  0.2084 -0.4038  1.0998
  145SAPE  H11R15929   1.970   4.132   9.744 -0.4681  0.2992  1.2219
  145SAPE  C21215930   1.854   4.075   9.579  0.3674  0.0070 -0.5415
  145SAPE  H12R15931   1.913   4.144   9.517  0.9508  0.0656  0.0547
  145SAPE  C21315932   1.752   3.996   9.499  0.6395 -0.4386  0.6746
  145SAPE  H13R15933   1.673   3.959   9.569 -2.2998  1.5636 -1.3358
  145SAPE  H13S15934   1.808   3.903   9.477 -0.2304 -1.2348  1.6939
  145SAPE  C21415935   1.694   4.058   9.381 -0.9575 -0.3093  1.1342
  145SAPE  H14R15936   1.643   4.153   9.404  1.4761  1.7187 -1.3428
  145SAPE  C21515937   1.693   4.005   9.261  0.5073  0.4165 -0.4400
  145SAPE  H15R15938   1.641   4.062   9.182  0.1796  1.0457  0.2137
  145SAPE  C21615939   1.748   3.872   9.212  0.1968  0.4960 -0.0259
  145SAPE  H16R15940   1.672   3.811   9.157 -1.3538  1.6574  0.7684
  145SAPE  H16S15941   1.788   3.806   9.292  1.1892  1.3635  0.2075
  145SAPE  C21715942   1.864   3.893   9.112  0.5870 -0.3393  0.1228
  145SAPE  H17R15943   1.903   3.792   9.087  0.3410 -1.2115  2.8768
  145SAPE  H17S15944   1.948   3.934   9.172 -0.1125 -1.4782  1.9746
  145SAPE  C21815945   1.829   3.965   8.981 -0.0540  0.0269 -0.5657
  145SAPE  H18R15946   1.794   4.063   9.018 -1.5951 -1.1141  1.2126
  145SAPE  H18S15947   1.744   3.913   8.932 -1.2792  1.6878 -0.2445
  145SAPE  C21915948   1.950   3.966   8.886 -0.2298 -0.5940 -0.1669
  145SAPE  H19R15949   1.948   3.861   8.849  0.0594 -1.4073  1.9832
  145SAPE  H19S15950   2.048   3.983   8.936 -0.2027 -0.9179 -0.1083
  145SAPE  C22015951   1.927   4.058   8.767 -0.0715 -0.2974 -0.1935
  145SAPE  H20R15952   1.963   4.016   8.671  1.5173 -0.0855  0.2826
  145SAPE  H20S15953   1.986   4.152   8.766  0.4326 -0.5691 -3.2204
  145SAPE  H20T15954   1.817   4.076   8.765  0.1609  1.1923 -0.2923
  145SAPE   C3315955   1.609   4.191  10.559 -0.1839 -0.1736  0.0987
  145SAPE   H3X15956   1.689   4.116  10.542 -0.1606 -0.2356  0.4726
  145SAPE   H3Y15957   1.634   4.286  10.507  0.6462  0.0256  0.8208
  145SAPE   C3415958   1.468   4.128  10.534  0.9251  0.5120 -0.6687
  145SAPE   H4X15959   1.395   4.198  10.579  0.0302  1.6257 -3.6013
  145SAPE   H4Y15960   1.446   4.037  10.594  1.5148  0.4846 -0.4912
  145SAPE   C3515961   1.438   4.109  10.386  0.1572 -0.5783 -0.4705
  145SAPE   H5X15962   1.495   4.190  10.335 -1.1326 -0.3862 -1.6832
  145SAPE   H5Y15963   1.333   4.132  10.359  0.1172  0.1952  0.3139
  145SAPE   C3615964   1.479   3.970  10.345 -0.8363  0.8123  0.1569
  145SAPE   H6X15965   1.434   3.900  10.419 -2.9063  1.6090 -0.2912
  145SAPE   H6Y15966   1.590   3.957  10.346 -0.6908  1.9921  0.4278
  145SAPE   C3715967   1.417   3.922  10.210  0.0254 -0.7021  0.7623
  145SAPE   H7X15968   1.313   3.895  10.236 -1.4697  2.5589 -1.1757
  145SAPE   H7Y15969   1.479   3.835  10.180  1.1417  0.5904 -0.9042
  145SAPE   C3815970   1.427   4.013  10.089 -0.4970 -0.2083  0.2624
  145SAPE   H8X15971   1.527   4.061  10.093 -0.3868 -0.3571 -0.5063
  145SAPE   H8Y15972   1.365   4.104  10.101  0.0292  0.1682  0.2030
  145SAPE   C3915973   1.382   3.928   9.970  0.6461 -0.3134  0.6217
  145SAPE   H9X15974   1.274   3.903   9.972 -0.5020  3.4913 -2.1845
  145SAPE   H9Y15975   1.445   3.838   9.957 -0.1161 -0.9990  1.5167
  145SAPE  C31015976   1.394   4.014   9.837  0.3042 -0.4392 -0.7438
  145SAPE  H10X15977   1.488   4.072   9.830  1.7439 -2.8329 -3.0659
  145SAPE  H10Y15978   1.313   4.091   9.838  1.1788  0.6309  2.6362
  145SAPE  C31115979   1.374   3.931   9.713 -0.4228  0.2652 -0.0560
  145SAPE  H11X15980   1.289   3.860   9.725  0.8338 -1.1462  0.9813
  145SAPE  H11Y15981   1.465   3.874   9.682 -0.7355  1.4859 -3.6861
  145SAPE  C31215982   1.352   4.021   9.588  0.4680 -0.6861  0.2058
  145SAPE  H12X15983   1.413   4.113   9.583  0.4113 -0.7012 -1.0744
  145SAPE  H12Y15984   1.255   4.069   9.614  0.9797 -0.6143  2.1323
  145SAPE  C31315985   1.348   3.943   9.452  0.0493  0.6454  0.0511
  145SAPE  H13X15986   1.272   3.862   9.458  2.0569 -1.2538  1.2938
  145SAPE  H13Y15987   1.452   3.904   9.444  0.5331  0.9816  3.2468
  145SAPE  C31415988   1.308   4.013   9.325  0.2985 -0.0506  0.4861
  145SAPE  H14X15989   1.383   4.095   9.320  0.3017  0.0414  1.7698
  145SAPE  H14Y15990   1.212   4.069   9.329  2.0564  3.1526  2.4527
  145SAPE  C31515991   1.304   3.923   9.196  0.0627  0.6107  0.1057
  145SAPE  H15X15992   1.216   3.856   9.205  0.2360  0.6492  2.6493
  145SAPE  H15Y15993   1.396   3.862   9.186  0.9843  2.0532 -0.5135
  145SAPE  C31615994   1.271   4.001   9.069 -0.6557 -0.4767  0.3701
  145SAPE  H16X15995   1.335   4.088   9.040 -0.6470 -1.3670 -2.6285
  145SAPE  H16Y15996   1.180   4.059   9.097 -0.2568 -0.1143  0.9390
  145SAPE  C31715997   1.270   3.917   8.938 -0.1510  0.4090 -0.1010
  145SAPE  H17X15998   1.205   3.829   8.958  0.0476  0.5718  1.3660
  145SAPE  H17Y15999   1.375   3.887   8.916 -0.3472 -0.5267  0.1619
  145SAPE  C31816000   1.217   3.995   8.821 -0.0782 -0.5127 -0.6259
  145SAPE  H18X16001   1.274   4.090   8.814 -1.9472  0.8900  1.6912
  145SAPE  H18Y16002   1.114   4.033   8.834 -0.0895 -0.1015 -1.7687
  145SAPE  H18Z16003   1.214   3.947   8.720 -1.0803 -0.2444 -0.7404
  146SAPE     N16004   3.190   5.817  10.425  0.4011  0.9023 -0.0520
  146SAPE   HN116005   3.232   5.737  10.374 -1.7289 -0.2255 -0.1566
  146SAPE   HN216006   3.107   5.846  10.368  0.7891  1.5063 -0.3286
  146SAPE   HN316007   3.254   5.899  10.433 -0.8952  1.8511  0.8869
  146SAPE   C1216008   3.146   5.767  10.557  0.3544 -0.6082 -0.3464
  146SAPE  H12A16009   3.051   5.710  10.547  1.3754 -2.3763 -0.2506
  146SAPE  H12B16010   3.134   5.861  10.616  4.3261  0.8890 -1.6140
  146SAPE   C1116011   3.246   5.677  10.624 -0.7476 -0.8848  0.0425
  146SAPE  H11A16012   3.272   5.591  10.558  1.0202  0.6512 -1.3719
  146SAPE  H11B16013   3.190   5.638  10.712  2.0445 -3.2412  0.9453
  146SAPE     P16014   3.414   5.762  10.807  0.1270 -0.2824  0.0686
  146SAPE   O1316015   3.421   5.897  10.861 -0.4988 -0.8394 -0.2435
  146SAPE   O1416016   3.348   5.657  10.892  0.1481  0.4130 -0.2952
  146SAPE   O1216017   3.347   5.771  10.667 -0.6160  0.5365  0.8667
  146SAPE   O1116018   3.563   5.707  10.785  0.0654 -0.2589 -0.0912
  146SAPE    C116019   3.587   5.583  10.715 -0.9427  0.7866 -0.5804
  146SAPE    HA16020   3.634   5.511  10.785 -0.8021  1.2796 -0.1597
  146SAPE    HB16021   3.497   5.533  10.676 -0.1067 -0.6445 -0.7279
  146SAPE    C216022   3.686   5.608  10.605  0.4239  0.4751 -0.0365
  146SAPE    HS16023   3.694   5.510  10.554 -2.5461 -0.1305  0.4739
  146SAPE   O2116024   3.817   5.656  10.663  0.0296 -0.0249  0.0135
  146SAPE   C2116025   3.894   5.566  10.725 -0.4171  0.6967 -0.3463
  146SAPE   O2216026   3.879   5.448  10.726  0.0603 -0.5007  0.0645
  146SAPE   C2216027   3.992   5.632  10.823 -0.1666 -0.3074  0.4148
  146SAPE   H2R16028   4.059   5.701  10.767 -0.4539  0.0385  0.4915
  146SAPE   H2S16029   3.925   5.676  10.900 -1.7621 -0.1291 -1.0284
  146SAPE    C316030   3.641   5.708  10.494  0.1487  0.5186 -0.1336
  146SAPE    HX16031   3.683   5.808  10.520  1.7461 -0.2379  0.3436
  146SAPE    HY16032   3.533   5.731  10.485  0.5990  2.1203 -2.2929
  146SAPE   O3116033   3.691   5.670  10.367  0.0815 -0.8602  0.2726
  146SAPE   C3116034   3.650   5.755  10.273 -0.2135  0.3359  0.3905
  146SAPE   O3216035   3.621   5.871  10.287 -0.6752 -0.2614  0.0880
  146SAPE   C3216036   3.645   5.687  10.139 -0.6330 -0.2257 -1.0148
  146SAPE   H2X16037   3.669   5.578  10.142  1.9879  0.2834 -0.9159
  146SAPE   H2Y16038   3.739   5.731  10.098  1.0240 -0.1671  2.5178
  146SAPE   C2316039   4.081   5.522  10.892 -0.1725 -0.3701  0.2948
  146SAPE   H3R16040   4.026   5.435  10.932 -1.6273  0.4725  0.1883
  146SAPE   H3S16041   4.144   5.568  10.971 -2.4640  1.5531  1.1383
  146SAPE   C2416042   4.180   5.451  10.795  0.0288  0.5277 -0.2247
  146SAPE   H4R16043   4.128   5.376  10.732  1.7117  0.3747 -1.4960
  146SAPE   H4S16044   4.254   5.397  10.859 -1.2840 -0.4000  0.5690
  146SAPE   C2516045   4.267   5.545  10.716  0.5023  0.5849  0.1496
  146SAPE   H5R16046   4.305   5.626  10.780  1.2740  1.8600 -1.8465
  146SAPE   C2616047   4.295   5.540  10.585 -0.3673  1.0139  0.0257
  146SAPE   H6R16048   4.363   5.615  10.541  0.9994  0.8344  1.7224
  146SAPE   C2716049   4.240   5.440  10.480 -0.4177  0.1973  0.5536
  146SAPE   H7R16050   4.223   5.342  10.529 -0.1984  0.5557  1.3689
  146SAPE   H7S16051   4.314   5.428  10.398 -2.3416 -0.0619 -1.2478
  146SAPE   C2816052   4.112   5.490  10.420 -0.0622 -0.8064 -0.0566
  146SAPE   H8R16053   4.028   5.501  10.491  1.0147 -1.7449  1.4176
  146SAPE   C2916054   4.086   5.506  10.288  0.1395 -0.1219  0.1009
  146SAPE   H9R16055   3.984   5.540  10.266 -0.6803 -1.8431  0.9905
  146SAPE  C21016056   4.166   5.473  10.167  0.2144 -0.0062  0.3978
  146SAPE  H10R16057   4.273   5.475  10.199  0.7001 -2.1496 -0.9024
  146SAPE  H10S16058   4.151   5.553  10.091 -0.3819  1.4130  1.9358
  146SAPE  C21116059   4.142   5.329  10.127  0.1282  0.1045  0.6804
  146SAPE  H11R16060   4.194   5.256  10.192 -0.4923 -1.3759 -0.4116
  146SAPE  C21216061   4.078   5.286  10.017  0.4581 -0.3626 -0.1362
  146SAPE  H12R16062   4.071   5.176  10.006 -0.6049 -0.5212  1.6522
  146SAPE  C21316063   4.007   5.368   9.918  0.3822  0.2250  0.0121
  146SAPE  H13R16064   4.057   5.335   9.825 -0.6984 -0.9283 -0.1931
  146SAPE  H13S16065   4.034   5.476   9.923  1.7833 -0.1505  2.9923
  146SAPE  C21416066   3.859   5.356   9.918 -0.4211 -0.2937 -0.2607
  146SAPE  H14R16067   3.815   5.367  10.019 -1.1181  3.3757 -0.8281
  146SAPE  C21516068   3.780   5.356   9.807  0.3983  0.4522 -0.7327
  146SAPE  H15R16069   3.673   5.337   9.823  0.5673 -0.2638 -0.3733
  146SAPE  C21616070   3.826   5.373   9.663 -0.4403 -0.0998 -0.6320
  146SAPE  H16R16071   3.922   5.429   9.660 -0.4404  0.0687  1.4821
  146SAPE  H16S16072   3.758   5.438   9.605  0.2802  1.9155  0.6818
  146SAPE  C21716073   3.861   5.235   9.601  0.9577  0.3928  0.7418
  146SAPE  H17R16074   3.779   5.161   9.612  0.2864  1.3036  2.0865
  146SAPE  H17S16075   3.941   5.186   9.661  0.6901 -3.6973 -1.8502
  146SAPE  C21816076   3.912   5.247   9.454  0.5104  0.1158 -0.5858
  146SAPE  H18R16077   4.003   5.184   9.452  1.1027  0.4090  4.6071
  146SAPE  H18S16078   3.942   5.351   9.430 -2.1824  1.0136 -0.4508
  146SAPE  C21916079   3.810   5.205   9.345  0.7629  0.1720  0.5515
  146SAPE  H19R16080   3.739   5.290   9.345  1.7925  1.0884  2.0320
  146SAPE  H19S16081   3.763   5.113   9.384 -0.8341  1.1170  0.9546
  146SAPE  C22016082   3.872   5.180   9.206  0.5659 -0.1220 -0.6145
  146SAPE  H20R16083   3.796   5.161   9.127  1.0766  1.4065 -1.5267
  146SAPE  H20S16084   3.933   5.087   9.212  0.8541  0.0679 -0.5575
  146SAPE  H20T16085   3.930   5.269   9.173  0.8285 -0.9173 -2.3755
  146SAPE   C3316086   3.530   5.742  10.041  0.6549 -0.3540  1.1776
  146SAPE   H3X16087   3.522   5.851  10.062 -1.1586 -0.5416  1.6188
  146SAPE   H3Y16088   3.434   5.687  10.054  0.9426 -0.7088  1.8372
  146SAPE   C3416089   3.581   5.720   9.897 -0.3020 -0.3264  1.1833
  146SAPE   H4X16090   3.680   5.671   9.887  0.4528  1.1677  1.1231
  146SAPE   H4Y16091   3.611   5.815   9.847  1.9143 -1.2202  0.6879
  146SAPE   C3516092   3.474   5.661   9.799 -0.6818 -0.1052  0.1440
  146SAPE   H5X16093   3.374   5.709   9.813 -0.4876  0.4645 -0.3667
  146SAPE   H5Y16094   3.473   5.552   9.819  2.7632 -0.3460 -0.3491
  146SAPE   C3616095   3.527   5.662   9.654  0.6885 -0.0967 -0.0140
  146SAPE   H6X16096   3.603   5.581   9.658 -1.7887 -2.4780  2.2688
  146SAPE   H6Y16097   3.573   5.761   9.629 -2.1844  1.7299  1.4662
  146SAPE   C3716098   3.416   5.643   9.544 -0.2443 -0.1513  0.4788
  146SAPE   H7X16099   3.373   5.745   9.544  0.7222  0.2876 -1.1752
  146SAPE   H7Y16100   3.337   5.571   9.576  0.1737 -0.2012  1.4374
  146SAPE   C3816101   3.450   5.597   9.402  0.5183 -0.5439  0.2197
  146SAPE   H8X16102   3.526   5.516   9.403 -0.0555 -1.0772  0.9288
  146SAPE   H8Y16103   3.489   5.690   9.355 -0.7076  0.6036  1.3993
  146SAPE   C3916104   3.328   5.548   9.319 -0.4243 -0.2997  0.5988
  146SAPE   H9X16105   3.280   5.461   9.369  0.0779 -0.3529  0.9974
  146SAPE   H9Y16106   3.352   5.526   9.213 -2.1644 -0.3965  0.2023
  146SAPE  C31016107   3.214   5.655   9.307  0.5953  0.3366 -0.5001
  146SAPE  H10X16108   3.220   5.717   9.400 -1.3316 -0.6777  0.3710
  146SAPE  H10Y16109   3.114   5.608   9.294  1.3072 -1.4204  0.1595
  146SAPE  C31116110   3.237   5.771   9.200  0.0405  0.4189 -0.1022
  146SAPE  H11X16111   3.343   5.805   9.209  0.7065 -0.6965 -2.8519
  146SAPE  H11Y16112   3.167   5.854   9.224  0.5603  0.2476  2.3326
  146SAPE  C31216113   3.229   5.742   9.053 -0.3621  0.0238  0.4857
  146SAPE  H12X16114   3.125   5.712   9.030 -1.3400  3.0187  0.5690
  146SAPE  H12Y16115   3.291   5.653   9.030 -0.9938 -0.2948 -0.0157
  146SAPE  C31316116   3.265   5.850   8.954 -0.1803  0.3714 -0.3712
  146SAPE  H13X16117   3.364   5.896   8.974  1.1054 -1.8573 -1.2698
  146SAPE  H13Y16118   3.187   5.929   8.960 -0.6861 -0.0160 -1.5542
  146SAPE  C31416119   3.249   5.779   8.810  0.4052  0.0787 -0.2734
  146SAPE  H14X16120   3.143   5.745   8.814  0.9902 -1.7402  1.6355
  146SAPE  H14Y16121   3.315   5.690   8.819 -2.6844 -2.4900 -1.3617
  146SAPE  C31516122   3.280   5.858   8.682  0.2826 -0.1356  0.2490
  146SAPE  H15X16123   3.201   5.936   8.678  0.9891  0.6457  1.1073
  146SAPE  H15Y16124   3.262   5.797   8.591 -1.7999 -1.4074  1.4436
  146SAPE  C31616125   3.417   5.927   8.682 -0.5053 -0.6183  0.2976
  146SAPE  H16X16126   3.491   5.875   8.746  0.9684  0.1523 -0.7033
  146SAPE  H16Y16127   3.406   6.022   8.740  1.4727 -0.4319  0.4391
  146SAPE  C31716128   3.482   5.940   8.546  0.3929  0.0973  0.0043
  146SAPE  H17X16129   3.406   5.956   8.466 -0.7607 -4.0411  0.0380
  146SAPE  H17Y16130   3.532   5.846   8.512 -1.9811 -1.9166  1.7105
  146SAPE  C31816131   3.582   6.051   8.551  0.1855  0.1635  0.4349
  146SAPE  H18X16132   3.657   6.020   8.475  0.3995 -0.8359  1.0285
  146SAPE  H18Y16133   3.627   6.042   8.652  2.5693 -0.9456 -0.6599
  146SAPE  H18Z16134   3.545   6.153   8.526 -1.0024  0.4970  3.2165
  147SAPE     N16135   5.586   1.754   6.248 -0.3349  0.2017 -0.7476
  147SAPE   HN116136   5.679   1.731   6.207  1.3361  1.6342  1.9228
  147SAPE   HN216137   5.510   1.706   6.195 -1.0919 -1.0595  1.3454
  147SAPE   HN316138   5.590   1.857   6.238 -0.2450  0.5180  1.8337
  147SAPE   C1216139   5.595   1.706   6.393 -0.4881 -0.0607  0.8548
  147SAPE  H12A16140   5.687   1.754   6.434  0.7782 -0.7279 -1.0169
  147SAPE  H12B16141   5.596   1.595   6.384  1.1415  0.0714 -1.7230
  147SAPE   C1116142   5.467   1.740   6.468 -0.5156 -0.0916  0.2627
  147SAPE  H11A16143   5.462   1.850   6.483 -0.3054 -0.4292  3.6040
  147SAPE  H11B16144   5.471   1.699   6.571  1.6288  0.0717  0.2783
  147SAPE     P16145   5.282   1.566   6.422 -0.4038 -0.1120 -0.2822
  147SAPE   O1316146   5.185   1.599   6.529  0.0316  0.1092  0.4019
  147SAPE   O1416147   5.229   1.518   6.295 -0.2602  0.2420  0.5011
  147SAPE   O1216148   5.360   1.701   6.382 -0.5636  0.2861  0.2488
  147SAPE   O1116149   5.393   1.460   6.458  0.3060  0.3073  0.2420
  147SAPE    C116150   5.416   1.408   6.596 -0.7597  0.5966  0.1073
  147SAPE    HA16151   5.519   1.375   6.619 -1.2156 -2.7576 -1.9645
  147SAPE    HB16152   5.393   1.489   6.669  0.6072  0.7854  0.3437
  147SAPE    C216153   5.332   1.283   6.626 -0.0916 -0.1451  0.0609
  147SAPE    HS16154   5.227   1.298   6.591 -0.4495 -0.9681  0.7559
  147SAPE   O2116155   5.326   1.279   6.773 -0.1038 -0.4284  0.5083
  147SAPE   C2116156   5.234   1.201   6.814 -0.4638  0.6855 -0.0804
  147SAPE   O2216157   5.160   1.132   6.745 -0.3754 -0.1087 -0.0660
  147SAPE   C2216158   5.275   1.166   6.958  0.1514  0.1727  0.1066
  147SAPE   H2R16159   5.371   1.111   6.942  0.0450  0.6207 -2.4160
  147SAPE   H2S16160   5.310   1.257   7.012  1.5521 -0.9144  1.1354
  147SAPE    C316161   5.382   1.157   6.546 -0.5177  0.3120  0.1556
  147SAPE    HX16162   5.377   1.189   6.440 -0.2659  0.1268  0.0854
  147SAPE    HY16163   5.303   1.079   6.547 -1.2095  1.0018  0.2527
  147SAPE   O3116164   5.516   1.118   6.586 -0.3361 -0.2188  0.1465
  147SAPE   C3116165   5.516   1.027   6.681 -0.2494  0.6226 -0.1793
  147SAPE   O3216166   5.414   0.988   6.736 -0.4457 -0.3647 -0.0960
  147SAPE   C3216167   5.658   0.980   6.701  0.4509  0.2073  0.2088
  147SAPE   H2X16168   5.728   1.043   6.643  0.3703 -1.7175 -2.1394
  147SAPE   H2Y16169   5.661   0.875   6.663  0.7179  0.2632  0.0742
  147SAPE   C2316170   5.171   1.079   7.034 -0.7822  0.5158  1.0695
  147SAPE   H3R16171   5.213   1.029   7.124  0.9339  1.4365  0.8256
  147SAPE   H3S16172   5.143   0.998   6.964 -1.8505 -0.7057  2.8361
  147SAPE   C2416173   5.052   1.160   7.088  0.2532  0.2373  0.4084
  147SAPE   H4R16174   4.978   1.095   7.141  0.0595  0.1370  0.0138
  147SAPE   H4S16175   5.001   1.185   6.993 -2.1438 -0.5672  1.3854
  147SAPE   C2516176   5.066   1.286   7.174  0.1713  0.3850 -0.0041
  147SAPE   H5R16177   5.077   1.376   7.112  1.5104  0.5355  0.4108
  147SAPE   C2616178   5.067   1.291   7.312 -0.4113 -0.0962 -0.0467
  147SAPE   H6R16179   5.087   1.391   7.353 -2.6611  0.5829 -0.4739
  147SAPE   C2716180   5.053   1.175   7.399 -0.0160  0.6451 -0.2815
  147SAPE   H7R16181   5.157   1.141   7.413 -0.1266 -0.2628 -1.5132
  147SAPE   H7S16182   5.005   1.085   7.356 -0.2509  0.5075  0.2607
  147SAPE   C2816183   4.997   1.204   7.538 -0.3849  0.2003 -0.0871
  147SAPE   H8R16184   4.896   1.165   7.560 -0.5372 -0.1422 -1.2679
  147SAPE   C2916185   5.085   1.240   7.640 -0.1982  0.7126  0.0176
  147SAPE   H9R16186   5.035   1.262   7.735 -2.0031  0.4793 -0.8311
  147SAPE  C21016187   5.238   1.257   7.644  0.6047  0.6450  0.0084
  147SAPE  H10R16188   5.262   1.344   7.709 -0.7117 -0.0299  1.4771
  147SAPE  H10S16189   5.280   1.276   7.543  0.5075 -0.1924 -0.1926
  147SAPE  C21116190   5.305   1.133   7.697  0.4179 -0.1583  0.0399
  147SAPE  H11R16191   5.309   1.060   7.615  0.1855  0.7379 -0.7904
  147SAPE  C21216192   5.369   1.118   7.814 -0.5036  0.4385  0.3456
  147SAPE  H12R16193   5.432   1.028   7.823  1.5223  1.7031 -0.3328
  147SAPE  C21316194   5.379   1.211   7.927 -0.4248  0.7303  0.0493
  147SAPE  H13R16195   5.386   1.314   7.885 -0.3166  0.1888 -1.3195
  147SAPE  H13S16196   5.466   1.186   7.992 -0.1897  0.4941 -0.3482
  147SAPE  C21416197   5.264   1.218   8.024  0.1765  0.0631  0.5437
  147SAPE  H14R16198   5.164   1.193   7.984 -0.1249 -0.0760  1.3642
  147SAPE  C21516199   5.275   1.241   8.154  0.8013  0.7891 -0.4175
  147SAPE  H15R16200   5.186   1.238   8.218  2.2171 -0.2545  1.5938
  147SAPE  C21616201   5.402   1.271   8.225  0.6195  0.2369  0.5860
  147SAPE  H16R16202   5.446   1.366   8.189  0.0673 -0.7731 -3.1609
  147SAPE  H16S16203   5.482   1.197   8.205 -0.8850 -1.2444 -0.1606
  147SAPE  C21716204   5.383   1.274   8.375 -0.1618  0.5592 -0.3902
  147SAPE  H17R16205   5.337   1.178   8.404  1.0929 -0.4488 -1.5523
  147SAPE  H17S16206   5.336   1.370   8.405  0.2940  0.9242 -0.8099
  147SAPE  C21816207   5.521   1.273   8.452 -0.5450  0.9247  0.4189
  147SAPE  H18R16208   5.502   1.261   8.561  1.7522  1.7186  0.9687
  147SAPE  H18S16209   5.578   1.367   8.437  0.8806  0.2150  1.1107
  147SAPE  C21916210   5.626   1.173   8.405 -0.7160 -0.2572  0.1770
  147SAPE  H19R16211   5.664   1.212   8.308  2.5815 -0.5197  1.2284
  147SAPE  H19S16212   5.585   1.072   8.384 -1.5584  0.2737 -0.8425
  147SAPE  C22016213   5.743   1.145   8.498  0.1189 -0.0440 -0.2771
  147SAPE  H20R16214   5.723   1.101   8.598  2.3506  0.9576  0.6901
  147SAPE  H20S16215   5.802   1.234   8.526  0.2123 -0.0432 -0.4737
  147SAPE  H20T16216   5.819   1.074   8.457  0.0874 -0.1007 -0.2384
  147SAPE   C3316217   5.702   0.972   6.847  0.3031 -0.3328 -0.0362
  147SAPE   H3X16218   5.676   0.874   6.893 -0.5647  0.0147  0.2333
  147SAPE   H3Y16219   5.649   1.038   6.919  0.2993 -1.8990  1.4677
  147SAPE   C3416220   5.845   1.002   6.873 -0.1703  0.7986  0.1646
  147SAPE   H4X16221   5.889   1.084   6.813  0.1599 -0.4537 -1.3418
  147SAPE   H4Y16222   5.904   0.911   6.851 -0.9768 -0.0725  1.4286
  147SAPE   C3516223   5.879   1.042   7.011  0.8949  0.1990 -0.4625
  147SAPE   H5X16224   5.837   0.964   7.078  0.7189  2.0796  1.7366
  147SAPE   H5Y16225   5.831   1.134   7.051 -0.2793 -1.3405  1.9216
  147SAPE   C3616226   6.024   1.063   7.049  0.0103  0.7588  0.0139
  147SAPE   H6X16227   6.083   1.129   6.981  1.9784 -0.2228  0.7078
  147SAPE   H6Y16228   6.082   0.969   7.040 -0.3871  0.5845 -0.8496
  147SAPE   C3716229   6.041   1.123   7.189 -0.5024 -0.0853 -0.1822
  147SAPE   H7X16230   6.003   1.044   7.256 -1.5843  0.8937  0.3961
  147SAPE   H7Y16231   5.976   1.207   7.221  1.6075  0.9770  1.6469
  147SAPE   C3816232   6.190   1.156   7.223  0.5383  0.6914  0.0815
  147SAPE   H8X16233   6.219   1.240   7.157 -1.8783  3.3893  2.1628
  147SAPE   H8Y16234   6.250   1.066   7.196  0.9628  0.7887  0.6673
  147SAPE   C3916235   6.217   1.192   7.369 -0.2403 -0.0277 -0.0590
  147SAPE   H9X16236   6.173   1.293   7.384 -1.4181 -0.6294  0.6621
  147SAPE   H9Y16237   6.326   1.190   7.388 -0.4528  2.1769  1.8315
  147SAPE  C31016238   6.149   1.103   7.472 -0.4154 -0.4087 -0.3026
  147SAPE  H10X16239   6.167   0.996   7.447  1.2783 -0.1522 -0.2782
  147SAPE  H10Y16240   6.039   1.112   7.458 -0.3143  0.3023 -0.6844
  147SAPE  C31116241   6.191   1.142   7.615  0.5841  0.3859  0.0686
  147SAPE  H11X16242   6.301   1.129   7.622  0.6492  1.0504  0.2784
  147SAPE  H11Y16243   6.135   1.076   7.684 -1.1617  1.3090 -0.3916
  147SAPE  C31216244   6.152   1.280   7.663  0.6081  0.5005 -0.2435
  147SAPE  H12X16245   6.048   1.297   7.629  0.2814 -1.6996 -0.5464
  147SAPE  H12Y16246   6.214   1.362   7.623  1.0461 -0.1111 -0.8394
  147SAPE  C31316247   6.168   1.289   7.828  0.4905 -0.3149  0.4178
  147SAPE  H13X16248   6.100   1.206   7.856  0.3189  0.2307  1.6372
  147SAPE  H13Y16249   6.124   1.387   7.853 -0.0756  0.2603 -2.4009
  147SAPE  C31416250   6.312   1.262   7.876 -0.5079 -0.0333 -0.0689
  147SAPE  H14X16251   6.370   1.356   7.863  0.5416 -0.2952  2.2229
  147SAPE  H14Y16252   6.368   1.196   7.807  1.6130  1.4035  0.1863
  147SAPE  C31516253   6.319   1.218   8.022  0.6751  0.3540  0.1429
  147SAPE  H15X16254   6.416   1.221   8.077 -0.0282 -0.8605  1.5326
  147SAPE  H15Y16255   6.276   1.116   8.034  0.9867  0.0208 -1.3294
  147SAPE  C31616256   6.224   1.305   8.112 -0.3792 -0.2379  0.7555
  147SAPE  H16X16257   6.116   1.288   8.091 -0.4052  1.4921 -0.8576
  147SAPE  H16Y16258   6.232   1.411   8.078 -0.9878  0.1383  1.7458
  147SAPE  C31716259   6.252   1.296   8.257  0.4521  0.1311 -0.3586
  147SAPE  H17X16260   6.323   1.378   8.281 -0.5223  0.8655  0.1375
  147SAPE  H17Y16261   6.297   1.198   8.284  0.1269  0.0315 -0.1700
  147SAPE  C31816262   6.114   1.283   8.334  0.1820 -0.3370  0.2926
  147SAPE  H18X16263   6.043   1.209   8.291 -0.0438 -0.5934  1.0754
  147SAPE  H18Y16264   6.068   1.383   8.342 -0.8715 -0.8539  0.9301
  147SAPE  H18Z16265   6.132   1.267   8.443  2.8161 -0.2846 -0.0583
  148SAPE     N16266   6.008   4.718   6.549  0.5063 -0.3279  0.4295
  148SAPE   HN116267   6.050   4.783   6.479 -1.2084 -1.1166 -1.4592
  148SAPE   HN216268   6.001   4.763   6.643  0.2835  1.7956 -0.5385
  148SAPE   HN316269   6.064   4.631   6.558 -0.9884 -1.5151 -0.9356
  148SAPE   C1216270   5.870   4.696   6.489  0.3353 -0.6721 -0.2199
  148SAPE  H12A16271   5.886   4.639   6.395  1.4854  2.3269 -1.9901
  148SAPE  H12B16272   5.827   4.796   6.466 -0.4830 -0.3652  2.3895
  148SAPE   C1116273   5.791   4.607   6.588  0.2167  0.0304 -0.1197
  148SAPE  H11A16274   5.846   4.516   6.619 -0.4221 -0.1227  0.6132
  148SAPE  H11B16275   5.693   4.592   6.537 -1.0765  1.5945  1.7186
  148SAPE     P16276   5.674   4.653   6.824  0.3721 -0.0989 -0.0324
  148SAPE   O1316277   5.638   4.777   6.889  0.1033  0.0975  0.0358
  148SAPE   O1416278   5.562   4.557   6.795 -0.6896  0.6361  0.5881
  148SAPE   O1216279   5.755   4.694   6.695 -0.3288  0.3958 -0.0854
  148SAPE   O1116280   5.776   4.579   6.926  0.5383  0.2643  0.7452
  148SAPE    C116281   5.867   4.661   6.998 -0.6816  0.5546  0.3929
  148SAPE    HA16282   5.954   4.592   7.014  0.4824  2.0213  0.5863
  148SAPE    HB16283   5.899   4.758   6.955  3.3697 -1.1295 -0.8999
  148SAPE    C216284   5.815   4.698   7.135  0.2701 -0.2018 -0.2377
  148SAPE    HS16285   5.780   4.804   7.133 -0.5199 -0.4113  1.1473
  148SAPE   O2116286   5.920   4.691   7.235  0.3333 -0.6167 -0.2805
  148SAPE   C2116287   6.020   4.789   7.227  0.0488  0.1529 -0.3097
  148SAPE   O2216288   6.011   4.896   7.171  0.4821 -0.1522 -0.0009
  148SAPE   C2216289   6.132   4.739   7.308  0.2006  0.6297 -0.8305
  148SAPE   H2R16290   6.120   4.630   7.320  1.6015  0.2621 -2.3687
  148SAPE   H2S16291   6.227   4.753   7.252  0.6517 -2.9294 -1.1438
  148SAPE    C316292   5.706   4.599   7.182  0.2558 -0.2597  0.2626
  148SAPE    HX16293   5.761   4.503   7.171  1.2607  0.0052  2.4492
  148SAPE    HY16294   5.610   4.607   7.126 -0.2170  1.7971  1.2901
  148SAPE   O3116295   5.685   4.608   7.327 -0.4013 -0.4867 -0.0930
  148SAPE   C3116296   5.609   4.710   7.373 -0.1870  0.1910 -0.1627
  148SAPE   O3216297   5.583   4.807   7.304  0.0588 -0.3101 -0.7524
  148SAPE   C3216298   5.567   4.693   7.519 -0.3183 -0.1434  0.3650
  148SAPE   H2X16299   5.654   4.663   7.581 -1.7653 -1.1132  2.0249
  148SAPE   H2Y16300   5.490   4.613   7.515  0.4771 -0.9484  0.6983
  148SAPE   C2316301   6.128   4.814   7.437  0.5761 -1.5170 -0.2618
  148SAPE   H3R16302   6.124   4.925   7.424  1.2328 -1.2972  1.1859
  148SAPE   H3S16303   6.218   4.806   7.501 -1.2188  0.3069  2.7707
  148SAPE   C2416304   6.013   4.767   7.521  1.0492 -0.4829 -0.7636
  148SAPE   H4R16305   6.050   4.742   7.623 -3.3981 -1.6951  0.7751
  148SAPE   H4S16306   5.963   4.674   7.486  0.4572 -0.7949  0.8185
  148SAPE   C2516307   5.896   4.869   7.525 -0.0061  0.4901  0.4441
  148SAPE   H5R16308   5.832   4.877   7.435 -0.7860  1.9970  1.0880
  148SAPE   C2616309   5.857   4.945   7.631 -0.2285 -0.0540 -1.0247
  148SAPE   H6R16310   5.765   5.006   7.625  0.7858  2.1187  2.5224
  148SAPE   C2716311   5.917   4.950   7.770  0.3053  0.7636  0.1628
  148SAPE   H7R16312   6.026   4.931   7.758  0.2015  1.4287 -2.6125
  148SAPE   H7S16313   5.875   4.874   7.839  0.6163 -1.8568 -2.3401
  148SAPE   C2816314   5.895   5.095   7.818 -0.1894  0.3697 -0.4735
  148SAPE   H8R16315   5.924   5.166   7.738  1.4600  0.6810  0.3428
  148SAPE   C2916316   5.841   5.136   7.940  0.6715  0.2690  0.9073
  148SAPE   H9R16317   5.815   5.243   7.939  2.1474  0.6466  0.3039
  148SAPE  C21016318   5.811   5.043   8.054  0.5104  0.3486 -0.5818
  148SAPE  H10R16319   5.869   4.948   8.066 -0.4927 -0.0545  1.5035
  148SAPE  H10S16320   5.712   4.999   8.031  0.2733 -0.0249  1.0326
  148SAPE  C21116321   5.805   5.119   8.187 -0.1772 -0.4192 -0.2087
  148SAPE  H11R16322   5.708   5.162   8.216 -0.3038  1.5114 -3.0650
  148SAPE  C21216323   5.912   5.154   8.275 -0.2198 -0.1218  0.9049
  148SAPE  H12R16324   5.891   5.214   8.365  0.2679  0.8937  0.3517
  148SAPE  C21316325   6.048   5.119   8.246 -0.4661 -0.4945  0.7887
  148SAPE  H13R16326   6.044   5.035   8.174  0.1306 -1.0628  1.3936
  148SAPE  H13S16327   6.093   5.083   8.341  0.6187  1.3536  1.0301
  148SAPE  C21416328   6.119   5.237   8.191 -0.6562  0.5978  0.3783
  148SAPE  H14R16329   6.113   5.242   8.082  1.2134 -0.2724  0.2024
  148SAPE  C21516330   6.171   5.340   8.253 -0.7243  0.2427 -0.4922
  148SAPE  H15R16331   6.224   5.416   8.193  0.8181  0.4226  1.0021
  148SAPE  C21616332   6.180   5.355   8.399  0.5078  0.5515 -0.7527
  148SAPE  H16R16333   6.107   5.294   8.458 -0.6260  0.9252 -1.7236
  148SAPE  H16S16334   6.144   5.457   8.426 -1.7299 -0.1338 -0.8931
  148SAPE  C21716335   6.321   5.333   8.449 -0.1254 -0.8131  0.4260
  148SAPE  H17R16336   6.342   5.228   8.420 -0.6628 -0.5552 -0.9667
  148SAPE  H17S16337   6.315   5.340   8.560 -1.0144  0.7377  0.3111
  148SAPE  C21816338   6.436   5.430   8.410 -0.0355 -0.2440  0.5854
  148SAPE  H18R16339   6.406   5.534   8.433 -2.3921 -0.3946 -1.3666
  148SAPE  H18S16340   6.448   5.423   8.300 -0.5554 -2.4532  0.6233
  148SAPE  C21916341   6.574   5.410   8.469 -0.0890 -0.1438  0.0179
  148SAPE  H19R16342   6.649   5.463   8.406 -1.0906 -0.7293 -1.7586
  148SAPE  H19S16343   6.595   5.301   8.462  0.7703 -0.0328  0.7033
  148SAPE  C22016344   6.576   5.455   8.613 -0.1616  0.0650  0.0791
  148SAPE  H20R16345   6.659   5.408   8.670 -1.1813 -0.3781  1.2701
  148SAPE  H20S16346   6.487   5.420   8.671 -1.0962 -2.4170 -2.6298
  148SAPE  H20T16347   6.582   5.565   8.624  0.0972 -0.1243  2.2048
  148SAPE   C3316348   5.509   4.824   7.564 -0.0094  0.5445  0.3747
  148SAPE   H3X16349   5.422   4.862   7.506  0.9441  2.1065 -0.1005
  148SAPE   H3Y16350   5.592   4.898   7.568 -0.5288  1.2499 -1.3421
  148SAPE   C3416351   5.462   4.797   7.704 -0.6837  0.1813 -0.0197
  148SAPE   H4X16352   5.545   4.780   7.776 -1.3932 -0.1345  0.7425
  148SAPE   H4Y16353   5.406   4.701   7.703  1.4752 -1.1508  0.2469
  148SAPE   C3516354   5.389   4.915   7.763 -0.4489 -0.3391 -0.2888
  148SAPE   H5X16355   5.322   4.952   7.682  0.9414  1.9581 -0.4577
  148SAPE   H5Y16356   5.458   5.001   7.772  0.0547 -0.7184 -0.4655
  148SAPE   C3616357   5.302   4.876   7.891 -0.3244  0.3418  0.5383
  148SAPE   H6X16358   5.375   4.844   7.969 -0.5736  1.9869  1.4809
  148SAPE   H6Y16359   5.231   4.797   7.858 -1.3326  1.2768  0.4065
  148SAPE   C3716360   5.216   4.994   7.937 -0.4627  0.4458  0.6338
  148SAPE   H7X16361   5.149   5.021   7.852  1.3366 -0.2434 -1.0610
  148SAPE   H7Y16362   5.288   5.078   7.947 -0.9405  0.7637  1.5533
  148SAPE   C3816363   5.137   4.962   8.067  0.4683  0.3198 -0.3983
  148SAPE   H8X16364   5.066   4.879   8.048 -3.0094  3.1699 -1.0331
  148SAPE   H8Y16365   5.071   5.048   8.092 -1.0973 -0.6877 -0.8676
  148SAPE   C3916366   5.216   4.935   8.194 -0.4685  0.8311 -0.4043
  148SAPE   H9X16367   5.291   5.016   8.202  1.6596 -1.0635  0.2051
  148SAPE   H9Y16368   5.281   4.846   8.177 -1.1410  0.6691 -2.3298
  148SAPE  C31016369   5.137   4.918   8.321  0.1586 -0.4785  0.9207
  148SAPE  H10X16370   5.211   4.884   8.397  1.6781  0.6866  0.0315
  148SAPE  H10Y16371   5.060   4.839   8.307  1.4464 -2.0338  2.2552
  148SAPE  C31116372   5.098   5.058   8.374  0.1605 -0.0600  0.8018
  148SAPE  H11X16373   5.041   5.124   8.305  0.2094  1.7504  2.4137
  148SAPE  H11Y16374   5.197   5.103   8.392  0.2818 -0.1617  0.4046
  148SAPE  C31216375   5.025   5.047   8.506 -0.2754 -0.6714 -0.1834
  148SAPE  H12X16376   5.014   5.146   8.554 -0.4542 -2.4176  3.8238
  148SAPE  H12Y16377   5.088   4.988   8.577  0.1652 -2.8539 -2.2760
  148SAPE  C31316378   4.889   4.984   8.479 -0.0727  0.0006 -0.7870
  148SAPE  H13X16379   4.896   4.875   8.456  2.6147  0.2310 -1.4086
  148SAPE  H13Y16380   4.848   5.031   8.387 -0.5601  1.5412  0.1867
  148SAPE  C31416381   4.800   5.019   8.598  0.0304 -0.3486  0.5933
  148SAPE  H14X16382   4.828   5.118   8.639 -0.2707  0.1894 -0.4439
  148SAPE  H14Y16383   4.820   4.947   8.680 -0.1136 -0.0197  0.9193
  148SAPE  C31516384   4.651   5.042   8.580  0.3403 -0.2334  0.2388
  148SAPE  H15X16385   4.622   5.128   8.515 -2.0879 -0.7398  0.5478
  148SAPE  H15Y16386   4.605   5.060   8.679 -0.2716 -0.3697 -0.0143
  148SAPE  C31616387   4.589   4.910   8.525 -0.2434  0.7809  0.3872
  148SAPE  H16X16388   4.618   4.833   8.599  1.1646  0.7546 -0.1611
  148SAPE  H16Y16389   4.627   4.889   8.422 -0.3912  0.0760  0.4749
  148SAPE  C31716390   4.441   4.913   8.505  0.3400  0.6654  0.2296
  148SAPE  H17X16391   4.394   4.940   8.602 -1.3501  1.7627 -0.8330
  148SAPE  H17Y16392   4.402   4.814   8.470 -0.4157  1.1801 -0.4186
  148SAPE  C31816393   4.402   5.005   8.394  0.1517  0.0740  0.3781
  148SAPE  H18X16394   4.294   5.020   8.410  0.6259  2.9759  1.5020
  148SAPE  H18Y16395   4.401   4.964   8.290 -2.0806 -2.2807  1.2415
  148SAPE  H18Z16396   4.451   5.105   8.399 -1.8158  1.1828 -1.1892
  149SAPE     N16397   3.503   5.733   6.445 -0.2713 -0.5821 -0.0006
  149SAPE   HN116398   3.479   5.649   6.389 -2.0325 -1.7286  2.2727
  149SAPE   HN216399   3.525   5.808   6.378  2.3905 -1.0662  0.2308
  149SAPE   HN316400   3.584   5.704   6.503 -2.4403 -2.7642  2.2618
  149SAPE   C1216401   3.398   5.750   6.555  0.3117 -0.1224 -0.5269
  149SAPE  H12A16402   3.437   5.833   6.618 -0.5246  0.5363 -0.8458
  149SAPE  H12B16403   3.392   5.655   6.612 -0.0742  0.7281  0.8872
  149SAPE   C1116404   3.259   5.799   6.493  0.4391 -0.9606  0.2328
  149SAPE  H11A16405   3.180   5.811   6.570 -2.0737 -0.0746 -2.2962
  149SAPE  H11B16406   3.222   5.716   6.430  2.9202 -0.8661 -1.5189
  149SAPE     P16407   3.314   6.051   6.446 -0.5214  0.0507 -0.5434
  149SAPE   O1316408   3.455   6.035   6.480  0.5478  0.3135 -0.4815
  149SAPE   O1416409   3.282   6.146   6.338 -0.5762  0.6228  0.2843
  149SAPE   O1216410   3.262   5.912   6.403  0.1052 -0.1321 -0.4628
  149SAPE   O1116411   3.220   6.074   6.570 -0.3673 -0.4855 -0.5360
  149SAPE    C116412   3.087   6.116   6.541 -0.1107  0.0198  0.3498
  149SAPE    HA16413   3.102   6.224   6.520 -1.8493  0.1158 -0.6229
  149SAPE    HB16414   3.029   6.058   6.466  1.0150 -1.5920  0.6792
  149SAPE    C216415   2.986   6.093   6.662 -0.7501 -0.7379 -0.3788
  149SAPE    HS16416   2.894   6.151   6.643  0.4879  1.0872 -1.1392
  149SAPE   O2116417   3.033   6.141   6.793  0.4858 -1.0789 -0.1078
  149SAPE   C2116418   3.093   6.253   6.806  0.2931  0.3854 -0.6631
  149SAPE   O2216419   3.146   6.324   6.729  0.5309 -1.4910 -0.2226
  149SAPE   C2216420   3.116   6.273   6.960  0.8095  0.4815 -0.0176
  149SAPE   H2R16421   3.016   6.271   7.008  0.5740 -2.3966 -0.4496
  149SAPE   H2S16422   3.159   6.177   6.996  0.6350  0.3139 -0.2487
  149SAPE    C316423   2.968   5.941   6.683  0.0338 -0.5552 -0.7682
  149SAPE    HX16424   3.065   5.911   6.728  0.8336  3.1479  0.2975
  149SAPE    HY16425   2.947   5.893   6.585 -2.2478 -0.0780 -0.5734
  149SAPE   O3116426   2.867   5.921   6.782  0.1772 -0.4038 -0.3252
  149SAPE   C3116427   2.749   5.930   6.740 -0.2582  0.8028  0.9635
  149SAPE   O3216428   2.711   5.969   6.628  0.4232  0.1046 -0.1041
  149SAPE   C3216429   2.655   5.897   6.855  0.2211  0.5712 -0.1439
  149SAPE   H2X16430   2.665   5.787   6.864  0.3221  0.7035  1.8968
  149SAPE   H2Y16431   2.550   5.920   6.825  0.2900  0.2637 -0.6229
  149SAPE   C2316432   3.189   6.397   7.006  0.1027  0.3939  0.3352
  149SAPE   H3R16433   3.136   6.482   6.956  0.9693  0.8395  0.1569
  149SAPE   H3S16434   3.293   6.402   6.968  0.6045  1.8803  1.7845
  149SAPE   C2416435   3.192   6.399   7.162  0.1373  0.3912  0.3242
  149SAPE   H4R16436   3.227   6.303   7.206 -0.7158 -0.3734 -0.6312
  149SAPE   H4S16437   3.094   6.397   7.213  1.0927  1.3642  2.3202
  149SAPE   C2516438   3.279   6.512   7.203 -0.0713  0.3499  0.5372
  149SAPE   H5R16439   3.324   6.566   7.119  1.1686 -2.8585 -1.0186
  149SAPE   C2616440   3.294   6.561   7.330  0.5010  0.6263  0.9596
  149SAPE   H6R16441   3.361   6.648   7.332  1.5010  0.1943 -3.1802
  149SAPE   C2716442   3.246   6.514   7.467  0.3518  0.1148 -0.6439
  149SAPE   H7R16443   3.220   6.406   7.465  0.6050  0.0568 -0.9352
  149SAPE   H7S16444   3.143   6.552   7.484 -0.1299 -0.7293 -1.5682
  149SAPE   C2816445   3.330   6.541   7.586  0.4157 -0.6881 -0.5189
  149SAPE   H8R16446   3.434   6.513   7.568  0.7083  0.9618 -1.6501
  149SAPE   C2916447   3.281   6.574   7.708 -0.2268  0.2219 -0.2185
  149SAPE   H9R16448   3.355   6.582   7.789 -0.9478 -1.9876  0.7446
  149SAPE  C21016449   3.132   6.585   7.740 -0.4101  0.4616  0.3610
  149SAPE  H10R16450   3.059   6.542   7.668  0.0248 -2.6868  1.6072
  149SAPE  H10S16451   3.104   6.692   7.732 -2.0014 -0.0083 -0.8274
  149SAPE  C21116452   3.107   6.519   7.878  0.4325  0.1066  0.7137
  149SAPE  H11R16453   3.117   6.409   7.876 -0.9515 -0.1139  2.5482
  149SAPE  C21216454   3.075   6.579   7.991  0.0357  0.3765 -0.1432
  149SAPE  H12R16455   3.052   6.513   8.076  0.6303 -1.2406 -1.1965
  149SAPE  C21316456   3.059   6.728   8.018 -0.4452  0.0001  0.7289
  149SAPE  H13R16457   2.958   6.731   8.065 -1.0915  1.5893 -0.6845
  149SAPE  H13S16458   3.036   6.781   7.923 -2.3743 -0.4288  0.8969
  149SAPE  C21416459   3.157   6.796   8.114  0.7042 -0.0899  0.4698
  149SAPE  H14R16460   3.237   6.848   8.058 -1.0971  0.5278 -1.6783
  149SAPE  C21516461   3.157   6.780   8.247 -0.3920  0.0411 -0.2736
  149SAPE  H15R16462   3.236   6.829   8.305 -0.6042 -1.4288  1.3043
  149SAPE  C21616463   3.067   6.702   8.333 -0.1382 -0.7331  0.2346
  149SAPE  H16R16464   3.132   6.649   8.406 -1.3630  1.0449  2.7790
  149SAPE  H16S16465   3.007   6.635   8.268 -2.1673 -1.9359  3.1700
  149SAPE  C21716466   2.970   6.791   8.410  0.0022 -0.1595  0.3471
  149SAPE  H17R16467   3.020   6.879   8.457 -1.3833  0.7165  0.2510
  149SAPE  H17S16468   2.921   6.727   8.486 -0.6650  0.4287  0.4206
  149SAPE  C21816469   2.854   6.856   8.327  0.4266 -0.2206  1.1707
  149SAPE  H18R16470   2.812   6.768   8.273  0.3922  1.2675 -1.3691
  149SAPE  H18S16471   2.891   6.921   8.245 -2.4950 -0.4759 -0.4769
  149SAPE  C21916472   2.751   6.917   8.422 -0.4741  0.3126  0.0384
  149SAPE  H19R16473   2.745   6.850   8.511 -2.6981 -0.1340 -0.3894
  149SAPE  H19S16474   2.649   6.923   8.378 -0.5852  0.1506  0.2689
  149SAPE  C22016475   2.792   7.068   8.457 -0.1653  0.4285 -0.1446
  149SAPE  H20R16476   2.883   7.077   8.521  0.2071  2.4650 -0.8778
  149SAPE  H20S16477   2.708   7.122   8.504 -0.3360 -2.4619  3.2377
  149SAPE  H20T16478   2.816   7.119   8.361 -2.0479  0.1696 -0.7915
  149SAPE   C3316479   2.694   5.959   6.984 -0.5419 -0.3307 -0.9454
  149SAPE   H3X16480   2.802   5.943   7.000 -0.2457 -0.1171 -2.6252
  149SAPE   H3Y16481   2.639   5.914   7.070 -0.7061 -0.5490 -1.1621
  149SAPE   C3416482   2.676   6.109   6.985 -0.3354 -0.2911  0.2183
  149SAPE   H4X16483   2.571   6.147   6.984  0.0557  0.8323  0.3711
  149SAPE   H4Y16484   2.726   6.154   6.897 -0.2975 -0.9252 -0.0891
  149SAPE   C3516485   2.747   6.172   7.107  0.0373 -0.0408  0.0089
  149SAPE   H5X16486   2.851   6.141   7.127 -0.2219 -0.7635  0.2545
  149SAPE   H5Y16487   2.683   6.141   7.192  0.5177 -0.8561  0.0771
  149SAPE   C3616488   2.719   6.320   7.113 -0.0954 -0.0112  0.4817
  149SAPE   H6X16489   2.610   6.340   7.102 -0.0828 -0.0490  0.2947
  149SAPE   H6Y16490   2.783   6.364   7.033  1.3485  0.6288  1.9277
  149SAPE   C3716491   2.771   6.392   7.241 -0.7438  0.2797 -0.1466
  149SAPE   H7X16492   2.764   6.503   7.235 -0.4085  0.5097  2.5354
  149SAPE   H7Y16493   2.878   6.367   7.255 -0.4819 -0.1178 -2.3864
  149SAPE   C3816494   2.679   6.363   7.351 -0.4751  0.0809 -0.2575
  149SAPE   H8X16495   2.699   6.257   7.378  0.8051  0.0207 -1.3293
  149SAPE   H8Y16496   2.574   6.369   7.314  0.1979  0.4313 -2.2291
  149SAPE   C3916497   2.698   6.467   7.463  0.8870  0.2532  0.1340
  149SAPE   H9X16498   2.679   6.572   7.431  1.7177  0.5892  0.7322
  149SAPE   H9Y16499   2.803   6.469   7.500  0.5623  0.4465  1.0736
  149SAPE  C31016500   2.615   6.440   7.592  0.1411 -0.3702 -0.0653
  149SAPE  H10X16501   2.614   6.330   7.608  1.8684 -0.6878 -1.6911
  149SAPE  H10Y16502   2.511   6.474   7.577  0.6194  1.2641  0.1033
  149SAPE  C31116503   2.671   6.506   7.723 -0.0326 -0.3414 -0.2148
  149SAPE  H11X16504   2.655   6.614   7.703  0.9542 -0.1562 -0.0460
  149SAPE  H11Y16505   2.779   6.486   7.740  0.3070 -0.5647 -2.3222
  149SAPE  C31216506   2.581   6.473   7.852  0.6246 -0.5128 -0.0387
  149SAPE  H12X16507   2.587   6.365   7.873  2.0500 -0.8759 -1.9619
  149SAPE  H12Y16508   2.474   6.497   7.838  0.7381  0.3101  0.4426
  149SAPE  C31316509   2.623   6.559   7.979 -0.2820 -0.5492 -0.2427
  149SAPE  H13X16510   2.600   6.667   7.969 -0.1384 -0.5798 -0.9924
  149SAPE  H13Y16511   2.733   6.552   7.994 -0.2939  1.6624  1.2691
  149SAPE  C31416512   2.557   6.506   8.112  0.0341  0.4413 -0.5354
  149SAPE  H14X16513   2.556   6.395   8.117  0.8321  0.4925  1.6698
  149SAPE  H14Y16514   2.452   6.534   8.131  0.1898  0.1792  0.8365
  149SAPE  C31516515   2.628   6.552   8.238  0.2953 -0.7444 -0.0954
  149SAPE  H15X16516   2.629   6.660   8.264 -1.0579 -0.3153 -1.6386
  149SAPE  H15Y16517   2.733   6.520   8.217 -0.8214 -3.4742 -2.2459
  149SAPE  C31616518   2.579   6.493   8.373 -0.1127  0.0773  0.4104
  149SAPE  H16X16519   2.582   6.383   8.356 -1.1415 -0.2025  1.8184
  149SAPE  H16Y16520   2.477   6.518   8.407 -1.0608 -2.2978 -0.5150
  149SAPE  C31716521   2.682   6.526   8.488  0.6672 -0.5270 -0.3068
  149SAPE  H17X16522   2.675   6.635   8.511 -0.1382 -0.2347 -1.7828
  149SAPE  H17Y16523   2.784   6.503   8.451  1.0076 -0.9627  0.8596
  149SAPE  C31816524   2.639   6.448   8.612  0.3754 -0.0364 -0.7573
  149SAPE  H18X16525   2.538   6.475   8.650  0.2111 -0.9327 -0.5383
  149SAPE  H18Y16526   2.712   6.472   8.692 -0.1342 -0.9028 -0.0143
  149SAPE  H18Z16527   2.640   6.338   8.599  0.7318  0.0119 -1.1524
  150SAPE     N16528   3.895   0.387   6.195  0.5810 -0.2601  0.3969
  150SAPE   HN116529   3.919   0.463   6.128 -1.1378 -0.9607 -1.1256
  150SAPE   HN216530   3.966   0.315   6.171  0.6110 -0.1771  0.2331
  150SAPE   HN316531   3.802   0.345   6.173 -1.0491  3.4245 -0.6760
  150SAPE   C1216532   3.890   0.429   6.344 -0.2249 -0.5496  0.4780
  150SAPE  H12A16533   3.858   0.336   6.396  0.9633 -0.6579  1.0259
  150SAPE  H12B16534   3.810   0.506   6.354  0.3659  0.1504 -0.1264
  150SAPE   C1116535   4.027   0.478   6.390 -0.3503 -0.3608 -0.3635
  150SAPE  H11A16536   4.035   0.511   6.496  2.0919  2.8191 -1.3731
  150SAPE  H11B16537   4.037   0.573   6.333 -2.0446  0.5699  0.7999
  150SAPE     P16538   4.170   0.264   6.432  0.0301  0.2896 -0.4345
  150SAPE   O1316539   4.042   0.189   6.450 -0.4352 -0.0983  0.0342
  150SAPE   O1416540   4.286   0.195   6.374 -0.2290 -0.6281 -0.0438
  150SAPE   O1216541   4.143   0.399   6.351 -0.2391  0.6149  0.1527
  150SAPE   O1116542   4.209   0.317   6.576 -0.2990 -0.2310 -0.4486
  150SAPE    C116543   4.327   0.403   6.571  0.2351 -0.4266 -0.4221
  150SAPE    HA16544   4.419   0.347   6.543  0.4364 -2.1860  3.1377
  150SAPE    HB16545   4.305   0.497   6.516 -1.2003 -0.6732 -0.3045
  150SAPE    C216546   4.371   0.444   6.717  0.3279  0.4094  0.2975
  150SAPE    HS16547   4.459   0.511   6.707  0.1921  0.5585  0.0903
  150SAPE   O2116548   4.404   0.326   6.797  0.0736 -0.6122 -0.3245
  150SAPE   C2116549   4.503   0.331   6.883  0.0229  0.4249  0.9193
  150SAPE   O2216550   4.590   0.413   6.889 -0.7426  0.3340 -0.0558
  150SAPE   C2216551   4.501   0.203   6.963 -0.2238  0.4990 -0.4284
  150SAPE   H2R16552   4.407   0.186   7.021 -0.6448  1.1552 -0.8921
  150SAPE   H2S16553   4.515   0.118   6.894  0.2725  0.0688  0.1978
  150SAPE    C316554   4.256   0.522   6.785  0.2233  0.5027  0.1847
  150SAPE    HX16555   4.174   0.451   6.808  1.8763 -1.3936  0.5259
  150SAPE    HY16556   4.216   0.604   6.722  0.9868  0.4198 -0.4164
  150SAPE   O3116557   4.294   0.560   6.914 -0.0411  0.0126  0.4516
  150SAPE   C3116558   4.373   0.667   6.918  0.7214 -0.3201  1.0030
  150SAPE   O3216559   4.411   0.720   6.814 -0.1321  0.0715  0.1677
  150SAPE   C3216560   4.393   0.714   7.054  0.3220 -0.2226 -0.4744
  150SAPE   H2X16561   4.331   0.805   7.071  4.0144  2.8722 -2.2034
  150SAPE   H2Y16562   4.493   0.761   7.062  0.2261 -0.3777  3.9632
  150SAPE   C2316563   4.623   0.205   7.064 -0.7272 -0.8510 -0.0363
  150SAPE   H3R16564   4.625   0.298   7.125  1.5245 -0.5901 -0.4249
  150SAPE   H3S16565   4.713   0.216   6.999  0.5114  0.4321  1.7896
  150SAPE   C2416566   4.628   0.089   7.156 -0.5270  0.0487  0.4710
  150SAPE   H4R16567   4.728   0.087   7.204 -0.2964 -0.0345 -0.0111
  150SAPE   H4S16568   4.632   0.001   7.088  1.3649  0.6226 -0.2193
  150SAPE   C2516569   4.523   0.086   7.268  0.1442 -0.0472 -0.0275
  150SAPE   H5R16570   4.422   0.096   7.225 -0.6019  0.9416  1.8461
  150SAPE   C2616571   4.541   0.078   7.401 -0.9819  0.1188 -0.1378
  150SAPE   H6R16572   4.453   0.056   7.462  0.1947 -1.0987  1.1996
  150SAPE   C2716573   4.674   0.081   7.470 -0.1420 -0.1776  0.1617
  150SAPE   H7R16574   4.749   0.135   7.407 -2.3650  0.7500 -1.8573
  150SAPE   H7S16575   4.724  -0.018   7.477 -0.3598 -0.2028  1.6771
  150SAPE   C2816576   4.661   0.132   7.609 -0.7665 -0.1540  0.3636
  150SAPE   H8R16577   4.684   0.065   7.693 -1.3550  0.9093  1.4088
  150SAPE   C2916578   4.626   0.251   7.657  0.0413  0.5835  0.4456
  150SAPE   H9R16579   4.606   0.262   7.764  0.2495 -2.3365  0.8618
  150SAPE  C21016580   4.600   0.372   7.560 -0.2106  0.8150  0.0883
  150SAPE  H10R16581   4.552   0.331   7.468 -1.8634 -0.7009  1.5552
  150SAPE  H10S16582   4.700   0.404   7.524 -0.5032  0.7127 -0.8410
  150SAPE  C21116583   4.521   0.494   7.611 -0.1445 -0.1729  0.3850
  150SAPE  H11R16584   4.416   0.502   7.579  0.5513  1.3211 -1.7335
  150SAPE  C21216585   4.576   0.574   7.700  0.6455 -0.5604  0.1473
  150SAPE  H12R16586   4.515   0.662   7.726 -0.6771 -1.2290 -0.5828
  150SAPE  C21316587   4.706   0.572   7.770 -0.2694 -0.4906  0.8854
  150SAPE  H13R16588   4.761   0.669   7.769 -1.0918 -0.0141  0.1395
  150SAPE  H13S16589   4.779   0.501   7.725  0.9922  3.0532 -3.4192
  150SAPE  C21416590   4.688   0.543   7.915  1.0618 -0.2530  0.7643
  150SAPE  H14R16591   4.618   0.616   7.959  0.9952  1.4444 -1.9169
  150SAPE  C21516592   4.750   0.465   8.001 -0.0596 -0.3893 -0.2769
  150SAPE  H15R16593   4.715   0.462   8.106 -1.1597 -0.0166 -0.6215
  150SAPE  C21616594   4.871   0.374   7.975  0.0052 -0.4356 -0.3513
  150SAPE  H16R16595   4.894   0.385   7.867  1.4315  0.3259  0.0005
  150SAPE  H16S16596   4.855   0.269   8.009  2.4962 -0.8125 -0.1346
  150SAPE  C21716597   4.999   0.407   8.064  0.1663 -0.6525 -0.3565
  150SAPE  H17R16598   5.029   0.514   8.058  0.8300 -0.7893  0.3857
  150SAPE  H17S16599   5.088   0.345   8.039  1.9577  1.8566 -0.6144
  150SAPE  C21816600   4.973   0.365   8.212 -0.2129  0.1618 -0.9787
  150SAPE  H18R16601   4.926   0.265   8.205 -1.6084  0.6529  0.5783
  150SAPE  H18S16602   4.897   0.433   8.257 -3.7264 -1.6412 -3.6494
  150SAPE  C21916603   5.112   0.362   8.291  0.1423  0.0027  0.0990
  150SAPE  H19R16604   5.139   0.467   8.313 -1.0270  0.4989 -0.7626
  150SAPE  H19S16605   5.188   0.319   8.221  0.8162 -1.2397  1.5149
  150SAPE  C22016606   5.114   0.280   8.415  0.2099 -0.0309 -0.2605
  150SAPE  H20R16607   5.066   0.182   8.392  1.2756 -1.3117  2.5234
  150SAPE  H20S16608   5.055   0.320   8.499  0.7310 -0.8315  0.5087
  150SAPE  H20T16609   5.217   0.259   8.453  0.7742  0.5089 -1.4195
  150SAPE   C3316610   4.376   0.603   7.161 -0.2173 -0.5071 -0.2237
  150SAPE   H3X16611   4.462   0.534   7.145 -1.3961 -2.0203 -0.3109
  150SAPE   H3Y16612   4.281   0.545   7.155 -0.5679 -0.0932  1.0469
  150SAPE   C3416613   4.384   0.639   7.311  0.0809  0.3458  0.1090
  150SAPE   H4X16614   4.477   0.694   7.331  0.7077 -0.7485  0.3026
  150SAPE   H4Y16615   4.393   0.539   7.360  2.0439 -1.3453 -3.2993
  150SAPE   C3516616   4.258   0.709   7.362 -1.8963 -0.4213 -0.0654
  150SAPE   H5X16617   4.166   0.655   7.331  0.4620 -4.0565 -1.2560
  150SAPE   H5Y16618   4.261   0.813   7.322 -0.0107 -0.7787 -0.9667
  150SAPE   C3616619   4.263   0.725   7.513 -0.1266  0.4488 -0.6953
  150SAPE   H6X16620   4.355   0.775   7.551 -1.1850  1.4235  0.6712
  150SAPE   H6Y16621   4.257   0.624   7.558  1.8736 -0.3327 -2.0530
  150SAPE   C3716622   4.138   0.797   7.560 -0.1018  0.7443  0.4526
  150SAPE   H7X16623   4.058   0.730   7.521  3.2919 -0.7621 -5.0165
  150SAPE   H7Y16624   4.128   0.897   7.513 -0.0693  0.8230  0.6116
  150SAPE   C3816625   4.128   0.803   7.706 -0.1908 -0.1267 -0.1295
  150SAPE   H8X16626   4.221   0.838   7.756 -0.5522 -2.6712  2.5738
  150SAPE   H8Y16627   4.109   0.702   7.746  0.6425  0.3575  1.5981
  150SAPE   C3916628   4.008   0.889   7.757  0.7985  0.2759  0.4015
  150SAPE   H9X16629   3.918   0.855   7.702  0.8903  1.6101 -0.6170
  150SAPE   H9Y16630   4.020   0.996   7.730 -0.1211  0.1154 -0.6836
  150SAPE  C31016631   3.988   0.882   7.906 -0.5453 -0.3126  0.6574
  150SAPE  H10X16632   4.082   0.915   7.955 -0.4560  0.9123 -0.3050
  150SAPE  H10Y16633   3.981   0.775   7.935 -0.3741  0.0559  2.1511
  150SAPE  C31116634   3.861   0.954   7.944  0.3532 -0.3093  0.9702
  150SAPE  H11X16635   3.773   0.901   7.903 -0.1341  1.2113 -0.0177
  150SAPE  H11Y16636   3.872   1.048   7.885  0.6061 -0.3749  0.9124
  150SAPE  C31216637   3.835   0.986   8.093  0.1220  0.6950 -0.1503
  150SAPE  H12X16638   3.741   1.043   8.109 -1.3652 -1.6599  0.0256
  150SAPE  H12Y16639   3.911   1.059   8.128  0.5160  0.8105 -1.2140
  150SAPE  C31316640   3.832   0.861   8.184 -0.1081 -0.2725 -0.3710
  150SAPE  H13X16641   3.848   0.876   8.293 -1.2981 -0.5276 -0.1439
  150SAPE  H13Y16642   3.916   0.799   8.148 -0.6527 -0.4903 -1.2934
  150SAPE  C31416643   3.709   0.777   8.157 -0.4447  0.2231 -0.4176
  150SAPE  H14X16644   3.719   0.740   8.052  1.5778 -1.1776  0.2008
  150SAPE  H14Y16645   3.616   0.838   8.162 -1.0640 -0.7664  0.5032
  150SAPE  C31516646   3.699   0.658   8.253 -0.2658  0.1360  0.4010
  150SAPE  H15X16647   3.604   0.605   8.231  1.1570 -1.4199 -2.5669
  150SAPE  H15Y16648   3.676   0.693   8.356 -1.0437 -0.4183  0.4189
  150SAPE  C31616649   3.818   0.551   8.245  0.2487 -0.2748 -0.1068
  150SAPE  H16X16650   3.906   0.603   8.287 -1.0003 -0.6947  3.3327
  150SAPE  H16Y16651   3.839   0.540   8.136  0.5391 -0.1282 -0.0670
  150SAPE  C31716652   3.791   0.419   8.312 -0.1042  0.1378  0.3253
  150SAPE  H17X16653   3.707   0.370   8.258  1.2899  0.0414 -1.8852
  150SAPE  H17Y16654   3.758   0.446   8.414 -1.1058 -2.1385  0.6679
  150SAPE  C31816655   3.900   0.319   8.321 -0.3935  0.1166 -0.0782
  150SAPE  H18X16656   3.973   0.351   8.399 -1.9586  0.6859  1.2164
  150SAPE  H18Y16657   3.955   0.306   8.225 -0.8257  0.8319 -0.4356
  150SAPE  H18Z16658   3.864   0.217   8.345 -0.5665  0.6633  2.1842
  151SAPE     N16659   2.601   3.426   5.832  0.9128  0.1025 -0.5355
  151SAPE   HN116660   2.677   3.475   5.781  0.2248  2.2379  0.3338
  151SAPE   HN216661   2.610   3.323   5.833 -1.7311 -0.2130  1.7684
  151SAPE   HN316662   2.520   3.445   5.769 -0.3431  0.8526  1.2170
  151SAPE   C1216663   2.580   3.490   5.968  0.0869  0.4092 -0.3520
  151SAPE  H12A16664   2.492   3.443   6.018 -0.1184 -0.9420 -1.9061
  151SAPE  H12B16665   2.553   3.597   5.956  0.4073  0.5561  0.1880
  151SAPE   C1116666   2.701   3.467   6.053 -0.3785  0.0205  0.0364
  151SAPE  H11A16667   2.786   3.514   6.000 -0.2369  1.4982  1.4764
  151SAPE  H11B16668   2.731   3.360   6.053 -1.7053 -0.4407 -2.5981
  151SAPE     P16669   2.656   3.439   6.298  0.3554 -0.4668 -0.1005
  151SAPE   O1316670   2.545   3.348   6.259  0.0031  0.1955 -0.0055
  151SAPE   O1416671   2.781   3.380   6.348 -0.0202 -0.0566  0.0033
  151SAPE   O1216672   2.693   3.525   6.176  0.6447 -0.5730  0.6805
  151SAPE   O1116673   2.611   3.548   6.403  0.2907  0.1616  0.0461
  151SAPE    C116674   2.702   3.647   6.451 -0.1253 -0.7580 -0.4151
  151SAPE    HA16675   2.808   3.616   6.451  0.1945  0.0753  2.0733
  151SAPE    HB16676   2.709   3.733   6.380 -1.5660  0.3900  0.7631
  151SAPE    C216677   2.664   3.702   6.592 -0.8549 -0.3879  0.3612
  151SAPE    HS16678   2.734   3.785   6.615 -1.1711 -0.2400  0.8067
  151SAPE   O2116679   2.675   3.593   6.678 -0.2261 -0.7902 -0.4323
  151SAPE   C2116680   2.805   3.583   6.729 -0.2003  0.3282 -0.0785
  151SAPE   O2216681   2.895   3.655   6.696  0.2534  0.3967  0.0571
  151SAPE   C2216682   2.814   3.479   6.840  0.6147 -0.1748 -0.2280
  151SAPE   H2R16683   2.710   3.446   6.863 -0.0833  1.9669 -0.0071
  151SAPE   H2S16684   2.871   3.389   6.811  0.0783 -0.2368 -1.1439
  151SAPE    C316685   2.519   3.757   6.600 -0.1031 -0.1295 -0.2674
  151SAPE    HX16686   2.454   3.672   6.567 -1.1410  0.7904 -0.6642
  151SAPE    HY16687   2.510   3.849   6.538 -0.5670  0.7958  1.1309
  151SAPE   O3116688   2.491   3.778   6.741 -0.1975 -0.0269  0.5951
  151SAPE   C3116689   2.389   3.865   6.775  0.5180  0.0975  0.3605
  151SAPE   O3216690   2.341   3.956   6.703  0.0775  0.6707  0.2835
  151SAPE   C3216691   2.340   3.833   6.916  0.2530  0.5359 -0.6313
  151SAPE   H2X16692   2.416   3.779   6.976 -0.5828 -1.0738 -0.9580
  151SAPE   H2Y16693   2.250   3.767   6.908  1.1389 -0.7219 -0.5815
  151SAPE   C2316694   2.880   3.533   6.973  0.2635 -0.2034  0.6761
  151SAPE   H3R16695   2.951   3.617   6.952 -0.5046  0.1780 -0.4782
  151SAPE   H3S16696   2.948   3.455   7.015  0.2194 -1.5555 -1.6084
  151SAPE   C2416697   2.781   3.563   7.080 -0.0144 -1.1232 -0.1212
  151SAPE   H4R16698   2.837   3.577   7.174 -0.5413  0.0043  0.0391
  151SAPE   H4S16699   2.708   3.479   7.083  0.5530 -1.9131 -3.5235
  151SAPE   C2516700   2.708   3.690   7.040  0.6176 -0.9215  0.0318
  151SAPE   H5R16701   2.671   3.693   6.937  1.6279  2.1101 -0.3227
  151SAPE   C2616702   2.689   3.795   7.127 -0.4332  0.1803 -0.1522
  151SAPE   H6R16703   2.650   3.887   7.081  4.1871  2.0500 -0.8738
  151SAPE   C2716704   2.730   3.809   7.276 -0.2454  0.0633  0.6570
  151SAPE   H7R16705   2.827   3.759   7.298  1.6452  3.1084 -0.1989
  151SAPE   H7S16706   2.642   3.777   7.336 -0.6964  0.9307  0.4767
  151SAPE   C2816707   2.749   3.954   7.300  0.6705 -0.0922  0.4906
  151SAPE   H8R16708   2.809   4.011   7.227  1.0548 -0.8365  0.2146
  151SAPE   C2916709   2.702   4.032   7.398  0.4387 -0.7129 -0.4033
  151SAPE   H9R16710   2.712   4.141   7.393  1.1734 -0.8121 -1.3380
  151SAPE  C21016711   2.617   3.991   7.518 -0.5957  0.4657 -0.8853
  151SAPE  H10R16712   2.550   3.905   7.494 -0.8154  0.1890  0.6262
  151SAPE  H10S16713   2.550   4.077   7.534  0.3899  1.2299 -0.7782
  151SAPE  C21116714   2.713   3.970   7.633 -0.1301 -0.0933  0.3065
  151SAPE  H11R16715   2.783   3.887   7.614 -0.4373  0.2956 -3.0088
  151SAPE  C21216716   2.730   4.047   7.740  1.0001 -0.7233 -0.6725
  151SAPE  H12R16717   2.827   4.041   7.790  1.0314  0.1449 -0.6200
  151SAPE  C21316718   2.656   4.170   7.770  0.2270  0.2044 -0.2512
  151SAPE  H13R16719   2.608   4.152   7.869  1.8859  2.0446  0.9651
  151SAPE  H13S16720   2.577   4.194   7.696 -0.5158 -0.7148  0.2158
  151SAPE  C21416721   2.744   4.296   7.786  1.0041 -0.2837 -0.3389
  151SAPE  H14R16722   2.854   4.291   7.792  1.3673  4.4009  3.7086
  151SAPE  C21516723   2.693   4.421   7.825 -0.2913  0.0235  0.1492
  151SAPE  H15R16724   2.763   4.506   7.831 -1.6257  1.1767 -0.0756
  151SAPE  C21616725   2.539   4.435   7.853  0.2579  0.3350 -0.2019
  151SAPE  H16R16726   2.481   4.375   7.780  0.9260 -0.5561 -0.0225
  151SAPE  H16S16727   2.514   4.542   7.838  0.7073  0.5271  0.4015
  151SAPE  C21716728   2.489   4.404   8.002  0.2871  0.4219 -0.6200
  151SAPE  H17R16729   2.504   4.298   8.031  1.6260  0.4419 -1.1569
  151SAPE  H17S16730   2.379   4.418   7.996 -0.3718 -1.6305  3.1546
  151SAPE  C21816731   2.542   4.498   8.119  0.5354  0.3122  0.2075
  151SAPE  H18R16732   2.498   4.598   8.094  0.7227  0.7622  1.6268
  151SAPE  H18S16733   2.653   4.507   8.120  0.4261  2.7561  2.8799
  151SAPE  C21916734   2.488   4.451   8.260  0.2973  0.3143  0.4929
  151SAPE  H19R16735   2.540   4.358   8.292  0.8313  1.1203  2.0752
  151SAPE  H19S16736   2.381   4.426   8.244  0.1172  0.6535  1.1212
  151SAPE  C22016737   2.503   4.553   8.368 -0.0958 -0.3422 -0.8040
  151SAPE  H20R16738   2.432   4.529   8.450  0.7525  0.1084  0.0810
  151SAPE  H20S16739   2.604   4.580   8.405  0.3777 -0.9771 -1.5803
  151SAPE  H20T16740   2.457   4.645   8.324  0.9135  1.3094  1.4235
  151SAPE   C3316741   2.303   3.959   7.000  0.2231  0.2715  0.0356
  151SAPE   H3X16742   2.201   3.985   6.965  0.4893 -1.7669 -2.6175
  151SAPE   H3Y16743   2.367   4.045   6.973 -0.2568  0.7364  0.3505
  151SAPE   C3416744   2.298   3.953   7.155  0.1972 -0.1919 -0.7835
  151SAPE   H4X16745   2.400   3.936   7.198 -0.0320 -0.1651 -0.2251
  151SAPE   H4Y16746   2.226   3.879   7.194 -0.1913  0.0537 -1.0302
  151SAPE   C3516747   2.250   4.089   7.224 -0.1807  0.8722 -0.0606
  151SAPE   H5X16748   2.149   4.108   7.181  0.2214  2.9575 -0.2181
  151SAPE   H5Y16749   2.311   4.170   7.178 -0.9254 -0.2738 -3.3356
  151SAPE   C3616750   2.264   4.082   7.376 -0.0254 -0.0222 -0.2188
  151SAPE   H6X16751   2.363   4.040   7.407  0.0921  0.6122  0.3092
  151SAPE   H6Y16752   2.183   4.011   7.403  1.2482 -1.0747  0.9995
  151SAPE   C3716753   2.235   4.212   7.444 -0.0387  0.0732  0.2381
  151SAPE   H7X16754   2.135   4.247   7.414 -0.4643 -1.1846  0.1160
  151SAPE   H7Y16755   2.320   4.278   7.419 -0.4685  0.5409  0.0071
  151SAPE   C3816756   2.223   4.194   7.595 -0.0253 -0.1256 -0.3301
  151SAPE   H8X16757   2.318   4.147   7.629  1.3833  1.1702 -2.2280
  151SAPE   H8Y16758   2.137   4.125   7.611 -1.8975  2.0230 -0.5837
  151SAPE   C3916759   2.193   4.320   7.670 -0.2230  0.8739 -0.1360
  151SAPE   H9X16760   2.113   4.385   7.629 -0.2871  0.5598 -0.5139
  151SAPE   H9Y16761   2.281   4.387   7.661  0.5959 -0.3056 -1.3439
  151SAPE  C31016762   2.152   4.280   7.809  0.5253 -0.0468  0.2301
  151SAPE  H10X16763   2.222   4.215   7.867  1.1396  1.1229  0.8261
  151SAPE  H10Y16764   2.053   4.228   7.809  0.4626 -0.0784  2.6291
  151SAPE  C31116765   2.131   4.407   7.893 -0.1879  0.3775  0.0405
  151SAPE  H11X16766   2.053   4.461   7.835 -0.4377  0.8180  0.7778
  151SAPE  H11Y16767   2.224   4.468   7.892  0.2318 -0.2505 -1.3164
  151SAPE  C31216768   2.081   4.376   8.038 -0.4435 -0.5820  0.0140
  151SAPE  H12X16769   2.151   4.296   8.071  1.6988  1.1790 -0.0110
  151SAPE  H12Y16770   1.982   4.328   8.028 -0.4528 -0.3218 -1.2941
  151SAPE  C31316771   2.081   4.504   8.131 -0.1795 -0.3417 -0.5947
  151SAPE  H13X16772   2.031   4.587   8.077 -1.5581 -0.3874  0.5568
  151SAPE  H13Y16773   2.181   4.551   8.142 -1.1199  1.2847  2.1246
  151SAPE  C31416774   2.007   4.488   8.262  0.3725 -0.0430  0.4498
  151SAPE  H14X16775   2.078   4.426   8.321  1.9632  1.7205  0.4647
  151SAPE  H14Y16776   1.917   4.425   8.243 -0.2242  0.3171  2.0005
  151SAPE  C31516777   1.963   4.614   8.338 -0.0538 -0.2845  0.1413
  151SAPE  H15X16778   1.930   4.587   8.441  2.3214 -1.9229  0.5377
  151SAPE  H15Y16779   1.882   4.660   8.276  1.6253  2.6053 -0.0652
  151SAPE  C31616780   2.089   4.694   8.354  0.2552 -0.0168  0.2320
  151SAPE  H16X16781   2.127   4.739   8.260 -0.6325  1.5460  0.5830
  151SAPE  H16Y16782   2.173   4.628   8.386  0.1676 -0.6546 -0.7807
  151SAPE  C31716783   2.069   4.810   8.458 -0.2379  0.4691 -0.1783
  151SAPE  H17X16784   2.080   4.758   8.556 -0.8142 -0.4818 -0.6027
  151SAPE  H17Y16785   1.964   4.843   8.444 -0.8156 -0.2198  2.0565
  151SAPE  C31816786   2.174   4.924   8.462  0.2049  0.7669  0.5509
  151SAPE  H18X16787   2.139   4.991   8.543 -0.6543  0.5012  0.4088
  151SAPE  H18Y16788   2.171   4.981   8.367 -1.3405 -0.0133  0.1004
  151SAPE  H18Z16789   2.274   4.884   8.491 -0.0681 -1.9591 -1.7698
  152SAPE     N16790   3.587   2.988   6.263  0.0712 -0.5437 -0.4139
  152SAPE   HN116791   3.579   3.059   6.338 -0.5474 -0.7665 -0.2595
  152SAPE   HN216792   3.604   3.037   6.172 -0.4540  0.9556  0.2597
  152SAPE   HN316793   3.496   2.937   6.260 -1.3755  1.8639 -2.6042
  152SAPE   C1216794   3.708   2.916   6.300 -0.8789  0.3632  0.5953
  152SAPE  H12A16795   3.720   2.842   6.217 -0.4564  3.3221 -2.1603
  152SAPE  H12B16796   3.670   2.865   6.391 -4.9127 -0.5960 -1.3583
  152SAPE   C1116797   3.834   2.995   6.335 -0.0217 -0.7311 -0.5151
  152SAPE  H11A16798   3.914   2.925   6.367 -0.1304 -0.4960  0.2807
  152SAPE  H11B16799   3.814   3.051   6.429 -1.2512 -0.3290 -0.9900
  152SAPE     P16800   3.856   3.243   6.239 -0.1722  0.1356  0.0404
  152SAPE   O1316801   3.921   3.308   6.119  0.8920 -0.3547 -0.1125
  152SAPE   O1416802   3.714   3.264   6.255  0.3778 -0.4671  0.0943
  152SAPE   O1216803   3.867   3.084   6.225 -0.9252 -0.2122  0.1952
  152SAPE   O1116804   3.933   3.273   6.376  0.2792  0.0998 -0.4664
  152SAPE    C116805   3.917   3.409   6.424 -0.2500  0.1182 -0.7108
  152SAPE    HA16806   3.998   3.471   6.380  1.7032 -2.1087 -0.4934
  152SAPE    HB16807   3.822   3.457   6.395 -1.5102 -2.0700 -0.4468
  152SAPE    C216808   3.940   3.412   6.575  0.2396  0.7526  0.5721
  152SAPE    HS16809   4.040   3.368   6.593 -0.0183  0.0891  0.3870
  152SAPE   O2116810   3.830   3.349   6.647  0.1773  0.2067  0.2552
  152SAPE   C2116811   3.860   3.225   6.683  0.2411 -0.0935  0.1401
  152SAPE   O2216812   3.956   3.166   6.652 -0.1667  0.4811 -0.3616
  152SAPE   C2216813   3.746   3.161   6.755 -0.2865  0.2017  0.1232
  152SAPE   H2R16814   3.656   3.226   6.748 -1.3164 -1.1573  0.3425
  152SAPE   H2S16815   3.709   3.076   6.694 -3.1410  1.6246 -0.2953
  152SAPE    C316816   3.954   3.556   6.624  0.4998  0.0459 -0.1209
  152SAPE    HX16817   3.875   3.616   6.575 -0.9879 -1.7221 -0.0048
  152SAPE    HY16818   4.042   3.610   6.584 -0.1689 -0.1725 -1.9566
  152SAPE   O3116819   3.969   3.572   6.767  0.4083 -0.8522  0.0431
  152SAPE   C3116820   3.861   3.619   6.832 -0.2153  0.1076  0.6905
  152SAPE   O3216821   3.754   3.637   6.781  0.6183 -0.2978 -0.0766
  152SAPE   C3216822   3.891   3.662   6.972 -1.2835 -0.3060  0.4293
  152SAPE   H2X16823   3.975   3.735   6.973  0.1472 -1.8747  1.0454
  152SAPE   H2Y16824   3.937   3.577   7.029  0.5592  0.7851  0.6501
  152SAPE   C2316825   3.773   3.117   6.906  0.3399 -0.4235 -0.1047
  152SAPE   H3R16826   3.842   3.031   6.899  0.1293 -0.4602 -2.7810
  152SAPE   H3S16827   3.678   3.083   6.952  1.0749 -0.7978  1.1827
  152SAPE   C2416828   3.838   3.224   6.992  0.5169  0.0793 -0.2911
  152SAPE   H4R16829   3.933   3.257   6.946  0.7679 -1.5448 -1.0098
  152SAPE   H4S16830   3.866   3.179   7.090  1.8393 -1.5904 -1.3653
  152SAPE   C2516831   3.750   3.350   7.009 -0.6770 -0.0523 -0.2744
  152SAPE   H5R16832   3.719   3.396   6.914 -0.5649 -2.1916 -1.4109
  152SAPE   C2616833   3.685   3.389   7.123  0.4791 -0.3064  0.0332
  152SAPE   H6R16834   3.608   3.467   7.115  0.6034 -0.0913  0.8677
  152SAPE   C2716835   3.682   3.309   7.250 -0.6891  0.2124 -0.2146
  152SAPE   H7R16836   3.782   3.276   7.285 -0.4304 -1.3451 -2.2689
  152SAPE   H7S16837   3.648   3.209   7.216  0.3129 -0.3006  0.2576
  152SAPE   C2816838   3.591   3.342   7.368 -0.3868  0.7986  0.0729
  152SAPE   H8R16839   3.643   3.399   7.446 -2.1349  1.9863  0.4211
  152SAPE   C2916840   3.457   3.312   7.375 -0.0209  0.2316  1.1282
  152SAPE   H9R16841   3.397   3.355   7.457 -0.7481 -1.4954  1.5516
  152SAPE  C21016842   3.379   3.254   7.253 -0.1541 -0.2674  0.2600
  152SAPE  H10R16843   3.450   3.202   7.184  1.9817  1.2969  1.1427
  152SAPE  H10S16844   3.334   3.331   7.187 -0.1485  0.0663  0.6444
  152SAPE  C21116845   3.278   3.149   7.295  0.1376  0.6983  0.3223
  152SAPE  H11R16846   3.302   3.044   7.273  1.0330  1.2089 -1.2601
  152SAPE  C21216847   3.155   3.168   7.354 -0.0243  0.3764 -0.5983
  152SAPE  H12R16848   3.091   3.086   7.391 -1.1592  1.5265  0.0370
  152SAPE  C21316849   3.100   3.305   7.394  0.0687  0.1551  0.4253
  152SAPE  H13R16850   3.166   3.387   7.359  1.3813 -0.9754  0.1159
  152SAPE  H13S16851   3.093   3.310   7.504  1.0508  1.1381  0.4645
  152SAPE  C21416852   2.964   3.340   7.333  0.0950  0.3997  0.4612
  152SAPE  H14R16853   2.954   3.323   7.225 -0.6221 -0.8948  0.7096
  152SAPE  C21516854   2.856   3.385   7.396 -0.1388  0.3898  0.3519
  152SAPE  H15R16855   2.761   3.399   7.341 -0.6420  0.2714  1.1664
  152SAPE  C21616856   2.848   3.418   7.548 -1.0467 -0.2326  0.6365
  152SAPE  H16R16857   2.949   3.401   7.591 -0.9586  0.3924  0.6867
  152SAPE  H16S16858   2.780   3.347   7.599 -0.2236 -1.6635 -0.1995
  152SAPE  C21716859   2.790   3.560   7.573  0.0089 -0.3371  0.0059
  152SAPE  H17R16860   2.694   3.583   7.522 -1.1538  0.5502  2.4366
  152SAPE  H17S16861   2.859   3.643   7.545 -2.1495  1.8869  0.8237
  152SAPE  C21816862   2.755   3.575   7.726 -0.6458 -0.1232  0.3220
  152SAPE  H18R16863   2.675   3.504   7.756  0.2066 -1.0202  0.4989
  152SAPE  H18S16864   2.721   3.680   7.736  1.0870  0.3955  1.0982
  152SAPE  C21916865   2.879   3.559   7.816 -0.3265 -0.4765 -0.0651
  152SAPE  H19R16866   2.931   3.461   7.804  0.0709 -0.0137 -3.1473
  152SAPE  H19S16867   2.851   3.574   7.922  0.1188 -1.9973  0.2842
  152SAPE  C22016868   2.992   3.657   7.783 -0.7059 -0.4100  0.3968
  152SAPE  H20R16869   3.067   3.655   7.865 -1.1474 -0.3647  0.8036
  152SAPE  H20S16870   2.957   3.762   7.767 -1.3440 -0.6041  0.5080
  152SAPE  H20T16871   3.040   3.629   7.687 -0.5557 -1.5566  0.8004
  152SAPE   C3316872   3.762   3.709   7.038 -0.1740 -0.1349  0.2208
  152SAPE   H3X16873   3.677   3.644   7.010  0.8990 -0.5944 -2.2833
  152SAPE   H3Y16874   3.739   3.811   7.000 -0.7681 -0.0433  0.8221
  152SAPE   C3416875   3.770   3.718   7.190  0.1576 -0.2111 -0.8654
  152SAPE   H4X16876   3.825   3.813   7.205 -1.6291  0.7418 -0.0947
  152SAPE   H4Y16877   3.827   3.634   7.236 -2.1137 -0.5337  1.5351
  152SAPE   C3516878   3.636   3.736   7.259  0.2112 -0.1874 -0.4303
  152SAPE   H5X16879   3.590   3.636   7.273 -1.6328  0.6949  0.0728
  152SAPE   H5Y16880   3.576   3.801   7.191 -0.5322 -2.7129 -2.3124
  152SAPE   C3616881   3.650   3.798   7.406 -0.2135  0.6899 -0.2765
  152SAPE   H6X16882   3.557   3.844   7.445 -0.5039  0.4407 -0.6706
  152SAPE   H6Y16883   3.720   3.883   7.397  0.1771  0.6269  1.7412
  152SAPE   C3716884   3.704   3.705   7.511 -0.8578 -1.0166 -0.0364
  152SAPE   H7X16885   3.805   3.668   7.484 -0.0077  0.1655  1.4013
  152SAPE   H7Y16886   3.634   3.619   7.522 -0.5986 -1.5043 -1.8534
  152SAPE   C3816887   3.711   3.781   7.642  0.1115 -0.5649  0.3007
  152SAPE   H8X16888   3.611   3.820   7.670 -0.6205 -2.7617  0.9126
  152SAPE   H8Y16889   3.778   3.869   7.628  1.7716 -1.0632  3.9648
  152SAPE   C3916890   3.748   3.696   7.764  0.1531 -0.0012  0.9616
  152SAPE   H9X16891   3.846   3.647   7.746 -0.8945 -1.8208 -0.2476
  152SAPE   H9Y16892   3.680   3.609   7.777  0.5770 -0.7270 -1.2108
  152SAPE  C31016893   3.760   3.783   7.890 -0.0205 -0.5900  0.6332
  152SAPE  H10X16894   3.697   3.874   7.873 -1.9619 -2.0364 -0.2956
  152SAPE  H10Y16895   3.857   3.837   7.898 -1.4437  2.1124  1.2733
  152SAPE  C31116896   3.710   3.718   8.017 -0.2418  0.6057  0.2244
  152SAPE  H11X16897   3.766   3.629   8.053 -0.6966  1.7666  4.4079
  152SAPE  H11Y16898   3.614   3.669   7.992 -0.5142  0.9854  0.5078
  152SAPE  C31216899   3.721   3.813   8.136 -0.5177  0.2653  0.0560
  152SAPE  H12X16900   3.619   3.847   8.164 -1.1859 -1.8393  0.3927
  152SAPE  H12Y16901   3.780   3.904   8.115  0.6865  0.1111  2.3555
  152SAPE  C31316902   3.783   3.757   8.267  0.3547 -0.2348  0.7785
  152SAPE  H13X16903   3.870   3.712   8.215 -1.2250 -1.2183 -1.1474
  152SAPE  H13Y16904   3.721   3.680   8.317 -2.2337 -0.2791 -2.1698
  152SAPE  C31416905   3.814   3.872   8.370  0.3200  0.3002 -0.1275
  152SAPE  H14X16906   3.879   3.953   8.328 -0.3889  1.7896  1.5054
  152SAPE  H14Y16907   3.878   3.829   8.450 -0.4064 -3.6178 -1.4556
  152SAPE  C31516908   3.686   3.944   8.430 -0.5976  0.4246 -1.3157
  152SAPE  H15X16909   3.618   3.959   8.344 -0.4089  0.7978 -1.4012
  152SAPE  H15Y16910   3.719   4.035   8.484 -2.8372 -0.0451  1.0304
  152SAPE  C31616911   3.624   3.856   8.536 -0.2656  0.0768  1.0314
  152SAPE  H16X16912   3.597   3.760   8.486  0.1833  0.0865  0.7707
  152SAPE  H16Y16913   3.528   3.903   8.565 -0.7735 -0.8606  0.9308
  152SAPE  C31716914   3.699   3.839   8.667 -0.0177  0.2278 -0.2906
  152SAPE  H17X16915   3.805   3.814   8.642 -0.7626 -0.2325 -3.4686
  152SAPE  H17Y16916   3.654   3.752   8.720  0.1856 -2.6842 -4.3809
  152SAPE  C31816917   3.701   3.966   8.744  0.2595 -0.3624 -0.0081
  152SAPE  H18X16918   3.765   4.048   8.704 -0.7656  1.0153  1.0355
  152SAPE  H18Y16919   3.722   3.953   8.852 -0.6932 -0.4095  0.1799
  152SAPE  H18Z16920   3.598   4.008   8.744 -0.4514 -1.5972  4.2937
  153SAPE     N16921   0.079   0.682   5.926  0.5919  0.1818 -0.2653
  153SAPE   HN116922  -0.014   0.639   5.947  0.4164  1.0630  0.8814
  153SAPE   HN216923   0.061   0.778   5.960  1.0008 -0.5382  2.2438
  153SAPE   HN316924   0.082   0.677   5.822  1.3187 -1.0647 -0.2086
  153SAPE   C1216925   0.188   0.616   6.004 -0.2831  0.6084  0.2992
  153SAPE  H12A16926   0.283   0.671   5.988 -0.0149  0.5659  1.6693
  153SAPE  H12B16927   0.187   0.514   5.959 -0.8174  1.5235 -1.9202
  153SAPE   C1116928   0.151   0.610   6.151  0.3370  0.1941  0.1857
  153SAPE  H11A16929   0.144   0.716   6.184  3.5652 -0.1212  2.3326
  153SAPE  H11B16930   0.232   0.567   6.213  0.0911  0.0170  0.3833
  153SAPE     P16931   0.033   0.386   6.232  0.0747 -0.2077 -0.5242
  153SAPE   O1316932  -0.101   0.329   6.211  0.7493 -0.1191  0.4013
  153SAPE   O1416933   0.141   0.314   6.165 -0.2020 -0.2116 -0.2493
  153SAPE   O1216934   0.028   0.538   6.182 -0.0511  0.1349 -0.5597
  153SAPE   O1116935   0.065   0.382   6.387  0.0753 -0.5090  0.2074
  153SAPE    C116936  -0.007   0.458   6.485  0.8857 -0.5476  0.4342
  153SAPE    HA16937  -0.097   0.511   6.448  1.7432  0.4138 -0.3289
  153SAPE    HB16938  -0.039   0.393   6.570  3.0947 -2.0385  0.2305
  153SAPE    C216939   0.082   0.566   6.548  0.2487  0.6950  1.5848
  153SAPE    HS16940   0.103   0.638   6.466 -0.1720  0.2909  1.1143
  153SAPE   O2116941   0.199   0.497   6.598  0.1233  0.3083  0.2792
  153SAPE   C2116942   0.300   0.579   6.610 -0.0107  0.6157  0.0335
  153SAPE   O2216943   0.311   0.694   6.574  0.0671 -0.2539  0.3523
  153SAPE   C2216944   0.410   0.503   6.690 -0.0720 -0.4679 -0.1019
  153SAPE   H2R16945   0.454   0.440   6.610 -1.5411  0.0052 -1.3332
  153SAPE   H2S16946   0.501   0.563   6.710 -0.0330 -1.0881  1.8831
  153SAPE    C316947   0.010   0.647   6.661  0.7494  0.5503 -0.1907
  153SAPE    HX16948  -0.094   0.669   6.627  0.0410 -0.1185  1.4225
  153SAPE    HY16949   0.063   0.744   6.664 -2.2830  2.4973 -2.6343
  153SAPE   O3116950   0.021   0.580   6.784 -0.1250  0.5731 -0.0673
  153SAPE   C3116951  -0.075   0.502   6.825 -0.1693  0.6014 -0.0703
  153SAPE   O3216952  -0.185   0.494   6.772 -0.2607 -0.1540  0.2878
  153SAPE   C3216953  -0.041   0.423   6.950 -1.0629 -0.2856  0.1230
  153SAPE   H2X16954  -0.001   0.496   7.023 -0.3604  0.1624 -0.6894
  153SAPE   H2Y16955   0.041   0.354   6.922 -1.2303 -0.3026 -0.3414
  153SAPE   C2316956   0.364   0.422   6.814  0.4960 -0.0948  0.4751
  153SAPE   H3R16957   0.446   0.353   6.842  0.7029 -0.0764 -0.0744
  153SAPE   H3S16958   0.277   0.356   6.789  1.4765 -2.2509  2.4138
  153SAPE   C2416959   0.329   0.504   6.943 -0.0124 -0.1938  0.5308
  153SAPE   H4R16960   0.238   0.567   6.927  0.6553  0.7085  0.2296
  153SAPE   H4S16961   0.416   0.565   6.975 -0.3103  0.1142  0.7591
  153SAPE   C2516962   0.300   0.409   7.063 -1.3760 -0.8871  0.5791
  153SAPE   H5R16963   0.264   0.305   7.054 -1.0540 -0.9663  0.1632
  153SAPE   C2616964   0.317   0.444   7.191 -0.3133  0.3157  0.0501
  153SAPE   H6R16965   0.286   0.374   7.270 -2.9904  0.5231 -0.6841
  153SAPE   C2716966   0.349   0.582   7.246  0.1818  0.9925  0.3024
  153SAPE   H7R16967   0.353   0.670   7.178 -1.1540  0.6687 -0.2277
  153SAPE   H7S16968   0.452   0.571   7.284  1.2590  0.2356 -2.5527
  153SAPE   C2816969   0.260   0.627   7.364 -0.3552  0.4310 -0.4265
  153SAPE   H8R16970   0.181   0.701   7.345 -2.4598 -0.8888  2.4439
  153SAPE   C2916971   0.262   0.574   7.491  0.2419 -0.0344  0.4116
  153SAPE   H9R16972   0.198   0.610   7.573  1.4471  0.7788  1.0214
  153SAPE  C21016973   0.360   0.466   7.541 -0.6786 -0.1084 -0.8097
  153SAPE  H10R16974   0.418   0.415   7.462  1.3836 -0.2368  0.7167
  153SAPE  H10S16975   0.305   0.383   7.590 -0.7652 -1.1832 -2.6378
  153SAPE  C21116976   0.452   0.537   7.638 -0.4546 -0.5402  0.2242
  153SAPE  H11R16977   0.509   0.622   7.601  0.0387 -1.3790 -1.0020
  153SAPE  C21216978   0.475   0.494   7.766  0.3292  0.4966 -0.0158
  153SAPE  H12R16979   0.554   0.541   7.825  1.1554 -0.7192 -0.1140
  153SAPE  C21316980   0.411   0.381   7.841 -0.3398 -0.0547 -0.9362
  153SAPE  H13R16981   0.359   0.311   7.772 -0.2609 -1.3736  0.2932
  153SAPE  H13S16982   0.330   0.413   7.910 -0.2009 -0.2723 -0.6675
  153SAPE  C21416983   0.506   0.301   7.926  0.2263  0.6570 -0.8043
  153SAPE  H14R16984   0.603   0.277   7.879  2.2041  3.3430  1.5644
  153SAPE  C21516985   0.483   0.255   8.049  0.1384  0.1398  0.4700
  153SAPE  H15R16986   0.557   0.186   8.092  0.5707  0.1543 -0.2427
  153SAPE  C21616987   0.358   0.284   8.130  0.6287 -0.2844 -0.5573
  153SAPE  H16R16988   0.328   0.199   8.194  1.3477 -0.3900 -0.3550
  153SAPE  H16S16989   0.268   0.300   8.067 -1.0321 -0.7579  1.5852
  153SAPE  C21716990   0.380   0.415   8.214 -0.5162  0.1476 -0.4374
  153SAPE  H17R16991   0.280   0.448   8.249  0.2811  0.0395  2.1597
  153SAPE  H17S16992   0.419   0.504   8.161  1.4975  0.2760  1.1128
  153SAPE  C21816993   0.468   0.391   8.340  0.4586 -0.1154 -0.3358
  153SAPE  H18R16994   0.562   0.354   8.296  0.5685 -0.8049  0.4515
  153SAPE  H18S16995   0.427   0.301   8.391  0.4311 -0.1564 -0.4311
  153SAPE  C21916996   0.452   0.504   8.446  0.2444  0.3428 -0.0221
  153SAPE  H19R16997   0.495   0.485   8.546  0.2454 -2.0549 -0.4198
  153SAPE  H19S16998   0.342   0.512   8.455  0.3120 -1.3530  5.6922
  153SAPE  C22016999   0.527   0.632   8.391 -0.0091 -0.2525  0.0634
  153SAPE  H20R17000   0.625   0.611   8.344  0.2929  0.8815  0.1637
  153SAPE  H20S17001   0.549   0.698   8.478  1.0856 -1.3102  0.6204
  153SAPE  H20T17002   0.459   0.676   8.315  2.4025  1.7166 -1.1029
  153SAPE   C3317003  -0.156   0.346   7.024 -0.6807  0.2552 -0.2888
  153SAPE   H3X17004  -0.219   0.289   6.952 -2.0505 -0.4689  1.4123
  153SAPE   H3Y17005  -0.227   0.412   7.078 -1.3106 -1.8619  1.6489
  153SAPE   C3417006  -0.099   0.235   7.116 -0.5537 -0.0295  0.1558
  153SAPE   H4X17007  -0.036   0.169   7.052 -1.2140 -0.0067 -0.5303
  153SAPE   H4Y17008  -0.184   0.166   7.138 -0.8405  0.0337 -0.7344
  153SAPE   C3517009  -0.039   0.297   7.239 -0.3388 -0.0564 -0.1262
  153SAPE   H5X17010  -0.114   0.363   7.288 -0.5763  0.1482 -0.7538
  153SAPE   H5Y17011   0.047   0.358   7.204 -1.0732  0.8722 -0.3686
  153SAPE   C3617012   0.007   0.193   7.339  0.4250  0.8639 -0.4157
  153SAPE   H6X17013   0.081   0.122   7.297 -1.0730  0.6358 -2.9183
  153SAPE   H6Y17014  -0.080   0.125   7.351  0.5591  0.3736 -1.9574
  153SAPE   C3717015   0.074   0.236   7.464  0.0982 -0.2595 -0.0432
  153SAPE   H7X17016   0.167   0.296   7.447  0.7364 -0.4521  2.4336
  153SAPE   H7Y17017   0.107   0.141   7.512 -0.5662  0.6515  2.3494
  153SAPE   C3817018  -0.016   0.325   7.554 -0.3443  0.0134  0.3327
  153SAPE   H8X17019  -0.121   0.292   7.542 -0.7723  0.6646  2.0018
  153SAPE   H8Y17020  -0.017   0.432   7.523 -1.5820 -0.3078 -0.7958
  153SAPE   C3917021   0.029   0.319   7.698  0.0477  0.6111 -0.4728
  153SAPE   H9X17022   0.130   0.360   7.718  0.2095  0.0828 -0.1984
  153SAPE   H9Y17023   0.021   0.214   7.734  0.5220  0.5079 -0.6603
  153SAPE  C31017024  -0.054   0.422   7.788  0.2573 -0.6981 -0.4339
  153SAPE  H10X17025  -0.040   0.527   7.754 -2.3050 -0.0296  0.3035
  153SAPE  H10Y17026  -0.016   0.418   7.892 -1.7199  2.5523  0.5505
  153SAPE  C31117027  -0.205   0.394   7.803  1.0455  0.2256  0.7297
  153SAPE  H11X17028  -0.202   0.294   7.853 -2.6324  0.5168  1.8027
  153SAPE  H11Y17029  -0.257   0.388   7.705 -1.3832 -1.3818  2.0260
  153SAPE  C31217030  -0.277   0.498   7.887  0.8547  0.1352  0.1179
  153SAPE  H12X17031  -0.377   0.458   7.916  1.6107 -1.4835  0.6691
  153SAPE  H12Y17032  -0.264   0.588   7.824  0.3501  0.0104 -0.1642
  153SAPE  C31317033  -0.207   0.555   8.012 -0.0738  0.3724 -0.0856
  153SAPE  H13X17034  -0.261   0.646   8.045  0.6011  0.8591 -0.3045
  153SAPE  H13Y17035  -0.102   0.587   7.994  0.0328  0.3568  0.4962
  153SAPE  C31417036  -0.219   0.464   8.139  0.8291  0.0824 -0.1826
  153SAPE  H14X17037  -0.170   0.368   8.113  0.5950 -0.5122  1.4406
  153SAPE  H14Y17038  -0.329   0.452   8.150  0.6185  1.6621 -0.2574
  153SAPE  C31517039  -0.147   0.525   8.258  0.0030 -0.5093 -0.0166
  153SAPE  H15X17040  -0.215   0.605   8.292 -1.1034 -1.3207 -0.2727
  153SAPE  H15Y17041  -0.058   0.583   8.224  0.0972 -1.3021 -1.2135
  153SAPE  C31617042  -0.120   0.423   8.370  0.0961  0.8509 -0.5853
  153SAPE  H16X17043  -0.210   0.361   8.387 -1.3367  2.9446 -0.1817
  153SAPE  H16Y17044  -0.111   0.494   8.455 -1.9766  0.0996  0.3233
  153SAPE  C31717045  -0.001   0.326   8.357 -0.0258  0.0649  0.0056
  153SAPE  H17X17046   0.090   0.388   8.348 -0.8871  1.4408  0.5576
  153SAPE  H17Y17047  -0.013   0.264   8.265 -0.7907 -0.1788  0.2590
  153SAPE  C31817048   0.019   0.234   8.481  0.1681 -0.4656 -0.2583
  153SAPE  H18X17049  -0.054   0.151   8.492 -0.2408  0.0462  1.0799
  153SAPE  H18Y17050   0.025   0.300   8.570  1.6507  2.1665 -2.1622
  153SAPE  H18Z17051   0.120   0.189   8.468  0.0862 -0.1128 -2.5224
  154SAPE     N17052   5.215   2.022   5.805 -0.0461  0.5706  0.0353
  154SAPE   HN117053   5.124   2.071   5.823 -0.2967 -0.1338  0.7058
  154SAPE   HN217054   5.279   2.104   5.798  1.6200 -0.8307 -2.3908
  154SAPE   HN317055   5.218   1.981   5.710 -1.9347  0.3233  0.0381
  154SAPE   C1217056   5.258   1.936   5.922 -0.4543 -0.2250  0.9298
  154SAPE  H12A17057   5.183   1.855   5.934 -3.3089  2.0101 -0.5013
  154SAPE  H12B17058   5.240   1.991   6.017  1.5822  0.5008  0.9523
  154SAPE   C1117059   5.414   1.910   5.920 -0.6910  0.1782 -0.2240
  154SAPE  H11A17060   5.435   1.858   5.824 -1.8033  2.4665 -1.7949
  154SAPE  H11B17061   5.436   1.841   6.004 -1.3646  1.2904  0.8958
  154SAPE     P17062   5.625   2.038   6.007  0.1525 -0.5683  0.2544
  154SAPE   O1317063   5.728   1.935   5.980 -0.2422  0.5605 -0.5208
  154SAPE   O1417064   5.663   2.182   5.992  0.5436 -0.0011 -0.2061
  154SAPE   O1217065   5.493   2.025   5.920 -0.0608  0.0215 -0.1728
  154SAPE   O1117066   5.587   2.017   6.157  0.1985  0.2070 -0.1985
  154SAPE    C117067   5.476   2.090   6.217 -0.1880 -0.4357 -0.4015
  154SAPE    HA17068   5.412   2.142   6.142 -1.9425  0.1516  1.4025
  154SAPE    HB17069   5.402   2.027   6.272 -1.9200  2.1052  0.3883
  154SAPE    C217070   5.522   2.192   6.329 -0.1559 -0.4240  0.2164
  154SAPE    HS17071   5.590   2.263   6.277  0.1094 -1.0897 -0.3708
  154SAPE   O2117072   5.594   2.115   6.426 -0.6328 -0.7147 -0.2552
  154SAPE   C2117073   5.665   2.188   6.506  0.2913 -0.7577  0.9658
  154SAPE   O2217074   5.681   2.308   6.506  0.0911 -0.5877 -0.1511
  154SAPE   C2217075   5.727   2.091   6.604 -0.1336 -0.0064  0.9145
  154SAPE   H2R17076   5.768   2.004   6.550 -1.9259 -0.2740 -0.1069
  154SAPE   H2S17077   5.812   2.141   6.656  0.6259 -0.2750 -0.0432
  154SAPE    C317078   5.401   2.270   6.384  0.3764  1.0088 -0.2674
  154SAPE    HX17079   5.341   2.316   6.303  0.3220  1.7536  0.1807
  154SAPE    HY17080   5.439   2.346   6.455  2.0983  0.4590 -0.5615
  154SAPE   O3117081   5.316   2.171   6.453 -0.4903  0.3651 -0.2099
  154SAPE   C3117082   5.199   2.222   6.497 -0.1275  0.4433  0.5891
  154SAPE   O3217083   5.163   2.341   6.493  1.3413  0.0312 -0.9783
  154SAPE   C3217084   5.118   2.106   6.550  0.6315  0.2257 -0.2543
  154SAPE   H2X17085   5.133   2.023   6.478 -0.0269 -1.9221  1.9693
  154SAPE   H2Y17086   5.009   2.125   6.540  0.8660  1.5500 -0.5430
  154SAPE   C2317087   5.636   2.049   6.720  0.0942 -0.1365 -0.8259
  154SAPE   H3R17088   5.528   2.050   6.693 -0.2426 -2.8440  0.0994
  154SAPE   H3S17089   5.647   2.119   6.805 -1.2321 -0.5540 -0.2775
  154SAPE   C2417090   5.660   1.900   6.769  0.0911 -0.1932 -0.7585
  154SAPE   H4R17091   5.643   1.840   6.677 -3.0685  0.1574 -0.5169
  154SAPE   H4S17092   5.581   1.881   6.845  0.3054  0.5555 -0.3418
  154SAPE   C2517093   5.798   1.878   6.834 -0.7899  0.0681 -0.0785
  154SAPE   H5R17094   5.880   1.867   6.762  0.1994  1.3557  0.7968
  154SAPE   C2617095   5.824   1.871   6.969  0.4139 -0.2915  0.4354
  154SAPE   H6R17096   5.929   1.862   7.002  1.1765  3.0498 -0.6892
  154SAPE   C2717097   5.724   1.886   7.083 -0.5457 -0.4655 -0.8085
  154SAPE   H7R17098   5.700   1.787   7.129 -1.0350 -0.2340 -0.5628
  154SAPE   H7S17099   5.624   1.926   7.055 -2.1005 -1.9039  2.2070
  154SAPE   C2817100   5.770   1.972   7.197  0.8590  0.3159  0.1804
  154SAPE   H8R17101   5.831   2.059   7.168 -1.7231  2.4045  0.6746
  154SAPE   C2917102   5.733   1.973   7.322  0.4476  0.2016 -0.2376
  154SAPE   H9R17103   5.788   2.038   7.392  1.5473 -0.0620 -0.8397
  154SAPE  C21017104   5.631   1.874   7.387 -0.1378 -0.1388 -0.1224
  154SAPE  H10R17105   5.566   1.837   7.305  0.4476  0.2997 -0.7920
  154SAPE  H10S17106   5.567   1.937   7.453  0.6377  0.5817 -0.0433
  154SAPE  C21117107   5.675   1.752   7.459 -0.4751 -0.0962 -0.1420
  154SAPE  H11R17108   5.670   1.660   7.398 -1.9449 -0.3546  0.3345
  154SAPE  C21217109   5.721   1.745   7.590  0.4960  0.1918  0.0271
  154SAPE  H12R17110   5.739   1.648   7.639  1.0954  1.5634  2.6759
  154SAPE  C21317111   5.731   1.860   7.692 -0.8633 -0.0998 -0.0452
  154SAPE  H13R17112   5.702   1.957   7.646  2.9913 -0.2763 -3.3964
  154SAPE  H13S17113   5.839   1.879   7.707 -0.7605  0.8824 -1.7571
  154SAPE  C21417114   5.658   1.839   7.828 -1.1810  0.1227  0.0373
  154SAPE  H14R17115   5.553   1.809   7.840 -0.8531 -0.1428  3.1830
  154SAPE  C21517116   5.723   1.856   7.946  0.6984 -0.2311 -0.2168
  154SAPE  H15R17117   5.672   1.835   8.042 -1.4785  0.0957 -1.2301
  154SAPE  C21617118   5.865   1.893   7.976  0.5772  0.1252 -0.5473
  154SAPE  H16R17119   5.916   1.947   7.894  3.0355 -1.3922 -0.1435
  154SAPE  H16S17120   5.921   1.798   7.992 -1.1103 -1.0412 -1.2769
  154SAPE  C21717121   5.867   1.972   8.111  0.3226 -0.2895  0.2202
  154SAPE  H17R17122   5.804   1.926   8.191 -0.0935 -0.5233 -0.2373
  154SAPE  H17S17123   5.815   2.066   8.084 -0.0083 -0.6865 -0.5359
  154SAPE  C21817124   6.008   2.006   8.170 -0.1983 -1.1090  0.4193
  154SAPE  H18R17125   6.077   2.054   8.098 -0.1339  1.3281  2.0173
  154SAPE  H18S17126   6.052   1.912   8.210  0.7010 -1.2407 -0.8139
  154SAPE  C21917127   5.995   2.105   8.286 -0.1400 -0.3810 -0.2671
  154SAPE  H19R17128   5.909   2.068   8.347 -1.6735 -0.4199 -2.3374
  154SAPE  H19S17129   5.956   2.202   8.248 -1.8743 -1.3183 -1.0060
  154SAPE  C22017130   6.127   2.107   8.368 -0.2572 -0.5762 -0.1737
  154SAPE  H20R17131   6.123   2.191   8.441 -0.8155  1.3244 -2.2631
  154SAPE  H20S17132   6.220   2.128   8.311 -0.2426  0.2075  0.1257
  154SAPE  H20T17133   6.137   2.017   8.432 -2.4674 -0.1709  0.8184
  154SAPE   C3317134   5.159   2.062   6.690  0.0178 -0.3145 -1.1041
  154SAPE   H3X17135   5.103   2.120   6.767  0.4127  1.1633 -1.9030
  154SAPE   H3Y17136   5.267   2.083   6.705  0.1991 -1.5724 -0.4561
  154SAPE   C3417137   5.148   1.909   6.719 -0.7106  0.0437  0.2826
  154SAPE   H4X17138   5.201   1.848   6.643 -1.6445 -1.4862  0.8075
  154SAPE   H4Y17139   5.044   1.873   6.703 -1.0374  0.3624  1.5905
  154SAPE   C3517140   5.197   1.872   6.862  0.2649 -0.4530  0.5624
  154SAPE   H5X17141   5.139   1.924   6.942  0.8786  0.4133  0.4608
  154SAPE   H5Y17142   5.297   1.913   6.886 -0.4611  2.0047 -0.3068
  154SAPE   C3617143   5.207   1.719   6.888  0.7981 -0.3080 -0.2556
  154SAPE   H6X17144   5.265   1.674   6.804  1.3764 -0.2683  0.1185
  154SAPE   H6Y17145   5.103   1.679   6.884 -0.9121  3.4028  1.8202
  154SAPE   C3717146   5.265   1.662   7.013 -0.7332  0.4170 -0.3861
  154SAPE   H7X17147   5.354   1.725   7.033 -0.7595  0.5305 -0.6245
  154SAPE   H7Y17148   5.290   1.554   7.001  0.3157  0.5662  0.3380
  154SAPE   C3817149   5.167   1.675   7.133 -0.1103  0.1832 -0.1891
  154SAPE   H8X17150   5.092   1.598   7.104 -0.4009  0.1022  0.7379
  154SAPE   H8Y17151   5.117   1.775   7.136 -0.6865 -0.0322 -1.7875
  154SAPE   C3917152   5.245   1.656   7.267 -0.9526  0.5950 -0.8424
  154SAPE   H9X17153   5.321   1.736   7.276 -1.1740  0.5940  2.6024
  154SAPE   H9Y17154   5.294   1.556   7.263 -2.5894 -0.2235 -3.2893
  154SAPE  C31017155   5.160   1.658   7.392  0.4025 -0.6978  0.2388
  154SAPE  H10X17156   5.091   1.570   7.392  2.1376 -2.1187  1.3650
  154SAPE  H10Y17157   5.105   1.755   7.390 -1.2009 -1.5563  0.5840
  154SAPE  C31117158   5.243   1.643   7.519 -0.5368 -0.1670 -0.1547
  154SAPE  H11X17159   5.314   1.728   7.527  0.9865 -1.2263 -1.6806
  154SAPE  H11Y17160   5.291   1.543   7.519  1.1337  0.2929  5.3801
  154SAPE  C31217161   5.143   1.652   7.641  0.0536  0.1357 -0.5994
  154SAPE  H12X17162   5.070   1.569   7.629  0.1820 -0.1988  0.8159
  154SAPE  H12Y17163   5.091   1.751   7.637  0.3046  0.3215  0.5238
  154SAPE  C31317164   5.237   1.629   7.765 -0.2301  0.6427 -0.4916
  154SAPE  H13X17165   5.327   1.693   7.755  0.5400 -0.3352 -0.0270
  154SAPE  H13Y17166   5.264   1.522   7.782 -1.6507  0.5136  1.3457
  154SAPE  C31417167   5.155   1.681   7.881  0.1125  0.7055 -0.0886
  154SAPE  H14X17168   5.069   1.611   7.897 -0.9444  1.6884 -1.3213
  154SAPE  H14Y17169   5.112   1.780   7.858 -0.9582 -0.0998 -1.7205
  154SAPE  C31517170   5.243   1.693   8.008 -0.1157  0.3610 -0.3042
  154SAPE  H15X17171   5.328   1.754   7.970 -1.0148  1.0437 -1.2534
  154SAPE  H15Y17172   5.276   1.595   8.050 -1.4961 -0.4619 -1.0575
  154SAPE  C31617173   5.174   1.766   8.125  0.3589  0.6676 -0.7679
  154SAPE  H16X17174   5.079   1.711   8.142  1.1261 -0.4316  0.0622
  154SAPE  H16Y17175   5.162   1.874   8.103 -0.9913  0.8210  0.5183
  154SAPE  C31717176   5.251   1.740   8.258 -1.0165 -0.3527  0.2912
  154SAPE  H17X17177   5.206   1.811   8.330  0.2395 -0.3384  1.0815
  154SAPE  H17Y17178   5.357   1.772   8.244 -1.0819 -0.6709 -1.1357
  154SAPE  C31817179   5.247   1.597   8.321 -0.4344  0.3331 -0.2622
  154SAPE  H18X17180   5.314   1.592   8.410 -0.2059  0.8674 -0.4024
  154SAPE  H18Y17181   5.289   1.527   8.246 -0.3592  0.5063 -0.3808
  154SAPE  H18Z17182   5.141   1.569   8.341  0.1023 -0.9671  0.9692
  155SAPE     N17183   4.160   3.129   6.484  0.0104 -0.2495  0.3864
  155SAPE   HN117184   4.092   3.207   6.474  0.6097  0.2870  0.4085
  155SAPE   HN217185   4.200   3.091   6.396 -1.0106  0.8236 -0.5776
  155SAPE   HN317186   4.105   3.055   6.532  2.6615 -2.3913  0.3360
  155SAPE   C1217187   4.277   3.176   6.568 -0.0514  0.4420  0.1072
  155SAPE  H12A17188   4.342   3.087   6.554 -0.5619  0.2953 -1.6488
  155SAPE  H12B17189   4.246   3.191   6.674  0.8201 -1.4752  0.6904
  155SAPE   C1117190   4.350   3.302   6.516  0.3139  0.5479  0.2841
  155SAPE  H11A17191   4.404   3.275   6.423 -0.6439  2.0151 -0.7403
  155SAPE  H11B17192   4.433   3.329   6.585  0.9143  1.5534 -0.7998
  155SAPE     P17193   4.290   3.531   6.395  0.5862 -0.4508 -0.4900
  155SAPE   O1317194   4.429   3.521   6.348 -0.1552 -0.0696  0.2493
  155SAPE   O1417195   4.184   3.556   6.291  0.8746  0.3851 -0.1802
  155SAPE   O1217196   4.256   3.409   6.493  0.8290 -0.2733 -0.0988
  155SAPE   O1117197   4.278   3.656   6.493 -0.1320 -0.4968  0.2426
  155SAPE    C117198   4.395   3.712   6.548 -0.6316  0.7498  0.7095
  155SAPE    HA17199   4.482   3.702   6.480 -1.5056 -0.1805 -0.3128
  155SAPE    HB17200   4.385   3.823   6.552  2.5744  1.1552  0.3126
  155SAPE    C217201   4.436   3.653   6.686  0.3785 -1.0334  0.6982
  155SAPE    HS17202   4.486   3.559   6.652  0.7462 -0.4996 -0.2773
  155SAPE   O2117203   4.311   3.620   6.763 -0.2185 -0.0524  0.1325
  155SAPE   C2117204   4.340   3.536   6.856 -0.5095  0.3635 -0.0183
  155SAPE   O2217205   4.427   3.452   6.857  0.6309 -0.7854 -0.6248
  155SAPE   C2217206   4.241   3.567   6.969 -0.2546 -0.1612  0.3969
  155SAPE   H2R17207   4.251   3.677   6.980  1.0897  0.0208 -2.0319
  155SAPE   H2S17208   4.137   3.541   6.938 -0.4174  1.9463 -1.0584
  155SAPE    C317209   4.530   3.741   6.767  0.0267  0.5066  0.0520
  155SAPE    HX17210   4.606   3.777   6.695  0.7005 -0.8997  0.0297
  155SAPE    HY17211   4.579   3.679   6.846  0.7372  1.4097  0.3338
  155SAPE   O3117212   4.460   3.850   6.828 -0.2795 -0.7939  0.1801
  155SAPE   C3117213   4.538   3.952   6.865  0.5857 -0.1108  0.2330
  155SAPE   O3217214   4.662   3.945   6.874 -0.0415 -0.9338  0.0968
  155SAPE   C3217215   4.460   4.079   6.898 -0.2821 -0.1302  0.3325
  155SAPE   H2X17216   4.455   4.141   6.805 -2.6531 -1.4351 -0.4987
  155SAPE   H2Y17217   4.529   4.140   6.959 -0.5422  0.8005 -0.2837
  155SAPE   C2317218   4.278   3.499   7.103  0.4208 -0.5998  0.8699
  155SAPE   H3R17219   4.216   3.550   7.179  1.8542  2.3664  0.1860
  155SAPE   H3S17220   4.385   3.523   7.123  1.0005 -1.5621 -0.8497
  155SAPE   C2417221   4.258   3.347   7.100  0.1417  0.0409 -1.1646
  155SAPE   H4R17222   4.301   3.295   7.012 -0.2875 -1.3062 -0.5977
  155SAPE   H4S17223   4.148   3.351   7.086  0.1593 -0.2443 -1.3824
  155SAPE   C2517224   4.309   3.277   7.222 -0.7152  0.1009 -0.6553
  155SAPE   H5R17225   4.401   3.219   7.211 -0.5543 -0.1340  1.4718
  155SAPE   C2617226   4.242   3.249   7.331  0.1431 -0.1682 -0.0256
  155SAPE   H6R17227   4.289   3.197   7.416  1.0179 -2.3091 -1.7077
  155SAPE   C2717228   4.096   3.284   7.356 -0.2554  0.2776 -0.6400
  155SAPE   H7R17229   4.052   3.201   7.416 -0.6953 -1.5790 -3.3481
  155SAPE   H7S17230   4.040   3.288   7.260 -0.4565  2.3685 -0.4855
  155SAPE   C2817231   4.076   3.416   7.420  0.0194  0.1892  0.3843
  155SAPE   H8R17232   4.135   3.499   7.378 -2.4353  2.4263  1.0440
  155SAPE   C2917233   4.014   3.449   7.533 -0.3391 -0.4813 -0.1458
  155SAPE   H9R17234   4.025   3.557   7.555 -0.7894 -0.1478 -1.4753
  155SAPE  C21017235   3.943   3.347   7.616 -0.2198 -0.2755 -0.1004
  155SAPE  H10R17236   4.012   3.261   7.632 -0.4887 -0.3199  0.8541
  155SAPE  H10S17237   3.859   3.299   7.561 -0.8803 -0.8567  1.3585
  155SAPE  C21117238   3.897   3.398   7.748 -0.3709  0.0214  0.3314
  155SAPE  H11R17239   3.794   3.437   7.737 -0.1753  0.7862  1.1516
  155SAPE  C21217240   3.952   3.397   7.872  0.3641  0.3900  0.2326
  155SAPE  H12R17241   3.886   3.438   7.950  0.2333  0.9721 -0.1780
  155SAPE  C21317242   4.076   3.328   7.913 -0.0322  0.7525 -0.4932
  155SAPE  H13R17243   4.158   3.399   7.936  1.5234 -0.2280 -2.7620
  155SAPE  H13S17244   4.121   3.272   7.828  1.9629  1.1636  0.2377
  155SAPE  C21417245   4.056   3.232   8.029 -0.1622 -0.8400 -0.3846
  155SAPE  H14R17246   3.960   3.183   8.005 -0.4728  0.2677 -1.5517
  155SAPE  C21517247   4.134   3.197   8.133 -0.5841  0.1311 -0.1884
  155SAPE  H15R17248   4.095   3.120   8.202  0.4966 -0.4320 -0.1932
  155SAPE  C21617249   4.270   3.255   8.164  0.2477  0.5498  0.1526
  155SAPE  H16R17250   4.290   3.341   8.097 -1.6002  1.2633  0.4366
  155SAPE  H16S17251   4.347   3.175   8.164 -2.2685 -2.0475 -1.0873
  155SAPE  C21717252   4.269   3.317   8.307  0.1988  0.0604  0.4214
  155SAPE  H17R17253   4.368   3.366   8.322 -0.1959  1.2136 -0.5933
  155SAPE  H17S17254   4.262   3.232   8.378  0.8402 -0.1342  0.2547
  155SAPE  C21817255   4.159   3.422   8.320 -0.2529  0.1585 -0.3945
  155SAPE  H18R17256   4.058   3.388   8.289 -0.0395  0.0999 -1.0562
  155SAPE  H18S17257   4.189   3.505   8.252  0.4491 -0.1587 -0.4771
  155SAPE  C21917258   4.135   3.478   8.456 -0.1961  0.0680 -0.0938
  155SAPE  H19R17259   4.220   3.510   8.521  0.0962  0.6716 -0.7561
  155SAPE  H19S17260   4.102   3.398   8.525  0.6126  0.1378  0.3959
  155SAPE  C22017261   4.027   3.587   8.451 -0.1804 -0.1265 -0.5236
  155SAPE  H20R17262   3.999   3.600   8.557  0.2980 -1.0082 -0.2791
  155SAPE  H20S17263   3.942   3.563   8.383  0.6933  0.5463 -1.8894
  155SAPE  H20T17264   4.066   3.684   8.413 -0.5242 -0.1385 -0.9253
  155SAPE   C3317265   4.326   4.065   6.967  0.9823 -0.6596  0.8374
  155SAPE   H3X17266   4.258   4.013   6.897 -0.0149  2.1229 -0.4164
  155SAPE   H3Y17267   4.266   4.158   6.978 -0.8514 -1.7162  0.1099
  155SAPE   C3417268   4.336   3.986   7.096  0.9494  0.4710 -0.5599
  155SAPE   H4X17269   4.397   4.033   7.176 -1.0782  1.6012  0.3952
  155SAPE   H4Y17270   4.399   3.896   7.080 -2.7820 -2.4447 -0.2692
  155SAPE   C3517271   4.202   3.938   7.160 -0.0160 -0.2362  0.5809
  155SAPE   H5X17272   4.162   3.864   7.088 -1.2507  0.0218  0.9747
  155SAPE   H5Y17273   4.134   4.024   7.180  0.1803 -0.2773  1.4741
  155SAPE   C3617274   4.213   3.868   7.295 -0.0610  0.2096  0.1098
  155SAPE   H6X17275   4.321   3.862   7.319 -0.5999 -1.0022  2.5170
  155SAPE   H6Y17276   4.170   3.766   7.300  0.8843 -0.1435  2.7099
  155SAPE   C3717277   4.149   3.964   7.401  0.0934  0.6220  0.1263
  155SAPE   H7X17278   4.041   3.960   7.378  0.3109  0.7356 -0.9724
  155SAPE   H7Y17279   4.192   4.065   7.387 -0.4912  0.9364  0.5604
  155SAPE   C3817280   4.187   3.921   7.544 -0.0980  0.0148  0.0495
  155SAPE   H8X17281   4.293   3.933   7.575  0.4141 -0.1120 -1.5619
  155SAPE   H8Y17282   4.165   3.813   7.559  0.8430 -0.1863  0.0293
  155SAPE   C3917283   4.111   4.007   7.653  0.2998 -0.1748 -0.7062
  155SAPE   H9X17284   4.002   3.982   7.650 -0.1636  1.6212 -0.1119
  155SAPE   H9Y17285   4.115   4.108   7.609 -1.8295  0.7029  0.8957
  155SAPE  C31017286   4.169   4.007   7.796 -0.5309  0.0339 -0.1427
  155SAPE  H10X17287   4.278   4.025   7.781 -0.2202 -1.6285  0.0360
  155SAPE  H10Y17288   4.155   3.905   7.837  2.1963 -1.6096 -2.9289
  155SAPE  C31117289   4.106   4.102   7.898  0.3867 -0.5778 -0.0715
  155SAPE  H11X17290   3.997   4.084   7.894  0.4065 -0.4837 -1.1440
  155SAPE  H11Y17291   4.131   4.208   7.876  3.0504 -1.8299 -4.0930
  155SAPE  C31217292   4.130   4.070   8.043  0.0395  0.5808 -0.8855
  155SAPE  H12X17293   4.239   4.064   8.065 -0.6980  1.3098  3.8144
  155SAPE  H12Y17294   4.093   3.966   8.061 -0.5780  0.9803  0.2397
  155SAPE  C31317295   4.068   4.171   8.147  0.0550  0.2246 -0.3347
  155SAPE  H13X17296   3.963   4.136   8.156  0.6021 -1.1508  1.1579
  155SAPE  H13Y17297   4.091   4.272   8.107  2.1218  1.0955  2.7400
  155SAPE  C31417298   4.122   4.144   8.292 -0.1357  0.2865  0.3585
  155SAPE  H14X17299   4.230   4.160   8.311 -0.2197 -0.1586  1.2461
  155SAPE  H14Y17300   4.118   4.034   8.307  2.4507  0.4089  2.5085
  155SAPE  C31517301   4.037   4.227   8.388  0.6011  1.1273 -0.3596
  155SAPE  H15X17302   3.930   4.219   8.359 -0.1122 -0.7193  2.4614
  155SAPE  H15Y17303   4.064   4.335   8.387  2.5239  0.6921  0.0968
  155SAPE  C31617304   4.047   4.166   8.527 -0.4765  0.1482  0.1472
  155SAPE  H16X17305   4.153   4.138   8.544 -1.3574 -2.8632  1.2232
  155SAPE  H16Y17306   4.000   4.066   8.540  0.8575 -0.4678  0.4112
  155SAPE  C31717307   4.005   4.261   8.646 -0.3530  0.0350 -0.1808
  155SAPE  H17X17308   4.011   4.208   8.744 -0.5978 -1.1839 -0.8139
  155SAPE  H17Y17309   3.900   4.294   8.630  0.2066  1.7799 -0.4791
  155SAPE  C31817310   4.072   4.394   8.658  0.4246  0.4327 -0.2085
  155SAPE  H18X17311   4.052   4.457   8.569  0.2224 -0.0128 -0.4830
  155SAPE  H18Y17312   4.182   4.380   8.664  0.3760  0.4060  1.1504
  155SAPE  H18Z17313   4.026   4.443   8.746 -1.5124  1.3944 -1.7013
  156SAPE     N17314   2.660   4.020   6.015  0.4233 -0.4296 -0.8032
  156SAPE   HN117315   2.744   4.081   6.011 -0.4940  1.1487  1.8193
  156SAPE   HN217316   2.693   3.928   6.052  0.6439 -1.0758 -2.5262
  156SAPE   HN317317   2.632   3.994   5.918 -1.9408 -0.6409 -0.1268
  156SAPE   C1217318   2.542   4.056   6.107 -0.5284 -0.2880 -0.8000
  156SAPE  H12A17319   2.462   3.980   6.092 -1.6968  0.6859  0.2445
  156SAPE  H12B17320   2.502   4.158   6.092  0.6286  0.2839 -0.1291
  156SAPE   C1117321   2.588   4.045   6.252 -0.3275 -0.3354  0.0082
  156SAPE  H11A17322   2.631   3.943   6.266  1.7891  0.5505  0.1771
  156SAPE  H11B17323   2.500   4.058   6.319  0.7260  0.6528  1.2564
  156SAPE     P17324   2.830   4.123   6.320  0.2913  0.6642  0.2210
  156SAPE   O1317325   2.885   4.018   6.231  0.4728  0.0585 -0.6757
  156SAPE   O1417326   2.912   4.245   6.322  0.5721 -0.7964 -0.4700
  156SAPE   O1217327   2.685   4.154   6.280  0.9518  0.4243 -0.2006
  156SAPE   O1117328   2.815   4.067   6.472  0.1889 -0.3455  0.2371
  156SAPE    C117329   2.701   4.096   6.551 -0.7464  1.0112 -0.0394
  156SAPE    HA17330   2.639   4.178   6.510  0.7632  1.0814 -2.3665
  156SAPE    HB17331   2.642   4.002   6.551 -0.3002  0.7118 -1.1174
  156SAPE    C217332   2.744   4.150   6.689 -0.1158 -0.0899 -0.5361
  156SAPE    HS17333   2.799   4.246   6.677  0.0018  0.0171  0.7301
  156SAPE   O2117334   2.817   4.053   6.755 -0.5583  0.3219 -0.1897
  156SAPE   C2117335   2.951   4.057   6.752  0.3276  0.2499  0.0631
  156SAPE   O2217336   3.019   4.140   6.692  0.3837 -0.0919  0.2094
  156SAPE   C2217337   3.002   3.957   6.855  0.3028 -0.1779 -0.1574
  156SAPE   H2R17338   2.934   3.966   6.942  1.8877 -0.6946  1.2034
  156SAPE   H2S17339   3.003   3.853   6.818  1.0319  0.1408 -1.0847
  156SAPE    C317340   2.617   4.180   6.787 -0.5882 -0.5595  0.4843
  156SAPE    HX17341   2.553   4.090   6.781  0.0445 -0.9817 -0.2463
  156SAPE    HY17342   2.565   4.262   6.732  1.6702 -0.6575 -2.0106
  156SAPE   O3117343   2.658   4.206   6.919  0.1388  0.1337 -0.1753
  156SAPE   C3117344   2.678   4.335   6.948  0.6586 -0.4766  0.0077
  156SAPE   O3217345   2.686   4.426   6.869 -0.1607  0.3863 -0.4475
  156SAPE   C3217346   2.690   4.349   7.100 -0.2922  0.2073 -0.0039
  156SAPE   H2X17347   2.774   4.284   7.133 -1.0818 -0.3502  0.9686
  156SAPE   H2Y17348   2.603   4.299   7.147  0.5618 -0.1224  1.2916
  156SAPE   C2317349   3.145   3.992   6.910 -0.0454 -0.5747 -0.6995
  156SAPE   H3R17350   3.211   4.033   6.830 -1.5532  0.2100 -1.5812
  156SAPE   H3S17351   3.199   3.915   6.969  1.7532  2.7985  2.4830
  156SAPE   C2417352   3.132   4.111   7.009 -0.1785 -0.0066  0.1561
  156SAPE   H4R17353   3.061   4.083   7.090 -0.0201  0.1257  0.3390
  156SAPE   H4S17354   3.092   4.198   6.951  0.6999  0.6240  0.4721
  156SAPE   C2517355   3.266   4.167   7.060 -0.5936  0.5040  0.0718
  156SAPE   H5R17356   3.320   4.214   6.977 -0.3771 -1.4860 -0.9838
  156SAPE   C2617357   3.310   4.171   7.183  1.0107  0.8740 -0.1206
  156SAPE   H6R17358   3.411   4.207   7.207  1.6637 -0.1945 -1.1707
  156SAPE   C2717359   3.243   4.110   7.298  0.4654 -1.2141 -0.6564
  156SAPE   H7R17360   3.208   4.005   7.289  0.3536 -1.2272 -0.1274
  156SAPE   H7S17361   3.158   4.177   7.321  3.1706  2.4106 -0.1791
  156SAPE   C2817362   3.340   4.100   7.419  0.2167  0.3595  0.4711
  156SAPE   H8R17363   3.446   4.096   7.390 -0.1227  0.5321 -0.8265
  156SAPE   C2917364   3.302   4.116   7.548  0.4247 -0.1279  0.0611
  156SAPE   H9R17365   3.381   4.102   7.623  0.7430  1.9797  0.1799
  156SAPE  C21017366   3.169   4.148   7.601  0.3209  0.0463  0.0945
  156SAPE  H10R17367   3.092   4.166   7.522 -1.3232 -0.0734  1.5978
  156SAPE  H10S17368   3.189   4.236   7.665  0.1318 -0.7424  1.2758
  156SAPE  C21117369   3.107   4.037   7.675  0.4230 -0.0192 -0.2532
  156SAPE  H11R17370   3.034   3.975   7.622 -1.1279  0.1444  1.5807
  156SAPE  C21217371   3.115   4.009   7.807 -0.0271 -0.1106  0.2993
  156SAPE  H12R17372   3.049   3.932   7.850  0.3457 -0.8170 -0.3612
  156SAPE  C21317373   3.202   4.073   7.911  0.0182  0.4996 -0.2056
  156SAPE  H13R17374   3.148   4.074   8.008  1.8849  1.1441  0.8661
  156SAPE  H13S17375   3.235   4.176   7.887  0.1144  0.8809  1.4608
  156SAPE  C21417376   3.325   3.989   7.926 -0.3762 -0.0758  0.0101
  156SAPE  H14R17377   3.414   4.021   7.869  0.4147 -2.1957 -0.0393
  156SAPE  C21517378   3.355   3.876   7.999 -0.1562  0.1313 -0.5717
  156SAPE  H15R17379   3.453   3.828   7.981 -0.7131 -1.4273  0.3797
  156SAPE  C21617380   3.273   3.792   8.090 -0.6116 -0.4335 -0.5628
  156SAPE  H16R17381   3.284   3.683   8.075  2.2023 -0.6882  2.1639
  156SAPE  H16S17382   3.167   3.816   8.067 -0.1623  1.8784 -0.5279
  156SAPE  C21717383   3.299   3.810   8.245  0.2515  0.5541  0.2596
  156SAPE  H17R17384   3.270   3.905   8.295 -1.2852 -1.1631  2.8336
  156SAPE  H17S17385   3.409   3.807   8.259  0.2293 -1.6286  0.3060
  156SAPE  C21817386   3.254   3.683   8.320 -0.0585 -0.0137 -0.0350
  156SAPE  H18R17387   3.313   3.593   8.290  3.3976  1.2409  2.3708
  156SAPE  H18S17388   3.148   3.663   8.292 -0.3188 -0.9012  1.4541
  156SAPE  C21917389   3.259   3.692   8.473 -0.0848 -0.5129  0.3000
  156SAPE  H19R17390   3.210   3.787   8.503  0.2025 -0.3600  0.2902
  156SAPE  H19S17391   3.363   3.714   8.507 -0.4391 -1.1540  1.9054
  156SAPE  C22017392   3.208   3.577   8.556  0.5809 -0.7103 -0.4319
  156SAPE  H20R17393   3.281   3.493   8.554 -1.5601 -2.6688 -0.0829
  156SAPE  H20S17394   3.112   3.537   8.518 -1.8830  2.2906  2.0803
  156SAPE  H20T17395   3.200   3.612   8.661  1.2928 -0.6957 -0.3724
  156SAPE   C3317396   2.737   4.491   7.143  0.6582  0.5005  0.0057
  156SAPE   H3X17397   2.654   4.560   7.119  1.8492  2.1423  0.4557
  156SAPE   H3Y17398   2.827   4.526   7.088 -0.2607  1.2463 -1.0672
  156SAPE   C3417399   2.751   4.498   7.292  0.4682 -0.1016 -0.4709
  156SAPE   H4X17400   2.842   4.445   7.327 -0.7588 -0.3777  2.5484
  156SAPE   H4Y17401   2.654   4.464   7.333  0.5376  2.5027  2.2128
  156SAPE   C3517402   2.790   4.637   7.360 -0.1052 -0.3229  0.6096
  156SAPE   H5X17403   2.735   4.721   7.312 -0.0804 -0.7889 -0.2697
  156SAPE   H5Y17404   2.896   4.668   7.345 -0.5915  0.9149 -0.3690
  156SAPE   C3617405   2.753   4.632   7.508  0.0782 -0.3375  0.3163
  156SAPE   H6X17406   2.794   4.547   7.566  2.7747  1.2437  0.9274
  156SAPE   H6Y17407   2.642   4.625   7.513 -0.1071  0.1579 -1.9915
  156SAPE   C3717408   2.787   4.763   7.581 -0.9682 -0.2175  0.1058
  156SAPE   H7X17409   2.770   4.853   7.519  0.4868  0.1086  0.1397
  156SAPE   H7Y17410   2.895   4.765   7.607 -1.2626 -2.8728  1.9582
  156SAPE   C3817411   2.716   4.768   7.720 -0.9677  0.2806  0.1049
  156SAPE   H8X17412   2.704   4.668   7.768 -0.8873  0.7127  1.0491
  156SAPE   H8Y17413   2.609   4.789   7.701 -1.0603  1.2897  1.5727
  156SAPE   C3917414   2.783   4.861   7.812 -0.3995  0.3445  0.3100
  156SAPE   H9X17415   2.792   4.957   7.756  2.4899 -0.5540 -0.9358
  156SAPE   H9Y17416   2.889   4.835   7.831  0.8097  3.5790 -1.1801
  156SAPE  C31017417   2.707   4.897   7.934 -0.5499 -0.1199 -0.8925
  156SAPE  H10X17418   2.749   4.992   7.974 -1.4824 -0.4444  0.9826
  156SAPE  H10Y17419   2.727   4.819   8.011  3.6324  0.3080 -1.2723
  156SAPE  C31117420   2.555   4.915   7.913  0.1241  0.5400  0.2499
  156SAPE  H11X17421   2.505   4.822   7.881  0.4500  1.0225 -1.7897
  156SAPE  H11Y17422   2.546   4.984   7.826 -2.5171  0.7772  0.6255
  156SAPE  C31217423   2.476   4.962   8.042 -0.3059  0.2821  0.4957
  156SAPE  H12X17424   2.501   4.891   8.124 -1.7516 -0.7479  0.0833
  156SAPE  H12Y17425   2.372   4.944   8.008  0.3629 -0.5114 -1.2661
  156SAPE  C31317426   2.505   5.103   8.095 -0.3774  0.2090  0.9027
  156SAPE  H13X17427   2.482   5.179   8.017  1.1825 -1.4173 -1.2575
  156SAPE  H13Y17428   2.614   5.116   8.114 -0.1783  1.2631 -0.8039
  156SAPE  C31417429   2.421   5.128   8.222 -0.7302  0.5376 -0.0288
  156SAPE  H14X17430   2.460   5.071   8.309 -0.4653  2.1365  0.9282
  156SAPE  H14Y17431   2.315   5.097   8.206 -0.5822 -0.8608  1.4253
  156SAPE  C31517432   2.433   5.269   8.272  0.2763  0.3731  0.7912
  156SAPE  H15X17433   2.380   5.339   8.205 -0.8571 -0.2110  1.0602
  156SAPE  H15Y17434   2.541   5.293   8.289  0.9528 -1.5296 -0.4762
  156SAPE  C31617435   2.356   5.272   8.402 -0.4389 -0.3777 -0.2450
  156SAPE  H16X17436   2.404   5.204   8.475 -1.8299  2.1123  3.2317
  156SAPE  H16Y17437   2.252   5.238   8.387 -0.7404 -0.8841  2.5920
  156SAPE  C31717438   2.361   5.404   8.468 -0.0457 -0.2830  0.3542
  156SAPE  H17X17439   2.335   5.475   8.387  2.9303  1.2906  0.6380
  156SAPE  H17Y17440   2.461   5.432   8.507 -1.4564  1.8468  2.7786
  156SAPE  C31817441   2.251   5.422   8.579 -0.1382  1.0232  0.2856
  156SAPE  H18X17442   2.288   5.379   8.675  0.4527 -1.3325 -0.9249
  156SAPE  H18Y17443   2.158   5.367   8.554 -0.1770  0.8376  0.8250
  156SAPE  H18Z17444   2.220   5.528   8.595 -1.9148  0.5473  0.1773
  157SAPE     N17445   2.655   5.932   6.096  0.8885  0.0995  0.1428
  157SAPE   HN117446   2.664   6.034   6.113  2.1625  0.2292 -1.1448
  157SAPE   HN217447   2.561   5.906   6.062  1.3926 -0.9358 -0.5140
  157SAPE   HN317448   2.660   5.886   6.190  0.2064 -0.9278 -0.3038
  157SAPE   C1217449   2.762   5.874   6.005  0.2566  0.6022  0.4365
  157SAPE  H12A17450   2.863   5.906   6.039  0.8922 -2.3142  1.5542
  157SAPE  H12B17451   2.740   5.906   5.901 -2.3865 -0.1561  0.6886
  157SAPE   C1117452   2.757   5.720   6.019 -0.3526 -0.0583  0.0842
  157SAPE  H11A17453   2.824   5.688   5.937 -2.0529 -0.7497 -1.0939
  157SAPE  H11B17454   2.655   5.680   5.999 -0.5053  0.7804 -0.8756
  157SAPE     P17455   2.875   5.557   6.197 -0.0552  0.2235  0.0736
  157SAPE   O1317456   2.902   5.472   6.077 -0.1880 -0.0461  0.9818
  157SAPE   O1417457   2.994   5.592   6.278  0.5053 -0.0400 -0.3938
  157SAPE   O1217458   2.800   5.688   6.148  0.6120 -0.0473  0.7474
  157SAPE   O1117459   2.775   5.472   6.286  0.0917 -0.2747  0.1858
  157SAPE    C117460   2.634   5.490   6.286  0.3280 -0.2248 -0.2842
  157SAPE    HA17461   2.608   5.591   6.249  1.3566 -0.8670 -2.9958
  157SAPE    HB17462   2.578   5.430   6.211 -1.4554 -1.1792  1.6964
  157SAPE    C217463   2.566   5.471   6.429 -0.5797 -0.1960  0.6197
  157SAPE    HS17464   2.520   5.566   6.463 -0.5660  0.7329 -1.7963
  157SAPE   O2117465   2.665   5.423   6.522  0.0615  0.2758 -0.1083
  157SAPE   C2117466   2.723   5.521   6.583  1.0247  0.0145 -1.0100
  157SAPE   O2217467   2.694   5.640   6.574 -0.0649  0.1707  0.0799
  157SAPE   C2217468   2.828   5.468   6.677 -0.8025 -0.7121 -0.1622
  157SAPE   H2R17469   2.809   5.360   6.692  2.3514 -1.5875 -1.5641
  157SAPE   H2S17470   2.923   5.466   6.620 -2.4275  0.2909 -3.1084
  157SAPE    C317471   2.452   5.367   6.416 -0.2958  0.3704  0.6469
  157SAPE    HX17472   2.504   5.273   6.386 -1.7147 -0.1593 -0.2768
  157SAPE    HY17473   2.391   5.406   6.332 -0.5205 -0.3737  0.4527
  157SAPE   O3117474   2.380   5.355   6.536  0.4240  0.0932 -0.3967
  157SAPE   C3117475   2.283   5.256   6.534 -0.3190  0.3266  0.3058
  157SAPE   O3217476   2.247   5.198   6.433 -0.3408 -0.9772  0.0019
  157SAPE   C3217477   2.236   5.226   6.673 -0.1332  0.3617 -0.2744
  157SAPE   H2X17478   2.303   5.284   6.740  0.4481  0.9827 -1.3628
  157SAPE   H2Y17479   2.244   5.117   6.687  0.8277  0.3595 -0.8088
  157SAPE   C2317480   2.851   5.540   6.809 -0.3632  0.1463 -0.3729
  157SAPE   H3R17481   2.759   5.517   6.866  0.0642 -1.4533 -0.2888
  157SAPE   H3S17482   2.859   5.650   6.799 -2.0352  0.1871 -1.7735
  157SAPE   C2417483   2.978   5.494   6.890 -0.8969 -0.5263 -0.3478
  157SAPE   H4R17484   2.983   5.384   6.874 -3.7844 -0.6547 -0.9647
  157SAPE   H4S17485   2.959   5.506   6.999  0.5731 -1.9945  0.1207
  157SAPE   C2517486   3.100   5.579   6.846 -0.4419 -0.3448 -0.6459
  157SAPE   H5R17487   3.149   5.547   6.753 -0.3023 -0.9106 -0.3807
  157SAPE   C2617488   3.156   5.678   6.921 -0.4176 -0.2004 -0.0963
  157SAPE   H6R17489   3.239   5.730   6.870 -0.6539  1.3121  0.9956
  157SAPE   C2717490   3.126   5.736   7.053  0.2132 -0.2975  0.5556
  157SAPE   H7R17491   3.019   5.768   7.045  0.5835  0.5320 -3.1158
  157SAPE   H7S17492   3.192   5.825   7.064  1.0279 -0.1512 -3.7195
  157SAPE   C2817493   3.144   5.636   7.171 -0.0478  0.5500  0.3679
  157SAPE   H8R17494   3.154   5.527   7.153  2.0719  0.4578  1.7569
  157SAPE   C2917495   3.157   5.675   7.300  0.0723 -0.4202  0.0672
  157SAPE   H9R17496   3.190   5.600   7.374 -0.4157  1.1338  1.9354
  157SAPE  C21017497   3.140   5.814   7.348 -0.6235  0.3387  0.5607
  157SAPE  H10R17498   3.168   5.880   7.264  0.1817 -1.8789 -1.0131
  157SAPE  H10S17499   3.219   5.836   7.423  1.7124 -1.6484 -1.1763
  157SAPE  C21117500   3.000   5.838   7.404 -0.5872 -0.2965 -0.3789
  157SAPE  H11R17501   2.944   5.744   7.417  0.4754 -0.6463  2.4364
  157SAPE  C21217502   2.936   5.952   7.425  0.7445 -0.5204 -0.5812
  157SAPE  H12R17503   2.831   5.944   7.458  1.0565  2.7583  1.6518
  157SAPE  C21317504   2.983   6.093   7.408  0.2984 -0.9223 -0.0168
  157SAPE  H13R17505   2.913   6.136   7.334 -0.3893 -0.4457  0.8908
  157SAPE  H13S17506   3.083   6.092   7.359  0.2639 -2.8634 -0.1214
  157SAPE  C21417507   2.979   6.187   7.530  0.2131 -0.8185  0.3925
  157SAPE  H14R17508   2.903   6.267   7.529  1.9735  0.9788  2.2277
  157SAPE  C21517509   3.066   6.196   7.622 -0.4362  0.6514  0.2480
  157SAPE  H15R17510   3.044   6.268   7.702  0.2801 -0.1830  1.2249
  157SAPE  C21617511   3.185   6.107   7.642  0.2272 -0.0925 -0.4101
  157SAPE  H16R17512   3.179   6.026   7.566  1.2723  0.3589 -0.9853
  157SAPE  H16S17513   3.177   6.058   7.742  0.7347 -1.3198 -0.9413
  157SAPE  C21717514   3.323   6.168   7.637  0.5815 -0.1158  0.6811
  157SAPE  H17R17515   3.333   6.265   7.692 -0.3831 -0.4989  1.5682
  157SAPE  H17S17516   3.356   6.184   7.532 -0.4276  1.0020  0.5149
  157SAPE  C21817517   3.417   6.073   7.705  0.4011  0.4509  0.7225
  157SAPE  H18R17518   3.417   5.975   7.652  0.5245 -0.2221  1.9389
  157SAPE  H18S17519   3.381   6.051   7.807 -0.6445 -0.2300  0.2279
  157SAPE  C21917520   3.561   6.123   7.720 -0.4494  0.0816 -0.2360
  157SAPE  H19R17521   3.549   6.218   7.776  0.8236  1.1093 -1.6121
  157SAPE  H19S17522   3.619   6.140   7.626  0.9238 -1.1450  0.3550
  157SAPE  C22017523   3.647   6.022   7.804 -0.6925  0.0818  0.1010
  157SAPE  H20R17524   3.747   6.064   7.828  0.5501 -1.9395 -1.1816
  157SAPE  H20S17525   3.664   5.922   7.760 -3.1461  0.1920 -1.2950
  157SAPE  H20T17526   3.592   6.003   7.899 -1.6000 -0.5012 -0.5247
  157SAPE   C3317527   2.086   5.265   6.701 -0.1677 -0.1803 -0.5553
  157SAPE   H3X17528   2.023   5.193   6.645  0.3764 -0.0557 -1.3417
  157SAPE   H3Y17529   2.054   5.366   6.665 -0.8243 -0.7092 -1.5027
  157SAPE   C3417530   2.056   5.261   6.849  0.0098  0.7435  0.6285
  157SAPE   H4X17531   1.952   5.299   6.864 -1.1175 -2.2407  1.1659
  157SAPE   H4Y17532   2.113   5.342   6.899  2.0072 -0.3359  0.1757
  157SAPE   C3517533   2.063   5.118   6.904 -0.5790 -0.3796  0.2320
  157SAPE   H5X17534   2.171   5.096   6.893  0.1339  1.9880  1.7727
  157SAPE   H5Y17535   1.997   5.054   6.843 -0.6034 -0.4082  0.2889
  157SAPE   C3617536   2.019   5.124   7.049  0.0684 -0.5554 -0.5501
  157SAPE   H6X17537   1.997   5.025   7.095 -0.0516 -1.0062 -1.5563
  157SAPE   H6Y17538   1.924   5.181   7.062 -0.6827 -1.7321 -0.6932
  157SAPE   C3717539   2.122   5.200   7.141 -0.1493 -0.4410  0.1793
  157SAPE   H7X17540   2.121   5.308   7.116  2.6627 -0.4745 -0.4419
  157SAPE   H7Y17541   2.224   5.165   7.114 -0.5625 -1.5144 -0.0517
  157SAPE   C3817542   2.116   5.158   7.283 -0.0788 -0.5664 -0.4102
  157SAPE   H8X17543   2.203   5.207   7.332 -0.3327 -0.3925 -0.1282
  157SAPE   H8Y17544   2.126   5.047   7.291 -0.2291 -0.5566 -0.0571
  157SAPE   C3917545   1.985   5.205   7.358  0.8514  0.8994  0.2802
  157SAPE   H9X17546   1.904   5.145   7.311  1.2278  1.7533 -1.5467
  157SAPE   H9Y17547   1.959   5.309   7.328 -2.5822 -0.2448 -1.1681
  157SAPE  C31017548   1.993   5.186   7.512 -0.6510  0.7022  0.1268
  157SAPE  H10X17549   2.036   5.280   7.553  0.9077  0.2951 -0.5176
  157SAPE  H10Y17550   2.068   5.106   7.528  1.1248  2.7543  2.9423
  157SAPE  C31117551   1.863   5.166   7.584  0.0066 -0.6543  0.1802
  157SAPE  H11X17552   1.803   5.259   7.585  0.2144 -0.5188  0.2090
  157SAPE  H11Y17553   1.896   5.142   7.688 -1.5525  0.7982  1.0550
  157SAPE  C31217554   1.768   5.058   7.524  0.0264 -0.0019 -0.0224
  157SAPE  H12X17555   1.818   4.966   7.489  0.7041  0.0436  0.7964
  157SAPE  H12Y17556   1.720   5.100   7.433  0.9971  1.0766 -0.0520
  157SAPE  C31317557   1.659   5.015   7.619 -0.4264 -0.3959  0.4347
  157SAPE  H13X17558   1.632   5.098   7.688  2.5427  0.1016  1.1477
  157SAPE  H13Y17559   1.707   4.947   7.692  0.9997  0.2863  0.1717
  157SAPE  C31417560   1.539   4.947   7.548 -0.0897 -0.0329 -0.2659
  157SAPE  H14X17561   1.581   4.876   7.473 -0.7408 -1.0933  0.3450
  157SAPE  H14Y17562   1.490   5.022   7.482  0.9560  1.4095  0.5352
  157SAPE  C31517563   1.444   4.878   7.638  0.1285  0.7146  1.0255
  157SAPE  H15X17564   1.387   4.960   7.686 -1.2783  0.8013 -0.6889
  157SAPE  H15Y17565   1.504   4.821   7.712  3.0383  1.6582 -0.4641
  157SAPE  C31617566   1.339   4.793   7.569  0.4036 -0.1052  0.3176
  157SAPE  H16X17567   1.390   4.730   7.493  0.2041  2.1829 -1.8058
  157SAPE  H16Y17568   1.282   4.861   7.502  1.6117  1.4073  0.7669
  157SAPE  C31717569   1.239   4.723   7.658 -0.1983 -0.3704 -0.1282
  157SAPE  H17X17570   1.303   4.674   7.734 -0.9450  1.0902  1.5237
  157SAPE  H17Y17571   1.172   4.656   7.600 -1.3717  0.8015 -0.1917
  157SAPE  C31817572   1.151   4.817   7.741  0.4693 -0.3399 -0.8146
  157SAPE  H18X17573   1.091   4.879   7.670 -2.3010 -0.1367  1.5479
  157SAPE  H18Y17574   1.214   4.883   7.803  1.4963 -0.8410 -1.2978
  157SAPE  H18Z17575   1.079   4.769   7.810 -0.1274  1.3554 -0.2000
  158SAPE     N17576   2.389   2.131   6.320 -0.2316 -0.2218  0.1707
  158SAPE   HN117577   2.487   2.097   6.323 -1.3658 -4.1005 -1.2841
  158SAPE   HN217578   2.342   2.067   6.253  2.0491 -3.2500  1.2441
  158SAPE   HN317579   2.374   2.225   6.277 -1.2090  0.5225  2.0528
  158SAPE   C1217580   2.313   2.140   6.450 -0.6705 -0.0762  0.2540
  158SAPE  H12A17581   2.357   2.060   6.514 -0.3530  0.6447  0.9524
  158SAPE  H12B17582   2.205   2.122   6.431 -1.2154  2.2641  0.8293
  158SAPE   C1117583   2.323   2.276   6.526 -0.7110  0.0821  0.6104
  158SAPE  H11A17584   2.431   2.303   6.528 -0.4416 -0.8811  0.1912
  158SAPE  H11B17585   2.292   2.245   6.628  0.5903 -0.8264  0.7597
  158SAPE     P17586   2.256   2.461   6.355 -0.0045  0.6231  0.2128
  158SAPE   O1317587   2.334   2.385   6.252  0.0937 -0.1486 -0.0589
  158SAPE   O1417588   2.124   2.523   6.315 -0.1704  0.6306  0.1370
  158SAPE   O1217589   2.221   2.364   6.478 -0.5163  0.4781 -0.2882
  158SAPE   O1117590   2.359   2.564   6.420  0.1824  0.4345  0.3298
  158SAPE    C117591   2.299   2.681   6.476 -0.8741  0.2926 -0.0486
  158SAPE    HA17592   2.323   2.765   6.407 -0.0582  1.4803  1.6070
  158SAPE    HB17593   2.189   2.683   6.489 -0.8986 -2.3655  0.6407
  158SAPE    C217594   2.373   2.719   6.612 -0.0315  0.4100  0.2418
  158SAPE    HS17595   2.478   2.691   6.590 -0.6288 -2.2471  0.4710
  158SAPE   O2117596   2.318   2.642   6.716  0.0570 -0.8030 -0.0432
  158SAPE   C2117597   2.402   2.555   6.774  0.9263 -0.3352  0.5153
  158SAPE   O2217598   2.519   2.532   6.743  0.1876 -0.2056  0.0294
  158SAPE   C2217599   2.308   2.488   6.881 -0.3353 -0.3150 -0.3539
  158SAPE   H2R17600   2.280   2.572   6.948 -2.2298  0.0066 -1.4593
  158SAPE   H2S17601   2.214   2.469   6.826 -0.7755  1.2271 -0.1700
  158SAPE    C317602   2.365   2.860   6.659  0.3887 -0.6461  0.3038
  158SAPE    HX17603   2.256   2.875   6.675  0.6504 -0.7411  2.4321
  158SAPE    HY17604   2.399   2.933   6.582  1.7896 -1.7966 -0.2018
  158SAPE   O3117605   2.427   2.882   6.792 -0.9431 -0.2347  0.6573
  158SAPE   C3117606   2.553   2.916   6.793  0.4981  0.1117  0.6209
  158SAPE   O3217607   2.624   2.908   6.691 -0.7700  0.2026 -0.0448
  158SAPE   C3217608   2.591   2.985   6.927  0.3854  0.3257  0.0992
  158SAPE   H2X17609   2.648   2.913   6.989  2.4681  0.6204 -1.3664
  158SAPE   H2Y17610   2.500   3.005   6.987  0.6963  0.2991  0.5873
  158SAPE   C2317611   2.365   2.372   6.965 -0.2316 -0.1442  0.2284
  158SAPE   H3R17612   2.429   2.404   7.051 -0.8078  0.3487  0.4847
  158SAPE   H3S17613   2.417   2.296   6.903  0.5510  1.0519 -0.6415
  158SAPE   C2417614   2.247   2.301   7.031  0.5650 -0.0989  0.5308
  158SAPE   H4R17615   2.287   2.202   7.063  4.1606  0.0169 -2.8821
  158SAPE   H4S17616   2.176   2.277   6.950  1.0228 -1.0059  0.3822
  158SAPE   C2517617   2.185   2.396   7.126 -0.4640 -0.4725 -0.3151
  158SAPE   H5R17618   2.145   2.489   7.084 -1.2059  0.3871  2.1224
  158SAPE   C2617619   2.156   2.374   7.259 -0.2930  0.4231 -0.4489
  158SAPE   H6R17620   2.116   2.453   7.324 -0.2810  0.1033 -0.0425
  158SAPE   C2717621   2.188   2.244   7.340  0.0078 -0.0242  0.3951
  158SAPE   H7R17622   2.216   2.281   7.441 -2.9322  0.0635  1.2623
  158SAPE   H7S17623   2.281   2.198   7.299  1.0451  1.6152  0.8339
  158SAPE   C2817624   2.075   2.140   7.345  0.6875 -0.1964 -0.8346
  158SAPE   H8R17625   2.037   2.108   7.247  2.2188  0.9881 -1.8574
  158SAPE   C2917626   2.020   2.079   7.448 -0.1220  0.3587 -0.0329
  158SAPE   H9R17627   1.935   2.012   7.431  0.8573 -0.6315 -1.1900
  158SAPE  C21017628   2.054   2.106   7.595  0.0213 -0.1513 -0.5574
  158SAPE  H10R17629   2.151   2.157   7.615 -0.3690  0.1084  0.7610
  158SAPE  H10S17630   2.069   2.008   7.646 -1.2075 -0.9166 -1.6047
  158SAPE  C21117631   1.944   2.179   7.655 -0.2273 -1.3812  0.1560
  158SAPE  H11R17632   1.854   2.121   7.681 -0.9913 -0.4266 -0.3003
  158SAPE  C21217633   1.947   2.315   7.696  0.0691 -0.4489 -0.1024
  158SAPE  H12R17634   1.857   2.343   7.754 -0.2947 -1.8353  0.0445
  158SAPE  C21317635   2.056   2.414   7.691 -1.5818  0.0642  0.5455
  158SAPE  H13R17636   2.014   2.512   7.659  0.8862  0.8569 -0.5850
  158SAPE  H13S17637   2.126   2.401   7.605 -1.1660  2.5366  0.4230
  158SAPE  C21417638   2.145   2.423   7.812 -0.3209  0.1743 -0.0989
  158SAPE  H14R17639   2.207   2.335   7.837  0.4564  1.0139  1.0784
  158SAPE  C21517640   2.165   2.527   7.896 -0.7818  0.6190  0.3374
  158SAPE  H15R17641   2.237   2.513   7.978 -0.9048  1.3860  0.5835
  158SAPE  C21617642   2.102   2.664   7.889 -0.8303  0.0198  0.5442
  158SAPE  H16R17643   1.996   2.672   7.860 -1.6505  1.3040  3.4942
  158SAPE  H16S17644   2.151   2.736   7.819 -1.8627 -0.6869 -0.9502
  158SAPE  C21717645   2.088   2.720   8.029  0.5148  0.4011 -0.8113
  158SAPE  H17R17646   2.189   2.754   8.060 -0.3988  2.5097  0.0206
  158SAPE  H17S17647   2.047   2.641   8.095 -0.2051  1.0579 -0.4526
  158SAPE  C21817648   1.985   2.844   8.045 -0.0351  0.2151  0.5197
  158SAPE  H18R17649   1.888   2.828   7.993 -1.1336 -0.7186  2.7330
  158SAPE  H18S17650   2.027   2.927   7.984 -0.8322  0.3461  0.1356
  158SAPE  C21917651   1.959   2.886   8.183  0.4547 -0.0617  0.6382
  158SAPE  H19R17652   1.902   2.981   8.187  2.4031  1.1388  1.1004
  158SAPE  H19S17653   2.048   2.897   8.247  0.8123 -1.9990  0.5320
  158SAPE  C22017654   1.860   2.786   8.252  0.2287 -0.3007 -0.3278
  158SAPE  H20R17655   1.853   2.817   8.359  2.8991  0.4875 -0.3068
  158SAPE  H20S17656   1.911   2.689   8.270  0.6517  0.1039  0.7936
  158SAPE  H20T17657   1.762   2.774   8.201 -0.6154 -1.2102  1.4261
  158SAPE   C3317658   2.681   3.109   6.913  0.0219 -0.5430 -0.4288
  158SAPE   H3X17659   2.622   3.176   6.848  0.0692  0.3225  0.3970
  158SAPE   H3Y17660   2.776   3.073   6.869  1.3381 -0.1037  1.8621
  158SAPE   C3417661   2.718   3.170   7.053  0.4605 -0.5578  0.4453
  158SAPE   H4X17662   2.631   3.229   7.090  2.2176  2.8122 -0.4038
  158SAPE   H4Y17663   2.806   3.237   7.040  0.9956 -1.4379 -0.6631
  158SAPE   C3517664   2.764   3.069   7.159  0.4215 -0.4773 -0.2631
  158SAPE   H5X17665   2.855   3.110   7.207  1.1430  0.9449 -2.6888
  158SAPE   H5Y17666   2.806   2.981   7.106 -0.0688 -1.0283  0.2457
  158SAPE   C3617667   2.667   3.034   7.269 -0.0879 -0.0409  0.0192
  158SAPE   H6X17668   2.582   3.004   7.204 -0.5376 -0.9164  0.9812
  158SAPE   H6Y17669   2.628   3.132   7.303 -0.5872  0.5438 -2.1030
  158SAPE   C3717670   2.704   2.923   7.367 -0.5634  0.3673 -0.1986
  158SAPE   H7X17671   2.614   2.893   7.425 -1.1837  0.5707 -1.0381
  158SAPE   H7Y17672   2.734   2.826   7.321 -2.8025 -0.1536 -0.7297
  158SAPE   C3817673   2.804   2.981   7.468  0.1432  0.0672 -0.8375
  158SAPE   H8X17674   2.847   3.077   7.431  3.9176 -0.6563  1.0901
  158SAPE   H8Y17675   2.886   2.906   7.475  0.7941  0.9042  1.6831
  158SAPE   C3917676   2.750   3.009   7.612  0.0730 -0.1901  0.0794
  158SAPE   H9X17677   2.693   2.921   7.650 -2.6068  1.4311  0.0596
  158SAPE   H9Y17678   2.668   3.084   7.611 -0.1936 -0.4786 -0.0120
  158SAPE  C31017679   2.854   3.051   7.717  0.3752  0.4401  0.0241
  158SAPE  H10X17680   2.894   3.146   7.675 -1.1018  0.8136 -0.6069
  158SAPE  H10Y17681   2.926   2.967   7.725 -2.0812 -2.1110 -2.3212
  158SAPE  C31117682   2.777   3.086   7.849  0.2565 -0.1003  0.1446
  158SAPE  H11X17683   2.682   3.029   7.861 -0.1768  0.4559 -0.5644
  158SAPE  H11Y17684   2.742   3.190   7.836  2.5153  0.8539  1.1807
  158SAPE  C31217685   2.863   3.065   7.973  0.5636  0.2234 -0.4168
  158SAPE  H12X17686   2.967   3.099   7.953  0.5829 -0.9139 -2.4154
  158SAPE  H12Y17687   2.862   2.958   8.001  0.3117  0.1234 -0.8124
  158SAPE  C31317688   2.792   3.140   8.092  0.2515 -0.3261 -0.3675
  158SAPE  H13X17689   2.685   3.111   8.100  0.0815  0.1441 -0.8567
  158SAPE  H13Y17690   2.792   3.247   8.060  3.1051 -0.3581 -0.6666
  158SAPE  C31417691   2.847   3.101   8.229 -1.0115 -0.3269  0.8966
  158SAPE  H14X17692   2.958   3.097   8.237 -0.7221  2.3351 -0.5544
  158SAPE  H14Y17693   2.816   2.998   8.258 -0.0352 -0.1242  2.8054
  158SAPE  C31517694   2.798   3.181   8.346 -0.0393 -0.0913  0.0021
  158SAPE  H15X17695   2.689   3.160   8.345 -0.7793  2.6997  3.1402
  158SAPE  H15Y17696   2.799   3.292   8.341  0.2699 -0.0860  0.1629
  158SAPE  C31617697   2.858   3.148   8.484 -0.1288  0.3952  0.0579
  158SAPE  H16X17698   2.823   3.226   8.554 -0.2348 -0.0840  0.5468
  158SAPE  H16Y17699   2.969   3.157   8.478  0.2188 -1.6116  2.1825
  158SAPE  C31717700   2.831   3.009   8.533  0.4654 -0.0326  0.4575
  158SAPE  H17X17701   2.866   2.929   8.464 -0.8418 -0.4310  0.2408
  158SAPE  H17Y17702   2.721   2.997   8.530 -0.1051  3.7166  0.9674
  158SAPE  C31817703   2.876   2.988   8.676  0.4404 -0.2089  0.8311
  158SAPE  H18X17704   2.822   3.064   8.736  0.7879  0.8948 -0.2181
  158SAPE  H18Y17705   2.986   2.998   8.687  0.9037 -2.1074 -1.2517
  158SAPE  H18Z17706   2.846   2.888   8.715 -0.4647 -0.3292 -0.1459
  159SAPE     N17707   3.868   4.609   6.482 -0.2139 -0.0874  0.5053
  159SAPE   HN117708   3.941   4.566   6.542 -0.0103  1.0044  1.0707
  159SAPE   HN217709   3.768   4.590   6.503 -0.7501  0.5411 -1.2860
  159SAPE   HN317710   3.888   4.577   6.385  1.1980 -0.1582  0.7983
  159SAPE   C1217711   3.884   4.760   6.486  0.6887  0.3871  0.5813
  159SAPE  H12A17712   3.811   4.799   6.560 -0.0501  1.0418 -0.4671
  159SAPE  H12B17713   3.842   4.800   6.391 -1.8328  0.1293  1.5031
  159SAPE   C1117714   4.031   4.814   6.513  0.3311  0.2726  0.6986
  159SAPE  H11A17715   4.061   4.787   6.616 -0.2034 -1.1432  0.5027
  159SAPE  H11B17716   4.019   4.924   6.506 -1.9299  0.1198  1.1457
  159SAPE     P17717   4.182   4.856   6.300  0.3739 -0.0284 -0.0699
  159SAPE   O1317718   4.246   4.767   6.201 -0.0045  0.0425 -0.3157
  159SAPE   O1417719   4.083   4.961   6.248  0.2312  0.5892  0.1345
  159SAPE   O1217720   4.118   4.765   6.412  0.1331  0.2102 -0.1915
  159SAPE   O1117721   4.294   4.930   6.388  0.2265  0.4508  0.2370
  159SAPE    C117722   4.388   4.856   6.465 -0.5847  0.2644 -0.0041
  159SAPE    HA17723   4.410   4.758   6.418 -0.0216  1.2404 -1.8763
  159SAPE    HB17724   4.478   4.921   6.473 -0.2674 -0.0810 -0.6556
  159SAPE    C217725   4.341   4.827   6.612  0.5036 -0.0860  0.0735
  159SAPE    HS17726   4.282   4.733   6.612 -3.0321  1.8963  2.7692
  159SAPE   O2117727   4.256   4.932   6.664  0.0737  0.1535  0.2950
  159SAPE   C2117728   4.297   5.058   6.652 -0.4017  0.0967 -0.2672
  159SAPE   O2217729   4.405   5.101   6.621  0.2526 -0.3773  0.0046
  159SAPE   C2217730   4.178   5.144   6.679 -0.0306 -0.4079 -0.7666
  159SAPE   H2R17731   4.181   5.216   6.594 -1.2663 -0.2726 -0.7294
  159SAPE   H2S17732   4.083   5.089   6.660  0.0754 -0.4849 -1.0722
  159SAPE    C317733   4.460   4.810   6.706 -0.5680  0.1214  0.4329
  159SAPE    HX17734   4.502   4.909   6.731 -2.0165  0.9201 -0.1674
  159SAPE    HY17735   4.528   4.742   6.651  2.5003  3.0763  0.2407
  159SAPE   O3117736   4.419   4.751   6.834 -0.8725  0.5541  0.0043
  159SAPE   C3117737   4.431   4.616   6.830 -0.0405  0.6932 -0.3120
  159SAPE   O3217738   4.465   4.545   6.736  0.2202  0.3850 -0.1480
  159SAPE   C3217739   4.402   4.560   6.970 -0.2113 -0.2156  0.2649
  159SAPE   H2X17740   4.356   4.643   7.029  1.0032  0.5674  0.1510
  159SAPE   H2Y17741   4.497   4.528   7.018 -1.0215 -3.9864 -0.3394
  159SAPE   C2317742   4.193   5.225   6.814  0.4135 -0.2624 -0.0830
  159SAPE   H3R17743   4.298   5.259   6.825  0.5713 -0.5739 -0.5745
  159SAPE   H3S17744   4.167   5.161   6.901 -3.9638  0.2847 -0.7518
  159SAPE   C2417745   4.108   5.356   6.821  1.1138  0.4208 -0.3675
  159SAPE   H4R17746   4.118   5.410   6.724 -1.4799 -0.4209 -1.1729
  159SAPE   H4S17747   4.161   5.417   6.898 -2.3274  1.1450  1.6272
  159SAPE   C2517748   3.959   5.345   6.858 -0.5548 -0.0505 -0.0130
  159SAPE   H5R17749   3.912   5.280   6.783  2.1605 -0.5795 -1.3852
  159SAPE   C2617750   3.898   5.390   6.967  0.3704  0.1469  0.8478
  159SAPE   H6R17751   3.789   5.374   6.965  0.6070 -1.7389  0.0115
  159SAPE   C2717752   3.962   5.471   7.071 -0.0953 -0.8339 -0.4557
  159SAPE   H7R17753   4.024   5.552   7.025 -2.3832  0.1604 -1.9891
  159SAPE   H7S17754   4.034   5.418   7.137  0.4333  0.0956 -0.2698
  159SAPE   C2817755   3.866   5.544   7.165  0.1288 -0.4867  0.5115
  159SAPE   H8R17756   3.761   5.561   7.138  0.4228 -0.1120 -0.4491
  159SAPE   C2917757   3.900   5.586   7.290  0.1180  0.1007  0.2887
  159SAPE   H9R17758   3.827   5.637   7.355 -0.9292  0.9286 -1.4679
  159SAPE  C21017759   4.026   5.556   7.374 -0.4112 -0.3358  0.3268
  159SAPE  H10R17760   4.049   5.654   7.421 -0.0078 -0.6645  0.8275
  159SAPE  H10S17761   4.098   5.522   7.296 -2.3253 -0.8483 -1.3129
  159SAPE  C21117762   4.013   5.436   7.475 -0.4908 -1.0476 -0.0855
  159SAPE  H11R17763   4.007   5.338   7.424 -2.8875 -0.2011 -1.5793
  159SAPE  C21217764   4.003   5.458   7.607 -0.2288  0.0509 -0.3560
  159SAPE  H12R17765   3.987   5.372   7.674  1.1406 -0.8860 -1.1752
  159SAPE  C21317766   4.014   5.597   7.670  0.1961  0.2167 -0.0119
  159SAPE  H13R17767   3.912   5.640   7.657  0.8238  1.6115 -0.4257
  159SAPE  H13S17768   4.083   5.660   7.611  0.7770  0.3144  0.7599
  159SAPE  C21417769   4.046   5.592   7.816 -0.4009  0.0665 -0.2840
  159SAPE  H14R17770   4.153   5.606   7.834 -0.3329 -0.4012 -0.3206
  159SAPE  C21517771   3.962   5.586   7.920  0.6126 -0.2326  0.0669
  159SAPE  H15R17772   4.011   5.591   8.018 -0.5529 -0.4407  0.6762
  159SAPE  C21617773   3.810   5.581   7.920 -0.6407  0.5047  0.9298
  159SAPE  H16R17774   3.788   5.485   7.971  1.4252 -0.5973 -0.0916
  159SAPE  H16S17775   3.770   5.566   7.817  0.3530 -1.1608  0.7410
  159SAPE  C21717776   3.744   5.711   7.980 -1.0629 -0.3184  0.3992
  159SAPE  H17R17777   3.637   5.686   7.965 -0.7581 -0.6261 -1.4013
  159SAPE  H17S17778   3.782   5.788   7.910 -1.7768 -0.0786  0.2683
  159SAPE  C21817779   3.797   5.747   8.123  0.2080  0.7312 -0.1457
  159SAPE  H18R17780   3.907   5.736   8.133 -0.1083 -1.4103  1.7630
  159SAPE  H18S17781   3.739   5.686   8.195  0.7793 -0.1300 -0.4090
  159SAPE  C21917782   3.757   5.898   8.154 -0.2855  0.0886  0.0004
  159SAPE  H19R17783   3.646   5.897   8.154 -0.3206  0.3291  1.7293
  159SAPE  H19S17784   3.807   5.949   8.070  0.5362  1.1037  1.0704
  159SAPE  C22017785   3.816   5.948   8.289  0.3100  0.3940 -0.0623
  159SAPE  H20R17786   3.925   5.958   8.307  0.2336 -1.5051  1.9521
  159SAPE  H20S17787   3.778   5.876   8.364 -1.7872  0.7672 -0.7164
  159SAPE  H20T17788   3.782   6.045   8.329  1.4736  0.8641 -0.1864
  159SAPE   C3317789   4.305   4.449   6.960  0.1696  0.3527 -0.2512
  159SAPE   H3X17790   4.349   4.352   6.930  0.5847  0.6795 -0.7235
  159SAPE   H3Y17791   4.226   4.477   6.887 -0.1468  0.4891  0.1412
  159SAPE   C3417792   4.224   4.416   7.094 -0.7429 -0.3795  0.0124
  159SAPE   H4X17793   4.141   4.343   7.089 -0.0679 -1.1928  0.4866
  159SAPE   H4Y17794   4.171   4.507   7.128 -0.9224 -0.9780  1.3918
  159SAPE   C3517795   4.313   4.377   7.212  0.0687 -0.3243 -0.3276
  159SAPE   H5X17796   4.402   4.444   7.216  0.2367 -0.5617  4.0294
  159SAPE   H5Y17797   4.355   4.279   7.181 -0.5365 -0.7826  0.3086
  159SAPE   C3617798   4.236   4.381   7.344 -0.2920  0.3958 -0.4494
  159SAPE   H6X17799   4.166   4.295   7.345 -0.5532  0.6059 -0.9396
  159SAPE   H6Y17800   4.174   4.469   7.371  0.4085  0.6984  0.2063
  159SAPE   C3717801   4.328   4.350   7.459 -0.1002 -0.1538 -0.2944
  159SAPE   H7X17802   4.412   4.420   7.436  1.0185 -1.1921  0.4936
  159SAPE   H7Y17803   4.366   4.247   7.443 -1.3940 -0.7380  0.2147
  159SAPE   C3817804   4.259   4.374   7.590 -0.2574  0.0818  0.1556
  159SAPE   H8X17805   4.162   4.321   7.595  0.6273 -1.5025  3.0819
  159SAPE   H8Y17806   4.228   4.481   7.588  0.2643  0.2324 -0.0107
  159SAPE   C3917807   4.337   4.336   7.722  0.0499 -0.1963  0.6844
  159SAPE   H9X17808   4.445   4.338   7.696 -0.4746 -0.6846 -1.7573
  159SAPE   H9Y17809   4.303   4.237   7.759 -1.7796  0.3925  0.6949
  159SAPE  C31017810   4.303   4.433   7.831 -0.1551  0.0722 -0.9916
  159SAPE  H10X17811   4.194   4.417   7.844  0.0717 -1.9080 -1.1997
  159SAPE  H10Y17812   4.300   4.533   7.783  0.2709  0.8500  0.5437
  159SAPE  C31117813   4.382   4.429   7.964  0.5360  0.1753 -0.2635
  159SAPE  H11X17814   4.483   4.473   7.949 -0.9696  3.6063 -1.1513
  159SAPE  H11Y17815   4.382   4.324   8.001 -1.5523  0.2277 -0.0111
  159SAPE  C31217816   4.321   4.499   8.088  0.0296 -0.1681  0.3876
  159SAPE  H12X17817   4.210   4.497   8.091  0.0481  0.0440  2.0357
  159SAPE  H12Y17818   4.344   4.607   8.080 -1.2060  0.0748 -0.0756
  159SAPE  C31317819   4.384   4.457   8.224 -0.0865 -0.2665  0.3156
  159SAPE  H13X17820   4.494   4.453   8.217 -0.1955 -0.1705 -2.2731
  159SAPE  H13Y17821   4.338   4.358   8.242 -0.9260  0.5091  3.0662
  159SAPE  C31417822   4.349   4.549   8.342  0.3967 -0.1646  0.2012
  159SAPE  H14X17823   4.238   4.561   8.341  0.4740  0.5594  0.0934
  159SAPE  H14Y17824   4.384   4.654   8.335  0.5667 -0.2416 -0.1181
  159SAPE  C31517825   4.384   4.493   8.483  0.4413  0.1672  0.5711
  159SAPE  H15X17826   4.339   4.392   8.491  1.5246 -0.5325 -1.3658
  159SAPE  H15Y17827   4.342   4.563   8.558 -1.3448  0.7112 -0.8650
  159SAPE  C31617828   4.538   4.481   8.497  0.4830 -0.5056  0.2791
  159SAPE  H16X17829   4.600   4.572   8.508 -0.7029  0.5399 -1.2850
  159SAPE  H16Y17830   4.578   4.435   8.404  0.2697  0.6724 -0.4116
  159SAPE  C31717831   4.565   4.379   8.606  0.2875 -0.1212  0.1448
  159SAPE  H17X17832   4.548   4.275   8.568  0.8457  0.0163 -0.4994
  159SAPE  H17Y17833   4.492   4.402   8.687 -1.4718 -0.5929 -1.2498
  159SAPE  C31817834   4.707   4.393   8.660  0.0622 -0.0585 -0.4704
  159SAPE  H18X17835   4.718   4.338   8.756  1.6702 -0.8088 -1.0531
  159SAPE  H18Y17836   4.725   4.502   8.673 -0.2173 -0.1528  0.8040
  159SAPE  H18Z17837   4.783   4.357   8.587  1.1690  2.0847 -0.4757
  160SAPE     N17838   5.609   5.011   6.730 -0.6060 -0.6311 -0.2428
  160SAPE   HN117839   5.701   5.013   6.681 -0.6822 -1.8306 -0.4804
  160SAPE   HN217840   5.588   5.110   6.753 -0.6784 -1.4452  3.8498
  160SAPE   HN317841   5.607   4.953   6.816  0.2363  0.0311  0.2275
  160SAPE   C1217842   5.508   4.936   6.645 -0.1221 -0.4855  0.0894
  160SAPE  H12A17843   5.406   4.940   6.689 -0.5503  0.2629 -0.9474
  160SAPE  H12B17844   5.549   4.836   6.621  2.7821  1.1050 -2.2994
  160SAPE   C1117845   5.494   5.027   6.509 -0.5196  0.2835 -0.3719
  160SAPE  H11A17846   5.446   4.959   6.436  0.3287 -0.3472 -0.3623
  160SAPE  H11B17847   5.599   5.024   6.474  0.3024  0.3368  1.9274
  160SAPE     P17848   5.510   5.295   6.545  0.2208 -0.1807 -0.0255
  160SAPE   O1317849   5.616   5.301   6.437  0.3578  0.5258 -0.5151
  160SAPE   O1417850   5.401   5.395   6.543 -0.0720  0.6445  0.2632
  160SAPE   O1217851   5.442   5.155   6.525  0.5468 -0.0337  0.0107
  160SAPE   O1117852   5.580   5.293   6.684  0.1886 -0.0494  0.1443
  160SAPE    C117853   5.561   5.403   6.772 -0.9312 -0.0425 -0.2501
  160SAPE    HA17854   5.657   5.459   6.764  0.6832 -2.5299  0.6397
  160SAPE    HB17855   5.475   5.470   6.750 -2.4212 -2.7091 -3.5951
  160SAPE    C217856   5.565   5.356   6.915 -0.6743  0.0703 -0.2541
  160SAPE    HS17857   5.620   5.260   6.922 -1.1561 -0.1689  0.3013
  160SAPE   O2117858   5.442   5.345   6.977  0.8576  0.2157 -0.3201
  160SAPE   C2117859   5.353   5.255   6.950  0.2748  0.0476  0.4144
  160SAPE   O2217860   5.365   5.154   6.877 -0.6135 -0.5075  0.6690
  160SAPE   C2217861   5.233   5.285   7.039  0.4020  0.1607 -0.2116
  160SAPE   H2R17862   5.263   5.230   7.131 -2.2344  0.3129  0.8322
  160SAPE   H2S17863   5.220   5.392   7.064 -0.3238 -0.0658  0.4101
  160SAPE    C317864   5.641   5.459   7.005  0.6390 -0.4467  0.4784
  160SAPE    HX17865   5.576   5.547   7.022  2.6700  0.9351  1.4750
  160SAPE    HY17866   5.730   5.497   6.951  0.7336  1.5837  1.9580
  160SAPE   O3117867   5.680   5.413   7.134 -0.0242 -0.7608  0.0128
  160SAPE   C3117868   5.758   5.309   7.135 -0.6264 -0.3684 -0.4973
  160SAPE   O3217869   5.816   5.259   7.038  0.5007 -0.5300 -0.0808
  160SAPE   C3217870   5.776   5.257   7.282  0.1953  0.1217 -0.0953
  160SAPE   H2X17871   5.798   5.334   7.358  1.3210 -0.7963  0.5505
  160SAPE   H2Y17872   5.857   5.181   7.275 -0.3126 -0.5590  1.1571
  160SAPE   C2317873   5.091   5.232   7.005 -0.3155 -0.3527  1.2733
  160SAPE   H3R17874   5.096   5.123   6.980 -0.8496 -0.1296  0.0946
  160SAPE   H3S17875   5.064   5.264   6.902 -1.0548 -2.9900  0.5574
  160SAPE   C2417876   4.985   5.266   7.112 -0.2267  0.2994 -0.1965
  160SAPE   H4R17877   5.023   5.225   7.208 -0.6238 -0.3034 -0.2947
  160SAPE   H4S17878   4.894   5.205   7.093 -0.6950  1.0495 -0.4119
  160SAPE   C2517879   4.957   5.412   7.127  0.0328  0.0188 -0.5387
  160SAPE   H5R17880   4.983   5.464   7.034 -0.2440 -1.7875 -1.6859
  160SAPE   C2617881   4.932   5.481   7.234 -0.0388  0.3135  0.5509
  160SAPE   H6R17882   4.926   5.590   7.224 -0.2739  0.2436 -0.1353
  160SAPE   C2717883   4.923   5.427   7.376  0.3416  0.7534 -0.3220
  160SAPE   H7R17884   4.984   5.501   7.433  0.8245  0.8488 -0.9508
  160SAPE   H7S17885   4.971   5.327   7.376 -0.6322  0.2829 -0.2596
  160SAPE   C2817886   4.780   5.427   7.423 -0.2459 -0.2293 -0.0432
  160SAPE   H8R17887   4.706   5.445   7.344 -1.1527 -1.3731  0.5282
  160SAPE   C2917888   4.742   5.411   7.550  0.5307 -0.6276  0.3180
  160SAPE   H9R17889   4.635   5.425   7.573  0.2886 -1.1714 -0.4311
  160SAPE  C21017890   4.827   5.391   7.670  0.0908  0.1041 -1.0250
  160SAPE  H10R17891   4.766   5.398   7.763 -0.4136 -3.7902 -0.9132
  160SAPE  H10S17892   4.900   5.474   7.679 -1.3749  1.2632  1.5470
  160SAPE  C21117893   4.892   5.254   7.672 -0.1052 -0.3520 -0.1635
  160SAPE  H11R17894   4.945   5.222   7.581 -1.2772  1.4969 -1.5728
  160SAPE  C21217895   4.904   5.174   7.783 -0.3809 -0.2875  0.1288
  160SAPE  H12R17896   4.946   5.072   7.776 -0.6769 -0.6399  2.4997
  160SAPE  C21317897   4.842   5.209   7.917  0.7679  0.4718 -0.1663
  160SAPE  H13R17898   4.869   5.316   7.929 -0.7184  0.6558  2.0952
  160SAPE  H13S17899   4.908   5.163   7.993  0.6097  0.7629  0.1559
  160SAPE  C21417900   4.697   5.177   7.944 -0.0541 -0.4286  0.1329
  160SAPE  H14R17901   4.621   5.217   7.875 -1.2388 -0.6046  1.2916
  160SAPE  C21517902   4.649   5.106   8.048  0.2832  0.0550  0.6600
  160SAPE  H15R17903   4.540   5.092   8.047  0.0424  1.2774  2.7853
  160SAPE  C21617904   4.737   5.044   8.159  0.5832 -0.3386  0.0577
  160SAPE  H16R17905   4.681   5.026   8.253 -0.7959 -1.0103 -0.8636
  160SAPE  H16S17906   4.828   5.104   8.179  1.9358 -1.4156 -2.4218
  160SAPE  C21717907   4.777   4.907   8.116 -0.0234  0.3771  0.5262
  160SAPE  H17R17908   4.856   4.865   8.182  0.3866  2.4751  1.4411
  160SAPE  H17S17909   4.817   4.901   8.012 -3.0593  0.0468 -0.7331
  160SAPE  C21817910   4.656   4.815   8.123  0.1455 -1.1246  0.2871
  160SAPE  H18R17911   4.584   4.838   8.042 -2.8822 -1.2959  2.7727
  160SAPE  H18S17912   4.610   4.819   8.223 -1.5936  0.8416 -0.5230
  160SAPE  C21917913   4.684   4.661   8.098  0.1596 -0.0285 -0.2318
  160SAPE  H19R17914   4.748   4.660   8.007  0.3250 -0.9989 -0.1121
  160SAPE  H19S17915   4.582   4.621   8.081  0.7429 -1.2375 -0.9577
  160SAPE  C22017916   4.758   4.588   8.207  0.5400 -0.2659 -0.6712
  160SAPE  H20R17917   4.769   4.482   8.175  0.1890  0.0012 -1.7244
  160SAPE  H20S17918   4.713   4.593   8.309 -0.6569 -1.0395 -1.1307
  160SAPE  H20T17919   4.865   4.616   8.208  0.5201 -0.1514 -1.2639
  160SAPE   C3317920   5.649   5.178   7.342 -0.1948 -0.0906 -0.6258
  160SAPE   H3X17921   5.678   5.125   7.435 -0.0131 -1.8573 -1.6467
  160SAPE   H3Y17922   5.610   5.107   7.267  1.2531 -0.5150 -1.0030
  160SAPE   C3417923   5.534   5.268   7.386  0.1733  0.0399 -0.5473
  160SAPE   H4X17924   5.492   5.309   7.292 -0.8913 -0.7317 -0.4262
  160SAPE   H4Y17925   5.562   5.354   7.451  0.8863 -0.6218  0.0389
  160SAPE   C3517926   5.419   5.180   7.450 -1.0891  0.4073 -0.2371
  160SAPE   H5X17927   5.460   5.107   7.523  0.0422  0.7139 -0.5509
  160SAPE   H5Y17928   5.384   5.125   7.360 -0.5879 -0.0949 -0.1280
  160SAPE   C3617929   5.309   5.266   7.516  0.0988 -0.7047  1.1034
  160SAPE   H6X17930   5.212   5.213   7.511  0.5945 -1.5940  0.6736
  160SAPE   H6Y17931   5.293   5.365   7.468 -0.2160 -1.3116 -0.0796
  160SAPE   C3717932   5.327   5.277   7.669 -0.2170  0.8098 -0.0245
  160SAPE   H7X17933   5.386   5.189   7.703 -1.7511  0.4305  1.8852
  160SAPE   H7Y17934   5.229   5.273   7.722 -0.1945  1.3599  0.0575
  160SAPE   C3817935   5.395   5.408   7.714  0.1511 -0.5346  0.2249
  160SAPE   H8X17936   5.322   5.490   7.697  0.7953  0.3385  1.4828
  160SAPE   H8Y17937   5.484   5.430   7.652 -0.5416  3.2904  0.3299
  160SAPE   C3917938   5.414   5.419   7.870 -0.4031  0.6079  0.6392
  160SAPE   H9X17939   5.465   5.516   7.890 -0.9131  0.8418  0.8063
  160SAPE   H9Y17940   5.486   5.343   7.906  1.5070  2.1806  0.3319
  160SAPE  C31017941   5.281   5.423   7.939  1.1134 -0.2866 -0.3182
  160SAPE  H10X17942   5.221   5.330   7.925 -3.1258  2.2984 -0.9293
  160SAPE  H10Y17943   5.215   5.505   7.905  2.2570  0.4890 -0.6962
  160SAPE  C31117944   5.305   5.438   8.084  0.6610 -0.7154 -0.0715
  160SAPE  H11X17945   5.365   5.531   8.092 -2.3160  1.3164  0.0403
  160SAPE  H11Y17946   5.381   5.363   8.116  0.6584  0.0759  1.9616
  160SAPE  C31217947   5.182   5.443   8.171 -0.4957  0.5282 -0.0741
  160SAPE  H12X17948   5.120   5.354   8.149 -1.3107  1.0048  0.2476
  160SAPE  H12Y17949   5.113   5.530   8.161 -0.9910  0.5167  2.5049
  160SAPE  C31317950   5.228   5.448   8.322 -0.0378 -0.0138 -0.4329
  160SAPE  H13X17951   5.300   5.367   8.349 -0.7881 -0.7480 -0.5897
  160SAPE  H13Y17952   5.142   5.424   8.389  1.6098 -2.1778  1.0597
  160SAPE  C31417953   5.282   5.581   8.378 -0.8532  0.0280  0.1792
  160SAPE  H14X17954   5.210   5.666   8.384 -0.3480  0.5705 -1.0391
  160SAPE  H14Y17955   5.354   5.614   8.299 -2.2291  1.0445 -0.6938
  160SAPE  C31517956   5.365   5.556   8.509 -0.0391  0.2641  0.1727
  160SAPE  H15X17957   5.417   5.645   8.550 -0.1849 -0.7148  2.6211
  160SAPE  H15Y17958   5.440   5.479   8.481 -2.0387 -1.5904 -0.3913
  160SAPE  C31617959   5.299   5.487   8.623  0.2436  0.4801  0.0271
  160SAPE  H16X17960   5.300   5.377   8.603  0.3476  0.1425  1.7263
  160SAPE  H16Y17961   5.197   5.528   8.635  1.3474  2.7821  2.5982
  160SAPE  C31717962   5.368   5.520   8.758  0.1477  0.4497 -0.6727
  160SAPE  H17X17963   5.362   5.626   8.791 -1.2998 -0.0828  0.9499
  160SAPE  H17Y17964   5.477   5.499   8.758  0.1455 -0.3918  3.3303
  160SAPE  C31817965   5.299   5.434   8.867  0.0997 -0.4981  0.1717
  160SAPE  H18X17966   5.203   5.473   8.908 -0.3757 -0.4074 -0.9883
  160SAPE  H18Y17967   5.366   5.405   8.950  1.2815  0.5073 -0.4036
  160SAPE  H18Z17968   5.267   5.340   8.816  0.0478  0.0614 -0.8386
  161SOPE     N17969   3.472   4.771  10.601  0.2209 -0.5579 -0.5222
  161SOPE   HN117970   3.445   4.845  10.534 -1.9395 -0.7580  0.0619
  161SOPE   HN217971   3.532   4.809  10.678 -1.3708 -0.1173  0.5470
  161SOPE   HN317972   3.529   4.696  10.557 -0.8626 -2.5826  1.3145
  161SOPE   C1217973   3.326   4.735  10.639 -0.5165  0.7013  1.0731
  161SOPE  H12A17974   3.317   4.639  10.694 -0.6277 -1.6115 -2.6588
  161SOPE  H12B17975   3.281   4.718  10.539  0.6386 -0.5491  0.7402
  161SOPE   C1117976   3.248   4.836  10.733 -0.2921 -0.2969 -0.3188
  161SOPE  H11A17977   3.289   4.816  10.835  0.1638  0.6404 -0.3099
  161SOPE  H11B17978   3.143   4.803  10.726  0.1490 -1.8422 -0.0730
  161SOPE     P17979   3.136   5.075  10.678  0.0646  0.0754 -0.1467
  161SOPE   O1317980   3.171   5.206  10.621  0.2915  0.1779  0.0662
  161SOPE   O1417981   3.080   5.069  10.818 -0.3807 -0.0048  0.0655
  161SOPE   O1217982   3.262   4.975  10.696  0.5675  0.0774  1.3910
  161SOPE   O1117983   3.040   4.988  10.586 -0.9599 -0.0484  0.8281
  161SOPE    C117984   3.056   5.000  10.443 -0.3038  0.8445 -0.4632
  161SOPE    HA17985   3.018   4.909  10.392  0.4398  0.4573 -0.3356
  161SOPE    HB17986   3.160   5.000  10.406 -0.1073 -0.7166  0.0166
  161SOPE    C217987   2.974   5.123  10.404 -0.4284  0.3558  0.8884
  161SOPE    HS17988   2.997   5.209  10.471  1.0080 -0.0734  1.0000
  161SOPE   O2117989   2.834   5.092  10.409  0.2647 -0.6615  0.3406
  161SOPE   C2117990   2.749   5.203  10.381  0.2812  0.5809  0.1864
  161SOPE   O2217991   2.767   5.314  10.413  0.1542  0.1134 -0.7327
  161SOPE   C2217992   2.621   5.158  10.304 -0.9051 -0.0722 -0.3154
  161SOPE   H2R17993   2.554   5.106  10.376  0.6270 -0.6538  0.7457
  161SOPE   H2S17994   2.652   5.090  10.222  0.7902  2.6107 -2.0425
  161SOPE    C317995   3.011   5.151  10.252  0.3096 -0.2470  0.1890
  161SOPE    HX17996   2.981   5.058  10.200  1.4948 -0.6829  0.2567
  161SOPE    HY17997   3.122   5.159  10.248  0.1853  1.0057 -1.9851
  161SOPE   O3117998   2.946   5.260  10.192  0.4531 -1.2311 -0.2746
  161SOPE   C3117999   3.014   5.380  10.184 -0.4174  0.6723  0.0595
  161SOPE   O3218000   3.128   5.390  10.224  1.2907  0.3985 -0.3501
  161SOPE   C3218001   2.925   5.483  10.123  0.2577  1.2124 -0.2576
  161SOPE   H2X18002   2.857   5.518  10.204  0.2009  0.0564  0.2083
  161SOPE   H2Y18003   2.864   5.432  10.046  0.4198 -2.1419  1.6378
  161SOPE   C2318004   2.534   5.272  10.249 -0.5728  0.1545  0.5274
  161SOPE   H3R18005   2.563   5.357  10.315  0.6308  1.5482 -1.6366
  161SOPE   H3S18006   2.425   5.252  10.249 -0.2858 -1.8057 -1.4780
  161SOPE   C2418007   2.576   5.301  10.103  0.0664 -0.6360  0.2466
  161SOPE   H4R18008   2.539   5.399  10.066 -1.5076 -1.2100  0.2226
  161SOPE   H4S18009   2.687   5.298  10.101  0.0700 -0.3395 -1.5986
  161SOPE   C2518010   2.542   5.183   9.998  0.2830 -0.2685  0.3365
  161SOPE   H5R18011   2.632   5.138   9.950  0.7470 -1.0064  1.8476
  161SOPE   H5S18012   2.504   5.095  10.054  0.5205  0.5298  1.7962
  161SOPE   C2618013   2.418   5.206   9.901  0.1220  0.3528 -0.7666
  161SOPE   H6R18014   2.444   5.293   9.837  1.5221  0.7920  0.3379
  161SOPE   H6S18015   2.403   5.125   9.827 -2.0906  2.2655 -2.5406
  161SOPE   C2718016   2.287   5.240   9.980  0.0251 -0.9946  0.4188
  161SOPE   H7R18017   2.261   5.141  10.023 -0.2762 -0.8974  0.4639
  161SOPE   H7S18018   2.296   5.322  10.055  0.2622  0.0585 -0.7258
  161SOPE   C2818019   2.164   5.287   9.892  0.3679  0.8028 -0.7200
  161SOPE   H8R18020   2.152   5.225   9.801 -0.6712  3.8819 -2.8647
  161SOPE   H8S18021   2.070   5.275   9.950  0.2146  2.4539 -0.5665
  161SOPE   C2918022   2.180   5.435   9.846  1.0176  0.0016 -0.5706
  161SOPE   H9118023   2.176   5.506   9.929 -0.1493 -1.6536  0.8442
  161SOPE  C21018024   2.192   5.475   9.719  0.4499 -0.0189  1.0839
  161SOPE  H10118025   2.205   5.583   9.702 -0.8869  0.3969  2.4325
  161SOPE  C21118026   2.202   5.381   9.599 -0.3471 -0.2169  0.4197
  161SOPE  H11R18027   2.275   5.298   9.612  0.1413  0.1616  0.0895
  161SOPE  H11S18028   2.243   5.441   9.515 -0.7466 -0.9531 -0.3162
  161SOPE  C21218029   2.066   5.328   9.557  0.4026  0.1173 -0.6070
  161SOPE  H12R18030   1.991   5.410   9.553 -0.9055 -0.9483  0.6164
  161SOPE  H12S18031   2.022   5.261   9.634 -0.7848 -0.1348 -1.4811
  161SOPE  C21318032   2.064   5.263   9.424 -0.5108  0.1672  0.4632
  161SOPE  H13R18033   1.978   5.194   9.408  0.2606 -0.8037  0.3655
  161SOPE  H13S18034   2.151   5.193   9.428 -1.4269 -0.9480  1.6284
  161SOPE  C21418035   2.074   5.350   9.302  0.0365  0.1818 -0.1527
  161SOPE  H14R18036   2.163   5.416   9.303  0.4224 -0.3404  0.9159
  161SOPE  H14S18037   1.990   5.421   9.315 -0.1513 -0.3159  1.6194
  161SOPE  C21518038   2.064   5.264   9.177 -0.5019 -0.0386 -0.3866
  161SOPE  H15R18039   1.985   5.188   9.193 -1.2878  0.9286  0.4542
  161SOPE  H15S18040   2.154   5.203   9.154 -0.4804  0.0642 -0.5845
  161SOPE  C21618041   2.034   5.358   9.056 -0.1698  0.7876 -0.1278
  161SOPE  H16R18042   2.134   5.382   9.014  0.0708 -1.5603 -1.0487
  161SOPE  H16S18043   1.989   5.450   9.098  0.6625  0.5655  1.3077
  161SOPE  C21718044   1.950   5.297   8.945 -0.9186 -0.0512  0.2317
  161SOPE  H17R18045   1.854   5.258   8.986 -1.2566  1.7357  1.2456
  161SOPE  H17S18046   2.006   5.223   8.883 -1.7267  0.3410 -1.0120
  161SOPE  C21818047   1.927   5.396   8.824 -0.0478  0.3044  0.3131
  161SOPE  H18R18048   1.863   5.352   8.745  0.1816 -0.0863  0.3436
  161SOPE  H18S18049   2.022   5.422   8.773  1.2856 -1.6213  1.6818
  161SOPE  H18T18050   1.883   5.491   8.862  0.3495  0.4317  0.4584
  161SOPE   C3318051   2.992   5.614  10.070  0.2034 -0.1684 -0.0551
  161SOPE   H3X18052   3.085   5.584  10.017 -0.0948 -1.1494 -0.0430
  161SOPE   H3Y18053   3.008   5.688  10.152 -0.8640  2.5244 -2.1167
  161SOPE   C3418054   2.903   5.708   9.982  0.3074  0.0543  0.2791
  161SOPE   H4X18055   2.808   5.720  10.039  1.4371  1.8449  1.8968
  161SOPE   H4Y18056   2.873   5.647   9.894 -0.9511  0.6923  0.2396
  161SOPE   C3518057   2.958   5.849   9.951 -0.3207  0.5158  0.4049
  161SOPE   H5X18058   3.056   5.840   9.900  0.1944  0.4729  1.3726
  161SOPE   H5Y18059   2.974   5.898  10.050  0.4720 -0.7027  0.8974
  161SOPE   C3618060   2.860   5.925   9.864  1.1648 -0.7139 -0.4860
  161SOPE   H6X18061   2.878   6.035   9.865 -1.9343 -0.0706 -2.1503
  161SOPE   H6Y18062   2.753   5.928   9.893  0.8444  0.9255 -1.6569
  161SOPE   C3718063   2.833   5.876   9.720 -0.5755 -0.3907 -0.1423
  161SOPE   H7X18064   2.776   5.957   9.671 -0.0892  0.2400  0.3264
  161SOPE   H7Y18065   2.768   5.786   9.724  0.0338 -0.8137  0.5482
  161SOPE   C3818066   2.953   5.853   9.635 -0.5423 -0.1814  0.6738
  161SOPE   H8X18067   2.992   5.753   9.663  1.2790  0.1217 -0.6051
  161SOPE   H8Y18068   3.034   5.922   9.664  0.3619 -1.3254  0.9218
  161SOPE   C3918069   2.930   5.872   9.485 -0.1981  0.0414  0.1544
  161SOPE   H9X18070   3.020   5.877   9.420 -0.7676 -0.0380 -0.6502
  161SOPE   H9Y18071   2.916   5.982   9.479  1.2905  0.2851  0.5968
  161SOPE  C31018072   2.816   5.799   9.414 -0.6564 -0.1119  0.2564
  161SOPE  H10X18073   2.734   5.786   9.488 -0.2117 -0.5023  0.6931
  161SOPE  H10Y18074   2.853   5.695   9.397 -0.2763  0.0434  0.1184
  161SOPE  C31118075   2.759   5.876   9.299 -0.2607 -0.2864  0.1658
  161SOPE  H11X18076   2.757   5.985   9.319  0.4317 -0.3534  0.6604
  161SOPE  H11Y18077   2.654   5.845   9.281  0.1844 -0.6140 -2.1904
  161SOPE  C31218078   2.837   5.854   9.167 -0.8484 -0.5303  0.7448
  161SOPE  H12X18079   2.862   5.747   9.151  3.3686  0.4024 -0.2865
  161SOPE  H12Y18080   2.933   5.909   9.174 -0.9603 -0.2493  0.1108
  161SOPE  C31318081   2.763   5.918   9.043 -0.4221  0.3157 -1.1000
  161SOPE  H13X18082   2.728   6.019   9.075  1.1265  0.4823  0.2290
  161SOPE  H13Y18083   2.670   5.861   9.020 -1.5983  1.6024  0.2022
  161SOPE  C31418084   2.857   5.919   8.917  0.4945  0.0234  0.1323
  161SOPE  H14X18085   2.881   5.810   8.917 -2.3940 -0.7202  1.8696
  161SOPE  H14Y18086   2.946   5.986   8.923  0.2060  0.4263 -0.0796
  161SOPE  C31518087   2.775   5.955   8.789 -0.2308  0.1437 -0.0286
  161SOPE  H15X18088   2.844   6.000   8.715 -0.4386 -1.9687 -1.6119
  161SOPE  H15Y18089   2.694   6.028   8.810 -2.1668 -1.4608 -1.4925
  161SOPE  C31618090   2.713   5.835   8.704  0.3586 -0.2430 -0.3195
  161SOPE  H16X18091   2.803   5.771   8.693 -0.4439 -1.0346 -3.1859
  161SOPE  H16Y18092   2.665   5.864   8.608 -1.1155 -0.6378  0.2663
  161SOPE  C31718093   2.609   5.754   8.784  0.4744  0.6691 -0.1142
  161SOPE  H17X18094   2.551   5.832   8.837  0.4908  0.1944  0.6141
  161SOPE  H17Y18095   2.653   5.689   8.862  0.2028  0.8534  0.1954
  161SOPE  C31818096   2.512   5.672   8.697  0.1545 -0.2353 -0.3194
  161SOPE  H18X18097   2.574   5.622   8.620  2.3678  1.3187  0.3622
  161SOPE  H18Y18098   2.432   5.738   8.656  0.4174  0.2996  0.0108
  161SOPE  H18Z18099   2.455   5.602   8.761 -0.3109  1.2783  0.9880
  162SOPE     N18100   0.871   5.922  10.761 -0.0368  0.2522  0.1631
  162SOPE   HN118101   0.950   5.855  10.754 -0.3283  0.0652 -1.6742
  162SOPE   HN218102   0.910   6.019  10.762 -0.6810  0.5210 -0.1779
  162SOPE   HN318103   0.808   5.899  10.840 -1.4524  1.7991 -0.4489
  162SOPE   C1218104   0.802   5.899  10.629 -0.0587  0.4240  0.5710
  162SOPE  H12A18105   0.767   5.795  10.619  3.2622 -0.8218  0.5118
  162SOPE  H12B18106   0.882   5.911  10.553 -0.1458 -1.0005  0.2389
  162SOPE   C1118107   0.688   5.998  10.617  0.5477 -0.6201  0.7067
  162SOPE  H11A18108   0.650   5.991  10.513 -1.6255 -3.2644  1.5709
  162SOPE  H11B18109   0.733   6.098  10.634  2.4421 -1.2580 -0.2391
  162SOPE     P18110   0.511   6.093  10.783 -0.2230 -0.5531  0.1957
  162SOPE   O1318111   0.618   6.194  10.807 -0.4280 -0.1996 -0.0447
  162SOPE   O1418112   0.429   6.048  10.894  0.0908  0.2316  0.3428
  162SOPE   O1218113   0.568   5.970  10.707  0.3396 -0.0825  0.4489
  162SOPE   O1118114   0.424   6.153  10.667  0.1910  0.3247  0.7156
  162SOPE    C118115   0.300   6.080  10.633 -0.5442  0.1571  0.1737
  162SOPE    HA18116   0.236   6.097  10.723 -1.6917  0.2444 -0.6466
  162SOPE    HB18117   0.326   5.972  10.632  2.2293  0.7433  0.3872
  162SOPE    C218118   0.238   6.115  10.497 -0.2760 -0.1404 -0.3607
  162SOPE    HS18119   0.149   6.051  10.479 -0.5142  0.2049 -0.4123
  162SOPE   O2118120   0.334   6.102  10.395 -0.5335  0.6254  0.6462
  162SOPE   C2118121   0.336   5.983  10.332  0.6131 -0.1082  0.1748
  162SOPE   O2218122   0.283   5.883  10.368  0.3804  0.8967 -0.1848
  162SOPE   C2218123   0.412   5.992  10.200 -0.2226 -0.0895  0.0557
  162SOPE   H2R18124   0.379   5.902  10.144 -0.0616  1.0061 -1.8773
  162SOPE   H2S18125   0.522   5.985  10.208 -0.1964 -0.2379 -0.4107
  162SOPE    C318126   0.179   6.259  10.502 -0.1092 -0.6421 -0.3231
  162SOPE    HX18127   0.263   6.323  10.535 -0.8416 -0.0687  0.4875
  162SOPE    HY18128   0.100   6.264  10.581  0.9458  0.2448  0.7043
  162SOPE   O3118129   0.135   6.296  10.375  0.1457 -0.1188  0.3029
  162SOPE   C3118130   0.173   6.398  10.315  0.0383 -0.3193 -0.3438
  162SOPE   O3218131   0.251   6.482  10.352 -0.1375  0.3486 -0.6977
  162SOPE   C3218132   0.105   6.409  10.173  0.3158 -0.4369  0.3507
  162SOPE   H2X18133  -0.005   6.416  10.186  0.5327 -0.9674  3.2157
  162SOPE   H2Y18134   0.151   6.320  10.123  1.8460  0.7446 -0.4253
  162SOPE   C2318135   0.376   6.118  10.123  0.3996 -0.7046  0.0545
  162SOPE   H3R18136   0.406   6.212  10.173 -3.1757  0.5783  0.0522
  162SOPE   H3S18137   0.268   6.135  10.103  0.5968 -0.7564 -1.1482
  162SOPE   C2418138   0.456   6.112   9.990 -0.0029 -0.3002  0.1153
  162SOPE   H4R18139   0.565   6.133  10.001 -0.2998  1.6256 -0.2690
  162SOPE   H4S18140   0.431   6.011   9.951 -1.1475  0.0553 -0.1087
  162SOPE   C2518141   0.405   6.222   9.886 -0.1140  0.6952  0.4899
  162SOPE   H5R18142   0.382   6.314   9.945 -1.0252  0.6453  0.2326
  162SOPE   H5S18143   0.481   6.242   9.808 -0.1407  0.1380  0.3232
  162SOPE   C2618144   0.276   6.172   9.813 -0.5250  0.0204  1.1425
  162SOPE   H6R18145   0.315   6.082   9.759 -0.3279  0.3092  0.8000
  162SOPE   H6S18146   0.202   6.131   9.885 -2.1132  0.9037  0.0489
  162SOPE   C2718147   0.215   6.269   9.700 -0.3537  0.0922 -0.4964
  162SOPE   H7R18148   0.140   6.206   9.648 -0.7383 -0.5589  0.8009
  162SOPE   H7S18149   0.154   6.349   9.747 -1.6770 -0.7223 -0.7715
  162SOPE   C2818150   0.304   6.349   9.609  0.2860  0.2336 -0.0570
  162SOPE   H8R18151   0.235   6.415   9.551 -0.6118  0.2238  0.9615
  162SOPE   H8S18152   0.365   6.419   9.670  0.9662 -0.2798 -0.1490
  162SOPE   C2918153   0.398   6.264   9.526  0.4726 -0.3357  0.2785
  162SOPE   H9118154   0.482   6.222   9.584  0.6281  1.0008  1.0666
  162SOPE  C21018155   0.400   6.237   9.395 -0.3004  0.5681 -0.1124
  162SOPE  H10118156   0.487   6.182   9.356  0.0071  0.3007  0.9055
  162SOPE  C21118157   0.301   6.290   9.292  0.2331  0.4723 -0.1385
  162SOPE  H11R18158   0.317   6.396   9.264 -0.4960  0.4120 -0.8192
  162SOPE  H11S18159   0.199   6.293   9.335 -1.5128  3.8445 -3.8391
  162SOPE  C21218160   0.287   6.207   9.170 -0.1373 -0.1123  0.7037
  162SOPE  H12R18161   0.379   6.220   9.109  1.7798 -1.0099  3.2548
  162SOPE  H12S18162   0.202   6.233   9.102 -0.3591  0.0365  1.0334
  162SOPE  C21318163   0.280   6.049   9.180 -0.7269 -0.7721 -0.5324
  162SOPE  H13R18164   0.189   6.022   9.237 -1.6853  1.8332 -0.6972
  162SOPE  H13S18165   0.366   6.005   9.236  1.2481 -0.4329 -3.1005
  162SOPE  C21418166   0.277   5.984   9.045  0.0242 -0.3425 -0.6137
  162SOPE  H14R18167   0.236   5.883   9.065 -1.0858 -0.0563 -1.3408
  162SOPE  H14S18168   0.377   5.974   8.998  0.4640  0.6306  0.0766
  162SOPE  C21518169   0.168   6.038   8.942  0.1153  0.1106 -0.0851
  162SOPE  H15R18170   0.178   6.145   8.913 -0.2298  0.4586  1.0234
  162SOPE  H15S18171   0.066   6.042   8.987 -0.2376  0.2885 -0.8890
  162SOPE  C21618172   0.172   5.956   8.812  0.5384  0.5810  0.2038
  162SOPE  H16R18173   0.163   5.847   8.834 -3.6965  1.1822  2.3766
  162SOPE  H16S18174   0.270   5.986   8.768  0.9362  2.1986  2.0213
  162SOPE  C21718175   0.068   6.002   8.699 -0.0389 -0.1184  0.2852
  162SOPE  H17R18176   0.095   5.947   8.607 -0.4035 -0.0222  0.1178
  162SOPE  H17S18177   0.082   6.108   8.667  0.7039  0.0339  1.0685
  162SOPE  C21818178  -0.076   5.986   8.730  0.2830 -0.4845  0.4874
  162SOPE  H18R18179  -0.101   5.896   8.790  1.7625 -2.7458 -2.0719
  162SOPE  H18S18180  -0.138   5.991   8.637 -0.2336 -0.7034  0.8133
  162SOPE  H18T18181  -0.112   6.078   8.781 -1.2227 -1.2647  0.9054
  162SOPE   C3318182   0.156   6.544  10.102  0.5063 -1.1259 -0.5259
  162SOPE   H3X18183   0.264   6.563  10.116  0.4675 -1.7392  0.7505
  162SOPE   H3Y18184   0.118   6.629  10.162 -1.2573 -1.6174 -0.8798
  162SOPE   C3418185   0.108   6.559   9.962  0.2268 -0.1057 -0.0966
  162SOPE   H4X18186   0.004   6.523   9.948  0.4474 -0.4272 -1.0104
  162SOPE   H4Y18187   0.170   6.478   9.917  2.3497  1.3541  0.0296
  162SOPE   C3518188   0.140   6.688   9.879 -0.5549  0.1537  0.5055
  162SOPE   H5X18189   0.244   6.719   9.902 -0.4047  0.5509 -0.6026
  162SOPE   H5Y18190   0.061   6.754   9.921 -1.7231 -1.8087  1.5604
  162SOPE   C3618191   0.121   6.664   9.730 -0.0826 -0.5232 -0.1085
  162SOPE   H6X18192   0.202   6.590   9.709  1.5273  1.1217  0.0548
  162SOPE   H6Y18193   0.145   6.760   9.681 -3.2998  0.2253 -0.4346
  162SOPE   C3718194  -0.015   6.596   9.690 -0.3350 -0.4608 -0.2599
  162SOPE   H7X18195  -0.084   6.654   9.754 -0.6424 -0.3547 -0.6796
  162SOPE   H7Y18196  -0.025   6.488   9.715  1.6679 -0.4558  0.7145
  162SOPE   C3818197  -0.040   6.620   9.541 -0.4193 -0.0654  1.0154
  162SOPE   H8X18198   0.044   6.562   9.496 -1.6280 -0.2048 -1.1811
  162SOPE   H8Y18199  -0.024   6.728   9.517 -0.1543 -0.7766 -2.4661
  162SOPE   C3918200  -0.180   6.587   9.498  0.1041 -0.1322 -0.3005
  162SOPE   H9X18201  -0.247   6.663   9.543 -0.2001 -0.1090 -0.7795
  162SOPE   H9Y18202  -0.214   6.494   9.548 -2.8517 -0.2933 -2.3559
  162SOPE  C31018203  -0.193   6.586   9.345  0.1982  0.0372 -0.0041
  162SOPE  H10X18204  -0.180   6.690   9.309  2.9638 -0.0070  0.6545
  162SOPE  H10Y18205  -0.291   6.540   9.322  0.2321  0.1282 -0.3296
  162SOPE  C31118206  -0.096   6.495   9.265  0.2988  0.7045 -0.0366
  162SOPE  H11X18207  -0.079   6.394   9.307  1.4422 -0.1990 -2.5059
  162SOPE  H11Y18208   0.007   6.539   9.270  0.3595  0.5078  0.5883
  162SOPE  C31218209  -0.138   6.462   9.123  0.0230 -0.3006  1.1252
  162SOPE  H12X18210  -0.157   6.560   9.075 -1.1326 -0.3499  1.4597
  162SOPE  H12Y18211  -0.233   6.405   9.117 -0.9467  1.2104  1.6301
  162SOPE  C31318212  -0.028   6.384   9.047  0.1926 -0.5045 -0.1326
  162SOPE  H13X18213  -0.046   6.280   9.079  0.5319 -0.5215  0.0072
  162SOPE  H13Y18214   0.070   6.427   9.077 -0.6030  0.6370  0.9369
  162SOPE  C31418215  -0.034   6.391   8.887  0.0076  1.0153  0.1786
  162SOPE  H14X18216  -0.141   6.372   8.863  0.1795  0.5456 -0.2371
  162SOPE  H14Y18217   0.021   6.304   8.846 -0.8092  0.9356 -0.7957
  162SOPE  C31518218   0.010   6.521   8.808 -0.1351 -0.0310 -0.2771
  162SOPE  H15X18219   0.119   6.536   8.820 -0.0319 -1.6068  1.1457
  162SOPE  H15Y18220  -0.046   6.597   8.866  1.2644  1.8021 -1.2088
  162SOPE  C31618221  -0.024   6.520   8.661  0.2388 -0.1985 -0.5220
  162SOPE  H16X18222  -0.127   6.482   8.647 -0.4232  1.5811 -0.7469
  162SOPE  H16Y18223   0.054   6.460   8.608  0.5882 -1.4580  1.3406
  162SOPE  C31718224  -0.033   6.657   8.593  0.3797  0.4519  0.4508
  162SOPE  H17X18225   0.070   6.697   8.599  1.2770 -1.4097 -1.1018
  162SOPE  H17Y18226  -0.107   6.717   8.650  1.3229  0.5660  1.5730
  162SOPE  C31818227  -0.062   6.648   8.446  0.1796 -0.5657 -0.5738
  162SOPE  H18X18228   0.012   6.585   8.392  0.5384 -1.1708  0.5834
  162SOPE  H18Y18229  -0.053   6.750   8.403  0.1771 -0.3584 -0.0890
  162SOPE  H18Z18230  -0.162   6.602   8.428 -1.1312  2.0102 -0.4474
  163SOPE     N18231   4.764   4.841  11.060  0.1372  0.6131 -0.2377
  163SOPE   HN118232   4.866   4.844  11.083  0.2716 -0.9862 -0.5095
  163SOPE   HN218233   4.723   4.923  11.108  0.1924 -0.6477  2.1088
  163SOPE   HN318234   4.731   4.760  11.117 -1.4270  2.4307  1.6124
  163SOPE   C1218235   4.719   4.828  10.918  0.0147 -0.4058 -0.5356
  163SOPE  H12A18236   4.609   4.839  10.922  0.2561  1.7389  1.6953
  163SOPE  H12B18237   4.745   4.726  10.881  0.2467  0.4627 -2.9365
  163SOPE   C1118238   4.776   4.929  10.828  0.3165 -0.1407  0.4385
  163SOPE  H11A18239   4.739   4.924  10.723  0.4751  1.1134  0.3113
  163SOPE  H11B18240   4.882   4.897  10.817  0.2717 -0.2418  0.2867
  163SOPE     P18241   4.635   5.139  10.881  0.0712 -0.0328 -0.8309
  163SOPE   O1318242   4.660   5.281  10.903  0.5107  0.0134  0.0135
  163SOPE   O1418243   4.536   5.073  10.972  0.7308 -0.2602  0.1808
  163SOPE   O1218244   4.770   5.056  10.896  0.3787  0.1819 -0.2928
  163SOPE   O1118245   4.587   5.107  10.728  0.2718 -0.6978 -0.2973
  163SOPE    C118246   4.491   5.012  10.702 -0.3196 -0.2359  0.1438
  163SOPE    HA18247   4.394   5.039  10.747  0.5582 -1.3327  2.8806
  163SOPE    HB18248   4.523   4.917  10.750 -0.1913  0.2162  0.9854
  163SOPE    C218249   4.474   4.987  10.543  0.2748 -0.0959 -0.2711
  163SOPE    HS18250   4.401   4.905  10.529  2.3281 -2.0108 -0.3149
  163SOPE   O2118251   4.596   4.950  10.481 -0.1706  0.0726  0.5128
  163SOPE   C2118252   4.631   4.824  10.495  0.2495  0.2245 -0.0161
  163SOPE   O2218253   4.570   4.746  10.562  0.3206  0.3956  0.5522
  163SOPE   C2218254   4.761   4.799  10.424 -0.1300 -0.0260  0.0753
  163SOPE   H2R18255   4.843   4.794  10.499  0.1805  1.4826 -0.1349
  163SOPE   H2S18256   4.781   4.877  10.349 -0.0922 -0.6757 -0.6035
  163SOPE    C318257   4.420   5.117  10.480 -0.9729 -0.1014 -0.2243
  163SOPE    HX18258   4.464   5.207  10.526 -2.6881 -0.0283  1.3908
  163SOPE    HY18259   4.314   5.119  10.514 -1.0082  0.5717 -0.3663
  163SOPE   O3118260   4.431   5.121  10.332 -0.1000 -0.1129 -0.2106
  163SOPE   C3118261   4.524   5.217  10.295 -0.2275 -0.3642 -0.2276
  163SOPE   O3218262   4.610   5.271  10.370  0.4362  0.4124  0.0198
  163SOPE   C3218263   4.515   5.252  10.154 -0.0279 -0.2736  0.0272
  163SOPE   H2X18264   4.592   5.326  10.124 -1.3360  0.6951 -1.0417
  163SOPE   H2Y18265   4.412   5.286  10.130  0.2133  1.4556  1.2593
  163SOPE   C2318266   4.754   4.669  10.344 -0.9337 -0.1947  0.6267
  163SOPE   H3R18267   4.695   4.690  10.252 -1.3497  1.0068  1.1478
  163SOPE   H3S18268   4.708   4.589  10.405 -0.3758 -1.4401 -0.5343
  163SOPE   C2418269   4.890   4.618  10.314 -0.5562 -0.9977  0.1224
  163SOPE   H4R18270   4.947   4.704  10.273 -0.0087 -0.6858  1.5151
  163SOPE   H4S18271   4.930   4.582  10.410  2.2313  0.2268 -0.4952
  163SOPE   C2518272   4.902   4.499  10.220  0.2272 -0.2986 -0.3189
  163SOPE   H5R18273   4.839   4.425  10.274 -1.2102  1.2704  0.2499
  163SOPE   H5S18274   4.856   4.522  10.122 -0.0364  2.1494  0.2972
  163SOPE   C2618275   5.042   4.434  10.199  0.6138  0.6348 -0.2187
  163SOPE   H6R18276   5.093   4.509  10.136 -1.9649  1.3771 -1.5879
  163SOPE   H6S18277   5.096   4.433  10.296 -0.2649  1.1649  0.2950
  163SOPE   C2718278   5.027   4.297  10.131 -0.1231 -1.3281 -0.0616
  163SOPE   H7R18279   4.959   4.230  10.188 -1.0505  0.7422  1.3995
  163SOPE   H7S18280   4.968   4.315  10.039  0.8894  0.5111 -0.3932
  163SOPE   C2818281   5.159   4.222  10.097  0.2986 -0.1145  0.0691
  163SOPE   H8R18282   5.208   4.295  10.029 -0.0635 -1.7479 -2.0634
  163SOPE   H8S18283   5.224   4.211  10.187 -0.8004 -0.5783  0.8226
  163SOPE   C2918284   5.128   4.084  10.035  0.2313  0.5040  0.2321
  163SOPE   H9118285   5.111   4.002  10.106 -0.9855 -0.5411 -1.2227
  163SOPE  C21018286   5.117   4.059   9.900 -0.6671  0.1877  0.3164
  163SOPE  H10118287   5.081   3.960   9.870 -0.7705 -0.1708  1.5376
  163SOPE  C21118288   5.129   4.151   9.782  0.0021  0.3442  0.3421
  163SOPE  H11R18289   5.153   4.257   9.802 -1.6445  0.7076  0.6088
  163SOPE  H11S18290   5.030   4.166   9.734 -1.2021  2.2333  3.1520
  163SOPE  C21218291   5.252   4.101   9.700  0.1199 -0.6177 -0.7549
  163SOPE  H12R18292   5.231   3.995   9.677 -0.2007 -0.3099 -1.9172
  163SOPE  H12S18293   5.339   4.105   9.770  0.6702 -2.0084 -1.3186
  163SOPE  C21318294   5.292   4.177   9.571  0.2101 -0.1987 -0.4831
  163SOPE  H13R18295   5.306   4.286   9.585  1.9290 -0.6233  1.7793
  163SOPE  H13S18296   5.209   4.171   9.498 -1.3708  1.8926  1.0226
  163SOPE  C21418297   5.424   4.123   9.503  0.4869  0.6906 -0.3264
  163SOPE  H14R18298   5.411   4.028   9.447  1.1683  0.1447  0.4153
  163SOPE  H14S18299   5.498   4.109   9.585  0.7342 -4.2492 -1.1217
  163SOPE  C21518300   5.474   4.213   9.389  0.6484  0.7634  0.1724
  163SOPE  H15R18301   5.462   4.318   9.424  1.1301  0.9661 -0.2479
  163SOPE  H15S18302   5.406   4.200   9.302  0.5549  0.8280  0.2354
  163SOPE  C21618303   5.615   4.188   9.341 -0.0748  0.2503  0.2909
  163SOPE  H16R18304   5.617   4.092   9.285  0.9219  0.4793 -0.0890
  163SOPE  H16S18305   5.692   4.191   9.421  2.6900 -1.5351 -2.1060
  163SOPE  C21718306   5.670   4.291   9.240  0.9002  0.2567  0.1730
  163SOPE  H17R18307   5.765   4.261   9.192  0.6846 -1.5322  0.7752
  163SOPE  H17S18308   5.683   4.389   9.290 -2.7836  0.6143  0.7634
  163SOPE  C21818309   5.569   4.324   9.122  0.7074 -0.6260 -0.5709
  163SOPE  H18R18310   5.627   4.392   9.056 -0.2525 -1.2522 -2.0938
  163SOPE  H18S18311   5.493   4.391   9.167  1.1637 -0.4253 -0.0733
  163SOPE  H18T18312   5.521   4.241   9.067 -1.7640 -0.7613  1.6020
  163SOPE   C3318313   4.546   5.124  10.075  0.1119  0.7238  0.2540
  163SOPE   H3X18314   4.547   5.139   9.965  1.2455 -1.9103 -0.1618
  163SOPE   H3Y18315   4.466   5.052  10.103  1.0593 -0.5767 -0.3143
  163SOPE   C3418316   4.690   5.075  10.095  0.4700  0.1822 -0.3371
  163SOPE   H4X18317   4.702   5.034  10.198 -0.1574 -0.0464 -0.3466
  163SOPE   H4Y18318   4.761   5.159  10.080  2.4527 -1.5181 -0.8897
  163SOPE   C3518319   4.732   4.966  10.000  0.6874  0.6159  0.4124
  163SOPE   H5X18320   4.696   4.979   9.895 -0.5768  1.1905  0.8987
  163SOPE   H5Y18321   4.699   4.865  10.031  3.4380 -0.2233  0.8705
  163SOPE   C3618322   4.886   4.956   9.991  0.3193  0.0597  0.2667
  163SOPE   H6X18323   4.940   4.931  10.085  2.0961 -2.7600 -1.3538
  163SOPE   H6Y18324   4.934   5.055   9.978 -0.0394  0.3424  1.0271
  163SOPE   C3718325   4.937   4.856   9.883 -0.0127  1.0352 -0.0136
  163SOPE   H7X18326   4.945   4.903   9.783  0.5823 -0.2404 -0.5899
  163SOPE   H7Y18327   4.873   4.765   9.881  0.0047  1.0367 -1.2417
  163SOPE   C3818328   5.081   4.808   9.913  0.3169 -1.0950 -0.3340
  163SOPE   H8X18329   5.065   4.747  10.004  0.3367  1.6503  1.6399
  163SOPE   H8Y18330   5.144   4.897   9.937  0.1525 -0.2144 -2.7965
  163SOPE   C3918331   5.136   4.723   9.805  0.1701 -0.4107 -0.1757
  163SOPE   H9X18332   5.056   4.652   9.774 -1.6904  0.5707  2.0663
  163SOPE   H9Y18333   5.219   4.665   9.849  0.7647  1.3621  1.1787
  163SOPE  C31018334   5.181   4.800   9.686  0.6027 -0.0022  0.3458
  163SOPE  H10X18335   5.248   4.885   9.707 -0.6616  1.3390 -0.8243
  163SOPE  H10Y18336   5.092   4.847   9.638  1.4334  1.9559  0.6463
  163SOPE  C31118337   5.255   4.714   9.581 -0.0361 -0.3413  0.4985
  163SOPE  H11X18338   5.173   4.668   9.521 -0.0295  0.2760  0.0013
  163SOPE  H11Y18339   5.309   4.632   9.631  0.0325 -0.4967  0.1676
  163SOPE  C31218340   5.332   4.809   9.492 -0.3613  0.1722 -0.0212
  163SOPE  H12X18341   5.409   4.855   9.558 -0.1385 -1.7469  1.1327
  163SOPE  H12Y18342   5.262   4.886   9.453 -0.1735 -0.9452 -2.7676
  163SOPE  C31318343   5.395   4.749   9.367 -0.4084 -0.3236 -0.1594
  163SOPE  H13X18344   5.328   4.777   9.282 -0.7657 -0.7790 -0.0364
  163SOPE  H13Y18345   5.392   4.638   9.375 -0.5155 -0.2867  0.3150
  163SOPE  C31418346   5.543   4.789   9.333  0.0133 -0.2368  0.3416
  163SOPE  H14X18347   5.616   4.777   9.416  1.5839  0.7085 -0.8546
  163SOPE  H14Y18348   5.530   4.892   9.292 -0.7114 -1.1025 -1.6831
  163SOPE  C31518349   5.603   4.700   9.219 -0.7219 -0.3432 -0.4962
  163SOPE  H15X18350   5.529   4.683   9.137 -1.2982  0.8049 -0.2385
  163SOPE  H15Y18351   5.619   4.599   9.261 -0.5267 -0.5721 -1.1044
  163SOPE  C31618352   5.729   4.773   9.174 -0.3458 -0.4376  0.8555
  163SOPE  H16X18353   5.786   4.780   9.270 -0.9799 -2.5275  1.4402
  163SOPE  H16Y18354   5.723   4.875   9.131 -1.0581 -0.8598 -0.0803
  163SOPE  C31718355   5.813   4.687   9.080  0.0796 -1.2118  0.2818
  163SOPE  H17X18356   5.826   4.586   9.124 -3.2380 -1.4211  1.0231
  163SOPE  H17Y18357   5.909   4.743   9.077 -0.2539 -0.2522  3.5028
  163SOPE  C31818358   5.734   4.680   8.948  0.4717  0.5416 -0.2741
  163SOPE  H18X18359   5.702   4.783   8.920  0.4861  0.5091 -0.4099
  163SOPE  H18Y18360   5.649   4.609   8.955  1.0554 -0.2475 -1.0491
  163SOPE  H18Z18361   5.789   4.637   8.862  0.0743  1.2812 -0.9181
  164SOPE     N18362   4.072   4.327  11.102  0.3870  0.6902 -0.3604
  164SOPE   HN118363   4.032   4.249  11.047  0.3657  0.5808 -0.1905
  164SOPE   HN218364   4.166   4.348  11.062  0.9286 -0.0827  0.4674
  164SOPE   HN318365   4.079   4.300  11.203 -2.3633 -1.2678 -0.5869
  164SOPE   C1218366   3.973   4.438  11.091 -0.9030 -0.1673  0.2610
  164SOPE  H12A18367   4.010   4.515  11.163 -1.6751  0.2427  0.2351
  164SOPE  H12B18368   3.877   4.390  11.121 -0.5595  0.3169  2.2653
  164SOPE   C1118369   3.977   4.493  10.949  0.4326 -0.4821  0.1043
  164SOPE  H11A18370   4.069   4.550  10.925  0.1282 -0.5063 -1.1874
  164SOPE  H11B18371   3.908   4.578  10.929  0.4234 -0.9927 -2.2570
  164SOPE     P18372   3.807   4.346  10.802  0.5043 -0.0965 -0.3040
  164SOPE   O1318373   3.712   4.412  10.898 -0.2426 -0.3960 -0.1887
  164SOPE   O1418374   3.792   4.203  10.785 -0.1765  0.3551  0.3968
  164SOPE   O1218375   3.949   4.380  10.861 -0.2981  0.2442 -0.3774
  164SOPE   O1118376   3.806   4.410  10.658  0.1230 -0.7951 -0.5759
  164SOPE    C118377   3.912   4.495  10.607 -0.1663  0.1012  0.0031
  164SOPE    HA18378   3.973   4.537  10.689 -0.8620  2.4100 -0.5843
  164SOPE    HB18379   3.861   4.580  10.555  0.8419  1.4089  1.0808
  164SOPE    C218380   4.011   4.421  10.508  0.5690 -0.5775  0.0448
  164SOPE    HS18381   4.042   4.488  10.425  0.0648 -0.6715 -0.2250
  164SOPE   O2118382   3.954   4.303  10.454  0.0287  0.4999  0.0869
  164SOPE   C2118383   3.845   4.314  10.384  0.5334  0.0459  0.1723
  164SOPE   O2218384   3.795   4.421  10.344  0.1175  0.8394 -0.9000
  164SOPE   C2218385   3.779   4.177  10.358 -0.2364  0.2287  0.4674
  164SOPE   H2R18386   3.684   4.185  10.300 -0.2125  0.1634  0.4185
  164SOPE   H2S18387   3.754   4.133  10.457 -0.8672 -2.6517 -0.8500
  164SOPE    C318388   4.137   4.388  10.597 -0.0808 -0.0411  0.2923
  164SOPE    HX18389   4.104   4.301  10.658  0.0569  0.2562  0.7967
  164SOPE    HY18390   4.168   4.463  10.672  2.5944 -1.0105  0.2718
  164SOPE   O3118391   4.252   4.349  10.514  0.3065  0.6035  0.4551
  164SOPE   C3118392   4.317   4.446  10.460  0.2627  0.1120 -0.8858
  164SOPE   O3218393   4.279   4.564  10.476  0.1540  0.6417  0.3224
  164SOPE   C3218394   4.437   4.404  10.388 -0.4526  0.7546 -0.3105
  164SOPE   H2X18395   4.494   4.337  10.456 -1.8065  0.6910  0.8017
  164SOPE   H2Y18396   4.504   4.492  10.379 -1.7274  1.8554  0.5878
  164SOPE   C2318397   3.866   4.082  10.272  0.1726  0.8170  0.7272
  164SOPE   H3R18398   3.804   3.991  10.260  1.3257 -0.3857  3.0575
  164SOPE   H3S18399   3.966   4.053  10.313 -0.5999  0.2969  2.3241
  164SOPE   C2418400   3.892   4.132  10.127  0.5592  0.3189 -0.1605
  164SOPE   H4R18401   3.915   4.052  10.054 -0.4402  0.9196 -1.1554
  164SOPE   H4S18402   3.798   4.170  10.082 -0.6405 -3.8026 -1.5915
  164SOPE   C2518403   4.009   4.238  10.123 -0.7595 -0.1431  0.4869
  164SOPE   H5R18404   3.974   4.337  10.160 -0.1371  0.7538 -1.1902
  164SOPE   H5S18405   4.096   4.212  10.187 -0.1587  0.8134  0.0757
  164SOPE   C2618406   4.065   4.239   9.977  0.2890  1.0149  0.6946
  164SOPE   H6R18407   4.111   4.141   9.951 -0.9104  1.1176 -2.2553
  164SOPE   H6S18408   3.970   4.239   9.919  1.6064  2.6410 -1.6420
  164SOPE   C2718409   4.156   4.361   9.952  0.1948 -1.2403  0.2656
  164SOPE   H7R18410   4.097   4.453   9.975  1.3171 -0.2751 -0.5801
  164SOPE   H7S18411   4.243   4.364  10.021 -0.9933  1.1661  1.8283
  164SOPE   C2818412   4.196   4.369   9.802  0.2086 -0.8449 -0.0059
  164SOPE   H8R18413   4.109   4.346   9.738  0.1592  0.8248 -0.6023
  164SOPE   H8S18414   4.210   4.478   9.783  0.5843 -1.2035 -2.0281
  164SOPE   C2918415   4.320   4.292   9.763 -0.6378 -0.2746  0.1495
  164SOPE   H9118416   4.364   4.231   9.843  0.6783  1.8384  1.1204
  164SOPE  C21018417   4.380   4.291   9.640  0.5047 -0.1491 -0.5784
  164SOPE  H10118418   4.470   4.232   9.621  0.8716  0.3732 -0.4760
  164SOPE  C21118419   4.325   4.370   9.522  0.2389  0.8148 -0.2755
  164SOPE  H11R18420   4.236   4.428   9.555  0.1192  0.8755 -0.6916
  164SOPE  H11S18421   4.292   4.296   9.446  0.5776  0.1141  0.2516
  164SOPE  C21218422   4.428   4.461   9.457  0.1574 -0.0521  0.1005
  164SOPE  H12R18423   4.504   4.395   9.410 -0.5169  1.7381 -3.9832
  164SOPE  H12S18424   4.485   4.528   9.524 -0.2956  1.0169 -0.5548
  164SOPE  C21318425   4.361   4.552   9.359 -0.3843  0.3984 -0.4254
  164SOPE  H13R18426   4.334   4.650   9.404 -0.2166 -0.4185  1.5173
  164SOPE  H13S18427   4.272   4.497   9.322  0.1626 -0.3214 -0.6965
  164SOPE  C21418428   4.456   4.600   9.246 -0.6956 -0.0909 -0.4575
  164SOPE  H14R18429   4.519   4.520   9.202 -2.1727  0.8040 -4.6790
  164SOPE  H14S18430   4.524   4.668   9.303 -2.7402  0.8122  1.0265
  164SOPE  C21518431   4.409   4.663   9.115  0.4803  0.2038 -0.1123
  164SOPE  H15R18432   4.362   4.762   9.134 -0.3479  0.1080 -1.4421
  164SOPE  H15S18433   4.327   4.597   9.078  1.5578 -0.2796 -1.7389
  164SOPE  C21618434   4.511   4.669   9.001 -0.2066 -0.2196 -0.3232
  164SOPE  H16R18435   4.553   4.574   8.962 -0.1273 -0.0160 -0.7374
  164SOPE  H16S18436   4.593   4.724   9.052  0.0919 -1.5120  0.6382
  164SOPE  C21718437   4.457   4.750   8.873 -0.6132 -0.3528  0.4545
  164SOPE  H17R18438   4.531   4.762   8.791 -2.8023  2.3671 -1.3467
  164SOPE  H17S18439   4.439   4.856   8.902  0.0398 -0.7774  2.5421
  164SOPE  C21818440   4.321   4.701   8.813  0.1113 -0.4645  0.1649
  164SOPE  H18R18441   4.243   4.716   8.891 -0.8792  1.3679 -1.0994
  164SOPE  H18S18442   4.321   4.593   8.786 -0.4354 -0.4553  0.1051
  164SOPE  H18T18443   4.287   4.760   8.725  1.5076  1.9332  1.1325
  164SOPE   C3318444   4.412   4.331  10.251  0.2668  0.1404 -0.0601
  164SOPE   H3X18445   4.318   4.372  10.208  0.7972 -0.4982 -1.9421
  164SOPE   H3Y18446   4.376   4.229  10.280  0.5654 -0.3204 -1.2654
  164SOPE   C3418447   4.526   4.317  10.153  0.4673  0.2395  0.2526
  164SOPE   H4X18448   4.506   4.242  10.073  1.8303 -0.4979  0.5811
  164SOPE   H4Y18449   4.621   4.287  10.201  1.5017  1.5693 -0.8462
  164SOPE   C3518450   4.545   4.448  10.072  1.0291 -0.2734  0.0963
  164SOPE   H5X18451   4.599   4.524  10.133  0.6338 -0.3777  0.5859
  164SOPE   H5Y18452   4.445   4.493  10.053  0.9210 -0.9168 -0.9287
  164SOPE   C3618453   4.626   4.424   9.933  0.2693 -1.0169 -0.2482
  164SOPE   H6X18454   4.574   4.362   9.857 -0.1797  1.4681 -2.1349
  164SOPE   H6Y18455   4.719   4.370   9.959  1.1502 -0.0987 -1.3596
  164SOPE   C3718456   4.690   4.550   9.868 -0.2266 -0.2216  0.3270
  164SOPE   H7X18457   4.777   4.576   9.932 -0.5626 -2.0678  1.6070
  164SOPE   H7Y18458   4.605   4.621   9.871  0.1528  0.2419  0.3086
  164SOPE   C3818459   4.735   4.516   9.722  0.0108 -0.1186  0.6837
  164SOPE   H8X18460   4.797   4.597   9.679 -1.0507  0.0351 -0.6147
  164SOPE   H8Y18461   4.651   4.491   9.654 -0.1604 -1.9707  1.5032
  164SOPE   C3918462   4.846   4.410   9.716  1.2045 -0.1875  0.1057
  164SOPE   H9X18463   4.799   4.313   9.743  1.7228 -0.1524  1.2084
  164SOPE   H9Y18464   4.915   4.429   9.802  1.3481  2.6441 -0.5272
  164SOPE  C31018465   4.919   4.405   9.580 -0.0136  0.0979 -0.0572
  164SOPE  H10X18466   4.988   4.318   9.578  1.8051  1.4921 -0.3935
  164SOPE  H10Y18467   4.981   4.496   9.572 -0.2097  0.3210  0.8540
  164SOPE  C31118468   4.826   4.388   9.459  0.5160 -0.4714  0.6783
  164SOPE  H11X18469   4.780   4.488   9.449 -0.7233 -1.2204 -1.6523
  164SOPE  H11Y18470   4.748   4.318   9.495  1.4068 -0.3677  3.0557
  164SOPE  C31218471   4.900   4.347   9.333  0.5474 -0.3920 -0.6189
  164SOPE  H12X18472   4.981   4.279   9.369 -0.1580 -0.8494  0.1481
  164SOPE  H12Y18473   4.943   4.422   9.263 -0.2060  0.8900  0.2522
  164SOPE  C31318474   4.822   4.257   9.237 -0.1117  0.2157 -0.1230
  164SOPE  H13X18475   4.784   4.167   9.289 -1.2110 -0.3551 -1.8344
  164SOPE  H13Y18476   4.881   4.204   9.160  0.7567 -2.5936  2.2800
  164SOPE  C31418477   4.695   4.319   9.185  0.2268 -0.2150  0.4386
  164SOPE  H14X18478   4.729   4.409   9.129  1.2862 -0.8420  0.0575
  164SOPE  H14Y18479   4.621   4.348   9.262 -1.8549  1.5001 -2.0031
  164SOPE  C31518480   4.616   4.225   9.087  0.8353  0.7102 -0.3478
  164SOPE  H15X18481   4.612   4.129   9.142  2.7204  1.4569  1.2133
  164SOPE  H15Y18482   4.672   4.220   8.991 -0.8969 -2.0431 -1.3426
  164SOPE  C31618483   4.474   4.265   9.067  0.4180 -0.3179  0.8714
  164SOPE  H16X18484   4.461   4.365   9.021 -2.8747 -1.1672 -0.2827
  164SOPE  H16Y18485   4.434   4.278   9.169 -0.6469  0.4542  0.3708
  164SOPE  C31718486   4.380   4.149   9.007  0.0844  0.0487 -0.3185
  164SOPE  H17X18487   4.278   4.192   9.001  0.3030  1.5034  3.4105
  164SOPE  H17Y18488   4.387   4.055   9.065 -2.3983 -0.1925 -0.3016
  164SOPE  C31818489   4.406   4.118   8.858  0.3300  0.1420 -0.4832
  164SOPE  H18X18490   4.504   4.067   8.846  0.3895  0.2493 -0.4555
  164SOPE  H18Y18491   4.415   4.208   8.794 -0.4197  0.5491 -0.0296
  164SOPE  H18Z18492   4.317   4.061   8.823  0.8450 -0.0120 -1.5811
  165SOPE     N18493   2.746   3.601  10.353  1.1723 -0.4627  0.1864
  165SOPE   HN118494   2.823   3.579  10.287  1.1894  1.3136 -0.4442
  165SOPE   HN218495   2.658   3.609  10.297  1.5856  0.4435 -0.3670
  165SOPE   HN318496   2.761   3.699  10.385 -0.5931 -1.0341  3.2085
  165SOPE   C1218497   2.738   3.513  10.470  0.3344 -0.2853  0.0836
  165SOPE  H12A18498   2.707   3.413  10.433 -0.9196 -0.7947  2.3271
  165SOPE  H12B18499   2.653   3.552  10.529 -1.3268 -1.9724 -1.1083
  165SOPE   C1118500   2.868   3.523  10.550 -0.8766 -0.0612  1.0666
  165SOPE  H11A18501   2.945   3.467  10.494 -1.2246  1.0097 -0.5757
  165SOPE  H11B18502   2.856   3.465  10.644 -1.9611 -1.8049 -0.0928
  165SOPE     P18503   3.019   3.696  10.672 -0.1528  0.3306 -0.1016
  165SOPE   O1318504   3.015   3.603  10.782  1.0533 -0.0474 -0.0077
  165SOPE   O1418505   3.003   3.839  10.713 -0.0134  0.3218 -0.1909
  165SOPE   O1218506   2.906   3.664  10.567 -0.2650  0.0752  0.7508
  165SOPE   O1118507   3.155   3.686  10.597 -0.2407 -1.0111  0.7446
  165SOPE    C118508   3.173   3.735  10.459  0.1954  0.0398 -0.5357
  165SOPE    HA18509   3.270   3.784  10.436  0.4843  0.2492  1.0080
  165SOPE    HB18510   3.097   3.808  10.423  0.5316  0.3943 -0.5232
  165SOPE    C218511   3.167   3.620  10.351 -0.8900 -0.4773  0.5445
  165SOPE    HS18512   3.065   3.577  10.361 -1.7673  0.8020 -2.0050
  165SOPE   O2118513   3.279   3.532  10.372  0.4931 -0.0552  0.5649
  165SOPE   C2118514   3.263   3.408  10.333  0.0098  0.1610  0.5542
  165SOPE   O2218515   3.158   3.352  10.298  0.3717  0.4666  0.1013
  165SOPE   C2218516   3.400   3.343  10.356 -0.0419 -0.2231 -0.6584
  165SOPE   H2R18517   3.393   3.316  10.464 -0.4908 -0.6520 -0.7919
  165SOPE   H2S18518   3.490   3.408  10.360 -0.4919  0.3744 -0.0332
  165SOPE    C318519   3.178   3.687  10.215 -0.5377  0.1062 -0.2883
  165SOPE    HX18520   3.279   3.734  10.213  0.0836 -1.1884 -1.4835
  165SOPE    HY18521   3.116   3.778  10.203  1.8428  2.0451  1.1599
  165SOPE   O3118522   3.155   3.600  10.102 -0.1631  0.3148 -0.1999
  165SOPE   C3118523   3.027   3.560  10.084  0.2329  0.0992  0.1800
  165SOPE   O3218524   2.929   3.595  10.147  0.2625 -0.1992 -0.2643
  165SOPE   C3218525   3.039   3.433   9.992 -0.3666 -1.3120 -0.0697
  165SOPE   H2X18526   2.946   3.377  10.016 -2.2272  1.1470 -1.0639
  165SOPE   H2Y18527   3.127   3.382  10.035  0.9595  1.1196  0.3014
  165SOPE   C2318528   3.432   3.223  10.271  0.4090 -0.0160 -1.3664
  165SOPE   H3R18529   3.338   3.167  10.250 -0.5006 -0.2364  2.5846
  165SOPE   H3S18530   3.505   3.175  10.339  0.8459  3.2224  0.6682
  165SOPE   C2418531   3.507   3.254  10.141 -0.3251 -0.6599 -0.8584
  165SOPE   H4R18532   3.598   3.315  10.155  1.1740 -3.0308  0.4379
  165SOPE   H4S18533   3.544   3.158  10.100  2.1135 -0.3364  0.3866
  165SOPE   C2518534   3.417   3.314  10.029 -0.3521 -0.7634  0.1772
  165SOPE   H5R18535   3.330   3.245  10.028  0.0252 -1.2479 -0.9913
  165SOPE   H5S18536   3.377   3.414  10.056 -1.1182 -1.2125  0.7564
  165SOPE   C2618537   3.483   3.337   9.899 -0.1540 -0.0079 -0.7784
  165SOPE   H6R18538   3.549   3.426   9.912 -1.8770  1.1460  0.5592
  165SOPE   H6S18539   3.555   3.253   9.889  0.8289  0.4550  1.7334
  165SOPE   C2718540   3.402   3.331   9.769 -0.1894 -0.6012 -0.2422
  165SOPE   H7R18541   3.356   3.230   9.766  0.6715 -1.0051 -3.8315
  165SOPE   H7S18542   3.317   3.403   9.767 -0.4188 -0.8675 -0.0742
  165SOPE   C2818543   3.483   3.348   9.639  0.6753  1.0689 -0.4821
  165SOPE   H8R18544   3.566   3.274   9.647  1.5036  2.0468  0.1585
  165SOPE   H8S18545   3.432   3.336   9.541 -1.9307  1.6877  0.7150
  165SOPE   C2918546   3.548   3.481   9.646  0.1714 -0.1718 -0.8196
  165SOPE   H9118547   3.633   3.488   9.715  0.6306 -0.0175 -1.3962
  165SOPE  C21018548   3.497   3.598   9.597 -0.0049  0.3911 -0.3516
  165SOPE  H10118549   3.547   3.694   9.617  0.1669  0.6845 -1.9966
  165SOPE  C21118550   3.374   3.618   9.512  0.1011  0.1289 -0.0607
  165SOPE  H11R18551   3.336   3.723   9.518  0.5255  0.2160  1.2684
  165SOPE  H11S18552   3.298   3.540   9.530 -0.1217  0.3311 -0.1112
  165SOPE  C21218553   3.423   3.599   9.369 -0.0327 -0.2544  0.6456
  165SOPE  H12R18554   3.481   3.507   9.346  1.0314  0.5631 -0.0258
  165SOPE  H12S18555   3.497   3.678   9.344 -0.0307 -0.2924  0.5302
  165SOPE  C21318556   3.304   3.583   9.273 -0.0602 -0.6158 -0.0808
  165SOPE  H13R18557   3.245   3.677   9.279 -1.7243 -1.6603  0.7494
  165SOPE  H13S18558   3.236   3.499   9.299 -0.5547 -1.5693 -3.9259
  165SOPE  C21418559   3.352   3.562   9.128 -0.1805  0.6931  0.7198
  165SOPE  H14R18560   3.393   3.459   9.122 -0.2350  0.5403  2.3004
  165SOPE  H14S18561   3.446   3.618   9.110  1.1825 -1.3232  1.2108
  165SOPE  C21518562   3.253   3.605   9.019  0.2102  0.9524 -0.1316
  165SOPE  H15R18563   3.314   3.613   8.926  0.7207  3.1365  0.3425
  165SOPE  H15S18564   3.209   3.702   9.048 -1.7136  0.6423 -1.8364
  165SOPE  C21618565   3.150   3.501   8.976  0.4799  0.4075  0.0222
  165SOPE  H16R18566   3.091   3.533   8.888  0.3338  0.4044  0.1194
  165SOPE  H16S18567   3.089   3.474   9.064  1.8713 -0.8970  0.6318
  165SOPE  C21718568   3.215   3.371   8.937  0.1279 -0.0381 -0.8179
  165SOPE  H17R18569   3.229   3.301   9.023  0.7207  0.0450 -0.8409
  165SOPE  H17S18570   3.312   3.399   8.892 -0.9069  0.9194 -2.5380
  165SOPE  C21818571   3.111   3.296   8.842  0.3260  0.0811  0.9370
  165SOPE  H18R18572   3.159   3.256   8.750 -0.5949  3.7912 -1.3490
  165SOPE  H18S18573   3.023   3.355   8.809  0.5493  0.5055  1.0904
  165SOPE  H18T18574   3.071   3.206   8.893  1.4091 -0.1312  1.4543
  165SOPE   C3318575   3.061   3.470   9.843 -0.7775 -0.8337 -0.2897
  165SOPE   H3X18576   3.078   3.376   9.788 -0.8894 -0.0453 -1.7228
  165SOPE   H3Y18577   3.156   3.527   9.835 -0.8737 -0.3875  1.3344
  165SOPE   C3418578   2.951   3.543   9.762 -0.1468  0.2561  0.1032
  165SOPE   H4X18579   2.940   3.648   9.796  0.6685  0.4869 -0.3286
  165SOPE   H4Y18580   2.852   3.495   9.778 -0.4106  1.3932  2.2178
  165SOPE   C3518581   2.993   3.551   9.612  0.7611 -0.4558 -0.2584
  165SOPE   H5X18582   2.993   3.447   9.572  2.9974 -0.6143  0.0115
  165SOPE   H5Y18583   3.101   3.575   9.608  0.8379 -0.6229  0.4971
  165SOPE   C3618584   2.920   3.649   9.523  0.6042 -0.2633 -0.0222
  165SOPE   H6X18585   2.921   3.749   9.572 -0.9154  0.8378 -2.0773
  165SOPE   H6Y18586   2.816   3.612   9.511  0.5687  0.0823 -0.8233
  165SOPE   C3718587   2.988   3.670   9.393 -0.5537  0.1548  0.4689
  165SOPE   H7X18588   3.024   3.576   9.346  4.0275  0.5213  2.6493
  165SOPE   H7Y18589   3.080   3.727   9.419  0.4579 -0.1738 -2.1514
  165SOPE   C3818590   2.896   3.741   9.298  0.2156 -0.4272  0.4204
  165SOPE   H8X18591   2.848   3.828   9.347  0.0568  0.2816 -0.9517
  165SOPE   H8Y18592   2.814   3.672   9.268  0.5038 -1.0941  1.1347
  165SOPE   C3918593   2.976   3.782   9.176  0.6300 -0.8963 -0.0054
  165SOPE   H9X18594   3.011   3.688   9.127 -0.2116 -0.6348 -1.1558
  165SOPE   H9Y18595   3.057   3.846   9.215 -1.1181 -0.4199  3.1518
  165SOPE  C31018596   2.883   3.842   9.072  0.6270  0.4927  0.2136
  165SOPE  H10X18597   2.854   3.945   9.103 -3.8434 -0.2121 -0.9662
  165SOPE  H10Y18598   2.799   3.769   9.069  0.6514  0.4948 -3.0310
  165SOPE  C31118599   2.934   3.847   8.928  0.1547  0.3505 -0.8248
  165SOPE  H11X18600   2.977   3.748   8.902  1.0051  0.2858  0.6994
  165SOPE  H11Y18601   3.016   3.922   8.928 -0.1932  0.7367 -0.7853
  165SOPE  C31218602   2.837   3.913   8.831  0.1682  0.4523  0.3359
  165SOPE  H12X18603   2.811   4.007   8.883  0.4329  1.2573 -0.9267
  165SOPE  H12Y18604   2.754   3.840   8.818 -1.1476  1.6023  1.9460
  165SOPE  C31318605   2.907   3.949   8.695  0.3668  0.0245 -0.7176
  165SOPE  H13X18606   2.926   3.849   8.652 -0.4342 -0.4545  0.0112
  165SOPE  H13Y18607   2.996   4.014   8.711  0.8977 -0.4995 -1.5043
  165SOPE  C31418608   2.828   4.034   8.594 -0.2304 -0.5499 -0.8663
  165SOPE  H14X18609   2.823   4.140   8.628 -1.7454 -0.7990 -0.2426
  165SOPE  H14Y18610   2.721   4.006   8.596 -0.5051  0.2760 -2.2650
  165SOPE  C31518611   2.877   4.025   8.454  0.3450 -0.8582 -0.7867
  165SOPE  H15X18612   2.908   3.921   8.429 -0.6810 -0.9277 -1.8151
  165SOPE  H15Y18613   2.967   4.090   8.457 -1.4977  1.8252 -0.6923
  165SOPE  C31618614   2.786   4.101   8.354  0.3957  0.1367 -0.0741
  165SOPE  H16X18615   2.768   4.207   8.380  0.9018  0.2030  0.0276
  165SOPE  H16Y18616   2.687   4.052   8.343  0.0730  0.4708  1.1554
  165SOPE  C31718617   2.853   4.095   8.216  0.5500  0.1665  0.1584
  165SOPE  H17X18618   2.917   4.004   8.214  0.0060 -0.2112 -2.0868
  165SOPE  H17Y18619   2.926   4.179   8.212  1.5735 -0.7343 -0.9746
  165SOPE  C31818620   2.771   4.085   8.092 -0.5042  0.1241  0.4917
  165SOPE  H18X18621   2.682   4.151   8.098 -1.3990 -1.0706  0.8352
  165SOPE  H18Y18622   2.740   3.981   8.067  1.6168 -0.2875 -0.6421
  165SOPE  H18Z18623   2.841   4.108   8.009 -0.4541  1.4631  0.8860
  166SOPE     N18624   0.735   6.372  10.982  0.3711  0.2398  0.6030
  166SOPE   HN118625   0.650   6.425  11.009 -0.2970  0.7478 -2.1766
  166SOPE   HN218626   0.705   6.292  10.922 -1.1160  2.4199 -1.7594
  166SOPE   HN318627   0.778   6.336  11.070 -0.2299  1.1805  1.2983
  166SOPE   C1218628   0.830   6.453  10.895  0.1341  0.1759 -1.3982
  166SOPE  H12A18629   0.918   6.389  10.870 -1.4821 -2.2136 -1.2000
  166SOPE  H12B18630   0.862   6.538  10.959 -0.0393  0.4226 -1.6374
  166SOPE   C1118631   0.774   6.501  10.757  0.1614  0.1500 -0.3070
  166SOPE  H11A18632   0.841   6.587  10.737 -1.9024  1.7638 -0.6493
  166SOPE  H11B18633   0.670   6.538  10.772 -1.7042 -4.7672  0.9264
  166SOPE     P18634   0.909   6.378  10.567 -0.3639 -0.2391  0.2741
  166SOPE   O1318635   0.939   6.233  10.561  0.0432  0.2463 -0.3172
  166SOPE   O1418636   1.018   6.474  10.604  0.0405  0.0073  0.6366
  166SOPE   O1218637   0.785   6.405  10.657  0.3561 -0.5654 -0.2727
  166SOPE   O1118638   0.859   6.423  10.423 -0.2281  0.1282  0.4071
  166SOPE    C118639   0.807   6.555  10.401  0.2063  0.6505 -0.1479
  166SOPE    HA18640   0.856   6.623  10.475 -1.8567  2.0488  0.0158
  166SOPE    HB18641   0.698   6.547  10.416  0.3400 -0.1179  0.5204
  166SOPE    C218642   0.852   6.617  10.265  0.5244 -0.9042  0.7946
  166SOPE    HS18643   0.809   6.720  10.263 -0.1614 -1.1708  1.6660
  166SOPE   O2118644   0.797   6.553  10.151  0.0580 -0.2889  0.0371
  166SOPE   C2118645   0.664   6.545  10.143 -0.3968  0.1280 -0.0437
  166SOPE   O2218646   0.585   6.600  10.216  0.0577  0.3741 -0.1540
  166SOPE   C2218647   0.632   6.455  10.027 -0.1115  0.2850 -0.0681
  166SOPE   H2R18648   0.549   6.391  10.064 -0.7096  0.6219 -0.8110
  166SOPE   H2S18649   0.724   6.394  10.013 -0.3386  0.1887 -1.2466
  166SOPE    C318650   1.005   6.628  10.259 -0.5266 -0.5675  0.1661
  166SOPE    HX18651   1.054   6.528  10.268  3.4620  1.2509  0.8517
  166SOPE    HY18652   1.038   6.683  10.350  2.7397  1.0224 -1.8045
  166SOPE   O3118653   1.059   6.690  10.135  0.3923  0.3103  0.0072
  166SOPE   C3118654   1.060   6.815  10.136  0.3034 -0.5467  0.3218
  166SOPE   O3218655   1.004   6.888  10.217  0.1201 -0.3397  0.4894
  166SOPE   C3218656   1.150   6.870  10.025 -0.5386 -0.4336  0.4157
  166SOPE   H2X18657   1.250   6.824  10.038  0.9341  1.8987 -1.8174
  166SOPE   H2Y18658   1.162   6.978  10.044 -0.3455 -0.5871  1.1949
  166SOPE   C2318659   0.583   6.527   9.903 -0.7907 -0.9565 -0.4040
  166SOPE   H3R18660   0.512   6.609   9.930  2.5194  1.5852  1.3437
  166SOPE   H3S18661   0.545   6.459   9.824  0.0035 -0.8046 -0.9230
  166SOPE   C2418662   0.693   6.614   9.832  0.1985 -0.2608  0.1476
  166SOPE   H4R18663   0.664   6.719   9.811  1.3523 -0.3030 -1.8495
  166SOPE   H4S18664   0.784   6.620   9.896  0.7242 -1.2338 -0.4890
  166SOPE   C2518665   0.727   6.565   9.691  0.3318 -0.6709 -0.3400
  166SOPE   H5R18666   0.836   6.573   9.672  0.6314 -0.1579  1.3543
  166SOPE   H5S18667   0.710   6.456   9.704  0.5373 -0.6937 -0.2652
  166SOPE   C2618668   0.651   6.635   9.575  0.6955  0.0859 -0.4669
  166SOPE   H6R18669   0.541   6.631   9.587  0.3715  0.9430 -2.6982
  166SOPE   H6S18670   0.666   6.745   9.580 -0.9071  0.2922  0.1428
  166SOPE   C2718671   0.687   6.575   9.444 -0.9027 -0.1726 -0.1810
  166SOPE   H7R18672   0.795   6.555   9.424 -0.1105  2.7166  0.7543
  166SOPE   H7S18673   0.644   6.474   9.431  1.9998 -1.2922 -2.3357
  166SOPE   C2818674   0.633   6.661   9.331  0.2440  0.6138  0.1493
  166SOPE   H8R18675   0.523   6.667   9.345  0.3575 -0.9666  2.1953
  166SOPE   H8S18676   0.682   6.760   9.332  3.2164 -0.7416  0.8186
  166SOPE   C2918677   0.671   6.601   9.195  0.1660 -0.3064 -0.8267
  166SOPE   H9118678   0.776   6.572   9.183  1.4992  2.9300  1.5258
  166SOPE  C21018679   0.591   6.582   9.090  0.2454 -0.0572 -0.0302
  166SOPE  H10118680   0.637   6.528   9.006 -1.1604  0.7492 -1.3727
  166SOPE  C21118681   0.443   6.614   9.078  0.7457  0.3000 -0.1462
  166SOPE  H11R18682   0.412   6.680   9.162  1.3132 -0.3924  0.6256
  166SOPE  H11S18683   0.389   6.518   9.090 -0.2525  0.7896 -0.5729
  166SOPE  C21218684   0.401   6.676   8.939  0.2851  0.0225  0.1380
  166SOPE  H12R18685   0.296   6.697   8.909  0.0676 -2.5826 -1.1530
  166SOPE  H12S18686   0.437   6.616   8.853  2.3790  2.1400 -0.5664
  166SOPE  C21318687   0.447   6.823   8.948  0.1882 -0.0099  0.5637
  166SOPE  H13R18688   0.514   6.836   9.036  0.7610  0.7581  0.0322
  166SOPE  H13S18689   0.363   6.893   8.970  0.9227  1.8791 -2.0520
  166SOPE  C21418690   0.514   6.865   8.809 -0.5366  0.9383 -0.0248
  166SOPE  H14R18691   0.579   6.780   8.780 -1.0243  0.6119 -0.1705
  166SOPE  H14S18692   0.579   6.947   8.848 -1.0822  0.8982  0.9948
  166SOPE  C21518693   0.416   6.898   8.700 -0.3778 -0.6009  0.4244
  166SOPE  H15R18694   0.315   6.865   8.731 -0.3468 -0.1796  0.9936
  166SOPE  H15S18695   0.448   6.853   8.603 -2.4894  1.1875 -1.2213
  166SOPE  C21618696   0.398   7.053   8.670  0.7584  0.2343  0.1084
  166SOPE  H16R18697   0.319   7.058   8.592 -1.1341 -0.4935  1.8799
  166SOPE  H16S18698   0.497   7.090   8.637  0.5753  0.7489  0.1244
  166SOPE  C21718699   0.346   7.137   8.790  0.2299 -0.3808 -0.3303
  166SOPE  H17R18700   0.429   7.180   8.849 -0.2707  0.0547  0.0740
  166SOPE  H17S18701   0.296   7.075   8.868 -0.3304  0.4107 -0.0372
  166SOPE  C21818702   0.255   7.257   8.757  0.2037 -0.2961  0.2415
  166SOPE  H18R18703   0.228   7.317   8.847 -0.5672 -0.1421 -0.0873
  166SOPE  H18S18704   0.152   7.219   8.745  0.3727 -0.4102 -0.9706
  166SOPE  H18T18705   0.300   7.313   8.673 -2.0390 -1.4297 -1.8131
  166SOPE   C3318706   1.080   6.846   9.886  0.1746  0.3207  0.2339
  166SOPE   H3X18707   0.993   6.914   9.891  1.6667  2.3537  0.0495
  166SOPE   H3Y18708   1.038   6.744   9.874 -0.1407  0.5155 -0.4124
  166SOPE   C3418709   1.174   6.885   9.777 -0.0511 -0.1829  0.6996
  166SOPE   H4X18710   1.273   6.838   9.792  1.9212  3.7517  1.5583
  166SOPE   H4Y18711   1.189   6.996   9.774  0.5319 -0.2790 -0.3707
  166SOPE   C3518712   1.124   6.855   9.640  0.5625 -0.1288  0.3304
  166SOPE   H5X18713   1.084   6.751   9.646  1.0774 -0.5781 -2.4577
  166SOPE   H5Y18714   1.204   6.860   9.563  2.0215  0.5543  1.8209
  166SOPE   C3618715   1.005   6.948   9.590 -0.1760  0.1909 -0.1362
  166SOPE   H6X18716   1.048   7.050   9.582  0.4464  0.0189  0.8691
  166SOPE   H6Y18717   0.923   6.952   9.665  1.6941 -1.2827  2.1289
  166SOPE   C3718718   0.942   6.915   9.456 -0.4578  0.4353 -0.2978
  166SOPE   H7X18719   0.844   6.965   9.441  0.2472  2.2670  0.8746
  166SOPE   H7Y18720   0.920   6.806   9.448 -0.1667  0.3896 -0.4992
  166SOPE   C3818721   1.041   6.934   9.338 -0.4533  0.4224 -0.0602
  166SOPE   H8X18722   1.139   6.881   9.339 -1.0489 -0.8522 -2.1897
  166SOPE   H8Y18723   1.064   7.042   9.340 -0.6878  0.4660  1.0616
  166SOPE   C3918724   0.978   6.895   9.196  0.4064 -0.5373  0.0717
  166SOPE   H9X18725   0.939   6.791   9.205 -3.2602  0.5541 -1.3439
  166SOPE   H9Y18726   1.050   6.910   9.114 -1.7697  3.1109 -1.4335
  166SOPE  C31018727   0.863   6.995   9.151 -0.4574 -0.0189 -0.6577
  166SOPE  H10X18728   0.906   7.097   9.161  1.6938 -0.4974 -3.6370
  166SOPE  H10Y18729   0.784   6.968   9.225  1.5727 -2.2103  0.8980
  166SOPE  C31118730   0.815   6.967   9.011 -0.3116 -0.3922  0.8546
  166SOPE  H11X18731   0.717   7.017   8.997 -2.1740 -3.9773  0.0641
  166SOPE  H11Y18732   0.826   6.858   8.991  1.0238 -0.0008 -0.8323
  166SOPE  C31218733   0.889   7.041   8.894 -0.1524 -0.2343  0.1369
  166SOPE  H12X18734   0.999   7.026   8.905 -0.2166 -1.4246 -0.6768
  166SOPE  H12Y18735   0.875   7.151   8.907 -0.3686 -0.1454 -0.8367
  166SOPE  C31318736   0.860   6.994   8.745 -0.2743  0.1517 -0.2740
  166SOPE  H13X18737   0.752   6.990   8.720 -1.1482  3.2391  2.3277
  166SOPE  H13Y18738   0.899   6.890   8.743 -0.8948 -0.0890 -0.1645
  166SOPE  C31418739   0.937   7.082   8.640 -0.4389  0.1471 -0.1870
  166SOPE  H14X18740   1.039   7.102   8.680 -0.5139  0.6246 -0.2302
  166SOPE  H14Y18741   0.877   7.175   8.634 -0.0246  0.3889 -0.6331
  166SOPE  C31518742   0.963   7.007   8.511 -0.8041  0.1571  0.2293
  166SOPE  H15X18743   1.007   6.909   8.540  1.2794  1.6747  2.5757
  166SOPE  H15Y18744   1.044   7.046   8.446  0.3155  0.1202  1.5602
  166SOPE  C31618745   0.839   6.964   8.435 -0.0965  0.1634 -0.0314
  166SOPE  H16X18746   0.757   7.036   8.454 -1.6625 -2.1589  3.1266
  166SOPE  H16Y18747   0.818   6.865   8.481  0.8061  0.5763  1.3567
  166SOPE  C31718748   0.857   6.946   8.287 -0.9206  0.1814  0.0440
  166SOPE  H17X18749   0.869   7.046   8.239  0.8194  0.0442  0.1137
  166SOPE  H17Y18750   0.763   6.913   8.239 -2.2544  2.2428  1.0495
  166SOPE  C31818751   0.980   6.863   8.241 -0.1436  0.1094  0.1635
  166SOPE  H18X18752   1.070   6.888   8.300  2.3514 -2.7728 -2.0732
  166SOPE  H18Y18753   0.993   6.875   8.131 -0.4869  0.7249  0.1897
  166SOPE  H18Z18754   0.968   6.755   8.265  1.7970 -0.0568  0.5720
  167SOPE     N18755   0.689   6.343   6.004  0.8953  0.3502 -0.0694
  167SOPE   HN118756   0.719   6.360   5.906  0.9974  0.8423  0.0488
  167SOPE   HN218757   0.655   6.244   6.003 -0.4372  0.7795 -1.0922
  167SOPE   HN318758   0.604   6.394   6.033 -0.5278 -1.8039 -0.1844
  167SOPE   C1218759   0.794   6.395   6.095  1.0263 -0.2142 -0.5220
  167SOPE  H12A18760   0.840   6.487   6.053 -0.9849  1.8277  1.4078
  167SOPE  H12B18761   0.867   6.314   6.119  0.8629 -0.3134 -0.3596
  167SOPE   C1118762   0.729   6.447   6.226 -0.5462  0.3393  0.6438
  167SOPE  H11A18763   0.808   6.501   6.283  1.2055 -0.4282 -0.9123
  167SOPE  H11B18764   0.700   6.364   6.293 -0.0570  0.1151  0.5815
  167SOPE     P18765   0.614   6.679   6.225  0.3660  0.2355  0.4266
  167SOPE   O1318766   0.508   6.719   6.130 -0.5497 -0.0514 -0.2318
  167SOPE   O1418767   0.748   6.727   6.186  0.2223  0.1214 -0.0014
  167SOPE   O1218768   0.614   6.525   6.215  0.1564 -0.5668  0.6034
  167SOPE   O1118769   0.564   6.706   6.371 -0.2564  0.2208 -0.8251
  167SOPE    C118770   0.507   6.603   6.456 -0.2100  0.8279  0.0769
  167SOPE    HA18771   0.582   6.535   6.502 -1.8942 -3.9828 -3.3636
  167SOPE    HB18772   0.441   6.536   6.396  1.4957 -1.2374  0.3632
  167SOPE    C218773   0.419   6.649   6.569 -0.4106  0.0129 -0.2057
  167SOPE    HS18774   0.329   6.695   6.525  0.9139  1.6215 -1.3652
  167SOPE   O2118775   0.500   6.738   6.652 -0.0756 -0.2216 -0.0042
  167SOPE   C2118776   0.427   6.816   6.728  0.1389 -0.8023 -0.1746
  167SOPE   O2218777   0.305   6.822   6.728 -0.0534 -0.0840  0.7015
  167SOPE   C2218778   0.516   6.894   6.823 -0.4060 -0.0767 -0.3519
  167SOPE   H2R18779   0.520   7.000   6.791 -1.5333  0.1822  0.2959
  167SOPE   H2S18780   0.610   6.836   6.830 -2.0217 -2.6689  1.9054
  167SOPE    C318781   0.391   6.523   6.668  0.1195 -0.2017  0.6205
  167SOPE    HX18782   0.493   6.499   6.706  1.7040  0.4202 -2.8973
  167SOPE    HY18783   0.346   6.443   6.606  0.1725 -2.4246  3.2456
  167SOPE   O3118784   0.322   6.556   6.798 -0.0654 -0.0147 -0.2253
  167SOPE   C3118785   0.186   6.562   6.773 -0.5220 -0.0492 -0.0806
  167SOPE   O3218786   0.133   6.535   6.666  0.4607 -0.3559 -0.9716
  167SOPE   C3218787   0.117   6.609   6.906  0.1834  0.5877  0.2925
  167SOPE   H2X18788   0.123   6.720   6.898  0.8929  0.6679  1.6167
  167SOPE   H2Y18789   0.175   6.565   6.990 -0.7560 -2.0640 -0.3650
  167SOPE   C2318790   0.462   6.890   6.971  0.3733 -0.2403  0.6841
  167SOPE   H3R18791   0.351   6.903   6.965 -0.1368 -3.2802  1.6075
  167SOPE   H3S18792   0.519   6.973   7.015  3.1567 -1.5257 -0.2777
  167SOPE   C2418793   0.489   6.762   7.046 -0.1372  0.3712 -0.6654
  167SOPE   H4R18794   0.417   6.690   7.002  1.0638 -0.4945 -1.2658
  167SOPE   H4S18795   0.590   6.724   7.019 -0.0752 -0.3666  0.5047
  167SOPE   C2518796   0.499   6.790   7.198  0.1527 -0.3133 -0.1237
  167SOPE   H5R18797   0.529   6.694   7.246 -1.4062 -1.9223 -2.1730
  167SOPE   H5S18798   0.572   6.865   7.235 -1.0386 -0.3315  2.5397
  167SOPE   C2618799   0.358   6.807   7.253 -1.0843  0.0997  0.0709
  167SOPE   H6R18800   0.316   6.904   7.218 -0.4516  0.0937 -0.7235
  167SOPE   H6S18801   0.313   6.715   7.211 -0.5808 -0.1277  0.0240
  167SOPE   C2718802   0.349   6.797   7.410 -0.6980  0.8643  0.0860
  167SOPE   H7R18803   0.243   6.805   7.442 -0.1971  1.9863  1.6117
  167SOPE   H7S18804   0.387   6.696   7.438  0.1204  0.0272 -3.5196
  167SOPE   C2818805   0.431   6.906   7.492  0.2241  0.2868 -0.6084
  167SOPE   H8R18806   0.532   6.902   7.447 -1.0066 -0.1228 -3.5350
  167SOPE   H8S18807   0.396   7.010   7.478 -0.2901  0.4314  1.4343
  167SOPE   C2918808   0.425   6.876   7.638 -0.0523  0.0435 -0.3678
  167SOPE   H9118809   0.357   6.947   7.686 -0.4911  1.3670 -2.7550
  167SOPE  C21018810   0.499   6.783   7.699 -0.4671 -0.1057  0.5591
  167SOPE  H10118811   0.473   6.756   7.803 -0.6911 -2.4123 -0.0449
  167SOPE  C21118812   0.601   6.687   7.637 -0.6336 -0.6586  0.1278
  167SOPE  H11R18813   0.602   6.703   7.527  1.8462  0.1937  0.2207
  167SOPE  H11S18814   0.579   6.581   7.660  0.4149 -0.4350  2.3443
  167SOPE  C21218815   0.742   6.719   7.691 -0.0021 -0.3318  0.2046
  167SOPE  H12R18816   0.755   6.822   7.651 -0.2866  0.0839  1.1588
  167SOPE  H12S18817   0.817   6.656   7.639 -1.1500 -1.2821 -0.3192
  167SOPE  C21318818   0.747   6.710   7.851  0.7742 -0.4389 -0.7744
  167SOPE  H13R18819   0.713   6.606   7.869  0.0518 -0.1287 -0.3089
  167SOPE  H13S18820   0.677   6.786   7.891  1.4396 -0.1376 -0.1493
  167SOPE  C21418821   0.880   6.736   7.919  0.4023  0.0594  0.2351
  167SOPE  H14R18822   0.852   6.704   8.021  1.9906  0.1962  0.7376
  167SOPE  H14S18823   0.912   6.843   7.920  1.0719 -0.1385  1.4337
  167SOPE  C21518824   0.999   6.646   7.876 -0.1694 -0.1212  0.5916
  167SOPE  H15R18825   1.024   6.677   7.772  0.5246  0.5370  0.9511
  167SOPE  H15S18826   0.962   6.541   7.884 -0.3728 -0.2136 -1.1368
  167SOPE  C21618827   1.120   6.657   7.974  0.3868  0.3392 -0.0418
  167SOPE  H16R18828   1.073   6.643   8.074 -1.6225  0.7643 -0.8803
  167SOPE  H16S18829   1.138   6.765   7.991 -1.3152  0.2347  3.2340
  167SOPE  C21718830   1.243   6.578   7.938 -0.0649  0.0298  0.3755
  167SOPE  H17R18831   1.275   6.619   7.841  0.8684  0.1339  0.7195
  167SOPE  H17S18832   1.218   6.472   7.915 -1.8979  0.7181 -1.0373
  167SOPE  C21818833   1.360   6.603   8.036 -0.8121  0.2815  0.0591
  167SOPE  H18R18834   1.374   6.513   8.101  1.0405 -0.9584 -1.9179
  167SOPE  H18S18835   1.345   6.685   8.109  0.2248 -1.6420  2.6147
  167SOPE  H18T18836   1.460   6.622   7.991 -1.0028 -0.0180 -0.5028
  167SOPE   C3318837  -0.032   6.564   6.910  0.4093  0.4039 -0.7020
  167SOPE   H3X18838  -0.041   6.455   6.890  0.2683  0.2893 -0.0526
  167SOPE   H3Y18839  -0.090   6.624   6.837 -3.7578 -1.8415  0.4906
  167SOPE   C3418840  -0.091   6.578   7.046 -0.5193  0.2378 -0.4314
  167SOPE   H4X18841  -0.015   6.531   7.112  0.4878  0.3624 -1.4879
  167SOPE   H4Y18842  -0.185   6.518   7.054 -0.4268  0.1900  0.5094
  167SOPE   C3518843  -0.103   6.722   7.096 -0.5672 -0.1020  1.3465
  167SOPE   H5X18844  -0.142   6.783   7.012 -0.6512 -1.0763  0.6621
  167SOPE   H5Y18845  -0.003   6.771   7.107 -0.6588  0.3048  0.5121
  167SOPE   C3618846  -0.194   6.721   7.221  0.1882 -0.7066 -0.3098
  167SOPE   H6X18847  -0.279   6.656   7.192  0.6455 -1.3816 -0.1496
  167SOPE   H6Y18848  -0.231   6.825   7.237  0.6349 -0.7134  0.9370
  167SOPE   C3718849  -0.126   6.680   7.353  0.4259 -0.0346  1.2922
  167SOPE   H7X18850  -0.050   6.757   7.377  1.3831  0.6415 -3.0176
  167SOPE   H7Y18851  -0.077   6.581   7.347  0.1883 -0.1274  0.8122
  167SOPE   C3818852  -0.234   6.670   7.460 -1.2160  0.1595 -0.2418
  167SOPE   H8X18853  -0.308   6.596   7.422 -0.0857 -0.4817 -1.2876
  167SOPE   H8Y18854  -0.278   6.769   7.483 -1.0882 -0.0045  0.7819
  167SOPE   C3918855  -0.172   6.624   7.593  0.3259  0.0734 -0.5102
  167SOPE   H9X18856  -0.104   6.538   7.578  0.5511  0.3771 -1.2658
  167SOPE   H9Y18857  -0.251   6.590   7.663 -0.1672  1.3925 -0.3854
  167SOPE  C31018858  -0.104   6.740   7.672  0.5777  0.0287 -0.3026
  167SOPE  H10X18859  -0.172   6.823   7.698  1.2552  1.9848 -4.0759
  167SOPE  H10Y18860  -0.016   6.788   7.624  0.0903 -0.6545 -1.9403
  167SOPE  C31118861  -0.041   6.685   7.802 -0.3494  0.7709 -0.1719
  167SOPE  H11X18862   0.037   6.609   7.782 -1.2721 -0.3055  0.2500
  167SOPE  H11Y18863  -0.118   6.631   7.861 -0.1069 -0.8199 -1.2427
  167SOPE  C31218864   0.025   6.793   7.884 -0.3903  0.4354 -0.2344
  167SOPE  H12X18865  -0.048   6.876   7.893 -1.5611 -0.6607  0.8410
  167SOPE  H12Y18866   0.114   6.840   7.837 -0.4877  0.7095 -0.1465
  167SOPE  C31318867   0.053   6.748   8.029 -0.1588  0.2348 -0.5591
  167SOPE  H13X18868   0.108   6.652   8.035  0.9047  0.8923  2.1885
  167SOPE  H13Y18869  -0.040   6.735   8.089 -0.6339 -1.6657 -1.6553
  167SOPE  C31418870   0.136   6.853   8.098 -0.8767  0.1899 -0.1996
  167SOPE  H14X18871   0.089   6.953   8.095  1.3653  1.2897 -1.2319
  167SOPE  H14Y18872   0.222   6.875   8.031  0.1958  1.5093  1.5407
  167SOPE  C31518873   0.195   6.800   8.228 -0.0493  0.3062 -0.0704
  167SOPE  H15X18874   0.128   6.717   8.261  0.0235 -0.1729 -1.1132
  167SOPE  H15Y18875   0.177   6.883   8.300 -0.2936 -1.6780  2.3157
  167SOPE  C31618876   0.335   6.749   8.220  0.3637  0.2152 -0.3885
  167SOPE  H16X18877   0.396   6.836   8.187 -0.1063 -0.2093 -2.5183
  167SOPE  H16Y18878   0.333   6.681   8.132  1.5147  1.1069 -1.1260
  167SOPE  C31718879   0.380   6.701   8.359 -0.1491  0.2696  0.4110
  167SOPE  H17X18880   0.337   6.601   8.384  0.8692 -0.4518 -0.6523
  167SOPE  H17Y18881   0.348   6.776   8.435 -0.4614  0.8805 -0.3140
  167SOPE  C31818882   0.533   6.704   8.372  0.4280  0.5525  0.3009
  167SOPE  H18X18883   0.572   6.622   8.308 -0.1000 -0.1360  0.8455
  167SOPE  H18Y18884   0.551   6.684   8.480  0.3449  0.1526  0.2437
  167SOPE  H18Z18885   0.582   6.796   8.335 -2.4051  2.5131  1.0655
  168SOPE     N18886   2.002   3.498   6.273  0.4315  0.6683  0.0471
  168SOPE   HN118887   1.974   3.597   6.290  0.3099  0.2829  2.6136
  168SOPE   HN218888   1.913   3.456   6.305  1.8033  0.0495  3.6179
  168SOPE   HN318889   2.078   3.464   6.336  0.2204  1.4786  0.7644
  168SOPE   C1218890   2.023   3.460   6.133 -0.5363  0.1690 -0.2753
  168SOPE  H12A18891   2.125   3.496   6.106  0.1807 -1.7747 -0.3231
  168SOPE  H12B18892   1.946   3.515   6.075 -3.4786 -1.5703  1.7279
  168SOPE   C1118893   2.018   3.306   6.115 -0.1413  0.0727 -0.1569
  168SOPE  H11A18894   2.080   3.253   6.191  1.4692  0.7458 -0.9783
  168SOPE  H11B18895   2.059   3.277   6.017 -1.0056  0.7049 -0.7189
  168SOPE     P18896   1.827   3.196   6.263  0.2415 -0.2857  0.3725
  168SOPE   O1318897   1.882   3.057   6.270 -0.0765 -0.1849  0.1958
  168SOPE   O1418898   1.686   3.220   6.261  0.3862  0.5847 -0.0752
  168SOPE   O1218899   1.886   3.259   6.131 -0.0543  0.0829 -0.4584
  168SOPE   O1118900   1.889   3.281   6.384 -0.3899  0.5454 -0.2888
  168SOPE    C118901   1.839   3.266   6.511  0.1271  0.2721 -0.8205
  168SOPE    HA18902   1.824   3.167   6.559  1.6187  2.0485  3.9464
  168SOPE    HB18903   1.740   3.316   6.512  0.1240  0.2889  0.6841
  168SOPE    C218904   1.923   3.351   6.614 -0.4757  0.5186 -0.0118
  168SOPE    HS18905   1.941   3.449   6.564  2.5743  0.2149  0.3040
  168SOPE   O2118906   2.053   3.290   6.647 -0.1285 -0.1642 -0.7771
  168SOPE   C2118907   2.149   3.327   6.569 -0.2034 -0.0300 -0.0537
  168SOPE   O2218908   2.145   3.418   6.487  0.5979 -0.2336  0.5529
  168SOPE   C2218909   2.274   3.252   6.605 -0.2617 -0.1147  0.0875
  168SOPE   H2R18910   2.354   3.267   6.530 -2.4838  1.2802 -2.1948
  168SOPE   H2S18911   2.252   3.144   6.594  0.1893 -0.1347 -0.6754
  168SOPE    C318912   1.833   3.363   6.747 -0.0272 -0.4627  0.0183
  168SOPE    HX18913   1.765   3.276   6.758 -1.3250  0.3992 -0.9300
  168SOPE    HY18914   1.757   3.442   6.730 -1.2357 -1.6245 -0.1374
  168SOPE   O3118915   1.908   3.382   6.873  0.4562  0.3685 -0.2064
  168SOPE   C3118916   1.821   3.375   6.978 -0.3807 -0.5326  0.7463
  168SOPE   O3218917   1.710   3.340   6.970  0.7482 -0.4897  0.2511
  168SOPE   C3218918   1.892   3.425   7.105  0.6241 -0.1531 -0.8209
  168SOPE   H2X18919   1.848   3.527   7.120 -0.6464 -1.1026  2.9908
  168SOPE   H2Y18920   2.001   3.430   7.086  1.0167 -1.4585  0.8697
  168SOPE   C2318921   2.316   3.272   6.752 -0.6873 -0.1664 -0.6533
  168SOPE   H3R18922   2.386   3.190   6.779 -0.1877  0.3975 -0.2066
  168SOPE   H3S18923   2.229   3.251   6.818 -2.0410 -1.5496 -2.7539
  168SOPE   C2418924   2.387   3.405   6.781  0.1589  0.1903  0.7711
  168SOPE   H4R18925   2.470   3.416   6.708  0.1033  0.6502  0.7713
  168SOPE   H4S18926   2.324   3.496   6.768 -1.5993 -0.9830  0.7176
  168SOPE   C2518927   2.434   3.422   6.924  0.5949 -0.1593 -0.5588
  168SOPE   H5R18928   2.515   3.349   6.943  1.4672  0.0776 -2.9422
  168SOPE   H5S18929   2.486   3.521   6.930  1.9013 -0.9116  2.7766
  168SOPE   C2618930   2.339   3.426   7.049 -0.4477  0.0603  0.3843
  168SOPE   H6R18931   2.234   3.443   7.018 -0.2317  0.1067 -0.3285
  168SOPE   H6S18932   2.336   3.319   7.080  2.2682 -0.0071  0.6249
  168SOPE   C2718933   2.375   3.522   7.161  0.0822 -0.6232 -0.1600
  168SOPE   H7R18934   2.479   3.507   7.197  0.5267  1.0628 -0.6192
  168SOPE   H7S18935   2.374   3.629   7.129  0.1994 -1.1143 -1.9026
  168SOPE   C2818936   2.281   3.510   7.280  1.0739  0.4672 -0.5678
  168SOPE   H8R18937   2.271   3.605   7.336  0.7303 -0.8515  1.7113
  168SOPE   H8S18938   2.179   3.495   7.238  0.5890 -2.5256  1.3835
  168SOPE   C2918939   2.319   3.396   7.372  0.0417 -0.4591  0.1817
  168SOPE   H9118940   2.315   3.293   7.336  0.6263 -0.8011  1.0476
  168SOPE  C21018941   2.346   3.405   7.504 -0.1670 -0.0409 -0.1269
  168SOPE  H10118942   2.361   3.312   7.561  2.2189 -0.8136 -1.8518
  168SOPE  C21118943   2.349   3.533   7.580 -0.1123  0.1027 -0.1368
  168SOPE  H11R18944   2.347   3.622   7.513 -0.6766 -1.3662 -2.1753
  168SOPE  H11S18945   2.446   3.530   7.634 -0.2865  0.3382  0.1887
  168SOPE  C21218946   2.235   3.540   7.679  0.1372 -0.4331 -0.1678
  168SOPE  H12R18947   2.198   3.443   7.718 -2.7438  0.6925  0.0850
  168SOPE  H12S18948   2.151   3.584   7.622  0.5841  0.4918 -0.1400
  168SOPE  C21318949   2.254   3.637   7.800  0.3838 -0.4652  0.2786
  168SOPE  H13R18950   2.345   3.608   7.857  1.6181 -1.8536 -2.1943
  168SOPE  H13S18951   2.163   3.633   7.863 -1.4347 -0.2749 -2.1931
  168SOPE  C21418952   2.268   3.782   7.759  0.4377 -0.3914  0.2374
  168SOPE  H14R18953   2.190   3.806   7.683 -0.4182  1.6200  1.6812
  168SOPE  H14S18954   2.367   3.804   7.714  0.0158 -1.4440 -1.2960
  168SOPE  C21518955   2.234   3.886   7.866 -0.7249  0.6173 -0.0395
  168SOPE  H15R18956   2.138   3.874   7.920  0.5486 -0.5962  2.0585
  168SOPE  H15S18957   2.233   3.990   7.827 -0.7636  0.4705 -0.4340
  168SOPE  C21618958   2.350   3.886   7.963 -0.6241  0.0327  0.0982
  168SOPE  H16R18959   2.448   3.896   7.911  1.8190 -3.1941  3.4916
  168SOPE  H16S18960   2.354   3.797   8.029 -2.8333 -1.1411 -1.2349
  168SOPE  C21718961   2.335   3.999   8.069 -0.1083 -0.0069  0.2743
  168SOPE  H17R18962   2.230   3.993   8.107  0.0776 -0.5045  0.7058
  168SOPE  H17S18963   2.341   4.095   8.013  1.2787 -0.3371 -0.1681
  168SOPE  C21818964   2.439   3.997   8.178  0.1133  0.0580 -0.4421
  168SOPE  H18R18965   2.531   3.951   8.135 -0.5298 -0.9875 -0.7491
  168SOPE  H18S18966   2.408   3.926   8.257  1.2014  0.9526  0.8222
  168SOPE  H18T18967   2.459   4.098   8.219  2.7960 -0.4043 -0.4218
  168SOPE   C3318968   1.867   3.324   7.218 -0.4485  0.0470 -0.1846
  168SOPE   H3X18969   1.924   3.230   7.200  0.1892  0.6987 -1.8219
  168SOPE   H3Y18970   1.758   3.305   7.215 -0.7021  0.3635  3.1092
  168SOPE   C3418971   1.908   3.379   7.354  0.5205  0.5858 -0.6715
  168SOPE   H4X18972   1.867   3.482   7.350 -0.6787  0.1537 -0.0864
  168SOPE   H4Y18973   2.016   3.400   7.362  0.1136  2.0591  2.2462
  168SOPE   C3518974   1.842   3.300   7.471 -0.5134  1.0338 -0.1268
  168SOPE   H5X18975   1.884   3.197   7.463  0.0115  1.2932 -0.8023
  168SOPE   H5Y18976   1.737   3.297   7.432 -0.2660  0.9291 -0.8027
  168SOPE   C3618977   1.856   3.359   7.610  0.2978 -0.4190 -0.3764
  168SOPE   H6X18978   1.822   3.465   7.613  0.0636 -0.4863 -0.6377
  168SOPE   H6Y18979   1.965   3.361   7.631  0.1873 -2.1399  0.4639
  168SOPE   C3718980   1.789   3.272   7.713 -0.2936 -0.4955 -0.3157
  168SOPE   H7X18981   1.841   3.174   7.713  0.4187 -0.1822  1.7736
  168SOPE   H7Y18982   1.693   3.229   7.677 -0.6103 -0.3989  0.3960
  168SOPE   C3818983   1.781   3.336   7.851 -0.2040  0.5062 -0.1727
  168SOPE   H8X18984   1.731   3.269   7.924  1.6278  1.9893  2.6199
  168SOPE   H8Y18985   1.724   3.431   7.842 -0.4326  0.5347  1.3119
  168SOPE   C3918986   1.927   3.362   7.907  0.1553 -0.1493 -1.0660
  168SOPE   H9X18987   1.982   3.436   7.845 -0.3849  1.0681 -0.1343
  168SOPE   H9Y18988   1.984   3.267   7.895  1.0228  0.2948 -0.5205
  168SOPE  C31018989   1.932   3.397   8.055  0.5063  0.2214 -0.0611
  168SOPE  H10X18990   1.847   3.466   8.073  0.8646  0.1576  2.1752
  168SOPE  H10Y18991   2.021   3.462   8.072 -0.4913  1.9368 -1.0229
  168SOPE  C31118992   1.921   3.278   8.144 -0.4091 -0.6207 -0.3444
  168SOPE  H11X18993   2.012   3.215   8.138 -0.2679 -0.4052 -0.4700
  168SOPE  H11Y18994   1.843   3.207   8.108  0.1855 -0.4385 -2.1151
  168SOPE  C31218995   1.897   3.318   8.288 -0.0655 -0.3813 -0.5095
  168SOPE  H12X18996   1.989   3.372   8.318  2.0759 -2.3091 -3.1337
  168SOPE  H12Y18997   1.897   3.219   8.338 -1.0694  0.1532  0.6175
  168SOPE  C31318998   1.771   3.384   8.333  0.3251  0.6650 -0.0940
  168SOPE  H13X18999   1.681   3.324   8.307  0.6902 -0.9297  2.0684
  168SOPE  H13Y19000   1.755   3.473   8.268  0.8599  0.0567 -1.0940
  168SOPE  C31419001   1.751   3.386   8.483  0.1479 -0.7000 -0.2631
  168SOPE  H14X19002   1.779   3.292   8.534 -0.3370 -2.5994 -3.2429
  168SOPE  H14Y19003   1.644   3.400   8.511  0.5573  1.6997  0.3995
  168SOPE  C31519004   1.813   3.508   8.542 -0.2363 -0.9307  0.4173
  168SOPE  H15X19005   1.782   3.595   8.481 -0.0511  0.4728  2.2165
  168SOPE  H15Y19006   1.923   3.495   8.531  0.1914  1.5761  1.0792
  168SOPE  C31619007   1.772   3.547   8.684  0.3081  0.4158  0.1649
  168SOPE  H16X19008   1.661   3.552   8.682 -0.2043 -5.1038 -0.0547
  168SOPE  H16Y19009   1.805   3.641   8.733 -1.7900  1.0287  0.5223
  168SOPE  C31719010   1.789   3.442   8.794 -0.4280  0.4953 -0.9924
  168SOPE  H17X19011   1.891   3.451   8.836 -1.2854 -0.2559  1.4664
  168SOPE  H17Y19012   1.774   3.333   8.776 -0.8940  0.2324  0.7830
  168SOPE  C31819013   1.690   3.465   8.917 -0.5850 -0.5219  0.8650
  168SOPE  H18X19014   1.729   3.410   9.006  1.6227 -1.2437 -0.4801
  168SOPE  H18Y19015   1.583   3.447   8.892 -0.1406 -0.6018 -1.1135
  168SOPE  H18Z19016   1.701   3.574   8.937 -0.2031 -0.1381 -1.2100
  169SOPE     N19017   2.332   0.681   6.203  0.3927 -0.4620  0.3700
  169SOPE   HN119018   2.298   0.611   6.133  0.3261  1.7794 -1.9895
  169SOPE   HN219019   2.245   0.729   6.236 -0.4050 -0.6019 -1.3925
  169SOPE   HN319020   2.399   0.744   6.154 -0.4090 -0.1957 -0.4108
  169SOPE   C1219021   2.400   0.611   6.323  1.0647 -0.6649 -0.1471
  169SOPE  H12A19022   2.345   0.517   6.346  0.5782 -0.0922  1.1314
  169SOPE  H12B19023   2.378   0.684   6.404  0.9972  0.3086 -1.0199
  169SOPE   C1119024   2.548   0.576   6.314  0.6896 -0.5023 -0.0807
  169SOPE  H11A19025   2.573   0.478   6.271 -2.1774 -0.3767 -2.3440
  169SOPE  H11B19026   2.585   0.568   6.418  2.2963  2.4471 -0.3044
  169SOPE     P19027   2.697   0.792   6.318  0.1899 -0.1218  0.1982
  169SOPE   O1319028   2.728   0.897   6.218 -0.1405  0.1506  0.8145
  169SOPE   O1419029   2.814   0.733   6.382  0.0143  0.0271 -0.1864
  169SOPE   O1219030   2.617   0.673   6.248  0.0436  0.1199 -0.1560
  169SOPE   O1119031   2.588   0.851   6.421  0.2904  0.2099 -0.7049
  169SOPE    C119032   2.578   0.996   6.433 -0.0738 -0.4002 -0.2157
  169SOPE    HA19033   2.525   1.041   6.346  2.7329 -0.0553 -1.9004
  169SOPE    HB19034   2.673   1.053   6.445 -0.5163  0.1408  0.8575
  169SOPE    C219035   2.487   1.037   6.558 -0.2425 -0.5398 -0.2094
  169SOPE    HS19036   2.505   1.147   6.568 -1.4826 -0.2346 -1.0927
  169SOPE   O2119037   2.526   0.966   6.681  0.4971  0.2717 -0.0010
  169SOPE   C2119038   2.650   1.005   6.711 -0.6442 -0.4325 -0.2877
  169SOPE   O2219039   2.708   1.105   6.668  0.0232  0.5745  0.2165
  169SOPE   C2219040   2.711   0.908   6.803 -0.6397 -0.0811  0.6587
  169SOPE   H2R19041   2.818   0.931   6.822 -0.2221 -1.7226  0.4879
  169SOPE   H2S19042   2.728   0.818   6.740  1.6510  0.1829  0.7913
  169SOPE    C319043   2.333   1.019   6.515  0.1541 -0.5046  0.8018
  169SOPE    HX19044   2.332   0.919   6.467  1.1643 -0.1755  0.0490
  169SOPE    HY19045   2.292   1.096   6.446  0.1778 -1.2055 -0.0042
  169SOPE   O3119046   2.251   1.012   6.643 -0.1903  0.0935  0.5967
  169SOPE   C3119047   2.237   1.129   6.698 -0.0389  0.3702  0.2366
  169SOPE   O3219048   2.264   1.231   6.637 -0.2700 -0.8010 -0.0479
  169SOPE   C3219049   2.194   1.121   6.845  0.1760  0.4425  0.7452
  169SOPE   H2X19050   2.119   1.038   6.856  0.8946 -0.7904 -2.5198
  169SOPE   H2Y19051   2.151   1.221   6.863 -2.3449 -0.1235 -1.4516
  169SOPE   C2319052   2.627   0.880   6.924  0.0894 -0.0541  0.7025
  169SOPE   H3R19053   2.533   0.822   6.907 -0.2761  0.1111  2.0019
  169SOPE   H3S19054   2.584   0.974   6.966  0.5092 -0.2314  1.5581
  169SOPE   C2419055   2.702   0.802   7.037  0.4729 -0.0542 -0.7063
  169SOPE   H4R19056   2.713   0.700   6.993  0.5634 -0.3270 -0.0520
  169SOPE   H4S19057   2.796   0.850   7.070  0.6243 -0.1035 -1.0581
  169SOPE   C2519058   2.603   0.797   7.158  0.3688  0.2962  0.1513
  169SOPE   H5R19059   2.496   0.786   7.128  0.0485 -1.5696  1.7806
  169SOPE   H5S19060   2.631   0.705   7.213  2.9661  1.1605  0.3992
  169SOPE   C2619061   2.609   0.917   7.255  0.4439 -0.3975  0.1933
  169SOPE   H6R19062   2.715   0.907   7.288  0.2592 -0.9038  0.6395
  169SOPE   H6S19063   2.584   1.009   7.198 -0.2696 -1.2575 -0.9209
  169SOPE   C2719064   2.512   0.902   7.375 -0.7477 -0.5186 -0.4785
  169SOPE   H7R19065   2.406   0.914   7.344 -0.6045 -1.0372 -1.2076
  169SOPE   H7S19066   2.526   0.798   7.409 -0.1917  0.8891  4.2584
  169SOPE   C2819067   2.568   0.988   7.491 -0.0244 -0.2340  0.3093
  169SOPE   H8R19068   2.544   0.941   7.589  2.8126 -2.3343  0.1300
  169SOPE   H8S19069   2.678   0.975   7.489  0.3423  2.1897 -2.0357
  169SOPE   C2919070   2.531   1.135   7.486 -0.0575 -0.7679 -0.0133
  169SOPE   H9119071   2.547   1.189   7.392 -3.9552  1.7379  0.5640
  169SOPE  C21019072   2.478   1.212   7.585  0.0749 -1.1965 -0.3702
  169SOPE  H10119073   2.453   1.313   7.551  0.0376 -1.3344 -0.7570
  169SOPE  C21119074   2.437   1.166   7.721  0.3306  0.5722 -0.5783
  169SOPE  H11R19075   2.494   1.226   7.795  3.8379  0.0487 -2.6560
  169SOPE  H11S19076   2.462   1.059   7.736  2.0953  0.4912 -3.3688
  169SOPE  C21219077   2.289   1.191   7.738  0.2080 -0.4900  0.8125
  169SOPE  H12R19078   2.235   1.139   7.656 -0.9469 -0.4862  1.5533
  169SOPE  H12S19079   2.266   1.300   7.742  1.7205 -0.0717 -0.8585
  169SOPE  C21319080   2.240   1.131   7.867 -0.2890 -0.0140  0.0079
  169SOPE  H13R19081   2.283   1.177   7.958 -0.4110  0.9137 -0.3855
  169SOPE  H13S19082   2.286   1.030   7.870  0.6920  0.4499  1.8761
  169SOPE  C21419083   2.082   1.124   7.866  1.0139  0.4071 -0.6800
  169SOPE  H14R19084   2.051   1.029   7.915  0.1487 -0.0412 -2.0457
  169SOPE  H14S19085   2.047   1.104   7.762 -0.3589 -2.2168  0.1903
  169SOPE  C21519086   2.005   1.231   7.950  0.3252 -0.5445 -0.2221
  169SOPE  H15R19087   2.039   1.334   7.928 -0.5081 -0.3404 -0.5603
  169SOPE  H15S19088   2.024   1.216   8.059  0.1216 -0.3220 -0.1552
  169SOPE  C21619089   1.853   1.233   7.923 -0.1433  0.2150  0.0895
  169SOPE  H16R19090   1.851   1.258   7.815 -2.5641 -1.0738 -0.2180
  169SOPE  H16S19091   1.795   1.311   7.976 -0.4565  0.1762 -0.1926
  169SOPE  C21719092   1.782   1.097   7.937 -0.1347  0.0738 -0.0323
  169SOPE  H17R19093   1.797   1.063   8.042  1.5026 -1.2855 -0.6586
  169SOPE  H17S19094   1.835   1.019   7.879  0.9725  0.0983  0.9135
  169SOPE  C21819095   1.637   1.098   7.903 -0.0148  0.4857  0.2824
  169SOPE  H18R19096   1.574   1.177   7.950  2.3123  3.0696 -0.7212
  169SOPE  H18S19097   1.603   0.997   7.934 -2.6930  0.3897 -2.5366
  169SOPE  H18T19098   1.627   1.107   7.793 -0.3351  1.0510  0.3524
  169SOPE   C3319099   2.312   1.084   6.940  0.0459  0.1564 -0.4509
  169SOPE   H3X19100   2.404   1.085   6.877  0.5045 -0.5977  0.1789
  169SOPE   H3Y19101   2.307   0.987   6.994  2.1349  0.9927  1.4247
  169SOPE   C3419102   2.338   1.178   7.059 -0.0303 -0.2689  0.2597
  169SOPE   H4X19103   2.380   1.277   7.030  0.7180  0.0679  2.3337
  169SOPE   H4Y19104   2.415   1.130   7.122  0.8308  1.5999  0.6934
  169SOPE   C3519105   2.211   1.210   7.136 -0.0136  0.0107  0.2814
  169SOPE   H5X19106   2.144   1.132   7.178  0.5617  0.8620  3.0076
  169SOPE   H5Y19107   2.138   1.267   7.074 -0.1554 -0.9129 -0.4198
  169SOPE   C3619108   2.231   1.300   7.269  0.0764 -0.2994 -0.0979
  169SOPE   H6X19109   2.301   1.385   7.260 -1.6730  1.0176 -2.2728
  169SOPE   H6Y19110   2.268   1.233   7.350 -0.8679  0.9767  1.4472
  169SOPE   C3719111   2.100   1.355   7.321 -0.2652 -0.2489 -0.0748
  169SOPE   H7X19112   2.041   1.261   7.328 -1.3323  0.4399  0.1840
  169SOPE   H7Y19113   2.049   1.421   7.248 -0.0009  1.7361  1.4465
  169SOPE   C3819114   2.111   1.403   7.467  0.2611  0.7543  0.4047
  169SOPE   H8X19115   2.013   1.385   7.516 -0.4774 -3.5711 -2.1502
  169SOPE   H8Y19116   2.192   1.340   7.509  0.7718  1.1550  0.0271
  169SOPE   C3919117   2.158   1.547   7.468 -0.1510  0.3252 -0.0693
  169SOPE   H9X19118   2.068   1.607   7.493  1.1580  2.1966  0.4055
  169SOPE   H9Y19119   2.188   1.581   7.366 -2.3656  1.4532 -0.4152
  169SOPE  C31019120   2.275   1.584   7.560 -0.0596  0.1125 -0.3939
  169SOPE  H10X19121   2.351   1.640   7.501 -0.4278 -0.3144 -1.2875
  169SOPE  H10Y19122   2.316   1.498   7.617  1.2234  0.0354 -1.3700
  169SOPE  C31119123   2.226   1.679   7.675  0.3437 -0.5162 -0.3196
  169SOPE  H11X19124   2.138   1.638   7.730 -1.1904  2.0439 -0.7255
  169SOPE  H11Y19125   2.196   1.768   7.615 -1.4622  0.0134  1.2551
  169SOPE  C31219126   2.308   1.714   7.798 -0.2328  0.5474  0.3944
  169SOPE  H12X19127   2.402   1.761   7.762 -0.7531 -0.2060 -2.1914
  169SOPE  H12Y19128   2.338   1.621   7.851 -0.4883  0.1155 -0.1988
  169SOPE  C31319129   2.254   1.811   7.899  0.6581  0.0352 -0.9102
  169SOPE  H13X19130   2.229   1.889   7.824  2.2057 -0.9076 -2.4872
  169SOPE  H13Y19131   2.333   1.841   7.973 -1.4398 -0.3058  1.6142
  169SOPE  C31419132   2.142   1.772   7.994 -0.1919 -0.0591  0.6745
  169SOPE  H14X19133   2.054   1.728   7.943  0.9266 -0.1275 -1.2650
  169SOPE  H14Y19134   2.112   1.865   8.048  1.1979 -0.4818  2.2680
  169SOPE  C31519135   2.187   1.665   8.095 -0.6569  0.2345  1.2380
  169SOPE  H15X19136   2.291   1.690   8.125  0.5164 -2.0951 -0.6057
  169SOPE  H15Y19137   2.194   1.566   8.047 -0.8170  0.8874 -0.1900
  169SOPE  C31619138   2.089   1.655   8.206 -0.8658  0.4251 -0.3817
  169SOPE  H16X19139   1.998   1.597   8.177 -0.9981 -0.1790  1.1701
  169SOPE  H16Y19140   2.041   1.753   8.227 -1.4612  0.1664 -0.5051
  169SOPE  C31719141   2.161   1.586   8.320 -0.4319  0.1302 -0.4276
  169SOPE  H17X19142   2.251   1.643   8.352  0.7842 -2.0093  0.2310
  169SOPE  H17Y19143   2.206   1.495   8.275 -1.6648  0.0904 -1.6425
  169SOPE  C31819144   2.079   1.540   8.440 -0.4680  0.0730  0.4070
  169SOPE  H18X19145   1.994   1.470   8.427  2.0957 -2.8366 -2.1724
  169SOPE  H18Y19146   2.045   1.626   8.503 -3.1422  1.2594 -2.3740
  169SOPE  H18Z19147   2.147   1.480   8.504 -1.0994  0.3722  1.3865
  170SOPE     N19148   5.222   5.572   6.581  0.2415 -0.1310  0.2960
  170SOPE   HN119149   5.263   5.617   6.665 -0.1148 -0.8049  0.8296
  170SOPE   HN219150   5.269   5.484   6.553 -1.3883 -2.4578  4.2531
  170SOPE   HN319151   5.244   5.642   6.506  0.1287  0.8155  1.1212
  170SOPE   C1219152   5.072   5.551   6.587 -0.1088  0.4448  0.1025
  170SOPE  H12A19153   5.057   5.458   6.646  2.5923  0.1964  0.5017
  170SOPE  H12B19154   5.037   5.531   6.483  1.1168 -0.2395 -0.1933
  170SOPE   C1119155   5.000   5.675   6.640  0.4331  0.3506 -0.0540
  170SOPE  H11A19156   5.010   5.682   6.751 -0.1831  3.2437 -0.1088
  170SOPE  H11B19157   4.890   5.669   6.623  0.7484 -1.8125 -1.7656
  170SOPE     P19158   4.982   5.873   6.459  0.2362  0.2219  0.3208
  170SOPE   O1319159   4.958   5.781   6.347  0.0522 -0.1608 -0.0744
  170SOPE   O1419160   5.064   5.990   6.416  0.5932  0.1973 -0.0566
  170SOPE   O1219161   5.040   5.799   6.579 -0.2860  0.1983  0.1955
  170SOPE   O1119162   4.842   5.917   6.523  0.3359 -0.5044  0.0356
  170SOPE    C119163   4.814   6.050   6.580  0.2999 -0.5879 -0.3513
  170SOPE    HA19164   4.706   6.059   6.604  0.5520 -2.0794  1.6325
  170SOPE    HB19165   4.857   6.130   6.516  1.6626  0.1837  1.4431
  170SOPE    C219166   4.883   6.074   6.725  0.2278 -0.1025  0.7367
  170SOPE    HS19167   4.988   6.041   6.711  0.8846  2.4671 -1.1700
  170SOPE   O2119168   4.804   6.003   6.821  0.1713 -0.2560  0.0822
  170SOPE   C2119169   4.862   5.934   6.910 -0.1000 -0.1425  0.1050
  170SOPE   O2219170   4.982   5.919   6.916 -0.4094 -0.5892  0.1658
  170SOPE   C2219171   4.756   5.900   7.021 -0.1568 -0.3649  0.1474
  170SOPE   H2R19172   4.707   5.804   6.995  0.5148 -0.7889  0.3966
  170SOPE   H2S19173   4.678   5.979   7.024 -0.9110 -1.0789 -0.2864
  170SOPE    C319174   4.874   6.231   6.760 -0.2147 -0.0833 -0.6250
  170SOPE    HX19175   4.771   6.259   6.730 -0.0658  0.4749 -0.6170
  170SOPE    HY19176   4.937   6.285   6.687  2.1071 -0.2588  1.1378
  170SOPE   O3119177   4.905   6.263   6.900 -0.3240  0.1311 -0.1178
  170SOPE   C3119178   5.038   6.282   6.920 -0.2265  0.3004 -0.1940
  170SOPE   O3219179   5.133   6.265   6.848 -0.0965 -0.6231 -0.1186
  170SOPE   C3219180   5.060   6.339   7.059 -0.2041 -0.7004 -0.1188
  170SOPE   H2X19181   5.012   6.439   7.063  0.2060 -0.5038  0.0179
  170SOPE   H2Y19182   5.170   6.358   7.063 -0.5411  1.1029  1.7142
  170SOPE   C2319183   4.824   5.882   7.151  0.1333 -0.1103 -0.4975
  170SOPE   H3R19184   4.870   5.981   7.174  1.1402 -0.5071 -0.7394
  170SOPE   H3S19185   4.913   5.815   7.152 -1.8979 -2.9663 -0.0094
  170SOPE   C2419186   4.730   5.847   7.266  0.6785  0.3797 -0.1327
  170SOPE   H4R19187   4.637   5.907   7.270  0.1389 -0.4968  0.8556
  170SOPE   H4S19188   4.690   5.745   7.250  0.7364  0.4037 -0.4400
  170SOPE   C2519189   4.820   5.850   7.397 -0.3179  0.3288 -0.0490
  170SOPE   H5R19190   4.901   5.775   7.388 -0.3798  0.2984 -0.3582
  170SOPE   H5S19191   4.862   5.951   7.417 -0.2922  0.0006  1.6755
  170SOPE   C2619192   4.754   5.818   7.530  0.4286 -0.1794 -0.3283
  170SOPE   H6R19193   4.668   5.884   7.557  0.8931  0.0503  0.6360
  170SOPE   H6S19194   4.705   5.718   7.523  1.7132 -0.8715  0.2405
  170SOPE   C2719195   4.856   5.817   7.646 -0.4151 -0.0459  0.6940
  170SOPE   H7R19196   4.946   5.761   7.610  0.2970  1.2045  0.4539
  170SOPE   H7S19197   4.888   5.923   7.652  0.9439 -0.5188  2.5050
  170SOPE   C2819198   4.798   5.766   7.779 -0.0747 -0.3861  0.0718
  170SOPE   H8R19199   4.692   5.799   7.788 -0.8359 -2.2815 -1.0131
  170SOPE   H8S19200   4.777   5.656   7.775  0.8954 -0.7947  3.3791
  170SOPE   C2919201   4.879   5.805   7.897  0.0638  0.7681  0.0290
  170SOPE   H9119202   4.907   5.912   7.892 -0.8724  0.9773 -0.9510
  170SOPE  C21019203   4.914   5.731   8.000 -0.1818 -0.7674 -0.3337
  170SOPE  H10119204   4.976   5.779   8.076  2.2643 -0.8739 -2.1525
  170SOPE  C21119205   4.870   5.591   8.021  0.2890  0.4525  0.5659
  170SOPE  H11R19206   4.951   5.522   7.991  1.2205  1.8159 -0.1876
  170SOPE  H11S19207   4.794   5.564   7.944  1.2592  0.3735 -0.3996
  170SOPE  C21219208   4.822   5.567   8.167  0.6958  0.7794  0.5563
  170SOPE  H12R19209   4.754   5.649   8.199  0.1989  0.6874 -0.2300
  170SOPE  H12S19210   4.916   5.563   8.226  1.1956  0.3439 -0.2555
  170SOPE  C21319211   4.746   5.438   8.188  0.5121  0.8937  0.5330
  170SOPE  H13R19212   4.806   5.350   8.157  0.1951  0.7792  0.2418
  170SOPE  H13S19213   4.651   5.438   8.131  0.3877 -2.3052  0.5522
  170SOPE  C21419214   4.702   5.407   8.332 -0.2165  0.1411  0.0081
  170SOPE  H14R19215   4.672   5.302   8.353  2.0754 -0.5146  0.2916
  170SOPE  H14S19216   4.621   5.478   8.361  0.6133  1.1756 -0.1306
  170SOPE  C21519217   4.825   5.421   8.432  0.6280 -0.2644 -0.9362
  170SOPE  H15R19218   4.863   5.525   8.426 -0.0111  0.2309  1.9509
  170SOPE  H15S19219   4.900   5.350   8.391 -1.0322 -1.1112 -2.6665
  170SOPE  C21619220   4.799   5.408   8.588  0.4224 -0.5554  0.7214
  170SOPE  H16R19221   4.774   5.305   8.620  1.8363 -1.4616 -0.9124
  170SOPE  H16S19222   4.709   5.469   8.613  1.3257  0.4380  1.6394
  170SOPE  C21719223   4.913   5.458   8.673 -0.5606  0.4565 -0.0027
  170SOPE  H17R19224   4.922   5.564   8.643 -1.8117  0.8834  1.0153
  170SOPE  H17S19225   5.000   5.396   8.642 -1.0954  0.0819 -0.8133
  170SOPE  C21819226   4.896   5.454   8.818  0.1311  0.2668  0.4619
  170SOPE  H18R19227   4.792   5.484   8.840 -0.2008 -1.0113  0.7037
  170SOPE  H18S19228   4.956   5.535   8.866  0.1740 -0.1354  1.0981
  170SOPE  H18T19229   4.926   5.354   8.856 -2.5899 -0.0479  2.0146
  170SOPE   C3319230   4.999   6.252   7.170  0.1340  0.9887  0.0267
  170SOPE   H3X19231   5.051   6.158   7.144 -0.6381  0.8564 -1.1258
  170SOPE   H3Y19232   4.892   6.229   7.148  0.3403 -0.3861  0.4117
  170SOPE   C3419233   5.047   6.296   7.307 -0.5874 -0.0017  0.7500
  170SOPE   H4X19234   4.990   6.383   7.345 -1.4452 -0.9708  1.7604
  170SOPE   H4Y19235   5.156   6.317   7.303 -0.6905  0.5458  0.6371
  170SOPE   C3519236   5.021   6.190   7.419 -0.8854 -0.1886 -0.3338
  170SOPE   H5X19237   5.065   6.091   7.394 -0.8455 -0.1503 -0.4196
  170SOPE   H5Y19238   4.910   6.187   7.425 -0.8740  1.4754  1.4915
  170SOPE   C3619239   5.063   6.239   7.556 -0.0403  0.1843 -0.5428
  170SOPE   H6X19240   5.031   6.157   7.624 -1.2229  0.8481 -0.2808
  170SOPE   H6Y19241   4.995   6.325   7.577 -0.6054 -0.5179  0.6215
  170SOPE   C3719242   5.213   6.269   7.575  0.0746 -0.6706  0.4890
  170SOPE   H7X19243   5.237   6.372   7.540 -0.8140 -0.5817  0.1021
  170SOPE   H7Y19244   5.267   6.201   7.506  0.2457 -1.8026  1.7011
  170SOPE   C3819245   5.263   6.247   7.712  0.1691 -0.0535  0.3529
  170SOPE   H8X19246   5.372   6.265   7.703  0.4197 -0.5859  1.9016
  170SOPE   H8Y19247   5.244   6.139   7.730  0.4382 -0.2544 -0.5225
  170SOPE   C3919248   5.191   6.335   7.816  0.1309  0.3585  0.7066
  170SOPE   H9X19249   5.082   6.330   7.795  0.5466 -2.6340 -1.3951
  170SOPE   H9Y19250   5.209   6.444   7.809  0.2452  0.2640 -0.8470
  170SOPE  C31019251   5.213   6.290   7.962 -0.4107 -0.0505  0.4347
  170SOPE  H10X19252   5.320   6.293   7.992 -0.8040 -2.5542  2.4315
  170SOPE  H10Y19253   5.184   6.182   7.962 -2.9811  0.5704  0.9835
  170SOPE  C31119254   5.117   6.358   8.062  0.2719  0.3966 -0.8854
  170SOPE  H11X19255   5.022   6.374   8.007 -0.0185 -0.2109 -0.5751
  170SOPE  H11Y19256   5.156   6.461   8.078  1.2517  0.1994 -1.9004
  170SOPE  C31219257   5.093   6.279   8.201 -0.0938  0.5736  0.8442
  170SOPE  H12X19258   5.090   6.169   8.185  0.5502  0.3730  1.9922
  170SOPE  H12Y19259   4.990   6.297   8.240 -0.5262  0.4509 -0.2018
  170SOPE  C31319260   5.206   6.302   8.310  0.3312  0.3012  0.1406
  170SOPE  H13X19261   5.292   6.357   8.267 -1.6411  2.1010 -1.7742
  170SOPE  H13Y19262   5.233   6.202   8.351 -2.8178 -0.0871  1.5948
  170SOPE  C31419263   5.152   6.382   8.431  0.0455 -0.1379 -0.0982
  170SOPE  H14X19264   5.055   6.342   8.470 -1.0384  2.1525 -0.2585
  170SOPE  H14Y19265   5.140   6.487   8.397  1.3989 -0.9299 -3.4025
  170SOPE  C31519266   5.268   6.381   8.540  0.0828 -0.0540  0.5738
  170SOPE  H15X19267   5.363   6.411   8.492 -1.3467  0.5318 -2.0546
  170SOPE  H15Y19268   5.283   6.273   8.562 -1.7673 -0.5528 -0.4410
  170SOPE  C31619269   5.221   6.454   8.661 -0.2643  0.3462 -0.6119
  170SOPE  H16X19270   5.133   6.402   8.705  0.0475  0.6156  0.3609
  170SOPE  H16Y19271   5.176   6.549   8.626 -0.7811 -0.1240 -1.2435
  170SOPE  C31719272   5.327   6.461   8.770 -0.2792 -0.9162  0.1722
  170SOPE  H17X19273   5.422   6.503   8.731 -1.1282  0.7607 -0.2129
  170SOPE  H17Y19274   5.337   6.367   8.829 -1.2400 -0.5116  1.0135
  170SOPE  C31819275   5.273   6.565   8.872 -0.2872  0.1803  0.3034
  170SOPE  H18X19276   5.172   6.529   8.900  0.6025 -1.0217  2.1187
  170SOPE  H18Y19277   5.266   6.662   8.818  0.9927 -0.1204 -0.4575
  170SOPE  H18Z19278   5.340   6.582   8.958 -0.9024  1.9081  0.4822
  171SOPE     N19279   4.336   1.250   6.357  0.3981 -0.1886 -0.2852
  171SOPE   HN119280   4.425   1.269   6.308  1.0506 -1.3702  0.3871
  171SOPE   HN219281   4.290   1.174   6.304  0.4004 -0.1032 -0.4091
  171SOPE   HN319282   4.271   1.330   6.344  0.1327 -0.6668 -2.0811
  171SOPE   C1219283   4.339   1.207   6.497  0.7156 -0.2449 -0.0022
  171SOPE  H12A19284   4.417   1.261   6.554  0.7031  1.4399 -1.5144
  171SOPE  H12B19285   4.354   1.097   6.502  0.4784 -0.3374 -1.0093
  171SOPE   C1119286   4.200   1.245   6.560 -0.2429 -0.5153 -0.2437
  171SOPE  H11A19287   4.192   1.198   6.660 -0.1575  0.4005  0.2029
  171SOPE  H11B19288   4.117   1.200   6.502  0.8082  0.7333 -2.9126
  171SOPE     P19289   4.103   1.479   6.474 -0.1937 -0.0954  0.1784
  171SOPE   O1319290   3.964   1.468   6.511  1.3744  0.0061  0.1996
  171SOPE   O1419291   4.133   1.431   6.337  0.7104 -0.0310 -0.2957
  171SOPE   O1219292   4.190   1.388   6.573 -0.4002  0.0414 -0.1906
  171SOPE   O1119293   4.147   1.636   6.495 -0.1903 -0.0893 -0.1161
  171SOPE    C119294   4.274   1.657   6.558 -0.5774 -0.2096 -0.7954
  171SOPE    HA19295   4.344   1.727   6.507 -1.2144 -0.6913 -2.4080
  171SOPE    HB19296   4.335   1.564   6.557  0.2759  0.2930  0.7976
  171SOPE    C219297   4.262   1.707   6.704 -0.3959  0.0334 -0.2885
  171SOPE    HS19298   4.367   1.725   6.736 -1.1423  1.0487  1.8315
  171SOPE   O2119299   4.195   1.617   6.792 -0.2234  0.1771  0.0069
  171SOPE   C2119300   4.263   1.503   6.818 -0.2438 -1.2563 -0.3209
  171SOPE   O2219301   4.382   1.486   6.796  0.4334  0.3587 -0.2078
  171SOPE   C2219302   4.168   1.408   6.885 -0.5681  0.0487 -0.4035
  171SOPE   H2R19303   4.146   1.330   6.809  3.3697  0.0836 -1.8389
  171SOPE   H2S19304   4.069   1.455   6.904  1.0970  4.0201 -0.5743
  171SOPE    C319305   4.197   1.846   6.702 -0.4445 -0.1737 -0.0249
  171SOPE    HX19306   4.090   1.821   6.686 -0.0625 -2.2187  0.3758
  171SOPE    HY19307   4.233   1.906   6.615 -0.9792  2.4873  1.4955
  171SOPE   O3119308   4.219   1.913   6.828  0.0598 -0.4734 -0.0776
  171SOPE   C3119309   4.340   1.967   6.846  0.3193 -0.1642  0.2328
  171SOPE   O3219310   4.430   1.967   6.767 -0.0300 -0.0396  0.0590
  171SOPE   C3219311   4.350   2.011   6.997  0.3685 -0.3897  0.1834
  171SOPE   H2X19312   4.256   2.058   7.031  0.9097  0.1364  0.9893
  171SOPE   H2Y19313   4.440   2.077   7.005 -0.0810  0.3450 -0.7211
  171SOPE   C2319314   4.224   1.351   7.021 -0.1533  0.5519 -0.0808
  171SOPE   H3R19315   4.201   1.422   7.103 -1.3630 -0.7760  0.7748
  171SOPE   H3S19316   4.334   1.331   7.013 -0.3168  0.2642 -2.2001
  171SOPE   C2419317   4.155   1.209   7.048 -0.1773 -0.3309 -0.1377
  171SOPE   H4R19318   4.191   1.146   6.964  0.9572  1.6648 -1.2460
  171SOPE   H4S19319   4.195   1.169   7.144 -3.0057 -0.5745  1.0157
  171SOPE   C2519320   4.002   1.216   7.064  0.6081  0.4499 -0.1460
  171SOPE   H5R19321   3.956   1.293   6.999  1.2185  1.3544  0.4699
  171SOPE   H5S19322   3.972   1.119   7.019  0.9964  0.3711 -0.2337
  171SOPE   C2619323   3.943   1.224   7.203 -0.1964 -0.0379  0.1361
  171SOPE   H6R19324   3.996   1.303   7.261  1.4821 -1.1048  0.0917
  171SOPE   H6S19325   3.835   1.253   7.197  0.3520  2.0363 -0.4921
  171SOPE   C2719326   3.964   1.094   7.288 -0.0260 -0.3629  0.3585
  171SOPE   H7R19327   3.878   1.028   7.264 -1.7510  1.2705  1.7705
  171SOPE   H7S19328   4.065   1.051   7.270 -0.1902  0.1520 -2.1940
  171SOPE   C2819329   3.945   1.111   7.441  0.8184  0.3584 -0.5607
  171SOPE   H8R19330   3.851   1.170   7.453  0.4346 -0.3285 -0.1464
  171SOPE   H8S19331   3.925   1.012   7.488  1.7877  0.6428  0.4932
  171SOPE   C2919332   4.058   1.185   7.508 -0.1211 -0.5629 -0.8168
  171SOPE   H9119333   4.154   1.133   7.520  0.4681  0.6319 -0.0729
  171SOPE  C21019334   4.052   1.310   7.554  0.0549  0.5188  0.7350
  171SOPE  H10119335   4.149   1.348   7.589  0.1369 -0.6814  1.8841
  171SOPE  C21119336   3.934   1.403   7.554  0.0564  0.3950  0.2451
  171SOPE  H11R19337   3.878   1.379   7.461 -0.3376 -3.2470  1.2770
  171SOPE  H11S19338   3.962   1.508   7.529  1.4272 -0.2665 -1.1780
  171SOPE  C21219339   3.839   1.366   7.677 -0.2051  0.9523  1.0474
  171SOPE  H12R19340   3.830   1.256   7.679  0.8931  0.7174 -2.1565
  171SOPE  H12S19341   3.737   1.406   7.659 -0.1718  0.3491 -0.6003
  171SOPE  C21319342   3.884   1.419   7.808  0.1177  0.3772  0.0249
  171SOPE  H13R19343   3.950   1.508   7.796  1.0538 -0.4475 -1.2270
  171SOPE  H13S19344   3.955   1.344   7.848 -0.4321 -0.9411 -1.3757
  171SOPE  C21419345   3.760   1.455   7.890  0.4034  0.3886 -0.3021
  171SOPE  H14R19346   3.692   1.369   7.905  0.3402  0.4271 -0.3652
  171SOPE  H14S19347   3.692   1.521   7.832 -2.9045 -3.6047 -1.4210
  171SOPE  C21519348   3.785   1.504   8.032 -0.8216  0.6229  0.2922
  171SOPE  H15R19349   3.844   1.594   8.005 -1.0683  0.1835 -1.9133
  171SOPE  H15S19350   3.843   1.433   8.094  0.1578  1.1178 -0.0471
  171SOPE  C21619351   3.658   1.544   8.104 -0.3452  0.3942 -0.5943
  171SOPE  H16R19352   3.584   1.462   8.103  0.4202 -0.3105 -1.3183
  171SOPE  H16S19353   3.608   1.626   8.047 -0.5191 -0.6996 -2.0678
  171SOPE  C21719354   3.689   1.592   8.247  0.4886 -0.4065 -0.2952
  171SOPE  H17R19355   3.745   1.688   8.242 -0.7398  0.3124 -0.5265
  171SOPE  H17S19356   3.761   1.515   8.282  0.9631  0.1160 -0.0968
  171SOPE  C21819357   3.581   1.610   8.351  0.3331  0.8010  0.0769
  171SOPE  H18R19358   3.622   1.630   8.452 -1.1577 -0.2630  0.9289
  171SOPE  H18S19359   3.509   1.526   8.342  0.7813  0.1727  1.8697
  171SOPE  H18T19360   3.528   1.704   8.326  1.2725  2.0095  2.3331
  171SOPE   C3319361   4.356   1.888   7.095 -0.1859 -0.1801 -0.8475
  171SOPE   H3X19362   4.448   1.829   7.072  0.6512  0.1016  1.4423
  171SOPE   H3Y19363   4.262   1.830   7.083  0.6901 -1.2446 -3.1903
  171SOPE   C3419364   4.381   1.927   7.241 -0.3889 -0.3339  0.2449
  171SOPE   H4X19365   4.370   2.037   7.249  0.4994 -0.1995 -0.2231
  171SOPE   H4Y19366   4.490   1.921   7.262  0.3718  4.3784 -1.0069
  171SOPE   C3519367   4.300   1.859   7.347 -0.4594  0.2597 -0.2730
  171SOPE   H5X19368   4.324   1.750   7.343  3.9555  1.1071 -1.3010
  171SOPE   H5Y19369   4.189   1.867   7.347 -0.4556  0.5610  1.0556
  171SOPE   C3619370   4.326   1.915   7.487 -0.3654 -0.1783 -0.1257
  171SOPE   H6X19371   4.303   2.023   7.500  1.2492 -0.0186  1.7887
  171SOPE   H6Y19372   4.429   1.895   7.522 -0.5933 -0.0587  0.6494
  171SOPE   C3719373   4.231   1.844   7.589 -0.1612 -0.2657  0.5184
  171SOPE   H7X19374   4.238   1.733   7.581 -0.4611 -0.1630 -2.4805
  171SOPE   H7Y19375   4.128   1.878   7.567 -0.4600 -1.6412 -0.3415
  171SOPE   C3819376   4.253   1.881   7.729 -0.0991 -0.1689  0.2658
  171SOPE   H8X19377   4.228   1.989   7.733 -3.0312 -0.5865 -2.4409
  171SOPE   H8Y19378   4.354   1.869   7.771 -0.3137  0.8934  1.1302
  171SOPE   C3919379   4.153   1.809   7.828  0.4241  0.2008 -0.2414
  171SOPE   H9X19380   4.150   1.698   7.819 -0.0885  0.1658  0.2640
  171SOPE   H9Y19381   4.049   1.841   7.804 -0.1294 -1.0034  0.4024
  171SOPE  C31019382   4.172   1.842   7.978 -0.7750 -0.5418  0.0013
  171SOPE  H10X19383   4.175   1.953   7.980 -1.2689 -0.5313  0.9456
  171SOPE  H10Y19384   4.272   1.800   8.006 -0.5592  0.4013  0.6879
  171SOPE  C31119385   4.056   1.795   8.072 -0.2638 -1.1853 -0.3401
  171SOPE  H11X19386   4.058   1.684   8.078  0.4798 -1.2040 -0.9040
  171SOPE  H11Y19387   3.966   1.840   8.024 -0.6397 -0.2515  1.1701
  171SOPE  C31219388   4.078   1.865   8.212 -0.2719  0.0056  0.2522
  171SOPE  H12X19389   4.081   1.976   8.197 -1.3753  0.0281  0.1464
  171SOPE  H12Y19390   4.183   1.853   8.247  0.2956  2.2574 -0.4887
  171SOPE  C31319391   3.975   1.835   8.323  0.0090  0.1105 -0.8824
  171SOPE  H13X19392   3.965   1.726   8.346  0.2737 -0.1522 -1.9543
  171SOPE  H13Y19393   3.878   1.865   8.276 -0.9429 -1.4187  0.0117
  171SOPE  C31419394   3.985   1.905   8.460 -0.5269  0.1811 -0.0910
  171SOPE  H14X19395   4.010   2.011   8.434 -0.4966  0.0947 -0.4093
  171SOPE  H14Y19396   4.061   1.873   8.535 -0.5839  1.0271  0.3434
  171SOPE  C31519397   3.848   1.898   8.528 -0.2069 -0.2741 -0.0788
  171SOPE  H15X19398   3.811   1.795   8.504  3.2074 -1.7140  0.2226
  171SOPE  H15Y19399   3.783   1.974   8.481  0.8754 -0.0101 -1.2080
  171SOPE  C31619400   3.835   1.929   8.680 -0.0348  0.5061 -0.2233
  171SOPE  H16X19401   3.858   2.037   8.686 -2.4479  1.0041  1.2329
  171SOPE  H16Y19402   3.918   1.873   8.729 -0.5548 -0.0975 -0.0275
  171SOPE  C31719403   3.697   1.888   8.743 -0.2562  0.1876  0.3225
  171SOPE  H17X19404   3.615   1.923   8.676  2.7349  3.3179 -2.0204
  171SOPE  H17Y19405   3.686   1.942   8.840 -0.2968  0.2642  0.2757
  171SOPE  C31819406   3.665   1.738   8.764 -0.1517  0.3494  0.0800
  171SOPE  H18X19407   3.693   1.669   8.682  2.4863  0.1750  1.0229
  171SOPE  H18Y19408   3.559   1.729   8.796 -0.9922  2.7136 -1.6899
  171SOPE  H18Z19409   3.726   1.702   8.849 -2.3377 -2.8522  0.4894
  172SOPE     N19410   5.163   3.267   6.485  0.3591  0.0505  0.2286
  172SOPE   HN119411   5.137   3.364   6.511  0.6158  0.2698 -0.3112
  172SOPE   HN219412   5.264   3.261   6.510  1.0583  2.0784 -1.7525
  172SOPE   HN319413   5.161   3.260   6.382 -0.9681 -1.4737  0.3295
  172SOPE   C1219414   5.079   3.157   6.552  0.2418 -0.5528  0.0779
  172SOPE  H12A19415   5.117   3.137   6.654  1.0831 -0.5163 -0.2184
  172SOPE  H12B19416   5.095   3.065   6.491  0.0795 -0.6067  0.1162
  172SOPE   C1119417   4.932   3.202   6.572 -0.0990 -0.5000 -0.2839
  172SOPE  H11A19418   4.898   3.132   6.652 -0.1149 -0.6430 -0.4151
  172SOPE  H11B19419   4.881   3.173   6.478 -0.6502  1.4693 -0.6509
  172SOPE     P19420   4.772   3.381   6.647 -0.7735  0.2925 -0.3842
  172SOPE   O1319421   4.673   3.308   6.564 -0.1049  0.3921  0.1295
  172SOPE   O1419422   4.765   3.526   6.658  0.5998  0.2048 -0.5602
  172SOPE   O1219423   4.916   3.345   6.598 -0.0148  0.1272 -0.0529
  172SOPE   O1119424   4.766   3.308   6.792 -0.4969 -0.4064 -0.3521
  172SOPE    C119425   4.871   3.324   6.888  0.1492  0.3055  0.2356
  172SOPE    HA19426   4.954   3.386   6.847 -1.2945  1.6790 -0.7466
  172SOPE    HB19427   4.915   3.223   6.902  1.1818  0.7328  0.1699
  172SOPE    C219428   4.837   3.367   7.032  0.0638  0.5187  0.0025
  172SOPE    HS19429   4.938   3.387   7.075  0.6768 -0.9598 -0.6751
  172SOPE   O2119430   4.766   3.261   7.089  0.4273  0.3083 -0.4134
  172SOPE   C2119431   4.777   3.243   7.223 -0.3906  0.1996 -0.4711
  172SOPE   O2219432   4.856   3.295   7.301  0.3039 -0.0149  0.3219
  172SOPE   C2219433   4.694   3.120   7.269 -0.2821 -0.1853  0.2578
  172SOPE   H2R19434   4.760   3.031   7.279 -0.3664 -0.3161 -0.2744
  172SOPE   H2S19435   4.623   3.093   7.187 -0.6455  0.7779  0.2431
  172SOPE    C319436   4.749   3.496   7.030 -0.7740 -0.0078 -0.2846
  172SOPE    HX19437   4.666   3.456   6.968 -0.9676 -1.0281  0.6075
  172SOPE    HY19438   4.804   3.574   6.972  1.6619  0.5586  2.5358
  172SOPE   O3119439   4.703   3.540   7.162  0.1281 -0.1338  0.3551
  172SOPE   C3119440   4.785   3.626   7.221  0.1695 -0.3474  0.5904
  172SOPE   O3219441   4.895   3.663   7.179 -0.8161 -0.2869  0.0807
  172SOPE   C3219442   4.723   3.680   7.342  0.5083 -0.0556 -0.0602
  172SOPE   H2X19443   4.695   3.786   7.320 -2.3741 -1.0798 -1.9567
  172SOPE   H2Y19444   4.797   3.679   7.424  3.0885  2.0216 -2.1818
  172SOPE   C2319445   4.604   3.136   7.393 -0.0226 -0.3108 -0.5267
  172SOPE   H3R19446   4.531   3.055   7.412  1.5026 -1.2082  2.2339
  172SOPE   H3S19447   4.555   3.232   7.370  0.1764 -0.5290 -1.9761
  172SOPE   C2419448   4.682   3.160   7.530  0.2973  0.7502 -0.0148
  172SOPE   H4R19449   4.759   3.080   7.538 -0.2403 -0.0455 -2.0953
  172SOPE   H4S19450   4.743   3.253   7.530 -1.5996  2.0504 -0.8513
  172SOPE   C2519451   4.588   3.163   7.648 -0.6588 -0.6619 -0.3771
  172SOPE   H5R19452   4.520   3.250   7.632 -1.0271 -0.1506  3.0995
  172SOPE   H5S19453   4.536   3.065   7.653  1.3838 -1.9425 -2.5769
  172SOPE   C2619454   4.672   3.190   7.776  0.6000  0.4680 -0.1222
  172SOPE   H6R19455   4.748   3.271   7.766 -1.9192  2.7475 -2.2097
  172SOPE   H6S19456   4.598   3.215   7.855  0.0230 -1.4270 -0.0199
  172SOPE   C2719457   4.741   3.054   7.812  0.2761 -0.8567  0.1954
  172SOPE   H7R19458   4.671   2.968   7.804  1.8681 -2.1861  0.0239
  172SOPE   H7S19459   4.825   3.036   7.741 -0.6385 -0.4812 -1.0196
  172SOPE   C2819460   4.785   3.058   7.968 -0.4112  0.8875  0.6246
  172SOPE   H8R19461   4.860   2.976   7.977  0.5739  1.3888 -2.0005
  172SOPE   H8S19462   4.840   3.153   7.982  2.4937 -0.5023 -0.5120
  172SOPE   C2919463   4.671   3.055   8.071  0.3896 -0.2082  0.3200
  172SOPE   H9119464   4.610   3.146   8.064  0.3055 -0.2539  0.4570
  172SOPE  C21019465   4.639   2.958   8.160 -0.0598 -0.5335 -0.1836
  172SOPE  H10119466   4.566   2.985   8.237 -1.8347 -2.0606 -1.2665
  172SOPE  C21119467   4.705   2.824   8.187  0.2283 -0.0235 -0.6935
  172SOPE  H11R19468   4.746   2.834   8.290 -0.9085 -1.5401 -0.0525
  172SOPE  H11S19469   4.785   2.797   8.114  0.9254 -0.5009  0.2208
  172SOPE  C21219470   4.607   2.700   8.198 -0.4327 -0.1064 -0.0579
  172SOPE  H12R19471   4.570   2.690   8.094 -0.3442 -0.2631 -0.0757
  172SOPE  H12S19472   4.521   2.718   8.266 -1.2801  0.4489 -1.2322
  172SOPE  C21319473   4.682   2.571   8.253  0.4137  0.1937  0.5491
  172SOPE  H13R19474   4.714   2.587   8.359  2.2417  0.0787  0.0435
  172SOPE  H13S19475   4.773   2.554   8.193  2.4287  0.2921  3.3925
  172SOPE  C21419476   4.602   2.444   8.243 -0.2744  0.5971 -0.3010
  172SOPE  H14R19477   4.542   2.438   8.149 -0.7549 -0.0127  0.0387
  172SOPE  H14S19478   4.534   2.433   8.330 -0.3334 -0.4956 -0.4672
  172SOPE  C21519479   4.692   2.315   8.248 -0.0393 -0.2385 -0.0297
  172SOPE  H15R19480   4.751   2.305   8.342 -0.7983 -0.9534  0.3888
  172SOPE  H15S19481   4.761   2.314   8.161 -1.8653  0.3246 -1.5697
  172SOPE  C21619482   4.630   2.177   8.239  0.7858  0.0864  0.0529
  172SOPE  H16R19483   4.707   2.104   8.272  0.7124 -0.7501 -1.5397
  172SOPE  H16S19484   4.596   2.159   8.135  2.6714 -0.3399 -0.5250
  172SOPE  C21719485   4.502   2.165   8.320  0.8251 -0.1111  0.1253
  172SOPE  H17R19486   4.428   2.246   8.301 -0.9811 -1.7228 -0.0127
  172SOPE  H17S19487   4.525   2.179   8.428 -0.4343 -0.0863  0.4134
  172SOPE  C21819488   4.434   2.031   8.307  0.2505 -0.5250  0.1229
  172SOPE  H18R19489   4.492   1.945   8.347 -0.9761 -0.2749  2.6691
  172SOPE  H18S19490   4.398   2.016   8.203  0.8253  0.9793 -0.3261
  172SOPE  H18T19491   4.345   2.028   8.374  0.3020 -0.1139  0.2132
  172SOPE   C3319492   4.592   3.609   7.391 -0.0223  0.1087 -0.1762
  172SOPE   H3X19493   4.613   3.500   7.391 -0.9689 -0.0887  0.5412
  172SOPE   H3Y19494   4.511   3.629   7.318 -0.3123  0.2742  0.1843
  172SOPE   C3419495   4.541   3.654   7.532 -0.0354  0.2049  0.3356
  172SOPE   H4X19496   4.520   3.763   7.525  0.7555  0.5423  2.3432
  172SOPE   H4Y19497   4.626   3.633   7.601  0.8320 -0.1748 -0.8289
  172SOPE   C3519498   4.411   3.581   7.568 -0.3092  0.0624 -0.0729
  172SOPE   H5X19499   4.440   3.474   7.564  0.0885  0.1987 -1.7190
  172SOPE   H5Y19500   4.325   3.595   7.499 -0.6822  1.2867  0.6050
  172SOPE   C3619501   4.379   3.617   7.717  0.8078  0.1421  0.1636
  172SOPE   H6X19502   4.270   3.613   7.742  0.6968  1.8771  0.0768
  172SOPE   H6Y19503   4.402   3.725   7.732 -1.7551  1.0152 -1.4790
  172SOPE   C3719504   4.464   3.536   7.812 -0.1582  0.1946  0.4270
  172SOPE   H7X19505   4.555   3.499   7.760 -0.9065 -0.7619 -0.2487
  172SOPE   H7Y19506   4.413   3.440   7.838 -2.8979  1.8351  1.5189
  172SOPE   C3819507   4.501   3.595   7.949  0.2076  0.5400 -0.4856
  172SOPE   H8X19508   4.411   3.641   7.994 -0.4765 -0.7799 -0.4505
  172SOPE   H8Y19509   4.580   3.668   7.921 -0.8296  0.9222 -2.5928
  172SOPE   C3919510   4.559   3.490   8.047 -0.1331  0.0272  0.5713
  172SOPE   H9X19511   4.660   3.461   8.012 -1.1714 -1.3475 -1.5427
  172SOPE   H9Y19512   4.499   3.398   8.026  1.2795 -0.3017 -2.5517
  172SOPE  C31019513   4.561   3.535   8.192  0.0835 -0.5285  0.0434
  172SOPE  H10X19514   4.455   3.555   8.219 -0.1827  0.5054 -1.6453
  172SOPE  H10Y19515   4.613   3.633   8.200 -1.5232  0.7229 -3.0623
  172SOPE  C31119516   4.619   3.433   8.287  0.5068 -0.0757  0.6220
  172SOPE  H11X19517   4.721   3.417   8.247  1.2052 -2.1128  2.9874
  172SOPE  H11Y19518   4.557   3.342   8.271 -1.0371  0.8061  1.3226
  172SOPE  C31219519   4.618   3.475   8.431  0.1397  0.7158 -0.1153
  172SOPE  H12X19520   4.521   3.523   8.455 -0.4631  0.0600 -1.1595
  172SOPE  H12Y19521   4.691   3.556   8.451 -0.4342  0.9294  1.2543
  172SOPE  C31319522   4.641   3.352   8.526  0.4211  0.0727 -0.1248
  172SOPE  H13X19523   4.729   3.289   8.499 -0.0769 -0.9017  0.4692
  172SOPE  H13Y19524   4.555   3.284   8.508  1.1485 -0.2395 -2.8312
  172SOPE  C31419525   4.654   3.383   8.678  0.4890  0.7963  0.5062
  172SOPE  H14X19526   4.745   3.446   8.688 -0.2886  1.7798  1.8727
  172SOPE  H14Y19527   4.672   3.289   8.733 -2.0830  0.8536  1.6109
  172SOPE  C31519528   4.527   3.452   8.735 -0.7824  0.0867  0.3192
  172SOPE  H15X19529   4.442   3.383   8.715 -1.0888  0.5692 -0.0546
  172SOPE  H15Y19530   4.505   3.549   8.686  1.9658  2.1106  2.7229
  172SOPE  C31619531   4.539   3.480   8.878 -0.3837  0.0730 -0.1216
  172SOPE  H16X19532   4.635   3.533   8.895 -1.3960  1.3307  2.1832
  172SOPE  H16Y19533   4.549   3.384   8.933 -1.6810  0.4806  0.8858
  172SOPE  C31719534   4.427   3.569   8.931  0.4915  0.2199 -0.0352
  172SOPE  H17X19535   4.426   3.558   9.041  0.1587 -1.5428 -0.1757
  172SOPE  H17Y19536   4.329   3.523   8.906  1.0158 -2.4495  2.3477
  172SOPE  C31819537   4.441   3.714   8.898  0.0166 -0.2105  0.7121
  172SOPE  H18X19538   4.343   3.758   8.926  1.6714  3.2455  1.7313
  172SOPE  H18Y19539   4.451   3.738   8.790  0.6583 -1.0599  0.5696
  172SOPE  H18Z19540   4.526   3.748   8.960  1.5819 -4.1040  0.9560
  173SAPI   C1219541   0.649   0.722  10.841  0.0600 -0.6609  0.1262
  173SAPI    H219542   0.629   0.639  10.769  2.2330  1.6802 -3.5138
  173SAPI    O219543   0.573   0.720  10.957 -0.0504 -0.5936 -0.2062
  173SAPI   HO219544   0.490   0.762  10.934 -0.0444 -0.2201  0.4266
  173SAPI   C1319545   0.794   0.698  10.869 -0.6597  0.7267  0.7312
  173SAPI    H319546   0.849   0.718  10.774 -1.3410  2.6596  0.7069
  173SAPI    O319547   0.808   0.559  10.913 -0.5669  0.2064  0.0427
  173SAPI   HO319548   0.808   0.513  10.829 -1.8111 -1.6062  0.9851
  173SAPI   C1419549   0.844   0.804  10.966 -0.2183  0.7559  0.0067
  173SAPI    H419550   0.784   0.815  11.059  0.0677 -0.9066  0.4132
  173SAPI    O419551   0.984   0.774  11.001  0.2607  0.6089  0.2140
  173SAPI   HO419552   0.998   0.818  11.086 -1.1008 -0.4613  1.0385
  173SAPI   C1519553   0.830   0.940  10.904 -0.1370 -0.4957 -0.1796
  173SAPI    H519554   0.885   0.949  10.809  0.3662 -0.0419  0.1520
  173SAPI    O519555   0.885   1.032  10.996 -0.4883  0.2914  0.4420
  173SAPI   HO519556   0.943   1.083  10.939 -1.8610 -1.1287 -2.4222
  173SAPI   C1619557   0.690   0.972  10.872  0.2372  0.1012 -0.5834
  173SAPI    H619558   0.615   0.971  10.954  0.5801  0.2306 -0.2653
  173SAPI    O619559   0.682   1.093  10.798  0.1038 -0.7341 -0.5235
  173SAPI   HO619560   0.753   1.100  10.734  0.9957  0.8490  0.5910
  173SAPI   C1119561   0.633   0.858  10.779 -0.0727  0.4332 -0.4456
  173SAPI    H119562   0.684   0.850  10.681 -0.1669 -0.2911 -0.4428
  173SAPI     P19563   0.430   0.903  10.603 -0.1320 -0.1454 -0.2306
  173SAPI   O1319564   0.533   0.962  10.514  0.7186  0.1094 -0.2211
  173SAPI   O1419565   0.302   0.978  10.612 -0.2837  0.3694 -0.1059
  173SAPI   O1219566   0.494   0.882  10.754  0.2640  0.1581 -0.8795
  173SAPI   O1119567   0.399   0.751  10.556  0.3697  0.0263 -0.6858
  173SAPI    C119568   0.274   0.681  10.540  0.1051 -0.3584 -0.8136
  173SAPI    HA19569   0.257   0.605  10.619  0.1674  0.3376 -0.1201
  173SAPI    HB19570   0.186   0.746  10.560 -0.2148 -1.0315  0.0251
  173SAPI    C219571   0.252   0.620  10.405 -0.6634  0.4157  0.1178
  173SAPI    HS19572   0.330   0.542  10.393 -0.0083  1.0049  0.5138
  173SAPI   O2119573   0.259   0.726  10.308 -0.2132 -0.0591 -0.1986
  173SAPI   C2119574   0.379   0.758  10.257 -0.4057 -1.0868 -0.6191
  173SAPI   O2219575   0.481   0.691  10.266  0.3583  0.1023 -0.4768
  173SAPI   C2219576   0.357   0.876  10.174  0.2169  0.1365  0.8979
  173SAPI   H2R19577   0.249   0.900  10.158  0.2588  0.0293  0.4206
  173SAPI   H2S19578   0.400   0.965  10.223  1.4375  0.3194 -0.4605
  173SAPI    C319579   0.123   0.529  10.383  0.3486 -0.0750  0.3616
  173SAPI    HX19580   0.032   0.580  10.423 -1.2562 -1.5224 -1.2476
  173SAPI    HY19581   0.118   0.444  10.456 -1.2314  0.6243  1.1395
  173SAPI   O3119582   0.113   0.498  10.244 -0.3144 -0.6791  0.7653
  173SAPI   C3119583   0.032   0.391  10.224  0.0143  0.5470  0.2634
  173SAPI   O3219584  -0.024   0.333  10.313 -0.1817  0.8113  0.1685
  173SAPI   C3219585   0.025   0.358  10.079 -0.0217  0.3640 -0.0006
  173SAPI   H2X19586   0.092   0.269  10.074 -2.1513 -1.2998 -0.5803
  173SAPI   H2Y19587   0.075   0.434  10.015 -2.8599  1.5760 -0.9659
  173SAPI   C2319588   0.422   0.857  10.033  0.5903 -0.0217 -0.2493
  173SAPI   H3R19589   0.436   0.751  10.005 -3.6881 -0.0509 -3.1807
  173SAPI   H3S19590   0.523   0.903  10.040  1.4793 -1.9896  0.6682
  173SAPI   C2419591   0.340   0.915   9.919  0.1944 -0.7726  0.0526
  173SAPI   H4R19592   0.322   1.025   9.913 -1.2453 -1.0100 -0.5073
  173SAPI   H4S19593   0.241   0.865   9.924  0.3971 -1.2848 -0.8378
  173SAPI   C2519594   0.406   0.870   9.798 -0.3007  0.2342  0.4905
  173SAPI   H5R19595   0.487   0.796   9.801  1.0707  1.5830 -1.2190
  173SAPI   C2619596   0.352   0.889   9.669 -0.3593  0.8914  0.1073
  173SAPI   H6R19597   0.413   0.848   9.587  2.7786  0.7732  2.2989
  173SAPI   C2719598   0.226   0.971   9.643 -0.0320 -0.0276  0.0910
  173SAPI   H7R19599   0.235   1.042   9.727  2.1475  0.6139 -0.6086
  173SAPI   H7S19600   0.137   0.905   9.653 -0.6551  0.2160 -2.8136
  173SAPI   C2819601   0.231   1.053   9.513  0.5610  0.1989 -0.1471
  173SAPI   H8R19602   0.305   1.134   9.508  3.7557 -2.4584  0.6236
  173SAPI   C2919603   0.150   1.032   9.405  0.0334  0.0478 -1.1216
  173SAPI   H9R19604   0.164   1.098   9.318  1.4123  0.4549 -0.6162
  173SAPI  C21019605   0.043   0.927   9.393  0.1627  0.1527  0.5814
  173SAPI  H10R19606  -0.013   0.957   9.302 -2.1863  2.3803  2.6426
  173SAPI  H10S19607  -0.034   0.942   9.471  1.3683  0.0389  1.8401
  173SAPI  C21119608   0.071   0.780   9.391 -0.2561 -0.4590  0.0759
  173SAPI  H11R19609   0.117   0.734   9.480  0.0235  0.6581  0.5236
  173SAPI  C21219610   0.035   0.690   9.298 -0.6837 -0.0036 -0.1431
  173SAPI  H12R19611   0.076   0.588   9.302  0.2407  0.2953 -1.3396
  173SAPI  C21319612  -0.036   0.719   9.171 -0.0253  0.0834  0.0024
  173SAPI  H13R19613  -0.143   0.734   9.197  0.3888 -0.0721  1.9646
  173SAPI  H13S19614  -0.029   0.630   9.105 -0.4363  0.5110 -0.6286
  173SAPI  C21419615   0.005   0.831   9.079  0.2015  0.0404  0.4862
  173SAPI  H14R19616   0.113   0.848   9.089  0.4791 -1.5680  0.6153
  173SAPI  C21519617  -0.063   0.883   8.976  0.5417 -0.3183 -0.0835
  173SAPI  H15R19618  -0.023   0.975   8.933 -2.4777  0.5806 -1.2265
  173SAPI  C21619619  -0.202   0.846   8.922  0.2387  1.0013  0.2818
  173SAPI  H16R19620  -0.269   0.933   8.905 -1.0507 -0.1932 -1.0508
  173SAPI  H16S19621  -0.254   0.781   8.996  1.3651  0.0290  0.2447
  173SAPI  C21719622  -0.183   0.764   8.789 -0.0120 -0.3752  0.1184
  173SAPI  H17R19623  -0.278   0.710   8.767 -1.2226  1.7718 -0.2254
  173SAPI  H17S19624  -0.112   0.680   8.795  1.3345  0.4107 -2.9380
  173SAPI  C21819625  -0.151   0.852   8.660  0.1795 -0.5015  0.3760
  173SAPI  H18R19626  -0.047   0.828   8.632 -0.3876 -1.8951 -0.6708
  173SAPI  H18S19627  -0.154   0.954   8.702 -1.1630 -1.2764  2.3142
  173SAPI  C21919628  -0.237   0.826   8.535 -0.9114  0.4379  0.5138
  173SAPI  H19R19629  -0.342   0.827   8.572 -0.7359  1.1074  1.0332
  173SAPI  H19S19630  -0.214   0.722   8.505 -2.2128 -0.5693  2.7382
  173SAPI  C22019631  -0.201   0.929   8.428 -0.1469 -0.5219  0.7965
  173SAPI  H20R19632  -0.095   0.961   8.422 -0.6371  1.3296  1.4257
  173SAPI  H20S19633  -0.256   1.025   8.430  0.4374  0.2474 -4.7123
  173SAPI  H20T19634  -0.216   0.888   8.326  0.3224  1.8056 -0.2580
  173SAPI   C3319635  -0.114   0.316  10.025  0.3502  0.3635 -0.4748
  173SAPI   H3X19636  -0.186   0.401  10.030 -0.7610 -0.6040  1.5818
  173SAPI   H3Y19637  -0.158   0.233  10.085  2.4501  0.4316  1.2937
  173SAPI   C3419638  -0.103   0.267   9.879  0.4254  0.1742  1.2373
  173SAPI   H4X19639  -0.041   0.175   9.882 -0.1520 -0.2804  0.0172
  173SAPI   H4Y19640  -0.066   0.350   9.815 -1.5460  0.8333  0.8677
  173SAPI   C3519641  -0.244   0.236   9.818  0.2646 -0.5173  0.1894
  173SAPI   H5X19642  -0.286   0.338   9.799  1.0357 -0.5638 -2.0716
  173SAPI   H5Y19643  -0.313   0.179   9.882 -0.9323  0.4211 -0.2170
  173SAPI   C3619644  -0.256   0.154   9.687  0.3514 -0.7774 -0.5615
  173SAPI   H6X19645  -0.366   0.139   9.678  0.1763  1.0468 -2.2574
  173SAPI   H6Y19646  -0.196   0.064   9.711  1.0771  0.0971  1.0232
  173SAPI   C3719647  -0.208   0.220   9.557 -0.1868 -0.5739 -0.5731
  173SAPI   H7X19648  -0.253   0.322   9.556 -0.5722 -0.7322  0.2844
  173SAPI   H7Y19649  -0.251   0.153   9.480 -3.0446 -1.3790  1.5645
  173SAPI   C3819650  -0.059   0.211   9.542 -0.8728  0.2741 -0.2137
  173SAPI   H8X19651  -0.014   0.129   9.602 -0.1589 -0.9727 -2.3314
  173SAPI   H8Y19652  -0.005   0.297   9.586 -1.2872 -0.0377  0.9561
  173SAPI   C3919653  -0.004   0.184   9.400  0.0033  0.0085 -0.1642
  173SAPI   H9X19654  -0.042   0.087   9.361  0.4469 -0.1512 -0.2151
  173SAPI   H9Y19655   0.106   0.168   9.391 -0.0014  0.1969 -0.5803
  173SAPI  C31019656  -0.055   0.293   9.303  0.0657 -0.2980  0.5405
  173SAPI  H10X19657   0.010   0.381   9.323  1.7993 -1.3385 -0.3079
  173SAPI  H10Y19658  -0.157   0.323   9.336  0.0164  0.2825 -0.0929
  173SAPI  C31119659  -0.055   0.251   9.155  0.6436 -0.1303 -0.1321
  173SAPI  H11X19660  -0.084   0.143   9.155 -1.1729  0.3278  0.4311
  173SAPI  H11Y19661   0.048   0.247   9.113  0.1687 -1.1423 -1.2610
  173SAPI  C31219662  -0.129   0.349   9.060  0.2123  0.1685 -0.4206
  173SAPI  H12X19663  -0.057   0.428   9.033  2.2862 -1.4421  0.1740
  173SAPI  H12Y19664  -0.220   0.392   9.107 -0.4638 -2.0376  0.4172
  173SAPI  C31319665  -0.162   0.279   8.927  0.5419 -0.1580  0.4241
  173SAPI  H13X19666  -0.065   0.257   8.879  2.5118  2.3579  2.9151
  173SAPI  H13Y19667  -0.227   0.339   8.860  1.1595 -1.3751 -1.3498
  173SAPI  C31419668  -0.247   0.156   8.943  0.3473 -0.4770 -0.0481
  173SAPI  H14X19669  -0.334   0.186   9.005 -0.3649  4.6540 -2.9598
  173SAPI  H14Y19670  -0.186   0.079   8.995  2.0548  0.8489 -0.0042
  173SAPI  C31519671  -0.292   0.088   8.810 -0.3095  0.1670  0.6766
  173SAPI  H15X19672  -0.200   0.061   8.754 -1.6532 -2.2597 -0.4613
  173SAPI  H15Y19673  -0.341   0.172   8.756  0.5534 -0.0595 -0.5084
  173SAPI  C31619674  -0.387  -0.024   8.837 -0.0705  0.5280  0.2282
  173SAPI  H16X19675  -0.456  -0.025   8.749  1.4084  2.0622 -1.0202
  173SAPI  H16Y19676  -0.441   0.004   8.930  0.1011 -0.0667  0.5052
  173SAPI  C31719677  -0.328  -0.160   8.850 -0.8777  0.2603  0.2857
  173SAPI  H17X19678  -0.261  -0.156   8.939 -1.1090 -3.2477  0.7715
  173SAPI  H17Y19679  -0.263  -0.183   8.763  2.0869  2.9637  1.5593
  173SAPI  C31819680  -0.419  -0.265   8.882  0.5787  0.6777 -0.0063
  173SAPI  H18X19681  -0.376  -0.368   8.885 -3.6666 -1.4915 -2.5859
  173SAPI  H18Y19682  -0.506  -0.277   8.813  0.2464 -0.8796  0.6439
  173SAPI  H18Z19683  -0.472  -0.248   8.978  1.2041 -0.9824  0.6614
  174SAPI   C1219684   2.809   1.017  11.027 -1.3541 -0.0079 -0.1698
  174SAPI    H219685   2.881   1.101  11.029 -1.0169 -0.3042  1.9679
  174SAPI    O219686   2.867   0.915  11.113 -0.6125 -1.0513  0.0839
  174SAPI   HO219687   2.942   0.874  11.068  0.5747 -0.7425  1.6639
  174SAPI   C1319688   2.686   1.085  11.089  0.2527  0.3964 -0.2964
  174SAPI    H319689   2.648   1.167  11.025  1.6099  1.3920  0.1269
  174SAPI    O319690   2.710   1.139  11.219 -0.0331 -0.0015 -0.2762
  174SAPI   HO319691   2.771   1.081  11.264  0.4935  0.0065 -0.9822
  174SAPI   C1419692   2.578   0.981  11.097 -0.1704 -0.2382 -0.2454
  174SAPI    H419693   2.608   0.908  11.176  0.4313 -0.6079 -0.7946
  174SAPI    O419694   2.452   1.038  11.135  0.3676 -0.3639  0.0641
  174SAPI   HO419695   2.392   0.973  11.173  0.5355 -0.7257 -0.2847
  174SAPI   C1519696   2.557   0.899  10.964 -0.4327 -0.3609  0.3660
  174SAPI    H519697   2.506   0.962  10.888 -0.3824 -2.2913 -1.3623
  174SAPI    O519698   2.453   0.801  10.976  0.9397  0.3848  0.0366
  174SAPI   HO519699   2.381   0.833  10.921 -1.9468  2.3670  4.3771
  174SAPI   C1619700   2.677   0.847  10.901 -0.3230 -0.4549  0.3601
  174SAPI    H619701   2.716   0.764  10.963 -1.3192  0.0260  1.6863
  174SAPI    O619702   2.655   0.806  10.767  0.5755  0.0770 -0.1749
  174SAPI   HO619703   2.732   0.839  10.721  0.6165 -0.2387 -0.3356
  174SAPI   C1119704   2.780   0.954  10.889  0.3415 -0.5796 -0.5153
  174SAPI    H119705   2.730   1.033  10.830  1.7682  0.0132 -0.9725
  174SAPI     P19706   2.966   0.978  10.698  0.3548  0.0652  0.1343
  174SAPI   O1319707   3.100   0.924  10.679 -0.1165  0.0047  0.1105
  174SAPI   O1419708   2.952   1.125  10.708  0.0618  0.2958 -0.2619
  174SAPI   O1219709   2.897   0.904  10.828  0.0554 -0.6694 -0.3404
  174SAPI   O1119710   2.874   0.921  10.580 -0.5854  0.3279  0.5051
  174SAPI    C119711   2.915   0.797  10.521  0.2902 -0.5314  0.4110
  174SAPI    HA19712   3.025   0.794  10.505  0.4049  1.4967  0.5201
  174SAPI    HB19713   2.877   0.713  10.582 -2.9508  1.7257  1.7816
  174SAPI    C219714   2.857   0.786  10.373 -0.2674 -0.1191  0.0459
  174SAPI    HS19715   2.900   0.696  10.323 -0.7176  0.0312 -0.6162
  174SAPI   O2119716   2.880   0.903  10.292  0.3787  0.1217 -0.7869
  174SAPI   C2119717   3.003   0.919  10.241  0.7170  0.1289 -0.2217
  174SAPI   O2219718   3.095   0.843  10.270  0.0357  0.3520  0.3476
  174SAPI   C2219719   3.008   1.036  10.142 -0.6306 -0.4546  0.1580
  174SAPI   H2R19720   2.909   1.077  10.113 -0.0240 -0.3733 -2.0245
  174SAPI   H2S19721   3.070   1.111  10.196  2.9340 -2.3693 -0.8940
  174SAPI    C319722   2.701   0.768  10.384  0.2587  0.2515 -0.6527
  174SAPI    HX19723   2.666   0.864  10.429  0.1655 -0.8816  1.8602
  174SAPI    HY19724   2.688   0.691  10.463 -0.3086  2.6419  1.7428
  174SAPI   O3119725   2.638   0.737  10.258 -0.1119  0.3775  0.6124
  174SAPI   C3119726   2.509   0.759  10.255  0.3277 -0.5046 -0.5078
  174SAPI   O3219727   2.442   0.805  10.345 -0.5096 -0.7073 -0.5353
  174SAPI   C3219728   2.452   0.726  10.122 -0.1414  0.1370 -1.2765
  174SAPI   H2X19729   2.357   0.670  10.135 -0.0812  0.4615  0.8663
  174SAPI   H2Y19730   2.519   0.644  10.089 -2.9313 -1.7786 -2.5380
  174SAPI   C2319731   3.070   1.001  10.005 -0.7897  0.3518 -0.0358
  174SAPI   H3R19732   3.175   0.975  10.032 -0.0721  2.1268 -0.9590
  174SAPI   H3S19733   3.065   1.090   9.939 -1.1683 -1.0191 -1.9584
  174SAPI   C2419734   3.000   0.884   9.932  0.4577 -0.8442  0.4626
  174SAPI   H4R19735   2.999   0.794   9.997  0.9802  0.2945  2.1261
  174SAPI   H4S19736   3.054   0.865   9.837  2.0615  2.3440  0.5892
  174SAPI   C2519737   2.859   0.912   9.892  0.2949 -0.6299  0.4883
  174SAPI   H5R19738   2.785   0.945   9.967  0.8797 -0.1585  0.8693
  174SAPI   C2619739   2.808   0.872   9.770  0.4687  0.3627  0.0311
  174SAPI   H6R19740   2.707   0.913   9.753  0.3796 -0.7101 -2.5961
  174SAPI   C2719741   2.872   0.807   9.647  0.3228  0.1231 -0.6003
  174SAPI   H7R19742   2.932   0.719   9.681  1.9904  1.4746  0.0728
  174SAPI   H7S19743   2.940   0.885   9.607 -0.1573  1.7395  1.5878
  174SAPI   C2819744   2.766   0.755   9.549  0.2440 -0.2109  0.0433
  174SAPI   H8R19745   2.698   0.679   9.591  0.7272 -1.4243 -1.2782
  174SAPI   C2919746   2.735   0.785   9.421  0.0046 -0.4327  0.3517
  174SAPI   H9R19747   2.650   0.731   9.378  0.2692  0.1469 -0.9662
  174SAPI  C21019748   2.802   0.884   9.324 -0.2806 -0.0414  0.1000
  174SAPI  H10R19749   2.908   0.902   9.353 -0.3141 -1.7830  1.4049
  174SAPI  H10S19750   2.740   0.975   9.335 -0.4202 -0.3354  2.1650
  174SAPI  C21119751   2.805   0.829   9.179  0.4646  0.4148 -0.0870
  174SAPI  H11R19752   2.850   0.728   9.174 -1.2039 -0.3862  0.2683
  174SAPI  C21219753   2.774   0.895   9.073 -0.3495 -0.2286 -0.1920
  174SAPI  H12R19754   2.779   0.847   8.975 -2.8170  0.5908 -0.8089
  174SAPI  C21319755   2.712   1.036   9.063  0.0496  0.1659  0.2283
  174SAPI  H13R19756   2.737   1.106   9.145 -0.0378  2.7361 -1.8001
  174SAPI  H13S19757   2.606   1.012   9.086 -0.3780  2.2148  0.5378
  174SAPI  C21419758   2.734   1.118   8.940 -0.0619 -0.2732  0.5845
  174SAPI  H14R19759   2.812   1.195   8.937 -3.4315  3.4223 -1.3862
  174SAPI  C21519760   2.665   1.090   8.830  0.6911 -0.4240 -0.5471
  174SAPI  H15R19761   2.686   1.146   8.738  0.1997  1.5969  0.5068
  174SAPI  C21619762   2.556   0.986   8.813 -0.5432 -0.4665  0.1679
  174SAPI  H16R19763   2.482   0.997   8.896  2.2903 -1.9735  3.1141
  174SAPI  H16S19764   2.612   0.890   8.813 -1.6666 -1.1473  0.5324
  174SAPI  C21719765   2.480   1.025   8.683  0.0937 -0.4476 -0.2730
  174SAPI  H17R19766   2.442   1.128   8.692 -0.8075 -0.8202  0.2497
  174SAPI  H17S19767   2.388   0.965   8.664 -2.5562  3.8084 -2.2476
  174SAPI  C21819768   2.566   1.013   8.549 -0.4808 -0.5121  0.4215
  174SAPI  H18R19769   2.600   0.908   8.555 -1.8772 -0.9158  3.4231
  174SAPI  H18S19770   2.644   1.092   8.551 -0.6774 -0.3108  2.6615
  174SAPI  C21919771   2.489   1.021   8.415  1.1837  0.0653 -0.0367
  174SAPI  H19R19772   2.435   1.118   8.403  0.9880 -0.3030 -2.8397
  174SAPI  H19S19773   2.407   0.947   8.427  1.1754  0.3746  2.2715
  174SAPI  C22019774   2.584   0.984   8.304  0.3606 -0.2334  0.0541
  174SAPI  H20R19775   2.646   0.894   8.327  1.1984  0.5484  0.9672
  174SAPI  H20S19776   2.648   1.075   8.303 -0.5176  0.4002 -0.0487
  174SAPI  H20T19777   2.537   0.960   8.207  0.6986  0.9452 -0.4138
  174SAPI   C3319778   2.432   0.838  10.017  0.1473  0.1263  0.0026
  174SAPI   H3X19779   2.532   0.884  10.030  0.5527 -0.2366 -1.6420
  174SAPI   H3Y19780   2.346   0.897  10.057  0.1238  0.3955 -0.4419
  174SAPI   C3419781   2.414   0.780   9.879 -0.6613  0.8328  0.0798
  174SAPI   H4X19782   2.336   0.702   9.878 -0.9630  1.1253  0.5260
  174SAPI   H4Y19783   2.510   0.727   9.860 -1.3453  0.0275 -1.3008
  174SAPI   C3519784   2.385   0.890   9.775 -0.5863 -0.9781 -0.8847
  174SAPI   H5X19785   2.443   0.976   9.815  0.5221 -1.0025 -2.3764
  174SAPI   H5Y19786   2.277   0.915   9.785 -0.2431  0.1165  0.4595
  174SAPI   C3619787   2.416   0.842   9.632  0.2166  0.1122 -0.7644
  174SAPI   H6X19788   2.383   0.737   9.620 -1.0642  0.7606 -3.6840
  174SAPI   H6Y19789   2.526   0.856   9.624  0.2391  1.2531  0.9215
  174SAPI   C3719790   2.340   0.928   9.518 -0.8445 -0.0273 -0.2769
  174SAPI   H7X19791   2.352   1.036   9.539  0.8051  0.0643 -1.4771
  174SAPI   H7Y19792   2.235   0.906   9.545 -0.2320 -3.4512 -0.2094
  174SAPI   C3819793   2.381   0.888   9.375  0.4369  0.2412  0.1958
  174SAPI   H8X19794   2.491   0.892   9.360  0.5403 -2.3032 -0.1101
  174SAPI   H8Y19795   2.339   0.965   9.305  0.2485  0.0931  0.1440
  174SAPI   C3919796   2.349   0.745   9.337  0.0945 -0.4642 -0.5261
  174SAPI   H9X19797   2.243   0.743   9.370 -0.5195  2.7205 -1.9029
  174SAPI   H9Y19798   2.406   0.679   9.405 -0.5631  1.6832  2.2931
  174SAPI  C31019799   2.371   0.696   9.190  0.2509  0.1126 -0.6315
  174SAPI  H10X19800   2.326   0.595   9.181  0.6893 -0.2576  1.0525
  174SAPI  H10Y19801   2.480   0.688   9.169  0.1295  0.0382 -1.2705
  174SAPI  C31119802   2.310   0.789   9.083  0.4719  0.5068 -0.3329
  174SAPI  H11X19803   2.377   0.875   9.063  0.6317  0.8827  1.6134
  174SAPI  H11Y19804   2.218   0.828   9.131  0.7887  0.6287  0.1793
  174SAPI  C31219805   2.263   0.708   8.960 -0.0790 -0.6603 -0.1421
  174SAPI  H12X19806   2.226   0.788   8.893  2.2396  1.3771  0.8423
  174SAPI  H12Y19807   2.189   0.631   8.989 -1.6190  1.0095  0.5207
  174SAPI  C31319808   2.373   0.643   8.888  0.3682  0.1595 -0.4033
  174SAPI  H13X19809   2.425   0.573   8.957 -0.3503  1.8862  2.0360
  174SAPI  H13Y19810   2.444   0.724   8.860  1.2195 -0.4701 -0.1171
  174SAPI  C31419811   2.317   0.575   8.760 -0.5032 -0.8491  1.4326
  174SAPI  H14X19812   2.253   0.648   8.706 -0.8492 -2.2036 -0.0632
  174SAPI  H14Y19813   2.254   0.490   8.796 -0.3185 -1.8166 -0.4022
  174SAPI  C31519814   2.421   0.514   8.667 -0.2554 -0.3668  0.4219
  174SAPI  H15X19815   2.368   0.467   8.581 -0.4952  0.3944  0.1444
  174SAPI  H15Y19816   2.485   0.442   8.722  2.0196  0.5725 -0.8321
  174SAPI  C31619817   2.523   0.622   8.614 -0.3671 -0.2037 -0.2822
  174SAPI  H16X19818   2.598   0.639   8.694  0.5909  0.7066 -1.3419
  174SAPI  H16Y19819   2.465   0.715   8.600  0.0474 -0.2324 -2.7028
  174SAPI  C31719820   2.593   0.589   8.483 -0.4092 -0.1135  0.6979
  174SAPI  H17X19821   2.529   0.622   8.399 -0.4041  1.1310  1.1718
  174SAPI  H17Y19822   2.608   0.480   8.466 -0.9740 -0.5150  2.4820
  174SAPI  C31819823   2.730   0.663   8.463  0.6747  0.2455 -0.1398
  174SAPI  H18X19824   2.721   0.772   8.476  1.5227  0.3401 -0.2944
  174SAPI  H18Y19825   2.780   0.654   8.364  1.2484  2.0281 -0.0316
  174SAPI  H18Z19826   2.807   0.635   8.538 -0.4124 -0.3995  0.7784
  175SAPI   C1219827   2.191   4.482   6.432  0.0731 -0.3858 -0.1761
  175SAPI    H219828   2.144   4.562   6.493 -1.8738 -2.0976  0.6841
  175SAPI    O219829   2.277   4.543   6.335 -0.5870 -0.0510  0.4477
  175SAPI   HO219830   2.293   4.636   6.351  3.3527 -0.2915 -0.9333
  175SAPI   C1319831   2.264   4.389   6.517  0.4646  1.0520  0.1883
  175SAPI    H319832   2.190   4.356   6.593  0.8375  1.6247  0.8186
  175SAPI    O319833   2.361   4.455   6.594 -0.1216 -0.0314  0.2555
  175SAPI   HO319834   2.449   4.439   6.560 -0.3380  0.8594 -0.7784
  175SAPI   C1419835   2.318   4.271   6.440 -0.3281  0.1900  0.4440
  175SAPI    H419836   2.384   4.306   6.358 -1.3474 -0.5696 -0.7162
  175SAPI    O419837   2.389   4.179   6.522  0.0473  0.1072 -0.4551
  175SAPI   HO419838   2.329   4.112   6.554  2.0949 -0.0594  3.6219
  175SAPI   C1519839   2.205   4.206   6.355 -0.0611  0.4962  0.5382
  175SAPI    H519840   2.126   4.167   6.423 -0.3211  1.1561  0.6165
  175SAPI    O519841   2.251   4.093   6.279  0.4526 -0.3113  0.1214
  175SAPI   HO519842   2.247   4.012   6.330  1.1122  0.5609  1.6063
  175SAPI   C1619843   2.127   4.305   6.276 -0.3491  0.5340 -0.1818
  175SAPI    H619844   2.199   4.348   6.203  1.0180 -0.6122  0.4456
  175SAPI    O619845   2.019   4.241   6.212 -0.1952 -0.3956  0.0680
  175SAPI   HO619846   1.973   4.312   6.167 -0.8039  0.5749  2.0775
  175SAPI   C1119847   2.074   4.407   6.367  0.2938  0.5485  0.6159
  175SAPI    H119848   2.023   4.356   6.452 -1.6302  0.0096 -0.7970
  175SAPI     P19849   1.847   4.544   6.365  0.1936 -0.1524  0.2500
  175SAPI   O1319850   1.801   4.420   6.430  0.1345 -0.1886  0.2147
  175SAPI   O1419851   1.764   4.622   6.266  0.2135 -0.0063 -0.0835
  175SAPI   O1219852   1.991   4.503   6.296 -0.2607 -0.6768  0.3998
  175SAPI   O1119853   1.874   4.640   6.483 -0.1516 -0.0351  0.0236
  175SAPI    C119854   1.921   4.776   6.469  0.5405 -0.2799 -0.6294
  175SAPI    HA19855   2.030   4.780   6.453  0.7516  1.3670  0.8401
  175SAPI    HB19856   1.878   4.830   6.382 -0.8245 -0.3641 -0.0356
  175SAPI    C219857   1.889   4.870   6.593  0.1580 -0.0839  0.4492
  175SAPI    HS19858   1.936   4.969   6.570 -1.2406  0.5466  0.1832
  175SAPI   O2119859   1.924   4.804   6.718 -0.1947  0.4745  0.0192
  175SAPI   C2119860   2.053   4.776   6.735 -0.2046  1.0531 -0.0786
  175SAPI   O2219861   2.146   4.786   6.659  0.8485  0.0705 -0.3087
  175SAPI   C2219862   2.057   4.713   6.876  0.3096 -0.2206  0.0780
  175SAPI   H2R19863   2.032   4.793   6.949 -1.0899  0.8636 -1.5099
  175SAPI   H2S19864   1.979   4.635   6.891 -0.4503  0.2509 -1.2334
  175SAPI    C319865   1.740   4.910   6.597 -0.1070  0.0001  0.2348
  175SAPI    HX19866   1.682   4.816   6.592 -0.7946  0.3590  1.1906
  175SAPI    HY19867   1.732   4.962   6.499  0.9684 -0.6226 -0.1997
  175SAPI   O3119868   1.696   4.992   6.705  0.2864 -0.1522 -0.3979
  175SAPI   C3119869   1.606   4.934   6.793  0.5052  1.1199 -0.5819
  175SAPI   O3219870   1.547   4.830   6.776 -0.0897  0.2881 -0.0700
  175SAPI   C3219871   1.598   5.017   6.924 -0.1006  0.8616 -0.2891
  175SAPI   H2X19872   1.502   5.072   6.911 -1.0357 -1.1634 -2.8285
  175SAPI   H2Y19873   1.675   5.097   6.932  2.9696 -1.8120 -1.1048
  175SAPI   C2319874   2.199   4.659   6.916 -0.5368 -0.3055 -0.0529
  175SAPI   H3R19875   2.267   4.747   6.903 -2.2934  1.2257  0.6228
  175SAPI   H3S19876   2.227   4.573   6.852  0.0026 -2.2668  2.6255
  175SAPI   C2419877   2.199   4.604   7.059 -0.8417 -0.0621 -0.1535
  175SAPI   H4R19878   2.114   4.534   7.071  2.2327 -3.6694  2.5932
  175SAPI   H4S19879   2.179   4.688   7.130  0.1715  0.7033 -0.7503
  175SAPI   C2519880   2.321   4.534   7.091  0.1222  0.2354  0.6915
  175SAPI   H5R19881   2.357   4.467   7.012 -1.5227  0.0234  0.0841
  175SAPI   C2619882   2.371   4.525   7.212 -0.4771  0.2946 -0.3759
  175SAPI   H6R19883   2.456   4.456   7.225  0.9074  2.4632  3.9637
  175SAPI   C2719884   2.329   4.576   7.345 -0.6968  0.3639 -0.1387
  175SAPI   H7R19885   2.350   4.498   7.421  2.3564 -0.4765 -1.6681
  175SAPI   H7S19886   2.218   4.582   7.344 -0.7373  1.0315 -3.3790
  175SAPI   C2819887   2.383   4.708   7.399 -1.2240 -0.0794  0.1358
  175SAPI   H8R19888   2.476   4.742   7.351 -1.8652 -2.1634 -2.8537
  175SAPI   C2919889   2.327   4.783   7.492 -0.1277 -0.1955  0.5198
  175SAPI   H9R19890   2.353   4.888   7.514 -0.3658 -0.6372  3.2601
  175SAPI  C21019891   2.196   4.744   7.565 -0.0583  0.2641  0.0862
  175SAPI  H10R19892   2.155   4.647   7.528  0.3915  0.0346  0.1696
  175SAPI  H10S19893   2.115   4.810   7.530  2.1361  1.0425 -4.2381
  175SAPI  C21119894   2.221   4.729   7.711  0.0859  0.3499 -0.0330
  175SAPI  H11R19895   2.281   4.642   7.742  0.9913 -0.1352 -2.7874
  175SAPI  C21219896   2.176   4.813   7.803  0.2551  0.4264  0.0412
  175SAPI  H12R19897   2.209   4.796   7.907 -0.3337 -0.7545  0.0507
  175SAPI  C21319898   2.091   4.937   7.784  0.0807 -0.6322 -0.2178
  175SAPI  H13R19899   1.992   4.929   7.832 -0.4697  1.4656 -0.8896
  175SAPI  H13S19900   2.055   4.956   7.680 -0.2209 -2.4743 -0.4715
  175SAPI  C21419901   2.155   5.066   7.825 -0.0096 -0.1103 -0.2095
  175SAPI  H14R19902   2.230   5.097   7.751 -1.0472 -0.2077 -1.3270
  175SAPI  C21519903   2.130   5.139   7.936 -0.3346 -0.7498  0.4468
  175SAPI  H15R19904   2.194   5.228   7.945  1.1102 -1.7473  0.3725
  175SAPI  C21619905   2.023   5.106   8.039 -1.1437  0.1991  0.2151
  175SAPI  H16R19906   2.063   5.131   8.140  2.5164  1.3816 -1.3357
  175SAPI  H16S19907   2.012   4.995   8.041 -3.5226  0.2142 -3.4162
  175SAPI  C21719908   1.888   5.182   8.024 -0.9633  0.2441  0.3745
  175SAPI  H17R19909   1.846   5.150   7.926  0.9841 -3.1805  0.4742
  175SAPI  H17S19910   1.897   5.292   8.033 -0.5912  0.3697 -1.2791
  175SAPI  C21819911   1.783   5.140   8.132  0.1776  0.0502 -0.1324
  175SAPI  H18R19912   1.762   5.031   8.128 -0.6324  0.2108 -0.6044
  175SAPI  H18S19913   1.691   5.199   8.110  0.0699  0.3066  0.9361
  175SAPI  C21919914   1.816   5.166   8.282 -0.0805  0.7283  1.0408
  175SAPI  H19R19915   1.916   5.120   8.297 -0.2056  0.0753  0.0130
  175SAPI  H19S19916   1.750   5.105   8.347  1.4205 -2.1057  0.0919
  175SAPI  C22019917   1.801   5.310   8.319 -0.4169  0.3440 -0.1137
  175SAPI  H20R19918   1.854   5.380   8.250 -0.4548  1.1632  0.6709
  175SAPI  H20S19919   1.846   5.329   8.418 -1.1932  1.6330  0.0173
  175SAPI  H20T19920   1.696   5.344   8.311 -0.7500 -0.7273 -0.4215
  175SAPI   C3319921   1.599   4.923   7.053  0.3111 -0.3820  0.2310
  175SAPI   H3X19922   1.521   4.844   7.044  0.1436  0.0001 -2.4877
  175SAPI   H3Y19923   1.569   4.995   7.133 -1.1962  1.5678 -1.9673
  175SAPI   C3419924   1.733   4.859   7.081  0.5428 -0.0896  0.4462
  175SAPI   H4X19925   1.802   4.943   7.105  0.1631  1.4017 -3.0266
  175SAPI   H4Y19926   1.784   4.811   6.995 -0.6274 -1.7976  0.6719
  175SAPI   C3519927   1.732   4.767   7.202  0.4958 -0.1798  0.6982
  175SAPI   H5X19928   1.659   4.684   7.195  1.2590 -1.0019  1.9221
  175SAPI   H5Y19929   1.714   4.830   7.292  1.1783 -1.2234  1.5824
  175SAPI   C3619930   1.870   4.685   7.231  0.2835 -0.1904 -0.2407
  175SAPI   H6X19931   1.929   4.763   7.283  0.3600 -1.6399  2.0053
  175SAPI   H6Y19932   1.903   4.656   7.129 -0.6279 -1.6131 -0.1577
  175SAPI   C3719933   1.860   4.567   7.328  0.2745  0.0977  0.6258
  175SAPI   H7X19934   1.948   4.503   7.308 -0.5630 -1.1352  0.7557
  175SAPI   H7Y19935   1.771   4.508   7.296 -0.5038  0.8194  1.3778
  175SAPI   C3819936   1.841   4.594   7.476 -0.1382  0.2995  0.1355
  175SAPI   H8X19937   1.750   4.653   7.499 -1.4771 -1.8618  0.6579
  175SAPI   H8Y19938   1.933   4.653   7.498 -0.3608  0.4012  0.8210
  175SAPI   C3919939   1.822   4.470   7.566 -0.2797 -0.1646  0.3925
  175SAPI   H9X19940   1.918   4.415   7.551 -0.4216 -0.5700  0.9650
  175SAPI   H9Y19941   1.740   4.405   7.530 -0.8720  0.7350  0.0838
  175SAPI  C31019942   1.808   4.507   7.716 -0.5407  0.0211 -0.6442
  175SAPI  H10X19943   1.897   4.559   7.757 -1.1258 -0.5186  1.4332
  175SAPI  H10Y19944   1.807   4.412   7.774  0.7993  0.4434  0.1282
  175SAPI  C31119945   1.672   4.574   7.746  0.3797 -0.9426 -0.0038
  175SAPI  H11X19946   1.604   4.503   7.694 -0.2629  1.4039 -2.5788
  175SAPI  H11Y19947   1.656   4.673   7.698 -3.4005 -1.3091  0.2661
  175SAPI  C31219948   1.649   4.570   7.898 -0.0900  0.7282 -0.0183
  175SAPI  H12X19949   1.748   4.594   7.943  1.0412 -2.4436 -0.4933
  175SAPI  H12Y19950   1.623   4.468   7.934  0.3618  0.0462 -1.5387
  175SAPI  C31319951   1.543   4.669   7.947 -0.2386  0.2585  0.2864
  175SAPI  H13X19952   1.447   4.641   7.897 -0.0042 -0.5144  0.2561
  175SAPI  H13Y19953   1.576   4.774   7.934 -0.5910  0.5471  1.5480
  175SAPI  C31419954   1.515   4.657   8.100 -0.2936  0.4713  0.6168
  175SAPI  H14X19955   1.470   4.562   8.137  2.2399 -0.2444  2.2143
  175SAPI  H14Y19956   1.434   4.731   8.114 -2.0397 -1.0319 -0.9242
  175SAPI  C31519957   1.635   4.681   8.183 -0.3569 -0.6813 -0.3023
  175SAPI  H15X19958   1.678   4.776   8.145  0.8259 -0.4117  1.5633
  175SAPI  H15Y19959   1.701   4.596   8.156 -1.9238 -1.4947 -1.7565
  175SAPI  C31619960   1.606   4.694   8.335 -0.7033  0.0777  0.2672
  175SAPI  H16X19961   1.538   4.775   8.367  0.0526  0.0348  2.1330
  175SAPI  H16Y19962   1.706   4.718   8.378  0.3246  0.4308 -2.1693
  175SAPI  C31719963   1.560   4.563   8.401  0.7581 -0.9653 -0.6382
  175SAPI  H17X19964   1.614   4.491   8.336  0.6602 -1.4425 -0.1984
  175SAPI  H17Y19965   1.450   4.552   8.389  0.1368  3.4439 -0.6755
  175SAPI  C31819966   1.594   4.548   8.549  0.0147 -0.3206 -0.7764
  175SAPI  H18X19967   1.602   4.438   8.561  1.5466 -0.2025 -0.6003
  175SAPI  H18Y19968   1.515   4.584   8.619  1.1495 -1.1953  1.0101
  175SAPI  H18Z19969   1.696   4.589   8.567 -0.0442 -0.0746 -0.9917
  176SAPI   C1219970   0.096   5.618   6.473  0.3283  0.2389 -0.0794
  176SAPI    H219971   0.118   5.521   6.523 -1.3018 -1.2834 -2.1441
  176SAPI    O219972   0.036   5.705   6.573  0.0492  0.2154  0.4897
  176SAPI   HO219973  -0.028   5.656   6.626 -1.1345  1.8556  0.6617
  176SAPI   C1319974   0.236   5.661   6.442  0.7156  0.2293 -0.4596
  176SAPI    H319975   0.284   5.588   6.374  2.9847  0.5309  0.7393
  176SAPI    O319976   0.326   5.672   6.554 -0.2942 -0.1107  0.0312
  176SAPI   HO319977   0.302   5.744   6.613 -1.1449 -1.7319  1.7504
  176SAPI   C1419978   0.230   5.789   6.358 -0.1939  0.1777 -0.4189
  176SAPI    H419979   0.173   5.866   6.414  2.1024  1.0571  0.8126
  176SAPI    O419980   0.362   5.837   6.335 -0.1443  0.5111 -0.3390
  176SAPI   HO419981   0.359   5.932   6.325  0.0238  0.4456 -1.0540
  176SAPI   C1519982   0.160   5.755   6.233  0.0383  0.0655  0.2554
  176SAPI    H519983   0.206   5.672   6.174 -2.0614 -0.1353 -1.1890
  176SAPI    O519984   0.161   5.863   6.137  0.5589  0.2443 -0.2062
  176SAPI   HO519985   0.103   5.927   6.178 -1.9720 -1.6918 -0.5673
  176SAPI   C1619986   0.016   5.708   6.256  0.1132  0.0615  0.1357
  176SAPI    H619987  -0.039   5.793   6.302 -0.9877  0.1078 -1.2037
  176SAPI    O619988  -0.045   5.667   6.130  0.1033  0.3357 -0.1415
  176SAPI   HO619989  -0.117   5.607   6.154  1.1247 -0.7140  0.3836
  176SAPI   C1119990   0.014   5.585   6.347 -0.1157 -0.3921  0.5281
  176SAPI    H119991   0.062   5.498   6.297 -1.0831  0.3113 -1.7801
  176SAPI     P19992  -0.168   5.423   6.469  0.3547 -0.0817 -0.0630
  176SAPI   O1319993  -0.095   5.304   6.424 -0.1806  0.1822  0.1108
  176SAPI   O1419994  -0.313   5.419   6.458  0.1366  0.3063 -0.9017
  176SAPI   O1219995  -0.121   5.550   6.378  0.0873 -0.6995  0.2544
  176SAPI   O1119996  -0.128   5.465   6.612  0.5407  0.4562 -0.2759
  176SAPI    C119997  -0.169   5.393   6.726  0.0657 -0.1320  0.1786
  176SAPI    HA19998  -0.279   5.379   6.719  0.1827 -1.1490  0.2333
  176SAPI    HB19999  -0.113   5.298   6.728  1.6261  0.7270 -0.6231
  176SAPI    C220000  -0.142   5.478   6.851 -0.2565  0.3915  0.4458
  176SAPI    HS20001  -0.209   5.567   6.854 -2.4391 -1.1181 -0.6655
  176SAPI   O2120002  -0.005   5.524   6.852 -0.0459 -0.0277  0.0077
  176SAPI   C2120003   0.025   5.628   6.925 -0.0376 -0.9992 -0.2834
  176SAPI   O2220004  -0.055   5.701   6.985 -0.5491 -0.7378  0.1590
  176SAPI   C2220005   0.179   5.631   6.931 -0.0990  0.5762 -0.3431
  176SAPI   H2R20006   0.212   5.564   6.848  2.8518 -1.0258  1.9279
  176SAPI   H2S20007   0.229   5.729   6.912  2.0001 -0.6123 -1.4301
  176SAPI    C320008  -0.169   5.391   6.979 -0.4285  0.6053  0.3033
  176SAPI    HX20009  -0.080   5.326   6.996 -0.6902  0.4725  1.2405
  176SAPI    HY20010  -0.250   5.316   6.970 -0.7318  0.8557  0.8804
  176SAPI   O3120011  -0.187   5.474   7.096 -1.1756 -0.2624  0.3938
  176SAPI   C3120012  -0.313   5.527   7.107  0.3112  0.3113 -0.9043
  176SAPI   O3220013  -0.401   5.503   7.021 -0.1589  0.2539  0.3786
  176SAPI   C3220014  -0.331   5.588   7.243  0.0733 -0.7202  0.1924
  176SAPI   H2X20015  -0.241   5.650   7.263 -0.8059  1.8975 -3.0636
  176SAPI   H2Y20016  -0.323   5.501   7.311  0.7557 -0.5007  0.4063
  176SAPI   C2320017   0.237   5.556   7.049  0.2594 -0.5930 -0.2030
  176SAPI   H3R20018   0.342   5.525   7.032  1.0595  1.8166 -0.0561
  176SAPI   H3S20019   0.182   5.460   7.056 -2.4950  0.9354  0.7270
  176SAPI   C2420020   0.228   5.638   7.181  0.3194 -0.2303  0.5577
  176SAPI   H4R20021   0.128   5.684   7.189  0.8365  0.9926  0.1063
  176SAPI   H4S20022   0.293   5.728   7.177 -1.2148  0.9988  1.8426
  176SAPI   C2520023   0.249   5.548   7.300 -0.5744 -1.7521 -0.8636
  176SAPI   H5R20024   0.326   5.472   7.285 -0.2853 -1.4641 -0.8385
  176SAPI   C2620025   0.182   5.546   7.420 -0.7340  0.1242 -0.1244
  176SAPI   H6R20026   0.225   5.482   7.499  2.3195  1.6796 -0.3865
  176SAPI   C2720027   0.066   5.630   7.462  0.0997 -0.2302  0.5344
  176SAPI   H7R20028   0.066   5.595   7.567  1.9079 -1.5357  0.1484
  176SAPI   H7S20029  -0.029   5.599   7.413  0.8772 -0.3555 -0.9606
  176SAPI   C2820030   0.092   5.781   7.456  0.2391  0.7159  0.3820
  176SAPI   H8R20031   0.127   5.822   7.359  1.7931  0.9676  1.0102
  176SAPI   C2920032   0.064   5.869   7.558 -0.2194  0.0311  0.2266
  176SAPI   H9R20033   0.089   5.975   7.542 -1.2288  0.5509  1.9081
  176SAPI  C21020034   0.006   5.824   7.693 -0.3512 -0.1566  0.1240
  176SAPI  H10R20035   0.093   5.774   7.739  0.7380  2.0032  0.5058
  176SAPI  H10S20036  -0.080   5.755   7.675  0.6876 -1.5773  0.4097
  176SAPI  C21120037  -0.048   5.939   7.772  0.6457  0.1118 -0.0893
  176SAPI  H11R20038  -0.069   6.034   7.722 -0.5909 -1.0184 -1.8273
  176SAPI  C21220039  -0.065   5.936   7.908 -0.3301  0.2845  0.8493
  176SAPI  H12R20040  -0.102   6.024   7.963 -1.1232 -1.0637  2.5765
  176SAPI  C21320041  -0.030   5.819   8.001 -0.0794  0.6145 -0.2016
  176SAPI  H13R20042   0.026   5.851   8.092 -0.1850  0.8964 -0.2350
  176SAPI  H13S20043   0.038   5.745   7.954 -2.8840  0.2406 -4.1183
  176SAPI  C21420044  -0.153   5.737   8.033 -0.0716 -0.5052  0.0901
  176SAPI  H14R20045  -0.182   5.671   7.950 -2.1286 -1.9284  1.8539
  176SAPI  C21520046  -0.225   5.719   8.140 -0.6222 -0.3041 -0.0326
  176SAPI  H15R20047  -0.310   5.649   8.135 -1.7766  0.9076  1.4902
  176SAPI  C21620048  -0.184   5.778   8.274 -0.7517 -0.0913 -0.4820
  176SAPI  H16R20049  -0.079   5.816   8.269 -0.5964 -0.3691  0.5011
  176SAPI  H16S20050  -0.178   5.706   8.358  3.4551 -0.7729 -1.1229
  176SAPI  C21720051  -0.260   5.909   8.293 -0.2406  0.6501 -0.3746
  176SAPI  H17R20052  -0.247   5.976   8.205  0.9047 -1.2684 -1.7317
  176SAPI  H17S20053  -0.224   5.952   8.389 -0.9264 -2.2221  1.2936
  176SAPI  C21820054  -0.409   5.877   8.313  0.6111  0.1715 -0.1702
  176SAPI  H18R20055  -0.453   5.808   8.238 -0.2639 -1.6720  1.9479
  176SAPI  H18S20056  -0.469   5.970   8.301  1.3735  0.4789 -1.9836
  176SAPI  C21920057  -0.446   5.834   8.463 -0.0048  0.6925  0.0543
  176SAPI  H19R20058  -0.421   5.924   8.523  1.6232 -0.3966  1.0763
  176SAPI  H19S20059  -0.385   5.745   8.488  0.3501  0.6723 -0.8549
  176SAPI  C22020060  -0.605   5.803   8.476  0.3496  0.7360 -0.3762
  176SAPI  H20R20061  -0.666   5.887   8.438 -0.3128 -0.2928 -1.6678
  176SAPI  H20S20062  -0.631   5.782   8.582 -1.5407 -0.7127 -1.0639
  176SAPI  H20T20063  -0.637   5.708   8.427  0.5836 -0.9559  2.5192
  176SAPI   C3320064  -0.445   5.693   7.268  0.4360 -0.2158 -0.5526
  176SAPI   H3X20065  -0.538   5.645   7.229  0.6961 -1.3191  0.1279
  176SAPI   H3Y20066  -0.427   5.789   7.216 -2.1288 -0.8897 -2.9628
  176SAPI   C3420067  -0.472   5.720   7.416  0.0098 -0.4756  0.0022
  176SAPI   H4X20068  -0.503   5.627   7.469  0.7994  0.7807  2.8703
  176SAPI   H4Y20069  -0.555   5.793   7.413  1.3103  1.2895  2.5973
  176SAPI   C3520070  -0.355   5.789   7.485 -0.0544 -0.1506  0.2208
  176SAPI   H5X20071  -0.321   5.867   7.414  1.6883 -1.5317 -0.5031
  176SAPI   H5Y20072  -0.270   5.718   7.491 -0.5280 -0.7206  0.2956
  176SAPI   C3620073  -0.385   5.849   7.620  0.2943  0.0684 -0.7532
  176SAPI   H6X20074  -0.465   5.925   7.604  1.5898  1.8034  0.6036
  176SAPI   H6Y20075  -0.293   5.902   7.652 -0.7282 -0.1279  3.0102
  176SAPI   C3720076  -0.396   5.748   7.739 -0.0022  0.4655  0.5305
  176SAPI   H7X20077  -0.303   5.690   7.757  1.5950  2.0069 -2.0693
  176SAPI   H7Y20078  -0.469   5.669   7.711  0.0789  0.5185  0.1715
  176SAPI   C3820079  -0.436   5.826   7.873 -0.1697  0.1408  0.0061
  176SAPI   H8X20080  -0.356   5.883   7.924 -1.7543  2.0967  0.4314
  176SAPI   H8Y20081  -0.470   5.750   7.947  0.1283  1.6056  1.6970
  176SAPI   C3920082  -0.553   5.931   7.856  0.0571  0.0356  0.1409
  176SAPI   H9X20083  -0.642   5.879   7.815  0.9059 -0.4939 -1.1105
  176SAPI   H9Y20084  -0.519   6.016   7.792  1.3546 -0.2491  0.4111
  176SAPI  C31020085  -0.583   5.980   7.994  0.2800  0.7730  0.3569
  176SAPI  H10X20086  -0.492   6.034   8.026  2.3563 -1.0706 -2.0307
  176SAPI  H10Y20087  -0.593   5.894   8.064 -0.4762 -1.2212 -2.0361
  176SAPI  C31120088  -0.703   6.075   7.994 -0.2898 -0.0772  0.0691
  176SAPI  H11X20089  -0.786   6.016   7.951  0.1524 -0.2259 -0.6024
  176SAPI  H11Y20090  -0.673   6.157   7.925  3.6948 -0.9347  0.5332
  176SAPI  C31220091  -0.727   6.139   8.130  0.1785  0.0306 -0.1602
  176SAPI  H12X20092  -0.801   6.222   8.121 -0.8038 -0.7189  0.7378
  176SAPI  H12Y20093  -0.636   6.189   8.170  0.8670 -2.3580  1.4616
  176SAPI  C31320094  -0.787   6.044   8.243  0.3202 -0.1299 -0.6102
  176SAPI  H13X20095  -0.727   5.951   8.250 -1.6951 -1.3778  1.0930
  176SAPI  H13Y20096  -0.889   6.022   8.204  0.1813  2.3347 -1.8404
  176SAPI  C31420097  -0.811   6.100   8.383  0.6376 -0.3376  0.4174
  176SAPI  H14X20098  -0.709   6.130   8.417  0.6855  0.5040 -0.4199
  176SAPI  H14Y20099  -0.853   6.021   8.449 -2.4751  1.4506  0.7679
  176SAPI  C31520100  -0.900   6.222   8.388  0.1413 -0.5443 -0.1263
  176SAPI  H15X20101  -0.867   6.303   8.320  0.2521  0.1644  0.7596
  176SAPI  H15Y20102  -0.884   6.272   8.486 -0.3324  1.3186 -0.9491
  176SAPI  C31620103  -1.040   6.179   8.360  0.4155  0.0014  0.4463
  176SAPI  H16X20104  -1.057   6.074   8.394  0.8220  0.6631  2.9017
  176SAPI  H16Y20105  -1.046   6.183   8.249  0.1581  1.0035  0.4909
  176SAPI  C31720106  -1.142   6.283   8.423 -0.2354  1.1941 -0.7121
  176SAPI  H17X20107  -1.145   6.282   8.534 -3.4137  2.9569 -0.6602
  176SAPI  H17Y20108  -1.244   6.259   8.388  0.1399 -0.1041 -0.9709
  176SAPI  C31820109  -1.101   6.425   8.382 -0.5097 -0.2253 -0.4925
  176SAPI  H18X20110  -1.166   6.501   8.430 -0.1642 -0.9278  1.1394
  176SAPI  H18Y20111  -1.102   6.437   8.271 -0.8816  1.1290 -0.3606
  176SAPI  H18Z20112  -1.000   6.440   8.426 -0.9750  0.6970  0.3055
  177SLPC     N20113   6.106   6.768  10.965 -0.3970 -0.0343  0.8506
  177SLPC   C1320114   6.234   6.852  10.974 -0.2990 -0.5711 -1.1532
  177SLPC  H13A20115   6.325   6.805  10.939  0.6635  1.9222 -2.2813
  177SLPC  H13B20116   6.224   6.944  10.918  2.8138  2.6387  2.8596
  177SLPC  H13C20117   6.243   6.884  11.077  0.3194  0.4207 -1.4975
  177SLPC   C1420118   5.992   6.859  10.999 -0.0998  0.2116 -0.1542
  177SLPC  H14A20119   6.008   6.955  10.952 -0.6881  0.2912 -0.1962
  177SLPC  H14B20120   5.893   6.839  10.961 -1.0859  0.1055  2.2538
  177SLPC  H14C20121   5.980   6.877  11.105 -0.7048  0.5946 -0.2825
  177SLPC   C1520122   6.120   6.666  11.071  0.4886 -0.7724 -0.4667
  177SLPC  H15A20123   6.023   6.638  11.109  0.3248  1.2271  0.7286
  177SLPC  H15B20124   6.184   6.585  11.039  1.0644 -0.4053 -0.2645
  177SLPC  H15C20125   6.169   6.707  11.158  0.4844 -0.3368 -0.6656
  177SLPC   C1220126   6.082   6.702  10.826 -0.3744  0.3884 -0.0790
  177SLPC  H12A20127   6.043   6.774  10.757 -0.6918  0.5966  0.3119
  177SLPC  H12B20128   5.995   6.638  10.829 -1.1802  1.4223 -1.0679
  177SLPC   C1120129   6.197   6.618  10.753  0.1238 -0.6187  0.3292
  177SLPC  H11A20130   6.278   6.690  10.728  1.2245 -2.0665 -0.4175
  177SLPC  H11B20131   6.164   6.569  10.659 -1.5557 -1.5306  1.3346
  177SLPC     P20132   6.395   6.512  10.899  0.0691 -0.3152  0.0360
  177SLPC   O1320133   6.469   6.639  10.887  0.3884  0.1427  0.2567
  177SLPC   O1420134   6.382   6.467  11.038 -0.6158  0.2574 -0.1888
  177SLPC   O1220135   6.248   6.514  10.829 -0.8591  0.4445 -0.2364
  177SLPC   O1120136   6.480   6.393  10.828  0.2943  0.0734 -0.5538
  177SLPC    C120137   6.440   6.257  10.846 -0.1072  0.7576 -0.4380
  177SLPC    HA20138   6.443   6.236  10.955 -1.4749  0.8357 -0.3682
  177SLPC    HB20139   6.342   6.240  10.796  0.4106  0.2741 -1.3283
  177SLPC    C220140   6.537   6.151  10.775  0.2618 -0.4778 -0.8545
  177SLPC    HS20141   6.638   6.166  10.819  0.1577 -0.6114 -0.5676
  177SLPC   O2120142   6.544   6.169  10.638 -0.0063  0.1724  0.1671
  177SLPC   C2120143   6.654   6.128  10.570  0.6551 -0.3161 -0.1895
  177SLPC   O2220144   6.744   6.061  10.617 -0.2190  0.1794  0.5580
  177SLPC   C2220145   6.658   6.192  10.427  0.1732 -0.3896 -0.5436
  177SLPC   H2R20146   6.554   6.230  10.419  0.3548  0.0279 -0.9547
  177SLPC   H2S20147   6.728   6.278  10.437  0.1943 -0.1573 -2.3277
  177SLPC    C320148   6.511   5.998  10.814  0.2194  0.4946  0.0329
  177SLPC    HX20149   6.508   5.978  10.924 -1.3868 -0.3736 -0.1362
  177SLPC    HY20150   6.598   5.943  10.771  1.0600  1.5580  0.3420
  177SLPC   O3120151   6.389   5.959  10.740 -0.3980 -0.6176 -0.0149
  177SLPC   C3120152   6.403   5.886  10.629  0.3672  0.4658 -0.3323
  177SLPC   O3220153   6.500   5.821  10.600 -0.1767  0.0318 -0.5343
  177SLPC   C3220154   6.277   5.906  10.541 -0.4773  0.8713  0.3118
  177SLPC   H2X20155   6.207   5.963  10.605  0.8424  0.9237  1.7580
  177SLPC   H2Y20156   6.241   5.805  10.511  0.5093  1.0964 -1.8509
  177SLPC   C2320157   6.684   6.081  10.328 -0.3563  0.1681  0.5990
  177SLPC   H3R20158   6.626   5.992  10.361 -0.7891  0.3816  0.4215
  177SLPC   H3S20159   6.792   6.057  10.327 -0.2980  0.4033 -1.0489
  177SLPC   C2420160   6.639   6.120  10.183 -0.2792  0.2478 -0.0511
  177SLPC   H4R20161   6.713   6.196  10.151 -0.6546  0.8532  0.4866
  177SLPC   H4S20162   6.542   6.175  10.186 -0.4291 -0.0177 -0.0451
  177SLPC   C2520163   6.631   6.005  10.088  0.1129 -0.3161  0.8970
  177SLPC   H5R20164   6.556   5.933  10.129 -1.1467  0.6942  0.4466
  177SLPC   H5S20165   6.727   5.950  10.084 -0.2805 -0.9808  0.3666
  177SLPC   C2620166   6.602   6.064   9.949 -0.4444 -0.5158  0.8564
  177SLPC   H6R20167   6.653   6.162   9.944 -2.8598  0.7576 -0.8775
  177SLPC   H6S20168   6.494   6.089   9.947 -0.3587 -0.1938 -0.3995
  177SLPC   C2720169   6.628   5.968   9.832 -0.3875 -0.4808 -0.0580
  177SLPC   H7R20170   6.562   5.880   9.847 -2.3409  0.8193 -0.6407
  177SLPC   H7S20171   6.736   5.942   9.829  0.3035  2.0840 -3.2798
  177SLPC   C2820172   6.583   6.043   9.702 -0.4059 -0.2133  0.2198
  177SLPC   H8R20173   6.472   6.049   9.709 -0.6805 -2.5596 -1.1708
  177SLPC   H8S20174   6.591   5.969   9.619 -4.0803  2.0619 -2.4915
  177SLPC   C2920175   6.648   6.176   9.659 -0.2329  0.0567  0.4259
  177SLPC   H9R20176   6.669   6.238   9.748 -0.0952 -1.5199  1.5496
  177SLPC  C21020177   6.677   6.219   9.538  0.4507 -0.3238  0.9593
  177SLPC  H10R20178   6.717   6.321   9.525 -1.4933  0.2989 -0.6546
  177SLPC  C21120179   6.661   6.139   9.412  0.2656  0.0908  0.4994
  177SLPC  H11R20180   6.744   6.172   9.345 -1.2690 -1.2420 -2.2408
  177SLPC  H11S20181   6.669   6.030   9.429  1.6896 -0.2052 -1.6660
  177SLPC  C21220182   6.526   6.168   9.353  0.0910  0.4428  0.0184
  177SLPC  H12R20183   6.449   6.210   9.418  1.5770  1.2749  1.3091
  177SLPC  C21320184   6.482   6.142   9.224 -0.4125 -0.0388 -0.2271
  177SLPC  H13R20185   6.381   6.162   9.183  0.0004 -2.2100 -2.5037
  177SLPC  C21420186   6.568   6.075   9.125 -0.6891  0.6811 -0.2595
  177SLPC  H14R20187   6.677   6.077   9.150 -0.0301 -0.5014 -2.7718
  177SLPC  H14S20188   6.555   6.122   9.025 -0.3432  0.4352 -0.4209
  177SLPC  C21520189   6.542   5.924   9.110 -0.0992 -0.1621  0.2671
  177SLPC  H15R20190   6.536   5.873   9.208 -0.1608 -0.3164  0.1831
  177SLPC  H15S20191   6.633   5.883   9.062  0.7191 -1.2650  2.6269
  177SLPC  C21620192   6.405   5.893   9.041  0.0024  0.1449 -0.3108
  177SLPC  H16R20193   6.416   5.958   8.952 -1.4626 -0.2411 -0.8158
  177SLPC  H16S20194   6.319   5.935   9.098 -1.0747 -0.6764 -1.2732
  177SLPC  C21720195   6.385   5.740   9.021  0.5550 -0.1571 -0.6219
  177SLPC  H17R20196   6.368   5.692   9.120 -1.0129 -1.2038 -1.3497
  177SLPC  H17S20197   6.483   5.697   8.990  4.1086  3.2497  4.2985
  177SLPC  C21820198   6.261   5.698   8.942  0.1072  0.2442  0.2768
  177SLPC  H18R20199   6.263   5.708   8.831  0.3289 -2.6345 -0.0664
  177SLPC  H18S20200   6.169   5.748   8.978 -1.9677 -1.3049 -2.4625
  177SLPC  H18T20201   6.246   5.589   8.956  0.3064  0.3997  1.7983
  177SLPC   C3320202   6.313   5.972  10.409 -0.3879  0.0444  0.1810
  177SLPC   H3X20203   6.356   5.902  10.334 -2.0491 -1.0785  0.2167
  177SLPC   H3Y20204   6.388   6.051  10.432  0.1328 -0.7319  1.2289
  177SLPC   C3420205   6.199   6.051  10.344 -0.0537  0.1656  0.1202
  177SLPC   H4X20206   6.160   6.122  10.420 -0.6671 -0.7733  0.6894
  177SLPC   H4Y20207   6.114   5.982  10.329 -0.7214  0.7175  1.2386
  177SLPC   C3520208   6.241   6.119  10.211 -0.6402 -0.3294 -0.4655
  177SLPC   H5X20209   6.312   6.053  10.156  0.1797  0.0982  0.0672
  177SLPC   H5Y20210   6.294   6.215  10.228  2.2807 -1.9097  0.0343
  177SLPC   C3620211   6.123   6.157  10.123  0.2306 -0.3028 -0.7620
  177SLPC   H6X20212   6.048   6.206  10.188  1.0066  1.3460 -1.0677
  177SLPC   H6Y20213   6.078   6.063  10.084  0.5181 -1.3838  1.3382
  177SLPC   C3720214   6.160   6.256  10.011  0.4083  0.2039  0.1781
  177SLPC   H7X20215   6.211   6.209   9.925 -0.6280 -0.5098 -0.0687
  177SLPC   H7Y20216   6.225   6.337  10.051 -0.1322  0.5398  0.3915
  177SLPC   C3820217   6.031   6.319   9.950  0.0020 -0.0942  0.5627
  177SLPC   H8X20218   5.973   6.239   9.899  1.0566  0.4193 -1.5652
  177SLPC   H8Y20219   6.060   6.399   9.878  1.0272  0.7291  1.8256
  177SLPC   C3920220   5.940   6.400  10.048  0.2811 -0.3779 -0.0388
  177SLPC   H9X20221   6.009   6.454  10.117  0.0195 -0.4570  0.2832
  177SLPC   H9Y20222   5.879   6.329  10.107 -2.2861  0.5660 -1.3961
  177SLPC  C31020223   5.839   6.492   9.981  0.2383 -0.6053  0.2200
  177SLPC  H10X20224   5.768   6.425   9.928  0.0098  0.1728 -0.4834
  177SLPC  H10Y20225   5.892   6.554   9.905 -1.1731  0.9242  0.4164
  177SLPC  C31120226   5.762   6.574  10.083 -0.0111 -0.5560 -0.6165
  177SLPC  H11X20227   5.832   6.625  10.153  1.0572 -0.5014 -1.7038
  177SLPC  H11Y20228   5.705   6.495  10.137  1.7088 -1.5480 -0.1680
  177SLPC  C31220229   5.669   6.673  10.018  0.8804 -0.3781 -0.0349
  177SLPC  H12X20230   5.734   6.738   9.956  0.1481  0.5606  0.1577
  177SLPC  H12Y20231   5.625   6.749  10.086  2.9088 -1.1796  2.3127
  177SLPC  C31320232   5.553   6.607   9.947  0.3509 -0.1199 -0.9294
  177SLPC  H13X20233   5.484   6.552  10.016  2.5271 -1.5621  0.2257
  177SLPC  H13Y20234   5.590   6.528   9.879 -0.1283 -1.6584  0.5155
  177SLPC  C31420235   5.462   6.707   9.871  0.2157  0.2015 -0.3929
  177SLPC  H14X20236   5.443   6.790   9.942  0.4931 -1.2030  1.3890
  177SLPC  H14Y20237   5.369   6.651   9.847  0.1006  0.0030  0.4893
  177SLPC  C31520238   5.517   6.763   9.741 -0.3216 -0.1765  0.5504
  177SLPC  H15X20239   5.603   6.700   9.707  2.6602  3.5918  0.3801
  177SLPC  H15Y20240   5.569   6.859   9.762  0.3488 -0.3452 -0.2800
  177SLPC  C31620241   5.415   6.772   9.627 -0.3175 -0.4946  0.5875
  177SLPC  H16X20242   5.464   6.831   9.547 -0.8657  1.0537  1.3522
  177SLPC  H16Y20243   5.329   6.830   9.667 -0.3422  0.3630 -0.6511
  177SLPC  C31720244   5.365   6.641   9.559 -0.3996 -0.3277 -0.6237
  177SLPC  H17X20245   5.346   6.573   9.645 -0.1966  0.6408  0.2060
  177SLPC  H17Y20246   5.447   6.618   9.488 -1.0558  2.2755 -2.3774
  177SLPC  C31820247   5.231   6.653   9.490  1.0294  0.0993 -0.2506
  177SLPC  H18X20248   5.227   6.727   9.407  0.9482  2.3834  1.6713
  177SLPC  H18Y20249   5.154   6.676   9.566  1.9959 -1.0990  1.1579
  177SLPC  H18Z20250   5.191   6.554   9.460 -1.2142  0.6169  0.7999
  178SLPC     N20251   2.753   4.863  10.720 -0.2674  0.1498  0.3417
  178SLPC   C1320252   2.871   4.812  10.804  0.3812 -0.1976  0.4486
  178SLPC  H13A20253   2.950   4.875  10.766  0.0082 -0.1955 -0.3445
  178SLPC  H13B20254   2.862   4.836  10.909 -0.5921 -0.2487  0.3898
  178SLPC  H13C20255   2.885   4.708  10.778 -0.7724 -0.0104 -1.0840
  178SLPC   C1420256   2.747   5.007  10.749 -0.0199 -0.8395 -0.6576
  178SLPC  H14A20257   2.722   5.015  10.853 -0.8251 -1.4115 -0.8030
  178SLPC  H14B20258   2.843   5.055  10.735 -0.2344 -0.2399 -0.0733
  178SLPC  H14C20259   2.668   5.059  10.697 -0.0843 -1.0757 -0.7993
  178SLPC   C1520260   2.624   4.807  10.774 -0.9180  0.1060  0.1989
  178SLPC  H15A20261   2.612   4.843  10.875  2.2794  1.7512  0.0955
  178SLPC  H15B20262   2.545   4.821  10.701  0.9943 -0.0554 -2.0176
  178SLPC  H15C20263   2.636   4.700  10.765  0.0522  0.0305  2.0047
  178SLPC   C1220264   2.771   4.847  10.573  0.0921  0.2562  0.4956
  178SLPC  H12A20265   2.867   4.884  10.540 -0.2145  0.1534 -0.5541
  178SLPC  H12B20266   2.698   4.902  10.514 -0.5724 -1.0344  0.0797
  178SLPC   C1120267   2.762   4.705  10.513  0.6577  0.1582 -0.3632
  178SLPC  H11A20268   2.795   4.708  10.406  0.4115 -0.2517 -0.4522
  178SLPC  H11B20269   2.656   4.672  10.509  0.8490 -0.5400  0.0829
  178SLPC     P20270   2.788   4.463  10.602  0.0433 -0.2097  0.2594
  178SLPC   O1320271   2.890   4.394  10.683 -0.3138 -0.2895 -0.3938
  178SLPC   O1420272   2.654   4.487  10.668 -0.1730  0.0378 -0.0080
  178SLPC   O1220273   2.847   4.602  10.569  0.3309 -0.0091  0.4320
  178SLPC   O1120274   2.759   4.386  10.466  0.1051  0.3020 -0.0558
  178SLPC    C120275   2.860   4.358  10.366  0.0479  0.1703 -0.0613
  178SLPC    HA20276   2.953   4.414  10.390  0.3322 -0.6182  0.7302
  178SLPC    HB20277   2.882   4.249  10.373 -0.6028  0.1029  1.3317
  178SLPC    C220278   2.793   4.387  10.229 -0.2372  0.6268 -0.0642
  178SLPC    HS20279   2.858   4.329  10.161  0.1538 -0.5385  1.2374
  178SLPC   O2120280   2.799   4.531  10.209  0.3127  0.5304 -0.3234
  178SLPC   C2120281   2.785   4.560  10.078 -0.0848  0.0896 -0.1151
  178SLPC   O2220282   2.776   4.483   9.989 -0.0693  0.7939  0.4956
  178SLPC   C2220283   2.797   4.713  10.062 -0.1312 -0.4139  0.1117
  178SLPC   H2R20284   2.720   4.762  10.126 -0.3914 -1.9767  1.0657
  178SLPC   H2S20285   2.894   4.754  10.096  0.3402 -2.4520  1.4188
  178SLPC    C320286   2.642   4.332  10.229 -0.7735 -0.5198  0.0300
  178SLPC    HX20287   2.577   4.405  10.283 -1.4051 -2.5159  2.1066
  178SLPC    HY20288   2.624   4.252  10.303 -0.9400 -0.3262  0.2017
  178SLPC   O3120289   2.593   4.317  10.095  0.7120 -0.0843 -0.0912
  178SLPC   C3120290   2.602   4.196  10.048  1.0511  0.3294 -0.5249
  178SLPC   O3220291   2.652   4.097  10.099  0.1219  0.3544 -0.4625
  178SLPC   C3220292   2.533   4.189   9.910  0.0929 -0.0654  0.3877
  178SLPC   H2X20293   2.426   4.209   9.929 -0.4304 -0.4518 -1.9307
  178SLPC   H2Y20294   2.545   4.085   9.874  0.1593  0.3650 -0.8712
  178SLPC   C2320295   2.776   4.755   9.909  0.0588 -0.5283 -0.7953
  178SLPC   H3R20296   2.674   4.739   9.868  0.7899 -1.9255 -2.1879
  178SLPC   H3S20297   2.841   4.708   9.832  0.4704  1.5646 -1.7758
  178SLPC   C2420298   2.792   4.903   9.876  0.0021 -0.1236 -0.8001
  178SLPC   H4R20299   2.897   4.927   9.902 -0.3527  0.6430  0.0086
  178SLPC   H4S20300   2.742   4.976   9.943 -0.1275 -0.4632 -0.5239
  178SLPC   C2520301   2.770   4.935   9.725  0.2634 -0.1131  0.1166
  178SLPC   H5R20302   2.759   5.043   9.702  0.0815 -0.5621 -2.2353
  178SLPC   H5S20303   2.682   4.879   9.684 -0.7147 -0.2934  2.3342
  178SLPC   C2620304   2.893   4.898   9.627  0.0587 -0.1343 -0.2570
  178SLPC   H6R20305   2.920   4.796   9.662 -1.4667 -0.3319  0.4351
  178SLPC   H6S20306   2.977   4.965   9.653  0.6804 -0.6679 -0.8567
  178SLPC   C2720307   2.854   4.900   9.487 -0.7263 -0.5522 -0.2811
  178SLPC   H7R20308   2.792   4.992   9.475 -0.7606  0.1312  3.6943
  178SLPC   H7S20309   2.787   4.817   9.458  0.9258 -1.2711 -2.3184
  178SLPC   C2820310   2.967   4.885   9.387  0.0345 -0.4283 -0.5079
  178SLPC   H8R20311   2.932   4.885   9.281 -2.3497  2.8469  0.1260
  178SLPC   H8S20312   3.018   4.788   9.402  0.8978 -0.2575 -2.0719
  178SLPC   C2920313   3.061   4.995   9.411  0.4637  0.1334 -0.4749
  178SLPC   H9R20314   3.114   4.984   9.507 -1.0510  0.7501  0.4871
  178SLPC  C21020315   3.086   5.109   9.341 -0.4752 -0.2318  0.3912
  178SLPC  H10R20316   3.161   5.180   9.379 -1.4998  1.5874 -0.8365
  178SLPC  C21120317   3.014   5.154   9.211  0.2836 -0.2895 -0.0727
  178SLPC  H11R20318   2.945   5.074   9.178  1.0261 -0.7943 -0.4176
  178SLPC  H11S20319   3.093   5.169   9.134  0.4162  1.0397  0.2915
  178SLPC  C21220320   2.940   5.286   9.221  0.7716  0.2236  0.3625
  178SLPC  H12R20321   2.875   5.294   9.310  0.8035 -0.7655  0.4923
  178SLPC  C21320322   2.941   5.391   9.133  0.6961 -0.4783 -0.9135
  178SLPC  H13R20323   2.886   5.482   9.160  2.2118  0.5468 -1.1117
  178SLPC  C21420324   3.015   5.399   8.999  0.4312 -0.8617  0.1933
  178SLPC  H14R20325   3.052   5.303   8.958 -1.0596 -1.2654 -0.2698
  178SLPC  H14S20326   3.104   5.465   9.005 -0.0334 -0.2304  0.2425
  178SLPC  C21520327   2.929   5.460   8.884  0.5022  0.9933  0.1793
  178SLPC  H15R20328   2.999   5.491   8.804  1.3535 -4.8164 -1.8517
  178SLPC  H15S20329   2.870   5.546   8.921  0.9211  0.7233  1.5420
  178SLPC  C21620330   2.836   5.348   8.834 -0.2133 -0.0946 -0.5156
  178SLPC  H16R20331   2.770   5.313   8.916 -1.4562  0.4476 -1.2518
  178SLPC  H16S20332   2.889   5.256   8.801 -0.5903 -0.1835 -0.8976
  178SLPC  C21720333   2.761   5.405   8.712 -0.5114  0.4278 -0.1536
  178SLPC  H17R20334   2.850   5.443   8.657  0.9931  0.2417  2.0205
  178SLPC  H17S20335   2.693   5.487   8.744 -0.8381 -0.6055  1.9899
  178SLPC  C21820336   2.682   5.300   8.639 -0.0868  0.8746  0.6738
  178SLPC  H18R20337   2.585   5.309   8.693 -0.6065  1.7291 -0.3436
  178SLPC  H18S20338   2.716   5.197   8.661  1.7064  0.7152 -2.2480
  178SLPC  H18T20339   2.671   5.331   8.533  0.2847 -1.3429 -0.0568
  178SLPC   C3320340   2.599   4.289   9.807 -0.1613  0.4033 -0.2877
  178SLPC   H3X20341   2.707   4.307   9.825 -0.3276 -0.2417  1.6558
  178SLPC   H3Y20342   2.565   4.390   9.839 -2.1191  0.8401 -3.3402
  178SLPC   C3420343   2.544   4.274   9.663 -0.3645 -0.1516 -0.8546
  178SLPC   H4X20344   2.437   4.246   9.665  0.2958 -3.0715  1.8629
  178SLPC   H4Y20345   2.568   4.180   9.608 -4.2470 -0.5674 -2.1698
  178SLPC   C3520346   2.553   4.398   9.574  0.3932 -0.3080  0.2118
  178SLPC   H5X20347   2.514   4.486   9.631 -1.4129 -0.7843 -0.2210
  178SLPC   H5Y20348   2.492   4.375   9.484  0.4685  0.1592  0.0385
  178SLPC   C3620349   2.699   4.433   9.519  0.5406  0.1282 -0.2668
  178SLPC   H6X20350   2.772   4.427   9.603 -0.7705 -2.7735  0.7804
  178SLPC   H6Y20351   2.700   4.540   9.488 -0.4545 -0.0525 -0.9397
  178SLPC   C3720352   2.721   4.342   9.398 -0.6949 -0.2844 -0.0133
  178SLPC   H7X20353   2.631   4.345   9.332 -2.3765  0.8386  2.2006
  178SLPC   H7Y20354   2.721   4.235   9.428  0.2544 -0.0002  1.0461
  178SLPC   C3820355   2.850   4.355   9.308  0.7299  0.2081  0.6715
  178SLPC   H8X20356   2.830   4.297   9.216 -0.9447 -2.1177  2.3800
  178SLPC   H8Y20357   2.933   4.310   9.368  1.0831  1.6603  1.3250
  178SLPC   C3920358   2.884   4.500   9.279 -0.3741 -0.0246 -0.0333
  178SLPC   H9X20359   2.871   4.553   9.375 -1.8295 -0.6163  0.1247
  178SLPC   H9Y20360   2.814   4.536   9.201 -1.1484 -4.0999 -1.4799
  178SLPC  C31020361   3.036   4.511   9.239  0.7990 -0.0408 -0.4210
  178SLPC  H10X20362   3.086   4.454   9.321 -0.3780 -0.4568  0.0328
  178SLPC  H10Y20363   3.076   4.614   9.246  0.5423 -0.0031  0.6537
  178SLPC  C31120364   3.060   4.444   9.096 -0.1704 -0.4276 -0.8055
  178SLPC  H11X20365   3.018   4.341   9.096 -3.5275  0.7333  1.7436
  178SLPC  H11Y20366   3.170   4.438   9.088 -0.1040  1.1395 -1.4005
  178SLPC  C31220367   3.010   4.542   8.987 -0.7423  0.4260  0.3296
  178SLPC  H12X20368   2.899   4.544   8.995 -0.8622 -0.4520 -0.7589
  178SLPC  H12Y20369   3.032   4.511   8.883  2.3519 -0.0942  1.0461
  178SLPC  C31320370   3.068   4.686   9.002 -0.6742 -0.2323  0.0011
  178SLPC  H13X20371   3.178   4.686   9.021 -0.2136  0.7856 -2.3167
  178SLPC  H13Y20372   3.023   4.732   9.092  0.9518  0.7416  0.3741
  178SLPC  C31420373   3.049   4.777   8.882 -0.0377  0.3804 -0.1346
  178SLPC  H14X20374   2.944   4.792   8.847 -0.3994 -1.3197  0.1286
  178SLPC  H14Y20375   3.095   4.728   8.793 -0.3175 -0.9864  0.4572
  178SLPC  C31520376   3.118   4.920   8.893 -0.0898  0.9401  0.2192
  178SLPC  H15X20377   3.090   4.966   8.991  1.1983  2.2311  0.0122
  178SLPC  H15Y20378   3.227   4.907   8.906  0.7041  1.6278 -4.2198
  178SLPC  C31620379   3.095   5.013   8.774 -0.6605 -0.5018  0.0756
  178SLPC  H16X20380   2.995   5.063   8.780 -0.4006 -0.0414  0.6846
  178SLPC  H16Y20381   3.107   4.957   8.679 -0.3288 -0.0933 -0.1270
  178SLPC  C31720382   3.201   5.127   8.772 -0.2182  0.2699  0.2220
  178SLPC  H17X20383   3.304   5.087   8.770 -0.3641 -0.2597  1.6267
  178SLPC  H17Y20384   3.195   5.184   8.867  1.0167  2.0575 -0.7167
  178SLPC  C31820385   3.178   5.223   8.654  0.4345 -0.0256 -0.3537
  178SLPC  H18X20386   3.200   5.167   8.560  0.6502  1.2613 -1.0888
  178SLPC  H18Y20387   3.247   5.310   8.662  1.5655 -0.9237 -0.0021
  178SLPC  H18Z20388   3.073   5.257   8.657 -0.1137 -1.6041 -0.3733
  179SLPC     N20389   1.668   0.160  10.678 -0.0700 -0.6500 -0.0988
  179SLPC   C1320390   1.762   0.190  10.793  0.1795 -0.2248  0.4361
  179SLPC  H13A20391   1.743   0.291  10.825 -2.6525 -1.0354  1.5548
  179SLPC  H13B20392   1.755   0.123  10.877  1.8193  1.9143  2.4323
  179SLPC  H13C20393   1.868   0.179  10.775  0.1874 -1.0763  0.9802
  179SLPC   C1420394   1.706   0.246  10.562 -0.4880  0.7559 -0.1044
  179SLPC  H14A20395   1.710   0.351  10.587 -0.7574  0.7347  0.0341
  179SLPC  H14B20396   1.804   0.230  10.520 -0.5101  0.6931 -0.1330
  179SLPC  H14C20397   1.639   0.235  10.478  0.6206 -0.5873 -0.8438
  179SLPC   C1520398   1.534   0.204  10.728 -0.5764  0.0638  0.0629
  179SLPC  H15A20399   1.522   0.310  10.711 -1.1368 -0.1399 -0.8411
  179SLPC  H15B20400   1.466   0.149  10.665 -1.0108  1.3788 -0.6531
  179SLPC  H15C20401   1.513   0.188  10.833  2.4860 -0.4993  0.6817
  179SLPC   C1220402   1.672   0.009  10.650 -0.5425  0.1180 -0.0312
  179SLPC  H12A20403   1.630  -0.040  10.737 -0.5958 -0.5960 -0.4536
  179SLPC  H12B20404   1.776  -0.016  10.631 -1.4270 -2.5339 -1.8564
  179SLPC   C1120405   1.601  -0.034  10.519 -0.0812  0.9407  0.0493
  179SLPC  H11A20406   1.603  -0.145  10.514  1.0911  0.9766 -0.7262
  179SLPC  H11B20407   1.658   0.001  10.431 -0.8988  2.1416 -0.0295
  179SLPC     P20408   1.400   0.052  10.390  0.0793 -0.0490  0.6386
  179SLPC   O1320409   1.250   0.041  10.398 -0.1075  0.1776  0.2195
  179SLPC   O1420410   1.458   0.185  10.365  0.0154 -0.3985 -0.6550
  179SLPC   O1220411   1.463  -0.006  10.522 -0.3294  0.1341  0.2772
  179SLPC   O1120412   1.443  -0.055  10.277  0.6812  0.0235 -0.1435
  179SLPC    C120413   1.397  -0.188  10.267 -0.3538  0.0469  0.5716
  179SLPC    HA20414   1.412  -0.249  10.359 -4.8329 -2.5193 -0.0732
  179SLPC    HB20415   1.289  -0.192  10.240 -0.4660  1.0144  0.8758
  179SLPC    C220416   1.472  -0.273  10.167  0.6738  0.2062  1.0540
  179SLPC    HS20417   1.579  -0.266  10.196  1.3703 -0.9914 -0.9845
  179SLPC   O2120418   1.457  -0.218  10.033 -0.0938 -0.3295  0.6194
  179SLPC   C2120419   1.561  -0.239   9.955  0.6317 -0.6125 -0.3964
  179SLPC   O2220420   1.650  -0.324   9.979 -0.6275 -0.1453  0.1250
  179SLPC   C2220421   1.564  -0.138   9.841 -0.4017 -0.4344  0.1402
  179SLPC   H2R20422   1.484  -0.061   9.846 -0.0960 -0.0723 -0.4502
  179SLPC   H2S20423   1.663  -0.087   9.842  0.9138 -2.8718 -0.3360
  179SLPC    C320424   1.437  -0.426  10.177 -0.0024 -0.5354  0.5688
  179SLPC    HX20425   1.459  -0.457  10.282 -0.4500  0.7841  1.0818
  179SLPC    HY20426   1.500  -0.487  10.109 -2.1497 -1.4218 -0.7227
  179SLPC   O3120427   1.296  -0.450  10.158 -0.2376  0.1164 -0.0878
  179SLPC   C3120428   1.264  -0.474  10.030 -0.1166 -0.1405 -0.2416
  179SLPC   O3220429   1.334  -0.463   9.933 -0.0336  0.0202 -0.6016
  179SLPC   C3220430   1.114  -0.507  10.016  0.7351  0.0686 -0.2015
  179SLPC   H2X20431   1.087  -0.492   9.909  0.1985 -0.1781 -0.1010
  179SLPC   H2Y20432   1.047  -0.444  10.078 -0.0155  1.7741 -2.5603
  179SLPC   C2320433   1.561  -0.207   9.710 -0.1776  0.1013  0.6481
  179SLPC   H3R20434   1.492  -0.293   9.701  0.2505 -0.1276 -0.6212
  179SLPC   H3S20435   1.659  -0.250   9.680  0.5651  2.0616  0.0578
  179SLPC   C2420436   1.518  -0.114   9.588  0.6224  0.1079 -0.2888
  179SLPC   H4R20437   1.579  -0.023   9.569  0.7764 -0.3095 -2.0211
  179SLPC   H4S20438   1.417  -0.078   9.618  0.5943 -0.1805 -0.0305
  179SLPC   C2520439   1.519  -0.187   9.449  0.4180  0.1921 -0.1944
  179SLPC   H5R20440   1.564  -0.288   9.459 -0.7326 -0.3989 -0.8344
  179SLPC   H5S20441   1.582  -0.124   9.383  0.1430  1.4004  0.6651
  179SLPC   C2620442   1.377  -0.190   9.397  0.2767 -0.5349  0.4887
  179SLPC   H6R20443   1.344  -0.084   9.391  0.1249 -0.6053  0.0040
  179SLPC   H6S20444   1.318  -0.253   9.467  0.6572 -0.4955  0.8437
  179SLPC   C2720445   1.372  -0.243   9.251  0.1508  0.9770 -0.5280
  179SLPC   H7R20446   1.415  -0.345   9.260  0.1946  1.0303 -0.1279
  179SLPC   H7S20447   1.447  -0.187   9.192  2.9163 -0.5585  1.2649
  179SLPC   C2820448   1.233  -0.284   9.195 -0.6963 -0.3800 -1.0924
  179SLPC   H8R20449   1.168  -0.194   9.184 -0.3858 -0.2250 -1.7124
  179SLPC   H8S20450   1.187  -0.351   9.271  4.3469 -1.3488  1.5224
  179SLPC   C2920451   1.255  -0.349   9.064  0.3530 -0.0625 -0.2580
  179SLPC   H9R20452   1.359  -0.366   9.031  0.0124 -3.3567  0.0566
  179SLPC  C21020453   1.161  -0.379   8.976 -0.2993 -0.1687 -0.4933
  179SLPC  H10R20454   1.188  -0.447   8.893 -0.9029 -1.8640  0.6426
  179SLPC  C21120455   1.015  -0.349   8.992 -0.5398  0.3165  0.1014
  179SLPC  H11R20456   0.988  -0.308   9.091  2.3081  1.2473  0.5757
  179SLPC  H11S20457   0.973  -0.452   8.988 -3.0631  1.0897  3.0865
  179SLPC  C21220458   0.950  -0.248   8.892  0.1010  0.3101  0.3536
  179SLPC  H12R20459   0.939  -0.147   8.933  0.0838  0.6157 -0.4054
  179SLPC  C21320460   0.906  -0.272   8.766  0.7233  0.0957 -0.5433
  179SLPC  H13R20461   0.873  -0.185   8.708  1.6442  0.0428 -1.1782
  179SLPC  C21420462   0.920  -0.409   8.699 -0.4976 -0.1513 -0.1713
  179SLPC  H14R20463   0.821  -0.455   8.683 -0.2334 -0.6357 -0.4354
  179SLPC  H14S20464   0.972  -0.485   8.761  0.2596  0.8047  0.4076
  179SLPC  C21520465   0.989  -0.396   8.556  0.1208  0.4436  0.0038
  179SLPC  H15R20466   1.015  -0.502   8.534  2.4732  0.6379  1.4926
  179SLPC  H15S20467   1.077  -0.330   8.566  0.4746  0.0111 -0.2116
  179SLPC  C21620468   0.887  -0.355   8.452 -0.1779 -0.5254 -0.4772
  179SLPC  H16R20469   0.838  -0.258   8.475  0.3984 -0.7362  1.9391
  179SLPC  H16S20470   0.802  -0.426   8.453 -0.6838  0.0504 -1.1108
  179SLPC  C21720471   0.943  -0.370   8.307  0.6106 -0.0482  0.3003
  179SLPC  H17R20472   0.992  -0.470   8.297  0.8540  0.0244  0.7310
  179SLPC  H17S20473   1.024  -0.296   8.289  0.6393  0.4447  2.2487
  179SLPC  C21820474   0.832  -0.361   8.199 -0.2235  0.1590  0.0782
  179SLPC  H18R20475   0.798  -0.257   8.178  1.9653  0.6345 -1.4846
  179SLPC  H18S20476   0.744  -0.422   8.227  1.0036 -1.5858  0.2468
  179SLPC  H18T20477   0.881  -0.403   8.109  1.2346  0.6888  0.6013
  179SLPC   C3320478   1.091  -0.662  10.032 -0.1971  0.2944 -0.2688
  179SLPC   H3X20479   1.099  -0.686  10.140 -0.4389  1.3852  0.0029
  179SLPC   H3Y20480   1.166  -0.715   9.969 -2.1280 -1.1920 -1.4357
  179SLPC   C3420481   0.953  -0.712   9.982  0.4490 -0.3161 -0.5364
  179SLPC   H4X20482   0.874  -0.644  10.022  0.0252 -1.2254  0.2125
  179SLPC   H4Y20483   0.951  -0.817  10.019  2.2840 -0.2901 -0.2837
  179SLPC   C3520484   0.918  -0.711   9.827  1.1082 -0.0511  0.3897
  179SLPC   H5X20485   0.987  -0.783   9.777  1.5378  0.9519 -0.5031
  179SLPC   H5Y20486   0.927  -0.607   9.790  0.6791 -0.9111 -2.3628
  179SLPC   C3620487   0.786  -0.779   9.786 -0.1627  0.5642 -0.6174
  179SLPC   H6X20488   0.704  -0.709   9.814 -0.1719 -0.0250  0.9573
  179SLPC   H6Y20489   0.773  -0.859   9.862 -1.7702  1.5835  0.2539
  179SLPC   C3720490   0.777  -0.844   9.643 -0.6753  0.0331 -0.5055
  179SLPC   H7X20491   0.680  -0.898   9.640  0.3170 -1.9307  0.7853
  179SLPC   H7Y20492   0.865  -0.913   9.638 -1.3068 -0.8446  0.1362
  179SLPC   C3820493   0.799  -0.734   9.534  0.6137  0.1701  0.3024
  179SLPC   H8X20494   0.900  -0.690   9.547  1.1494 -0.7943 -0.4487
  179SLPC   H8Y20495   0.716  -0.662   9.547 -0.1014 -0.6697  0.4444
  179SLPC   C3920496   0.783  -0.788   9.390  0.0411 -0.1969 -0.0035
  179SLPC   H9X20497   0.689  -0.846   9.397  0.9476 -1.7386 -0.0813
  179SLPC   H9Y20498   0.862  -0.863   9.371  0.0299 -0.2104  0.0024
  179SLPC  C31020499   0.779  -0.682   9.279  0.2343  0.4875 -0.5569
  179SLPC  H10X20500   0.875  -0.626   9.267  0.2388  0.6439  0.1726
  179SLPC  H10Y20501   0.703  -0.609   9.313  0.0354 -0.5157  1.2338
  179SLPC  C31120502   0.739  -0.736   9.141  0.0990 -0.9305  0.5042
  179SLPC  H11X20503   0.655  -0.807   9.150 -0.2696 -0.5270  0.3110
  179SLPC  H11Y20504   0.834  -0.774   9.097 -0.0073  1.3244 -1.9774
  179SLPC  C31220505   0.695  -0.609   9.057  0.0404 -0.4254  0.0041
  179SLPC  H12X20506   0.774  -0.532   9.065 -0.7231  0.5551 -1.5575
  179SLPC  H12Y20507   0.609  -0.567   9.113 -0.6454 -1.9908  0.1733
  179SLPC  C31320508   0.681  -0.646   8.907  0.6615  0.5030 -0.2335
  179SLPC  H13X20509   0.638  -0.748   8.901 -0.5011  0.9321  0.4896
  179SLPC  H13Y20510   0.779  -0.652   8.855  0.6605 -1.0017 -0.1026
  179SLPC  C31420511   0.586  -0.549   8.846 -0.3505 -0.0615 -1.2105
  179SLPC  H14X20512   0.637  -0.452   8.861  1.6558 -1.3109  0.6471
  179SLPC  H14Y20513   0.494  -0.534   8.908  1.1281  4.3003  0.3203
  179SLPC  C31520514   0.545  -0.586   8.702 -0.1470  0.1137  0.2714
  179SLPC  H15X20515   0.525  -0.695   8.690 -1.4705  0.2882  0.7094
  179SLPC  H15Y20516   0.644  -0.576   8.653  1.3281 -1.2842  2.6935
  179SLPC  C31620517   0.435  -0.496   8.633 -0.4812  0.3203  0.6808
  179SLPC  H16X20518   0.480  -0.396   8.618  1.0470 -0.5127 -0.5715
  179SLPC  H16Y20519   0.345  -0.508   8.698 -0.3496 -0.9837  0.6535
  179SLPC  C31720520   0.391  -0.523   8.486  0.4218  1.2102 -0.5288
  179SLPC  H17X20521   0.469  -0.490   8.414 -0.4538  0.3092 -1.9487
  179SLPC  H17Y20522   0.303  -0.462   8.456 -1.4258 -1.2268 -0.4571
  179SLPC  C31820523   0.350  -0.675   8.455 -0.0573 -0.8011 -0.0674
  179SLPC  H18X20524   0.261  -0.709   8.513 -1.2305  1.6531 -0.2936
  179SLPC  H18Y20525   0.447  -0.719   8.485  1.7927  3.0480  0.2137
  179SLPC  H18Z20526   0.336  -0.688   8.346 -0.4324 -0.4666 -0.0600
  180SLPC     N20527   5.057   6.437  10.706 -0.2945 -0.9926 -0.0694
  180SLPC   C1320528   4.977   6.327  10.638 -1.1355 -0.5015  0.1707
  180SLPC  H13A20529   4.986   6.351  10.533  0.3788  1.4242  0.6851
  180SLPC  H13B20530   5.005   6.225  10.659  3.5260  0.1604 -1.7598
  180SLPC  H13C20531   4.872   6.337  10.661 -2.1910  1.4134 -4.3968
  180SLPC   C1420532   5.199   6.390  10.697  0.3635 -0.1140  0.0040
  180SLPC  H14A20533   5.269   6.453  10.749 -0.8754  0.2890  1.2319
  180SLPC  H14B20534   5.216   6.290  10.735 -0.1749 -0.4310 -0.5737
  180SLPC  H14C20535   5.224   6.392  10.592 -1.1967  2.7024 -0.4178
  180SLPC   C1520536   5.022   6.465  10.850 -0.2532 -0.1446  0.0495
  180SLPC  H15A20537   5.097   6.525  10.901 -0.1022  0.8992 -1.3312
  180SLPC  H15B20538   4.932   6.523  10.861 -0.7143 -1.0426  1.1425
  180SLPC  H15C20539   5.007   6.372  10.901  0.6354  0.6019  1.7487
  180SLPC   C1220540   5.049   6.564  10.630  0.4544 -0.1196  0.0083
  180SLPC  H12A20541   5.070   6.540  10.527  0.0685  0.5879 -0.2449
  180SLPC  H12B20542   5.126   6.632  10.665  0.7118 -1.1712  1.5849
  180SLPC   C1120543   4.913   6.639  10.627  0.1291  0.2970 -0.3278
  180SLPC  H11A20544   4.922   6.730  10.564 -1.9484  1.0418  0.3662
  180SLPC  H11B20545   4.892   6.679  10.728 -0.3936  0.4381 -0.4892
  180SLPC     P20546   4.664   6.531  10.654  0.0621  0.4269  0.0398
  180SLPC   O1320547   4.600   6.409  10.595 -0.0418  0.0466 -0.5154
  180SLPC   O1420548   4.692   6.523  10.803  0.2565 -0.1224 -0.4278
  180SLPC   O1220549   4.801   6.561  10.573 -0.4094  0.2015  0.1577
  180SLPC   O1120550   4.559   6.645  10.619  0.5601 -0.1332 -0.1356
  180SLPC    C120551   4.563   6.699  10.481  0.0922 -0.2815  0.0730
  180SLPC    HA20552   4.657   6.758  10.477  0.2997 -0.6844 -1.9808
  180SLPC    HB20553   4.578   6.620  10.404  2.0258  0.6207 -0.5376
  180SLPC    C220554   4.443   6.787  10.438  0.3021 -0.7176  0.0528
  180SLPC    HS20555   4.436   6.870  10.512 -2.2116 -2.0845  1.4738
  180SLPC   O2120556   4.329   6.703  10.436  0.0086  0.2047  0.3506
  180SLPC   C2120557   4.213   6.763  10.411 -0.4867 -0.3657  0.5579
  180SLPC   O2220558   4.198   6.882  10.409 -0.0104  0.1051 -0.2762
  180SLPC   C2220559   4.107   6.664  10.371  0.3278  0.2325  1.2838
  180SLPC   H2R20560   4.138   6.561  10.398  0.8127 -0.2695 -0.9470
  180SLPC   H2S20561   4.020   6.702  10.428 -1.2631 -0.2443 -0.7301
  180SLPC    C320562   4.467   6.845  10.294 -0.4357 -0.4148 -0.8622
  180SLPC    HX20563   4.569   6.890  10.302 -0.2129 -1.1573  1.2610
  180SLPC    HY20564   4.393   6.924  10.267 -2.2397 -1.0964  1.7063
  180SLPC   O3120565   4.463   6.749  10.195  0.0762 -0.4773 -0.4962
  180SLPC   C3120566   4.574   6.737  10.121  0.5609 -0.1792 -0.0823
  180SLPC   O3220567   4.676   6.793  10.146 -0.2281 -0.1386 -0.3742
  180SLPC   C3220568   4.543   6.655   9.995 -0.6008  0.5716  0.6130
  180SLPC   H2X20569   4.490   6.719   9.922 -0.4066 -0.0897 -0.1265
  180SLPC   H2Y20570   4.474   6.570  10.016 -0.5175  0.0331 -1.1392
  180SLPC   C2320571   4.063   6.661  10.218 -0.4075 -0.2410  0.4011
  180SLPC   H3R20572   3.964   6.612  10.219 -0.1882 -0.7164 -0.3315
  180SLPC   H3S20573   4.135   6.594  10.166 -0.7290 -0.3057  0.0349
  180SLPC   C2420574   4.062   6.796  10.142  0.4523  0.1490  1.0617
  180SLPC   H4R20575   4.166   6.823  10.113  0.9833  0.4230  3.0720
  180SLPC   H4S20576   4.016   6.873  10.208 -1.9782  2.0285 -2.4961
  180SLPC   C2520577   3.973   6.791  10.014 -0.1347 -0.4955  0.3847
  180SLPC   H5R20578   4.022   6.734   9.934  1.0520  0.3312  0.5024
  180SLPC   H5S20579   3.959   6.896   9.980  1.0341  0.9025  3.7371
  180SLPC   C2620580   3.834   6.733  10.029  0.5906  0.2052  0.1084
  180SLPC   H6R20581   3.782   6.788  10.110  1.1331  0.2110  0.4579
  180SLPC   H6S20582   3.849   6.627  10.057  2.9855  0.9024  1.7931
  180SLPC   C2720583   3.748   6.750   9.899 -0.5153  0.0251 -0.3355
  180SLPC   H7R20584   3.674   6.666   9.900 -0.4365 -0.0790 -1.5764
  180SLPC   H7S20585   3.808   6.731   9.807 -0.3727 -1.2117 -0.0165
  180SLPC   C2820586   3.677   6.888   9.894 -0.4042  0.0568 -0.1085
  180SLPC   H8R20587   3.759   6.962   9.907  2.3115 -3.0030  1.4233
  180SLPC   H8S20588   3.623   6.898   9.991  2.7920  1.6267  1.6671
  180SLPC   C2920589   3.581   6.895   9.778  0.1973  0.4827  0.3076
  180SLPC   H9R20590   3.477   6.872   9.804 -0.2568 -1.0999 -2.4875
  180SLPC  C21020591   3.616   6.922   9.649 -0.2416 -0.3664  0.1774
  180SLPC  H10R20592   3.541   6.940   9.570  0.4584  4.6401  0.2927
  180SLPC  C21120593   3.758   6.953   9.607 -0.6025 -0.1354 -0.1109
  180SLPC  H11R20594   3.841   6.901   9.659 -0.7350  2.2284  2.7048
  180SLPC  H11S20595   3.775   7.058   9.640 -1.0482  0.8233 -2.6371
  180SLPC  C21220596   3.777   6.930   9.461  0.1593 -0.7587 -0.5820
  180SLPC  H12R20597   3.837   6.839   9.447  2.5948  0.6066  0.3754
  180SLPC  C21320598   3.722   6.997   9.356  0.4026 -0.6268  0.2613
  180SLPC  H13R20599   3.741   6.965   9.253 -0.2264  2.7982 -1.0534
  180SLPC  C21420600   3.636   7.124   9.358  0.6886 -0.2145 -0.8670
  180SLPC  H14R20601   3.665   7.187   9.445  0.9429 -0.4641 -0.7690
  180SLPC  H14S20602   3.528   7.099   9.361  0.7745 -0.5033  0.9939
  180SLPC  C21520603   3.664   7.214   9.234  0.6507 -0.1080 -0.4408
  180SLPC  H15R20604   3.759   7.195   9.182  1.0400  0.4321  0.0530
  180SLPC  H15S20605   3.680   7.320   9.266  1.1255  0.5737 -2.7636
  180SLPC  C21620606   3.543   7.221   9.138  0.5942 -0.1845  0.0847
  180SLPC  H16R20607   3.448   7.212   9.196  0.5170 -1.5271 -0.2082
  180SLPC  H16S20608   3.544   7.125   9.082  1.6042 -1.1265  1.6320
  180SLPC  C21720609   3.543   7.345   9.048 -0.5965  0.2538 -0.1327
  180SLPC  H17R20610   3.646   7.355   9.009 -1.4823 -2.0914 -3.5364
  180SLPC  H17S20611   3.527   7.439   9.106  1.5623 -1.1171  2.9872
  180SLPC  C21820612   3.448   7.341   8.931  0.3721  0.0583  0.0920
  180SLPC  H18R20613   3.467   7.432   8.869  0.3238  0.9404  1.3225
  180SLPC  H18S20614   3.343   7.337   8.967 -0.0614  2.2182 -0.7794
  180SLPC  H18T20615   3.457   7.247   8.873  0.0458 -0.0936  0.2846
  180SLPC   C3320616   4.673   6.590   9.927 -0.3927 -0.3587 -0.3679
  180SLPC   H3X20617   4.733   6.537  10.004 -1.2925 -2.4784 -1.0596
  180SLPC   H3Y20618   4.737   6.670   9.883 -1.1740  0.9223  0.7265
  180SLPC   C3420619   4.640   6.506   9.800  0.2287  0.4219  0.1195
  180SLPC   H4X20620   4.570   6.426   9.831 -1.3433  1.5802 -0.3049
  180SLPC   H4Y20621   4.737   6.471   9.760  0.8453  0.8330  1.2091
  180SLPC   C3520622   4.557   6.582   9.688  0.0184  0.6040  0.1298
  180SLPC   H5X20623   4.604   6.682   9.677 -4.3843  2.8384 -0.9053
  180SLPC   H5Y20624   4.456   6.602   9.729 -1.0322 -0.3454 -1.8291
  180SLPC   C3620625   4.533   6.509   9.554 -0.0358  0.2538 -0.4940
  180SLPC   H6X20626   4.449   6.437   9.564 -0.5536  0.4927 -2.6886
  180SLPC   H6Y20627   4.625   6.451   9.529  1.1180  0.1595  3.3096
  180SLPC   C3720628   4.498   6.604   9.441  0.5604  0.2231  0.8990
  180SLPC   H7X20629   4.426   6.684   9.470 -1.6629 -1.1773 -0.3810
  180SLPC   H7Y20630   4.433   6.543   9.374 -0.7220  0.5191  1.8216
  180SLPC   C3820631   4.617   6.666   9.355  1.0086  0.3411  0.1426
  180SLPC   H8X20632   4.672   6.582   9.307 -0.8054 -0.2447 -1.0308
  180SLPC   H8Y20633   4.667   6.734   9.427 -0.4086  0.1736  1.3376
  180SLPC   C3920634   4.556   6.750   9.241 -0.0151 -0.2079 -0.2116
  180SLPC   H9X20635   4.511   6.834   9.297  0.7245  0.3000 -0.3612
  180SLPC   H9Y20636   4.470   6.695   9.197  0.5432 -1.0493 -0.2870
  180SLPC  C31020637   4.655   6.807   9.141 -0.0546  1.0844 -0.5014
  180SLPC  H10X20638   4.694   6.723   9.080  1.0534 -1.3422  3.1717
  180SLPC  H10Y20639   4.746   6.841   9.196 -0.5361 -0.0555  1.0785
  180SLPC  C31120640   4.600   6.925   9.070  0.1551 -0.2816  0.1347
  180SLPC  H11X20641   4.573   7.008   9.140 -0.7318  1.5209 -2.1872
  180SLPC  H11Y20642   4.507   6.904   9.013  1.1158 -2.8640 -0.5999
  180SLPC  C31220643   4.699   6.980   8.971 -0.1195 -0.5250  0.3152
  180SLPC  H12X20644   4.717   6.931   8.873  0.8825  1.7276 -0.7005
  180SLPC  H12Y20645   4.797   6.982   9.023  0.0922  1.0153 -0.1095
  180SLPC  C31320646   4.648   7.127   8.935 -0.0247  0.7363  0.1453
  180SLPC  H13X20647   4.609   7.191   9.016 -0.7876  0.6892 -0.1762
  180SLPC  H13Y20648   4.547   7.110   8.892 -0.0787 -0.3309  0.6622
  180SLPC  C31420649   4.743   7.206   8.838  0.1932  0.5394 -0.0496
  180SLPC  H14X20650   4.702   7.307   8.815 -2.8983 -0.3251  1.2326
  180SLPC  H14Y20651   4.764   7.140   8.751  0.6532  2.9755 -1.9207
  180SLPC  C31520652   4.876   7.239   8.909 -1.2378 -0.8614 -0.1942
  180SLPC  H15X20653   4.935   7.156   8.953  1.2425  1.2077  0.6625
  180SLPC  H15Y20654   4.852   7.307   8.994 -0.7905 -0.5829 -0.2836
  180SLPC  C31620655   4.980   7.310   8.816 -0.0527 -0.0394 -0.5058
  180SLPC  H16X20656   4.974   7.420   8.799 -0.2244  0.3468  1.7366
  180SLPC  H16Y20657   4.970   7.256   8.720 -1.6584 -1.1332  0.2133
  180SLPC  C31720658   5.121   7.281   8.856  0.2585  0.3457 -0.0049
  180SLPC  H17X20659   5.129   7.171   8.870  0.5032 -0.0946 -2.9885
  180SLPC  H17Y20660   5.143   7.327   8.955  0.4280  3.4803 -1.3494
  180SLPC  C31820661   5.226   7.322   8.751  0.2960 -0.0240 -0.1880
  180SLPC  H18X20662   5.232   7.433   8.756 -1.5038  0.1035 -0.3486
  180SLPC  H18Y20663   5.194   7.287   8.650  1.3937  1.2848 -1.0304
  180SLPC  H18Z20664   5.330   7.284   8.761  0.0561 -0.9558 -1.0450
  181SLPC     N20665   5.771   4.183  11.252  0.5072  0.4878 -0.3778
  181SLPC   C1320666   5.894   4.239  11.326  0.1129  0.4879  0.1757
  181SLPC  H13A20667   5.966   4.280  11.257  0.6714  0.7023  0.8738
  181SLPC  H13B20668   5.873   4.310  11.405  0.6606  0.9994 -0.1322
  181SLPC  H13C20669   5.944   4.149  11.360  1.0139 -1.3137 -5.0154
  181SLPC   C1420670   5.676   4.297  11.237  0.5321  0.0182 -0.1121
  181SLPC  H14A20671   5.717   4.380  11.182 -0.5531 -0.0103 -1.0072
  181SLPC  H14B20672   5.586   4.257  11.193  0.5256  0.8019 -0.8324
  181SLPC  H14C20673   5.652   4.338  11.334  2.3585  0.2230  0.2951
  181SLPC   C1520674   5.704   4.073  11.336 -0.2902  0.2316 -0.1570
  181SLPC  H15A20675   5.642   4.110  11.417 -2.5857  1.4909 -2.3266
  181SLPC  H15B20676   5.633   4.013  11.280  1.3019 -2.0041  0.0895
  181SLPC  H15C20677   5.785   4.007  11.363 -1.0933 -0.7244 -0.0135
  181SLPC   C1220678   5.819   4.123  11.120 -0.1032 -0.3814  0.2888
  181SLPC  H12A20679   5.874   4.036  11.151 -1.1096 -0.4622  2.0153
  181SLPC  H12B20680   5.896   4.193  11.090 -0.8683 -0.5276 -2.2258
  181SLPC   C1120681   5.713   4.084  11.005  0.1208 -0.7082  0.2379
  181SLPC  H11A20682   5.766   4.047  10.914 -1.1992  0.2449 -0.9786
  181SLPC  H11B20683   5.664   4.181  10.979  1.5509 -0.3168 -1.1506
  181SLPC     P20684   5.615   3.833  11.006 -0.1913 -0.2789  0.0488
  181SLPC   O1320685   5.611   3.750  11.128 -0.2413  0.6624 -0.4104
  181SLPC   O1420686   5.507   3.803  10.904  0.4324  0.4813  0.4052
  181SLPC   O1220687   5.618   3.988  11.049 -0.4643  0.2476  0.0528
  181SLPC   O1120688   5.758   3.806  10.952 -0.4485 -0.9473  0.6391
  181SLPC    C120689   5.821   3.677  10.928  0.5593  0.2769  0.0188
  181SLPC    HA20690   5.913   3.670  10.990  1.4644 -1.1080 -1.3990
  181SLPC    HB20691   5.760   3.590  10.958 -0.5803  0.1634 -2.3675
  181SLPC    C220692   5.863   3.667  10.778  0.5278  0.0307  0.3847
  181SLPC    HS20693   5.930   3.578  10.769  0.9495  0.2441  1.3345
  181SLPC   O2120694   5.922   3.784  10.727 -0.3922 -0.1842 -0.0240
  181SLPC   C2120695   6.035   3.828  10.795 -0.2436 -0.5114  0.0516
  181SLPC   O2220696   6.091   3.768  10.882 -0.2979  0.1188 -0.4798
  181SLPC   C2220697   6.082   3.964  10.748  0.0139  0.1866 -0.2456
  181SLPC   H2R20698   6.070   4.039  10.830  0.3415 -3.3587  3.3324
  181SLPC   H2S20699   6.192   3.956  10.734  0.6992  1.9811  2.8652
  181SLPC    C320700   5.741   3.632  10.682 -0.2596  0.2446 -0.9423
  181SLPC    HX20701   5.649   3.690  10.706 -1.5324 -1.7294 -0.7928
  181SLPC    HY20702   5.713   3.526  10.701  0.1491  0.4021  0.7593
  181SLPC   O3120703   5.754   3.651  10.541  0.0956  0.1134  0.1277
  181SLPC   C3120704   5.844   3.568  10.479  0.4902 -0.4560  0.9581
  181SLPC   O3220705   5.911   3.490  10.540 -0.6094  0.0380 -0.0586
  181SLPC   C3220706   5.835   3.591  10.329 -0.6046  0.2129  0.1565
  181SLPC   H2X20707   5.890   3.686  10.311  1.1751 -1.0919 -1.7684
  181SLPC   H2Y20708   5.731   3.610  10.296 -0.6384 -1.3854 -0.7526
  181SLPC   C2320709   6.019   4.011  10.611 -0.5354  0.1079 -0.0991
  181SLPC   H3R20710   6.066   4.110  10.596  0.4904 -0.4167 -0.4165
  181SLPC   H3S20711   5.909   4.027  10.616 -0.6658 -0.8167  0.1892
  181SLPC   C2420712   6.079   3.935  10.486  0.0714 -0.2404 -0.0421
  181SLPC   H4R20713   6.044   3.829  10.488 -1.0943  0.1433  0.5457
  181SLPC   H4S20714   6.188   3.928  10.506  0.8029  2.5674 -2.4043
  181SLPC   C2520715   6.039   4.004  10.357  0.1493 -0.3103 -0.3482
  181SLPC   H5R20716   6.065   4.111  10.364 -1.5714  0.0383  2.0128
  181SLPC   H5S20717   5.929   4.011  10.349  0.1311  1.7903  1.0404
  181SLPC   C2620718   6.105   3.928  10.240  0.0484  0.2963  0.3071
  181SLPC   H6R20719   6.083   3.822  10.264  0.2927 -0.2080 -1.5699
  181SLPC   H6S20720   6.215   3.938  10.244  0.4119  0.7663 -4.6793
  181SLPC   C2720721   6.056   3.980  10.108 -0.3476 -0.7644 -0.2112
  181SLPC   H7R20722   5.947   3.999  10.118 -0.4398 -1.5946  0.4608
  181SLPC   H7S20723   6.078   3.920  10.017  2.6615  0.5281 -0.4707
  181SLPC   C2820724   6.118   4.111  10.063 -0.0657  0.2016 -0.2931
  181SLPC   H8R20725   6.226   4.095  10.045  0.3546  2.8351 -0.6189
  181SLPC   H8S20726   6.114   4.174  10.154 -0.6954 -1.4110  0.8339
  181SLPC   C2920727   6.048   4.187   9.950  0.4866 -0.0804 -0.1865
  181SLPC   H9R20728   5.956   4.242   9.978  1.0941  0.7011  0.3165
  181SLPC  C21020729   6.098   4.211   9.826 -0.0610  0.1420  0.3350
  181SLPC  H10R20730   6.037   4.262   9.751  1.0787  0.8224 -0.1510
  181SLPC  C21120731   6.229   4.145   9.778 -0.1775 -0.2635 -0.7021
  181SLPC  H11R20732   6.195   4.052   9.729 -3.2885  0.0808  0.5748
  181SLPC  H11S20733   6.306   4.110   9.850  0.2185  1.2994 -0.3229
  181SLPC  C21220734   6.289   4.239   9.676 -0.0080 -0.0266  0.6300
  181SLPC  H12R20735   6.353   4.318   9.716  0.6798  0.4610 -1.2988
  181SLPC  C21320736   6.285   4.231   9.543  0.1516  0.4964  0.0362
  181SLPC  H13R20737   6.329   4.311   9.481  1.0510  0.8570  1.1088
  181SLPC  C21420738   6.207   4.119   9.463  0.3658  0.2242 -0.0990
  181SLPC  H14R20739   6.103   4.157   9.468  0.1596 -0.4405  1.0770
  181SLPC  H14S20740   6.206   4.019   9.512  1.2911 -0.0124 -0.5319
  181SLPC  C21520741   6.254   4.107   9.319 -1.1565  0.7774 -0.1992
  181SLPC  H15R20742   6.340   4.037   9.318 -1.1091  0.4328  4.3374
  181SLPC  H15S20743   6.297   4.199   9.274  1.8938  0.0587  1.0524
  181SLPC  C21620744   6.144   4.057   9.220 -0.3722 -0.2097 -0.1986
  181SLPC  H16R20745   6.067   4.137   9.215 -0.9351 -0.8236 -2.4632
  181SLPC  H16S20746   6.094   3.964   9.255  0.8773 -0.6735  0.4014
  181SLPC  C21720747   6.200   4.036   9.077  0.4370  0.1486  0.3128
  181SLPC  H17R20748   6.276   3.957   9.062  3.0647  2.4585  0.7242
  181SLPC  H17S20749   6.261   4.125   9.051 -0.6276  0.2273 -2.2002
  181SLPC  C21820750   6.086   4.026   8.972  0.5535 -0.2994 -0.0847
  181SLPC  H18R20751   6.119   3.959   8.889  2.2565 -0.0267  0.3379
  181SLPC  H18S20752   6.073   4.128   8.930 -0.6051 -0.6238 -0.5466
  181SLPC  H18T20753   5.989   3.996   9.016 -1.3730  2.8576 -1.8289
  181SLPC   C3320754   5.911   3.480  10.247  0.5616  0.2087 -0.0779
  181SLPC   H3X20755   5.856   3.383  10.244 -2.8396  1.9276 -3.4365
  181SLPC   H3Y20756   6.009   3.466  10.297  0.2163  2.1574  1.2592
  181SLPC   C3420757   5.933   3.516  10.094  0.1634  0.7010  0.2716
  181SLPC   H4X20758   5.846   3.578  10.064 -0.0506  0.4613  0.3824
  181SLPC   H4Y20759   5.921   3.422  10.036  0.9859 -0.9679  2.6274
  181SLPC   C3520760   6.070   3.576  10.072 -0.1164 -0.8333  0.5836
  181SLPC   H5X20761   6.157   3.507  10.081  0.6366  0.0790  0.3449
  181SLPC   H5Y20762   6.084   3.655  10.149 -0.2717 -1.5397  1.3600
  181SLPC   C3620763   6.081   3.658   9.939  0.0475  0.3111  0.0733
  181SLPC   H6X20764   6.164   3.732   9.942 -0.3385  0.7091  1.2106
  181SLPC   H6Y20765   5.981   3.705   9.928 -0.8046 -1.1541  1.1686
  181SLPC   C3720766   6.087   3.569   9.820 -0.4390 -0.1385  0.0275
  181SLPC   H7X20767   5.995   3.512   9.796 -1.5813  1.1774  1.0569
  181SLPC   H7Y20768   6.158   3.489   9.848 -0.7418 -0.9932 -1.5542
  181SLPC   C3820769   6.148   3.646   9.699 -0.0932 -0.2251  0.1144
  181SLPC   H8X20770   6.256   3.669   9.708  0.2690 -0.4749 -2.6914
  181SLPC   H8Y20771   6.092   3.740   9.677 -0.7254 -0.4892  0.5708
  181SLPC   C3920772   6.142   3.566   9.570  0.2731  0.6850 -0.0849
  181SLPC   H9X20773   6.042   3.518   9.565 -0.6669  2.6290 -1.4429
  181SLPC   H9Y20774   6.217   3.484   9.582 -1.6407 -1.4190 -1.6246
  181SLPC  C31020775   6.187   3.655   9.454  0.7083 -0.1249  0.0233
  181SLPC  H10X20776   6.291   3.688   9.476  0.3073  1.6358 -0.5145
  181SLPC  H10Y20777   6.120   3.742   9.433  0.5176 -0.2743  0.0172
  181SLPC  C31120778   6.195   3.570   9.319 -0.5720 -0.0765 -0.0832
  181SLPC  H11X20779   6.128   3.483   9.329 -0.0981 -0.2176  2.3677
  181SLPC  H11Y20780   6.298   3.528   9.314 -0.0006  1.2861 -0.2877
  181SLPC  C31220781   6.175   3.659   9.199 -0.6816  0.6557  1.0762
  181SLPC  H12X20782   6.246   3.744   9.195  2.2975 -1.6429  1.5329
  181SLPC  H12Y20783   6.071   3.698   9.198 -1.3948 -1.0094 -1.9064
  181SLPC  C31320784   6.188   3.572   9.070 -0.2476  0.3003  0.3631
  181SLPC  H13X20785   6.101   3.503   9.060  0.2322 -0.5417  1.7271
  181SLPC  H13Y20786   6.277   3.506   9.079 -0.6771 -0.0953  2.0136
  181SLPC  C31420787   6.203   3.669   8.958  0.1956 -0.3158  0.6013
  181SLPC  H14X20788   6.295   3.728   8.978 -0.4868  0.3484  1.8769
  181SLPC  H14Y20789   6.115   3.736   8.958  1.3015  1.2548 -1.7330
  181SLPC  C31520790   6.226   3.596   8.824  0.5434  0.5352  0.2454
  181SLPC  H15X20791   6.200   3.663   8.740 -2.7106  2.2834  2.3935
  181SLPC  H15Y20792   6.169   3.502   8.840  1.9540 -0.2492  0.8326
  181SLPC  C31620793   6.373   3.551   8.815  0.2505  0.6093 -0.1276
  181SLPC  H16X20794   6.378   3.463   8.883 -0.1467  2.2311  2.1029
  181SLPC  H16Y20795   6.440   3.636   8.836  0.4954  0.4331 -0.1918
  181SLPC  C31720796   6.417   3.490   8.679  0.3814 -0.1895 -0.3831
  181SLPC  H17X20797   6.347   3.419   8.629 -2.3890  1.2310  1.2141
  181SLPC  H17Y20798   6.507   3.427   8.696  0.6165 -0.0301 -1.0196
  181SLPC  C31820799   6.462   3.593   8.576 -0.7661  0.0360  0.7730
  181SLPC  H18X20800   6.392   3.670   8.538 -0.1681 -0.5934 -1.8340
  181SLPC  H18Y20801   6.492   3.561   8.474  1.5278  4.5584 -0.2729
  181SLPC  H18Z20802   6.550   3.650   8.613  0.6608 -0.8650 -1.0522
  182SLPC     N20803   3.361   4.038  10.810  0.4617  0.0639  0.1968
  182SLPC   C1320804   3.289   3.964  10.705 -0.3187  0.1369  0.5175
  182SLPC  H13A20805   3.247   4.031  10.631 -0.7910 -0.9891 -0.2610
  182SLPC  H13B20806   3.364   3.909  10.651  0.4714  0.7039  1.0094
  182SLPC  H13C20807   3.214   3.900  10.747  1.4170 -1.1739  1.7359
  182SLPC   C1420808   3.405   3.942  10.919 -0.0888 -0.3046 -0.2147
  182SLPC  H14A20809   3.444   4.001  11.000 -1.9619 -0.4530  0.8432
  182SLPC  H14B20810   3.323   3.879  10.948  0.1791 -1.0931 -1.0892
  182SLPC  H14C20811   3.481   3.873  10.884  0.2488 -1.5246  2.6823
  182SLPC   C1520812   3.275   4.139  10.876  0.5071  0.2418  0.5063
  182SLPC  H15A20813   3.261   4.223  10.810 -1.4482  1.2998  2.1699
  182SLPC  H15B20814   3.183   4.096  10.910 -0.1312  1.2147  0.0491
  182SLPC  H15C20815   3.320   4.169  10.970  0.4648  1.5889  0.1165
  182SLPC   C1220816   3.484   4.093  10.750 -0.0284  1.1754 -0.1408
  182SLPC  H12A20817   3.547   4.014  10.711 -0.3439  0.5289  0.6497
  182SLPC  H12B20818   3.539   4.141  10.830 -1.8085 -0.0146  1.8922
  182SLPC   C1120819   3.459   4.190  10.625  0.9834 -0.2783 -0.4373
  182SLPC  H11A20820   3.419   4.123  10.545  0.1139  1.4770 -1.5331
  182SLPC  H11B20821   3.557   4.234  10.599  2.1535 -0.2712  3.4302
  182SLPC     P20822   3.258   4.328  10.543 -0.0811  0.3309  0.1965
  182SLPC   O1320823   3.143   4.235  10.573  0.5700 -0.7286 -0.2888
  182SLPC   O1420824   3.235   4.476  10.528  0.2140 -0.0348  0.0583
  182SLPC   O1220825   3.366   4.295  10.653  0.6324 -0.2024 -0.1175
  182SLPC   O1120826   3.329   4.279  10.405 -0.0272 -0.4874 -0.3606
  182SLPC    C120827   3.393   4.359  10.304 -0.3863  0.1961 -0.0520
  182SLPC    HA20828   3.380   4.468  10.319 -0.6280  0.7266 -3.2940
  182SLPC    HB20829   3.502   4.338  10.296 -0.6074 -0.2140 -4.3076
  182SLPC    C220830   3.323   4.337  10.169 -0.0871  0.1848 -0.2217
  182SLPC    HS20831   3.326   4.228  10.147  0.7259  0.1494  0.0165
  182SLPC   O2120832   3.405   4.412  10.074  0.3184  0.4503  0.5410
  182SLPC   C2120833   3.508   4.344  10.029 -0.1106 -0.1518 -0.7051
  182SLPC   O2220834   3.535   4.225  10.055 -0.2950 -0.4152 -0.3635
  182SLPC   C2220835   3.596   4.438   9.948 -0.3466  0.1437 -0.4758
  182SLPC   H2R20836   3.517   4.496   9.895  0.0743 -0.3532 -1.6808
  182SLPC   H2S20837   3.653   4.498  10.022  3.3702 -4.5436  0.8753
  182SLPC    C320838   3.180   4.402  10.176  0.8593  0.4361  0.3768
  182SLPC    HX20839   3.165   4.503  10.218  0.1647  1.1361 -1.4511
  182SLPC    HY20840   3.116   4.333  10.235 -2.1291  2.5898 -0.1196
  182SLPC   O3120841   3.135   4.397  10.042  0.1006 -0.0812 -0.0751
  182SLPC   C3120842   3.124   4.507   9.979 -0.6698  1.0509 -0.2109
  182SLPC   O3220843   3.147   4.622  10.021  0.5753  0.6048 -0.0349
  182SLPC   C3220844   3.064   4.466   9.842 -0.7347 -0.1910 -0.4580
  182SLPC   H2X20845   2.954   4.450   9.847 -1.0954  1.2712 -2.4792
  182SLPC   H2Y20846   3.105   4.369   9.804 -0.9318 -0.1821 -0.6973
  182SLPC   C2320847   3.692   4.371   9.848 -0.1168  0.1662 -0.3300
  182SLPC   H3R20848   3.641   4.325   9.761  1.0771  1.2125 -1.6183
  182SLPC   H3S20849   3.751   4.297   9.906  0.2536 -0.1295 -1.0712
  182SLPC   C2420850   3.795   4.469   9.791 -0.0808 -0.0959 -0.0911
  182SLPC   H4R20851   3.885   4.420   9.748  0.7995  0.7771  0.6946
  182SLPC   H4S20852   3.833   4.532   9.875  1.8277  1.4870 -2.0017
  182SLPC   C2520853   3.742   4.588   9.702  0.2718  0.3503  0.6770
  182SLPC   H5R20854   3.660   4.639   9.757  0.1148  1.6509 -0.7142
  182SLPC   H5S20855   3.686   4.545   9.616 -0.9219  1.4741  0.8642
  182SLPC   C2620856   3.847   4.697   9.684 -0.1887 -0.4078  0.4843
  182SLPC   H6R20857   3.873   4.732   9.786  2.6460  1.7809 -0.8425
  182SLPC   H6S20858   3.812   4.777   9.615  0.4771 -2.1120 -1.9419
  182SLPC   C2720859   3.968   4.648   9.608 -0.2767  1.1165 -0.0122
  182SLPC   H7R20860   4.016   4.576   9.678 -1.1395  2.1570  1.7336
  182SLPC   H7S20861   4.041   4.732   9.599  2.3453 -0.9303  0.6750
  182SLPC   C2820862   3.935   4.580   9.472  0.1810 -0.2332 -1.0834
  182SLPC   H8R20863   3.879   4.492   9.508 -0.1555  0.3962 -0.0184
  182SLPC   H8S20864   4.024   4.535   9.423  0.6414 -0.2488 -0.2541
  182SLPC   C2920865   3.861   4.681   9.389 -0.0095  0.1319 -0.1084
  182SLPC   H9R20866   3.755   4.682   9.418 -1.1401 -4.7215 -2.9001
  182SLPC  C21020867   3.918   4.752   9.283  0.0682 -0.8317  0.4754
  182SLPC  H10R20868   3.849   4.825   9.239  1.1226 -0.4505 -0.6040
  182SLPC  C21120869   4.064   4.755   9.244 -0.0451 -1.0961  0.4395
  182SLPC  H11R20870   4.084   4.745   9.135 -0.8568 -0.1089  0.1843
  182SLPC  H11S20871   4.110   4.663   9.285 -0.7772 -3.0429 -2.7463
  182SLPC  C21220872   4.133   4.884   9.288 -0.1726  0.5999  0.4865
  182SLPC  H12R20873   4.153   4.884   9.397  1.2869  2.5080  0.2695
  182SLPC  C21320874   4.175   4.981   9.206 -0.0544  0.8316 -0.0654
  182SLPC  H13R20875   4.224   5.071   9.246 -0.2927  2.4438 -3.0736
  182SLPC  C21420876   4.167   4.983   9.056 -0.8629 -0.1345 -0.7158
  182SLPC  H14R20877   4.073   4.943   9.013 -0.1238 -3.6789  0.6305
  182SLPC  H14S20878   4.246   4.921   9.007  0.1421 -0.4882  1.2728
  182SLPC  C21520879   4.186   5.128   8.998  0.8790 -0.4635 -1.0764
  182SLPC  H15R20880   4.273   5.178   9.046  0.4733  1.2565 -2.0514
  182SLPC  H15S20881   4.099   5.194   9.017  0.5503 -1.4626  1.2913
  182SLPC  C21620882   4.223   5.130   8.845  0.0873 -0.4724 -0.3118
  182SLPC  H16R20883   4.137   5.100   8.781  0.4740 -1.2416 -0.4869
  182SLPC  H16S20884   4.298   5.053   8.818  1.9832  0.2918  2.4835
  182SLPC  C21720885   4.272   5.256   8.776  0.6789 -1.2789 -0.0479
  182SLPC  H17R20886   4.377   5.284   8.796  0.3340 -0.3927  0.5976
  182SLPC  H17S20887   4.207   5.342   8.803  0.7906 -0.3686 -2.3749
  182SLPC  C21820888   4.257   5.258   8.626  0.0410 -0.4315  0.3822
  182SLPC  H18R20889   4.149   5.265   8.598  0.2123  0.4694 -0.1241
  182SLPC  H18S20890   4.312   5.178   8.572 -1.1584  0.4562 -2.3348
  182SLPC  H18T20891   4.301   5.345   8.572  0.0935 -1.1526 -0.7706
  182SLPC   C3320892   3.093   4.566   9.737 -0.6184 -0.3435 -0.3319
  182SLPC   H3X20893   3.075   4.667   9.781  1.2840 -1.1026  2.4866
  182SLPC   H3Y20894   3.020   4.544   9.657 -0.7194  1.1049 -0.6665
  182SLPC   C3420895   3.242   4.571   9.694  0.3300  0.6340 -0.1867
  182SLPC   H4X20896   3.272   4.477   9.643 -0.4987  0.2443  0.0226
  182SLPC   H4Y20897   3.306   4.582   9.784  0.3953  2.1740 -0.4041
  182SLPC   C3520898   3.277   4.682   9.601 -0.6562  0.0420 -0.9429
  182SLPC   H5X20899   3.237   4.781   9.632  0.2295  0.1131  0.0226
  182SLPC   H5Y20900   3.239   4.641   9.505  1.3992 -2.7883 -0.6971
  182SLPC   C3620901   3.427   4.709   9.584 -0.0177  0.8208  0.6521
  182SLPC   H6X20902   3.473   4.621   9.533 -1.4958  0.2659  0.2130
  182SLPC   H6Y20903   3.470   4.716   9.686 -0.2004  0.1552  0.7808
  182SLPC   C3720904   3.457   4.839   9.497  0.1629  0.1353 -0.7181
  182SLPC   H7X20905   3.568   4.853   9.496 -0.0693  2.4917  0.0972
  182SLPC   H7Y20906   3.414   4.926   9.550  1.2326 -0.0358  0.5124
  182SLPC   C3820907   3.412   4.830   9.357  0.1477 -0.1779 -0.2484
  182SLPC   H8X20908   3.301   4.828   9.356 -0.0224 -2.9843  3.0832
  182SLPC   H8Y20909   3.428   4.722   9.335  0.4977 -0.3552  0.8048
  182SLPC   C3920910   3.481   4.932   9.272 -1.2770 -0.4866  0.1092
  182SLPC   H9X20911   3.584   4.892   9.261 -1.7550 -1.4185 -1.2249
  182SLPC   H9Y20912   3.487   5.026   9.332  4.2202 -0.7487  0.4673
  182SLPC  C31020913   3.406   4.959   9.145  0.1741  0.6433  0.2406
  182SLPC  H10X20914   3.309   5.011   9.162  0.6525  1.7974 -0.3768
  182SLPC  H10Y20915   3.379   4.856   9.115  0.5572  0.9653 -1.3434
  182SLPC  C31120916   3.500   5.018   9.038  0.5011  0.0381 -0.2729
  182SLPC  H11X20917   3.442   5.007   8.944 -1.1518 -0.2945  0.7521
  182SLPC  H11Y20918   3.597   4.964   9.037  0.4202 -0.2015  1.4104
  182SLPC  C31220919   3.539   5.165   9.074  0.3306  0.0826 -0.2377
  182SLPC  H12X20920   3.608   5.167   9.161 -2.0599 -3.2835  1.9932
  182SLPC  H12Y20921   3.442   5.215   9.095  1.6520  1.1112  4.7336
  182SLPC  C31320922   3.606   5.224   8.952  0.3248  0.4063  0.4436
  182SLPC  H13X20923   3.551   5.209   8.857  2.7993 -1.9761 -0.7722
  182SLPC  H13Y20924   3.699   5.164   8.937 -0.7123 -0.7283 -1.9839
  182SLPC  C31420925   3.658   5.366   8.970  0.2179  0.2183 -0.1266
  182SLPC  H14X20926   3.711   5.374   9.067  1.3885 -1.7691 -0.5333
  182SLPC  H14Y20927   3.570   5.433   8.974  0.5092  0.5367  1.9425
  182SLPC  C31520928   3.754   5.418   8.856  0.2161 -0.2044  0.8210
  182SLPC  H15X20929   3.694   5.401   8.764  2.1863  0.1081 -0.5785
  182SLPC  H15Y20930   3.844   5.353   8.851 -0.0257 -0.4280 -2.6838
  182SLPC  C31620931   3.807   5.565   8.873  0.3199  0.1483  0.0152
  182SLPC  H16X20932   3.878   5.599   8.794  0.3865  3.9250  1.5235
  182SLPC  H16Y20933   3.879   5.563   8.957  1.3376 -0.4006 -0.8464
  182SLPC  C31720934   3.701   5.668   8.898  0.0082 -0.1350  0.2890
  182SLPC  H17X20935   3.648   5.642   8.993  1.4218  0.2479  1.2106
  182SLPC  H17Y20936   3.631   5.658   8.813 -2.1967 -0.5577  2.0533
  182SLPC  C31820937   3.764   5.806   8.914  0.0536  0.4584 -0.1073
  182SLPC  H18X20938   3.827   5.823   8.824 -0.5458  1.4743 -0.3468
  182SLPC  H18Y20939   3.827   5.818   9.004  1.6628  2.3334 -1.4036
  182SLPC  H18Z20940   3.681   5.880   8.918 -0.2669  0.1167 -0.2531
  183SLPC     N20941   0.393   5.629  10.732  1.0213 -0.0965 -0.1327
  183SLPC   C1320942   0.414   5.659  10.583 -0.3863 -0.6144  0.6346
  183SLPC  H13A20943   0.375   5.759  10.575  1.2840  0.1379  1.3575
  183SLPC  H13B20944   0.517   5.647  10.552 -0.4783  0.3883 -0.1049
  183SLPC  H13C20945   0.345   5.595  10.529  0.5325 -0.5725 -0.6272
  183SLPC   C1420946   0.252   5.656  10.777 -0.4405  0.4197 -0.0766
  183SLPC  H14A20947   0.222   5.759  10.769 -0.1250  0.5460  0.3629
  183SLPC  H14B20948   0.189   5.593  10.715 -3.9856  2.8432  0.7934
  183SLPC  H14C20949   0.230   5.631  10.879 -0.3308  2.2587  0.4205
  183SLPC   C1520950   0.482   5.715  10.820 -0.1121  0.5276 -0.8071
  183SLPC  H15A20951   0.462   5.821  10.815  2.6529  1.0961 -1.0217
  183SLPC  H15B20952   0.467   5.677  10.920 -0.8426  0.2773 -1.0009
  183SLPC  H15C20953   0.584   5.705  10.786 -0.1764  0.2846 -0.9302
  183SLPC   C1220954   0.428   5.482  10.761  0.0350  0.0727  0.0097
  183SLPC  H12A20955   0.365   5.413  10.706 -1.1638  1.5960 -0.6034
  183SLPC  H12B20956   0.387   5.464  10.860  1.2783 -0.2381  0.4858
  183SLPC   C1120957   0.580   5.432  10.747  0.0213 -0.5088  0.4377
  183SLPC  H11A20958   0.617   5.468  10.648  0.3592 -0.3781  0.6092
  183SLPC  H11B20959   0.573   5.322  10.738 -1.3427 -0.2772 -2.6826
  183SLPC     P20960   0.805   5.431  10.879  0.2202  0.1038  0.0013
  183SLPC   O1320961   0.878   5.554  10.908 -0.3438  0.4226 -0.3988
  183SLPC   O1420962   0.801   5.322  10.982  0.0784 -0.2014  0.9138
  183SLPC   O1220963   0.656   5.477  10.858 -0.3038  0.2588 -0.0930
  183SLPC   O1120964   0.851   5.363  10.743 -0.4938 -0.0246  0.3378
  183SLPC    C120965   0.884   5.441  10.631 -0.0442  0.3345 -0.2674
  183SLPC    HA20966   0.824   5.535  10.625 -1.1195 -0.3649 -0.7024
  183SLPC    HB20967   0.988   5.476  10.648 -0.4789  1.5084  0.0782
  183SLPC    C220968   0.875   5.374  10.491  0.4168  0.4252 -0.1662
  183SLPC    HS20969   0.896   5.457  10.421 -1.0707  0.1867 -0.9362
  183SLPC   O2120970   0.744   5.319  10.474 -0.4383 -0.0618 -0.3199
  183SLPC   C2120971   0.688   5.338  10.361  0.2075  0.8064 -0.0117
  183SLPC   O2220972   0.744   5.391  10.265  0.2958  0.2243  1.1038
  183SLPC   C2220973   0.562   5.261  10.352  0.2646  0.4190 -0.1634
  183SLPC   H2R20974   0.574   5.169  10.414  1.2187  0.7705  0.1949
  183SLPC   H2S20975   0.479   5.320  10.397 -2.4266 -2.1926 -1.3509
  183SLPC    C320976   0.985   5.259  10.473  0.3287 -0.1880  0.8127
  183SLPC    HX20977   0.966   5.181  10.550 -1.7064 -1.1080 -0.5216
  183SLPC    HY20978   1.089   5.291  10.497  0.5463  1.6041 -2.0170
  183SLPC   O3120979   0.986   5.208  10.339  0.3240  0.2641 -0.4901
  183SLPC   C3120980   1.067   5.273  10.250  0.1088  0.3392 -0.1437
  183SLPC   O3220981   1.139   5.367  10.267  0.1328 -0.2665  0.1993
  183SLPC   C3220982   1.054   5.189  10.122 -0.0499  0.8144 -0.1308
  183SLPC   H2X20983   0.974   5.113  10.137  0.4543  0.7243  2.5154
  183SLPC   H2Y20984   1.155   5.151  10.095 -0.2351  0.4293 -0.2959
  183SLPC   C2320985   0.536   5.222  10.200 -0.5829  0.7712 -0.4719
  183SLPC   H3R20986   0.629   5.182  10.152 -1.3861  0.6652 -2.0163
  183SLPC   H3S20987   0.509   5.314  10.145 -0.9913  1.5831  1.0381
  183SLPC   C2420988   0.433   5.105  10.171 -0.3131  0.5496 -0.2248
  183SLPC   H4R20989   0.347   5.111  10.241  0.2722 -2.0639  0.8393
  183SLPC   H4S20990   0.483   5.007  10.190  2.1976  1.7812 -0.0194
  183SLPC   C2520991   0.355   5.114  10.033 -0.2117 -0.3221  0.4641
  183SLPC   H5R20992   0.308   5.215  10.033  0.7699  0.1432  0.0525
  183SLPC   H5S20993   0.269   5.043  10.033 -0.1074 -0.4698  2.0237
  183SLPC   C2620994   0.446   5.087   9.912  0.7751  0.1688  0.1977
  183SLPC   H6R20995   0.477   4.981   9.926  0.2189  0.2779  2.7021
  183SLPC   H6S20996   0.533   5.157   9.915  0.3811  0.7809 -1.4175
  183SLPC   C2720997   0.377   5.119   9.783  0.1456  0.3209  0.4784
  183SLPC   H7R20998   0.319   5.213   9.793  1.3645  1.0552  0.9322
  183SLPC   H7S20999   0.293   5.048   9.768 -0.5216  0.7497  1.9988
  183SLPC   C2821000   0.478   5.114   9.665 -0.4701 -0.0257  0.4763
  183SLPC   H8R21001   0.520   5.011   9.661  0.6276  0.4140 -2.9560
  183SLPC   H8S21002   0.554   5.191   9.690 -0.4420 -0.3050  1.2666
  183SLPC   C2921003   0.413   5.147   9.534  0.0210 -0.6290  0.2003
  183SLPC   H9R21004   0.333   5.082   9.494  0.2945 -0.0516 -1.3470
  183SLPC  C21021005   0.431   5.252   9.448  0.4140 -0.7766  0.2732
  183SLPC  H10R21006   0.375   5.260   9.354  1.2528  1.3805 -0.1019
  183SLPC  C21121007   0.536   5.361   9.470  0.1735  0.1664  0.6492
  183SLPC  H11R21008   0.620   5.334   9.403 -1.9702 -2.1052 -1.3403
  183SLPC  H11S21009   0.579   5.352   9.571  0.0812 -0.3661  0.6404
  183SLPC  C21221010   0.466   5.498   9.444 -0.6679  0.2168  0.5787
  183SLPC  H12R21011   0.478   5.555   9.538  1.4612  0.8832 -0.0267
  183SLPC  C21321012   0.436   5.558   9.327 -0.9507  0.3098  0.4298
  183SLPC  H13R21013   0.407   5.664   9.326 -0.4819  0.6624 -4.7609
  183SLPC  C21421014   0.450   5.497   9.189 -0.2153 -0.0011 -0.1802
  183SLPC  H14R21015   0.350   5.454   9.163  0.6217 -1.4798 -1.1084
  183SLPC  H14S21016   0.515   5.409   9.172 -0.3731 -0.1507 -0.0133
  183SLPC  C21521017   0.489   5.599   9.082 -0.7732  0.1139  0.6877
  183SLPC  H15R21018   0.590   5.636   9.109 -0.7725  1.5882 -1.1069
  183SLPC  H15S21019   0.422   5.685   9.102  0.9217  1.6878 -0.1345
  183SLPC  C21621020   0.490   5.548   8.934 -0.1088 -0.7037  0.3231
  183SLPC  H16R21021   0.388   5.531   8.893 -0.6950 -0.2941  1.5722
  183SLPC  H16S21022   0.532   5.445   8.937 -1.8076 -1.4280  0.0300
  183SLPC  C21721023   0.571   5.629   8.835 -0.2607  0.2503 -0.1340
  183SLPC  H17R21024   0.619   5.560   8.762 -1.5099 -1.7025  0.7905
  183SLPC  H17S21025   0.654   5.677   8.890  0.5712  1.4883 -2.3424
  183SLPC  C21821026   0.493   5.749   8.775  0.9139  0.4325  0.3165
  183SLPC  H18R21027   0.415   5.712   8.706  1.8293  1.5939 -1.4331
  183SLPC  H18S21028   0.564   5.801   8.707  1.1484  0.5102  0.6158
  183SLPC  H18T21029   0.452   5.816   8.854 -0.3451  1.1253 -0.8936
  183SLPC   C3321030   1.011   5.277  10.005 -0.1504  0.4335 -0.0967
  183SLPC   H3X21031   1.093   5.346   9.976 -0.7727  1.0129 -0.5165
  183SLPC   H3Y21032   0.927   5.343  10.036  0.7214  1.2679  0.5228
  183SLPC   C3421033   0.980   5.188   9.880 -0.4944 -0.2165 -0.4288
  183SLPC   H4X21034   0.898   5.124   9.919 -2.8042  1.6782 -1.9022
  183SLPC   H4Y21035   1.068   5.127   9.850  0.0170  1.3728 -2.3561
  183SLPC   C3521036   0.947   5.271   9.755 -0.1219  0.5932 -0.6721
  183SLPC   H5X21037   1.043   5.318   9.725  0.3128  0.7483  0.8681
  183SLPC   H5Y21038   0.863   5.341   9.774 -1.4737 -1.1248 -0.1178
  183SLPC   C3621039   0.922   5.173   9.639 -0.3418  0.2266  0.3328
  183SLPC   H6X21040   0.833   5.110   9.664 -2.1936  2.8581  0.8356
  183SLPC   H6Y21041   1.007   5.103   9.628 -1.4800 -1.3163  0.9088
  183SLPC   C3721042   0.903   5.253   9.504 -0.6017  0.7906 -0.6573
  183SLPC   H7X21043   0.998   5.298   9.470 -0.0706  0.3119  0.1758
  183SLPC   H7Y21044   0.828   5.334   9.520 -0.7454  0.2760  1.5967
  183SLPC   C3821045   0.835   5.167   9.395  0.1864  0.1774 -0.3551
  183SLPC   H8X21046   0.733   5.140   9.430  0.2941  0.1496 -0.0559
  183SLPC   H8Y21047   0.888   5.071   9.378 -0.7769 -0.6763  1.2016
  183SLPC   C3921048   0.821   5.227   9.259 -0.3660 -0.2346  0.1231
  183SLPC   H9X21049   0.921   5.228   9.211 -0.6016  3.0177 -0.5397
  183SLPC   H9Y21050   0.792   5.334   9.269  0.0277 -0.3108  2.4609
  183SLPC  C31021051   0.732   5.152   9.159 -0.7609  0.3768  0.6234
  183SLPC  H10X21052   0.626   5.185   9.169 -1.2360 -0.4321 -1.4253
  183SLPC  H10Y21053   0.746   5.043   9.173  3.4584  0.6077 -0.4610
  183SLPC  C31121054   0.756   5.176   9.011  0.1134 -0.0186  0.4349
  183SLPC  H11X21055   0.857   5.147   8.975  0.0837  0.5577 -0.1097
  183SLPC  H11Y21056   0.752   5.285   8.992  2.2525  0.2170  0.9808
  183SLPC  C31221057   0.652   5.118   8.915  0.1611 -0.5726 -0.3804
  183SLPC  H12X21058   0.677   5.013   8.887  3.1426 -0.7048  2.1948
  183SLPC  H12Y21059   0.668   5.176   8.821 -1.4812 -1.4283 -1.2422
  183SLPC  C31321060   0.508   5.135   8.956  0.0660 -0.5867 -0.1465
  183SLPC  H13X21061   0.496   5.235   9.002 -0.6841 -1.0490  0.7015
  183SLPC  H13Y21062   0.490   5.056   9.032  0.2211 -2.5594 -2.0420
  183SLPC  C31421063   0.406   5.114   8.841 -0.3264  0.1965  0.3524
  183SLPC  H14X21064   0.424   5.015   8.793 -1.3183 -0.9144  2.1413
  183SLPC  H14Y21065   0.428   5.181   8.756 -0.8442 -2.4090 -1.9744
  183SLPC  C31521066   0.260   5.104   8.886  0.7357  0.4697 -0.0918
  183SLPC  H15X21067   0.238   5.198   8.940 -0.0069 -0.6361  1.6262
  183SLPC  H15Y21068   0.249   5.018   8.956 -0.6302  0.1919 -0.6114
  183SLPC  C31621069   0.160   5.089   8.762 -0.0086 -1.2569  0.3345
  183SLPC  H16X21070   0.193   5.006   8.696 -0.8306 -2.6737  1.6262
  183SLPC  H16Y21071   0.159   5.184   8.705  0.8021 -0.2965  1.8608
  183SLPC  C31721072   0.016   5.061   8.807 -0.2918  0.3767 -0.8636
  183SLPC  H17X21073  -0.048   5.106   8.728  1.8304  1.6353 -1.9464
  183SLPC  H17Y21074  -0.011   5.123   8.895 -0.0590 -3.6791  2.3616
  183SLPC  C31821075  -0.002   4.916   8.835  0.0862  0.3494  0.2228
  183SLPC  H18X21076   0.035   4.841   8.761 -0.3991  2.0529 -1.8536
  183SLPC  H18Y21077  -0.111   4.897   8.843  0.1917  0.2452  1.5750
  183SLPC  H18Z21078   0.035   4.891   8.937 -0.1936 -1.1304 -0.0191
  184SLPC     N21079   1.994   1.114  10.455  0.0421 -0.7311 -0.0952
  184SLPC   C1321080   1.966   1.035  10.322 -0.2180 -0.2044 -0.1833
  184SLPC  H13A21081   1.980   0.931  10.344  3.5004  0.7472  3.2733
  184SLPC  H13B21082   1.870   1.070  10.288 -0.1963 -0.3373 -0.3787
  184SLPC  H13C21083   2.034   1.069  10.245 -1.1835  1.2751 -0.4379
  184SLPC   C1421084   2.121   1.067  10.517 -0.4496  0.1625  0.4906
  184SLPC  H14A21085   2.095   0.966  10.545 -4.7927  1.0702  0.4643
  184SLPC  H14B21086   2.200   1.054  10.444 -0.0389 -3.9392  1.4234
  184SLPC  H14C21087   2.151   1.110  10.611 -1.3011 -0.0924  0.8951
  184SLPC   C1521088   1.888   1.081  10.550  0.3707  0.3391  0.3352
  184SLPC  H15A21089   1.904   1.129  10.645  0.3351  1.0092  0.0078
  184SLPC  H15B21090   1.792   1.106  10.508 -1.0818 -2.7612  1.5274
  184SLPC  H15C21091   1.875   0.975  10.569 -1.5243  0.1313 -1.6849
  184SLPC   C1221092   1.998   1.256  10.428 -0.0922 -0.1376  0.0337
  184SLPC  H12A21093   1.908   1.290  10.378  1.0569  1.5223 -0.9866
  184SLPC  H12B21094   2.080   1.265  10.359 -0.2454 -0.5633 -0.2113
  184SLPC   C1121095   2.033   1.349  10.554  0.5019 -0.3424  0.6912
  184SLPC  H11A21096   2.066   1.448  10.516  0.4435 -1.3870 -2.3314
  184SLPC  H11B21097   2.122   1.321  10.613  1.3205  2.3405  0.8630
  184SLPC     P21098   1.793   1.453  10.613  0.1624 -0.1596 -0.0880
  184SLPC   O1321099   1.678   1.381  10.661 -0.1864  0.0421 -0.1225
  184SLPC   O1421100   1.812   1.595  10.655 -0.4711  0.0425 -0.0884
  184SLPC   O1221101   1.926   1.376  10.645 -0.2518  0.1827 -0.0936
  184SLPC   O1121102   1.779   1.453  10.462  0.3579  0.1291  0.1997
  184SLPC    C121103   1.666   1.517  10.394 -0.1278 -0.5077  0.2008
  184SLPC    HA21104   1.586   1.447  10.363 -1.4322  0.6234  0.9028
  184SLPC    HB21105   1.625   1.598  10.458  2.6441  0.3107  1.0816
  184SLPC    C221106   1.716   1.588  10.266  0.6355 -0.7180 -0.3470
  184SLPC    HS21107   1.634   1.639  10.212  2.1015  0.8573 -1.1981
  184SLPC   O2121108   1.787   1.501  10.176 -0.1559 -0.0592  0.4243
  184SLPC   C2121109   1.702   1.445  10.080 -0.5748  0.9607  0.2873
  184SLPC   O2221110   1.583   1.442  10.091  0.6845 -0.0854 -0.7651
  184SLPC   C2221111   1.780   1.406   9.954  0.4696  0.0654 -0.1034
  184SLPC   H2R21112   1.728   1.443   9.863 -0.0718 -1.4063 -0.4239
  184SLPC   H2S21113   1.878   1.458   9.963  0.8151 -0.8296  1.7529
  184SLPC    C321114   1.816   1.690  10.314 -0.2279 -0.4590  0.4461
  184SLPC    HX21115   1.905   1.637  10.352  0.5573 -0.8316 -1.7927
  184SLPC    HY21116   1.761   1.746  10.394  0.2746  1.7238 -0.6520
  184SLPC   O3121117   1.868   1.783  10.218  0.6851 -0.4120  0.4269
  184SLPC   C3121118   1.805   1.903  10.208  0.4332 -0.9185 -0.5622
  184SLPC   O3221119   1.706   1.933  10.271 -0.2087  0.2497  0.8278
  184SLPC   C3221120   1.871   1.986  10.093 -0.6741  0.1680 -0.4282
  184SLPC   H2X21121   1.871   1.917  10.005 -1.3229  2.1465 -2.0652
  184SLPC   H2Y21122   1.975   2.003  10.128 -0.1237 -0.7368 -1.5540
  184SLPC   C2321123   1.806   1.259   9.936  0.3892 -0.5751  0.1401
  184SLPC   H3R21124   1.716   1.193   9.930 -0.9601  0.8862  2.7777
  184SLPC   H3S21125   1.854   1.226  10.030  0.7795  0.4285  0.3052
  184SLPC   C2421126   1.893   1.234   9.817 -0.1904 -0.0102  0.2863
  184SLPC   H4R21127   1.956   1.143   9.828  0.5416  0.3735 -0.5769
  184SLPC   H4S21128   1.967   1.317   9.819  0.3142 -0.4408 -0.0031
  184SLPC   C2521129   1.815   1.216   9.687 -0.6124 -0.1698  0.0031
  184SLPC   H5R21130   1.720   1.273   9.691 -0.9873 -0.7879  0.1139
  184SLPC   H5S21131   1.785   1.109   9.680 -1.7820  0.0191  1.6095
  184SLPC   C2621132   1.900   1.245   9.571  0.2040  0.1127 -0.0415
  184SLPC   H6R21133   2.001   1.199   9.582  0.5086  1.2301  2.8079
  184SLPC   H6S21134   1.915   1.355   9.561 -3.9451  0.5713 -3.7113
  184SLPC   C2721135   1.849   1.181   9.440  0.4028 -0.8224 -0.4347
  184SLPC   H7R21136   1.749   1.216   9.408  0.2907 -1.7129 -1.1092
  184SLPC   H7S21137   1.864   1.071   9.440  0.3974 -0.8500 -2.4289
  184SLPC   C2821138   1.920   1.225   9.302 -0.1987 -0.3136  0.1964
  184SLPC   H8R21139   1.898   1.332   9.286 -0.5603 -0.4310 -0.1232
  184SLPC   H8S21140   1.860   1.171   9.225 -0.9665  0.8448 -0.0346
  184SLPC   C2921141   2.066   1.208   9.295 -0.2516 -0.0350 -0.2893
  184SLPC   H9R21142   2.125   1.254   9.376 -0.2863 -1.9140  0.8642
  184SLPC  C21021143   2.139   1.160   9.194 -0.3053 -0.3250 -0.0861
  184SLPC  H10R21144   2.245   1.141   9.218 -0.4489  0.7269  1.5194
  184SLPC  C21121145   2.100   1.096   9.061 -0.4595 -0.9132 -0.5531
  184SLPC  H11R21146   2.093   0.986   9.058  0.9594 -1.0105 -1.1634
  184SLPC  H11S21147   2.188   1.103   8.994 -0.0958 -0.4465 -0.0404
  184SLPC  C21221148   1.981   1.145   8.985 -0.2961  0.7300  0.6847
  184SLPC  H12R21149   1.887   1.100   9.021 -0.5145  1.5823  1.2182
  184SLPC  C21321150   1.979   1.210   8.870 -0.3633 -0.3183 -0.3433
  184SLPC  H13R21151   1.882   1.229   8.821 -1.3993  1.1309  2.0244
  184SLPC  C21421152   2.102   1.254   8.791  0.1059 -0.9573 -0.2798
  184SLPC  H14R21153   2.193   1.194   8.813  1.0607  0.1665 -1.0307
  184SLPC  H14S21154   2.130   1.361   8.804 -0.7725 -0.6802 -0.5738
  184SLPC  C21521155   2.087   1.237   8.639 -0.0054  0.3090  0.0619
  184SLPC  H15R21156   2.176   1.267   8.581  1.2709  1.9707  2.7094
  184SLPC  H15S21157   1.996   1.288   8.600 -0.5918 -0.1964  0.7277
  184SLPC  C21621158   2.058   1.083   8.614 -0.1847 -0.1178  0.1076
  184SLPC  H16R21159   1.951   1.059   8.629  0.1722 -1.1722  1.0861
  184SLPC  H16S21160   2.117   1.008   8.671 -1.9798 -0.5323  1.5052
  184SLPC  C21721161   2.094   1.052   8.464 -0.3239  0.1060 -0.1903
  184SLPC  H17R21162   2.046   0.956   8.437 -3.1554  0.9324  1.5233
  184SLPC  H17S21163   2.205   1.054   8.464 -0.3120  0.7677 -1.7900
  184SLPC  C21821164   2.046   1.150   8.358  0.3156  0.1721  0.1708
  184SLPC  H18R21165   2.111   1.240   8.356  1.0397 -0.3228  0.7142
  184SLPC  H18S21166   1.950   1.200   8.384  0.4724  1.0340 -0.8204
  184SLPC  H18T21167   2.035   1.101   8.259 -2.0122  2.4429 -0.8066
  184SLPC   C3321168   1.787   2.109  10.050  0.5403 -0.9256  0.5899
  184SLPC   H3X21169   1.775   2.177  10.137 -0.0122 -0.4716  0.1742
  184SLPC   H3Y21170   1.684   2.081  10.016  0.9221  0.2163 -1.6900
  184SLPC   C3421171   1.858   2.190   9.937  0.1701  0.0085 -0.5844
  184SLPC   H4X21172   1.967   2.178   9.959 -0.6172 -1.6215  3.2590
  184SLPC   H4Y21173   1.839   2.299   9.939  2.4345  0.4717  1.4905
  184SLPC   C3521174   1.810   2.140   9.803  0.7226  0.5690  0.6432
  184SLPC   H5X21175   1.703   2.170   9.796  1.3361  2.9890  0.4341
  184SLPC   H5Y21176   1.815   2.030   9.792  0.8438  0.6565 -0.3592
  184SLPC   C3621177   1.877   2.202   9.679  0.6680 -0.0205  0.2849
  184SLPC   H6X21178   1.984   2.174   9.685 -0.1051 -3.5688 -0.1417
  184SLPC   H6Y21179   1.872   2.312   9.688 -0.8883  0.0089 -0.4679
  184SLPC   C3721180   1.817   2.154   9.545  0.0834 -0.2760  0.2919
  184SLPC   H7X21181   1.709   2.177   9.538 -0.7612 -3.9318 -0.9454
  184SLPC   H7Y21182   1.819   2.044   9.529  0.8695 -0.2493  0.1280
  184SLPC   C3821183   1.889   2.221   9.424  0.3162  0.1210  0.6606
  184SLPC   H8X21184   1.992   2.181   9.434  0.9194  1.0744 -1.1903
  184SLPC   H8Y21185   1.889   2.332   9.427 -2.0507  0.1733  0.3003
  184SLPC   C3921186   1.822   2.181   9.286 -0.2174 -0.1653  0.4898
  184SLPC   H9X21187   1.807   2.071   9.289  2.0646 -0.5043  1.8975
  184SLPC   H9Y21188   1.889   2.188   9.198  1.0274  1.5788  1.5112
  184SLPC  C31021189   1.684   2.242   9.253 -0.0400 -0.4268 -0.1972
  184SLPC  H10X21190   1.687   2.349   9.283 -1.1634 -0.4372  0.0085
  184SLPC  H10Y21191   1.607   2.199   9.320 -0.7180  3.8666  2.1317
  184SLPC  C31121192   1.646   2.233   9.103  0.1692  0.2757 -0.1593
  184SLPC  H11X21193   1.721   2.288   9.043  2.1456 -0.0963  1.8574
  184SLPC  H11Y21194   1.550   2.288   9.094 -0.4760 -0.2166  2.7126
  184SLPC  C31221195   1.640   2.090   9.048 -0.1561  0.4259 -0.2900
  184SLPC  H12X21196   1.563   2.024   9.092  3.3042 -3.6612  0.2147
  184SLPC  H12Y21197   1.731   2.031   9.069 -1.8085 -2.3328 -0.4711
  184SLPC  C31321198   1.631   2.086   8.900 -0.4051  0.0548  0.4474
  184SLPC  H13X21199   1.717   2.145   8.860 -1.8291 -0.5695 -4.1175
  184SLPC  H13Y21200   1.533   2.129   8.870  0.1670  2.3727  1.6849
  184SLPC  C31421201   1.623   1.937   8.849 -0.3652 -0.0482 -0.0668
  184SLPC  H14X21202   1.543   1.880   8.900 -1.2991  0.5960 -0.7659
  184SLPC  H14Y21203   1.720   1.884   8.859  0.0229  0.6149 -0.2000
  184SLPC  C31521204   1.587   1.929   8.698  0.3847  0.3209  0.1322
  184SLPC  H15X21205   1.594   1.825   8.660  0.2666  0.4502 -0.2417
  184SLPC  H15Y21206   1.661   1.986   8.637  0.7449  0.3299  0.5663
  184SLPC  C31621207   1.437   1.983   8.667 -0.0241  0.6154 -0.6457
  184SLPC  H16X21208   1.434   2.091   8.691 -0.3544  0.0414  2.2438
  184SLPC  H16Y21209   1.359   1.929   8.724 -2.2663  2.9067 -1.3416
  184SLPC  C31721210   1.403   1.949   8.522  0.1502  0.1746  0.9563
  184SLPC  H17X21211   1.440   1.846   8.507 -2.5446 -0.7159 -0.0671
  184SLPC  H17Y21212   1.458   2.020   8.456  0.0812 -1.1135 -0.5475
  184SLPC  C31821213   1.258   1.953   8.491  0.0770 -0.4882 -0.1613
  184SLPC  H18X21214   1.218   2.055   8.505 -2.0103 -1.3661  0.7507
  184SLPC  H18Y21215   1.191   1.895   8.557 -0.7009  1.5586  0.9082
  184SLPC  H18Z21216   1.244   1.925   8.384  0.7577  0.2298 -0.4530
  185SLPC     N21217   0.195   4.773   6.373 -0.4967  0.0343 -0.1351
  185SLPC   C1321218   0.138   4.643   6.427  0.3476  1.1336  1.2318
  185SLPC  H13A21219   0.183   4.598   6.514  0.1240 -1.5616  0.0392
  185SLPC  H13B21220   0.034   4.658   6.452 -0.1824 -0.7398  0.3197
  185SLPC  H13C21221   0.146   4.563   6.355 -0.4178  1.2903  0.9604
  185SLPC   C1421222   0.170   4.881   6.467  0.2885  0.4404  0.0172
  185SLPC  H14A21223   0.223   4.865   6.560 -0.1623  2.1065  0.6019
  185SLPC  H14B21224   0.197   4.976   6.424  0.4075 -0.4523 -1.9853
  185SLPC  H14C21225   0.065   4.898   6.490  0.4388  1.3695  0.0720
  185SLPC   C1521226   0.114   4.805   6.250 -0.0633  0.5943 -0.3303
  185SLPC  H15A21227   0.131   4.725   6.180  0.9896  0.4281  0.0910
  185SLPC  H15B21228   0.009   4.813   6.274 -0.2665  1.8268 -1.4962
  185SLPC  H15C21229   0.149   4.895   6.203 -0.1843  0.5537 -0.4980
  185SLPC   C1221230   0.346   4.741   6.343 -0.4033 -0.8243 -0.3224
  185SLPC  H12A21231   0.400   4.825   6.302  2.2483 -2.2938 -0.0474
  185SLPC  H12B21232   0.342   4.663   6.269  3.9462 -0.7621 -0.8966
  185SLPC   C1121233   0.434   4.714   6.468 -0.2341 -0.1383  0.5632
  185SLPC  H11A21234   0.522   4.662   6.425 -1.7064 -2.4805  0.2079
  185SLPC  H11B21235   0.384   4.639   6.533  2.1405 -1.8210  0.5984
  185SLPC     P21236   0.576   4.939   6.454 -0.1147 -0.6493 -0.1709
  185SLPC   O1321237   0.593   4.894   6.313 -0.3921 -0.4675 -0.1242
  185SLPC   O1421238   0.526   5.079   6.473  0.3096  0.2184  0.0942
  185SLPC   O1221239   0.473   4.840   6.526 -0.3496 -0.0771  0.6719
  185SLPC   O1121240   0.706   4.915   6.536 -0.1286 -0.2160 -0.2874
  185SLPC    C121241   0.743   4.797   6.606 -0.7004 -0.2347 -0.3306
  185SLPC    HA21242   0.697   4.710   6.554 -0.3631 -0.5560 -0.0896
  185SLPC    HB21243   0.853   4.786   6.603 -0.6214 -0.0292  1.2425
  185SLPC    C221244   0.705   4.794   6.758  0.0136 -0.3499  0.3876
  185SLPC    HS21245   0.594   4.789   6.759  0.0553 -1.8081  0.0894
  185SLPC   O2121246   0.763   4.911   6.820 -0.7548 -0.1736 -0.4020
  185SLPC   C2121247   0.678   5.003   6.859  0.1031  0.5643 -0.3788
  185SLPC   O2221248   0.558   4.986   6.865  0.5546  0.2528  0.2110
  185SLPC   C2221249   0.749   5.138   6.883 -0.0211  0.3208  1.1116
  185SLPC   H2R21250   0.849   5.122   6.839 -0.2478  0.3134  0.5919
  185SLPC   H2S21251   0.685   5.213   6.832 -0.1243 -0.1895  0.4751
  185SLPC    C321252   0.759   4.664   6.831  0.3600 -0.1601  0.4654
  185SLPC    HX21253   0.867   4.643   6.815 -0.0960 -1.7405 -0.9079
  185SLPC    HY21254   0.714   4.576   6.781 -1.8147  2.0974 -1.8377
  185SLPC   O3121255   0.721   4.669   6.971 -0.7744  0.0351 -0.8277
  185SLPC   C3121256   0.825   4.710   7.048 -0.4182  0.1659 -0.4695
  185SLPC   O3221257   0.941   4.719   7.010  0.5512 -0.1719 -0.3157
  185SLPC   C3221258   0.771   4.711   7.193  0.5818 -0.4186  0.3199
  185SLPC   H2X21259   0.828   4.627   7.238  1.4053 -1.9685 -3.2336
  185SLPC   H2Y21260   0.663   4.687   7.187  0.2087  1.0241  0.9291
  185SLPC   C2321261   0.772   5.167   7.032  0.3330  0.1225  0.2577
  185SLPC   H3R21262   0.848   5.100   7.078  1.0545  1.0658  0.4721
  185SLPC   H3S21263   0.675   5.152   7.083 -0.1177  0.7671 -0.3977
  185SLPC   C2421264   0.827   5.301   7.050 -0.1377 -0.3185  0.3249
  185SLPC   H4R21265   0.767   5.374   6.991 -0.3163  0.3847  1.3461
  185SLPC   H4S21266   0.935   5.296   7.025  0.3410  1.7723  1.6831
  185SLPC   C2521267   0.813   5.342   7.201 -1.0369  0.6105  0.4002
  185SLPC   H5R21268   0.880   5.431   7.209 -1.4874  1.4988 -3.4671
  185SLPC   H5S21269   0.850   5.255   7.259 -3.5133  0.1640  1.4091
  185SLPC   C2621270   0.675   5.393   7.239 -0.0377  0.2000  0.0677
  185SLPC   H6R21271   0.607   5.306   7.247  0.3424 -0.0245  0.9377
  185SLPC   H6S21272   0.645   5.465   7.159  0.5346  2.0161  1.4040
  185SLPC   C2721273   0.671   5.466   7.370  0.1583  0.8084  0.8453
  185SLPC   H7R21274   0.572   5.514   7.388 -0.7455 -1.2471  1.5575
  185SLPC   H7S21275   0.750   5.545   7.372  2.4676 -1.3582  0.0938
  185SLPC   C2821276   0.709   5.374   7.481  0.5317 -0.6181 -0.3170
  185SLPC   H8R21277   0.793   5.304   7.461  0.9188 -0.9990  2.3387
  185SLPC   H8S21278   0.629   5.300   7.501  0.7486 -0.6342  0.5307
  185SLPC   C2921279   0.746   5.460   7.604 -0.9969 -0.1908 -0.2388
  185SLPC   H9R21280   0.854   5.481   7.610 -0.6938 -1.8270  0.4524
  185SLPC  C21021281   0.671   5.485   7.710  0.0976  0.1057 -0.1870
  185SLPC  H10R21282   0.720   5.545   7.788  0.1804 -0.0533 -0.1171
  185SLPC  C21121283   0.525   5.443   7.724  0.4998 -0.3838  1.0159
  185SLPC  H11R21284   0.510   5.356   7.658  1.6066  0.2092 -0.0526
  185SLPC  H11S21285   0.470   5.526   7.675  1.1467 -1.7989 -2.3597
  185SLPC  C21221286   0.488   5.414   7.862  0.3350 -0.4165 -0.5430
  185SLPC  H12R21287   0.554   5.345   7.916  1.4858  1.5966  0.7229
  185SLPC  C21321288   0.381   5.458   7.930  0.0724 -0.6217 -0.0471
  185SLPC  H13R21289   0.378   5.444   8.039  3.1313 -1.8769 -0.0094
  185SLPC  C21421290   0.268   5.535   7.863  0.3117  0.0916  0.1636
  185SLPC  H14R21291   0.294   5.571   7.762  0.4542  2.4325  0.9774
  185SLPC  H14S21292   0.233   5.627   7.915 -1.3748  0.0174 -0.7647
  185SLPC  C21521293   0.128   5.459   7.855 -0.9489 -0.6268  0.0544
  185SLPC  H15R21294   0.136   5.379   7.779  0.4933  1.1834 -1.8038
  185SLPC  H15S21295   0.057   5.529   7.807  0.2819  1.9473  1.7430
  185SLPC  C21621296   0.067   5.419   7.987 -0.2928  0.6985 -0.6750
  185SLPC  H16R21297   0.043   5.510   8.045 -1.3992  0.2097 -0.3384
  185SLPC  H16S21298   0.134   5.347   8.040 -3.2784 -1.4471  0.4684
  185SLPC  C21721299  -0.060   5.330   7.976 -0.6802  0.5574 -0.2512
  185SLPC  H17R21300  -0.019   5.243   7.920  0.0768  0.5593  0.2879
  185SLPC  H17S21301  -0.136   5.384   7.915 -1.2913 -0.6921 -0.6278
  185SLPC  C21821302  -0.117   5.297   8.116  0.0539 -0.5151 -0.6543
  185SLPC  H18R21303  -0.149   5.391   8.166 -1.1617 -0.7806 -0.8995
  185SLPC  H18S21304  -0.041   5.251   8.184  1.2778  2.2618 -0.0086
  185SLPC  H18T21305  -0.201   5.229   8.090  1.2031 -2.7041  0.9691
  185SLPC   C3321306   0.800   4.840   7.266  0.2892 -0.9509  0.4275
  185SLPC   H3X21307   0.751   4.929   7.220 -1.3378 -1.5388  0.9596
  185SLPC   H3Y21308   0.910   4.853   7.265  0.3594 -1.2839  1.7137
  185SLPC   C3421309   0.748   4.849   7.412 -0.5211 -0.9014  0.4401
  185SLPC   H4X21310   0.779   4.757   7.466 -1.6745 -0.3760  2.0973
  185SLPC   H4Y21311   0.638   4.835   7.411 -0.6301 -0.0906 -1.5771
  185SLPC   C3521312   0.788   4.979   7.496  0.3362 -0.0398 -0.0908
  185SLPC   H5X21313   0.757   5.067   7.437 -0.1027 -0.4051 -0.4122
  185SLPC   H5Y21314   0.898   4.981   7.514  0.1014  1.4813  1.5612
  185SLPC   C3621315   0.714   4.977   7.626 -0.6784 -0.2105  0.4451
  185SLPC   H6X21316   0.744   4.877   7.664 -0.3803 -0.4127 -0.2900
  185SLPC   H6Y21317   0.603   4.985   7.620 -0.7600 -2.0364 -2.4102
  185SLPC   C3721318   0.767   5.076   7.730  0.0766  0.0966  0.2349
  185SLPC   H7X21319   0.766   5.178   7.687  0.2381  0.4018  0.9455
  185SLPC   H7Y21320   0.876   5.057   7.746  0.4724 -1.4849 -3.3333
  185SLPC   C3821321   0.690   5.054   7.860 -0.5110 -0.9197  0.0730
  185SLPC   H8X21322   0.685   4.945   7.881  0.5703 -0.7509  1.3431
  185SLPC   H8Y21323   0.586   5.091   7.859  0.7695  3.2351  1.3130
  185SLPC   C3921324   0.760   5.138   7.973 -0.1663  0.3126 -0.1409
  185SLPC   H9X21325   0.770   5.245   7.943  2.4270  0.0030 -0.6621
  185SLPC   H9Y21326   0.866   5.106   7.980 -0.1931  0.3838  0.5688
  185SLPC  C31021327   0.717   5.133   8.120 -0.4894  0.2063 -0.3930
  185SLPC  H10X21328   0.792   5.184   8.184  0.1124 -0.4170 -0.5922
  185SLPC  H10Y21329   0.719   5.027   8.154 -1.3525  0.7062  1.3596
  185SLPC  C31121330   0.578   5.186   8.153 -0.1362  0.0759  0.0932
  185SLPC  H11X21331   0.512   5.159   8.068 -0.1098  0.9540 -0.2148
  185SLPC  H11Y21332   0.592   5.295   8.168 -1.5398  0.1878  0.7685
  185SLPC  C31221333   0.519   5.145   8.287 -0.5491  0.0010 -0.1490
  185SLPC  H12X21334   0.590   5.145   8.374 -0.9003 -0.9902  0.1580
  185SLPC  H12Y21335   0.515   5.034   8.280  2.1395 -0.1960  0.2212
  185SLPC  C31321336   0.380   5.198   8.317 -0.0580 -0.1386  0.0778
  185SLPC  H13X21337   0.337   5.157   8.410 -0.7636 -0.4213 -0.3661
  185SLPC  H13Y21338   0.306   5.180   8.236 -1.6505  0.9478  1.2390
  185SLPC  C31421339   0.395   5.349   8.339 -0.3668 -0.6926 -0.4298
  185SLPC  H14X21340   0.405   5.392   8.237 -2.3746 -1.0744 -0.8107
  185SLPC  H14Y21341   0.491   5.357   8.395  0.5780  0.8397 -2.1550
  185SLPC  C31521342   0.270   5.422   8.385 -0.7158  0.0041  0.0746
  185SLPC  H15X21343   0.236   5.402   8.489  1.0157  2.8084  1.3056
  185SLPC  H15Y21344   0.185   5.404   8.315  0.0583  1.3265 -1.2473
  185SLPC  C31621345   0.296   5.580   8.375 -0.2171  0.4270  0.1614
  185SLPC  H16X21346   0.347   5.603   8.278 -1.3590 -0.2885 -0.6277
  185SLPC  H16Y21347   0.371   5.610   8.451  0.3618  0.1711 -0.2984
  185SLPC  C31721348   0.166   5.662   8.404  0.0561  0.8340 -0.3296
  185SLPC  H17X21349   0.129   5.649   8.508  0.4469  1.4866 -0.1045
  185SLPC  H17Y21350   0.083   5.615   8.348 -1.5206  0.8838  1.8470
  185SLPC  C31821351   0.172   5.811   8.368 -0.4692  1.5238  0.4992
  185SLPC  H18X21352   0.255   5.865   8.419 -1.1403  4.3396 -1.1774
  185SLPC  H18Y21353   0.071   5.848   8.398 -0.1813  1.9382  0.9716
  185SLPC  H18Z21354   0.189   5.811   8.258  1.0158  0.9207  0.7011
  186SLPC     N21355   4.148   2.964   5.942 -0.1600 -0.1114 -0.1763
  186SLPC   C1321356   4.104   3.025   5.814 -0.1310 -0.1241 -0.1779
  186SLPC  H13A21357   4.174   3.104   5.793 -0.0383 -0.2113 -0.2014
  186SLPC  H13B21358   4.128   2.958   5.733  0.1810  0.7231 -0.7842
  186SLPC  H13C21359   4.009   3.073   5.831  0.8679  1.1545  2.4235
  186SLPC   C1421360   4.142   3.077   6.047 -0.5737 -0.2334  0.2094
  186SLPC  H14A21361   4.196   3.044   6.134 -0.1266  2.0661  0.8643
  186SLPC  H14B21362   4.194   3.166   6.018 -0.3202 -1.0475 -2.0490
  186SLPC  H14C21363   4.041   3.095   6.079  0.0322 -1.9820  3.5492
  186SLPC   C1521364   4.296   2.931   5.933  0.6133 -0.1111 -0.0780
  186SLPC  H15A21365   4.360   3.018   5.927  0.0186  0.3906  0.7621
  186SLPC  H15B21366   4.323   2.874   6.021  2.3788  1.9307  0.7845
  186SLPC  H15C21367   4.321   2.873   5.845  0.7270 -2.3658  1.3552
  186SLPC   C1221368   4.064   2.842   5.975  0.2108 -0.5207 -0.1732
  186SLPC  H12A21369   4.092   2.767   5.903 -0.7233  1.2750 -2.5583
  186SLPC  H12B21370   3.967   2.871   5.936  0.2237  0.7893  0.7165
  186SLPC   C1121371   4.085   2.791   6.120  0.5153  0.3124 -0.1200
  186SLPC  H11A21372   4.016   2.707   6.143 -0.6792  0.7638 -1.8604
  186SLPC  H11B21373   4.044   2.861   6.197 -0.6861  0.1390 -0.5890
  186SLPC     P21374   4.299   2.812   6.273  0.0072  0.1869  0.3169
  186SLPC   O1321375   4.441   2.804   6.238  0.1920  0.5420 -0.5009
  186SLPC   O1421376   4.254   2.947   6.299  0.2378 -0.1527 -0.3793
  186SLPC   O1221377   4.218   2.751   6.149 -0.0894 -0.5520 -0.8744
  186SLPC   O1121378   4.276   2.719   6.401 -0.3513  0.3348 -0.0644
  186SLPC    C121379   4.180   2.614   6.406  0.5383  0.1975 -1.0570
  186SLPC    HA21380   4.162   2.574   6.304  3.2284  1.3914 -2.0791
  186SLPC    HB21381   4.215   2.529   6.468 -0.7766  0.6141  0.2982
  186SLPC    C221382   4.058   2.667   6.481 -0.9408  0.4739  0.8444
  186SLPC    HS21383   4.036   2.769   6.442 -2.9994  0.0641  0.8146
  186SLPC   O2121384   4.091   2.664   6.623 -0.0061  0.4156  0.6063
  186SLPC   C2121385   4.134   2.780   6.674  0.7791 -0.5109  0.0512
  186SLPC   O2221386   4.121   2.887   6.625 -0.3290 -0.9312 -0.0901
  186SLPC   C2221387   4.192   2.771   6.807  0.1991 -0.3169  0.8859
  186SLPC   H2R21388   4.120   2.718   6.873 -0.4344  0.0501  0.4968
  186SLPC   H2S21389   4.277   2.699   6.806  1.1472  0.5369 -3.4706
  186SLPC    C321390   3.934   2.584   6.455  0.0605 -0.4080  0.2030
  186SLPC    HX21391   3.939   2.480   6.494 -4.6992 -0.9748 -0.1006
  186SLPC    HY21392   3.916   2.566   6.347 -0.9817 -1.8488  0.5959
  186SLPC   O3121393   3.819   2.647   6.502 -0.0788  0.5524  0.0050
  186SLPC   C3121394   3.773   2.606   6.624 -0.2364 -0.2494  0.6050
  186SLPC   O3221395   3.796   2.497   6.672  0.3700  0.5470  0.4138
  186SLPC   C3221396   3.686   2.722   6.687 -0.7291  0.3242  0.2495
  186SLPC   H2X21397   3.584   2.686   6.713 -0.0721 -1.7751  0.1087
  186SLPC   H2Y21398   3.680   2.806   6.614 -0.5469  0.4817  0.4174
  186SLPC   C2321399   4.242   2.909   6.854 -0.2130 -0.2202 -0.4371
  186SLPC   H3R21400   4.155   2.978   6.857 -0.4173 -0.4479 -0.9808
  186SLPC   H3S21401   4.319   2.934   6.778 -1.0072 -1.5202 -1.7068
  186SLPC   C2421402   4.314   2.884   6.987  0.0971 -0.6364 -0.2945
  186SLPC   H4R21403   4.382   2.971   6.999 -2.1014  1.0208  0.9549
  186SLPC   H4S21404   4.386   2.800   7.000  1.3877  0.8712  4.7956
  186SLPC   C2521405   4.220   2.867   7.107  0.8574  0.6335  0.5140
  186SLPC   H5R21406   4.151   2.785   7.081  2.4128 -0.3273 -0.7544
  186SLPC   H5S21407   4.170   2.965   7.121 -1.3168  0.0142 -2.0670
  186SLPC   C2621408   4.289   2.835   7.245 -0.1243 -1.0053  0.0008
  186SLPC   H6R21409   4.366   2.914   7.257 -0.1449 -0.7911 -1.1711
  186SLPC   H6S21410   4.333   2.733   7.247  2.0003 -0.1247  0.4916
  186SLPC   C2721411   4.192   2.847   7.365 -0.1076 -0.1608  0.3188
  186SLPC   H7R21412   4.116   2.767   7.365  0.9370 -1.1862 -0.7121
  186SLPC   H7S21413   4.137   2.943   7.356  1.9343  0.9966 -0.8175
  186SLPC   C2821414   4.270   2.855   7.495  0.2895 -0.5416  0.2140
  186SLPC   H8R21415   4.199   2.896   7.571  1.1634  1.7770 -0.1261
  186SLPC   H8S21416   4.345   2.937   7.489 -1.5789  1.1491 -2.1226
  186SLPC   C2921417   4.330   2.730   7.539  0.4088 -0.1488  0.1350
  186SLPC   H9R21418   4.397   2.679   7.468 -0.2200 -2.0774  0.8690
  186SLPC  C21021419   4.310   2.674   7.659  0.6178 -0.0288  0.1698
  186SLPC  H10R21420   4.346   2.571   7.671  3.3271  0.8346  0.1733
  186SLPC  C21121421   4.228   2.720   7.775  0.7456 -0.4864  0.4159
  186SLPC  H11R21422   4.188   2.637   7.836 -0.2392  0.6683  1.3925
  186SLPC  H11S21423   4.138   2.768   7.730  1.2496  2.2778  2.0998
  186SLPC  C21221424   4.293   2.826   7.867  0.7001 -0.0129  0.4071
  186SLPC  H12R21425   4.359   2.885   7.803 -1.8363 -0.0910 -2.5212
  186SLPC  C21321426   4.251   2.867   7.986  0.2065  0.2802  0.0066
  186SLPC  H13R21427   4.292   2.960   8.029  1.2654 -1.7402  3.8064
  186SLPC  C21421428   4.133   2.802   8.059  0.3139  0.1739 -0.8128
  186SLPC  H14R21429   4.069   2.740   7.993  2.7670 -1.6738 -1.5997
  186SLPC  H14S21430   4.078   2.880   8.117  2.8215  1.5583 -0.1291
  186SLPC  C21521431   4.197   2.708   8.157 -0.2573  0.2456 -0.0227
  186SLPC  H15R21432   4.268   2.754   8.229  0.0418 -0.1317 -0.0725
  186SLPC  H15S21433   4.263   2.640   8.098 -0.4841 -1.4478  1.5994
  186SLPC  C21621434   4.100   2.617   8.221  0.3205  0.0502 -0.1208
  186SLPC  H16R21435   4.033   2.579   8.141  0.5856  1.7286 -1.1730
  186SLPC  H16S21436   4.026   2.677   8.278 -0.0553  1.2788 -1.8403
  186SLPC  C21721437   4.181   2.513   8.296  0.4511 -0.1983  0.6094
  186SLPC  H17R21438   4.253   2.564   8.363  1.5573  1.4099 -1.6882
  186SLPC  H17S21439   4.246   2.454   8.228  3.0057  4.1529 -1.1004
  186SLPC  C21821440   4.097   2.419   8.386 -0.1793  0.3236 -0.5173
  186SLPC  H18R21441   4.029   2.368   8.316 -2.5793  0.9139  1.2487
  186SLPC  H18S21442   4.040   2.477   8.461 -0.5598 -1.3616  0.5576
  186SLPC  H18T21443   4.159   2.353   8.451 -0.0175  1.4814  0.5416
  186SLPC   C3321444   3.757   2.786   6.812  0.5117  0.1865  0.4088
  186SLPC   H3X21445   3.686   2.868   6.834 -1.6751 -1.3891 -0.4224
  186SLPC   H3Y21446   3.861   2.824   6.798  0.7682 -0.0560  1.5590
  186SLPC   C3421447   3.748   2.690   6.936  0.1392 -0.1914  0.6170
  186SLPC   H4X21448   3.829   2.614   6.938  0.6038  0.2785  3.0789
  186SLPC   H4Y21449   3.652   2.636   6.930  0.9473 -1.6721  0.5960
  186SLPC   C3521450   3.741   2.761   7.074 -0.2368 -0.2429 -0.3560
  186SLPC   H5X21451   3.796   2.857   7.066 -0.6318  0.1042  0.7682
  186SLPC   H5Y21452   3.777   2.694   7.155 -1.5031  0.7659  1.1173
  186SLPC   C3621453   3.595   2.796   7.115 -0.2387  0.3193  0.5033
  186SLPC   H6X21454   3.553   2.698   7.147  2.1090 -0.3858  1.6799
  186SLPC   H6Y21455   3.541   2.818   7.021  0.6770 -0.6241 -0.2722
  186SLPC   C3721456   3.581   2.903   7.225  0.0212 -0.3361  0.2297
  186SLPC   H7X21457   3.479   2.947   7.225 -0.5101 -1.5337 -0.4932
  186SLPC   H7Y21458   3.656   2.981   7.200  1.0442 -1.8759 -1.7253
  186SLPC   C3821459   3.614   2.847   7.360 -0.1727  0.3632  0.2686
  186SLPC   H8X21460   3.715   2.800   7.362 -0.9511 -1.3610  0.5241
  186SLPC   H8Y21461   3.548   2.759   7.374 -1.3005  0.4370 -3.4743
  186SLPC   C3921462   3.603   2.944   7.479 -0.7078 -0.5515 -0.0997
  186SLPC   H9X21463   3.514   3.008   7.462  0.4979  1.4148  0.6907
  186SLPC   H9Y21464   3.684   3.017   7.458 -1.3949  0.2664  0.0379
  186SLPC  C31021465   3.619   2.878   7.614  0.6884 -0.0285 -0.8295
  186SLPC  H10X21466   3.720   2.833   7.617  0.7172  0.0871  1.7035
  186SLPC  H10Y21467   3.555   2.789   7.633 -1.0652  1.8054  2.9743
  186SLPC  C31121468   3.615   2.978   7.733  0.3283 -0.4618 -0.2194
  186SLPC  H11X21469   3.513   2.981   7.777  1.0143  2.0765  1.3829
  186SLPC  H11Y21470   3.651   3.075   7.693  1.6969 -0.4272  0.9819
  186SLPC  C31221471   3.701   2.936   7.853 -0.1301  0.2621  0.2207
  186SLPC  H12X21472   3.802   2.973   7.827 -1.4534  2.7586 -1.8930
  186SLPC  H12Y21473   3.696   2.825   7.865  2.2345 -0.0536 -1.0663
  186SLPC  C31321474   3.668   2.994   7.982 -0.1134 -0.5949 -0.3147
  186SLPC  H13X21475   3.740   2.959   8.059 -2.4882 -1.0449  1.8238
  186SLPC  H13Y21476   3.565   2.965   8.014 -0.7448 -2.4256 -3.5275
  186SLPC  C31421477   3.662   3.148   7.984 -0.2759  0.0987 -0.2062
  186SLPC  H14X21478   3.581   3.188   7.920 -0.0648  0.2604 -0.3776
  186SLPC  H14Y21479   3.758   3.196   7.953  0.3991 -0.2167  1.2763
  186SLPC  C31521480   3.642   3.183   8.132  0.6727 -0.2123 -0.3552
  186SLPC  H15X21481   3.721   3.148   8.202  0.5619  0.7748  0.2899
  186SLPC  H15Y21482   3.545   3.143   8.169  0.9072 -0.9879 -0.5642
  186SLPC  C31621483   3.642   3.335   8.160 -0.0217 -0.5896 -0.3051
  186SLPC  H16X21484   3.546   3.381   8.128  0.7058  0.9352 -0.3327
  186SLPC  H16Y21485   3.730   3.394   8.128 -0.8860  1.2069  0.5342
  186SLPC  C31721486   3.639   3.353   8.314 -0.2913 -0.0425 -0.1016
  186SLPC  H17X21487   3.645   3.462   8.338  0.1365 -0.3593  1.2904
  186SLPC  H17Y21488   3.735   3.324   8.362  0.1406  0.7328 -0.4682
  186SLPC  C31821489   3.521   3.291   8.387  0.0736 -0.5829  0.2621
  186SLPC  H18X21490   3.537   3.317   8.494  2.8971  1.6186 -0.5641
  186SLPC  H18Y21491   3.516   3.180   8.387 -0.5174 -0.5731  1.6946
  186SLPC  H18Z21492   3.427   3.336   8.350 -0.3990 -0.2505  1.8139
  187SLPC     N21493   0.158   4.199   5.844 -0.2438  0.0044  0.3195
  187SLPC   C1321494   0.255   4.186   5.732 -0.1227 -0.3200  0.0767
  187SLPC  H13A21495   0.324   4.268   5.743 -1.4077  0.6542  1.2495
  187SLPC  H13B21496   0.295   4.085   5.737 -0.4881 -0.4481  0.5074
  187SLPC  H13C21497   0.219   4.197   5.631 -0.1195  0.5607  0.1680
  187SLPC   C1421498   0.026   4.141   5.798  0.3899 -0.1914  0.2743
  187SLPC  H14A21499   0.021   4.033   5.790 -1.2867 -0.0514 -1.1831
  187SLPC  H14B21500  -0.061   4.166   5.857 -0.7379  0.1648 -1.4507
  187SLPC  H14C21501  -0.006   4.169   5.699 -1.5808 -3.1106 -0.0278
  187SLPC   C1521502   0.164   4.341   5.875  0.1785 -0.0005  0.0702
  187SLPC  H15A21503   0.251   4.355   5.938 -0.3966  0.8258  0.6870
  187SLPC  H15B21504   0.159   4.398   5.783 -0.6501 -1.6265 -0.9443
  187SLPC  H15C21505   0.079   4.366   5.936  0.8065  1.3587  0.4212
  187SLPC   C1221506   0.206   4.115   5.958 -0.2787  0.2350 -0.3680
  187SLPC  H12A21507   0.310   4.133   5.980 -0.6768  0.1811  1.7575
  187SLPC  H12B21508   0.207   4.015   5.917  1.7748  0.5740 -1.2428
  187SLPC   C1121509   0.117   4.117   6.086 -0.1403 -0.1074 -0.4102
  187SLPC  H11A21510   0.182   4.105   6.176  2.1996  0.2719 -1.9688
  187SLPC  H11B21511   0.067   4.019   6.077  0.5022 -0.6413  1.3844
  187SLPC     P21512   0.012   4.316   6.229  0.6686 -0.5066 -0.2488
  187SLPC   O1321513   0.087   4.435   6.188  0.5065  0.3296  0.4319
  187SLPC   O1421514  -0.131   4.330   6.275 -0.0943 -0.3436  0.5546
  187SLPC   O1221515   0.018   4.222   6.099  0.5641 -0.4924 -0.2491
  187SLPC   O1121516   0.082   4.244   6.346  0.1120 -0.2748  0.2609
  187SLPC    C121517   0.057   4.291   6.479  0.0014 -0.0617  0.4721
  187SLPC    HA21518   0.091   4.396   6.489 -1.8050  0.7688 -1.2043
  187SLPC    HB21519  -0.051   4.281   6.503  0.3081 -2.4243  1.0718
  187SLPC    C221520   0.130   4.199   6.584 -0.4714  0.3386 -0.3470
  187SLPC    HS21521   0.096   4.095   6.562  1.6830 -0.6070  0.4780
  187SLPC   O2121522   0.100   4.254   6.709  0.1528 -0.1203  0.1221
  187SLPC   C2121523   0.048   4.174   6.798 -0.8594  0.5816 -0.1386
  187SLPC   O2221524   0.032   4.053   6.783 -0.4641  0.0519 -0.4488
  187SLPC   C2221525   0.014   4.253   6.919  0.1715  0.3052  0.1715
  187SLPC   H2R21526   0.069   4.350   6.910 -1.7480  1.3417 -1.1708
  187SLPC   H2S21527  -0.096   4.269   6.917 -0.2748 -2.3878 -0.5162
  187SLPC    C321528   0.281   4.198   6.558 -0.0272  0.2876 -0.5155
  187SLPC    HX21529   0.323   4.299   6.574  0.5490 -0.0949  0.5223
  187SLPC    HY21530   0.292   4.169   6.452 -0.0806 -1.1214 -0.1540
  187SLPC   O3121531   0.338   4.094   6.642  0.9224  0.3843  0.1953
  187SLPC   C3121532   0.432   4.121   6.720  0.7324 -0.2120  0.0377
  187SLPC   O3221533   0.470   4.232   6.752 -0.3900 -0.5219 -0.0333
  187SLPC   C3221534   0.479   3.986   6.777 -0.6961  0.3568  0.3233
  187SLPC   H2X21535   0.590   3.979   6.776 -0.7140 -0.6333  1.8045
  187SLPC   H2Y21536   0.444   3.904   6.710 -0.9241  0.0099  0.8595
  187SLPC   C2321537   0.049   4.179   7.046  0.7287 -0.9685  0.3815
  187SLPC   H3R21538   0.159   4.174   7.055  0.9041  0.9694 -0.2799
  187SLPC   H3S21539  -0.001   4.079   7.051  0.7656 -0.9781  0.5806
  187SLPC   C2421540  -0.005   4.260   7.165 -0.2498  0.5779  0.3436
  187SLPC   H4R21541  -0.116   4.255   7.154 -0.1740  1.5390 -1.0075
  187SLPC   H4S21542   0.038   4.360   7.146 -1.5396  0.9080 -1.0339
  187SLPC   C2521543   0.019   4.213   7.302 -0.3344  0.7188  0.0673
  187SLPC   H5R21544   0.125   4.218   7.338  0.0659 -0.1071 -0.9475
  187SLPC   H5S21545  -0.007   4.105   7.297  0.1541  0.5798  0.3934
  187SLPC   C2621546  -0.073   4.288   7.404 -0.1358 -0.8188  0.2849
  187SLPC   H6R21547  -0.177   4.291   7.365 -0.0208 -1.5253 -0.1066
  187SLPC   H6S21548  -0.028   4.389   7.398  2.2268 -1.8184 -0.3758
  187SLPC   C2721549  -0.057   4.239   7.545 -0.3536 -0.1217  0.2121
  187SLPC   H7R21550  -0.049   4.129   7.539 -0.2840 -0.0785 -0.6335
  187SLPC   H7S21551  -0.154   4.259   7.594 -0.4626  2.4654 -0.8606
  187SLPC   C2821552   0.072   4.267   7.625  0.0986 -0.9933 -0.6779
  187SLPC   H8R21553   0.162   4.239   7.565  1.0324 -1.0028  0.6624
  187SLPC   H8S21554   0.082   4.204   7.716  1.6936  0.7598  0.4505
  187SLPC   C2921555   0.083   4.414   7.658 -0.0262  0.4406  0.0858
  187SLPC   H9R21556   0.095   4.478   7.569  2.9205 -0.1642 -0.0518
  187SLPC  C21021557   0.067   4.473   7.780  0.0232  0.1092 -0.0893
  187SLPC  H10R21558   0.086   4.581   7.773  0.8767  0.1121  1.6830
  187SLPC  C21121559   0.050   4.408   7.917 -0.0180 -0.4224  1.3086
  187SLPC  H11R21560   0.140   4.423   7.980  1.1303 -0.4149 -0.2570
  187SLPC  H11S21561   0.045   4.298   7.906 -0.4828 -0.4136  1.4138
  187SLPC  C21221562  -0.079   4.462   7.970  0.5555 -0.4887 -0.2131
  187SLPC  H12R21563  -0.171   4.404   7.955  1.9213 -2.2828 -2.0286
  187SLPC  C21321564  -0.087   4.578   8.036 -0.3039  0.1236 -0.0461
  187SLPC  H13R21565  -0.187   4.613   8.063 -0.6156 -0.3335 -0.5866
  187SLPC  C21421566   0.028   4.671   8.053 -0.5929  0.0540 -0.0088
  187SLPC  H14R21567   0.109   4.653   7.979 -0.2483 -0.0751  0.3954
  187SLPC  H14S21568   0.063   4.666   8.158 -2.7211  0.1171  0.7650
  187SLPC  C21521569  -0.018   4.812   8.017 -0.7858  0.4821 -0.3628
  187SLPC  H15R21570  -0.092   4.843   8.094 -2.8753 -1.8668 -1.2921
  187SLPC  H15S21571  -0.070   4.838   7.922 -0.9250  0.2154 -0.3611
  187SLPC  C21621572   0.101   4.913   8.006 -0.2801 -0.7025  0.0372
  187SLPC  H16R21573   0.191   4.872   8.057  0.4415 -0.8862 -1.3381
  187SLPC  H16S21574   0.073   4.999   8.070  0.6942 -1.4024  1.4643
  187SLPC  C21721575   0.134   4.965   7.865 -0.1099  0.2654  0.4268
  187SLPC  H17R21576   0.038   4.995   7.818 -0.6157 -0.9768  0.6200
  187SLPC  H17S21577   0.176   4.882   7.803 -1.0251 -1.1675  1.6512
  187SLPC  C21821578   0.247   5.071   7.856 -0.4864  0.0376 -0.4262
  187SLPC  H18R21579   0.271   5.077   7.748 -1.2219 -3.6215 -0.9548
  187SLPC  H18S21580   0.335   5.050   7.921  0.0603 -1.5583 -1.6029
  187SLPC  H18T21581   0.207   5.168   7.892  1.1823  0.3179  0.7570
  187SLPC   C3321582   0.420   3.948   6.912  0.0925 -0.3598  0.1782
  187SLPC   H3X21583   0.452   3.845   6.936 -0.4992 -0.2455  1.5941
  187SLPC   H3Y21584   0.309   3.961   6.912  0.3488  2.8186 -0.6642
  187SLPC   C3421585   0.488   4.026   7.027  0.4408 -0.0080 -0.1312
  187SLPC   H4X21586   0.483   4.135   7.005 -1.4749  0.5486  2.6249
  187SLPC   H4Y21587   0.597   4.009   7.038  0.6104  1.3901  0.5120
  187SLPC   C3521588   0.415   3.991   7.160 -0.0125 -0.3813 -0.9559
  187SLPC   H5X21589   0.436   3.889   7.197 -2.6987 -0.6910 -0.0523
  187SLPC   H5Y21590   0.308   4.019   7.169  0.4089  0.7243  4.2149
  187SLPC   C3621591   0.489   4.076   7.275  0.6513 -0.5395 -0.1253
  187SLPC   H6X21592   0.509   4.179   7.240  2.0700 -0.0407  1.9230
  187SLPC   H6Y21593   0.592   4.035   7.276  0.5104 -1.0764 -2.3031
  187SLPC   C3721594   0.418   4.085   7.412 -0.0487 -0.0457 -0.1887
  187SLPC   H7X21595   0.319   4.137   7.410 -2.0450 -3.4161  1.2039
  187SLPC   H7Y21596   0.390   3.989   7.461 -0.2495  0.9961  1.8567
  187SLPC   C3821597   0.499   4.168   7.514 -0.1055 -0.2459 -0.0197
  187SLPC   H8X21598   0.529   4.270   7.481  1.1361 -0.5632  0.0860
  187SLPC   H8Y21599   0.599   4.120   7.528  0.4075  0.6530 -0.4829
  187SLPC   C3921600   0.435   4.172   7.659 -0.4647 -0.0922 -0.1066
  187SLPC   H9X21601   0.422   4.065   7.684 -1.6948  0.0228 -0.2263
  187SLPC   H9Y21602   0.341   4.230   7.656 -0.8569 -0.7533 -1.3746
  187SLPC  C31021603   0.533   4.229   7.766 -0.0743 -0.5097  0.0382
  187SLPC  H10X21604   0.529   4.340   7.775 -1.0729 -0.6003  0.9102
  187SLPC  H10Y21605   0.634   4.192   7.740 -0.2139 -0.9771  0.1507
  187SLPC  C31121606   0.505   4.186   7.906  0.3690 -0.2969 -0.8354
  187SLPC  H11X21607   0.496   4.075   7.908 -0.0334 -0.2922 -1.8833
  187SLPC  H11Y21608   0.404   4.223   7.933  0.6691 -0.3897  0.4868
  187SLPC  C31221609   0.596   4.217   8.027 -0.3608  0.2884  0.2489
  187SLPC  H12X21610   0.626   4.324   8.026 -2.4030  0.9164  1.2798
  187SLPC  H12Y21611   0.689   4.160   8.006  0.2797  1.0078  1.0331
  187SLPC  C31321612   0.534   4.193   8.164  0.5084 -1.1116 -0.1444
  187SLPC  H13X21613   0.507   4.085   8.168 -1.3025 -0.8418 -2.5864
  187SLPC  H13Y21614   0.441   4.254   8.174 -1.0775 -2.8898 -2.8302
  187SLPC  C31421615   0.637   4.230   8.273  0.3641  0.4533  0.6870
  187SLPC  H14X21616   0.664   4.337   8.256 -1.2700  0.7222 -0.3726
  187SLPC  H14Y21617   0.729   4.172   8.251 -0.0150 -0.8343  2.2578
  187SLPC  C31521618   0.571   4.207   8.408  0.4095 -0.1933  0.6315
  187SLPC  H15X21619   0.464   4.237   8.407  0.0213 -1.5397  0.6770
  187SLPC  H15Y21620   0.617   4.280   8.478 -1.3870  0.7773  0.8540
  187SLPC  C31621621   0.582   4.068   8.467 -0.0362 -0.2524  0.0146
  187SLPC  H16X21622   0.683   4.023   8.460 -0.1259 -0.4009 -0.3749
  187SLPC  H16Y21623   0.519   4.002   8.404  0.5502 -0.8632  0.0596
  187SLPC  C31721624   0.543   4.042   8.622 -0.1492 -0.9569 -0.0531
  187SLPC  H17X21625   0.448   4.094   8.644  1.3298  1.3701  1.2017
  187SLPC  H17Y21626   0.613   4.101   8.685  0.7893 -1.1460 -0.8927
  187SLPC  C31821627   0.539   3.897   8.667 -0.2750  0.6526  0.3434
  187SLPC  H18X21628   0.513   3.823   8.588  0.2774  0.4596  0.3377
  187SLPC  H18Y21629   0.476   3.883   8.757 -1.2582 -1.6315 -0.6350
  187SLPC  H18Z21630   0.641   3.858   8.686  0.3435  1.7530 -0.5358
  188SLPC     N21631   0.726   5.648   6.403 -0.0977 -0.4938 -0.2566
  188SLPC   C1321632   0.651   5.560   6.312 -0.5285  0.3036  0.2170
  188SLPC  H13A21633   0.593   5.621   6.245  0.7451  1.4261  0.0939
  188SLPC  H13B21634   0.718   5.500   6.252 -0.4653  1.9348 -1.4426
  188SLPC  H13C21635   0.591   5.487   6.365  0.1267  0.3114  0.9896
  188SLPC   C1421636   0.789   5.575   6.518 -0.6409 -0.6867 -0.3421
  188SLPC  H14A21637   0.859   5.501   6.480  2.2765  0.8885  1.5504
  188SLPC  H14B21638   0.830   5.642   6.592 -1.9838 -0.6585  0.4109
  188SLPC  H14C21639   0.707   5.534   6.574 -2.1975  2.9552  0.2676
  188SLPC   C1521640   0.625   5.741   6.461 -0.1281 -0.1581  0.1302
  188SLPC  H15A21641   0.670   5.825   6.511 -0.6448  0.4418 -0.3810
  188SLPC  H15B21642   0.560   5.778   6.383 -1.0882  1.2505  1.5410
  188SLPC  H15C21643   0.558   5.690   6.528 -1.0296  0.7694 -0.0415
  188SLPC   C1221644   0.819   5.729   6.324 -0.2642 -0.3361  0.0008
  188SLPC  H12A21645   0.774   5.775   6.237  2.0596  0.4751 -0.8527
  188SLPC  H12B21646   0.889   5.656   6.287 -1.0887 -1.8420  1.2922
  188SLPC   C1121647   0.888   5.849   6.395 -0.0905  0.2701 -0.6395
  188SLPC  H11A21648   0.988   5.873   6.354  0.3883 -0.1160  0.2748
  188SLPC  H11B21649   0.921   5.818   6.496  0.1612  1.6596 -0.2833
  188SLPC     P21650   0.758   6.062   6.319  0.3160  0.4603 -0.4268
  188SLPC   O1321651   0.876   6.150   6.295 -0.5330 -0.5086  0.5242
  188SLPC   O1421652   0.704   6.000   6.199  0.1153  0.5493 -0.7786
  188SLPC   O1221653   0.808   5.958   6.427 -0.0046 -0.2028 -0.1469
  188SLPC   O1121654   0.640   6.146   6.388  0.3030 -0.2341 -0.5782
  188SLPC    C121655   0.657   6.210   6.518 -0.8454 -0.2168  0.5018
  188SLPC    HA21656   0.762   6.232   6.546 -0.5305  0.0476 -0.8379
  188SLPC    HB21657   0.603   6.306   6.529  1.1353  0.9000  0.9298
  188SLPC    C221658   0.607   6.111   6.631 -0.6344 -0.4201 -0.2119
  188SLPC    HS21659   0.617   6.008   6.590  1.1001 -0.1450 -0.5785
  188SLPC   O2121660   0.474   6.150   6.658  0.0446  0.0638  1.0206
  188SLPC   C2121661   0.383   6.050   6.674  0.1295 -0.3401  0.1229
  188SLPC   O2221662   0.406   5.933   6.678  0.1495 -0.1189 -0.4281
  188SLPC   C2221663   0.239   6.110   6.671 -0.3113  0.1008 -0.0175
  188SLPC   H2R21664   0.237   6.164   6.573 -0.2644  2.0383  1.0052
  188SLPC   H2S21665   0.163   6.029   6.670 -2.9447  2.3006  3.1187
  188SLPC    C321666   0.683   6.123   6.764 -0.1672 -0.1905 -0.2612
  188SLPC    HX21667   0.679   6.229   6.798  0.2241 -0.0423 -0.6866
  188SLPC    HY21668   0.788   6.091   6.747 -0.2761  0.6916 -3.1799
  188SLPC   O3121669   0.623   6.051   6.874  0.3574 -0.4018  0.0445
  188SLPC   C3121670   0.643   5.926   6.874 -0.5249 -0.5582 -0.4257
  188SLPC   O3221671   0.718   5.866   6.795 -0.1440 -0.4809 -0.3439
  188SLPC   C3221672   0.569   5.866   6.990 -0.1257  0.1820 -0.4747
  188SLPC   H2X21673   0.551   5.760   6.960  0.5557 -0.2770  0.7081
  188SLPC   H2Y21674   0.466   5.907   6.991  0.5885  2.0420 -0.2347
  188SLPC   C2321675   0.210   6.214   6.780  0.3667  0.4296 -0.4286
  188SLPC   H3R21676   0.112   6.259   6.751 -0.9953 -1.2818  1.2352
  188SLPC   H3S21677   0.289   6.291   6.779 -0.8194  1.7680 -2.9046
  188SLPC   C2421678   0.204   6.160   6.928 -0.9442  0.2219  0.1446
  188SLPC   H4R21679   0.297   6.100   6.938 -1.0344  0.2249  1.0052
  188SLPC   H4S21680   0.127   6.086   6.956  0.0070 -0.6669  0.4912
  188SLPC   C2521681   0.197   6.281   7.028  0.3800  0.1466  0.1532
  188SLPC   H5R21682   0.094   6.321   7.030  0.7054  0.9858  0.7648
  188SLPC   H5S21683   0.256   6.362   6.979  1.2275 -0.3941  0.2469
  188SLPC   C2621684   0.238   6.245   7.167 -0.1417  0.4620  0.1906
  188SLPC   H6R21685   0.342   6.206   7.168  0.3430  1.6666  2.2114
  188SLPC   H6S21686   0.167   6.165   7.199 -0.4901 -0.5493 -2.7246
  188SLPC   C2721687   0.243   6.358   7.267 -0.2649 -0.3317 -0.6165
  188SLPC   H7R21688   0.138   6.393   7.279 -0.7137 -1.3606 -1.4216
  188SLPC   H7S21689   0.299   6.443   7.221 -0.5414 -0.5131 -1.2936
  188SLPC   C2821690   0.294   6.322   7.406  0.7840 -0.0733  0.0899
  188SLPC   H8R21691   0.401   6.292   7.406  0.7935 -0.0991 -0.9600
  188SLPC   H8S21692   0.231   6.234   7.433 -2.1215  1.7887 -0.2112
  188SLPC   C2921693   0.267   6.437   7.499 -0.1043 -0.1478 -0.7832
  188SLPC   H9R21694   0.231   6.536   7.470 -0.0320  0.0674 -0.1624
  188SLPC  C21021695   0.303   6.419   7.622  0.5518  0.2897  0.2011
  188SLPC  H10R21696   0.277   6.494   7.698  1.5558 -0.4309  1.2901
  188SLPC  C21121697   0.364   6.291   7.677  0.6766 -0.5918  0.3609
  188SLPC  H11R21698   0.426   6.238   7.601  1.0597 -0.4650  0.5836
  188SLPC  H11S21699   0.273   6.228   7.683  1.1443 -1.5096 -1.3580
  188SLPC  C21221700   0.430   6.292   7.816  0.0783 -0.0085 -0.7028
  188SLPC  H12R21701   0.536   6.321   7.818  0.7295 -2.2793  0.5979
  188SLPC  C21321702   0.372   6.272   7.935  0.9727 -0.4723  0.3426
  188SLPC  H13R21703   0.427   6.288   8.029  2.4759 -1.0436 -0.4197
  188SLPC  C21421704   0.228   6.228   7.958  0.2481 -0.6008 -0.1090
  188SLPC  H14R21705   0.249   6.158   8.042 -0.8183 -0.0351  0.6556
  188SLPC  H14S21706   0.190   6.162   7.878 -0.7860 -0.2887  0.1099
  188SLPC  C21521707   0.126   6.337   7.995  0.0644 -0.4162  0.0565
  188SLPC  H15R21708   0.026   6.320   7.949 -0.2579 -0.4303  0.7566
  188SLPC  H15S21709   0.164   6.428   7.943  2.1048 -1.1004  0.2822
  188SLPC  C21621710   0.091   6.344   8.144  0.0992 -0.3816  0.3380
  188SLPC  H16R21711   0.036   6.437   8.170  0.6392 -0.6236  2.5087
  188SLPC  H16S21712   0.184   6.356   8.204  0.4634  1.5372 -0.5181
  188SLPC  C21721713  -0.002   6.237   8.182 -1.2450 -0.3236  0.4665
  188SLPC  H17R21714   0.056   6.147   8.153 -0.4148  0.4484 -0.3367
  188SLPC  H17S21715  -0.096   6.241   8.123 -2.5620 -0.1779  2.4602
  188SLPC  C21821716  -0.029   6.242   8.334  0.7806 -0.7833  0.4212
  188SLPC  H18R21717  -0.067   6.143   8.367  1.4626 -0.2697  2.9484
  188SLPC  H18S21718  -0.110   6.314   8.360  0.9172 -0.2832 -0.4913
  188SLPC  H18T21719   0.063   6.262   8.393  1.1818 -1.9914  0.2233
  188SLPC   C3321720   0.629   5.895   7.125  0.3636  0.5317 -0.5432
  188SLPC   H3X21721   0.670   5.998   7.122  2.6055 -0.2998 -1.0911
  188SLPC   H3Y21722   0.730   5.850   7.138  0.8337  1.8761  0.7771
  188SLPC   C3421723   0.545   5.860   7.247  0.3409 -0.0256  0.9563
  188SLPC   H4X21724   0.550   5.752   7.274  1.6967 -0.1152  0.4237
  188SLPC   H4Y21725   0.439   5.883   7.223  0.3557 -0.4647  0.4311
  188SLPC   C3521726   0.597   5.919   7.377  0.1227  0.3225 -0.4875
  188SLPC   H5X21727   0.589   6.029   7.393 -1.1332  0.2417 -0.4731
  188SLPC   H5Y21728   0.704   5.897   7.399  0.4324  0.7580 -1.5386
  188SLPC   C3621729   0.512   5.857   7.495 -0.1094 -0.1930 -0.7582
  188SLPC   H6X21730   0.511   5.747   7.478 -0.1926 -0.3139 -0.0009
  188SLPC   H6Y21731   0.409   5.889   7.468 -1.6103 -3.9490 -0.1142
  188SLPC   C3721732   0.539   5.900   7.638 -0.5977  0.8091  0.5390
  188SLPC   H7X21733   0.521   6.009   7.645 -0.4265  0.7440  2.2402
  188SLPC   H7Y21734   0.647   5.878   7.654 -0.0634  0.9793 -2.2562
  188SLPC   C3821735   0.458   5.846   7.760 -0.8092 -0.5548  0.3283
  188SLPC   H8X21736   0.492   5.741   7.774 -0.5172 -1.0065 -2.8415
  188SLPC   H8Y21737   0.354   5.842   7.721 -1.3259 -1.1847  1.7215
  188SLPC   C3921738   0.482   5.921   7.894 -0.1189  0.5117  0.0624
  188SLPC   H9X21739   0.462   6.028   7.871  3.6702  1.0766 -1.3687
  188SLPC   H9Y21740   0.592   5.916   7.910 -0.4481 -3.5188  2.4030
  188SLPC  C31021741   0.408   5.863   8.014 -0.3538 -0.8977 -0.0949
  188SLPC  H10X21742   0.454   5.765   8.040 -0.0576 -0.5520  0.7363
  188SLPC  H10Y21743   0.301   5.849   7.988 -0.1432 -1.0536 -0.8751
  188SLPC  C31121744   0.423   5.965   8.128 -0.0403 -0.0841 -0.1418
  188SLPC  H11X21745   0.333   5.958   8.192  0.6518 -0.6187  0.8157
  188SLPC  H11Y21746   0.416   6.070   8.093  1.7919  0.2939  0.4656
  188SLPC  C31221747   0.545   5.950   8.224 -0.3819 -0.1911 -0.4781
  188SLPC  H12X21748   0.605   5.862   8.194  2.2058  1.1502  0.4519
  188SLPC  H12Y21749   0.511   5.941   8.329  0.5461 -0.6216 -0.2042
  188SLPC  C31321750   0.628   6.082   8.214 -0.1232 -0.5133 -0.3585
  188SLPC  H13X21751   0.571   6.172   8.246 -0.8904 -0.6838 -1.2256
  188SLPC  H13Y21752   0.669   6.103   8.113 -3.0300  0.0121 -1.5288
  188SLPC  C31421753   0.759   6.077   8.300 -0.0260  0.6093 -0.1732
  188SLPC  H14X21754   0.805   6.175   8.279 -1.9006  1.3732 -1.0171
  188SLPC  H14Y21755   0.814   5.993   8.252 -1.4257  0.4536 -1.6264
  188SLPC  C31521756   0.741   6.062   8.449  0.1350  0.4159 -0.1145
  188SLPC  H15X21757   0.677   5.972   8.462  1.6200 -0.6288  0.1739
  188SLPC  H15Y21758   0.683   6.150   8.484 -2.2674 -0.4765 -1.5592
  188SLPC  C31621759   0.868   6.043   8.532 -1.2377 -0.3338 -0.6980
  188SLPC  H16X21760   0.919   6.141   8.539 -0.3209 -0.6863 -2.0153
  188SLPC  H16Y21761   0.947   5.983   8.483 -2.0976 -1.6452 -0.5162
  188SLPC  C31721762   0.848   5.986   8.671 -0.1686 -0.6065  0.1899
  188SLPC  H17X21763   0.750   6.019   8.710  0.2088  0.9237 -0.0765
  188SLPC  H17Y21764   0.926   6.011   8.746 -0.5487 -1.5504  0.9124
  188SLPC  C31821765   0.847   5.836   8.668  0.0645 -0.2654  0.0352
  188SLPC  H18X21766   0.817   5.801   8.770  2.6238  0.1911  1.0120
  188SLPC  H18Y21767   0.947   5.792   8.648  0.5750  1.7891 -2.2858
  188SLPC  H18Z21768   0.769   5.790   8.603  0.1913  0.2526 -0.4879
  189SLPC     N21769   2.899   1.846   5.998  0.0505  0.1960 -0.3099
  189SLPC   C1321770   2.811   1.765   5.912  0.4673  0.8955 -0.4364
  189SLPC  H13A21771   2.711   1.761   5.954  0.1311  0.4395 -1.2460
  189SLPC  H13B21772   2.808   1.807   5.813  1.7866 -1.1763 -1.4195
  189SLPC  H13C21773   2.852   1.666   5.896  1.1674  1.0878  0.1140
  189SLPC   C1421774   3.026   1.851   5.926  0.6374 -0.0665  0.1951
  189SLPC  H14A21775   3.040   1.765   5.863 -0.4578  1.1513 -1.8288
  189SLPC  H14B21776   3.034   1.940   5.864 -1.5566  1.3004  1.7263
  189SLPC  H14C21777   3.109   1.864   5.995  1.4100  2.1052 -1.0291
  189SLPC   C1521778   2.924   1.765   6.124  0.3251  0.2235 -0.1015
  189SLPC  H15A21779   2.964   1.668   6.099 -1.2684 -0.4061 -0.3193
  189SLPC  H15B21780   2.975   1.827   6.197  1.4792  0.9290 -1.4592
  189SLPC  H15C21781   2.825   1.754   6.166  0.2167 -0.2807 -0.4922
  189SLPC   C1221782   2.830   1.969   6.025  0.4262  0.2817  0.3735
  189SLPC  H12A21783   2.811   2.019   5.931  0.5651  3.0216  1.6951
  189SLPC  H12B21784   2.890   2.040   6.081 -0.3515  1.1904  0.0789
  189SLPC   C1121785   2.687   1.957   6.089 -0.2508  0.9241 -0.9202
  189SLPC  H11A21786   2.625   1.886   6.030  1.6751 -0.1505 -1.7689
  189SLPC  H11B21787   2.633   2.054   6.092 -0.4681  0.7963 -0.6905
  189SLPC     P21788   2.742   1.959   6.352 -0.0524 -0.0663  0.3847
  189SLPC   O1321789   2.892   1.975   6.337 -0.2814  0.3625  0.5770
  189SLPC   O1421790   2.650   2.075   6.384 -0.4769  0.0635 -0.4358
  189SLPC   O1221791   2.689   1.897   6.219  0.6570  0.3311  0.1672
  189SLPC   O1121792   2.722   1.843   6.451  0.0451  0.1642 -0.3682
  189SLPC    C121793   2.622   1.737   6.446  0.4341 -0.3259 -0.5364
  189SLPC    HA21794   2.599   1.717   6.339  0.3395 -1.5692 -0.2947
  189SLPC    HB21795   2.659   1.645   6.496 -0.7946 -0.3987  0.2655
  189SLPC    C221796   2.491   1.766   6.530  0.4228 -0.2576 -0.1853
  189SLPC    HS21797   2.446   1.860   6.491  0.5770  1.4438  3.3151
  189SLPC   O2121798   2.532   1.791   6.667  0.4675 -0.0269 -0.0588
  189SLPC   C2121799   2.450   1.854   6.742 -0.3263 -0.0880  0.4012
  189SLPC   O2221800   2.337   1.888   6.707  0.3745 -0.2144  0.6635
  189SLPC   C2221801   2.508   1.879   6.880  0.9806 -0.1700  0.1501
  189SLPC   H2R21802   2.529   1.777   6.919  2.3134  0.2109  0.5002
  189SLPC   H2S21803   2.604   1.934   6.881  0.5877  0.5203  0.1663
  189SLPC    C321804   2.382   1.645   6.528  0.1441  0.1469  0.5804
  189SLPC    HX21805   2.345   1.646   6.423  1.4196 -0.2021  0.1125
  189SLPC    HY21806   2.298   1.668   6.598 -1.4322 -0.2684 -1.0790
  189SLPC   O3121807   2.456   1.524   6.565 -0.2731 -0.2638 -0.4622
  189SLPC   C3121808   2.455   1.497   6.697 -0.0081  0.1052  0.1091
  189SLPC   O3221809   2.375   1.545   6.775 -0.0359 -0.3407 -0.1859
  189SLPC   C3221810   2.559   1.383   6.727 -0.3340 -0.2421  0.4699
  189SLPC   H2X21811   2.591   1.340   6.630  0.4573 -0.6844  0.9143
  189SLPC   H2Y21812   2.503   1.308   6.788  1.5136 -0.3249  2.1562
  189SLPC   C2321813   2.402   1.944   6.971 -0.7156 -0.2520 -0.2221
  189SLPC   H3R21814   2.302   1.896   6.959 -1.0971  0.7709 -1.4749
  189SLPC   H3S21815   2.381   2.049   6.940  0.4819  0.0694  0.0080
  189SLPC   C2421816   2.455   1.961   7.111 -0.0330  0.5341  0.1930
  189SLPC   H4R21817   2.419   2.055   7.159 -1.1726 -0.1341  0.7088
  189SLPC   H4S21818   2.566   1.959   7.106 -0.0274 -0.8766  0.5219
  189SLPC   C2521819   2.417   1.846   7.203 -0.9784  0.2209  0.5923
  189SLPC   H5R21820   2.447   1.752   7.152 -0.4533  1.0889 -0.7476
  189SLPC   H5S21821   2.306   1.845   7.209 -0.9721 -2.2292  1.7802
  189SLPC   C2621822   2.479   1.867   7.346 -0.1227 -0.2390  0.3834
  189SLPC   H6R21823   2.589   1.868   7.333 -0.2371  0.0557 -0.6495
  189SLPC   H6S21824   2.449   1.779   7.406  1.9832 -1.7012 -0.6088
  189SLPC   C2721825   2.432   1.996   7.411 -0.1104 -0.0174  0.2785
  189SLPC   H7R21826   2.322   2.013   7.414 -0.0255  0.4517  1.3088
  189SLPC   H7S21827   2.490   2.074   7.358 -0.0008 -0.0561  0.3412
  189SLPC   C2821828   2.484   2.017   7.560  0.4107  0.3136  0.6620
  189SLPC   H8R21829   2.586   1.975   7.571 -0.6620 -2.2976  1.5872
  189SLPC   H8S21830   2.420   1.958   7.629  2.1343 -1.1410  1.0859
  189SLPC   C2921831   2.484   2.163   7.601 -0.7714  0.2843 -0.3387
  189SLPC   H9R21832   2.534   2.234   7.533 -0.7427 -0.2090 -0.8405
  189SLPC  C21021833   2.442   2.213   7.721 -0.3155  0.7720  0.2599
  189SLPC  H10R21834   2.466   2.321   7.722  0.6943  0.6572 -2.4785
  189SLPC  C21121835   2.392   2.145   7.846  0.3266  0.4514 -0.1304
  189SLPC  H11R21836   2.422   2.038   7.854  0.4387  0.4805 -0.1619
  189SLPC  H11S21837   2.282   2.133   7.852  0.5533 -1.5232  0.9090
  189SLPC  C21221838   2.447   2.213   7.975 -0.0702 -0.4725 -0.0862
  189SLPC  H12R21839   2.531   2.283   7.973 -2.7943  3.1687  1.1124
  189SLPC  C21321840   2.403   2.185   8.098  0.0555  0.3041 -0.7055
  189SLPC  H13R21841   2.454   2.235   8.182 -1.2151  0.3939  0.0259
  189SLPC  C21421842   2.292   2.091   8.150 -0.3440  0.3013 -0.0110
  189SLPC  H14R21843   2.331   2.024   8.229 -2.9714  1.5524  2.5513
  189SLPC  H14S21844   2.265   2.026   8.064 -1.2253  1.9375 -1.0437
  189SLPC  C21521845   2.160   2.158   8.199 -0.3607 -0.0437 -0.1867
  189SLPC  H15R21846   2.118   2.201   8.105  2.3449  0.3135 -1.3475
  189SLPC  H15S21847   2.177   2.241   8.271 -3.3968  1.0178 -0.5331
  189SLPC  C21621848   2.045   2.068   8.258  0.0294 -0.2859 -0.3543
  189SLPC  H16R21849   2.023   1.992   8.180 -1.0624  0.1976 -0.5366
  189SLPC  H16S21850   1.950   2.124   8.274 -1.4769 -2.2544 -1.9516
  189SLPC  C21721851   2.069   2.011   8.402 -0.1352 -0.6577 -0.3454
  189SLPC  H17R21852   2.093   2.096   8.470 -0.6489 -1.6666  1.1757
  189SLPC  H17S21853   2.155   1.942   8.395 -0.3230 -0.8585 -0.6952
  189SLPC  C21821854   1.943   1.934   8.454  0.4605  0.7915 -0.3374
  189SLPC  H18R21855   1.857   2.005   8.457 -0.6684 -0.5479  1.8335
  189SLPC  H18S21856   1.976   1.910   8.557 -0.2218  0.4844 -0.1864
  189SLPC  H18T21857   1.921   1.842   8.395 -0.5541  1.5745 -1.2219
  189SLPC   C3321858   2.686   1.431   6.803 -0.5316 -0.1813  0.3052
  189SLPC   H3X21859   2.718   1.528   6.762 -2.1828 -0.5970 -2.1969
  189SLPC   H3Y21860   2.764   1.354   6.787 -1.2264 -0.8784  0.1920
  189SLPC   C3421861   2.669   1.466   6.957 -0.3903 -0.6237  0.7190
  189SLPC   H4X21862   2.568   1.510   6.972 -1.0141 -1.0079 -1.8657
  189SLPC   H4Y21863   2.748   1.542   6.973  0.5463 -1.0522 -1.4810
  189SLPC   C3521864   2.688   1.352   7.058  0.0827  0.1257 -0.3160
  189SLPC   H5X21865   2.797   1.332   7.054 -0.0945 -0.7364 -1.8768
  189SLPC   H5Y21866   2.638   1.254   7.039 -0.7895  0.3639  0.6492
  189SLPC   C3621867   2.653   1.384   7.203  0.8227  0.3738 -0.0519
  189SLPC   H6X21868   2.676   1.288   7.255  1.6526  0.4306 -0.3061
  189SLPC   H6Y21869   2.542   1.387   7.207  0.8722  2.7771  0.8313
  189SLPC   C3721870   2.716   1.500   7.272  0.5493  0.3640  0.1412
  189SLPC   H7X21871   2.717   1.586   7.203  0.0454 -1.1361 -1.8293
  189SLPC   H7Y21872   2.821   1.473   7.295  0.6253  1.6681  1.4639
  189SLPC   C3821873   2.657   1.511   7.416  0.3805 -0.7965  0.3221
  189SLPC   H8X21874   2.683   1.421   7.476  0.7207 -1.4742 -0.8104
  189SLPC   H8Y21875   2.548   1.528   7.406  0.0509 -1.0817  2.7295
  189SLPC   C3921876   2.726   1.625   7.493  0.3855 -0.2150  0.8387
  189SLPC   H9X21877   2.705   1.718   7.435 -0.4858 -0.4495  0.7623
  189SLPC   H9Y21878   2.836   1.617   7.485  0.5557  1.8133  0.5654
  189SLPC  C31021879   2.694   1.629   7.641  0.9424  0.2192  0.8265
  189SLPC  H10X21880   2.732   1.538   7.691  2.8301 -0.2394 -1.2767
  189SLPC  H10Y21881   2.585   1.644   7.658  0.9962  0.3310  1.0849
  189SLPC  C31121882   2.758   1.746   7.717  0.2708  0.0005 -0.1787
  189SLPC  H11X21883   2.720   1.839   7.671 -2.6403  0.1594  2.2774
  189SLPC  H11Y21884   2.866   1.737   7.691  0.5809  0.3647  0.9228
  189SLPC  C31221885   2.732   1.738   7.873 -0.3927  0.0478 -0.2294
  189SLPC  H12X21886   2.758   1.636   7.907 -0.9799 -0.6870 -1.8778
  189SLPC  H12Y21887   2.621   1.740   7.882 -0.3727  1.2561 -0.1226
  189SLPC  C31321888   2.803   1.840   7.952  0.2266  0.2044  0.4009
  189SLPC  H13X21889   2.787   1.939   7.903 -0.8515 -0.2433 -0.1864
  189SLPC  H13Y21890   2.912   1.822   7.939 -0.2892 -2.2210 -1.2281
  189SLPC  C31421891   2.770   1.838   8.105 -0.5954 -0.0921  0.0258
  189SLPC  H14X21892   2.852   1.891   8.157 -1.4110  0.3681  0.8754
  189SLPC  H14Y21893   2.777   1.733   8.138 -0.8660 -0.1397 -0.0612
  189SLPC  C31521894   2.640   1.911   8.138  0.3328  0.6176 -0.8016
  189SLPC  H15X21895   2.545   1.856   8.120 -0.7428  2.0148  0.3194
  189SLPC  H15Y21896   2.651   1.996   8.067 -0.3902  1.9495  0.6116
  189SLPC  C31621897   2.640   1.978   8.276 -0.1517 -0.0563 -0.2782
  189SLPC  H16X21898   2.565   2.060   8.280 -0.9468 -0.7953  0.5202
  189SLPC  H16Y21899   2.742   2.005   8.311 -0.5062 -0.4248  1.1293
  189SLPC  C31721900   2.605   1.857   8.374  0.2493 -0.1018  0.2408
  189SLPC  H17X21901   2.676   1.775   8.351 -0.2980 -0.1733 -1.3063
  189SLPC  H17Y21902   2.503   1.818   8.353 -0.2693  0.8651  0.9209
  189SLPC  C31821903   2.598   1.889   8.524 -0.4043 -0.7601  0.3893
  189SLPC  H18X21904   2.573   1.792   8.572 -0.3281 -1.3187 -0.6648
  189SLPC  H18Y21905   2.523   1.966   8.550 -1.7321 -1.9240  0.1009
  189SLPC  H18Z21906   2.675   1.942   8.584  0.3611 -0.8468 -0.4972
  190SLPC     N21907   3.122   6.369   6.072 -0.2225  0.0785  0.6125
  190SLPC   C1321908   3.179   6.289   5.957 -0.2101  0.1859 -0.3198
  190SLPC  H13A21909   3.225   6.359   5.889 -1.2609  0.1497 -1.0860
  190SLPC  H13B21910   3.257   6.224   5.994 -0.2119  0.7981  0.7769
  190SLPC  H13C21911   3.101   6.229   5.913  0.0380 -0.7882  0.5326
  190SLPC   C1421912   3.020   6.458   6.010  0.1139  0.7456  0.2208
  190SLPC  H14A21913   2.986   6.532   6.081  0.1697 -0.4657  1.5719
  190SLPC  H14B21914   3.056   6.511   5.923  1.6326  0.0373  0.3718
  190SLPC  H14C21915   2.922   6.418   5.989 -0.5664  0.3030  3.6304
  190SLPC   C1521916   3.233   6.458   6.132  0.2647  0.7171  0.1838
  190SLPC  H15A21917   3.256   6.548   6.076  0.0800  1.2274  0.9071
  190SLPC  H15B21918   3.205   6.484   6.233 -0.2160 -3.7938  1.4234
  190SLPC  H15C21919   3.321   6.399   6.153 -0.1653 -0.5943 -1.5105
  190SLPC   C1221920   3.062   6.277   6.177 -0.2589 -0.2919  0.4915
  190SLPC  H12A21921   3.023   6.332   6.261 -1.1218  1.1314 -0.7990
  190SLPC  H12B21922   3.139   6.223   6.230  0.3973  1.2199  1.1191
  190SLPC   C1121923   2.949   6.191   6.131  0.0078  0.3266  0.0566
  190SLPC  H11A21924   2.934   6.116   6.211  1.1729 -0.4624 -0.4352
  190SLPC  H11B21925   2.984   6.134   6.042  4.9819  2.8413  0.0151
  190SLPC     P21926   2.727   6.310   6.198  0.0065 -0.1338 -0.0651
  190SLPC   O1321927   2.664   6.436   6.155 -0.2980 -0.2092 -0.7464
  190SLPC   O1421928   2.648   6.187   6.202  0.1528 -0.0588 -0.5938
  190SLPC   O1221929   2.836   6.267   6.090  0.2394  0.0900  0.5807
  190SLPC   O1121930   2.814   6.342   6.328 -0.0212  1.1678  0.5433
  190SLPC    C121931   2.835   6.471   6.379 -1.1915  0.2181  0.7807
  190SLPC    HA21932   2.943   6.497   6.373 -0.2614 -3.3726 -0.4321
  190SLPC    HB21933   2.776   6.547   6.323 -1.3292 -0.8963 -0.6509
  190SLPC    C221934   2.810   6.483   6.533 -0.2480 -0.9811  0.5815
  190SLPC    HS21935   2.874   6.402   6.574 -1.7834 -1.7428  1.5676
  190SLPC   O2121936   2.670   6.475   6.562  0.4849 -0.1245 -0.0902
  190SLPC   C2121937   2.640   6.424   6.676 -0.6760  0.4552 -0.3275
  190SLPC   O2221938   2.711   6.395   6.769 -0.4589  0.2112  0.3755
  190SLPC   C2221939   2.487   6.419   6.689  0.8164 -0.4120  0.2190
  190SLPC   H2R21940   2.442   6.429   6.588 -3.3763  0.3992  1.9178
  190SLPC   H2S21941   2.458   6.314   6.708  1.5827 -0.8553 -0.9943
  190SLPC    C321942   2.855   6.627   6.584  0.1302 -0.6090  0.1260
  190SLPC    HX21943   2.779   6.700   6.548  1.5225 -0.1209 -1.9986
  190SLPC    HY21944   2.951   6.640   6.530  1.1906  0.3026  2.1367
  190SLPC   O3121945   2.860   6.622   6.730 -0.2512 -0.5879  0.5547
  190SLPC   C3121946   2.797   6.716   6.796 -0.2741 -0.1226 -0.3588
  190SLPC   O3221947   2.714   6.795   6.747  0.5786  0.9148  0.2859
  190SLPC   C3221948   2.819   6.702   6.946 -0.0623  0.0174  0.0929
  190SLPC   H2X21949   2.928   6.686   6.962 -0.1452 -0.1251  0.5236
  190SLPC   H2Y21950   2.758   6.612   6.967 -0.4377  0.5413  1.3350
  190SLPC   C2321951   2.411   6.519   6.787  0.0604  1.0502 -0.7338
  190SLPC   H3R21952   2.304   6.530   6.760 -0.7398 -2.0807  0.6282
  190SLPC   H3S21953   2.466   6.615   6.780  1.1187  0.6756  1.6170
  190SLPC   C2421954   2.412   6.453   6.932  0.4588 -0.4571 -0.2985
  190SLPC   H4R21955   2.513   6.463   6.978  0.7024 -2.8817 -0.1776
  190SLPC   H4S21956   2.369   6.351   6.921 -2.2195  0.5148  0.4528
  190SLPC   C2521957   2.317   6.524   7.021 -0.3313  0.8219 -0.7299
  190SLPC   H5R21958   2.213   6.494   6.995 -0.5467  1.9205 -1.1945
  190SLPC   H5S21959   2.330   6.633   7.001  1.0736  0.6666 -0.7539
  190SLPC   C2621960   2.358   6.498   7.174  0.6190  0.5669  0.8905
  190SLPC   H6R21961   2.459   6.541   7.185 -0.3932  2.9151  1.6584
  190SLPC   H6S21962   2.369   6.391   7.201  0.1473  0.1389 -0.5014
  190SLPC   C2721963   2.271   6.571   7.273  0.1254 -0.2698  0.1720
  190SLPC   H7R21964   2.288   6.531   7.375  1.7551 -2.6045 -0.9143
  190SLPC   H7S21965   2.165   6.555   7.242  0.7945 -2.0659 -1.3488
  190SLPC   C2821966   2.292   6.723   7.290  0.8200  0.0860 -0.6452
  190SLPC   H8R21967   2.210   6.762   7.354  1.7166  0.2734  0.4199
  190SLPC   H8S21968   2.279   6.768   7.189  1.3136 -0.3736 -0.9211
  190SLPC   C2921969   2.428   6.762   7.350 -0.0780 -0.1235  0.5472
  190SLPC   H9R21970   2.516   6.755   7.285  0.8933 -1.2812  1.9226
  190SLPC  C21021971   2.444   6.810   7.473  0.1125 -0.4921  0.1211
  190SLPC  H10R21972   2.535   6.872   7.487 -1.0038  1.7186 -1.8174
  190SLPC  C21121973   2.329   6.823   7.575 -0.0293  0.6552 -0.8157
  190SLPC  H11R21974   2.235   6.859   7.528 -1.2829 -1.3053  0.0259
  190SLPC  H11S21975   2.365   6.904   7.641  1.3189 -0.9331  0.4684
  190SLPC  C21221976   2.311   6.700   7.660 -0.0727 -0.3633  0.4589
  190SLPC  H12R21977   2.404   6.674   7.712  1.4722  1.5036 -1.2092
  190SLPC  C21321978   2.203   6.619   7.688 -0.3102  0.1333  0.2639
  190SLPC  H13R21979   2.225   6.541   7.762 -0.1840 -0.1108 -0.0293
  190SLPC  C21421980   2.057   6.624   7.645  0.0083 -0.8663  0.3093
  190SLPC  H14R21981   2.046   6.690   7.556 -1.4579  0.1512  1.2140
  190SLPC  H14S21982   2.002   6.675   7.727 -0.9655 -0.6115 -0.4851
  190SLPC  C21521983   1.989   6.488   7.613 -0.3425  0.3231  0.1615
  190SLPC  H15R21984   1.999   6.402   7.682  1.6612 -1.4769 -2.1703
  190SLPC  H15S21985   2.035   6.440   7.524 -1.3084 -0.1422 -0.1006
  190SLPC  C21621986   1.840   6.516   7.591 -0.0571 -0.0811  0.3855
  190SLPC  H16R21987   1.795   6.439   7.524  0.0232 -1.5113  1.9240
  190SLPC  H16S21988   1.816   6.620   7.558  0.0105 -0.5723 -1.3343
  190SLPC  C21721989   1.774   6.498   7.729  0.1381  0.3078 -0.1059
  190SLPC  H17R21990   1.823   6.575   7.792 -1.6562  2.9281 -1.6901
  190SLPC  H17S21991   1.799   6.403   7.781 -1.6614  0.2573  0.7521
  190SLPC  C21821992   1.620   6.521   7.729  0.2031  0.8827 -0.2708
  190SLPC  H18R21993   1.571   6.428   7.695 -2.0697  2.6443 -2.2172
  190SLPC  H18S21994   1.579   6.616   7.687  0.1970  0.7714 -0.5122
  190SLPC  H18T21995   1.593   6.530   7.837 -2.6827  0.1101 -0.8481
  190SLPC   C3321996   2.775   6.823   7.028 -0.5331  0.2043 -0.1490
  190SLPC   H3X21997   2.665   6.826   7.017 -0.5306 -2.0231 -1.2009
  190SLPC   H3Y21998   2.827   6.917   6.999  0.5309 -0.3263 -0.0002
  190SLPC   C3421999   2.806   6.817   7.176 -0.6380 -0.0212  0.0435
  190SLPC   H4X22000   2.775   6.714   7.202  0.4786 -0.4854 -0.3686
  190SLPC   H4Y22001   2.730   6.884   7.221 -3.4517 -2.3587 -0.9357
  190SLPC   C3522002   2.947   6.850   7.223  0.1798 -0.0132 -0.0205
  190SLPC   H5X22003   2.992   6.923   7.152 -0.3830  2.4015  1.9491
  190SLPC   H5Y22004   3.010   6.758   7.223 -1.8495 -1.5389  2.8845
  190SLPC   C3622005   2.952   6.915   7.363  0.0315  0.4907 -0.2350
  190SLPC   H6X22006   2.873   6.991   7.375  1.5335  1.8410  1.6151
  190SLPC   H6Y22007   3.040   6.981   7.379  0.1525  0.1064  0.7382
  190SLPC   C3722008   2.957   6.810   7.479 -0.1884  0.5732 -0.5736
  190SLPC   H7X22009   3.041   6.738   7.463 -0.3177  0.9435 -3.4176
  190SLPC   H7Y22010   2.873   6.738   7.479  1.1855 -1.1505  0.9673
  190SLPC   C3822011   2.956   6.874   7.619  0.6752  0.0483 -0.7604
  190SLPC   H8X22012   3.060   6.910   7.639  1.0766 -0.9887 -0.8893
  190SLPC   H8Y22013   2.931   6.790   7.686  4.2325 -0.7480 -0.2359
  190SLPC   C3922014   2.856   6.992   7.642  0.6423 -0.1591 -0.4028
  190SLPC   H9X22015   2.760   6.944   7.617  0.1639  0.4654  0.1982
  190SLPC   H9Y22016   2.884   7.071   7.569  1.3779  0.8516  0.9198
  190SLPC  C31022017   2.850   7.040   7.786 -0.1700  0.1639  0.1419
  190SLPC  H10X22018   2.944   7.087   7.822 -1.6481  3.3773  0.0671
  190SLPC  H10Y22019   2.838   6.946   7.844 -1.7101  0.3120  0.0972
  190SLPC  C31122020   2.731   7.129   7.829 -0.2686 -0.2170  0.0804
  190SLPC  H11X22021   2.641   7.080   7.785  1.1898 -1.5556 -1.5907
  190SLPC  H11Y22022   2.748   7.228   7.783  0.5371 -1.1366 -1.6858
  190SLPC  C31222023   2.710   7.149   7.979  0.2412 -0.4435 -0.0957
  190SLPC  H12X22024   2.803   7.201   8.009  0.4786 -0.4405 -0.8037
  190SLPC  H12Y22025   2.702   7.054   8.036 -0.0960  0.3133  1.1548
  190SLPC  C31322026   2.593   7.233   8.006  0.3598  0.2266  0.3434
  190SLPC  H13X22027   2.506   7.204   7.945 -0.4007 -0.0052  1.5090
  190SLPC  H13Y22028   2.615   7.338   7.977  0.6796 -0.1451 -0.8058
  190SLPC  C31422029   2.543   7.223   8.151 -0.2151  0.3058 -0.1815
  190SLPC  H14X22030   2.453   7.288   8.155 -0.0718  0.7264 -2.6081
  190SLPC  H14Y22031   2.616   7.264   8.225 -0.5945  1.6236 -0.5096
  190SLPC  C31522032   2.496   7.085   8.197 -0.6402  0.7588  0.9471
  190SLPC  H15X22033   2.488   7.080   8.308  1.1414  0.1069  1.0781
  190SLPC  H15Y22034   2.577   7.013   8.175  0.1308  1.8104  0.2413
  190SLPC  C31622035   2.366   7.047   8.118  0.5530  0.1594 -0.3677
  190SLPC  H16X22036   2.328   7.133   8.059  1.1962  1.3107  0.8484
  190SLPC  H16Y22037   2.287   7.029   8.193  0.7094  1.6216  0.1867
  190SLPC  C31722038   2.385   6.929   8.028 -0.7784  0.6050 -0.2980
  190SLPC  H17X22039   2.429   6.848   8.091 -0.2435  0.6571 -0.5987
  190SLPC  H17Y22040   2.454   6.952   7.944  0.5256  0.6595  0.7457
  190SLPC  C31822041   2.249   6.873   7.978  1.1789 -0.3253 -0.3190
  190SLPC  H18X22042   2.174   6.901   8.054  0.6534  0.9113 -1.2467
  190SLPC  H18Y22043   2.258   6.764   7.959 -0.3206 -0.0880 -2.8039
  190SLPC  H18Z22044   2.210   6.920   7.885 -0.5475  0.6328  0.8223
  191SLPC     N22045   2.148   0.920   5.748 -0.1121  0.3330  0.0604
  191SLPC   C1322046   2.182   0.950   5.607  0.4589 -0.0477 -0.4951
  191SLPC  H13A22047   2.105   0.937   5.532 -0.4724  3.8579 -0.4784
  191SLPC  H13B22048   2.201   1.057   5.604 -2.8791  0.6796  0.2340
  191SLPC  H13C22049   2.271   0.899   5.575  1.1694  1.2953 -0.7587
  191SLPC   C1422050   2.274   0.937   5.827 -0.4136  0.1641 -0.7870
  191SLPC  H14A22051   2.296   1.043   5.829 -2.7883  0.7351  1.4457
  191SLPC  H14B22052   2.257   0.920   5.933  2.1644  2.3065  0.0805
  191SLPC  H14C22053   2.357   0.878   5.792  0.0742  0.0123  0.5693
  191SLPC   C1522054   2.097   0.783   5.766 -0.2239 -0.6211  0.7704
  191SLPC  H15A22055   2.023   0.740   5.700  1.3788 -3.9618  0.9022
  191SLPC  H15B22056   2.173   0.706   5.765 -0.6674 -1.1243  2.2094
  191SLPC  H15C22057   2.050   0.781   5.864 -1.0795 -1.0637  0.3621
  191SLPC   C1222058   2.038   1.023   5.789 -0.8103  0.1809  0.3696
  191SLPC  H12A22059   2.020   1.014   5.895  0.0958 -1.7175  0.3923
  191SLPC  H12B22060   1.954   0.992   5.729  0.0246  0.2187 -0.8475
  191SLPC   C1122061   2.055   1.181   5.774  0.3573  0.2431 -0.5294
  191SLPC  H11A22062   1.963   1.224   5.819  0.6493 -1.0605  1.3990
  191SLPC  H11B22063   2.060   1.210   5.666  0.2450  0.3992 -0.4932
  191SLPC     P22064   2.154   1.230   6.003 -0.2421  0.4844 -0.1564
  191SLPC   O1322065   2.249   1.147   6.074 -0.0684  0.3164 -0.1487
  191SLPC   O1422066   2.136   1.370   6.042 -0.3689 -0.4974 -0.8790
  191SLPC   O1222067   2.169   1.236   5.843  0.2169  0.4755 -0.4967
  191SLPC   O1122068   2.018   1.159   6.032 -0.6557 -0.2660  0.6367
  191SLPC    C122069   1.900   1.228   6.048  0.4920 -0.3294 -0.5411
  191SLPC    HA22070   1.900   1.324   5.992 -1.3331  0.8629  1.3533
  191SLPC    HB22071   1.817   1.162   6.016 -1.4678  0.5536  2.3119
  191SLPC    C222072   1.871   1.257   6.200 -0.2664  0.3802 -0.1059
  191SLPC    HS22073   1.957   1.313   6.245  0.0291 -0.7119  0.7198
  191SLPC   O2122074   1.854   1.128   6.277  0.2869 -0.4837  1.0456
  191SLPC   C2122075   1.967   1.079   6.313  0.5222 -0.4251  0.3667
  191SLPC   O2222076   2.073   1.141   6.321  0.6836  0.6661  0.0370
  191SLPC   C2222077   1.950   0.933   6.359  0.1896 -0.5596 -0.2501
  191SLPC   H2R22078   1.897   0.899   6.268  0.9138  4.0644 -2.7399
  191SLPC   H2S22079   2.051   0.887   6.370  0.3719  0.1358  1.2296
  191SLPC    C322080   1.752   1.347   6.208 -0.1874 -0.0416  0.0149
  191SLPC    HX22081   1.668   1.285   6.170 -0.2873 -0.7229  1.2600
  191SLPC    HY22082   1.761   1.436   6.143  1.8070 -0.0909  0.1599
  191SLPC   O3122083   1.719   1.397   6.345  0.0575  0.3501  0.4410
  191SLPC   C3122084   1.809   1.470   6.398 -0.3962  0.2590 -0.7988
  191SLPC   O3222085   1.908   1.517   6.346 -0.0935 -0.0884  0.6640
  191SLPC   C3222086   1.791   1.458   6.554  0.0867 -0.4072  0.0140
  191SLPC   H2X22087   1.753   1.357   6.581  0.4187  0.2176  3.1960
  191SLPC   H2Y22088   1.710   1.525   6.589  1.3879 -0.2047  2.9202
  191SLPC   C2322089   1.873   0.916   6.492  1.0509 -0.3425  0.6988
  191SLPC   H3R22090   1.772   0.948   6.460  1.8804  0.1535 -1.6679
  191SLPC   H3S22091   1.908   0.997   6.559 -0.1099 -1.6471  2.9662
  191SLPC   C2422092   1.881   0.783   6.569  0.3405  0.3060  0.9366
  191SLPC   H4R22093   1.981   0.775   6.618  1.4550 -0.2509 -1.2583
  191SLPC   H4S22094   1.852   0.709   6.491 -0.0114  0.5301  0.8529
  191SLPC   C2522095   1.771   0.770   6.681 -0.3866  0.2609  0.4302
  191SLPC   H5R22096   1.777   0.667   6.722  1.6572  1.0976  2.4449
  191SLPC   H5S22097   1.669   0.786   6.641 -0.3128 -1.9024 -0.7771
  191SLPC   C2622098   1.786   0.855   6.807 -0.2827 -0.5581  1.0646
  191SLPC   H6R22099   1.788   0.962   6.778 -0.0616 -1.0699 -0.9223
  191SLPC   H6S22100   1.890   0.837   6.843  1.3832  1.5457 -2.2511
  191SLPC   C2722101   1.681   0.830   6.918 -0.4968  0.2292 -0.3437
  191SLPC   H7R22102   1.694   0.723   6.944 -0.7582 -0.1411 -1.6662
  191SLPC   H7S22103   1.582   0.846   6.869 -0.3245  1.0509 -0.4257
  191SLPC   C2822104   1.692   0.926   7.042  0.2625  0.1035 -0.3833
  191SLPC   H8R22105   1.694   1.032   7.008 -1.4948  0.1835 -0.3377
  191SLPC   H8S22106   1.787   0.901   7.095 -0.7224 -3.6822 -0.1221
  191SLPC   C2922107   1.585   0.915   7.150  0.4953  0.7424  0.4407
  191SLPC   H9R22108   1.494   0.976   7.134  0.2069 -0.1701 -1.7806
  191SLPC  C21022109   1.587   0.834   7.253  0.4603  0.4451 -0.3329
  191SLPC  H10R22110   1.491   0.825   7.307 -0.8050 -1.4737 -2.6627
  191SLPC  C21122111   1.699   0.734   7.288  0.0692 -0.2230 -0.4455
  191SLPC  H11R22112   1.745   0.777   7.380  1.3241  0.1395 -1.2212
  191SLPC  H11S22113   1.784   0.733   7.216  1.5368 -0.8983  1.2325
  191SLPC  C21222114   1.632   0.598   7.296  0.4258 -0.4810  0.1471
  191SLPC  H12R22115   1.581   0.567   7.204 -0.6909 -1.8146  1.1569
  191SLPC  C21322116   1.632   0.512   7.399  0.0078  0.5927 -0.8981
  191SLPC  H13R22117   1.571   0.421   7.399  0.1507  0.4919  0.0367
  191SLPC  C21422118   1.707   0.532   7.525  0.8299  0.4941  0.1857
  191SLPC  H14R22119   1.802   0.589   7.512  0.5107  1.0889  0.4365
  191SLPC  H14S22120   1.737   0.434   7.569 -0.9842 -0.3986 -0.4621
  191SLPC  C21522121   1.629   0.598   7.639 -0.4057  0.6592 -0.5340
  191SLPC  H15R22122   1.541   0.533   7.659 -1.2675  2.4078  1.7944
  191SLPC  H15S22123   1.590   0.700   7.618  0.8377  1.4365  0.7314
  191SLPC  C21622124   1.710   0.606   7.771 -0.6977 -0.6342  0.2368
  191SLPC  H16R22125   1.766   0.510   7.780 -1.8467 -1.3435  0.0414
  191SLPC  H16S22126   1.632   0.624   7.847 -0.9705 -2.0265  0.3092
  191SLPC  C21722127   1.809   0.718   7.767 -0.3105  0.0249 -0.4464
  191SLPC  H17R22128   1.756   0.815   7.781  0.1665  0.2162  0.0681
  191SLPC  H17S22129   1.852   0.736   7.667 -0.5230  2.6414 -0.1424
  191SLPC  C21822130   1.926   0.693   7.862  0.2663 -0.4054  0.0540
  191SLPC  H18R22131   2.005   0.634   7.811  1.4710  0.8583  0.4158
  191SLPC  H18S22132   1.902   0.634   7.953  1.5029  0.9040  1.2784
  191SLPC  H18T22133   1.959   0.794   7.893  0.7147 -0.9338  1.3980
  191SLPC   C3322134   1.920   1.471   6.633 -0.6457  0.1231 -0.5964
  191SLPC   H3X22135   1.962   1.570   6.604 -1.8496  0.9383  0.3477
  191SLPC   H3Y22136   2.004   1.411   6.591  0.5201  2.0788 -1.2129
  191SLPC   C3422137   1.916   1.474   6.791 -0.8444  0.0162 -0.0376
  191SLPC   H4X22138   1.904   1.366   6.816  0.5767  0.1012  1.1116
  191SLPC   H4Y22139   1.831   1.538   6.823  1.5629  3.6090 -0.2222
  191SLPC   C3522140   2.036   1.533   6.865  0.4378  0.2349  0.1164
  191SLPC   H5X22141   2.061   1.628   6.811 -1.6149 -0.7650 -2.8675
  191SLPC   H5Y22142   2.120   1.461   6.870 -0.9961 -1.5134 -0.0106
  191SLPC   C3622143   2.009   1.577   7.009 -0.3801  0.3054 -0.4714
  191SLPC   H6X22144   2.097   1.563   7.076 -0.6485 -0.3823 -0.2569
  191SLPC   H6Y22145   1.933   1.506   7.047  0.8568 -0.7580  0.0951
  191SLPC   C3722146   1.965   1.728   7.004 -0.5093 -0.2858  0.1901
  191SLPC   H7X22147   1.901   1.770   6.923  0.1570 -0.1061 -0.2568
  191SLPC   H7Y22148   2.070   1.764   6.999 -0.2306 -0.7419  2.0703
  191SLPC   C3822149   1.909   1.775   7.133  0.1826 -0.1774 -0.4849
  191SLPC   H8X22150   1.958   1.866   7.175 -0.6573 -0.0106  0.1678
  191SLPC   H8Y22151   1.940   1.697   7.205 -0.4968 -1.6055 -1.6994
  191SLPC   C3922152   1.758   1.797   7.129  0.6896  0.8815 -0.2307
  191SLPC   H9X22153   1.710   1.705   7.089 -1.6111  1.2020  1.6133
  191SLPC   H9Y22154   1.730   1.883   7.065  0.7611  0.8515 -0.3029
  191SLPC  C31022155   1.708   1.824   7.270  0.2370 -0.3417 -0.4623
  191SLPC  H10X22156   1.756   1.918   7.305 -0.5749  0.6846 -2.0023
  191SLPC  H10Y22157   1.744   1.752   7.347  3.3579  3.9680  2.6711
  191SLPC  C31122158   1.551   1.852   7.286  0.3195  0.0123  1.0890
  191SLPC  H11X22159   1.497   1.758   7.311 -0.0880 -1.5280 -4.3307
  191SLPC  H11Y22160   1.525   1.881   7.182  1.1558  0.1810  0.9138
  191SLPC  C31222161   1.525   1.970   7.384  0.0150  0.0891 -0.4382
  191SLPC  H12X22162   1.414   1.978   7.394 -0.0516 -0.9911 -0.2468
  191SLPC  H12Y22163   1.563   2.061   7.332  1.8839  0.0957  0.8394
  191SLPC  C31322164   1.580   1.942   7.525 -0.1166 -0.5096 -0.4366
  191SLPC  H13X22165   1.691   1.941   7.528 -0.0186  2.3815 -0.2323
  191SLPC  H13Y22166   1.545   1.840   7.551  1.3851 -1.3543 -1.5745
  191SLPC  C31422167   1.538   2.046   7.637 -0.5449 -0.3625  0.1056
  191SLPC  H14X22168   1.429   2.064   7.623 -0.3267  0.6752 -0.3788
  191SLPC  H14Y22169   1.595   2.141   7.632 -1.6059  0.3190  0.5597
  191SLPC  C31522170   1.565   1.997   7.779 -0.6057 -0.2423 -0.2274
  191SLPC  H15X22171   1.671   1.982   7.809 -0.5110  0.3835 -0.2443
  191SLPC  H15Y22172   1.504   1.907   7.802 -1.3421 -0.1296 -1.6774
  191SLPC  C31622173   1.511   2.096   7.878  0.2105 -0.1991  0.1978
  191SLPC  H16X22174   1.400   2.100   7.875  0.0081 -2.7842  1.2091
  191SLPC  H16Y22175   1.557   2.193   7.852 -0.8323  0.3486  0.3537
  191SLPC  C31722176   1.541   2.067   8.025 -0.2851  0.5299 -0.3395
  191SLPC  H17X22177   1.497   1.966   8.042 -2.0364  1.6207  2.2323
  191SLPC  H17Y22178   1.477   2.144   8.074  0.1534  1.0357 -0.5563
  191SLPC  C31822179   1.689   2.089   8.075  0.3845  0.1550  0.2041
  191SLPC  H18X22180   1.699   2.100   8.185  0.9619  0.2877  0.1426
  191SLPC  H18Y22181   1.726   2.185   8.031 -1.1984  0.5239 -0.4098
  191SLPC  H18Z22182   1.746   2.000   8.043  0.7227  1.6176 -3.9105
  192SLPC     N22183   3.140   3.254   6.073 -0.1413  0.2374 -0.4304
  192SLPC   C1322184   3.202   3.133   6.007 -0.0107  0.1106 -0.1230
  192SLPC  H13A22185   3.129   3.055   5.997  0.3804 -0.0781 -1.7531
  192SLPC  H13B22186   3.256   3.163   5.919 -1.7420  0.0203 -1.2498
  192SLPC  H13C22187   3.278   3.095   6.074  0.4145 -1.5979 -1.5186
  192SLPC   C1422188   3.009   3.285   5.999  0.4048 -0.1030  0.5225
  192SLPC  H14A22189   2.970   3.376   6.042 -1.1342  1.7474 -4.1911
  192SLPC  H14B22190   3.038   3.319   5.901  0.7676  2.0755  1.3310
  192SLPC  H14C22191   2.929   3.213   5.997 -1.3218  1.7325  0.2993
  192SLPC   C1522192   3.232   3.370   6.039 -0.4251 -0.5518 -0.8591
  192SLPC  H15A22193   3.223   3.395   5.935 -2.3133  4.1943  0.2134
  192SLPC  H15B22194   3.196   3.455   6.094 -0.4079 -0.1017 -1.5327
  192SLPC  H15C22195   3.338   3.352   6.052 -0.1675 -0.1043 -2.1452
  192SLPC   C1222196   3.109   3.238   6.215 -0.5775 -0.7032 -0.3662
  192SLPC  H12A22197   3.036   3.161   6.237 -1.7889  0.9013  1.7225
  192SLPC  H12B22198   3.059   3.325   6.256 -1.9308 -1.8074  0.4196
  192SLPC   C1122199   3.227   3.208   6.307  0.3474  0.5009 -0.1760
  192SLPC  H11A22200   3.205   3.220   6.416  0.8607  1.6666 -0.1846
  192SLPC  H11B22201   3.301   3.289   6.293  0.9874  0.4595  2.4667
  192SLPC     P22202   3.247   2.941   6.345 -0.3636 -0.4499 -0.4784
  192SLPC   O1322203   3.121   2.899   6.279 -0.5676  0.4915 -0.2268
  192SLPC   O1422204   3.363   2.858   6.313  0.6609 -0.8405 -0.1605
  192SLPC   O1222205   3.279   3.082   6.287 -0.6561  0.1043 -0.3607
  192SLPC   O1122206   3.217   2.970   6.498 -0.2566 -0.2393 -0.0781
  192SLPC    C122207   3.082   2.980   6.543 -0.1875  0.3052  0.3136
  192SLPC    HA22208   3.022   3.058   6.493 -0.9304 -0.8930 -0.7246
  192SLPC    HB22209   3.019   2.890   6.530 -0.5654  0.3590  1.6329
  192SLPC    C222210   3.075   3.013   6.692  0.2927 -1.3861  0.2065
  192SLPC    HS22211   2.967   3.024   6.714 -0.0615 -0.8606 -1.6655
  192SLPC   O2122212   3.147   3.130   6.719  0.8729 -0.2868 -0.3848
  192SLPC   C2122213   3.102   3.248   6.678  0.5199  0.6083  0.3710
  192SLPC   O2222214   2.995   3.267   6.619  0.1854  0.1808  0.0264
  192SLPC   C2222215   3.201   3.353   6.692 -0.1792 -0.1269  0.3514
  192SLPC   H2R22216   3.289   3.335   6.627 -1.0335  0.6250 -1.0505
  192SLPC   H2S22217   3.160   3.442   6.640  2.9193  1.4691  0.3965
  192SLPC    C322218   3.114   2.893   6.773 -0.5814  0.1817  0.0294
  192SLPC    HX22219   3.114   2.908   6.883 -3.4645  2.0674 -0.1377
  192SLPC    HY22220   3.222   2.875   6.750 -0.6933  0.9989 -1.2371
  192SLPC   O3122221   3.032   2.782   6.737  0.0995  0.5938 -0.1485
  192SLPC   C3122222   2.921   2.768   6.813 -0.0441 -0.1523  0.0734
  192SLPC   O3222223   2.886   2.841   6.904 -0.2971  0.1403  0.0449
  192SLPC   C3222224   2.853   2.641   6.767  0.0604  0.0381 -0.1944
  192SLPC   H2X22225   2.930   2.594   6.702  0.2173 -0.2490  0.1984
  192SLPC   H2Y22226   2.769   2.665   6.698  0.6627 -0.7548 -1.2295
  192SLPC   C2322227   3.241   3.392   6.837 -0.2304  0.2190  0.1283
  192SLPC   H3R22228   3.315   3.321   6.879 -1.8932 -2.3413 -1.0688
  192SLPC   H3S22229   3.151   3.398   6.901  0.9471  0.6609  1.8016
  192SLPC   C2422230   3.300   3.536   6.836 -0.3621  0.1599  0.4664
  192SLPC   H4R22231   3.225   3.607   6.795  1.2883  1.8013  0.1450
  192SLPC   H4S22232   3.391   3.528   6.773 -0.9365  0.1178 -0.3693
  192SLPC   C2522233   3.347   3.595   6.973  0.3743 -0.0893 -0.9027
  192SLPC   H5R22234   3.363   3.704   6.955 -2.9918  0.4533 -1.1439
  192SLPC   H5S22235   3.440   3.553   7.019  0.1358  0.2188 -0.1143
  192SLPC   C2622236   3.232   3.616   7.074 -0.1912  0.0201  0.1580
  192SLPC   H6R22237   3.211   3.517   7.121 -1.5465 -0.1169 -0.6980
  192SLPC   H6S22238   3.143   3.651   7.019  0.7266  1.3818 -0.4852
  192SLPC   C2722239   3.261   3.707   7.201  0.1117  0.2826  0.0238
  192SLPC   H7R22240   3.266   3.815   7.174  0.5305  0.0642 -0.8271
  192SLPC   H7S22241   3.363   3.677   7.234  0.1351  1.3403  0.9696
  192SLPC   C2822242   3.166   3.691   7.315 -0.8747 -0.2386 -0.4338
  192SLPC   H8R22243   3.172   3.584   7.345  1.0571  0.0330  0.3248
  192SLPC   H8S22244   3.067   3.711   7.270  0.1346  2.1811 -1.8107
  192SLPC   C2922245   3.188   3.773   7.440  0.3523 -0.4369  0.2933
  192SLPC   H9R22246   3.134   3.868   7.432 -0.2614 -0.7627  0.4607
  192SLPC  C21022247   3.257   3.727   7.547  0.0149 -0.3001 -0.1125
  192SLPC  H10R22248   3.265   3.788   7.639 -2.3160 -0.5941  0.3295
  192SLPC  C21122249   3.322   3.597   7.561 -0.7862 -0.4657 -0.0257
  192SLPC  H11R22250   3.393   3.595   7.476  0.4031  0.3235  0.9213
  192SLPC  H11S22251   3.242   3.523   7.541 -1.2012  0.2972 -1.3225
  192SLPC  C21222252   3.409   3.569   7.680 -0.3625 -1.0509 -0.7491
  192SLPC  H12R22253   3.467   3.654   7.720 -0.0597 -0.6805 -1.9435
  192SLPC  C21322254   3.414   3.457   7.753 -0.3545  0.0494 -0.4617
  192SLPC  H13R22255   3.487   3.441   7.833  0.2345 -2.1983 -1.3649
  192SLPC  C21422256   3.331   3.325   7.737  0.2926 -0.6635  0.1129
  192SLPC  H14R22257   3.383   3.247   7.677 -1.9396 -0.9265 -1.6186
  192SLPC  H14S22258   3.234   3.341   7.687  0.2935  1.6079  0.7470
  192SLPC  C21522259   3.296   3.276   7.879 -0.5989  0.9755  0.3418
  192SLPC  H15R22260   3.382   3.259   7.947 -1.2849  1.7604  1.4416
  192SLPC  H15S22261   3.240   3.181   7.876  1.0031 -0.0768  2.0128
  192SLPC  C21622262   3.207   3.372   7.958  0.6304 -0.1348 -0.3891
  192SLPC  H16R22263   3.119   3.411   7.903  0.2199  1.1522  1.1009
  192SLPC  H16S22264   3.269   3.460   7.987  1.4281 -0.8295  0.0475
  192SLPC  C21722265   3.149   3.315   8.095 -0.0646  0.5542 -0.2805
  192SLPC  H17R22266   3.096   3.220   8.071 -0.6992  0.9498 -0.4694
  192SLPC  H17S22267   3.234   3.299   8.165  1.7236  1.2070 -2.1770
  192SLPC  C21822268   3.049   3.417   8.165 -0.8569  0.1697  0.0649
  192SLPC  H18R22269   3.081   3.520   8.141 -1.2361 -0.0366 -1.4511
  192SLPC  H18S22270   3.041   3.399   8.274 -0.1401 -1.3461 -0.1084
  192SLPC  H18T22271   2.947   3.416   8.119 -0.1948  1.0575 -1.5259
  192SLPC   C3322272   2.825   2.541   6.882 -0.7349 -0.8432  0.5779
  192SLPC   H3X22273   2.916   2.497   6.928 -1.0933  0.8404  3.1057
  192SLPC   H3Y22274   2.760   2.459   6.846  0.1158 -1.5485  0.6061
  192SLPC   C3422275   2.746   2.607   7.000 -0.2404 -0.1569  0.0896
  192SLPC   H4X22276   2.652   2.642   6.952 -0.5364 -0.6248  0.3238
  192SLPC   H4Y22277   2.794   2.695   7.049  1.8851 -0.7213 -0.8693
  192SLPC   C3522278   2.694   2.513   7.109 -0.3808 -0.2723 -0.1316
  192SLPC   H5X22279   2.789   2.482   7.156 -0.2197  1.4192  0.7621
  192SLPC   H5Y22280   2.647   2.426   7.059 -0.7570 -0.4891  0.5876
  192SLPC   C3622281   2.594   2.574   7.204 -0.0442  0.0010 -0.5336
  192SLPC   H6X22282   2.510   2.628   7.156 -0.2114  2.7582  2.5493
  192SLPC   H6Y22283   2.629   2.654   7.273 -1.9365  1.4732 -1.1822
  192SLPC   C3722284   2.544   2.468   7.306  0.0715  0.6248 -0.0949
  192SLPC   H7X22285   2.626   2.414   7.358  1.0943 -0.5876 -2.7860
  192SLPC   H7Y22286   2.475   2.392   7.265 -1.5899  2.9681 -1.9582
  192SLPC   C3822287   2.459   2.540   7.414 -0.3005 -0.1306 -0.2946
  192SLPC   H8X22288   2.386   2.476   7.467 -1.7311  1.1138 -0.6590
  192SLPC   H8Y22289   2.390   2.612   7.365 -0.9847 -1.7191 -1.7475
  192SLPC   C3922290   2.532   2.613   7.527 -0.9994  0.8068 -0.4624
  192SLPC   H9X22291   2.598   2.698   7.498 -0.3348  0.5769  0.3149
  192SLPC   H9Y22292   2.601   2.538   7.572 -0.0531 -0.2102 -3.4235
  192SLPC  C31022293   2.443   2.657   7.644  0.0284 -0.1615 -0.1641
  192SLPC  H10X22294   2.394   2.575   7.701 -0.0458  1.0255  1.5779
  192SLPC  H10Y22295   2.353   2.696   7.592 -1.9156 -0.8959  2.4309
  192SLPC  C31122296   2.518   2.740   7.742 -0.2287  0.5424 -0.1797
  192SLPC  H11X22297   2.498   2.844   7.710  0.5849  0.2542 -1.6792
  192SLPC  H11Y22298   2.626   2.726   7.725  0.0299 -1.5374  2.3760
  192SLPC  C31222299   2.481   2.723   7.889 -0.8135  0.2893 -0.3309
  192SLPC  H12X22300   2.439   2.621   7.906  2.0980 -0.9456  0.0386
  192SLPC  H12Y22301   2.406   2.802   7.909 -1.1564  1.0239 -3.7435
  192SLPC  C31322302   2.603   2.752   7.974  0.5807 -0.7175  0.1174
  192SLPC  H13X22303   2.664   2.836   7.934 -1.1445  0.3244 -0.4262
  192SLPC  H13Y22304   2.656   2.655   7.991  1.8322  0.3059  2.6437
  192SLPC  C31422305   2.552   2.799   8.113 -0.4771 -0.6780  0.5716
  192SLPC  H14X22306   2.485   2.884   8.087 -0.3571 -0.4170  1.1052
  192SLPC  H14Y22307   2.629   2.842   8.181  1.6188 -1.1290 -1.3970
  192SLPC  C31522308   2.478   2.684   8.180 -0.0770  0.2474  0.2227
  192SLPC  H15X22309   2.557   2.611   8.207  1.2513  1.2543 -0.7680
  192SLPC  H15Y22310   2.397   2.628   8.128 -0.2664 -0.6984  1.4746
  192SLPC  C31622311   2.410   2.734   8.312  0.1563  0.1957  0.0309
  192SLPC  H16X22312   2.327   2.800   8.278  0.2496  0.6855  0.7369
  192SLPC  H16Y22313   2.478   2.800   8.370 -1.1870  2.6096 -0.9863
  192SLPC  C31722314   2.335   2.630   8.394  0.0411  0.3496 -0.0922
  192SLPC  H17X22315   2.415   2.560   8.426 -0.7325  1.1260  4.0505
  192SLPC  H17Y22316   2.263   2.589   8.320 -1.7160  2.4840  0.3204
  192SLPC  C31822317   2.259   2.688   8.514 -0.1560 -0.3549 -0.6325
  192SLPC  H18X22318   2.190   2.770   8.484  1.5809  0.8474 -1.5098
  192SLPC  H18Y22319   2.332   2.737   8.582 -1.5483  1.1994 -0.1794
  192SLPC  H18Z22320   2.206   2.609   8.570 -1.1578 -0.2506 -1.4014
  193SOD    SOD22321   6.102   2.595   6.290 -0.3546  0.0094 -0.0331
  194SOD    SOD22322   5.303   1.706  13.656  0.4512 -0.1164  0.4920
  195SOD    SOD22323   6.735   3.122   6.052  0.1444 -0.1457 -0.2649
  196SOD    SOD22324   1.911   5.539   3.220 -0.1067  0.0343 -0.4945
  197SOD    SOD22325   4.661   6.634   4.773 -0.0515  0.2364 -0.5553
  198SOD    SOD22326   0.229   2.302  12.132  0.7719  0.0431 -0.2443
  199SOD    SOD22327   5.143   2.072   0.935 -0.5777  0.8317  0.2208
  200SOD    SOD22328   1.024   2.269  15.979 -0.0239  0.2983 -0.0404
  201SOD    SOD22329   0.185   6.203   5.815 -0.2934 -0.1225 -0.4572
  202SOD    SOD22330   6.237   0.981   6.093 -0.2091 -0.1814 -0.1213
  203SOD    SOD22331   2.768   5.671  16.520  0.2490 -0.2081  0.3493
  204SOD    SOD22332   6.783   0.068  16.848 -0.4199 -0.1532 -0.1435
  205SOD    SOD22333   4.349   2.646  16.280  0.2263 -0.1349 -0.1612
  206SOD    SOD22334   3.033   4.398  11.423 -0.3593  0.7825  0.0861
  207SOD    SOD22335   4.301   3.534  11.874 -0.2602 -0.2299 -0.1236
  208SOD    SOD22336   3.338   3.452  11.073  0.1285 -0.3301  0.6539
  209SOD    SOD22337   5.308   6.316   6.709  0.2086  0.0537 -0.4321
  210SOD    SOD22338   3.302   3.328  11.922  0.2017  0.0234 -0.7639
  211SOD    SOD22339   4.948   5.575  17.160 -0.4619 -0.3339  0.5477
  212SOD    SOD22340   2.883   4.122   1.867  0.2205  0.1787  0.1318
  213SOD    SOD22341   1.535   1.630   5.632  0.1633  0.3813  0.7370
  214SOD    SOD22342   3.648   0.413   0.785 -0.1300 -0.4726 -0.1220
  215SOD    SOD22343   1.678   5.461  14.621 -0.2399  0.3862 -0.0100
  216SOD    SOD22344   1.758   1.928   5.185 -0.1649  0.1839  0.0100
  217SOD    SOD22345   6.628   3.546  10.436 -0.4413  0.0956  0.2733
  218SOD    SOD22346   2.755   3.101   3.275 -0.0625 -0.3727  0.0037
  219SOD    SOD22347   4.357   6.811   1.114 -0.1736  0.3371  0.0172
  220SOD    SOD22348   5.181   3.664   5.258  0.5546 -0.3357  0.0480
  221SOD    SOD22349   5.799   1.257  12.451  0.3419 -0.2800 -0.3110
  222SOD    SOD22350   0.811   6.345   2.299  0.1190  0.0777 -0.6250
  223SOD    SOD22351   6.367   3.330  10.957  0.0098 -0.4376 -0.8296
  224SOD    SOD22352   5.388   2.210  14.488  0.5392  0.4745  0.2629
  225SOD    SOD22353   1.419   3.929   6.488  0.4452 -0.2151 -0.0120
  226SOD    SOD22354   5.418   5.421   3.388 -0.4611  0.4539 -0.2317
  227SOD    SOD22355   0.281   6.173   2.559  0.3368 -0.3448 -0.2941
  228SOD    SOD22356   6.675   1.023  11.208 -0.0851  0.0741  0.2099
  229SOD    SOD22357   4.067   1.593  12.196  0.0356  0.0505  0.1438
  230SOD    SOD22358   6.560   4.509   3.792  0.2832  0.3305  0.4859
  231SOD    SOD22359   0.598   4.171  15.312  0.4546 -0.2609 -0.2370
  232SOD    SOD22360   2.608   1.484  11.959  0.4808  0.2266 -0.4867
  233SOD    SOD22361   5.351   0.436   3.575 -0.2644 -0.2931 -0.5915
  234SOD    SOD22362   4.401   5.689  11.980  0.0115  0.4060  0.0576
  235SOD    SOD22363   6.731   0.067   5.870 -0.0987  0.0387 -0.0512
  236SOD    SOD22364   4.765   6.442   0.544  0.3841  0.5779  0.1577
  237SOD    SOD22365   3.619   6.010   5.235  0.7508  0.0255 -0.0572
  238SOD    SOD22366   3.841   1.272   3.824 -0.2965 -0.1920 -0.7103
  239SOD    SOD22367   4.935   2.027   3.313  0.0919 -0.1196  0.5000
  240SOD    SOD22368   1.611   2.012  10.546  0.0479  0.6299 -0.2236
  241SOD    SOD22369   5.870   0.068   1.250  0.0434  0.2142  0.1122
  242SOD    SOD22370   5.559   3.490  11.122  0.0452 -0.5140 -0.3300
  243SOD    SOD22371   5.091   1.221  15.275  0.3418 -0.0846  0.4803
  244SOD    SOD22372   6.180   3.227   2.281  0.1164  0.4129  0.3765
  245SOD    SOD22373   1.922   2.137  12.618  0.0380  0.2963  1.0675
  246SOD    SOD22374   4.869   2.594   6.273  0.4934  0.5878  0.1580
  247SOD    SOD22375   0.890   3.333   4.656  0.5441 -0.2094 -0.3166
  248SOD    SOD22376   2.596   1.612  14.458  0.4034 -0.4510 -0.1080
  249SOD    SOD22377   1.359   1.620   4.307 -0.0311 -0.4227  0.5097
  250SOD    SOD22378   0.604   5.556  11.260 -0.2765 -0.1608  0.1383
  251SOD    SOD22379   1.554   5.439   3.625 -0.4790 -0.8147 -0.6712
  252SOD    SOD22380   1.420   1.822  16.023 -0.2930  0.1846 -0.1808
  253SOD    SOD22381   4.321   3.937  14.696 -0.4978 -0.1610 -0.3223
  254SOD    SOD22382   6.708   0.225  12.496 -0.2912  0.4225 -0.2380
  255SOD    SOD22383   0.713   5.938   3.662 -0.3641 -0.0655  0.1335
  256SOD    SOD22384   1.011   4.074  16.571 -0.0601 -0.0898  0.0532
  257SOD    SOD22385   5.019   3.853  16.074 -0.3914 -0.3603 -0.4848
  258SOD    SOD22386   3.268   3.410   3.252  0.1237  0.0686 -0.1243
  259SOD    SOD22387   2.776   1.448  13.641 -0.2826  0.5582 -0.2850
  260SOD    SOD22388   5.336   2.129   2.048  0.2368 -0.0610  0.3365
  261SOD    SOD22389   3.948   3.898   1.785  0.2523  0.0833 -0.1442
  262SOD    SOD22390   2.393   0.081   1.006  0.3159  0.8794  0.6830
  263SOD    SOD22391   1.337   5.185   5.862  0.4425  0.1516  0.1068
  264SOD    SOD22392   2.979   5.871  11.457  0.2311 -0.1343  0.2272
  265SOD    SOD22393   3.777   0.862  12.128 -0.3124 -0.4099 -0.3888
  266CLA    CLA22394   4.007   4.423   0.984 -0.2789  0.1724  0.0439
  267CLA    CLA22395   2.784   1.480  12.151 -0.2715 -0.3791 -0.3175
  268CLA    CLA22396   6.081   0.179   1.365  0.3760 -0.1816 -0.3457
  269CLA    CLA22397   3.410   1.451  15.647  0.2377  0.2585 -0.1671
  270CLA    CLA22398   6.524   0.113  16.918  0.1222  0.4772 -0.2867
  271CLA    CLA22399   1.413   3.065  17.046 -0.4829  0.2311  0.0136
  272CLA    CLA22400   1.490   1.759   2.715  0.3651 -0.5791 -0.2073
  273CLA    CLA22401   3.540   4.649   3.617 -0.1841  0.2696  0.4297
  274CLA    CLA22402   5.135   1.107   3.468 -0.1306  0.1163  0.1767
  275CLA    CLA22403   2.301   3.011  16.671  0.0855 -0.6949 -0.1698
  276CLA    CLA22404   3.502   5.851   3.620  0.1379  0.1338  0.3060
  277CLA    CLA22405   5.821   1.552  15.252  0.0166  0.1274 -0.3540
  278CLA    CLA22406   4.647   0.841   2.563 -0.2057 -0.3363 -0.2104
  279CLA    CLA22407   6.070   0.868  13.946 -0.0911 -0.2050 -0.3187
  280CLA    CLA22408   2.565   0.252   0.910 -0.1072  0.0808 -0.1279
  281CLA    CLA22409   0.543   3.978  15.151  0.1050  0.6243 -0.0674
  282CLA    CLA22410   1.594   5.964  12.646  0.3385  0.1076  0.3122
  283CLA    CLA22411   5.596   6.145   1.702 -0.1349 -0.1609 -0.2494
  284CLA    CLA22412   5.297   3.010   4.849  0.1977 -0.0717 -0.5366
  285CLA    CLA22413   4.222   4.542  15.842 -0.0075  0.0996  0.2976
  286CLA    CLA22414   4.076   4.247  11.394 -0.4478 -0.5550  0.1751
  287CLA    CLA22415   1.472   0.816  14.840 -0.0400  0.6415 -0.1115
  288CLA    CLA22416   0.210   0.694  16.801  0.3127  0.1700  0.2437
  289CLA    CLA22417   3.870   2.671   1.239 -0.3390 -0.3658 -0.1739
  290CLA    CLA22418   0.231   6.554  11.226  0.1310  0.4494  0.2416
  291CLA    CLA22419   4.277   4.752   0.016 -0.4269  0.2776 -0.3141
  292CLA    CLA22420   4.021   2.558   0.012 -0.1975 -0.1376  0.2146
  293CLA    CLA22421   0.907   6.060  13.840 -0.1494 -0.2595  0.5670
  294CLA    CLA22422   1.058   5.273   3.477  0.3834  0.3338  0.1464
  295CLA    CLA22423   3.277   1.582  13.602  0.2136 -0.3800 -0.2209
  296CLA    CLA22424   5.395   0.177  12.606 -0.2074  0.3784  0.4052
  297CLA    CLA22425   1.097   0.413   3.076  0.1001  0.1402  0.4127
  298CLA    CLA22426   5.519   6.111   4.000 -0.2612 -0.0741 -0.1354
  299CLA    CLA22427   6.178   4.402   1.548 -1.0692  0.1178  0.0848
  300CLA    CLA22428   4.546   1.394   5.329  0.0383 -0.0705  0.2428
  301CLA    CLA22429   5.727   3.938  16.949  0.0977  0.2683  0.2868
  302CLA    CLA22430   5.178   2.428   0.524  0.3994 -0.0240  0.0196
  303CLA    CLA22431   5.637   1.536   3.005  0.1946 -0.3177 -0.0136
  304CLA    CLA22432   4.917   2.026  12.468  0.3017  0.1728 -0.2013
  305CLA    CLA22433   3.801   5.956   4.645 -0.0666 -0.1368  0.0192
  306CLA    CLA22434   1.667   4.149   2.064 -0.2467  0.2996  0.2919
  307CLA    CLA22435   5.450   6.273   0.484  0.4044  0.4042 -0.1708
  308CLA    CLA22436   0.067   3.039  13.317 -0.4130 -0.6020 -0.1811
  309CLA    CLA22437   4.042   3.954  14.682  0.0356 -0.0638  0.1539
  310CLA    CLA22438   5.929   2.145  12.151  0.4677  0.0611 -0.0085
  311CLA    CLA22439   2.723   3.136   5.808  0.3988 -0.2452  0.1667
  312CLA    CLA22440   2.847   4.553   4.146  0.0592 -0.0523  0.3460
  313CLA    CLA22441   6.310   5.219  15.675  0.1541  0.1792 -0.1270
  314CLA    CLA22442   2.509   3.742   0.723  0.2580  0.3977  0.0020
  315CLA    CLA22443   3.185   0.544   4.934 -0.1143  0.3890  0.2154
  316CLA    CLA22444   4.078   5.441   1.139  0.0685  0.0628 -0.0552
  317CLA    CLA22445   1.806   0.379  16.709  0.3843  0.1767 -0.4645
  318CLA    CLA22446   5.203   0.838   1.257 -0.0629  0.2228  0.2843
  319TIP3   OH222447   1.523   4.240   4.063 -0.1707  0.6265 -0.2555
  319TIP3    H122448   1.492   4.225   4.153 -0.0249 -0.9964 -0.4365
  319TIP3    H222449   1.610   4.199   4.062 -0.0022  1.0047 -1.0264
  320TIP3   OH222450   5.619   0.070  11.439 -0.4586 -0.2022  0.0176
  320TIP3    H122451   5.651   0.152  11.477  1.6138 -0.9487  0.0463
  320TIP3    H222452   5.524   0.072  11.453 -0.0774  0.5246  3.3817
  321TIP3   OH222453   5.773   2.617   0.377 -0.0994 -0.0084  0.5977
  321TIP3    H122454   5.829   2.541   0.393 -1.4249 -0.8825  1.2488
  321TIP3    H222455   5.724   2.628   0.458 -1.0443  0.5903 -0.0371
  322TIP3   OH222456   0.530   0.941   2.234 -0.5029 -0.1385 -0.6136
  322TIP3    H122457   0.523   1.018   2.178  2.4532  1.1489  0.5477
  322TIP3    H222458   0.572   0.875   2.179 -0.2749  0.1271 -0.7642
  323TIP3   OH222459   4.890   2.091  14.686 -0.0218 -0.4374 -0.0639
  323TIP3    H122460   4.952   2.074  14.756  2.9008  0.3190 -2.2591
  323TIP3    H222461   4.902   2.018  14.625 -0.6995  0.1400 -0.9175
  324TIP3   OH222462   6.807   4.589   5.544  0.4512  0.5352 -0.3890
  324TIP3    H122463   6.831   4.681   5.550 -1.8717  1.0978  2.0095
  324TIP3    H222464   6.722   4.589   5.499 -0.3692 -0.2177  1.0901
  325TIP3   OH222465   0.786   4.184   3.332  0.2881 -0.1651  0.6357
  325TIP3    H122466   0.835   4.264   3.349  2.2269 -0.9785 -0.6313
  325TIP3    H222467   0.853   4.115   3.331 -1.1514 -1.6327  0.5816
  326TIP3   OH222468   3.288   2.967   1.366 -0.1811  0.5102  0.2364
  326TIP3    H122469   3.368   3.018   1.375  0.7875 -0.9241  0.0429
  326TIP3    H222470   3.296   2.924   1.281 -0.9850  0.0543  0.3779
  327TIP3   OH222471   6.048   0.234  14.031 -0.1125  0.2414 -0.1390
  327TIP3    H122472   6.091   0.258  13.948 -0.5579 -1.5800 -0.9504
  327TIP3    H222473   5.959   0.266  14.021  0.8873  4.1627  1.6072
  328TIP3   OH222474   0.582   4.442   6.598 -0.2937  0.4407  0.3041
  328TIP3    H122475   0.538   4.368   6.641  0.1527 -1.7667 -2.7114
  328TIP3    H222476   0.674   4.431   6.623 -0.3587  0.5452  0.5961
  329TIP3   OH222477   3.260   1.359   4.941 -0.1046 -0.1837 -0.0263
  329TIP3    H122478   3.316   1.292   4.980  2.8336  1.9887 -0.2327
  329TIP3    H222479   3.258   1.430   5.004 -0.9636  0.6411 -0.9344
  330TIP3   OH222480   0.598   3.900  16.483 -0.3736  1.2533 -0.5437
  330TIP3    H122481   0.533   3.944  16.429 -0.4492  0.0695 -1.4430
  330TIP3    H222482   0.556   3.891  16.569 -0.4552  2.6473 -0.4085
  331TIP3   OH222483   4.562   3.624  13.331  0.2699  0.0910 -0.3007
  331TIP3    H122484   4.494   3.628  13.399 -1.3047 -0.3783 -1.7858
  331TIP3    H222485   4.549   3.538  13.290  0.6301  0.7092 -1.7536
  332TIP3   OH222486   3.688   0.635  15.605 -0.3951  0.2387  0.1334
  332TIP3    H122487   3.646   0.555  15.636  0.1482  0.5305  1.7167
  332TIP3    H222488   3.779   0.611  15.590 -0.2383  0.5307  0.5750
  333TIP3   OH222489   0.183   6.276  15.679  0.6861 -0.4952  0.0693
  333TIP3    H122490   0.159   6.342  15.744  0.2053 -0.2642 -0.3364
  333TIP3    H222491   0.268   6.306  15.644  0.2925  0.1191 -0.3835
  334TIP3   OH222492   2.194   6.612   3.737  0.5071 -0.4943  0.1964
  334TIP3    H122493   2.210   6.657   3.654  1.0980 -0.1929  0.4720
  334TIP3    H222494   2.105   6.578   3.728 -0.8240  2.4589  0.7462
  335TIP3   OH222495   2.106   1.404   5.213 -0.3203  0.5091  0.2532
  335TIP3    H122496   2.095   1.433   5.304 -0.8079  0.2714  0.2705
  335TIP3    H222497   2.029   1.349   5.195  1.0255 -1.5453  0.4999
  336TIP3   OH222498   2.186   0.207  14.086  0.2126 -0.3535 -0.0558
  336TIP3    H122499   2.209   0.120  14.053  1.3000  0.5564 -1.8281
  336TIP3    H222500   2.257   0.264  14.056 -1.9394  1.7218 -1.6157
  337TIP3   OH222501   0.524   2.636  12.349 -0.1232 -0.5951  0.2104
  337TIP3    H122502   0.574   2.654  12.269 -1.4004 -1.0454 -0.7239
  337TIP3    H222503   0.541   2.712  12.405  0.6056 -0.1512 -0.5889
  338TIP3   OH222504   0.746   1.703   3.728  0.3127  0.0312 -0.1257
  338TIP3    H122505   0.651   1.704   3.718  0.3275 -1.9867 -1.0375
  338TIP3    H222506   0.768   1.611   3.739  2.2756  0.3216 -1.1494
  339TIP3   OH222507   3.155   1.629   1.241  0.4776  0.2421  0.1031
  339TIP3    H122508   3.097   1.571   1.193  0.8675  0.9496 -1.2683
  339TIP3    H222509   3.227   1.574   1.271  0.1961 -0.2109 -0.0569
  340TIP3   OH222510   6.075   3.261   2.490  0.3937  0.3382  0.6094
  340TIP3    H122511   6.068   3.304   2.575 -2.8476  1.8511 -0.2287
  340TIP3    H222512   5.988   3.222   2.476  0.4667  1.0201 -2.3865
  341TIP3   OH222513   2.717   6.559  17.075  0.3525  0.1378 -0.4854
  341TIP3    H122514   2.754   6.576  17.162 -1.0039  1.6642 -0.1629
  341TIP3    H222515   2.717   6.464  17.067  0.5610 -0.0243  1.1487
  342TIP3   OH222516   5.332   4.431   6.322 -0.3217  0.1361  0.2844
  342TIP3    H122517   5.333   4.527   6.322 -0.2049  0.1652  1.9289
  342TIP3    H222518   5.241   4.408   6.303 -0.3283  0.5649 -0.2260
  343TIP3   OH222519   4.320   3.178   3.506  0.1593 -0.1696 -0.4223
  343TIP3    H122520   4.336   3.093   3.465 -1.8239 -0.1332 -1.3725
  343TIP3    H222521   4.401   3.227   3.492  1.8289 -2.2514  1.2220
  344TIP3   OH222522   2.172   3.291  16.727 -0.4389  0.2413  0.4001
  344TIP3    H122523   2.077   3.280  16.729 -0.5525  1.1097  0.3036
  344TIP3    H222524   2.205   3.209  16.690 -1.2165  0.2940 -0.4601
  345TIP3   OH222525   4.845   0.455   3.070 -0.0300  0.0261  0.2318
  345TIP3    H122526   4.792   0.390   3.117 -0.4283 -0.1610 -0.4622
  345TIP3    H222527   4.844   0.425   2.979  0.4235  0.5882  0.0368
  346TIP3   OH222528   2.338   3.383   0.916  0.3001  0.6004 -0.0699
  346TIP3    H122529   2.268   3.446   0.933  1.6298  2.1379 -0.0441
  346TIP3    H222530   2.375   3.410   0.832  0.8851 -0.1638 -0.0701
  347TIP3   OH222531   3.620   0.502  16.872 -0.3931 -0.5207  0.2529
  347TIP3    H122532   3.546   0.444  16.857  0.0758 -0.9257 -0.5529
  347TIP3    H222533   3.656   0.518  16.785 -0.9592  1.5872  0.3412
  348TIP3   OH222534   6.226   4.718  15.099  0.2240 -0.0654 -0.5704
  348TIP3    H122535   6.216   4.791  15.160  2.2655 -0.0802 -0.1394
  348TIP3    H222536   6.241   4.759  15.014  4.8520  0.2901  0.1890
  349TIP3   OH222537   4.358   3.346   1.698  0.0529  0.4965 -0.5241
  349TIP3    H122538   4.351   3.341   1.603  1.8963 -0.6963 -0.6250
  349TIP3    H222539   4.358   3.255   1.728  1.8248  0.7540  0.3928
  350TIP3   OH222540   3.237   6.555  13.337  0.0574 -0.3527  0.1698
  350TIP3    H122541   3.321   6.550  13.291 -0.0032  0.2717 -0.0241
  350TIP3    H222542   3.244   6.634  13.391 -1.8682  2.1453 -2.9042
  351TIP3   OH222543   2.601   2.727  11.656  0.0148  0.1758  0.2291
  351TIP3    H122544   2.562   2.793  11.713 -0.2573 -1.3966  1.9687
  351TIP3    H222545   2.538   2.655  11.655 -0.1218  0.2100 -2.3416
  352TIP3   OH222546   0.263   0.446   2.629  0.3896 -0.0763  0.9732
  352TIP3    H122547   0.257   0.403   2.715 -0.7267  1.2038  1.5890
  352TIP3    H222548   0.216   0.529   2.641  1.8215  0.9898 -0.3541
  353TIP3   OH222549   3.853   0.719  13.884 -0.5837  0.3695 -0.1227
  353TIP3    H122550   3.946   0.742  13.881 -0.9056  1.8479  0.7401
  353TIP3    H222551   3.807   0.797  13.853 -1.5613 -0.2512 -0.2850
  354TIP3   OH222552   4.891   2.284   0.629  0.1535  0.8551 -0.9892
  354TIP3    H122553   4.866   2.276   0.537 -1.1580  1.0250 -0.6698
  354TIP3    H222554   4.967   2.342   0.629 -1.2642  2.7964 -1.7838
  355TIP3   OH222555   1.448   5.356   5.166  0.1359  0.5033  0.2340
  355TIP3    H122556   1.445   5.280   5.109 -2.7458 -1.0204  2.1548
  355TIP3    H222557   1.501   5.420   5.118  1.4344 -2.1175 -2.1328
  356TIP3   OH222558   3.029   5.189   0.573 -0.0497 -0.0607  0.9335
  356TIP3    H122559   3.010   5.261   0.633  0.1976  0.4453  0.4214
  356TIP3    H222560   3.008   5.224   0.486 -2.5694 -1.5050  0.8566
  357TIP3   OH222561   5.965   1.770  15.436 -0.4870  0.0716  0.9628
  357TIP3    H122562   5.917   1.741  15.358 -0.4598  0.6963  0.7048
  357TIP3    H222563   6.022   1.840  15.404  1.2742 -1.2511  1.0925
  358TIP3   OH222564   4.219   6.362  13.964 -0.3195  0.1901  0.6978
  358TIP3    H122565   4.272   6.379  13.886  0.4018 -0.2952  1.0754
  358TIP3    H222566   4.190   6.271  13.955  0.4940 -0.1462  1.4170
  359TIP3   OH222567   1.936   2.023  15.452 -0.5467  0.1295 -0.3326
  359TIP3    H122568   1.884   2.036  15.532 -1.6599 -0.9792 -0.8446
  359TIP3    H222569   2.024   2.052  15.476 -0.9637  0.2561  1.1516
  360TIP3   OH222570   5.257   4.578   5.712 -0.2490  0.4538  0.6118
  360TIP3    H122571   5.213   4.655   5.748 -0.1198 -0.0391  1.8667
  360TIP3    H222572   5.250   4.589   5.617  1.3557  2.9242  0.6872
  361TIP3   OH222573   5.648   6.506   6.627 -0.2892 -0.6994  0.3969
  361TIP3    H122574   5.570   6.450   6.630 -0.3220 -0.6252  1.1664
  361TIP3    H222575   5.616   6.590   6.592 -0.2910 -1.0687 -0.5095
  362TIP3   OH222576   0.443   6.835  13.766  0.1495  0.4166  0.0054
  362TIP3    H122577   0.353   6.807  13.748 -0.2217  1.2103  0.5647
  362TIP3    H222578   0.436   6.887  13.846  0.7528  2.3929 -1.1735
  363TIP3   OH222579   3.911   1.442   3.954 -0.6454 -0.1655  0.1301
  363TIP3    H122580   3.909   1.538   3.954 -2.4058 -0.1617 -0.7384
  363TIP3    H222581   3.989   1.420   4.005 -0.6124  1.7091  0.9836
  364TIP3   OH222582   0.896   6.003   0.401 -0.0973 -0.1259 -0.1453
  364TIP3    H122583   0.863   6.085   0.439 -0.1301 -0.2447  0.0810
  364TIP3    H222584   0.964   6.032   0.339 -0.3344  0.0913 -0.3066
  365TIP3   OH222585   3.845   3.633  16.217 -0.1263  0.1631 -0.0316
  365TIP3    H122586   3.754   3.616  16.190 -0.3141  0.4884  0.3710
  365TIP3    H222587   3.837   3.663  16.308  0.3980  0.0775  0.0457
  366TIP3   OH222588   6.225   0.041   1.108  0.2829  0.3565 -0.3232
  366TIP3    H122589   6.280   0.038   1.186  3.0241  3.5624 -1.8795
  366TIP3    H222590   6.159   0.109   1.127 -0.8058 -0.7871  0.1251
  367TIP3   OH222591   5.117   4.528  12.039 -0.4016  0.1105  0.2053
  367TIP3    H122592   5.122   4.443  12.083  2.3035  0.9044  1.7053
  367TIP3    H222593   5.071   4.584  12.101 -1.0406  0.0449 -0.2094
  368TIP3   OH222594   5.810   1.532   3.311 -0.2785 -0.9366 -0.1624
  368TIP3    H122595   5.817   1.544   3.216 -0.5369  0.4812 -0.0330
  368TIP3    H222596   5.716   1.535   3.329 -0.2492 -1.5280  0.1049
  369TIP3   OH222597   0.145   5.039  13.186 -0.1449  0.1252  0.0107
  369TIP3    H122598   0.113   4.963  13.137 -0.7473  0.3551  0.0362
  369TIP3    H222599   0.097   5.113  13.149  0.3081  0.4714  0.1059
  370TIP3   OH222600   0.531   4.781   5.787 -0.6928  0.1854 -0.0316
  370TIP3    H122601   0.581   4.709   5.751 -1.2895  0.1100 -0.7455
  370TIP3    H222602   0.545   4.853   5.725 -0.2772  0.6202  0.5559
  371TIP3   OH222603   5.695   2.671  15.847 -0.4156  0.3661  0.8657
  371TIP3    H122604   5.785   2.699  15.830 -0.3368 -1.0655 -1.5327
  371TIP3    H222605   5.643   2.751  15.845  0.3084  0.8681 -1.9288
  372TIP3   OH222606   2.828   5.984   2.691  0.4725 -0.4860  0.3292
  372TIP3    H122607   2.820   5.987   2.786 -0.6831 -1.3561  0.2847
  372TIP3    H222608   2.773   5.910   2.665 -2.7349  2.2245 -1.3526
  373TIP3   OH222609   4.707   6.066   2.484  0.1860  0.4655  0.1674
  373TIP3    H122610   4.736   6.120   2.558  2.0078 -1.3404  0.8398
  373TIP3    H222611   4.783   6.060   2.426 -0.4398 -0.1971 -0.6214
  374TIP3   OH222612   2.420   4.340  12.248  0.2328 -0.6830  0.7654
  374TIP3    H122613   2.468   4.299  12.177 -1.4550  0.6882 -1.2831
  374TIP3    H222614   2.328   4.326  12.226 -0.3496  0.8986  1.9927
  375TIP3   OH222615   4.173   5.956   1.683 -0.6019  0.0442  0.0558
  375TIP3    H122616   4.130   5.889   1.630  0.2750 -1.0178  0.6451
  375TIP3    H222617   4.228   6.004   1.621 -0.4660 -0.4324 -0.1916
  376TIP3   OH222618   4.579   4.611  14.616  0.2463  0.0349  0.0112
  376TIP3    H122619   4.527   4.652  14.685  0.1846 -1.0382  0.6341
  376TIP3    H222620   4.537   4.638  14.535 -1.6853 -1.2904  0.5070
  377TIP3   OH222621   2.635   2.394   5.036  0.1002  0.0894 -0.2477
  377TIP3    H122622   2.619   2.301   5.051 -1.9249  0.4239 -0.1541
  377TIP3    H222623   2.613   2.435   5.120  1.3760  0.6385 -0.1577
  378TIP3   OH222624   0.280   2.008  12.522  0.5920 -0.4488 -0.0735
  378TIP3    H122625   0.276   2.045  12.610 -1.7967  1.4437 -0.8713
  378TIP3    H222626   0.227   1.929  12.527 -0.3318  0.1641 -0.0110
  379TIP3   OH222627   1.333   1.861  16.441  0.2789 -0.5751  0.1362
  379TIP3    H122628   1.349   1.767  16.449  1.2838 -0.8344 -3.3790
  379TIP3    H222629   1.243   1.867  16.408  0.4846 -0.3711 -0.3930
  380TIP3   OH222630   1.428   1.453   3.212  0.7504  0.0670  0.1987
  380TIP3    H122631   1.500   1.457   3.275  0.5115  0.1322  0.4702
  380TIP3    H222632   1.468   1.473   3.128  1.3785 -1.5361  0.0696
  381TIP3   OH222633   3.354   3.130  10.836  0.2078 -0.0608  0.1408
  381TIP3    H122634   3.399   3.140  10.752  0.2650  0.2247  0.2044
  381TIP3    H222635   3.399   3.057  10.879  2.5743  1.9869  1.4493
  382TIP3   OH222636   3.991   1.859  12.747  0.1448 -0.0358  0.0282
  382TIP3    H122637   4.068   1.853  12.804  0.0449  0.1040  0.1770
  382TIP3    H222638   3.952   1.944  12.767  1.5085  1.1751 -1.9962
  383TIP3   OH222639   4.494   5.920  16.814 -0.0785  0.2078  0.1991
  383TIP3    H122640   4.445   5.936  16.895 -0.4482 -0.9087  0.2068
  383TIP3    H222641   4.536   6.004  16.795 -3.0140  1.6749 -0.5103
  384TIP3   OH222642   0.825   0.192  11.266  0.0456  0.6193 -0.0334
  384TIP3    H122643   0.793   0.282  11.256 -0.9221  0.3893  0.8154
  384TIP3    H222644   0.882   0.196  11.343 -0.3019  0.4336  0.2353
  385TIP3   OH222645   1.705   5.519   3.077  0.1308  0.2634 -0.1027
  385TIP3    H122646   1.642   5.457   3.044 -0.3129 -0.5958  2.1503
  385TIP3    H222647   1.656   5.601   3.087 -0.2411 -0.0001  0.2474
  386TIP3   OH222648   2.645   6.491  12.974 -0.3405  0.3299  0.3848
  386TIP3    H122649   2.716   6.476  12.912 -1.1541 -0.2148 -0.4197
  386TIP3    H222650   2.690   6.508  13.057  0.7485  0.8014 -0.2742
  387TIP3   OH222651   5.458   5.939  12.715  0.1422  0.0290 -0.2547
  387TIP3    H122652   5.365   5.926  12.700  0.3449 -0.3597 -1.1942
  387TIP3    H222653   5.487   5.860  12.760 -0.0497  0.3304  0.4256
  388TIP3   OH222654   4.692   4.521   5.264 -0.0649 -0.0233 -0.0974
  388TIP3    H122655   4.692   4.614   5.242 -1.2477  0.0097  0.0004
  388TIP3    H222656   4.613   4.486   5.223 -1.0933 -0.4323  2.0733
  389TIP3   OH222657   0.032   3.984   1.785  0.5971  0.0013 -0.9843
  389TIP3    H122658  -0.018   3.997   1.704  1.2711 -0.9520 -1.5724
  389TIP3    H222659   0.112   4.035   1.773  0.7058 -0.1556 -0.9278
  390TIP3   OH222660   4.143   2.100   2.255  0.8287 -1.0411 -0.1941
  390TIP3    H122661   4.075   2.139   2.311  1.4298  0.9435 -0.7861
  390TIP3    H222662   4.102   2.092   2.169  1.4888  0.7714 -0.7184
  391TIP3   OH222663   4.513   4.885   0.386  0.2596  0.4295 -0.1427
  391TIP3    H122664   4.471   4.950   0.442 -0.2009  0.8586 -0.9549
  391TIP3    H222665   4.442   4.827   0.359  0.1677  1.0892 -1.4316
  392TIP3   OH222666   1.629   5.328   4.152  0.2304 -0.2737  0.0048
  392TIP3    H122667   1.660   5.391   4.218  0.2824  1.5750 -1.6759
  392TIP3    H222668   1.572   5.268   4.201 -3.6731  3.7813  1.1079
  393TIP3   OH222669   3.443   3.879  16.169  0.7609 -0.2699 -0.0555
  393TIP3    H122670   3.442   3.901  16.262 -1.0560 -0.5438  0.0259
  393TIP3    H222671   3.461   3.785  16.167  2.9183  0.0906 -0.1314
  394TIP3   OH222672   0.573   6.829   4.442 -0.0851 -0.0044  0.2834
  394TIP3    H122673   0.559   6.877   4.524 -1.7296  0.6815 -0.3536
  394TIP3    H222674   0.627   6.887   4.389 -1.4483  0.8923 -0.1955
  395TIP3   OH222675   0.185   4.571   2.351  0.3849 -0.4699  0.5334
  395TIP3    H122676   0.164   4.528   2.268 -1.7613 -0.2474  0.8932
  395TIP3    H222677   0.151   4.511   2.418  0.2686  0.2966  1.1677
  396TIP3   OH222678   4.269   5.870  10.880  0.0130 -0.5882  0.3627
  396TIP3    H122679   4.223   5.952  10.866 -0.9803 -0.6346  2.8838
  396TIP3    H222680   4.323   5.859  10.802  0.5085  2.6668  0.1227
  397TIP3   OH222681   3.380   5.971   1.628 -0.1784 -0.1437 -0.0833
  397TIP3    H122682   3.411   5.944   1.714  0.3210 -0.0379 -0.2243
  397TIP3    H222683   3.293   5.932   1.620  0.3864 -1.4358 -0.1468
  398TIP3   OH222684   4.476   4.016   5.398  0.3686 -0.2517  0.1814
  398TIP3    H122685   4.470   4.007   5.493 -3.2119 -1.1591  0.0098
  398TIP3    H222686   4.526   4.097   5.384 -2.2506  2.0579  2.9927
  399TIP3   OH222687   0.950   3.677   0.652  0.1542 -0.4377  0.1562
  399TIP3    H122688   0.937   3.691   0.746 -0.4340  1.2046 -0.1382
  399TIP3    H222689   1.045   3.685   0.640  0.1173  0.6042  0.4463
  400TIP3   OH222690   6.261   1.767   0.415 -1.0570 -0.2001  0.0248
  400TIP3    H122691   6.244   1.819   0.337  0.0576  1.1319  0.6433
  400TIP3    H222692   6.355   1.775   0.430 -1.1502 -0.9558  1.1480
  401TIP3   OH222693   3.162   4.819  10.184 -0.3579 -0.5267 -0.2213
  401TIP3    H122694   3.147   4.742  10.129 -0.3528 -1.7956  1.4714
  401TIP3    H222695   3.142   4.789  10.272 -1.8525  1.8533  0.3380
  402TIP3   OH222696   2.367   1.311  15.609 -0.2311 -0.6856 -0.0646
  402TIP3    H122697   2.378   1.240  15.672  0.4960  0.1414  0.7877
  402TIP3    H222698   2.443   1.368  15.624 -0.9904  0.4669 -0.4422
  403TIP3   OH222699   6.576   5.775   0.466  0.6514  0.0826 -0.0106
  403TIP3    H122700   6.526   5.853   0.487  0.6769  0.6161 -1.8210
  403TIP3    H222701   6.519   5.702   0.491 -0.6426  0.6795 -1.1646
  404TIP3   OH222702   2.595   0.608  16.407  0.0809  0.2200 -0.6676
  404TIP3    H122703   2.508   0.569  16.414 -0.0421  0.5252 -0.4790
  404TIP3    H222704   2.611   0.615  16.313 -0.0615  0.0778 -0.7022
  405TIP3   OH222705   2.559   6.617   1.340 -0.0197  0.3617  0.1061
  405TIP3    H122706   2.645   6.599   1.378 -0.6939 -0.1227  1.4562
  405TIP3    H222707   2.545   6.544   1.279  0.4028  0.3055  0.0671
  406TIP3   OH222708   0.878   0.195  13.950  0.1631  0.0075  0.4006
  406TIP3    H122709   0.922   0.216  14.032  1.1133 -2.9396  0.7671
  406TIP3    H222710   0.786   0.215  13.966  0.4667  0.3591  1.8581
  407TIP3   OH222711   3.658   1.368  11.873  0.1846 -0.0609  0.1464
  407TIP3    H122712   3.614   1.369  11.788 -0.1966  0.4520  0.3426
  407TIP3    H222713   3.589   1.348  11.936 -0.0425  1.8936  0.5847
  408TIP3   OH222714   5.334   0.175   0.837  0.2029 -0.2203 -0.2197
  408TIP3    H122715   5.371   0.124   0.765 -0.1157 -0.5846 -0.1280
  408TIP3    H222716   5.368   0.133   0.916  0.2119 -0.0810 -0.1486
  409TIP3   OH222717   4.894   2.862  15.483  0.4854 -0.3125  0.1952
  409TIP3    H122718   4.840   2.795  15.443 -1.2530  0.9258  0.3310
  409TIP3    H222719   4.877   2.854  15.577  0.6596 -0.0125  0.2564
  410TIP3   OH222720   3.766   4.349   0.816 -0.0349  0.1059 -0.2800
  410TIP3    H122721   3.707   4.404   0.867 -0.4260  0.5116 -1.1398
  410TIP3    H222722   3.846   4.344   0.868 -0.8359 -0.5118  0.9377
  411TIP3   OH222723   1.539   1.482  13.694  0.5822  0.0666 -0.0025
  411TIP3    H122724   1.572   1.535  13.621  1.8549 -1.1564 -0.3824
  411TIP3    H222725   1.500   1.406  13.651 -3.4418  1.6926  0.4121
  412TIP3   OH222726   4.478   1.314   2.493 -0.4557 -0.2622  0.2515
  412TIP3    H122727   4.388   1.340   2.476  0.0327  0.7928 -0.9748
  412TIP3    H222728   4.502   1.261   2.417 -0.7149 -2.4976  1.6527
  413TIP3   OH222729   3.923   3.314   2.497 -0.0392 -0.3399 -0.3237
  413TIP3    H122730   3.944   3.277   2.410  2.1633  3.2104 -1.5045
  413TIP3    H222731   3.841   3.361   2.483 -1.2433 -2.1041  0.4027
  414TIP3   OH222732   1.744   6.017   0.702  0.4429 -0.2877  0.0036
  414TIP3    H122733   1.677   6.059   0.756 -2.2856 -3.0598 -0.9471
  414TIP3    H222734   1.760   6.079   0.631 -1.6591  0.2068 -0.1028
  415TIP3   OH222735   4.246   1.944   4.853 -0.1245 -0.9191 -0.0627
  415TIP3    H122736   4.278   1.948   4.943  0.5289 -1.5442 -0.2648
  415TIP3    H222737   4.157   1.980   4.858 -0.3951 -1.6992  0.9655
  416TIP3   OH222738   3.747   3.669   0.090 -0.5539 -0.0884  0.1069
  416TIP3    H122739   3.729   3.606   0.160 -0.8403 -0.2913 -0.1473
  416TIP3    H222740   3.795   3.740   0.133 -0.2817 -0.4533  0.4076
  417TIP3   OH222741   2.929   3.592  15.752  0.2858 -0.6089 -0.1417
  417TIP3    H122742   2.890   3.556  15.672  1.6203  0.2545 -1.2354
  417TIP3    H222743   2.908   3.685  15.749 -0.1640 -0.6625  0.8559
  418TIP3   OH222744   2.055   2.355  14.082  0.2063  0.5961  0.0351
  418TIP3    H122745   2.135   2.397  14.114  1.1752  0.3363 -1.8992
  418TIP3    H222746   1.995   2.428  14.066  0.7719  0.9791 -0.3738
  419TIP3   OH222747   3.968   1.329  13.744  0.2756  0.4028 -0.4357
  419TIP3    H122748   3.898   1.383  13.781 -1.5998 -2.3331  0.3197
  419TIP3    H222749   4.045   1.352  13.796 -1.3430 -0.3675  2.5499
  420TIP3   OH222750   5.483   4.351  14.693  0.2871  0.6000  0.7594
  420TIP3    H122751   5.529   4.326  14.614  1.1253  1.3797  0.9878
  420TIP3    H222752   5.400   4.388  14.662 -0.5341 -1.3843  0.3724
  421TIP3   OH222753   1.890   3.892   4.503  0.4790  0.4343 -0.1828
  421TIP3    H122754   1.812   3.946   4.488  0.6678  0.4908 -1.0268
  421TIP3    H222755   1.926   3.924   4.586  0.1353  1.0511 -0.2622
  422TIP3   OH222756   6.203   6.813   2.623  0.5923  0.1770 -0.0461
  422TIP3    H122757   6.245   6.850   2.545  1.2767  0.5635  0.4944
  422TIP3    H222758   6.110   6.808   2.599  0.8620 -0.2181 -1.0759
  423TIP3   OH222759   5.899   6.752   4.149  0.3544 -0.4447 -0.7183
  423TIP3    H122760   5.876   6.740   4.241  2.5390 -2.2025 -0.3305
  423TIP3    H222761   5.846   6.688   4.102 -1.4056  1.0341 -0.8579
  424TIP3   OH222762   1.936   2.094   0.582 -0.2367  0.0983 -0.1342
  424TIP3    H122763   1.864   2.115   0.641 -0.2831  0.0795 -0.1844
  424TIP3    H222764   1.972   2.012   0.617 -0.6123 -0.2068 -0.4511
  425TIP3   OH222765   1.040   3.365  13.829  0.0232  0.2122 -0.0433
  425TIP3    H122766   1.001   3.418  13.760 -1.0958 -1.0416 -0.4174
  425TIP3    H222767   1.061   3.428  13.899 -2.4893  1.0237  0.0923
  426TIP3   OH222768   2.723   1.746   0.051 -0.2152  0.0001  0.2729
  426TIP3    H122769   2.795   1.685   0.035 -0.0014 -0.3509  2.3796
  426TIP3    H222770   2.766   1.828   0.076 -0.4959 -0.4195  2.2729
  427TIP3   OH222771   1.412   0.719  13.436  0.2958  0.2123 -0.5583
  427TIP3    H122772   1.500   0.749  13.414  0.1726  2.0100  1.1245
  427TIP3    H222773   1.358   0.798  13.432 -1.8564 -1.1755 -3.8766
  428TIP3   OH222774   6.667   2.723   5.704  0.4210  0.0568  0.3896
  428TIP3    H122775   6.638   2.780   5.632  1.9334 -0.7592 -0.9280
  428TIP3    H222776   6.645   2.635   5.675  1.0913 -0.2863  0.9061
  429TIP3   OH222777   4.286   5.851   3.746  0.4226 -0.0131 -0.2922
  429TIP3    H122778   4.274   5.941   3.717 -0.9482  0.7698  2.4449
  429TIP3    H222779   4.377   5.847   3.776 -0.1023  1.1361  1.5751
  430TIP3   OH222780   2.457   2.656   4.650 -0.4690  0.3701  0.1588
  430TIP3    H122781   2.440   2.651   4.556  0.4641  1.0824 -0.0658
  430TIP3    H222782   2.397   2.724   4.681 -0.6606  0.2527  0.0460
  431TIP3   OH222783   2.966   5.018   2.655  1.0267  0.1604  0.2049
  431TIP3    H122784   3.028   5.090   2.642  0.2976  0.8705  0.4856
  431TIP3    H222785   2.939   5.027   2.747 -1.4923  1.5745 -0.5775
  432TIP3   OH222786   4.462   1.517   4.048 -0.2488 -0.9427 -0.2641
  432TIP3    H122787   4.405   1.535   4.122 -1.1754  1.5000 -1.4753
  432TIP3    H222788   4.403   1.489   3.978  0.3608 -1.1508 -0.7070
  433TIP3   OH222789   0.622   2.617  16.689 -0.6197 -0.1455 -0.3410
  433TIP3    H122790   0.674   2.555  16.638  1.4823  1.3094 -0.0976
  433TIP3    H222791   0.597   2.568  16.768 -0.0780 -1.0553 -0.7190
  434TIP3   OH222792   3.159   6.303  13.382 -0.1058 -0.5546  0.2307
  434TIP3    H122793   3.174   6.393  13.356 -1.0874 -0.3557  0.2886
  434TIP3    H222794   3.176   6.252  13.303  0.9056 -0.3716  0.3271
  435TIP3   OH222795   6.097   3.922  11.108 -0.0139  0.0758  0.3022
  435TIP3    H122796   6.172   3.967  11.070 -1.6946  0.8282 -2.4359
  435TIP3    H222797   6.079   3.849  11.047 -2.1858  0.6718  0.1411
  436TIP3   OH222798   0.683   4.338   6.010  0.6747  0.0923  0.3877
  436TIP3    H122799   0.689   4.292   5.926  1.4194 -1.9152  1.4774
  436TIP3    H222800   0.767   4.322   6.053 -0.4961 -0.9536  2.4644
  437TIP3   OH222801   0.077   0.799  13.292 -0.2221  0.2505  0.0550
  437TIP3    H122802   0.130   0.879  13.279 -1.2312  0.6182 -2.1866
  437TIP3    H222803   0.009   0.826  13.354  0.5509  0.5539  0.8055
  438TIP3   OH222804   6.547   4.096   0.573  0.1894  0.4531 -0.2635
  438TIP3    H122805   6.485   4.169   0.577  0.3048  0.5088  2.3032
  438TIP3    H222806   6.631   4.136   0.597  0.8714  0.0331 -1.8846
  439TIP3   OH222807   6.546   0.097  15.373 -0.1826  0.1738  0.1287
  439TIP3    H122808   6.573   0.008  15.396  1.4104  0.5756 -0.0729
  439TIP3    H222809   6.492   0.086  15.295  1.3390 -0.5140 -0.8750
  440TIP3   OH222810   2.186   4.600  10.802 -0.0862 -0.0257 -0.2401
  440TIP3    H122811   2.270   4.619  10.844 -0.0133  0.6852 -0.6985
  440TIP3    H222812   2.120   4.634  10.862  0.0541  2.3865 -1.3509
  441TIP3   OH222813   4.878   2.673   6.486  0.5587  0.0517  0.1979
  441TIP3    H122814   4.951   2.640   6.539 -0.4803 -0.9542  1.0652
  441TIP3    H222815   4.833   2.734   6.543 -0.0162 -0.3033  0.1246
  442TIP3   OH222816   3.648   2.316   5.896  0.2791  0.1070  0.0928
  442TIP3    H122817   3.726   2.361   5.928  0.3589  1.4501 -1.8549
  442TIP3    H222818   3.586   2.323   5.969  2.4831 -2.8083  2.5440
  443TIP3   OH222819   5.318   5.278   1.313  0.4674 -0.6605 -0.8412
  443TIP3    H122820   5.381   5.224   1.360 -0.4420 -1.4096 -0.4390
  443TIP3    H222821   5.336   5.368   1.342 -0.5265 -1.1606  1.5553
  444TIP3   OH222822   5.168   4.638  14.395  0.1810  0.8184  0.0154
  444TIP3    H122823   5.078   4.628  14.425  0.4493  0.3959  0.7239
  444TIP3    H222824   5.161   4.668  14.305 -0.6685  0.1335 -0.1539
  445TIP3   OH222825   1.332   2.930   4.882 -0.1295 -0.1453  0.3468
  445TIP3    H122826   1.401   2.869   4.855  0.6757  0.8486  0.1099
  445TIP3    H222827   1.325   2.992   4.810 -1.4426 -0.3453  0.2743
  446TIP3   OH222828   0.404   5.538  11.399 -0.4341 -0.4975 -0.2085
  446TIP3    H122829   0.334   5.578  11.450 -0.7015  1.2214 -1.7803
  446TIP3    H222830   0.367   5.456  11.366 -1.1223 -0.3938  0.2851
  447TIP3   OH222831   3.558   2.344   2.989 -0.2945 -0.1191  0.2382
  447TIP3    H122832   3.482   2.295   3.022  1.5829 -4.0483 -0.6238
  447TIP3    H222833   3.628   2.324   3.050  0.5433  1.8802  0.0008
  448TIP3   OH222834   2.902   1.842  11.896 -0.0115 -0.0621  0.0126
  448TIP3    H122835   2.866   1.926  11.925  1.1018  0.7284 -0.8092
  448TIP3    H222836   2.992   1.862  11.869  0.2694 -1.5170 -0.2189
  449TIP3   OH222837   5.332   2.345  12.724  0.4216 -0.0572  0.2134
  449TIP3    H122838   5.269   2.291  12.772 -2.2542  0.6904 -2.1989
  449TIP3    H222839   5.358   2.291  12.649 -0.4161  1.0233 -0.9056
  450TIP3   OH222840   4.364   5.042   3.792 -0.0730  0.0125 -0.6242
  450TIP3    H122841   4.418   5.052   3.714  0.7394 -0.8875 -0.1953
  450TIP3    H222842   4.325   5.128   3.805  1.0332  0.6123 -1.1211
  451TIP3   OH222843   2.512   0.785  12.267  0.2458 -0.0832  0.1114
  451TIP3    H122844   2.429   0.833  12.270  0.5435  0.4306  0.4084
  451TIP3    H222845   2.495   0.704  12.315  0.1363  0.3862  0.8856
  452TIP3   OH222846   0.573   3.831   2.846 -0.0451 -0.1631  0.3497
  452TIP3    H122847   0.598   3.738   2.849 -0.1898 -0.2323 -0.3497
  452TIP3    H222848   0.649   3.875   2.809 -0.0126 -0.0141  0.5944
  453TIP3   OH222849   5.130   2.662   1.764 -0.6030  0.2048 -0.1507
  453TIP3    H122850   5.113   2.726   1.833 -1.5297 -0.5525  0.3562
  453TIP3    H222851   5.080   2.694   1.689  0.7019  1.2251 -0.6077
  454TIP3   OH222852   0.255   1.097   3.190  0.3724 -0.8013 -0.2291
  454TIP3    H122853   0.270   1.009   3.224 -0.7783 -0.5508  0.9893
  454TIP3    H222854   0.266   1.155   3.265  1.9509  0.2105 -1.1891
  455TIP3   OH222855   1.560   5.838   3.753  0.2134 -0.2934  0.3113
  455TIP3    H122856   1.474   5.868   3.722  0.2405 -1.3914 -0.9160
  455TIP3    H222857   1.566   5.871   3.842 -0.1729  2.4370 -0.5613
  456TIP3   OH222858   2.014   2.340   3.649 -0.5998  0.5641  0.2498
  456TIP3    H122859   2.048   2.382   3.571 -1.1385  2.8479  1.1639
  456TIP3    H222860   1.931   2.300   3.621 -1.2556  2.1634 -0.1693
  457TIP3   OH222861   6.158   2.055   3.251  0.5417  0.2570  0.0602
  457TIP3    H122862   6.070   2.087   3.233  0.2717 -0.6326 -0.2376
  457TIP3    H222863   6.167   2.062   3.346  0.6135  1.5068 -0.0250
  458TIP3   OH222864   3.784   4.976   0.464 -0.5885 -0.8197  0.2416
  458TIP3    H122865   3.802   4.890   0.425 -0.9175 -0.2495 -1.2384
  458TIP3    H222866   3.792   5.037   0.391 -2.3726  0.1688  0.8258
  459TIP3   OH222867   1.685   4.536   4.041 -0.0806 -0.0779 -0.0704
  459TIP3    H122868   1.722   4.618   4.007  1.7104 -0.2844  1.2202
  459TIP3    H222869   1.686   4.476   3.966  0.5120  0.4893 -0.5324
  460TIP3   OH222870   6.705   6.083   0.378 -0.2341  0.3894  0.3280
  460TIP3    H122871   6.678   6.153   0.319 -1.4426  0.4624  0.9437
  460TIP3    H222872   6.747   6.128   0.451 -0.6415  0.4332  0.5313
  461TIP3   OH222873   3.003   1.346  10.952  0.0724  0.2755  0.0504
  461TIP3    H122874   3.058   1.398  10.894  1.0054  0.5665  1.1506
  461TIP3    H222875   2.927   1.323  10.899  0.4859  1.2448 -1.0059
  462TIP3   OH222876   3.452   3.267  16.899 -0.3304 -0.6609 -0.0101
  462TIP3    H122877   3.539   3.283  16.934  0.0991 -2.2035 -0.3171
  462TIP3    H222878   3.436   3.174  16.914 -1.1119 -0.8463 -1.7223
  463TIP3   OH222879   6.506   2.259   4.465  0.5681  0.5722 -0.9394
  463TIP3    H122880   6.511   2.213   4.381 -1.8231 -0.0083 -0.8374
  463TIP3    H222881   6.414   2.281   4.475  0.4721 -0.7138  2.2251
  464TIP3   OH222882   4.279   5.031   1.569 -0.8137 -0.2725  0.5066
  464TIP3    H122883   4.364   5.042   1.612  0.1706  2.3533 -1.8471
  464TIP3    H222884   4.257   4.939   1.585  1.6236 -0.6136  2.6391
  465TIP3   OH222885   2.221   3.444   1.272 -0.0579 -0.2229  0.3130
  465TIP3    H122886   2.180   3.514   1.221 -0.2792  0.3089  1.1917
  465TIP3    H222887   2.183   3.453   1.359 -0.9412 -2.1673  0.1744
  466TIP3   OH222888   4.830   2.920  16.442  0.4366 -0.1193  0.4080
  466TIP3    H122889   4.806   2.843  16.494  1.2198 -0.2403  0.6085
  466TIP3    H222890   4.908   2.893  16.393 -1.3008 -0.6598 -2.3255
  467TIP3   OH222891   3.563   2.130  11.089  0.0149  0.4269  0.5533
  467TIP3    H122892   3.504   2.095  11.156 -0.7162  1.2075  0.3346
  467TIP3    H222893   3.507   2.147  11.014  0.5173  1.1931  0.3430
  468TIP3   OH222894   4.192   6.442  12.399  0.2189 -0.4343 -0.1908
  468TIP3    H122895   4.248   6.495  12.343 -1.6011  0.8782 -0.8894
  468TIP3    H222896   4.216   6.351  12.380 -0.1940 -0.0305 -3.0197
  469TIP3   OH222897   6.489   5.225   5.171 -0.0015 -0.2063  0.3836
  469TIP3    H122898   6.529   5.140   5.187  0.8462  0.2328  0.6934
  469TIP3    H222899   6.456   5.253   5.256  1.5008  0.6337  0.7375
  470TIP3   OH222900   5.129   1.402  14.816 -0.6848 -0.4856  0.2557
  470TIP3    H122901   5.066   1.461  14.857 -0.4525  0.0143 -0.0980
  470TIP3    H222902   5.082   1.365  14.741 -0.6059 -0.2207  0.0747
  471TIP3   OH222903   2.388   6.587  12.917  0.3037  0.1856  0.0319
  471TIP3    H122904   2.365   6.613  13.006  1.4060 -0.3462  0.4938
  471TIP3    H222905   2.469   6.536  12.927  0.8123  0.6704 -1.3413
  472TIP3   OH222906   0.205   6.665  15.753 -0.1963 -0.0824  0.3862
  472TIP3    H122907   0.177   6.598  15.816 -1.0686 -2.3778 -2.2563
  472TIP3    H222908   0.301   6.660  15.754 -0.1732  0.2335  1.7775
  473TIP3   OH222909   2.983   6.061  12.160 -0.0914 -0.0071 -0.2494
  473TIP3    H122910   2.952   5.978  12.125 -1.1770  0.3190 -0.1239
  473TIP3    H222911   3.009   6.042  12.250 -0.9897 -0.0865  0.0017
  474TIP3   OH222912   3.402   4.610   0.000 -0.2765  0.2147  0.0572
  474TIP3    H122913   3.366   4.523  -0.013 -0.0644  0.3031 -1.2369
  474TIP3    H222914   3.475   4.615  -0.061  0.1052  1.0720  0.5744
  475TIP3   OH222915   1.502   0.969  12.529 -0.2710 -0.1283 -0.0836
  475TIP3    H122916   1.532   0.949  12.618 -0.7786  1.7544  0.5550
  475TIP3    H222917   1.560   0.918  12.473  0.6491 -0.6683  1.2861
  476TIP3   OH222918   0.500   6.209  13.365  0.8668 -0.2404  0.2080
  476TIP3    H122919   0.572   6.158  13.327  0.2382 -0.4210 -0.7552
  476TIP3    H222920   0.533   6.299  13.365  1.9372 -0.5870  1.8079
  477TIP3   OH222921   4.054   5.439  14.290  0.5365  0.3621 -0.1525
  477TIP3    H122922   3.964   5.412  14.311  0.1626  0.1041 -1.8980
  477TIP3    H222923   4.108   5.399  14.357 -0.5486 -0.4069  0.2889
  478TIP3   OH222924   1.301   0.297   4.996  0.1575 -0.0055 -0.0197
  478TIP3    H122925   1.308   0.209   5.032 -4.3788 -0.8768 -0.6036
  478TIP3    H222926   1.250   0.346   5.061  0.0742  1.2574 -0.9963
  479TIP3   OH222927   2.484   3.863  11.553 -0.4892 -0.0538 -0.2834
  479TIP3    H122928   2.478   3.789  11.493 -0.5848 -1.3525  1.2699
  479TIP3    H222929   2.421   3.843  11.622 -0.8235  1.7020 -0.0354
  480TIP3   OH222930   3.542   0.915  11.702 -0.1555 -0.4330 -0.1383
  480TIP3    H122931   3.631   0.912  11.666 -0.5588 -0.3429 -1.1835
  480TIP3    H222932   3.516   1.007  11.693 -0.4940 -0.5341 -0.2033
  481TIP3   OH222933   0.320   2.779   1.392  0.1088  0.2732 -0.0371
  481TIP3    H122934   0.285   2.794   1.304 -1.0321  0.8388  0.4876
  481TIP3    H222935   0.307   2.863   1.437  2.0413  0.4724  0.2530
  482TIP3   OH222936   4.829   3.848  12.946  0.1461  0.4169  0.9544
  482TIP3    H122937   4.764   3.885  12.886  0.1156 -1.2952 -0.1172
  482TIP3    H222938   4.808   3.888  13.030 -1.8951  0.4043  0.5164
  483TIP3   OH222939   4.656   2.393  14.547  0.2311 -0.3534  0.5042
  483TIP3    H122940   4.586   2.417  14.486  0.4271 -0.0579  0.3957
  483TIP3    H222941   4.641   2.449  14.623  1.3958  1.0105 -0.2184
  484TIP3   OH222942   1.994   3.669   2.388  0.1543  0.5186  0.0529
  484TIP3    H122943   1.931   3.722   2.437 -1.3909 -0.1640 -1.0991
  484TIP3    H222944   2.012   3.720   2.309 -3.7020 -1.7034 -2.6131
  485TIP3   OH222945   5.608   6.383  11.974 -0.3600  0.1205 -0.2903
  485TIP3    H122946   5.640   6.472  11.981  0.0819  0.0691 -1.5078
  485TIP3    H222947   5.686   6.328  11.976 -0.6614 -0.2962  1.0246
  486TIP3   OH222948   4.408   6.496   3.667  0.3618 -0.6098 -0.5882
  486TIP3    H122949   4.489   6.505   3.617  1.4880  0.1881  1.3061
  486TIP3    H222950   4.357   6.574   3.645  1.1987  0.1443  0.0790
  487TIP3   OH222951   5.638   3.997  10.683  0.2960  0.0249 -0.2824
  487TIP3    H122952   5.723   3.954  10.697  1.4035  1.5973 -1.6996
  487TIP3    H222953   5.589   3.980  10.763  1.6707 -1.5350  0.2887
  488TIP3   OH222954   4.842   5.747  11.428 -0.6311 -0.0387 -0.6694
  488TIP3    H122955   4.888   5.670  11.463  0.5134  0.9386  0.0640
  488TIP3    H222956   4.752   5.738  11.459 -0.3306 -0.6976  0.0446
  489TIP3   OH222957   3.459   2.715   5.906 -0.0556 -0.7681 -0.1560
  489TIP3    H122958   3.426   2.681   5.990  0.4080  0.0965  0.3906
  489TIP3    H222959   3.380   2.729   5.854 -0.3413 -1.4455  0.0865
  490TIP3   OH222960   0.137   0.412   4.813  0.1814 -0.4540 -0.3156
  490TIP3    H122961   0.091   0.358   4.877 -0.4554 -0.5438 -0.8327
  490TIP3    H222962   0.214   0.443   4.859  1.0686 -2.5353 -0.2614
  491TIP3   OH222963   5.570   1.065  15.103  0.2037 -0.2258  0.2083
  491TIP3    H122964   5.599   1.080  15.193  1.1772 -0.3429 -0.0776
  491TIP3    H222965   5.563   1.152  15.064 -0.0855 -0.1839  0.3482
  492TIP3   OH222966   3.763   3.444  15.332 -0.2422 -0.2871 -0.2988
  492TIP3    H122967   3.693   3.408  15.385 -1.6978 -0.8142 -2.4410
  492TIP3    H222968   3.721   3.511  15.278  1.4809  1.3624  0.2799
  493TIP3   OH222969   1.279   5.286   1.977 -0.5923 -0.3115 -0.0902
  493TIP3    H122970   1.195   5.325   1.998 -1.4512 -2.2298  0.2877
  493TIP3    H222971   1.299   5.231   2.053  1.0339  0.1293 -0.1569
  494TIP3   OH222972   6.021   2.669   3.950  0.9219  0.1222 -0.0327
  494TIP3    H122973   5.997   2.615   4.025 -2.1556  0.8445 -0.3898
  494TIP3    H222974   6.071   2.741   3.987 -0.6365  0.5174  1.3968
  495TIP3   OH222975   0.228   6.412  13.303  0.3862  0.3854  0.5448
  495TIP3    H122976   0.284   6.339  13.276 -0.5466 -0.4209  0.7149
  495TIP3    H222977   0.186   6.381  13.384 -0.9698  0.6002 -0.0486
  496TIP3   OH222978   2.755   1.374  11.365  0.2875  0.2417  0.4837
  496TIP3    H122979   2.678   1.412  11.406  0.1264 -0.3362  0.7288
  496TIP3    H222980   2.722   1.297  11.318  0.2646  1.5036 -1.7224
  497TIP3   OH222981   4.894   6.551  16.071  0.5306  0.4540 -0.2113
  497TIP3    H122982   4.939   6.581  15.993 -0.3806 -3.1251 -2.3234
  497TIP3    H222983   4.820   6.500  16.039 -0.0242 -1.0399  2.9953
  498TIP3   OH222984   4.492   2.109  12.262  0.0209 -0.6672  0.0548
  498TIP3    H122985   4.463   2.078  12.176  3.0113 -0.2442 -1.2374
  498TIP3    H222986   4.532   2.033  12.303 -1.1711 -0.8017  1.0348
  499TIP3   OH222987   3.125   6.221  11.339 -0.8780 -0.0531 -0.2236
  499TIP3    H122988   3.121   6.144  11.396 -1.9870  0.7123  0.7759
  499TIP3    H222989   3.066   6.201  11.267 -0.8853 -0.2817 -0.1555
  500TIP3   OH222990   1.875   0.458  13.909  0.0189 -0.1619  0.2545
  500TIP3    H122991   1.892   0.542  13.867 -0.0217 -0.2442  0.0736
  500TIP3    H222992   1.951   0.445  13.966 -1.4523  1.5445  2.8364
  501TIP3   OH222993   2.952   2.280   4.290  0.0946  0.5392  0.0974
  501TIP3    H122994   3.045   2.260   4.278  0.3926  2.0206 -0.3105
  501TIP3    H222995   2.952   2.364   4.336 -1.0657 -0.0627  1.2372
  502TIP3   OH222996   0.724   6.759  14.369  0.6139 -0.8057  0.1907
  502TIP3    H122997   0.808   6.716  14.357  1.0397  0.2966 -1.0024
  502TIP3    H222998   0.737   6.819  14.442  0.4502 -1.6071  0.8912
  503TIP3   OH222999   2.971   2.962   5.655 -0.5012  0.3950 -0.5121
  503TIP3    H123000   2.878   2.977   5.668 -0.5091  1.1707 -1.3958
  503TIP3    H223001   3.000   2.919   5.736 -1.9612 -1.4930 -0.9066
  504TIP3   OH223002   5.892   6.522   2.491 -0.3803  0.3177  0.4366
  504TIP3    H123003   5.805   6.483   2.493  0.1158 -1.1133 -1.8093
  504TIP3    H223004   5.936   6.487   2.568 -0.9648 -1.1484  0.1422
  505TIP3   OH223005   2.675   4.912  16.355 -0.0319 -0.0705  0.0658
  505TIP3    H123006   2.750   4.907  16.297  0.3654  0.5127  0.5193
  505TIP3    H223007   2.599   4.910  16.297  0.2843 -1.8372 -0.3380
  506TIP3   OH223008   3.289   2.540   1.552  0.1775  0.0726  0.1943
  506TIP3    H123009   3.245   2.557   1.635 -0.6984  1.3676 -0.4904
  506TIP3    H223010   3.218   2.540   1.487  0.8727 -0.6349 -0.5839
  507TIP3   OH223011   1.723   0.190   2.416 -0.0684 -0.6608 -0.4172
  507TIP3    H123012   1.635   0.186   2.378  0.0565 -0.1785 -0.7714
  507TIP3    H223013   1.766   0.261   2.369  0.8086 -1.4595 -0.8598
  508TIP3   OH223014   6.557   2.534   3.763 -0.2301 -0.2972 -0.5011
  508TIP3    H123015   6.591   2.462   3.816 -0.6682 -0.5503 -0.5592
  508TIP3    H223016   6.631   2.559   3.708  1.0079  1.5589  1.8332
  509TIP3   OH223017   1.964   0.009  13.379 -0.3009  0.1701  0.4805
  509TIP3    H123018   1.955   0.037  13.470 -0.2645  1.0492  0.2258
  509TIP3    H223019   1.980  -0.085  13.384 -0.4492  0.1859  1.3724
  510TIP3   OH223020   1.180   1.837   3.035 -0.1531 -0.4415  0.5184
  510TIP3    H123021   1.144   1.840   3.124 -0.1207  1.2628  0.4900
  510TIP3    H223022   1.215   1.924   3.020  1.1843 -1.1450 -0.6439
  511TIP3   OH223023   4.928   1.076  15.633 -0.6321 -0.1682 -0.2472
  511TIP3    H123024   4.875   1.155  15.623 -0.8020 -0.2940 -0.3577
  511TIP3    H223025   4.911   1.047  15.723  1.5962  1.4622  0.7650
  512TIP3   OH223026   6.352   0.388  12.153 -0.4826  0.2994  0.3669
  512TIP3    H123027   6.427   0.380  12.212 -1.3015  1.6414  1.6696
  512TIP3    H223028   6.362   0.475  12.114 -2.0467  1.1045  1.6369
  513TIP3   OH223029   6.105   0.067  12.234 -0.0161 -0.2591  0.6335
  513TIP3    H123030   6.191   0.042  12.200 -0.3460 -0.3796 -0.1238
  513TIP3    H223031   6.072  -0.012  12.276 -0.7006 -0.8986 -1.0273
  514TIP3   OH223032   4.426   0.613   4.853 -0.2989 -0.5206  0.1167
  514TIP3    H123033   4.505   0.592   4.802 -0.8274 -1.8807 -0.1798
  514TIP3    H223034   4.375   0.669   4.794 -0.4637 -1.2928 -0.4898
  515TIP3   OH223035   3.889   0.382  15.908 -0.2767  0.7119 -0.2199
  515TIP3    H123036   3.915   0.338  15.827  0.0650  2.9373 -1.4092
  515TIP3    H223037   3.936   0.336  15.977 -0.4946 -1.1942 -1.2636
  516TIP3   OH223038   2.740   0.828  16.997 -0.6679 -0.4883  0.1871
  516TIP3    H123039   2.716   0.797  17.085 -0.2452  0.2935  0.5949
  516TIP3    H223040   2.708   0.761  16.938 -1.0672 -0.9733  0.9388
  517TIP3   OH223041   3.426   3.987   0.554 -0.5033 -0.1487  0.0447
  517TIP3    H123042   3.336   3.976   0.586 -0.1555 -1.3416  0.6745
  517TIP3    H223043   3.436   4.081   0.542 -0.9804  0.2779  2.5057
  518TIP3   OH223044   3.655   1.224  13.102 -0.1582 -0.0056  0.2675
  518TIP3    H123045   3.563   1.211  13.127 -0.5658  0.0899 -1.0885
  518TIP3    H223046   3.657   1.309  13.060 -0.2963 -1.5351 -3.1922
  519TIP3   OH223047   6.472   5.828   0.829  0.2148  0.1415 -0.5359
  519TIP3    H123048   6.417   5.755   0.856  0.0464  1.1009  2.0293
  519TIP3    H223049   6.413   5.904   0.831  1.3570  1.0674  1.5728
  520TIP3   OH223050   1.028   2.797  16.869 -0.0559  0.0310 -0.1809
  520TIP3    H123051   1.001   2.853  16.942  0.0850 -1.1219  0.7748
  520TIP3    H223052   1.110   2.835  16.839 -0.2314  0.6499  0.1116
  521TIP3   OH223053   6.003   3.325   2.905  0.1017 -0.0841 -0.4276
  521TIP3    H123054   6.041   3.355   2.987  1.8868 -2.9090 -0.0579
  521TIP3    H223055   6.043   3.381   2.838  0.1324  0.9837  0.4683
  522TIP3   OH223056   4.253   6.718   3.615 -0.0271 -0.4173 -0.3842
  522TIP3    H123057   4.203   6.722   3.696  0.1187  2.2757 -0.3478
  522TIP3    H223058   4.193   6.678   3.552 -0.1125 -2.6397  0.9739
  523TIP3   OH223059   4.682   0.897  13.981 -0.2088  0.4658  0.2482
  523TIP3    H123060   4.731   0.979  13.983 -1.6136  1.4079 -1.0381
  523TIP3    H223061   4.698   0.861  13.894 -2.2015  1.1284 -0.4585
  524TIP3   OH223062   1.722   2.974   1.662 -0.8406 -0.2848 -0.1679
  524TIP3    H123063   1.767   3.004   1.582  0.1607 -0.5473  0.2784
  524TIP3    H223064   1.672   2.897   1.634  1.0063 -1.5434 -0.1857
  525TIP3   OH223065   0.067   0.103  13.833 -0.6790 -0.0174  0.0492
  525TIP3    H123066   0.028   0.125  13.748 -1.3690  0.2614  0.4277
  525TIP3    H223067   0.019   0.157  13.896  0.3766  0.3960  0.5334
  526TIP3   OH223068   3.866   0.980   3.464 -0.4495 -0.1145 -0.0627
  526TIP3    H123069   3.840   0.921   3.393 -1.5630  0.8616 -0.5047
  526TIP3    H223070   3.957   0.956   3.484 -0.5432 -1.2615 -0.9286
  527TIP3   OH223071   0.412   6.414   1.081 -0.1831 -0.2566  0.1541
  527TIP3    H123072   0.494   6.384   1.041  0.7377  0.8916  1.0865
  527TIP3    H223073   0.361   6.450   1.009  0.3162 -0.6070 -0.3802
  528TIP3   OH223074   0.378   6.801  12.605  0.4349  0.2280  0.5435
  528TIP3    H123075   0.353   6.709  12.605  0.1743  0.2975  0.5447
  528TIP3    H223076   0.360   6.831  12.516 -3.5703  1.3525  1.4906
  529TIP3   OH223077   3.273   0.690  17.102 -0.0067  0.3516 -0.2544
  529TIP3    H123078   3.233   0.635  17.169  0.8665  1.7629  1.4959
  529TIP3    H223079   3.222   0.771  17.102 -0.0245  0.3640 -1.3524
  530TIP3   OH223080   0.199   5.922  16.105  0.0494 -0.0622  0.1602
  530TIP3    H123081   0.265   5.858  16.077 -0.8120 -0.1491 -1.8355
  530TIP3    H223082   0.123   5.869  16.127  0.0638  0.1486  0.7220
  531TIP3   OH223083   5.945   3.640   1.348 -0.1254  0.0476  0.2334
  531TIP3    H123084   5.886   3.581   1.394  0.0803  0.0593  0.5137
  531TIP3    H223085   5.889   3.684   1.283 -0.3716 -0.1156  0.3347
  532TIP3   OH223086   0.531   1.304  14.979 -0.2188 -0.1492  0.1483
  532TIP3    H123087   0.597   1.266  14.922  0.3207  0.0388  0.6366
  532TIP3    H223088   0.509   1.388  14.939  0.7353  0.3413  0.6212
  533TIP3   OH223089   5.662   5.709  16.653 -0.2949 -0.0276  0.0587
  533TIP3    H123090   5.707   5.626  16.666 -1.0475 -0.4160  0.2383
  533TIP3    H223091   5.682   5.734  16.563 -0.1049 -0.4286 -0.0101
  534TIP3   OH223092   5.497   3.822  10.498 -0.3406 -0.5867  0.3219
  534TIP3    H123093   5.576   3.866  10.529 -0.4415  0.3397 -0.6820
  534TIP3    H223094   5.525   3.777  10.418 -1.0640  0.6776 -0.6679
  535TIP3   OH223095   1.709   1.965   2.423  0.3230 -0.3620 -0.3177
  535TIP3    H123096   1.616   1.972   2.446  0.4686 -2.3064  1.2366
  535TIP3    H223097   1.746   2.050   2.444 -0.7267 -0.2513  1.2954
  536TIP3   OH223098   2.931   3.742   0.214 -0.4866 -0.1948  0.8446
  536TIP3    H123099   2.922   3.712   0.305 -0.1251 -2.7003  0.1432
  536TIP3    H223100   2.976   3.670   0.170  1.6680  1.9917 -0.8239
  537TIP3   OH223101   1.799   1.967  16.587 -0.0667 -0.3480 -0.2026
  537TIP3    H123102   1.830   1.890  16.539  0.4531 -0.6923  0.6754
  537TIP3    H223103   1.704   1.966  16.573 -0.1369 -1.4714  0.2581
  538TIP3   OH223104   5.247   5.701  11.555  0.0972  0.3010 -0.0156
  538TIP3    H123105   5.161   5.736  11.533 -0.9571  0.9294  4.2377
  538TIP3    H223106   5.299   5.778  11.581  0.5238 -0.3987  1.3381
  539TIP3   OH223107   0.485   0.772   0.051  0.0215 -0.1044 -0.6984
  539TIP3    H123108   0.478   0.690   0.100  1.3393  0.2355  0.0996
  539TIP3    H223109   0.396   0.791   0.023 -0.4560 -1.2920 -0.0433
  540TIP3   OH223110   3.972   5.843  16.194 -0.1241 -0.1761  0.2122
  540TIP3    H123111   4.065   5.822  16.204 -0.2202 -0.8669 -0.2750
  540TIP3    H223112   3.936   5.768  16.147 -0.3089  1.4807 -2.4801
  541TIP3   OH223113   2.722   0.448   1.859 -0.3966 -0.4736  0.4094
  541TIP3    H123114   2.643   0.501   1.858  2.0549  3.6322 -0.1841
  541TIP3    H223115   2.716   0.394   1.780 -1.5970  1.4357 -0.8785
  542TIP3   OH223116   4.620   4.814   3.087  0.1727 -0.5592 -0.2854
  542TIP3    H123117   4.592   4.767   3.166  0.2026  0.0072  0.0696
  542TIP3    H223118   4.586   4.903   3.099  3.0422  0.5274  0.7498
  543TIP3   OH223119   1.036   1.174   4.842  0.1713 -0.0944  0.0864
  543TIP3    H123120   1.123   1.135   4.829  0.1989  0.4172 -1.4791
  543TIP3    H223121   0.987   1.150   4.764 -0.4610  1.2782  0.0340
  544TIP3   OH223122   6.556   3.792  15.631 -0.5859  0.1292 -0.3555
  544TIP3    H123123   6.477   3.746  15.606 -0.3290 -1.2723  1.2571
  544TIP3    H223124   6.581   3.755  15.715  0.7978  1.7967  0.0476
  545TIP3   OH223125   3.907   1.859   2.293  0.2296  0.3297 -0.3367
  545TIP3    H123126   3.858   1.938   2.272 -0.7616 -0.1422  0.1478
  545TIP3    H223127   3.867   1.791   2.239 -1.3018 -0.5615  1.7809
  546TIP3   OH223128   3.267   2.812  15.105 -0.2404  0.5275  0.3868
  546TIP3    H123129   3.320   2.733  15.117  1.6767  1.7129  0.0800
  546TIP3    H223130   3.208   2.812  15.180 -0.1483 -1.0853  0.4977
  547TIP3   OH223131   6.087   0.661   5.218  0.2493  0.1231  0.1360
  547TIP3    H123132   6.062   0.662   5.126  0.9983  3.4370 -0.1627
  547TIP3    H223133   6.005   0.674   5.266 -0.0334 -0.8459 -0.0512
  548TIP3   OH223134   6.030   6.200   1.425 -0.1373  0.2191  0.0271
  548TIP3    H123135   6.091   6.143   1.473  1.2444  0.9752 -0.7707
  548TIP3    H223136   5.970   6.232   1.492  0.9988  0.2955  1.0451
  549TIP3   OH223137   4.481   2.377   3.801  0.4278 -0.0452  0.1534
  549TIP3    H123138   4.544   2.342   3.864 -0.1174 -0.6496  0.3774
  549TIP3    H223139   4.532   2.439   3.748  1.7101 -1.8514 -0.8842
  550TIP3   OH223140   4.798   3.705  11.551 -0.2895  0.0094  0.3869
  550TIP3    H123141   4.713   3.750  11.543 -0.1764 -0.0137 -1.2711
  550TIP3    H223142   4.794   3.663  11.637 -1.6391  0.6550  0.6813
  551TIP3   OH223143   4.100   6.028   4.547  0.0049 -0.7806 -0.0087
  551TIP3    H123144   4.027   5.989   4.596  2.3555 -2.6451  2.3117
  551TIP3    H223145   4.098   5.984   4.463 -0.7738 -1.7980  0.5175
  552TIP3   OH223146   4.140   4.872  15.866  0.2715 -0.1663 -0.2539
  552TIP3    H123147   4.221   4.923  15.863  0.3579 -0.1788  1.1591
  552TIP3    H223148   4.164   4.791  15.909 -0.5206 -0.1109  0.3125
  553TIP3   OH223149   2.887   2.624   5.150  0.0814  0.4790  0.4319
  553TIP3    H123150   2.921   2.665   5.230  1.6226 -0.8554  0.5308
  553TIP3    H223151   2.899   2.530   5.165  1.7042  0.2361 -1.8692
  554TIP3   OH223152   5.714   6.084   0.805 -0.5235  0.7724 -0.7886
  554TIP3    H123153   5.672   6.064   0.721 -0.1633 -0.8476 -0.6191
  554TIP3    H223154   5.645   6.122   0.859 -0.9388  1.1531 -1.5781
  555TIP3   OH223155   5.803   6.198  11.520 -0.0131  0.4223  0.7426
  555TIP3    H123156   5.789   6.214  11.427  0.6953  0.8336  0.7020
  555TIP3    H223157   5.868   6.263  11.546  1.6966 -1.2878  0.9609
  556TIP3   OH223158   1.378   4.728   1.527 -0.3967 -0.0683 -0.1066
  556TIP3    H123159   1.334   4.803   1.568  0.1310  0.2442 -0.1061
  556TIP3    H223160   1.470   4.754   1.522 -0.1105 -0.9394  0.4022
  557TIP3   OH223161   5.526   4.745   4.022  0.2502  0.5578  0.2035
  557TIP3    H123162   5.467   4.688   4.071  0.3053  1.0203  0.8253
  557TIP3    H223163   5.539   4.701   3.938 -1.7385  0.9051 -0.3353
  558TIP3   OH223164   4.040   2.986  12.337  0.0137 -0.0314  0.3497
  558TIP3    H123165   3.981   2.936  12.281  0.1297  0.2644 -0.0369
  558TIP3    H223166   4.096   3.035  12.277 -0.0283  0.4846  0.7193
  559TIP3   OH223167   3.162   5.731   3.085  0.8080  0.2724 -0.5187
  559TIP3    H123168   3.125   5.655   3.131  0.4581  0.7563  0.0159
  559TIP3    H223169   3.255   5.709   3.075  0.8878  0.1291  0.4019
  560TIP3   OH223170   6.635   4.074   6.067  0.1737 -0.0001 -0.3788
  560TIP3    H123171   6.718   4.121   6.072  0.3983 -0.4144 -0.1898
  560TIP3    H223172   6.647   3.997   6.123 -0.1642 -0.3220 -0.7383
  561TIP3   OH223173   2.418   3.884   3.946 -0.3449  0.4829  0.2168
  561TIP3    H123174   2.390   3.883   3.854 -0.6356 -1.5915  0.3014
  561TIP3    H223175   2.513   3.877   3.941 -0.2579  1.4916  0.0848
  562TIP3   OH223176   3.925   5.605  14.971  0.2739  0.1100 -0.5794
  562TIP3    H123177   3.854   5.559  14.925 -0.9037  1.2189  0.0724
  562TIP3    H223178   3.910   5.697  14.952  1.3345  0.3944 -0.1033
  563TIP3   OH223179   2.792   0.714  16.582  0.1084  0.4990  0.2710
  563TIP3    H123180   2.852   0.743  16.514  0.0542  1.0636  0.4591
  563TIP3    H223181   2.709   0.701  16.536 -0.9555  4.3461  0.7237
  564TIP3   OH223182   5.463   6.271   2.483  0.1797  0.2108  0.0931
  564TIP3    H123183   5.460   6.196   2.424  1.9130 -0.8558  1.2890
  564TIP3    H223184   5.419   6.241   2.563 -1.6562  1.4604 -0.3761
  565TIP3   OH223185   2.428   3.100   1.867  0.7219 -0.4237 -0.1747
  565TIP3    H123186   2.344   3.103   1.911  0.3153 -0.8763 -0.9082
  565TIP3    H223187   2.474   3.178   1.898  0.9303 -1.3232  1.9641
  566TIP3   OH223188   2.369   1.983   5.494 -0.0974  0.4494  0.2899
  566TIP3    H123189   2.301   2.051   5.493  0.8286  1.4247 -1.3804
  566TIP3    H223190   2.400   1.980   5.403 -0.3096 -2.4473  0.2436
  567TIP3   OH223191   4.269   3.486   4.451 -0.1341  0.3646 -0.6444
  567TIP3    H123192   4.194   3.435   4.482 -0.7009  0.7776 -1.2896
  567TIP3    H223193   4.343   3.454   4.502 -1.3417  2.4245  2.7358
  568TIP3   OH223194   4.310   2.401  12.806 -0.3886 -0.2320  0.3058
  568TIP3    H123195   4.361   2.329  12.843 -0.6419 -0.8133 -0.4378
  568TIP3    H223196   4.277   2.448  12.882  1.8482  0.6146  0.8275
  569TIP3   OH223197   3.975   6.533  13.296 -0.4705 -0.5990  0.0848
  569TIP3    H123198   3.958   6.555  13.205 -0.7696  2.1561  0.7194
  569TIP3    H223199   4.041   6.596  13.325 -0.4423 -1.3437  1.7904
  570TIP3   OH223200   0.194   2.729  13.885  0.5773 -0.1699 -0.7649
  570TIP3    H123201   0.136   2.800  13.857  0.0938 -0.7869 -1.3599
  570TIP3    H223202   0.152   2.693  13.963  2.0111  1.6574  0.9444
  571TIP3   OH223203   0.416   6.719   3.492  0.3655 -0.0750  0.6046
  571TIP3    H123204   0.369   6.753   3.416  1.0592  1.1818  0.7076
  571TIP3    H223205   0.428   6.626   3.473 -3.6827 -0.9529  1.3728
  572TIP3   OH223206   1.381   2.713   4.090  0.2981  0.6827  0.2786
  572TIP3    H123207   1.363   2.692   3.999 -0.7841 -0.8383  0.7944
  572TIP3    H223208   1.351   2.803   4.101  2.0757  1.5250 -1.2599
  573TIP3   OH223209   6.451   3.063   0.087  0.6510  0.1683  0.4216
  573TIP3    H123210   6.523   3.042   0.146 -0.8484 -1.3446  1.8161
  573TIP3    H223211   6.417   2.978   0.061  0.9104  0.8076 -2.2636
  574TIP3   OH223212   4.370   1.499   2.094  0.4520 -0.2430 -0.1179
  574TIP3    H123213   4.341   1.407   2.095 -0.1178 -0.0695  1.0442
  574TIP3    H223214   4.464   1.494   2.110  0.5693 -0.6627 -0.9010
  575TIP3   OH223215   5.421   0.640   3.080  0.0900 -0.6053  0.2720
  575TIP3    H123216   5.504   0.629   3.034 -0.2631 -0.9906 -0.2940
  575TIP3    H223217   5.445   0.664   3.169  0.7758  0.6516 -0.2442
  576TIP3   OH223218   0.374   5.974   2.000  0.2856 -0.4105  0.8230
  576TIP3    H123219   0.416   5.891   1.980  0.8557 -0.1065  0.7440
  576TIP3    H223220   0.446   6.037   2.004 -0.1232  0.0472  1.0488
  577TIP3   OH223221   5.071   1.597   1.034  0.3017  0.1911 -0.4687
  577TIP3    H123222   5.044   1.674   0.984 -2.3358  0.8734  1.7417
  577TIP3    H223223   5.119   1.633   1.109 -0.5071 -0.3008  0.3136
  578TIP3   OH223224   4.723   3.628   3.222  0.6073 -0.8557  0.0568
  578TIP3    H123225   4.710   3.562   3.154  0.0156  1.3414 -2.1157
  578TIP3    H223226   4.775   3.696   3.179 -1.1011  1.3446  1.2972
  579TIP3   OH223227   0.942   2.816   6.097 -0.0394  1.0723 -0.0868
  579TIP3    H123228   0.878   2.881   6.067 -0.2670  0.5949 -0.6613
  579TIP3    H223229   0.961   2.840   6.188 -0.4091  1.7097 -0.1749
  580TIP3   OH223230   6.717   6.413  12.891  0.1858  0.2507  0.2239
  580TIP3    H123231   6.788   6.384  12.949  1.0811  2.7058  0.4872
  580TIP3    H223232   6.724   6.355  12.815  2.9299  0.7297 -0.0228
  581TIP3   OH223233   4.668   3.117  14.178  0.5221 -0.3147  0.1306
  581TIP3    H123234   4.714   3.159  14.250  1.4014  0.9558 -1.1279
  581TIP3    H223235   4.734   3.107  14.109 -0.0190 -2.4588 -0.1685
  582TIP3   OH223236   0.436   4.869  16.672  0.5634  0.3403  0.2295
  582TIP3    H123237   0.464   4.889  16.761 -0.2185  0.3884  0.4655
  582TIP3    H223238   0.483   4.788  16.651 -1.5617 -1.4208  1.8355
  583TIP3   OH223239   6.527   1.241  13.050 -0.8384  0.2903 -0.6607
  583TIP3    H123240   6.541   1.335  13.040 -1.0403  0.3086 -0.7554
  583TIP3    H223241   6.579   1.201  12.980  1.1418  0.2084  0.7647
  584TIP3   OH223242   6.761   5.448  13.490 -0.0653 -0.5589  0.7858
  584TIP3    H123243   6.804   5.529  13.518  0.2538 -1.0449  1.7561
  584TIP3    H223244   6.816   5.415  13.419 -0.7897  0.6038 -0.3708
  585TIP3   OH223245   3.145   3.979   3.818 -0.2133 -0.4529  0.0681
  585TIP3    H123246   3.160   3.959   3.910 -1.7156  0.4542  0.5418
  585TIP3    H223247   3.217   4.036   3.794  1.5338 -2.5637 -0.0281
  586TIP3   OH223248   3.733   6.456   0.814  0.0882 -0.5896 -0.7556
  586TIP3    H123249   3.698   6.443   0.902  0.4184 -1.3700 -0.7321
  586TIP3    H223250   3.760   6.548   0.813 -2.4806  0.2409 -0.9826
  587TIP3   OH223251   1.993   1.384  13.029  0.2939 -0.0255  0.1887
  587TIP3    H123252   1.925   1.422  12.974 -2.2138 -2.3595  1.4851
  587TIP3    H223253   2.024   1.308  12.980  0.3243 -0.2861  0.6055
  588TIP3   OH223254   5.849   4.830  12.963 -0.5950  0.5785  0.6696
  588TIP3    H123255   5.915   4.846  12.895 -1.2862 -0.3701 -0.2460
  588TIP3    H223256   5.891   4.860  13.044  1.6028 -1.4796  0.3807
  589TIP3   OH223257   0.444   3.617   3.120 -0.4313 -0.3413  0.0060
  589TIP3    H123258   0.380   3.687   3.134  0.2370 -0.2565  3.4333
  589TIP3    H223259   0.527   3.663   3.107 -0.4251 -0.4863 -0.4766
  590TIP3   OH223260   5.210   5.525   1.531  0.4769  0.5020 -0.0092
  590TIP3    H123261   5.215   5.459   1.601  3.3126  1.0557  0.4463
  590TIP3    H223262   5.163   5.599   1.571  1.3001  0.4741  1.0589
  591TIP3   OH223263   0.143   1.922  16.859 -0.1735 -0.1429  0.4703
  591TIP3    H123264   0.048   1.925  16.846 -0.0831 -1.9853 -1.0498
  591TIP3    H223265   0.163   2.000  16.910 -2.4463  0.5204  0.4393
  592TIP3   OH223266   6.346   4.955   5.379  0.7585  0.2239 -0.0660
  592TIP3    H123267   6.298   5.022   5.428  1.7946 -0.4431  1.9474
  592TIP3    H223268   6.294   4.943   5.299  0.3798  3.1610 -0.3707
  593TIP3   OH223269   5.185   6.484   1.177 -0.4876 -0.5994 -0.6240
  593TIP3    H123270   5.187   6.395   1.212 -0.2476 -0.1649  0.5158
  593TIP3    H223271   5.131   6.478   1.098 -0.1100 -1.8312 -0.8111
  594TIP3   OH223272   3.037   4.518   3.174  0.4172 -0.1485  0.3363
  594TIP3    H123273   2.970   4.569   3.220 -1.0576 -0.7391 -1.0455
  594TIP3    H223274   3.008   4.519   3.083  0.9939 -2.4348  0.0756
  595TIP3   OH223275   5.015   3.608  10.807 -0.1474 -0.4911 -0.4136
  595TIP3    H123276   5.027   3.588  10.714 -1.9529  0.0856 -0.8052
  595TIP3    H223277   4.984   3.699  10.808  0.0570 -0.4200  0.7729
  596TIP3   OH223278   5.447   5.986  17.071  0.2749 -0.4512  0.0409
  596TIP3    H123279   5.509   6.055  17.047 -0.6607  0.9827  1.5328
  596TIP3    H223280   5.497   5.926  17.125  0.3968  0.7815  1.3671
  597TIP3   OH223281   5.407   2.270  15.946 -0.3262 -0.2177 -0.1264
  597TIP3    H123282   5.441   2.307  16.028 -2.1020 -1.5014  1.2569
  597TIP3    H223283   5.467   2.303  15.879  0.8727  1.3276  1.5958
  598TIP3   OH223284   5.893   6.556  15.444 -1.2480  0.5421 -0.5186
  598TIP3    H123285   5.887   6.622  15.513  1.1718  0.9415 -0.5925
  598TIP3    H223286   5.962   6.588  15.386  0.1436 -2.1000 -0.4590
  599TIP3   OH223287   2.327   0.354  14.747 -0.5824  0.4089  0.1868
  599TIP3    H123288   2.275   0.345  14.826  0.5037  0.1741  0.8980
  599TIP3    H223289   2.283   0.298  14.683 -1.1825  0.1984  0.7711
  600TIP3   OH223290   2.501   0.132  11.440 -0.2046  0.4642  0.1819
  600TIP3    H123291   2.537   0.203  11.387  0.7431  1.8312  2.4724
  600TIP3    H223292   2.524   0.052  11.393  0.4032  1.5879 -1.5217
  601TIP3   OH223293   2.247   0.961   2.104 -0.2931  0.2373 -0.4373
  601TIP3    H123294   2.192   1.037   2.083  0.1226  0.8571  0.5984
  601TIP3    H223295   2.334   0.984   2.072 -0.2355  0.0504 -0.4186
  602TIP3   OH223296   0.177   3.424  13.902  0.9030 -0.1985  0.0835
  602TIP3    H123297   0.215   3.357  13.845  1.2443  1.6023 -1.9777
  602TIP3    H223298   0.089   3.392  13.921  1.1942 -1.4176 -0.5099
  603TIP3   OH223299   2.436   0.476  17.081  0.1975  0.3038  0.4664
  603TIP3    H123300   2.444   0.506  17.172  1.4390 -0.9999  0.8401
  603TIP3    H223301   2.526   0.459  17.054 -0.3294 -2.7516  0.2538
  604TIP3   OH223302   1.438   4.103  14.384 -0.0616  0.0552  0.4454
  604TIP3    H123303   1.426   4.048  14.307 -1.0195  0.9583 -0.0791
  604TIP3    H223304   1.533   4.115  14.391  0.0634 -0.4893 -0.2537
  605TIP3   OH223305   4.466   3.837   3.772 -0.3174 -0.3161  1.0563
  605TIP3    H123306   4.449   3.931   3.760 -0.3101 -0.3141  1.0610
  605TIP3    H223307   4.379   3.798   3.784 -0.4464 -0.5327 -0.4334
  606TIP3   OH223308   3.888   3.989   3.784  0.5902  0.5673 -0.0314
  606TIP3    H123309   3.856   4.076   3.805 -0.2021  0.1885  0.3859
  606TIP3    H223310   3.854   3.933   3.854  0.8235 -0.1334 -0.4616
  607TIP3   OH223311   3.759   1.210   0.988  0.4296 -0.6030  0.0822
  607TIP3    H123312   3.824   1.176   1.050  0.2617  0.1106  0.6668
  607TIP3    H223313   3.811   1.254   0.920  0.5667  0.5022  0.8683
  608TIP3   OH223314   2.046   0.293  11.679 -0.2374 -0.9627 -0.2708
  608TIP3    H123315   2.031   0.352  11.605 -1.1672 -0.8018  0.0236
  608TIP3    H223316   2.141   0.292  11.691 -0.1622 -0.0587 -0.7121
  609TIP3   OH223317   3.358   3.925  12.051 -0.1244  0.1608  0.7580
  609TIP3    H123318   3.403   4.000  12.012  0.1222 -0.5835 -0.4308
  609TIP3    H223319   3.266   3.939  12.030  0.0809 -0.6085 -0.8084
  610TIP3   OH223320   0.877   0.651  12.355  0.3802  0.1431 -0.5501
  610TIP3    H123321   0.914   0.658  12.267 -0.0758 -3.3087 -1.1266
  610TIP3    H223322   0.784   0.667  12.343  0.4830  0.8835 -0.4405
  611TIP3   OH223323   1.230   4.749  13.431  0.2050 -0.1099  0.4156
  611TIP3    H123324   1.266   4.773  13.346  1.0032  0.3778  0.8825
  611TIP3    H223325   1.136   4.767  13.423  0.5090  1.5161  0.1705
  612TIP3   OH223326   2.201   1.914  13.363  0.0385 -0.0130 -0.8160
  612TIP3    H123327   2.145   1.988  13.383 -0.0509 -0.0297 -1.0038
  612TIP3    H223328   2.250   1.940  13.285  0.9291  0.3458 -0.1591
  613TIP3   OH223329   3.520   5.667  14.633  0.1119 -0.2212  0.4617
  613TIP3    H123330   3.607   5.709  14.633 -0.4054  0.9391  1.7417
  613TIP3    H223331   3.536   5.581  14.673  0.5617  0.2915  1.4343
  614TIP3   OH223332   4.103   2.281  16.224  0.8955 -0.1045 -0.0782
  614TIP3    H123333   4.040   2.342  16.261  1.6159  0.2222  0.6522
  614TIP3    H223334   4.156   2.254  16.298  1.4975 -0.5035 -0.6441
  615TIP3   OH223335   2.488   1.198  11.420  0.3227  0.6184 -0.4148
  615TIP3    H123336   2.401   1.159  11.415  0.7681 -0.5219  0.3107
  615TIP3    H223337   2.535   1.163  11.344  1.2396 -1.6910  1.1039
  616TIP3   OH223338   2.514   5.956  14.676 -0.2615  0.1978 -0.1677
  616TIP3    H123339   2.422   5.983  14.675 -0.3892 -0.1745  0.5317
  616TIP3    H223340   2.552   6.007  14.748  0.1203  0.4758 -0.5641
  617TIP3   OH223341   2.639   2.883   3.310  0.4469 -0.2941 -0.8503
  617TIP3    H123342   2.543   2.883   3.309  0.4371 -0.5205 -0.2633
  617TIP3    H223343   2.662   2.791   3.325  0.7475 -0.1334 -0.3316
  618TIP3   OH223344   2.390   5.312   5.368  0.3359 -0.1229  0.4087
  618TIP3    H123345   2.443   5.392   5.365  1.1975 -0.6854  0.1688
  618TIP3    H223346   2.447   5.245   5.329 -2.0089  0.0725 -4.0326
  619TIP3   OH223347   0.468   6.792  11.833  0.1377 -0.0633  0.1045
  619TIP3    H123348   0.456   6.771  11.741 -0.6104 -0.2936  0.2511
  619TIP3    H223349   0.531   6.727  11.864 -1.5854 -1.6796  0.3705
  620TIP3   OH223350   6.758   6.078   2.751 -0.7168 -0.1173  0.4693
  620TIP3    H123351   6.714   6.002   2.788  0.7553 -0.6356  1.2565
  620TIP3    H223352   6.703   6.153   2.776 -1.3437 -0.7644  1.0671
  621TIP3   OH223353   6.551   3.855  11.240  0.3686 -0.2750  0.1636
  621TIP3    H123354   6.515   3.940  11.268  1.1461 -0.0057  0.3837
  621TIP3    H223355   6.599   3.875  11.160 -1.2890 -0.9265 -1.0416
  622TIP3   OH223356   4.271   2.247  11.759 -0.1679  0.1296 -0.1879
  622TIP3    H123357   4.317   2.302  11.695 -2.7008  1.7858 -0.7195
  622TIP3    H223358   4.247   2.169  11.710  1.7509 -0.6693  0.0380
  623TIP3   OH223359   4.750   3.084   2.859 -0.1090  0.2757  0.0902
  623TIP3    H123360   4.796   3.115   2.781  0.5310 -1.0910 -0.0950
  623TIP3    H223361   4.712   3.164   2.897  1.7736  1.3437 -0.1537
  624TIP3   OH223362   5.034   3.591  14.838 -0.1467 -0.7939  0.0403
  624TIP3    H123363   5.123   3.581  14.804  0.3971 -0.4245  1.2814
  624TIP3    H223364   5.041   3.664  14.900 -1.2189 -1.0468  0.4725
  625TIP3   OH223365   3.068   4.780   5.428  0.3009 -0.0720 -0.8543
  625TIP3    H123366   3.103   4.705   5.380  0.6972  0.9383 -2.2272
  625TIP3    H223367   3.143   4.816   5.475 -0.2928 -1.6932  1.5357
  626TIP3   OH223368   4.726   4.390  14.139 -0.5101  0.4428  0.6682
  626TIP3    H123369   4.691   4.338  14.067 -1.7851  1.3879  0.5857
  626TIP3    H223370   4.813   4.353  14.154 -0.0670  0.4481 -1.5784
  627TIP3   OH223371   1.744   1.765   6.108 -0.1963 -0.9452 -0.2973
  627TIP3    H123372   1.740   1.845   6.056  1.8413 -1.1330 -0.8486
  627TIP3    H223373   1.744   1.794   6.199  1.8121 -0.1655 -0.4940
  628TIP3   OH223374   4.078   3.253   0.189 -0.1806 -0.0768 -0.5124
  628TIP3    H123375   3.984   3.270   0.181 -0.3711 -0.3474  0.9335
  628TIP3    H223376   4.116   3.339   0.204 -0.2760 -0.0573 -0.3864
  629TIP3   OH223377   3.474   4.999   0.236  0.0023  0.3068 -0.2338
  629TIP3    H123378   3.502   5.090   0.224 -0.9378  0.5618 -0.5693
  629TIP3    H223379   3.493   4.980   0.328 -0.5171  1.1139  0.0516
  630TIP3   OH223380   3.540   3.047   2.263 -0.4744 -0.4915 -0.4910
  630TIP3    H123381   3.631   3.070   2.285 -0.3691 -0.4382 -0.9577
  630TIP3    H223382   3.536   2.952   2.275 -0.1533 -0.5952 -1.1478
  631TIP3   OH223383   2.250   4.034  12.342  0.1063  0.5113  0.3884
  631TIP3    H123384   2.258   4.127  12.320  0.6767  0.9155  2.1345
  631TIP3    H223385   2.326   3.993  12.301  0.7679  1.1153  0.9787
  632TIP3   OH223386   3.496   4.367   5.168 -0.1425  0.0888  0.0853
  632TIP3    H123387   3.443   4.429   5.217 -4.2701 -2.8059 -0.1502
  632TIP3    H223388   3.482   4.390   5.076 -0.7452 -0.4693  0.0320
  633TIP3   OH223389   0.980   1.662   1.627  0.0200 -0.7517 -0.5284
  633TIP3    H123390   0.949   1.571   1.624  0.6385 -1.0213  0.5349
  633TIP3    H223391   1.073   1.655   1.646 -0.3756  0.0980  2.1650
  634TIP3   OH223392   0.357   1.265  13.863 -0.7518 -0.5119  0.0556
  634TIP3    H123393   0.390   1.355  13.865  0.2273 -0.8680  0.8398
  634TIP3    H223394   0.289   1.263  13.929  0.5330 -0.8025  1.4197
  635TIP3   OH223395   3.851   4.117  11.238 -0.3633 -0.1475  0.1594
  635TIP3    H123396   3.932   4.141  11.284  0.5052 -0.0392 -1.3501
  635TIP3    H223397   3.877   4.043  11.183 -1.6606 -1.0295  0.7017
  636TIP3   OH223398   0.766   6.403  16.790  0.3096 -0.4493 -0.0564
  636TIP3    H123399   0.737   6.478  16.842 -0.9355 -0.6886 -0.3826
  636TIP3    H223400   0.767   6.436  16.700 -0.3595 -0.8484 -0.2161
  637TIP3   OH223401   3.852   6.378   2.684  0.1709  0.0499 -0.3536
  637TIP3    H123402   3.844   6.452   2.624  3.4783  0.5268 -0.4267
  637TIP3    H223403   3.943   6.382   2.715  0.0318 -3.0746  0.8586
  638TIP3   OH223404   4.829   1.498  10.965 -0.0654 -0.0968  0.3048
  638TIP3    H123405   4.759   1.537  11.017  0.2028 -0.6170  1.0791
  638TIP3    H223406   4.810   1.404  10.966  0.5255 -0.2216  0.3703
  639TIP3   OH223407   0.539   0.072  15.684  0.0723 -0.2991  0.2868
  639TIP3    H123408   0.596   0.148  15.688 -1.0178  0.5873 -0.4256
  639TIP3    H223409   0.480   0.089  15.610  0.1415 -2.0833 -0.2367
  640TIP3   OH223410   2.709   2.117   5.371 -0.2994 -0.1449 -0.4748
  640TIP3    H123411   2.747   2.056   5.434 -1.2305  0.2514  0.5000
  640TIP3    H223412   2.680   2.191   5.424  1.5012  1.5338 -1.7177
  641TIP3   OH223413   6.470   6.813  11.960  0.0896 -0.0242  0.2017
  641TIP3    H123414   6.448   6.890  11.908  1.3157  0.7061  0.7250
  641TIP3    H223415   6.496   6.747  11.896  2.5659  1.1797 -0.1759
  642TIP3   OH223416   3.222   0.027   4.722 -0.0237  0.2397  0.1759
  642TIP3    H123417   3.269  -0.043   4.768 -0.5256 -0.2131  0.0201
  642TIP3    H223418   3.230   0.103   4.779 -0.6668 -0.3227  1.0437
  643TIP3   OH223419   3.337   2.382   5.830  0.5477 -0.0298 -0.1052
  643TIP3    H123420   3.341   2.378   5.925  0.4305 -3.6106 -0.1433
  643TIP3    H223421   3.249   2.414   5.811  0.6118  0.8264  0.9257
  644TIP3   OH223422   4.138   0.059  16.160  0.1833 -0.2806  0.5992
  644TIP3    H123423   4.148  -0.028  16.201  0.9987  0.2742  1.6357
  644TIP3    H223424   4.078   0.106  16.219  1.0669  0.4036  0.9737
  645TIP3   OH223425   4.473   5.842  12.546 -0.5139  0.6695  0.1059
  645TIP3    H123426   4.401   5.854  12.608 -0.2606 -0.0397  0.5475
  645TIP3    H223427   4.443   5.773  12.487 -0.0220  0.0376  0.5788
  646TIP3   OH223428   0.246   5.215   0.255  0.8156  0.2941 -0.0888
  646TIP3    H123429   0.332   5.176   0.241  1.2072 -0.0218  2.7300
  646TIP3    H223430   0.193   5.143   0.290 -0.2958  0.7737 -0.7399
  647TIP3   OH223431   5.054   3.011   2.721 -0.0176 -0.5398  0.3546
  647TIP3    H123432   4.975   3.052   2.687 -0.4062 -0.1856  1.6398
  647TIP3    H223433   5.100   3.081   2.766  1.2126 -0.6683 -0.6431
  648TIP3   OH223434   4.864   6.108  15.669 -0.2465  0.4452 -0.4368
  648TIP3    H123435   4.812   6.172  15.621  1.2282  1.3668 -0.8845
  648TIP3    H223436   4.899   6.050  15.602  0.2839  0.5842 -0.2874
  649TIP3   OH223437   5.593   1.646   1.286 -0.8065  0.0290 -0.1835
  649TIP3    H123438   5.595   1.571   1.346  0.6724 -0.2844 -0.5851
  649TIP3    H223439   5.574   1.721   1.341  1.4374 -0.1170  0.8853
  650TIP3   OH223440   3.163   4.886  12.822  0.4919 -0.2974 -0.4651
  650TIP3    H123441   3.239   4.945  12.817  1.2325 -1.2179 -0.4014
  650TIP3    H223442   3.149   4.874  12.916 -0.0564  0.2715 -0.4731
  651TIP3   OH223443   0.883   5.179   2.680 -0.2855 -0.0724 -0.2206
  651TIP3    H123444   0.861   5.228   2.601  0.0766  0.0589 -0.2411
  651TIP3    H223445   0.945   5.113   2.650 -1.7142 -1.3847 -0.4445
  652TIP3   OH223446   5.206   1.883  16.223 -0.7183  0.2790 -0.5359
  652TIP3    H123447   5.145   1.814  16.196 -2.1025  0.4139  1.9453
  652TIP3    H223448   5.291   1.839  16.225 -1.3094 -0.9256 -0.5686
  653TIP3   OH223449   2.537   5.205  15.171  0.3160  0.3297 -0.3253
  653TIP3    H123450   2.445   5.193  15.196  0.7104  0.5559  1.3394
  653TIP3    H223451   2.570   5.115  15.164 -0.3820  0.1962 -2.4502
  654TIP3   OH223452   5.902   3.526  14.604 -0.2087  0.7025  0.0986
  654TIP3    H123453   5.997   3.524  14.601 -0.2075  0.9362 -0.0502
  654TIP3    H223454   5.879   3.495  14.691 -0.0676 -1.6536 -0.6445
  655TIP3   OH223455   0.915   1.861   3.893  0.1203 -0.5714  0.1358
  655TIP3    H123456   0.986   1.807   3.928  0.7378 -0.7212 -1.2589
  655TIP3    H223457   0.868   1.802   3.833 -1.7965 -0.7595  1.7191
  656TIP3   OH223458   3.834   4.399  13.684  0.0909  0.1122  0.1304
  656TIP3    H123459   3.764   4.336  13.665 -1.3237  2.2697 -2.7203
  656TIP3    H223460   3.915   4.350  13.669 -0.9411 -1.0690 -2.1719
  657TIP3   OH223461   2.698   3.023   3.741  0.4944 -0.8819  0.5551
  657TIP3    H123462   2.667   3.052   3.655  0.7700 -0.9301  0.4411
  657TIP3    H223463   2.767   3.085   3.765  0.8790 -1.2625  0.4454
  658TIP3   OH223464   3.835   1.089   3.973 -0.1794 -0.6298  0.5249
  658TIP3    H123465   3.872   1.071   4.059 -2.3241  4.3796  2.9066
  658TIP3    H223466   3.754   1.038   3.971 -1.2137  0.8129  2.5773
  659TIP3   OH223467   4.393   5.412   3.297  0.6687 -0.1546  0.2466
  659TIP3    H123468   4.320   5.351   3.286  0.6548 -0.0176 -0.4211
  659TIP3    H223469   4.355   5.485   3.347 -0.7802  1.7835 -3.2930
  660TIP3   OH223470   3.828   3.804  13.296  0.3338  0.1027 -0.5998
  660TIP3    H123471   3.792   3.783  13.210  1.1059 -0.1935 -0.8600
  660TIP3    H223472   3.846   3.718  13.335  1.6511  0.2384 -0.8653
  661TIP3   OH223473   6.479   6.251  12.116 -0.1762 -0.0744  0.6080
  661TIP3    H123474   6.505   6.286  12.201  0.9819 -0.6813  0.5304
  661TIP3    H223475   6.411   6.186  12.136  0.1979 -0.3222  1.0943
  662TIP3   OH223476   5.841   3.883   1.499  0.0490  0.0789 -0.2462
  662TIP3    H123477   5.840   3.979   1.505 -0.2657  0.1927 -1.8019
  662TIP3    H223478   5.927   3.862   1.464 -0.8265  0.0092 -2.4911
  663TIP3   OH223479   5.269   3.662  14.726  0.7736 -0.3995 -0.0595
  663TIP3    H123480   5.265   3.671  14.631 -0.3323 -4.1681 -0.5002
  663TIP3    H223481   5.363   3.656  14.746  1.0702  1.4788 -0.6923
  664TIP3   OH223482   0.039   1.517   1.297 -0.2380  0.3878 -0.3602
  664TIP3    H123483   0.104   1.516   1.368 -0.6005  0.5913 -0.0198
  664TIP3    H223484   0.079   1.466   1.227  0.2065  0.3438 -0.0778
  665TIP3   OH223485   4.990   5.334  16.210  0.3812  0.0558 -0.3776
  665TIP3    H123486   4.981   5.428  16.192  1.0925  0.5438  1.5412
  665TIP3    H223487   5.021   5.330  16.300 -1.1360 -2.1017  0.1268
  666TIP3   OH223488   6.832   6.807   3.207  0.0581 -0.0135 -0.1290
  666TIP3    H123489   6.807   6.836   3.294  0.7619  2.7489 -0.7737
  666TIP3    H223490   6.760   6.750   3.179 -2.0029  1.9897  0.8163
  667TIP3   OH223491   3.467   3.545  16.426 -0.4362  0.2549  0.0694
  667TIP3    H123492   3.389   3.492  16.439  0.5595 -2.4464 -3.2658
  667TIP3    H223493   3.532   3.509  16.487 -1.2768  1.5651  1.8295
  668TIP3   OH223494   3.372   2.141  15.754 -0.0708  0.3782 -0.2813
  668TIP3    H123495   3.348   2.206  15.687 -1.6042 -1.1324 -1.2889
  668TIP3    H223496   3.425   2.190  15.817 -1.1082  2.5912 -1.0213
  669TIP3   OH223497   5.263   1.247   6.237 -0.6543  0.0101  0.0847
  669TIP3    H123498   5.263   1.337   6.270 -0.9819 -0.2599  0.8422
  669TIP3    H223499   5.354   1.232   6.211 -0.2512  0.0585  1.3825
  670TIP3   OH223500   1.272   4.056  13.505 -0.0316  0.0041 -0.1947
  670TIP3    H123501   1.335   4.126  13.485 -0.6090  0.3912 -0.6816
  670TIP3    H223502   1.325   3.987  13.544  0.3266  1.3471  1.8621
  671TIP3   OH223503   5.906   1.624  14.241 -0.5247 -0.0600 -0.2878
  671TIP3    H123504   5.845   1.575  14.186 -0.5758  0.2368 -0.5001
  671TIP3    H223505   5.988   1.576  14.235  0.2070  1.2966 -2.6644
  672TIP3   OH223506   0.273   1.873  15.723  0.2573 -0.1601 -0.3620
  672TIP3    H123507   0.247   1.795  15.772 -0.3239  0.3944  0.2318
  672TIP3    H223508   0.190   1.914  15.698  0.5244  1.2395  0.9077
  673TIP3   OH223509   4.886   1.492   1.581  0.1344  0.5277 -0.4296
  673TIP3    H123510   4.852   1.415   1.626 -0.0885 -0.1137 -1.6574
  673TIP3    H223511   4.947   1.531   1.643  0.3112 -0.6850  0.1865
  674TIP3   OH223512   1.510   0.440  12.553  0.3119  0.2489  0.2767
  674TIP3    H123513   1.542   0.453  12.642 -0.0058 -0.2814  0.4762
  674TIP3    H223514   1.590   0.430  12.500  0.5126 -1.5633  0.8450
  675TIP3   OH223515   6.476   1.797   3.011 -0.2776 -0.0268 -0.3685
  675TIP3    H123516   6.525   1.783   2.930  1.9345  2.0906  0.4653
  675TIP3    H223517   6.508   1.729   3.071  0.3755  0.2969 -0.3488
  676TIP3   OH223518   5.706   2.403  15.300 -0.5479 -0.5697  0.5635
  676TIP3    H123519   5.744   2.469  15.243 -1.9682 -0.8712 -0.8086
  676TIP3    H223520   5.620   2.438  15.325 -1.3660 -1.8788 -0.2633
  677TIP3   OH223521   0.697   4.512   3.984  0.4484 -0.0534  0.4415
  677TIP3    H123522   0.733   4.425   3.967  2.4424  0.8522 -0.1931
  677TIP3    H223523   0.720   4.529   4.075 -0.6647 -0.4692  0.8295
  678TIP3   OH223524   5.700   2.625  10.768 -0.3206 -0.7302 -0.4693
  678TIP3    H123525   5.649   2.556  10.811  3.0254 -1.7996  2.2296
  678TIP3    H223526   5.762   2.577  10.713  0.4318  0.2640 -0.4996
  679TIP3   OH223527   6.735   6.422  10.722  0.0999  0.3135 -0.5808
  679TIP3    H123528   6.778   6.473  10.791  0.6790  0.7313 -1.2371
  679TIP3    H223529   6.642   6.423  10.746  0.4856 -1.0193  1.1188
  680TIP3   OH223530   3.283   6.224   4.046  0.0453 -0.0480 -0.9091
  680TIP3    H123531   3.241   6.222   4.132 -1.5738 -0.4574 -1.6598
  680TIP3    H223532   3.318   6.136   4.034 -0.6076 -0.3016 -1.0466
  681TIP3   OH223533   5.552   5.196   6.195  0.6902  0.1880 -0.2874
  681TIP3    H123534   5.591   5.217   6.280  1.5135  0.0947 -0.6253
  681TIP3    H223535   5.460   5.180   6.214  0.7235  0.8207  0.4837
  682TIP3   OH223536   0.057   3.804  13.928  0.5111  0.2266 -0.2291
  682TIP3    H123537   0.036   3.878  13.984 -2.0486 -0.0415 -0.7380
  682TIP3    H223538   0.066   3.730  13.988 -1.6534  0.0544 -0.0461
  683TIP3   OH223539   5.076   2.297  12.355  0.1388 -0.0458 -0.4449
  683TIP3    H123540   5.131   2.336  12.422 -0.2648 -1.5319  0.8210
  683TIP3    H223541   5.034   2.223  12.399  0.6371 -1.7212 -2.5889
  684TIP3   OH223542   3.239   6.038   4.275  0.2694  0.1295  0.1519
  684TIP3    H123543   3.169   5.999   4.222  1.3926  0.5548 -1.7240
  684TIP3    H223544   3.193   6.081   4.347 -1.2367 -1.4338  0.2065
  685TIP3   OH223545   0.373   4.761   5.217  0.0833 -0.1820 -0.3554
  685TIP3    H123546   0.361   4.821   5.291  0.0702 -1.7118  0.9549
  685TIP3    H223547   0.286   4.721   5.205  0.5564 -1.4264  0.1881
  686TIP3   OH223548   4.802   6.195  15.359 -0.1113 -0.0690 -0.4194
  686TIP3    H123549   4.827   6.109  15.324  0.5731 -0.3942  0.8257
  686TIP3    H223550   4.885   6.239  15.376 -0.4396  0.3923  0.0362
  687TIP3   OH223551   1.911   2.436  11.135  1.3713 -0.1757 -0.1689
  687TIP3    H123552   1.963   2.515  11.150  0.8261  0.0164  0.7202
  687TIP3    H223553   1.834   2.446  11.190 -0.3897  0.2185 -2.5246
  688TIP3   OH223554   1.210   3.667   2.406  0.0755  0.6272 -0.0232
  688TIP3    H123555   1.140   3.727   2.379  0.2347  0.8831  0.1253
  688TIP3    H223556   1.203   3.665   2.502  0.4815  0.9157  0.0167
  689TIP3   OH223557   1.422   4.510   5.367  0.0354  0.1648  0.4034
  689TIP3    H123558   1.377   4.443   5.418 -1.2761  0.7991  0.1190
  689TIP3    H223559   1.505   4.469   5.341 -0.5530 -1.1868  0.5831
  690TIP3   OH223560   5.344   1.443  11.095 -0.0375 -0.2599  0.0590
  690TIP3    H123561   5.259   1.408  11.070 -0.3385 -0.1827  0.9416
  690TIP3    H223562   5.325   1.507  11.163  0.7136 -0.1580  0.1884
  691TIP3   OH223563   1.150   1.593   2.192 -0.0050  0.4699 -0.1530
  691TIP3    H123564   1.203   1.673   2.187  0.4104  0.1641 -0.8106
  691TIP3    H223565   1.110   1.596   2.278  0.2634  1.2318 -0.0485
  692TIP3   OH223566   4.782   5.111  12.356  0.2545  0.2087 -0.0939
  692TIP3    H123567   4.813   5.023  12.380  0.3429  0.7428  1.9730
  692TIP3    H223568   4.854   5.148  12.305  0.1639 -0.9503 -1.1078
  693TIP3   OH223569   4.321   0.327   1.695  0.5196  0.0315  0.0210
  693TIP3    H123570   4.238   0.298   1.656  0.2167 -0.7821  1.2176
  693TIP3    H223571   4.388   0.281   1.645  0.2480  0.3987 -0.7047
  694TIP3   OH223572   0.955   5.192   1.457  0.2898  0.5352 -0.5436
  694TIP3    H123573   0.993   5.114   1.416  0.8800  0.4777  0.0850
  694TIP3    H223574   0.990   5.191   1.546 -1.5955  0.2249  0.2240
  695TIP3   OH223575   5.990   4.151   1.510  0.3951 -0.2267  0.3824
  695TIP3    H123576   6.046   4.073   1.518  0.1362 -0.3865  0.7256
  695TIP3    H223577   6.051   4.225   1.513  0.5964 -0.3989  0.7183
  696TIP3   OH223578   2.290   3.026  14.612 -0.9146 -0.1308  0.0699
  696TIP3    H123579   2.226   3.049  14.545 -0.3901  2.3497  0.3177
  696TIP3    H223580   2.272   3.086  14.685  2.6044  1.8795 -0.4671
  697TIP3   OH223581   5.737   5.535   2.685  0.4444  1.0075  0.1921
  697TIP3    H123582   5.762   5.475   2.756 -1.4784  0.4680  0.4642
  697TIP3    H223583   5.788   5.506   2.610  0.6170 -0.0593  0.7001
  698TIP3   OH223584   5.944   1.569  15.622 -0.4464 -0.2786 -0.6121
  698TIP3    H123585   5.996   1.571  15.703 -0.3984 -1.0906 -0.6203
  698TIP3    H223586   5.968   1.649  15.576  0.2877 -0.3134 -0.2957
  699TIP3   OH223587   4.342   3.667  13.515 -0.3014  0.1322 -0.0310
  699TIP3    H123588   4.354   3.747  13.567  0.6403  1.1530 -1.7398
  699TIP3    H223589   4.254   3.675  13.479 -0.6083 -0.1378  0.6325
  700TIP3   OH223590   5.139   3.941   6.109 -0.0029 -0.0647 -0.1214
  700TIP3    H123591   5.213   3.906   6.159  1.0244  0.3969 -1.2905
  700TIP3    H223592   5.090   3.994   6.173  0.4716 -0.6557  0.7476
  701TIP3   OH223593   2.678   2.053  11.000  0.0346 -0.1211 -0.2048
  701TIP3    H123594   2.710   2.133  11.042  0.8466 -0.5755  0.0652
  701TIP3    H223595   2.585   2.070  10.985  0.4053  1.3117 -1.1883
  702TIP3   OH223596   3.287   5.607  10.284  0.9720 -0.3113  0.3571
  702TIP3    H123597   3.378   5.580  10.287  1.1818  0.2849  4.0905
  702TIP3    H223598   3.240   5.531  10.248  2.6564 -1.6302  0.8297
  703TIP3   OH223599   5.665   5.323  11.620  0.3639 -1.1071  0.1625
  703TIP3    H123600   5.598   5.292  11.681  1.8473 -1.3954  1.7353
  703TIP3    H223601   5.671   5.255  11.553  0.8963 -2.4094  1.4687
  704TIP3   OH223602   4.655   2.854   5.803 -0.9118 -0.3738  0.2031
  704TIP3    H123603   4.666   2.922   5.869 -2.8372 -0.0478  0.2380
  704TIP3    H223604   4.635   2.774   5.853 -0.6747 -0.5176  0.0730
  705TIP3   OH223605   2.418   1.246   6.245  0.1648 -0.1816  0.0691
  705TIP3    H123606   2.366   1.305   6.299  0.3182  0.4861 -0.5034
  705TIP3    H223607   2.361   1.224   6.171  1.2251  1.9399 -1.4976
  706TIP3   OH223608   3.710   4.722   5.211  0.1946 -0.4619 -0.3109
  706TIP3    H123609   3.694   4.673   5.292 -2.1724  1.0016  0.1877
  706TIP3    H223610   3.634   4.704   5.157  1.0861 -0.2803 -1.6827
  707TIP3   OH223611   1.189   1.446   3.450 -0.0570  0.4513  0.1560
  707TIP3    H123612   1.275   1.422   3.482 -0.0255  0.8851  0.4068
  707TIP3    H223613   1.165   1.376   3.388  0.3256  0.1607  0.3382
  708TIP3   OH223614   3.921   0.550  15.515  0.0617  0.3595 -0.0994
  708TIP3    H123615   4.009   0.574  15.543 -0.3150  1.1408  0.4478
  708TIP3    H223616   3.923   0.555  15.420  1.1797 -1.6665 -0.2403
  709TIP3   OH223617   6.394   0.712  14.940 -0.5428 -0.0089  0.3077
  709TIP3    H123618   6.304   0.705  14.906 -0.0371  1.2023 -1.4761
  709TIP3    H223619   6.439   0.637  14.902 -0.7226 -0.4658  0.9838
  710TIP3   OH223620   1.275   4.074  15.728  0.1981 -0.4027  0.2187
  710TIP3    H123621   1.226   4.126  15.792  0.4861 -1.4280  1.2984
  710TIP3    H223622   1.334   4.137  15.686 -0.8257  0.5114  0.0955
  711TIP3   OH223623   2.893   2.829   3.746 -0.7645  0.0560  0.2121
  711TIP3    H123624   2.849   2.750   3.778  0.2737 -0.2555  0.9399
  711TIP3    H223625   2.826   2.897   3.750 -1.4410 -0.6070  0.3756
  712TIP3   OH223626   5.837   4.596  12.177  0.5339 -0.0918 -0.2569
  712TIP3    H123627   5.860   4.506  12.202  1.2323  0.4374  1.1470
  712TIP3    H223628   5.752   4.612  12.218  0.8564  0.1905  0.3178
  713TIP3   OH223629   6.570   0.258  11.578 -0.5600  0.4647 -0.2454
  713TIP3    H123630   6.476   0.267  11.561 -0.6484 -0.1509 -0.1146
  713TIP3    H223631   6.601   0.195  11.513 -0.0552  1.3446 -0.8632
  714TIP3   OH223632   4.232   4.329   3.355 -0.3116  0.2959  0.1049
  714TIP3    H123633   4.138   4.341   3.365 -0.5317  1.0273 -2.2642
  714TIP3    H223634   4.269   4.415   3.375 -0.4567  0.8340 -1.7789
  715TIP3   OH223635   4.285   2.608   5.931  0.0918  0.3150 -0.0135
  715TIP3    H123636   4.258   2.655   6.010 -1.5700  0.2192 -0.4976
  715TIP3    H223637   4.318   2.524   5.963 -1.2251 -0.0104  0.5522
  716TIP3   OH223638   5.265   1.571  12.707 -0.3276 -0.5411  0.2916
  716TIP3    H123639   5.207   1.496  12.715 -1.8658  0.3871 -1.3058
  716TIP3    H223640   5.266   1.590  12.613 -1.2171  2.3005  0.7664
  717TIP3   OH223641   5.510   4.248   4.748 -0.3178 -0.4822 -0.1084
  717TIP3    H123642   5.579   4.314   4.753 -0.5909 -0.2322  0.4717
  717TIP3    H223643   5.512   4.205   4.833 -1.4401  0.1137  0.2535
  718TIP3   OH223644   2.267   3.231  15.780  0.0788 -0.1876 -0.6374
  718TIP3    H123645   2.172   3.235  15.789  0.1748 -0.5487  0.6425
  718TIP3    H223646   2.282   3.170  15.708 -0.7177  2.7975 -3.6244
  719TIP3   OH223647   6.171   0.563  14.482 -0.2075 -0.1019  0.1241
  719TIP3    H123648   6.085   0.601  14.499 -0.1324  0.4533 -0.6608
  719TIP3    H223649   6.172   0.550  14.387  0.2611 -0.8832  0.2336
  720TIP3   OH223650   5.299   0.184  10.783  0.1909  0.1902  0.2652
  720TIP3    H123651   5.344   0.268  10.792 -1.5827  1.2749 -0.5231
  720TIP3    H223652   5.211   0.206  10.752 -0.6630 -1.8940  0.9898
  721TIP3   OH223653   6.174   1.084   3.161  0.0211  0.1210  0.0437
  721TIP3    H123654   6.159   0.996   3.128 -1.8112  0.5681 -0.4378
  721TIP3    H223655   6.110   1.095   3.231 -0.9043  1.5907 -0.9731
  722TIP3   OH223656   3.234   0.003  16.847 -0.3033 -0.3334 -0.7134
  722TIP3    H123657   3.312  -0.052  16.857 -0.8643 -0.9329  0.7778
  722TIP3    H223658   3.249   0.053  16.767  1.8282 -0.0689 -0.2022
  723TIP3   OH223659   3.307   3.536   4.692 -0.2776 -0.1874 -0.1329
  723TIP3    H123660   3.377   3.584   4.648  0.6654 -0.6286  0.8463
  723TIP3    H223661   3.269   3.598   4.754 -1.3427  0.3112 -1.2419
  724TIP3   OH223662   6.011   0.687   4.667  0.3541 -0.3837 -0.2008
  724TIP3    H123663   6.102   0.658   4.672  0.4547 -0.4800 -2.1242
  724TIP3    H223664   5.975   0.642   4.591 -1.0100  0.4460 -0.0783
  725TIP3   OH223665   5.472   5.688   5.771  0.0905 -0.0842  0.3081
  725TIP3    H123666   5.437   5.726   5.852  1.9733  0.0647  1.1136
  725TIP3    H223667   5.409   5.713   5.704 -0.3120  1.8788  1.3320
  726TIP3   OH223668   3.299   5.188   4.028 -0.0173 -0.3151 -0.2980
  726TIP3    H123669   3.311   5.128   3.954 -0.5119  0.6797 -1.2116
  726TIP3    H223670   3.206   5.211   4.025  0.0097 -0.0931  0.5080
  727TIP3   OH223671   3.961   2.004   2.917  0.2340 -0.8269 -0.1033
  727TIP3    H123672   3.971   2.092   2.954 -1.6954  0.0548 -1.4604
  727TIP3    H223673   3.890   1.964   2.968  1.7332 -2.0132  1.1309
  728TIP3   OH223674   0.007   4.315  13.292 -0.0989 -0.7647  0.4225
  728TIP3    H123675  -0.064   4.369  13.328 -1.2227 -1.2268 -1.0199
  728TIP3    H223676   0.051   4.373  13.229  0.9800 -0.4179  1.4396
  729TIP3   OH223677   0.944   6.430   1.564 -0.2127  0.3558  0.8853
  729TIP3    H123678   0.852   6.419   1.587  0.3027 -1.0192  2.4903
  729TIP3    H223679   0.990   6.431   1.648  1.4229 -1.0882  0.0669
  730TIP3   OH223680   2.845   3.483  14.605 -0.2934  0.2501 -0.0018
  730TIP3    H123681   2.861   3.514  14.694  1.0530 -1.5089  0.4130
  730TIP3    H223682   2.773   3.421  14.614  0.0497 -0.1635 -0.0738
  731TIP3   OH223683   3.339   3.302  15.413 -0.0317 -0.4125 -0.3937
  731TIP3    H123684   3.431   3.308  15.387 -0.3533 -0.5977 -1.6337
  731TIP3    H223685   3.333   3.220  15.462  0.5490 -0.1433  0.1544
  732TIP3   OH223686   4.048   3.122  15.057 -0.4634  0.1368  0.6340
  732TIP3    H123687   3.972   3.179  15.072 -1.1919 -0.4902 -0.5704
  732TIP3    H223688   4.123   3.174  15.086 -1.0076  2.0644 -1.1711
  733TIP3   OH223689   4.647   2.250  16.224  0.5664  0.2064 -0.4691
  733TIP3    H123690   4.662   2.273  16.133  1.2518 -0.9708 -0.6639
  733TIP3    H223691   4.574   2.188  16.221 -0.0011  0.8424 -0.1232
  734TIP3   OH223692   5.600   4.745   6.295  0.5909  0.2760 -0.2070
  734TIP3    H123693   5.511   4.730   6.327  1.3666 -1.2233  1.4081
  734TIP3    H223694   5.592   4.821   6.237 -1.6633  0.3914  0.1600
  735TIP3   OH223695   5.539   3.817   6.426 -0.0502  0.0358 -0.1253
  735TIP3    H123696   5.485   3.779   6.495  0.4676  1.6921  1.2604
  735TIP3    H223697   5.629   3.805   6.455  0.1458  1.9541  0.2250
  736TIP3   OH223698   1.642   1.478  15.828 -0.4142 -0.1145  0.5322
  736TIP3    H123699   1.575   1.543  15.807  0.0294  0.5986  1.2880
  736TIP3    H223700   1.610   1.436  15.908  0.1308  0.3544  0.9965
  737TIP3   OH223701   5.194   1.163  16.836 -0.2893  0.2030 -0.3561
  737TIP3    H123702   5.233   1.082  16.804  0.0236  1.1664 -2.5583
  737TIP3    H223703   5.115   1.174  16.784 -0.8849  0.8154  0.6362
  738TIP3   OH223704   5.694   4.108   2.495  0.1029 -0.2654  0.0431
  738TIP3    H123705   5.665   4.035   2.549 -1.2208  0.4660  0.3757
  738TIP3    H223706   5.643   4.183   2.527 -1.0313  0.1246 -2.4377
  739TIP3   OH223707   3.628   2.007   0.050 -0.4135 -0.7428 -0.2996
  739TIP3    H123708   3.633   2.101   0.032 -0.2848 -0.1672  2.4099
  739TIP3    H223709   3.535   1.988   0.050 -0.4824 -0.4133  0.0815
  740TIP3   OH223710   3.288   4.660  11.946  0.0275 -0.1918 -0.3179
  740TIP3    H123711   3.283   4.677  12.040 -3.3095  0.7809 -0.5702
  740TIP3    H223712   3.265   4.743  11.906 -0.2290 -1.0237 -1.9642
  741TIP3   OH223713   1.653   1.834  13.304  0.1831  0.0972  0.3619
  741TIP3    H123714   1.569   1.878  13.290  0.4738  0.9543  1.1916
  741TIP3    H223715   1.678   1.858  13.393  0.8481 -0.9470  0.4714
  742TIP3   OH223716   2.444   4.700   6.703  0.0370  0.1598  0.1149
  742TIP3    H123717   2.386   4.638   6.659  0.2274  1.1761 -1.6567
  742TIP3    H223718   2.516   4.646   6.735  0.0095 -0.6160 -1.0520
  743TIP3   OH223719   5.848   4.693  11.256 -0.3984  0.2109  0.3643
  743TIP3    H123720   5.865   4.700  11.162 -1.2768 -0.0059  0.1826
  743TIP3    H223721   5.753   4.688  11.263 -0.3249 -0.1220  1.2453
  744TIP3   OH223722   5.428   4.432  15.112 -0.4161  0.4813  0.5601
  744TIP3    H123723   5.366   4.362  15.132 -1.2932  0.6556 -1.2852
  744TIP3    H223724   5.387   4.511  15.146 -0.2906  0.3504  1.0236
  745TIP3   OH223725   4.328   1.559   3.600  0.3416  0.3623 -0.2607
  745TIP3    H123726   4.421   1.554   3.622 -0.0378 -0.8828  1.1995
  745TIP3    H223727   4.323   1.525   3.511  1.0668 -1.4980  0.3772
  746TIP3   OH223728   5.978   1.675  13.230  0.0620  0.5298 -0.4320
  746TIP3    H123729   6.000   1.724  13.310  2.7610  1.9478 -1.8622
  746TIP3    H223730   6.007   1.733  13.159  1.7560 -2.3593 -2.3086
  747TIP3   OH223731   0.148   2.479   3.334 -0.5153  0.4131 -0.4270
  747TIP3    H123732   0.101   2.425   3.271  1.2947  0.0055 -1.4905
  747TIP3    H223733   0.241   2.464   3.315  0.0807  3.3495 -0.2819
  748TIP3   OH223734   3.100   5.859   6.213  0.3399  0.3162  0.0703
  748TIP3    H123735   3.064   5.782   6.258  0.4041  0.8806  1.1254
  748TIP3    H223736   3.170   5.889   6.272 -0.1262  1.5700  0.0023
  749TIP3   OH223737   1.747   5.764  10.716 -0.0107  0.4769  0.0714
  749TIP3    H123738   1.754   5.846  10.666 -0.3995  0.6986  0.3843
  749TIP3    H223739   1.773   5.696  10.653  0.4480  0.8508 -0.1474
  750TIP3   OH223740   0.721   4.204  12.332  0.4393 -0.0269  0.8132
  750TIP3    H123741   0.784   4.270  12.359  0.6033 -0.3801  1.3175
  750TIP3    H223742   0.677   4.178  12.414  1.1474 -1.3317  0.8117
  751TIP3   OH223743   4.905   3.753   2.137 -0.3137  0.2154  0.0366
  751TIP3    H123744   4.931   3.745   2.045 -2.0173 -1.9057 -0.3631
  751TIP3    H223745   4.815   3.785   2.133  0.4212  2.6306  1.1413
  752TIP3   OH223746   6.593   0.935  14.093  0.5231  0.1132 -0.1031
  752TIP3    H123747   6.637   0.851  14.102  0.5937  0.2175  0.5337
  752TIP3    H223748   6.657   1.000  14.122  0.3944  0.3715 -0.3883
  753TIP3   OH223749   6.751   2.151  16.291 -0.2479  0.1522  0.3306
  753TIP3    H123750   6.830   2.197  16.261 -1.8160  3.2691  0.6100
  753TIP3    H223751   6.774   2.118  16.378  1.3308 -0.8207 -0.4031
  754TIP3   OH223752   5.025   5.387  13.461  0.0713  0.7667  0.4480
  754TIP3    H123753   5.075   5.380  13.379 -1.4076  0.2547 -0.4424
  754TIP3    H223754   4.972   5.466  13.450 -2.0105 -0.6539 -0.2058
  755TIP3   OH223755   4.360   5.112   5.635 -0.2116 -0.0205  0.5110
  755TIP3    H123756   4.368   5.016   5.640 -0.2527 -0.1912 -1.7249
  755TIP3    H223757   4.450   5.144   5.640  0.0429 -0.3786 -1.1754
  756TIP3   OH223758   0.744   1.006   3.753 -0.3700  0.0248 -0.1291
  756TIP3    H123759   0.747   0.924   3.704  0.7471 -0.2354  0.3419
  756TIP3    H223760   0.719   1.072   3.688 -0.4593 -0.5595 -0.6932
  757TIP3   OH223761   4.477   0.146   0.344 -0.2649 -0.2199  0.1909
  757TIP3    H123762   4.558   0.108   0.377 -0.3502 -1.9973 -1.4684
  757TIP3    H223763   4.493   0.161   0.251 -1.2470  1.1210  0.2126
  758TIP3   OH223764   4.557   1.717   4.781 -0.4775 -0.1465  0.0909
  758TIP3    H123765   4.499   1.645   4.804 -0.8302  0.3503  0.7645
  758TIP3    H223766   4.566   1.768   4.861  0.7543 -0.1173 -0.0395
  759TIP3   OH223767   4.848   0.604   4.878  0.5347  0.1360  0.0808
  759TIP3    H123768   4.936   0.573   4.858  0.5451  0.3870 -0.2932
  759TIP3    H223769   4.790   0.540   4.836  0.4875 -1.0711  1.8870
  760TIP3   OH223770   5.318   2.581   5.574  0.0323 -0.2045  0.2533
  760TIP3    H123771   5.402   2.570   5.530 -0.3047 -0.4860 -0.3277
  760TIP3    H223772   5.281   2.659   5.534  0.1138  0.0490  0.6696
  761TIP3   OH223773   3.125   4.256  15.847  0.3686 -0.1120 -0.5386
  761TIP3    H123774   3.202   4.214  15.884  1.3048  2.9060  1.2877
  761TIP3    H223775   3.054   4.236  15.909  0.8054  0.8780  0.3118
  762TIP3   OH223776   6.760   0.285   2.228  0.0600 -0.0017  0.4128
  762TIP3    H123777   6.819   0.256   2.297 -1.2834  0.2394  1.7262
  762TIP3    H223778   6.771   0.380   2.225 -1.3596  0.2478  1.7918
  763TIP3   OH223779   2.106   5.846  12.967  0.3153  0.7228  0.2818
  763TIP3    H123780   2.101   5.942  12.970  1.4460  0.8931 -1.8777
  763TIP3    H223781   2.167   5.823  13.037  1.3404  1.7156 -0.2670
  764TIP3   OH223782   2.006   0.721   0.274 -0.1781  0.7026  0.0433
  764TIP3    H123783   2.079   0.745   0.217 -0.5561  1.0819 -0.2860
  764TIP3    H223784   2.006   0.626   0.274  1.4455  0.6374  1.4921
  765TIP3   OH223785   3.389   2.511  13.646 -0.2458  0.0652  0.2968
  765TIP3    H123786   3.346   2.577  13.592  0.8962 -0.0519 -0.8105
  765TIP3    H223787   3.377   2.542  13.736  0.1480  1.7063 -0.1790
  766TIP3   OH223788   1.054   6.708   3.720 -0.1020  0.0837 -0.3886
  766TIP3    H123789   1.100   6.632   3.683  2.1903 -0.3914  2.9540
  766TIP3    H223790   1.102   6.784   3.687  0.4632 -0.2022 -0.2464
  767TIP3   OH223791   5.464   2.430  16.335  0.5164  0.5860 -0.2565
  767TIP3    H123792   5.448   2.393  16.421  0.2272 -1.0750 -0.9780
  767TIP3    H223793   5.548   2.393  16.307 -0.3203 -0.5159 -1.4635
  768TIP3   OH223794   3.521   4.066  14.114 -0.3798 -0.3779  0.8881
  768TIP3    H123795   3.468   4.139  14.082  1.1513 -0.2435 -1.5965
  768TIP3    H223796   3.592   4.108  14.164 -1.2547 -0.4256  2.2306
  769TIP3   OH223797   3.465   2.468  12.245 -0.0829 -0.0709  0.7650
  769TIP3    H123798   3.491   2.436  12.159 -1.0381  1.9491 -0.3347
  769TIP3    H223799   3.372   2.489  12.237  0.1609  1.6245  1.7833
  770TIP3   OH223800   1.246   6.800   5.600  0.0178  0.0616 -0.1874
  770TIP3    H123801   1.258   6.789   5.694 -2.2133  0.6935  0.2226
  770TIP3    H223802   1.238   6.711   5.566  0.2323 -0.1503  0.3058
  771TIP3   OH223803   1.719   5.887  16.837  0.0273 -0.3511  0.1442
  771TIP3    H123804   1.787   5.897  16.770 -0.2054 -1.3815 -0.2664
  771TIP3    H223805   1.704   5.976  16.869 -1.8744  0.7291 -3.1610
  772TIP3   OH223806   1.432   0.163   1.904  0.5146  0.2685 -0.0366
  772TIP3    H123807   1.476   0.211   1.975 -0.3808  0.1932  0.5829
  772TIP3    H223808   1.366   0.223   1.871 -0.7824 -0.5805  0.9065
  773TIP3   OH223809   3.607   4.868   3.427  0.0267  0.7426  0.2654
  773TIP3    H123810   3.572   4.803   3.488 -0.4642 -0.9120 -1.6502
  773TIP3    H223811   3.629   4.944   3.481  0.8365 -1.0815  2.6677
  774TIP3   OH223812   3.850   6.246   4.521 -0.3257  0.7689  0.5079
  774TIP3    H123813   3.912   6.284   4.582 -0.4037  0.8188  0.5561
  774TIP3    H223814   3.833   6.158   4.555  1.0464  0.1009 -0.4520
  775TIP3   OH223815   0.233   3.440   3.680  0.1691 -0.5837  0.0493
  775TIP3    H123816   0.324   3.465   3.668 -0.3579  0.6161 -1.8311
  775TIP3    H223817   0.212   3.468   3.769  1.1078  0.9007 -0.1681
  776TIP3   OH223818   6.538   5.882   1.353 -0.0506  0.2423 -0.7143
  776TIP3    H123819   6.597   5.943   1.395  2.1145 -1.8640 -0.4452
  776TIP3    H223820   6.568   5.877   1.262 -0.3056 -0.2761 -0.7800
  777TIP3   OH223821   1.078   2.538   0.707 -0.3453 -0.2199 -0.1467
  777TIP3    H123822   1.099   2.621   0.750  1.5941 -0.7969  0.0782
  777TIP3    H223823   1.140   2.532   0.635 -1.0747 -1.0581 -0.7237
  778TIP3   OH223824   2.548   2.445   3.776 -0.1398  0.6529 -0.2241
  778TIP3    H123825   2.492   2.375   3.808  0.6038 -1.5842 -3.3422
  778TIP3    H223826   2.488   2.510   3.739 -0.7568  0.4370  0.3852
  779TIP3   OH223827   5.992   3.065  16.801  0.1250 -0.2041 -0.1459
  779TIP3    H123828   5.944   3.143  16.828 -0.2630  0.1891 -1.8265
  779TIP3    H223829   6.031   3.031  16.881 -0.3127  1.2949  0.7340
  780TIP3   OH223830   2.138   3.388  15.138 -0.2409  0.2531 -0.3034
  780TIP3    H123831   2.063   3.418  15.088  0.0845  0.9870 -0.3671
  780TIP3    H223832   2.108   3.309  15.182  0.3598 -2.3355 -4.0830
  781TIP3   OH223833   1.034   1.427   4.149  0.5540  0.5417 -0.5071
  781TIP3    H123834   1.101   1.451   4.084  2.6775  2.3343  2.1092
  781TIP3    H223835   0.951   1.445   4.106  1.5801 -2.0326 -4.0451
  782TIP3   OH223836   2.217   2.163  15.048  0.3148  0.7203  0.4389
  782TIP3    H123837   2.290   2.102  15.039 -0.7196 -0.6393  0.8954
  782TIP3    H223838   2.240   2.218  15.123  1.4530  1.2081 -0.2454
  783TIP3   OH223839   4.649   5.416   2.362  0.1587  0.3145 -0.6495
  783TIP3    H123840   4.724   5.380   2.410 -0.1623 -0.3798 -0.6524
  783TIP3    H223841   4.679   5.421   2.271  0.6328  1.2589 -0.4571
  784TIP3   OH223842   1.617   1.037   0.296  0.8593 -0.4806 -0.5149
  784TIP3    H123843   1.708   1.046   0.266  0.6843 -1.2116 -1.2962
  784TIP3    H223844   1.625   1.014   0.389  1.4696 -0.2655 -0.5098
  785TIP3   OH223845   2.395   2.988   1.366  0.1077 -0.6340  0.3370
  785TIP3    H123846   2.417   3.002   1.458  0.6446 -0.1458  0.1390
  785TIP3    H223847   2.355   3.070   1.338 -1.4925 -1.3125  0.5377
  786TIP3   OH223848   6.472   3.914   0.386  0.0216  0.5187  0.1853
  786TIP3    H123849   6.557   3.875   0.364  0.5183  1.5511  0.2040
  786TIP3    H223850   6.493   3.980   0.453 -1.0748 -0.5814  1.6649
  787TIP3   OH223851   5.525   1.791   0.717  0.7106 -0.1335 -0.6821
  787TIP3    H123852   5.538   1.807   0.810 -0.1428 -2.8438  0.0229
  787TIP3    H223853   5.613   1.773   0.683  0.9336  0.0140 -0.1898
  788TIP3   OH223854   4.688   1.251  15.117 -0.0676 -0.3698 -0.2256
  788TIP3    H123855   4.727   1.198  15.048 -0.8203  1.4101 -2.1144
  788TIP3    H223856   4.670   1.335  15.076 -1.0803  0.5905  2.0071
  789TIP3   OH223857   2.866   0.747   1.724 -0.2218 -0.4746 -0.0898
  789TIP3    H123858   2.890   0.718   1.812  1.3979  2.8140  0.7115
  789TIP3    H223859   2.777   0.781   1.733 -0.4298 -1.0354  0.0215
  790TIP3   OH223860   6.762   4.377   3.801 -0.4107  0.1963  0.8519
  790TIP3    H123861   6.819   4.394   3.876  0.4053 -1.4782  0.6597
  790TIP3    H223862   6.789   4.291   3.769  0.1089  1.3428 -2.1364
  791TIP3   OH223863   4.539   1.413   0.227 -0.4120  0.0798 -0.1022
  791TIP3    H123864   4.580   1.327   0.237 -0.1859  0.0330 -1.3048
  791TIP3    H223865   4.479   1.419   0.301 -0.7129 -1.2817 -0.2053
  792TIP3   OH223866   2.067   2.869  15.199  0.3065  0.5062 -0.7229
  792TIP3    H123867   2.036   2.854  15.109 -1.2169  1.0112 -0.3198
  792TIP3    H223868   2.001   2.828  15.254 -0.0055  2.1776  0.2061
  793TIP3   OH223869   0.990   4.515  10.948  0.2709  0.4669  0.2058
  793TIP3    H123870   1.084   4.522  10.959  0.2145 -0.2974  1.3211
  793TIP3    H223871   0.963   4.600  10.913  1.2827  0.9098  0.4898
  794TIP3   OH223872   2.539   5.341  16.656 -0.6046  0.0684 -0.5325
  794TIP3    H123873   2.623   5.335  16.611 -0.5904 -1.6264 -0.3186
  794TIP3    H223874   2.513   5.433  16.646  1.7400  0.8933  0.2560
  795TIP3   OH223875   2.333   2.756   4.408  0.3144 -0.4941 -0.6270
  795TIP3    H123876   2.243   2.789   4.401  0.2269 -0.9811 -2.4171
  795TIP3    H223877   2.387   2.835   4.416 -0.2187 -0.1504 -0.4208
  796TIP3   OH223878   1.954   5.607   2.756 -0.0647  0.4590  0.4388
  796TIP3    H123879   1.911   5.605   2.670  0.5188  0.6373  0.1409
  796TIP3    H223880   2.047   5.600   2.737  0.0355 -0.1051  1.0952
  797TIP3   OH223881   0.468   2.183   3.130 -0.2428 -0.2666 -0.0269
  797TIP3    H123882   0.530   2.113   3.111  0.2613 -0.3808  1.8148
  797TIP3    H223883   0.511   2.263   3.102  0.2082 -0.4608  0.1152
  798TIP3   OH223884   6.553   5.396  13.173 -0.2855 -0.6299  0.0602
  798TIP3    H123885   6.555   5.490  13.188  0.1764 -0.4289 -1.1318
  798TIP3    H223886   6.471   5.367  13.214 -0.4959  0.3058  0.3278
  799TIP3   OH223887   1.765   1.303  15.067 -0.2261  0.0189 -0.2324
  799TIP3    H123888   1.834   1.369  15.074  1.5442 -1.8269  0.8648
  799TIP3    H223889   1.774   1.267  14.979  0.9079 -0.8645  0.2160
  800TIP3   OH223890   2.074   2.289   3.916  0.0165 -0.5017 -0.0202
  800TIP3    H123891   2.049   2.302   3.824 -0.9851 -1.0646  0.1548
  800TIP3    H223892   2.169   2.304   3.918  0.1254 -0.9379 -1.2363
  801TIP3   OH223893   4.682   4.512   6.151  0.5769 -0.7345 -0.4048
  801TIP3    H123894   4.731   4.564   6.215 -0.8322 -1.2711  1.2116
  801TIP3    H223895   4.612   4.570   6.122  0.9852 -0.6254 -1.1910
  802TIP3   OH223896   2.374   3.638   3.728 -0.7484  0.3139 -0.2565
  802TIP3    H123897   2.290   3.668   3.694 -2.1938 -2.5814  0.5179
  802TIP3    H223898   2.355   3.555   3.771  2.6763 -0.9331 -0.8480
  803TIP3   OH223899   6.474   5.348   2.165  0.6623 -0.0366  0.0731
  803TIP3    H123900   6.451   5.370   2.256 -0.2492 -0.4237 -0.0555
  803TIP3    H223901   6.407   5.392   2.113 -0.6339 -2.2445 -0.2479
  804TIP3   OH223902   0.039   3.416   1.673 -0.1711 -0.0459  0.3989
  804TIP3    H123903   0.051   3.376   1.759 -0.7534 -0.1707  0.4286
  804TIP3    H223904  -0.044   3.379   1.641  1.0661 -1.6860 -1.1414
  805TIP3   OH223905   5.194   5.919  16.980  0.2537  0.0432 -0.2386
  805TIP3    H123906   5.286   5.936  17.001 -0.0817  1.3512  0.3137
  805TIP3    H223907   5.160   6.006  16.957 -1.1913 -0.1642  0.9957
  806TIP3   OH223908   2.071   6.560  17.038 -0.8356  0.2764  0.2369
  806TIP3    H123909   1.992   6.541  16.989 -0.6973 -1.1889  0.5382
  806TIP3    H223910   2.118   6.624  16.984 -1.7507  0.4194 -0.4134
  807TIP3   OH223911   3.092   1.138   6.274  0.6166  0.2519  0.1046
  807TIP3    H123912   3.122   1.202   6.339  0.0183  0.3985  0.2399
  807TIP3    H223913   3.061   1.064   6.326 -1.0197  0.8626  0.0544
  808TIP3   OH223914   2.892   6.279  12.029  0.1829  0.0726  0.1772
  808TIP3    H123915   2.964   6.342  12.029 -0.5022  0.8687  1.4023
  808TIP3    H223916   2.916   6.215  12.096 -0.3166  0.4089  0.6750
  809TIP3   OH223917   2.679   6.618  12.646 -0.4045  0.5187 -0.1541
  809TIP3    H123918   2.609   6.679  12.625  1.8685  3.1745 -0.6557
  809TIP3    H223919   2.733   6.664  12.711  1.0451 -1.2715  0.0188
  810TIP3   OH223920   5.576   1.331   4.848  0.0767  0.3374 -0.2427
  810TIP3    H123921   5.546   1.249   4.810 -1.8416  1.2905 -0.9260
  810TIP3    H223922   5.498   1.370   4.887  0.4598  2.6808 -1.5643
  811TIP3   OH223923   5.357   0.939  11.537  0.5383  0.2438 -0.1608
  811TIP3    H123924   5.262   0.935  11.550  0.5774 -0.5142 -0.0358
  811TIP3    H223925   5.370   0.914  11.446  0.6582 -0.4195  0.0289
  812TIP3   OH223926   3.211   6.112  13.652  0.4963  0.5501 -0.0096
  812TIP3    H123927   3.199   6.206  13.639  0.9423  0.6491  0.2747
  812TIP3    H223928   3.263   6.105  13.732 -1.7616 -0.0228  1.5024
  813TIP3   OH223929   3.401   4.871  10.352 -0.0870 -0.2735 -0.3853
  813TIP3    H123930   3.336   4.855  10.284 -0.2839 -0.8949 -0.0609
  813TIP3    H223931   3.473   4.811  10.331  0.3720  0.3946 -0.7305
  814TIP3   OH223932   1.046   2.199  14.449  0.1660  0.6436 -0.8800
  814TIP3    H123933   0.999   2.218  14.531 -0.8696 -0.7688 -1.1186
  814TIP3    H223934   1.003   2.255  14.384  0.4040  1.1164 -0.6332
  815TIP3   OH223935   0.162   4.410  12.136 -0.5972  0.1797  0.3394
  815TIP3    H123936   0.228   4.394  12.068 -0.7230  0.4702  0.1438
  815TIP3    H223937   0.208   4.463  12.201 -0.5601  0.1497  0.3378
  816TIP3   OH223938   2.891   3.296  10.272 -0.5093  0.3000  0.3513
  816TIP3    H123939   2.980   3.300  10.309  0.3459  2.3685 -1.6392
  816TIP3    H223940   2.840   3.249  10.337  1.0881  2.6829  3.6612
  817TIP3   OH223941   1.209   4.987  13.227 -0.3208  0.3774 -0.3198
  817TIP3    H123942   1.125   4.951  13.198 -0.2126 -0.2878  0.1787
  817TIP3    H223943   1.187   5.074  13.261 -0.6691  0.5627 -1.0104
  818TIP3   OH223944   1.736   5.832   5.695  0.5240  0.0022 -0.7119
  818TIP3    H123945   1.641   5.821   5.692  0.4421  0.7426 -1.4197
  818TIP3    H223946   1.753   5.874   5.779  0.5515 -2.6209  0.7010
  819TIP3   OH223947   3.208   0.408   2.189 -0.2349  0.0042 -0.3293
  819TIP3    H123948   3.150   0.372   2.122 -0.2272  0.2837 -0.4905
  819TIP3    H223949   3.174   0.496   2.205  1.1101  0.8242 -1.6393
  820TIP3   OH223950   1.004   6.680  17.193  0.0365 -0.3386 -0.1406
  820TIP3    H123951   1.062   6.751  17.168  0.1913 -0.7938 -1.1249
  820TIP3    H223952   1.011   6.616  17.122 -0.8586 -0.8858  0.2334
  821TIP3   OH223953   0.736   6.229  16.598  0.2270 -0.0271  0.0506
  821TIP3    H123954   0.814   6.238  16.544  0.4065  0.5569  0.4029
  821TIP3    H223955   0.759   6.270  16.681 -0.7876  1.0866 -0.1885
  822TIP3   OH223956   3.146   3.591   0.705 -0.0533  0.2136  0.5122
  822TIP3    H123957   3.073   3.624   0.653 -0.8931 -0.5233  1.1702
  822TIP3    H223958   3.133   3.630   0.792 -1.0748 -1.7472  1.3094
  823TIP3   OH223959   0.292   0.453   1.482  0.3444 -0.4711 -0.0444
  823TIP3    H123960   0.324   0.410   1.403  0.2126 -1.6390  0.5268
  823TIP3    H223961   0.322   0.398   1.554 -0.6844 -0.1502  0.6480
  824TIP3   OH223962   3.703   0.651  16.257 -0.3504  0.0456 -0.1707
  824TIP3    H123963   3.773   0.712  16.234 -0.2131 -0.2002 -0.4063
  824TIP3    H223964   3.623   0.704  16.253 -0.1342  0.4293  0.5195
  825TIP3   OH223965   6.276   5.887  17.131 -0.0823 -0.1528  0.2709
  825TIP3    H123966   6.333   5.964  17.127 -1.1885  0.6436 -1.4952
  825TIP3    H223967   6.187   5.923  17.125 -0.6733 -1.5085  0.5104
  826TIP3   OH223968   5.981   3.464  11.602 -0.5416 -0.3647 -0.4301
  826TIP3    H123969   6.009   3.555  11.610  0.3904 -0.6323 -0.4897
  826TIP3    H223970   6.014   3.436  11.517 -1.6958 -0.4762 -0.8589
  827TIP3   OH223971   5.542   6.170   6.277 -0.1550 -0.2826 -0.1995
  827TIP3    H123972   5.619   6.115   6.262  0.1254  0.0278  0.0837
  827TIP3    H223973   5.496   6.128   6.348 -0.0637 -0.2830 -0.1402
  828TIP3   OH223974   0.900   3.590   5.553  0.1779 -0.2081 -0.2786
  828TIP3    H123975   0.858   3.626   5.630  1.8161  0.5428  0.2998
  828TIP3    H223976   0.920   3.499   5.577  1.2500  0.2010  0.4471
  829TIP3   OH223977   2.915   4.701   3.882 -0.3530  0.2650 -0.0117
  829TIP3    H123978   3.010   4.697   3.890 -0.3495  0.5845  0.1087
  829TIP3    H223979   2.883   4.630   3.937 -0.1796  0.0933 -0.1331
  830TIP3   OH223980   0.147   1.985  16.217 -0.4623 -0.1445 -1.1634
  830TIP3    H123981   0.140   1.952  16.307 -0.0154  0.7414 -0.7940
  830TIP3    H223982   0.223   1.939  16.181 -1.5818 -1.7060 -1.6423
  831TIP3   OH223983   2.902   3.130   0.453  0.3850  0.3949  0.1698
  831TIP3    H123984   2.809   3.151   0.462  0.2189 -0.2695  0.0213
  831TIP3    H223985   2.924   3.157   0.364 -0.6581 -3.0374 -1.2876
  832TIP3   OH223986   2.646   3.140   3.485  0.5733  0.3683 -0.2317
  832TIP3    H123987   2.572   3.083   3.464 -0.0108  0.7712  0.6850
  832TIP3    H223988   2.615   3.228   3.464 -0.0613  0.8083  2.2436
  833TIP3   OH223989   3.893   5.044  16.421 -0.6001 -0.3565  0.5734
  833TIP3    H123990   3.813   5.093  16.443 -1.2104 -1.2910  0.5096
  833TIP3    H223991   3.963   5.109  16.426 -1.6556  1.0993 -1.8216
  834TIP3   OH223992   5.579   5.284  12.655 -0.5973  0.2986 -0.1647
  834TIP3    H123993   5.625   5.345  12.596  2.4113 -0.9577  0.6920
  834TIP3    H223994   5.514   5.242  12.599 -1.4184  2.8054 -1.2577
  835TIP3   OH223995   1.511   1.216   2.623 -0.4742 -0.1009 -0.6671
  835TIP3    H123996   1.540   1.306   2.635  1.5922 -0.9774  2.0101
  835TIP3    H223997   1.424   1.214   2.663 -0.0489  0.5120  0.3489
  836TIP3   OH223998   1.562   2.160  13.247  0.1162  0.6648 -0.1867
  836TIP3    H123999   1.545   2.214  13.323 -0.8793  0.5201 -0.2906
  836TIP3    H224000   1.502   2.086  13.257  0.8064  0.0498 -0.5134
  837TIP3   OH224001   5.191   3.948   1.169 -0.1065 -0.5044 -0.4310
  837TIP3    H124002   5.164   3.984   1.084 -0.5315 -0.1551 -0.1578
  837TIP3    H224003   5.156   3.859   1.168  0.0490 -0.5643 -0.6979
  838TIP3   OH224004   0.290   4.665   5.775  0.1612  1.4737 -0.1800
  838TIP3    H124005   0.239   4.669   5.856  1.2175 -0.6493  0.6696
  838TIP3    H224006   0.368   4.718   5.793  1.0330 -0.0627  0.7403
  839TIP3   OH224007   5.426   0.300  16.125 -0.5779  0.2664  0.1420
  839TIP3    H124008   5.517   0.329  16.116  0.0885 -1.0200  2.0787
  839TIP3    H224009   5.409   0.250  16.045 -0.0760  1.6898 -0.8853
  840TIP3   OH224010   4.123   6.607   5.554 -0.1646 -0.4637 -0.0631
  840TIP3    H124011   4.056   6.542   5.533  1.3548 -2.2795  0.4830
  840TIP3    H224012   4.194   6.590   5.493  0.3349  0.6137  0.1827
  841TIP3   OH224013   0.735   6.325  11.263 -0.6241  0.2708  0.3846
  841TIP3    H124014   0.733   6.241  11.308 -0.7495  0.3631  0.5536
  841TIP3    H224015   0.672   6.380  11.312 -0.7195  0.3870  0.1319
  842TIP3   OH224016   2.125   5.866   0.644 -0.3080  0.5236  0.4151
  842TIP3    H124017   2.056   5.876   0.708 -0.4374  0.2284  0.3232
  842TIP3    H224018   2.166   5.781   0.665 -0.2155  0.5238  0.2412
  843TIP3   OH224019   1.064   1.905  14.457 -0.0710  0.1505 -0.1126
  843TIP3    H124020   1.157   1.907  14.478 -0.2157  0.7430  0.4952
  843TIP3    H224021   1.061   1.880  14.364  0.5513 -3.4006  0.6597
  844TIP3   OH224022   1.856   4.630  15.198 -0.3481 -0.4766 -0.1485
  844TIP3    H124023   1.919   4.640  15.127 -1.0149  0.2620 -0.6416
  844TIP3    H224024   1.835   4.537  15.198 -0.6493 -0.4163 -1.1839
  845TIP3   OH224025   2.708   1.781  12.187  0.1748  0.0803  0.0415
  845TIP3    H124026   2.732   1.781  12.095 -1.2273 -0.3022 -0.3592
  845TIP3    H224027   2.743   1.698  12.221  0.6999  0.2264 -0.1361
  846TIP3   OH224028   4.030   5.884   5.443  0.5481 -0.2650  0.2177
  846TIP3    H124029   4.077   5.966   5.457  0.5982  0.4179 -3.0245
  846TIP3    H224030   3.966   5.880   5.515  1.5272  1.8476  1.2864
  847TIP3   OH224031   4.588   2.075   0.886  0.2831  0.2780  0.3400
  847TIP3    H124032   4.501   2.110   0.868  1.0063  1.8567 -0.2581
  847TIP3    H224033   4.623   2.051   0.800 -0.0722 -1.6990  0.7098
  848TIP3   OH224034   0.789   2.901  11.926  0.4827  0.5140 -0.0776
  848TIP3    H124035   0.851   2.831  11.907  0.1150 -0.5881  2.4144
  848TIP3    H224036   0.842   2.971  11.963  0.5339  0.5483 -0.2150
  849TIP3   OH224037   1.345   3.321  14.492  0.3067  0.2814 -0.0459
  849TIP3    H124038   1.405   3.276  14.433  0.1694  0.0164  0.0143
  849TIP3    H224039   1.379   3.410  14.498  0.0051  0.4732 -0.9775
  850TIP3   OH224040   3.236   3.987   2.461  0.2425 -0.1087  0.6065
  850TIP3    H124041   3.171   3.918   2.471  0.5706 -0.3528  1.0670
  850TIP3    H224042   3.187   4.061   2.424 -0.2991 -0.2819  0.9664
  851TIP3   OH224043   1.767   1.811   1.541 -0.6595  0.4073 -0.1896
  851TIP3    H124044   1.815   1.854   1.613  0.4890  1.5510 -1.5742
  851TIP3    H224045   1.823   1.739   1.514  0.0124  1.3156 -1.3412
  852TIP3   OH224046   5.956   0.178   4.624 -0.3191 -0.2444  0.0306
  852TIP3    H124047   5.950   0.145   4.534 -1.6720 -0.3339  0.1392
  852TIP3    H224048   6.031   0.131   4.661 -0.4111 -1.0181 -0.7162
  853TIP3   OH224049   6.204   5.109   2.622  0.0554 -0.2821  0.5381
  853TIP3    H124050   6.129   5.154   2.583 -0.9763 -1.8083  0.7011
  853TIP3    H224051   6.251   5.073   2.547 -0.1193 -0.4628  0.5150
  854TIP3   OH224052   2.508   2.717  11.933 -0.3377  0.0605 -0.2656
  854TIP3    H124053   2.534   2.785  11.995  2.9610 -1.5156  0.3052
  854TIP3    H224054   2.429   2.678  11.972  0.9612 -0.0988  2.4405
  855TIP3   OH224055   0.567   1.631  15.250 -0.8848  0.5706 -0.3385
  855TIP3    H124056   0.479   1.593  15.239 -0.4008 -1.2221  1.4076
  855TIP3    H224057   0.607   1.579  15.319  1.8208  0.9274 -1.5213
  856TIP3   OH224058   2.804   3.979  11.788 -0.8251 -0.5174 -0.1992
  856TIP3    H124059   2.885   3.928  11.785 -0.6853 -0.3459  0.3686
  856TIP3    H224060   2.802   4.014  11.877 -0.5808  1.0008 -0.7546
  857TIP3   OH224061   6.274   4.594  16.982  0.0605 -0.3453  0.5832
  857TIP3    H124062   6.259   4.501  17.002 -0.6744 -0.2363  0.5745
  857TIP3    H224063   6.190   4.636  17.002  0.2430  0.2411  0.1324
  858TIP3   OH224064   0.044   0.978   1.791  0.2249 -0.1044  0.0409
  858TIP3    H124065  -0.027   0.958   1.853 -0.3997  2.2406  0.1910
  858TIP3    H224066   0.122   0.987   1.846  0.1455 -0.3630  0.1941
  859TIP3   OH224067   5.296   4.672  15.205 -0.6175  0.1521  0.1015
  859TIP3    H124068   5.216   4.723  15.194 -1.6466 -1.4211 -0.0309
  859TIP3    H224069   5.309   4.668  15.300 -1.6293 -0.9195  0.2169
  860TIP3   OH224070   3.151   2.905   2.516  0.6930 -0.0700  0.6421
  860TIP3    H124071   3.207   2.828   2.520  1.5611  0.5275  0.3456
  860TIP3    H224072   3.185   2.956   2.443 -0.8450 -0.1404 -0.1683
  861TIP3   OH224073   1.981   5.456   2.454 -0.1424  0.0523  0.2781
  861TIP3    H124074   1.959   5.511   2.379  2.2218  1.4981  0.5299
  861TIP3    H224075   2.058   5.407   2.426  0.4550  0.2202  1.5312
  862TIP3   OH224076   6.831   4.431  14.835 -0.5082 -0.8572  0.4225
  862TIP3    H124077   6.892   4.363  14.806 -0.3358 -0.5208 -0.0326
  862TIP3    H224078   6.785   4.456  14.755  1.0600  1.1881  0.0761
  863TIP3   OH224079   3.384   2.442   4.239 -0.0247  0.2448  0.5083
  863TIP3    H124080   3.478   2.428   4.229 -0.1606  0.3599 -1.3433
  863TIP3    H224081   3.377   2.525   4.287  0.8475  0.9419 -0.5251
  864TIP3   OH224082   0.919   4.738  16.305 -0.2884 -0.0685 -0.1353
  864TIP3    H124083   0.896   4.744  16.213  0.4593 -1.0567 -0.4063
  864TIP3    H224084   0.930   4.828  16.333 -2.4131  0.3515 -0.4916
  865TIP3   OH224085   1.428   0.205  11.923 -0.1143  0.3299 -0.0454
  865TIP3    H124086   1.517   0.191  11.891  0.1382 -1.1422  1.1881
  865TIP3    H224087   1.438   0.219  12.017 -1.3756 -4.0840  0.9788
  866TIP3   OH224088   3.878   4.941   1.336 -0.4810  0.5500 -0.2048
  866TIP3    H124089   3.874   4.846   1.328 -0.7735  0.5334  0.0952
  866TIP3    H224090   3.848   4.974   1.251 -2.3467  0.3760  0.3429
  867TIP3   OH224091   6.815   6.726  15.583 -0.1859 -0.0945 -0.0262
  867TIP3    H124092   6.857   6.708  15.499 -0.3274 -1.4348  0.1575
  867TIP3    H224093   6.881   6.703  15.648 -0.2492  0.4512  0.2335
  868TIP3   OH224094   4.694   0.541  13.352  0.1431 -0.2093  0.4994
  868TIP3    H124095   4.780   0.513  13.383 -0.2328 -2.6254 -0.4039
  868TIP3    H224096   4.706   0.633  13.327  2.7199 -0.7256 -0.4771
  869TIP3   OH224097   0.417   0.044  13.107  0.8413  0.2362  0.1394
  869TIP3    H124098   0.344   0.002  13.061  0.1600  2.3372 -0.8037
  869TIP3    H224099   0.486   0.050  13.042  1.7045 -1.1825  0.8595
  870TIP3   OH224100   5.140   5.033  15.190  0.7266 -0.2184 -1.0726
  870TIP3    H124101   5.189   4.962  15.231  0.7162 -0.1083 -0.8686
  870TIP3    H224102   5.108   5.085  15.263 -0.1950 -0.6232 -1.1820
  871TIP3   OH224103   0.946   3.751   2.946  0.1400 -0.0184  1.1791
  871TIP3    H124104   0.877   3.684   2.950 -0.7342  0.4229 -2.6772
  871TIP3    H224105   1.016   3.717   3.002 -0.5717 -3.8099  0.0166
  872TIP3   OH224106   1.757   6.377   0.728  0.0298 -1.1370 -0.6294
  872TIP3    H124107   1.692   6.340   0.788 -0.2600  0.1249 -0.1550
  872TIP3    H224108   1.734   6.340   0.642 -0.9044 -1.2047 -0.3542
  873TIP3   OH224109   2.951   0.527   0.364 -0.0825  0.2797  0.2486
  873TIP3    H124110   3.011   0.457   0.339 -0.8710 -0.1365 -0.5530
  873TIP3    H224111   2.937   0.515   0.458 -1.5277 -1.7399 -0.1573
  874TIP3   OH224112   4.123   4.897   3.890 -0.1867  0.0332  0.8829
  874TIP3    H124113   4.136   4.960   3.819  0.5045 -0.9302  0.1143
  874TIP3    H224114   4.106   4.814   3.845  1.2229 -0.8064  1.8062
  875TIP3   OH224115   0.555   4.555   5.253 -0.3699  0.2103 -0.0300
  875TIP3    H124116   0.483   4.617   5.267 -2.1880 -1.4059 -1.4522
  875TIP3    H224117   0.524   4.500   5.180  2.0624 -0.9961 -0.2475
  876TIP3   OH224118   4.342   0.252   5.217  0.5095 -0.2697 -0.8666
  876TIP3    H124119   4.397   0.328   5.197 -0.9582  0.4290 -2.5399
  876TIP3    H224120   4.400   0.192   5.264  2.3757  0.8830 -1.5709
  877TIP3   OH224121   5.571   1.061   4.671 -0.5545  0.1528  0.2503
  877TIP3    H124122   5.548   1.048   4.763  0.8181  1.9856  0.9151
  877TIP3    H224123   5.609   0.978   4.644  0.5615  0.0956  1.8552
  878TIP3   OH224124   5.365   0.052   5.593  0.1730 -0.2133  0.3661
  878TIP3    H124125   5.308   0.117   5.550 -0.2733 -0.3207  0.7878
  878TIP3    H224126   5.450   0.095   5.598 -0.1789  0.4382  0.8578
  879TIP3   OH224127   2.113   0.522  13.060  0.9702  0.1821  0.3833
  879TIP3    H124128   2.101   0.580  13.135  2.2682  0.0175  0.7400
  879TIP3    H224129   2.172   0.570  13.002  1.7013 -0.5889  0.4788
  880TIP3   OH224130   1.212   2.695  14.190  0.1440  0.1615 -0.3147
  880TIP3    H124131   1.278   2.627  14.177  0.7871  0.5729  0.7212
  880TIP3    H224132   1.129   2.647  14.191  0.5942 -0.6319  0.5659
  881TIP3   OH224133   2.441   0.357   3.091  0.2818 -0.0972 -0.0502
  881TIP3    H124134   2.390   0.362   3.172  0.1762  1.2342 -0.1753
  881TIP3    H224135   2.507   0.290   3.108 -0.7689 -1.0036  0.5389
  882TIP3   OH224136   5.496   3.806   1.695 -0.0997  0.0784  0.1408
  882TIP3    H124137   5.584   3.772   1.707 -0.1480  0.3419  1.3587
  882TIP3    H224138   5.444   3.765   1.764 -0.1852  2.4710  1.6327
  883TIP3   OH224139   6.019   6.751  11.867 -0.2910  0.0098 -0.1179
  883TIP3    H124140   6.093   6.732  11.926 -1.4165  0.0599  1.3576
  883TIP3    H224141   6.031   6.843  11.843 -0.0230  0.0964  0.3300
  884TIP3   OH224142   1.541   2.380  16.016  0.2255 -0.4277 -0.7813
  884TIP3    H124143   1.620   2.327  16.014  0.3729 -0.2932  0.4930
  884TIP3    H224144   1.538   2.416  16.105 -0.3917  0.8993 -1.3015
  885TIP3   OH224145   3.821   4.292  14.951 -0.1851 -0.2735 -0.2058
  885TIP3    H124146   3.785   4.380  14.947 -0.5377 -0.4635 -1.8754
  885TIP3    H224147   3.788   4.248  14.872  1.3154 -1.3738 -0.2790
  886TIP3   OH224148   0.803   0.107  16.406 -0.0004 -0.4428 -0.5173
  886TIP3    H124149   0.785   0.153  16.324  1.3039 -0.7267 -1.0003
  886TIP3    H224150   0.730   0.047  16.417 -0.8809  0.5677 -0.7463
  887TIP3   OH224151   1.600   5.182  12.582  0.0296  0.0840 -0.4373
  887TIP3    H124152   1.646   5.242  12.641 -1.9166  2.2546 -0.9445
  887TIP3    H224153   1.525   5.151  12.634  0.7102 -1.5244 -0.3723
  888TIP3   OH224154   3.758   4.846  16.272  0.1439 -0.3275  0.2697
  888TIP3    H124155   3.798   4.830  16.187  1.1438  1.0206  0.4650
  888TIP3    H224156   3.811   4.915  16.312 -2.1620  1.3354  0.6806
  889TIP3   OH224157   5.488   0.428  10.895 -0.0365  0.8269  0.2236
  889TIP3    H124158   5.432   0.451  10.821 -0.5290  0.0356  0.3321
  889TIP3    H224159   5.571   0.473  10.879  0.0668  0.1980 -1.1141
  890TIP3   OH224160   1.102   0.841   5.065  0.2353 -0.0695  0.0313
  890TIP3    H124161   1.139   0.916   5.112  0.0417  0.4864 -0.6645
  890TIP3    H224162   1.011   0.836   5.095  0.4037 -0.3884  0.5004
  891TIP3   OH224163   4.264   6.399  11.957  0.5936 -0.3253 -0.2425
  891TIP3    H124164   4.171   6.390  11.976  0.2955  0.9576 -0.9966
  891TIP3    H224165   4.280   6.493  11.955  1.9226 -0.5190 -0.1004
  892TIP3   OH224166   5.318   6.313   3.820 -0.0639 -0.4958 -0.5782
  892TIP3    H124167   5.401   6.270   3.841 -1.1579 -2.7630 -0.5821
  892TIP3    H224168   5.303   6.373   3.893  1.4779 -0.1424 -0.5161
  893TIP3   OH224169   4.889   2.420  15.761 -0.4157  0.0639 -0.8522
  893TIP3    H124170   4.862   2.343  15.711 -1.1643 -0.0646 -0.2644
  893TIP3    H224171   4.839   2.492  15.723 -0.0449  0.1870 -1.1109
  894TIP3   OH224172   5.735   0.363   2.800  0.2691 -0.5222  0.1034
  894TIP3    H124173   5.806   0.312   2.762  1.4431 -0.2663  1.8724
  894TIP3    H224174   5.690   0.303   2.860  0.8694  0.1363  1.2367
  895TIP3   OH224175   6.005   2.010   5.434  0.1972  0.6569  0.5972
  895TIP3    H124176   5.928   2.066   5.445  0.3852  0.6814  1.8767
  895TIP3    H224177   6.018   2.006   5.339 -2.6507 -1.0748  0.1574
  896TIP3   OH224178   0.168   1.294  11.128 -0.5350 -0.3223  0.5618
  896TIP3    H124179   0.199   1.210  11.095  1.5458  0.6232 -0.0997
  896TIP3    H224180   0.147   1.346  11.050 -2.8725 -0.5348  0.9791
  897TIP3   OH224181   3.133   3.002   2.223  0.0254  0.1656 -0.5469
  897TIP3    H124182   3.125   3.097   2.216 -0.8944  0.0203 -1.7805
  897TIP3    H224183   3.043   2.970   2.222  0.3347 -0.7393 -0.5574
  898TIP3   OH224184   2.576   1.003   5.343 -0.1345  0.3742  0.1594
  898TIP3    H124185   2.652   1.035   5.295 -0.8601  2.2071  0.1432
  898TIP3    H224186   2.610   0.934   5.400  1.2211  0.0385 -1.0153
  899TIP3   OH224187   3.875   4.652   1.417 -0.2706  0.3542  0.0824
  899TIP3    H124188   3.839   4.609   1.339 -0.1952  0.1696  0.1493
  899TIP3    H224189   3.839   4.603   1.491 -0.0429  0.2955  0.1558
  900TIP3   OH224190   4.115   0.455  16.492 -0.1651  0.7156 -1.2189
  900TIP3    H124191   4.100   0.497  16.577  0.0572  0.5591 -1.1005
  900TIP3    H224192   4.049   0.386  16.488 -0.2946  0.8410 -1.2540
  901TIP3   OH224193   0.271   1.948  13.948 -0.9533  0.1721  0.1869
  901TIP3    H124194   0.249   2.040  13.937 -2.2022 -0.1531 -0.2289
  901TIP3    H224195   0.222   1.921  14.025 -1.4978 -0.4172 -0.3569
  902TIP3   OH224196   5.889   4.476  16.226  0.3578  0.1709 -0.3843
  902TIP3    H124197   5.930   4.433  16.301 -0.8531  0.7701  0.6673
  902TIP3    H224198   5.962   4.513  16.176  1.1822 -0.1680  0.5490
  903TIP3   OH224199   0.493   5.856  11.825  0.1351 -0.1870  0.0988
  903TIP3    H124200   0.449   5.907  11.893 -0.2201  1.2213 -1.1268
  903TIP3    H224201   0.481   5.765  11.852 -0.8049  0.2951  1.4276
  904TIP3   OH224202   0.338   4.602   3.453  0.1784 -0.2423  0.2010
  904TIP3    H124203   0.290   4.645   3.523 -0.5697  1.6382 -1.3488
  904TIP3    H224204   0.375   4.675   3.402 -0.0322 -1.4768 -1.8224
  905TIP3   OH224205   1.116   1.868  14.174 -0.9009  0.4408  0.6542
  905TIP3    H124206   1.060   1.936  14.137 -0.0588  1.0522  0.4620
  905TIP3    H224207   1.205   1.893  14.148 -0.6382 -1.2540 -0.2387
  906TIP3   OH224208   2.990   3.266  11.233  0.1867 -0.1784  0.2249
  906TIP3    H124209   3.035   3.342  11.197  0.2731 -0.3417 -0.0226
  906TIP3    H224210   2.899   3.294  11.244 -0.0202 -0.3612 -0.8881
  907TIP3   OH224211   5.238   6.331  15.185  0.1573 -0.3838  0.1567
  907TIP3    H124212   5.319   6.382  15.188  0.2802 -0.1529 -3.4433
  907TIP3    H224213   5.255   6.261  15.123 -1.5009 -2.1957  1.6087
  908TIP3   OH224214   0.309   6.746  12.112  0.1733  0.5058 -0.1207
  908TIP3    H124215   0.349   6.734  12.026  1.1706  0.1529  0.3696
  908TIP3    H224216   0.378   6.721  12.174 -0.7709  0.0158  0.7667
  909TIP3   OH224217   4.080   0.098  15.289 -0.0150 -0.1644 -0.0746
  909TIP3    H124218   4.006   0.105  15.228  0.8942 -0.1068 -1.2044
  909TIP3    H224219   4.073   0.175  15.344 -0.5142  0.1059 -0.5049
  910TIP3   OH224220   5.587   1.055  11.839 -0.1984  0.3985 -0.4971
  910TIP3    H124221   5.590   1.147  11.867  2.2359  0.8772 -2.1247
  910TIP3    H224222   5.593   1.059  11.744  1.9938 -1.4619 -0.5107
  911TIP3   OH224223   6.732   5.629   1.619  0.1047 -0.0477 -0.1638
  911TIP3    H124224   6.782   5.661   1.543  0.5984  0.2707  0.2890
  911TIP3    H224225   6.644   5.664   1.605 -0.0119 -0.6327 -0.9813
  912TIP3   OH224226   5.010   1.108   4.354 -0.2473 -0.0748 -0.1233
  912TIP3    H124227   4.961   1.087   4.434  1.7580  0.6189  1.3994
  912TIP3    H224228   4.981   1.196   4.331  0.0026  0.2110  0.5929
  913TIP3   OH224229   0.683   1.824  14.984  0.0098 -0.3136  0.1860
  913TIP3    H124230   0.766   1.848  15.024  0.5621 -2.0242  0.1434
  913TIP3    H224231   0.656   1.902  14.936  1.2499  0.4931  0.7652
  914TIP3   OH224232   5.322   6.555  16.196 -0.3558 -0.0198  0.5451
  914TIP3    H124233   5.363   6.488  16.251 -0.3073  0.0738  0.6249
  914TIP3    H224234   5.394   6.615  16.174  0.0833 -1.1566 -1.3216
  915TIP3   OH224235   1.736   3.040   1.181 -0.3494 -0.0623 -0.1291
  915TIP3    H124236   1.671   3.098   1.142  0.3562  0.9384  0.1589
  915TIP3    H224237   1.691   2.956   1.189 -1.3623  0.4187 -0.6247
  916TIP3   OH224238   5.422   2.025  14.621 -0.1424 -0.2061 -0.3500
  916TIP3    H124239   5.506   2.007  14.578  0.6764  3.0816 -0.3978
  916TIP3    H224240   5.418   1.962  14.694  0.6403 -2.7358 -2.3392
  917TIP3   OH224241   0.832   0.238  16.141  0.2622  0.0304 -0.5440
  917TIP3    H124242   0.895   0.274  16.079 -0.2148  0.8441 -0.5746
  917TIP3    H224243   0.807   0.312  16.196 -0.0037 -0.4804  0.0285
  918TIP3   OH224244   0.588   3.240   0.027 -0.0009  0.1731 -0.1350
  918TIP3    H124245   0.581   3.290  -0.054  3.8266 -0.9384 -1.3771
  918TIP3    H224246   0.616   3.305   0.092 -0.8777  0.6561 -0.2217
  919TIP3   OH224247   5.237   4.203   2.619 -0.0385  0.0884 -0.3513
  919TIP3    H124248   5.299   4.135   2.644  0.4250  0.4721 -0.4574
  919TIP3    H224249   5.196   4.231   2.701  0.3099  0.2097 -0.2198
  920TIP3   OH224250   1.477   1.114  11.967 -0.3312 -0.1423 -0.2612
  920TIP3    H124251   1.476   1.084  11.876 -1.8377 -1.5502  0.1829
  920TIP3    H224252   1.567   1.099  11.996  0.7490  2.1804 -2.0455
  921TIP3   OH224253   2.517   3.016   4.398 -0.2546 -0.4878  0.8878
  921TIP3    H124254   2.601   3.048   4.364 -0.4678 -0.3268  0.4952
  921TIP3    H224255   2.464   3.000   4.319 -1.1857  1.0449  1.1407
  922TIP3   OH224256   6.765   5.270   6.052  0.0999  0.1245  0.2014
  922TIP3    H124257   6.754   5.342   5.991 -1.1843  0.2618  0.5693
  922TIP3    H224258   6.723   5.300   6.133 -2.7443 -1.9283 -0.3598
  923TIP3   OH224259   5.478   5.862  11.525  0.1884 -0.2218  0.2145
  923TIP3    H124260   5.527   5.846  11.444 -1.6529 -0.5114 -0.9048
  923TIP3    H224261   5.476   5.778  11.569  0.3097 -0.3215  0.0312
  924TIP3   OH224262   0.938   4.204   0.639  0.5170  0.2995  0.2713
  924TIP3    H124263   1.002   4.272   0.617 -1.4985  2.4473  0.6138
  924TIP3    H224264   0.888   4.241   0.712 -1.1053 -1.2621  0.0186
  925TIP3   OH224265   5.471   6.817  10.634 -0.3153  0.4564  0.1026
  925TIP3    H124266   5.491   6.751  10.699 -0.7506  1.3638  1.1913
  925TIP3    H224267   5.377   6.833  10.643  0.3393  3.9422  2.6193
  926TIP3   OH224268   4.605   3.302   2.323 -0.5563 -0.7712 -0.6600
  926TIP3    H124269   4.667   3.303   2.251 -0.4569  1.6134 -0.5918
  926TIP3    H224270   4.527   3.347   2.289 -1.5736 -2.0549 -0.1415
  927TIP3   OH224271   0.532   6.266   0.875 -0.6299  0.0200 -0.1969
  927TIP3    H124272   0.524   6.177   0.911  0.1713 -0.0195 -0.0810
  927TIP3    H224273   0.462   6.272   0.810 -1.2675 -0.3746  0.4350
  928TIP3   OH224274   6.616   1.280  16.039  0.2209  0.1693 -0.3142
  928TIP3    H124275   6.650   1.202  16.084  1.3517  1.1618  0.6375
  928TIP3    H224276   6.638   1.266  15.947  3.0912  0.5858  0.1893
  929TIP3   OH224277   4.983   3.987   3.770 -0.0554 -0.2358 -0.6200
  929TIP3    H124278   4.971   4.030   3.686  1.5667  0.2384 -0.6460
  929TIP3    H224279   5.043   4.044   3.818 -0.5042 -0.7842  0.6482
  930TIP3   OH224280   1.764   6.072  16.324  0.3240  0.2470 -0.2430
  930TIP3    H124281   1.856   6.077  16.349 -0.2117  0.5270  1.8620
  930TIP3    H224282   1.716   6.103  16.401 -1.5490  0.0491 -1.2582
  931TIP3   OH224283   4.765   1.888  10.330  0.5046  0.4243  0.1730
  931TIP3    H124284   4.705   1.849  10.395 -0.1198 -0.9107 -1.1455
  931TIP3    H224285   4.844   1.835  10.336  0.3940  0.2079 -0.2309
  932TIP3   OH224286   4.973   0.661  14.774  0.2805  0.0547 -0.0743
  932TIP3    H124287   4.913   0.647  14.700 -1.0362  0.9412  0.7845
  932TIP3    H224288   4.993   0.573  14.805 -3.3718 -0.3544  1.7371
  933TIP3   OH224289   0.306   6.615  14.077 -0.3036  0.4966 -0.0849
  933TIP3    H124290   0.396   6.630  14.049  0.1787 -0.1375  1.0533
  933TIP3    H224291   0.256   6.683  14.032  0.6628  0.5887 -1.0813
  934TIP3   OH224292   3.899   5.526  16.687  0.5529  1.5711  0.0331
  934TIP3    H124293   3.946   5.574  16.755 -1.1547  1.5603  1.2815
  934TIP3    H224294   3.824   5.487  16.732  0.1854  0.3033 -1.5677
  935TIP3   OH224295   4.167   5.797   3.504 -0.2684  0.1906  0.4112
  935TIP3    H124296   4.213   5.790   3.588  1.9458  1.2262 -0.6173
  935TIP3    H224297   4.100   5.864   3.518 -0.8822 -0.6583  1.6995
  936TIP3   OH224298   3.291   6.529  16.450  0.3079 -0.2810  0.3387
  936TIP3    H124299   3.351   6.569  16.512  0.8249 -0.1438 -0.2359
  936TIP3    H224300   3.346   6.468  16.400 -0.0031 -0.0736 -0.2628
  937TIP3   OH224301   0.737   0.848  11.468  0.1522  0.8713  0.2733
  937TIP3    H124302   0.817   0.801  11.494  1.0112  1.9021 -0.4395
  937TIP3    H224303   0.755   0.940  11.488 -0.3161  1.2998 -1.1432
  938TIP3   OH224304   2.558   2.649   2.235  0.1977 -0.0910 -0.3243
  938TIP3    H124305   2.528   2.732   2.200  0.9876  0.3457  0.0072
  938TIP3    H224306   2.486   2.618   2.289 -0.1909  0.2636 -0.6327
  939TIP3   OH224307   3.810   5.098   3.284  0.0101  0.3009  0.0986
  939TIP3    H124308   3.813   5.185   3.243 -1.6641 -0.0082 -0.7601
  939TIP3    H224309   3.841   5.039   3.216  0.6818  0.1583  0.5206
  940TIP3   OH224310   6.214   2.521  17.005  0.3552 -0.0765 -0.0052
  940TIP3    H124311   6.146   2.558  16.949  0.9685  0.5795 -0.3495
  940TIP3    H224312   6.296   2.549  16.964  0.8253 -0.2732  0.7750
  941TIP3   OH224313   0.973   1.513   3.102  0.4550 -0.6329 -0.4121
  941TIP3    H124314   0.967   1.535   3.009 -0.3273  0.8915 -0.0324
  941TIP3    H224315   0.882   1.515   3.132  0.8969  2.4793  1.1260
  942TIP3   OH224316   3.344   2.295  14.315 -0.0860 -0.0258 -0.0124
  942TIP3    H124317   3.306   2.210  14.336 -1.6237  0.4090 -0.8840
  942TIP3    H224318   3.270   2.356  14.316  0.4440  0.7585 -2.3887
  943TIP3   OH224319   6.327   1.104  10.221  0.2625 -0.1485  0.0193
  943TIP3    H124320   6.317   1.080  10.129 -1.4055  0.4101  0.0348
  943TIP3    H224321   6.250   1.068  10.264  1.4940 -1.2292  1.4000
  944TIP3   OH224322   6.394   3.559  15.984 -0.1108  0.3772  0.5409
  944TIP3    H124323   6.457   3.500  16.025  0.9389  1.3084  0.3302
  944TIP3    H224324   6.350   3.601  16.058 -1.2105 -0.9870  0.6940
  945TIP3   OH224325   2.106   5.141  16.622  0.3748  0.1689  0.4518
  945TIP3    H124326   2.052   5.076  16.578  0.0534  0.3662  0.5535
  945TIP3    H224327   2.044   5.195  16.672  0.1941  2.6329 -2.1640
  946TIP3   OH224328   3.667   2.098   0.557 -0.1316  0.6333 -0.4245
  946TIP3    H124329   3.742   2.131   0.507  1.1728 -1.7457 -0.1906
  946TIP3    H224330   3.595   2.095   0.493  1.0136 -0.6326 -1.7272
  947TIP3   OH224331   4.113   0.500   1.912  0.8385 -0.3593 -0.1820
  947TIP3    H124332   4.088   0.409   1.899  0.4138 -0.0084 -2.1237
  947TIP3    H224333   4.045   0.536   1.970 -1.2632 -0.3323 -2.5145
  948TIP3   OH224334   5.663   4.240  14.060 -0.5537  0.4343 -0.0217
  948TIP3    H124335   5.716   4.310  14.021  0.1313 -1.2296 -2.2679
  948TIP3    H224336   5.574   4.274  14.059 -0.0440  1.9193  0.5850
  949TIP3   OH224337   2.537   4.090   4.272  0.1621  0.4263 -0.1506
  949TIP3    H124338   2.588   4.108   4.194  1.3175  3.2693  1.1121
  949TIP3    H224339   2.546   4.169   4.325 -1.8702 -0.7589  2.1627
  950TIP3   OH224340   6.377   1.513  11.462  0.6947 -0.0870  0.4300
  950TIP3    H124341   6.300   1.570  11.458  0.4715 -0.4498 -1.6114
  950TIP3    H224342   6.426   1.532  11.382  2.0519 -0.8053  1.0503
  951TIP3   OH224343   2.695   3.725  14.045  0.6850 -0.1437  0.0115
  951TIP3    H124344   2.743   3.642  14.045 -1.3824 -1.4314  1.1593
  951TIP3    H224345   2.629   3.714  13.977  0.9493  0.9431 -0.4406
  952TIP3   OH224346   2.136   0.022  14.928  0.5473 -0.0091  0.1383
  952TIP3    H124347   2.096   0.081  14.992 -0.1506 -1.0256  0.6886
  952TIP3    H224348   2.095  -0.063  14.946 -1.5996  0.1077 -3.2655
  953TIP3   OH224349   6.322   4.554   0.055  0.8291  0.0501 -0.5665
  953TIP3    H124350   6.280   4.619   0.111  2.8647  0.4676  0.5542
  953TIP3    H224351   6.402   4.597   0.025  1.6441 -1.5377 -0.7427
  954TIP3   OH224352   5.220   2.063  15.862  0.2223  0.0506 -0.1871
  954TIP3    H124353   5.271   2.122  15.917  0.7922 -0.4739 -0.1375
  954TIP3    H224354   5.129   2.089  15.875  0.2718 -0.6147  1.6604
  955TIP3   OH224355   0.025   1.966  15.728  0.3440 -0.4416 -0.4517
  955TIP3    H124356   0.011   1.951  15.821  0.5176  2.9526  0.2328
  955TIP3    H224357  -0.035   2.037  15.706  3.1703  1.6651 -1.8807
  956TIP3   OH224358   5.272   4.722   5.477  0.6379  0.3253 -0.1204
  956TIP3    H124359   5.362   4.704   5.502  0.7001 -0.0659 -0.6155
  956TIP3    H224360   5.256   4.666   5.401  0.4393  1.4329 -0.9185
  957TIP3   OH224361   0.707   0.205   3.932 -0.4526  0.1839 -0.5336
  957TIP3    H124362   0.748   0.119   3.937 -0.5323 -0.0114 -2.4272
  957TIP3    H224363   0.692   0.220   3.838  0.0945  2.5194 -0.3292
  958TIP3   OH224364   2.563   1.078   1.075 -0.1329  0.1837  0.0796
  958TIP3    H124365   2.600   1.019   1.009 -3.0645 -1.8884  0.0568
  958TIP3    H224366   2.538   1.156   1.026 -2.6394 -1.4718 -1.5502
  959TIP3   OH224367   5.336   6.566  11.611  0.2546 -0.3201  0.5062
  959TIP3    H124368   5.406   6.572  11.546 -1.0500 -0.9521 -0.9969
  959TIP3    H224369   5.362   6.629  11.679  1.2485  0.9633 -0.9867
  960TIP3   OH224370   6.097   0.801   6.092 -0.1174  0.3890  0.0191
  960TIP3    H124371   6.109   0.706   6.095 -2.7002 -0.0757 -1.6781
  960TIP3    H224372   6.016   0.817   6.140  0.4418  1.8197  0.5583
  961TIP3   OH224373   6.664   0.514  14.285  0.0417  0.3936  0.0569
  961TIP3    H124374   6.600   0.561  14.339 -0.6787 -1.9542  1.3968
  961TIP3    H224375   6.612   0.476  14.214  0.2739  0.0736  0.0537
  962TIP3   OH224376   1.589   3.955   6.652  0.0650  0.9633 -0.0615
  962TIP3    H124377   1.539   3.977   6.730  0.3269 -1.6066  0.9292
  962TIP3    H224378   1.679   3.975   6.673  0.6496 -2.7049  1.7249
  963TIP3   OH224379   3.051   2.017  15.600 -0.4731  0.2265 -0.1680
  963TIP3    H124380   3.020   2.009  15.691 -3.0186 -1.8965 -1.0735
  963TIP3    H224381   3.006   2.095  15.567 -3.3541 -1.5638 -0.8074
  964TIP3   OH224382   5.565   2.847  11.029  0.2950 -0.5177 -0.3554
  964TIP3    H124383   5.549   2.803  10.946 -1.6753  0.1620 -0.3690
  964TIP3    H224384   5.486   2.831  11.080  0.9430  0.1893  0.9015
  965TIP3   OH224385   5.389   4.634  16.504 -0.3903  0.0505  0.0855
  965TIP3    H124386   5.293   4.641  16.496 -0.4152  0.3562  0.6339
  965TIP3    H224387   5.419   4.725  16.500 -0.2847  0.1234  1.9155
  966TIP3   OH224388   1.744   3.666   1.034  0.0050  0.3524 -0.3392
  966TIP3    H124389   1.726   3.751   1.073 -0.5116 -0.4661  1.3054
  966TIP3    H224390   1.660   3.637   1.000 -0.4896 -0.6749  1.6099
  967TIP3   OH224391   2.826   1.055   5.223  0.2047 -0.6413  0.9354
  967TIP3    H124392   2.821   0.979   5.166  1.9586 -0.8355  0.9805
  967TIP3    H224393   2.893   1.110   5.184  1.3814 -0.7270  2.7038
  968TIP3   OH224394   3.773   1.601   1.711  1.1819 -0.5728  0.2477
  968TIP3    H124395   3.684   1.570   1.729  0.6665 -0.2313 -1.4921
  968TIP3    H224396   3.772   1.694   1.735  1.0889 -0.5822  0.2788
  969TIP3   OH224397   5.649   0.756  13.161  0.0139 -0.2041 -0.3961
  969TIP3    H124398   5.706   0.733  13.235 -1.4857 -0.6880  0.6530
  969TIP3    H224399   5.609   0.673  13.135  0.4018 -0.0114 -1.6731
  970TIP3   OH224400   2.247   5.555  14.833  0.3735  0.2337 -0.0231
  970TIP3    H124401   2.283   5.520  14.752 -2.0172  0.5858 -1.2916
  970TIP3    H224402   2.298   5.635  14.849  1.4466 -0.2977 -0.6442
  971TIP3   OH224403   2.552   5.308  10.650 -0.1685  0.2635  0.1653
  971TIP3    H124404   2.504   5.299  10.733  0.0145  1.4633  0.4104
  971TIP3    H224405   2.487   5.287  10.583 -0.7419  0.7817  0.5462
  972TIP3   OH224406   4.847   2.843  12.211  0.0678 -0.5355  0.0996
  972TIP3    H124407   4.819   2.887  12.291  0.2699 -0.2983  0.0420
  972TIP3    H224408   4.765   2.817  12.168 -0.2445  2.2404 -1.2388
  973TIP3   OH224409   5.792   1.152  14.206 -0.2935 -0.7116 -0.2736
  973TIP3    H124410   5.882   1.125  14.223  0.0898 -0.1570 -1.2887
  973TIP3    H224411   5.783   1.148  14.111 -1.4534 -1.0721 -0.1731
  974TIP3   OH224412   2.899   4.536  12.721  0.0296  0.2065 -0.5896
  974TIP3    H124413   2.846   4.574  12.651 -0.9099 -1.2153 -0.6964
  974TIP3    H224414   2.976   4.592  12.726 -0.9446  1.6493 -1.2219
  975TIP3   OH224415   5.574   5.687   4.048 -0.3262 -0.2753  0.3421
  975TIP3    H124416   5.667   5.684   4.070 -0.2234  1.7484  0.4357
  975TIP3    H224417   5.537   5.749   4.111 -1.2246  0.8533 -1.2196
  976TIP3   OH224418   2.524   5.114   4.174  0.6057 -0.1518  0.0406
  976TIP3    H124419   2.469   5.039   4.197  0.2720  0.2789  0.6766
  976TIP3    H224420   2.613   5.079   4.172  0.4641 -0.5385  0.4279
  977TIP3   OH224421   5.614   0.676   5.710 -0.4002 -0.2459 -0.4853
  977TIP3    H124422   5.704   0.708   5.704 -0.7423  0.4732 -2.1411
  977TIP3    H224423   5.560   0.749   5.681 -1.6257 -0.3541  1.3554
  978TIP3   OH224424   0.052   5.978  14.422 -0.7147 -0.4494  0.0167
  978TIP3    H124425   0.092   5.922  14.356 -0.4228 -0.7236  0.4245
  978TIP3    H224426   0.066   5.933  14.505 -0.9013 -0.0112  0.2943
  979TIP3   OH224427   2.179   0.623  15.534 -0.4764 -0.4365  0.6443
  979TIP3    H124428   2.165   0.716  15.515  1.0242 -0.2299  0.4270
  979TIP3    H224429   2.150   0.577  15.455  2.7113  0.1924 -1.0698
  980TIP3   OH224430   3.049   3.121   2.748 -0.3549  0.6874 -0.2930
  980TIP3    H124431   3.034   3.027   2.740 -0.1514  0.7322 -1.3421
  980TIP3    H224432   3.005   3.160   2.673  1.7208  1.1584 -1.3565
  981TIP3   OH224433   4.575   4.117   1.018 -0.0881  0.0693 -0.5030
  981TIP3    H124434   4.600   4.078   0.934 -1.8885  1.3755 -1.7136
  981TIP3    H224435   4.506   4.060   1.052 -2.0723  1.5285 -1.8351
  982TIP3   OH224436   0.147   4.304  14.509  0.4503 -0.2424 -0.4046
  982TIP3    H124437   0.195   4.335  14.586  0.5771 -2.0134  0.2747
  982TIP3    H224438   0.192   4.224  14.483 -2.6327 -2.6227  0.9029
  983TIP3   OH224439   1.032   1.408  12.443 -0.0205  0.1693  0.1469
  983TIP3    H124440   0.965   1.446  12.500 -0.3508  2.8283 -1.8214
  983TIP3    H224441   1.114   1.423  12.490 -0.5359 -0.7448  1.3960
  984TIP3   OH224442   2.658   0.938  15.917 -0.2910 -0.4236  0.1967
  984TIP3    H124443   2.714   0.902  15.848 -0.6900 -2.6970  0.9871
  984TIP3    H224444   2.720   0.964  15.985 -0.0767 -1.1636  0.2923
  985TIP3   OH224445   0.099   1.672   2.044  0.1630 -0.2247 -0.1128
  985TIP3    H124446   0.105   1.578   2.059  2.2975 -0.0577  0.3967
  985TIP3    H224447   0.168   1.690   1.980 -1.3900  0.7712 -1.6058
  986TIP3   OH224448   4.686   6.622  15.713  0.2169 -0.1486  0.1239
  986TIP3    H124449   4.662   6.590  15.626  0.2178 -0.4010  0.2155
  986TIP3    H224450   4.623   6.581  15.772 -1.1316  1.6326  0.0256
  987TIP3   OH224451   5.525   5.980   3.078  0.4480  0.2784 -0.1900
  987TIP3    H124452   5.492   6.046   3.018  0.2346  0.6365  0.3171
  987TIP3    H224453   5.569   5.916   3.022 -2.9704 -1.4371 -1.1818
  988TIP3   OH224454   1.888   6.476  10.464 -0.4307  0.0124  0.3726
  988TIP3    H124455   1.842   6.461  10.381  1.0251  0.6382 -0.5791
  988TIP3    H224456   1.904   6.388  10.499 -1.5976 -0.2410  0.3317
  989TIP3   OH224457   2.603   2.786  12.287 -0.0606 -0.1874 -0.2019
  989TIP3    H124458   2.653   2.821  12.213 -1.5301  1.5366 -0.4534
  989TIP3    H224459   2.573   2.864  12.335 -1.4046 -1.1791  0.6613
  990TIP3   OH224460   2.035   4.712   3.470  0.0883 -0.4217 -0.3677
  990TIP3    H124461   2.046   4.785   3.532 -0.1100 -0.8427  0.1704
  990TIP3    H224462   2.023   4.635   3.526 -0.2718 -0.7817 -0.9343
  991TIP3   OH224463   3.054   3.690  11.976  0.5069 -0.1837  0.0290
  991TIP3    H124464   3.027   3.674  12.067  0.7912  0.7289  0.2895
  991TIP3    H224465   2.974   3.677  11.925  0.4718 -1.2418  0.3380
  992TIP3   OH224466   3.477   1.666  13.380 -0.2847 -0.0687 -0.2199
  992TIP3    H124467   3.504   1.750  13.417 -2.9967  0.3974  0.9290
  992TIP3    H224468   3.418   1.629  13.445  1.1685 -3.1505 -0.4775
  993TIP3   OH224469   4.110   0.754  13.889 -0.7298  0.0424  0.2531
  993TIP3    H124470   4.178   0.777  13.952 -0.8769  0.1230  0.3814
  993TIP3    H224471   4.110   0.658  13.888 -0.4134  0.0419  0.0355
  994TIP3   OH224472   4.051   3.437  16.298 -0.1353  0.7960  0.7438
  994TIP3    H124473   3.985   3.503  16.279 -0.8587 -0.0432  0.2770
  994TIP3    H224474   4.134   3.476  16.269 -0.7809  0.7892 -1.2392
  995TIP3   OH224475   5.081   3.767  14.448  0.0145  0.1374  0.0373
  995TIP3    H124476   5.145   3.700  14.469  2.1796  1.9519 -0.4525
  995TIP3    H224477   5.006   3.747  14.505 -0.0343 -3.4121 -1.0227
  996TIP3   OH224478   6.066   0.909  13.259  0.1774  0.4069  0.0106
  996TIP3    H124479   6.037   0.820  13.241  0.6209  0.1109  0.7078
  996TIP3    H224480   6.065   0.953  13.173 -2.4931  0.5009  0.0062
  997TIP3   OH224481   3.161   2.787   5.971 -0.9306 -0.0006  0.6830
  997TIP3    H124482   3.211   2.754   6.045  0.8977 -0.7960 -0.8303
  997TIP3    H224483   3.085   2.829   6.011  0.9391  1.3575  3.1117
  998TIP3   OH224484   5.087   3.459  14.180 -0.0490  0.0035 -0.4158
  998TIP3    H124485   5.162   3.517  14.197  0.6857 -1.2582  0.8498
  998TIP3    H224486   5.014   3.503  14.223 -0.0960  1.2671 -1.6857
  999TIP3   OH224487   5.204   2.265  13.679  0.6303  0.2348  0.5423
  999TIP3    H124488   5.230   2.350  13.644  0.9303 -0.1952 -0.3055
  999TIP3    H224489   5.174   2.215  13.602  2.4860 -1.1774  0.6671
 1000TIP3   OH224490   4.206   5.008   0.722 -0.3012 -0.0267  0.2392
 1000TIP3    H124491   4.182   5.087   0.674  1.5979  0.3853 -0.1255
 1000TIP3    H224492   4.188   5.030   0.814 -1.3132  0.2055  0.0035
 1001TIP3   OH224493   2.979   3.286  16.532  0.4172 -0.0247  0.1534
 1001TIP3    H124494   3.044   3.310  16.598 -0.2364  0.5009  0.6247
 1001TIP3    H224495   2.933   3.368  16.513 -1.0917 -0.6454  0.9338
 1002TIP3   OH224496   6.412   2.788  12.333  0.0301 -0.4002  0.1155
 1002TIP3    H124497   6.500   2.812  12.362  0.2160  0.1037 -0.8402
 1002TIP3    H224498   6.421   2.697  12.304 -0.1196 -0.8554  1.4321
 1003TIP3   OH224499   5.357   0.735  12.882  0.6989  0.1309  0.5958
 1003TIP3    H124500   5.364   0.826  12.910 -0.2130  0.2344  0.5195
 1003TIP3    H224501   5.413   0.729  12.804 -0.6501  1.0952 -0.4950
 1004TIP3   OH224502   5.446   2.976  16.488 -0.0590  0.4257  0.3480
 1004TIP3    H124503   5.541   2.967  16.485  0.0999  1.9251 -1.5395
 1004TIP3    H224504   5.432   3.064  16.525 -0.5742  1.0646 -1.2679
 1005TIP3   OH224505   5.057   5.436  13.998 -0.4032 -0.3040 -0.2371
 1005TIP3    H124506   5.009   5.497  13.943 -0.5168 -0.7119 -0.6053
 1005TIP3    H224507   5.142   5.426  13.954  0.5534  1.3967  1.0845
 1006TIP3   OH224508   4.330   5.236  15.409  0.0464  0.0265  0.4212
 1006TIP3    H124509   4.335   5.197  15.322  1.5291 -0.1718  0.5855
 1006TIP3    H224510   4.279   5.316  15.396  0.5938  0.2075 -0.7043
 1007TIP3   OH224511   6.813   1.272   2.417  0.1790  0.1707  0.0831
 1007TIP3    H124512   6.870   1.345   2.444 -0.6167  0.2338  1.6776
 1007TIP3    H224513   6.729   1.314   2.397 -0.3468 -0.3189  1.2224
 1008TIP3   OH224514   2.857   4.168   3.454 -0.2325  0.4271  0.4800
 1008TIP3    H124515   2.908   4.182   3.374  0.0934  0.3054  0.6641
 1008TIP3    H224516   2.881   4.080   3.484 -0.2087  0.5428  0.8122
 1009TIP3   OH224517   0.171   6.764  16.413  0.2962  0.0619  0.2408
 1009TIP3    H124518   0.241   6.711  16.450 -0.4171 -0.5040  0.8052
 1009TIP3    H224519   0.209   6.802  16.334  0.9149 -1.0628 -0.0277
 1010TIP3   OH224520   2.350   3.587  12.718  0.0789  0.0048 -0.4738
 1010TIP3    H124521   2.423   3.525  12.716 -1.3051 -1.8258  1.5894
 1010TIP3    H224522   2.281   3.544  12.666 -1.5515 -1.2154  2.4910
 1011TIP3   OH224523   4.931   4.265  15.864  0.5134  0.2451  0.1343
 1011TIP3    H124524   4.866   4.253  15.795  0.3495  0.3902  0.2655
 1011TIP3    H224525   4.912   4.350  15.901 -0.3389 -0.4489  1.3566
 1012TIP3   OH224526   6.085   4.351   4.709  0.1113 -0.3247  0.3004
 1012TIP3    H124527   6.061   4.356   4.616  0.0230 -1.7877  0.2126
 1012TIP3    H224528   6.176   4.321   4.709  0.9687  2.0596  0.6891
 1013TIP3   OH224529   6.298   3.956  14.550 -0.1828  0.5656 -0.1918
 1013TIP3    H124530   6.210   3.921  14.561  0.8333 -1.4810  2.2857
 1013TIP3    H224531   6.317   3.999  14.633  1.1826  0.9179 -0.6646
 1014TIP3   OH224532   3.172   6.003  10.835 -0.2284  0.9214 -0.0511
 1014TIP3    H124533   3.262   5.970  10.840 -0.4492  0.3766  0.5059
 1014TIP3    H224534   3.172   6.059  10.758  0.1014 -0.6129 -1.2218
 1015TIP3   OH224535   0.971   3.246   3.540 -0.3097 -0.6272 -0.0180
 1015TIP3    H124536   1.049   3.211   3.496  0.2876 -0.7488  1.1124
 1015TIP3    H224537   0.971   3.339   3.517  1.5830 -0.0622  1.9274
 1016TIP3   OH224538   3.944   1.777  14.776 -0.0860 -0.0026  0.4117
 1016TIP3    H124539   3.896   1.712  14.828 -1.0043 -0.3951 -0.8901
 1016TIP3    H224540   3.961   1.848  14.838  1.9187 -1.8712  2.1948
 1017TIP3   OH224541   4.854   0.701   1.856 -0.4828  0.4819 -0.0889
 1017TIP3    H124542   4.846   0.610   1.825 -1.2061  1.4673 -3.0765
 1017TIP3    H224543   4.934   0.733   1.815  1.9291  0.2641  3.8892
 1018TIP3   OH224544   1.045   1.734  13.701  0.1692  0.3833  0.0324
 1018TIP3    H124545   1.027   1.785  13.622  2.0264  1.4391  0.2314
 1018TIP3    H224546   1.034   1.643  13.673 -1.2668  0.7972 -0.8470
 1019TIP3   OH224547   6.641   0.143  12.854 -0.1834 -0.5123  0.5302
 1019TIP3    H124548   6.693   0.063  12.861  0.5257 -0.3218 -1.6162
 1019TIP3    H224549   6.703   0.214  12.869 -0.7155 -0.3272  1.9767
 1020TIP3   OH224550   6.255   0.996   1.923  0.0117  0.4911 -0.0885
 1020TIP3    H124551   6.296   0.956   2.000 -0.2961 -0.2849 -0.3179
 1020TIP3    H224552   6.164   0.969   1.928  0.1297 -0.1099 -1.0826
 1021TIP3   OH224553   2.091   3.609  11.161 -0.0756 -0.9704 -0.5442
 1021TIP3    H124554   2.089   3.542  11.092 -1.8828 -1.8611  0.3123
 1021TIP3    H224555   2.042   3.683  11.124  0.8858 -0.5595 -1.0323
 1022TIP3   OH224556   4.110   4.091   3.940  0.3257  0.0761 -0.2812
 1022TIP3    H124557   4.032   4.081   3.886  0.7499  1.6714 -1.2623
 1022TIP3    H224558   4.181   4.103   3.878  1.7035 -2.9822  0.5357
 1023TIP3   OH224559   5.495   0.965   0.053  0.0148  0.2718  0.0504
 1023TIP3    H124560   5.471   0.888   0.103  0.1527 -0.6189 -1.2034
 1023TIP3    H224561   5.475   1.039   0.111  1.6164 -0.7228  2.0108
 1024TIP3   OH224562   5.768   3.301  11.464 -0.1220  0.0909 -0.6018
 1024TIP3    H124563   5.859   3.292  11.493 -1.1375 -2.5143  2.3012
 1024TIP3    H224564   5.769   3.273  11.373  2.2425  2.2572 -1.3748
 1025TIP3   OH224565   5.498   2.576   1.982  0.3712 -0.7115 -0.1382
 1025TIP3    H124566   5.416   2.528   1.996 -0.2931  0.7004  1.0993
 1025TIP3    H224567   5.555   2.548   2.053  0.1345 -0.0315  0.3326
 1026TIP3   OH224568   1.988   2.401  10.605  0.5187 -0.3669 -0.0890
 1026TIP3    H124569   1.921   2.468  10.619  0.1703 -0.3304 -1.6656
 1026TIP3    H224570   2.049   2.412  10.677 -1.6318 -1.0033  1.9720
 1027TIP3   OH224571   3.674   6.171   2.913  0.0203 -0.3367 -0.1844
 1027TIP3    H124572   3.678   6.080   2.945 -2.4259 -0.5550 -0.2796
 1027TIP3    H224573   3.602   6.210   2.964  0.4310  1.2813 -0.8055
 1028TIP3   OH224574   4.358   1.517  16.509  0.2195  0.2557  0.2590
 1028TIP3    H124575   4.446   1.482  16.526 -0.8314 -2.9573 -0.1520
 1028TIP3    H224576   4.373   1.602  16.469  3.1381 -0.1528  0.2781
 1029TIP3   OH224577   0.230   0.064   0.422  0.4438 -0.7786  0.1977
 1029TIP3    H124578   0.198   0.125   0.489  0.8970 -1.5680  1.1561
 1029TIP3    H224579   0.171  -0.011   0.426  1.2503 -1.4025  0.6393
 1030TIP3   OH224580   6.555   0.063  12.579 -0.1528  0.4487  0.4033
 1030TIP3    H124581   6.461   0.076  12.575 -0.2926  0.9641  3.1691
 1030TIP3    H224582   6.566  -0.032  12.574 -0.7174  0.4348 -0.8214
 1031TIP3   OH224583   5.876   0.686   3.615 -0.1691  0.2155  0.1538
 1031TIP3    H124584   5.932   0.652   3.685 -0.3264 -0.9502 -0.2707
 1031TIP3    H224585   5.916   0.769   3.591  0.1430  0.4220  1.3187
 1032TIP3   OH224586   1.149   4.563  12.070  0.6930  0.0886 -0.9541
 1032TIP3    H124587   1.111   4.629  12.127  1.1675 -0.4343 -0.0026
 1032TIP3    H224588   1.200   4.507  12.129  1.2050 -0.4622 -1.8953
 1033TIP3   OH224589   3.529   2.426   4.895  0.1148 -0.4571  0.0431
 1033TIP3    H124590   3.510   2.394   4.807  1.3826 -0.0443 -0.4008
 1033TIP3    H224591   3.481   2.367   4.953 -0.0211 -1.2785 -0.8830
 1034TIP3   OH224592   4.850   0.980  15.883 -0.2140 -0.0434  0.5268
 1034TIP3    H124593   4.884   0.905  15.932 -3.1074 -1.6153  0.3095
 1034TIP3    H224594   4.769   0.949  15.842 -0.5794  2.6817 -1.1227
 1035TIP3   OH224595   1.549   0.722  14.334 -0.2059  0.1266 -0.1533
 1035TIP3    H124596   1.482   0.754  14.274 -1.0248 -0.0713  0.6434
 1035TIP3    H224597   1.624   0.781  14.320  0.3572 -1.0912 -2.7730
 1036TIP3   OH224598   3.600   0.150  16.227 -0.4879 -0.0536  0.0902
 1036TIP3    H124599   3.565   0.132  16.314 -1.9555  1.4276 -0.1383
 1036TIP3    H224600   3.677   0.205  16.243 -0.1877 -0.5758  0.4704
 1037TIP3   OH224601   5.662   1.980   1.568  0.2091 -0.2663 -0.2802
 1037TIP3    H124602   5.712   1.974   1.486 -0.7811  0.0666 -0.9314
 1037TIP3    H224603   5.696   1.909   1.622  1.5817  0.1300 -0.5789
 1038TIP3   OH224604   0.522   2.728   1.831  0.7034  0.2247  0.4173
 1038TIP3    H124605   0.485   2.677   1.759  0.4832 -1.0849  1.4261
 1038TIP3    H224606   0.518   2.819   1.800  1.3840 -0.3490 -1.5484
 1039TIP3   OH224607   4.678   2.462  15.142 -0.3736  0.0781  0.4150
 1039TIP3    H124608   4.726   2.539  15.170 -0.2212  0.3750 -0.6282
 1039TIP3    H224609   4.723   2.432  15.064 -2.1936  0.7217 -0.9686
 1040TIP3   OH224610   5.351   5.600   6.181 -0.3285  0.7522  0.3247
 1040TIP3    H124611   5.319   5.668   6.121  1.5835 -1.0622 -3.0665
 1040TIP3    H224612   5.368   5.646   6.263 -0.9491  3.9153 -1.1648
 1041TIP3   OH224613   4.029   5.126   1.482  0.0432  0.1180  0.0030
 1041TIP3    H124614   4.118   5.104   1.509 -0.3070  0.8191  1.9264
 1041TIP3    H224615   3.987   5.042   1.465  0.2029 -0.4494  2.1614
 1042TIP3   OH224616   6.594   2.800  16.526  0.1320 -0.2926  0.6375
 1042TIP3    H124617   6.628   2.848  16.602  1.4210 -1.5578  0.8873
 1042TIP3    H224618   6.617   2.856  16.451  0.1205  0.2835  1.0536
 1043TIP3   OH224619   4.514   2.151   0.541 -0.5249  0.1138 -0.0600
 1043TIP3    H124620   4.466   2.083   0.494  1.4287 -1.2411 -0.2068
 1043TIP3    H224621   4.538   2.214   0.473 -0.2947 -0.2829 -0.3500
 1044TIP3   OH224622   0.255   4.463  13.231  0.1794 -0.4330 -0.1978
 1044TIP3    H124623   0.346   4.494  13.229 -0.0438  0.2131 -1.4180
 1044TIP3    H224624   0.218   4.500  13.311  0.6600  0.2871 -0.3057
 1045TIP3   OH224625   6.470   2.684  11.361  0.5298 -0.4413 -0.1433
 1045TIP3    H124626   6.448   2.777  11.352  1.2782 -0.1673  0.6616
 1045TIP3    H224627   6.497   2.657  11.274  0.1364  0.0495 -0.4268
 1046TIP3   OH224628   1.954   6.787  14.378  0.1997  0.3548 -0.1227
 1046TIP3    H124629   1.973   6.876  14.349  2.0711 -0.8122 -2.8485
 1046TIP3    H224630   1.907   6.747  14.305 -1.4292 -0.7179  1.4020
 1047TIP3   OH224631   0.545   1.963   3.719 -0.1554  0.3335  0.2071
 1047TIP3    H124632   0.532   1.930   3.808 -0.9217 -0.3385 -0.1369
 1047TIP3    H224633   0.548   2.059   3.729 -1.2476  0.3253  0.8550
 1048TIP3   OH224634   6.632   5.147   3.661  0.3291  0.1020 -0.2554
 1048TIP3    H124635   6.613   5.239   3.644 -1.1639  0.3170  2.1117
 1048TIP3    H224636   6.547   5.103   3.649  0.4336 -0.5174  1.0955
 1049TIP3   OH224637   3.124   1.966  15.337 -0.7389 -0.2769 -0.8063
 1049TIP3    H124638   3.078   1.983  15.419 -1.2563  1.3224 -1.3901
 1049TIP3    H224639   3.089   1.882  15.307  0.1482 -1.3797  1.0386
 1050TIP3   OH224640   3.918   3.234  10.553 -0.5916 -0.2906  0.4347
 1050TIP3    H124641   3.831   3.274  10.550  0.0480  1.1313  0.3034
 1050TIP3    H224642   3.912   3.159  10.494 -1.7881 -0.3508  0.6139
 1051TIP3   OH224643   3.921   2.317  13.932 -0.3097 -0.1153 -0.2659
 1051TIP3    H124644   3.930   2.387  13.997 -2.1247 -0.7581  0.7644
 1051TIP3    H224645   4.011   2.299  13.903  0.4262  1.0404  1.1579
 1052TIP3   OH224646   4.850   4.942   1.332 -0.5294 -0.1264  0.2561
 1052TIP3    H124647   4.874   4.964   1.242 -2.6618 -0.7147 -0.5184
 1052TIP3    H224648   4.933   4.927   1.376  0.5603  0.0210 -1.6567
 1053TIP3   OH224649   5.256   0.216  15.603 -0.2373 -0.2628  0.1621
 1053TIP3    H124650   5.303   0.297  15.622 -0.7520  0.1837 -0.3926
 1053TIP3    H224651   5.321   0.146  15.615  0.2829  0.2518  0.3857
 1054TIP3   OH224652   0.105   1.157   0.978 -0.2620  0.0170 -0.3060
 1054TIP3    H124653   0.094   1.083   1.038 -0.2957  1.9484  2.2282
 1054TIP3    H224654   0.086   1.121   0.892  1.2093 -3.2744  0.5944
 1055TIP3   OH224655   4.055   0.734  17.152  0.5835  0.6810 -0.2032
 1055TIP3    H124656   4.056   0.657  17.208 -1.9648  1.7604  1.5370
 1055TIP3    H224657   4.094   0.803  17.205 -1.9557  1.7458  0.4449
 1056TIP3   OH224658   3.158   3.183  12.061 -0.0991 -0.2513 -0.7609
 1056TIP3    H124659   3.078   3.194  12.010 -0.5330 -1.3445 -0.3192
 1056TIP3    H224660   3.197   3.102  12.028 -0.2258 -0.8060  0.4418
 1057TIP3   OH224661   3.821   0.115  10.698 -0.2220  0.1520  0.3117
 1057TIP3    H124662   3.843   0.189  10.643  0.8458 -0.8342 -0.6480
 1057TIP3    H224663   3.751   0.069  10.650  0.5207 -0.5599 -0.1116
 1058TIP3   OH224664   6.192   6.006  13.665 -0.1764  0.0244  0.5279
 1058TIP3    H124665   6.285   6.006  13.690 -0.5873 -0.5972  2.1587
 1058TIP3    H224666   6.166   5.914  13.670 -0.9850  0.2514  0.5091
 1059TIP3   OH224667   5.133   1.871   0.828 -0.0937 -0.1490  1.0853
 1059TIP3    H124668   5.047   1.859   0.787  0.7155 -0.1786 -0.6929
 1059TIP3    H224669   5.189   1.808   0.783  1.0988  0.6455  1.4337
 1060TIP3   OH224670   4.246   4.738   4.154 -0.2025 -0.7274 -0.2458
 1060TIP3    H124671   4.315   4.738   4.089 -1.4779 -0.8716 -1.6512
 1060TIP3    H224672   4.276   4.798   4.222  0.7667  0.1190 -1.3960
 1061TIP3   OH224673   2.274   4.006  13.069 -0.4532 -0.1241 -0.1879
 1061TIP3    H124674   2.342   4.069  13.045 -1.1786  0.5239 -0.6087
 1061TIP3    H224675   2.300   3.925  13.025  1.1468 -0.5074  1.3452
 1062TIP3   OH224676   2.076   2.451   5.822  0.0694 -0.6930 -0.3013
 1062TIP3    H124677   2.019   2.526   5.804 -2.3893 -2.0095  1.3121
 1062TIP3    H224678   2.085   2.450   5.918 -0.6125 -2.8370 -0.1972
 1063TIP3   OH224679   5.702   6.360  15.547 -0.3867 -0.7177  0.2548
 1063TIP3    H124680   5.796   6.361  15.531 -0.4730  0.5648 -0.3205
 1063TIP3    H224681   5.692   6.329  15.637  0.5080 -1.9652 -0.0661
 1064TIP3   OH224682   1.765   2.043   3.710 -0.1761 -0.4805  0.0550
 1064TIP3    H124683   1.829   1.979   3.680  0.5107  0.3421 -0.2860
 1064TIP3    H224684   1.786   2.058   3.802  0.0609 -0.2958 -0.0271
 1065TIP3   OH224685   0.765   6.186  12.599  0.5436 -0.2804 -0.3495
 1065TIP3    H124686   0.827   6.136  12.652  3.2953 -0.3226 -3.2632
 1065TIP3    H224687   0.777   6.277  12.628  1.6418 -0.3613 -0.4910
 1066TIP3   OH224688   5.882   1.939  15.989 -0.4457 -0.4873  0.2646
 1066TIP3    H124689   5.799   1.985  15.975 -1.1259 -1.7182  0.1298
 1066TIP3    H224690   5.861   1.869  16.051  0.6270 -0.4617  0.6835
 1067TIP3   OH224691   0.040   4.253  14.231  0.7488  0.2012 -0.2190
 1067TIP3    H124692   0.054   4.261  14.325  3.3064  3.0772 -0.6892
 1067TIP3    H224693  -0.046   4.294  14.216  0.1530 -0.6051  0.8270
 1068TIP3   OH224694   2.096   2.392  15.339  0.3066 -0.0175 -0.0878
 1068TIP3    H124695   2.021   2.335  15.322 -0.1911  0.0505  1.6780
 1068TIP3    H224696   2.117   2.431  15.254  0.8359 -2.9992 -1.4408
 1069TIP3   OH224697   5.569   5.275  16.523 -0.5207 -0.1622  0.2774
 1069TIP3    H124698   5.575   5.194  16.473 -1.7431 -0.4084  0.4865
 1069TIP3    H224699   5.612   5.340  16.467 -0.5221 -0.7318 -0.4064
 1070TIP3   OH224700   4.330   5.578   4.508  0.1410  0.1223 -0.0841
 1070TIP3    H124701   4.287   5.607   4.428 -1.8292 -0.3112  0.7516
 1070TIP3    H224702   4.321   5.651   4.569  1.6696  0.4672 -0.2147
 1071TIP3   OH224703   1.072   0.251  10.828  0.6238 -0.2667  0.0383
 1071TIP3    H124704   1.038   0.316  10.890 -2.0318 -1.4127 -0.0656
 1071TIP3    H224705   1.040   0.167  10.862 -1.1252 -0.9295 -2.9124
 1072TIP3   OH224706   2.335   6.426   3.187  0.2061  0.2317  0.0700
 1072TIP3    H124707   2.292   6.357   3.138 -0.1193 -0.2817  1.0519
 1072TIP3    H224708   2.378   6.381   3.259  2.6874  0.6819 -1.0301
 1073TIP3   OH224709   4.785   6.295   5.106 -0.4916  0.1836  0.1919
 1073TIP3    H124710   4.877   6.321   5.107  0.6123 -3.1769 -0.1078
 1073TIP3    H224711   4.762   6.283   5.198  0.3265 -1.6855  0.1895
 1074TIP3   OH224712   1.636   3.406   2.542 -0.3634 -0.0112  0.0759
 1074TIP3    H124713   1.569   3.392   2.475  0.7951  2.3862 -1.7428
 1074TIP3    H224714   1.603   3.480   2.594  0.3172  0.4351 -0.1117
 1075TIP3   OH224715   5.126   3.101   5.135 -0.3214  0.0773  0.0409
 1075TIP3    H124716   5.035   3.119   5.108  0.0544  1.4428 -0.4277
 1075TIP3    H224717   5.142   3.012   5.106 -0.9446  0.4406 -1.5483
 1076TIP3   OH224718   6.122   6.331   6.603 -0.1402 -0.2413  0.3813
 1076TIP3    H124719   6.216   6.347   6.597 -0.3832  0.7513 -1.7528
 1076TIP3    H224720   6.090   6.401   6.661  0.3372 -0.1414  0.5284
 1077TIP3   OH224721   3.950   6.208   1.128  0.3199 -0.1361 -0.8090
 1077TIP3    H124722   3.960   6.123   1.085 -1.5726 -0.5395 -0.5036
 1077TIP3    H224723   3.858   6.213   1.152  0.3485  2.0699 -0.9255
 1078TIP3   OH224724   3.036   0.592   5.325  0.3642  0.1662 -0.1538
 1078TIP3    H124725   3.099   0.521   5.333  0.2968 -0.1559 -2.1059
 1078TIP3    H224726   3.088   0.672   5.338  0.4078 -0.1671  2.2066
 1079TIP3   OH224727   6.353   4.016  11.033 -0.2370 -0.6232 -0.2852
 1079TIP3    H124728   6.336   4.106  11.005  0.4295 -0.3210  0.2695
 1079TIP3    H224729   6.448   4.009  11.035 -0.2761 -1.6069 -1.1552
 1080TIP3   OH224730   6.461   5.701  15.290 -0.3202 -0.6224 -0.2074
 1080TIP3    H124731   6.371   5.716  15.262  0.1935  0.8120 -1.2104
 1080TIP3    H224732   6.514   5.755  15.232  1.2857 -2.1264 -0.2485
 1081TIP3   OH224733   6.647   1.289   2.803  0.2675 -0.8329 -0.2316
 1081TIP3    H124734   6.640   1.383   2.785 -0.0923 -0.6640  0.7093
 1081TIP3    H224735   6.586   1.248   2.742  0.1184 -0.4133 -0.3650
 1082TIP3   OH224736   2.595   4.950   0.784 -0.7452 -0.7782 -0.3254
 1082TIP3    H124737   2.592   4.898   0.704  1.1555 -1.3244 -0.0827
 1082TIP3    H224738   2.659   5.019   0.766  0.0268 -1.1615  0.8412
 1083TIP3   OH224739   0.694   5.334  11.234  0.5007 -0.5652  0.3183
 1083TIP3    H124740   0.630   5.265  11.218  0.1030  0.2467 -1.8451
 1083TIP3    H224741   0.753   5.330  11.160  1.2120  0.6210  0.7972
 1084TIP3   OH224742   1.301   0.395   1.834 -0.1559 -0.0820 -0.4665
 1084TIP3    H124743   1.241   0.454   1.880  0.2150  0.1257 -0.2474
 1084TIP3    H224744   1.387   0.433   1.847 -0.0902  0.2347 -1.7503
 1085TIP3   OH224745   4.879   2.679  14.705 -0.2999 -0.7550  0.1106
 1085TIP3    H124746   4.949   2.622  14.673  0.5648 -0.7297  1.8141
 1085TIP3    H224747   4.799   2.644  14.666  0.5463 -1.3528 -1.1442
 1086TIP3   OH224748   3.722   4.409   4.114 -0.4409 -0.7116 -0.6651
 1086TIP3    H124749   3.811   4.376   4.102 -0.4885 -1.1557  0.1289
 1086TIP3    H224750   3.705   4.398   4.207 -0.9041  0.4705 -0.5861
 1087TIP3   OH224751   1.512   0.929  11.742 -0.6629  0.0579 -0.1589
 1087TIP3    H124752   1.575   0.871  11.783  0.7141  1.0266 -0.8440
 1087TIP3    H224753   1.442   0.870  11.711  0.5932 -1.2180 -0.6643
 1088TIP3   OH224754   1.014   0.018   4.098 -0.4402 -0.0310 -0.1660
 1088TIP3    H124755   1.024   0.112   4.111  1.1604 -0.1664 -0.1877
 1088TIP3    H224756   0.959   0.010   4.020 -2.2389  0.8416  0.9442
 1089TIP3   OH224757   2.471   4.719  15.293  0.5669 -0.3176  0.3463
 1089TIP3    H124758   2.518   4.691  15.371 -0.2895 -0.0503  0.9729
 1089TIP3    H224759   2.426   4.799  15.319  1.6629  0.7725 -0.9481
 1090TIP3   OH224760   6.747   4.997   6.143  0.0062  0.4780  0.2238
 1090TIP3    H124761   6.744   5.092   6.131 -0.5492  0.3999 -0.2907
 1090TIP3    H224762   6.705   4.982   6.228 -0.4911  0.6405  0.0085
 1091TIP3   OH224763   5.049   5.774   1.517 -0.9163  0.3424  0.2663
 1091TIP3    H124764   4.963   5.740   1.542 -0.8575  1.1813  1.7052
 1091TIP3    H224765   5.071   5.725   1.438 -1.7800 -1.4145  1.0422
 1092TIP3   OH224766   1.501   1.368  16.284  0.3767 -0.1362  0.2970
 1092TIP3    H124767   1.479   1.354  16.376 -1.4964  1.5460  0.1713
 1092TIP3    H224768   1.444   1.307  16.237  1.1774 -0.8375  0.1985
 1093TIP3   OH224769   6.229   3.225   0.094  0.7811  0.2915 -0.1813
 1093TIP3    H124770   6.241   3.308   0.139 -1.0874  0.9899 -0.8532
 1093TIP3    H224771   6.299   3.169   0.127  0.6412  1.3573  2.0921
 1094TIP3   OH224772   1.018   6.256   2.354 -0.3714  0.2388 -0.3147
 1094TIP3    H124773   1.072   6.330   2.382  1.3799 -1.1807  0.2402
 1094TIP3    H224774   1.069   6.215   2.284 -0.5294 -1.3342  0.4477
 1095TIP3   OH224775   4.813   1.135  14.901  0.3295  0.1590 -0.0615
 1095TIP3    H124776   4.905   1.119  14.919  0.4646  1.1772  0.2172
 1095TIP3    H224777   4.813   1.190  14.823 -0.1653 -2.2376 -1.8393
 1096TIP3   OH224778   3.639   6.573   4.936  0.1141 -0.7003 -0.1904
 1096TIP3    H124779   3.653   6.506   5.003  1.7515  0.3731  0.5923
 1096TIP3    H224780   3.571   6.630   4.973  0.8622 -0.2300  0.4978
 1097TIP3   OH224781   5.186   5.061  13.404 -0.2944  0.1135  0.1995
 1097TIP3    H124782   5.174   4.975  13.363  1.3996 -1.3327  2.5063
 1097TIP3    H224783   5.120   5.116  13.363  0.1359 -1.5867 -3.1666
 1098TIP3   OH224784   1.027   1.833  11.139 -0.5124  0.1849  0.2920
 1098TIP3    H124785   1.104   1.859  11.088  0.6014  0.9064  2.2439
 1098TIP3    H224786   0.974   1.913  11.146 -0.7599  0.0394  0.1092
 1099TIP3   OH224787   2.704   4.745   4.353 -0.3975  0.1144  0.0283
 1099TIP3    H124788   2.739   4.683   4.289  1.7346  0.0697  1.1585
 1099TIP3    H224789   2.669   4.817   4.300 -0.8677 -1.0026 -1.2347
 1100TIP3   OH224790   1.926   4.164   0.786  0.4419 -0.8739  0.1143
 1100TIP3    H124791   1.957   4.095   0.726  0.7299  0.2336 -1.0441
 1100TIP3    H224792   1.832   4.148   0.793  0.1662 -0.3230 -1.6446
 1101TIP3   OH224793   5.199   1.189  15.848 -0.0458  0.0957 -0.0239
 1101TIP3    H124794   5.208   1.150  15.761 -0.9874 -0.1036 -0.0459
 1101TIP3    H224795   5.178   1.281  15.831 -0.6189 -0.0300 -0.0231
 1102TIP3   OH224796   1.882   4.553   3.710  0.0265 -0.2255 -0.1481
 1102TIP3    H124797   1.948   4.598   3.762 -0.4724  1.2921 -0.7588
 1102TIP3    H224798   1.932   4.496   3.652  0.7279  0.0209  0.2057
 1103TIP3   OH224799   1.407   6.356  16.152  0.5509  0.1850 -0.6351
 1103TIP3    H124800   1.432   6.441  16.116 -1.3989  0.7237 -0.8624
 1103TIP3    H224801   1.406   6.370  16.247 -0.2861  0.5934 -0.6965
 1104TIP3   OH224802   1.541   2.730  17.209  0.2831  0.0304  0.4200
 1104TIP3    H124803   1.599   2.663  17.174 -0.7718 -1.6009  1.6479
 1104TIP3    H224804   1.561   2.808  17.158 -0.3519 -1.8661 -3.0175
 1105TIP3   OH224805   5.218   4.710   0.009  0.2942 -0.4295  0.1708
 1105TIP3    H124806   5.151   4.644   0.024 -1.1154  0.8465 -0.2554
 1105TIP3    H224807   5.269   4.712   0.090 -1.6334  0.1534  1.4299
 1106TIP3   OH224808   4.677   1.312  12.670 -0.2276  0.1602 -0.3957
 1106TIP3    H124809   4.645   1.347  12.753  0.2995  0.6449 -0.3836
 1106TIP3    H224810   4.692   1.219  12.687 -0.5118  0.1695 -0.0714
 1107TIP3   OH224811   2.058   5.755   3.558  0.4949 -0.1230 -0.3815
 1107TIP3    H124812   2.110   5.829   3.588 -2.1261  1.7883 -0.2253
 1107TIP3    H224813   1.967   5.786   3.561 -0.6837 -3.1530 -0.9098
 1108TIP3   OH224814   5.267   2.986   6.762  0.5563  0.1995 -0.3696
 1108TIP3    H124815   5.207   3.025   6.826 -0.3869  0.5534 -1.4269
 1108TIP3    H224816   5.346   3.039   6.768  0.7648 -0.2123  0.9844
 1109TIP3   OH224817   4.647   0.609  11.028  0.4489  0.2552  0.4672
 1109TIP3    H124818   4.609   0.570  10.949 -0.3737 -0.3396  1.1451
 1109TIP3    H224819   4.683   0.692  10.998  1.6970 -0.7123 -0.8895
 1110TIP3   OH224820   3.201   1.398  12.833  0.2770  0.6601  0.1928
 1110TIP3    H124821   3.189   1.479  12.784 -1.2352  0.7914  0.7357
 1110TIP3    H224822   3.123   1.392  12.889  1.0026 -0.4893  1.1285
 1111TIP3   OH224823   2.132   6.552  16.339 -0.1639  0.3715  0.2320
 1111TIP3    H124824   2.109   6.552  16.432 -1.1897  0.2441 -0.0112
 1111TIP3    H224825   2.188   6.628  16.328  0.6890 -0.1049  1.1186
 1112TIP3   OH224826   3.403   4.377   1.255  0.5394 -0.1330 -0.1655
 1112TIP3    H124827   3.386   4.424   1.337  1.1843 -0.5291  0.1994
 1112TIP3    H224828   3.318   4.376   1.211  0.3982  0.9500  0.0378
 1113TIP3   OH224829   0.268   0.047   5.273 -0.5033 -0.1392 -0.0707
 1113TIP3    H124830   0.272  -0.034   5.220 -1.5932 -0.3854  0.1906
 1113TIP3    H224831   0.180   0.045   5.312 -0.1275  0.6169  0.8397
 1114TIP3   OH224832   4.818   0.287   4.992 -0.0091 -0.3979 -0.3536
 1114TIP3    H124833   4.861   0.254   5.071 -0.0473  1.2569  0.4130
 1114TIP3    H224834   4.866   0.247   4.920  1.2209 -0.5218  0.4981
 1115TIP3   OH224835   4.919   3.315  12.031  0.4400 -0.1607 -0.1587
 1115TIP3    H124836   4.874   3.372  11.969  2.2003 -0.0518 -1.4173
 1115TIP3    H224837   4.996   3.365  12.058  0.5198 -0.8354  0.9239
 1116TIP3   OH224838   1.302   1.861  12.077 -0.9382  0.3716  0.0484
 1116TIP3    H124839   1.218   1.826  12.107 -1.3480  0.9845 -0.3695
 1116TIP3    H224840   1.361   1.786  12.082 -1.5569 -0.1240  0.1471
 1117TIP3   OH224841   3.520   2.845   4.063 -0.0771  0.9334  0.6094
 1117TIP3    H124842   3.546   2.756   4.039  1.1407  1.4358 -0.0199
 1117TIP3    H224843   3.563   2.861   4.148 -1.1343  0.5705  1.2272
 1118TIP3   OH224844   4.516   3.113  12.622  0.0141  0.3227  0.1174
 1118TIP3    H124845   4.437   3.063  12.641 -0.5986  1.0227 -0.5371
 1118TIP3    H224846   4.588   3.056  12.651 -0.6922 -0.5964  0.1060
 1119TIP3   OH224847   0.598   3.717   5.533 -0.2043 -0.2006 -0.3237
 1119TIP3    H124848   0.605   3.715   5.629 -0.4799  0.4904 -0.2825
 1119TIP3    H224849   0.571   3.807   5.513 -0.7257 -0.5091 -1.0163
 1120TIP3   OH224850   0.350   3.264   2.914  0.6730  0.6559  0.4628
 1120TIP3    H124851   0.308   3.350   2.904  0.8495  0.9826  2.1760
 1120TIP3    H224852   0.283   3.209   2.953  1.0654  0.4842  0.9021
 1121TIP3   OH224853   3.764   5.467   3.981 -0.6327 -0.4133 -0.4207
 1121TIP3    H124854   3.686   5.501   3.938 -1.5543 -1.1805  0.5878
 1121TIP3    H224855   3.836   5.491   3.923 -1.6028  0.3760 -1.3329
 1122TIP3   OH224856   4.270   3.824  14.129  0.6647 -0.0313  0.1595
 1122TIP3    H124857   4.360   3.856  14.130 -0.0894  2.2419 -0.1167
 1122TIP3    H224858   4.266   3.769  14.050  1.6243  0.4023 -0.2177
 1123TIP3   OH224859   6.200   0.960   4.280  0.1107  1.0080  0.2372
 1123TIP3    H124860   6.176   0.893   4.216  0.1678 -1.9970  3.1411
 1123TIP3    H224861   6.131   0.956   4.346  1.8410  1.4353  2.1630
 1124TIP3   OH224862   4.613   1.963  12.013 -0.4657 -0.4814  0.2588
 1124TIP3    H124863   4.538   1.977  11.955 -0.5128 -1.2698  0.1139
 1124TIP3    H224864   4.612   1.869  12.031 -0.1300 -0.3380  1.1006
 1125TIP3   OH224865   5.628   3.715  15.407  0.0794 -0.2340 -0.0222
 1125TIP3    H124866   5.614   3.626  15.441  0.2173 -0.2003  0.1224
 1125TIP3    H224867   5.547   3.737  15.362  0.0826 -0.4749 -0.1472
 1126TIP3   OH224868   0.923   5.496  16.038  0.2177 -0.0894 -0.0123
 1126TIP3    H124869   0.865   5.503  15.962  1.4790 -1.7092 -1.1778
 1126TIP3    H224870   1.005   5.538  16.010  0.5503 -0.3016  0.6220
 1127TIP3   OH224871   4.777   3.855   3.662 -0.1971  0.1145 -0.4773
 1127TIP3    H124872   4.829   3.907   3.723  0.6142  0.8737 -1.7834
 1127TIP3    H224873   4.686   3.869   3.690  0.1034  1.1505  0.0090
 1128TIP3   OH224874   6.187   5.331   5.344  0.5682  0.7721 -0.2691
 1128TIP3    H124875   6.266   5.286   5.372  1.0944  2.6134  1.4799
 1128TIP3    H224876   6.115   5.275   5.373  1.0593 -2.1922 -4.0594
 1129TIP3   OH224877   1.350   6.509   1.393 -0.4495  0.4080 -0.4829
 1129TIP3    H124878   1.430   6.511   1.341  0.6498 -1.5165  0.9657
 1129TIP3    H224879   1.308   6.594   1.378  1.6390  1.2958 -1.6293
 1130TIP3   OH224880   2.051   2.760   6.218  0.3725 -0.0852  0.1511
 1130TIP3    H124881   2.109   2.690   6.248 -1.3114 -0.3331  3.2470
 1130TIP3    H224882   2.076   2.836   6.272  0.0604  0.8199 -0.9302
 1131TIP3   OH224883   3.221   0.453  13.435 -0.4750  0.5447 -0.3706
 1131TIP3    H124884   3.250   0.481  13.521 -1.1329  1.3395 -0.3948
 1131TIP3    H224885   3.136   0.411  13.451  0.9871 -2.6077 -0.1646
 1132TIP3   OH224886   3.474   0.335  15.395 -0.9359 -0.4997  0.0999
 1132TIP3    H124887   3.433   0.311  15.312 -2.5610  1.3760  0.3114
 1132TIP3    H224888   3.464   0.256  15.449  2.2132 -2.6476 -2.0691
 1133TIP3   OH224889   3.464   6.693   0.302  0.2145  0.4090  0.0001
 1133TIP3    H124890   3.390   6.752   0.297  0.0057  0.4127  2.2836
 1133TIP3    H224891   3.426   6.607   0.322  0.7647  0.2296  0.3130
 1134TIP3   OH224892   0.904   5.947  14.765 -0.6341  0.0254 -0.2129
 1134TIP3    H124893   0.872   5.914  14.681  0.4941 -0.5167 -0.4575
 1134TIP3    H224894   0.828   5.947  14.822 -1.3856  0.2574 -1.1946
 1135TIP3   OH224895   6.711   3.859   2.774 -0.1489  0.0460 -0.6612
 1135TIP3    H124896   6.626   3.900   2.788 -0.0086  1.1104 -2.6097
 1135TIP3    H224897   6.770   3.933   2.757  0.6458 -0.8108 -1.7146
 1136TIP3   OH224898   4.575   4.881  16.343  0.2870 -0.2756  0.5553
 1136TIP3    H124899   4.556   4.840  16.427  1.2791  1.2009  1.5464
 1136TIP3    H224900   4.624   4.960  16.365  0.9457 -0.0662 -1.4482
 1137TIP3   OH224901   3.249   4.753   0.176 -0.0616  0.1772  1.1667
 1137TIP3    H124902   3.330   4.796   0.202  0.3952 -1.4409  2.5347
 1137TIP3    H224903   3.275   4.696   0.104 -0.6665  2.0429 -0.6424
 1138TIP3   OH224904   3.914   1.355  15.236 -0.0400 -0.3962  0.0620
 1138TIP3    H124905   3.882   1.368  15.146  0.6486 -1.5148 -0.3720
 1138TIP3    H224906   3.910   1.442  15.275  0.1330  0.2208 -1.2184
 1139TIP3   OH224907   1.168   5.702   2.921  0.3843 -0.2218  0.8132
 1139TIP3    H124908   1.205   5.673   3.004  0.6143  0.0185  0.7973
 1139TIP3    H224909   1.111   5.630   2.893  1.5721 -1.0326  0.3744
 1140TIP3   OH224910   5.583   5.360   4.842 -0.1842  0.1459  0.1423
 1140TIP3    H124911   5.568   5.454   4.849 -1.1517 -0.0648  1.3327
 1140TIP3    H224912   5.635   5.339   4.920  0.2764 -0.2754 -0.2671
 1141TIP3   OH224913   1.097   4.378   6.473  0.2663  0.2079 -0.1673
 1141TIP3    H124914   1.065   4.331   6.396  0.3315 -1.2907  0.6851
 1141TIP3    H224915   1.151   4.449   6.437  0.3535 -0.5014 -1.5023
 1142TIP3   OH224916   4.258   0.157  15.710  0.1814 -0.5555  0.0191
 1142TIP3    H124917   4.245   0.252  15.712 -3.5709 -0.9371 -0.1706
 1142TIP3    H224918   4.334   0.145  15.653  0.2900  2.2708 -0.5788
 1143TIP3   OH224919   5.882   4.191  16.634  0.1615  0.6373  0.8892
 1143TIP3    H124920   5.939   4.115  16.651  0.3324  0.2170 -1.2216
 1143TIP3    H224921   5.881   4.239  16.716  0.7414 -1.2056  2.0405
 1144TIP3   OH224922   1.953   0.676   2.437 -0.1539  0.5212 -0.1250
 1144TIP3    H124923   1.934   0.583   2.427  1.8071 -0.2483  2.3658
 1144TIP3    H224924   1.918   0.699   2.523 -0.0851  1.9509 -0.4500
 1145TIP3   OH224925   6.087   1.335  13.757 -0.5011  0.6210 -0.7348
 1145TIP3    H124926   6.008   1.378  13.722  0.4504  0.9232 -2.6396
 1145TIP3    H224927   6.147   1.333  13.683  1.3398  0.4821  0.7120
 1146TIP3   OH224928   0.631   3.009   2.260  0.5106 -0.0820  0.5029
 1146TIP3    H124929   0.672   3.078   2.209 -1.0258 -1.3089 -2.6815
 1146TIP3    H224930   0.702   2.970   2.310  1.7842  2.3623  0.7338
 1147TIP3   OH224931   4.500   1.474  11.163 -0.4901  0.4498  1.1695
 1147TIP3    H124932   4.425   1.449  11.109  0.4459  1.4910 -0.7388
 1147TIP3    H224933   4.504   1.570  11.156  1.1457  0.4022  0.9800
 1148TIP3   OH224934   2.119   0.390  12.337  0.0776 -0.2840  0.2186
 1148TIP3    H124935   2.128   0.296  12.323  1.6323 -0.3456  1.3565
 1148TIP3    H224936   2.136   0.403  12.430  0.4537  1.1698 -0.0193
 1149TIP3   OH224937   6.308   0.016  15.736  0.5522  0.6856 -0.3535
 1149TIP3    H124938   6.400  -0.004  15.718  0.5522  0.8560 -0.5471
 1149TIP3    H224939   6.309   0.054  15.824  0.4480 -0.9010  0.3634
 1150TIP3   OH224940   2.427   5.272   3.973 -0.2189  0.4182 -0.0879
 1150TIP3    H124941   2.489   5.322   3.920 -0.1491  0.7555  0.3055
 1150TIP3    H224942   2.479   5.242   4.048 -0.6692  1.2334  0.5662
 1151TIP3   OH224943   6.391   1.822   4.475 -0.2803  0.2386  0.2702
 1151TIP3    H124944   6.345   1.897   4.511 -0.2186 -0.2608  1.4095
 1151TIP3    H224945   6.329   1.784   4.412  0.2234  2.0541 -1.4444
 1152TIP3   OH224946   5.443   4.157   5.131 -0.0726 -0.5024  0.1744
 1152TIP3    H124947   5.439   4.085   5.068  0.9247  0.4666 -1.0340
 1152TIP3    H224948   5.366   4.211   5.110 -0.1442 -0.5659  0.2724
 1153TIP3   OH224949   1.729   5.435  16.529  0.7393 -0.2341 -0.3992
 1153TIP3    H124950   1.752   5.524  16.555  3.0623 -0.4675 -1.4495
 1153TIP3    H224951   1.768   5.380  16.596  0.1411 -0.5167 -0.2789
 1154TIP3   OH224952   4.870   4.548   3.677 -0.3023  0.2207 -0.5788
 1154TIP3    H124953   4.852   4.540   3.771 -1.0452 -1.6199 -0.8331
 1154TIP3    H224954   4.956   4.590   3.672 -0.3607  0.5566  0.9240
 1155TIP3   OH224955   6.756   3.338  12.043  0.3483  0.4084  0.7397
 1155TIP3    H124956   6.668   3.357  12.009  0.6740  1.9493  0.7232
 1155TIP3    H224957   6.816   3.384  11.985  1.1842 -0.4511  0.8836
 1156TIP3   OH224958   5.324   6.576  12.410 -0.1400 -0.2895 -1.2707
 1156TIP3    H124959   5.398   6.624  12.372  0.7459 -0.7473 -0.1882
 1156TIP3    H224960   5.359   6.489  12.428 -0.7054 -0.2699  0.0172
 1157TIP3   OH224961   2.488   4.230   1.628 -0.3934  0.5703 -0.3215
 1157TIP3    H124962   2.484   4.227   1.724  0.4969  1.3595 -0.2399
 1157TIP3    H224963   2.561   4.173   1.605  0.8003  2.0481 -0.3599
 1158TIP3   OH224964   5.397   1.420  12.109  0.2209 -0.3080 -0.2356
 1158TIP3    H124965   5.358   1.467  12.035 -0.9584 -0.9482 -0.0497
 1158TIP3    H224966   5.480   1.465  12.125 -0.3673  1.0148 -0.7495
 1159TIP3   OH224967   4.712   1.841   5.232 -0.4007  0.2340 -0.0795
 1159TIP3    H124968   4.786   1.900   5.218  0.3025 -0.7887 -0.7108
 1159TIP3    H224969   4.701   1.839   5.328  1.3087 -0.7023  0.1260
 1160TIP3   OH224970   3.587   6.038  16.812  0.0097 -0.1458 -0.8210
 1160TIP3    H124971   3.615   5.947  16.816  0.0450 -0.1007  0.0023
 1160TIP3    H224972   3.632   6.081  16.885 -1.6258  0.0725  0.1038
 1161TIP3   OH224973   3.981   2.993  13.523 -0.0504 -0.4750 -0.4485
 1161TIP3    H124974   4.036   3.020  13.597  0.2600  2.9629 -1.7529
 1161TIP3    H224975   4.043   2.959  13.459 -0.0534 -1.2036 -0.0774
 1162TIP3   OH224976   4.494   1.715   2.385  0.1919 -0.8766 -0.0723
 1162TIP3    H124977   4.441   1.795   2.389 -1.1665 -1.6624 -1.3442
 1162TIP3    H224978   4.564   1.737   2.324  0.0130 -0.5649 -0.1710
 1163TIP3   OH224979   2.799   0.252   2.062 -0.2457  0.7520  0.2462
 1163TIP3    H124980   2.732   0.185   2.051  0.4170  0.2937 -1.0987
 1163TIP3    H224981   2.765   0.328   2.014 -0.6116  1.1400  1.0819
 1164TIP3   OH224982   1.140   2.981   5.633 -0.5365  0.2164  0.5678
 1164TIP3    H124983   1.121   2.925   5.558  0.0711 -0.2649  0.7611
 1164TIP3    H224984   1.104   2.934   5.708  1.3359 -0.7372  0.9457
 1165TIP3   OH224985   5.478   6.753  13.248  0.0621  0.2846  0.3858
 1165TIP3    H124986   5.540   6.680  13.252  2.0210  1.8761  1.6371
 1165TIP3    H224987   5.462   6.767  13.155 -0.0796 -1.4701  0.1159
 1166TIP3   OH224988   2.152   3.357  14.395  0.6484 -0.2035 -0.1882
 1166TIP3    H124989   2.135   3.326  14.485  1.0332 -0.2331 -0.1226
 1166TIP3    H224990   2.220   3.423  14.405  0.3692  0.1198 -0.4144
 1167TIP3   OH224991   2.210   3.685  11.389 -0.0515  0.0575 -0.4816
 1167TIP3    H124992   2.176   3.648  11.308  0.7563 -0.8470 -0.4184
 1167TIP3    H224993   2.304   3.694  11.375  0.3031 -1.3351  0.7921
 1168TIP3   OH224994   5.339   3.444  15.169 -0.5860  0.2834  0.2311
 1168TIP3    H124995   5.346   3.506  15.242  0.5974 -2.2256  2.4287
 1168TIP3    H224996   5.254   3.403  15.181 -1.3895  1.4158 -1.2521
 1169TIP3   OH224997   6.052   6.415  14.259 -0.3119 -0.2258  0.1234
 1169TIP3    H124998   5.965   6.436  14.226  0.5183  0.3444 -1.9105
 1169TIP3    H224999   6.068   6.325  14.229  1.1496  0.8926 -2.9154
 1170TIP3   OH225000   2.220   6.501  16.076 -0.4203  0.3855  0.6131
 1170TIP3    H125001   2.187   6.490  16.165 -2.7042  1.8532  0.0283
 1170TIP3    H225002   2.155   6.458  16.021 -0.4147  1.7432 -0.4935
 1171TIP3   OH225003   0.973   3.048   5.416  0.0641  0.4758  0.4156
 1171TIP3    H125004   0.991   2.956   5.393 -1.2100  0.4280 -0.5129
 1171TIP3    H225005   1.020   3.062   5.498  0.0948 -1.0826  0.6951
 1172TIP3   OH225006   3.376   3.213  14.208  0.6541  0.0270  0.7226
 1172TIP3    H125007   3.407   3.155  14.138 -0.8114 -0.0080  0.0709
 1172TIP3    H225008   3.323   3.156  14.265  0.0083  0.5116  0.6185
 1173TIP3   OH225009   0.351   4.183  17.162 -0.0104 -0.1477 -0.4450
 1173TIP3    H125010   0.341   4.242  17.088  1.2755 -0.9406 -1.2858
 1173TIP3    H225011   0.267   4.188  17.209  0.0959  2.4095 -0.4021
 1174TIP3   OH225012   2.651   5.948  13.392  0.0515  0.4016  0.3891
 1174TIP3    H125013   2.717   5.918  13.455  1.2435  1.8900 -0.1056
 1174TIP3    H225014   2.683   5.916  13.307  0.7890  2.0956 -0.0063
 1175TIP3   OH225015   4.903   1.322  13.859 -0.5054  0.2343  0.2310
 1175TIP3    H125016   4.915   1.229  13.877  0.1997  0.4094  0.6975
 1175TIP3    H225017   4.814   1.328  13.824 -0.3536 -0.6877 -0.3389
 1176TIP3   OH225018   5.174   3.314   4.932  0.5345  0.0534  0.3942
 1176TIP3    H125019   5.136   3.278   5.012 -0.3042 -2.1181 -0.8681
 1176TIP3    H225020   5.215   3.238   4.889  1.6574  1.3052 -0.8509
 1177TIP3   OH225021   4.420   1.189   5.061  0.5847 -0.3739 -0.1328
 1177TIP3    H125022   4.339   1.139   5.067 -0.2873  0.7622 -1.7652
 1177TIP3    H225023   4.419   1.245   5.139 -0.1123 -0.4682 -0.0638
 1178TIP3   OH225024   2.839   6.359  11.612 -0.5467 -0.0777 -0.4776
 1178TIP3    H125025   2.909   6.403  11.565  1.0069 -1.9722 -0.0554
 1178TIP3    H225026   2.881   6.322  11.690 -2.5103  0.7239  1.0523
 1179TIP3   OH225027   4.007   6.578   3.268 -0.3170  0.3149  0.1568
 1179TIP3    H125028   3.970   6.594   3.180 -0.3915  0.8772  0.2884
 1179TIP3    H225029   3.975   6.490   3.291 -1.5863  0.7855  0.2616
 1180TIP3   OH225030   0.959   1.010   0.841  0.6284 -0.6497  0.3909
 1180TIP3    H125031   0.917   0.927   0.865  0.7297 -0.9471 -0.4312
 1180TIP3    H225032   1.053   0.989   0.837  0.6272 -0.5656 -0.0984
 1181TIP3   OH225033   5.891   0.717   5.687  0.1204 -0.0242  0.6384
 1181TIP3    H125034   5.907   0.677   5.773  1.1407 -0.7345  0.1318
 1181TIP3    H225035   5.934   0.803   5.693  1.7508 -0.7722  0.2738
 1182TIP3   OH225036   4.575   6.075  12.426 -0.7621 -0.5924 -0.0986
 1182TIP3    H125037   4.547   6.016  12.495  0.1052  0.4888  1.2385
 1182TIP3    H225038   4.667   6.053  12.412 -0.4898  0.2808  0.2689
 1183TIP3   OH225039   3.711   0.574   2.040  0.0019 -0.2544 -0.1741
 1183TIP3    H125040   3.787   0.623   2.070 -1.2315  2.0240 -0.5889
 1183TIP3    H225041   3.689   0.612   1.955 -1.6753 -0.7603 -0.0044
 1184TIP3   OH225042   1.496   5.378  13.964  0.3940 -0.3599 -0.1379
 1184TIP3    H125043   1.490   5.362  13.869  0.1075  1.0844 -0.3967
 1184TIP3    H225044   1.590   5.378  13.982  0.4164 -1.8444 -0.1809
 1185TIP3   OH225045   5.138   5.203   6.500  0.0863  0.4877  0.3083
 1185TIP3    H125046   5.139   5.136   6.569 -0.0707 -0.6076 -0.7327
 1185TIP3    H225047   5.230   5.229   6.492  0.7409 -2.0547 -1.5605
 1186TIP3   OH225048   6.082   1.621  10.317  0.2050 -0.7973 -0.1655
 1186TIP3    H125049   6.100   1.543  10.265  0.5176 -0.0534 -1.1965
 1186TIP3    H225050   6.168   1.648  10.350  0.6936  1.0681 -2.6777
 1187TIP3   OH225051   5.833   5.777  12.999 -0.1045 -0.0596 -0.2853
 1187TIP3    H125052   5.836   5.684  12.974 -1.2625  0.0029 -0.7064
 1187TIP3    H225053   5.822   5.824  12.917 -0.9532  0.3514  0.0500
 1188TIP3   OH225054   3.636   5.301  11.393 -0.4994  0.1390  0.4953
 1188TIP3    H125055   3.600   5.229  11.444 -0.0796  0.6062  1.4862
 1188TIP3    H225056   3.731   5.288  11.398 -0.4458 -0.7466 -1.5827
 1189TIP3   OH225057   4.091   3.856   3.670 -0.3174  0.4517  0.1034
 1189TIP3    H125058   4.136   3.925   3.622  1.9136 -0.9041  0.0948
 1189TIP3    H225059   4.014   3.899   3.707 -0.4417  2.2789 -2.0483
 1190TIP3   OH225060   4.933   6.660  14.858 -0.5857 -0.1519 -0.2821
 1190TIP3    H125061   4.935   6.659  14.762  1.6993 -0.2620 -0.2919
 1190TIP3    H225062   5.002   6.599  14.884 -1.6970 -0.7332  1.4751
 1191TIP3   OH225063   4.410   3.449  15.226  0.0082  0.0832  0.3187
 1191TIP3    H125064   4.343   3.469  15.161  1.6404 -2.7530 -2.5580
 1191TIP3    H225065   4.476   3.518  15.213  0.9490 -1.1507 -2.2209
 1192TIP3   OH225066   1.267   1.769   0.239  0.3845  0.3995  0.0144
 1192TIP3    H125067   1.284   1.849   0.191  0.4484  0.6031  0.3719
 1192TIP3    H225068   1.342   1.759   0.297  0.5662 -0.1262 -0.2998
 1193TIP3   OH225069   2.360   1.049  13.819  0.1669  0.5345  0.2381
 1193TIP3    H125070   2.281   0.997  13.831  1.1817 -1.0992  0.2093
 1193TIP3    H225071   2.335   1.119  13.759 -0.4684 -1.9491 -2.6396
 1194TIP3   OH225072   0.053   5.437  16.813  0.0768 -0.1094  0.1058
 1194TIP3    H125073   0.116   5.364  16.823  0.2620 -0.0011 -0.2438
 1194TIP3    H225074   0.108   5.514  16.802 -0.0816 -0.2137 -1.7527
 1195TIP3   OH225075   4.619   1.775   1.393 -0.2477 -0.4423  0.2539
 1195TIP3    H125076   4.617   1.732   1.478 -1.6510 -1.6207 -0.3365
 1195TIP3    H225077   4.582   1.862   1.409 -1.3741 -0.9899  0.6776
 1196TIP3   OH225078   0.909   5.077   5.946 -0.1491  0.7097  0.4236
 1196TIP3    H125079   0.859   5.158   5.936  0.0894  1.1395  2.2817
 1196TIP3    H225080   0.913   5.039   5.858 -3.8669  0.5671  0.1636
 1197TIP3   OH225081   1.234   4.933  13.964  0.6670 -0.1860  0.4338
 1197TIP3    H125082   1.319   4.891  13.971  0.4199 -0.5166  1.5295
 1197TIP3    H225083   1.246   5.018  14.006  0.5611 -0.0614  0.2160
 1198TIP3   OH225084   3.559   5.264  14.735  0.3550 -0.2166 -0.0121
 1198TIP3    H125085   3.472   5.241  14.766  0.1779 -1.0251 -1.0359
 1198TIP3    H225086   3.611   5.185  14.750  1.1307  0.5383  1.3512
 1199TIP3   OH225087   5.270   2.826   2.630  0.1756 -0.6526  0.1791
 1199TIP3    H125088   5.222   2.881   2.691  1.0114  0.3388 -0.0274
 1199TIP3    H225089   5.339   2.786   2.683  0.8439  0.1348 -0.0852
 1200TIP3   OH225090   3.601   4.465  16.120 -0.4830  0.0859 -0.0567
 1200TIP3    H125091   3.573   4.488  16.031 -0.2849  0.6637  0.0275
 1200TIP3    H225092   3.565   4.534  16.175  0.7767  0.6469  0.0957
 1201TIP3   OH225093   3.894   6.607  11.375 -0.6024 -0.0418 -0.1431
 1201TIP3    H125094   3.921   6.699  11.379 -1.7245  0.3871 -1.4327
 1201TIP3    H225095   3.812   6.604  11.425  0.1346 -0.6587  1.0670
 1202TIP3   OH225096   0.458   3.917   5.427 -0.0586  0.3899 -0.1675
 1202TIP3    H125097   0.501   3.930   5.342 -0.6411 -0.9146 -0.6806
 1202TIP3    H225098   0.365   3.930   5.409 -0.2413 -0.4439  0.1549
 1203TIP3   OH225099   0.072   6.517  16.256 -0.4201 -0.2645  0.8978
 1203TIP3    H125100   0.058   6.440  16.311 -2.0964  0.7198  1.9383
 1203TIP3    H225101   0.109   6.582  16.315 -1.5005  0.5574  0.6956
 1204TIP3   OH225102   4.628   6.371  16.989  0.5400  0.7583 -0.2670
 1204TIP3    H125103   4.616   6.452  16.940 -1.9600 -0.4051 -1.7394
 1204TIP3    H225104   4.695   6.324  16.940  0.1753  0.8669 -0.8816
 1205TIP3   OH225105   0.574   3.880  16.763  0.2093  0.0003 -0.0022
 1205TIP3    H125106   0.580   3.785  16.769 -0.5299 -0.0087  1.0481
 1205TIP3    H225107   0.518   3.905  16.838 -1.9356  1.0117 -1.8181
 1206TIP3   OH225108   2.932   5.022  17.218  0.1729 -0.4310 -0.2325
 1206TIP3    H125109   2.903   4.991  17.132  2.5725 -1.0308 -0.8837
 1206TIP3    H225110   2.919   5.117  17.214 -2.1056 -0.6816 -0.2542
 1207TIP3   OH225111   3.209   5.377   2.364  0.1321  0.4648 -0.8043
 1207TIP3    H125112   3.295   5.418   2.372 -0.4744  1.9266 -1.3341
 1207TIP3    H225113   3.156   5.442   2.318 -1.0342 -0.7429 -1.2433
 1208TIP3   OH225114   3.113   3.116  15.660 -0.3280  0.2496 -0.4527
 1208TIP3    H125115   3.080   3.089  15.746 -0.5575  1.0775 -0.2726
 1208TIP3    H225116   3.208   3.116  15.670 -0.3592  1.8690  0.3187
 1209TIP3   OH225117   4.224   4.515  11.347 -0.0074 -0.3368 -0.0294
 1209TIP3    H125118   4.283   4.446  11.318 -0.2764 -0.9185  0.7444
 1209TIP3    H225119   4.145   4.468  11.376 -0.4701  0.3489 -0.1481
 1210TIP3   OH225120   3.641   1.178   2.823 -0.2447 -0.2360  0.2428
 1210TIP3    H125121   3.546   1.177   2.827 -0.2926  0.8885  4.5281
 1210TIP3    H225122   3.665   1.270   2.832  1.1351 -0.6993  2.0950
 1211TIP3   OH225123   3.060   6.256   2.239 -0.0377 -0.1548  0.2562
 1211TIP3    H125124   2.967   6.251   2.217  0.0641  1.1826 -0.5916
 1211TIP3    H225125   3.067   6.331   2.297  0.5806  0.0750 -0.1024
 1212TIP3   OH225126   0.496   6.684  12.345 -0.2154  0.5972  0.0025
 1212TIP3    H125127   0.559   6.614  12.364 -0.7761  0.3421  1.0125
 1212TIP3    H225128   0.548   6.765  12.352  0.0637  0.3755  0.6007
 1213TIP3   OH225129   4.999   0.703  13.194  0.3895  0.1919 -0.0746
 1213TIP3    H125130   5.084   0.745  13.194  0.0960  0.8069 -1.1253
 1213TIP3    H225131   4.943   0.761  13.142 -0.4385 -0.6569 -0.1583
 1214TIP3   OH225132   3.156   0.765  15.969  0.0897 -0.1128  0.1983
 1214TIP3    H125133   3.131   0.751  15.878 -0.9041  0.8900  0.2985
 1214TIP3    H225134   3.237   0.716  15.980 -0.1163 -0.7619 -1.0496
 1215TIP3   OH225135   5.424   0.529   4.549  0.4065 -0.5031 -0.2662
 1215TIP3    H125136   5.467   0.608   4.581 -0.5627 -0.1321  0.1851
 1215TIP3    H225137   5.404   0.480   4.629 -0.0645 -0.6257 -0.4577
 1216TIP3   OH225138   1.813   1.751   1.234  0.2958  0.4659  0.3691
 1216TIP3    H125139   1.794   1.684   1.168  0.6152  0.0058  0.7408
 1216TIP3    H225140   1.902   1.732   1.264  0.4638  1.1766  0.3400
 1217TIP3   OH225141   3.034   0.156   4.538  0.3770 -0.3815 -0.0104
 1217TIP3    H125142   2.975   0.173   4.610  1.1293 -2.2288  1.1086
 1217TIP3    H225143   3.120   0.145   4.579  1.1572  0.2654 -1.3835
 1218TIP3   OH225144   2.572   6.252  11.591  0.7594  0.5237 -0.6178
 1218TIP3    H125145   2.507   6.314  11.623 -0.6128 -1.6628  1.2054
 1218TIP3    H225146   2.655   6.284  11.626 -0.2076  0.2628  2.1796
 1219TIP3   OH225147   1.539   6.040  12.005  0.2620 -0.0848 -0.3179
 1219TIP3    H125148   1.481   6.010  11.935 -0.2413 -2.6534  1.0707
 1219TIP3    H225149   1.487   6.028  12.085  1.6100  0.6021  0.6954
 1220TIP3   OH225150   1.694   6.084  13.677  0.5442 -0.6526 -0.2592
 1220TIP3    H125151   1.619   6.036  13.642  0.4423 -1.6017  1.1542
 1220TIP3    H225152   1.766   6.022  13.672  0.6691 -0.5820  0.5667
 1221TIP3   OH225153   2.471   1.855  14.121 -0.0732  0.3763  0.7221
 1221TIP3    H125154   2.436   1.910  14.050  0.8841  0.3736  0.2359
 1221TIP3    H225155   2.554   1.897  14.145 -0.0004 -0.0825  1.2890
 1222TIP3   OH225156   0.046   0.240  16.952 -0.2768 -0.9159  0.5830
 1222TIP3    H125157   0.107   0.269  16.884 -0.1297 -1.9759  0.2445
 1222TIP3    H225158  -0.022   0.307  16.953 -0.0856 -0.6945 -0.3551
 1223TIP3   OH225159   0.877   3.505   2.948  0.7280  0.2486 -0.6454
 1223TIP3    H125160   0.820   3.428   2.950 -0.1897  0.9109  1.0275
 1223TIP3    H225161   0.914   3.506   2.860 -0.2477 -1.3702 -1.1061
 1224TIP3   OH225162   0.606   0.591   6.444 -0.2666 -0.3396  0.2403
 1224TIP3    H125163   0.689   0.637   6.460  0.5518 -2.0719  1.1451
 1224TIP3    H225164   0.539   0.660   6.451  1.1304  1.3161 -1.6098
 1225TIP3   OH225165   1.809   1.713  16.485 -0.4174 -0.3337  0.4171
 1225TIP3    H125166   1.732   1.698  16.431  0.6738  0.8655 -1.6293
 1225TIP3    H225167   1.875   1.653  16.450  0.0900 -0.0866  0.9239
 1226TIP3   OH225168   0.120   5.341   0.725 -0.1521 -0.3144  0.6334
 1226TIP3    H125169   0.099   5.285   0.651 -1.5658 -0.2106  0.9327
 1226TIP3    H225170   0.036   5.360   0.766  0.3523  1.5180  0.9180
 1227TIP3   OH225171   3.183   3.509  16.419 -0.3832  0.0274 -0.3556
 1227TIP3    H125172   3.123   3.579  16.446  0.4956  0.8406 -0.4360
 1227TIP3    H225173   3.155   3.488  16.330  0.1579  1.2422 -0.8458
 1228TIP3   OH225174   2.518   4.887   0.010 -0.2555 -0.5309  0.2750
 1228TIP3    H125175   2.495   4.861  -0.079  0.3601 -0.2647  0.0311
 1228TIP3    H225176   2.557   4.974   0.001 -0.9939 -0.1189  0.9191
 1229TIP3   OH225177   5.298   0.507  11.619  0.1045  0.1798  0.0421
 1229TIP3    H125178   5.326   0.441  11.555 -0.5108 -0.0204 -0.0267
 1229TIP3    H225179   5.207   0.524  11.597  0.1602  0.8033  0.2795
 1230TIP3   OH225180   4.817   2.751  12.942  0.1075  0.2588  0.3690
 1230TIP3    H125181   4.855   2.668  12.914 -1.6408 -1.0471  1.7165
 1230TIP3    H225182   4.795   2.739  13.034  1.2553  2.8009  1.0893
 1231TIP3   OH225183   0.245   1.734  12.468 -0.4307  0.3918 -0.0439
 1231TIP3    H125184   0.159   1.691  12.471  0.1486 -0.7387  1.0570
 1231TIP3    H225185   0.298   1.686  12.531  0.8818  1.3926 -0.3504
 1232TIP3   OH225186   6.757   1.640  11.166 -0.9392  0.0291  0.8306
 1232TIP3    H125187   6.664   1.625  11.181 -1.2870  2.2993  1.2689
 1232TIP3    H225188   6.760   1.715  11.107  0.6399 -0.1640  0.6097
 1233TIP3   OH225189   1.390   5.781   5.394 -0.0362 -0.5557 -0.0802
 1233TIP3    H125190   1.468   5.805   5.444  1.0492 -0.5368 -1.7143
 1233TIP3    H225191   1.396   5.686   5.384 -1.0728 -0.7655  1.1185
 1234TIP3   OH225192   6.072   3.958  11.369  0.1332 -0.1925  0.2236
 1234TIP3    H125193   6.074   3.938  11.276  0.6829  1.3815 -0.1166
 1234TIP3    H225194   6.058   3.872  11.411 -0.5352 -0.8673 -1.2927
 1235TIP3   OH225195   6.555   5.094   3.255 -0.2591  0.5341 -0.3993
 1235TIP3    H125196   6.491   5.149   3.299  1.0696  3.1262 -1.5179
 1235TIP3    H225197   6.509   5.057   3.180 -0.8705  1.0321 -0.2703
 1236TIP3   OH225198   1.986   0.935   3.388 -0.4440  0.1144  0.4744
 1236TIP3    H125199   1.908   0.934   3.332 -0.1016  1.4595 -0.0539
 1236TIP3    H225200   1.988   1.023   3.425  1.9576  0.8753 -1.1984
 1237TIP3   OH225201   2.779   0.597  11.289  0.7910  0.6624 -0.4470
 1237TIP3    H125202   2.775   0.662  11.359  0.7673  0.3062 -0.1138
 1237TIP3    H225203   2.697   0.608  11.241 -1.2225 -1.8701  2.0889
 1238TIP3   OH225204   5.047   1.002   2.480 -0.2875 -0.0370 -0.4086
 1238TIP3    H125205   5.010   0.915   2.462 -0.5859  0.2950 -1.5401
 1238TIP3    H225206   5.070   1.001   2.572 -0.2691 -1.3275 -0.4193
 1239TIP3   OH225207   3.930   4.695  12.796  0.5004 -0.3778 -0.1870
 1239TIP3    H125208   3.993   4.673  12.864 -0.0668 -0.0680  0.4512
 1239TIP3    H225209   3.845   4.678  12.836  0.1539 -3.6869 -2.0248
 1240TIP3   OH225210   2.068   6.256  13.451  0.2027  0.5410 -0.0600
 1240TIP3    H125211   2.006   6.184  13.438 -0.1450  0.3966  2.0835
 1240TIP3    H225212   2.153   6.213  13.460  0.1298  0.4607  0.2696
 1241TIP3   OH225213   3.413   2.765  13.269 -0.1866  0.0684  0.1615
 1241TIP3    H125214   3.343   2.795  13.212 -0.4443 -0.3862  0.2328
 1241TIP3    H225215   3.410   2.670  13.263 -0.0799  0.0216  0.7724
 1242TIP3   OH225216   1.897   4.155  11.484  0.1117 -0.2348 -0.3257
 1242TIP3    H125217   1.876   4.195  11.568  0.2568  0.7859 -0.7519
 1242TIP3    H225218   1.993   4.149  11.483  0.5601  3.8793 -2.1168
 1243TIP3   OH225219   1.232   6.115  14.832  0.2837 -0.4589  0.2962
 1243TIP3    H125220   1.208   6.168  14.909  1.3478  0.5902 -0.0444
 1243TIP3    H225221   1.169   6.139  14.765  0.9946  0.7401  0.0197
 1244TIP3   OH225222   3.396   6.207   0.269 -0.0560  0.0253  0.3488
 1244TIP3    H125223   3.475   6.190   0.218  1.3034  1.1632  1.9325
 1244TIP3    H225224   3.398   6.141   0.339  0.2768  0.8962  1.1867
 1245TIP3   OH225225   0.577   3.543   2.891  0.3817  0.0571 -0.0747
 1245TIP3    H125226   0.616   3.458   2.870  0.2958  0.1797 -0.7363
 1245TIP3    H225227   0.516   3.524   2.963  0.5347 -0.3968 -0.0630
 1246TIP3   OH225228   4.155   1.391  16.666 -0.1974 -0.0123 -0.3369
 1246TIP3    H125229   4.189   1.302  16.657  0.0360 -0.1012  1.1207
 1246TIP3    H225230   4.227   1.447  16.639  0.5749 -0.2330  1.1765
 1247TIP3   OH225231   1.736   0.256   5.380 -0.3227  0.0287  0.5804
 1247TIP3    H125232   1.829   0.277   5.386 -0.2507 -0.0755 -0.1223
 1247TIP3    H225233   1.731   0.187   5.314 -0.6881 -1.3441  1.9840
 1248TIP3   OH225234   0.087   2.972   4.820 -0.1364 -0.2176 -0.8589
 1248TIP3    H125235   0.156   2.935   4.875 -0.7133 -1.5123 -0.9715
 1248TIP3    H225236   0.038   3.030   4.878  0.0737 -0.5297 -0.3657
 1249TIP3   OH225237   3.203   2.109   1.687 -0.6393  0.2350 -0.7527
 1249TIP3    H125238   3.215   2.168   1.761  0.6654  0.7638 -1.3534
 1249TIP3    H225239   3.256   2.148   1.617  0.0925 -1.5510 -1.2294
 1250TIP3   OH225240   4.481   0.282   5.718  0.4525  0.4797 -0.1765
 1250TIP3    H125241   4.494   0.314   5.629 -0.3873  2.2695  0.3082
 1250TIP3    H225242   4.403   0.227   5.713  0.8990 -0.1186 -0.6922
 1251TIP3   OH225243   6.587   5.188  16.867  0.2221  0.2321 -0.1789
 1251TIP3    H125244   6.544   5.103  16.859 -0.9768  0.5164  2.3207
 1251TIP3    H225245   6.660   5.174  16.927 -0.1511  1.0095  0.4749
 1252TIP3   OH225246   0.265   3.528  14.932 -0.3700  0.3809  0.0186
 1252TIP3    H125247   0.299   3.609  14.968  0.2626 -0.1003  0.5294
 1252TIP3    H225248   0.175   3.548  14.907  0.0198  1.4543 -0.5942
 1253TIP3   OH225249   2.705   5.664  16.745 -0.2138 -0.1057  0.0051
 1253TIP3    H125250   2.629   5.718  16.765  0.4823  1.0681 -0.4309
 1253TIP3    H225251   2.743   5.644  16.831 -0.7547 -0.3333  0.1995
 1254TIP3   OH225252   1.723   3.510  11.248 -0.0580 -0.1944 -0.0920
 1254TIP3    H125253   1.765   3.545  11.326  0.2705  0.9354 -0.7620
 1254TIP3    H225254   1.640   3.558  11.242 -0.3371 -0.6755 -0.1309
 1255TIP3   OH225255   3.920   0.687   6.105  0.0478  0.1165  0.1143
 1255TIP3    H125256   3.826   0.704   6.108  0.2701  2.4131 -1.9230
 1255TIP3    H225257   3.960   0.774   6.109  2.1203 -0.8187  1.1731
 1256TIP3   OH225258   3.276   2.659  13.875 -0.2443 -0.0758  0.3685
 1256TIP3    H125259   3.251   2.726  13.811 -0.1117 -0.8665 -0.5297
 1256TIP3    H225260   3.265   2.702  13.959 -2.7237  0.2631 -0.0444
 1257TIP3   OH225261   5.651   1.517  12.139 -0.1391 -0.3437 -0.2316
 1257TIP3    H125262   5.713   1.523  12.066  0.0686  0.8779  0.0280
 1257TIP3    H225263   5.691   1.570  12.208 -0.5920 -1.0592  0.5874
 1258TIP3   OH225264   4.497   4.985  16.964  0.2372  0.3373  0.9095
 1258TIP3    H125265   4.415   5.033  16.964 -1.9552 -3.0733  1.7009
 1258TIP3    H225266   4.529   4.993  17.054 -1.0174 -0.9855  1.5069
 1259TIP3   OH225267   5.703   0.133  15.029 -0.2402 -0.1670 -0.5540
 1259TIP3    H125268   5.772   0.068  15.014  1.7201  1.6443  0.2192
 1259TIP3    H225269   5.673   0.115  15.119 -1.2209 -1.2921 -1.0731
 1260TIP3   OH225270   6.333   0.063  13.799 -0.2091  0.2280 -0.1345
 1260TIP3    H125271   6.411   0.037  13.751  0.1497  3.1631 -1.3514
 1260TIP3    H225272   6.261   0.045  13.738  0.0169  1.6658 -0.8814
 1261TIP3   OH225273   2.685   6.065  11.279  0.2471 -0.0170  0.3158
 1261TIP3    H125274   2.704   5.993  11.219 -0.9577 -0.9549  1.0351
 1261TIP3    H225275   2.590   6.076  11.275  0.1508  0.0087  1.9232
 1262TIP3   OH225276   2.340   4.193  11.579  0.4887  0.9169 -0.6447
 1262TIP3    H125277   2.295   4.137  11.515  0.3998  0.1520  0.0709
 1262TIP3    H225278   2.376   4.132  11.642 -1.3950  1.7207  1.3474
 1263TIP3   OH225279   4.492   6.611   6.191  0.4197  0.5991 -0.2917
 1263TIP3    H125280   4.423   6.677   6.190  1.2839  1.5405 -0.1773
 1263TIP3    H225281   4.453   6.535   6.235 -0.6586  0.9510 -0.6050
 1264TIP3   OH225282   2.730   1.541   6.128  0.0946 -0.4242  0.2681
 1264TIP3    H125283   2.746   1.472   6.064  0.0142 -0.3964  0.2186
 1264TIP3    H225284   2.646   1.579   6.103  0.0506 -0.4286  0.4041
 1265TIP3   OH225285   6.113   6.471   1.307 -0.5770 -0.0291 -0.4499
 1265TIP3    H125286   6.084   6.391   1.352  0.9465 -0.5588 -0.3395
 1265TIP3    H225287   6.139   6.441   1.220 -0.0460  0.3519 -0.4235
 1266TIP3   OH225288   4.383   3.063  11.190 -0.1899  0.0721 -0.5889
 1266TIP3    H125289   4.412   3.154  11.195  1.5039 -0.0777 -4.3125
 1266TIP3    H225290   4.462   3.013  11.171 -1.2554 -2.0639  0.2041
 1267TIP3   OH225291   1.692   6.218   5.697 -0.7912  0.8013 -0.4622
 1267TIP3    H125292   1.694   6.171   5.781  0.5750 -0.1742 -0.9958
 1267TIP3    H225293   1.774   6.267   5.695 -1.1588  1.4050 -0.9139
 1268TIP3   OH225294   0.314   5.810  13.361 -0.0897 -0.4210  0.7050
 1268TIP3    H125295   0.373   5.826  13.434  0.5084  0.4962  0.0435
 1268TIP3    H225296   0.266   5.731  13.385  2.6471 -2.2661  0.4622
 1269TIP3   OH225297   5.912   1.842  13.443 -0.1469  1.2029 -0.1480
 1269TIP3    H125298   5.852   1.913  13.418  2.5554  4.9323  2.7416
 1269TIP3    H225299   5.940   1.864  13.532 -0.0561 -4.4438  1.6371
 1270TIP3   OH225300   4.528   2.552  12.824 -0.0553 -0.3115 -0.2265
 1270TIP3    H125301   4.441   2.513  12.819 -0.2689  0.2163 -0.7180
 1270TIP3    H225302   4.512   2.647  12.824  0.5210 -0.2100 -0.3381
 1271TIP3   OH225303   1.750   0.845  16.094 -0.7232  0.4322 -0.3996
 1271TIP3    H125304   1.818   0.907  16.121 -0.8286 -0.0160  0.9570
 1271TIP3    H225305   1.781   0.811  16.010  1.4444 -0.7361  0.7764
 1272TIP3   OH225306   0.907   2.819  15.050 -0.2835 -0.4136  0.6394
 1272TIP3    H125307   1.001   2.835  15.059 -0.2599  0.1002 -0.3941
 1272TIP3    H225308   0.883   2.864  14.970 -0.7791 -3.1262 -0.8599
 1273TIP3   OH225309   0.042   0.584  15.522  0.2918 -0.2099  0.1591
 1273TIP3    H125310   0.019   0.515  15.585 -0.5935  0.1654  0.2608
 1273TIP3    H225311   0.040   0.665  15.573 -0.1591  0.0632 -0.2834
 1274TIP3   OH225312   0.517   1.927   5.161 -0.6808  0.0876 -0.3333
 1274TIP3    H125313   0.524   1.832   5.148 -1.4981 -0.0344  0.0775
 1274TIP3    H225314   0.460   1.937   5.237  1.1684  0.8645  1.0231
 1275TIP3   OH225315   4.556   4.607  14.061  0.0598  0.9472  0.2328
 1275TIP3    H125316   4.486   4.550  14.029  0.7821  0.8059 -1.1693
 1275TIP3    H225317   4.621   4.547  14.097  1.2050  0.7288 -1.9934
 1276TIP3   OH225318   1.695   6.549   3.871 -0.2527 -0.0266 -0.1882
 1276TIP3    H125319   1.626   6.486   3.855  0.3243 -1.5596  2.6962
 1276TIP3    H225320   1.651   6.625   3.910 -0.4253 -1.0502  1.7653
 1277TIP3   OH225321   5.251   6.800   4.278  0.4214  0.3629  1.0779
 1277TIP3    H125322   5.277   6.881   4.234 -4.9184  3.7216  3.0729
 1277TIP3    H225323   5.187   6.760   4.220  2.4923 -2.2670  0.4402
 1278TIP3   OH225324   0.706   6.493  13.857 -0.6101 -0.3858 -0.3264
 1278TIP3    H125325   0.668   6.526  13.938  1.4748 -1.4142  1.1427
 1278TIP3    H225326   0.678   6.556  13.790 -1.0749  1.3844  1.4496
 1279TIP3   OH225327   3.197   2.251   4.197  0.6923  0.2427  0.0725
 1279TIP3    H125328   3.257   2.319   4.226 -0.0014  0.5186  0.8961
 1279TIP3    H225329   3.242   2.168   4.217  0.7767  0.4432  0.7127
 1280TIP3   OH225330   2.698   2.583   3.417  0.6839 -0.2187 -0.0110
 1280TIP3    H125331   2.714   2.500   3.372  0.0279 -1.6317  2.2334
 1280TIP3    H225332   2.777   2.597   3.470 -0.0832 -0.5895  1.2790
 1281TIP3   OH225333   3.036   6.644  13.755 -0.2488  0.1475 -0.0801
 1281TIP3    H125334   3.061   6.736  13.747 -3.4109  1.0430 -1.3183
 1281TIP3    H225335   2.952   6.638  13.709  0.5057 -3.7013 -1.2835
 1282TIP3   OH225336   0.430   4.300   3.729  0.1835  0.5280  0.2956
 1282TIP3    H125337   0.414   4.361   3.658  3.2549  1.2331  0.0889
 1282TIP3    H225338   0.509   4.252   3.703  0.4786 -0.3105  2.4978
 1283TIP3   OH225339   4.465   6.108   0.402  0.3060  0.1065  0.0707
 1283TIP3    H125340   4.423   6.062   0.476  0.9098  1.4791  1.3188
 1283TIP3    H225341   4.529   6.046   0.368  1.0468 -0.0456  1.6649
 1284TIP3   OH225342   1.150   1.352   4.613  0.4621 -0.5250 -0.5517
 1284TIP3    H125343   1.197   1.280   4.655 -1.5993 -0.4305  2.1342
 1284TIP3    H225344   1.075   1.309   4.571 -0.9200  0.0036  1.2852
 1285TIP3   OH225345   2.042   4.300   5.755  0.7549  0.1233  0.4750
 1285TIP3    H125346   1.974   4.367   5.761 -0.3106 -1.0323  2.1856
 1285TIP3    H225347   2.115   4.344   5.712 -0.9439  1.4936 -1.1907
 1286TIP3   OH225348   1.647   6.605   1.576 -0.4907 -0.1125 -0.3530
 1286TIP3    H125349   1.674   6.538   1.639 -2.6828 -0.0406  0.7479
 1286TIP3    H225350   1.611   6.675   1.630  1.6449  2.0092 -1.4744
 1287TIP3   OH225351   1.038   0.381  13.159 -0.1216  0.5926 -0.0995
 1287TIP3    H125352   0.975   0.339  13.217 -0.4538 -0.3009 -1.0912
 1287TIP3    H225353   1.123   0.370  13.203 -0.2209 -1.0281 -0.2798
 1288TIP3   OH225354   1.991   5.401   3.622  0.4828 -0.7245 -0.1288
 1288TIP3    H125355   1.939   5.340   3.571  1.5691 -0.7028 -1.3266
 1288TIP3    H225356   2.069   5.416   3.569  0.4391  1.3977  0.2963
 1289TIP3   OH225357   6.430   2.206  16.849  0.0212  0.0745  0.4650
 1289TIP3    H125358   6.504   2.201  16.787 -0.5863  0.5023 -0.3142
 1289TIP3    H225359   6.436   2.293  16.886  0.1243 -0.0273  0.6918
 1290TIP3   OH225360   1.602   6.312  10.588  0.2338  0.4239 -0.2401
 1290TIP3    H125361   1.620   6.233  10.637 -0.0748  0.3858 -0.1867
 1290TIP3    H225362   1.654   6.303  10.508  0.4279  0.3053 -0.1009
 1291TIP3   OH225363   4.731   2.772  13.496 -0.0351 -0.1135  0.1945
 1291TIP3    H125364   4.722   2.789  13.590  0.0323 -0.7134  0.3126
 1291TIP3    H225365   4.781   2.846  13.463 -0.1215  0.1382  0.6183
 1292TIP3   OH225366   5.637   0.922   5.370 -0.6320  0.6472 -0.6478
 1292TIP3    H125367   5.598   0.854   5.316 -0.5154  0.6379 -0.7209
 1292TIP3    H225368   5.613   0.898   5.459 -2.0589  1.4543 -0.7921
 1293TIP3   OH225369   6.437   4.054   2.169 -0.3791 -0.3942 -0.1522
 1293TIP3    H125370   6.461   4.006   2.090  0.4921  2.1121 -1.5286
 1293TIP3    H225371   6.375   4.120   2.140  0.0139  0.6476  1.2323
 1294TIP3   OH225372   4.593   2.991   4.528  0.1069 -0.2715 -0.3328
 1294TIP3    H125373   4.595   3.078   4.488 -2.4588  2.5145  4.6403
 1294TIP3    H225374   4.685   2.967   4.538  1.0939  3.4023  0.7419
 1295TIP3   OH225375   5.692   6.832  10.985  0.4375 -0.0131 -0.2175
 1295TIP3    H125376   5.638   6.890  11.040  1.3083  0.0146  0.6341
 1295TIP3    H225377   5.663   6.744  11.010  0.1691  0.0170 -0.4153
 1296TIP3   OH225378   1.841   1.019  11.003 -0.1718  0.6413  0.9325
 1296TIP3    H125379   1.792   1.083  10.952  2.0140  0.3288 -1.8044
 1296TIP3    H225380   1.817   0.934  10.964  1.5972  0.4040  0.2737
 1297TIP3   OH225381   2.322   6.240   1.512  0.0186  0.0622  0.4596
 1297TIP3    H125382   2.247   6.184   1.531  0.8067 -0.8306  1.0204
 1297TIP3    H225383   2.286   6.310   1.457 -1.3324 -0.0357  1.1627
 1298TIP3   OH225384   1.531   6.213   0.772 -0.3783  0.4858 -0.1753
 1298TIP3    H125385   1.442   6.247   0.771 -0.2403  0.8597 -1.3169
 1298TIP3    H225386   1.522   6.124   0.806 -1.1878  0.5220 -0.2721
 1299TIP3   OH225387   0.535   1.828  13.960  0.1152 -0.2887 -0.0723
 1299TIP3    H125388   0.577   1.889  14.021  0.0329  0.8336 -1.1024
 1299TIP3    H225389   0.444   1.857  13.956  0.5431  0.9814 -2.2450
 1300TIP3   OH225390   4.892   5.523   3.682  0.1377  0.3063 -0.0776
 1300TIP3    H125391   4.902   5.507   3.776  0.0187  2.2182  0.3139
 1300TIP3    H225392   4.978   5.555   3.653 -0.0587  0.5296 -0.4276
 1301TIP3   OH225393   3.491   1.404   2.705 -0.0912 -0.5666  0.4485
 1301TIP3    H125394   3.432   1.414   2.631  0.2131 -0.7404  0.1799
 1301TIP3    H225395   3.433   1.386   2.779 -0.3641 -0.9332  0.1513
 1302TIP3   OH225396   5.569   0.100  15.690 -0.2382 -0.5627 -0.1051
 1302TIP3    H125397   5.652   0.141  15.665 -0.6809 -0.3386 -1.2896
 1302TIP3    H225398   5.541   0.054  15.611 -0.6270 -1.6895  0.6775
 1303TIP3   OH225399   1.981   6.407  15.848  0.3379 -0.3928  0.1094
 1303TIP3    H125400   1.974   6.313  15.859 -1.1185 -0.3873 -0.6496
 1303TIP3    H225401   1.914   6.430  15.784  0.3952  1.2171  0.5770
 1304TIP3   OH225402   3.812   3.045   4.542 -0.2642  0.1687  1.3365
 1304TIP3    H125403   3.866   2.971   4.516 -1.6694 -0.7129  0.8153
 1304TIP3    H225404   3.739   3.005   4.590 -1.9897  0.9903 -0.4612
 1305TIP3   OH225405   0.648   0.404   1.500 -0.6327  0.3357 -0.2144
 1305TIP3    H125406   0.626   0.321   1.542  1.5839 -0.1008  0.2166
 1305TIP3    H225407   0.654   0.383   1.407 -1.9999  0.4903 -0.3576
 1306TIP3   OH225408   0.200   5.062  13.868 -0.5261  0.2731 -0.1437
 1306TIP3    H125409   0.267   5.131  13.867  0.4199 -0.6110 -1.4220
 1306TIP3    H225410   0.146   5.082  13.945  0.2311  1.9337  0.0031
 1307TIP3   OH225411   0.337   0.527  13.401 -0.7646 -0.3776 -0.5278
 1307TIP3    H125412   0.401   0.588  13.363 -0.9387  0.5845  0.6400
 1307TIP3    H225413   0.371   0.440  13.380 -0.6600  0.0757 -2.5176
 1308TIP3   OH225414   0.538   4.847   1.860  0.2163  0.0822  0.0380
 1308TIP3    H125415   0.582   4.862   1.776 -0.7866  0.6561 -0.4098
 1308TIP3    H225416   0.606   4.811   1.917  1.2906  1.0191 -0.5990
 1309TIP3   OH225417   4.180   2.623  11.745  0.4385  0.1085  0.1014
 1309TIP3    H125418   4.110   2.592  11.802  0.0167 -1.3296 -1.1322
 1309TIP3    H225419   4.162   2.717  11.733 -1.3092 -0.2336 -0.2091
 1310TIP3   OH225420   1.488   0.665  17.155  0.0429  0.5003  0.4350
 1310TIP3    H125421   1.441   0.682  17.073  0.0095  0.3972  0.4328
 1310TIP3    H225422   1.533   0.747  17.175  1.1223  0.1125 -0.3751
 1311TIP3   OH225423   4.254   0.657   2.791 -0.4934 -0.2835 -0.2992
 1311TIP3    H125424   4.345   0.680   2.808 -0.7778  0.4953  0.2164
 1311TIP3    H225425   4.204   0.734   2.817 -1.5444 -1.6515  2.0779
 1312TIP3   OH225426   4.020   6.106   0.421  0.6708 -0.6780  0.6807
 1312TIP3    H125427   3.964   6.067   0.354  0.7541 -1.3777  1.0183
 1312TIP3    H225428   4.098   6.134   0.372  0.2640 -0.1772  0.3032
 1313TIP3   OH225429   5.680   1.672  12.847 -0.1473 -0.1245 -0.5299
 1313TIP3    H125430   5.608   1.720  12.806  0.3478  0.3344 -0.8883
 1313TIP3    H225431   5.730   1.740  12.893 -0.8905 -0.6828  1.1558
 1314TIP3   OH225432   2.325   2.797  15.136  0.4394 -0.4611  0.2726
 1314TIP3    H125433   2.242   2.815  15.179  1.0702 -0.1462  1.4012
 1314TIP3    H225434   2.301   2.767  15.048 -0.7658  3.5470 -0.9645
 1315TIP3   OH225435   2.338   4.307  14.253  0.1806  0.4664  0.5184
 1315TIP3    H125436   2.394   4.296  14.330  1.3180  2.6407  0.0950
 1315TIP3    H225437   2.396   4.345  14.187 -0.9419 -0.6896 -1.2047
 1316TIP3   OH225438   2.333   3.294   2.462  0.0401  0.1321  0.0270
 1316TIP3    H125439   2.423   3.262   2.457  0.4710  1.4114 -0.8133
 1316TIP3    H225440   2.296   3.273   2.376 -0.7639 -1.1714  0.6593
 1317TIP3   OH225441   1.281   5.969  11.888  0.2505  0.2169  0.5726
 1317TIP3    H125442   1.264   5.970  11.982 -0.8747 -0.7169  0.3978
 1317TIP3    H225443   1.250   6.055  11.858 -2.4351 -0.6543  0.5975
 1318TIP3   OH225444   1.417   6.449  16.828  0.3732 -0.6150  0.5921
 1318TIP3    H125445   1.436   6.367  16.874  0.5032 -0.0456  1.5784
 1318TIP3    H225446   1.365   6.499  16.890  0.8365  0.3125  0.2417
 1319TIP3   OH225447   4.943   0.050  11.709 -0.4083 -0.3173  0.4782
 1319TIP3    H125448   4.970   0.034  11.799 -0.5024 -0.1538  0.5360
 1319TIP3    H225449   4.851   0.025  11.707  0.4815 -4.1305 -0.5255
 1320TIP3   OH225450   0.026   0.631   4.222 -0.3293  0.2622 -0.5610
 1320TIP3    H125451   0.015   0.725   4.210 -0.6574  0.1973 -0.7978
 1320TIP3    H225452   0.086   0.623   4.296 -1.7739  0.6498  0.7064
 1321TIP3   OH225453   5.013   1.600  15.305 -0.7660 -0.8515 -0.3738
 1321TIP3    H125454   5.007   1.504  15.311  1.4387 -1.0588 -0.7350
 1321TIP3    H225455   5.053   1.627  15.387  2.1191 -0.7075 -1.6886
 1322TIP3   OH225456   1.264   5.572   0.880  0.2225 -0.8893  0.1703
 1322TIP3    H125457   1.245   5.479   0.898 -0.8219 -0.6749  0.2517
 1322TIP3    H225458   1.268   5.613   0.966  0.2688 -0.7893  0.1202
 1323TIP3   OH225459   0.758   2.858  16.202 -0.3617 -0.1492 -0.2291
 1323TIP3    H125460   0.710   2.929  16.159  1.2511  1.6884  0.8631
 1323TIP3    H225461   0.730   2.779  16.155 -3.4544  0.9373 -0.4378
 1324TIP3   OH225462   6.058   0.808  14.873  0.4066 -0.2870 -0.1061
 1324TIP3    H125463   6.002   0.818  14.796 -0.0455 -1.4646  0.0522
 1324TIP3    H225464   6.025   0.729  14.917  0.9273  0.1229  1.0646
 1325TIP3   OH225465   0.493   6.734   3.860  0.4274 -0.1141  0.0101
 1325TIP3    H125466   0.413   6.786   3.865  0.2609 -0.2888 -0.7052
 1325TIP3    H225467   0.534   6.760   3.778  1.4434  0.4309  0.6598
 1326TIP3   OH225468   0.897   5.447  15.043  0.0428 -0.0390  0.3050
 1326TIP3    H125469   0.861   5.481  14.961  0.7913 -0.7780 -0.3461
 1326TIP3    H225470   0.986   5.482  15.047  0.8251 -1.8052 -0.3703
 1327TIP3   OH225471   1.433   4.115   6.835  0.6386 -0.1539  0.0781
 1327TIP3    H125472   1.432   4.204   6.799  0.7694  0.2775  1.1082
 1327TIP3    H225473   1.344   4.083   6.823  0.9618 -0.4873 -1.7038
 1328TIP3   OH225474   5.060   3.168   5.533  0.0096  0.0199 -0.3266
 1328TIP3    H125475   5.083   3.185   5.624  0.0814  1.1011 -0.5319
 1328TIP3    H225476   4.976   3.210   5.521 -0.3434 -0.7359 -0.5832
 1329TIP3   OH225477   3.366   0.422  13.978 -0.3552  0.4971 -0.4186
 1329TIP3    H125478   3.295   0.392  14.035 -0.1930  1.6616  0.4386
 1329TIP3    H225479   3.432   0.353  13.983 -1.0219 -0.1517 -0.4617
 1330TIP3   OH225480   6.753   0.773  16.928  0.1895 -0.0860 -0.2671
 1330TIP3    H125481   6.838   0.729  16.925  0.0374 -0.5310  1.3335
 1330TIP3    H225482   6.774   0.865  16.912  0.8978 -0.2656 -0.4130
 1331TIP3   OH225483   4.841   1.870   3.511 -0.3295 -0.1780  0.4085
 1331TIP3    H125484   4.869   1.786   3.476 -2.4821 -0.0133 -2.0140
 1331TIP3    H225485   4.745   1.864   3.514 -0.5334  2.1110  0.3449
 1332TIP3   OH225486   0.253   6.676   6.241 -0.3123  0.5306 -0.4442
 1332TIP3    H125487   0.340   6.697   6.206  0.4663 -0.6072  0.7013
 1332TIP3    H225488   0.209   6.761   6.249  1.7157  1.5128  1.5532
 1333TIP3   OH225489   6.159   4.547   2.154 -0.3083  0.3706  0.2891
 1333TIP3    H125490   6.093   4.493   2.110  0.6406 -0.5665 -0.0186
 1333TIP3    H225491   6.193   4.604   2.085 -0.8154  0.8933  0.4603
 1334TIP3   OH225492   3.399   3.714   4.034  0.2048 -0.2817  0.3940
 1334TIP3    H125493   3.384   3.709   4.128 -0.2599 -1.2345  0.2775
 1334TIP3    H225494   3.492   3.693   4.023  1.0044  2.4997  0.8370
 1335TIP3   OH225495   1.017   4.928  11.404 -0.0385  0.0341  0.4553
 1335TIP3    H125496   0.968   5.009  11.395 -0.0539 -0.0814 -0.5369
 1335TIP3    H225497   0.973   4.881  11.475  0.2313  1.0676  1.3332
 1336TIP3   OH225498   4.404   6.089  13.497  0.4328 -0.1717  0.2304
 1336TIP3    H125499   4.375   6.172  13.534  0.0487 -0.8102  1.3981
 1336TIP3    H225500   4.343   6.024  13.531 -0.9860 -0.6130 -2.8266
 1337TIP3   OH225501   6.667   2.019   0.440  0.4415 -0.0341 -0.0255
 1337TIP3    H125502   6.656   1.944   0.497  0.4390 -0.2554 -0.3120
 1337TIP3    H225503   6.578   2.050   0.423  0.4634  0.2592  0.3854
 1338TIP3   OH225504   0.231   3.598   1.775 -0.2151  0.1946 -0.3735
 1338TIP3    H125505   0.205   3.520   1.726 -0.8632  0.4685 -0.4791
 1338TIP3    H225506   0.243   3.665   1.708  1.8047 -0.1681 -0.4397
 1339TIP3   OH225507   6.060   1.532   4.896  0.2326 -0.1446  0.1952
 1339TIP3    H125508   6.067   1.449   4.849 -1.2609 -0.6008  0.7313
 1339TIP3    H225509   6.050   1.598   4.828  1.5099 -0.3727 -0.2410
 1340TIP3   OH225510   4.901   3.670  13.829 -0.2470  0.3066 -0.3059
 1340TIP3    H125511   4.919   3.650  13.737 -2.1915 -1.3470 -0.4041
 1340TIP3    H225512   4.914   3.587  13.875 -0.2346  0.8763  0.7508
 1341TIP3   OH225513   5.618   2.142  10.310  0.3076 -0.1471 -0.4067
 1341TIP3    H125514   5.667   2.141  10.392 -0.2007 -0.7583 -0.1029
 1341TIP3    H225515   5.630   2.053  10.275 -1.1697 -0.5467  0.0336
 1342TIP3   OH225516   1.528   3.353  17.072 -0.5866  0.3316 -0.1299
 1342TIP3    H125517   1.541   3.387  17.160 -3.0977  0.3726  0.2889
 1342TIP3    H225518   1.495   3.264  17.084 -0.6426  0.2150 -1.0372
 1343TIP3   OH225519   1.070   2.424  12.289  0.0355 -0.8720 -0.4126
 1343TIP3    H125520   0.986   2.404  12.331 -0.4292 -1.0571 -1.3993
 1343TIP3    H225521   1.121   2.469  12.356 -0.9118 -0.6354  0.1576
 1344TIP3   OH225522   3.488   4.933   4.477 -0.1502 -0.0861  0.0700
 1344TIP3    H125523   3.496   4.940   4.382 -0.7956  0.4149  0.0509
 1344TIP3    H225524   3.560   4.874   4.502 -1.2636 -1.9802 -0.9507
 1345TIP3   OH225525   2.957   2.756  17.196  0.0897  0.0746 -0.0999
 1345TIP3    H125526   2.866   2.736  17.220  0.2724  1.4385  1.9943
 1345TIP3    H225527   2.956   2.850  17.176  1.2203  0.3515  1.0532
 1346TIP3   OH225528   6.639   4.025  13.497  0.1430  0.5301 -0.2605
 1346TIP3    H125529   6.576   4.097  13.498 -1.9490 -1.1539 -1.1379
 1346TIP3    H225530   6.591   3.952  13.536  3.1254  0.1876  3.3233
 1347TIP3   OH225531   5.439   4.940   3.736 -0.5819  0.1322 -0.1652
 1347TIP3    H125532   5.354   4.956   3.695 -0.2232  0.3621 -0.8435
 1347TIP3    H225533   5.446   5.007   3.804 -1.6569 -0.9219  1.0504
 1348TIP3   OH225534   4.844   2.688   5.183  0.6710  0.6661  0.3341
 1348TIP3    H125535   4.870   2.676   5.092 -0.9337  2.0455 -0.3678
 1348TIP3    H225536   4.790   2.612   5.203  0.0789  0.9190 -0.2661
 1349TIP3   OH225537   3.968   4.329   4.098  0.1861 -0.4391  0.0148
 1349TIP3    H125538   4.004   4.403   4.147  0.5259 -1.4446  1.3280
 1349TIP3    H225539   4.045   4.279   4.070 -0.0239 -0.1510 -1.1553
 1350TIP3   OH225540   5.750   6.019   4.689  0.5013 -0.2118 -0.0837
 1350TIP3    H125541   5.739   6.065   4.772 -1.2727 -0.4652 -0.1344
 1350TIP3    H225542   5.748   5.926   4.713  0.9314 -0.2766 -0.3009
 1351TIP3   OH225543   0.931   0.015  12.889 -0.2556 -0.7332 -0.1044
 1351TIP3    H125544   0.886   0.021  12.805 -0.8402 -2.0871  0.0785
 1351TIP3    H225545   0.932  -0.079  12.909 -2.0231 -0.3394  2.3555
 1352TIP3   OH225546   0.198   5.936  10.944  0.0339 -0.0512 -0.1647
 1352TIP3    H125547   0.185   5.952  11.037  0.2842 -3.0438  0.5101
 1352TIP3    H225548   0.283   5.975  10.924  0.1023  0.3872  0.9439
 1353TIP3   OH225549   5.892   0.729   4.053  0.8757  0.1493  0.2184
 1353TIP3    H125550   5.950   0.655   4.032 -1.0734 -1.5379  0.4483
 1353TIP3    H225551   5.899   0.787   3.977  1.2316 -1.0928 -0.7410
 1354TIP3   OH225552   0.225   4.911  15.867 -1.0537  0.3640  0.5443
 1354TIP3    H125553   0.173   4.983  15.831 -0.6017  0.5536  0.2606
 1354TIP3    H225554   0.202   4.909  15.960 -0.8848  1.0376  0.6041
 1355TIP3   OH225555   6.778   2.344   4.435 -0.0659 -0.0919 -0.0523
 1355TIP3    H125556   6.805   2.403   4.505  0.4688 -1.5544  1.0338
 1355TIP3    H225557   6.687   2.321   4.456  0.0791 -0.4928  0.1565
 1356TIP3   OH225558   3.192   1.039  15.763 -0.1386 -0.3436 -0.3149
 1356TIP3    H125559   3.201   0.945  15.774  0.6121 -0.1324  1.1775
 1356TIP3    H225560   3.115   1.050  15.708 -1.5869 -1.7686  1.3418
 1357TIP3   OH225561   4.848   4.237  14.629 -0.0877  0.1693  0.5786
 1357TIP3    H125562   4.932   4.256  14.671  0.0427 -1.8002  1.3280
 1357TIP3    H225563   4.858   4.149  14.595 -1.7676 -0.0067  0.4554
 1358TIP3   OH225564   2.719   1.639   3.905 -0.3524  1.0874  0.3567
 1358TIP3    H125565   2.740   1.628   3.997 -0.4196  0.8652  0.3457
 1358TIP3    H225566   2.762   1.565   3.862  0.9700  2.0160  0.0197
 1359TIP3   OH225567   6.353   2.776   0.400 -0.1283  0.8866 -0.2553
 1359TIP3    H125568   6.430   2.721   0.387  0.0257  0.3264  2.5460
 1359TIP3    H225569   6.280   2.723   0.368  0.2799  0.0362  0.1960
 1360TIP3   OH225570   3.835   4.132  15.524  0.5158 -0.9689  0.2843
 1360TIP3    H125571   3.864   4.127  15.615  0.7394 -0.0533  0.2705
 1360TIP3    H225572   3.914   4.121  15.473  0.7746  0.8906  0.2392
 1361TIP3   OH225573   6.818   3.915  16.412 -0.1328  0.3239 -0.3807
 1361TIP3    H125574   6.851   3.882  16.329 -1.0817  1.3298 -1.1985
 1361TIP3    H225575   6.880   3.884  16.477  0.9428 -0.0216 -1.5315
 1362TIP3   OH225576   0.740   1.166  14.242  0.0471  0.2783 -0.2244
 1362TIP3    H125577   0.716   1.178  14.150  0.2441  0.5023 -0.2470
 1362TIP3    H225578   0.751   1.072  14.251 -0.1979  0.2331 -0.3737
 1363TIP3   OH225579   3.475   5.132   1.887 -0.2827 -0.5518 -0.1436
 1363TIP3    H125580   3.519   5.049   1.868 -0.2728 -0.4857 -0.4082
 1363TIP3    H225581   3.390   5.125   1.845 -0.0195 -0.1556 -0.7644
 1364TIP3   OH225582   6.713   5.214  14.825  0.4760 -0.0287 -0.2117
 1364TIP3    H125583   6.797   5.191  14.864  0.2965 -1.0255 -0.3897
 1364TIP3    H225584   6.650   5.156  14.867 -0.1114  0.6146 -0.1816
 1365TIP3   OH225585   6.693   0.273   5.793 -0.6082 -0.5308 -0.2639
 1365TIP3    H125586   6.633   0.313   5.857  1.2065  0.7392  0.7159
 1365TIP3    H225587   6.670   0.315   5.710 -1.8617 -0.9569 -0.1609
 1366TIP3   OH225588   0.914   1.130  13.956 -0.7614 -0.3360  0.2108
 1366TIP3    H125589   0.892   1.037  13.958 -1.5634 -0.1689 -0.4749
 1366TIP3    H225590   0.831   1.174  13.939 -0.5015  0.5589  1.1739
 1367TIP3   OH225591   0.843   6.395   4.117 -0.5881  0.1855 -0.3201
 1367TIP3    H125592   0.792   6.441   4.050 -1.0975  1.2142  0.7462
 1367TIP3    H225593   0.912   6.456   4.141  1.9278 -1.5539 -2.4765
 1368TIP3   OH225594   1.430   5.142   0.609  0.0410  0.4729  0.3799
 1368TIP3    H125595   1.508   5.197   0.602  0.5371 -0.0859  1.3718
 1368TIP3    H225596   1.433   5.085   0.532  1.6056 -0.7933  1.3173
 1369TIP3   OH225597   1.154   4.915  17.136  0.3481 -0.1281 -0.1334
 1369TIP3    H125598   1.240   4.915  17.093 -0.0340 -1.5476 -0.9845
 1369TIP3    H225599   1.173   4.903  17.229  1.0859 -0.0397 -0.2667
 1370TIP3   OH225600   1.215   4.539  17.082  0.0532  0.3555  0.0832
 1370TIP3    H125601   1.267   4.585  17.016 -2.6398  0.8179 -1.8666
 1370TIP3    H225602   1.125   4.568  17.067 -1.5057 -3.6449  0.3277
 1371TIP3   OH225603   0.320   3.408   4.111 -0.2430  0.7339  0.6210
 1371TIP3    H125604   0.226   3.403   4.094 -0.2648  1.1344  0.6221
 1371TIP3    H225605   0.332   3.357   4.191 -0.4483  0.6293  0.5874
 1372TIP3   OH225606   0.382   0.273  11.022  0.2017  0.1468  0.6913
 1372TIP3    H125607   0.430   0.271  10.938 -1.9351  1.1068 -0.6328
 1372TIP3    H225608   0.307   0.216  11.007 -0.1607  0.2548  2.0337
 1373TIP3   OH225609   1.478   3.368  13.879 -0.0686  0.0198 -0.1892
 1373TIP3    H125610   1.460   3.425  13.804 -0.2808 -0.3285 -0.4076
 1373TIP3    H225611   1.448   3.417  13.955 -1.7140 -0.4338 -0.5099
 1374TIP3   OH225612   5.506   3.745   2.232 -0.3690  0.0616 -0.3562
 1374TIP3    H125613   5.545   3.827   2.261 -1.0256  0.6866 -1.1960
 1374TIP3    H225614   5.425   3.771   2.189 -0.9627 -1.0957  0.0431
 1375TIP3   OH225615   4.290   6.616   6.798 -0.0190 -0.1946 -0.3332
 1375TIP3    H125616   4.202   6.585   6.777 -0.1006 -0.2347  0.0543
 1375TIP3    H225617   4.281   6.711   6.807  0.1587 -0.0956 -1.1687
 1376TIP3   OH225618   6.796   5.099  11.549  0.2457 -0.0631 -1.0628
 1376TIP3    H125619   6.708   5.072  11.525 -0.5080  0.2618  1.1366
 1376TIP3    H225620   6.786   5.190  11.579  0.6481 -0.9476  2.1938
 1377TIP3   OH225621   1.278   3.826  16.301  0.2446 -0.1503  0.9037
 1377TIP3    H125622   1.254   3.877  16.379  0.2701  0.9623  0.1979
 1377TIP3    H225623   1.359   3.866  16.270  0.9930 -1.4639  1.0752
 1378TIP3   OH225624   4.292   2.889  16.260 -1.0361  0.0268 -0.3103
 1378TIP3    H125625   4.204   2.910  16.229  0.4764  1.5161 -4.3083
 1378TIP3    H225626   4.316   2.963  16.316 -0.5166  2.7389 -3.7560
 1379TIP3   OH225627   0.516   2.187  12.406  1.1037 -0.2934  0.1530
 1379TIP3    H125628   0.563   2.158  12.328 -0.7732  0.1728 -1.2219
 1379TIP3    H225629   0.433   2.139  12.404  0.4767  0.6789  1.1416
 1380TIP3   OH225630   1.339   2.318  12.124 -0.0142  0.2313 -0.6166
 1380TIP3    H125631   1.284   2.396  12.128  0.6592  0.7298 -0.8982
 1380TIP3    H225632   1.286   2.253  12.078 -1.0307  0.1295  0.6306
 1381TIP3   OH225633   6.653   5.569  15.974 -0.1732 -0.1947  0.0087
 1381TIP3    H125634   6.641   5.474  15.973  0.2800 -0.2476 -0.7207
 1381TIP3    H225635   6.615   5.599  15.892  1.4818  0.0275 -0.6986
 1382TIP3   OH225636   1.213   2.923   3.989  0.1413 -0.0749 -0.4587
 1382TIP3    H125637   1.219   2.978   3.911  1.5012 -0.8185 -0.9031
 1382TIP3    H225638   1.149   2.969   4.045 -0.2518  0.8887 -1.6418
 1383TIP3   OH225639   1.581   1.167  10.529 -0.3665 -0.7203 -0.7433
 1383TIP3    H125640   1.634   1.240  10.561 -0.6088 -0.0807 -1.7736
 1383TIP3    H225641   1.554   1.121  10.609 -0.2642  0.3443 -0.0706
 1384TIP3   OH225642   2.742   5.395  11.659  0.1503  0.4560 -0.2138
 1384TIP3    H125643   2.751   5.468  11.720  2.4884 -0.6279  0.8746
 1384TIP3    H225644   2.695   5.433  11.584 -1.0598  2.3376  1.3899
 1385TIP3   OH225645   4.748   0.079   0.430  0.7027 -0.6275 -0.3280
 1385TIP3    H125646   4.809   0.116   0.367  1.9954 -1.2656  0.5016
 1385TIP3    H225647   4.757   0.134   0.508 -0.1680 -0.4195 -0.3649
 1386TIP3   OH225648   0.702   1.365   0.351  0.9746 -0.5565 -0.0228
 1386TIP3    H125649   0.795   1.352   0.371  1.3958 -0.8160 -1.8917
 1386TIP3    H225650   0.688   1.459   0.357  1.3797 -0.5105  0.1864
 1387TIP3   OH225651   5.393   2.851  11.910 -0.4652 -0.4369  0.6124
 1387TIP3    H125652   5.471   2.800  11.887  1.2854  2.6286 -0.7810
 1387TIP3    H225653   5.345   2.860  11.828 -0.8507  0.0197  0.8846
 1388TIP3   OH225654   4.243   1.229   2.124 -0.1894  0.0325  0.3571
 1388TIP3    H125655   4.150   1.210   2.128 -0.3788  0.1046 -2.2857
 1388TIP3    H225656   4.286   1.144   2.126 -0.3815 -0.0626  0.3813
 1389TIP3   OH225657   6.548   0.761  16.005  0.0954 -0.3385  0.2919
 1389TIP3    H125658   6.528   0.668  16.015  0.8927 -0.5479  0.0025
 1389TIP3    H225659   6.639   0.769  16.034 -0.7205  0.8153  2.9023
 1390TIP3   OH225660   3.583   6.242  11.152 -0.3458 -0.3172 -0.2173
 1390TIP3    H125661   3.625   6.327  11.140 -3.1559  1.0669 -1.1811
 1390TIP3    H225662   3.538   6.249  11.236 -2.0429 -0.1097 -1.1033
 1391TIP3   OH225663   1.315   1.293  13.595 -0.2178  0.4847  0.0215
 1391TIP3    H125664   1.258   1.245  13.655  0.8780 -0.0721  0.6410
 1391TIP3    H225665   1.352   1.225  13.538  0.8937  0.6382  0.5341
 1392TIP3   OH225666   0.557   2.288   2.436 -0.0328 -0.2075 -0.2047
 1392TIP3    H125667   0.584   2.347   2.365  1.5651 -1.8911 -1.0833
 1392TIP3    H225668   0.593   2.203   2.411 -1.2890 -1.3249  1.5886
 1393TIP3   OH225669   1.635   4.274  17.181  0.3374 -0.0084 -0.3124
 1393TIP3    H125670   1.636   4.197  17.238  1.1648  0.6491  0.5819
 1393TIP3    H225671   1.557   4.262  17.127  1.0132 -2.0224 -0.9570
 1394TIP3   OH225672   0.492   4.712   4.198  0.1301 -0.0593  0.6597
 1394TIP3    H125673   0.516   4.621   4.181 -1.5313 -0.3078 -0.6001
 1394TIP3    H225674   0.541   4.762   4.133 -1.0468 -0.3602 -0.5051
 1395TIP3   OH225675   1.313   2.919   6.235  0.0089 -1.0742 -0.4099
 1395TIP3    H125676   1.291   2.871   6.315 -1.7208 -0.8459 -0.7071
 1395TIP3    H225677   1.312   2.853   6.166  0.6164 -1.1124 -0.3898
 1396TIP3   OH225678   1.887   2.199   2.877 -0.2435 -0.1374  0.2259
 1396TIP3    H125679   1.944   2.122   2.878 -0.3810 -0.3056 -1.4249
 1396TIP3    H225680   1.821   2.181   2.944 -0.0607 -1.3003  0.1138
 1397TIP3   OH225681   0.201   2.081   1.468  0.5189 -0.0944 -0.2003
 1397TIP3    H125682   0.126   2.139   1.450 -0.4204 -1.2700 -0.1804
 1397TIP3    H225683   0.262   2.098   1.397 -1.4350 -1.8393 -2.4592
 1398TIP3   OH225684   1.896   0.303  11.173 -0.0734  0.1720  0.1343
 1398TIP3    H125685   1.848   0.224  11.148  1.4925 -0.6710 -0.3296
 1398TIP3    H225686   1.892   0.360  11.096 -0.7009  0.3174  0.2653
 1399TIP3   OH225687   1.225   3.498   5.916 -0.5850 -0.4805  0.8139
 1399TIP3    H125688   1.289   3.487   5.847 -2.0622 -2.7074 -0.3204
 1399TIP3    H225689   1.250   3.579   5.960  2.1870 -0.5972 -0.3708
 1400TIP3   OH225690   2.915   4.727  13.231  0.6507  0.4830  0.5768
 1400TIP3    H125691   2.930   4.673  13.153  1.0701  0.7621  0.4577
 1400TIP3    H225692   2.841   4.686  13.275 -0.2419  0.8949 -0.4949
 1401TIP3   OH225693   4.895   0.835   2.969 -0.1266  0.1270  0.1416
 1401TIP3    H125694   4.926   0.860   3.056 -1.3485 -0.0379  0.6523
 1401TIP3    H225695   4.838   0.908   2.942  1.3594  0.8576 -1.1632
 1402TIP3   OH225696   2.824   6.781  13.650  0.1916 -0.4607 -0.0486
 1402TIP3    H125697   2.781   6.821  13.725 -0.6310  2.7637 -2.0406
 1402TIP3    H225698   2.753   6.737  13.603  0.6969 -2.4354  0.9366
 1403TIP3   OH225699   6.226   5.866  16.714  0.6022  0.0240 -0.4280
 1403TIP3    H125700   6.256   5.956  16.727  2.4814 -0.6180  0.0394
 1403TIP3    H225701   6.293   5.827  16.657 -2.4391  0.0638 -4.4883
 1404TIP3   OH225702   2.598   5.518   5.278 -0.3906 -0.1869 -0.4019
 1404TIP3    H125703   2.596   5.501   5.184  1.7407 -0.4719 -0.4451
 1404TIP3    H225704   2.664   5.457   5.312 -0.9516  0.0711  1.2597
 1405TIP3   OH225705   0.837   1.093  11.654 -0.4721 -0.5256 -0.2322
 1405TIP3    H125706   0.764   1.122  11.709  0.3643 -0.5414  0.9328
 1405TIP3    H225707   0.904   1.066  11.717  0.4476 -0.7276 -1.2784
 1406TIP3   OH225708   3.557   1.702  13.753  0.7296  0.5042  0.2398
 1406TIP3    H125709   3.488   1.679  13.816 -0.4351 -1.2625 -1.5223
 1406TIP3    H225710   3.516   1.767  13.696  0.3306 -0.7697 -0.9968
 1407TIP3   OH225711   2.628   1.425  15.680  0.2580 -0.0360 -0.5091
 1407TIP3    H125712   2.677   1.350  15.713 -0.8247 -0.5187  0.0555
 1407TIP3    H225713   2.589   1.465  15.758  0.5714  0.9391 -0.8353
 1408TIP3   OH225714   1.524   1.737  13.007  0.2056  0.5178 -0.4477
 1408TIP3    H125715   1.456   1.768  12.948 -0.0974 -2.5686 -1.8896
 1408TIP3    H225716   1.478   1.682  13.071  0.8307  2.0018  1.3712
 1409TIP3   OH225717   0.077   0.017   2.457 -1.1798 -0.2632  0.2789
 1409TIP3    H125718   0.158  -0.014   2.416 -2.0135 -0.1377 -1.5845
 1409TIP3    H225719   0.106   0.061   2.537  0.5637 -0.4829 -0.1837
 1410TIP3   OH225720   6.697   2.361   2.267 -0.4701 -0.4224 -0.4204
 1410TIP3    H125721   6.620   2.324   2.309 -1.7077 -0.1171 -2.3218
 1410TIP3    H225722   6.688   2.456   2.281 -0.8578 -0.3247 -1.2790
 1411TIP3   OH225723   3.752   3.206  13.491 -0.2365 -0.0549  0.2645
 1411TIP3    H125724   3.844   3.228  13.481  0.0159  0.0836  2.4220
 1411TIP3    H225725   3.746   3.115  13.461  0.4585  0.1217 -0.4494
 1412TIP3   OH225726   5.411   5.554  13.235 -0.5754  0.0930 -0.2018
 1412TIP3    H125727   5.496   5.543  13.193 -0.9115 -0.7248 -0.6808
 1412TIP3    H225728   5.401   5.649  13.244 -0.6736  0.3193 -2.3482
 1413TIP3   OH225729   3.619   1.931  16.233  0.0848 -0.0254 -0.1056
 1413TIP3    H125730   3.698   1.876  16.229 -1.0791 -1.9506  1.4737
 1413TIP3    H225731   3.561   1.893  16.167 -0.3333 -0.0240  0.2607
 1414TIP3   OH225732   4.866   3.049  13.478 -0.0208  0.0494 -0.5010
 1414TIP3    H125733   4.931   3.080  13.541  2.6467 -2.8533 -1.5859
 1414TIP3    H225734   4.911   3.049  13.394 -2.2284  0.1477 -1.7806
 1415TIP3   OH225735   6.651   0.934   2.518 -0.8182 -0.6143  0.2408
 1415TIP3    H125736   6.673   0.982   2.439  0.8527 -1.2659  0.2752
 1415TIP3    H225737   6.567   0.971   2.546 -1.7143 -0.7073 -2.0839
 1416TIP3   OH225738   2.849   3.053  14.815  0.6046 -0.0257  0.8056
 1416TIP3    H125739   2.856   3.023  14.906 -1.3992  0.5593  1.2199
 1416TIP3    H225740   2.754   3.054  14.798  0.9017  0.6449 -1.0281
 1417TIP3   OH225741   1.870   5.194   0.878  0.0909 -0.2535 -0.0695
 1417TIP3    H125742   1.824   5.210   0.961  1.6464 -1.1201  1.0025
 1417TIP3    H225743   1.953   5.241   0.887  0.5139 -0.8140 -0.9123
 1418TIP3   OH225744   3.143   2.709  14.566  0.2711  0.1816 -0.5462
 1418TIP3    H125745   3.171   2.622  14.595  1.5788  0.5990 -0.4646
 1418TIP3    H225746   3.097   2.746  14.641  0.4814 -0.1195 -0.2662
 1419TIP3   OH225747   1.199   1.774  13.091 -0.1887 -0.6399  0.0628
 1419TIP3    H125748   1.149   1.699  13.058 -0.2274 -0.2049 -0.9086
 1419TIP3    H225749   1.255   1.800  13.017  1.1749 -0.8495  0.9863
 1420TIP3   OH225750   3.673   2.370   3.634 -0.4236  0.0716  0.5667
 1420TIP3    H125751   3.702   2.348   3.722 -0.8944 -0.5635  0.5768
 1420TIP3    H225752   3.588   2.325   3.625 -1.3468  1.7433  0.5029
 1421TIP3   OH225753   4.456   2.004  13.256 -0.1829 -0.1510 -0.1374
 1421TIP3    H125754   4.547   2.029  13.243 -0.4888  0.9402 -0.3007
 1421TIP3    H225755   4.449   1.917  13.218  0.6862 -0.0607 -0.5201
 1422TIP3   OH225756   6.701   3.978  13.222  0.4606  0.1856  0.1189
 1422TIP3    H125757   6.682   3.977  13.316  0.6624  0.2864  0.1598
 1422TIP3    H225758   6.617   3.999  13.181  0.6299  1.3488  0.3444
 1423TIP3   OH225759   5.286   6.804   3.653  0.0170 -0.1869 -0.3119
 1423TIP3    H125760   5.279   6.776   3.744  0.4799  0.3237 -0.1160
 1423TIP3    H225761   5.235   6.886   3.649  0.7070  0.2478 -0.3076
 1424TIP3   OH225762   4.828   5.611  12.063  0.6850 -0.7485 -0.3173
 1424TIP3    H125763   4.738   5.613  12.096  1.2409 -0.2370  1.2460
 1424TIP3    H225764   4.845   5.700  12.032  1.1970 -0.3687  0.9934
 1425TIP3   OH225765   2.383   2.451  14.446  0.0985 -0.6617  0.2715
 1425TIP3    H125766   2.414   2.431  14.357  0.4779  0.4460  0.1345
 1425TIP3    H225767   2.456   2.424  14.502  0.9738  1.0233  0.0227
 1426TIP3   OH225768   5.887   4.525   0.729  0.7072  0.2135  0.1874
 1426TIP3    H125769   5.877   4.445   0.781 -0.0464 -0.3993 -0.8737
 1426TIP3    H225770   5.894   4.494   0.639  1.1272  1.3161 -0.1734
 1427TIP3   OH225771   5.321   5.383   0.008  0.4951  0.0155  0.0448
 1427TIP3    H125772   5.372   5.318  -0.041  2.5057  1.4930  0.0517
 1427TIP3    H225773   5.385   5.430   0.061 -1.1410  0.8594  1.3909
 1428TIP3   OH225774   1.434   5.784  14.814  0.1214 -0.5694  0.0720
 1428TIP3    H125775   1.345   5.797  14.782  0.1669 -1.1011 -0.2879
 1428TIP3    H225776   1.489   5.827  14.748  0.0985  0.6606  0.8140
 1429TIP3   OH225777   3.196   0.282  16.351  0.3518  0.2868  0.3850
 1429TIP3    H125778   3.223   0.301  16.261  0.1391  1.0237  0.4777
 1429TIP3    H225779   3.169   0.366  16.387  0.8109  0.0651  1.2737
 1430TIP3   OH225780   2.530   2.787  15.341  0.4194  0.0063 -0.5749
 1430TIP3    H125781   2.583   2.864  15.320 -0.4883  0.6677 -0.4824
 1430TIP3    H225782   2.472   2.777  15.267  1.4453 -1.4410 -1.2291
 1431TIP3   OH225783   2.756   2.274   5.980  0.7991 -0.0046  0.6688
 1431TIP3    H125784   2.721   2.263   6.069  0.8099 -2.6307  0.4362
 1431TIP3    H225785   2.696   2.336   5.939 -0.7115 -0.6182  1.8006
 1432TIP3   OH225786   3.790   4.657  13.099 -0.1307  0.3303  0.1173
 1432TIP3    H125787   3.884   4.638  13.107 -0.1879 -1.0863 -1.7884
 1432TIP3    H225788   3.785   4.752  13.093  1.3926  0.3780 -1.3482
 1433TIP3   OH225789   1.071   0.428   5.755  0.1709  0.2880  0.6885
 1433TIP3    H125790   1.087   0.410   5.847  0.6757 -3.7955  0.0062
 1433TIP3    H225791   0.980   0.402   5.740  0.6281 -0.9211 -0.2336
 1434TIP3   OH225792   2.917   4.693  16.515 -0.1602  0.1429 -0.1764
 1434TIP3    H125793   2.991   4.638  16.539  0.0854  1.1372  1.4555
 1434TIP3    H225794   2.889   4.659  16.429  0.1482 -2.3090  0.6110
 1435TIP3   OH225795   4.548   3.960  10.774  0.9476 -0.2647 -0.7474
 1435TIP3    H125796   4.635   4.001  10.770  0.7647  0.2948  0.6325
 1435TIP3    H225797   4.488   4.032  10.791  0.1430 -0.6025 -2.0203
 1436TIP3   OH225798   5.342   4.970   4.034  0.3556  0.3741  1.0319
 1436TIP3    H125799   5.365   4.879   4.057  1.1303  0.4613  0.6086
 1436TIP3    H225800   5.359   5.019   4.114 -1.2304 -0.0222  1.6634
 1437TIP3   OH225801   1.896   4.463  11.403 -0.9016  0.1667 -0.0110
 1437TIP3    H125802   1.880   4.529  11.335 -1.9255  0.1308  0.1709
 1437TIP3    H225803   1.874   4.380  11.361 -0.7946  0.0653  0.1317
 1438TIP3   OH225804   2.998   0.645  16.753  0.0416 -0.1521  0.7009
 1438TIP3    H125805   2.942   0.626  16.677  0.9243 -0.7049  0.1745
 1438TIP3    H225806   2.976   0.734  16.778  0.5028  0.4266 -0.8876
 1439TIP3   OH225807   0.697   5.330  12.767 -0.1677  0.6187  0.2604
 1439TIP3    H125808   0.684   5.332  12.862  1.6946 -0.7745  0.6167
 1439TIP3    H225809   0.689   5.237  12.745 -1.3835  1.0202 -1.1139
 1440TIP3   OH225810   1.255   6.358  13.655 -0.4127  0.2024 -0.3845
 1440TIP3    H125811   1.288   6.339  13.743  0.0415 -0.2508 -0.6422
 1440TIP3    H225812   1.334   6.360  13.601 -0.8925 -2.6359 -1.3375
 1441TIP3   OH225813   4.505   5.252   1.203 -0.3323 -0.0068  0.1658
 1441TIP3    H125814   4.415   5.259   1.232 -0.8655 -1.6217 -0.9431
 1441TIP3    H225815   4.551   5.210   1.276 -0.8080 -0.5369  0.1657
 1442TIP3   OH225816   4.533   1.863  11.574 -0.1370  0.2966 -0.7708
 1442TIP3    H125817   4.498   1.777  11.597 -1.0597  1.0721  0.9717
 1442TIP3    H225818   4.581   1.849  11.492  0.1710 -1.9614 -0.2739
 1443TIP3   OH225819   0.665   3.569  15.425 -0.5590 -0.2412 -0.6219
 1443TIP3    H125820   0.737   3.628  15.403 -0.4886 -0.7293 -1.7220
 1443TIP3    H225821   0.607   3.571  15.348 -0.8726 -1.1310 -0.4244
 1444TIP3   OH225822   4.511   0.479  12.328 -0.2058 -0.4593 -0.1569
 1444TIP3    H125823   4.549   0.449  12.246 -1.1299  0.5471 -0.9737
 1444TIP3    H225824   4.453   0.408  12.355 -1.3102 -0.0400 -1.3472
 1445TIP3   OH225825   2.434   3.284  12.422 -0.1277 -0.5295 -0.4236
 1445TIP3    H125826   2.360   3.320  12.470 -1.2401  0.0740 -2.4394
 1445TIP3    H225827   2.506   3.344  12.440 -1.1511  1.0673 -1.3091
 1446TIP3   OH225828   0.215   1.548   0.648  0.5123 -0.1207 -0.6539
 1446TIP3    H125829   0.140   1.490   0.665  1.5557 -1.0568  0.9500
 1446TIP3    H225830   0.282   1.490   0.611  1.6578 -0.0404  1.2015
 1447TIP3   OH225831   4.083   1.810   2.477  0.4124 -0.3205 -0.3790
 1447TIP3    H125832   4.024   1.819   2.551  0.6237  1.1809 -0.3692
 1447TIP3    H225833   4.030   1.834   2.401  0.7287  0.0815 -0.4777
 1448TIP3   OH225834   6.674   3.175  15.384  0.2659  0.0327  0.4569
 1448TIP3    H125835   6.742   3.185  15.450  0.1101 -0.7805  0.7511
 1448TIP3    H225836   6.721   3.157  15.302  0.4166 -0.3022  0.6150
 1449TIP3   OH225837   0.523   0.547   2.737  0.0621  0.4379  0.3907
 1449TIP3    H125838   0.613   0.578   2.730  1.0218 -1.5075  2.7508
 1449TIP3    H225839   0.491   0.545   2.647  1.6384  3.0960 -0.3374
 1450TIP3   OH225840   1.931   3.117   4.890  0.5209 -0.0373  0.0908
 1450TIP3    H125841   1.957   3.068   4.967 -1.2028 -0.0651  0.6910
 1450TIP3    H225842   1.837   3.105   4.884  0.5653  0.2359 -1.8436
 1451TIP3   OH225843   4.066   1.362   1.051 -0.0154  0.7044 -0.8391
 1451TIP3    H125844   3.987   1.405   1.083 -1.1808 -0.7338 -1.6754
 1451TIP3    H225845   4.105   1.425   0.990 -0.0003  1.7819  0.2496
 1452TIP3   OH225846   2.984   5.170  14.360 -0.4406  1.0331 -0.1743
 1452TIP3    H125847   2.920   5.179  14.289 -0.2041 -0.7107 -0.6709
 1452TIP3    H225848   3.026   5.255  14.366 -3.7930  2.7834  1.1933
 1453TIP3   OH225849   2.917   6.120  13.366  0.0566  0.0646  0.8594
 1453TIP3    H125850   2.970   6.192  13.399 -0.3754  1.5421 -1.3838
 1453TIP3    H225851   2.957   6.098  13.282 -1.8058  0.0650 -0.0823
 1454TIP3   OH225852   0.374   1.403   3.174 -0.3570 -0.3011  0.0091
 1454TIP3    H125853   0.304   1.379   3.114 -1.3067  0.2274  0.8849
 1454TIP3    H225854   0.336   1.395   3.261  0.1615  1.4820  0.4520
 1455TIP3   OH225855   4.625   1.034   6.481  0.0164  0.2609  0.1419
 1455TIP3    H125856   4.655   1.093   6.551 -1.4554  0.7126  0.4188
 1455TIP3    H225857   4.598   0.955   6.527  0.6927 -0.1218 -0.1040
 1456TIP3   OH225858   6.088   5.609   5.440  0.2766 -0.4787 -0.0283
 1456TIP3    H125859   6.100   5.542   5.372 -0.3551 -0.1543 -0.4719
 1456TIP3    H225860   5.995   5.602   5.464  0.6026 -0.9326  1.1768
 1457TIP3   OH225861   2.040   1.365  11.170 -0.5180  0.0233 -0.2942
 1457TIP3    H125862   2.128   1.381  11.136  0.9638 -1.1945  2.6066
 1457TIP3    H225863   1.983   1.376  11.094  2.0671  1.0736 -2.2644
 1458TIP3   OH225864   4.404   0.056  12.545 -0.1579 -0.0845 -0.3400
 1458TIP3    H125865   4.397  -0.038  12.558 -0.2471  0.0606  0.8271
 1458TIP3    H225866   4.316   0.089  12.564 -0.0313  0.2694 -0.3644
 1459TIP3   OH225867   4.178   3.053   0.336  0.2680  0.6795  0.1202
 1459TIP3    H125868   4.122   3.130   0.326 -0.7153  0.0671  0.7176
 1459TIP3    H225869   4.267   3.086   0.324 -0.2248  1.6446 -1.0086
 1460TIP3   OH225870   3.508   0.255   0.682  0.5202 -0.6975 -0.2180
 1460TIP3    H125871   3.419   0.240   0.714  0.9318  0.8520  1.8529
 1460TIP3    H225872   3.521   0.187   0.615 -2.3233 -0.6919 -0.9004
 1461TIP3   OH225873   6.192   1.380  14.544 -0.1446 -0.3213  0.3187
 1461TIP3    H125874   6.278   1.338  14.553  0.5730  0.6494 -1.4824
 1461TIP3    H225875   6.187   1.440  14.618  1.3450  0.5671 -0.2520
 1462TIP3   OH225876   5.029   0.095  16.586  0.0321 -0.0855  0.2503
 1462TIP3    H125877   5.092   0.023  16.588 -0.0821 -0.2108 -0.3764
 1462TIP3    H225878   5.078   0.171  16.615  0.3768 -0.2574  0.1241
 1463TIP3   OH225879   6.033   4.352  11.040 -0.4388 -0.2205 -0.4633
 1463TIP3    H125880   6.111   4.322  10.993 -1.3602 -1.0189 -1.5243
 1463TIP3    H225881   6.066   4.419  11.100  1.2250 -1.3212 -0.0931
 1464TIP3   OH225882   4.223   0.413  15.100  0.0887 -0.0716 -0.2429
 1464TIP3    H125883   4.142   0.370  15.074  1.2619 -1.9483 -1.0665
 1464TIP3    H225884   4.249   0.369  15.181 -0.1046  1.0847  0.4720
 1465TIP3   OH225885   2.173   2.669   3.948  0.2286  0.1607 -0.2984
 1465TIP3    H125886   2.090   2.684   3.902 -0.1459 -2.4275 -0.5858
 1465TIP3    H225887   2.157   2.591   4.000  2.2659  0.0889  0.2755
 1466TIP3   OH225888   1.101   3.242   2.783  0.0845  0.2464 -0.3183
 1466TIP3    H125889   1.007   3.226   2.794  0.1824  0.7727  1.6175
 1466TIP3    H225890   1.136   3.242   2.872  1.6273  1.7541 -0.8668
 1467TIP3   OH225891   0.310   1.022  13.282 -0.2877  0.2556  0.2555
 1467TIP3    H125892   0.270   1.100  13.318  0.3595  1.5431 -1.6513
 1467TIP3    H225893   0.324   1.042  13.189  0.8140 -1.7446 -0.0882
 1468TIP3   OH225894   1.979   0.668  16.204  0.3393 -0.4382  0.7349
 1468TIP3    H125895   1.913   0.736  16.215  2.8662  2.0787  1.6779
 1468TIP3    H225896   2.003   0.643  16.293  0.1847 -1.8472  0.3981
 1469TIP3   OH225897   2.132   2.237  12.303  0.3126  0.2184  0.7957
 1469TIP3    H125898   2.051   2.257  12.349 -1.6210  0.4474 -2.4181
 1469TIP3    H225899   2.114   2.156  12.255  1.3497  1.0994 -1.2147
 1470TIP3   OH225900   4.756   3.680  10.594  0.3087 -0.2786 -0.0120
 1470TIP3    H125901   4.775   3.679  10.500 -0.6693 -0.2289 -0.2145
 1470TIP3    H225902   4.804   3.756  10.627  0.9969 -0.5380 -0.3905
 1471TIP3   OH225903   0.342   0.884   2.648 -0.4751  0.5341 -0.5696
 1471TIP3    H125904   0.343   0.969   2.691  0.5585  1.1100 -1.6929
 1471TIP3    H225905   0.355   0.903   2.555 -1.7025 -0.7497 -1.0406
 1472TIP3   OH225906   3.680   2.145  13.487  0.2109  0.4423  0.1704
 1472TIP3    H125907   3.651   2.066  13.441  1.2098  0.8273 -1.1710
 1472TIP3    H225908   3.601   2.179  13.529 -0.1846 -1.4300  1.0557
 1473TIP3   OH225909   5.432   3.000   0.749  0.4218 -0.0175  0.0909
 1473TIP3    H125910   5.370   2.994   0.822 -0.3285 -0.9094 -0.5878
 1473TIP3    H225911   5.507   2.948   0.777  0.3501  0.0560  0.4280
 1474TIP3   OH225912   1.615   6.331   2.379  0.5448  0.5634  0.3234
 1474TIP3    H125913   1.682   6.397   2.394 -0.0648  1.1250  0.6495
 1474TIP3    H225914   1.534   6.372   2.410  0.1442 -0.3119  0.4698
 1475TIP3   OH225915   6.493   3.741  12.855  0.1309 -0.4942 -0.2816
 1475TIP3    H125916   6.508   3.697  12.939 -4.6496 -0.4397  0.9123
 1475TIP3    H225917   6.463   3.828  12.879 -1.3059 -0.4584 -2.0093
 1476TIP3   OH225918   1.417   6.717  14.039 -0.7873 -0.3660  0.1618
 1476TIP3    H125919   1.456   6.779  14.100 -1.5429  0.5054 -0.1984
 1476TIP3    H225920   1.444   6.749  13.953 -2.7212  0.6413 -0.1386
 1477TIP3   OH225921   4.824   5.639  15.339 -0.3818 -0.0733  0.3307
 1477TIP3    H125922   4.855   5.660  15.251  0.5775  1.9126  1.0693
 1477TIP3    H225923   4.732   5.666  15.338  0.1286  1.8504  0.4500
 1478TIP3   OH225924   2.766   0.363  15.245  0.2867  0.5784 -0.3085
 1478TIP3    H125925   2.730   0.404  15.167 -0.5198 -0.4375 -0.4834
 1478TIP3    H225926   2.712   0.395  15.317 -1.4145 -1.3478 -0.6274
 1479TIP3   OH225927   0.297   2.063   4.924  0.5510 -0.0967  0.1550
 1479TIP3    H125928   0.313   2.150   4.886 -3.1473  0.7289  0.0645
 1479TIP3    H225929   0.288   2.080   5.018  0.9121 -0.6027  0.2846
 1480TIP3   OH225930   1.742   3.951   4.827 -0.4391 -0.2202 -0.1668
 1480TIP3    H125931   1.753   3.882   4.892 -1.6340 -0.1763  0.0917
 1480TIP3    H225932   1.674   3.920   4.768  0.9027 -0.4409 -1.6926
 1481TIP3   OH225933   5.296   5.119   6.246  0.2073 -0.1053 -0.1112
 1481TIP3    H125934   5.276   5.040   6.196 -1.0285 -0.4067  0.8056
 1481TIP3    H225935   5.217   5.173   6.238  0.4033  0.3062  0.6077
 1482TIP3   OH225936   1.029   4.463   2.709  0.4541  0.2959 -0.3575
 1482TIP3    H125937   0.988   4.549   2.717  0.9994  0.5405 -0.1924
 1482TIP3    H225938   1.019   4.424   2.796 -1.6402 -0.6568 -0.9615
 1483TIP3   OH225939   4.915   6.179   4.527  0.0026 -0.0518  0.0946
 1483TIP3    H125940   4.990   6.144   4.479 -0.4813 -0.0237 -0.7101
 1483TIP3    H225941   4.875   6.242   4.467  1.0979  2.2825  1.6601
 1484TIP3   OH225942   5.870   6.100   1.202 -0.1094 -0.0384  0.5698
 1484TIP3    H125943   5.918   6.132   1.278 -0.2312  2.1070 -0.1939
 1484TIP3    H225944   5.792   6.154   1.197 -0.9896 -1.3130 -0.0981
 1485TIP3   OH225945   0.637   3.618   0.653 -0.0245 -0.3914 -0.2047
 1485TIP3    H125946   0.588   3.681   0.600 -0.9944 -1.0654 -0.1230
 1485TIP3    H225947   0.721   3.661   0.669 -1.5178  2.0185  1.9822
 1486TIP3   OH225948   4.903   6.555  16.838 -0.6641  0.3802  0.2255
 1486TIP3    H125949   4.947   6.631  16.877 -1.2061  0.9611 -0.2761
 1486TIP3    H225950   4.960   6.530  16.766 -1.0128  0.9770 -0.2677
 1487TIP3   OH225951   1.281   0.868  15.865  0.7873 -0.6009  0.5097
 1487TIP3    H125952   1.276   0.867  15.770 -1.2881  1.6412  0.4889
 1487TIP3    H225953   1.210   0.809  15.893  1.6165 -1.5303  0.7031
 1488TIP3   OH225954   0.449   5.550  17.010 -0.1741  0.3048  0.0733
 1488TIP3    H125955   0.514   5.480  16.997 -0.0976  0.3940 -0.0273
 1488TIP3    H225956   0.411   5.531  17.095  0.1739  0.4049  0.2552
 1489TIP3   OH225957   1.803   6.262  14.858  0.0192 -0.2968  0.3661
 1489TIP3    H125958   1.806   6.350  14.820  2.4471 -0.3648  0.2397
 1489TIP3    H225959   1.719   6.226  14.828 -0.7562  1.7268 -0.0836
 1490TIP3   OH225960   5.579   2.724   0.562 -0.4857  0.4453 -0.8170
 1490TIP3    H125961   5.581   2.754   0.653  0.7778 -0.6201 -0.4575
 1490TIP3    H225962   5.503   2.666   0.557 -0.8099  0.8442 -0.5621
 1491TIP3   OH225963   0.332   4.069  15.932 -0.4088 -0.2226  0.7467
 1491TIP3    H125964   0.293   4.103  16.012 -1.8874 -1.4036  0.5904
 1491TIP3    H225965   0.362   3.981  15.956  0.7344  0.0626  0.4288
 1492TIP3   OH225966   4.058   1.584   3.655  0.3645  0.0456 -0.0597
 1492TIP3    H125967   4.003   1.624   3.587 -0.6789 -1.9004 -0.4259
 1492TIP3    H225968   4.143   1.572   3.613 -0.4428 -1.7187 -1.3165
 1493TIP3   OH225969   4.543   2.833   3.617  0.1594  0.0308  0.3951
 1493TIP3    H125970   4.568   2.906   3.674 -0.9763 -0.4383  1.5661
 1493TIP3    H225971   4.518   2.874   3.534  0.1857  0.9066  0.8072
 1494TIP3   OH225972   4.634   1.060  12.860 -0.2189 -0.9378  0.0737
 1494TIP3    H125973   4.571   1.009  12.810  0.2649 -0.2526 -1.2802
 1494TIP3    H225974   4.589   1.142  12.880 -0.9556 -1.7952  2.1494
 1495TIP3   OH225975   0.871   3.706  15.804 -0.4412 -0.2450  0.5066
 1495TIP3    H125976   0.849   3.616  15.781 -0.8858 -0.3650  1.3903
 1495TIP3    H225977   0.828   3.722  15.888 -1.5230  1.2376 -0.2712
 1496TIP3   OH225978   5.935   5.003   6.336  0.1122  0.6085  0.1137
 1496TIP3    H125979   5.912   4.965   6.251  1.3414 -0.6795  0.3070
 1496TIP3    H225980   6.022   4.967   6.355  0.4494  1.9545  1.2934
 1497TIP3   OH225981   5.783   2.513   2.827 -1.0047  0.0606 -0.1220
 1497TIP3    H125982   5.863   2.564   2.819 -0.2553 -1.2211 -1.3911
 1497TIP3    H225983   5.724   2.549   2.761 -0.1479 -1.1929 -1.6594
 1498TIP3   OH225984   0.641   1.412   5.833 -0.5929 -0.5171 -1.1107
 1498TIP3    H125985   0.722   1.441   5.876 -1.7975  1.0529  0.2757
 1498TIP3    H225986   0.603   1.349   5.895 -0.6781 -0.8629 -1.5145
 1499TIP3   OH225987   0.938   5.699   5.919 -0.6082  0.2770  0.4272
 1499TIP3    H125988   0.858   5.737   5.954  0.2172  1.0118  1.6160
 1499TIP3    H225989   0.975   5.649   5.992 -0.5244 -0.9461 -0.4313
 1500TIP3   OH225990   0.476   2.318  14.334  0.1558 -0.2968 -0.1535
 1500TIP3    H125991   0.430   2.399  14.356  3.0611  1.8920 -1.4712
 1500TIP3    H225992   0.558   2.323  14.382  0.2331 -2.7674  0.0936
 1501TIP3   OH225993   3.127   6.795   0.010 -0.1952  0.8257 -0.2864
 1501TIP3    H125994   3.130   6.868  -0.052 -3.4800  0.3381 -1.2142
 1501TIP3    H225995   3.158   6.719  -0.040 -3.7406  0.2312 -1.8809
 1502TIP3   OH225996   2.745   5.969   3.297 -0.1501  0.7193 -0.4297
 1502TIP3    H125997   2.797   5.899   3.260 -1.4774 -0.7537  0.3704
 1502TIP3    H225998   2.808   6.037   3.321  1.0459  0.3174 -2.2652
 1503TIP3   OH225999   2.358   2.961   3.288 -0.0323  0.5051  0.1334
 1503TIP3    H126000   2.350   2.883   3.232  1.5724  0.0451  0.4787
 1503TIP3    H226001   2.364   2.925   3.377  3.9545  0.6601  0.1094
 1504TIP3   OH226002   5.361   5.089  15.836 -0.2743  0.4015 -0.2289
 1504TIP3    H126003   5.446   5.123  15.808  0.9588 -1.5816  0.8213
 1504TIP3    H226004   5.347   5.010  15.783 -0.5573 -0.2936  0.8288
 1505TIP3   OH226005   6.035   5.777  13.724 -0.0912 -0.6189 -0.0941
 1505TIP3    H126006   6.012   5.746  13.637 -0.3106 -0.6839 -0.0146
 1505TIP3    H226007   5.962   5.748  13.779  0.2557 -0.9663  0.1927
 1506TIP3   OH226008   5.961   5.572   2.203 -0.2978  0.4754  0.2494
 1506TIP3    H126009   5.904   5.645   2.178 -0.1073  0.6007  0.1765
 1506TIP3    H226010   6.046   5.595   2.166  0.0578  0.7891  1.2319
 1507TIP3   OH226011   3.216   4.947  13.801 -0.1345  0.0274  0.0839
 1507TIP3    H126012   3.236   4.861  13.838  1.2439 -0.0022 -0.6621
 1507TIP3    H226013   3.176   4.996  13.873 -0.6189 -1.1124  0.6153
 1508TIP3   OH226014   4.605   6.376   2.209  0.3266  0.1744  0.2003
 1508TIP3    H126015   4.544   6.307   2.181  1.7380 -1.3930  0.8442
 1508TIP3    H226016   4.591   6.384   2.303 -0.1759  1.1555  0.0571
 1509TIP3   OH226017   6.438   2.307   1.697  0.2457 -0.2084 -0.2796
 1509TIP3    H126018   6.394   2.271   1.620  0.3962 -0.4274 -0.2610
 1509TIP3    H226019   6.531   2.310   1.673  0.2607 -0.0296 -0.2041
 1510TIP3   OH226020   4.189   4.972  16.700  0.1335  0.3195 -0.0416
 1510TIP3    H126021   4.108   5.004  16.660  0.2998 -1.2547 -1.7766
 1510TIP3    H226022   4.161   4.925  16.778 -0.4905  0.9212  0.1053
 1511TIP3   OH226023   1.642   5.449   2.148  0.9024 -0.0295  0.1027
 1511TIP3    H126024   1.720   5.491   2.183  0.9345  0.4454 -0.5202
 1511TIP3    H226025   1.580   5.449   2.221  1.1718  0.4040  0.3376
 1512TIP3   OH226026   0.839   5.065  15.405 -0.2712 -0.0819  0.2280
 1512TIP3    H126027   0.807   5.152  15.379  0.9606 -0.0186 -1.2055
 1512TIP3    H226028   0.916   5.050  15.350  1.2620 -0.8847  2.4366
 1513TIP3   OH226029   6.256   0.995   4.588 -0.7122 -0.1769 -0.1631
 1513TIP3    H126030   6.164   1.009   4.564 -0.1600  0.3268 -2.1073
 1513TIP3    H226031   6.294   0.947   4.514  0.5349 -0.6621  0.7509
 1514TIP3   OH226032   2.939   4.627   1.236 -0.1494 -0.5335  0.2838
 1514TIP3    H126033   3.027   4.602   1.262  0.8331  1.7187 -0.6318
 1514TIP3    H226034   2.892   4.640   1.319  0.2830 -1.9348  0.7719
 1515TIP3   OH226035   4.717   1.559  15.355  0.1893  0.1052 -0.1715
 1515TIP3    H126036   4.701   1.614  15.432  0.1522 -0.4724  0.2437
 1515TIP3    H226037   4.809   1.576  15.332  0.6256 -0.7047  0.8331
 1516TIP3   OH226038   0.288   3.741  13.038  0.6080 -0.1737 -0.2463
 1516TIP3    H126039   0.197   3.761  13.059  0.4554 -0.0353 -1.0063
 1516TIP3    H226040   0.320   3.692  13.114 -0.7042 -2.0513 -0.8354
 1517TIP3   OH226041   5.537   1.302  14.974 -0.1428  0.4496  0.2330
 1517TIP3    H126042   5.519   1.384  15.020  0.5096  0.5029  0.4058
 1517TIP3    H226043   5.629   1.310  14.947 -0.5235  0.4530 -1.1400
 1518TIP3   OH226044   6.221   6.620  16.554 -0.0654 -0.1377  0.0747
 1518TIP3    H126045   6.184   6.532  16.560  1.0533 -0.7185 -1.2192
 1518TIP3    H226046   6.248   6.640  16.644  0.1469 -1.3325  0.3012
 1519TIP3   OH226047   4.920   5.853  13.941 -0.1388  0.0350  0.0725
 1519TIP3    H126048   4.862   5.929  13.949 -1.0847 -0.6102 -0.4753
 1519TIP3    H226049   4.902   5.801  14.019  3.5531  2.2991  2.7907
 1520TIP3   OH226050   1.277   4.311   1.559 -0.2851  0.1597  0.4619
 1520TIP3    H126051   1.310   4.254   1.490  1.6578 -0.4085  1.7607
 1520TIP3    H226052   1.185   4.287   1.569  0.0467 -1.5127 -0.1989
 1521TIP3   OH226053   0.243   0.342  13.974 -0.7490  0.0299  0.0697
 1521TIP3    H126054   0.185   0.342  14.050  1.9318 -0.1299  2.2955
 1521TIP3    H226055   0.267   0.250  13.961  1.3949  0.3516  1.2769
 1522TIP3   OH226056   2.461   6.725  15.654 -0.8536  0.1603  0.0776
 1522TIP3    H126057   2.447   6.659  15.723 -2.2635 -0.0081 -0.3464
 1522TIP3    H226058   2.377   6.733  15.611 -0.3292  1.2418 -0.7927
 1523TIP3   OH226059   1.530   1.240  15.646  0.6931  0.9443  0.7845
 1523TIP3    H126060   1.489   1.180  15.709 -0.0690 -0.1598 -0.7100
 1523TIP3    H226061   1.503   1.327  15.676 -2.0483  0.3159  0.4141
 1524TIP3   OH226062   2.582   3.908  13.815  0.1168  0.0894  0.4292
 1524TIP3    H126063   2.507   3.932  13.761 -1.6743 -0.7518  2.3998
 1524TIP3    H226064   2.608   3.822  13.783  0.1408  0.3006 -0.1336
 1525TIP3   OH226065   0.638   0.636   1.152  0.1129 -0.1339 -0.5251
 1525TIP3    H126066   0.616   0.663   1.241  1.0041  0.8488 -0.5866
 1525TIP3    H226067   0.578   0.684   1.096  0.8448  0.7660 -0.5569
 1526TIP3   OH226068   4.344   6.377  13.687  0.2251 -0.0842 -0.5112
 1526TIP3    H126069   4.358   6.398  13.595 -0.8314 -1.4341 -1.0119
 1526TIP3    H226070   4.433   6.370  13.723  0.7084  4.1310 -0.4422
 1527TIP3   OH226071   0.239   2.488   3.613  0.1065  0.2520 -0.1038
 1527TIP3    H126072   0.178   2.501   3.540  1.7446  3.3439 -1.0937
 1527TIP3    H226073   0.242   2.393   3.625 -3.5217 -0.1442 -1.0947
 1528TIP3   OH226074   3.964   0.002   5.514 -0.3232 -0.1806  0.1581
 1528TIP3    H126075   3.977  -0.085   5.551  1.2375 -1.1589 -2.4417
 1528TIP3    H226076   4.051   0.032   5.490 -1.0324  1.2762 -0.7801
 1529TIP3   OH226077   1.037   3.765   5.137  0.5105 -0.2875  0.1117
 1529TIP3    H126078   1.023   3.688   5.193 -0.6123 -0.0369  0.2108
 1529TIP3    H226079   0.958   3.770   5.084  0.9852  0.2652 -0.5581
 1530TIP3   OH226080   4.976   0.967   0.800  0.7306  0.9066  0.0518
 1530TIP3    H126081   4.895   0.968   0.852  0.7135 -2.2567  0.2356
 1530TIP3    H226082   4.951   0.929   0.716  2.1709 -1.2984  0.5355
 1531TIP3   OH226083   2.858   3.202   1.703 -0.4089 -0.1278 -0.0622
 1531TIP3    H126084   2.913   3.177   1.629  1.2122  1.1118  0.6484
 1531TIP3    H226085   2.906   3.171   1.780 -1.1041  0.2862  0.5492
 1532TIP3   OH226086   6.747   3.699   5.798  0.3082 -0.0920  0.0401
 1532TIP3    H126087   6.813   3.673   5.862 -1.6647 -1.5538  1.6203
 1532TIP3    H226088   6.789   3.769   5.748  2.0882  0.9300  2.7086
 1533TIP3   OH226089   2.664   6.515  14.205 -0.1155  0.1514  0.3737
 1533TIP3    H126090   2.638   6.507  14.114 -1.1340 -2.9303  0.8293
 1533TIP3    H226091   2.594   6.566  14.246 -0.5441  0.0349 -0.2175
 1534TIP3   OH226092   5.791   1.798  14.418  0.0045 -0.1562  0.1393
 1534TIP3    H126093   5.843   1.721  14.440  1.1316  0.2093 -1.0916
 1534TIP3    H226094   5.759   1.780  14.329 -0.6653  0.3072  0.2789
 1535TIP3   OH226095   5.358   0.888  15.157  1.1977  0.8640 -0.1178
 1535TIP3    H126096   5.291   0.916  15.095 -0.1179 -2.4820 -0.4316
 1535TIP3    H226097   5.434   0.943  15.137  0.0735  1.5495 -3.0438
 1536TIP3   OH226098   0.041   5.382   3.530  0.2653 -0.2449 -0.9205
 1536TIP3    H126099   0.104   5.385   3.601  0.7082 -0.2410 -1.3097
 1536TIP3    H226100   0.066   5.304   3.480 -0.4981 -0.6693 -0.6554
 1537TIP3   OH226101   2.290   3.329   5.859  0.0448  0.3003  0.2816
 1537TIP3    H126102   2.199   3.352   5.842  0.6061  1.5382 -1.3126
 1537TIP3    H226103   2.289   3.234   5.871 -1.4040  0.2628 -0.0298
 1538TIP3   OH226104   6.494   3.950   4.194  0.8552  0.7401 -0.1199
 1538TIP3    H126105   6.404   3.981   4.193  0.9597  1.0493  0.0649
 1538TIP3    H226106   6.547   4.028   4.177  1.2440  1.1332  2.4905
 1539TIP3   OH226107   3.060   6.227   4.458 -0.0139 -0.2951  0.5552
 1539TIP3    H126108   3.024   6.188   4.538 -0.3238  0.2988  0.7077
 1539TIP3    H226109   3.132   6.282   4.489  1.0649 -1.4863  0.2537
 1540TIP3   OH226110   4.848   6.183   1.239 -0.5433 -0.0166 -0.5668
 1540TIP3    H126111   4.801   6.208   1.319  1.0854  2.6551 -0.3387
 1540TIP3    H226112   4.844   6.087   1.239 -1.7264 -0.0642  2.0101
 1541TIP3   OH226113   2.491   5.991  11.656  0.0352 -0.1950  0.1509
 1541TIP3    H126114   2.518   6.083  11.655  1.1201 -0.4805  1.4493
 1541TIP3    H226115   2.396   5.995  11.669  0.2799  0.7422  1.9448
 1542TIP3   OH226116   5.163   6.215   3.165  0.3805  0.7647  0.4862
 1542TIP3    H126117   5.079   6.192   3.205  0.5006  0.8159  0.7778
 1542TIP3    H226118   5.189   6.296   3.210  1.5843 -0.3594  1.9138
 1543TIP3   OH226119   0.609   0.272  16.677  0.3625 -0.2524 -0.5565
 1543TIP3    H126120   0.677   0.324  16.721 -1.1112  1.1064  0.2235
 1543TIP3    H226121   0.577   0.330  16.607  0.0387 -0.9046 -0.9604
 1544TIP3   OH226122   2.619   1.377  13.476 -0.1177  0.5270  0.5695
 1544TIP3    H126123   2.617   1.291  13.434  0.1586  1.4080 -1.3864
 1544TIP3    H226124   2.527   1.405  13.476  0.1301  1.6635 -2.1356
 1545TIP3   OH226125   6.337   6.229   3.198 -0.4622 -0.3279  0.0396
 1545TIP3    H126126   6.264   6.168   3.202 -0.0609 -0.7599  0.8505
 1545TIP3    H226127   6.397   6.200   3.267  0.5160 -0.0349 -0.6667
 1546TIP3   OH226128   5.649   0.160   5.184 -0.3271  0.3441 -0.1846
 1546TIP3    H126129   5.594   0.209   5.124 -1.1131 -0.3691 -0.0722
 1546TIP3    H226130   5.588   0.122   5.247  0.2724 -0.6075 -0.1564
 1547TIP3   OH226131   4.128   5.386  15.650 -0.1323 -0.3299 -0.4172
 1547TIP3    H126132   4.175   5.399  15.567  1.0749 -1.2478  0.0835
 1547TIP3    H226133   4.072   5.311  15.635 -0.0802 -0.3559 -0.4799
 1548TIP3   OH226134   2.442   5.932  11.385  0.1864  0.2195  1.0027
 1548TIP3    H126135   2.387   6.005  11.357 -1.8318 -1.9404 -1.0687
 1548TIP3    H226136   2.487   5.965  11.463 -0.3291  3.7402 -0.0146
 1549TIP3   OH226137   2.331   4.061   0.184  0.3715  0.3500 -0.2853
 1549TIP3    H126138   2.423   4.049   0.205  0.1060 -1.4954  0.0496
 1549TIP3    H226139   2.307   4.143   0.226  1.0426 -0.8274  2.6644
 1550TIP3   OH226140   2.983   5.778  15.960 -0.0265 -0.3466 -0.4667
 1550TIP3    H126141   2.997   5.721  16.035 -0.3958 -1.9874 -1.5800
 1550TIP3    H226142   2.970   5.865  15.997  0.3358 -1.0193  1.3125
 1551TIP3   OH226143   1.039   1.159  11.487  0.3091  0.6574 -0.2039
 1551TIP3    H126144   0.957   1.125  11.523  0.5000 -1.2044 -1.3976
 1551TIP3    H226145   1.102   1.153  11.559  0.0323 -0.4530 -0.0326
 1552TIP3   OH226146   1.228   6.319  15.026 -0.2547  0.1529  0.4544
 1552TIP3    H126147   1.320   6.303  15.048  0.1178  1.2928 -0.1862
 1552TIP3    H226148   1.191   6.354  15.107 -0.4616 -1.4468  1.0937
 1553TIP3   OH226149   2.458   0.817   2.345  0.6114  0.4485  0.8283
 1553TIP3    H126150   2.485   0.802   2.435 -0.0907 -0.3279  0.9205
 1553TIP3    H226151   2.362   0.819   2.349  0.5797  2.4746  0.4165
 1554TIP3   OH226152   0.874   6.474  15.892  0.3346 -0.0890  0.3002
 1554TIP3    H126153   0.947   6.472  15.954  1.2420 -0.9110 -0.7382
 1554TIP3    H226154   0.876   6.387  15.851 -2.4295 -0.8479  1.5515
 1555TIP3   OH226155   3.528   0.714  10.883  0.2222  0.3834  0.2759
 1555TIP3    H126156   3.572   0.629  10.879  0.3162  0.4915 -1.9696
 1555TIP3    H226157   3.470   0.715  10.807 -1.2446  1.5711  1.3598
 1556TIP3   OH226158   2.594   3.557  12.274 -0.3416 -0.1014  0.2242
 1556TIP3    H126159   2.554   3.620  12.333 -2.5128 -1.8336  0.7578
 1556TIP3    H226160   2.645   3.609  12.213 -0.7100  1.9986  1.6217
 1557TIP3   OH226161   6.217   1.634   1.689  0.0788 -0.1763 -0.2894
 1557TIP3    H126162   6.157   1.576   1.643  1.0166 -0.4083 -1.2510
 1557TIP3    H226163   6.238   1.702   1.625  0.7276 -0.0188  0.0890
 1558TIP3   OH226164   6.108   6.170   0.581  0.2748 -0.2018  0.5494
 1558TIP3    H126165   6.148   6.104   0.523  1.1684  1.4068 -0.7711
 1558TIP3    H226166   6.128   6.253   0.539 -1.0642  0.9197  2.0165
 1559TIP3   OH226167   2.289   3.427   3.890  0.1357 -0.4494  0.5962
 1559TIP3    H126168   2.351   3.355   3.886  0.5368 -0.1129  0.6722
 1559TIP3    H226169   2.203   3.385   3.885  0.3560 -0.7615 -2.3113
 1560TIP3   OH226170   4.289   0.527  13.684  0.3862  0.5522 -0.7778
 1560TIP3    H126171   4.276   0.621  13.677 -1.4026  0.3976  0.0019
 1560TIP3    H226172   4.377   0.517  13.719 -0.8500  2.1244  3.2632
 1561TIP3   OH226173   3.502   4.939   0.895  0.3032 -1.1798  0.2064
 1561TIP3    H126174   3.482   4.891   0.976  1.9804  0.4625  1.6993
 1561TIP3    H226175   3.468   5.027   0.911 -0.4913 -1.1416 -1.4575
 1562TIP3   OH226176   3.445   2.256  13.618 -0.5651 -0.4464  0.2126
 1562TIP3    H126177   3.360   2.217  13.597 -0.3881 -0.2402 -1.0006
 1562TIP3    H226178   3.427   2.350  13.627 -0.1228  0.0436 -2.7378
 1563TIP3   OH226179   1.196   6.232  11.875  0.1139 -0.1535  0.5242
 1563TIP3    H126180   1.201   6.319  11.913  1.1610 -0.2379  0.6080
 1563TIP3    H226181   1.103   6.210  11.877 -0.2996  1.3474 -0.3879
 1564TIP3   OH226182   4.679   0.251   5.898 -0.1764 -0.3582  0.4562
 1564TIP3    H126183   4.722   0.170   5.871  1.2322  0.6603 -0.5108
 1564TIP3    H226184   4.598   0.253   5.848 -2.1701 -2.9148  3.1969
 1565TIP3   OH226185   2.301   3.232   3.610  0.3196  0.0852 -0.7886
 1565TIP3    H126186   2.268   3.321   3.596 -0.3497  0.2406  1.4809
 1565TIP3    H226187   2.236   3.191   3.666  1.7249 -1.1287  0.0176
 1566TIP3   OH226188   0.501   4.156  14.380 -0.1793 -0.6357  0.6561
 1566TIP3    H126189   0.547   4.114  14.308  0.8638  0.0419  0.8968
 1566TIP3    H226190   0.417   4.182  14.343 -0.6216 -2.3759  0.3565
 1567TIP3   OH226191   2.982   3.595  13.731 -0.5313 -0.3603  0.2803
 1567TIP3    H126192   3.015   3.543  13.657 -1.2151 -1.9069  1.0316
 1567TIP3    H226193   3.052   3.591  13.796 -0.4960 -0.1446  0.2566
 1568TIP3   OH226194   2.422   5.405   1.817  0.1933  0.1610  0.0055
 1568TIP3    H126195   2.372   5.421   1.896  0.2979  3.2624 -0.4430
 1568TIP3    H226196   2.357   5.375   1.753 -0.1308 -0.9203  0.8069
 1569TIP3   OH226197   5.824   3.133  10.432 -0.2646 -0.4956  0.5564
 1569TIP3    H126198   5.858   3.057  10.384  0.0891 -0.0053  0.0147
 1569TIP3    H226199   5.753   3.098  10.486  0.9144 -1.5101  1.5252
 1570TIP3   OH226200   5.953   3.698   0.940  0.0814  0.2208  0.3172
 1570TIP3    H126201   5.942   3.655   0.855  0.0408 -0.7339  0.7910
 1570TIP3    H226202   5.990   3.783   0.919  0.3390 -0.1119 -0.6402
 1571TIP3   OH226203   3.513   2.315  13.988  0.1092 -0.2050 -0.0506
 1571TIP3    H126204   3.460   2.247  14.029  0.4149 -0.1257  0.4925
 1571TIP3    H226205   3.573   2.268  13.931  0.6593 -0.4491  0.7020
 1572TIP3   OH226206   1.759   4.359  15.027 -0.6839 -0.9489  0.2123
 1572TIP3    H126207   1.699   4.419  14.983 -0.7768  0.3643  1.9999
 1572TIP3    H226208   1.737   4.273  14.993  0.7607  0.0925 -3.9565
 1573TIP3   OH226209   3.788   5.302  16.203  0.3326 -0.4510 -0.7956
 1573TIP3    H126210   3.864   5.339  16.248 -0.4441 -0.3078  0.4346
 1573TIP3    H226211   3.824   5.262  16.124  1.6671 -0.2603 -0.3066
 1574TIP3   OH226212   6.069   5.715   1.088  0.0472 -0.9470  0.5912
 1574TIP3    H126213   5.986   5.762   1.094  0.0758 -1.0837  2.5543
 1574TIP3    H226214   6.060   5.659   1.011 -0.7994  0.6741 -0.5286
 1575TIP3   OH226215   0.224   2.023   3.196  0.5349 -0.2183  0.0645
 1575TIP3    H126216   0.195   2.059   3.280  2.0811  0.3161  0.4080
 1575TIP3    H226217   0.285   2.089   3.162  1.9500 -1.6107 -0.2095
 1576TIP3   OH226218   6.773   1.371  16.751  0.2250 -0.0619 -0.8779
 1576TIP3    H126219   6.704   1.362  16.685 -0.1166  1.0654 -0.7050
 1576TIP3    H226220   6.805   1.282  16.766 -2.8740 -1.0490  0.8109
 1577TIP3   OH226221   2.718   6.357  16.780 -0.0647 -0.6562  0.3348
 1577TIP3    H126222   2.733   6.372  16.873  1.7501  1.0760 -0.1519
 1577TIP3    H226223   2.805   6.368  16.740 -0.5161 -2.8027 -1.4252
 1578TIP3   OH226224   0.725   3.714  14.919 -0.4354  0.6621 -0.3199
 1578TIP3    H126225   0.661   3.785  14.927  1.3801  2.2913  0.8217
 1578TIP3    H226226   0.746   3.711  14.826 -0.3196  1.9104 -0.3596
 1579TIP3   OH226227   6.231   6.053   4.157  0.3560  0.4823  0.5216
 1579TIP3    H126228   6.168   5.992   4.197 -1.3408  1.2418 -0.8673
 1579TIP3    H226229   6.203   6.059   4.066  2.5342  0.8148 -0.1658
 1580TIP3   OH226230   5.737   6.706   2.020  0.2699 -0.2640  0.1457
 1580TIP3    H126231   5.724   6.775   2.084  0.1475  0.2138 -0.3890
 1580TIP3    H226232   5.749   6.627   2.072 -1.8478 -0.2444  0.7340
 1581TIP3   OH226233   1.319   5.663   5.056  0.7191 -0.7425 -0.0814
 1581TIP3    H126234   1.401   5.616   5.073  0.3745 -1.2402  0.2347
 1581TIP3    H226235   1.347   5.746   5.017  1.4832 -0.0587  1.7832
 1582TIP3   OH226236   1.525   5.696  13.982  0.6218 -0.3484  0.4160
 1582TIP3    H126237   1.613   5.692  13.943 -0.0352 -1.2517 -1.0414
 1582TIP3    H226238   1.490   5.780  13.952 -0.1388 -1.3314 -1.6330
 1583TIP3   OH226239   2.882   3.253  14.412  0.4154 -0.0617 -0.1600
 1583TIP3    H126240   2.904   3.342  14.438  1.9585 -0.8789  1.6060
 1583TIP3    H226241   2.789   3.244  14.432  0.2138  1.1542 -0.4688
 1584TIP3   OH226242   3.367   0.547   2.019 -0.4221 -0.6573 -0.0919
 1584TIP3    H126243   3.362   0.538   1.924 -0.2843  1.1386 -0.3090
 1584TIP3    H226244   3.280   0.578   2.045  0.0783  0.6542  0.1028
 1585TIP3   OH226245   2.785   5.402  15.744  0.2870  0.1811 -0.6281
 1585TIP3    H126246   2.725   5.418  15.670  1.6244 -0.3862 -1.8779
 1585TIP3    H226247   2.744   5.331  15.792  0.7970 -1.4961 -2.5326
 1586TIP3   OH226248   5.230   6.474   4.783  0.2391 -0.4830 -0.1037
 1586TIP3    H126249   5.251   6.454   4.691  1.0930 -2.3743  0.4426
 1586TIP3    H226250   5.147   6.428   4.799 -1.1619  1.7678 -0.5169
 1587TIP3   OH226251   3.039   2.254  14.133 -0.3065 -0.3971 -0.2455
 1587TIP3    H126252   3.092   2.295  14.065 -2.3767  1.2790 -0.9841
 1587TIP3    H226253   2.956   2.303  14.131 -2.1657 -3.2873  0.3078
 1588TIP3   OH226254   2.850   4.606  16.261 -0.0918  0.5455  0.1089
 1588TIP3    H126255   2.767   4.576  16.225  0.2166  0.6929 -0.7578
 1588TIP3    H226256   2.910   4.533  16.248  0.1922  0.8462 -0.3099
 1589TIP3   OH226257   0.842   4.907   3.054  0.0361 -0.2859 -0.5965
 1589TIP3    H126258   0.813   4.998   3.060 -1.4390 -0.6611 -1.3171
 1589TIP3    H226259   0.916   4.900   3.113  0.6447  1.5628 -1.0908
 1590TIP3   OH226260   1.587   2.282  13.497  0.1303  0.4810  0.2285
 1590TIP3    H126261   1.613   2.224  13.568 -0.0491 -0.7971 -0.6941
 1590TIP3    H226262   1.628   2.366  13.517  0.6869 -0.0602  1.4380
 1591TIP3   OH226263   4.649   2.768   0.435 -0.7690  0.0483 -0.0707
 1591TIP3    H126264   4.616   2.791   0.349 -0.0349  0.4801 -0.2437
 1591TIP3    H226265   4.714   2.836   0.455  0.4533 -1.1024 -0.0056
 1592TIP3   OH226266   3.681   1.549  12.664  0.3832 -0.0266 -0.3456
 1592TIP3    H126267   3.704   1.569  12.755 -0.2764  0.6827 -0.3167
 1592TIP3    H226268   3.665   1.635  12.625  0.4249 -0.3447 -1.0630
 1593TIP3   OH226269   5.565   6.415   6.121  0.2915  0.6912 -0.4908
 1593TIP3    H126270   5.507   6.454   6.186 -0.1293  1.9935 -1.6036
 1593TIP3    H226271   5.545   6.321   6.124  0.1883  0.7402  1.1280
 1594TIP3   OH226272   2.537   1.791   2.286 -0.2131 -0.2060  0.5384
 1594TIP3    H126273   2.472   1.732   2.248 -1.3594  0.4037  1.4594
 1594TIP3    H226274   2.502   1.811   2.373 -1.2211  3.6925 -0.5392
 1595TIP3   OH226275   5.458   0.693   5.939 -0.0373 -0.1458  0.2999
 1595TIP3    H126276   5.524   0.672   5.873  0.1722  1.6746 -0.1092
 1595TIP3    H226277   5.473   0.629   6.009  1.5869 -0.3259 -0.1843
 1596TIP3   OH226278   4.393   5.562  11.217  0.1430  0.4153  0.0315
 1596TIP3    H126279   4.345   5.644  11.200  1.0604  0.8434 -0.5664
 1596TIP3    H226280   4.450   5.552  11.141  1.8334  0.5213  1.2542
 1597TIP3   OH226281   2.669   5.656  13.586  0.3744  0.1823 -0.2786
 1597TIP3    H126282   2.717   5.615  13.515  1.0395  2.3977 -1.1897
 1597TIP3    H226283   2.726   5.727  13.616 -0.2160 -0.2065  1.9809
 1598TIP3   OH226284   6.572   1.730   4.667  0.0521  0.1342  0.0056
 1598TIP3    H126285   6.625   1.658   4.631 -1.2424 -0.4713 -0.8026
 1598TIP3    H226286   6.538   1.775   4.590  1.0742  1.8441  0.5000
 1599TIP3   OH226287   3.228   3.682   2.238  0.0396  0.8782  0.3671
 1599TIP3    H126288   3.274   3.757   2.200  2.6667 -1.5426 -1.7367
 1599TIP3    H226289   3.184   3.640   2.163 -1.2545  0.2176  1.4477
 1600TIP3   OH226290   2.909   2.136  10.774 -0.4880 -0.2180  0.3212
 1600TIP3    H126291   2.904   2.041  10.785 -0.2697 -0.2622  0.0521
 1600TIP3    H226292   2.995   2.151  10.735 -0.8400  0.0183 -0.3869
 1601TIP3   OH226293   5.125   2.884  16.023 -0.1882 -0.3234  0.0723
 1601TIP3    H126294   5.119   2.821  15.951 -0.5852  0.8110 -0.9085
 1601TIP3    H226295   5.060   2.951  16.003  0.7041  0.7796  0.7245
 1602TIP3   OH226296   2.051   3.783  11.627  0.0777 -0.1019  0.1986
 1602TIP3    H126297   2.051   3.715  11.693  0.3909 -1.3300 -1.0139
 1602TIP3    H226298   2.094   3.743  11.551  1.1619  1.7671 -0.2461
 1603TIP3   OH226299   0.837   0.862  13.993 -0.0672 -0.0939  0.3984
 1603TIP3    H126300   0.906   0.797  13.979 -0.1837 -0.3641  1.0640
 1603TIP3    H226301   0.768   0.815  14.038 -1.4703 -0.2861 -1.8033
 1604TIP3   OH226302   5.661   0.351   4.469  0.2535 -0.0703  0.2657
 1604TIP3    H126303   5.580   0.396   4.446 -0.2110 -1.2373 -0.5335
 1604TIP3    H226304   5.648   0.261   4.437  1.1511 -0.7662  1.7257
 1605TIP3   OH226305   4.886   3.422  11.146 -0.2818  0.2191  0.2070
 1605TIP3    H126306   4.811   3.449  11.199 -0.8873 -1.1596  0.1158
 1605TIP3    H226307   4.850   3.356  11.086  0.8370  0.1627 -0.4399
 1606TIP3   OH226308   4.546   2.361  15.406 -0.6336  0.2008  0.1092
 1606TIP3    H126309   4.455   2.344  15.379 -0.4519  0.1698 -0.5079
 1606TIP3    H226310   4.590   2.385  15.324 -0.2959  1.1216  0.5524
 1607TIP3   OH226311   6.416   6.465   1.714  0.0906  0.0116  0.1627
 1607TIP3    H126312   6.493   6.477   1.658  0.1619 -0.9548  0.0436
 1607TIP3    H226313   6.349   6.522   1.675  0.4970  0.2428 -0.2060
 1608TIP3   OH226314   0.671   1.241  13.995 -0.1522 -0.2586 -0.2726
 1608TIP3    H126315   0.608   1.246  13.923 -0.4111 -0.3289 -0.0532
 1608TIP3    H226316   0.679   1.331  14.026 -0.7010 -0.3537  0.1687
 1609TIP3   OH226317   0.731   6.612  13.366 -0.1624 -0.9862 -0.7979
 1609TIP3    H126318   0.661   6.614  13.431  1.2377  0.4671  0.7484
 1609TIP3    H226319   0.756   6.520  13.361 -0.2927 -1.1362  0.7736
 1610TIP3   OH226320   6.564   4.340  11.938 -0.2675 -0.1005  0.0429
 1610TIP3    H126321   6.640   4.392  11.966  0.4536 -0.7872 -0.6041
 1610TIP3    H226322   6.491   4.402  11.940  0.5940  0.9916 -0.8486
 1611TIP3   OH226323   0.682   6.702   4.106 -0.3177  0.2660 -0.3867
 1611TIP3    H126324   0.741   6.777   4.112  0.2086 -0.2083  0.5857
 1611TIP3    H226325   0.653   6.701   4.015 -1.0594  2.1886 -0.2220
 1612TIP3   OH226326   1.572   6.508  12.969  0.0434 -0.2391  0.1360
 1612TIP3    H126327   1.594   6.498  13.061 -0.6920  0.6931  0.4319
 1612TIP3    H226328   1.641   6.461  12.922 -0.3395 -1.9368  1.1973
 1613TIP3   OH226329   2.945   3.392  16.909  0.0161  0.6152 -0.2076
 1613TIP3    H126330   2.909   3.473  16.874 -1.1550 -0.0503 -0.6005
 1613TIP3    H226331   2.915   3.389  17.000  0.2823  0.7484 -0.1147
 1614TIP3   OH226332   1.906   2.081  16.833 -0.2574  0.0725 -0.5826
 1614TIP3    H126333   1.825   2.109  16.875  0.4663  0.1125  0.8335
 1614TIP3    H226334   1.879   2.057  16.744 -1.5153  1.7560 -0.7111
 1615TIP3   OH226335   0.379   5.554   4.455 -0.4326  0.5674  0.4606
 1615TIP3    H126336   0.332   5.510   4.526 -2.1233 -0.4955 -1.2098
 1615TIP3    H226337   0.316   5.557   4.383  0.9375  2.3363 -0.7496
 1616TIP3   OH226338   3.327   6.761  15.368  0.1440 -0.4619  0.1595
 1616TIP3    H126339   3.412   6.744  15.328  0.0997 -0.4832  0.0748
 1616TIP3    H226340   3.290   6.674  15.384 -0.4439 -0.4541 -1.0448
 1617TIP3   OH226341   4.598   0.767   6.575  0.1986 -0.1369  0.0224
 1617TIP3    H126342   4.602   0.679   6.536 -1.0079  0.4721 -1.5894
 1617TIP3    H226343   4.562   0.752   6.663  1.3467 -1.3782  0.3196
 1618TIP3   OH226344   6.156   0.085   6.121 -0.9735  0.1589  0.1204
 1618TIP3    H126345   6.198   0.035   6.052 -0.3882  0.9082 -0.0839
 1618TIP3    H226346   6.141   0.022   6.192  0.0911 -0.2140  0.0220
 1619TIP3   OH226347   3.322   6.771  16.190 -0.4510 -0.3994 -0.1030
 1619TIP3    H126348   3.237   6.730  16.204 -0.3807 -0.2146  0.9729
 1619TIP3    H226349   3.349   6.802  16.277  0.1086  0.7267 -0.6433
 1620TIP3   OH226350   1.558   6.157  14.817  0.4391  0.0290 -0.4945
 1620TIP3    H126351   1.516   6.200  14.892  1.4594  0.5893 -0.2280
 1620TIP3    H226352   1.489   6.153  14.750  0.4139  2.6915 -0.7664
 1621TIP3   OH226353   1.367   0.687   3.943  0.1705 -0.4615 -0.0391
 1621TIP3    H126354   1.284   0.647   3.969 -0.1178 -1.1268 -1.8420
 1621TIP3    H226355   1.377   0.762   4.002 -1.3806 -0.7440  0.6336
 1622TIP3   OH226356   1.844   1.370  13.819  0.0941  0.6087 -0.3204
 1622TIP3    H126357   1.924   1.414  13.791 -0.5391  1.0623 -1.4921
 1622TIP3    H226358   1.790   1.439  13.857  0.1913  0.3323  0.3284
 1623TIP3   OH226359   5.920   2.609  11.789  0.3512 -0.0816  0.4886
 1623TIP3    H126360   5.877   2.523  11.794  1.3469 -0.5981  0.3463
 1623TIP3    H226361   5.897   2.652  11.871  2.3167 -1.6893  1.9872
 1624TIP3   OH226362   6.465   3.807  13.625 -0.0350 -0.2004 -0.5317
 1624TIP3    H126363   6.401   3.740  13.648  0.3398  0.6540  4.0341
 1624TIP3    H226364   6.416   3.888  13.623  0.4619  0.1549  0.6389
 1625TIP3   OH226365   5.111   2.461   1.096 -0.1908  0.1205  0.4826
 1625TIP3    H126366   5.151   2.377   1.118 -0.8239 -0.1428  0.6699
 1625TIP3    H226367   5.025   2.438   1.060 -0.4286  0.6899  0.6705
 1626TIP3   OH226368   3.646   0.658  12.484  0.1658  0.3886 -0.4707
 1626TIP3    H126369   3.654   0.647  12.579 -1.7898  1.0386 -0.1910
 1626TIP3    H226370   3.568   0.712  12.472 -0.1710 -0.4492 -2.4866
 1627TIP3   OH226371   6.244   3.524  15.776  0.0359 -0.4336 -0.0784
 1627TIP3    H126372   6.153   3.522  15.807 -0.4333 -0.4696 -1.4011
 1627TIP3    H226373   6.294   3.558  15.850 -0.8289 -1.8819  1.2083
 1628TIP3   OH226374   6.135   6.650   0.268 -0.0548 -0.2766 -0.1276
 1628TIP3    H126375   6.094   6.683   0.348 -0.7746 -1.2679 -0.0655
 1628TIP3    H226376   6.225   6.628   0.294 -0.7049 -1.9598  0.7996
 1629TIP3   OH226377   2.046   5.978   2.971 -0.2058 -0.0450  0.5657
 1629TIP3    H126378   2.014   6.067   2.955 -0.3652 -0.1912  0.0691
 1629TIP3    H226379   1.977   5.921   2.939 -0.0321 -0.3510  0.7347
 1630TIP3   OH226380   1.578   4.284   2.362 -0.1094  0.2041 -0.4763
 1630TIP3    H126381   1.633   4.231   2.305  0.0743  0.7635 -0.8203
 1630TIP3    H226382   1.561   4.364   2.313 -0.4929  0.4158 -0.0125
 1631TIP3   OH226383   5.397   4.732   4.646  0.3388  0.4633  0.7343
 1631TIP3    H126384   5.483   4.739   4.688  0.8679  0.0261 -0.2238
 1631TIP3    H226385   5.336   4.770   4.709  1.2282  0.7409  1.4557
 1632TIP3   OH226386   6.192   6.424   0.431 -0.0203 -0.3591  0.6706
 1632TIP3    H126387   6.157   6.476   0.504  0.7609  0.6551  0.3482
 1632TIP3    H226388   6.286   6.420   0.447  0.3471  0.8739 -0.8362
 1633TIP3   OH226389   0.549   5.462  15.191  0.0421 -0.4864 -0.3997
 1633TIP3    H126390   0.552   5.546  15.236 -0.0350  0.4290 -1.9982
 1633TIP3    H226391   0.485   5.410  15.239  0.7100  0.0417  1.1142
 1634TIP3   OH226392   0.976   1.748   5.579  0.0635 -0.1237 -0.3273
 1634TIP3    H126393   1.027   1.765   5.658 -0.6785 -1.8022  0.5590
 1634TIP3    H226394   1.025   1.682   5.531  1.2568  1.8966 -2.0861
 1635TIP3   OH226395   3.754   1.125  16.806 -0.0663 -0.0278 -0.2272
 1635TIP3    H126396   3.824   1.185  16.783  2.0950 -2.9337 -1.8737
 1635TIP3    H226397   3.682   1.147  16.747 -0.0460  2.0231  0.4598
 1636TIP3   OH226398   3.952   3.131  15.470  0.1102  0.1572 -0.2450
 1636TIP3    H126399   3.935   3.077  15.393 -2.3520  0.7384 -0.1964
 1636TIP3    H226400   3.989   3.212  15.436  0.2666 -0.0961 -0.6788
 1637TIP3   OH226401   2.563   0.030  13.247  0.0410 -0.3750  0.4289
 1637TIP3    H126402   2.565   0.123  13.272 -0.3138 -0.6295  1.4511
 1637TIP3    H226403   2.547   0.031  13.153  0.8012  0.6209  0.2865
 1638TIP3   OH226404   4.856   3.884  15.050 -0.0813 -0.4917 -0.3104
 1638TIP3    H126405   4.815   3.822  14.990 -0.3116 -0.2739 -0.3775
 1638TIP3    H226406   4.867   3.964  14.999  1.6675 -0.9414 -0.7335
 1639TIP3   OH226407   4.285   2.606  13.440  0.3489 -0.5544 -0.2784
 1639TIP3    H126408   4.275   2.521  13.483  1.4463 -0.6844 -0.2540
 1639TIP3    H226409   4.350   2.591  13.372  0.6256  0.2939 -0.2111
 1640TIP3   OH226410   6.270   0.102  12.583  0.2596  0.3982 -0.5413
 1640TIP3    H126411   6.202   0.159  12.548 -0.3597 -0.0202 -0.0339
 1640TIP3    H226412   6.302   0.149  12.661 -1.3114 -0.6213  0.7702
 1641TIP3   OH226413   3.394   1.473  11.363 -0.5469  0.6792 -0.2358
 1641TIP3    H126414   3.426   1.470  11.453 -1.7906  3.0215  0.3647
 1641TIP3    H226415   3.471   1.493  11.310 -0.3998  3.0217  0.7820
 1642TIP3   OH226416   1.649   6.237  13.439 -0.5620 -0.0370  0.3467
 1642TIP3    H126417   1.697   6.224  13.520 -1.3771 -0.3322  0.8021
 1642TIP3    H226418   1.594   6.158  13.431  0.1740 -0.4578 -0.9760
 1643TIP3   OH226419   5.703   4.101   0.227  0.2693  0.0825 -0.3098
 1643TIP3    H126420   5.613   4.131   0.212  0.2766 -0.7108 -2.3693
 1643TIP3    H226421   5.758   4.173   0.195  0.4214  0.7803  1.4155
 1644TIP3   OH226422   5.781   2.724   4.167 -0.1758  0.0470  0.2459
 1644TIP3    H126423   5.770   2.672   4.087 -0.5817 -0.3430  0.5505
 1644TIP3    H226424   5.781   2.815   4.137 -4.0477  0.1564  0.1449
 1645TIP3   OH226425   6.765   3.299  10.429 -0.2450  0.0847  0.5075
 1645TIP3    H126426   6.844   3.307  10.375 -0.2175  1.7562  0.7391
 1645TIP3    H226427   6.790   3.335  10.514 -0.9857 -0.2536  0.8743
 1646TIP3   OH226428   4.950   1.163  16.707  0.5026  0.5640  0.2795
 1646TIP3    H126429   4.919   1.082  16.748  2.6233 -0.7414 -0.5833
 1646TIP3    H226430   4.912   1.162  16.619  0.1528  0.7671  0.4242
 1647TIP3   OH226431   1.667   5.216  13.369  0.2037  1.1372 -0.7540
 1647TIP3    H126432   1.689   5.139  13.421  1.3823  1.1150 -1.2461
 1647TIP3    H226433   1.749   5.267  13.367  0.0820  1.2989 -2.2973
 1648TIP3   OH226434   1.793   1.924   3.026 -0.3333 -0.3294 -0.0515
 1648TIP3    H126435   1.716   1.886   3.068 -1.7684  1.1616 -1.1934
 1648TIP3    H226436   1.824   1.990   3.089 -0.5191 -0.3211  0.0313
 1649TIP3   OH226437   4.216   6.593   5.828  0.1172  1.0481 -0.1804
 1649TIP3    H126438   4.191   6.609   5.737  0.9349 -0.9706 -0.8217
 1649TIP3    H226439   4.229   6.680   5.865 -2.2415  2.0044 -1.3881
 1650TIP3   OH226440   3.513   3.788   3.712  0.1118 -0.5331 -0.4028
 1650TIP3    H126441   3.478   3.716   3.660  0.2122 -1.4370  0.7357
 1650TIP3    H226442   3.558   3.745   3.785  0.2859  0.6791  0.2320
 1651TIP3   OH226443   0.517   0.899  16.530 -0.1843 -0.0563 -0.3223
 1651TIP3    H126444   0.557   0.983  16.549 -0.5499  0.2495 -0.8800
 1651TIP3    H226445   0.501   0.860  16.616 -1.3708  1.0939  0.0212
 1652TIP3   OH226446   0.290   0.075  13.346  0.1321  0.1767 -0.0569
 1652TIP3    H126447   0.353   0.064  13.275  0.5338  1.5569  0.0635
 1652TIP3    H226448   0.212   0.027  13.317  1.6080 -2.6947  0.3519
 1653TIP3   OH226449   2.243   0.668  15.251 -0.0487  0.2199  0.0481
 1653TIP3    H126450   2.151   0.693  15.261 -0.3609 -1.7193  3.0156
 1653TIP3    H226451   2.242   0.573  15.240  1.6029  0.2258 -0.4584
 1654TIP3   OH226452   5.571   5.970   2.600  0.2838  0.2837 -0.1963
 1654TIP3    H126453   5.489   5.939   2.636  1.2156 -1.1400  0.7986
 1654TIP3    H226454   5.593   6.047   2.653 -0.0086  0.1833  0.0728
 1655TIP3   OH226455   4.998   4.442  16.345  0.3604 -0.1559 -0.1995
 1655TIP3    H126456   5.029   4.529  16.320  0.3844 -0.3360 -0.8058
 1655TIP3    H226457   5.070   4.404  16.396  0.4959  0.0362 -0.2472
 1656TIP3   OH226458   2.671   3.879   3.836  0.2035 -0.9009  0.3959
 1656TIP3    H126459   2.723   3.955   3.809 -1.2872 -0.3831 -1.1666
 1656TIP3    H226460   2.673   3.820   3.761 -3.4449  0.2654 -0.8431
 1657TIP3   OH226461   3.936   0.033   2.240  0.0929 -0.0038  0.5332
 1657TIP3    H126462   4.025   0.016   2.272  0.5132  0.7402 -0.2041
 1657TIP3    H226463   3.880   0.013   2.315  0.9346  0.2036  1.2388
 1658TIP3   OH226464   3.262   1.785   6.150 -0.1888  0.3608  0.1306
 1658TIP3    H126465   3.245   1.811   6.240  2.1261  0.5276  0.5598
 1658TIP3    H226466   3.241   1.691   6.148  0.2722  0.2301  1.0018
 1659TIP3   OH226467   5.816   4.473  10.946  0.7609 -0.1363  0.0747
 1659TIP3    H126468   5.890   4.422  10.978  2.4395  0.4393 -2.5924
 1659TIP3    H226469   5.827   4.559  10.986  0.4205 -0.5822  1.1592
 1660TIP3   OH226470   4.967   2.870   4.151 -0.1360 -0.3569 -0.3562
 1660TIP3    H126471   4.890   2.926   4.154 -0.4127 -0.7757  0.3795
 1660TIP3    H226472   5.033   2.923   4.105 -0.6279  0.2786 -0.3417
 1661TIP3   OH226473   4.363   6.367  14.192  0.5594 -0.4910 -0.3014
 1661TIP3    H126474   4.355   6.455  14.227  0.0221 -0.0184 -1.5832
 1661TIP3    H226475   4.299   6.362  14.121  0.8435 -1.7879 -0.5049
 1662TIP3   OH226476   1.743   6.423  11.068 -0.5401 -0.6547  0.3509
 1662TIP3    H126477   1.656   6.400  11.102 -0.7342 -2.8182 -1.4005
 1662TIP3    H226478   1.728   6.441  10.975  0.8320 -0.5702  0.1264
 1663TIP3   OH226479   6.611   1.704   3.387 -0.0467 -0.5013 -0.2770
 1663TIP3    H126480   6.604   1.645   3.461  4.8024 -1.0130  0.0819
 1663TIP3    H226481   6.605   1.648   3.310 -2.7697 -0.2716 -0.3302
 1664TIP3   OH226482   4.521   5.313  16.427 -0.2308 -0.1566  0.1402
 1664TIP3    H126483   4.605   5.337  16.387 -0.1297 -1.2591 -0.3649
 1664TIP3    H226484   4.457   5.372  16.386 -0.4020 -2.2804 -3.0257
 1665TIP3   OH226485   4.361   3.906   0.914 -0.1901 -0.2866 -0.4379
 1665TIP3    H126486   4.367   3.811   0.910  0.9462 -0.4237  2.3562
 1665TIP3    H226487   4.440   3.936   0.868  1.0476 -0.8470  1.2244
 1666TIP3   OH226488   3.307   1.058   1.727  0.3762 -0.5581  0.3851
 1666TIP3    H126489   3.309   0.972   1.685  0.9581 -1.4829  2.1800
 1666TIP3    H226490   3.395   1.094   1.711 -0.2173  0.2290 -1.3106
 1667TIP3   OH226491   6.513   1.767   2.039  0.0041 -0.4735  0.4321
 1667TIP3    H126492   6.519   1.841   1.979  1.3155 -1.9854 -1.4205
 1667TIP3    H226493   6.419   1.747   2.043 -0.2676  0.7170  0.2544
 1668TIP3   OH226494   6.255   6.488   3.518  0.5889  0.1623  0.2773
 1668TIP3    H126495   6.258   6.583   3.509 -0.7813  0.0646 -1.9654
 1668TIP3    H226496   6.347   6.461   3.516  0.9634  1.3881  0.0898
 1669TIP3   OH226497   4.830   1.102   1.170 -0.1601 -0.0358 -0.2354
 1669TIP3    H126498   4.784   1.185   1.165 -2.8242 -1.3450  0.3384
 1669TIP3    H226499   4.802   1.054   1.092  2.3223 -0.0148 -1.2320
 1670TIP3   OH226500   1.172   1.897   4.509  0.5005  0.1600 -0.9046
 1670TIP3    H126501   1.135   1.822   4.555  0.1473  0.8841  0.0248
 1670TIP3    H226502   1.250   1.862   4.465  1.2858 -0.4232  0.8559
 1671TIP3   OH226503   4.812   3.310  11.471  0.1406 -0.0512 -0.0544
 1671TIP3    H126504   4.764   3.231  11.445 -0.4093  0.5736 -1.0008
 1671TIP3    H226505   4.744   3.370  11.503  0.5543  0.0434  0.6585
 1672TIP3   OH226506   5.804   1.022   4.316  0.3286 -0.0284  0.5228
 1672TIP3    H126507   5.804   1.047   4.224  0.8163  1.0604  0.8081
 1672TIP3    H226508   5.757   1.093   4.360 -1.3897 -1.3434  0.9281
 1673TIP3   OH226509   1.195   2.303  16.634 -0.2169 -0.2027 -0.6060
 1673TIP3    H126510   1.281   2.262  16.621  0.5795 -0.3263  3.4889
 1673TIP3    H226511   1.134   2.230  16.639  0.4274 -0.6823  1.7841
 1674TIP3   OH226512   6.104   4.030   5.241  0.0068 -0.2753 -0.3555
 1674TIP3    H126513   6.144   4.090   5.304 -0.2926  1.2016 -1.5125
 1674TIP3    H226514   6.020   4.069   5.220 -1.6870 -2.7695  1.2111
 1675TIP3   OH226515   4.369   5.309   2.124  0.1705  0.5055  0.6281
 1675TIP3    H126516   4.341   5.321   2.034  0.5954 -1.8269  0.1348
 1675TIP3    H226517   4.462   5.334   2.124  0.4269 -0.4248  0.1799
 1676TIP3   OH226518   2.372   0.426  12.800  0.2252  0.4750  0.0699
 1676TIP3    H126519   2.465   0.409  12.786  0.2052  0.8756 -0.6411
 1676TIP3    H226520   2.368   0.473  12.883  0.7471  1.1205 -0.2577
 1677TIP3   OH226521   1.120   4.991   1.967 -0.2945 -0.2507  0.0260
 1677TIP3    H126522   1.117   4.907   2.013 -0.8511  0.9380  2.3323
 1677TIP3    H226523   1.185   5.042   2.015 -0.6812  0.9832 -0.7064
 1678TIP3   OH226524   1.555   5.287  16.406 -0.0644  0.0411 -0.3777
 1678TIP3    H126525   1.634   5.335  16.430  0.1772 -0.4138 -0.2536
 1678TIP3    H226526   1.572   5.256  16.317 -0.5641  0.8947 -0.7931
 1679TIP3   OH226527   1.321   4.729   1.064 -0.8061  0.2669  0.3838
 1679TIP3    H126528   1.306   4.781   0.985  0.1932 -2.0057 -1.4226
 1679TIP3    H226529   1.415   4.741   1.082 -1.0081  0.6943  1.2095
 1680TIP3   OH226530   0.124   5.271  12.794 -0.1974 -0.0130 -0.1310
 1680TIP3    H126531   0.172   5.307  12.869 -1.6702  0.9730  0.4019
 1680TIP3    H226532   0.180   5.202  12.760  1.4668  0.9111  0.5884
 1681TIP3   OH226533   1.240   3.244   2.045  0.1100  0.6517  0.4400
 1681TIP3    H126534   1.169   3.284   2.095 -0.7411  1.4745 -1.3538
 1681TIP3    H226535   1.312   3.307   2.053 -0.0686  0.8527  0.4734
 1682TIP3   OH226536   6.676   6.011   0.085  0.1783  0.2330  0.2137
 1682TIP3    H126537   6.612   5.946   0.114  0.2829  0.3734  0.7749
 1682TIP3    H226538   6.758   5.985   0.127  0.5277 -0.0015 -0.5776
 1683TIP3   OH226539   1.921   0.718  14.571 -0.7190  0.5566 -0.1527
 1683TIP3    H126540   1.955   0.801  14.603 -0.4157 -0.1796  1.5605
 1683TIP3    H226541   1.831   0.715  14.601 -1.2296  0.9188 -1.5660
 1684TIP3   OH226542   2.568   1.591  14.025  0.2510 -0.2317 -0.0904
 1684TIP3    H126543   2.523   1.659  14.075  1.3673 -1.0823  2.2274
 1684TIP3    H226544   2.629   1.551  14.088  2.2169 -0.9946 -2.3261
 1685TIP3   OH226545   0.545   6.363  10.580 -0.8399  0.1724  0.0313
 1685TIP3    H126546   0.506   6.279  10.604 -0.6675 -0.7379 -2.5137
 1685TIP3    H226547   0.626   6.368  10.630 -1.2045 -0.8295  0.7497
 1686TIP3   OH226548   5.945   1.775   1.413 -0.0560  0.2364  0.1005
 1686TIP3    H126549   5.906   1.795   1.328  0.2737  0.5285  0.0157
 1686TIP3    H226550   6.038   1.762   1.394  0.0395  0.4228  0.4313
 1687TIP3   OH226551   2.739   1.749   1.731  0.3026  0.4092  0.4544
 1687TIP3    H126552   2.690   1.831   1.718  1.4498  0.8531 -1.5715
 1687TIP3    H226553   2.722   1.699   1.652  2.3870  0.2178  0.0589
 1688TIP3   OH226554   5.887   2.200   5.682  0.0296 -0.6780 -0.0642
 1688TIP3    H126555   5.811   2.226   5.735  0.2915 -0.3559  0.1587
 1688TIP3    H226556   5.852   2.139   5.618 -1.1142  1.9798 -2.1935
 1689TIP3   OH226557   1.170   1.293  15.408  0.3493 -0.1609  0.2750
 1689TIP3    H126558   1.188   1.362  15.343  0.8338 -1.1330 -0.6557
 1689TIP3    H226559   1.253   1.248  15.419 -0.2003 -1.2800  0.0402
 1690TIP3   OH226560   6.450   3.686   4.284 -0.8376  0.1084 -0.2686
 1690TIP3    H126561   6.507   3.761   4.269 -1.2698  0.3820 -0.5935
 1690TIP3    H226562   6.509   3.611   4.287 -0.6217 -0.0233 -3.5755
 1691TIP3   OH226563   3.280   0.691  14.225 -0.5343  0.5980 -0.3401
 1691TIP3    H126564   3.373   0.693  14.251 -0.6521 -0.0575  0.1471
 1691TIP3    H226565   3.235   0.659  14.303 -1.0116 -0.4939 -1.0486
 1692TIP3   OH226566   5.206   6.636  12.919  0.3669 -0.0924 -0.2123
 1692TIP3    H126567   5.163   6.694  12.855  0.7326  1.0071  0.5025
 1692TIP3    H226568   5.153   6.644  12.998 -0.5713 -2.1008 -0.5790
 1693TIP3   OH226569   0.531   0.645   3.527 -0.3489 -0.0063  0.6865
 1693TIP3    H126570   0.446   0.678   3.497 -2.0870 -2.8394  2.0220
 1693TIP3    H226571   0.555   0.578   3.463 -0.5723 -1.1582  1.7584
 1694TIP3   OH226572   4.057   0.204  14.329  0.0740  0.1680 -0.1675
 1694TIP3    H126573   4.059   0.128  14.271 -0.6184  0.6532 -0.8466
 1694TIP3    H226574   4.059   0.279  14.270  0.1049  0.6736  0.4726
 1695TIP3   OH226575   6.035   4.196   1.152 -0.1824 -0.8889 -0.1030
 1695TIP3    H126576   6.000   4.285   1.156  0.1607 -0.6528 -1.5779
 1695TIP3    H226577   6.119   4.202   1.198 -0.7904 -0.8065  1.0342
 1696TIP3   OH226578   6.328   6.798   1.379 -0.1789 -1.2814  0.3127
 1696TIP3    H126579   6.294   6.744   1.450 -0.5792 -2.1687 -0.5263
 1696TIP3    H226580   6.253   6.849   1.349  0.2133 -0.1882  1.1434
 1697TIP3   OH226581   5.439   2.322  10.445 -0.4259 -0.3519  0.1306
 1697TIP3    H126582   5.505   2.276  10.393 -1.2545  0.9187 -2.2275
 1697TIP3    H226583   5.457   2.297  10.535  0.8269 -3.0949 -0.7759
 1698TIP3   OH226584   6.452   6.774  12.258  0.0035  0.7098 -0.2636
 1698TIP3    H126585   6.507   6.703  12.290  1.6484  1.1111 -2.0150
 1698TIP3    H226586   6.503   6.814  12.188 -1.8803  2.1370 -0.9019
 1699TIP3   OH226587   0.242   2.023   2.272 -0.8586 -0.3244  0.7322
 1699TIP3    H126588   0.264   2.033   2.365 -0.6203  0.9204  0.5605
 1699TIP3    H226589   0.156   2.063   2.264 -0.2555  0.8837  0.1555
 1700TIP3   OH226590   0.800   5.618  12.511  0.6077 -0.5136  0.0521
 1700TIP3    H126591   0.863   5.634  12.441  0.5442 -0.4522  0.0085
 1700TIP3    H226592   0.796   5.701  12.559 -0.2119 -0.1795 -0.5627
 1701TIP3   OH226593   5.166   6.119  11.259 -0.2451 -0.0124 -0.1474
 1701TIP3    H126594   5.098   6.065  11.298  0.6442 -0.2830  1.1115
 1701TIP3    H226595   5.220   6.146  11.333  0.3803  1.0961 -0.9829
 1702TIP3   OH226596   0.033   6.437  15.392 -0.9797 -0.1932 -0.8040
 1702TIP3    H126597   0.097   6.377  15.353 -0.0233  0.6655 -0.6243
 1702TIP3    H226598   0.005   6.493  15.320 -0.3002  0.4601 -0.5812
 1703TIP3   OH226599   2.780   4.358  11.707  0.4324 -0.1172  0.3761
 1703TIP3    H126600   2.742   4.275  11.676 -1.4011  0.9944 -0.5485
 1703TIP3    H226601   2.788   4.412  11.628 -0.7689  1.4346  1.2483
 1704TIP3   OH226602   5.953   3.002  14.405 -0.3870  0.2267  0.4264
 1704TIP3    H126603   5.984   2.911  14.403  0.2167  0.4349 -1.0014
 1704TIP3    H226604   5.916   3.016  14.318  0.5150  1.6810  0.2571
 1705TIP3   OH226605   6.603   0.818   1.385  0.5500 -0.2031 -0.1870
 1705TIP3    H126606   6.670   0.780   1.442 -0.5568 -0.6719  0.8479
 1705TIP3    H226607   6.554   0.744   1.351  0.1397  0.1574 -0.4008
 1706TIP3   OH226608   4.658   5.761  12.747 -0.3117  0.3823 -0.7154
 1706TIP3    H126609   4.580   5.765  12.691 -1.5583  2.3932  1.0215
 1706TIP3    H226610   4.649   5.679  12.795 -0.9388  0.2033 -1.1271
 1707TIP3   OH226611   6.196   6.556  14.441  0.7678  0.0592 -0.5368
 1707TIP3    H126612   6.178   6.495  14.369 -0.6276 -0.2895  0.0800
 1707TIP3    H226613   6.242   6.503  14.506  1.7658  0.3029 -1.0171
 1708TIP3   OH226614   3.753   6.341   3.493 -0.2546 -0.6097 -0.3487
 1708TIP3    H126615   3.718   6.261   3.532 -0.3282 -0.5173 -0.2239
 1708TIP3    H226616   3.823   6.311   3.435 -0.1353 -0.7437 -0.1338
 1709TIP3   OH226617   4.669   4.093   6.064  0.8150 -0.2544 -0.4410
 1709TIP3    H126618   4.679   4.176   6.111  0.7512 -0.0082 -0.8633
 1709TIP3    H226619   4.587   4.056   6.097  1.7427 -1.0412  1.1131
 1710TIP3   OH226620   6.525   4.308  16.761  0.4457 -0.2294  0.2771
 1710TIP3    H126621   6.565   4.350  16.685 -1.4329  0.0883 -0.5674
 1710TIP3    H226622   6.594   4.251  16.795  1.3628 -0.2985 -1.5931
 1711TIP3   OH226623   1.671   2.378  14.154 -0.4834  0.2369  0.2318
 1711TIP3    H126624   1.719   2.442  14.101 -2.2999  2.0567  0.6888
 1711TIP3    H226625   1.728   2.362  14.229 -0.4336  2.2236  0.6836
 1712TIP3   OH226626   4.549   3.997   5.677  0.0735 -0.8000  0.0079
 1712TIP3    H126627   4.616   4.063   5.663 -1.5995  1.6117  2.4158
 1712TIP3    H226628   4.598   3.916   5.691  2.3762  0.5158  0.0698
 1713TIP3   OH226629   6.254   3.697   1.069  0.1575  0.0898 -0.4673
 1713TIP3    H126630   6.169   3.671   1.034 -0.4988  0.9473  0.4207
 1713TIP3    H226631   6.258   3.655   1.155  0.0757  1.0032  0.0072
 1714TIP3   OH226632   6.217   4.208  15.117 -0.3521  0.4115 -0.5744
 1714TIP3    H126633   6.186   4.166  15.037 -1.1144  1.6585 -0.9664
 1714TIP3    H226634   6.223   4.301  15.094 -0.8432  0.8302  0.8843
 1715TIP3   OH226635   6.051   4.942   3.839 -0.0707  0.5945 -0.0747
 1715TIP3    H126636   6.048   4.945   3.935 -1.8129 -0.5551 -0.0597
 1715TIP3    H226637   6.094   5.024   3.814 -2.0807  2.2630  1.5922
 1716TIP3   OH226638   2.781   1.950   0.574  0.2219  0.4170  0.0858
 1716TIP3    H126639   2.729   1.960   0.494 -0.2240  1.9169  0.5365
 1716TIP3    H226640   2.725   1.984   0.644  1.0125  0.1102  0.8845
 1717TIP3   OH226641   4.696   2.571  13.781 -0.3783  0.1745 -0.1297
 1717TIP3    H126642   4.603   2.560  13.799 -0.1681  0.4288  1.2108
 1717TIP3    H226643   4.726   2.634  13.847  1.1421 -1.4425  0.8287
 1718TIP3   OH226644   1.926   3.836  13.472 -0.0877  0.0988  0.1218
 1718TIP3    H126645   1.976   3.756  13.455  0.1634  0.6258 -1.8838
 1718TIP3    H226646   1.922   3.880  13.387 -0.1695  2.2519  1.1812
 1719TIP3   OH226647   1.102   0.618  16.364  0.4755 -0.1186  0.2901
 1719TIP3    H126648   1.167   0.611  16.294 -0.6501  0.9445 -0.8934
 1719TIP3    H226649   1.078   0.710  16.365  0.4079 -0.1263  2.0551
 1720TIP3   OH226650   2.386   2.313  15.717 -0.7491  0.2053  0.9975
 1720TIP3    H126651   2.334   2.344  15.643 -0.7016  2.1968  1.7425
 1720TIP3    H226652   2.322   2.271  15.775 -0.6320 -2.3846 -0.5861
 1721TIP3   OH226653   6.136   1.182   3.975  0.1236 -0.6747 -0.2003
 1721TIP3    H126654   6.169   1.096   3.949  2.0222  0.4008 -1.5451
 1721TIP3    H226655   6.087   1.214   3.899  0.6428  0.0057 -0.2633
 1722TIP3   OH226656   2.827   3.770  16.060 -0.1521 -0.3790 -0.2789
 1722TIP3    H126657   2.748   3.727  16.026 -0.0004 -0.0404 -1.0826
 1722TIP3    H226658   2.862   3.818  15.986  0.0729  0.5684  0.4234
 1723TIP3   OH226659   6.475   0.646   6.358  0.1733  0.3303  0.0593
 1723TIP3    H126660   6.403   0.618   6.415 -1.4626  0.0957 -1.9961
 1723TIP3    H226661   6.545   0.671   6.419 -1.8113  1.1470  2.1806
 1724TIP3   OH226662   5.733   1.618   2.555  0.2238  0.4388  0.0756
 1724TIP3    H126663   5.805   1.629   2.493 -0.7562  4.2861 -0.6223
 1724TIP3    H226664   5.768   1.648   2.638  0.7897 -2.4006  0.9568
 1725TIP3   OH226665   2.528   6.244   2.737 -0.4539 -0.4216  0.1886
 1725TIP3    H126666   2.437   6.213   2.733 -0.4510 -0.4975  0.7232
 1725TIP3    H226667   2.571   6.201   2.663 -1.0403  0.2346 -0.5500
 1726TIP3   OH226668   6.601   2.951   4.871  0.0386 -0.4391 -0.1063
 1726TIP3    H126669   6.619   3.004   4.793  0.7802 -0.2652  0.1665
 1726TIP3    H226670   6.622   2.862   4.845  2.5686 -0.1164  0.5247
 1727TIP3   OH226671   1.625   0.607   4.054 -0.5219  0.0461  0.3402
 1727TIP3    H126672   1.545   0.631   4.006  0.0961  0.5427 -0.4588
 1727TIP3    H226673   1.676   0.688   4.059 -0.0261 -0.2874  0.7613
 1728TIP3   OH226674   0.585   4.189   1.375  0.2077  0.4508 -0.1368
 1728TIP3    H126675   0.678   4.165   1.371  0.0181 -0.3277  0.0006
 1728TIP3    H226676   0.567   4.227   1.289  0.3018 -0.7461 -0.7153
 1729TIP3   OH226677   4.614   2.941  11.149  0.3403  0.9971 -0.1247
 1729TIP3    H126678   4.617   2.971  11.058  1.3496 -1.2948 -0.9156
 1729TIP3    H226679   4.684   2.876  11.156 -0.3153  0.4194  2.0421
 1730TIP3   OH226680   3.046   3.860  14.692 -0.1113  0.4283  0.2744
 1730TIP3    H126681   3.031   3.874  14.786  0.0393  1.0590  0.2084
 1730TIP3    H226682   3.094   3.937  14.663  1.3335 -0.5173  0.0184
 1731TIP3   OH226683   2.846   6.596  15.957 -0.1219 -0.4832  0.4960
 1731TIP3    H126684   2.775   6.533  15.970 -0.6102 -0.3630 -1.2576
 1731TIP3    H226685   2.808   6.663  15.899  1.0511  0.2321  0.5256
 1732TIP3   OH226686   2.630   0.773   2.049  0.3015 -0.4030 -0.1659
 1732TIP3    H126687   2.571   0.760   2.123  0.1483 -0.2612 -0.2640
 1732TIP3    H226688   2.573   0.774   1.973  0.2576  1.2318 -0.1341
 1733TIP3   OH226689   6.456   0.866   6.157 -0.3714 -0.5856  0.1818
 1733TIP3    H126690   6.529   0.927   6.147 -2.6968  2.6187  0.9730
 1733TIP3    H226691   6.483   0.808   6.229  0.8042  1.5352  1.5587
 1734TIP3   OH226692   5.109   2.086   1.414  0.4399 -0.5434  0.1770
 1734TIP3    H126693   5.184   2.135   1.379  0.8512 -0.8679  0.5866
 1734TIP3    H226694   5.039   2.100   1.350  0.9320 -0.4619 -0.3514
 1735TIP3   OH226695   5.972   1.811   0.371 -0.4339  0.7785 -0.0337
 1735TIP3    H126696   5.954   1.823   0.278  1.1856  1.7974 -0.2481
 1735TIP3    H226697   6.017   1.891   0.397  1.2715 -0.4739  1.0545
 1736TIP3   OH226698   6.472   2.031   3.610 -0.3868 -0.3827 -0.1117
 1736TIP3    H126699   6.463   2.018   3.515 -1.0140  1.4749 -0.3514
 1736TIP3    H226700   6.382   2.039   3.641 -0.1401  1.9883  0.1337
 1737TIP3   OH226701   2.783   2.074  17.009  0.8393  0.0074  0.3045
 1737TIP3    H126702   2.700   2.052  16.967  1.1172 -1.1151  0.3183
 1737TIP3    H226703   2.761   2.144  17.070 -0.4670 -1.4576  1.5922
 1738TIP3   OH226704   0.820   5.278   4.612  1.0430  0.2098 -0.2415
 1738TIP3    H126705   0.752   5.331   4.654  2.0122 -0.8182  2.8475
 1738TIP3    H226706   0.846   5.330   4.535 -3.7915  0.2013 -2.2310
 1739TIP3   OH226707   5.340   2.648   1.346  0.0453 -0.4345  0.1783
 1739TIP3    H126708   5.261   2.699   1.326 -0.4670 -1.3739 -0.2568
 1739TIP3    H226709   5.370   2.617   1.261  0.2222 -1.0459  0.4607
 1740TIP3   OH226710   2.586   4.511  11.465 -0.0661  0.2200 -0.0616
 1740TIP3    H126711   2.546   4.597  11.464 -1.0388 -0.1776  1.3758
 1740TIP3    H226712   2.539   4.463  11.533  0.1133 -1.6129 -1.1535
 1741TIP3   OH226713   1.192   3.882   0.961 -0.2985 -0.0276  0.3036
 1741TIP3    H126714   1.112   3.836   0.936  1.1008 -2.0799 -0.6201
 1741TIP3    H226715   1.233   3.907   0.878  2.2356 -3.0697  0.4544
 1742TIP3   OH226716   2.679   3.383  12.490 -0.6085 -0.1567  0.2092
 1742TIP3    H126717   2.696   3.450  12.423 -0.2226 -1.8243 -1.4699
 1742TIP3    H226718   2.762   3.336  12.498 -0.5195  0.2828  2.2498
 1743TIP3   OH226719   1.562   5.372  13.691  0.4870 -0.3034  0.1474
 1743TIP3    H126720   1.649   5.348  13.724 -0.2140 -1.2221  1.4397
 1743TIP3    H226721   1.578   5.444  13.631  2.0866 -0.0305  0.8463
 1744TIP3   OH226722   3.661   2.043   3.817 -0.3099 -0.3361 -0.1897
 1744TIP3    H126723   3.606   2.110   3.776 -0.2079 -0.9883 -1.4551
 1744TIP3    H226724   3.738   2.091   3.849 -0.8727  0.3430  0.1612
 1745TIP3   OH226725   5.635   3.535  11.341  0.5333  0.3661 -0.3339
 1745TIP3    H126726   5.573   3.566  11.407 -0.2007  0.6017 -1.1158
 1745TIP3    H226727   5.673   3.456  11.379  2.0168  1.8446  1.4538
 1746TIP3   OH226728   1.342   6.405  12.159  0.3868 -0.0851 -0.3419
 1746TIP3    H126729   1.436   6.419  12.158  0.2352  1.1817  0.1299
 1746TIP3    H226730   1.305   6.490  12.135 -0.6393 -0.0890  1.0481
 1747TIP3   OH226731   0.701   6.492  15.324  0.0098  0.1140  0.3124
 1747TIP3    H126732   0.607   6.480  15.338  0.2659 -2.7618  0.2414
 1747TIP3    H226733   0.742   6.434  15.389  1.5871 -1.2492 -1.7666
 1748TIP3   OH226734   3.915   0.735   4.399 -0.2312 -0.0350  0.4409
 1748TIP3    H126735   3.865   0.778   4.329 -0.5975  0.2692  0.8830
 1748TIP3    H226736   3.852   0.725   4.470  0.1496 -0.3122  0.7410
 1749TIP3   OH226737   0.140   0.545  10.889  0.2817 -0.1284 -0.0584
 1749TIP3    H126738   0.225   0.587  10.903 -0.8956  2.6271 -0.6183
 1749TIP3    H226739   0.076   0.604  10.929 -1.6719 -0.2514 -2.6932
 1750TIP3   OH226740   0.640   5.533   5.454 -0.4787 -0.3955  0.0780
 1750TIP3    H126741   0.697   5.520   5.529 -0.8135  1.4146  0.7045
 1750TIP3    H226742   0.556   5.561   5.492 -0.8115  0.0421 -0.9350
 1751TIP3   OH226743   1.259   3.030  13.231  0.2721  0.2738 -0.0906
 1751TIP3    H126744   1.230   2.997  13.145 -3.0071  0.5929  0.7434
 1751TIP3    H226745   1.193   2.996  13.292  1.8947  0.9921  2.1610
 1752TIP3   OH226746   5.426   3.567   3.097 -0.1559 -0.0351 -0.0784
 1752TIP3    H126747   5.346   3.544   3.144 -0.2734 -2.0449 -1.1467
 1752TIP3    H226748   5.395   3.605   3.015  0.0197  0.3321  0.0212
 1753TIP3   OH226749   6.373   0.728   5.954  0.0982  0.1135  0.0964
 1753TIP3    H126750   6.301   0.676   5.990  0.9906 -1.3458 -0.1170
 1753TIP3    H226751   6.405   0.779   6.028 -1.5804  1.3464  0.0308
 1754TIP3   OH226752   6.497   3.543  17.079 -0.5748  0.5188 -0.3615
 1754TIP3    H126753   6.503   3.450  17.054  0.9880  0.3650  0.4974
 1754TIP3    H226754   6.580   3.562  17.123 -0.7576  2.4138 -0.7564
 1755TIP3   OH226755   0.779   6.052   3.462 -0.2125 -0.4311  0.0241
 1755TIP3    H126756   0.788   6.147   3.449 -0.1218 -0.6366 -1.6212
 1755TIP3    H226757   0.865   6.017   3.440 -0.4277 -0.9628  0.0258
 1756TIP3   OH226758   1.559   4.250   3.376  0.5388  0.2834 -0.2244
 1756TIP3    H126759   1.596   4.170   3.414  0.8895  0.3969 -0.3217
 1756TIP3    H226760   1.548   4.309   3.451  0.3687  0.1755 -0.1660
 1757TIP3   OH226761   5.541   4.053   3.120  0.3014  0.2322  0.3290
 1757TIP3    H126762   5.587   4.128   3.158  0.0170  0.7440 -0.3075
 1757TIP3    H226763   5.547   4.067   3.025  1.3952 -1.2517  0.1487
 1758TIP3   OH226764   1.818   2.245   1.474 -0.6571 -0.0509  0.0641
 1758TIP3    H126765   1.769   2.192   1.537 -0.7504 -0.8341 -0.6512
 1758TIP3    H226766   1.840   2.184   1.404 -0.9435  0.8992 -0.8813
 1759TIP3   OH226767   0.782   0.462  16.303  0.4742  0.0672  0.4879
 1759TIP3    H126768   0.864   0.434  16.343  0.0545  1.0726  2.1526
 1759TIP3    H226769   0.780   0.557  16.317 -0.8192  0.1011  0.1721
 1760TIP3   OH226770   2.654   3.156   4.049 -0.3885 -0.3360  0.0014
 1760TIP3    H126771   2.742   3.176   4.082 -0.3311 -2.1716  1.1382
 1760TIP3    H226772   2.598   3.223   4.088 -0.0305 -1.3772  2.5252
 1761TIP3   OH226773   0.086   3.013  17.136  0.4152 -0.2241  0.0805
 1761TIP3    H126774   0.082   2.944  17.202 -0.5990 -1.0411 -0.8172
 1761TIP3    H226775   0.173   3.004  17.097  0.3332 -0.9104  0.0538
 1762TIP3   OH226776   2.476   1.802   1.447  0.4730 -0.3769 -0.0036
 1762TIP3    H126777   2.539   1.862   1.405 -0.9533 -0.4687 -2.4607
 1762TIP3    H226778   2.531   1.736   1.489  2.0517  1.5325  1.1466
 1763TIP3   OH226779   5.045   0.267  11.030  0.1705  0.1034  0.8007
 1763TIP3    H126780   5.019   0.351  11.069 -0.0889  0.0287  0.7957
 1763TIP3    H226781   5.054   0.285  10.937  0.3553  0.1815  0.8334
 1764TIP3   OH226782   2.518   1.536  14.872 -0.0612 -0.1075  0.0144
 1764TIP3    H126783   2.541   1.557  14.962 -0.2510  2.9176 -0.5615
 1764TIP3    H226784   2.602   1.522  14.828  0.0886 -0.2556  0.3469
 1765TIP3   OH226785   4.571   4.275   5.377 -0.0961 -0.7382  0.1227
 1765TIP3    H126786   4.591   4.284   5.284 -0.3802  1.1508  0.2084
 1765TIP3    H226787   4.654   4.293   5.421 -0.6466  1.6912  0.2981
 1766TIP3   OH226788   5.808   1.677   6.016 -0.6858 -0.5429  0.3025
 1766TIP3    H126789   5.866   1.676   5.940 -1.0192  0.5390  0.0084
 1766TIP3    H226790   5.760   1.760   6.008 -0.9304 -0.5481  1.5425
 1767TIP3   OH226791   5.934   2.659  13.256 -0.5466  0.6195 -0.3514
 1767TIP3    H126792   6.002   2.726  13.258 -0.4368  0.8658 -4.5007
 1767TIP3    H226793   5.902   2.660  13.166 -1.5216 -4.0118 -0.2840
 1768TIP3   OH226794   5.552   2.232   2.411 -0.7209 -0.7667  0.4062
 1768TIP3    H126795   5.471   2.229   2.361  0.0159  1.5148 -1.0863
 1768TIP3    H226796   5.601   2.154   2.384 -1.5681 -1.0965 -0.2004
 1769TIP3   OH226797   5.178   5.180  12.621 -0.4055  0.2395 -0.5225
 1769TIP3    H126798   5.094   5.134  12.627 -0.7304  0.9925  1.6172
 1769TIP3    H226799   5.222   5.160  12.703  0.9055  1.0347 -0.9932
 1770TIP3   OH226800   2.304   0.467  10.824  0.8912 -0.5277  0.2564
 1770TIP3    H126801   2.326   0.385  10.781 -0.0846 -0.6316 -0.0652
 1770TIP3    H226802   2.367   0.530  10.790  0.0846 -0.5840 -1.4220
 1771TIP3   OH226803   2.167   4.332   3.959 -0.2796 -0.5011 -0.3047
 1771TIP3    H126804   2.203   4.413   3.924 -0.7048  0.5559  1.5167
 1771TIP3    H226805   2.243   4.280   3.984  0.0876  0.9733  1.9263
 1772TIP3   OH226806   1.796   2.512   2.971  0.3939 -0.3906 -0.6028
 1772TIP3    H126807   1.815   2.447   2.903  0.4067  0.1706 -1.1475
 1772TIP3    H226808   1.807   2.596   2.927 -0.0311 -0.0220 -0.0195
 1773TIP3   OH226809   1.767   3.723  15.121 -0.4725 -0.0793  0.5045
 1773TIP3    H126810   1.738   3.750  15.209 -1.4640  1.1834 -0.1698
 1773TIP3    H226811   1.857   3.694  15.134 -0.6995 -0.2135  1.9974
 1774TIP3   OH226812   2.517   6.535   4.105 -0.2921  0.4499  0.1966
 1774TIP3    H126813   2.595   6.588   4.122  1.1707 -0.3729 -3.1438
 1774TIP3    H226814   2.444   6.591   4.128  1.2468  2.0540  1.4402
 1775TIP3   OH226815   5.014   1.804  15.142  0.1200  0.2209  0.0816
 1775TIP3    H126816   5.015   1.895  15.173 -0.3283  0.1947  0.1746
 1775TIP3    H226817   5.003   1.752  15.221  1.5154  0.0130  0.1713
 1776TIP3   OH226818   5.899   1.373   5.330  0.4566 -0.8189  0.0951
 1776TIP3    H126819   5.973   1.405   5.279  1.9618 -0.8310  2.1771
 1776TIP3    H226820   5.842   1.331   5.265  1.5823  0.3784 -1.7464
 1777TIP3   OH226821   3.170   5.426   5.745  0.3835 -0.2620  0.0014
 1777TIP3    H126822   3.181   5.416   5.839  1.6324 -0.0109 -0.1087
 1777TIP3    H226823   3.208   5.511   5.724 -1.0840  0.2987 -0.5594
 1778TIP3   OH226824   2.489   4.529   5.135  0.2268 -0.0789 -0.0635
 1778TIP3    H126825   2.563   4.470   5.121 -1.0358 -1.7635  0.0850
 1778TIP3    H226826   2.499   4.596   5.067  0.6765 -1.5272 -1.4895
 1779TIP3   OH226827   6.243   2.038  14.072  0.0536 -0.4767  0.3465
 1779TIP3    H126828   6.281   1.961  14.113  1.5547 -0.0242 -0.1514
 1779TIP3    H226829   6.222   2.010  13.983 -0.4824 -0.6314  0.5188
 1780TIP3   OH226830   5.903   2.467   6.422 -0.0398  0.8325  0.1639
 1780TIP3    H126831   5.962   2.395   6.445 -0.1778  0.2319 -1.2687
 1780TIP3    H226832   5.866   2.496   6.506  1.9168  0.9183  1.0473
 1781TIP3   OH226833   2.387   5.786   2.610  0.5656  1.2013 -0.0258
 1781TIP3    H126834   2.364   5.847   2.680  0.3834  0.0725  0.9182
 1781TIP3    H226835   2.323   5.715   2.617  1.4010  0.3896 -0.4493
 1782TIP3   OH226836   2.809   2.990   4.602 -0.2659  0.2463 -0.0829
 1782TIP3    H126837   2.727   2.979   4.554 -0.4633  0.2693  0.2462
 1782TIP3    H226838   2.795   3.068   4.656 -0.2850 -0.1541  0.4980
 1783TIP3   OH226839   2.773   6.707  15.076 -0.0580 -0.9142 -0.3224
 1783TIP3    H126840   2.734   6.747  15.153 -0.3116 -1.0803 -0.3634
 1783TIP3    H226841   2.782   6.615  15.099 -1.0837 -1.1648 -0.8628
 1784TIP3   OH226842   0.745   3.487  11.671  0.0003 -0.4656  0.2071
 1784TIP3    H126843   0.715   3.411  11.720 -0.9500 -0.3929 -0.2281
 1784TIP3    H226844   0.665   3.537  11.654  0.6499  0.8378  0.8288
 1785TIP3   OH226845   2.853   6.048   2.169 -0.3189  0.3795  0.1356
 1785TIP3    H126846   2.850   6.026   2.076 -0.5441 -2.8372  0.7620
 1785TIP3    H226847   2.947   6.052   2.190 -0.2604 -0.0790 -0.0260
 1786TIP3   OH226848   2.610   3.913  15.454 -0.0487 -0.4674  0.4683
 1786TIP3    H126849   2.640   3.849  15.390  0.9495 -0.7408  1.1774
 1786TIP3    H226850   2.583   3.989  15.402  3.7101  0.6136 -0.2687
 1787TIP3   OH226851   1.464   3.342  16.798  0.3071 -0.4595  0.2448
 1787TIP3    H126852   1.510   3.265  16.763  0.6856  0.0169 -0.3248
 1787TIP3    H226853   1.501   3.355  16.885 -1.2935 -2.2202  1.2812
 1788TIP3   OH226854   4.622   1.603   5.856 -0.4692  0.3349 -0.2246
 1788TIP3    H126855   4.609   1.591   5.950 -0.8674 -0.8168 -0.4072
 1788TIP3    H226856   4.579   1.527   5.816 -0.6352  1.0060 -1.3606
 1789TIP3   OH226857   1.109   1.935  17.012 -0.0774  0.4449 -0.0196
 1789TIP3    H126858   1.158   1.928  17.093 -0.6106  0.5298  0.3151
 1789TIP3    H226859   1.173   1.962  16.946  0.3078  0.5921  0.4180
 1790TIP3   OH226860   6.704   6.235  15.788 -0.2962  0.0098  0.3261
 1790TIP3    H126861   6.679   6.158  15.737 -1.5493  0.9909 -0.6111
 1790TIP3    H226862   6.797   6.223  15.806 -0.2757 -1.3082 -0.5227
 1791TIP3   OH226863   3.318   6.240   2.881  0.4649 -0.0418 -0.4204
 1791TIP3    H126864   3.271   6.319   2.855  1.4083  0.9760  0.8149
 1791TIP3    H226865   3.313   6.182   2.805 -1.5667  0.5593 -0.8087
 1792TIP3   OH226866   5.428   2.319   2.153 -0.0529 -0.2607  0.2624
 1792TIP3    H126867   5.365   2.384   2.182 -1.5527 -1.5902  0.1332
 1792TIP3    H226868   5.513   2.364   2.156 -0.8475  1.2442  1.4955
 1793TIP3   OH226869   2.042   6.606   4.301  0.0639  0.1633  0.0032
 1793TIP3    H126870   2.083   6.568   4.223  0.5105  0.0388  0.2949
 1793TIP3    H226871   2.029   6.531   4.359  1.6389  0.5425  0.8938
 1794TIP3   OH226872   1.168   2.830   1.781 -0.1759  0.2537  0.4564
 1794TIP3    H126873   1.111   2.766   1.738 -1.2846  0.4650  1.5498
 1794TIP3    H226874   1.135   2.915   1.750  0.8044  0.3374 -0.4008
 1795TIP3   OH226875   5.474   3.112  14.322 -0.3576 -0.3425 -0.0089
 1795TIP3    H126876   5.553   3.060  14.308  1.4706  2.1021  0.4987
 1795TIP3    H226877   5.446   3.136  14.233 -0.4739 -1.1365 -0.1925
 1796TIP3   OH226878   2.462   1.553   2.172 -0.3856 -0.4719  0.0816
 1796TIP3    H126879   2.529   1.488   2.194  0.1135 -0.5948 -1.6602
 1796TIP3    H226880   2.505   1.612   2.110 -1.1487  0.9393  0.8486
 1797TIP3   OH226881   3.890   2.975  15.269 -0.1296 -0.2615 -0.3016
 1797TIP3    H126882   3.834   2.904  15.241 -0.6687 -0.9642  2.2541
 1797TIP3    H226883   3.965   2.973  15.209  0.4475 -3.7593  0.3459
 1798TIP3   OH226884   0.188   4.160  11.629  0.2395  0.3361  0.5155
 1798TIP3    H126885   0.104   4.116  11.638  0.0893  0.7902  1.5542
 1798TIP3    H226886   0.194   4.184  11.536 -0.0688 -1.0449  0.1276
 1799TIP3   OH226887   4.234   0.185   5.668  0.3291 -0.2991 -0.1197
 1799TIP3    H126888   4.217   0.125   5.596 -0.1515  1.5696 -1.6555
 1799TIP3    H226889   4.204   0.270   5.636  3.8168  1.4086  0.6937
 1800TIP3   OH226890   4.690   0.973   6.181 -0.0706  0.4916 -0.0664
 1800TIP3    H126891   4.613   1.024   6.154 -1.0413 -0.5732  0.5869
 1800TIP3    H226892   4.684   0.970   6.276 -0.3421 -1.2700 -0.1114
 1801TIP3   OH226893   1.864   1.819   2.203 -0.1513 -0.0083  0.4358
 1801TIP3    H126894   1.795   1.838   2.140 -0.9442 -2.1896  0.5519
 1801TIP3    H226895   1.828   1.844   2.288 -0.6812 -0.7850  0.4516
 1802TIP3   OH226896   1.984   5.429  11.314 -0.0418 -0.3264  0.4475
 1802TIP3    H126897   1.922   5.501  11.321 -1.1595 -1.3379  1.6230
 1802TIP3    H226898   1.984   5.406  11.221  2.7877  3.1486 -0.6561
 1803TIP3   OH226899   0.482   6.686   0.724  0.5385 -0.1358 -0.2695
 1803TIP3    H126900   0.524   6.738   0.793  1.3267 -0.5604 -0.4121
 1803TIP3    H226901   0.496   6.737   0.644 -2.4832  1.5808  0.1561
 1804TIP3   OH226902   1.436   4.199  16.999  0.4326  0.4507  0.3357
 1804TIP3    H126903   1.477   4.249  16.928  1.9811  2.0780  2.2591
 1804TIP3    H226904   1.346   4.233  17.002  0.7913  1.4774  0.1024
 1805TIP3   OH226905   5.822   5.875   3.413  0.5316 -0.4428  0.2538
 1805TIP3    H126906   5.862   5.816   3.350  0.3495  0.9453 -1.2183
 1805TIP3    H226907   5.733   5.841   3.424  0.2864 -0.2161 -0.9184
 1806TIP3   OH226908   1.375   0.744   0.724  0.0596  0.3468  0.0256
 1806TIP3    H126909   1.418   0.659   0.734 -0.9201 -0.0750  0.8273
 1806TIP3    H226910   1.315   0.732   0.650 -1.5953 -0.3566  1.3930
 1807TIP3   OH226911   5.040   1.672   3.467 -0.2071  0.2326  0.7158
 1807TIP3    H126912   5.115   1.694   3.523  1.0826  0.7207 -1.0966
 1807TIP3    H226913   5.030   1.578   3.477 -0.6976  0.4374  2.5369
 1808TIP3   OH226914   1.040   1.161   4.235 -0.7763 -0.2338 -0.3057
 1808TIP3    H126915   1.054   1.238   4.181  0.0233 -0.3362 -0.2594
 1808TIP3    H226916   0.972   1.111   4.189 -1.3933  0.5499 -0.2629
 1809TIP3   OH226917   6.020   6.103   4.831 -0.4415  0.1747 -0.7292
 1809TIP3    H126918   5.929   6.096   4.860  0.2692  2.1251  2.6117
 1809TIP3    H226919   6.030   6.195   4.806  0.8609  0.3133  0.1947
 1810TIP3   OH226920   5.005   5.384  13.030  0.2179 -0.6720 -0.1732
 1810TIP3    H126921   5.080   5.388  13.090 -0.9503  1.9563  1.3059
 1810TIP3    H226922   5.037   5.429  12.951 -0.0512  1.5387  0.8935
 1811TIP3   OH226923   5.911   0.998   5.931 -0.1828 -0.2003 -0.2136
 1811TIP3    H126924   5.983   0.938   5.908 -0.6289  0.4177 -3.6545
 1811TIP3    H226925   5.955   1.081   5.952  0.1796 -0.1255 -1.2321
 1812TIP3   OH226926   1.476   2.320   0.078  0.1018  0.4526 -0.6019
 1812TIP3    H126927   1.507   2.389   0.020  0.1218 -0.0080 -1.1472
 1812TIP3    H226928   1.491   2.239   0.030 -0.1240  0.0794 -0.0601
 1813TIP3   OH226929   1.091   5.189   2.985  0.2889  0.7214  0.3994
 1813TIP3    H126930   0.997   5.207   2.986 -0.5988 -3.1566  0.0672
 1813TIP3    H226931   1.105   5.131   3.060  1.8243 -1.1129 -1.2218
 1814TIP3   OH226932   5.739   0.576   4.626 -0.2885  0.4379  0.1181
 1814TIP3    H126933   5.727   0.536   4.541  0.6604  0.6681 -0.1273
 1814TIP3    H226934   5.769   0.505   4.683  2.5760  0.9626 -0.5951
 1815TIP3   OH226935   0.867   6.816   1.461 -0.0221 -0.1841 -0.3082
 1815TIP3    H126936   0.790   6.865   1.430 -0.5233 -1.0628 -0.4734
 1815TIP3    H226937   0.838   6.775   1.542  0.9377  1.1829  0.7664
 1816TIP3   OH226938   2.725   2.806   1.031  0.0480  0.1659 -0.4568
 1816TIP3    H126939   2.663   2.782   1.100  0.9517  0.0528  0.3378
 1816TIP3    H226940   2.736   2.901   1.040  1.2921 -0.0574  0.5367
 1817TIP3   OH226941   5.784   1.745   0.691 -0.0407  0.4375  0.9745
 1817TIP3    H126942   5.868   1.778   0.658 -0.5002  2.0199  1.3049
 1817TIP3    H226943   5.794   1.650   0.692  0.7704  0.4119 -1.6608
 1818TIP3   OH226944   2.129   4.421  11.789  0.4042 -0.0625  0.0415
 1818TIP3    H126945   2.081   4.477  11.729  1.4638  0.8969  0.0555
 1818TIP3    H226946   2.143   4.340  11.740  2.6261  1.2454 -1.7190
 1819TIP3   OH226947   3.346   3.379   1.849  0.0915 -0.0037  0.2354
 1819TIP3    H126948   3.257   3.353   1.871  0.0607  0.6277  0.8762
 1819TIP3    H226949   3.359   3.462   1.895  0.5913  0.5196 -0.8158
 1820TIP3   OH226950   5.401   1.648  11.551  0.8615  0.0652 -0.0065
 1820TIP3    H126951   5.482   1.630  11.503  0.5670  0.2098 -0.5597
 1820TIP3    H226952   5.412   1.738  11.583  1.2286 -0.1713  0.5501
 1821TIP3   OH226953   3.031   0.599   3.687  0.2907 -0.2152  0.4663
 1821TIP3    H126954   3.093   0.629   3.620 -1.1208 -0.9588 -1.2519
 1821TIP3    H226955   2.988   0.679   3.717  3.2711  0.5995  3.1064
 1822TIP3   OH226956   3.628   0.686  12.766  0.0029 -0.2249 -0.4223
 1822TIP3    H126957   3.550   0.677  12.820 -0.1231  0.2397 -0.5246
 1822TIP3    H226958   3.701   0.681  12.829 -0.1070 -0.5954 -0.3205
 1823TIP3   OH226959   1.706   2.873   0.444  0.9012 -0.0530 -0.1079
 1823TIP3    H126960   1.695   2.783   0.476 -0.3225 -0.4941 -1.6359
 1823TIP3    H226961   1.745   2.863   0.357  1.0045  0.9118 -0.1828
 1824TIP3   OH226962   3.954   2.143   2.474  0.3847  0.3737 -0.0137
 1824TIP3    H126963   3.950   2.056   2.514  2.1118  0.9963  1.6759
 1824TIP3    H226964   4.018   2.191   2.528  2.0419  1.6423 -2.8966
 1825TIP3   OH226965   2.523   1.876  15.841  0.0547 -0.6910  0.5080
 1825TIP3    H126966   2.569   1.792  15.842  1.9196  0.2937  1.5064
 1825TIP3    H226967   2.548   1.918  15.923 -0.1628  1.2106 -0.3488
 1826TIP3   OH226968   0.125   0.165   3.046 -0.3506  0.8851 -0.0033
 1826TIP3    H126969   0.204   0.114   3.027  0.6784  2.5360 -0.3410
 1826TIP3    H226970   0.078   0.112   3.110  0.5073 -0.6180 -0.5421
 1827TIP3   OH226971   5.899   2.680  14.426  0.2094  0.4727  0.1645
 1827TIP3    H126972   5.887   2.651  14.517  1.3865 -1.2402 -0.1913
 1827TIP3    H226973   5.832   2.632  14.377  1.7796 -1.2786 -0.3415
 1828TIP3   OH226974   4.069   1.094  17.078  0.3528  0.5462  0.0719
 1828TIP3    H126975   4.107   1.062  16.996  0.6682  1.6411 -0.2277
 1828TIP3    H226976   4.034   1.180  17.056  1.9571  1.6155  1.4733
 1829TIP3   OH226977   3.398   5.927  13.224  0.0854 -0.2382 -0.3140
 1829TIP3    H126978   3.432   5.963  13.306  0.2522  0.0282 -0.4984
 1829TIP3    H226979   3.468   5.942  13.161  0.9054 -2.4707 -0.0139
 1830TIP3   OH226980   5.711   4.276  16.084  0.4683 -0.0395  1.0913
 1830TIP3    H126981   5.676   4.314  16.164 -0.6806  1.3133 -0.0132
 1830TIP3    H226982   5.766   4.344  16.046 -1.1523  0.4172 -0.6168
 1831TIP3   OH226983   3.176   2.479  13.336  0.1085 -1.2195 -0.3413
 1831TIP3    H126984   3.155   2.498  13.427 -0.1404 -0.2039 -0.5990
 1831TIP3    H226985   3.157   2.386  13.326  2.0156 -1.8529  1.1608
 1832TIP3   OH226986   1.046   5.145  13.577 -0.0012  0.3453 -0.4175
 1832TIP3    H126987   1.111   5.176  13.513  0.6130  1.0011  0.4913
 1832TIP3    H226988   1.093   5.080  13.629 -0.3240  0.2242 -0.2758
 1833TIP3   OH226989   1.918   6.374  14.097  0.5788 -0.4659  0.6065
 1833TIP3    H126990   1.966   6.456  14.089 -1.4319  0.6716 -0.6884
 1833TIP3    H226991   1.859   6.373  14.022 -2.3848 -1.0812  2.7651
 1834TIP3   OH226992   1.107   0.089  13.510 -0.9555 -0.1457  0.2349
 1834TIP3    H126993   1.202   0.092  13.520 -0.6374  0.1244 -2.2452
 1834TIP3    H226994   1.074   0.154  13.571  0.6201  1.2159 -0.3083
 1835TIP3   OH226995   5.805   1.419  13.518  0.2316 -0.2660  0.0645
 1835TIP3    H126996   5.758   1.493  13.554 -0.6587 -1.4007  1.2963
 1835TIP3    H226997   5.879   1.458  13.472 -0.1318  1.3699  0.8124
 1836TIP3   OH226998   3.972   4.116   0.014  0.6829  0.5547 -0.0888
 1836TIP3    H126999   3.887   4.072   0.010  0.0722  1.7487 -1.6887
 1836TIP3    H227000   4.001   4.106   0.105 -0.7206 -0.6891  0.2536
 1837TIP3   OH227001   1.150   2.139  13.541  0.5628  0.2983 -1.0084
 1837TIP3    H127002   1.187   2.223  13.570 -0.5589  0.7515 -0.8638
 1837TIP3    H227003   1.185   2.075  13.602  1.0278  0.7333 -0.8109
 1838TIP3   OH227004   0.362   5.184   3.627 -0.3874 -0.0777  0.0291
 1838TIP3    H127005   0.330   5.118   3.688 -0.3132 -0.2822 -0.1533
 1838TIP3    H227006   0.387   5.135   3.549 -1.7941  0.3350 -0.7036
 1839TIP3   OH227007   5.635   4.705  10.869 -0.3397 -0.4063  0.0347
 1839TIP3    H127008   5.702   4.738  10.929 -1.0575  0.3479  0.4602
 1839TIP3    H227009   5.664   4.617  10.846  0.7418 -0.1287  0.2714
 1840TIP3   OH227010   0.846   6.270  13.599  0.1619 -0.3282 -0.2270
 1840TIP3    H127011   0.882   6.211  13.665 -1.8744 -1.1133  0.2460
 1840TIP3    H227012   0.911   6.340  13.592  1.2772 -1.1563  1.2793
 1841TIP3   OH227013   2.753   4.886   1.679  0.2086 -0.0983  0.2337
 1841TIP3    H127014   2.766   4.838   1.761 -1.5207 -0.2030  0.4659
 1841TIP3    H227015   2.758   4.978   1.704 -2.3182 -0.0801  0.8648
 1842TIP3   OH227016   3.307   2.986   4.842  0.4521  0.2120 -0.7946
 1842TIP3    H127017   3.356   2.904   4.845 -0.0613 -0.0628  0.6102
 1842TIP3    H227018   3.223   2.965   4.883  0.2851  1.4198 -0.4924
 1843TIP3   OH227019   6.090   2.217  15.176  0.0214 -0.1335 -0.0164
 1843TIP3    H127020   6.090   2.123  15.191 -1.5768  0.0638  1.4992
 1843TIP3    H227021   5.998   2.239  15.160  0.2049  1.3043  0.7000
 1844TIP3   OH227022   6.406   0.926  15.817  0.3204 -0.2394 -0.5522
 1844TIP3    H127023   6.312   0.910  15.821 -0.0042  1.6340  1.1413
 1844TIP3    H227024   6.441   0.883  15.896  0.6353  0.3133 -0.3794
 1845TIP3   OH227025   2.752   5.782   5.330  0.7343 -0.0857 -0.0278
 1845TIP3    H127026   2.751   5.811   5.421  1.7593 -0.5380  0.1375
 1845TIP3    H227027   2.719   5.693   5.332 -1.2343  0.5679 -0.3867
 1846TIP3   OH227028   5.691   1.637  11.704 -0.3226 -0.3296 -0.3382
 1846TIP3    H127029   5.628   1.709  11.709 -1.4561 -1.2730 -0.4571
 1846TIP3    H227030   5.745   1.647  11.782 -0.5281  0.5715 -0.2960
 1847TIP3   OH227031   4.071   5.770  14.438  0.1871 -0.0337 -0.4625
 1847TIP3    H127032   4.076   5.748  14.531  0.3518  0.0791 -0.4450
 1847TIP3    H227033   3.977   5.776  14.421  0.1580  0.1325 -0.2586
 1848TIP3   OH227034   0.442   0.957  16.874  0.2330 -0.3923 -0.1632
 1848TIP3    H127035   0.395   0.874  16.864  1.0298 -0.9890  0.9148
 1848TIP3    H227036   0.528   0.932  16.908  0.5158  0.8663  0.0798
 1849TIP3   OH227037   6.264   2.758  15.137  0.3929 -0.3099  0.6449
 1849TIP3    H127038   6.216   2.691  15.187 -3.1780  0.8654 -0.8626
 1849TIP3    H227039   6.251   2.732  15.046  0.7633  1.2828  0.1127
 1850TIP3   OH227040   4.326   5.776  13.054 -0.0166 -0.1326  0.4265
 1850TIP3    H127041   4.338   5.863  13.091 -0.9608  1.1593 -2.0545
 1850TIP3    H227042   4.406   5.729  13.076  0.5295  1.3451  1.8016
 1851TIP3   OH227043   0.082   5.265  10.840  0.2101  0.0087 -0.5124
 1851TIP3    H127044   0.036   5.329  10.785 -0.0699  1.9821  1.8333
 1851TIP3    H227045   0.013   5.227  10.894  0.7995  0.0190  0.2548
 1852TIP3   OH227046   0.602   6.233   5.274 -0.5486 -0.4690  0.1141
 1852TIP3    H127047   0.691   6.209   5.301 -0.9068 -1.5049  0.4225
 1852TIP3    H227048   0.583   6.175   5.200 -0.4734  0.7031 -0.8730
 1853TIP3   OH227049   6.417   0.697  14.391 -0.3392 -0.1031 -0.1319
 1853TIP3    H127050   6.337   0.681  14.441  0.0683  2.0133  1.3628
 1853TIP3    H227051   6.453   0.777  14.429  1.8975 -0.3517 -1.5334
 1854TIP3   OH227052   0.229   4.158  16.913  0.9105  0.1565 -0.1762
 1854TIP3    H127053   0.175   4.128  16.840  0.1662 -1.7806  1.1072
 1854TIP3    H227054   0.232   4.084  16.973  1.8839  1.5338  1.5625
 1855TIP3   OH227055   3.719   5.668   0.934 -0.2670  0.1494 -0.1469
 1855TIP3    H127056   3.650   5.701   0.875 -0.3027  1.0988  0.4000
 1855TIP3    H227057   3.671   5.632   1.009 -0.2041 -0.4598 -0.3988
 1856TIP3   OH227058   2.091   4.399   1.104 -0.2958  1.1113  1.0914
 1856TIP3    H127059   2.157   4.356   1.050 -0.1927  2.3578  0.1804
 1856TIP3    H227060   2.015   4.342   1.101 -0.1170  0.9136  0.0358
 1857TIP3   OH227061   3.896   1.486  11.783  0.2104 -0.0160 -0.3815
 1857TIP3    H127062   3.842   1.426  11.731  3.2714 -1.0586 -2.6473
 1857TIP3    H227063   3.850   1.570  11.776 -1.3474 -0.9009 -1.7937
 1858TIP3   OH227064   5.301   1.312  11.454 -0.2140 -0.2201 -0.3752
 1858TIP3    H127065   5.303   1.254  11.378  1.4008 -0.4233 -0.2037
 1858TIP3    H227066   5.239   1.381  11.429 -0.8295 -1.0600 -1.2712
 1859TIP3   OH227067   6.010   3.592  13.830 -0.6014  0.1092  0.1445
 1859TIP3    H127068   6.102   3.579  13.810 -0.9315 -1.0514 -0.7770
 1859TIP3    H227069   5.967   3.513  13.796 -2.3398  1.9875 -2.3970
 1860TIP3   OH227070   4.154   1.254   3.062 -0.2368 -0.0993 -0.2078
 1860TIP3    H127071   4.093   1.181   3.054  0.4858 -0.7141 -0.2304
 1860TIP3    H227072   4.106   1.329   3.028 -0.5965 -0.7865 -1.2725
 1861TIP3   OH227073   6.430   6.665   0.654  0.1471  0.2300 -0.1314
 1861TIP3    H127074   6.466   6.615   0.727  0.6576  1.4883  0.5125
 1861TIP3    H227075   6.342   6.691   0.684 -0.3593 -0.7468 -0.7062
 1862TIP3   OH227076   6.007   6.628   4.754 -0.3861 -0.6049 -0.4653
 1862TIP3    H127077   6.076   6.693   4.736 -1.6852  1.2739  0.9053
 1862TIP3    H227078   5.925   6.676   4.740 -1.3897 -1.6137  1.5748
 1863TIP3   OH227079   2.173   4.724   4.674  0.4624  0.7052 -0.8528
 1863TIP3    H127080   2.095   4.765   4.710  1.5572  1.3473  0.9595
 1863TIP3    H227081   2.201   4.783   4.603  1.2964  2.5488  0.8843
 1864TIP3   OH227082   0.277   4.932   4.820  0.6645 -0.0802  0.0196
 1864TIP3    H127083   0.226   4.975   4.888 -0.6428  0.0520 -1.0120
 1864TIP3    H227084   0.362   4.977   4.821  0.4977  0.2423  1.2070
 1865TIP3   OH227085   0.075   2.745  16.885 -0.0971 -0.3123  0.4862
 1865TIP3    H127086   0.103   2.717  16.797  1.0990 -1.7528  1.2890
 1865TIP3    H227087   0.115   2.831  16.896 -0.1607 -0.1651 -0.3294
 1866TIP3   OH227088   4.754   5.910  13.133 -0.1274 -0.2288  0.3807
 1866TIP3    H127089   4.798   5.826  13.126 -1.5649 -0.9324 -0.6485
 1866TIP3    H227090   4.800   5.967  13.071  0.4409 -0.4196  0.6200
 1867TIP3   OH227091   4.356   4.139  14.213 -0.1679  0.2134 -0.7955
 1867TIP3    H127092   4.318   4.118  14.128 -1.5760  1.4075 -0.4988
 1867TIP3    H227093   4.340   4.233  14.224 -1.5459 -0.2184  1.5128
 1868TIP3   OH227094   0.097   5.842  11.475  0.5183  0.1686  0.6484
 1868TIP3    H127095   0.069   5.877  11.390 -2.7173  0.7902  1.8005
 1868TIP3    H227096   0.124   5.920  11.525  1.0842 -0.0229  0.6454
 1869TIP3   OH227097   2.046   0.882  17.123 -0.0993 -0.0754 -0.2964
 1869TIP3    H127098   2.131   0.898  17.164 -0.4591  0.3919  0.2952
 1869TIP3    H227099   2.052   0.794  17.087  0.2121 -0.5243  0.8251
 1870TIP3   OH227100   4.957   1.127   5.035  0.1772  0.1080 -0.4026
 1870TIP3    H127101   4.886   1.147   5.096 -0.9130  1.0047 -1.9263
 1870TIP3    H227102   4.949   1.033   5.018 -0.1153  0.0476  0.0458
 1871TIP3   OH227103   3.837   5.861   6.412  0.4562 -0.3363 -0.6149
 1871TIP3    H127104   3.775   5.933   6.403  0.5968 -0.1172  0.1476
 1871TIP3    H227105   3.923   5.902   6.407  0.5420 -0.3334  0.5751
 1872TIP3   OH227106   5.760   2.515   4.369 -0.2760 -0.1788 -0.0843
 1872TIP3    H127107   5.798   2.583   4.313  1.2783 -0.4876  0.5250
 1872TIP3    H227108   5.681   2.486   4.323  0.3191  0.4012 -1.5127
 1873TIP3   OH227109   4.027   1.371  14.534  0.0611  0.0415 -0.3888
 1873TIP3    H127110   4.092   1.369  14.604 -0.0993 -2.9151 -0.2112
 1873TIP3    H227111   3.949   1.331  14.573 -0.9756  0.9818 -1.4232
 1874TIP3   OH227112   6.534   6.314  13.081 -0.5663 -0.2455  0.2051
 1874TIP3    H127113   6.467   6.382  13.083  1.3342  1.7114  0.6856
 1874TIP3    H227114   6.589   6.338  13.007  0.8064 -0.5859  1.0915
 1875TIP3   OH227115   3.057   0.529  11.262 -0.3364  0.4950  0.3946
 1875TIP3    H127116   2.970   0.568  11.271 -0.4190 -0.0002  1.8786
 1875TIP3    H227117   3.041   0.437  11.241 -0.1622  0.3767  0.7861
 1876TIP3   OH227118   0.531   2.204   5.128 -0.3649 -0.0008  0.4119
 1876TIP3    H127119   0.565   2.286   5.164  1.8334  1.0491 -3.4737
 1876TIP3    H227120   0.602   2.141   5.141 -0.0060  0.0990 -0.9924
 1877TIP3   OH227121   4.833   4.607  14.541 -0.0072  0.1369 -0.1064
 1877TIP3    H127122   4.866   4.529  14.587  0.4779 -0.4299 -1.3815
 1877TIP3    H227123   4.744   4.619  14.576 -0.4703 -1.5780 -0.5900
 1878TIP3   OH227124   1.229   0.734  16.693  0.2851 -0.2641  0.4038
 1878TIP3    H127125   1.248   0.656  16.641 -0.1450 -0.6054  0.7447
 1878TIP3    H227126   1.160   0.780  16.644  1.9722  1.0179 -0.8801
 1879TIP3   OH227127   0.344   6.049  11.400  0.1795  0.1609  0.2832
 1879TIP3    H127128   0.318   6.129  11.355 -0.7109  0.0057  0.5054
 1879TIP3    H227129   0.267   6.023  11.450 -0.1056 -1.7199 -1.0244
 1880TIP3   OH227130   6.029   2.591   4.814  0.1716 -0.1538 -0.1509
 1880TIP3    H127131   5.948   2.565   4.771 -1.1967 -0.8229  2.5921
 1880TIP3    H227132   6.004   2.665   4.870  0.6742 -2.0499  2.8157
 1881TIP3   OH227133   3.205   0.355   5.349  0.0967 -0.2829  0.1687
 1881TIP3    H127134   3.200   0.336   5.255 -2.9387 -1.5671  0.4790
 1881TIP3    H227135   3.261   0.285   5.384 -0.6029 -1.1646 -0.4106
 1882TIP3   OH227136   6.190   5.673   3.996  0.5900 -0.3009 -0.2812
 1882TIP3    H127137   6.154   5.702   4.080  1.6905  0.6314 -0.0998
 1882TIP3    H227138   6.121   5.621   3.956 -0.6534  0.8000  0.3817
 1883TIP3   OH227139   3.161   1.993  16.221 -0.0564 -0.1678 -0.0521
 1883TIP3    H127140   3.191   2.077  16.185 -0.5095 -0.4164 -1.0517
 1883TIP3    H227141   3.212   1.927  16.174  1.9987 -0.4429  2.3552
 1884TIP3   OH227142   2.413   3.743  13.620  0.0156 -0.5548 -0.4225
 1884TIP3    H127143   2.498   3.699  13.622 -0.0659 -0.7768 -1.5472
 1884TIP3    H227144   2.371   3.717  13.702  1.5286  0.5863  0.7729
 1885TIP3   OH227145   4.799   3.050   1.387  0.4153  0.1332  0.7549
 1885TIP3    H127146   4.836   3.039   1.474 -2.3206  0.9014  2.1093
 1885TIP3    H227147   4.712   3.011   1.393 -0.6499  2.0920 -1.0063
 1886TIP3   OH227148   1.073   1.686   2.492 -0.1280 -0.3586 -0.8796
 1886TIP3    H127149   1.105   1.722   2.575  0.4187 -0.4276 -1.0559
 1886TIP3    H227150   1.144   1.701   2.430  0.4909 -2.4500 -0.7734
 1887TIP3   OH227151   1.222   1.321  12.279 -0.4355  0.1751 -0.1204
 1887TIP3    H127152   1.144   1.321  12.335  1.0033 -1.5523  2.0323
 1887TIP3    H227153   1.291   1.357  12.335  0.7571 -0.1999 -1.3160
 1888TIP3   OH227154   5.764   2.009  11.873  0.6045  0.3162 -0.5892
 1888TIP3    H127155   5.818   1.934  11.847 -2.0541 -1.4093 -1.6072
 1888TIP3    H227156   5.810   2.046  11.948  2.1090 -2.3335 -0.0500
 1889TIP3   OH227157   3.298   4.407   5.515  0.6333 -0.3335 -0.2362
 1889TIP3    H127158   3.343   4.323   5.529  0.3943 -0.7657 -1.8838
 1889TIP3    H227159   3.262   4.400   5.427 -1.0688  0.7449  0.3336
 1890TIP3   OH227160   2.080   3.873   6.036 -0.5881  0.4652  0.2859
 1890TIP3    H127161   1.989   3.890   6.014 -0.4768 -0.6559 -1.1911
 1890TIP3    H227162   2.122   3.960   6.035 -1.4067  0.8645 -0.1694
 1891TIP3   OH227163   3.208   3.378  12.736 -0.7063  0.4368 -0.1478
 1891TIP3    H127164   3.273   3.380  12.806  1.0427  0.4040 -1.6952
 1891TIP3    H227165   3.218   3.291  12.696  0.3898  1.4068 -2.1974
 1892TIP3   OH227166   3.428   2.977  16.892  0.4419  0.5306  0.5403
 1892TIP3    H127167   3.347   2.981  16.943  1.1162  0.9653  1.6326
 1892TIP3    H227168   3.442   2.884  16.876 -0.7572  0.5125 -0.4907
 1893TIP3   OH227169   0.213   2.227   0.524  0.0513  0.6055 -0.3226
 1893TIP3    H127170   0.163   2.155   0.563 -0.2852  0.7580 -0.4725
 1893TIP3    H227171   0.222   2.202   0.432 -0.0832  0.7640 -0.3786
 1894TIP3   OH227172   4.034   5.364  14.604 -0.7606  0.1512  0.0658
 1894TIP3    H127173   4.095   5.333  14.537 -0.8029 -0.2531  0.2103
 1894TIP3    H227174   4.048   5.305  14.678 -1.4048 -0.0212  0.0585
 1895TIP3   OH227175   4.267   4.589   4.508 -0.6614 -0.4885  0.5382
 1895TIP3    H127176   4.283   4.512   4.454 -0.9056 -0.3223  0.2265
 1895TIP3    H227177   4.344   4.644   4.496  0.3037 -1.4056  2.0511
 1896TIP3   OH227178   3.921   5.051  13.381  0.5713 -0.8517  0.3283
 1896TIP3    H127179   3.951   5.097  13.459 -1.3179  0.6120  0.2741
 1896TIP3    H227180   3.853   4.992  13.412 -1.2517  0.8111 -0.3116
 1897TIP3   OH227181   3.762   2.102   2.219 -0.5809 -0.1433 -0.0872
 1897TIP3    H127182   3.801   2.189   2.216 -0.1628 -0.3406 -0.4509
 1897TIP3    H227183   3.694   2.104   2.153  0.1258 -0.4219 -0.8339
 1898TIP3   OH227184   0.388   5.294  14.880 -0.3452 -0.5138 -0.0621
 1898TIP3    H127185   0.436   5.320  14.801 -2.1425  1.0680 -0.7067
 1898TIP3    H227186   0.456   5.277  14.945  1.1014  1.2712 -1.0258
 1899TIP3   OH227187   3.807   5.090   2.616  0.4872  0.5334 -0.3056
 1899TIP3    H127188   3.849   5.168   2.579  2.2707  0.3719  1.2837
 1899TIP3    H227189   3.860   5.017   2.585 -1.2006 -0.1310 -1.8247
 1900TIP3   OH227190   5.281   2.266   3.311 -0.0074 -0.0653 -0.9492
 1900TIP3    H127191   5.295   2.219   3.229  0.3281 -0.1642 -0.8373
 1900TIP3    H227192   5.370   2.286   3.342 -0.1184 -0.4160 -0.3904
 1901TIP3   OH227193   4.438   3.971  12.650  0.2323 -0.2839 -0.2654
 1901TIP3    H127194   4.408   4.002  12.565 -1.2619 -0.1877  0.2655
 1901TIP3    H227195   4.395   3.886  12.662 -1.5876  0.7745  1.3868
 1902TIP3   OH227196   4.647   3.417  10.619 -0.3955 -0.1265  0.4110
 1902TIP3    H127197   4.669   3.505  10.652 -0.5779 -0.0863  0.4275
 1902TIP3    H227198   4.732   3.375  10.605 -0.2576  0.5689 -1.0194
 1903TIP3   OH227199   3.543   4.136   1.875 -0.0353 -0.1912  0.1547
 1903TIP3    H127200   3.459   4.178   1.896 -0.0545 -0.4334  0.5630
 1903TIP3    H227201   3.531   4.044   1.900  0.6192 -0.0630  0.9709
 1904TIP3   OH227202   3.960   6.327   4.055  0.4130 -0.3063 -0.2471
 1904TIP3    H127203   3.879   6.315   4.005 -0.1844 -2.7481  1.1284
 1904TIP3    H227204   3.930   6.343   4.144  1.4186 -0.7163  0.1731
 1905TIP3   OH227205   3.242   1.843   4.953  0.3456  0.4681  0.0501
 1905TIP3    H127206   3.298   1.790   5.010 -0.1602  0.2824  0.3754
 1905TIP3    H227207   3.252   1.804   4.867 -1.7342 -1.5785  0.6585
 1906TIP3   OH227208   1.087   0.597   5.495  0.3696 -0.1594 -0.3873
 1906TIP3    H127209   1.002   0.585   5.537 -0.6377  0.7574 -2.0305
 1906TIP3    H227210   1.139   0.522   5.522 -1.0598 -0.8840  0.4467
 1907TIP3   OH227211   2.099   2.542   0.012  0.2339 -0.1718  0.6573
 1907TIP3    H127212   2.164   2.496   0.064 -0.2324 -1.4672  0.1426
 1907TIP3    H227213   2.015   2.507   0.042 -0.1063 -0.0247 -0.0881
 1908TIP3   OH227214   5.932   4.579   4.032  0.3695  0.0781  0.1115
 1908TIP3    H127215   5.889   4.657   4.066 -0.0637  0.2223 -0.7340
 1908TIP3    H227216   5.865   4.536   3.979 -0.4373 -2.5933  3.0266
 1909TIP3   OH227217   5.841   5.775   5.274  0.7382  0.3441  0.3691
 1909TIP3    H127218   5.859   5.764   5.180 -0.8908 -0.6828  0.1492
 1909TIP3    H227219   5.892   5.706   5.316  2.3978  1.5115  0.4066
 1910TIP3   OH227220   1.436   6.677   0.917 -0.0357 -0.1371  0.0045
 1910TIP3    H127221   1.391   6.749   0.961 -0.4063 -1.8356  2.6710
 1910TIP3    H227222   1.408   6.599   0.965  1.8676 -1.8473 -1.4932
 1911TIP3   OH227223   2.360   2.386  13.417  0.4599 -0.5996  0.5284
 1911TIP3    H127224   2.341   2.300  13.455 -1.1156  0.0044  1.2115
 1911TIP3    H227225   2.275   2.429  13.415  1.1081  0.6680 -0.5199
 1912TIP3   OH227226   4.786   4.159   2.053  0.6066  0.1935 -0.5365
 1912TIP3    H127227   4.848   4.090   2.029  1.9160  1.6075 -1.3786
 1912TIP3    H227228   4.769   4.205   1.972 -2.0563 -0.4752 -0.4513
 1913TIP3   OH227229   3.557   4.070   4.955 -0.3956  0.1722 -0.0644
 1913TIP3    H127230   3.515   4.018   4.887  0.2050 -1.3459  0.6742
 1913TIP3    H227231   3.590   4.006   5.018 -0.1512  1.4843  1.2130
 1914TIP3   OH227232   2.820   6.563  10.857  0.3764  0.3766  0.6539
 1914TIP3    H127233   2.890   6.507  10.822  0.1259  0.6560 -0.3248
 1914TIP3    H227234   2.740   6.531  10.815  0.0649  0.7279  0.9709
 1915TIP3   OH227235   0.448   6.023  15.844  0.4792 -0.2143 -0.4948
 1915TIP3    H127236   0.418   5.990  15.759  1.3831 -1.8807 -0.2139
 1915TIP3    H227237   0.453   5.945  15.899  1.6136  0.5799  0.5713
 1916TIP3   OH227238   3.196   4.428   5.266  0.3601 -0.8129 -0.3347
 1916TIP3    H127239   3.129   4.481   5.221 -0.9778 -1.2323  1.0788
 1916TIP3    H227240   3.214   4.356   5.205  1.8373  0.9134 -2.0683
 1917TIP3   OH227241   3.827   5.885  16.399  0.1863 -0.2624 -0.5772
 1917TIP3    H127242   3.872   5.892  16.314 -0.2556  1.0910 -0.7183
 1917TIP3    H227243   3.822   5.975  16.431 -0.6165 -0.6325  0.3887
 1918TIP3   OH227244   1.955   6.593   5.652 -0.2623 -0.0764  0.6823
 1918TIP3    H127245   2.009   6.515   5.662  1.1651  0.6954 -0.7123
 1918TIP3    H227246   1.944   6.604   5.558 -0.1899  1.5485  0.8276
 1919TIP3   OH227247   1.710   3.740  11.396  0.5569  0.1138  0.4023
 1919TIP3    H127248   1.636   3.761  11.339 -0.2116 -1.3295  0.8458
 1919TIP3    H227249   1.778   3.804  11.370  0.2133 -0.4017 -2.0589
 1920TIP3   OH227250   2.882   5.378   1.583 -0.5226  0.1385 -0.0723
 1920TIP3    H127251   2.857   5.465   1.614 -1.2659 -0.6075  1.5635
 1920TIP3    H227252   2.852   5.319   1.652  0.8387 -1.3386 -0.6862
 1921TIP3   OH227253   0.819   0.367  12.740  0.2538 -0.0627  0.0496
 1921TIP3    H127254   0.853   0.415  12.664 -0.4700 -0.0883 -0.3019
 1921TIP3    H227255   0.896   0.351  12.795  0.6362  0.7864 -0.2187
 1922TIP3   OH227256   3.578   3.995   4.182 -0.3640 -0.6457 -0.3134
 1922TIP3    H127257   3.576   4.082   4.220 -0.7266 -0.7580 -0.0689
 1922TIP3    H227258   3.533   4.003   4.098 -1.3689 -0.8243  0.1994
 1923TIP3   OH227259   6.658   2.058  13.251 -0.5740 -0.0799 -1.3483
 1923TIP3    H127260   6.695   2.002  13.182 -1.8429  0.0402 -2.1605
 1923TIP3    H227261   6.701   2.143  13.239  1.0695 -0.7218 -0.3589
 1924TIP3   OH227262   6.133   5.460  13.567  0.0513  0.0528  0.1416
 1924TIP3    H127263   6.059   5.496  13.616 -0.0955  1.9665 -1.3515
 1924TIP3    H227264   6.185   5.537  13.543  2.4423 -1.2239  0.9635
 1925TIP3   OH227265   4.700   5.926  14.886  0.1504  0.3948 -0.2528
 1925TIP3    H127266   4.658   5.841  14.873 -0.2589  0.6953 -0.9205
 1925TIP3    H227267   4.787   5.915  14.847 -0.2825  0.6022 -1.3177
 1926TIP3   OH227268   4.639   3.896  16.656 -0.5515  0.3602 -0.0047
 1926TIP3    H127269   4.598   3.926  16.575 -0.8159 -0.5413 -0.2112
 1926TIP3    H227270   4.593   3.945  16.725 -1.2113  0.1846 -0.3141
 1927TIP3   OH227271   3.654   0.952   5.020  0.6165  0.1987 -0.5113
 1927TIP3    H127272   3.742   0.927   4.990 -0.3159 -1.4103 -2.1117
 1927TIP3    H227273   3.608   0.869   5.028 -0.7082  1.0005  0.6130
 1928TIP3   OH227274   5.776   2.566   5.902  0.9406  0.1485 -0.1398
 1928TIP3    H127275   5.724   2.505   5.955 -0.4493 -0.8111 -2.4556
 1928TIP3    H227276   5.765   2.650   5.946 -0.5349 -0.5102  0.8511
 1929TIP3   OH227277   6.059   2.609  16.775 -0.1291 -0.4409  0.6034
 1929TIP3    H127278   6.097   2.693  16.798  1.1455 -1.0951  0.9934
 1929TIP3    H227279   5.968   2.614  16.807 -1.0433  1.8339 -1.9781
 1930TIP3   OH227280   5.605   0.875   2.433 -0.9369  0.7496 -0.2312
 1930TIP3    H127281   5.515   0.844   2.428 -1.1199  1.2571 -0.1478
 1930TIP3    H227282   5.620   0.921   2.351 -0.2132 -0.7204 -0.9625
 1931TIP3   OH227283   1.993   4.089   5.593 -0.2704 -0.4436  0.2433
 1931TIP3    H127284   1.923   4.138   5.550  1.6342  2.8942  0.6038
 1931TIP3    H227285   2.001   4.129   5.680 -1.4608 -4.4660  2.4591
 1932TIP3   OH227286   6.774   1.633  15.915  0.1186  0.4314 -0.1501
 1932TIP3    H127287   6.850   1.690  15.906 -0.7228  1.7412  0.7456
 1932TIP3    H227288   6.755   1.604  15.826  2.0869 -0.5302 -0.3137
 1933TIP3   OH227289   4.478   2.131  12.531 -0.2434 -0.1409 -0.0825
 1933TIP3    H127290   4.480   2.126  12.435 -1.6678 -2.6592 -0.0725
 1933TIP3    H227291   4.387   2.113  12.554 -0.2906  2.0133  1.7529
 1934TIP3   OH227292   1.044   0.471  15.806  1.0816 -0.1033  0.8108
 1934TIP3    H127293   1.022   0.542  15.745  1.1114 -0.6697  0.1256
 1934TIP3    H227294   1.130   0.495  15.840  0.1509  1.3025  2.2738
 1935TIP3   OH227295   3.124   3.492   0.131  0.1565 -0.6357  0.1674
 1935TIP3    H127296   3.113   3.471   0.223 -0.8088 -0.2056  0.1591
 1935TIP3    H227297   3.054   3.443   0.087  0.4906 -0.6844 -0.3218
 1936TIP3   OH227298   4.624   6.176  14.966  0.6157 -0.0160 -0.0828
 1936TIP3    H127299   4.647   6.088  14.938 -1.0887 -0.8471  0.9531
 1936TIP3    H227300   4.699   6.206  15.016  1.1361 -0.9701 -0.2671
 1937TIP3   OH227301   0.207   2.696   4.283  0.2775 -0.4770 -0.0990
 1937TIP3    H127302   0.193   2.601   4.279  0.5236 -0.5614  0.6855
 1937TIP3    H227303   0.277   2.707   4.348 -1.3567  0.3619  1.6507
 1938TIP3   OH227304   3.671   5.896  15.513 -0.4252  0.0470  0.2939
 1938TIP3    H127305   3.741   5.958  15.532 -0.2035  0.6175 -2.0059
 1938TIP3    H227306   3.618   5.940  15.446 -1.3505 -1.4943 -0.0297
 1939TIP3   OH227307   3.115   6.544   1.504  0.0124  0.3666 -0.3461
 1939TIP3    H127308   3.158   6.625   1.478 -0.6883  0.2068 -2.1340
 1939TIP3    H227309   3.131   6.484   1.431  0.2827 -1.0408  0.8129
 1940TIP3   OH227310   4.268   5.005   3.352 -0.2207  0.5656 -0.0202
 1940TIP3    H127311   4.203   5.076   3.359 -0.1399  0.8459 -1.6898
 1940TIP3    H227312   4.223   4.936   3.304  0.5865  0.5987 -0.8394
 1941TIP3   OH227313   3.895   5.646   2.062  0.0342 -0.1147  0.1949
 1941TIP3    H127314   3.906   5.734   2.098 -0.4745 -0.4571  1.2312
 1941TIP3    H227315   3.978   5.602   2.080 -0.1280 -0.2051  0.7567
 1942TIP3   OH227316   1.148   2.263   1.835  0.0684  0.3410  0.1102
 1942TIP3    H127317   1.176   2.251   1.744  1.0566 -1.7554  0.6287
 1942TIP3    H227318   1.053   2.264   1.831  0.1009  0.8655 -0.9844
 1943TIP3   OH227319   1.331   5.944  16.671 -0.0946 -0.2107 -0.0437
 1943TIP3    H127320   1.274   6.021  16.674  0.1494  0.0278 -1.0375
 1943TIP3    H227321   1.305   5.891  16.746 -1.4127  0.0448 -0.2990
 1944TIP3   OH227322   2.045   1.100  15.141 -0.0980  0.2703 -0.2016
 1944TIP3    H127323   2.047   1.143  15.226 -1.0244 -0.5902  0.2852
 1944TIP3    H227324   2.052   1.171  15.078 -1.4371  1.1261  0.5660
 1945TIP3   OH227325   6.522   3.178  15.800  0.2815 -0.5230  0.1394
 1945TIP3    H127326   6.608   3.138  15.815  0.5264  0.0019  0.1536
 1945TIP3    H227327   6.477   3.116  15.743  0.6814 -0.7902  0.1083
 1946TIP3   OH227328   6.714   5.017   2.624 -0.3022  0.4175  0.0461
 1946TIP3    H127329   6.632   4.984   2.661  0.4017  0.7721  2.0192
 1946TIP3    H227330   6.687   5.070   2.549 -1.9727  1.4896  1.3508
 1947TIP3   OH227331   6.507   3.265  11.664 -0.2904 -0.3644 -0.8733
 1947TIP3    H127332   6.463   3.324  11.603 -2.1699 -2.7021 -1.9411
 1947TIP3    H227333   6.472   3.289  11.750 -2.2317 -0.8467 -1.4750
 1948TIP3   OH227334   3.285   5.912   0.798 -0.1221 -0.5050 -0.5782
 1948TIP3    H127335   3.220   5.871   0.854 -0.2151 -1.9516 -1.6966
 1948TIP3    H227336   3.298   5.999   0.836  0.4419 -1.6919  2.1728
 1949TIP3   OH227337   1.681   3.247   0.435 -0.1541  0.3222 -0.0695
 1949TIP3    H127338   1.769   3.232   0.399  0.0797  0.9039  0.2471
 1949TIP3    H227339   1.684   3.337   0.467 -0.9609  0.4412 -0.3127
 1950TIP3   OH227340   3.437   0.855   2.006  0.0525  0.3862 -0.4646
 1950TIP3    H127341   3.491   0.804   2.067 -0.7534  0.0196 -0.0327
 1950TIP3    H227342   3.347   0.831   2.029 -0.3135  1.3707 -0.8242
 1951TIP3   OH227343   5.994   2.807   2.323  0.8531 -0.9579 -0.2187
 1951TIP3    H127344   5.968   2.778   2.411  0.9358 -0.0779  0.1089
 1951TIP3    H227345   5.975   2.732   2.267  0.9453 -1.5938  0.5740
 1952TIP3   OH227346   0.661   4.527  16.600 -0.3675  0.5376 -0.3419
 1952TIP3    H127347   0.587   4.508  16.658  0.0505 -1.2801 -0.3370
 1952TIP3    H227348   0.631   4.500  16.513  0.5821 -1.2370 -0.1805
 1953TIP3   OH227349   6.504   0.291  12.392 -0.3965 -0.1387 -0.0637
 1953TIP3    H127350   6.453   0.365  12.425 -1.4624  0.0324 -1.9437
 1953TIP3    H227351   6.439   0.236  12.347  0.8695 -0.5222 -1.4962
 1954TIP3   OH227352   6.634   1.878   2.782 -0.2158  0.2116 -0.4050
 1954TIP3    H127353   6.683   1.889   2.700 -0.3455 -0.4594 -0.5801
 1954TIP3    H227354   6.682   1.930   2.846  1.6259 -1.5855 -0.2042
 1955TIP3   OH227355   3.013   0.905  16.911  0.1410 -0.0611  0.0240
 1955TIP3    H127356   2.920   0.890  16.926  0.0524  0.3302 -0.1187
 1955TIP3    H227357   3.043   0.947  16.992 -0.0647  0.8933 -0.3837
 1956TIP3   OH227358   0.117   1.741   3.351  0.6197 -0.2314  0.0112
 1956TIP3    H127359   0.104   1.821   3.301  1.3282 -0.3359 -0.3541
 1956TIP3    H227360   0.105   1.670   3.288 -0.0107 -0.4180  0.3330
 1957TIP3   OH227361   6.448   1.755   3.882 -0.0516 -0.4471 -0.2385
 1957TIP3    H127362   6.488   1.753   3.969  1.8460  1.0504 -1.0170
 1957TIP3    H227363   6.522   1.754   3.821 -0.9177  4.0420 -1.7614
 1958TIP3   OH227364   1.476   3.933  14.174 -0.3974 -0.1314 -0.0618
 1958TIP3    H127365   1.431   3.879  14.109 -0.4055  0.7719 -0.8298
 1958TIP3    H227366   1.549   3.972  14.126 -1.2022  1.6368  0.0800
 1959TIP3   OH227367   2.353   1.685   3.706 -0.5917  0.5382 -0.8582
 1959TIP3    H127368   2.428   1.743   3.703 -0.4054  0.2934 -0.9783
 1959TIP3    H227369   2.382   1.610   3.758 -1.1845  1.0433  0.2551
 1960TIP3   OH227370   4.504   2.392   2.960 -0.1726 -0.4030 -0.1457
 1960TIP3    H127371   4.432   2.388   3.023 -0.1352 -0.5930 -0.1155
 1960TIP3    H227372   4.490   2.317   2.902 -0.0582 -0.3802 -0.2039
 1961TIP3   OH227373   5.566   5.480  11.233  0.0004  0.0388 -0.2176
 1961TIP3    H127374   5.643   5.464  11.177  0.2182  0.2815  0.0081
 1961TIP3    H227375   5.560   5.576  11.239  0.5480  0.0219  0.9414
 1962TIP3   OH227376   2.549   3.589   1.037  0.1672  0.4221 -0.7274
 1962TIP3    H127377   2.581   3.660   0.981  3.0885  0.0639  0.3343
 1962TIP3    H227378   2.461   3.571   1.004 -1.0292  4.8910 -0.6538
 1963TIP3   OH227379   0.994   0.783  11.513  0.5543  0.0614  0.0672
 1963TIP3    H127380   1.074   0.759  11.560  0.6665 -0.5919 -0.4524
 1963TIP3    H227381   1.023   0.802  11.424 -0.1554 -2.6323 -0.8223
 1964TIP3   OH227382   5.960   1.857   0.112  0.6661  0.7167 -0.0327
 1964TIP3    H127383   6.017   1.862   0.036 -0.3960  0.6617 -0.8576
 1964TIP3    H227384   5.926   1.946   0.122  0.5637  0.6532  0.2001
 1965TIP3   OH227385   4.564   5.115   2.847 -0.4394 -0.1509 -0.3266
 1965TIP3    H127386   4.586   5.204   2.876  0.3566  0.5818 -2.9260
 1965TIP3    H227387   4.474   5.122   2.815 -1.3442 -0.9735  1.8642
 1966TIP3   OH227388   3.132   1.912   3.317 -0.8698  0.1943  0.2202
 1966TIP3    H127389   3.096   1.967   3.248  0.6819 -0.8421 -1.5240
 1966TIP3    H227390   3.222   1.942   3.328 -0.8683 -0.1533  1.2472
 1967TIP3   OH227391   3.872   3.207  12.412 -0.2810 -0.4079  0.5484
 1967TIP3    H127392   3.795   3.150  12.406 -0.7059  0.1421  0.6636
 1967TIP3    H227393   3.944   3.154  12.377 -1.3158  0.2242 -2.9318
 1968TIP3   OH227394   4.826   3.532   5.638  0.2169 -0.1211  0.0584
 1968TIP3    H127395   4.889   3.492   5.578 -1.1341 -1.2056 -0.7112
 1968TIP3    H227396   4.770   3.459   5.666 -1.0112  0.8689  0.2849
 1969TIP3   OH227397   4.878   6.588  15.133 -0.2546  0.4802 -0.2320
 1969TIP3    H127398   4.926   6.652  15.186 -1.4586  0.9177  0.3516
 1969TIP3    H227399   4.911   6.602  15.044  0.2713  1.1775  0.0635
 1970TIP3   OH227400   3.385   0.031  16.492  0.2034  0.8340  0.2913
 1970TIP3    H127401   3.304   0.002  16.534  0.6008  0.3734  0.7463
 1970TIP3    H227402   3.400   0.119  16.527 -0.3702  1.1289 -0.1897
 1971TIP3   OH227403   1.471   0.735  16.390 -0.0852  0.0958  0.6108
 1971TIP3    H127404   1.505   0.661  16.439  0.4744 -0.4185 -0.5091
 1971TIP3    H227405   1.542   0.799  16.389  0.4643 -0.4990 -0.7395
 1972TIP3   OH227406   5.417   6.179  15.823 -0.6282  0.3368 -0.4137
 1972TIP3    H127407   5.428   6.271  15.847  0.2810  0.1927 -0.2504
 1972TIP3    H227408   5.472   6.166  15.746 -0.4444 -0.1577 -0.2086
 1973TIP3   OH227409   5.107   4.466   1.742  0.0184 -0.1018  0.3594
 1973TIP3    H127410   5.125   4.422   1.825 -2.0725  1.9486  2.0552
 1973TIP3    H227411   5.102   4.558   1.765 -0.2873  0.5687 -2.1435
 1974TIP3   OH227412   0.681   2.865   3.977 -0.4677  0.3882 -0.1024
 1974TIP3    H127413   0.617   2.796   3.994 -0.6693  0.6766  0.3421
 1974TIP3    H227414   0.759   2.837   4.025 -0.5570  0.4788  0.0972
 1975TIP3   OH227415   1.457   0.329   2.702  0.1482  0.3343 -0.6226
 1975TIP3    H127416   1.542   0.364   2.727  0.2626 -1.4762  1.8308
 1975TIP3    H227417   1.400   0.348   2.776 -1.1939  0.1314 -1.5671
 1976TIP3   OH227418   4.427   3.111   0.258  0.3114 -0.4864  0.1161
 1976TIP3    H127419   4.454   3.020   0.268  2.4575  0.2444  1.6494
 1976TIP3    H227420   4.495   3.151   0.205  0.0390  0.4853  0.4768
 1977TIP3   OH227421   3.239   1.202   0.349  0.0149  0.0736 -0.2111
 1977TIP3    H127422   3.290   1.217   0.270  0.1013 -0.7900 -0.3301
 1977TIP3    H227423   3.148   1.215   0.321 -0.2289 -2.9529 -1.2199
 1978TIP3   OH227424   5.922   3.161  16.452 -0.3988 -0.0591 -0.7892
 1978TIP3    H127425   5.971   3.195  16.377  1.0946 -0.3831 -0.0163
 1978TIP3    H227426   5.989   3.120  16.507 -1.6386 -0.9904  0.0811
 1979TIP3   OH227427   3.523   0.307  13.491 -0.4120  0.3552 -0.0154
 1979TIP3    H127428   3.476   0.377  13.537  0.7475  1.2313 -0.1230
 1979TIP3    H227429   3.615   0.323  13.510 -0.0668 -0.6473 -0.7457
 1980TIP3   OH227430   6.692   4.126   4.394  0.4979  0.1539  0.4196
 1980TIP3    H127431   6.771   4.103   4.444  0.8177 -0.4649 -0.3492
 1980TIP3    H227432   6.720   4.123   4.303 -0.2502  0.6128  0.1693
 1981TIP3   OH227433   1.124   4.503   5.886 -0.4080  0.3553 -0.2212
 1981TIP3    H127434   1.104   4.581   5.835 -0.1419  1.0136  0.6518
 1981TIP3    H227435   1.069   4.511   5.964 -1.0356 -0.7888 -0.5266
 1982TIP3   OH227436   1.319   1.723  11.277  0.0572  0.0378  0.1010
 1982TIP3    H127437   1.263   1.791  11.241 -0.4805 -0.1605  0.5463
 1982TIP3    H227438   1.280   1.702  11.362  1.2854  0.4871  0.8103
 1983TIP3   OH227439   5.320   6.212  14.458  0.3251 -0.1550 -0.4271
 1983TIP3    H127440   5.412   6.187  14.453  0.4322 -0.4430  1.9950
 1983TIP3    H227441   5.288   6.204  14.368  3.0698  1.6864 -1.7120
 1984TIP3   OH227442   6.216   1.362  12.528 -0.0382 -0.1060 -0.7413
 1984TIP3    H127443   6.246   1.289  12.582  0.4772 -0.1434 -1.0665
 1984TIP3    H227444   6.264   1.352  12.446  1.2316  1.5015 -0.2357
 1985TIP3   OH227445   2.912   3.273   3.511  0.1380 -0.2805 -0.3652
 1985TIP3    H127446   2.972   3.208   3.546  0.9682  0.7571  0.1958
 1985TIP3    H227447   2.860   3.301   3.586  0.9633  0.9358 -0.2270
 1986TIP3   OH227448   2.628   2.537   6.387  0.4468 -0.0790  0.5577
 1986TIP3    H127449   2.534   2.536   6.401  0.3045 -3.3816  0.2412
 1986TIP3    H227450   2.665   2.507   6.470  1.3421  2.1260  1.0016
 1987TIP3   OH227451   0.198   0.022  17.178 -0.0425  0.2060 -0.5444
 1987TIP3    H127452   0.221   0.006  17.087  0.1915  0.0648 -0.4622
 1987TIP3    H227453   0.193   0.117  17.185  3.0849  0.4422  0.0167
 1988TIP3   OH227454   2.498   6.066   1.334 -0.0393 -0.0525  0.0536
 1988TIP3    H127455   2.498   5.978   1.372 -1.6799 -0.6387 -1.1685
 1988TIP3    H227456   2.434   6.114   1.387 -1.5363 -0.5648 -1.2226
 1989TIP3   OH227457   4.661   1.593  13.200  0.3415 -0.2873 -0.2506
 1989TIP3    H127458   4.641   1.504  13.171 -0.1459  0.3207 -1.9235
 1989TIP3    H227459   4.757   1.596  13.205  0.4389 -0.5088 -1.6421
 1990TIP3   OH227460   3.595   0.981   1.269  0.8041 -0.3635  0.3963
 1990TIP3    H127461   3.687   0.997   1.289  0.6839 -0.8649  1.4381
 1990TIP3    H227462   3.596   0.924   1.192  1.2751  2.0454 -1.4780
 1991TIP3   OH227463   3.001   6.179  12.667 -0.1421  0.1572  0.0689
 1991TIP3    H127464   3.038   6.168  12.579  0.2170  0.5096  0.1766
 1991TIP3    H227465   3.040   6.108  12.718  1.3091  1.2157  0.4786
 1992TIP3   OH227466   3.572   1.939  14.715 -0.0166  0.0949  0.4621
 1992TIP3    H127467   3.552   1.882  14.641  1.0807  0.1710  0.0803
 1992TIP3    H227468   3.647   1.991  14.685 -0.0058  0.6243  1.3723
 1993TIP3   OH227469   5.922   5.915  13.256  0.1091 -0.8366  0.1267
 1993TIP3    H127470   5.908   5.894  13.163  1.6182 -0.0028 -0.3313
 1993TIP3    H227471   5.879   6.000  13.267 -0.5626 -1.1966  0.3601
 1994TIP3   OH227472   4.422   1.178   1.471  0.2225  0.5327 -0.5785
 1994TIP3    H127473   4.511   1.176   1.434  0.3265  0.0653 -0.3086
 1994TIP3    H227474   4.435   1.192   1.564  0.0351 -0.0416 -0.4626
 1995TIP3   OH227475   1.903   1.102  13.844 -0.0798 -0.1377  0.2064
 1995TIP3    H127476   1.861   1.093  13.929  2.0667 -1.0387  1.2446
 1995TIP3    H227477   1.909   1.197  13.830  0.2569  0.0460  1.4714
 1996TIP3   OH227478   3.539   2.590  17.090  0.5527  0.4699  0.4618
 1996TIP3    H127479   3.563   2.633  17.008  0.3673  0.6947  0.5249
 1996TIP3    H227480   3.470   2.645  17.127  1.5072  1.0724  1.3912
 1997TIP3   OH227481   5.568   1.204  16.691  0.6404 -0.1976 -0.1893
 1997TIP3    H127482   5.514   1.126  16.700 -2.6061  1.3316 -3.5188
 1997TIP3    H227483   5.651   1.173  16.656 -0.2272 -2.2341 -0.5336
 1998TIP3   OH227484   2.434   2.888   2.149  0.0679 -0.5938  0.2645
 1998TIP3    H127485   2.393   2.969   2.177 -0.5705 -1.3576  1.6245
 1998TIP3    H227486   2.398   2.873   2.061  0.0912  0.5029  0.0502
 1999TIP3   OH227487   4.532   5.890   2.276 -0.2405 -0.4162 -0.2278
 1999TIP3    H127488   4.551   5.819   2.337  3.3129  1.4264  1.1152
 1999TIP3    H227489   4.525   5.968   2.331  0.6944  0.9496 -1.9367
 2000TIP3   OH227490   6.193   2.775   1.851  0.5207  0.0285  0.1109
 2000TIP3    H127491   6.215   2.767   1.944 -0.7718 -2.3110  0.2904
 2000TIP3    H227492   6.114   2.722   1.840 -0.6338  1.9906 -1.9321
 2001TIP3   OH227493   0.601   5.561  15.843 -0.2808 -0.2142 -0.4766
 2001TIP3    H127494   0.542   5.604  15.781 -0.5215  0.0863 -0.0429
 2001TIP3    H227495   0.685   5.607  15.833 -0.3632 -0.0624 -0.4670
 2002TIP3   OH227496   4.058   2.826  16.579  0.4543 -0.2137  0.9666
 2002TIP3    H127497   4.001   2.790  16.511  0.2217  2.7117 -0.5426
 2002TIP3    H227498   4.144   2.788  16.560 -0.0572 -1.1749  0.4726
 2003TIP3   OH227499   5.661   3.841  13.170  0.0458  0.2114 -0.1397
 2003TIP3    H127500   5.660   3.778  13.242  0.1612  0.0154 -0.3100
 2003TIP3    H227501   5.698   3.793  13.096 -0.4807  0.2761 -0.4512
 2004TIP3   OH227502   1.176   0.307  11.351  0.1893  0.0520  0.5062
 2004TIP3    H127503   1.106   0.254  11.389 -0.4293 -0.3522 -1.1308
 2004TIP3    H227504   1.133   0.388  11.324  0.2401 -0.3201 -0.7874
 2005TIP3   OH227505   5.581   3.840  14.013  0.0047  0.1539  0.0243
 2005TIP3    H127506   5.594   3.892  14.093 -0.3230  0.0613  0.1395
 2005TIP3    H227507   5.648   3.772  14.018 -1.8488 -1.6730  1.7321
 2006TIP3   OH227508   4.871   6.120  15.963 -0.7082  0.2455  0.0998
 2006TIP3    H127509   4.878   6.126  15.868 -0.8250  1.7039  0.1622
 2006TIP3    H227510   4.795   6.174  15.985 -1.8097 -1.5380  0.8847
 2007TIP3   OH227511   6.135   1.118   1.546  0.1759  0.2907 -0.3265
 2007TIP3    H127512   6.180   1.046   1.500  2.6512  1.6179 -0.1609
 2007TIP3    H227513   6.182   1.126   1.629 -2.1060  0.1070  1.0595
 2008TIP3   OH227514   6.340   6.795  16.383  0.0380 -0.2014 -0.7944
 2008TIP3    H127515   6.369   6.838  16.463  0.8871 -1.0682 -0.6165
 2008TIP3    H227516   6.300   6.714  16.413 -0.7497  0.0393 -1.1803
 2009TIP3   OH227517   3.215   4.300   6.612 -0.8947 -0.1114 -0.0301
 2009TIP3    H127518   3.267   4.225   6.582 -0.5620  0.2906 -0.4901
 2009TIP3    H227519   3.139   4.262   6.654  0.2521 -0.7387  1.5473
 2010TIP3   OH227520   3.685   6.424   3.197  0.0637 -0.0078  0.2146
 2010TIP3    H127521   3.632   6.344   3.199  0.5532 -0.3331  0.1664
 2010TIP3    H227522   3.636   6.486   3.252  0.0130 -0.5453  0.7805
 2011TIP3   OH227523   4.660   0.100  13.918 -0.2208  0.4638 -0.2886
 2011TIP3    H127524   4.699   0.039  13.855 -0.3759 -0.5443  0.5732
 2011TIP3    H227525   4.735   0.136  13.965 -0.0452  1.7667 -1.4948
 2012TIP3   OH227526   6.153   4.993  10.739  0.4978  0.3157 -0.1380
 2012TIP3    H127527   6.093   4.922  10.761 -0.1841 -0.5325 -4.0190
 2012TIP3    H227528   6.097   5.064  10.707  1.3553  1.1778  0.2037
 2013TIP3   OH227529   4.196   4.126  13.949  0.5052  0.0658 -0.1598
 2013TIP3    H127530   4.120   4.119  14.007  0.5655 -2.0569 -0.2485
 2013TIP3    H227531   4.159   4.144  13.863  0.1097 -0.4152 -0.0988
 2014TIP3   OH227532   2.380   0.720   1.579  0.8465 -0.6449 -0.4900
 2014TIP3    H127533   2.364   0.814   1.568 -0.4204 -0.6491  0.9597
 2014TIP3    H227534   2.326   0.678   1.512  0.0009 -0.3861  0.0159
 2015TIP3   OH227535   5.979   4.363   6.344 -0.0412 -0.9460 -0.6487
 2015TIP3    H127536   6.022   4.330   6.265 -0.5059  0.2091 -1.4099
 2015TIP3    H227537   6.047   4.411   6.390  0.0511 -1.0122 -0.7160
 2016TIP3   OH227538   6.599   2.509  12.491  0.2846 -0.5405  0.2464
 2016TIP3    H127539   6.669   2.510  12.426 -0.4941  0.0128 -0.6055
 2016TIP3    H227540   6.582   2.601  12.509  1.4956 -0.6530  2.3882
 2017TIP3   OH227541   6.036   1.399   1.867  0.4855  0.0658  0.4283
 2017TIP3    H127542   6.076   1.418   1.952  0.3556  0.3959  0.4173
 2017TIP3    H227543   6.097   1.339   1.824  0.0205 -0.9835  1.1990
 2018TIP3   OH227544   1.720   0.963  11.384 -0.1645 -1.1280 -0.3912
 2018TIP3    H127545   1.745   1.055  11.381  0.7246 -1.1526  2.8067
 2018TIP3    H227546   1.802   0.915  11.377 -0.0458 -1.4592  2.3029
 2019TIP3   OH227547   4.661   4.790   3.772  0.3658  0.0572  0.2589
 2019TIP3    H127548   4.693   4.793   3.682 -0.3193  2.0051  0.0367
 2019TIP3    H227549   4.597   4.718   3.772  2.6273 -2.0772  0.0497
 2020TIP3   OH227550   5.859   0.147  13.750  0.0243  0.1794 -0.6446
 2020TIP3    H127551   5.765   0.131  13.754  0.2313 -0.8733  0.8490
 2020TIP3    H227552   5.873   0.222  13.807  0.0619  0.6128 -1.2071
 2021TIP3   OH227553   3.375   5.654  12.742  0.3816 -0.0102 -0.2248
 2021TIP3    H127554   3.426   5.729  12.714  1.0327 -1.1823 -2.4620
 2021TIP3    H227555   3.439   5.595  12.784  0.3161 -0.2493 -0.4556
 2022TIP3   OH227556   0.436   1.061  15.899 -0.5403  0.0482 -0.1902
 2022TIP3    H127557   0.463   1.098  15.814 -1.5201  0.3799 -0.3647
 2022TIP3    H227558   0.479   1.116  15.964 -0.5567  0.3807 -0.4607
 2023TIP3   OH227559   1.064   5.271  12.427  0.4022  0.6507  0.3282
 2023TIP3    H127560   1.083   5.338  12.362  3.6375  0.4386  0.9161
 2023TIP3    H227561   1.080   5.313  12.511 -3.2204  0.7717  1.1130
 2024TIP3   OH227562   1.823   5.677   6.312  0.3973  0.1197 -0.3340
 2024TIP3    H127563   1.731   5.693   6.332  0.7473 -0.1808  1.6746
 2024TIP3    H227564   1.871   5.736   6.368  1.4575 -0.0527 -1.0339
 2025TIP3   OH227565   1.380   4.560  14.035  0.0346 -0.6797 -0.0590
 2025TIP3    H127566   1.458   4.609  14.008  0.4041 -1.3114 -0.1540
 2025TIP3    H227567   1.332   4.545  13.954 -0.1912 -0.3061 -0.0028
 2026TIP3   OH227568   5.184   2.534   5.806  0.5000 -0.1787  0.2121
 2026TIP3    H127569   5.251   2.568   5.746  0.4717  0.4972  0.5540
 2026TIP3    H227570   5.112   2.507   5.748  0.2096  1.0683 -0.0333
 2027TIP3   OH227571   6.245   4.756   0.257 -0.0797 -0.4066 -0.0171
 2027TIP3    H127572   6.311   4.808   0.301  0.0020 -0.5049 -0.0236
 2027TIP3    H227573   6.169   4.814   0.250  0.1421 -0.1532 -0.3786
 2028TIP3   OH227574   0.767   0.920  12.110 -0.3921  0.0366  0.1735
 2028TIP3    H127575   0.686   0.906  12.158  0.1025 -0.4918  0.8973
 2028TIP3    H227576   0.794   1.009  12.131 -0.1663 -0.2021  0.9145
 2029TIP3   OH227577   2.085   1.766   5.446  0.6015  0.3053  0.0686
 2029TIP3    H127578   2.149   1.762   5.516 -0.8396  2.0944  1.5968
 2029TIP3    H227579   2.031   1.842   5.467 -1.2077 -0.3507 -1.8482
 2030TIP3   OH227580   5.240   2.164  15.197  0.6076 -0.1572  0.6273
 2030TIP3    H127581   5.307   2.155  15.264  0.0976 -2.9811  0.8728
 2030TIP3    H227582   5.179   2.230  15.232  1.5137  0.0459  1.8864
 2031TIP3   OH227583   2.846   5.241   3.029  0.2922  0.5000 -0.3147
 2031TIP3    H127584   2.896   5.185   2.969  0.1530  2.0342 -1.9198
 2031TIP3    H227585   2.845   5.192   3.111  1.6414 -1.0598 -1.1663
 2032TIP3   OH227586   3.525   2.457  16.458 -0.1901  0.4744 -0.1999
 2032TIP3    H127587   3.456   2.469  16.393  0.0631 -1.0414 -0.8061
 2032TIP3    H227588   3.584   2.392  16.419  0.5249  0.2890  1.1140
 2033TIP3   OH227589   3.840   6.045  11.094 -0.1513 -0.4783 -0.5493
 2033TIP3    H127590   3.906   6.105  11.058  0.1977 -0.4828  0.0687
 2033TIP3    H227591   3.795   6.010  11.018  0.6234 -0.5432 -0.9863
 2034TIP3   OH227592   4.065   2.071   1.985  0.0760 -0.4754 -0.6672
 2034TIP3    H127593   4.099   2.153   1.948 -0.2181  0.7174  1.5769
 2034TIP3    H227594   4.093   2.004   1.922  2.2165  1.0574 -1.4887
 2035TIP3   OH227595   3.657   3.019  11.058  0.0767 -0.2431 -0.5362
 2035TIP3    H127596   3.712   3.082  11.011  0.0439 -0.3070 -0.6593
 2035TIP3    H227597   3.713   2.942  11.070 -0.1308 -0.4791 -1.0599
 2036TIP3   OH227598   4.751   3.836   5.977 -0.6524 -0.4268 -0.3860
 2036TIP3    H127599   4.756   3.917   6.028  0.7498 -0.3975 -0.5137
 2036TIP3    H227600   4.685   3.784   6.022 -0.4295  0.1549  0.6575
 2037TIP3   OH227601   6.359   5.849  11.433  0.6905  0.3906 -0.0738
 2037TIP3    H127602   6.395   5.774  11.385 -0.5512  0.5767 -1.3487
 2037TIP3    H227603   6.269   5.823  11.455  1.4931 -0.1034  3.1345
 2038TIP3   OH227604   5.429   3.586  11.608  0.5714  0.0844  0.1153
 2038TIP3    H127605   5.399   3.531  11.680  1.6558 -0.6671  0.0090
 2038TIP3    H227606   5.383   3.553  11.531 -1.3555  1.5188  0.5594
 2039TIP3   OH227607   1.299   6.011  16.236 -0.2307  0.3159  0.0553
 2039TIP3    H127608   1.312   6.070  16.162  2.4645 -0.0778  0.1118
 2039TIP3    H227609   1.388   5.993  16.268 -0.9289 -3.3303  0.3394
 2040TIP3   OH227610   5.177   3.989  12.065  0.7189  0.5219  0.0597
 2040TIP3    H127611   5.182   4.082  12.043 -0.2840  0.6066  0.1411
 2040TIP3    H227612   5.261   3.953  12.037  0.4254  1.0967 -1.6763
 2041TIP3   OH227613   6.333   6.700   6.167  0.5783 -0.1235 -0.1456
 2041TIP3    H127614   6.263   6.681   6.229  0.4706 -1.2076 -0.5708
 2041TIP3    H227615   6.385   6.768   6.209 -0.5258  0.4506  0.3256
 2042TIP3   OH227616   4.801   4.955   2.955 -0.1589 -0.0450 -0.4333
 2042TIP3    H127617   4.736   5.010   2.911  1.9816  1.3572 -2.0793
 2042TIP3    H227618   4.755   4.916   3.029 -2.8579  0.7563 -1.5878
 2043TIP3   OH227619   2.530   4.641  16.461 -0.1393  0.0529 -0.5026
 2043TIP3    H127620   2.575   4.611  16.382  0.0345  1.0503 -0.7952
 2043TIP3    H227621   2.530   4.564  16.519  0.8089 -0.3382 -0.9917
 2044TIP3   OH227622   0.405   4.179  14.978  0.4469 -0.0087  0.2955
 2044TIP3    H127623   0.421   4.117  15.049  0.6896  1.8508  1.9477
 2044TIP3    H227624   0.488   4.184  14.930 -0.0395 -2.1074 -0.8943
 2045TIP3   OH227625   5.708   6.029   3.738 -0.1760 -0.0681  0.2434
 2045TIP3    H127626   5.778   6.094   3.731  0.0096 -0.3160 -0.3121
 2045TIP3    H227627   5.650   6.062   3.806  0.6143  0.0156  0.8913
 2046TIP3   OH227628   4.961   3.517   6.312  0.8551 -1.0140  0.1729
 2046TIP3    H127629   5.011   3.522   6.394 -0.2657 -0.2860  0.8524
 2046TIP3    H227630   4.870   3.514   6.341  0.3913  0.1616 -1.0656
 2047TIP3   OH227631   2.119   2.523  13.377 -0.6555  0.3321  0.1111
 2047TIP3    H127632   2.072   2.551  13.298 -1.2662  0.2626  0.4430
 2047TIP3    H227633   2.127   2.603  13.429 -0.6308  0.2932  0.1670
 2048TIP3   OH227634   5.168   3.031   3.892 -0.2109 -0.3659  0.1265
 2048TIP3    H127635   5.201   3.039   3.982 -1.0135  0.8276  0.3394
 2048TIP3    H227636   5.176   2.937   3.872 -0.3141 -0.7066  1.5609
 2049TIP3   OH227637   2.062   1.635   2.807  0.1157 -0.3206 -0.7106
 2049TIP3    H127638   1.975   1.667   2.832  0.6703  1.0086 -0.4122
 2049TIP3    H227639   2.076   1.558   2.863 -0.6851 -0.2886 -0.4563
 2050TIP3   OH227640   3.704   4.207   1.686 -0.1696  0.7083  0.2435
 2050TIP3    H127641   3.650   4.173   1.757 -0.6525  1.8307  0.4511
 2050TIP3    H227642   3.785   4.157   1.690 -0.9912 -0.6734  0.2451
 2051TIP3   OH227643   5.580   3.450  17.210  0.6332 -0.4682  0.0620
 2051TIP3    H127644   5.503   3.443  17.154  0.0372  0.8179  0.6549
 2051TIP3    H227645   5.648   3.484  17.152  0.2752 -0.0195 -0.1107
 2052TIP3   OH227646   3.345   3.407  13.737 -0.0861  0.2350 -0.1619
 2052TIP3    H127647   3.314   3.317  13.727 -0.3975  0.3610 -0.3319
 2052TIP3    H227648   3.440   3.400  13.722 -0.1643 -0.0007 -0.6013
 2053TIP3   OH227649   5.780   5.595  14.838  0.1462  0.4882  0.2916
 2053TIP3    H127650   5.821   5.620  14.755 -0.9851 -0.8535 -0.7162
 2053TIP3    H227651   5.848   5.545  14.884  1.0186  1.8297  0.5331
 2054TIP3   OH227652   4.589   0.368   5.159 -0.3349  0.1596 -0.2490
 2054TIP3    H127653   4.662   0.378   5.097 -1.1685  1.4848 -1.0764
 2054TIP3    H227654   4.622   0.309   5.226  1.0883 -0.2158 -1.2308
 2055TIP3   OH227655   6.329   3.876  11.530  0.6074  0.6674 -0.6059
 2055TIP3    H127656   6.353   3.869  11.622 -0.5215 -2.2796 -0.4369
 2055TIP3    H227657   6.306   3.969  11.518  0.7452  1.1096  2.0690
 2056TIP3   OH227658   6.293   4.638  16.326 -0.1863 -0.0398 -0.3865
 2056TIP3    H127659   6.329   4.719  16.291  0.0857  0.6723  1.4741
 2056TIP3    H227660   6.201   4.639  16.300 -0.1230  0.7332 -0.5983
 2057TIP3   OH227661   1.440   5.904   3.408  0.1242 -0.1123 -0.3406
 2057TIP3    H127662   1.390   5.890   3.488  0.5381  0.7981  0.0903
 2057TIP3    H227663   1.465   5.996   3.411  0.4948 -0.1669 -1.3204
 2058TIP3   OH227664   2.430   5.647   0.692 -0.4075 -0.2671  0.1419
 2058TIP3    H127665   2.444   5.693   0.774 -0.7598 -0.4821  0.3244
 2058TIP3    H227666   2.450   5.711   0.624  0.9944 -0.4221  0.3869
 2059TIP3   OH227667   5.819   5.228  15.464  0.2049 -0.0566  0.2276
 2059TIP3    H127668   5.885   5.289  15.430 -1.8753  1.4259 -1.4271
 2059TIP3    H227669   5.791   5.177  15.388 -2.7058  1.5428  0.0817
 2060TIP3   OH227670   6.212   5.582  14.108 -0.1367  0.0945  0.2654
 2060TIP3    H127671   6.207   5.502  14.159 -0.8350  0.5023  0.8565
 2060TIP3    H227672   6.131   5.629  14.128 -0.9399 -0.1875 -1.9750
 2061TIP3   OH227673   4.864   5.864   4.946 -0.4782 -0.6302  0.4218
 2061TIP3    H127674   4.821   5.829   4.869 -2.3677 -0.9111  1.5344
 2061TIP3    H227675   4.879   5.788   5.003  0.4777 -0.3694  0.5488
 2062TIP3   OH227676   4.782   2.265  13.869 -0.4525  0.2845 -0.1973
 2062TIP3    H127677   4.706   2.293  13.818 -0.2462 -1.9782 -1.9196
 2062TIP3    H227678   4.759   2.177  13.900  1.4967 -0.5125 -0.8716
 2063TIP3   OH227679   2.477   6.586  14.371  0.4910  0.3786 -0.5730
 2063TIP3    H127680   2.422   6.659  14.343  0.0068 -0.4320 -1.7826
 2063TIP3    H227681   2.512   6.614  14.456 -1.0655  1.2788 -0.1911
 2064TIP3   OH227682   5.105   4.407  16.089  0.3363  0.0772 -0.2400
 2064TIP3    H127683   5.090   4.501  16.083  0.3083  0.2813  2.1435
 2064TIP3    H227684   5.055   4.380  16.166 -0.8205 -2.1753 -1.6555
 2065TIP3   OH227685   1.599   1.821  14.251 -0.1333  1.2973 -0.6167
 2065TIP3    H127686   1.653   1.788  14.180 -0.6186 -0.3371 -0.2707
 2065TIP3    H227687   1.651   1.891  14.291  1.5373  0.0918 -0.5924
 2066TIP3   OH227688   4.408   4.640  12.925  0.1591 -0.2996  0.2369
 2066TIP3    H127689   4.385   4.570  12.863  0.6217 -1.1241  0.9832
 2066TIP3    H227690   4.325   4.681  12.946 -0.1308 -0.6826 -0.1328
 2067TIP3   OH227691   6.115   4.247  14.812 -0.4563  0.2771 -0.7465
 2067TIP3    H127692   6.027   4.252  14.774 -1.1366 -0.6248  0.6067
 2067TIP3    H227693   6.132   4.334  14.847 -0.7208  0.5170 -1.2181
 2068TIP3   OH227694   1.132   5.612  14.941  0.1351 -0.4533  0.0619
 2068TIP3    H127695   1.142   5.698  14.901  1.0088 -0.9091 -0.7285
 2068TIP3    H227696   1.089   5.630  15.024 -2.0573  0.4795 -1.2037
 2069TIP3   OH227697   2.975   5.488  15.351  0.2628  0.6087 -0.2084
 2069TIP3    H127698   3.006   5.468  15.439 -0.8436  0.1481  0.0877
 2069TIP3    H227699   2.898   5.543  15.364  1.2827  2.2882 -0.9455
 2070TIP3   OH227700   3.463   3.998  12.638 -0.1005  0.2086 -0.1401
 2070TIP3    H127701   3.432   3.909  12.622  0.1687  0.2290 -0.8013
 2070TIP3    H227702   3.409   4.053  12.580 -2.9714  0.9860  2.9673
 2071TIP3   OH227703   6.454   3.806   3.139  0.2156  0.2642 -0.0158
 2071TIP3    H127704   6.541   3.784   3.107  0.2267  0.1843  0.0670
 2071TIP3    H227705   6.467   3.823   3.233  0.0586 -0.2487  0.1035
 2072TIP3   OH227706   2.858   5.222   3.706  0.1250 -0.2531  0.2944
 2072TIP3    H127707   2.848   5.148   3.766 -0.7870 -0.3252  0.0755
 2072TIP3    H227708   2.952   5.227   3.689  0.1177 -2.0839 -0.5790
 2073TIP3   OH227709   0.250   2.193   2.871  0.5706  0.0425  0.0500
 2073TIP3    H127710   0.297   2.276   2.884  0.6150  0.0158  0.0586
 2073TIP3    H227711   0.316   2.133   2.836  0.5612 -0.0167  0.1339
 2074TIP3   OH227712   1.743   3.857   2.759  0.3158 -0.7023  0.0345
 2074TIP3    H127713   1.798   3.873   2.682  1.9870 -0.0736  1.3102
 2074TIP3    H227714   1.730   3.943   2.798 -0.0306 -1.0899  0.7861
 2075TIP3   OH227715   3.947   0.043  13.120  0.0122  0.0964 -0.2654
 2075TIP3    H127716   3.905   0.129  13.128 -0.3867 -0.0388 -0.8489
 2075TIP3    H227717   3.929  -0.000  13.203 -1.4102 -0.1299 -0.6707
 2076TIP3   OH227718   3.655   0.710   1.523  0.0030  0.2474 -0.1839
 2076TIP3    H127719   3.636   0.711   1.617 -0.1761  3.3083 -0.1347
 2076TIP3    H227720   3.733   0.765   1.514  1.9800 -2.5504 -1.5904
 2077TIP3   OH227721   3.841   0.954  12.585 -0.3544  0.8441  0.1260
 2077TIP3    H127722   3.761   0.955  12.639  0.2329 -2.4597  1.3292
 2077TIP3    H227723   3.912   0.952  12.649  0.4388 -0.9706 -0.7271
 2078TIP3   OH227724   3.796   4.713   0.434  0.8448 -0.6044  0.0784
 2078TIP3    H127725   3.843   4.650   0.488 -0.1250 -0.8855  0.6224
 2078TIP3    H227726   3.705   4.710   0.466  0.7795  1.1088  0.1762
 2079TIP3   OH227727   4.248   6.294  14.808  0.3532  0.2157 -0.2455
 2079TIP3    H127728   4.309   6.368  14.812  2.2385 -1.2859  0.2037
 2079TIP3    H227729   4.164   6.331  14.833  1.4935  1.9523  1.2738
 2080TIP3   OH227730   5.675   1.399  12.776  0.0024 -0.4011 -0.3147
 2080TIP3    H127731   5.692   1.409  12.682  0.6298  1.1450 -0.0609
 2080TIP3    H227732   5.677   1.488  12.811  2.7481 -1.1046  1.6541
 2081TIP3   OH227733   6.725   0.411   2.505  0.1708 -0.0861  0.1727
 2081TIP3    H127734   6.800   0.402   2.446  0.0713 -1.4952  0.2345
 2081TIP3    H227735   6.723   0.504   2.526  1.4242  0.1101 -0.4532
 2082TIP3   OH227736   0.413   6.468   4.045 -0.0774 -0.1950 -0.1163
 2082TIP3    H127737   0.418   6.562   4.062  0.3373 -0.2081 -0.1518
 2082TIP3    H227738   0.418   6.427   4.132 -0.2895 -0.1873 -0.0980
 2083TIP3   OH227739   2.296   5.465   4.571 -0.3916 -0.3168  0.3361
 2083TIP3    H127740   2.305   5.511   4.488  1.2216 -0.3422  0.4664
 2083TIP3    H227741   2.299   5.534   4.637 -0.7363 -0.3770  0.4170
 2084TIP3   OH227742   2.502   1.565   0.413 -0.1859 -0.4806  0.4067
 2084TIP3    H127743   2.408   1.580   0.424 -0.2580 -0.0637 -0.6210
 2084TIP3    H227744   2.521   1.595   0.324  1.0678  0.1428  0.8536
 2085TIP3   OH227745   3.981   6.213   2.194 -0.0035  0.4181  0.2192
 2085TIP3    H127746   4.030   6.255   2.124 -0.1235  0.2899  0.0584
 2085TIP3    H227747   3.903   6.179   2.152 -0.8290  1.6589  0.6894
 2086TIP3   OH227748   6.410   1.676   5.766 -0.7585 -0.6879  0.2134
 2086TIP3    H127749   6.338   1.657   5.706 -1.0500  2.0845 -0.4935
 2086TIP3    H227750   6.373   1.737   5.829  1.0286  1.3606 -0.5680
 2087TIP3   OH227751   1.958   3.059  12.357 -0.2999 -0.1988 -0.3735
 2087TIP3    H127752   2.038   3.008  12.346 -1.2244 -1.5178 -1.5169
 2087TIP3    H227753   1.888   2.993  12.350 -1.4674  0.8479  0.9784
 2088TIP3   OH227754   0.573   4.224   2.530 -0.0921  0.7248  0.1802
 2088TIP3    H127755   0.543   4.250   2.616 -0.4684  0.8903  0.0008
 2088TIP3    H227756   0.613   4.304   2.493  0.1542  0.6299  0.2366
 2089TIP3   OH227757   1.786   0.592   5.237  0.1477  0.0005  0.8226
 2089TIP3    H127758   1.769   0.677   5.195 -1.2065 -0.7730 -0.2591
 2089TIP3    H227759   1.699   0.556   5.254  0.7124 -1.2842  1.0664
 2090TIP3   OH227760   2.198   2.183  15.888 -0.1586  0.6938  0.1505
 2090TIP3    H127761   2.171   2.197  15.979  0.6363  1.0824  0.3302
 2090TIP3    H227762   2.215   2.089  15.882  1.4245  0.9151  0.8650
 2091TIP3   OH227763   6.642   2.694  17.047 -0.2503  0.1782 -1.1171
 2091TIP3    H127764   6.726   2.722  17.011  0.2863  1.6018  1.0276
 2091TIP3    H227765   6.665   2.643  17.125 -1.3500  0.7435 -0.3923
 2092TIP3   OH227766   4.245   2.689   4.265  0.4844  0.6648  0.0204
 2092TIP3    H127767   4.312   2.626   4.238  0.9330  0.4513  1.5613
 2092TIP3    H227768   4.294   2.760   4.305 -0.2121  0.2587  1.6559
 2093TIP3   OH227769   0.571   4.582  12.418 -0.5457 -0.0387 -0.5276
 2093TIP3    H127770   0.581   4.610  12.509 -1.4082 -3.2684  0.6893
 2093TIP3    H227771   0.660   4.580  12.383  0.2192 -1.8728  1.3393
 2094TIP3   OH227772   1.165   5.326  12.768  0.4356  0.0665 -0.2473
 2094TIP3    H127773   1.090   5.374  12.733  0.4796  0.6502  0.4398
 2094TIP3    H227774   1.128   5.270  12.836  0.6229  0.4079  0.1423
 2095TIP3   OH227775   5.668   3.004  11.857  0.3848  0.2473  0.1217
 2095TIP3    H127776   5.655   2.911  11.836 -0.0100  0.5943 -1.2579
 2095TIP3    H227777   5.666   3.048  11.772  0.3751  1.5488  0.7807
 2096TIP3   OH227778   3.212   1.883  12.765  0.2831  0.4444  0.1322
 2096TIP3    H127779   3.192   1.884  12.858 -0.1022 -0.8413  0.0726
 2096TIP3    H227780   3.283   1.819  12.755  1.2650  1.5439 -0.2974
 2097TIP3   OH227781   4.822   6.013   5.406 -0.7088 -0.3118 -0.3919
 2097TIP3    H127782   4.858   6.013   5.318 -0.2516 -0.0657 -0.2078
 2097TIP3    H227783   4.848   5.929   5.444  0.4695  0.2385  0.0564
 2098TIP3   OH227784   2.225   4.909   4.443 -0.3002 -0.1563 -0.2222
 2098TIP3    H127785   2.238   4.984   4.501 -0.1139 -1.6779  1.7792
 2098TIP3    H227786   2.268   4.935   4.361 -0.7683  2.1324  0.2015
 2099TIP3   OH227787   4.013   0.679   0.951 -0.1980  0.0057  0.5873
 2099TIP3    H127788   4.029   0.754   0.893  1.0576 -1.2228 -0.7291
 2099TIP3    H227789   4.099   0.642   0.967 -0.8581 -1.5492  0.6997
 2100TIP3   OH227790   4.509   6.045  12.104  0.3707 -0.0832 -0.4194
 2100TIP3    H127791   4.442   6.023  12.039 -2.4621  0.5500  2.0615
 2100TIP3    H227792   4.526   6.138  12.090  2.5453 -0.6996 -2.4800
 2101TIP3   OH227793   6.211   5.336   0.806 -0.4991 -0.1425 -0.0666
 2101TIP3    H127794   6.274   5.293   0.749 -0.1546  1.3281 -0.8446
 2101TIP3    H227795   6.126   5.297   0.783 -0.0772 -1.0954 -0.0334
 2102TIP3   OH227796   0.803   1.871  11.898  0.1240  0.3739 -0.1420
 2102TIP3    H127797   0.793   1.919  11.980  0.8841 -0.8034  0.6770
 2102TIP3    H227798   0.876   1.914  11.853  0.8321 -0.0164  0.6111
 2103TIP3   OH227799   6.710   5.481   2.168 -0.2991 -0.0985 -0.5431
 2103TIP3    H127800   6.709   5.436   2.253 -1.2476  1.9137  0.5823
 2103TIP3    H227801   6.639   5.441   2.119 -0.5628 -0.4401  0.1003
 2104TIP3   OH227802   5.995   6.466  11.895 -0.1324  0.2858  0.5097
 2104TIP3    H127803   5.967   6.536  11.836  1.3704  1.6970  1.3868
 2104TIP3    H227804   6.091   6.471  11.894 -0.0152 -1.1266  1.3722
 2105TIP3   OH227805   5.244   5.934   3.145 -0.0551  0.4053 -0.3945
 2105TIP3    H127806   5.237   6.029   3.157  2.2983  0.5333  0.6108
 2105TIP3    H227807   5.339   5.918   3.143 -0.4107 -1.9422 -0.3799
 2106TIP3   OH227808   3.313   3.214  11.088 -0.1802  0.3624  0.7835
 2106TIP3    H127809   3.332   3.184  10.999 -0.2278  1.5628  0.3554
 2106TIP3    H227810   3.219   3.201  11.098 -0.4909  1.8297  0.0094
 2107TIP3   OH227811   0.108   5.523  11.847  0.5806  0.5014 -0.0589
 2107TIP3    H127812   0.144   5.573  11.920  0.0385  0.8793 -0.0446
 2107TIP3    H227813   0.016   5.548  11.844  1.2264  3.3008 -3.1070
 2108TIP3   OH227814   4.997   3.211  12.329  0.2535 -0.8016  0.0937
 2108TIP3    H127815   5.089   3.189  12.347  0.8141  0.9455 -0.4260
 2108TIP3    H227816   4.990   3.305  12.350 -1.2258 -0.7318 -0.5786
 2109TIP3   OH227817   0.094   3.370  13.286  0.1798 -0.1343  0.8415
 2109TIP3    H127818   0.017   3.396  13.335 -0.4064  0.9451 -0.6076
 2109TIP3    H227819   0.085   3.275  13.276 -1.6096  0.1171 -0.3354
 2110TIP3   OH227820   4.681   0.826   3.799 -0.4351  0.2230  0.3679
 2110TIP3    H127821   4.660   0.916   3.776 -1.6208 -0.0766  0.2012
 2110TIP3    H227822   4.599   0.778   3.785 -0.0394 -0.7371  1.2109
 2111TIP3   OH227823   1.404   1.212  14.184  0.0784 -0.0837  0.0734
 2111TIP3    H127824   1.412   1.193  14.278  0.3325  0.9192  0.2612
 2111TIP3    H227825   1.407   1.307  14.178 -0.2398 -0.1255 -0.9336
 2112TIP3   OH227826   1.867   4.273  13.543 -0.1394  0.3902 -0.0777
 2112TIP3    H127827   1.857   4.368  13.544 -1.0858  0.3233 -1.2018
 2112TIP3    H227828   1.858   4.247  13.634 -0.5428  1.3128  0.1544
 2113TIP3   OH227829   3.918   3.017  10.732  0.3804  0.1016  0.5189
 2113TIP3    H127830   3.886   3.095  10.686  1.7382 -0.3102 -1.2396
 2113TIP3    H227831   3.940   3.048  10.820  2.2347  2.0833 -0.5506
 2114TIP3   OH227832   3.515   3.574  15.528  0.2210 -0.7260  0.3126
 2114TIP3    H127833   3.425   3.562  15.558  0.0015  0.2861  0.0781
 2114TIP3    H227834   3.509   3.640  15.458  1.0992 -0.9052  0.0524
 2115TIP3   OH227835   0.576   5.908  15.611 -0.3108 -0.3208 -0.2867
 2115TIP3    H127836   0.630   5.986  15.597 -0.2830 -0.5969 -1.7961
 2115TIP3    H227837   0.596   5.851  15.538  0.5005 -2.2713  1.3577
 2116TIP3   OH227838   1.007   3.793  16.249 -0.1343 -0.4416  0.2887
 2116TIP3    H127839   1.014   3.711  16.298  0.9534 -0.4700  0.1292
 2116TIP3    H227840   1.095   3.830  16.254 -0.5944  0.6837  0.2897
 2117TIP3   OH227841   0.332   3.639   3.459  0.4121  0.1751 -0.6676
 2117TIP3    H127842   0.423   3.653   3.487  0.1925 -0.7445  0.6454
 2117TIP3    H227843   0.323   3.544   3.456 -0.7543  0.2430  0.1251
 2118TIP3   OH227844   0.675   6.506  12.401  0.6340  0.1996 -0.4926
 2118TIP3    H127845   0.747   6.557  12.364  1.7756 -0.9569  0.0586
 2118TIP3    H227846   0.709   6.472  12.483 -0.1313 -1.3343 -0.7774
 2119TIP3   OH227847   5.054   4.362  14.429 -0.1946 -0.2454  0.1676
 2119TIP3    H127848   4.969   4.341  14.388 -1.0617  0.7011  1.4193
 2119TIP3    H227849   5.116   4.307  14.382 -1.4924 -0.9702 -0.7976
 2120TIP3   OH227850   4.269   3.577   2.855 -0.4776 -0.1050  0.3044
 2120TIP3    H127851   4.224   3.492   2.855 -2.5353  0.9247  0.4948
 2120TIP3    H227852   4.221   3.629   2.919  1.5472  0.8387  1.1418
 2121TIP3   OH227853   6.714   6.624  13.906 -0.2456  0.3171  0.3237
 2121TIP3    H127854   6.681   6.712  13.889 -0.3746  0.8595  2.9211
 2121TIP3    H227855   6.804   6.625  13.873  0.4594  2.1434  2.1075
 2122TIP3   OH227856   0.764   4.850  15.055  0.4993 -0.4838  0.0521
 2122TIP3    H127857   0.697   4.796  15.097  0.9572 -1.1704 -0.0844
 2122TIP3    H227858   0.843   4.796  15.058  0.5564 -0.5560 -1.6728
 2123TIP3   OH227859   1.913   4.619  14.512  0.3188 -0.2980 -0.2561
 2123TIP3    H127860   1.972   4.554  14.550  1.2816  0.5282 -0.3184
 2123TIP3    H227861   1.843   4.628  14.576  0.9803 -0.2686  0.4704
 2124TIP3   OH227862   3.494   3.358  14.783  0.3120 -0.2008 -0.1300
 2124TIP3    H127863   3.429   3.324  14.721  1.7256 -0.5249 -1.5125
 2124TIP3    H227864   3.443   3.391  14.856 -1.4481  0.1755 -1.4604
 2125TIP3   OH227865   1.830   2.896   2.442  0.1660  0.0960 -0.2492
 2125TIP3    H127866   1.882   2.820   2.470  0.7409  0.4676 -0.2764
 2125TIP3    H227867   1.893   2.969   2.443  0.0311  0.2722 -1.7425
 2126TIP3   OH227868   3.503   2.394  11.407 -0.4268 -0.2247  0.4341
 2126TIP3    H127869   3.527   2.471  11.459 -2.0057  0.7305 -0.1829
 2126TIP3    H227870   3.581   2.338  11.410  0.9059  1.5643  0.5797
 2127TIP3   OH227871   4.557   0.642  13.583 -0.6572 -0.0660  0.3395
 2127TIP3    H127872   4.598   0.586  13.517 -0.6289 -0.6854  0.8622
 2127TIP3    H227873   4.506   0.705  13.534  1.9677  1.6191 -0.4388
 2128TIP3   OH227874   3.066   4.534  10.877 -0.3012  0.0089 -0.1281
 2128TIP3    H127875   3.048   4.479  10.801 -2.3373 -1.0006  0.9913
 2128TIP3    H227876   2.994   4.516  10.938 -0.0078  2.4829  1.1115
 2129TIP3   OH227877   2.083   0.914   3.021 -0.3935  0.2301  0.2251
 2129TIP3    H127878   2.148   0.850   3.050 -0.2658  0.6402  0.8583
 2129TIP3    H227879   1.999   0.871   3.037 -0.3128  0.2942  0.8274
 2130TIP3   OH227880   3.677   2.754  14.206 -0.5846  0.1884 -0.0422
 2130TIP3    H127881   3.628   2.688  14.156 -1.5648  0.5019  0.4942
 2130TIP3    H227882   3.614   2.823  14.225  0.3611  1.1866 -0.3673
 2131TIP3   OH227883   3.343   3.263  16.506 -0.1935 -0.4220 -0.4671
 2131TIP3    H127884   3.286   3.194  16.540  1.4169 -1.1022  1.0322
 2131TIP3    H227885   3.334   3.335  16.568  0.7911 -0.6689 -0.0153
 2132TIP3   OH227886   3.664   4.166   3.300  0.4062 -0.4561 -0.2488
 2132TIP3    H127887   3.669   4.260   3.317  2.1385 -0.6679  0.5771
 2132TIP3    H227888   3.608   4.133   3.370 -0.9216  0.0468 -1.0386
 2133TIP3   OH227889   5.946   3.148  14.790 -0.3205 -0.3709 -0.4337
 2133TIP3    H127890   6.002   3.223  14.769 -1.1340  0.0732 -1.0968
 2133TIP3    H227891   5.860   3.172  14.754 -1.2773 -0.4813  1.6749
 2134TIP3   OH227892   3.996   2.799   1.649  0.1127 -0.2170 -0.5365
 2134TIP3    H127893   3.936   2.728   1.675  2.1369 -1.6162  0.5659
 2134TIP3    H227894   3.977   2.812   1.556 -2.0258 -0.4376 -0.1955
 2135TIP3   OH227895   0.243   1.110   1.410  0.3016  0.5204  0.4873
 2135TIP3    H127896   0.270   1.200   1.431 -0.3586  0.2759  2.5915
 2135TIP3    H227897   0.152   1.106   1.438 -0.5261 -0.0792 -2.0366
 2136TIP3   OH227898   1.491   5.472   0.165  0.5753 -0.4301 -0.3642
 2136TIP3    H127899   1.416   5.501   0.217 -0.3417 -1.2023 -1.2140
 2136TIP3    H227900   1.567   5.513   0.207 -0.2152 -0.3724  1.0730
 2137TIP3   OH227901   3.435   3.282   2.143 -0.4415  0.1383  0.2933
 2137TIP3    H127902   3.425   3.189   2.160 -0.5254  0.0397 -0.3039
 2137TIP3    H227903   3.471   3.288   2.055 -1.9951  0.7089 -0.3464
 2138TIP3   OH227904   0.924   4.407  15.435 -0.0764 -0.1603 -0.2917
 2138TIP3    H127905   0.847   4.364  15.474 -0.5967  0.3170 -0.7750
 2138TIP3    H227906   0.964   4.340  15.380 -0.0288 -0.4703  0.1095
 2139TIP3   OH227907   6.746   4.960  12.859 -0.1391  0.1858 -0.0723
 2139TIP3    H127908   6.813   4.944  12.926  1.3281 -0.8649 -1.7003
 2139TIP3    H227909   6.676   4.899  12.880  0.4356 -0.3442  0.3334
 2140TIP3   OH227910   2.091   1.966   2.220 -0.4001 -0.0448  0.1586
 2140TIP3    H127911   2.113   1.960   2.313  0.4010 -1.0117 -0.0801
 2140TIP3    H227912   2.016   1.908   2.209 -0.7077  0.3271  0.2519
 2141TIP3   OH227913   0.312   1.211   5.576 -0.2073 -0.6282  0.0578
 2141TIP3    H127914   0.232   1.160   5.590 -0.9726  0.0082 -1.6376
 2141TIP3    H227915   0.376   1.148   5.545 -0.9754 -0.7139 -1.4573
 2142TIP3   OH227916   1.352   4.124   3.171  0.2602 -0.7228  0.5265
 2142TIP3    H127917   1.305   4.100   3.092 -3.3556  0.8304  1.9854
 2142TIP3    H227918   1.345   4.220   3.175 -0.2703 -0.7964  2.9590
 2143TIP3   OH227919   5.293   4.919  12.915 -0.0815  0.0162  0.0955
 2143TIP3    H127920   5.325   5.006  12.938 -1.0404  0.4303 -0.0964
 2143TIP3    H227921   5.304   4.913  12.820  1.0003 -0.5047  0.2403
 2144TIP3   OH227922   6.663   3.035   0.610  0.2474  0.1259 -0.0039
 2144TIP3    H127923   6.647   3.096   0.682 -1.6122  0.1658 -0.4091
 2144TIP3    H227924   6.579   3.030   0.563 -0.2159 -3.8613  0.8828
 2145TIP3   OH227925   4.872   5.145  11.459 -0.1433 -0.0093  0.1787
 2145TIP3    H127926   4.795   5.167  11.511 -0.4982 -0.9793  0.0939
 2145TIP3    H227927   4.927   5.094  11.518 -0.6597 -1.3228 -0.4235
 2146TIP3   OH227928   2.825   6.452   5.671 -0.6659  0.0911 -0.0092
 2146TIP3    H127929   2.814   6.547   5.675 -1.7844 -0.0071 -0.3928
 2146TIP3    H227930   2.773   6.418   5.744 -1.9059 -0.3190 -1.0377
 2147TIP3   OH227931   6.216   5.835   6.858  0.3668  0.0134 -0.4573
 2147TIP3    H127932   6.270   5.763   6.824  0.3921  0.3612 -1.1553
 2147TIP3    H227933   6.275   5.910   6.861  0.8558 -0.3805  1.9722
 2148TIP3   OH227934   5.275   6.136   6.535 -0.7636 -0.1270 -0.0648
 2148TIP3    H127935   5.199   6.108   6.484 -0.5390 -0.2907 -0.3128
 2148TIP3    H227936   5.344   6.074   6.511  0.0504  1.2078 -1.4021
 2149TIP3   OH227937   1.646   1.727  16.059  0.4485  0.0864 -0.8068
 2149TIP3    H127938   1.640   1.663  15.988  1.8528  0.0251 -0.9056
 2149TIP3    H227939   1.734   1.764  16.050  0.3952  0.5811  0.4806
 2150TIP3   OH227940   3.549   6.463   3.848 -0.1247  0.4539  0.5589
 2150TIP3    H127941   3.568   6.421   3.932 -1.7650  1.5755  1.5411
 2150TIP3    H227942   3.610   6.537   3.844  0.5787 -0.1214  0.3017
 2151TIP3   OH227943   6.541   6.292   0.990 -0.3145 -0.0275 -0.6475
 2151TIP3    H127944   6.502   6.267   1.074  1.5392 -1.3435 -0.1128
 2151TIP3    H227945   6.553   6.387   0.997  0.5118 -0.2049  0.9311
 2152TIP3   OH227946   5.449   6.587   2.712  0.0860  0.1016  0.0739
 2152TIP3    H127947   5.372   6.606   2.766  0.4523 -1.4204  1.1772
 2152TIP3    H227948   5.496   6.518   2.759  1.7803  0.5117 -0.9192
 2153TIP3   OH227949   1.489   3.673  14.759 -0.3012 -0.4679  0.2954
 2153TIP3    H127950   1.448   3.760  14.761 -0.1190 -0.3920  1.1615
 2153TIP3    H227951   1.483   3.642  14.849  1.0289 -0.6919  0.3327
 2154TIP3   OH227952   2.938   5.910  10.366  0.6072 -0.2526 -0.6566
 2154TIP3    H127953   2.936   5.998  10.404  0.5195 -0.6695  0.3269
 2154TIP3    H227954   2.859   5.906  10.312 -0.8612 -0.6061  1.3796
 2155TIP3   OH227955   4.266   5.267   1.333 -0.0479  0.4712 -0.2729
 2155TIP3    H127956   4.212   5.321   1.274  1.6400  0.6986 -1.6761
 2155TIP3    H227957   4.221   5.183   1.336 -2.0615  1.5015  0.9769
 2156TIP3   OH227958   5.055   2.703  11.527  0.3328  0.2925  0.5379
 2156TIP3    H127959   4.991   2.748  11.471  0.7383 -0.3689 -0.4743
 2156TIP3    H227960   5.038   2.610  11.514  1.2986  0.1111  0.4927
 2157TIP3   OH227961   4.621   4.806  16.023  0.3990 -0.6645 -0.5556
 2157TIP3    H127962   4.550   4.865  16.049  0.7732 -0.1044 -0.7813
 2157TIP3    H227963   4.576   4.724  16.001 -0.2136 -0.2559 -0.8992
 2158TIP3   OH227964   4.848   4.500  13.890 -0.2584  0.1475 -0.2604
 2158TIP3    H127965   4.841   4.595  13.897  0.5566  0.5806 -3.4699
 2158TIP3    H227966   4.871   4.471  13.978  2.7095  3.3084  0.2321
 2159TIP3   OH227967   5.389   6.432  13.070 -0.1700  0.6043 -0.3641
 2159TIP3    H127968   5.346   6.488  13.005  0.1213  1.2984  0.0364
 2159TIP3    H227969   5.349   6.456  13.154  2.0465  2.4082  0.2783
 2160TIP3   OH227970   5.749   3.166   0.419 -0.1340  0.2421 -0.0238
 2160TIP3    H127971   5.731   3.185   0.327  0.5343  0.6664 -0.0722
 2160TIP3    H227972   5.681   3.102   0.444 -0.1394 -0.1042 -0.8857
 2161TIP3   OH227973   2.551   0.095  16.329 -0.1598 -0.2485 -0.5942
 2161TIP3    H127974   2.631   0.097  16.381  0.6694 -2.2317 -1.6876
 2161TIP3    H227975   2.566   0.157  16.258 -0.4339  0.8653  0.2926
 2162TIP3   OH227976   0.948   0.850   3.886 -0.6238  0.5752 -0.0112
 2162TIP3    H127977   0.869   0.893   3.853  0.6485  1.4138 -2.1496
 2162TIP3    H227978   0.933   0.757   3.868 -0.3696  0.9158 -2.2114
 2163TIP3   OH227979   1.462   2.689   3.360  0.0187  0.5334  0.2125
 2163TIP3    H127980   1.403   2.674   3.286 -0.5734 -1.2019  0.9728
 2163TIP3    H227981   1.547   2.708   3.319 -0.1621 -0.9574 -0.9445
 2164TIP3   OH227982   1.404   3.785   0.031  0.1896 -0.3867  0.1730
 2164TIP3    H127983   1.325   3.810   0.078 -0.3539 -1.8003  0.0378
 2164TIP3    H227984   1.425   3.861  -0.023 -0.3003  0.5053  1.1965
 2165TIP3   OH227985   2.312   6.292   1.153 -0.2894 -0.4526 -0.1091
 2165TIP3    H127986   2.365   6.238   1.213  0.5556  0.4669 -0.0018
 2165TIP3    H227987   2.274   6.228   1.092  0.6200 -1.1945  0.0632
 2166TIP3   OH227988   4.903   6.376  12.844 -0.2657 -0.3389  0.2997
 2166TIP3    H127989   4.863   6.462  12.835  4.1137  1.8565 -0.5973
 2166TIP3    H227990   4.914   6.345  12.754  0.7526 -0.4619  0.4535
 2167TIP3   OH227991   3.141   3.944   6.284  0.4301  0.0353 -0.6905
 2167TIP3    H127992   3.051   3.959   6.256  0.5703  1.7977 -0.3060
 2167TIP3    H227993   3.195   3.976   6.212  0.7590 -0.5774 -0.7247
 2168TIP3   OH227994   5.531   1.680   1.014  0.2514 -0.3682  0.1416
 2168TIP3    H127995   5.548   1.651   1.104 -0.2472  0.2529  0.4409
 2168TIP3    H227996   5.437   1.665   1.002  0.3367 -0.5547 -0.3202
 2169TIP3   OH227997   4.495   2.448  11.164 -0.3557  0.4170  0.3401
 2169TIP3    H127998   4.452   2.529  11.192 -0.6703 -0.2551  1.8708
 2169TIP3    H227999   4.424   2.392  11.133 -0.6277 -0.5769  2.5851
 2170TIP3   OH228000   0.475   2.329  13.658 -0.1476 -0.4019  0.5250
 2170TIP3    H128001   0.390   2.306  13.696 -0.6592 -0.3965 -0.5935
 2170TIP3    H228002   0.489   2.420  13.685 -0.6266 -0.3149  0.5030
 2171TIP3   OH228003   6.174   3.427   1.473 -0.3135 -0.7734  0.0560
 2171TIP3    H128004   6.211   3.431   1.561  0.1027 -0.1154 -0.1337
 2171TIP3    H228005   6.107   3.360   1.478 -2.0972  0.9942  1.5697
 2172TIP3   OH228006   1.312   4.594  16.811  0.5357  0.5935  0.2660
 2172TIP3    H128007   1.285   4.670  16.761 -1.0167  0.4896  0.8798
 2172TIP3    H228008   1.293   4.519  16.754  1.1011  0.6059  0.0577
 2173TIP3   OH228009   3.797   2.279  16.356 -0.1945  0.5013 -0.3300
 2173TIP3    H128010   3.721   2.226  16.376 -0.4856  1.3237  0.8417
 2173TIP3    H228011   3.868   2.242  16.408 -0.1488  0.6407 -0.2914
 2174TIP3   OH228012   0.444   0.525  15.580 -0.3846 -0.2124 -0.7431
 2174TIP3    H128013   0.477   0.457  15.521  0.6998  0.5770 -1.0835
 2174TIP3    H228014   0.469   0.607  15.538  0.1327  0.3786  0.6485
 2175TIP3   OH228015   0.674   0.463   0.188  0.3113  0.6391 -0.4428
 2175TIP3    H128016   0.711   0.398   0.247 -0.8260 -0.7524 -1.1998
 2175TIP3    H228017   0.656   0.539   0.244 -0.1360 -0.4120  0.8750
 2176TIP3   OH228018   6.080   3.413  16.160 -0.5256  0.1471  0.3131
 2176TIP3    H128019   6.122   3.327  16.152  0.0985  0.4181  0.6390
 2176TIP3    H228020   6.002   3.406  16.105 -0.4973 -0.6385  0.3579
 2177TIP3   OH228021   3.999   0.273   3.284  0.2504 -0.6066 -0.4917
 2177TIP3    H128022   3.941   0.210   3.241 -1.9798  1.1699 -0.3183
 2177TIP3    H228023   3.947   0.306   3.358  2.3199 -0.4072  0.9482
 2178TIP3   OH228024   5.569   3.135   4.661  0.2767 -0.2442 -0.5032
 2178TIP3    H128025   5.578   3.223   4.696  1.6105 -0.0969 -1.1783
 2178TIP3    H228026   5.475   3.123   4.650  0.1714  1.9283 -2.5238
 2179TIP3   OH228027   4.792   1.159  16.441 -0.1213  0.3074  0.4775
 2179TIP3    H128028   4.751   1.244  16.426 -0.1615  0.7976  2.9475
 2179TIP3    H228029   4.874   1.163  16.391  0.9392  2.6990  2.2154
 2180TIP3   OH228030   6.762   3.108  16.300  0.3218  0.2147  0.0152
 2180TIP3    H128031   6.699   3.042  16.273  1.3778  0.1514 -2.6060
 2180TIP3    H228032   6.709   3.184  16.323 -0.7650 -0.4635 -0.1631
 2181TIP3   OH228033   0.725   2.506   3.705  0.2792 -0.4985 -0.5101
 2181TIP3    H128034   0.677   2.503   3.788  2.3943 -0.7297  0.7816
 2181TIP3    H228035   0.731   2.599   3.684  1.8650 -0.1874  1.0092
 2182TIP3   OH228036   4.945   0.762   2.429 -0.1499 -0.3835  0.6778
 2182TIP3    H128037   4.854   0.781   2.451  0.1924  1.8874  0.3810
 2182TIP3    H228038   4.977   0.712   2.504 -1.4779 -0.7286  1.0529
 2183TIP3   OH228039   3.006   5.652  16.605 -0.6879  0.4463 -0.2014
 2183TIP3    H128040   3.078   5.700  16.564 -0.4407  0.6493  0.4709
 2183TIP3    H228041   3.049   5.593  16.667 -1.0360 -0.1677 -0.5315
 2184TIP3   OH228042   5.412   4.480  16.239  0.3168 -0.2692 -0.0937
 2184TIP3    H128043   5.470   4.406  16.254  0.8758  0.1204 -0.3215
 2184TIP3    H228044   5.464   4.557  16.259  0.7599  0.2399 -2.7851
 2185TIP3   OH228045   0.439   1.683  12.071 -0.1147 -0.5496 -0.1535
 2185TIP3    H128046   0.434   1.689  11.975 -2.3370 -2.2582 -0.1920
 2185TIP3    H228047   0.426   1.773  12.100 -1.6189 -0.3187 -1.4177
 2186TIP3   OH228048   1.400   4.727  12.468  0.4729 -0.0445  0.1963
 2186TIP3    H128049   1.489   4.763  12.463 -0.3984  2.7537  2.3026
 2186TIP3    H228050   1.405   4.661  12.538  0.7840  0.5355  0.7323
 2187TIP3   OH228051   6.436   4.006  13.891 -0.2615 -0.3929  0.2374
 2187TIP3    H128052   6.375   4.036  13.823 -1.5874  0.6103  1.8136
 2187TIP3    H228053   6.448   4.082  13.948  2.9103 -0.3911 -0.2532
 2188TIP3   OH228054   1.051   0.205  15.790  0.1756  0.2989 -0.2230
 2188TIP3    H128055   1.029   0.297  15.774 -0.2845  0.1062 -0.7255
 2188TIP3    H228056   1.042   0.195  15.885 -1.1306  0.4410 -0.3070
 2189TIP3   OH228057   3.218   0.085   6.484  0.2635 -0.4250  0.4066
 2189TIP3    H128058   3.295   0.031   6.500 -0.5222 -1.3712  1.1587
 2189TIP3    H228059   3.230   0.120   6.396 -0.9061 -4.8548 -1.8295
 2190TIP3   OH228060   4.327   4.498   3.132 -0.3191 -0.5184  0.3078
 2190TIP3    H128061   4.407   4.492   3.184 -0.5833  0.2650  0.8170
 2190TIP3    H228062   4.268   4.434   3.172 -0.6942  0.4182  1.3093
 2191TIP3   OH228063   4.859   1.816  14.207 -0.3131 -0.0628 -0.4465
 2191TIP3    H128064   4.919   1.746  14.181  0.5870  0.5203  0.0158
 2191TIP3    H228065   4.874   1.885  14.143 -0.4545  0.1059 -0.2985
 2192TIP3   OH228066   6.579   3.203  16.604 -0.3109 -1.2022 -0.3699
 2192TIP3    H128067   6.650   3.202  16.540  0.2658  0.1938  0.2139
 2192TIP3    H228068   6.500   3.210  16.551  0.0655 -1.4389 -0.9781
 2193TIP3   OH228069   6.765   6.544   0.039  0.2992 -0.0294  0.5734
 2193TIP3    H128070   6.732   6.456   0.024  0.0068  0.1530  0.1215
 2193TIP3    H228071   6.859   6.537   0.027  0.1779 -0.0900 -0.4389
 2194TIP3   OH228072   5.740   5.660   4.488 -0.1186 -0.4474  0.6161
 2194TIP3    H128073   5.702   5.607   4.418 -1.0977 -1.0257  1.5641
 2194TIP3    H228074   5.672   5.723   4.511  0.2646 -0.1410  0.9245
 2195TIP3   OH228075   2.616   1.106   2.054 -0.4473 -0.1653  0.0732
 2195TIP3    H128076   2.550   1.113   1.985 -0.8105  1.4506  0.5483
 2195TIP3    H228077   2.640   1.013   2.055 -2.6701 -0.8075 -0.1678
 2196TIP3   OH228078   5.230   5.856   0.288 -0.0506 -0.0922  0.7406
 2196TIP3    H128079   5.313   5.844   0.334 -0.4619 -1.4287  1.1790
 2196TIP3    H228080   5.183   5.921   0.341  1.0398  1.3985 -0.0194
 2197TIP3   OH228081   4.793   5.216  13.071 -0.1145  0.3653 -0.6646
 2197TIP3    H128082   4.828   5.137  13.031  2.1334  1.0101 -0.0947
 2197TIP3    H228083   4.862   5.281  13.062 -1.1870  1.7523  0.4937
 2198TIP3   OH228084   0.757   1.298  11.070 -0.0083 -0.8321  0.1896
 2198TIP3    H128085   0.667   1.263  11.075  0.3453 -1.6856  0.9148
 2198TIP3    H228086   0.804   1.235  11.016 -0.0674  0.1381 -1.0196
 2199TIP3   OH228087   2.464   4.889  13.851  0.0344  0.3088  0.1824
 2199TIP3    H128088   2.476   4.837  13.771  0.0401 -0.3766  0.6165
 2199TIP3    H228089   2.496   4.976  13.829 -0.7965  0.3726 -0.8416
 2200TIP3   OH228090   5.370   4.475   5.041 -0.1393 -0.0826  0.0919
 2200TIP3    H128091   5.316   4.397   5.054  0.5878 -0.5201  0.4989
 2200TIP3    H228092   5.364   4.493   4.947 -3.4063  1.6467  0.4758
 2201TIP3   OH228093   2.543   0.068  15.917  0.2474  0.0769  0.0470
 2201TIP3    H128094   2.504   0.021  15.991 -0.6793  0.1078 -0.4049
 2201TIP3    H228095   2.468   0.098  15.866  0.8731  0.1034 -0.8785
 2202TIP3   OH228096   2.277   3.880  11.768 -0.1388 -0.3825 -0.3027
 2202TIP3    H128097   2.188   3.861  11.736 -0.4579  0.0970  0.2917
 2202TIP3    H228098   2.268   3.961  11.818  0.9038  0.4685 -1.4254
 2203TIP3   OH228099   3.719   0.558  15.977 -0.1106  0.3648  0.8292
 2203TIP3    H128100   3.733   0.565  16.072 -0.5681 -1.5704  1.0707
 2203TIP3    H228101   3.798   0.514  15.945  1.3836  3.4896 -0.1840
 2204TIP3   OH228102   1.942   4.670   1.319  0.1545  0.0283  0.5606
 2204TIP3    H128103   1.974   4.667   1.229 -1.4369  1.2790 -0.0875
 2204TIP3    H228104   2.019   4.693   1.371  1.3434 -1.7459 -0.2925
 2205TIP3   OH228105   4.891   3.938  15.896 -0.0675  0.0338 -0.3383
 2205TIP3    H128106   4.894   4.026  15.858 -1.7354  0.0681 -0.4455
 2205TIP3    H228107   4.841   3.886  15.833 -2.4074 -0.0429  1.4315
 2206TIP3   OH228108   3.560   4.288  16.611 -0.1750  0.4958  0.0485
 2206TIP3    H128109   3.493   4.350  16.640 -0.1520  1.1241 -1.1724
 2206TIP3    H228110   3.642   4.328  16.637 -0.0117  2.0983 -2.5153
 2207TIP3   OH228111   5.952   1.201   2.188 -0.4770  0.1795  0.3882
 2207TIP3    H128112   5.909   1.226   2.106 -0.5327 -0.2864  0.2729
 2207TIP3    H228113   5.959   1.106   2.183 -0.1991  0.1783  0.7879
 2208TIP3   OH228114   2.546   3.081  13.162 -0.1082 -0.4105 -0.5397
 2208TIP3    H128115   2.630   3.036  13.172  0.2556  0.3177 -0.2516
 2208TIP3    H228116   2.529   3.081  13.068  0.3512 -0.3188 -0.6245
 2209TIP3   OH228117   6.183   3.524  14.544  0.6193 -0.1672  0.0549
 2209TIP3    H128118   6.172   3.539  14.450  1.4487 -0.9205 -0.1731
 2209TIP3    H228119   6.256   3.463  14.550 -0.3956 -1.3407  1.1171
 2210TIP3   OH228120   0.001   6.318  16.736 -0.0415  0.5425  0.3603
 2210TIP3    H128121  -0.087   6.352  16.752 -0.7764 -1.6932  1.4915
 2210TIP3    H228122   0.007   6.239  16.790  2.1227 -0.2284 -0.8622
 2211TIP3   OH228123   2.190   1.861   1.484  0.3249  0.3620  0.0855
 2211TIP3    H128124   2.270   1.812   1.503  0.4973  0.7574  0.4167
 2211TIP3    H228125   2.120   1.797   1.493  0.7444 -0.5304 -2.3509
 2212TIP3   OH228126   3.673   0.080   3.882  0.0584 -0.0075  0.0504
 2212TIP3    H128127   3.619   0.141   3.931  0.9403  1.1739 -0.4118
 2212TIP3    H228128   3.740   0.051   3.944  1.7395  2.1988 -0.6269
 2213TIP3   OH228129   3.293   4.242   3.061 -0.5302  0.3973 -0.1988
 2213TIP3    H128130   3.262   4.324   3.021 -1.3802  0.3736  0.3871
 2213TIP3    H228131   3.385   4.258   3.080 -0.3361  0.7258 -1.3360
 2214TIP3   OH228132   3.730   1.648  16.090 -0.3104  1.0056  0.2828
 2214TIP3    H128133   3.708   1.656  15.998 -1.6863  0.3748  0.5288
 2214TIP3    H228134   3.825   1.656  16.093  0.0265 -1.2421 -1.4818
 2215TIP3   OH228135   3.709   0.447  13.788  0.0274 -0.3815  0.4086
 2215TIP3    H128136   3.803   0.465  13.791  0.2002 -1.2055  0.1067
 2215TIP3    H228137   3.669   0.533  13.780  0.7471 -0.0063  0.6857
 2216TIP3   OH228138   1.212   0.687   3.219  0.4582 -0.0195  0.2234
 2216TIP3    H128139   1.180   0.601   3.192 -1.2342  0.8970 -0.8012
 2216TIP3    H228140   1.252   0.723   3.140 -2.2985  1.6573 -0.5295
 2217TIP3   OH228141   0.724   4.387   0.688 -0.0198  0.2383 -0.3721
 2217TIP3    H128142   0.652   4.440   0.656 -1.2221 -1.8169 -1.2925
 2217TIP3    H228143   0.691   4.347   0.769  0.3656 -0.1244 -0.3884
 2218TIP3   OH228144   2.281   2.968  11.437 -0.1481  0.0052  0.5580
 2218TIP3    H128145   2.339   2.899  11.404 -0.7880  0.0444 -0.7330
 2218TIP3    H228146   2.339   3.039  11.464  0.4247 -0.0341 -0.5220
 2219TIP3   OH228147   5.925   6.222  14.038  0.8487 -0.2228 -0.0430
 2219TIP3    H128148   5.911   6.167  13.961  0.5121  1.5513 -1.3159
 2219TIP3    H228149   6.004   6.187  14.079 -0.4605 -2.9007  0.3965
 2220TIP3   OH228150   6.755   4.784  14.449 -0.2510 -0.0840  0.3979
 2220TIP3    H128151   6.770   4.690  14.465 -0.1550 -0.1357  0.0156
 2220TIP3    H228152   6.749   4.791  14.354  3.3566  0.8317  0.0976
 2221TIP3   OH228153   0.969   4.538  11.856 -0.2975 -0.0062  0.1778
 2221TIP3    H128154   1.019   4.559  11.934  0.2226 -1.9475  0.4157
 2221TIP3    H228155   0.901   4.477  11.886 -1.8345  1.3520 -0.4223
 2222TIP3   OH228156   3.367   4.223   4.047  0.6314 -0.0325 -0.0925
 2222TIP3    H128157   3.421   4.159   4.000  0.9611  0.3647 -0.2559
 2222TIP3    H228158   3.289   4.174   4.072  0.8045 -0.4563 -0.3704
 2223TIP3   OH228159   1.538   3.768  15.729 -0.2238 -0.3711  0.1014
 2223TIP3    H128160   1.631   3.754  15.709 -0.0545 -0.4592  0.9030
 2223TIP3    H228161   1.539   3.831  15.801 -0.7841 -0.5117  0.2349
 2224TIP3   OH228162   4.785   6.137   4.749  0.1079  0.2758  0.1774
 2224TIP3    H128163   4.834   6.176   4.676  0.8043  0.1478  0.5598
 2224TIP3    H228164   4.797   6.043   4.738 -0.3028  0.2342  0.1041
 2225TIP3   OH228165   1.783   3.012   2.125  0.4110  0.5980 -0.1018
 2225TIP3    H128166   1.754   2.941   2.068  0.5584 -0.5072  1.1710
 2225TIP3    H228167   1.855   2.974   2.176  0.7422  1.7723  0.3346
 2226TIP3   OH228168   2.858   4.694   3.407 -0.0926 -0.0493  0.2512
 2226TIP3    H128169   2.889   4.659   3.491 -0.3671  2.6456  1.5870
 2226TIP3    H228170   2.779   4.743   3.430 -1.0082 -0.4436 -1.8675
 2227TIP3   OH228171   5.140   2.248  11.442  0.4390  0.3460  0.0212
 2227TIP3    H128172   5.075   2.278  11.507 -0.0582 -0.9859  0.1649
 2227TIP3    H228173   5.097   2.261  11.358  0.0282 -0.3896  0.1081
 2228TIP3   OH228174   0.459   4.995  13.645 -0.1365 -0.4933  0.4626
 2228TIP3    H128175   0.498   5.029  13.725  1.8143  0.0430 -0.6550
 2228TIP3    H228176   0.445   5.072  13.590 -0.1353 -0.9796 -0.2372
 2229TIP3   OH228177   1.831   1.410  11.018  0.1155 -0.3945 -0.3059
 2229TIP3    H128178   1.782   1.365  10.949 -0.4795 -0.1350 -0.0603
 2229TIP3    H228179   1.845   1.498  10.984 -1.3277  0.1540  0.4102
 2230TIP3   OH228180   1.102   1.676  11.481 -0.0392 -0.1536 -0.3339
 2230TIP3    H128181   1.132   1.619  11.553  2.5246  1.0820 -0.2849
 2230TIP3    H228182   1.053   1.618  11.423  1.8858 -2.3145  0.0376
 2231TIP3   OH228183   0.589   1.324   2.843 -0.1515 -0.2464  0.4085
 2231TIP3    H128184   0.665   1.358   2.796  0.0797  0.8104  1.4995
 2231TIP3    H228185   0.624   1.291   2.926 -0.6464 -1.4440  0.1669
 2232TIP3   OH228186   2.361   3.507  14.852  0.1258  0.2075  0.2979
 2232TIP3    H128187   2.367   3.500  14.947 -1.3686 -1.0285  0.3403
 2232TIP3    H228188   2.379   3.599  14.834  0.1359  0.5308  1.7920
 2233TIP3   OH228189   5.116   4.279   5.444 -0.5498  0.1099  0.5405
 2233TIP3    H128190   5.128   4.304   5.536 -3.5000  1.5642  0.6750
 2233TIP3    H228191   5.151   4.190   5.438  0.9803  0.4985  2.7125
 2234TIP3   OH228192   2.592   2.900  11.451  0.2170  0.1037  0.0912
 2234TIP3    H128193   2.575   2.849  11.531 -0.5161  0.3271  0.0833
 2234TIP3    H228194   2.637   2.839  11.393  1.0272  0.0240  0.7829
 2235TIP3   OH228195   4.827   3.269  15.230 -0.3927 -0.5393  0.0425
 2235TIP3    H128196   4.837   3.363  15.214 -0.2309 -0.5829 -0.1207
 2235TIP3    H228197   4.751   3.262  15.287 -0.3849 -0.3059  0.0829
 2236TIP3   OH228198   1.626   6.320   2.024 -0.0231  0.5860  0.3855
 2236TIP3    H128199   1.702   6.285   2.071 -0.0719  1.0496  0.8278
 2236TIP3    H228200   1.583   6.244   1.986  0.2289  0.2410  0.7902
 2237TIP3   OH228201   1.924   3.211  11.272 -0.8735  0.1195 -0.4929
 2237TIP3    H128202   1.958   3.300  11.287 -2.1475  0.8868 -1.8583
 2237TIP3    H228203   1.833   3.216  11.300 -1.8256  0.1454 -3.3352
 2238TIP3   OH228204   1.715   6.633  12.646 -0.5188  0.0574 -0.7028
 2238TIP3    H128205   1.639   6.691  12.639 -0.9269 -0.1122  1.4559
 2238TIP3    H228206   1.685   6.550  12.608 -1.0982  0.2825 -0.7554
 2239TIP3   OH228207   5.676   3.555  12.152  0.6033  0.4270  0.0982
 2239TIP3    H128208   5.640   3.492  12.090  1.4896  1.3603 -1.4420
 2239TIP3    H228209   5.722   3.618  12.097  0.7806  1.7282  1.6818
 2240TIP3   OH228210   2.914   4.599  11.480  0.5960 -0.3913  0.0851
 2240TIP3    H128211   2.850   4.649  11.429  0.0360 -0.6620  0.5097
 2240TIP3    H228212   2.965   4.666  11.526  0.3818 -0.1826  0.0231
 2241TIP3   OH228213   0.831   4.925   0.349 -0.5159  0.1105  0.1750
 2241TIP3    H128214   0.828   4.985   0.274 -0.8248  0.5742  0.5550
 2241TIP3    H228215   0.739   4.917   0.377 -0.6772 -1.5706 -0.6718
 2242TIP3   OH228216   2.159   6.277   3.840 -0.3540 -0.3549  0.2371
 2242TIP3    H128217   2.131   6.340   3.907  2.3656 -1.4623  2.6191
 2242TIP3    H228218   2.240   6.314   3.805  0.3845 -1.6665  0.4890
 2243TIP3   OH228219   1.274   0.412   5.548  0.2448 -0.6628 -0.2034
 2243TIP3    H128220   1.339   0.475   5.576 -0.1945  0.2397 -1.1279
 2243TIP3    H228221   1.210   0.409   5.619 -0.4401  0.9838 -0.7120
 2244TIP3   OH228222   2.769   1.870  12.580  0.2784  0.0094 -0.6602
 2244TIP3    H128223   2.849   1.897  12.536  0.4714  0.1342 -0.2354
 2244TIP3    H228224   2.699   1.888  12.516  0.5358  0.3460 -0.8480
 2245TIP3   OH228225   1.881   6.316  13.063  0.5457 -0.2339 -0.4243
 2245TIP3    H128226   1.870   6.379  12.992 -0.6608 -1.7503 -1.6679
 2245TIP3    H228227   1.792   6.282  13.079  1.1111 -1.4420  0.3287
 2246TIP3   OH228228   4.902   1.990  13.968 -0.1515  0.1723  0.2533
 2246TIP3    H128229   4.899   2.066  14.027  0.7627 -0.6901  1.4604
 2246TIP3    H228230   4.973   2.010  13.907  0.1067  0.2920  0.5850
 2247TIP3   OH228231   6.717   5.147   0.147 -0.0040 -0.3503  0.9933
 2247TIP3    H128232   6.621   5.151   0.150 -0.0652  3.2159 -1.0885
 2247TIP3    H228233   6.746   5.204   0.218  0.5430 -0.3748  0.7972
 2248TIP3   OH228234   6.510   2.924  13.878 -1.1867 -0.2740  0.0511
 2248TIP3    H128235   6.489   3.007  13.834 -1.4608  1.1367  2.6531
 2248TIP3    H228236   6.584   2.945  13.935 -1.0540 -1.9111  0.5268
 2249TIP3   OH228237   4.684   6.558   3.944  0.3005 -0.0527 -0.0225
 2249TIP3    H128238   4.595   6.571   3.977  1.2465  0.3743  2.6350
 2249TIP3    H228239   4.706   6.468   3.968  1.2108  0.4425  1.1132
 2250TIP3   OH228240   4.701   5.056  11.259  0.8862  0.3839  0.7677
 2250TIP3    H128241   4.753   5.108  11.320  0.4037  0.4134  1.1596
 2250TIP3    H228242   4.617   5.102  11.253  0.9628  0.4278  0.0146
 2251TIP3   OH228243   1.540   1.429   5.103  0.4047 -0.7779 -0.9531
 2251TIP3    H128244   1.478   1.367   5.142 -0.0466  0.9777  1.3962
 2251TIP3    H228245   1.490   1.473   5.034 -1.4280  1.2169  1.4628
 2252TIP3   OH228246   4.785   2.610   2.033  0.1250 -0.0346 -0.4951
 2252TIP3    H128247   4.759   2.702   2.027 -0.0767 -0.0290  0.3697
 2252TIP3    H228248   4.766   2.586   2.124 -0.0303 -0.9921 -0.7744
 2253TIP3   OH228249   4.390   5.439   2.474 -0.8090 -0.3352  0.0125
 2253TIP3    H128250   4.477   5.432   2.435 -0.3032 -1.8941  1.3086
 2253TIP3    H228251   4.334   5.389   2.415 -1.1598  1.7166 -1.5272
 2254TIP3   OH228252   4.421   4.745  15.722 -0.6045  0.4361 -0.1844
 2254TIP3    H128253   4.353   4.683  15.749 -1.5064  0.5669 -2.0077
 2254TIP3    H228254   4.498   4.691  15.704 -0.7280  0.0967  0.2886
 2255TIP3   OH228255   1.450   2.332  16.771  0.2188 -0.0363 -0.3125
 2255TIP3    H128256   1.374   2.382  16.802  0.0352 -0.5240  0.0209
 2255TIP3    H228257   1.499   2.395  16.719  1.7502  1.5253  2.7521
 2256TIP3   OH228258   1.709   1.667   5.825  0.2007 -0.1179  0.3445
 2256TIP3    H128259   1.716   1.682   5.919  1.2719  0.5388  0.1777
 2256TIP3    H228260   1.746   1.745   5.785  1.6173 -1.2198 -0.6012
 2257TIP3   OH228261   0.899   4.235  12.977 -0.2892  0.0906  0.4149
 2257TIP3    H128262   0.880   4.284  13.057  1.4767  0.9118  0.3682
 2257TIP3    H228263   0.853   4.152  12.988 -1.3215  0.7876  1.5910
 2258TIP3   OH228264   2.609   0.721   5.456  0.1499 -0.1884 -0.0760
 2258TIP3    H128265   2.612   0.753   5.546 -1.5283 -0.1316 -0.0079
 2258TIP3    H228266   2.562   0.639   5.461 -1.4151  0.5983 -1.0842
 2259TIP3   OH228267   1.037   5.434   2.037  0.2452  0.3610  0.2444
 2259TIP3    H128268   1.073   5.421   2.124 -1.0553  0.2650  0.7936
 2259TIP3    H228269   0.952   5.477   2.052  0.4557  1.2991 -1.0275
 2260TIP3   OH228270   1.826   2.787  17.063 -0.4975 -0.8253  0.3375
 2260TIP3    H128271   1.920   2.802  17.068 -0.6198 -0.3068  1.1209
 2260TIP3    H228272   1.817   2.707  17.011  0.3998 -1.2909  0.8969
 2261TIP3   OH228273   2.025   0.595  16.788 -0.3733  0.0980 -0.2749
 2261TIP3    H128274   1.992   0.616  16.875  0.9547 -1.8514  0.7797
 2261TIP3    H228275   1.973   0.519  16.761  1.3321 -1.3682  0.3024
 2262TIP3   OH228276   3.744   5.218   4.724 -0.4666  0.9181 -0.2097
 2262TIP3    H128277   3.662   5.239   4.768  0.2521  0.1619  1.5986
 2262TIP3    H228278   3.786   5.303   4.709 -2.0848  1.4349 -2.3731
 2263TIP3   OH228279   3.456   6.577   4.197 -0.1266 -0.2109 -0.0511
 2263TIP3    H128280   3.511   6.538   4.265 -1.0277 -0.8811  0.3157
 2263TIP3    H228281   3.369   6.540   4.213 -0.4335 -0.0732 -1.3418
 2264TIP3   OH228282   3.016   4.605   5.118 -0.2832  0.1937 -0.4558
 2264TIP3    H128283   2.936   4.551   5.122  0.3660 -0.8250 -0.8975
 2264TIP3    H228284   2.984   4.694   5.103 -1.5312  0.3598  2.4746
 2265TIP3   OH228285   4.164   4.585   1.325 -0.9084  0.2723  0.1243
 2265TIP3    H128286   4.096   4.649   1.345 -0.9854  0.1571  0.2355
 2265TIP3    H228287   4.196   4.609   1.238 -1.3439  0.1069 -0.0858
 2266TIP3   OH228288   0.635   6.567  11.361  0.5261  0.3792 -0.2056
 2266TIP3    H128289   0.647   6.657  11.390  1.0571  0.8241 -1.7032
 2266TIP3    H228290   0.629   6.573  11.265  0.1631 -1.1309 -0.3053
 2267TIP3   OH228291   2.462   6.381  11.283 -0.0457  0.0276 -0.0243
 2267TIP3    H128292   2.528   6.382  11.352 -1.1358  0.6914  1.0382
 2267TIP3    H228293   2.497   6.440  11.216  0.0716  1.0472  0.9023
 2268TIP3   OH228294   2.384   0.585   4.707 -0.3393  0.2868  0.5516
 2268TIP3    H128295   2.373   0.617   4.618  0.0407 -0.5598  0.1937
 2268TIP3    H228296   2.478   0.572   4.716 -0.4567 -0.4262  0.7899
 2269TIP3   OH228297   5.065   4.374   6.224 -0.1750  0.2375  0.1470
 2269TIP3    H128298   5.034   4.461   6.250  0.2305  0.9767 -1.7528
 2269TIP3    H228299   5.056   4.372   6.129 -0.6279 -1.9904  0.1901
 2270TIP3   OH228300   4.595   3.429  13.687 -0.4131 -0.3802  0.1408
 2270TIP3    H128301   4.667   3.436  13.624  0.5823  2.4427  1.4185
 2270TIP3    H228302   4.523   3.390  13.637  1.2036 -0.9098 -1.9057
 2271TIP3   OH228303   3.874   4.014   5.858  0.1965  0.0687  0.3079
 2271TIP3    H128304   3.866   4.091   5.914  0.5092  0.0753  0.3412
 2271TIP3    H228305   3.856   3.940   5.916 -0.7377  0.1464  0.1402
 2272TIP3   OH228306   5.945   5.960   2.127  0.0272  0.0569 -0.0855
 2272TIP3    H128307   5.895   5.890   2.171  0.1683 -0.7474 -1.1687
 2272TIP3    H228308   6.033   5.953   2.164 -0.2253  0.3793  0.5972
 2273TIP3   OH228309   2.178   0.225   3.679 -0.2031  0.0939  0.3223
 2273TIP3    H128310   2.144   0.307   3.715 -0.6890  0.8572 -1.7364
 2273TIP3    H228311   2.120   0.158   3.714  0.0308  0.6390  1.8215
 2274TIP3   OH228312   1.810   6.207   5.041 -0.3030  0.1212  0.1975
 2274TIP3    H128313   1.886   6.212   4.983  0.0313  1.8733  0.7206
 2274TIP3    H228314   1.785   6.299   5.056 -2.9471 -0.4136 -0.4627
 2275TIP3   OH228315   0.416   0.717   4.730 -0.0940  0.2685 -0.7048
 2275TIP3    H128316   0.348   0.667   4.687 -1.5299  1.1557  0.4434
 2275TIP3    H228317   0.487   0.654   4.745 -0.9759 -0.8712 -1.2111
 2276TIP3   OH228318   5.452   4.867   2.922  0.4295  0.5942 -0.0149
 2276TIP3    H128319   5.369   4.830   2.951  0.3936  0.4182 -0.3365
 2276TIP3    H228320   5.466   4.829   2.835  0.9068  0.5241  0.0898
 2277TIP3   OH228321   4.558   3.067   2.469 -0.0861 -0.0056 -0.0648
 2277TIP3    H128322   4.466   3.092   2.477 -0.7937 -1.9146 -1.4346
 2277TIP3    H228323   4.594   3.129   2.404 -0.7006  0.0606 -0.3504
 2278TIP3   OH228324   0.622   1.736   3.042 -0.2323 -0.3649  0.1321
 2278TIP3    H128325   0.531   1.751   3.066 -0.6797 -1.1221 -1.0083
 2278TIP3    H228326   0.644   1.652   3.083  0.9233  1.1503  2.8915
 2279TIP3   OH228327   6.151   1.333  15.025  0.0758 -0.5765 -0.4549
 2279TIP3    H128328   6.136   1.393  15.099  2.8173 -0.2462 -0.0763
 2279TIP3    H228329   6.143   1.246  15.064  0.7775 -0.4074  0.1002
 2280TIP3   OH228330   4.514   5.262  15.108 -0.3035  0.2193 -0.4649
 2280TIP3    H128331   4.579   5.218  15.054 -0.7145  0.3926 -1.1052
 2280TIP3    H228332   4.445   5.197  15.120  0.3028 -0.2326  0.8441
 2281TIP3   OH228333   6.230   1.139  16.148 -0.0371 -0.1327  0.0411
 2281TIP3    H128334   6.157   1.194  16.175  0.9376  1.1969  0.0382
 2281TIP3    H228335   6.283   1.194  16.090  1.0788 -0.9792  0.2036
 2282TIP3   OH228336   5.971   0.463  12.167 -0.0450 -0.2668  0.3968
 2282TIP3    H128337   5.909   0.394  12.190  0.3382 -1.1492 -1.1107
 2282TIP3    H228338   5.985   0.511  12.249 -3.5489  0.6783  0.6069
 2283TIP3   OH228339   0.684   0.534   0.826 -0.0226  0.2995 -0.1603
 2283TIP3    H128340   0.714   0.608   0.879 -3.1623  1.0310  0.7557
 2283TIP3    H228341   0.746   0.464   0.847  2.0785  2.1334  0.1977
 2284TIP3   OH228342   6.297   5.558   6.516 -0.3762 -0.6947  0.4588
 2284TIP3    H128343   6.374   5.522   6.472  0.0343 -0.4457  0.9627
 2284TIP3    H228344   6.223   5.522   6.467  0.0706  0.7429 -1.3687
 2285TIP3   OH228345   5.636   5.649   0.793  0.2223  0.3221 -0.0731
 2285TIP3    H128346   5.615   5.624   0.703  0.5357 -0.3112  0.0267
 2285TIP3    H228347   5.668   5.569   0.834 -0.1007  0.5537  0.6626
 2286TIP3   OH228348   5.846   1.441   4.619  1.0113  0.3862 -0.1310
 2286TIP3    H128349   5.905   1.383   4.667  0.5294 -0.0289 -0.0365
 2286TIP3    H228350   5.791   1.480   4.687  1.7450  1.4537 -0.1156
 2287TIP3   OH228351   0.819   3.804   5.336  0.4325 -0.1294 -0.4695
 2287TIP3    H128352   0.831   3.730   5.397 -0.5779 -1.0481 -1.3534
 2287TIP3    H228353   0.732   3.791   5.299 -0.4534  2.3964  0.5061
 2288TIP3   OH228354   1.528   2.247  16.439 -0.3391 -0.1193  0.1607
 2288TIP3    H128355   1.592   2.310  16.409 -1.1463 -0.5074 -2.6515
 2288TIP3    H228356   1.451   2.262  16.384 -1.8955 -1.1225  1.9234
 2289TIP3   OH228357   6.200   2.193   4.360 -0.3485  0.3038 -0.1113
 2289TIP3    H128358   6.135   2.263   4.359 -0.6960  0.2024  3.3719
 2289TIP3    H228359   6.200   2.159   4.270 -2.0666  2.9804 -1.2553
 2290TIP3   OH228360   6.055   5.500  11.518 -0.0429 -0.2683 -0.1942
 2290TIP3    H128361   5.987   5.557  11.483 -0.8317 -1.6558 -1.0423
 2290TIP3    H228362   6.116   5.487  11.445 -0.0413 -0.7323 -0.1163
 2291TIP3   OH228363   1.088   5.062   4.341 -0.2516 -0.2258 -0.0141
 2291TIP3    H128364   1.008   5.012   4.325 -1.6850  1.1068  2.5212
 2291TIP3    H228365   1.079   5.140   4.286 -1.3717  0.5428  1.2066
 2292TIP3   OH228366   3.205   0.758   6.000  0.7871  0.5012 -0.1467
 2292TIP3    H128367   3.244   0.743   6.086  0.2563 -1.4102 -0.1912
 2292TIP3    H228368   3.110   0.755   6.017  0.6607  1.4548 -0.6109
 2293TIP3   OH228369   1.294   2.407   2.093  0.2808 -0.0125 -0.0037
 2293TIP3    H128370   1.219   2.383   2.038  0.8659 -1.1029 -0.3538
 2293TIP3    H228371   1.262   2.395   2.182 -0.1566  0.1314 -0.1357
 2294TIP3   OH228372   0.101   3.543  13.607  0.1337 -0.3671  0.0405
 2294TIP3    H128373   0.056   3.565  13.526  0.1227 -1.3322 -0.2363
 2294TIP3    H228374   0.060   3.598  13.673 -0.1822  0.0947 -0.5259
 2295TIP3   OH228375   6.731   0.498  12.329  1.2184 -0.4825  0.0050
 2295TIP3    H128376   6.764   0.418  12.286 -0.2534 -0.8027 -0.5700
 2295TIP3    H228377   6.683   0.544  12.260  0.0873 -0.2585  0.9324
 2296TIP3   OH228378   6.529   0.810   5.469 -0.0923  0.0107 -0.3731
 2296TIP3    H128379   6.446   0.816   5.422 -0.8193  0.2968  0.9102
 2296TIP3    H228380   6.509   0.762   5.549  0.6201  1.3922  0.6951
 2297TIP3   OH228381   3.150   0.032  13.782 -0.1045  0.0709 -0.1429
 2297TIP3    H128382   3.132   0.041  13.876  2.4094 -0.4470  0.4643
 2297TIP3    H228383   3.165   0.121  13.752 -1.1883  0.2653 -0.1300
 2298TIP3   OH228384   5.034   2.389  16.105  0.3541 -0.2048 -0.5854
 2298TIP3    H128385   5.063   2.299  16.118 -0.7286 -0.6644 -1.1637
 2298TIP3    H228386   5.095   2.425  16.040 -0.8202 -1.4288 -2.4523
 2299TIP3   OH228387   3.992   2.758  14.152  0.0168 -0.0241  0.2509
 2299TIP3    H128388   3.898   2.772  14.140 -0.0289  0.0150  0.6599
 2299TIP3    H228389   4.031   2.785  14.069 -0.5331 -2.2317 -0.8084
 2300TIP3   OH228390   1.975   6.302  11.496 -0.3355 -0.7802 -0.1469
 2300TIP3    H128391   1.912   6.282  11.564  2.2744 -2.9038  1.8677
 2300TIP3    H228392   1.933   6.370  11.443 -2.5174  1.1059  3.5731
 2301TIP3   OH228393   6.082   6.617  15.257  0.1368  0.1665  0.5525
 2301TIP3    H128394   6.141   6.651  15.324  1.1672 -2.9377  1.4112
 2301TIP3    H228395   6.138   6.599  15.182 -0.8568  2.7146 -0.9346
 2302TIP3   OH228396   2.843   1.825   2.635 -0.6318 -0.5250  0.1926
 2302TIP3    H128397   2.900   1.876   2.576 -2.6309  0.6844 -0.8083
 2302TIP3    H228398   2.796   1.765   2.577 -0.7622 -1.1473  0.9300
 2303TIP3   OH228399   1.692   0.475   1.085  0.0219 -0.1726  0.5186
 2303TIP3    H128400   1.733   0.391   1.106  1.5915  0.6702  1.0061
 2303TIP3    H228401   1.765   0.532   1.061 -0.9393  1.2204  0.7728
 2304TIP3   OH228402   3.663   4.110  16.427  0.1356 -0.4204 -0.1965
 2304TIP3    H128403   3.622   4.171  16.488  2.4700  1.2015 -0.1155
 2304TIP3    H228404   3.606   4.033  16.428 -0.5767  0.0293  3.0410
 2305TIP3   OH228405   0.355   0.758   1.872  0.9200 -0.1882  0.0752
 2305TIP3    H128406   0.279   0.720   1.828 -0.7288  1.9990  0.8485
 2305TIP3    H228407   0.427   0.697   1.853 -1.0713 -2.5691 -0.3569
 2306TIP3   OH228408   5.436   0.635  16.845 -0.0229  0.0263 -0.1367
 2306TIP3    H128409   5.498   0.681  16.902 -0.2909 -2.6829  2.5953
 2306TIP3    H228410   5.488   0.564  16.807 -0.5057  0.2273 -1.1962
 2307TIP3   OH228411   1.463   6.433   3.568  0.5300  0.2138 -0.0871
 2307TIP3    H128412   1.450   6.405   3.658  2.0363 -0.4414 -0.0337
 2307TIP3    H228413   1.509   6.517   3.575 -1.6729  1.5220 -0.2709
 2308TIP3   OH228414   1.882   1.984  13.027 -0.3080  0.8243 -0.0216
 2308TIP3    H128415   1.950   1.972  12.960  1.1372  2.0872  1.1355
 2308TIP3    H228416   1.883   1.903  13.077  0.5178  0.9000  0.1013
 2309TIP3   OH228417   0.370   6.402   2.188 -0.2737 -0.0231  0.5007
 2309TIP3    H128418   0.291   6.456   2.194 -0.6019 -0.4894  0.4124
 2309TIP3    H228419   0.353   6.342   2.115  1.1369  1.4467 -1.1362
 2310TIP3   OH228420   5.600   4.829   1.129  0.2012 -0.0667 -0.1116
 2310TIP3    H128421   5.617   4.898   1.064 -0.0395 -0.0450 -0.1526
 2310TIP3    H228422   5.657   4.757   1.103  0.9680  0.3649  0.3348
 2311TIP3   OH228423   1.772   5.274   1.109  0.2860  0.5204  0.6563
 2311TIP3    H128424   1.822   5.252   1.187  0.0740  0.5336  0.7969
 2311TIP3    H228425   1.708   5.203   1.101  1.8662 -0.8219 -0.8932
 2312TIP3   OH228426   4.922   4.923   3.354 -0.0989 -0.2452  0.0619
 2312TIP3    H128427   4.937   4.832   3.380 -1.2381 -0.2020  0.9344
 2312TIP3    H228428   4.831   4.940   3.378 -0.4454  0.5999 -1.6661
 2313TIP3   OH228429   4.960   6.605  15.794  0.5108  0.2895  0.2382
 2313TIP3    H128430   4.945   6.699  15.783  1.0971  0.5162  1.2231
 2313TIP3    H228431   4.883   6.563  15.757  0.1251  1.1713  0.0296
 2314TIP3   OH228432   5.828   5.293   5.386 -0.4394  0.0312 -0.3839
 2314TIP3    H128433   5.736   5.268   5.397 -0.1285 -0.7847  0.4284
 2314TIP3    H228434   5.829   5.388   5.400 -1.3412  0.2503 -1.6339
 2315TIP3   OH228435   4.998   4.300   6.589 -0.4301 -0.3140 -0.0451
 2315TIP3    H128436   5.009   4.394   6.578  1.7789 -0.5566 -0.3317
 2315TIP3    H228437   4.950   4.272   6.512 -2.5219  0.7453  0.7885
 2316TIP3   OH228438   5.208   0.509  15.934 -0.1122 -0.2195 -0.2651
 2316TIP3    H128439   5.202   0.601  15.959 -1.3143 -0.4184  0.2424
 2316TIP3    H228440   5.300   0.496  15.912 -0.1630  1.4095 -1.5829
 2317TIP3   OH228441   2.046   1.278  15.323 -0.0485 -0.5657  0.0368
 2317TIP3    H128442   2.090   1.352  15.364  0.0809 -0.1206 -0.8979
 2317TIP3    H228443   1.962   1.271  15.370 -0.5941  0.9408 -0.6589
 2318TIP3   OH228444   6.182   2.270  11.925 -0.2879  0.5949 -0.3402
 2318TIP3    H128445   6.209   2.179  11.907 -2.6549  0.2325 -2.6468
 2318TIP3    H228446   6.133   2.265  12.007 -0.1420 -0.1330 -0.2876
 2319TIP3   OH228447   1.729   3.079  14.359  0.1243 -0.1679 -0.1175
 2319TIP3    H128448   1.746   3.062  14.266  1.2659  2.0002 -0.3695
 2319TIP3    H228449   1.639   3.112  14.362  1.0568  2.7484 -0.9787
 2320TIP3   OH228450   5.425   4.100   1.193  0.4352  0.5302 -0.0440
 2320TIP3    H128451   5.488   4.039   1.153  0.7041  0.1220  0.9720
 2320TIP3    H228452   5.344   4.050   1.196  0.5738  0.3224  0.4824
 2321TIP3   OH228453   1.676   6.236   3.053 -0.7638  0.8015  0.2074
 2321TIP3    H128454   1.761   6.245   3.011 -0.4048  1.6707  1.0808
 2321TIP3    H228455   1.657   6.142   3.049 -0.5332  0.8069 -1.4413
 2322TIP3   OH228456   5.008   4.231   0.545 -0.3252 -0.8016  0.3964
 2322TIP3    H128457   4.980   4.185   0.624 -1.0382 -1.1984 -0.0799
 2322TIP3    H228458   5.086   4.184   0.516 -2.1438 -3.0744 -1.2141
 2323TIP3   OH228459   0.776   5.021  16.699 -0.3468  0.2037 -0.2999
 2323TIP3    H128460   0.754   4.945  16.644 -2.4062  0.4400  0.1241
 2323TIP3    H228461   0.692   5.058  16.724  0.5711  1.2661  1.4399
 2324TIP3   OH228462   2.609   0.069   1.941 -0.7895 -0.6430  0.4325
 2324TIP3    H128463   2.634  -0.014   1.899 -1.4608 -0.8783  0.4878
 2324TIP3    H228464   2.578   0.124   1.869 -1.1023 -0.7278  0.5025
 2325TIP3   OH228465   5.787   0.802  13.864  0.1837  0.0796  0.1277
 2325TIP3    H128466   5.778   0.875  13.803 -0.6078  0.9966  1.2884
 2325TIP3    H228467   5.871   0.819  13.908 -0.4934  0.9171  1.1458
 2326TIP3   OH228468   4.833   4.538   3.956 -0.2513 -0.4025  0.2622
 2326TIP3    H128469   4.777   4.471   3.994  0.0079 -0.2298  0.9713
 2326TIP3    H228470   4.915   4.532   4.005 -0.0576  0.1112  0.0162
 2327TIP3   OH228471   4.806   4.216   2.989  0.0022 -0.3912 -0.4980
 2327TIP3    H128472   4.819   4.211   3.083  0.2515 -0.5991 -0.5412
 2327TIP3    H228473   4.779   4.307   2.973  1.5176  0.1095 -0.4008
 2328TIP3   OH228474   6.193   3.347  13.568  0.0491 -0.4465 -0.0736
 2328TIP3    H128475   6.145   3.303  13.638  1.0911 -1.4133  0.0710
 2328TIP3    H228476   6.125   3.383  13.511 -0.8593 -1.9639 -0.0080
 2329TIP3   OH228477   0.346   1.432   2.706 -0.1913  0.3588  0.1765
 2329TIP3    H128478   0.267   1.379   2.718 -0.9193  1.6333  1.3149
 2329TIP3    H228479   0.410   1.391   2.764 -0.5773  0.3871  0.6327
 2330TIP3   OH228480   2.989   4.053   4.388 -0.2430  0.1670  0.2133
 2330TIP3    H128481   2.913   4.045   4.330 -0.3528  0.9043  0.2515
 2330TIP3    H228482   2.970   4.130   4.442  0.5076  0.3143  0.2681
 2331TIP3   OH228483   2.523   0.611  11.164 -0.2824 -0.3868 -0.3674
 2331TIP3    H128484   2.470   0.661  11.226  0.4253  0.1897 -0.2066
 2331TIP3    H228485   2.514   0.657  11.081  0.2272 -0.0823 -0.2613
 2332TIP3   OH228486   5.331   1.934  11.300  0.0928 -0.4342 -0.5524
 2332TIP3    H128487   5.269   1.942  11.373 -0.2867  2.0056 -1.0514
 2332TIP3    H228488   5.318   1.844  11.267 -0.0434 -1.4480  2.0417
 2333TIP3   OH228489   6.210   6.233  16.774  0.2551 -0.5515 -0.4332
 2333TIP3    H128490   6.237   6.316  16.815 -0.0642 -0.9154  0.5630
 2333TIP3    H228491   6.287   6.177  16.779  0.1298 -0.6929 -0.0549
 2334TIP3   OH228492   1.096   3.813   2.704  0.0563  1.0834 -0.2862
 2334TIP3    H128493   1.059   3.828   2.791  0.2769  1.2157 -0.2130
 2334TIP3    H228494   1.024   3.833   2.643 -0.4686 -0.2024 -0.0995
 2335TIP3   OH228495   0.194   1.836  12.202 -0.8490  0.1506  0.4403
 2335TIP3    H128496   0.150   1.761  12.161  2.1467 -1.0534 -0.9036
 2335TIP3    H228497   0.228   1.802  12.285  1.8868 -0.6858 -0.8626
 2336TIP3   OH228498   4.622   4.734   0.651 -0.9394  0.0949  0.3181
 2336TIP3    H128499   4.538   4.766   0.684 -0.7090 -0.1381  1.1652
 2336TIP3    H228500   4.677   4.812   0.645 -0.1022 -0.1274  3.1995
 2337TIP3   OH228501   3.319   5.021   3.816  0.4594 -0.3235 -0.0256
 2337TIP3    H128502   3.318   4.927   3.797  0.0643 -0.4739  0.6939
 2337TIP3    H228503   3.246   5.056   3.764  1.5171 -0.1557 -1.4570
 2338TIP3   OH228504   6.010   0.525  15.693  0.4808  0.5937  0.5770
 2338TIP3    H128505   5.956   0.564  15.762  0.9587  1.0578  0.6943
 2338TIP3    H228506   6.077   0.476  15.739 -0.5164 -0.9614  0.4263
 2339TIP3   OH228507   1.619   2.110  14.079  0.1389  0.5971  0.0487
 2339TIP3    H128508   1.623   2.200  14.112 -0.9855  0.5367  0.3761
 2339TIP3    H228509   1.696   2.068  14.118  0.7601  1.4394 -0.2187
 2340TIP3   OH228510   3.706   3.251  17.011 -0.1891 -0.5313 -0.2323
 2340TIP3    H128511   3.788   3.204  17.025 -0.5659 -0.6919  1.7178
 2340TIP3    H228512   3.722   3.338  17.047 -0.0941  0.3081 -2.1631
 2341TIP3   OH228513   1.113   0.518   5.125 -0.5944  0.0168 -0.3598
 2341TIP3    H128514   1.048   0.575   5.166 -0.6458  1.8321 -2.7416
 2341TIP3    H228515   1.197   0.561   5.143 -0.4260 -0.3069 -0.3760
 2342TIP3   OH228516   0.957   4.642   0.034  0.2537  0.0554  0.8542
 2342TIP3    H128517   0.994   4.647   0.122  1.7106 -1.4108  0.3928
 2342TIP3    H228518   1.009   4.704  -0.017 -0.2541  0.5362  0.9171
 2343TIP3   OH228519   1.032   4.130   4.913  0.1918  0.0461  0.0267
 2343TIP3    H128520   0.999   4.082   4.837  0.2452  0.9221 -0.5595
 2343TIP3    H228521   1.016   4.071   4.987  2.1147 -1.7909 -0.8973
 2344TIP3   OH228522   2.670   1.778   5.572  0.2666 -0.0312  0.7916
 2344TIP3    H128523   2.589   1.793   5.524  0.8578  1.4055  0.1971
 2344TIP3    H228524   2.688   1.685   5.560 -0.1727  0.0735 -0.8712
 2345TIP3   OH228525   3.251   3.688  15.597 -0.7005  0.6154  0.1335
 2345TIP3    H128526   3.215   3.600  15.607 -0.5187  0.3563 -1.2316
 2345TIP3    H228527   3.214   3.739  15.669 -1.2785 -0.4285  0.5839
 2346TIP3   OH228528   3.535   3.217  10.677 -0.0755  0.2701  0.4328
 2346TIP3    H128529   3.566   3.143  10.626  0.7036  1.3882 -0.7891
 2346TIP3    H228530   3.547   3.293  10.620 -0.6020  1.3861  1.7282
 2347TIP3   OH228531   4.263   1.277  10.361 -0.5488  0.3766  0.0017
 2347TIP3    H128532   4.331   1.217  10.392 -0.0158  0.7337 -0.4359
 2347TIP3    H228533   4.306   1.327  10.291 -1.0306  1.1349  0.2367
 2348TIP3   OH228534   4.145   4.139  16.828  0.1735  0.0568  0.2800
 2348TIP3    H128535   4.168   4.184  16.746  2.6875  0.9691  1.3892
 2348TIP3    H228536   4.050   4.129  16.824 -0.0210  1.9897 -1.7866
 2349TIP3   OH228537   1.577   1.854   4.054  0.4056 -0.1404  0.5632
 2349TIP3    H128538   1.617   1.860   3.968  1.5756  0.4616  1.1384
 2349TIP3    H228539   1.531   1.769   4.053 -1.6038  0.8572 -1.4519
 2350TIP3   OH228540   0.937   2.740   4.055  0.2915  0.1482 -0.1177
 2350TIP3    H128541   1.021   2.766   4.091  0.6179 -1.0683  0.0489
 2350TIP3    H228542   0.955   2.722   3.963  0.4498 -1.0542  0.1313
 2351TIP3   OH228543   0.733   4.322  11.717 -0.3108 -0.2434  0.6375
 2351TIP3    H128544   0.731   4.329  11.813  0.6551  0.3311  0.6352
 2351TIP3    H228545   0.824   4.301  11.697  0.1285  2.1777 -0.2656
 2352TIP3   OH228546   0.575   4.027  13.038 -0.6211  0.4405  0.0375
 2352TIP3    H128547   0.546   4.048  13.127 -0.6503 -0.5595  0.2768
 2352TIP3    H228548   0.493   4.010  12.990 -0.5071 -1.7291  0.5423
 2353TIP3   OH228549   1.092   5.622   4.928 -0.3082 -0.4235  0.0991
 2353TIP3    H128550   1.023   5.662   4.981  1.1482  3.4389 -0.5983
 2353TIP3    H228551   1.171   5.629   4.983  0.3319 -0.7195 -0.7703
 2354TIP3   OH228552   4.338   4.141  17.019 -0.0494  0.0149 -0.3574
 2354TIP3    H128553   4.303   4.193  17.092  0.9832  0.0643  0.1167
 2354TIP3    H228554   4.270   4.146  16.952 -0.1447  1.6451 -0.1769
 2355TIP3   OH228555   1.249   2.534  16.323 -0.5865  0.5444  0.3627
 2355TIP3    H128556   1.178   2.578  16.276  0.6025  1.2173 -0.8711
 2355TIP3    H228557   1.284   2.602  16.381  1.0246  1.2349 -1.2927
 2356TIP3   OH228558   6.651   0.311   3.467  0.3001  0.1050 -0.7930
 2356TIP3    H128559   6.581   0.362   3.507 -0.4095  0.3783 -2.2870
 2356TIP3    H228560   6.657   0.345   3.377  1.0695 -1.1845 -1.2659
 2357TIP3   OH228561   5.299   5.188  13.619 -0.3932  0.2588  0.6129
 2357TIP3    H128562   5.222   5.183  13.676  0.4755 -2.6785  1.7257
 2357TIP3    H228563   5.270   5.147  13.538 -0.9145  2.2363 -0.2533
 2358TIP3   OH228564   0.777   0.376   5.784  0.1811  0.0877 -0.0761
 2358TIP3    H128565   0.767   0.287   5.819 -0.1732  0.6967  1.4677
 2358TIP3    H228566   0.769   0.433   5.861  2.0587  1.3971 -0.7713
 2359TIP3   OH228567   6.816   3.553  17.142 -0.5131  0.1678  0.3321
 2359TIP3    H128568   6.902   3.552  17.184 -0.2597 -0.7257 -0.1920
 2359TIP3    H228569   6.834   3.545  17.049 -1.1222  1.1211  0.1158
 2360TIP3   OH228570   3.832   5.828   2.564 -0.6203  0.0436  0.1133
 2360TIP3    H128571   3.819   5.882   2.487  1.4778 -0.4903 -0.6635
 2360TIP3    H228572   3.842   5.890   2.636 -0.1503  0.6338 -0.4526
 2361TIP3   OH228573   3.038   4.432   5.624 -0.1612 -0.6228 -0.3930
 2361TIP3    H128574   3.130   4.435   5.596  0.4579 -0.5907  1.5381
 2361TIP3    H228575   3.026   4.512   5.675 -0.8167 -1.3772  0.6739
 2362TIP3   OH228576   2.642   0.797   5.763 -0.1572  0.5738 -0.6861
 2362TIP3    H128577   2.593   0.875   5.735 -1.5784 -0.3864 -1.0033
 2362TIP3    H228578   2.729   0.829   5.783 -0.4705  2.1141 -1.6188
 2363TIP3   OH228579   3.112   6.482  12.411  0.3907  0.3806 -0.3262
 2363TIP3    H128580   3.178   6.462  12.477  0.2566  0.1553 -0.2583
 2363TIP3    H228581   3.029   6.458  12.453  0.2276  1.0909 -0.2430
 2364TIP3   OH228582   1.891   1.512   4.724 -0.0848  0.1834  0.0541
 2364TIP3    H128583   1.955   1.465   4.670 -0.0596 -0.6681  0.8023
 2364TIP3    H228584   1.826   1.445   4.747 -0.3085  0.6301  0.7491
 2365TIP3   OH228585   3.213   0.900   2.580  0.0951 -0.0954  1.3259
 2365TIP3    H128586   3.235   0.830   2.642 -2.3578 -1.9630  0.2431
 2365TIP3    H228587   3.235   0.863   2.494  2.7118  2.1566  0.8679
 2366TIP3   OH228588   2.355   2.488   1.013  0.6185  0.0520  0.5080
 2366TIP3    H128589   2.411   2.566   1.013 -0.0663  0.5618 -0.5383
 2366TIP3    H228590   2.341   2.469   0.920  0.0756 -0.8173  0.7574
 2367TIP3   OH228591   2.796   2.603   3.868  0.3357  0.1809  0.6844
 2367TIP3    H128592   2.869   2.548   3.895  0.4316 -1.0716 -1.8377
 2367TIP3    H228593   2.721   2.544   3.862 -0.6564  1.2197  2.0990
 2368TIP3   OH228594   6.831   0.666   5.030  0.6326 -0.2029  0.8954
 2368TIP3    H128595   6.776   0.744   5.023 -1.2753 -1.5819 -0.4476
 2368TIP3    H228596   6.844   0.637   4.940  1.6362 -1.2513  1.3429
 2369TIP3   OH228597   6.396   0.239  12.783 -0.3148  0.5529 -0.1474
 2369TIP3    H128598   6.391   0.309  12.848 -1.2460 -1.4785  2.1217
 2369TIP3    H228599   6.488   0.213  12.783  0.6191  3.1922 -2.8154
 2370TIP3   OH228600   6.614   1.256  11.232  0.5002 -0.8034 -0.0426
 2370TIP3    H128601   6.590   1.335  11.182  1.2549 -0.7461 -0.3258
 2370TIP3    H228602   6.590   1.277  11.322  0.3542 -0.3892 -0.1735
 2371TIP3   OH228603   0.378   4.396   4.154 -0.5596 -0.1601 -0.0927
 2371TIP3    H128604   0.429   4.371   4.231  0.1555 -0.8083 -0.7572
 2371TIP3    H228605   0.387   4.322   4.094 -2.3257 -0.3118 -0.2269
 2372TIP3   OH228606   2.803   0.474  11.733 -0.6466 -0.7019 -0.5712
 2372TIP3    H128607   2.850   0.555  11.751 -1.7095 -0.5252  1.7019
 2372TIP3    H228608   2.820   0.457  11.640  0.2012  1.7021 -0.9289
 2373TIP3   OH228609   1.356   3.056  11.656  0.0304 -0.4311  0.6466
 2373TIP3    H128610   1.374   3.070  11.563  0.0665 -0.1685  0.6935
 2373TIP3    H228611   1.438   3.079  11.700 -0.0418 -0.3892  0.7593
 2374TIP3   OH228612   2.961   4.397  16.493  0.1467 -0.2250 -0.0997
 2374TIP3    H128613   2.921   4.364  16.413  0.2413 -0.9058  0.1331
 2374TIP3    H228614   2.887   4.414  16.552  0.0141  1.0271 -0.5984
 2375TIP3   OH228615   1.040   2.736  12.151 -0.0510 -0.0656  0.0790
 2375TIP3    H128616   1.054   2.818  12.104 -1.2518 -0.0042 -0.2105
 2375TIP3    H228617   1.126   2.695  12.154  0.9743  1.9975  1.7596
 2376TIP3   OH228618   6.239   3.965  17.100  0.2917  0.3317  0.8355
 2376TIP3    H128619   6.294   3.908  17.154 -0.3834 -0.8962  0.2742
 2376TIP3    H228620   6.286   3.972  17.017  0.3794  0.6131  0.9079
 2377TIP3   OH228621   5.108   3.005   3.354 -0.0182  0.0344  0.1531
 2377TIP3    H128622   5.050   2.938   3.319  1.0489 -1.0170  0.3448
 2377TIP3    H228623   5.051   3.061   3.407 -0.8607 -0.9271  0.2784
 2378TIP3   OH228624   5.115   1.289  11.802  0.2341 -0.2639 -0.2384
 2378TIP3    H128625   5.198   1.335  11.787  0.0238 -0.1423 -1.1070
 2378TIP3    H228626   5.089   1.257  11.716 -0.2314 -0.9890  0.1571
 2379TIP3   OH228627   1.571   5.332   2.612 -0.2178 -0.6236 -0.5640
 2379TIP3    H128628   1.617   5.253   2.641  0.4145 -0.0586  0.0071
 2379TIP3    H228629   1.558   5.318   2.518 -0.1845 -1.4403 -0.4569
 2380TIP3   OH228630   3.467   6.435  13.242  0.2619  0.0103  0.0157
 2380TIP3    H128631   3.464   6.375  13.317  1.1540  1.2109  1.0370
 2380TIP3    H228632   3.559   6.437  13.217  0.0520  0.0445 -0.7759
 2381TIP3   OH228633   3.412   4.952   1.678 -0.3555 -0.6467 -0.1921
 2381TIP3    H128634   3.443   4.919   1.763 -0.1465  2.6573  1.1699
 2381TIP3    H228635   3.486   4.939   1.619  0.0101 -1.7380  0.4749
 2382TIP3   OH228636   1.169   2.207   4.548  0.1749  0.3011  0.2968
 2382TIP3    H128637   1.164   2.124   4.500 -0.9444  0.1631  0.6394
 2382TIP3    H228638   1.186   2.272   4.480  0.7784 -0.1578 -0.0109
 2383TIP3   OH228639   1.790   1.829  11.672  0.3078 -0.1345 -0.4233
 2383TIP3    H128640   1.720   1.805  11.612  0.6206  0.7923 -1.1741
 2383TIP3    H228641   1.818   1.745  11.710  0.1756 -0.7562 -1.6516
 2384TIP3   OH228642   1.663   4.342  14.188  0.0624 -0.3895  0.6074
 2384TIP3    H128643   1.687   4.435  14.185 -2.0448  0.1969  0.2226
 2384TIP3    H228644   1.694   4.312  14.274 -0.1911  0.9756  1.2079
 2385TIP3   OH228645   6.687   5.081   5.470  0.9554  0.3569  0.1034
 2385TIP3    H128646   6.617   5.143   5.491  1.3024  0.7862  0.0063
 2385TIP3    H228647   6.726   5.114   5.389  0.0964 -0.8917 -0.8681
 2386TIP3   OH228648   5.866   0.771   0.235  0.1217  0.0787  0.6283
 2386TIP3    H128649   5.887   0.862   0.211  0.4861 -0.4278 -1.1301
 2386TIP3    H228650   5.802   0.743   0.170 -0.0651 -0.8962  1.2129
 2387TIP3   OH228651   0.881   0.121  16.892 -0.3733 -0.2563  0.1209
 2387TIP3    H128652   0.964   0.105  16.936 -0.7784 -0.2287  0.9227
 2387TIP3    H228653   0.904   0.165  16.811  0.4909 -1.4699 -0.3139
 2388TIP3   OH228654   1.682   6.658   0.774 -0.2598 -0.6430  0.4556
 2388TIP3    H128655   1.611   6.664   0.837  0.4934  0.3604  1.2550
 2388TIP3    H228656   1.668   6.575   0.728 -1.1752 -1.0856  1.5161
 2389TIP3   OH228657   2.793   2.194  11.574  0.3456  0.7641  0.2600
 2389TIP3    H128658   2.737   2.154  11.507  0.3490  0.4138  0.4620
 2389TIP3    H228659   2.866   2.132  11.584 -0.8712 -0.4261  2.3142
 2390TIP3   OH228660   3.829   2.202  15.642  0.3531 -0.3315 -0.0834
 2390TIP3    H128661   3.736   2.183  15.633  0.2359 -0.3199  0.9859
 2390TIP3    H228662   3.873   2.120  15.618  0.0024 -0.7802  0.7535
 2391TIP3   OH228663   0.508   2.705  13.981 -0.3832 -0.0455  0.8079
 2391TIP3    H128664   0.457   2.775  13.940 -1.6675 -1.2126  0.3525
 2391TIP3    H228665   0.507   2.634  13.918  0.7853 -0.5438  1.3281
 2392TIP3   OH228666   4.542   5.671  13.146  0.2524  0.2435  0.0420
 2392TIP3    H128667   4.624   5.708  13.179  0.5424  0.2455 -0.6765
 2392TIP3    H228668   4.553   5.576  13.157  0.8963  0.1501 -1.2732
 2393TIP3   OH228669   0.650   0.180  17.035 -0.2503 -0.3206 -0.4761
 2393TIP3    H128670   0.728   0.162  16.982  0.1495 -0.7475  0.2488
 2393TIP3    H228671   0.577   0.177  16.972  0.3822  0.8554 -1.3071
 2394TIP3   OH228672   5.320   6.131   2.947 -0.6242 -0.4513  0.4710
 2394TIP3    H128673   5.276   6.046   2.950  0.3476 -0.9928 -0.1156
 2394TIP3    H228674   5.256   6.193   2.983 -2.3063 -1.0049 -1.3883
 2395TIP3   OH228675   2.100   4.640  13.173  0.2084 -0.1043  0.3526
 2395TIP3    H128676   2.089   4.662  13.265 -2.5966  0.5655 -0.0683
 2395TIP3    H228677   2.162   4.706  13.140 -1.3025  1.7965  1.0953
 2396TIP3   OH228678   6.397   4.749   2.374  0.5041 -0.4967  0.4368
 2396TIP3    H128679   6.352   4.831   2.398  0.0359 -0.9875  1.2871
 2396TIP3    H228680   6.360   4.684   2.432 -1.4932 -2.0343 -2.3273
 2397TIP3   OH228681   3.165   0.929  14.756  0.2780  0.1262  0.5557
 2397TIP3    H128682   3.199   0.860  14.813  0.5227  0.4848  0.8489
 2397TIP3    H228683   3.243   0.978  14.728  0.2472 -0.4888 -0.6855
 2398TIP3   OH228684   4.716   0.099   5.407  0.2105  0.0412 -0.1009
 2398TIP3    H128685   4.745   0.190   5.399 -1.4060  1.1151  3.8450
 2398TIP3    H228686   4.651   0.089   5.337  0.9563  1.6349 -1.0952
 2399TIP3   OH228687   0.012   4.918   5.276 -0.2069  0.5220 -0.5420
 2399TIP3    H128688   0.025   4.882   5.188  2.0290  1.0299 -0.4548
 2399TIP3    H228689   0.031   5.011   5.267 -0.6127  0.6984  0.3568
 2400TIP3   OH228690   6.635   0.924   1.932 -0.2670 -0.1792 -0.3211
 2400TIP3    H128691   6.619   0.873   1.852  3.3550  0.1458 -1.4244
 2400TIP3    H228692   6.566   0.895   1.992 -0.4274 -3.9152 -1.9970
 2401TIP3   OH228693   4.557   6.145   3.046 -0.2975 -0.1822 -0.3821
 2401TIP3    H128694   4.578   6.159   3.138 -3.4857  2.7082  0.1083
 2401TIP3    H228695   4.515   6.059   3.043  1.1898 -0.9831  0.5042
 2402TIP3   OH228696   0.234   0.224  10.612  0.4143 -0.4539  0.2979
 2402TIP3    H128697   0.267   0.198  10.698  0.2757 -2.1319 -0.1343
 2402TIP3    H228698   0.267   0.157  10.553 -0.7795 -0.1628 -0.7213
 2403TIP3   OH228699   3.849   6.643   2.628 -0.3937 -0.0669 -0.2941
 2403TIP3    H128700   3.855   6.689   2.544  0.1333  0.2460 -0.0837
 2403TIP3    H228701   3.915   6.684   2.683 -0.4645 -0.5445  0.1498
 2404TIP3   OH228702   0.417   3.610   2.205  0.1565 -0.5396 -0.3585
 2404TIP3    H128703   0.454   3.650   2.284  0.5627  0.5170 -1.0600
 2404TIP3    H228704   0.404   3.518   2.229  0.1985 -0.2304  0.9609
 2405TIP3   OH228705   4.186   6.301   5.816  0.4231 -0.0077 -0.0757
 2405TIP3    H128706   4.183   6.396   5.829  0.4181  0.3282 -2.1745
 2405TIP3    H228707   4.252   6.270   5.878 -2.2031  0.7756  3.4343
 2406TIP3   OH228708   0.766   6.765   2.739 -0.2707 -0.1730 -0.2970
 2406TIP3    H128709   0.801   6.794   2.655 -0.3724  0.7000 -0.0489
 2406TIP3    H228710   0.741   6.846   2.784 -0.3649 -0.6361  0.5093
 2407TIP3   OH228711   5.578   5.676  12.104  0.2136 -0.2124 -0.5345
 2407TIP3    H128712   5.635   5.601  12.122 -0.7425 -1.0774 -1.0020
 2407TIP3    H228713   5.599   5.703  12.015  1.0843  0.5683 -0.1044
 2408TIP3   OH228714   2.989   1.354  15.414  0.1239  0.3600  0.4414
 2408TIP3    H128715   2.974   1.318  15.501  0.8998  0.4400  0.6088
 2408TIP3    H228716   3.078   1.389  15.417  0.0672  0.5797 -0.3068
 2409TIP3   OH228717   3.613   2.895  14.839  0.4831  0.0276 -0.0943
 2409TIP3    H128718   3.621   2.985  14.871 -0.0416  0.4494 -1.1185
 2409TIP3    H228719   3.670   2.891  14.763  0.1488 -0.3705 -0.3264
 2410TIP3   OH228720   3.940   3.132  17.075  0.2379  0.3453 -0.1702
 2410TIP3    H128721   3.924   3.060  17.014 -1.8734  0.1282  0.5433
 2410TIP3    H228722   4.011   3.100  17.131 -0.6991 -1.2481  0.1670
 2411TIP3   OH228723   4.055   6.008   5.070  0.2834 -0.2049  0.2598
 2411TIP3    H128724   3.968   5.967   5.063 -0.1096  0.1249  2.5304
 2411TIP3    H228725   4.039   6.101   5.054  0.1491 -0.0865  1.0818
 2412TIP3   OH228726   2.417   5.776  12.419  0.0448 -0.0166  0.6417
 2412TIP3    H128727   2.481   5.744  12.355 -2.4227  0.7356 -2.4282
 2412TIP3    H228728   2.423   5.871  12.413  0.0250  0.0851  1.8965
 2413TIP3   OH228729   5.567   2.185   2.980 -0.3171  0.0664 -0.8099
 2413TIP3    H128730   5.576   2.278   2.958  2.5816 -0.2523 -1.3406
 2413TIP3    H228731   5.647   2.164   3.028 -1.4029 -1.9302  0.2398
 2414TIP3   OH228732   0.840   2.704   2.933  0.2292  0.1049 -0.0559
 2414TIP3    H128733   0.916   2.665   2.890 -0.0792 -0.5517 -0.0119
 2414TIP3    H228734   0.780   2.726   2.862  1.1269  2.1595 -0.2508
 2415TIP3   OH228735   5.857   2.319   3.169  0.4377 -0.0691 -0.1524
 2415TIP3    H128736   5.832   2.239   3.123 -0.2854 -0.9587  1.7083
 2415TIP3    H228737   5.869   2.293   3.260 -0.6577  2.0862  0.6865
 2416TIP3   OH228738   5.821   0.947   3.791  0.7225 -1.0109 -0.3007
 2416TIP3    H128739   5.756   0.944   3.861  2.0048  0.5132  1.0587
 2416TIP3    H228740   5.774   0.922   3.712 -1.2113 -1.0744  0.8211
 2417TIP3   OH228741   4.401   0.454  16.462 -0.3533  0.0174  0.3184
 2417TIP3    H128742   4.433   0.367  16.484 -0.0341 -0.9151 -3.2337
 2417TIP3    H228743   4.307   0.443  16.450 -0.4305  0.3332  0.6432
 2418TIP3   OH228744   3.192   2.337  16.246  0.1634  0.3533  0.0354
 2418TIP3    H128745   3.225   2.415  16.289 -0.1293  0.4544  0.0781
 2418TIP3    H228746   3.253   2.321  16.174 -0.9705  1.8730 -1.3213
 2419TIP3   OH228747   2.358   5.614   0.106  0.3255 -0.2839 -0.1117
 2419TIP3    H128748   2.417   5.563   0.051 -1.9531 -2.1733 -0.9918
 2419TIP3    H228749   2.318   5.550   0.164 -1.8722  0.6204 -0.5332
 2420TIP3   OH228750   0.866   0.947  17.124  0.3669 -0.7331  0.2802
 2420TIP3    H128751   0.885   1.039  17.107 -1.0364 -0.3296  0.7423
 2420TIP3    H228752   0.923   0.925  17.198  0.2086 -0.0329  0.6230
 2421TIP3   OH228753   6.712   1.789  15.576  0.3622 -0.5135 -0.7894
 2421TIP3    H128754   6.781   1.848  15.603  0.2869  1.2701 -4.0561
 2421TIP3    H228755   6.757   1.716  15.533  0.2727 -0.3227 -1.2064
 2422TIP3   OH228756   2.281   3.659   4.049  0.1519 -0.1690 -0.2459
 2422TIP3    H128757   2.327   3.726   3.999  0.7146 -0.7787 -0.5528
 2422TIP3    H228758   2.295   3.578   4.000 -2.3681 -0.1725 -1.1124
 2423TIP3   OH228759   3.448   5.411   5.521  0.0772 -0.1765  0.3332
 2423TIP3    H128760   3.456   5.326   5.564  1.7411  0.3375  1.1611
 2423TIP3    H228761   3.375   5.401   5.460  0.1670 -2.1434  0.4839
 2424TIP3   OH228762   6.413   3.534   5.111  0.5436 -0.4500 -0.1026
 2424TIP3    H128763   6.353   3.504   5.043 -0.4463  0.4703  0.3381
 2424TIP3    H228764   6.357   3.580   5.174  1.5527 -0.5668  0.9158
 2425TIP3   OH228765   3.966   5.081   0.176  0.0079  0.2539 -0.0098
 2425TIP3    H128766   3.912   5.114   0.105 -0.1037  1.6683  0.7059
 2425TIP3    H228767   4.056   5.099   0.149  0.1603 -1.7614 -1.0301
 2426TIP3   OH228768   1.737   1.086  14.079  0.0227 -0.0321 -0.1799
 2426TIP3    H128769   1.725   1.159  14.140 -1.4945  0.9893 -1.6431
 2426TIP3    H228770   1.684   1.108  14.003 -0.1446 -2.4844 -0.8597
 2427TIP3   OH228771   1.026   5.874  13.602  0.0453  0.1050 -0.2252
 2427TIP3    H128772   0.989   5.918  13.679 -0.5210  1.9346 -1.4725
 2427TIP3    H228773   1.117   5.903  13.600  0.2305 -0.4387  0.0800
 2428TIP3   OH228774   1.805   0.913   1.264 -0.2658 -0.1801 -0.2778
 2428TIP3    H128775   1.820   0.887   1.355  1.0686  0.3829 -0.3166
 2428TIP3    H228776   1.719   0.955   1.265 -0.4792 -0.6105  0.6258
 2429TIP3   OH228777   2.269   4.577   0.310  0.0375  0.2446  0.3738
 2429TIP3    H128778   2.194   4.608   0.259 -1.2891 -0.4877  1.7954
 2429TIP3    H228779   2.339   4.565   0.245 -1.6881 -1.0574 -1.3425
 2430TIP3   OH228780   0.022   3.970   0.041  0.3979 -0.2487 -0.2891
 2430TIP3    H128781   0.048   4.059   0.063  1.9348 -1.0866  1.4866
 2430TIP3    H228782   0.052   3.917   0.114 -0.5621 -2.2359 -1.2600
 2431TIP3   OH228783   5.697   5.421  16.341 -0.6003  0.4149  0.0356
 2431TIP3    H128784   5.735   5.351  16.289 -0.8851  0.8831 -0.8086
 2431TIP3    H228785   5.628   5.457  16.286  0.2131  2.0475  0.0307
 2432TIP3   OH228786   3.573   5.291   0.280 -0.5469 -0.1847  0.5578
 2432TIP3    H128787   3.568   5.313   0.373 -1.7417 -2.0086  0.9752
 2432TIP3    H228788   3.495   5.330   0.240  0.3710  1.2838  0.1203
 2433TIP3   OH228789   0.576   1.874   3.463 -0.1140  0.0213  0.7345
 2433TIP3    H128790   0.669   1.881   3.444  0.1070 -1.4442  1.1301
 2433TIP3    H228791   0.567   1.907   3.553 -0.1379  1.0027  0.3830
 2434TIP3   OH228792   4.313   4.527  11.825  0.2840 -0.0758 -0.2138
 2434TIP3    H128793   4.262   4.460  11.781 -1.6182  0.1849  1.4617
 2434TIP3    H228794   4.360   4.572  11.755 -3.0665  0.7449 -2.1457
 2435TIP3   OH228795   3.442   0.279  10.668 -0.4959  0.1847 -0.1168
 2435TIP3    H128796   3.356   0.316  10.648 -1.7877 -1.7259  1.4663
 2435TIP3    H228797   3.470   0.238  10.586 -0.6688  1.5426 -0.8823
 2436TIP3   OH228798   2.116   3.110   1.435 -0.6597 -0.3734 -0.2608
 2436TIP3    H128799   2.199   3.122   1.481  0.0825  0.4869 -1.7665
 2436TIP3    H228800   2.084   3.199   1.421 -2.1764 -0.6958  0.8239
 2437TIP3   OH228801   5.772   1.544   4.342  0.0069  0.2827 -0.4045
 2437TIP3    H128802   5.848   1.491   4.320  0.6526  1.4989 -1.1554
 2437TIP3    H228803   5.771   1.546   4.438 -0.0245 -1.0538 -0.3607
 2438TIP3   OH228804   5.218   3.535   4.755 -0.0781 -0.1395 -0.3577
 2438TIP3    H128805   5.234   3.527   4.661 -1.4656 -0.5535 -0.5877
 2438TIP3    H228806   5.215   3.445   4.787 -0.3359 -0.0315 -0.0652
 2439TIP3   OH228807   2.008   1.077  14.364 -0.1585 -0.3915 -0.2166
 2439TIP3    H128808   2.023   1.165  14.398  0.1216 -1.0930  1.5756
 2439TIP3    H228809   2.094   1.048  14.335 -0.4164  0.2480 -1.7389
 2440TIP3   OH228810   3.076   1.177   0.093  0.3242 -0.0340  0.6250
 2440TIP3    H128811   3.113   1.264   0.083 -1.4619  0.8511  1.2356
 2440TIP3    H228812   2.991   1.192   0.136 -0.4461 -1.9822 -0.1153
 2441TIP3   OH228813   3.485   6.672  12.144  0.3665  0.0787 -0.2325
 2441TIP3    H128814   3.405   6.687  12.195  0.7802 -0.1515  0.5005
 2441TIP3    H228815   3.478   6.732  12.070  0.6358  1.8218  1.0850
 2442TIP3   OH228816   2.958   3.064  11.678  0.2436  0.4947 -0.3752
 2442TIP3    H128817   2.938   2.971  11.672  0.2232  0.4175  0.7290
 2442TIP3    H228818   3.013   3.082  11.601 -0.6975 -0.1680 -1.2203
 2443TIP3   OH228819   2.197   2.070   4.472 -0.0166 -0.2020  0.0764
 2443TIP3    H128820   2.115   2.023   4.488  0.3973 -0.4861  1.5055
 2443TIP3    H228821   2.215   2.115   4.554 -0.5125  2.7422 -1.2565
 2444TIP3   OH228822   6.592   1.118  11.716  0.0629  0.6849  0.1222
 2444TIP3    H128823   6.644   1.178  11.663 -0.1668  0.1815 -0.6798
 2444TIP3    H228824   6.599   1.034  11.671 -1.5499  0.6345 -0.0766
 2445TIP3   OH228825   0.031   2.382   3.102 -0.4272  0.3882 -0.3853
 2445TIP3    H128826   0.058   2.412   3.015  1.7422  0.1846  0.1716
 2445TIP3    H228827  -0.053   2.339   3.086 -1.6523  3.0532 -1.8397
 2446TIP3   OH228828   6.789   2.069  15.105 -0.5878 -0.0770  0.2673
 2446TIP3    H128829   6.706   2.116  15.115 -0.9762 -0.5694 -0.5600
 2446TIP3    H228830   6.850   2.135  15.070 -0.2870  0.5938  1.9249
 2447TIP3   OH228831   0.925   5.501  11.375 -0.0470 -0.0315 -0.5866
 2447TIP3    H128832   0.845   5.527  11.421 -0.1158 -0.0569 -0.6911
 2447TIP3    H228833   0.953   5.581  11.330  0.9857  0.4716  0.8926
 2448TIP3   OH228834   2.370   6.313  11.901  0.5979  0.5402 -0.2567
 2448TIP3    H128835   2.339   6.235  11.947 -1.5124  1.5073  0.0463
 2448TIP3    H228836   2.466   6.309  11.911  0.6286 -2.2752 -0.7523
 2449TIP3   OH228837   5.343   4.033  13.496 -0.3403 -0.1769 -0.0673
 2449TIP3    H128838   5.320   4.014  13.405 -1.3214  0.4916  0.0222
 2449TIP3    H228839   5.409   4.102  13.491  0.8051 -1.2554 -0.2994
 2450TIP3   OH228840   2.044   1.508   0.138  0.1013 -1.0014  0.1994
 2450TIP3    H128841   2.124   1.460   0.117  0.4102 -0.7019  0.6686
 2450TIP3    H228842   1.979   1.474   0.078  0.8409 -0.5107 -0.9099
 2451TIP3   OH228843   0.338   3.469   5.687 -0.7979  0.2541 -0.1886
 2451TIP3    H128844   0.353   3.518   5.768 -2.6297 -1.9315  1.5883
 2451TIP3    H228845   0.425   3.464   5.646 -0.1078  2.7880  0.7579
 2452TIP3   OH228846   4.620   6.463  15.471  0.7177 -0.1452  0.3447
 2452TIP3    H128847   4.680   6.388  15.467 -0.2966 -1.0534  1.1777
 2452TIP3    H228848   4.536   6.424  15.498 -0.2630  1.0723 -0.8309
 2453TIP3   OH228849   5.115   2.746  17.148 -0.1410 -0.8096 -0.1827
 2453TIP3    H128850   5.047   2.782  17.205 -1.1814 -0.9805 -1.3019
 2453TIP3    H228851   5.096   2.653  17.144  0.5783 -0.9712  0.0392
 2454TIP3   OH228852   1.004   6.291  16.895  0.0581  0.5602 -0.4804
 2454TIP3    H128853   0.931   6.345  16.863  0.7131  1.4435 -0.5352
 2454TIP3    H228854   0.985   6.203  16.863 -1.4741  0.5645  0.3109
 2455TIP3   OH228855   3.930   0.183  12.432 -0.8528 -0.1547 -0.3092
 2455TIP3    H128856   3.878   0.157  12.356 -1.1425  3.0453 -1.3602
 2455TIP3    H228857   3.866   0.217  12.494 -0.4910 -1.6143  0.9291
 2456TIP3   OH228858   1.721   2.436  11.329  0.7998  0.3667  0.4931
 2456TIP3    H128859   1.680   2.350  11.325  1.1103  0.2472 -0.1439
 2456TIP3    H228860   1.651   2.494  11.360  0.0853  0.2038 -0.7688
 2457TIP3   OH228861   6.699   1.567  12.321  0.1636 -0.6208 -0.7241
 2457TIP3    H128862   6.620   1.558  12.374  0.5107  2.5793  0.5509
 2457TIP3    H228863   6.666   1.582  12.232 -0.6229 -0.3129 -0.3877
 2458TIP3   OH228864   5.523   2.222  12.287 -0.1704 -0.0171 -0.7052
 2458TIP3    H128865   5.454   2.163  12.318  0.9805 -2.0644 -1.8897
 2458TIP3    H228866   5.509   2.228  12.193  1.7693 -1.1874 -1.1013
 2459TIP3   OH228867   4.001   5.387   1.452  0.4935  0.0876  0.2204
 2459TIP3    H128868   4.004   5.291   1.446 -1.5319  0.0613 -1.2047
 2459TIP3    H228869   4.036   5.417   1.368 -1.7511  0.4611 -0.6542
 2460TIP3   OH228870   0.063   4.895   0.499  0.0274  0.1283  0.3846
 2460TIP3    H128871   0.089   4.954   0.428  3.9346  1.1917  2.3784
 2460TIP3    H228872   0.014   4.951   0.559 -1.2248 -0.1725 -0.3335
 2461TIP3   OH228873   0.337   4.490   5.065 -0.7968 -0.5715 -0.0076
 2461TIP3    H128874   0.360   4.534   4.983  1.0965 -2.1797 -0.3991
 2461TIP3    H228875   0.277   4.551   5.109  1.3419  2.2203 -0.6849
 2462TIP3   OH228876   1.057   1.895  14.762  0.1880 -0.1863  0.0890
 2462TIP3    H128877   1.085   1.832  14.695 -1.4633 -1.6303  0.6832
 2462TIP3    H228878   1.024   1.970  14.713  3.2308  0.8380 -0.6455
 2463TIP3   OH228879   3.696   6.485   1.069 -0.1924 -0.5402 -0.2927
 2463TIP3    H128880   3.705   6.567   1.118  0.1404  1.0946 -2.8769
 2463TIP3    H228881   3.693   6.417   1.136  1.7022  1.3792  1.9209
 2464TIP3   OH228882   5.256   4.596  14.864  0.5167 -0.4044 -0.5854
 2464TIP3    H128883   5.294   4.511  14.841  0.6733 -0.9092  1.3786
 2464TIP3    H228884   5.331   4.649  14.890  0.0975 -0.9574  1.9621
 2465TIP3   OH228885   3.651   3.431   2.437  0.0502 -0.0271 -0.7105
 2465TIP3    H128886   3.564   3.392   2.429 -0.3656  0.9037 -0.9042
 2465TIP3    H228887   3.657   3.491   2.362  1.1100 -0.5412 -1.0569
 2466TIP3   OH228888   4.976   3.636  16.500 -0.0336 -0.6241 -0.0851
 2466TIP3    H128889   5.040   3.592  16.555 -0.3620  0.6752  1.3949
 2466TIP3    H228890   4.898   3.643  16.555 -0.6600 -0.0459 -1.0215
 2467TIP3   OH228891   6.294   2.652   6.417  0.6502  0.5871  0.0634
 2467TIP3    H128892   6.383   2.637   6.448  1.4426  0.6833 -1.9851
 2467TIP3    H228893   6.302   2.719   6.350 -0.9758  0.6223 -0.1498
 2468TIP3   OH228894   0.369   0.020   1.423 -0.3225  0.6695  0.2109
 2468TIP3    H128895   0.291   0.056   1.381 -0.8058  0.6369  1.0606
 2468TIP3    H228896   0.335  -0.030   1.498  0.4713  0.1176  0.2122
 2469TIP3   OH228897   2.340   4.880  13.389 -0.3113  0.5382  0.1464
 2469TIP3    H128898   2.381   4.828  13.458 -0.1703  1.1095  0.4955
 2469TIP3    H228899   2.406   4.886  13.320 -0.4660 -0.0647 -0.0653
 2470TIP3   OH228900   0.159   0.668  13.532 -0.4739 -0.2906  0.7064
 2470TIP3    H128901   0.114   0.688  13.450  0.9823  1.6573  0.3021
 2470TIP3    H228902   0.243   0.631  13.504 -0.3663 -0.5293  1.3409
 2471TIP3   OH228903   1.034   5.696  12.716 -0.2824 -0.2808  0.0112
 2471TIP3    H128904   0.967   5.745  12.764 -0.0477  2.8296 -2.4918
 2471TIP3    H228905   1.105   5.760  12.703  0.2946 -1.4127 -3.0216
 2472TIP3   OH228906   3.780   0.977  10.542  0.4908 -0.2561 -0.3373
 2472TIP3    H128907   3.860   0.951  10.588 -1.4588 -2.0233  2.4512
 2472TIP3    H228908   3.739   0.895  10.516 -0.4093  0.6010 -1.8023
 2473TIP3   OH228909   4.520   6.219   4.192 -0.4103  0.0596  0.4129
 2473TIP3    H128910   4.527   6.176   4.107  0.7446  2.4775 -0.8245
 2473TIP3    H228911   4.445   6.177   4.234  0.0071 -2.3707 -1.0626
 2474TIP3   OH228912   1.245   4.607   2.808  0.2576 -0.4092  0.4857
 2474TIP3    H128913   1.199   4.542   2.755 -0.5033 -0.1647  0.8272
 2474TIP3    H228914   1.338   4.590   2.792  0.0640 -1.3113  0.2556
 2475TIP3   OH228915   1.296   4.963  11.485  0.2347 -0.3592  0.3337
 2475TIP3    H128916   1.210   4.937  11.451 -0.0690 -0.7423  1.3292
 2475TIP3    H228917   1.354   4.962  11.409 -0.7348  0.3178 -0.4367
 2476TIP3   OH228918   3.574   5.788   4.560 -0.5714 -0.2040 -0.4817
 2476TIP3    H128919   3.558   5.840   4.481 -0.4010 -2.0445 -1.8038
 2476TIP3    H228920   3.652   5.827   4.599 -0.5142  0.6041 -1.3674
 2477TIP3   OH228921   2.085   5.606  11.621  0.4131 -0.0777  0.1070
 2477TIP3    H128922   2.063   5.647  11.537  1.0548 -0.0755 -0.0669
 2477TIP3    H228923   2.172   5.640  11.643  1.4518 -2.0768 -0.5716
 2478TIP3   OH228924   5.957   5.734   1.709 -0.3825  0.2244  0.7818
 2478TIP3    H128925   5.864   5.754   1.717 -0.5814  0.5277 -1.5571
 2478TIP3    H228926   5.963   5.641   1.732 -1.1655  0.3197  1.4299
 2479TIP3   OH228927   4.031   5.809  11.830 -0.1697 -0.5132  0.6858
 2479TIP3    H128928   4.036   5.808  11.925  3.8392  0.9025  0.7118
 2479TIP3    H228929   4.034   5.902  11.807 -0.3909 -0.8494 -0.8298
 2480TIP3   OH228930   3.011   4.878   4.990  0.4763  0.4310  0.2766
 2480TIP3    H128931   2.961   4.919   4.919  1.2920 -0.3411 -0.7633
 2480TIP3    H228932   3.101   4.879   4.960  0.6944 -0.8902  0.8306
 2481TIP3   OH228933   6.103   2.864  16.667  0.0514 -0.0459 -0.3360
 2481TIP3    H128934   6.094   2.942  16.721  1.1378  0.1770 -0.4526
 2481TIP3    H228935   6.175   2.884  16.607  0.3719 -1.1371 -0.3435
 2482TIP3   OH228936   4.816   5.198  17.081  0.2013  0.1726 -0.1546
 2482TIP3    H128937   4.731   5.205  17.123 -0.6302 -0.8413 -1.5913
 2482TIP3    H228938   4.831   5.104  17.071  2.0038  0.2720  1.0193
 2483TIP3   OH228939   1.799   3.146  15.327  0.4487  0.0007  0.5707
 2483TIP3    H128940   1.755   3.218  15.283 -1.0135 -0.3996  1.3372
 2483TIP3    H228941   1.786   3.163  15.421  1.1990 -0.5789  0.7937
 2484TIP3   OH228942   4.283   0.304  12.391 -0.7313 -0.6473 -0.1155
 2484TIP3    H128943   4.250   0.219  12.362 -2.5001  0.1213 -0.4727
 2484TIP3    H228944   4.206   0.360  12.396  0.2114  0.6194  1.3381
 2485TIP3   OH228945   0.557   5.637   1.659 -0.1122  0.0604 -0.7012
 2485TIP3    H128946   0.488   5.581   1.622  0.2232 -0.6528 -0.2709
 2485TIP3    H228947   0.618   5.651   1.586 -0.2169 -0.1142 -0.8256
 2486TIP3   OH228948   0.421   3.229   4.329  0.1522  0.1898 -0.4279
 2486TIP3    H128949   0.497   3.248   4.383 -0.7499 -0.8053  1.2824
 2486TIP3    H228950   0.449   3.156   4.273  0.4311 -0.2231  0.2444
 2487TIP3   OH228951   6.013   5.867   1.453 -0.5774  0.2975 -0.1290
 2487TIP3    H128952   5.956   5.805   1.408 -0.2228 -2.1832  2.5306
 2487TIP3    H228953   5.988   5.860   1.545  1.2029  2.3121  0.5935
 2488TIP3   OH228954   3.447   5.208   0.595 -0.6464  0.2866  0.2541
 2488TIP3    H128955   3.402   5.126   0.572 -0.0955 -0.0590  0.3728
 2488TIP3    H228956   3.538   5.182   0.608 -0.1562  1.1764 -1.1885
 2489TIP3   OH228957   3.242   2.608   5.381 -0.1775  0.3685  0.1516
 2489TIP3    H128958   3.186   2.684   5.396  0.2745  0.6451  0.4306
 2489TIP3    H228959   3.183   2.543   5.341 -0.0815  1.6459 -2.2366
 2490TIP3   OH228960   4.038   2.072  13.782  0.3038 -0.7358 -0.2916
 2490TIP3    H128961   3.984   1.993  13.777  1.8148 -1.8400  0.1614
 2490TIP3    H228962   4.012   2.124  13.706 -0.9013 -1.5404 -0.4591
 2491TIP3   OH228963   0.188   6.410  15.176  0.0900 -0.3672  0.4742
 2491TIP3    H128964   0.160   6.349  15.107 -0.9933 -0.4371  0.9553
 2491TIP3    H228965   0.247   6.471  15.131  0.3473 -1.1292 -0.2458
 2492TIP3   OH228966   4.278   0.321   3.218  0.3581 -0.0680  0.2623
 2492TIP3    H128967   4.216   0.269   3.269  0.0639 -0.0051 -0.0318
 2492TIP3    H228968   4.236   0.406   3.207  0.1659 -0.2621 -0.5710
 2493TIP3   OH228969   4.117   4.894  10.880  0.1667  0.5159  0.7119
 2493TIP3    H128970   4.025   4.910  10.860 -0.1096  0.0632  1.5670
 2493TIP3    H228971   4.156   4.866  10.797 -0.1283  2.0853  0.0138
 2494TIP3   OH228972   5.551   0.508   5.457  0.4243  0.1243 -0.3643
 2494TIP3    H128973   5.564   0.534   5.365 -0.2826 -0.1341 -0.5385
 2494TIP3    H228974   5.633   0.534   5.500  0.4967  0.8698 -0.9278
 2495TIP3   OH228975   0.208   3.183   4.502 -0.2746  0.5413  0.4072
 2495TIP3    H128976   0.228   3.089   4.502 -0.2907  0.5071 -0.9151
 2495TIP3    H228977   0.287   3.223   4.467 -0.4221  0.9734  0.5739
 2496TIP3   OH228978   5.167   0.808   3.437 -0.3418 -0.0267  0.0910
 2496TIP3    H128979   5.147   0.900   3.450 -0.8596 -0.3900  2.1675
 2496TIP3    H228980   5.247   0.808   3.383 -0.0234  1.6281  0.5115
 2497TIP3   OH228981   0.309   3.659  12.000 -0.4511 -0.2250 -0.0834
 2497TIP3    H128982   0.273   3.571  12.017  1.5609 -1.4263 -1.6360
 2497TIP3    H228983   0.401   3.643  11.978  0.2197  2.4019  0.5586
 2498TIP3   OH228984   1.634   0.825   2.973  0.1593 -0.1517  0.0630
 2498TIP3    H128985   1.669   0.865   2.894  0.5162 -1.8932 -0.7060
 2498TIP3    H228986   1.711   0.813   3.030  0.1332 -0.2165  0.0846
 2499TIP3   OH228987   2.035   2.315  10.341 -0.0798  0.2937 -0.1058
 2499TIP3    H128988   2.117   2.362  10.323  0.3371  0.6652  2.3386
 2499TIP3    H228989   2.005   2.351  10.425 -2.1910 -0.6183 -0.4021
 2500TIP3   OH228990   3.301   5.466  12.956 -0.8815  0.8348  0.1809
 2500TIP3    H128991   3.320   5.533  12.890  2.1718 -0.0050  0.0260
 2500TIP3    H228992   3.338   5.386  12.919 -3.1563 -0.6635  1.0005
 2501TIP3   OH228993   3.669   1.767  14.204  0.1276  0.1372  0.2640
 2501TIP3    H128994   3.629   1.820  14.135 -2.4818 -0.8068  0.9180
 2501TIP3    H228995   3.748   1.814  14.227 -0.5172  2.1256 -1.2382
 2502TIP3   OH228996   4.706   2.827   2.881 -0.1967  0.1968  0.4575
 2502TIP3    H128997   4.681   2.840   2.789 -0.4691  2.5824  0.8010
 2502TIP3    H228998   4.736   2.913   2.910 -1.6658 -0.0632  3.0556
 2503TIP3   OH228999   4.334   3.506   3.935  0.1713 -0.4328  0.2715
 2503TIP3    H129000   4.242   3.531   3.929  0.4812  0.8114  0.3181
 2503TIP3    H229001   4.340   3.455   4.016 -0.7121 -1.6891 -0.4336
 2504TIP3   OH229002   2.546   6.057   5.487  0.0737 -0.1421  0.1529
 2504TIP3    H129003   2.564   6.050   5.393 -0.5507 -0.3917  0.0476
 2504TIP3    H229004   2.476   5.994   5.503 -1.6182  1.6501  0.2954
 2505TIP3   OH229005   0.349   6.612  15.054 -0.1582  0.6285 -0.4930
 2505TIP3    H129006   0.355   6.679  15.122  0.0146  0.8647 -0.7393
 2505TIP3    H229007   0.431   6.620  15.005 -0.7928  1.2574 -1.4778
 2506TIP3   OH229008   6.463   2.543   2.916  0.0356  0.5756  0.5849
 2506TIP3    H129009   6.502   2.499   2.991  0.7430  0.3378  0.0837
 2506TIP3    H229010   6.381   2.580   2.950 -2.2184 -3.6005  0.4160
 2507TIP3   OH229011   4.677   6.551  11.059  0.3875  0.0789 -0.0699
 2507TIP3    H129012   4.688   6.534  10.966  0.6219  0.2592 -0.0759
 2507TIP3    H229013   4.766   6.571  11.090 -0.0039  2.4576 -0.2941
 2508TIP3   OH229014   3.055   2.526  11.233  0.1463  0.0722 -0.0644
 2508TIP3    H129015   3.072   2.583  11.158  0.7068  0.8832  0.6712
 2508TIP3    H229016   3.048   2.439  11.195  3.6715 -0.0428 -0.7242
 2509TIP3   OH229017   2.068   0.893   3.648 -0.5032 -0.0410 -0.0469
 2509TIP3    H129018   2.142   0.953   3.656  0.9726 -1.7393 -0.3436
 2509TIP3    H229019   2.039   0.902   3.558 -1.6984  1.7141  0.4477
 2510TIP3   OH229020   2.458   3.119   2.952  0.7144  0.1017 -0.3416
 2510TIP3    H129021   2.445   3.028   2.924  0.8152 -0.8542  2.3818
 2510TIP3    H229022   2.541   3.145   2.912  0.1012 -0.5272 -2.1351
 2511TIP3   OH229023   6.507   3.277  17.038  0.1964 -0.5885  0.5116
 2511TIP3    H129024   6.570   3.210  17.010 -1.0300 -2.1315  1.2864
 2511TIP3    H229025   6.441   3.229  17.088  0.1067  1.4528  2.5183
 2512TIP3   OH229026   6.731   2.236  16.875  0.0247 -0.0198  0.2209
 2512TIP3    H129027   6.707   2.275  16.792 -0.6951  1.1221  0.9338
 2512TIP3    H229028   6.743   2.143  16.856 -0.6881  0.1275 -1.0291
 2513TIP3   OH229029   2.641   5.576   1.153  0.3902  0.2588  0.1824
 2513TIP3    H129030   2.634   5.527   1.070 -1.0630  0.2009  0.3123
 2513TIP3    H229031   2.713   5.535   1.199  0.3886 -0.5596 -0.5165
 2514TIP3   OH229032   1.223   6.752   4.592 -0.2529  0.0570  0.2822
 2514TIP3    H129033   1.140   6.790   4.620  0.5441  0.5905  2.0789
 2514TIP3    H229034   1.279   6.826   4.571 -0.1988 -0.2998 -0.9438
 2515TIP3   OH229035   5.297   2.120   3.033 -0.2219  0.6209 -0.3261
 2515TIP3    H129036   5.336   2.052   3.088  1.5378  0.2965 -1.8737
 2515TIP3    H229037   5.365   2.140   2.968 -2.7529 -0.3113 -3.5373
 2516TIP3   OH229038   5.567   4.896  14.382 -0.0264  0.1250 -0.5872
 2516TIP3    H129039   5.498   4.963  14.379 -0.6816 -0.3427  1.7911
 2516TIP3    H229040   5.629   4.929  14.447  0.1294 -1.1150 -0.0849
 2517TIP3   OH229041   2.569   1.359  16.146 -0.3292 -0.0258  0.1932
 2517TIP3    H129042   2.557   1.358  16.241  0.9080 -1.8732  0.3948
 2517TIP3    H229043   2.517   1.285  16.115 -0.5992  0.4717 -0.5651
 2518TIP3   OH229044   1.069   6.293   2.931  0.6469  0.1831  1.1895
 2518TIP3    H129045   1.065   6.279   2.837 -0.1370 -1.3739  1.4251
 2518TIP3    H229046   1.103   6.382   2.941  0.4695  0.4715 -0.5520
 2519TIP3   OH229047   6.037   0.298   6.022  0.6977  0.4567 -0.4799
 2519TIP3    H129048   6.095   0.228   6.052 -0.3587 -0.2804 -0.1017
 2519TIP3    H229049   6.029   0.357   6.097  1.9400  1.2635 -0.9382
 2520TIP3   OH229050   4.854   5.090   2.187 -0.3574  0.3820 -0.6839
 2520TIP3    H129051   4.877   5.177   2.219  0.5726 -0.2552  0.4822
 2520TIP3    H229052   4.928   5.065   2.131  0.0885 -0.2298  0.1614
 2521TIP3   OH229053   5.600   4.469   6.249 -0.1566 -0.8915  0.0537
 2521TIP3    H129054   5.506   4.452   6.246 -0.0939 -1.5059  1.0254
 2521TIP3    H229055   5.607   4.562   6.271 -0.5625 -1.2146  1.6780
 2522TIP3   OH229056   6.240   3.616   3.776 -0.3910  0.1019 -0.0002
 2522TIP3    H129057   6.324   3.640   3.738  0.0062 -0.0255  0.7623
 2522TIP3    H229058   6.238   3.520   3.771 -0.8718  0.1450 -0.7836
 2523TIP3   OH229059   2.708   2.989  15.774  0.0895 -0.1968  0.7679
 2523TIP3    H129060   2.624   2.958  15.807 -0.9093  1.4704 -0.0770
 2523TIP3    H229061   2.749   2.911  15.735 -1.1141 -0.9993  1.0570
 2524TIP3   OH229062   5.795   5.041   0.605  0.4647 -0.2496 -0.1511
 2524TIP3    H129063   5.783   4.995   0.522  0.1085 -0.6777  0.1338
 2524TIP3    H229064   5.710   5.083   0.622  0.4285 -0.4522  0.1703
 2525TIP3   OH229065   5.596   5.000   1.816  0.0684  0.0083  0.2269
 2525TIP3    H129066   5.651   4.922   1.816  1.3864  0.8874  0.7910
 2525TIP3    H229067   5.620   5.046   1.896  1.6840  2.5109 -1.5272
 2526TIP3   OH229068   1.180   4.040  11.503  0.5474 -0.0768 -0.1632
 2526TIP3    H129069   1.090   4.018  11.479  0.1349  0.9109  0.4144
 2526TIP3    H229070   1.217   3.957  11.534  0.1059 -0.6705 -1.1777
 2527TIP3   OH229071   5.610   2.606  11.499  0.0542 -0.2182  0.5408
 2527TIP3    H129072   5.520   2.640  11.509  0.4551  0.3332  2.9832
 2527TIP3    H229073   5.606   2.517  11.534  0.2901 -0.5356 -0.2211
 2528TIP3   OH229074   2.440   4.577  11.734  0.6928 -0.2916  0.5984
 2528TIP3    H129075   2.397   4.518  11.796  1.5137  0.7385  2.2055
 2528TIP3    H229076   2.377   4.647  11.719  0.1937 -0.9239 -0.3689
 2529TIP3   OH229077   5.268   0.846  12.309 -0.1240  0.5681 -0.4719
 2529TIP3    H129078   5.309   0.762  12.286 -0.3743 -0.0145  1.0504
 2529TIP3    H229079   5.178   0.838  12.276 -0.2589  0.0654 -0.0043
 2530TIP3   OH229080   4.907   3.394   1.233 -0.3289 -0.4736 -0.5401
 2530TIP3    H129081   4.976   3.360   1.176  0.1347  0.0775 -0.3166
 2530TIP3    H229082   4.826   3.378   1.185 -0.0907 -1.5225 -0.6137
 2531TIP3   OH229083   2.735   2.961   2.820 -0.2249  0.1392  0.3804
 2531TIP3    H129084   2.797   2.922   2.759 -1.0687 -0.2962 -0.2156
 2531TIP3    H229085   2.694   2.887   2.865 -0.7076  0.3900  0.3660
 2532TIP3   OH229086   3.412   5.568   2.526 -0.5230  0.2506 -0.0642
 2532TIP3    H129087   3.339   5.616   2.565 -0.9749 -1.2556  1.0398
 2532TIP3    H229088   3.418   5.487   2.577  0.1907 -0.8906 -1.8391
 2533TIP3   OH229089   3.390   1.728  14.473  0.7339 -0.2254 -1.0850
 2533TIP3    H129090   3.328   1.766  14.536  1.1737 -0.8015 -0.2882
 2533TIP3    H229091   3.366   1.768  14.389 -0.8614 -0.6086 -0.8370
 2534TIP3   OH229092   1.836   1.725  16.995  0.4228 -0.2460 -0.4998
 2534TIP3    H129093   1.785   1.708  16.915  0.5910  0.0510 -0.6753
 2534TIP3    H229094   1.903   1.787  16.967  1.3901 -1.2613 -0.4559
 2535TIP3   OH229095   2.641   0.746  13.091 -0.6968  0.0418 -0.0358
 2535TIP3    H129096   2.661   0.838  13.106  2.1230 -0.4264 -0.4596
 2535TIP3    H229097   2.722   0.700  13.112 -1.7180 -2.2600 -0.8264
 2536TIP3   OH229098   6.806   2.916   5.948  0.2687 -0.9312 -0.4665
 2536TIP3    H129099   6.842   2.953   5.868 -0.2234  0.6918  0.0324
 2536TIP3    H229100   6.798   2.822   5.929  1.3164 -0.7743 -1.8558
 2537TIP3   OH229101   4.046   1.569   2.076 -0.1680 -0.5865 -0.1796
 2537TIP3    H129102   4.052   1.534   2.165  1.5822 -2.8418 -1.0799
 2537TIP3    H229103   4.128   1.618   2.064 -0.2371 -0.5747 -0.6333
 2538TIP3   OH229104   3.807   5.656   1.705  0.2402  0.2974  0.1207
 2538TIP3    H129105   3.732   5.702   1.742 -1.8424 -1.6584 -1.3607
 2538TIP3    H229106   3.811   5.574   1.755  0.0856 -0.4732 -1.0833
 2539TIP3   OH229107   5.938   4.930   3.596 -0.0447 -0.0554 -0.2788
 2539TIP3    H129108   5.979   4.914   3.681  0.4873  2.7429  0.1119
 2539TIP3    H229109   5.845   4.936   3.616  0.1453  1.4174  0.3283
 2540TIP3   OH229110   2.609   0.391  15.470  0.2918 -0.3283  0.7059
 2540TIP3    H129111   2.586   0.301  15.494  1.0724 -0.4542  1.0237
 2540TIP3    H229112   2.573   0.444  15.541 -0.6171 -0.3296  0.2589
 2541TIP3   OH229113   0.932   4.806   4.618  0.1281 -0.2073  0.4192
 2541TIP3    H129114   0.984   4.726   4.628 -2.5730 -1.8509  2.6085
 2541TIP3    H229115   0.880   4.792   4.540  0.4133 -0.1080  0.2100
 2542TIP3   OH229116   4.127   6.209   6.693  0.1613  0.2437  0.0714
 2542TIP3    H129117   4.170   6.172   6.616  0.4991  1.1219 -0.1714
 2542TIP3    H229118   4.035   6.189   6.681  0.1916  0.5074 -0.6478
 2543TIP3   OH229119   2.773   5.548  14.296  0.3298  0.0217  0.9654
 2543TIP3    H129120   2.750   5.502  14.215 -0.7733  1.5664  0.3516
 2543TIP3    H229121   2.855   5.592  14.276 -1.0239  2.2018 -0.1439
 2544TIP3   OH229122   1.410   3.658   1.215 -0.3691  0.1190 -0.5587
 2544TIP3    H129123   1.454   3.736   1.181 -1.4786  0.1913 -1.9320
 2544TIP3    H229124   1.465   3.629   1.287  0.3106  1.9203 -0.2933
 2545TIP3   OH229125   6.443   5.674  12.607 -0.4059  0.0402 -0.4576
 2545TIP3    H129126   6.399   5.596  12.639 -0.2687 -0.0601 -0.5138
 2545TIP3    H229127   6.460   5.655  12.514  2.3554 -1.1287  0.1730
 2546TIP3   OH229128   1.506   0.397   3.217 -0.6216  0.2601 -0.1219
 2546TIP3    H129129   1.588   0.349   3.200 -0.4532  0.2097  0.7785
 2546TIP3    H229130   1.452   0.335   3.265 -0.2467  1.0787  1.4222
 2547TIP3   OH229131   5.082   5.226   4.479  1.1740  0.0101  0.4287
 2547TIP3    H129132   5.129   5.173   4.542 -0.4005 -0.2637  1.4390
 2547TIP3    H229133   4.993   5.233   4.515  0.5792  0.9437 -1.1046
 2548TIP3   OH229134   5.208   6.226   1.243 -0.4181  0.0148 -0.2664
 2548TIP3    H129135   5.207   6.182   1.328  0.1828 -1.0623 -0.7977
 2548TIP3    H229136   5.198   6.156   1.179  4.4346 -0.0117 -1.3833
 2549TIP3   OH229137   2.422   2.113  12.163  0.3653 -0.0756 -0.5611
 2549TIP3    H129138   2.473   2.175  12.215  1.6982 -1.3266 -0.3163
 2549TIP3    H229139   2.337   2.109  12.207  1.1000 -0.2782  0.9013
 2550TIP3   OH229140   3.255   3.699  16.750 -1.3033 -0.2611  0.2135
 2550TIP3    H129141   3.284   3.609  16.733  1.0510  0.2319  1.2098
 2550TIP3    H229142   3.236   3.701  16.844  0.6304  0.7070  0.6383
 2551TIP3   OH229143   4.412   3.561   5.749 -0.3235  0.0620 -0.2191
 2551TIP3    H129144   4.320   3.578   5.769 -1.0350  0.2924 -3.2081
 2551TIP3    H229145   4.411   3.482   5.695  1.6246 -1.7805  2.1770
 2552TIP3   OH229146   4.019   4.090   0.277  0.3371 -0.2527  0.1380
 2552TIP3    H129147   4.098   4.124   0.318  0.2771 -0.7828  0.7077
 2552TIP3    H229148   3.947   4.123   0.332  0.3800 -3.7829  2.7132
 2553TIP3   OH229149   0.163   0.925  11.959 -0.1398  0.3419  0.5200
 2553TIP3    H129150   0.128   1.012  11.978  1.3833  0.5989  2.4414
 2553TIP3    H229151   0.252   0.941  11.927  0.1427 -0.4867  0.8563
 2554TIP3   OH229152   6.313   6.457  12.939 -0.1630  0.3662 -0.0470
 2554TIP3    H129153   6.338   6.408  12.860  2.1486  1.5188 -0.1070
 2554TIP3    H229154   6.234   6.504  12.914 -2.0612 -2.6026 -0.2240
 2555TIP3   OH229155   3.051   3.657   6.129 -0.3659 -0.2125 -0.1052
 2555TIP3    H129156   3.026   3.616   6.046  1.4560 -1.0196 -0.2968
 2555TIP3    H229157   3.047   3.751   6.110  0.1825 -0.3830 -1.1712
 2556TIP3   OH229158   6.360   0.489   0.814 -0.0191  0.3123 -0.4787
 2556TIP3    H129159   6.361   0.393   0.807 -0.9655  0.2909 -0.4095
 2556TIP3    H229160   6.281   0.515   0.768  1.6488  1.2947 -3.0157
 2557TIP3   OH229161   1.286   6.192   4.732  0.0778 -0.4198 -0.6076
 2557TIP3    H129162   1.347   6.212   4.803 -0.5170  1.7368 -0.6336
 2557TIP3    H229163   1.314   6.106   4.700  1.3861 -0.7026  1.1395
 2558TIP3   OH229164   2.860   6.471   4.145 -0.4959  0.3363 -0.2907
 2558TIP3    H129165   2.917   6.463   4.069  0.3097  0.4331  0.2919
 2558TIP3    H229166   2.841   6.565   4.152 -0.6719  0.3115 -0.4504
 2559TIP3   OH229167   3.504   6.228  14.314 -0.2937 -0.5026 -0.0133
 2559TIP3    H129168   3.413   6.204  14.295 -0.0760 -1.3760  0.0113
 2559TIP3    H229169   3.553   6.146  14.308  0.1818 -0.4169  1.9203
 2560TIP3   OH229170   5.300   2.290  11.987 -0.0589 -0.2478 -1.0041
 2560TIP3    H129171   5.231   2.250  12.041  1.0913  0.4314  1.0804
 2560TIP3    H229172   5.281   2.384  11.989  0.0787 -0.1982 -1.6942
 2561TIP3   OH229173   3.363   6.635   4.790 -0.2549  0.3190  0.1920
 2561TIP3    H129174   3.378   6.548   4.827  1.4192  0.9169  1.0242
 2561TIP3    H229175   3.355   6.621   4.696  1.0679 -0.6277  0.2014
 2562TIP3   OH229176   3.624   1.679  10.640  0.5045  0.0346  0.7212
 2562TIP3    H129177   3.556   1.730  10.684  0.6926 -0.4075  1.5535
 2562TIP3    H229178   3.607   1.589  10.666 -0.0569 -0.4102 -1.0525
 2563TIP3   OH229179   3.575   2.734   3.662  0.3693  0.3675  0.3294
 2563TIP3    H129180   3.604   2.739   3.753  2.4642 -0.2725 -0.2510
 2563TIP3    H229181   3.596   2.645   3.635  1.1592  0.9672 -1.1905
 2564TIP3   OH229182   2.336   2.021  16.619  0.2541 -0.0642 -0.3756
 2564TIP3    H129183   2.348   2.068  16.702 -1.1120  0.9727 -0.7259
 2564TIP3    H229184   2.325   2.090  16.554 -0.4331 -0.8720 -1.1353
 2565TIP3   OH229185   1.015   2.629  12.791 -0.0626 -0.6267  0.4587
 2565TIP3    H129186   0.939   2.628  12.850 -1.0277 -1.1426 -0.7484
 2565TIP3    H229187   0.978   2.609  12.705  0.5114  4.5571 -1.3331
 2566TIP3   OH229188   2.159   6.470   1.325 -0.1447  0.3009 -0.5974
 2566TIP3    H129189   2.070   6.433   1.317 -0.3732  0.8507 -0.6604
 2566TIP3    H229190   2.210   6.423   1.258 -1.1072  2.0489 -2.6960
 2567TIP3   OH229191   1.405   1.049   0.690  0.1280 -0.0116  0.1235
 2567TIP3    H129192   1.468   0.993   0.645  0.3824 -0.8885  1.5078
 2567TIP3    H229193   1.446   1.069   0.774  0.6322  3.3750 -0.7914
 2568TIP3   OH229194   0.952   3.949   3.689  0.4779 -0.1504  0.2352
 2568TIP3    H129195   0.951   4.044   3.694  0.3742 -0.1975  1.4110
 2568TIP3    H229196   1.029   3.923   3.739 -0.5886 -0.7326  1.6655
 2569TIP3   OH229197   5.589   2.792   0.827  0.0520  0.0031 -0.1916
 2569TIP3    H129198   5.644   2.853   0.876 -2.0832  1.2778  0.7301
 2569TIP3    H229199   5.567   2.723   0.889  1.8363 -1.3919 -1.0182
 2570TIP3   OH229200   4.426   2.920  14.616 -0.1291  0.1981  0.2056
 2570TIP3    H129201   4.512   2.930  14.658  0.0448  0.2177 -0.1451
 2570TIP3    H229202   4.399   3.009  14.594  0.7795  0.0700 -1.6562
 2571TIP3   OH229203   5.986   3.923  17.166 -0.1992  0.3859 -0.4387
 2571TIP3    H129204   5.938   3.907  17.084  1.1717 -0.0614 -1.1851
 2571TIP3    H229205   6.075   3.941  17.138 -0.2717  3.1152  0.7954
 2572TIP3   OH229206   0.838   0.644   2.431 -0.5571 -0.8971  0.2832
 2572TIP3    H129207   0.854   0.565   2.483  1.4710  0.1829  1.4168
 2572TIP3    H229208   0.747   0.667   2.450 -0.8560 -2.3663  0.7517
 2573TIP3   OH229209   4.028   2.329   6.250 -0.0344  0.1809  0.4353
 2573TIP3    H129210   4.034   2.240   6.216 -0.1291 -0.0657  1.0547
 2573TIP3    H229211   4.115   2.367   6.235 -0.2333  0.2638 -0.5755
 2574TIP3   OH229212   3.444   2.664  11.547 -0.2897 -0.0755  0.3829
 2574TIP3    H129213   3.379   2.598  11.522  0.0784  0.8005 -3.4667
 2574TIP3    H229214   3.405   2.747  11.522  0.3860  0.9620  2.5986
 2575TIP3   OH229215   2.469   3.314  16.805  0.0480 -0.0116 -0.6573
 2575TIP3    H129216   2.393   3.264  16.774 -0.3071  0.7582 -1.0436
 2575TIP3    H229217   2.540   3.286  16.748  0.4632 -1.9217  0.7060
 2576TIP3   OH229218   4.029   2.371  11.505 -0.0678 -0.4286 -0.2875
 2576TIP3    H129219   4.112   2.416  11.489 -0.2954 -0.0638 -0.4596
 2576TIP3    H229220   3.962   2.438  11.489 -0.4449 -1.0389 -1.3481
 2577TIP3   OH229221   2.990   4.543   6.266 -0.1526 -0.3487 -0.9943
 2577TIP3    H129222   2.962   4.629   6.298 -1.9923 -2.0510  2.5796
 2577TIP3    H229223   2.910   4.490   6.267  1.1416 -2.4624 -1.8625
 2578TIP3   OH229224   5.653   0.616   5.149  0.2222  0.5160  0.4507
 2578TIP3    H129225   5.560   0.639   5.150 -0.1329 -0.7376 -0.9595
 2578TIP3    H229226   5.697   0.698   5.127 -0.3526  1.5321  2.7182
 2579TIP3   OH229227   1.325   1.048  11.387 -0.0184 -0.0829 -0.5278
 2579TIP3    H129228   1.375   1.115  11.433 -0.4530 -0.0572 -0.0917
 2579TIP3    H229229   1.390   0.981  11.364  0.1709 -0.1761  0.2729
 2580TIP3   OH229230   1.983   3.684   5.517 -0.2410 -0.3896 -0.4098
 2580TIP3    H129231   2.064   3.635   5.523  0.1172  0.3609  1.2294
 2580TIP3    H229232   1.982   3.740   5.594 -1.6779  0.5982 -1.0951
 2581TIP3   OH229233   1.020   6.534   1.285 -0.0018 -0.1840  0.5946
 2581TIP3    H129234   1.032   6.455   1.338  1.1251 -0.7412 -0.4422
 2581TIP3    H229235   0.925   6.546   1.281 -0.2455 -1.9635  0.1106
 2582TIP3   OH229236   5.901   4.432  12.906 -0.4110 -0.2451 -0.0066
 2582TIP3    H129237   5.821   4.380  12.898 -1.1954  1.1657 -2.7652
 2582TIP3    H229238   5.972   4.369  12.893 -1.1321 -1.2447  0.7834
 2583TIP3   OH229239   3.949   2.156  13.543  0.1975 -0.4084  0.3289
 2583TIP3    H129240   3.973   2.069  13.513  0.5798 -0.2124  0.0694
 2583TIP3    H229241   3.854   2.162  13.527  0.5011 -0.0392 -1.5215
 2584TIP3   OH229242   3.037   1.044  14.162 -0.0892 -0.2336  0.3503
 2584TIP3    H129243   3.131   1.033  14.181 -0.3387 -2.2877  0.6571
 2584TIP3    H229244   3.004   0.954  14.154 -2.2547  0.4225  1.2723
 2585TIP3   OH229245   5.310   4.759   0.261 -0.3225  0.0233  0.0301
 2585TIP3    H129246   5.382   4.791   0.316  0.3530 -0.1159 -0.7511
 2585TIP3    H229247   5.290   4.672   0.296  1.3836 -0.8740 -1.0612
 2586TIP3   OH229248   3.022   1.269  10.488 -0.8048 -0.4546 -0.6943
 2586TIP3    H129249   2.999   1.203  10.554 -1.6707 -0.0343 -0.5663
 2586TIP3    H229250   3.099   1.313  10.525 -0.6997 -0.8663 -0.4136
 2587TIP3   OH229251   3.578   6.147   3.650 -0.0423  0.0679  0.9947
 2587TIP3    H129252   3.496   6.186   3.621 -1.1584 -1.8055  1.4957
 2587TIP3    H229253   3.556   6.057   3.671  1.8807 -0.1259  2.4298
 2588TIP3   OH229254   6.169   1.374   3.265 -0.1190 -0.3702  0.0099
 2588TIP3    H129255   6.086   1.392   3.222  0.1010  0.2203 -0.1799
 2588TIP3    H229256   6.211   1.307   3.211  0.1841  0.4114 -0.7510
 2589TIP3   OH229257   5.320   6.201  11.544  0.2099 -0.0349  0.3391
 2589TIP3    H129258   5.381   6.249  11.600 -0.5608  0.2921  0.9150
 2589TIP3    H229259   5.303   6.120  11.592 -0.7737  0.4279  0.7914
 2590TIP3   OH229260   4.476   3.299   4.514  0.0008  0.4763 -0.3166
 2590TIP3    H129261   4.524   3.366   4.563  0.9594 -0.4934  0.1018
 2590TIP3    H229262   4.539   3.268   4.449 -0.3316 -0.2280 -0.3062
 2591TIP3   OH229263   0.955   2.938  13.008 -0.3902  0.0527 -0.0208
 2591TIP3    H129264   0.910   2.903  12.932 -0.2108  0.5171 -0.3489
 2591TIP3    H229265   0.924   3.029  13.015  0.0235  0.1886  0.1130
 2592TIP3   OH229266   3.113   0.192  17.045  0.3777 -0.1203 -0.4739
 2592TIP3    H129267   3.126   0.122  16.982  1.5253  0.6745 -1.1636
 2592TIP3    H229268   3.059   0.256  16.999  0.8711  0.2703 -0.5235
 2593TIP3   OH229269   2.592   4.626  12.261 -0.6282 -0.4696  0.5194
 2593TIP3    H129270   2.576   4.536  12.289 -1.3131 -0.2745  0.7734
 2593TIP3    H229271   2.558   4.679  12.333  1.7473 -0.0160  1.4329
 2594TIP3   OH229272   3.213   4.573   0.607 -0.5630  0.6891  0.4630
 2594TIP3    H129273   3.190   4.614   0.524 -1.2784  0.9743  0.7964
 2594TIP3    H229274   3.129   4.546   0.645 -0.1781 -0.2239  0.6935
 2595TIP3   OH229275   4.990   3.843  16.919  0.1099 -0.2880 -0.2306
 2595TIP3    H129276   5.022   3.929  16.947 -0.4349 -0.2969  0.4634
 2595TIP3    H229277   5.047   3.781  16.965  0.4256 -0.3084 -0.6389
 2596TIP3   OH229278   5.348   1.449  10.361 -0.5492 -0.1967 -0.1524
 2596TIP3    H129279   5.300   1.454  10.443  0.3100 -2.1990  0.5415
 2596TIP3    H229280   5.301   1.384  10.308  0.5994 -1.2330  0.0347
 2597TIP3   OH229281   3.556   6.756   5.634 -0.0993  0.4461  0.4282
 2597TIP3    H129282   3.475   6.790   5.672  0.1695  1.9894 -0.3189
 2597TIP3    H229283   3.580   6.820   5.567  2.4500  0.7083  1.4933
 2598TIP3   OH229284   1.868   1.066   0.172  0.1869 -0.9415  0.6327
 2598TIP3    H129285   1.857   1.137   0.109  1.2962  0.1227  1.5878
 2598TIP3    H229286   1.922   1.001   0.127  0.5901 -0.3931  0.3130
 2599TIP3   OH229287   5.056   4.585  11.442  0.1579  0.1932  0.1080
 2599TIP3    H129288   5.036   4.499  11.480 -1.2053  0.0008 -0.9401
 2599TIP3    H229289   4.977   4.637  11.460  0.8708  1.1480  0.5124
 2600TIP3   OH229290   4.460   0.585   5.789 -0.4933  0.5317  0.4377
 2600TIP3    H129291   4.458   0.496   5.755  1.1340  0.9343 -0.8776
 2600TIP3    H229292   4.382   0.627   5.753 -0.0239  0.2799 -0.9505
 2601TIP3   OH229293   1.825   4.145   6.366  0.1076 -0.6643  0.3729
 2601TIP3    H129294   1.803   4.220   6.421 -1.0445  0.4133 -1.4648
 2601TIP3    H229295   1.897   4.175   6.312 -1.0768 -0.4479 -1.1464
 2602TIP3   OH229296   2.561   3.112  10.644  0.3594  0.1090  0.5388
 2602TIP3    H129297   2.564   3.184  10.706 -2.9276 -0.2141  1.3015
 2602TIP3    H229298   2.522   3.039  10.693 -1.1443 -0.5626 -1.4771
 2603TIP3   OH229299   0.727   3.437   2.131 -0.3310 -0.1332  1.1323
 2603TIP3    H129300   0.644   3.472   2.162 -0.8053 -1.7550  1.8274
 2603TIP3    H229301   0.726   3.451   2.036 -0.7430  1.1280  1.3127
 2604TIP3   OH229302   3.059   6.301   0.974 -0.3115 -0.3625  0.0313
 2604TIP3    H129303   3.118   6.354   0.920 -0.1632 -2.6556 -2.2439
 2604TIP3    H229304   3.117   6.241   1.022 -0.6277 -0.3566  0.4324
 2605TIP3   OH229305   4.259   3.975  15.375  0.7751  0.0763  0.1896
 2605TIP3    H129306   4.330   3.911  15.371 -1.5523 -2.7252  0.2334
 2605TIP3    H229307   4.241   3.986  15.469 -1.3794 -2.4950  0.2142
 2606TIP3   OH229308   5.303   5.160  14.679 -0.6791 -0.7723 -0.4037
 2606TIP3    H129309   5.328   5.136  14.768 -0.0670 -0.8106 -0.5791
 2606TIP3    H229310   5.226   5.106  14.660 -1.9361  0.5287  0.7378
 2607TIP3   OH229311   1.282   0.109  10.978 -0.2410  0.0206  0.3711
 2607TIP3    H129312   1.253   0.197  10.954 -0.8509 -0.2831 -0.0304
 2607TIP3    H229313   1.200   0.059  10.986  0.1506 -0.7678 -0.4348
 2608TIP3   OH229314   0.360   3.696   3.849  0.2709  0.0149 -0.3910
 2608TIP3    H129315   0.314   3.615   3.871  1.1807 -0.1504  1.0392
 2608TIP3    H229316   0.299   3.744   3.793 -0.3166 -1.6041 -1.1986
 2609TIP3   OH229317   4.931   3.733   3.483 -0.5339 -0.2161 -0.5521
 2609TIP3    H129318   4.923   3.799   3.413 -2.2229 -0.9723 -1.1116
 2609TIP3    H229319   4.873   3.765   3.552  1.6675  0.9022  0.8835
 2610TIP3   OH229320   6.316   4.158   5.840  0.0020 -0.0955  0.1209
 2610TIP3    H129321   6.376   4.090   5.807  0.6948  1.4030 -1.9286
 2610TIP3    H229322   6.372   4.215   5.893 -0.3546 -0.4755  0.9320
 2611TIP3   OH229323   2.584   0.136  15.540  0.0366 -0.4077  0.5875
 2611TIP3    H129324   2.550   0.062  15.590  0.5050 -0.4670  0.8140
 2611TIP3    H229325   2.645   0.097  15.478  0.0845 -0.2392  0.5282
 2612TIP3   OH229326   1.055   4.768   4.114  0.2590 -0.2438 -0.3553
 2612TIP3    H129327   0.987   4.825   4.148 -0.8678 -0.3760 -2.2389
 2612TIP3    H229328   1.084   4.811   4.033  1.7193 -0.7049 -0.1132
 2613TIP3   OH229329   3.138   3.098   3.632 -0.1357  0.2372 -0.2037
 2613TIP3    H129330   3.226   3.102   3.669 -0.4122 -1.2197  0.7019
 2613TIP3    H229331   3.108   3.009   3.652 -1.7391  0.6438 -0.6667
 2614TIP3   OH229332   0.916   0.243  16.642 -0.2130  0.4376  0.4368
 2614TIP3    H129333   0.889   0.224  16.552  0.1705  2.5564 -0.1704
 2614TIP3    H229334   0.935   0.337  16.643  1.4478  0.1508  2.3185
 2615TIP3   OH229335   4.029   1.606  14.022 -0.1378 -0.1882 -0.3288
 2615TIP3    H129336   4.039   1.614  13.927 -0.3413 -0.7409 -0.3983
 2615TIP3    H229337   4.049   1.693  14.055 -1.4398  0.3940 -0.9989
 2616TIP3   OH229338   0.277   1.016   3.741 -0.7877 -0.1169 -0.9313
 2616TIP3    H129339   0.319   1.049   3.821 -2.0630 -0.3680 -0.1359
 2616TIP3    H229340   0.215   0.950   3.772  0.2696 -1.8540 -2.3342
 2617TIP3   OH229341   0.759   4.267   2.962  0.2591  0.4703  0.1972
 2617TIP3    H129342   0.737   4.345   3.013  0.9902  1.3738 -0.8297
 2617TIP3    H229343   0.851   4.250   2.983  0.4064  0.5237 -0.3968
 2618TIP3   OH229344   4.809   4.413  10.795  0.1992 -0.9865 -0.3336
 2618TIP3    H129345   4.865   4.439  10.868  0.3171 -0.2326 -0.6869
 2618TIP3    H229346   4.870   4.393  10.724  0.0467 -0.6831 -0.5533
 2619TIP3   OH229347   1.613   5.661  14.496  0.2555  0.3782  1.0239
 2619TIP3    H129348   1.602   5.752  14.522 -2.0674  0.2692  0.6935
 2619TIP3    H229349   1.523   5.629  14.484  1.0446 -1.4109 -0.6929
 2620TIP3   OH229350   0.908   3.985  14.277 -0.0641 -0.4081 -0.1045
 2620TIP3    H129351   0.876   4.032  14.354  0.7177  0.0708 -0.0690
 2620TIP3    H229352   0.955   4.051  14.226 -1.3200 -0.5197 -1.4420
 2621TIP3   OH229353   6.521   2.300  11.276 -0.7503 -0.2683  0.3688
 2621TIP3    H129354   6.528   2.289  11.181  0.6362  0.2796  0.3840
 2621TIP3    H229355   6.549   2.390  11.292  2.2668 -1.2923  1.5507
 2622TIP3   OH229356   2.526   5.641   1.947 -0.4826 -0.0085  0.6153
 2622TIP3    H129357   2.617   5.663   1.966 -0.5921  2.2306 -0.9815
 2622TIP3    H229358   2.532   5.564   1.890  0.4653  0.3895  0.1437
 2623TIP3   OH229359   2.290   5.112  11.995 -0.0857 -0.5087  0.4241
 2623TIP3    H129360   2.336   5.169  11.932 -1.6857  0.0198 -0.3047
 2623TIP3    H229361   2.358   5.088  12.058  2.0602 -2.4997 -2.4067
 2624TIP3   OH229362   0.774   1.754  16.957 -0.2936  0.2415 -0.4120
 2624TIP3    H129363   0.864   1.725  16.972 -0.4123  0.4922  0.8610
 2624TIP3    H229364   0.727   1.674  16.934  0.0947 -0.0149 -0.3194
 2625TIP3   OH229365   0.529   4.572   1.496 -0.3085 -0.3468  0.0071
 2625TIP3    H129366   0.614   4.607   1.470  0.0616 -1.8555 -0.9371
 2625TIP3    H229367   0.549   4.492   1.544 -1.1837 -0.9822 -0.6376
 2626TIP3   OH229368   1.816   4.325  16.974  0.4212 -0.1668 -0.3833
 2626TIP3    H129369   1.735   4.356  16.934  1.1102  0.3138 -1.4594
 2626TIP3    H229370   1.790   4.296  17.061 -1.1774 -1.4402 -1.2290
 2627TIP3   OH229371   0.577   2.084   4.218 -0.6766 -0.3167 -0.0714
 2627TIP3    H129372   0.513   2.022   4.182 -0.5609 -0.2855 -0.3317
 2627TIP3    H229373   0.655   2.071   4.165 -1.1367  1.1526 -1.1776
 2628TIP3   OH229374   6.178   5.528  15.159 -0.6277 -0.1038 -0.0172
 2628TIP3    H129375   6.134   5.447  15.134 -2.6685  0.3576  1.7409
 2628TIP3    H229376   6.183   5.523  15.255  1.1160  0.9402 -0.0142
 2629TIP3   OH229377   6.264   3.645   1.333  0.5603 -0.0150  0.5640
 2629TIP3    H129378   6.181   3.694   1.336 -0.3991 -1.3285 -1.6841
 2629TIP3    H229379   6.240   3.556   1.356  1.6523 -0.1252  1.3270
 2630TIP3   OH229380   6.292   4.522  16.661 -0.1860  0.6265 -0.7208
 2630TIP3    H129381   6.290   4.447  16.721 -1.3019  0.8895 -0.4135
 2630TIP3    H229382   6.350   4.494  16.590 -1.9133 -1.2320 -1.4856
 2631TIP3   OH229383   5.000   2.290  12.097  0.2921 -0.2007  0.1790
 2631TIP3    H129384   5.054   2.313  12.173  0.1066 -0.4512  0.3850
 2631TIP3    H229385   4.928   2.238  12.133 -0.1725  0.2495 -0.0701
 2632TIP3   OH229386   4.450   1.667   3.178 -0.1613 -0.0030 -0.1210
 2632TIP3    H129387   4.454   1.585   3.128  1.9934 -1.2456  1.9252
 2632TIP3    H229388   4.526   1.716   3.148  1.8987 -1.2912  2.5904
 2633TIP3   OH229389   2.158   0.647   2.768  0.4408  0.3878  0.1150
 2633TIP3    H129390   2.248   0.615   2.762  0.3625 -0.1743  1.6639
 2633TIP3    H229391   2.104   0.568   2.769 -0.0267  0.7008 -0.0821
 2634TIP3   OH229392   3.393   5.324  10.574 -0.2200 -0.2023 -0.5495
 2634TIP3    H129393   3.302   5.299  10.590  0.4282 -0.3144  4.5852
 2634TIP3    H229394   3.435   5.245  10.541 -1.2786 -1.2306  0.5071
 2635TIP3   OH229395   1.934   5.768   3.158  0.0250  0.1697 -0.2858
 2635TIP3    H129396   1.884   5.783   3.078  0.9495  0.2006 -0.8806
 2635TIP3    H229397   1.924   5.849   3.209 -0.1369  0.3555 -0.6156
 2636TIP3   OH229398   6.524   4.925  13.998 -0.2511 -0.4906 -0.1882
 2636TIP3    H129399   6.436   4.960  14.013  0.0977  0.1097  0.5314
 2636TIP3    H229400   6.543   4.945  13.906  0.2346  1.9368  0.3789
 2637TIP3   OH229401   2.794   5.584   3.043 -0.6575 -0.1338  0.5184
 2637TIP3    H129402   2.731   5.542   2.985 -2.1989  1.3929  1.0225
 2637TIP3    H229403   2.813   5.518   3.110  0.0692 -1.4087 -0.8877
 2638TIP3   OH229404   5.733   0.389  11.894 -0.2414  0.4694 -0.0131
 2638TIP3    H129405   5.782   0.313  11.927 -0.1562  0.7302  0.4783
 2638TIP3    H229406   5.796   0.461  11.897 -0.6293  0.7936  0.5506
 2639TIP3   OH229407   3.970   1.759   5.936 -0.2922 -1.0362  0.3591
 2639TIP3    H129408   3.971   1.761   6.031 -2.2715 -1.9279  0.4549
 2639TIP3    H229409   4.057   1.731   5.911  1.1370  1.7450  1.7474
 2640TIP3   OH229410   1.408   3.567  14.484 -0.4889 -0.1688 -0.8217
 2640TIP3    H129411   1.435   3.635  14.423 -1.3358 -0.3964 -1.4746
 2640TIP3    H229412   1.415   3.607  14.570  0.6861  0.1753 -1.0552
 2641TIP3   OH229413   0.863   6.062   2.843  0.0084  0.0917  0.2276
 2641TIP3    H129414   0.937   6.104   2.800 -0.4621  1.1292  0.3864
 2641TIP3    H229415   0.789   6.076   2.784 -0.0855 -0.8837  0.0962
 2642TIP3   OH229416   3.402   1.810  12.080  0.4359 -0.1971  0.1028
 2642TIP3    H129417   3.395   1.716  12.097 -2.6273  0.0646  0.9836
 2642TIP3    H229418   3.474   1.840  12.135 -0.1114 -1.6849  1.7188
 2643TIP3   OH229419   1.875   3.288   4.615 -0.0481 -0.1407 -0.0512
 2643TIP3    H129420   1.893   3.325   4.529 -0.3655  1.6481  0.6048
 2643TIP3    H229421   1.905   3.355   4.677 -0.3909 -1.1164  1.2284
 2644TIP3   OH229422   1.647   0.085  15.528 -0.6839 -0.1730 -0.2720
 2644TIP3    H129423   1.580   0.127  15.473  2.4568  1.4795 -3.1818
 2644TIP3    H229424   1.681   0.156  15.583 -0.1228 -0.5990 -0.0615
 2645TIP3   OH229425   4.190   6.302   4.222 -0.0179 -0.4839  0.2049
 2645TIP3    H129426   4.239   6.222   4.239  0.8172  0.2528  1.4591
 2645TIP3    H229427   4.162   6.295   4.131 -0.6571 -2.5578  0.5107
 2646TIP3   OH229428   5.039   1.135  14.363  0.3383 -0.2641  0.3885
 2646TIP3    H129429   5.074   1.067  14.305  0.4901 -0.7989  1.0876
 2646TIP3    H229430   4.958   1.098  14.398 -0.8506  0.8785 -1.0398
 2647TIP3   OH229431   5.634   0.344  15.843 -0.3927 -0.0621 -0.6874
 2647TIP3    H129432   5.594   0.262  15.814 -1.5363  0.7388 -1.4607
 2647TIP3    H229433   5.728   0.326  15.842 -0.6268 -1.3880 -0.7519
 2648TIP3   OH229434   6.033   2.280   1.867  0.3202  0.1258 -0.3039
 2648TIP3    H129435   6.046   2.309   1.777  0.1123  1.1775 -0.0144
 2648TIP3    H229436   6.113   2.232   1.888  1.6623  2.2428 -0.1743
 2649TIP3   OH229437   3.611   4.722   4.052 -0.3749 -0.1675 -0.6684
 2649TIP3    H129438   3.583   4.636   4.019  1.7353 -0.2875 -2.3904
 2649TIP3    H229439   3.530   4.763   4.085 -1.2394 -3.2865  1.5307
 2650TIP3   OH229440   3.845   1.181  12.908  0.7104 -0.2360 -0.2053
 2650TIP3    H129441   3.827   1.211  12.819  1.8843 -2.1016 -1.1329
 2650TIP3    H229442   3.761   1.190  12.953  0.3115  1.5793 -1.2262
 2651TIP3   OH229443   4.578   1.253   1.219 -0.3843 -0.1386  0.3008
 2651TIP3    H129444   4.487   1.231   1.237 -0.7266 -0.5960 -1.7590
 2651TIP3    H229445   4.596   1.328   1.275 -1.4865 -1.0603  1.9786
 2652TIP3   OH229446   0.948   0.682  14.266  0.1589 -0.0282 -0.0127
 2652TIP3    H129447   1.010   0.687  14.193  2.1078  0.5142  1.6090
 2652TIP3    H229448   0.902   0.599  14.252  1.9153 -0.9257 -0.7779
 2653TIP3   OH229449   0.186   4.602   4.248 -0.0211 -0.3148 -0.2574
 2653TIP3    H129450   0.242   4.679   4.258 -1.1626  0.5767 -0.4856
 2653TIP3    H229451   0.244   4.533   4.217  0.7955  0.7940 -1.2421
 2654TIP3   OH229452   4.364   3.659   0.132  0.2175 -0.2665 -0.4528
 2654TIP3    H129453   4.404   3.745   0.139  0.3282 -0.2850 -0.8142
 2654TIP3    H229454   4.355   3.644   0.037 -2.2515  0.4719 -0.4000
 2655TIP3   OH229455   4.765   3.026   0.497  0.2718  0.1480  0.2349
 2655TIP3    H129456   4.694   3.080   0.531  0.1039  0.3923 -0.5058
 2655TIP3    H229457   4.784   3.062   0.411  0.5895 -0.5747 -0.0012
 2656TIP3   OH229458   3.177   1.118   3.347 -0.1492 -0.0060  0.8502
 2656TIP3    H129459   3.126   1.041   3.371 -1.7179 -0.0533 -2.1701
 2656TIP3    H229460   3.245   1.084   3.288 -1.0277  0.8310 -0.7330
 2657TIP3   OH229461   6.516   3.731   4.950  0.1799  0.7651 -0.1703
 2657TIP3    H129462   6.481   3.654   4.994  2.0555  0.2222  0.4640
 2657TIP3    H229463   6.609   3.713   4.940  0.3297  2.1227 -1.8017
 2658TIP3   OH229464   4.894   4.690  13.023 -0.2755  0.2945  0.6214
 2658TIP3    H129465   4.858   4.752  13.087  0.3971  0.8333  0.4842
 2658TIP3    H229466   4.935   4.622  13.077 -1.4049 -0.2874  0.7783
 2659TIP3   OH229467   2.753   0.695   4.143 -1.3649 -0.0810  0.4995
 2659TIP3    H129468   2.779   0.603   4.145  2.7738  0.8817 -0.2000
 2659TIP3    H229469   2.701   0.704   4.063  0.4935 -1.3671 -0.9224
 2660TIP3   OH229470   1.742   3.408  12.962  0.1128 -0.1756 -0.3965
 2660TIP3    H129471   1.687   3.345  13.008  0.7236 -0.1204  0.4372
 2660TIP3    H229472   1.680   3.468  12.921 -0.4529 -0.2745  0.2917
 2661TIP3   OH229473   4.845   4.073  13.744  0.4949 -0.2394  1.0877
 2661TIP3    H129474   4.922   4.036  13.701 -0.6887 -2.3693  0.6633
 2661TIP3    H229475   4.871   4.086  13.835  0.6802 -3.4010  1.6053
 2662TIP3   OH229476   2.347   4.143   5.765  0.6655  0.2303 -0.4176
 2662TIP3    H129477   2.398   4.214   5.805 -0.0838  2.3699 -2.9815
 2662TIP3    H229478   2.265   4.141   5.814  1.4482 -0.2279  0.9128
 2663TIP3   OH229479   1.290   0.637  16.171  0.0878  0.0923  0.1334
 2663TIP3    H129480   1.324   0.591  16.094  1.0873  1.3879 -0.2269
 2663TIP3    H229481   1.364   0.686  16.205 -0.8402  1.1018  0.7705
 2664TIP3   OH229482   4.507   1.844   5.761 -0.6006  0.7687  0.6996
 2664TIP3    H129483   4.449   1.813   5.691 -1.0509 -0.6850  1.6827
 2664TIP3    H229484   4.539   1.765   5.803  0.7050  1.5956  1.3298
 2665TIP3   OH229485   0.900   4.708  12.869  0.5906  0.7882 -0.2425
 2665TIP3    H129486   0.812   4.673  12.852  0.8340  0.8908 -1.8715
 2665TIP3    H229487   0.909   4.781  12.808  2.5712 -0.5122 -1.6071
 2666TIP3   OH229488   6.199   6.762   5.154 -0.2607  0.3958  0.1950
 2666TIP3    H129489   6.105   6.749   5.168 -0.2894  0.0056 -0.3428
 2666TIP3    H229490   6.227   6.818   5.227 -0.9000  0.4737  0.3818
 2667TIP3   OH229491   2.244   0.404  16.813  0.3164 -0.5983  0.1001
 2667TIP3    H129492   2.245   0.361  16.898 -0.8157 -1.5708 -0.3493
 2667TIP3    H229493   2.166   0.460  16.815 -0.6710 -1.8700 -0.8523
 2668TIP3   OH229494   3.524   4.247   4.663 -0.6052  0.3176 -0.0829
 2668TIP3    H129495   3.587   4.175   4.676  0.6974  0.9080 -2.4506
 2668TIP3    H229496   3.444   4.203   4.634 -0.3022 -0.2869 -0.0348
 2669TIP3   OH229497   6.147   6.423   3.799 -0.5524  0.2180 -0.4126
 2669TIP3    H129498   6.187   6.374   3.727  0.1994 -1.8510  1.3020
 2669TIP3    H229499   6.092   6.488   3.756  0.8762 -0.0659 -2.8457
 2670TIP3   OH229500   1.960   1.850   3.637 -0.4013 -0.5729  0.3420
 2670TIP3    H129501   2.025   1.890   3.579 -0.5987  0.2714  0.7027
 2670TIP3    H229502   1.989   1.759   3.645  0.0456 -0.5147 -0.4822
 2671TIP3   OH229503   6.030   4.695  14.296 -0.2450 -0.4222 -0.3198
 2671TIP3    H129504   5.955   4.682  14.354  0.9628 -0.4652  1.3314
 2671TIP3    H229505   6.079   4.613  14.303  1.9986  0.9602  1.8616
 2672TIP3   OH229506   0.215   4.687  11.980  0.0224  0.0420  0.1320
 2672TIP3    H129507   0.286   4.630  11.950  0.1086  0.6991 -0.9759
 2672TIP3    H229508   0.192   4.740  11.903 -1.2927  0.2338  0.6217
 2673TIP3   OH229509   0.383   5.211  11.734 -0.4123 -0.0448  0.1787
 2673TIP3    H129510   0.438   5.137  11.709 -1.0615 -0.7137  0.6874
 2673TIP3    H229511   0.318   5.219  11.664  0.8215  1.2963 -0.8678
 2674TIP3   OH229512   3.140   4.590   1.936  0.4081  0.0582 -0.7415
 2674TIP3    H129513   3.219   4.643   1.924  0.3825  0.1799 -0.3942
 2674TIP3    H229514   3.127   4.547   1.852  0.9054 -0.0494 -0.7669
 2675TIP3   OH229515   6.666   3.852   0.696 -0.7319  0.7859 -0.6570
 2675TIP3    H129516   6.642   3.796   0.770 -1.0357 -1.0026 -2.0215
 2675TIP3    H229517   6.585   3.897   0.673 -1.1832 -0.2327 -1.1498
 2676TIP3   OH229518   2.975   0.273   4.795 -0.1087 -0.5800  0.7576
 2676TIP3    H129519   3.024   0.330   4.855 -0.6235 -0.0197  0.6505
 2676TIP3    H229520   2.891   0.258   4.838 -0.3630 -0.4326  0.3195
 2677TIP3   OH229521   5.037   4.213   4.627 -0.0087 -0.1823  0.0719
 2677TIP3    H129522   5.060   4.286   4.684  0.5973  0.2365 -0.6866
 2677TIP3    H229523   5.093   4.141   4.656 -1.1934 -0.6237  1.3686
 2678TIP3   OH229524   2.711   1.938   0.920 -0.1214  0.1932  0.3320
 2678TIP3    H129525   2.767   2.005   0.958 -0.1688  0.5009 -0.1294
 2678TIP3    H229526   2.728   1.860   0.973 -1.2447  0.9535  1.8737
 2679TIP3   OH229527   4.697   0.968   0.938  1.0927  0.1663 -0.3776
 2679TIP3    H129528   4.679   0.912   0.863 -0.4357 -0.5101  0.4509
 2679TIP3    H229529   4.618   1.020   0.949  1.0176 -0.2218  1.1495
 2680TIP3   OH229530   0.081   5.638  13.596  0.2431  0.1063  0.8567
 2680TIP3    H129531   0.011   5.691  13.633 -0.8524 -0.3265 -0.5051
 2680TIP3    H229532   0.162   5.680  13.626 -0.4995  3.5264 -1.3533
 2681TIP3   OH229533   0.611   3.542  16.438 -0.4118 -0.6069 -0.2351
 2681TIP3    H129534   0.630   3.519  16.347 -0.1841  0.4320 -0.4580
 2681TIP3    H229535   0.677   3.606  16.462 -0.5189 -0.8055  0.6430
 2682TIP3   OH229536   1.827   3.492   3.798 -0.1903  0.6553 -0.3235
 2682TIP3    H129537   1.820   3.398   3.814 -0.2156  0.6047 -0.6233
 2682TIP3    H229538   1.906   3.519   3.846  0.4796  0.2640 -1.1874
 2683TIP3   OH229539   0.538   2.981   1.673 -0.1672  0.0365  0.5211
 2683TIP3    H129540   0.584   3.007   1.593  1.3750 -0.3861  1.2330
 2683TIP3    H229541   0.449   3.015   1.662 -0.1696 -0.5076 -1.6250
 2684TIP3   OH229542   1.123   2.459  16.985  0.4605  0.0458  0.1353
 2684TIP3    H129543   1.217   2.458  17.004  0.4610  1.1590  0.2567
 2684TIP3    H229544   1.085   2.512  17.055 -0.2413 -0.2817  0.0133
 2685TIP3   OH229545   4.133   4.467  15.542 -0.3074  0.4449 -0.8778
 2685TIP3    H129546   4.182   4.472  15.624 -0.3943  0.0271 -0.7949
 2685TIP3    H229547   4.049   4.508  15.561 -1.0142 -1.2156 -0.2212
 2686TIP3   OH229548   3.640   3.381   1.254  0.7275 -0.0609  0.2687
 2686TIP3    H129549   3.632   3.416   1.165 -1.2879  0.4632  0.6086
 2686TIP3    H229550   3.682   3.451   1.304  0.5132  0.2236  0.0510
 2687TIP3   OH229551   0.799   2.082   4.038  0.1633  0.2100 -0.1551
 2687TIP3    H129552   0.846   2.002   4.014 -0.3526 -0.1137 -0.0903
 2687TIP3    H229553   0.811   2.140   3.963  0.9521  0.2612 -0.0016
 2688TIP3   OH229554   1.168   1.919  11.385 -0.6698 -0.0137 -0.3588
 2688TIP3    H129555   1.125   1.842  11.421 -0.7981  0.1143 -0.2375
 2688TIP3    H229556   1.102   1.961  11.330 -0.6948  0.1750 -0.1835
 2689TIP3   OH229557   2.465   5.367  13.072 -0.5304  0.1815 -0.1107
 2689TIP3    H129558   2.477   5.432  13.003  0.6896  0.5163  0.3819
 2689TIP3    H229559   2.480   5.415  13.153  1.0890 -0.8330  0.2374
 2690TIP3   OH229560   5.467   2.235  16.547  0.9314  0.1267  0.2997
 2690TIP3    H129561   5.419   2.197  16.474  0.5717 -1.3126  1.2493
 2690TIP3    H229562   5.535   2.171  16.567  0.7962  0.3197  1.4548
 2691TIP3   OH229563   6.086   0.545   4.087  0.5385  0.0259 -0.2956
 2691TIP3    H129564   6.149   0.616   4.079  1.8474 -1.2082 -1.5755
 2691TIP3    H229565   6.136   0.472   4.122  0.2715 -1.4134 -2.6414
 2692TIP3   OH229566   2.253   6.167  14.188 -0.1696  0.3308  0.0926
 2692TIP3    H129567   2.258   6.159  14.284  1.3207  1.0900  0.0985
 2692TIP3    H229568   2.231   6.259  14.173 -0.3080  0.2339 -0.3064
 2693TIP3   OH229569   2.318   6.161  14.447 -0.3566 -0.1989 -0.0362
 2693TIP3    H129570   2.343   6.232  14.506  1.3593  0.4081 -1.4064
 2693TIP3    H229571   2.271   6.099  14.503  0.4820  0.7227  1.7758
 2694TIP3   OH229572   4.371   4.993  15.835  0.1685  0.0628 -0.2326
 2694TIP3    H129573   4.410   4.925  15.780 -0.5256 -0.3845 -0.1809
 2694TIP3    H229574   4.430   5.000  15.909  1.4915  1.1506 -1.3282
 2695TIP3   OH229575   1.591   0.063   0.512  0.0889 -0.0704 -0.2553
 2695TIP3    H129576   1.626   0.110   0.436 -1.2459  0.8424 -0.3505
 2695TIP3    H229577   1.634  -0.022   0.510  1.6832  0.7013 -0.7883
 2696TIP3   OH229578   6.490   4.051  16.915  0.2927 -0.5497 -0.5069
 2696TIP3    H129579   6.496   4.125  16.974 -1.8214 -1.6534  1.2577
 2696TIP3    H229580   6.540   3.982  16.958  3.3948  0.0728 -2.7758
 2697TIP3   OH229581   4.384   4.150  15.639 -0.7141 -0.3330 -0.0615
 2697TIP3    H129582   4.295   4.183  15.631 -1.2915 -1.6112  0.8514
 2697TIP3    H229583   4.430   4.188  15.564 -1.5732  1.7006  0.3802
 2698TIP3   OH229584   6.817   5.986  12.210 -0.6477  0.3529 -0.1408
 2698TIP3    H129585   6.794   5.986  12.303 -1.9550  2.0732 -0.4113
 2698TIP3    H229586   6.862   5.902  12.197  1.9073  1.1333  2.5481
 2699TIP3   OH229587   3.667   5.821  11.885  0.1325  0.4129 -0.1419
 2699TIP3    H129588   3.720   5.897  11.860 -0.7929  1.8433  1.9411
 2699TIP3    H229589   3.657   5.829  11.980 -0.2225 -2.2139  0.1234
 2700TIP3   OH229590   2.615   5.932   2.233  0.1254 -0.7647  0.7009
 2700TIP3    H129591   2.619   5.846   2.192  0.3546 -0.6381  0.4583
 2700TIP3    H229592   2.696   5.976   2.207 -1.8049  1.1754 -2.8131
 2701TIP3   OH229593   4.583   3.552  15.848  0.0980 -0.2046  0.3775
 2701TIP3    H129594   4.588   3.520  15.938  0.4359 -0.1185  0.3918
 2701TIP3    H229595   4.503   3.604  15.845 -0.7329 -1.4451  0.2285
 2702TIP3   OH229596   5.073   3.128   1.457 -0.1400 -0.2004 -0.4393
 2702TIP3    H129597   5.008   3.196   1.473 -3.4517 -2.7302 -1.8384
 2702TIP3    H229598   5.114   3.152   1.374 -1.0546  0.2615 -0.7736
 2703TIP3   OH229599   4.967   4.121  17.097  0.0254 -0.4183 -0.5374
 2703TIP3    H129600   4.968   4.158  17.008 -1.8644 -1.9810 -1.2833
 2703TIP3    H229601   4.891   4.161  17.139 -0.6500 -1.6280 -0.5579
 2704TIP3   OH229602   5.233   0.877  14.490  0.8011  0.3933 -0.1639
 2704TIP3    H129603   5.237   0.963  14.448  1.2136  0.7370  0.5737
 2704TIP3    H229604   5.174   0.889  14.564 -0.3052 -0.3329 -0.9000
 2705TIP3   OH229605   2.080   0.910  13.752  0.4952  0.1456  0.6217
 2705TIP3    H129606   2.028   0.982  13.789  2.1331  1.3391  0.7161
 2705TIP3    H229607   2.063   0.915  13.658  0.1361  0.2720  0.6908
 2706TIP3   OH229608   3.992   1.013   5.256  0.0969  0.3500  0.2475
 2706TIP3    H129609   3.939   0.942   5.217  2.3431 -0.8921 -0.7294
 2706TIP3    H229610   3.930   1.085   5.267 -1.5933 -0.6636 -1.8011
 2707TIP3   OH229611   6.415   2.257   6.381 -0.2765 -0.1388 -0.3196
 2707TIP3    H129612   6.498   2.277   6.424 -0.4614 -0.2752  0.1036
 2707TIP3    H229613   6.416   2.162   6.368 -0.8802 -0.3148  0.7828
 2708TIP3   OH229614   6.698   2.947  15.171  0.1339  0.0477 -0.0506
 2708TIP3    H129615   6.714   2.909  15.257  0.4358 -0.8561 -0.4887
 2708TIP3    H229616   6.642   2.883  15.127  0.7587  0.0294 -0.8557
 2709TIP3   OH229617   0.785   0.910  14.314  0.5360  0.0537 -0.0660
 2709TIP3    H129618   0.706   0.890  14.264  0.8820  4.4585 -2.9127
 2709TIP3    H229619   0.848   0.843  14.286 -0.9706 -1.0296 -1.0209
 2710TIP3   OH229620   3.841   1.496   1.068 -0.5559  0.6036 -0.1321
 2710TIP3    H129621   3.821   1.585   1.036 -2.6822  0.1971 -0.1159
 2710TIP3    H229622   3.832   1.441   0.990  0.2207  0.3381 -0.0321
 2711TIP3   OH229623   1.923   4.488   4.823 -0.6443 -0.1172 -0.5219
 2711TIP3    H129624   1.853   4.441   4.779 -0.3221 -1.0077 -0.1250
 2711TIP3    H229625   1.909   4.580   4.801 -0.6337 -0.5011 -2.2638
 2712TIP3   OH229626   2.240   0.295  17.063  0.2775  0.0433  0.4361
 2712TIP3    H129627   2.316   0.348  17.090  1.4939 -1.6338  0.4376
 2712TIP3    H229628   2.203   0.262  17.145  1.5265 -1.7410  0.3378
 2713TIP3   OH229629   5.202   2.006   4.620  0.4809  0.0985 -0.0545
 2713TIP3    H129630   5.163   1.940   4.677 -0.3275  1.0097  0.4691
 2713TIP3    H229631   5.207   1.963   4.534  2.0856 -1.4248  0.7488
 2714TIP3   OH229632   0.798   0.081   3.434  0.2210  0.0010  0.3366
 2714TIP3    H129633   0.734   0.046   3.372 -2.5880  3.2839  1.0795
 2714TIP3    H229634   0.850   0.144   3.383  0.0484  0.3761  0.6200
 2715TIP3   OH229635   5.482   3.232   4.976  0.2117  0.4852  0.1623
 2715TIP3    H129636   5.496   3.286   4.898 -1.4505  0.2222 -0.3621
 2715TIP3    H229637   5.434   3.156   4.944  0.3755 -0.1185  1.2925
 2716TIP3   OH229638   4.648   5.824  10.933  0.5563  0.0803  0.2816
 2716TIP3    H129639   4.634   5.777  10.851  0.7065 -0.9788  0.8433
 2716TIP3    H229640   4.595   5.778  10.997  2.2242 -0.5750  1.2717
 2717TIP3   OH229641   0.632   6.842  11.420  0.0340 -0.1251  0.0213
 2717TIP3    H129642   0.677   6.854  11.503 -0.1731 -0.5600  0.1985
 2717TIP3    H229643   0.683   6.892  11.357 -0.3059  0.9346  0.5735
 2718TIP3   OH229644   5.215   6.312   5.631  0.5000 -0.1450  0.2610
 2718TIP3    H129645   5.286   6.349   5.577  0.4490  0.8778  0.8668
 2718TIP3    H229646   5.230   6.348   5.718 -0.5349 -0.2446  0.4941
 2719TIP3   OH229647   6.237   1.263  13.496 -0.5915 -0.5973 -0.1441
 2719TIP3    H129648   6.205   1.174  13.479  0.1368 -0.2618 -4.2517
 2719TIP3    H229649   6.331   1.258  13.481  0.2257  0.1443  3.7119
 2720TIP3   OH229650   5.974   2.865   5.828 -0.2037  0.8933  0.2936
 2720TIP3    H129651   5.902   2.927   5.820 -1.2387 -0.0411  1.8258
 2720TIP3    H229652   6.004   2.875   5.919 -1.2307 -1.6733  0.9990
 2721TIP3   OH229653   4.375   3.870  13.697  0.4819  0.2391  0.1269
 2721TIP3    H129654   4.356   3.938  13.633 -1.1494  0.5894  0.9330
 2721TIP3    H229655   4.471   3.868  13.702  0.5982  1.4044 -1.0083
 2722TIP3   OH229656   1.728   4.383   0.346  0.4183 -0.6144  0.3234
 2722TIP3    H129657   1.793   4.409   0.411 -0.2891 -0.1695  0.8638
 2722TIP3    H229658   1.727   4.287   0.349  2.1036 -0.7139 -0.7492
 2723TIP3   OH229659   1.123   0.817   1.322  0.7846  0.0899 -0.3700
 2723TIP3    H129660   1.134   0.857   1.236  0.7276  0.7342 -0.0879
 2723TIP3    H229661   1.110   0.892   1.381 -1.3408 -0.4134 -0.1204
 2724TIP3   OH229662   0.538   2.168  15.395 -0.4028  0.0382  0.3683
 2724TIP3    H129663   0.524   2.210  15.310  0.7748  1.5238  0.8703
 2724TIP3    H229664   0.557   2.077  15.373  1.4885  0.7232 -1.1197
 2725TIP3   OH229665   4.671   4.374   5.923 -0.3918 -0.6887  0.6905
 2725TIP3    H129666   4.698   4.416   6.005  0.1398  0.6930 -0.1556
 2725TIP3    H229667   4.662   4.446   5.861  0.5966 -1.8356 -0.8513
 2726TIP3   OH229668   4.960   4.255  10.514  0.2189  0.6510 -0.6561
 2726TIP3    H129669   5.037   4.268  10.458  0.0886 -2.0810 -1.6037
 2726TIP3    H229670   4.976   4.172  10.559 -1.8218  0.4045 -0.2864
 2727TIP3   OH229671   1.175   1.502   3.941 -0.5033 -1.0654 -0.8352
 2727TIP3    H129672   1.218   1.419   3.960 -0.0795 -0.4601  1.0549
 2727TIP3    H229673   1.248   1.561   3.920 -0.5688 -0.6110  0.1411
 2728TIP3   OH229674   0.867   4.850  15.586 -0.1687  0.1273  0.3075
 2728TIP3    H129675   0.858   4.763  15.548  1.9301  0.4327 -1.0715
 2728TIP3    H229676   0.865   4.910  15.511  3.0752  0.8362  0.6105
 2729TIP3   OH229677   2.732   5.981   4.139 -0.7184  0.0648 -0.0552
 2729TIP3    H129678   2.744   6.059   4.193 -1.1146 -0.4318  0.7667
 2729TIP3    H229679   2.808   5.926   4.160  0.7303  1.0685 -2.1998
 2730TIP3   OH229680   3.379   1.166   2.882 -0.1149 -0.2996  0.3095
 2730TIP3    H129681   3.357   1.074   2.889 -1.3282 -0.1299 -0.9092
 2730TIP3    H229682   3.357   1.203   2.967 -2.2599 -0.6324 -0.0591
 2731TIP3   OH229683   2.854   6.215   4.258  0.1238  0.4052  0.0329
 2731TIP3    H129684   2.862   6.276   4.185  1.0122 -2.9674 -2.9861
 2731TIP3    H229685   2.934   6.227   4.309  0.4727  1.3921 -0.7233
 2732TIP3   OH229686   2.918   2.466  16.637  0.3953  0.1503  0.3530
 2732TIP3    H129687   3.005   2.507  16.644  0.2246  0.8119 -0.9965
 2732TIP3    H229688   2.859   2.528  16.681  0.5166 -0.0133  0.7515
 2733TIP3   OH229689   4.442   1.066   6.108 -0.0738 -0.1839 -0.1503
 2733TIP3    H129690   4.437   1.076   6.013 -0.4325  0.5360 -0.0699
 2733TIP3    H229691   4.352   1.048   6.135  0.3608 -2.6165 -0.1423
 2734TIP3   OH229692   2.437   4.178  14.907 -0.4127  0.5091 -0.5757
 2734TIP3    H129693   2.392   4.238  14.967 -1.4950  0.4090 -1.2505
 2734TIP3    H229694   2.378   4.102  14.902  0.4929 -0.2158 -0.4492
 2735TIP3   OH229695   5.582   0.278  10.639 -0.1910 -0.5326  0.4331
 2735TIP3    H129696   5.527   0.217  10.590 -0.1664  0.5905 -1.1021
 2735TIP3    H229697   5.628   0.224  10.703 -1.3257 -1.8509  0.1847
 2736TIP3   OH229698   6.756   0.939   4.303  0.0361  0.1143 -0.3341
 2736TIP3    H129699   6.665   0.937   4.271  0.1340  0.2050 -0.6184
 2736TIP3    H229700   6.747   0.936   4.398 -0.3570  2.5093 -0.2290
 2737TIP3   OH229701   3.914   2.370   1.322 -0.1791 -0.2633 -0.7050
 2737TIP3    H129702   3.908   2.306   1.252  0.2038  0.0782 -1.0549
 2737TIP3    H229703   3.899   2.454   1.279 -2.1342 -0.2089 -0.0295
 2738TIP3   OH229704   1.627   4.792   2.180  0.1582  0.1425  0.0745
 2738TIP3    H129705   1.696   4.731   2.206  1.2502  0.7309 -1.3250
 2738TIP3    H229706   1.557   4.735   2.147 -0.1565 -0.4697  1.7013
 2739TIP3   OH229707   5.903   4.750   0.877  0.0471  0.0149 -0.0463
 2739TIP3    H129708   5.868   4.670   0.838  0.5927 -0.5326  0.5366
 2739TIP3    H229709   5.998   4.735   0.880  0.0878  0.3658  0.7310
 2740TIP3   OH229710   4.585   5.346  15.376 -0.2730  0.5259  0.4625
 2740TIP3    H129711   4.500   5.305  15.395 -0.7693  1.5788  0.6112
 2740TIP3    H229712   4.591   5.346  15.280  1.6449 -3.6113  0.3863
 2741TIP3   OH229713   0.344   1.045  17.151 -0.2443  0.3937  0.0592
 2741TIP3    H129714   0.270   0.985  17.156  0.9670 -1.1414  0.0576
 2741TIP3    H229715   0.387   1.024  17.068  0.0414  1.4673 -0.0810
 2742TIP3   OH229716   6.763   0.232   0.770 -0.3981  1.1584 -0.6079
 2742TIP3    H129717   6.843   0.187   0.743 -0.0641  1.5834 -0.3435
 2742TIP3    H229718   6.722   0.260   0.689 -1.9679 -1.8185 -1.0133
 2743TIP3   OH229719   6.044   5.460  14.835  0.1618 -0.0811  0.0040
 2743TIP3    H129720   6.120   5.517  14.831 -0.5417  0.8168 -1.7753
 2743TIP3    H229721   6.026   5.437  14.744 -1.6891 -0.2429  0.3631
 2744TIP3   OH229722   0.498   0.099   1.008 -0.3868  0.4606  0.0173
 2744TIP3    H129723   0.408   0.075   0.985 -0.8088  0.9706  1.0566
 2744TIP3    H229724   0.498   0.195   1.007  0.5485  0.4658 -1.4131
 2745TIP3   OH229725   0.137   0.041   2.729 -0.6026  0.2743 -0.2571
 2745TIP3    H129726   0.229   0.017   2.743  0.4699  2.7333 -2.3516
 2745TIP3    H229727   0.089  -0.038   2.750  2.1936 -1.9540 -1.5119
 2746TIP3   OH229728   5.323   2.279   3.950  0.2909  0.3268 -0.4535
 2746TIP3    H129729   5.332   2.245   4.039  1.0715  0.0112 -0.6425
 2746TIP3    H229730   5.369   2.215   3.896  0.5716  0.9701 -0.9820
 2747TIP3   OH229731   1.157   3.898   3.877  0.6137 -0.2049  0.0717
 2747TIP3    H129732   1.196   3.976   3.915 -0.7484  0.7861 -0.4778
 2747TIP3    H229733   1.224   3.863   3.819  0.8035  1.2934 -0.6499
 2748TIP3   OH229734   4.186   2.571   5.670 -0.6567  0.1016  0.5877
 2748TIP3    H129735   4.134   2.647   5.646 -0.9908  0.5341  2.4900
 2748TIP3    H229736   4.230   2.597   5.751 -1.6225 -2.0762  1.9033
 2749TIP3   OH229737   5.892   4.298   3.771 -0.0873  0.0933  0.1087
 2749TIP3    H129738   5.857   4.258   3.691 -0.7904 -0.4262  0.6660
 2749TIP3    H229739   5.817   4.346   3.808  0.5838  1.4618 -0.2364
 2750TIP3   OH229740   0.946   4.217   4.154  0.1447 -0.0039 -0.2958
 2750TIP3    H129741   0.915   4.209   4.244  1.0276 -0.6936 -0.0359
 2750TIP3    H229742   1.018   4.279   4.159  3.0418 -3.1057  0.2976
 2751TIP3   OH229743   2.922   0.101  11.351  0.1079  0.1226  0.5592
 2751TIP3    H129744   2.977   0.031  11.316 -0.2247 -0.5822  1.4073
 2751TIP3    H229745   2.835   0.061  11.360 -0.9436  1.5661 -1.9985
 2752TIP3   OH229746   3.910   4.032  16.562 -0.7266  0.1112 -0.1409
 2752TIP3    H129747   3.831   4.081  16.538 -0.2063  0.1273 -1.9319
 2752TIP3    H229748   3.972   4.099  16.591 -0.2353  0.5099 -1.9817
 2753TIP3   OH229749   0.412   6.410   1.827 -0.0493  0.2839  0.0420
 2753TIP3    H129750   0.348   6.399   1.897 -0.7794  0.2828 -0.6173
 2753TIP3    H229751   0.363   6.395   1.746  1.0941 -1.1918 -0.4260
 2754TIP3   OH229752   3.441   0.519   4.649 -0.1053 -0.5956  0.0065
 2754TIP3    H129753   3.528   0.491   4.621 -0.6630 -2.4508 -0.0394
 2754TIP3    H229754   3.457   0.599   4.700  1.8871 -1.9180  1.6694
 2755TIP3   OH229755   3.991   0.210  16.319  0.1812  0.0824 -0.3836
 2755TIP3    H129756   3.954   0.159  16.391 -0.4940  0.4256 -0.4858
 2755TIP3    H229757   3.928   0.281  16.304 -0.1458 -0.4986 -1.9173
 2756TIP3   OH229758   1.729   0.500  13.263  0.6259 -0.4449  0.1064
 2756TIP3    H129759   1.727   0.501  13.359  1.1713 -0.2507  0.1238
 2756TIP3    H229760   1.768   0.416  13.240 -1.5710 -1.4974 -0.0244
 2757TIP3   OH229761   1.115   2.904  15.756  0.3332 -0.2410  0.2312
 2757TIP3    H129762   1.209   2.892  15.772  0.4944  0.6447  0.0413
 2757TIP3    H229763   1.101   2.863  15.670  0.4032 -0.9625  0.5591
 2758TIP3   OH229764   4.450   2.644  16.075  0.2631 -0.8111  0.0938
 2758TIP3    H129765   4.441   2.702  15.999 -1.7663 -0.7788  0.3269
 2758TIP3    H229766   4.464   2.557  16.036 -0.3085 -0.7247 -0.3243
 2759TIP3   OH229767   2.964   2.501  10.661  0.0469 -0.0259  0.2062
 2759TIP3    H129768   3.004   2.587  10.673 -0.5599 -0.0119  2.6987
 2759TIP3    H229769   2.999   2.470  10.578 -0.1989  2.8619 -1.1291
 2760TIP3   OH229770   5.094   0.416  16.481 -0.2709  0.2883  0.5725
 2760TIP3    H129771   5.074   0.429  16.389  0.0664  0.8877  0.5751
 2760TIP3    H229772   5.040   0.342  16.508  0.1973 -0.3884 -0.2924
 2761TIP3   OH229773   1.946   6.091  14.392 -0.6703  0.4959  0.1315
 2761TIP3    H129774   1.999   6.012  14.402 -0.6786  0.3083 -1.1962
 2761TIP3    H229775   2.002   6.161  14.425 -1.0755 -0.1608  2.3828
 2762TIP3   OH229776   1.935   5.213  15.896  0.2744  0.1002  0.0971
 2762TIP3    H129777   1.948   5.276  15.825 -0.7871  0.9292  0.6044
 2762TIP3    H229778   1.879   5.145  15.858  0.7205 -0.1049 -0.2039
 2763TIP3   OH229779   1.132   6.676   0.696 -0.1415  0.2486 -0.1371
 2763TIP3    H129780   1.044   6.664   0.659  0.9186 -2.1002 -2.2082
 2763TIP3    H229781   1.140   6.605   0.760  0.7316 -0.5399 -1.0852
 2764TIP3   OH229782   5.870   1.823  11.501  0.1044  0.3589 -0.1639
 2764TIP3    H129783   5.854   1.913  11.531  0.3273 -0.2247  1.8881
 2764TIP3    H229784   5.783   1.786  11.489  0.0117  0.8047 -0.9226
 2765TIP3   OH229785   6.226   6.665  12.074  0.6494  0.1607 -0.0327
 2765TIP3    H129786   6.234   6.608  11.998 -0.2253 -1.3641  0.9585
 2765TIP3    H229787   6.315   6.692  12.093  0.8629  0.7367 -1.6920
 2766TIP3   OH229788   6.687   3.009   0.211 -0.0065  0.0512 -0.1368
 2766TIP3    H129789   6.740   2.960   0.149 -1.1699 -0.1159 -1.0284
 2766TIP3    H229790   6.716   2.979   0.297  0.0926 -1.3710 -0.6411
 2767TIP3   OH229791   1.231   1.975  15.589  0.2377  0.3020 -0.0787
 2767TIP3    H129792   1.310   1.963  15.537  0.0827  0.3755 -0.3299
 2767TIP3    H229793   1.159   1.949  15.531  0.0811  0.1887  0.1645
 2768TIP3   OH229794   2.079   5.947  12.495  0.5170  0.4203 -0.1517
 2768TIP3    H129795   2.128   5.896  12.559  0.0869  0.6138  0.3337
 2768TIP3    H229796   2.002   5.894  12.475  0.8709  0.1554 -0.8547
 2769TIP3   OH229797   1.624   4.538  12.986 -0.1756 -0.2293  0.0006
 2769TIP3    H129798   1.634   4.529  12.892  0.3289 -1.8986  0.1686
 2769TIP3    H229799   1.708   4.574  13.016 -0.0905 -0.3193 -0.1269
 2770TIP3   OH229800   1.313   2.147  12.877 -0.3883 -0.3744  0.2597
 2770TIP3    H129801   1.233   2.133  12.928 -0.4565 -2.0105 -0.2276
 2770TIP3    H229802   1.375   2.183  12.940 -1.7309  1.8461  0.4368
 2771TIP3   OH229803   5.356   1.616  14.913  0.0008  0.8812  0.4060
 2771TIP3    H129804   5.388   1.546  14.856 -4.6267  0.1266 -1.7194
 2771TIP3    H229805   5.329   1.571  14.994 -1.6979  0.3488 -0.4219
 2772TIP3   OH229806   3.149   1.551   2.748 -0.3583 -0.1665 -0.6273
 2772TIP3    H129807   3.224   1.527   2.803 -1.7749 -2.2096  0.5609
 2772TIP3    H229808   3.172   1.517   2.661 -0.1178 -1.2992 -0.1424
 2773TIP3   OH229809   5.895   6.631  16.287  0.7793  0.3614  0.4135
 2773TIP3    H129810   5.872   6.557  16.232  0.3094 -0.3698  1.5579
 2773TIP3    H229811   5.987   6.616  16.309  1.1555  0.9936 -0.6588
 2774TIP3   OH229812   5.117   5.096   1.759  0.0743 -0.3225  0.3384
 2774TIP3    H129813   5.094   5.150   1.684 -1.0426  1.3815  1.8241
 2774TIP3    H229814   5.203   5.060   1.738 -0.1678  0.1718 -1.6818
 2775TIP3   OH229815   2.794   1.465  13.257 -0.4212  0.0977 -0.4332
 2775TIP3    H129816   2.763   1.545  13.214 -1.0430  0.1115  0.0278
 2775TIP3    H229817   2.742   1.459  13.337 -1.1660 -1.3191 -0.9730
 2776TIP3   OH229818   3.099   3.275  10.667 -0.0601  0.2756  0.0138
 2776TIP3    H129819   3.158   3.258  10.741  1.5770  1.8167 -0.8378
 2776TIP3    H229820   3.015   3.238  10.694  0.7641 -0.1940  2.1686
 2777TIP3   OH229821   1.816   0.427  12.552  0.8195 -0.2867  0.0698
 2777TIP3    H129822   1.803   0.449  12.644  0.8245  1.5173 -0.3191
 2777TIP3    H229823   1.903   0.463  12.531  0.7853 -0.6041 -0.6477
 2778TIP3   OH229824   3.853   6.189   6.694  0.0575 -0.2959 -0.0417
 2778TIP3    H129825   3.770   6.234   6.705 -1.1069 -1.8904 -1.6675
 2778TIP3    H229826   3.858   6.129   6.768  0.0059  0.1268  0.3099
 2779TIP3   OH229827   3.720   3.661   5.277 -0.2273  0.1802 -0.0070
 2779TIP3    H129828   3.741   3.731   5.339  0.9246  0.1410 -0.3262
 2779TIP3    H229829   3.670   3.704   5.208  0.8848  0.8209 -0.4443
 2780TIP3   OH229830   5.897   3.199   5.626  0.1074  0.0286 -1.1186
 2780TIP3    H129831   5.934   3.263   5.565  0.2145 -0.8206 -1.9722
 2780TIP3    H229832   5.871   3.126   5.571  2.5447 -1.8869  0.0499
 2781TIP3   OH229833   1.463   1.161  13.419  0.4162 -0.2443 -0.1098
 2781TIP3    H129834   1.399   1.184  13.351 -0.5940 -1.8854  0.2076
 2781TIP3    H229835   1.534   1.224  13.408  0.1866 -0.2990 -2.5291
 2782TIP3   OH229836   5.806   3.761  12.657 -0.3773 -0.1193  0.3629
 2782TIP3    H129837   5.775   3.779  12.568  0.7970  0.4089  0.0289
 2782TIP3    H229838   5.877   3.698  12.645  0.1044  0.3130  0.8630
 2783TIP3   OH229839   4.821   0.903  13.051  0.2569 -0.5363 -0.3204
 2783TIP3    H129840   4.857   0.862  12.973  0.9379  0.3810 -0.5160
 2783TIP3    H229841   4.764   0.972  13.018  0.8864  0.1426 -0.0344
 2784TIP3   OH229842   3.783   1.842  15.870  0.4913  0.5123  0.1170
 2784TIP3    H129843   3.693   1.852  15.900  1.0008  1.3805  1.4633
 2784TIP3    H229844   3.831   1.912  15.915  2.2834 -1.4204  1.3950
 2785TIP3   OH229845   2.216   3.480  12.508  0.0063 -0.2394 -0.1184
 2785TIP3    H129846   2.123   3.470  12.528  0.0143  3.0406  2.5778
 2785TIP3    H229847   2.221   3.558  12.453  1.1730 -0.3731 -0.2385
 2786TIP3   OH229848   3.341   2.637  10.847  0.4232 -0.1533 -0.0082
 2786TIP3    H129849   3.265   2.617  10.902 -0.0853  0.0654 -0.6305
 2786TIP3    H229850   3.363   2.727  10.868 -1.1874  0.7214 -1.7959
 2787TIP3   OH229851   4.195   0.113   4.097  0.0401 -0.0281 -0.4203
 2787TIP3    H129852   4.112   0.160   4.107 -0.3218 -0.8807  0.7693
 2787TIP3    H229853   4.260   0.182   4.084 -0.5733  0.7839  0.6471
 2788TIP3   OH229854   5.052   1.965   0.348 -0.1760  0.1453 -0.0142
 2788TIP3    H129855   4.973   2.019   0.341 -0.2458 -0.1112 -1.3895
 2788TIP3    H229856   5.024   1.888   0.396 -0.2552  0.9682  1.3236
 2789TIP3   OH229857   1.201   6.266   1.110 -0.1198  0.1334 -0.9916
 2789TIP3    H129858   1.207   6.252   1.204  1.8364  1.3896 -0.8829
 2789TIP3    H229859   1.124   6.216   1.083 -0.4794 -0.5728  1.1940
 2790TIP3   OH229860   3.612   6.516  12.412  0.1501  0.1225 -0.6761
 2790TIP3    H129861   3.566   6.570  12.349 -1.7392 -0.3104  0.2572
 2790TIP3    H229862   3.677   6.574  12.452 -1.9503  1.8119  0.4476
 2791TIP3   OH229863   5.619   2.418   0.821  0.2821 -0.3262 -0.1858
 2791TIP3    H129864   5.638   2.348   0.758  0.8462  0.5408 -1.0112
 2791TIP3    H229865   5.524   2.424   0.822  0.1938 -1.5000  0.3550
 2792TIP3   OH229866   6.269   3.634  13.640  0.1431 -0.1354  0.0131
 2792TIP3    H129867   6.292   3.550  13.601  0.6693  0.8413 -1.8877
 2792TIP3    H229868   6.176   3.643  13.624 -0.0417 -0.5827  0.7481
 2793TIP3   OH229869   3.337   1.758  13.115  0.7784 -0.1963  0.0592
 2793TIP3    H129870   3.389   1.696  13.167  0.0320 -0.6990  0.2164
 2793TIP3    H229871   3.246   1.732  13.130  0.5261 -0.0468 -1.1230
 2794TIP3   OH229872   6.016   3.671  15.016 -0.1678  0.0804 -0.1651
 2794TIP3    H129873   5.952   3.664  15.087  0.0961  0.0171  0.0683
 2794TIP3    H229874   5.989   3.606  14.952 -0.0587 -0.2772  0.1513
 2795TIP3   OH229875   5.020   1.932   5.053 -0.2590  0.0286  0.1567
 2795TIP3    H129876   4.968   1.990   5.109 -1.8499 -1.0135 -0.1778
 2795TIP3    H229877   5.106   1.974   5.048 -1.1945  2.0849  0.3498
 2796TIP3   OH229878   2.944   3.249  12.431 -0.3144 -0.4546  0.2987
 2796TIP3    H129879   3.030   3.221  12.400 -0.5624 -2.6300  1.3593
 2796TIP3    H229880   2.894   3.266  12.351  0.4836 -1.2369 -0.3868
 2797TIP3   OH229881   2.540   0.309   6.049 -0.0840 -0.3730  0.4211
 2797TIP3    H129882   2.553   0.375   5.981 -1.2557  0.7252  1.2205
 2797TIP3    H229883   2.604   0.241   6.028 -1.4156 -0.8585 -2.7023
 2798TIP3   OH229884   1.591   4.248  11.672 -0.1865 -0.0443 -0.0594
 2798TIP3    H129885   1.503   4.274  11.646 -0.1783 -0.4914 -0.5536
 2798TIP3    H229886   1.581   4.160  11.709 -0.2178  0.6337  1.6063
 2799TIP3   OH229887   4.906   5.879   0.276 -0.3478  0.3996 -0.1348
 2799TIP3    H129888   4.944   5.908   0.192  0.4125  0.6601  0.2866
 2799TIP3    H229889   4.814   5.904   0.270 -0.0570  1.4787 -0.4390
 2800TIP3   OH229890   1.308   0.938  14.594 -0.2127 -0.2488 -0.2912
 2800TIP3    H129891   1.350   0.887  14.664  0.7102 -0.4502 -0.9722
 2800TIP3    H229892   1.292   0.875  14.525  0.7599  0.3300 -1.0673
 2801TIP3   OH229893   6.477   3.943   5.226 -0.0745  0.0597 -0.3461
 2801TIP3    H129894   6.567   3.941   5.193 -0.1941 -0.0958 -0.6637
 2801TIP3    H229895   6.433   4.008   5.172 -0.0650  0.3881  0.0378
 2802TIP3   OH229896   2.169   3.886  10.842 -0.0341  0.3635 -0.2720
 2802TIP3    H129897   2.246   3.836  10.869 -0.0783  1.1205  1.3625
 2802TIP3    H229898   2.202   3.973  10.822 -0.7448  1.6020  3.3117
 2803TIP3   OH229899   6.621   0.176  14.848  0.6392 -0.3590  0.5648
 2803TIP3    H129900   6.655   0.087  14.845 -0.9334 -0.9667 -0.9628
 2803TIP3    H229901   6.694   0.229  14.880  3.0780 -1.5513 -2.4913
 2804TIP3   OH229902   5.345   4.227   6.506 -0.0599  0.7178  0.5537
 2804TIP3    H129903   5.333   4.302   6.447 -0.9853  1.0019  1.0746
 2804TIP3    H229904   5.397   4.261   6.579  0.6821  0.4881  0.1418
 2805TIP3   OH229905   6.704   3.521   1.374 -0.2557 -0.4973  0.1909
 2805TIP3    H129906   6.735   3.467   1.446 -0.8678 -1.3786 -0.1978
 2805TIP3    H229907   6.661   3.460   1.314 -0.3785  0.3208 -0.5772
 2806TIP3   OH229908   3.961   3.365   1.047 -0.2035  0.2175 -0.4845
 2806TIP3    H129909   4.012   3.328   0.976  0.1028 -0.8637  0.2773
 2806TIP3    H229910   3.933   3.290   1.099 -0.0630  0.9974  0.7677
 2807TIP3   OH229911   1.684   6.165  16.822  0.5625 -0.7615 -0.1975
 2807TIP3    H129912   1.710   6.242  16.873  0.7460 -0.0141 -1.3746
 2807TIP3    H229913   1.591   6.155  16.840  0.2173  0.5737 -1.0370
 2808TIP3   OH229914   6.788   5.235  15.958  0.4370 -0.8037 -0.3079
 2808TIP3    H129915   6.741   5.186  15.891  0.7044 -1.3203 -0.1256
 2808TIP3    H229916   6.793   5.175  16.032 -1.4040  0.3876  0.8330
 2809TIP3   OH229917   3.474   5.126   1.269 -0.6294  0.2814 -0.4971
 2809TIP3    H129918   3.507   5.154   1.354  0.1642 -0.8421 -0.4114
 2809TIP3    H229919   3.476   5.205   1.215 -1.4863  1.0900  0.6076
 2810TIP3   OH229920   2.191   0.885   2.645  0.4368  0.3275  0.5574
 2810TIP3    H129921   2.199   0.798   2.683  1.5099 -0.6992 -1.8138
 2810TIP3    H229922   2.191   0.871   2.550  0.7641  2.9042  0.0743
 2811TIP3   OH229923   6.350   6.344   2.235  0.2811 -0.0990 -0.5338
 2811TIP3    H129924   6.392   6.292   2.165  1.2621 -0.5549  0.3632
 2811TIP3    H229925   6.396   6.428   2.233  0.6348 -0.2855 -0.1166
 2812TIP3   OH229926   3.706   5.958  12.397  0.4934 -0.1986 -0.4141
 2812TIP3    H129927   3.679   6.050  12.390 -0.6998 -0.5493 -0.6798
 2812TIP3    H229928   3.794   5.956  12.361  0.7133  0.9188  0.0070
 2813TIP3   OH229929   6.646   3.601   0.518 -0.1840 -0.6634  0.2011
 2813TIP3    H129930   6.699   3.680   0.504  1.4398 -1.8971 -0.9562
 2813TIP3    H229931   6.613   3.611   0.608  1.1683  0.6588  0.6011
 2814TIP3   OH229932   4.067   0.642   3.645 -0.0832  0.1389 -0.1662
 2814TIP3    H129933   4.056   0.719   3.588 -1.2524 -0.9167 -1.4536
 2814TIP3    H229934   4.147   0.600   3.614 -0.4107 -0.1184 -0.6894
 2815TIP3   OH229935   6.338   3.453  11.539 -0.3116  0.0392  0.5917
 2815TIP3    H129936   6.374   3.509  11.469  0.8839 -0.4863  0.7672
 2815TIP3    H229937   6.257   3.419  11.502 -0.1215  0.4315 -0.2257
 2816TIP3   OH229938   6.088   5.140   6.067 -0.1653 -0.0962  0.4261
 2816TIP3    H129939   6.032   5.208   6.029  0.2057  0.1428  0.3004
 2816TIP3    H229940   6.032   5.095   6.129 -0.6041 -0.0951  0.0364
 2817TIP3   OH229941   3.534   4.174   6.888  0.0382 -0.1101 -0.3206
 2817TIP3    H129942   3.572   4.150   6.973 -0.6299 -1.1524 -0.2943
 2817TIP3    H229943   3.578   4.116   6.825 -0.4277 -0.2734 -0.4962
 2818TIP3   OH229944   6.471   3.910  12.159  0.6937  0.1813  0.3930
 2818TIP3    H129945   6.559   3.880  12.181  1.6962  1.5544 -1.4869
 2818TIP3    H229946   6.429   3.833  12.120  0.4802 -0.9188  2.6587
 2819TIP3   OH229947   1.271   3.542   3.855 -0.7683 -0.5345 -0.3859
 2819TIP3    H129948   1.277   3.622   3.801  0.4705 -0.4347 -0.1232
 2819TIP3    H229949   1.238   3.573   3.939  0.0284 -0.2281 -0.1746
 2820TIP3   OH229950   5.909   0.285  14.345  0.3488 -0.3175  0.7463
 2820TIP3    H129951   5.899   0.305  14.438  0.2563 -1.3859  0.9773
 2820TIP3    H229952   5.968   0.210  14.343 -1.0719 -1.4560  0.0552
 2821TIP3   OH229953   3.466   3.165   2.706  0.0254 -0.2367  0.4698
 2821TIP3    H129954   3.549   3.123   2.682  0.6076  0.7622  0.6861
 2821TIP3    H229955   3.408   3.147   2.632  0.2756 -1.3423  0.5210
 2822TIP3   OH229956   5.800   0.274  12.273  0.2336 -0.0467 -0.3061
 2822TIP3    H129957   5.751   0.276  12.192  0.6432 -0.1519 -0.5595
 2822TIP3    H229958   5.733   0.271  12.342 -0.2183  2.4854 -0.5194
 2823TIP3   OH229959   4.601   4.926  13.674  0.0868  0.0766 -0.7991
 2823TIP3    H129960   4.618   4.889  13.760 -0.0329  3.4725  0.8478
 2823TIP3    H229961   4.686   4.926  13.630  0.6314  0.4075  0.2363
 2824TIP3   OH229962   2.854   0.150   4.317  0.0312 -0.0924 -0.0397
 2824TIP3    H129963   2.914   0.133   4.390  0.2560 -1.3057 -0.4819
 2824TIP3    H229964   2.769   0.120   4.349 -0.3687  1.5827  0.5692
 2825TIP3   OH229965   0.303   1.699  16.324  0.5600  0.6127  0.2878
 2825TIP3    H129966   0.348   1.783  16.328  1.4382  0.1036  1.2357
 2825TIP3    H229967   0.283   1.677  16.415 -0.6948  0.3244 -0.0261
 2826TIP3   OH229968   6.760   4.751  15.292 -0.3236 -0.8031 -0.4384
 2826TIP3    H129969   6.691   4.779  15.352 -0.1871  0.2051 -0.7371
 2826TIP3    H229970   6.770   4.823  15.231 -1.2613 -2.2608 -2.4158
 2827TIP3   OH229971   6.563   0.428   5.051 -0.2784 -0.2285  0.3482
 2827TIP3    H129972   6.616   0.473   5.116 -0.1530  0.7069 -0.3780
 2827TIP3    H229973   6.473   0.451   5.073 -0.1915  0.8526 -0.3249
 2828TIP3   OH229974   0.836   6.818  13.522 -0.4406  0.1096 -0.3058
 2828TIP3    H129975   0.920   6.842  13.559 -0.5913  1.6653 -0.8975
 2828TIP3    H229976   0.847   6.728  13.492 -0.1659 -1.0758  2.9580
 2829TIP3   OH229977   5.198   3.477   1.128  0.2571  0.4380  0.3422
 2829TIP3    H129978   5.207   3.496   1.222  1.0823  1.5783  0.0539
 2829TIP3    H229979   5.238   3.391   1.117  1.5064  0.9301  0.8152
 2830TIP3   OH229980   3.886   4.023   4.679 -0.2391 -0.4818 -0.3711
 2830TIP3    H129981   3.907   4.107   4.720  0.2632  0.7504 -2.9349
 2830TIP3    H229982   3.945   3.960   4.721 -1.1463  0.2625  2.1241
 2831TIP3   OH229983   5.418   1.894  11.686  0.2384 -0.0463  0.1431
 2831TIP3    H129984   5.399   1.984  11.660  2.4443  0.3789 -0.2224
 2831TIP3    H229985   5.390   1.889  11.777 -0.8030  0.7030 -0.1213
 2832TIP3   OH229986   5.205   4.811   3.294  0.5588  0.2846  0.2243
 2832TIP3    H129987   5.125   4.758   3.287  0.3244  0.1811  2.7085
 2832TIP3    H229988   5.239   4.815   3.204 -2.5569  0.8928 -1.0451
 2833TIP3   OH229989   0.267   3.323  11.717  0.5014  0.0381  0.2028
 2833TIP3    H129990   0.292   3.303  11.627  0.2445 -0.6017  0.2693
 2833TIP3    H229991   0.212   3.249  11.744 -0.3511  0.7685  0.5057
 2834TIP3   OH229992   4.666   2.405  16.804  0.2116 -0.7776 -0.0636
 2834TIP3    H129993   4.621   2.321  16.809 -0.7689 -0.2311  0.7266
 2834TIP3    H229994   4.682   2.430  16.895 -1.3562  0.8123 -0.1670
 2835TIP3   OH229995   5.985   2.137   4.722  0.1277  0.0784  0.2311
 2835TIP3    H129996   6.072   2.158   4.689 -0.3878  1.8404 -0.1200
 2835TIP3    H229997   5.975   2.191   4.800 -1.0963  0.8471 -0.4254
 2836TIP3   OH229998   2.658   3.240   2.736  0.0239 -0.5734  0.9664
 2836TIP3    H129999   2.659   3.242   2.641 -0.0135  0.8524  0.9784
 2836TIP3    H230000   2.699   3.156   2.759  1.1229 -0.4047 -0.2834
 2837TIP3   OH230001   2.745   5.768   2.028  0.4444 -0.5483 -0.0095
 2837TIP3    H130002   2.840   5.757   2.021  0.8918  1.4238  1.8004
 2837TIP3    H230003   2.726   5.848   1.979 -0.2179 -0.7418 -0.0739
 2838TIP3   OH230004   4.481   1.277  15.523 -0.0662  0.6464 -0.6932
 2838TIP3    H130005   4.496   1.241  15.435  0.1161 -0.4711 -0.2275
 2838TIP3    H230006   4.394   1.246  15.548 -0.1102  0.9414 -0.4705
 2839TIP3   OH230007   4.362   4.696  13.839  0.0188 -0.1127 -1.0381
 2839TIP3    H130008   4.349   4.606  13.871 -0.2712 -0.4274 -1.9900
 2839TIP3    H230009   4.455   4.701  13.818 -0.1133 -0.4602 -1.7378
 2840TIP3   OH230010   5.665   5.240  12.118 -0.1262  0.1187 -1.0355
 2840TIP3    H130011   5.714   5.158  12.122 -0.4837 -0.0662  0.0713
 2840TIP3    H230012   5.573   5.212  12.121 -0.2641  0.5693  1.3330
 2841TIP3   OH230013   3.784   0.794   1.058 -0.3017  0.7019  0.1813
 2841TIP3    H130014   3.751   0.725   1.115 -1.3966  1.3311  0.3328
 2841TIP3    H230015   3.877   0.772   1.045 -0.4832 -0.4477  0.7124
 2842TIP3   OH230016   0.788   1.634  14.819  0.2115 -0.1549 -0.2044
 2842TIP3    H130017   0.737   1.555  14.835 -0.2361  0.1205 -0.2690
 2842TIP3    H230018   0.745   1.701  14.872 -0.3530  0.4104 -1.3408
 2843TIP3   OH230019   6.768   4.767   4.403  0.6371  0.0364  0.8047
 2843TIP3    H130020   6.802   4.797   4.319  0.3269  0.8352  0.9531
 2843TIP3    H230021   6.845   4.766   4.461  0.8038 -0.2675  0.5783
 2844TIP3   OH230022   3.703   5.244  15.760  0.3503 -0.8732  0.3386
 2844TIP3    H130023   3.615   5.218  15.733  0.8580 -0.7974 -1.4959
 2844TIP3    H230024   3.737   5.296  15.687  1.1024  1.0402  1.9563
 2845TIP3   OH230025   6.180   3.100  14.172  0.0225  0.3543 -0.5381
 2845TIP3    H130026   6.155   3.060  14.256  2.8259 -0.1254  0.1529
 2845TIP3    H230027   6.262   3.057  14.149  1.1113  2.9323 -1.7835
 2846TIP3   OH230028   6.718   6.482   0.636 -0.1956  0.8608  0.4634
 2846TIP3    H130029   6.699   6.516   0.548  0.4543 -0.2751 -0.1363
 2846TIP3    H230030   6.655   6.411   0.648  0.0850  0.6521  0.6966
 2847TIP3   OH230031   1.771   6.094   4.790 -0.0713 -0.2272  0.2021
 2847TIP3    H130032   1.750   6.158   4.858 -0.9712  0.3882 -0.6206
 2847TIP3    H230033   1.792   6.014   4.837 -0.1495  0.3334  1.2128
 2848TIP3   OH230034   2.230   1.635   0.414  0.6537  0.3978  0.2896
 2848TIP3    H130035   2.178   1.569   0.369 -1.5752  1.0752  1.7337
 2848TIP3    H230036   2.185   1.718   0.396  0.9952  0.9595  1.8873
 2849TIP3   OH230037   5.742   2.791  11.334  0.1668  0.4978 -0.1999
 2849TIP3    H130038   5.685   2.743  11.394 -1.0961  0.1158 -1.6469
 2849TIP3    H230039   5.822   2.807  11.385 -0.5534 -0.4624  1.3161
 2850TIP3   OH230040   5.664   3.444  16.262  0.2907  0.2321 -0.1202
 2850TIP3    H130041   5.668   3.389  16.341 -0.5194 -0.7828 -0.7500
 2850TIP3    H230042   5.708   3.392  16.194 -0.4843  0.3501 -0.7280
 2851TIP3   OH230043   1.985   1.179  12.161  0.1570 -0.1150  0.6399
 2851TIP3    H130044   2.078   1.196  12.145  0.0805  0.3414  0.6779
 2851TIP3    H230045   1.976   1.182  12.256  0.2184 -0.7807  0.6724
 2852TIP3   OH230046   5.607   1.367   5.464  0.3477  0.3935  0.2039
 2852TIP3    H130047   5.689   1.406   5.433 -0.0276  1.3468  0.3805
 2852TIP3    H230048   5.565   1.334   5.385  1.8491 -2.0852  0.2988
 2853TIP3   OH230049   6.252   0.771   4.066  0.3221 -0.5726  0.1503
 2853TIP3    H130050   6.218   0.818   3.990  0.3673 -1.6208 -0.5509
 2853TIP3    H230051   6.344   0.756   4.046  1.1239  1.7021  1.7561
 2854TIP3   OH230052   4.082   6.594  16.655  0.1579 -0.6537 -0.1148
 2854TIP3    H130053   4.029   6.535  16.602 -0.4813  0.8599 -1.2152
 2854TIP3    H230054   4.078   6.678  16.609  0.7927  0.3303  1.5481
 2855TIP3   OH230055   4.623   1.718  10.976 -0.2014 -0.1548  0.1981
 2855TIP3    H130056   4.573   1.737  10.896  1.7265  1.7333 -0.6851
 2855TIP3    H230057   4.600   1.790  11.036 -2.3540 -2.0542  1.8335
 2856TIP3   OH230058   0.593   5.297   2.082 -0.2372  0.0173 -0.5885
 2856TIP3    H130059   0.533   5.230   2.050 -2.5256  1.5590  0.2075
 2856TIP3    H230060   0.538   5.355   2.134  2.3439  0.4978  1.8098
 2857TIP3   OH230061   5.851   6.200   6.007  0.0339  0.2836  0.1328
 2857TIP3    H130062   5.936   6.168   5.978  0.0781 -0.5862  1.1592
 2857TIP3    H230063   5.855   6.195   6.103 -1.4240 -0.4490  0.1822
 2858TIP3   OH230064   0.045   3.055  13.010 -0.3198  0.3001 -0.2686
 2858TIP3    H130065   0.136   3.052  12.980  0.3768  0.2895  1.7460
 2858TIP3    H230066   0.050   3.045  13.105 -2.5216 -0.8711 -0.2154
 2859TIP3   OH230067   3.023   0.605   2.976  0.9958 -0.5728  0.0509
 2859TIP3    H130068   2.994   0.595   2.885  1.1535 -0.3416 -0.0237
 2859TIP3    H230069   2.967   0.544   3.025 -2.3155  2.4231  0.4573
 2860TIP3   OH230070   3.312   0.625   3.833 -0.3958  0.0307  0.6686
 2860TIP3    H130071   3.261   0.553   3.871  0.2146 -1.0290 -0.4769
 2860TIP3    H230072   3.247   0.677   3.785 -0.6703 -0.3189  0.6575
 2861TIP3   OH230073   1.648   1.589   2.291  0.4836  0.3801 -0.3419
 2861TIP3    H130074   1.722   1.565   2.235  0.8180 -1.2488  0.7218
 2861TIP3    H230075   1.570   1.572   2.238  0.8153 -0.3728 -0.5918
 2862TIP3   OH230076   5.528   4.738  11.700  0.0491 -0.5933 -0.7978
 2862TIP3    H130077   5.442   4.750  11.741  1.5331  0.2763  2.3377
 2862TIP3    H230078   5.534   4.810  11.637 -0.6332  0.8235  0.6674
 2863TIP3   OH230079   0.757   0.358   4.170 -0.5043 -0.1676  0.7051
 2863TIP3    H130080   0.736   0.305   4.093 -0.3367 -0.5338  0.9126
 2863TIP3    H230081   0.840   0.323   4.202 -1.5426 -1.3638  2.2278
 2864TIP3   OH230082   3.155   4.698  17.043  0.2436  0.3749  0.1272
 2864TIP3    H130083   3.232   4.716  17.097  0.0267 -0.0397  0.5807
 2864TIP3    H230084   3.166   4.754  16.966  0.5332  1.0085  0.6248
 2865TIP3   OH230085   0.390   4.997   2.297 -0.4059 -0.2399  0.0860
 2865TIP3    H130086   0.312   5.039   2.333  0.9045  0.9282  1.7251
 2865TIP3    H230087   0.383   4.906   2.326 -1.3147 -0.2352 -0.0825
 2866TIP3   OH230088   2.908   1.563  16.113 -0.3023  0.3841  0.6487
 2866TIP3    H130089   2.985   1.508  16.124  1.0146  1.8076 -1.0001
 2866TIP3    H230090   2.923   1.639  16.169 -1.0445  0.1704  1.1590
 2867TIP3   OH230091   0.900   2.947  15.929  0.0595  0.3867  0.1309
 2867TIP3    H130092   0.971   2.911  15.875 -1.8424  0.2412 -2.4782
 2867TIP3    H230093   0.926   3.038  15.945  1.4234 -0.0149  0.3690
 2868TIP3   OH230094   2.950   2.017  12.274  0.4296  0.2808 -0.3706
 2868TIP3    H130095   3.025   2.024  12.216  0.5068  1.0796 -0.1855
 2868TIP3    H230096   2.985   1.983  12.356  0.6591  1.0187 -0.1593
 2869TIP3   OH230097   4.336   4.575  13.285  0.0142  0.3880 -0.0103
 2869TIP3    H130098   4.386   4.522  13.346 -1.2395  0.2715  0.9654
 2869TIP3    H230099   4.354   4.665  13.312  0.5163  0.3861 -0.3357
 2870TIP3   OH230100   0.178   4.957   3.420  0.1807 -0.9257 -0.3154
 2870TIP3    H130101   0.263   4.997   3.401  0.1155 -0.8098 -0.3593
 2870TIP3    H230102   0.200   4.869   3.452  0.3785 -0.3190  1.2428
 2871TIP3   OH230103   4.797   3.792   5.703  0.4944 -0.1995 -0.2889
 2871TIP3    H130104   4.770   3.798   5.795 -0.3395 -0.1224 -0.5317
 2871TIP3    H230105   4.827   3.702   5.692  1.6242  0.0790  0.3233
 2872TIP3   OH230106   0.138   1.129   4.461  0.2283 -0.3377  0.2016
 2872TIP3    H130107   0.163   1.170   4.544  1.1005  0.1165 -0.2681
 2872TIP3    H230108   0.043   1.133   4.460  0.2404  0.3757  0.8250
 2873TIP3   OH230109   6.738   4.148  12.322  0.0597  0.2475 -0.0188
 2873TIP3    H130110   6.723   4.065  12.367 -1.0338  0.5720  0.2344
 2873TIP3    H230111   6.653   4.172  12.286  0.7576  0.3094 -1.7638
 2874TIP3   OH230112   4.170   1.128  16.317 -0.1282 -0.3276  0.0234
 2874TIP3    H130113   4.126   1.168  16.243  1.3773 -1.9225 -1.8321
 2874TIP3    H230114   4.224   1.059  16.279  2.1583 -0.0093  2.3829
 2875TIP3   OH230115   1.848   3.159  15.601 -0.2692  0.2153  0.5745
 2875TIP3    H130116   1.916   3.221  15.629  0.2282 -0.3539  0.6616
 2875TIP3    H230117   1.897   3.081  15.573 -0.9035 -0.3348  0.9557
 2876TIP3   OH230118   6.384   0.676   1.905  0.0535  0.1520 -0.0148
 2876TIP3    H130119   6.307   0.696   1.851  1.4029  0.8919 -1.8008
 2876TIP3    H230120   6.456   0.722   1.861  1.6350 -1.0031  1.2397
 2877TIP3   OH230121   0.670   6.602   5.207  0.2602  0.1421  0.7194
 2877TIP3    H130122   0.760   6.571   5.217  0.7529  1.0136 -0.6831
 2877TIP3    H230123   0.626   6.532   5.157  0.8449  0.8019 -0.7521
 2878TIP3   OH230124   3.769   5.428   6.335  0.3060 -0.1103 -0.1669
 2878TIP3    H130125   3.769   5.485   6.258 -1.9457  0.4006  0.1408
 2878TIP3    H230126   3.693   5.371   6.323 -0.2389  0.1370  1.7722
 2879TIP3   OH230127   5.124   2.564  13.925 -0.1314 -1.4912 -0.0577
 2879TIP3    H130128   5.089   2.479  13.951 -2.4187 -0.1795  1.5146
 2879TIP3    H230129   5.078   2.585  13.844  0.5238 -1.8103 -0.5107
 2880TIP3   OH230130   3.084   5.258   6.544  0.1359  0.0032 -0.1627
 2880TIP3    H130131   3.001   5.239   6.499 -0.8141  0.4732  1.3300
 2880TIP3    H230132   3.111   5.173   6.581 -0.3953  0.1028  0.4768
 2881TIP3   OH230133   1.278   6.454  10.542 -0.0068  0.1765 -0.2220
 2881TIP3    H130134   1.183   6.461  10.540 -0.1422 -1.0976  0.7465
 2881TIP3    H230135   1.296   6.362  10.524  0.9738  0.0997  0.9888
 2882TIP3   OH230136   4.136   6.780  14.471  0.0422 -0.1269 -0.0691
 2882TIP3    H130137   4.078   6.733  14.410 -2.0582  0.0578  1.6755
 2882TIP3    H230138   4.187   6.838  14.415 -1.5342 -0.2306 -1.7276
 2883TIP3   OH230139   4.297   0.843   5.000 -0.6026 -0.3657  0.5990
 2883TIP3    H130140   4.374   0.829   4.946  1.7507  1.8391  3.0637
 2883TIP3    H230141   4.307   0.781   5.073 -0.2081  0.9636  1.7369
 2884TIP3   OH230142   5.684   0.066  11.867 -0.0765 -0.1810  0.2129
 2884TIP3    H130143   5.616   0.134  11.873 -0.6486 -0.7430  0.2463
 2884TIP3    H230144   5.766   0.114  11.871 -0.4718  0.4942  0.4630
 2885TIP3   OH230145   2.407   0.111   0.114 -0.3398 -0.4476  0.0798
 2885TIP3    H130146   2.353   0.063   0.051 -0.3915  2.1648 -2.0414
 2885TIP3    H230147   2.465   0.165   0.060  0.9976  0.5054  2.3155
 2886TIP3   OH230148   1.399   1.550   4.795 -0.6736  0.3175  0.2034
 2886TIP3    H130149   1.340   1.478   4.818  1.5882 -1.9179 -0.5875
 2886TIP3    H230150   1.395   1.609   4.870 -2.8260 -0.4383  0.7599
 2887TIP3   OH230151   5.009   1.793  13.262 -0.4090 -0.2670 -0.0097
 2887TIP3    H130152   4.913   1.793  13.255 -0.4897 -1.6267  0.7914
 2887TIP3    H230153   5.038   1.846  13.187 -1.7945  0.7417  0.1170
 2888TIP3   OH230154   6.498   1.561   5.026  0.3055  0.8260  0.0795
 2888TIP3    H130155   6.583   1.536   5.063 -0.3074 -0.2358  0.8299
 2888TIP3    H230156   6.500   1.657   5.023  0.3511  0.9794  2.9878
 2889TIP3   OH230157   2.914   5.404   3.372  0.4650 -0.0998 -0.3232
 2889TIP3    H130158   3.006   5.422   3.390  0.3335  0.8764 -0.5771
 2889TIP3    H230159   2.870   5.488   3.384 -0.5307 -0.7243  0.5982
 2890TIP3   OH230160   1.831   3.995   1.149 -0.1870 -0.1239  0.2352
 2890TIP3    H130161   1.820   4.030   1.060  1.4472 -0.0216  0.0390
 2890TIP3    H230162   1.809   4.069   1.206  0.3388  0.3146 -0.1207
 2891TIP3   OH230163   5.897   4.382   1.678 -0.3244  0.2984 -0.4164
 2891TIP3    H130164   5.859   4.316   1.620 -0.6940  0.2279 -0.0936
 2891TIP3    H230165   5.991   4.380   1.658 -0.4019  0.0295 -0.7641
 2892TIP3   OH230166   5.542   3.425   4.766  0.4694 -0.1402  0.1840
 2892TIP3    H130167   5.511   3.469   4.687 -1.5744  0.2759  1.1665
 2892TIP3    H230168   5.595   3.491   4.811 -2.5940  1.5378  1.6635
 2893TIP3   OH230169   4.651   4.613   1.750 -0.2185 -0.1940 -0.2413
 2893TIP3    H130170   4.736   4.652   1.728  0.1106  0.5682  2.1545
 2893TIP3    H230171   4.603   4.683   1.793 -1.6373 -0.9795 -0.4773
 2894TIP3   OH230172   2.167   4.604  11.257 -0.5986 -0.3125  0.5099
 2894TIP3    H130173   2.079   4.581  11.287  0.5354 -2.9893  2.1698
 2894TIP3    H230174   2.215   4.521  11.256  1.6774  0.8774 -1.3395
 2895TIP3   OH230175   2.658   6.607  12.128 -0.9946 -0.2655  0.0522
 2895TIP3    H130176   2.603   6.543  12.171 -0.4739 -0.8983 -0.2074
 2895TIP3    H230177   2.661   6.578  12.036  0.0020 -0.4183  0.1233
 2896TIP3   OH230178   0.224   3.046   1.412 -0.0114  0.1758  0.3993
 2896TIP3    H130179   0.310   3.053   1.371 -1.4939  1.0755 -2.9451
 2896TIP3    H230180   0.220   3.121   1.472  1.0909  0.9321 -0.4261
 2897TIP3   OH230181   2.675   1.919  16.762 -0.0202  0.6041 -0.3157
 2897TIP3    H130182   2.748   1.885  16.710 -0.8094 -2.2554  0.2464
 2897TIP3    H230183   2.603   1.858  16.745 -0.8913  0.6670  2.5882
 2898TIP3   OH230184   3.950   4.755  14.025  0.1245  0.1684  0.1902
 2898TIP3    H130185   3.890   4.826  14.002  1.0953  0.6943 -0.7882
 2898TIP3    H230186   3.896   4.676  14.024 -0.5844  0.6561 -0.4823
 2899TIP3   OH230187   4.185   1.147   4.693  0.0426  0.6001  0.0762
 2899TIP3    H130188   4.186   1.133   4.598  1.0372  1.3990 -0.0495
 2899TIP3    H230189   4.272   1.180   4.713 -0.4429  1.3050  1.1374
 2900TIP3   OH230190   3.616   5.938  14.098  1.1989 -0.1256  0.0050
 2900TIP3    H130191   3.663   5.883  14.035  1.5846 -0.0280  0.2074
 2900TIP3    H230192   3.672   6.014  14.110  1.0295 -0.0505  0.3178
 2901TIP3   OH230193   6.278   2.747   2.106  0.1059 -0.4508 -0.2422
 2901TIP3    H130194   6.272   2.799   2.186 -0.8827 -1.2584  0.2219
 2901TIP3    H230195   6.368   2.716   2.104  0.0926 -0.5491  0.6299
 2902TIP3   OH230196   3.515   3.612   1.996  0.1690 -0.1436 -0.0594
 2902TIP3    H130197   3.518   3.699   1.957  0.1575 -0.8839 -1.8238
 2902TIP3    H230198   3.552   3.623   2.083 -1.9297  2.0551  0.6717
 2903TIP3   OH230199   3.603   6.572   5.377 -0.5048 -0.4883  0.4866
 2903TIP3    H130200   3.537   6.641   5.377 -2.2457 -2.0923 -0.1444
 2903TIP3    H230201   3.684   6.617   5.351 -1.5873  1.2924  0.0360
 2904TIP3   OH230202   1.699   5.674  14.915 -0.0844 -0.1976  0.1154
 2904TIP3    H130203   1.717   5.580  14.915  1.9880  0.0958  2.4517
 2904TIP3    H230204   1.611   5.682  14.952  1.0195 -1.1618  3.2655
 2905TIP3   OH230205   3.220   2.253   1.909 -0.0161 -0.5456 -0.3193
 2905TIP3    H130206   3.313   2.268   1.923  0.3490 -2.6971 -0.1702
 2905TIP3    H230207   3.184   2.248   1.998 -0.3434  0.4558 -0.3759
 2906TIP3   OH230208   5.347   2.897   0.070 -0.2527  0.3125 -0.2466
 2906TIP3    H130209   5.388   2.948  -0.000  0.3968 -1.0872 -0.9099
 2906TIP3    H230210   5.268   2.861   0.031  1.3886 -2.6140 -1.1968
 2907TIP3   OH230211   1.835   4.054  15.556 -0.4496 -0.2650 -0.4273
 2907TIP3    H130212   1.855   4.143  15.587 -1.7677 -0.3115  0.6523
 2907TIP3    H230213   1.773   4.066  15.485  0.8562 -0.2679 -1.6144
 2908TIP3   OH230214   5.094   1.719   1.949  0.1413  0.0651 -0.1999
 2908TIP3    H130215   5.014   1.670   1.930 -0.0168  0.5953 -0.9940
 2908TIP3    H230216   5.165   1.662   1.918  0.1221 -0.6510  1.0298
 2909TIP3   OH230217   3.919   0.521   2.401 -0.1211 -0.1888  0.6418
 2909TIP3    H130218   4.003   0.503   2.359 -0.0491 -1.0296  1.1369
 2909TIP3    H230219   3.856   0.465   2.356 -0.6381  1.2002 -0.4416
 2910TIP3   OH230220   0.148   0.357  13.560 -0.3142 -0.0980 -0.4328
 2910TIP3    H130221   0.146   0.402  13.475 -0.4640 -0.2726 -0.5211
 2910TIP3    H230222   0.091   0.281  13.549  0.1290 -0.4418 -0.3537
 2911TIP3   OH230223   0.723   4.162  11.195  0.0934  0.0547  0.1290
 2911TIP3    H130224   0.664   4.231  11.163 -0.7876 -1.2163 -1.1143
 2911TIP3    H230225   0.761   4.199  11.275 -1.3943  1.4428  0.2581
 2912TIP3   OH230226   6.289   0.084  17.150  0.1480  0.0579 -0.0182
 2912TIP3    H130227   6.337   0.075  17.233  1.1863 -0.7726 -0.6846
 2912TIP3    H230228   6.357   0.084  17.083 -0.5005  2.9909 -0.7944
 2913TIP3   OH230229   2.630   2.497  12.668 -0.5316  0.1803  0.5349
 2913TIP3    H130230   2.723   2.510  12.649 -0.4386 -0.1495  0.7569
 2913TIP3    H230231   2.587   2.572  12.627 -0.0280  1.1743  1.7660
 2914TIP3   OH230232   6.008   0.664   3.244 -0.2899 -0.0449 -0.2961
 2914TIP3    H130233   6.053   0.696   3.166 -2.2444 -0.3841 -1.6617
 2914TIP3    H230234   5.961   0.740   3.277 -1.4531 -0.4263 -0.9789
 2915TIP3   OH230235   0.371   5.418   6.133 -0.1491 -0.3359  0.7895
 2915TIP3    H130236   0.420   5.352   6.182  1.0901 -0.8272 -1.0456
 2915TIP3    H230237   0.298   5.369   6.094  0.3250 -0.4828  0.0704
 2916TIP3   OH230238   3.321   1.066   4.609 -0.2228 -0.4294  0.0070
 2916TIP3    H130239   3.229   1.044   4.595  0.2634 -1.7313 -1.4307
 2916TIP3    H230240   3.328   1.078   4.704 -1.3513 -3.1146  0.5342
 2917TIP3   OH230241   3.147   0.041  10.932  0.0316 -0.2031  0.1882
 2917TIP3    H130242   3.128   0.061  10.840 -0.4385  1.3064  0.5809
 2917TIP3    H230243   3.122   0.121  10.979  1.0712 -0.6343  1.5276
 2918TIP3   OH230244   1.052   6.682   1.047 -0.1349  0.2572  0.8794
 2918TIP3    H130245   1.058   6.639   1.132  1.1162  0.9216  1.1569
 2918TIP3    H230246   1.125   6.744   1.047 -0.0934  0.2346 -0.7016
 2919TIP3   OH230247   4.290   6.462   4.442 -0.4681  0.1362  0.2002
 2919TIP3    H130248   4.234   6.433   4.370  0.0917  0.3281 -0.3220
 2919TIP3    H230249   4.231   6.510   4.500 -0.8096  0.5341 -0.4527
 2920TIP3   OH230250   4.630   3.079   3.741  0.0483 -0.3119 -0.1440
 2920TIP3    H130251   4.693   3.039   3.802 -1.8481 -1.9948  0.8547
 2920TIP3    H230252   4.684   3.117   3.672  2.1820 -0.7881  1.1604
 2921TIP3   OH230253   1.204   4.778  11.060  0.2148  0.4687 -0.0017
 2921TIP3    H130254   1.296   4.802  11.047  0.4447 -1.1757 -1.9635
 2921TIP3    H230255   1.207   4.697  11.110 -0.1556  0.2603 -0.3116
 2922TIP3   OH230256   3.393   5.641   6.077  0.4573  0.2497  0.8279
 2922TIP3    H130257   3.300   5.624   6.090  0.2829  0.6661  0.1109
 2922TIP3    H230258   3.435   5.557   6.097 -0.1754 -0.2844 -0.0576
 2923TIP3   OH230259   1.460   2.197  14.636  0.1999 -0.5508  0.0197
 2923TIP3    H130260   1.415   2.126  14.589  2.4013 -1.5216 -0.7685
 2923TIP3    H230261   1.484   2.159  14.720 -0.3948 -0.0605  0.4134
 2924TIP3   OH230262   4.646   1.661  17.096  0.1080 -0.0622 -0.7136
 2924TIP3    H130263   4.722   1.616  17.135 -0.4039 -1.7670 -1.5778
 2924TIP3    H230264   4.573   1.602  17.114 -1.0244  1.5140  0.0143
 2925TIP3   OH230265   6.557   0.084   1.957 -0.2261  0.7930  0.3267
 2925TIP3    H130266   6.518   0.001   1.983  0.1104  0.7520  0.7095
 2925TIP3    H230267   6.548   0.086   1.862  0.7182 -0.1712  0.1976
 2926TIP3   OH230268   1.573   2.358   2.593 -0.6876 -0.2207 -0.0753
 2926TIP3    H130269   1.530   2.438   2.625 -1.3960 -0.2168 -0.9978
 2926TIP3    H230270   1.666   2.375   2.605 -0.7276  1.3819 -1.6533
 2927TIP3   OH230271   2.581   1.518   0.657 -0.3407 -0.4345  0.1631
 2927TIP3    H130272   2.623   1.432   0.650 -1.0698 -0.7474 -0.4330
 2927TIP3    H230273   2.552   1.538   0.568 -0.8083  0.1122  0.4316
 2928TIP3   OH230274   1.247   6.826   6.269  0.0205  0.4183 -0.5202
 2928TIP3    H130275   1.189   6.831   6.344  1.8409  1.0835  0.9174
 2928TIP3    H230276   1.189   6.834   6.193 -1.9317 -0.8356  0.7553
 2929TIP3   OH230277   6.566   4.212   3.478 -0.5314 -0.8194 -0.2006
 2929TIP3    H130278   6.599   4.140   3.423  0.9489 -0.6879  0.4588
 2929TIP3    H230279   6.477   4.188   3.499 -0.9893 -1.1282 -2.2393
 2930TIP3   OH230280   4.951   6.551   1.695 -0.0965 -0.0055  1.1595
 2930TIP3    H130281   4.991   6.625   1.740  1.2781 -0.1177  0.1901
 2930TIP3    H230282   5.024   6.493   1.672 -0.7394 -0.1314 -0.8344
 2931TIP3   OH230283   6.009   3.335   5.398  0.1396  0.0096 -0.0785
 2931TIP3    H130284   6.025   3.415   5.349  1.4738 -0.7302 -0.9291
 2931TIP3    H230285   5.978   3.272   5.332  1.2711 -0.7989  0.1302
 2932TIP3   OH230286   1.037   6.099   0.872  0.1353 -0.0049 -0.2291
 2932TIP3    H130287   0.959   6.147   0.845  0.3718 -0.6668 -2.2575
 2932TIP3    H230288   1.004   6.013   0.900 -0.0281  0.4115  0.9309
 2933TIP3   OH230289   1.946   1.574  11.845  0.6747 -0.0469 -0.0816
 2933TIP3    H130290   1.977   1.533  11.926  1.2615  1.1347  0.3115
 2933TIP3    H230291   2.015   1.554  11.781 -0.0910 -1.5257 -0.4836
 2934TIP3   OH230292   0.955   3.353  13.360 -0.1193 -0.3811  0.3134
 2934TIP3    H130293   0.920   3.442  13.365  1.1042  0.3157 -2.0078
 2934TIP3    H230294   0.942   3.318  13.448 -0.9599  1.9525  1.2229
 2935TIP3   OH230295   6.188   1.137   5.631  0.0872  0.0170 -0.4882
 2935TIP3    H130296   6.180   1.229   5.656  0.3932  0.3692 -1.6307
 2935TIP3    H230297   6.281   1.125   5.612  0.4423 -1.1011  1.7014
 2936TIP3   OH230298   2.887   2.371  14.918  0.7142 -0.4100  0.1444
 2936TIP3    H130299   2.929   2.286  14.903 -1.3538 -1.3438 -0.7244
 2936TIP3    H230300   2.920   2.400  15.003  0.1374 -2.9516  1.3145
 2937TIP3   OH230301   4.151   6.292  15.175  0.6516  0.2606 -0.4121
 2937TIP3    H130302   4.206   6.226  15.133 -1.5192  0.4070 -3.8877
 2937TIP3    H230303   4.200   6.374  15.164  2.1302 -0.2936  1.5223
 2938TIP3   OH230304   2.746   1.773   4.974 -0.3647  0.3001  0.3321
 2938TIP3    H130305   2.689   1.842   4.942  1.5131  2.2125  0.9304
 2938TIP3    H230306   2.778   1.805   5.058  0.4523 -1.3687  0.7003
 2939TIP3   OH230307   1.391   6.135  15.687  0.3759  0.7112  0.1948
 2939TIP3    H130308   1.431   6.110  15.603  0.1580 -0.9845  0.5451
 2939TIP3    H230309   1.464   6.168  15.739  1.0277 -0.6794  0.2139
 2940TIP3   OH230310   1.327   4.428  12.226 -0.2895  0.1490 -0.5004
 2940TIP3    H130311   1.377   4.349  12.249 -0.1281  0.5624  0.6291
 2940TIP3    H230312   1.394   4.490  12.198 -0.1103  0.7260  1.0791
 2941TIP3   OH230313   2.587   4.500  10.921  0.4511  0.3231  0.4401
 2941TIP3    H130314   2.533   4.424  10.943 -0.0714  0.9601  1.3905
 2941TIP3    H230315   2.620   4.481  10.833  1.2368 -1.5287  1.0672
 2942TIP3   OH230316   2.258   0.893  12.211  0.3492  0.4499  0.0629
 2942TIP3    H130317   2.178   0.910  12.261  1.4634  1.0622  1.7539
 2942TIP3    H230318   2.256   0.799  12.195 -0.2663  0.2942  0.9325
 2943TIP3   OH230319   5.001   0.112  14.945  0.4680 -0.4274 -0.2216
 2943TIP3    H130320   4.927   0.068  14.988  1.6642 -1.1037  1.2177
 2943TIP3    H230321   5.023   0.056  14.871  0.7430 -1.2372  0.4680
 2944TIP3   OH230322   1.258   0.568  11.504  0.3912 -0.0908  0.1156
 2944TIP3    H130323   1.179   0.529  11.466  0.2691 -0.2821  0.5609
 2944TIP3    H230324   1.304   0.494  11.543 -0.7689  0.4272  2.6366
 2945TIP3   OH230325   1.059   1.472  11.708 -0.0984  0.0273  0.4455
 2945TIP3    H130326   1.036   1.483  11.800 -1.3571  2.4747 -0.0793
 2945TIP3    H230327   0.978   1.441  11.667  0.7097 -1.9866  0.2413
 2946TIP3   OH230328   6.344   3.658   6.411  0.2540 -0.1005  0.4579
 2946TIP3    H130329   6.269   3.600   6.400 -0.3400  0.8554 -0.8832
 2946TIP3    H230330   6.337   3.689   6.501 -0.9885 -0.0031  0.3527
 2947TIP3   OH230331   5.578   3.684  14.297 -0.1817 -0.0986  0.4522
 2947TIP3    H130332   5.619   3.600  14.319  2.7947  0.7781 -1.1449
 2947TIP3    H230333   5.590   3.737  14.376  0.2605 -0.3849  0.5830
 2948TIP3   OH230334   4.066   1.223  16.070 -0.2191 -0.6247  0.3178
 2948TIP3    H130335   4.023   1.277  16.004 -0.4688  0.9986  1.7527
 2948TIP3    H230336   4.158   1.250  16.067 -0.6285  1.2137  2.1918
 2949TIP3   OH230337   3.323   5.929   1.889 -0.3229 -0.4741 -0.3228
 2949TIP3    H130338   3.259   5.987   1.930 -0.5525 -0.5459 -0.5822
 2949TIP3    H230339   3.405   5.948   1.935 -0.7395 -1.1346  0.7304
 2950TIP3   OH230340   4.902   1.128  12.799  0.1909  0.6663  0.7913
 2950TIP3    H130341   4.821   1.094  12.836  0.9541  0.3000  2.2186
 2950TIP3    H230342   4.922   1.070  12.726 -0.3517  0.2049  1.0038
 2951TIP3   OH230343   1.805   5.034  15.717  0.0396 -0.4450  0.0824
 2951TIP3    H130344   1.715   5.066  15.710  0.1832 -0.2103 -0.8326
 2951TIP3    H230345   1.843   5.049  15.631  1.0512 -0.2706  0.5400
 2952TIP3   OH230346   0.698   5.465   1.142  0.7323 -0.3565 -0.8184
 2952TIP3    H130347   0.657   5.464   1.229  0.3847 -0.2130 -0.9796
 2952TIP3    H230348   0.689   5.555   1.113 -2.9111 -1.1952 -2.7711
 2953TIP3   OH230349   4.775   6.161   1.501 -0.2210 -0.3431  0.0794
 2953TIP3    H130350   4.786   6.072   1.535  0.9558 -0.5031 -0.6738
 2953TIP3    H230351   4.681   6.170   1.487 -0.3892 -1.3418  0.5193
 2954TIP3   OH230352   6.245   4.182   2.511 -0.4831 -0.1003 -0.1515
 2954TIP3    H130353   6.227   4.097   2.551  0.0155 -0.3718 -0.5058
 2954TIP3    H230354   6.158   4.214   2.483 -0.3772 -1.9840 -3.0203
 2955TIP3   OH230355   6.427   2.245   1.150  0.3801 -0.3498  0.0169
 2955TIP3    H130356   6.494   2.298   1.192  0.4181 -0.1916 -0.2447
 2955TIP3    H230357   6.469   2.209   1.072  0.5510 -1.2762  0.5174
 2956TIP3   OH230358   1.610   4.731  15.104 -0.7574 -0.1963 -0.2723
 2956TIP3    H130359   1.570   4.810  15.139  0.7223  1.8637 -2.7987
 2956TIP3    H230360   1.702   4.738  15.130  0.5376  1.6999 -4.4633
 2957TIP3   OH230361   4.824   2.088   0.029  0.4149 -0.3308  0.4359
 2957TIP3    H130362   4.779   2.045   0.101 -0.4615 -0.2627 -0.0624
 2957TIP3    H230363   4.915   2.058   0.036  0.2379 -0.6898  1.2779
 2958TIP3   OH230364   4.711   6.649   0.442 -0.0672 -0.6880  0.2200
 2958TIP3    H130365   4.653   6.650   0.366 -0.0744 -0.3232  0.2319
 2958TIP3    H230366   4.730   6.741   0.460  1.2711 -0.8182 -0.3625
 2959TIP3   OH230367   0.325   6.083   5.682 -0.0554  0.5407  0.1435
 2959TIP3    H130368   0.288   6.049   5.600  1.7563 -0.7333 -0.2092
 2959TIP3    H230369   0.410   6.119   5.657  0.5970 -0.0037  1.4688
 2960TIP3   OH230370   2.685   4.605  11.160  0.2090  0.3748 -0.0529
 2960TIP3    H130371   2.622   4.571  11.223 -0.4649  0.1618 -0.8334
 2960TIP3    H230372   2.649   4.582  11.075  0.7531  1.2764 -0.5438
 2961TIP3   OH230373   3.389   0.232  16.710 -0.2220  0.5109 -0.7147
 2961TIP3    H130374   3.355   0.237  16.800  1.3806 -1.1573  0.0473
 2961TIP3    H230375   3.413   0.322  16.689  1.6723  0.6546  1.5479
 2962TIP3   OH230376   1.383   1.020  13.181 -0.4228 -0.2515  0.2742
 2962TIP3    H130377   1.306   1.001  13.235  0.0219 -1.4071  0.5161
 2962TIP3    H230378   1.457   1.003  13.239  0.0748 -1.8383 -0.7802
 2963TIP3   OH230379   1.276   1.037  14.003 -0.3575 -0.7048 -0.0951
 2963TIP3    H130380   1.313   1.089  14.075  0.4022 -0.7472 -0.4418
 2963TIP3    H230381   1.208   1.093  13.967 -1.6277 -1.1888  1.4387
 2964TIP3   OH230382   3.066   5.436   3.063  0.5817  0.3881  0.0723
 2964TIP3    H130383   3.118   5.381   3.122 -1.3294  1.4357  2.9138
 2964TIP3    H230384   2.999   5.377   3.029  0.0976  0.3421  1.0698
 2965TIP3   OH230385   5.792   3.842  16.593 -0.2112 -0.3492 -0.7747
 2965TIP3    H130386   5.726   3.772  16.596  0.3203 -0.8154  0.7377
 2965TIP3    H230387   5.788   3.883  16.679  0.7271  0.3313 -1.0421
 2966TIP3   OH230388   4.627   6.215  13.383  0.1204  0.2137  0.0207
 2966TIP3    H130389   4.580   6.219  13.299 -1.1161 -0.5868  0.6443
 2966TIP3    H230390   4.607   6.128  13.417  1.3875  0.1737  0.7275
 2967TIP3   OH230391   4.242   5.359  11.671 -0.1845  0.0414  0.1065
 2967TIP3    H130392   4.166   5.418  11.662  1.3643  2.4206  1.5070
 2967TIP3    H230393   4.306   5.410  11.721  2.6412 -1.6082 -1.5881
 2968TIP3   OH230394   4.075   1.132  11.491 -0.0866  0.2590 -0.4464
 2968TIP3    H130395   4.121   1.214  11.472 -0.5711  0.4525 -0.8066
 2968TIP3    H230396   4.140   1.078  11.535  0.6252  0.3672 -1.3303
 2969TIP3   OH230397   1.166   5.344   4.532  0.1113 -0.2809 -0.2075
 2969TIP3    H130398   1.131   5.324   4.619 -0.6879  0.5023 -0.3305
 2969TIP3    H230399   1.124   5.281   4.474 -0.8425  0.4175 -0.2978
 2970TIP3   OH230400   3.655   5.756  13.331 -0.3060 -0.0810  0.3441
 2970TIP3    H130401   3.695   5.670  13.347 -0.7250 -0.3164  0.1686
 2970TIP3    H230402   3.633   5.754  13.237  1.9676  1.2001 -0.2791
 2971TIP3   OH230403   2.828   1.560   4.188  0.3565 -0.0725 -0.3283
 2971TIP3    H130404   2.826   1.482   4.245 -0.2023  0.3916  0.3101
 2971TIP3    H230405   2.762   1.618   4.226  1.8729  1.3748  0.1653
 2972TIP3   OH230406   4.566   5.573   4.010  0.4354  0.1843 -0.1161
 2972TIP3    H130407   4.557   5.504   3.945  1.9022  0.4045 -0.5843
 2972TIP3    H230408   4.541   5.532   4.093  2.5973 -1.3672 -0.1535
 2973TIP3   OH230409   4.178   3.092   4.273  0.3097  0.6935  0.1724
 2973TIP3    H130410   4.166   3.061   4.362 -0.5716 -0.1530 -0.2163
 2973TIP3    H230411   4.089   3.111   4.243  0.3781 -0.8547 -1.1458
 2974TIP3   OH230412   1.371   1.602  15.007  0.9151  0.4309 -0.3529
 2974TIP3    H130413   1.386   1.529  14.947  0.2361 -1.2388  1.4249
 2974TIP3    H230414   1.276   1.604  15.019  1.0829  0.3053  1.1572
 2975TIP3   OH230415   1.454   0.095   3.371  0.0517 -0.1456 -0.6872
 2975TIP3    H130416   1.487   0.015   3.330 -0.7158 -1.2961  0.8583
 2975TIP3    H230417   1.399   0.135   3.303  0.2478 -1.0588 -1.4037
 2976TIP3   OH230418   6.694   4.507  13.454  0.2740  0.3869 -0.1934
 2976TIP3    H130419   6.601   4.491  13.473  0.2547 -0.1737 -0.7211
 2976TIP3    H230420   6.735   4.511  13.540  0.3912 -3.3189  0.1062
 2977TIP3   OH230421   3.558   1.238  16.481 -0.1039  0.6242  0.3011
 2977TIP3    H130422   3.529   1.163  16.533 -0.8375  1.5881  1.3434
 2977TIP3    H230423   3.647   1.217  16.454 -0.5166 -0.8845  0.0354
 2978TIP3   OH230424   6.062   1.559  14.733  0.6922 -0.0421  0.7086
 2978TIP3    H130425   6.088   1.640  14.690 -0.0286  0.3908  1.0805
 2978TIP3    H230426   6.058   1.581  14.826  0.3909 -0.4770  0.8038
 2979TIP3   OH230427   4.913   4.664   2.015 -0.3482  0.3020  0.0282
 2979TIP3    H130428   4.873   4.589   2.059  0.7960 -0.8578 -0.8434
 2979TIP3    H230429   4.875   4.740   2.060 -1.1788 -0.7782  1.2578
 2980TIP3   OH230430   5.488   5.643  16.364 -0.8111 -0.2640  0.6837
 2980TIP3    H130431   5.480   5.549  16.349 -1.2966 -0.2059  0.5654
 2980TIP3    H230432   5.446   5.657  16.449 -0.0398 -0.2675  1.0703
 2981TIP3   OH230433   4.471   5.324   6.518 -0.6542  0.4492 -0.4574
 2981TIP3    H130434   4.444   5.245   6.565  0.0935  1.0181  0.9646
 2981TIP3    H230435   4.418   5.394   6.556  1.3550  1.2596  1.0346
 2982TIP3   OH230436   5.891   4.843   2.601  1.1489 -0.2445 -0.3013
 2982TIP3    H130437   5.841   4.924   2.587  1.2774 -0.4310 -2.0267
 2982TIP3    H230438   5.880   4.793   2.520  1.3484 -1.8283  0.6036
 2983TIP3   OH230439   3.059   2.539   2.479 -0.3973 -0.5820  0.6039
 2983TIP3    H130440   3.067   2.570   2.389  1.5104 -0.4871  0.7713
 2983TIP3    H230441   2.967   2.553   2.501 -1.0538 -1.1394 -1.5107
 2984TIP3   OH230442   6.713   2.400   4.120  0.0166 -0.2000  0.2907
 2984TIP3    H130443   6.751   2.409   4.033 -1.1590  1.7015 -0.0920
 2984TIP3    H230444   6.787   2.380   4.177  1.0077 -0.1678 -0.9447
 2985TIP3   OH230445   5.822   4.050  15.701  0.5726 -0.0701  0.3564
 2985TIP3    H130446   5.896   4.034  15.760 -0.0479  2.7770  2.1372
 2985TIP3    H230447   5.862   4.068  15.616  1.7975 -0.3183  0.8631
 2986TIP3   OH230448   5.740   5.888  14.337  0.4556  0.3214 -0.1013
 2986TIP3    H130449   5.762   5.884  14.244  0.7380 -0.9090 -0.0094
 2986TIP3    H230450   5.719   5.797  14.360 -0.5997  0.7737  0.8059
 2987TIP3   OH230451   6.835   4.601   2.837  0.2093  0.1695  0.3705
 2987TIP3    H130452   6.835   4.644   2.922 -0.6018  0.8389  0.0516
 2987TIP3    H230453   6.846   4.672   2.774 -0.5292 -0.1419 -0.1338
 2988TIP3   OH230454   5.551   3.277  10.578 -0.7809  0.2276 -0.3793
 2988TIP3    H130455   5.559   3.192  10.621  1.8822  0.4652 -0.2004
 2988TIP3    H230456   5.573   3.261  10.487 -0.3476  0.6840 -0.3645
 2989TIP3   OH230457   0.477   3.194  16.292  0.4404  0.0148 -0.0918
 2989TIP3    H130458   0.442   3.116  16.250 -0.2419 -0.5007  1.3506
 2989TIP3    H230459   0.566   3.169  16.319  0.5476  0.0385 -0.4276
 2990TIP3   OH230460   1.930   6.233   3.590 -0.4375 -0.4189 -0.3399
 2990TIP3    H130461   1.955   6.276   3.672 -1.1798 -0.8191  0.0999
 2990TIP3    H230462   1.858   6.286   3.556  0.3306  0.1655 -1.1143
 2991TIP3   OH230463   3.268   0.997   3.643 -0.1418 -0.0489  0.2281
 2991TIP3    H130464   3.274   1.064   3.711  0.6832 -0.3262  0.4366
 2991TIP3    H230465   3.358   0.968   3.629  0.0496  1.5374 -2.5450
 2992TIP3   OH230466   2.190   6.569  13.687  0.6012  0.1251 -0.0443
 2992TIP3    H130467   2.193   6.628  13.611  0.9247  0.0249 -0.1147
 2992TIP3    H230468   2.251   6.499  13.664 -0.5959 -0.8117 -0.4282
 2993TIP3   OH230469   0.831   2.049  13.135  0.0007  0.1184  0.1376
 2993TIP3    H130470   0.810   2.079  13.224  1.4643 -0.4431  0.7034
 2993TIP3    H230471   0.829   1.954  13.141 -3.3248 -0.0354 -1.3330
 2994TIP3   OH230472   1.957   4.561   4.482  0.6932  0.0631 -0.7112
 2994TIP3    H130473   2.042   4.605   4.491  0.4423  0.6465 -1.1595
 2994TIP3    H230474   1.907   4.616   4.421  0.2985 -0.7385 -1.1263
 2995TIP3   OH230475   1.006   3.738   1.245 -0.3351 -1.0597 -0.0732
 2995TIP3    H130476   0.916   3.707   1.251 -0.2501 -1.5751 -1.1204
 2995TIP3    H230477   1.053   3.665   1.204  0.6764 -1.0173  0.9464
 2996TIP3   OH230478   6.270   0.199   3.984 -0.0775  0.2820  0.2455
 2996TIP3    H130479   6.279   0.167   4.074 -2.7181  0.8537  0.8087
 2996TIP3    H230480   6.355   0.237   3.964  0.7600 -0.3463  2.3013
 2997TIP3   OH230481   0.351   2.342  16.282 -0.1948 -0.1076  0.0427
 2997TIP3    H130482   0.385   2.362  16.370  0.4661 -0.3614 -0.1498
 2997TIP3    H230483   0.352   2.426  16.236  1.8579 -0.3997 -0.5218
 2998TIP3   OH230484   2.460   2.351  11.044  0.0434  0.1010  0.7461
 2998TIP3    H130485   2.453   2.261  11.012  0.8043  0.0062  0.8104
 2998TIP3    H230486   2.461   2.405  10.964 -1.6192  0.1616  0.7481
 2999TIP3   OH230487   6.463   5.286  11.225  0.2371 -0.0542  0.0797
 2999TIP3    H130488   6.558   5.283  11.234  0.1504  1.1165  1.7578
 2999TIP3    H230489   6.432   5.206  11.268  0.4457 -0.5642 -0.6892
 3000TIP3   OH230490   2.433   5.885  17.115 -0.8035 -0.2867  0.1477
 3000TIP3    H130491   2.358   5.892  17.174  0.4992  0.1994  1.8647
 3000TIP3    H230492   2.497   5.948  17.150  1.3422 -2.3871  0.2929
 3001TIP3   OH230493   3.570   0.853   0.400 -0.1185 -0.4862  0.1703
 3001TIP3    H130494   3.658   0.853   0.363 -0.5690  1.8778 -1.0800
 3001TIP3    H230495   3.571   0.923   0.464 -1.5115  0.7317 -1.0745
 3002TIP3   OH230496   0.668   3.972   2.334 -0.2049  0.4205 -0.0100
 3002TIP3    H130497   0.729   4.042   2.311  0.9445 -0.7565 -0.6157
 3002TIP3    H230498   0.604   3.973   2.263 -0.9798  1.6957  0.6582
 3003TIP3   OH230499   4.804   0.014  15.419  0.9419  0.0221  0.2811
 3003TIP3    H130500   4.850   0.097  15.433  0.0208  0.4869  0.6622
 3003TIP3    H230501   4.861  -0.036  15.360 -0.4424  2.6657 -3.7433
 3004TIP3   OH230502   3.653   6.480   2.393 -0.0274 -0.3308 -0.5234
 3004TIP3    H130503   3.619   6.405   2.443 -0.1374  1.0139  1.5252
 3004TIP3    H230504   3.745   6.458   2.378 -0.7201 -2.1897 -2.6261
 3005TIP3   OH230505   4.796   1.777   6.163  0.2554 -0.3985 -0.2776
 3005TIP3    H130506   4.873   1.732   6.199  0.1601 -2.1269 -2.0522
 3005TIP3    H230507   4.736   1.706   6.141 -0.9791  0.7982 -0.8707
 3006TIP3   OH230508   2.636   5.502  11.050  0.3676  0.0248 -0.0541
 3006TIP3    H130509   2.602   5.554  11.123  0.0403  0.9207 -0.8216
 3006TIP3    H230510   2.628   5.560  10.974  3.5879  0.3157 -0.3205
 3007TIP3   OH230511   0.385   5.908  13.089  0.2343  0.6230 -0.2321
 3007TIP3    H130512   0.331   5.978  13.053 -0.5249  0.8268  1.2205
 3007TIP3    H230513   0.336   5.876  13.165  1.1750 -0.6194 -0.1094
 3008TIP3   OH230514   4.809   0.649  15.765  0.2899 -0.1088 -0.0233
 3008TIP3    H130515   4.741   0.713  15.784  0.9088  0.9269 -1.1710
 3008TIP3    H230516   4.786   0.573  15.818 -1.8335  0.1642 -0.4937
 3009TIP3   OH230517   2.661   4.191   4.843 -0.3776 -0.4253  0.1931
 3009TIP3    H130518   2.622   4.269   4.802  1.1098 -0.9769 -2.5406
 3009TIP3    H230519   2.589   4.130   4.853 -0.9615  0.0322 -1.0110
 3010TIP3   OH230520   6.237   1.231   1.781  0.2021 -0.3317 -0.1736
 3010TIP3    H130521   6.278   1.168   1.840  1.9038  0.2694 -0.6335
 3010TIP3    H230522   6.309   1.258   1.723 -0.0962  2.9821  0.8136
 3011TIP3   OH230523   1.945   2.844  14.400 -0.0898  0.2419 -0.3035
 3011TIP3    H130524   2.020   2.799  14.439  0.1632  0.2739 -0.7546
 3011TIP3    H230525   1.972   2.936  14.395 -0.0446  0.2057 -0.7391
 3012TIP3   OH230526   3.537   2.421   1.374 -0.0065 -0.2102  0.3634
 3012TIP3    H130527   3.583   2.481   1.315  0.3899 -0.5580  0.3149
 3012TIP3    H230528   3.487   2.364   1.316  0.4602 -0.6159  0.3542
 3013TIP3   OH230529   5.571   5.415   5.320 -0.1473 -0.0727  0.4047
 3013TIP3    H130530   5.505   5.353   5.350 -1.5333  1.2077  0.1160
 3013TIP3    H230531   5.559   5.418   5.225 -0.3550  0.9138  0.4560
 3014TIP3   OH230532   2.060   3.507   3.471  0.3260  0.1176  0.0392
 3014TIP3    H130533   1.966   3.510   3.450  0.8422  1.7222 -2.4419
 3014TIP3    H230534   2.104   3.518   3.386  2.7652  1.2203  1.3420
 3015TIP3   OH230535   6.147   5.439   3.578  0.3780  0.0572 -0.6714
 3015TIP3    H130536   6.237   5.443   3.612  0.7517 -1.6362 -1.3859
 3015TIP3    H230537   6.137   5.349   3.547 -1.5069  0.2818 -0.8037
 3016TIP3   OH230538   2.408   1.937   5.204 -0.2691  0.1816  0.0257
 3016TIP3    H130539   2.426   1.865   5.144 -0.9090  0.8240 -0.9669
 3016TIP3    H230540   2.320   1.966   5.181 -0.6943  0.1749  1.5620
 3017TIP3   OH230541   5.186   6.412  15.973  0.1201 -0.0559  0.0280
 3017TIP3    H130542   5.229   6.457  16.046 -1.6287  0.9692  0.5106
 3017TIP3    H230543   5.095   6.443  15.978 -1.1550 -3.4824  0.2006
 3018TIP3   OH230544   1.815   0.719  13.487  0.1646 -0.0693 -0.6274
 3018TIP3    H130545   1.771   0.764  13.415 -0.9803  0.7158  0.5080
 3018TIP3    H230546   1.743   0.693  13.546  1.0313 -1.0654  0.0197
 3019TIP3   OH230547   3.591   3.805   2.598  0.4722 -0.4047  0.6255
 3019TIP3    H130548   3.630   3.889   2.623 -0.9449  0.4373  0.1165
 3019TIP3    H230549   3.648   3.773   2.528  1.7215 -0.4831  1.6329
 3020TIP3   OH230550   3.894   0.034   4.037 -1.0989 -0.0837  0.1818
 3020TIP3    H130551   3.903   0.127   4.058 -1.4757  0.1586 -0.6762
 3020TIP3    H230552   3.911  -0.011   4.119  0.0870  0.7003  0.3925
 3021TIP3   OH230553   2.174   1.461  15.497  0.3101 -0.6142 -0.3794
 3021TIP3    H130554   2.225   1.409  15.558  1.1240  0.7096  0.1256
 3021TIP3    H230555   2.240   1.509  15.445 -0.2423  2.8034  1.7267
 3022TIP3   OH230556   2.341   6.543   4.492  0.1529  0.3876 -0.0888
 3022TIP3    H130557   2.301   6.472   4.443  1.2287 -0.0818 -0.3146
 3022TIP3    H230558   2.301   6.623   4.457  0.7938  0.0548 -1.6538
 3023TIP3   OH230559   3.108   5.457  11.661 -0.7720  0.3862  0.3863
 3023TIP3    H130560   3.072   5.421  11.580 -0.7881 -0.1308  0.6220
 3023TIP3    H230561   3.047   5.427  11.730  1.0502 -2.1013  1.0639
 3024TIP3   OH230562   2.489   4.528  17.071 -1.1469  0.7112  0.1102
 3024TIP3    H130563   2.504   4.448  17.021  1.4127 -1.0525  3.2597
 3024TIP3    H230564   2.542   4.595  17.027 -1.2070 -0.0097 -1.0915
 3025TIP3   OH230565   6.835   1.615  12.547  0.4412  0.4802  0.3700
 3025TIP3    H130566   6.784   1.600  12.468 -0.6389  0.4328  1.0671
 3025TIP3    H230567   6.870   1.528  12.569 -0.0214  0.3193  0.4696
 3026TIP3   OH230568   3.161   4.229  15.149  0.5478 -0.0639 -0.6206
 3026TIP3    H130569   3.185   4.209  15.240 -0.4985 -1.9856 -0.6980
 3026TIP3    H230570   3.235   4.278  15.114  1.6260 -0.5669  0.8484
 3027TIP3   OH230571   0.439   4.875  11.828 -0.2715  0.1555  0.5918
 3027TIP3    H130572   0.422   4.956  11.876  0.4374  0.6378  0.0645
 3027TIP3    H230573   0.428   4.899  11.736  0.2344 -0.2717  0.4145
 3028TIP3   OH230574   3.044   1.975  16.911 -0.1607 -0.8602 -0.1416
 3028TIP3    H130575   3.041   1.985  16.816 -1.1820 -1.1394 -0.1474
 3028TIP3    H230576   2.971   2.028  16.943 -1.5723 -2.9366  0.2785
 3029TIP3   OH230577   0.232   0.987   5.921 -0.1912 -0.2559 -0.0856
 3029TIP3    H130578   0.167   0.953   5.982 -0.8288  0.4249 -0.3716
 3029TIP3    H230579   0.306   1.013   5.976 -0.8855  0.6427  0.4407
 3030TIP3   OH230580   2.827   1.937  14.552  0.5875  0.3160 -0.1912
 3030TIP3    H130581   2.867   1.877  14.489 -0.9471 -0.0334 -0.8641
 3030TIP3    H230582   2.857   1.905  14.637  0.3314 -1.0292 -0.5822
 3031TIP3   OH230583   4.849   0.475  14.357 -0.1660 -0.2104  0.0401
 3031TIP3    H130584   4.926   0.420  14.368  0.3836  0.1931 -1.4606
 3031TIP3    H230585   4.829   0.469  14.263 -0.9016  1.0801  0.0929
 3032TIP3   OH230586   1.942   3.137  16.358 -0.2682 -0.2266  0.3059
 3032TIP3    H130587   1.873   3.117  16.422  0.3989  0.2681  1.1962
 3032TIP3    H230588   1.929   3.073  16.288 -2.4232  0.6326 -0.1684
 3033TIP3   OH230589   2.807   6.183   0.530 -0.0423 -0.0621 -0.2366
 3033TIP3    H130590   2.728   6.178   0.584  0.7468  0.2708  0.9926
 3033TIP3    H230591   2.877   6.154   0.588  0.5265 -2.1983 -1.8645
 3034TIP3   OH230592   5.537   3.877  11.614  0.0505 -0.6911  0.1735
 3034TIP3    H130593   5.443   3.864  11.624  0.1396 -1.2564  0.3112
 3034TIP3    H230594   5.574   3.789  11.613  0.4844 -0.5127 -0.8454
 3035TIP3   OH230595   3.605   4.785  15.056 -0.2236 -0.2117  0.0816
 3035TIP3    H130596   3.655   4.860  15.087 -1.4139  0.6638 -0.0373
 3035TIP3    H230597   3.606   4.723  15.129 -0.7271  0.6900  0.8704
 3036TIP3   OH230598   1.071   2.970   0.607  0.4970  0.0905  0.1301
 3036TIP3    H130599   1.160   2.977   0.571  0.1939  0.4034 -0.5880
 3036TIP3    H230600   1.015   3.005   0.537 -0.2210 -0.4445  0.4341
 3037TIP3   OH230601   5.594   5.434  12.901  0.2206  0.5232  0.0774
 3037TIP3    H130602   5.585   5.359  12.843 -0.6075  1.3410 -0.8707
 3037TIP3    H230603   5.685   5.462  12.890  0.2024  0.3783 -0.4754
 3038TIP3   OH230604   0.057   6.556   5.624  0.3862  0.0428  0.0053
 3038TIP3    H130605   0.086   6.474   5.585 -0.3971 -0.3978  0.3219
 3038TIP3    H230606   0.082   6.549   5.716  0.0314  0.0201  0.1010
 3039TIP3   OH230607   6.011   6.342   2.684  0.3037  0.1728  0.0257
 3039TIP3    H130608   6.095   6.387   2.673 -0.0210  0.7984  0.0720
 3039TIP3    H230609   6.031   6.267   2.740  0.4644  1.4699  1.7779
 3040TIP3   OH230610   2.170   0.435   1.709 -0.1006 -0.1414  0.0081
 3040TIP3    H130611   2.114   0.426   1.786  1.0738 -1.0081  0.8045
 3040TIP3    H230612   2.116   0.480   1.644 -1.9507 -1.5632  0.4857
 3041TIP3   OH230613   0.252   2.322   1.901 -0.2398 -0.7625  0.4582
 3041TIP3    H130614   0.284   2.253   1.843  2.1204  1.0217 -0.5796
 3041TIP3    H230615   0.160   2.333   1.878  0.2706 -1.0670 -2.0554
 3042TIP3   OH230616   3.504   6.040   2.517  0.2673  0.4958 -0.0335
 3042TIP3    H130617   3.499   5.995   2.601  0.6148 -0.5981 -0.5741
 3042TIP3    H230618   3.529   6.130   2.539  0.8762  0.0890  0.9986
 3043TIP3   OH230619   1.280   3.183  10.845 -0.0830  0.2096 -0.0314
 3043TIP3    H130620   1.239   3.113  10.895  0.7528  0.3861  0.9404
 3043TIP3    H230621   1.209   3.246  10.829 -0.5457 -0.2367  0.2312
 3044TIP3   OH230622   2.351   0.486  16.408  0.0110  0.8859  0.7632
 3044TIP3    H130623   2.322   0.410  16.458 -1.3080  1.7995  1.4307
 3044TIP3    H230624   2.373   0.451  16.322 -2.2981 -0.0254  0.4817
 3045TIP3   OH230625   0.454   5.849   4.248 -0.2169 -0.7145  0.1927
 3045TIP3    H130626   0.379   5.856   4.190  0.9228 -0.0825 -1.2876
 3045TIP3    H230627   0.495   5.936   4.246  0.5826 -1.0557  0.9174
 3046TIP3   OH230628   6.480   2.617  11.852  0.4831 -0.1521  0.0775
 3046TIP3    H130629   6.513   2.624  11.763  2.0415 -1.3625  0.5045
 3046TIP3    H230630   6.426   2.537  11.851 -0.2134  0.3067  0.0381
 3047TIP3   OH230631   3.371   3.442   2.348 -0.6774 -0.6376  0.1248
 3047TIP3    H130632   3.380   3.390   2.268 -0.1868  0.5547 -0.6063
 3047TIP3    H230633   3.314   3.515   2.324 -1.9131 -1.1608  1.3249
 3048TIP3   OH230634   0.032   0.313   5.461  0.0472 -0.1426 -0.1584
 3048TIP3    H130635   0.112   0.271   5.492 -0.7433 -1.2130  0.4537
 3048TIP3    H230636   0.038   0.402   5.496  1.4904  0.1588 -1.0580
 3049TIP3   OH230637   4.709   1.784  14.985  0.7059 -0.1837 -0.0268
 3049TIP3    H130638   4.656   1.714  15.022  0.3733  0.1526  0.1407
 3049TIP3    H230639   4.667   1.804  14.901 -0.1531  0.8969  0.6432
 3050TIP3   OH230640   1.263   2.647  11.709  0.2783  0.1504  0.2907
 3050TIP3    H130641   1.319   2.684  11.777  1.1234 -0.7181  0.0864
 3050TIP3    H230642   1.301   2.561  11.690 -0.3166  0.1124 -0.8358
 3051TIP3   OH230643   2.965   0.755   4.812 -0.5120  0.7194  0.2595
 3051TIP3    H130644   3.021   0.831   4.826  0.4702 -0.0362  0.5636
 3051TIP3    H230645   3.018   0.680   4.839 -2.1727  0.0620  1.9425
 3052TIP3   OH230646   2.082   2.520  10.861 -0.1707 -0.3710  0.6160
 3052TIP3    H130647   2.163   2.545  10.816 -0.5125 -2.1825 -1.1375
 3052TIP3    H230648   2.032   2.601  10.869  0.2203  0.1490 -1.7158
 3053TIP3   OH230649   5.865   5.071   3.360 -0.3616  0.2850 -0.5789
 3053TIP3    H130650   5.878   5.011   3.433 -0.2736 -2.2290 -2.5189
 3053TIP3    H230651   5.776   5.105   3.372  0.6164  2.2698  2.1681
 3054TIP3   OH230652   4.338   4.042   4.820 -0.4361  0.1831  0.2430
 3054TIP3    H130653   4.314   4.132   4.797 -0.9260  0.6036  2.2176
 3054TIP3    H230654   4.393   4.051   4.897  0.0077 -1.1985  0.1097
 3055TIP3   OH230655   1.056   3.887   2.382  0.7725 -0.1273  0.2419
 3055TIP3    H130656   1.100   3.946   2.320  0.2881 -0.8891 -0.8478
 3055TIP3    H230657   0.987   3.845   2.331  0.0307 -0.4043  1.4351
 3056TIP3   OH230658   0.546   4.838  16.950 -0.0653 -0.0408  0.2632
 3056TIP3    H130659   0.530   4.923  16.990 -2.4580 -0.7776  1.0234
 3056TIP3    H230660   0.522   4.774  17.017  0.0733 -1.3245 -0.8556
 3057TIP3   OH230661   5.357   4.273   4.517  0.9505  0.5561  0.3973
 3057TIP3    H130662   5.353   4.181   4.493 -0.5127  0.7632 -0.2545
 3057TIP3    H230663   5.395   4.274   4.605  0.2048 -0.7317  0.7517
 3058TIP3   OH230664   6.316   6.414  14.676  0.5669  0.2045  0.0204
 3058TIP3    H130665   6.356   6.339  14.720 -2.5150 -0.5401  1.8607
 3058TIP3    H230666   6.235   6.379  14.639  0.4500  2.0469 -1.6421
 3059TIP3   OH230667   4.925   1.377  13.530  0.4159 -0.2520  0.3802
 3059TIP3    H130668   4.967   1.367  13.444  1.0962 -1.2555  0.8032
 3059TIP3    H230669   4.950   1.298  13.578 -2.0692 -0.9607  0.6507
 3060TIP3   OH230670   0.742   3.307  13.774 -0.1080  0.2657  0.3782
 3060TIP3    H130671   0.826   3.344  13.746 -1.1283  2.6690  0.1761
 3060TIP3    H230672   0.724   3.236  13.713  1.4304  0.1969 -0.0204
 3061TIP3   OH230673   2.254   2.218  11.909  0.0293  0.0951  0.5864
 3061TIP3    H130674   2.335   2.227  11.858  1.6279  3.5000  3.2964
 3061TIP3    H230675   2.284   2.204  11.999 -2.2307  2.9226  1.9396
 3062TIP3   OH230676   3.423   2.018  10.565 -0.1594  0.9868 -0.0625
 3062TIP3    H130677   3.403   1.925  10.577  0.4519  1.0271  1.5500
 3062TIP3    H230678   3.465   2.023  10.479 -0.6910 -0.1375 -0.4010
 3063TIP3   OH230679   5.537   6.363  13.690  0.8445 -0.1813  0.1460
 3063TIP3    H130680   5.590   6.402  13.621 -0.7336  1.2631 -0.2998
 3063TIP3    H230681   5.512   6.436  13.747 -3.9244  0.1735 -1.8545
 3064TIP3   OH230682   0.424   4.385   2.193 -0.5679 -0.4024 -0.3063
 3064TIP3    H130683   0.348   4.441   2.212 -1.0283 -1.3234  0.6826
 3064TIP3    H230684   0.494   4.422   2.246 -1.1492 -1.3454  1.1953
 3065TIP3   OH230685   4.509   3.504   4.690  0.4963 -0.1504 -0.1097
 3065TIP3    H130686   4.449   3.468   4.756 -1.1835 -0.4264 -1.7123
 3065TIP3    H230687   4.494   3.599   4.693  0.5139 -0.1504 -0.0169
 3066TIP3   OH230688   4.054   6.601   0.049  0.3818 -0.4184  0.4477
 3066TIP3    H130689   4.089   6.680   0.010 -0.8241  0.1298  0.4335
 3066TIP3    H230690   4.093   6.529  -0.001  1.5433  0.1571  0.5146
 3067TIP3   OH230691   3.668   4.381  15.422  0.1919 -0.3917  0.5883
 3067TIP3    H130692   3.713   4.298  15.408  1.9059  0.1472  2.3245
 3067TIP3    H230693   3.657   4.387  15.517 -1.9212  0.3873  0.3408
 3068TIP3   OH230694   2.572   0.649   0.558  0.3802 -0.2633 -0.1524
 3068TIP3    H130695   2.581   0.681   0.648 -1.8366 -2.2687  0.8687
 3068TIP3    H230696   2.629   0.572   0.553 -0.2953 -0.7711 -0.1247
 3069TIP3   OH230697   0.687   3.284   2.995 -0.8273  0.1923 -0.3356
 3069TIP3    H130698   0.596   3.260   3.010 -1.2619 -0.0706 -2.9192
 3069TIP3    H230699   0.722   3.212   2.942  0.7255  0.5904  0.0982
 3070TIP3   OH230700   1.752   2.704  13.663 -0.0718  0.0960 -0.2206
 3070TIP3    H130701   1.769   2.758  13.586  2.4936 -0.8759 -0.4349
 3070TIP3    H230702   1.737   2.616  13.629  0.6106 -0.2505  0.3318
 3071TIP3   OH230703   1.029   6.601  16.936 -0.4490 -0.3270 -0.5538
 3071TIP3    H130704   0.991   6.658  16.868 -1.6564 -1.0296 -0.4941
 3071TIP3    H230705   1.026   6.513  16.898 -1.9015 -0.8463  0.6948
 3072TIP3   OH230706   3.507   0.192  10.419 -1.0921 -0.5747  0.5912
 3072TIP3    H130707   3.577   0.152  10.368 -1.6048 -1.3947  0.5056
 3072TIP3    H230708   3.440   0.123  10.425 -1.8474  0.1608  0.7383
 3073TIP3   OH230709   0.460   0.270  14.365  0.6898 -0.4839 -0.4823
 3073TIP3    H130710   0.540   0.320  14.383 -0.1537  0.2523  1.4961
 3073TIP3    H230711   0.427   0.306  14.282  2.4532 -0.9265 -1.4316
 3074TIP3   OH230712   4.534   3.180   4.858  0.3199 -0.6854 -0.2167
 3074TIP3    H130713   4.522   3.099   4.808  0.3727 -0.5690 -0.4216
 3074TIP3    H230714   4.608   3.223   4.815  0.5583 -0.7241  0.1485
 3075TIP3   OH230715   0.465   2.799  16.003 -0.0835  0.3994 -0.2219
 3075TIP3    H130716   0.523   2.754  15.942 -0.4466  0.8475 -0.9062
 3075TIP3    H230717   0.406   2.730  16.034 -0.6157  0.3790 -1.2398
 3076TIP3   OH230718   2.713   1.135  12.596 -0.0676 -0.0518  0.3299
 3076TIP3    H130719   2.754   1.135  12.510  0.9374  1.4721  0.7573
 3076TIP3    H230720   2.785   1.154  12.657 -1.2500  2.1682  1.1534
 3077TIP3   OH230721   1.833   2.107  10.608 -0.2437 -0.2084 -0.3195
 3077TIP3    H130722   1.842   2.062  10.692 -1.9532  0.6625  0.3877
 3077TIP3    H230723   1.912   2.161  10.601 -0.4063  0.2630  1.1067
 3078TIP3   OH230724   3.207   5.425  12.413 -0.2723 -0.1339  0.2854
 3078TIP3    H130725   3.172   5.454  12.497 -1.9476  3.3556 -1.3861
 3078TIP3    H230726   3.297   5.457  12.412 -0.9351  1.8661 -0.0150
 3079TIP3   OH230727   3.639   3.012   2.896 -0.3243  0.2392  0.0700
 3079TIP3    H130728   3.686   2.943   2.848  0.2602 -0.2922  1.3475
 3079TIP3    H230729   3.547   2.993   2.882 -0.2075  1.0384 -2.1247
 3080TIP3   OH230730   6.692   3.636   1.862 -0.1318 -0.4629  0.1645
 3080TIP3    H130731   6.674   3.553   1.906 -2.2759 -0.3630 -0.4402
 3080TIP3    H230732   6.762   3.676   1.914  0.3548 -2.2395  0.9514
 3081TIP3   OH230733   0.793   0.205  13.098  0.1492  0.1874  0.4050
 3081TIP3    H130734   0.745   0.164  13.169  0.6342  0.0271  0.6485
 3081TIP3    H230735   0.868   0.146  13.083  1.6238  1.6483  1.6701
 3082TIP3   OH230736   1.370   0.448  10.425  0.2951 -0.7514 -0.1956
 3082TIP3    H130737   1.285   0.444  10.469 -0.1540 -0.5898 -1.0272
 3082TIP3    H230738   1.398   0.357  10.420  1.1569 -0.6630  1.9002
 3083TIP3   OH230739   2.975   1.993  13.457  0.7007 -0.2801  0.6129
 3083TIP3    H130740   2.990   1.922  13.520 -0.0040 -0.6836  0.3386
 3083TIP3    H230741   3.055   2.045  13.460  0.6804 -0.2934  1.8427
 3084TIP3   OH230742   3.766   1.624   2.525  0.4015  0.0978 -0.3117
 3084TIP3    H130743   3.809   1.695   2.476 -0.6476  1.0828  0.1620
 3084TIP3    H230744   3.743   1.560   2.458 -0.7895  1.3135 -1.1153
 3085TIP3   OH230745   3.412   5.695  14.167 -0.5985  0.3882  0.4907
 3085TIP3    H130746   3.445   5.690  14.077  0.6382 -2.4718  1.0009
 3085TIP3    H230747   3.491   5.706  14.220 -1.2314  1.0698  1.3088
 3086TIP3   OH230748   5.380   0.256  12.894  0.3104 -0.3725 -0.0960
 3086TIP3    H130749   5.329   0.336  12.905 -0.1432 -0.2842 -2.2697
 3086TIP3    H230750   5.379   0.240  12.799  4.1529 -0.5039 -0.2715
 3087TIP3   OH230751   3.954   4.629  16.573 -0.2157 -0.5600 -0.0085
 3087TIP3    H130752   4.030   4.623  16.631  1.4550  0.0754 -1.9905
 3087TIP3    H230753   3.974   4.571  16.500 -0.8828  0.7726 -1.3233
 3088TIP3   OH230754   4.315   3.508  16.217 -0.4834  0.0455 -0.2201
 3088TIP3    H130755   4.381   3.519  16.286 -1.3482 -0.8890  0.8028
 3088TIP3    H230756   4.277   3.595  16.206 -0.0147  0.3031  0.1333
 3089TIP3   OH230757   2.007   5.337  11.074 -0.8396  0.1941 -1.0219
 3089TIP3    H130758   2.082   5.323  11.017  0.6172 -1.8077  1.2072
 3089TIP3    H230759   1.954   5.258  11.064 -0.0183 -0.6941  1.0520
 3090TIP3   OH230760   2.102   0.186  14.649  0.1441 -0.1618  0.4853
 3090TIP3    H130761   2.125   0.123  14.717 -1.1549  0.3232  1.4144
 3090TIP3    H230762   2.018   0.223  14.677 -0.5688 -0.1310 -1.5217
 3091TIP3   OH230763   6.643   6.476  16.130  0.7506  0.1685  0.3929
 3091TIP3    H130764   6.623   6.565  16.101 -0.0730  0.0552  0.5890
 3091TIP3    H230765   6.734   6.481  16.161  1.3605  0.5045 -1.3276
 3092TIP3   OH230766   3.024   5.553   2.825  0.5420 -0.1955  0.7127
 3092TIP3    H130767   3.067   5.518   2.903  0.6413 -0.3520  0.5861
 3092TIP3    H230768   2.958   5.613   2.860  1.2700  0.5164  0.8953
 3093TIP3   OH230769   3.220   0.715   3.548 -0.0175 -0.3060  0.1135
 3093TIP3    H130770   3.209   0.808   3.571 -2.0506 -0.2271 -0.9529
 3093TIP3    H230771   3.269   0.717   3.466 -1.7551 -0.0234 -0.9609
 3094TIP3   OH230772   6.368   6.637   2.229  0.3901 -0.4079 -0.2095
 3094TIP3    H130773   6.460   6.646   2.252  1.0557 -2.5668 -1.6893
 3094TIP3    H230774   6.327   6.718   2.261  2.8957  0.9250 -0.1063
 3095TIP3   OH230775   2.103   3.120   4.145 -0.0715 -0.5725  0.0659
 3095TIP3    H130776   2.145   3.036   4.129  0.2085 -0.4393  0.0832
 3095TIP3    H230777   2.039   3.130   4.075 -0.1546 -0.8310  0.1055
 3096TIP3   OH230778   3.416   3.254   5.771 -0.1987 -0.2051  0.3699
 3096TIP3    H130779   3.435   3.174   5.722  0.9877  0.7444 -0.7790
 3096TIP3    H230780   3.359   3.305   5.713  1.5966  1.1372 -0.3390
 3097TIP3   OH230781   5.179   0.282   5.526  0.1178 -0.6851  0.2140
 3097TIP3    H130782   5.093   0.313   5.554  0.5848  1.7091 -0.7358
 3097TIP3    H230783   5.238   0.355   5.545  1.5802 -1.5133 -0.9455
 3098TIP3   OH230784   5.690   4.293   6.995  0.1876 -0.1798  0.5814
 3098TIP3    H130785   5.700   4.387   7.008  1.0087 -0.3124  0.9598
 3098TIP3    H230786   5.735   4.275   6.912 -0.8128 -0.0987  0.0027
 3099TIP3   OH230787   0.053   2.362  12.761 -0.2505 -0.9677  0.2501
 3099TIP3    H130788   0.047   2.457  12.763  1.7430 -0.8195  0.8864
 3099TIP3    H230789  -0.033   2.332  12.790 -0.8001  0.6222  0.3514
 3100TIP3   OH230790   2.049   3.358   2.016  0.5959  0.2167  0.0077
 3100TIP3    H130791   2.093   3.440   2.039 -1.4342  1.5931 -0.7099
 3100TIP3    H230792   2.056   3.354   1.920 -1.3495  0.8375 -0.1961
 3101TIP3   OH230793   3.560   2.340  10.861  0.0430 -0.0256  0.7097
 3101TIP3    H130794   3.472   2.313  10.836  0.9285 -2.2601 -0.1961
 3101TIP3    H230795   3.581   2.412  10.801 -0.5192 -0.6512 -0.2636
 3102TIP3   OH230796   3.587   3.099  15.853 -0.1741 -0.4180 -0.3926
 3102TIP3    H130797   3.555   3.189  15.866 -0.7984 -0.6323 -0.4024
 3102TIP3    H230798   3.648   3.106  15.779 -0.0156  0.0427 -0.2231
 3103TIP3   OH230799   2.612   6.312   1.723  0.2705 -0.3211 -0.0760
 3103TIP3    H130800   2.562   6.274   1.651  1.2694 -0.3500 -0.7758
 3103TIP3    H230801   2.703   6.306   1.694  0.6743 -0.1886  1.1299
 3104TIP3   OH230802   4.504   3.177   3.242 -0.2707  0.0256 -0.5375
 3104TIP3    H130803   4.537   3.087   3.244 -1.6727 -0.4984  0.3314
 3104TIP3    H230804   4.545   3.219   3.317  0.9314  0.3370 -1.3440
 3105TIP3   OH230805   4.080   3.182  13.739  0.0966 -0.2022  0.2822
 3105TIP3    H130806   4.052   3.224  13.820  0.7619 -1.4518  1.1985
 3105TIP3    H230807   4.150   3.123  13.766  0.5799 -0.3683 -1.2751
 3106TIP3   OH230808   0.478   6.715   2.483  0.4747 -0.2105 -0.0659
 3106TIP3    H130809   0.571   6.728   2.461  0.3277 -1.2993 -1.4086
 3106TIP3    H230810   0.432   6.721   2.400 -0.4194 -1.7576  0.2873
 3107TIP3   OH230811   6.694   2.572   2.802  0.0520  0.2453 -0.5403
 3107TIP3    H130812   6.609   2.574   2.846  0.9465  0.9910  1.2576
 3107TIP3    H230813   6.725   2.482   2.813  1.0497  0.8105  2.0946
 3108TIP3   OH230814   0.404   6.412  11.559  0.8784 -0.2181 -0.5571
 3108TIP3    H130815   0.454   6.470  11.502  0.2881 -0.1238 -0.9952
 3108TIP3    H230816   0.468   6.376  11.620  1.1080  1.7128  0.4315
 3109TIP3   OH230817   3.814   2.549  11.406 -0.0871  0.0530  0.4252
 3109TIP3    H130818   3.846   2.637  11.387  0.5187  0.1212  1.6276
 3109TIP3    H230819   3.756   2.528  11.333 -0.0416  1.3388 -0.0088
 3110TIP3   OH230820   0.896   2.759   0.892 -0.2285 -0.1321 -0.1625
 3110TIP3    H130821   0.928   2.689   0.835 -0.0862 -0.5958  0.4682
 3110TIP3    H230822   0.970   2.777   0.951 -0.4885  0.0955  0.0954
 3111TIP3   OH230823   0.936   6.033   4.994 -0.5729  0.6713  0.2683
 3111TIP3    H130824   1.001   6.050   4.926  0.2408 -0.1136  0.8075
 3111TIP3    H230825   0.853   6.060   4.957 -0.1324  0.3176 -1.0107
 3112TIP3   OH230826   1.721   2.536  11.813 -0.1122  0.6926 -0.0563
 3112TIP3    H130827   1.736   2.521  11.906 -0.1839 -0.1120 -0.1628
 3112TIP3    H230828   1.698   2.450  11.779  0.5667  0.8504 -0.9416
 3113TIP3   OH230829   5.655   3.761  15.876 -0.1454  0.5390 -0.3543
 3113TIP3    H130830   5.671   3.854  15.892  0.6135  0.4246 -0.4400
 3113TIP3    H230831   5.689   3.745  15.788 -2.0828  0.6167 -1.1672
 3114TIP3   OH230832   2.286   5.917   2.832  0.1694 -0.3677  0.3978
 3114TIP3    H130833   2.326   5.852   2.889 -0.0212 -0.1564  0.7749
 3114TIP3    H230834   2.200   5.933   2.871 -0.7486 -1.6115 -0.9796
 3115TIP3   OH230835   1.628   6.674   4.362 -0.0168 -0.0633 -0.2059
 3115TIP3    H130836   1.715   6.684   4.323  0.5279  3.6121  1.5647
 3115TIP3    H230837   1.645   6.656   4.454 -1.2173 -1.2198 -0.1787
 3116TIP3   OH230838   1.888   0.423   1.772 -0.3148  0.1256  0.5545
 3116TIP3    H130839   1.885   0.377   1.688  2.1424 -0.0330  0.4630
 3116TIP3    H230840   1.814   0.388   1.821 -1.9370  0.3633 -1.5762
 3117TIP3   OH230841   3.511   5.360   1.135 -0.2824  0.5137 -0.1772
 3117TIP3    H130842   3.603   5.364   1.158 -0.0093 -1.3659 -0.7303
 3117TIP3    H230843   3.488   5.449   1.107  1.2686  1.0660  0.2450
 3118TIP3   OH230844   5.923   5.265   2.218  0.4350 -0.3916 -0.1002
 3118TIP3    H130845   5.958   5.354   2.213  0.3890 -0.4340 -1.5536
 3118TIP3    H230846   5.989   5.210   2.174  0.3938 -1.0574  0.6480
 3119TIP3   OH230847   1.683   2.076   1.099  0.3568  0.3774 -0.5044
 3119TIP3    H130848   1.670   2.170   1.110 -0.5537  0.2424 -0.3521
 3119TIP3    H230849   1.736   2.051   1.175  0.4891  0.7462 -0.4710
 3120TIP3   OH230850   0.805   2.970   4.736 -0.0382 -0.4220  0.3099
 3120TIP3    H130851   0.899   2.982   4.720  0.2370  2.0999  2.9298
 3120TIP3    H230852   0.785   3.030   4.809 -3.9989  0.2174 -1.0437
 3121TIP3   OH230853   5.716   1.293   0.694  0.3339 -0.4440  0.6535
 3121TIP3    H130854   5.749   1.381   0.680 -2.4757  0.7629  0.9015
 3121TIP3    H230855   5.668   1.297   0.777 -0.9817 -1.7825  0.0237
 3122TIP3   OH230856   3.652   6.776   3.654  0.0240 -0.3010  0.3066
 3122TIP3    H130857   3.736   6.732   3.642  1.4172  1.5785  2.4427
 3122TIP3    H230858   3.663   6.828   3.733 -2.7101  1.1288 -0.1373
 3123TIP3   OH230859   3.225   3.665  14.628  0.9923 -0.4994  0.3478
 3123TIP3    H130860   3.244   3.637  14.718  0.7764 -1.2001  0.1749
 3123TIP3    H230861   3.170   3.743  14.639 -0.9271 -1.8595  0.8275
 3124TIP3   OH230862   1.189   1.621   0.009 -0.3738  0.2416  0.7822
 3124TIP3    H130863   1.183   1.682   0.082 -2.2846  1.3801 -0.2717
 3124TIP3    H230864   1.230   1.543   0.047  1.9532  2.0197  2.2112
 3125TIP3   OH230865   2.638   0.293  14.044  0.3748  0.7440 -0.1244
 3125TIP3    H130866   2.640   0.254  14.131  0.8951  0.4428 -0.2644
 3125TIP3    H230867   2.730   0.300  14.019  0.1980 -0.8378 -1.3771
 3126TIP3   OH230868   3.914   1.441  12.548  0.2894  0.4962  0.1386
 3126TIP3    H130869   3.842   1.479  12.599  0.4262  1.2633 -0.2164
 3126TIP3    H230870   3.902   1.347  12.557 -2.1627  0.5191 -1.7702
 3127TIP3   OH230871   1.258   6.274  12.927 -0.1672 -0.6156 -0.2042
 3127TIP3    H130872   1.301   6.357  12.907 -1.3850  0.1959  0.4363
 3127TIP3    H230873   1.314   6.207  12.887  1.6394  0.3864  0.5627
 3128TIP3   OH230874   1.764   5.660  11.868 -0.0015 -0.0154 -0.0547
 3128TIP3    H130875   1.711   5.596  11.916 -0.7473 -0.0487 -0.8929
 3128TIP3    H230876   1.705   5.693  11.800  1.0564 -0.0750 -1.0302
 3129TIP3   OH230877   5.988   1.603   3.095  0.4974  0.0530  0.0510
 3129TIP3    H130878   6.051   1.675   3.097 -0.8265  1.3667 -1.5404
 3129TIP3    H230879   6.011   1.554   3.016 -0.5702  0.6845 -0.6746
 3130TIP3   OH230880   3.874   5.675  14.214  0.1021 -0.5366 -0.5146
 3130TIP3    H130881   3.791   5.651  14.256  0.1589  2.2322  1.4353
 3130TIP3    H230882   3.940   5.623  14.261 -0.3018 -0.9685 -0.4219
 3131TIP3   OH230883   0.525   1.575  15.679 -0.0938  0.1994 -0.1387
 3131TIP3    H130884   0.543   1.631  15.754 -1.2134  2.1156 -1.2329
 3131TIP3    H230885   0.480   1.499  15.716  1.2228  0.0716  1.3408
 3132TIP3   OH230886   4.531   0.632  17.078 -0.2497  0.2364  0.2991
 3132TIP3    H130887   4.537   0.707  17.136  2.1559  1.3879 -1.2921
 3132TIP3    H230888   4.584   0.564  17.120  1.5019  1.0735 -0.4697
 3133TIP3   OH230889   2.998   3.251  13.219  0.3135  0.4088  0.3131
 3133TIP3    H130890   2.935   3.183  13.245  2.1611 -1.0797  1.0874
 3133TIP3    H230891   2.948   3.333  13.224 -1.5847 -0.7096  0.7646
 3134TIP3   OH230892   2.047   3.042   5.678  0.4323  0.5078 -0.4460
 3134TIP3    H130893   2.098   3.044   5.597  1.1412  0.9501  0.0086
 3134TIP3    H230894   2.108   3.068   5.746 -0.2871  0.6139  0.1735
 3135TIP3   OH230895   1.222   4.351   4.241 -0.0616  0.7095  1.2080
 3135TIP3    H130896   1.277   4.284   4.281 -0.3564  0.0433  0.5152
 3135TIP3    H230897   1.214   4.418   4.309  2.7229  1.5018  0.8878
 3136TIP3   OH230898   1.998   0.616   1.445 -0.4722 -0.0201  0.1419
 3136TIP3    H130899   1.970   0.528   1.468 -1.7007  0.3173  0.0123
 3136TIP3    H230900   2.093   0.611   1.444 -0.5037 -1.1634  0.8260
 3137TIP3   OH230901   3.553   3.733  14.886 -0.6627  0.0948 -0.2511
 3137TIP3    H130902   3.610   3.688  14.823 -0.6496 -1.6860  0.9542
 3137TIP3    H230903   3.465   3.725  14.849 -0.3187  1.9995 -1.6345
 3138TIP3   OH230904   2.948   5.408   2.580  0.4775 -0.0083 -0.2329
 3138TIP3    H130905   2.937   5.449   2.665 -0.6971 -0.6356 -0.0598
 3138TIP3    H230906   3.019   5.345   2.592  0.6373  0.2434  0.1448
 3139TIP3   OH230907   1.918   1.764   4.101 -0.1627  0.4625 -0.0012
 3139TIP3    H130908   1.982   1.835   4.088  0.0992  0.5555  1.5578
 3139TIP3    H230909   1.933   1.735   4.191 -1.5381 -0.3164  0.0044
 3140TIP3   OH230910   5.862   2.852  11.604 -0.3458  0.6515 -0.1253
 3140TIP3    H130911   5.841   2.939  11.639 -0.0904  0.2025  1.2239
 3140TIP3    H230912   5.903   2.807  11.678  1.3456  0.0396 -1.3613
 3141TIP3   OH230913   3.087   5.691   3.934 -0.3240 -0.2088  0.2987
 3141TIP3    H130914   3.161   5.633   3.948 -0.9478 -1.1907 -0.3128
 3141TIP3    H230915   3.011   5.633   3.932 -0.7738  0.3423 -2.2750
 3142TIP3   OH230916   2.636   4.857  11.998  0.1529 -0.2208 -0.2297
 3142TIP3    H130917   2.551   4.887  11.965 -0.7798 -1.5989  0.8166
 3142TIP3    H230918   2.614   4.801  12.072  1.9256 -1.5640 -0.6784
 3143TIP3   OH230919   4.569   3.587   4.128 -0.1642 -0.1156  0.2634
 3143TIP3    H130920   4.565   3.633   4.213 -2.3179  2.5945 -1.1338
 3143TIP3    H230921   4.492   3.531   4.128 -1.0748  1.0820 -0.4367
 3144TIP3   OH230922   2.819   4.888   1.303  0.1768 -0.0395 -0.0832
 3144TIP3    H130923   2.815   4.799   1.268 -0.8022  0.7014 -1.9953
 3144TIP3    H230924   2.909   4.896   1.335 -0.0975 -2.1334  1.4736
 3145TIP3   OH230925   4.442   5.977  13.205 -0.3908  0.2313 -0.0101
 3145TIP3    H130926   4.523   5.927  13.204  1.0316  2.4205 -0.9164
 3145TIP3    H230927   4.434   6.007  13.295 -1.2134 -1.4319  0.5240
 3146TIP3   OH230928   1.642   6.466  14.429 -0.2149 -0.3978 -0.0490
 3146TIP3    H130929   1.583   6.535  14.397 -0.0326 -0.7356 -1.1772
 3146TIP3    H230930   1.620   6.390  14.375  0.0397 -1.0346  0.7409
 3147TIP3   OH230931   0.753   6.781   5.010 -0.4535 -0.7689  0.1957
 3147TIP3    H130932   0.743   6.745   5.098 -1.0245  0.3420  0.6060
 3147TIP3    H230933   0.665   6.810   4.986 -0.2084 -0.6136 -0.5464
 3148TIP3   OH230934   1.868   3.694   1.417  0.1892  0.2935  0.5133
 3148TIP3    H130935   1.802   3.624   1.423  1.0443 -0.6184 -0.3132
 3148TIP3    H230936   1.818   3.775   1.425 -1.0504 -0.3751 -0.1939
 3149TIP3   OH230937   5.087   3.677   0.692  0.6289 -0.2640 -0.0800
 3149TIP3    H130938   5.097   3.772   0.678  1.7265 -0.5114 -1.1099
 3149TIP3    H230939   5.167   3.651   0.735  1.1361 -1.0052 -1.4118
 3150TIP3   OH230940   0.216   3.390  17.064  0.2196  0.6051 -0.0576
 3150TIP3    H130941   0.235   3.395  16.971  1.9180  2.1324  0.3265
 3150TIP3    H230942   0.264   3.313  17.094  0.5570  0.7310 -0.2655
 3151TIP3   OH230943   6.667   4.030  14.335 -0.3836  0.2388  0.2080
 3151TIP3    H130944   6.583   4.016  14.292 -1.2298 -0.3072  1.9443
 3151TIP3    H230945   6.653   4.108  14.389  0.6635  0.9415 -0.5027
 3152TIP3   OH230946   4.916   0.468   1.354  0.0217  0.3165  0.6188
 3152TIP3    H130947   4.921   0.411   1.278  0.5973  0.3924  0.5957
 3152TIP3    H230948   4.858   0.539   1.327  1.4365  1.1723 -0.3129
 3153TIP3   OH230949   2.721   1.204  15.817 -0.0104  0.1055 -0.2350
 3153TIP3    H130950   2.760   1.197  15.904 -0.0787  0.6435 -0.1559
 3153TIP3    H230951   2.679   1.119  15.802  0.6738 -0.2631 -0.0751
 3154TIP3   OH230952   2.011   5.631   0.955  0.1803  0.0607  0.3725
 3154TIP3    H130953   1.972   5.689   0.890 -0.8357  1.4018  2.0921
 3154TIP3    H230954   1.938   5.604   1.011  1.3162  0.9210  2.3905
 3155TIP3   OH230955   1.287   6.108   1.352 -0.7584 -0.6477  0.5745
 3155TIP3    H130956   1.357   6.160   1.312  0.0424 -2.5818 -0.6395
 3155TIP3    H230957   1.226   6.174   1.388  0.0962  1.1170 -1.0543
 3156TIP3   OH230958   3.444   3.148   5.177  0.0666 -0.2723 -0.3665
 3156TIP3    H130959   3.520   3.175   5.229 -0.4846 -0.0554  0.3477
 3156TIP3    H230960   3.452   3.052   5.173  1.4989 -0.1316 -2.0877
 3157TIP3   OH230961   4.880   4.170  12.343  0.0100  0.0298  0.0958
 3157TIP3    H130962   4.892   4.077  12.359 -0.2134  0.3786  2.8186
 3157TIP3    H230963   4.788   4.179  12.320 -0.2820 -0.3218  1.0748
 3158TIP3   OH230964   4.315   2.590   0.393  0.0791 -0.0744 -0.2706
 3158TIP3    H130965   4.282   2.518   0.339  0.7381  0.2531 -1.1310
 3158TIP3    H230966   4.288   2.669   0.347  2.0482  0.2091 -1.0451
 3159TIP3   OH230967   2.149   2.544  16.272 -0.4645  0.2895 -0.5519
 3159TIP3    H130968   2.240   2.570  16.264 -0.4107  1.5403  2.5779
 3159TIP3    H230969   2.099   2.616  16.231 -0.0880  0.6219 -0.4304
 3160TIP3   OH230970   1.490   1.019   3.644  0.0940 -0.1144 -0.6231
 3160TIP3    H130971   1.460   0.980   3.562 -0.3916 -2.1527  0.4569
 3160TIP3    H230972   1.430   0.984   3.710  3.1009 -2.1997  1.2588
 3161TIP3   OH230973   3.027   4.633   0.382  0.0495 -0.2130  0.3685
 3161TIP3    H130974   3.111   4.660   0.344 -1.2691  1.6925 -1.3758
 3161TIP3    H230975   2.989   4.574   0.318 -1.2370  1.3310 -0.3711
 3162TIP3   OH230976   1.578   6.290  14.255  0.3248  0.6985 -0.2464
 3162TIP3    H130977   1.498   6.337  14.229 -0.6349 -0.8852 -0.2915
 3162TIP3    H230978   1.607   6.247  14.174 -0.5770 -1.2564  0.4148
 3163TIP3   OH230979   3.865   2.194  12.053 -0.5240 -0.3594  0.4962
 3163TIP3    H130980   3.927   2.260  12.084  0.0442  0.2032 -1.6492
 3163TIP3    H230981   3.874   2.196  11.958 -3.4811 -0.6301  0.1164
 3164TIP3   OH230982   2.986   4.169  11.406 -0.2500  0.0647 -0.0058
 3164TIP3    H130983   2.967   4.141  11.316 -1.3799  0.4296  0.1156
 3164TIP3    H230984   3.029   4.093  11.445  1.8083  0.4555 -1.3210
 3165TIP3   OH230985   0.208   6.385  13.919 -0.1086  1.0191 -0.0729
 3165TIP3    H130986   0.198   6.452  13.986  1.0130 -0.1110  1.3029
 3165TIP3    H230987   0.151   6.313  13.948  1.2014  0.0869  0.3052
 3166TIP3   OH230988   3.026   5.800   2.016  0.1737 -0.1913 -0.4983
 3166TIP3    H130989   3.055   5.843   2.097 -0.8192 -3.5327  1.8405
 3166TIP3    H230990   3.108   5.778   1.971  0.9627 -1.0711  1.2526
 3167TIP3   OH230991   5.597   3.507  13.280  0.7346  0.1322 -0.1136
 3167TIP3    H130992   5.668   3.504  13.217  0.0170  3.0814 -1.2341
 3167TIP3    H230993   5.519   3.482  13.230  0.5791 -0.3465  0.3627
 3168TIP3   OH230994   3.543   3.512  11.179 -1.4269  0.5724  0.0848
 3168TIP3    H130995   3.636   3.492  11.168 -1.7034 -0.6722 -0.2125
 3168TIP3    H230996   3.539   3.606  11.192 -0.3043  1.0133 -2.2971
 3169TIP3   OH230997   4.267   5.625  13.362 -0.2028  0.5673  0.0153
 3169TIP3    H130998   4.343   5.662  13.318  0.0759 -1.0332 -0.9529
 3169TIP3    H230999   4.302   5.586  13.442 -0.1990  0.8210  0.1379
 3170TIP3   OH231000   2.009   1.100   0.392 -0.2755  0.6640  0.4297
 3170TIP3    H131001   1.928   1.077   0.347  0.4169  0.2902 -0.6811
 3170TIP3    H231002   1.981   1.151   0.467 -1.5343  0.5968  0.0364
 3171TIP3   OH231003   2.692   0.920   0.862 -1.1098  0.4447  0.0832
 3171TIP3    H131004   2.765   0.868   0.896 -0.6229 -1.3262 -3.2212
 3171TIP3    H231005   2.715   0.937   0.771 -3.6930  2.0420 -0.3740
 3172TIP3   OH231006   6.112   0.338  13.576  0.4940 -0.2019 -0.0482
 3172TIP3    H131007   6.023   0.342  13.540  0.9284 -0.8543 -1.2413
 3172TIP3    H231008   6.163   0.397  13.521  0.9985 -0.5533  0.0410
 3173TIP3   OH231009   1.863   5.721   1.713  0.5308  0.7717 -0.4038
 3173TIP3    H131010   1.785   5.689   1.757  0.3172  1.4586 -0.2705
 3173TIP3    H231011   1.924   5.741   1.784  0.8423  0.2244 -0.5070
 3174TIP3   OH231012   1.437   6.019  17.125 -0.0169 -1.3020  0.0890
 3174TIP3    H131013   1.379   6.001  17.199  0.7646 -1.4926  0.6664
 3174TIP3    H231014   1.464   5.932  17.095 -0.3878 -1.2292 -0.4803
 3175TIP3   OH231015   2.365   0.302  15.905 -0.6170 -0.0747 -0.3392
 3175TIP3    H131016   2.272   0.281  15.907 -0.8596  0.9878  0.7793
 3175TIP3    H231017   2.378   0.349  15.823 -0.3394 -3.1168 -2.2054
 3176TIP3   OH231018   1.976   4.697  12.501  0.7315 -0.3970 -0.0428
 3176TIP3    H131019   2.038   4.770  12.497 -0.0619  0.2850 -0.1768
 3176TIP3    H231020   2.028   4.623  12.531  1.2272  0.6177  1.7827
 3177TIP3   OH231021   4.027   5.060   6.020 -0.1866  0.0263 -0.0505
 3177TIP3    H131022   4.052   5.011   6.099 -0.2563 -1.5934 -1.0054
 3177TIP3    H231023   4.089   5.031   5.953  0.7352  2.3555 -0.3388
 3178TIP3   OH231024   5.554   0.758  10.789  0.3762 -0.0759 -0.1572
 3178TIP3    H131025   5.523   0.726  10.705  1.5741  1.5078 -1.2651
 3178TIP3    H231026   5.575   0.850  10.774  0.6930  0.2406  1.8649
 3179TIP3   OH231027   5.249   5.363   1.748 -0.1125 -0.6090  0.0519
 3179TIP3    H131028   5.227   5.284   1.796 -0.2588 -0.5529  0.0780
 3179TIP3    H231029   5.330   5.342   1.702 -0.7211 -1.1511 -0.8143
 3180TIP3   OH231030   1.472   6.452  15.465  0.1175 -0.0116  0.5339
 3180TIP3    H131031   1.403   6.477  15.404  1.3670  0.1182 -0.8703
 3180TIP3    H231032   1.524   6.532  15.476  0.9822 -0.5341  0.2937
 3181TIP3   OH231033   5.705   3.239   5.374 -0.3294  0.4815  0.2780
 3181TIP3    H131034   5.700   3.283   5.459  0.2481  0.9028  0.0994
 3181TIP3    H231035   5.699   3.310   5.310 -2.6179  0.0274 -0.0944
 3182TIP3   OH231036   1.092   3.441   4.726 -0.2879 -0.1010  0.3283
 3182TIP3    H131037   1.105   3.524   4.680 -0.3918 -1.0380 -1.5332
 3182TIP3    H231038   1.176   3.422   4.767  0.1554  0.2761 -0.3883
 3183TIP3   OH231039   0.629   2.915   3.132 -0.4276 -0.0628 -0.1701
 3183TIP3    H131040   0.578   2.835   3.122  1.4775 -1.2279 -1.2293
 3183TIP3    H231041   0.694   2.911   3.062  0.7453  1.6191  0.7431
 3184TIP3   OH231042   5.819   3.427   3.661 -0.5203  0.0799 -0.3892
 3184TIP3    H131043   5.740   3.413   3.712  0.2720  0.2135  0.9193
 3184TIP3    H231044   5.890   3.395   3.717  0.8190  3.7408  0.2922
 3185TIP3   OH231045   6.040   2.673   3.659 -0.3410  0.2503 -0.4880
 3185TIP3    H131046   6.041   2.666   3.754 -0.3443  1.7448 -0.3603
 3185TIP3    H231047   6.043   2.582   3.628 -2.6115 -0.3638  0.9346
 3186TIP3   OH231048   3.565   0.964  16.225  0.2604  0.3603  0.1810
 3186TIP3    H131049   3.652   0.991  16.254  1.0717 -1.1794 -0.6963
 3186TIP3    H231050   3.553   1.011  16.142  1.5084 -1.4933 -1.1464
 3187TIP3   OH231051   5.707   0.215   1.361  0.3636 -0.2200  0.2530
 3187TIP3    H131052   5.693   0.308   1.347 -1.7464 -0.5789 -0.3091
 3187TIP3    H231053   5.652   0.193   1.436  0.1777 -1.1681 -0.1481
 3188TIP3   OH231054   1.248   2.011  11.068  0.3892  0.6196  0.3632
 3188TIP3    H131055   1.231   2.012  10.973 -1.4330  1.6205  0.6412
 3188TIP3    H231056   1.218   2.097  11.098 -2.4736 -0.9180  2.3282
 3189TIP3   OH231057   6.097   1.297   0.817 -0.0603 -0.5106  0.4953
 3189TIP3    H131058   6.161   1.352   0.862 -0.3146  0.6597 -0.5050
 3189TIP3    H231059   6.103   1.212   0.860  1.6874 -0.2338  0.8445
 3190TIP3   OH231060   4.129   4.153  12.761 -0.5501  0.1376 -0.0821
 3190TIP3    H131061   4.202   4.191  12.811 -1.1197 -2.6195  3.2270
 3190TIP3    H231062   4.053   4.206  12.786 -0.2864  0.9339 -0.8971
 3191TIP3   OH231063   6.073   0.642  16.657  0.3357  0.7249  0.2415
 3191TIP3    H131064   6.058   0.639  16.563 -0.6149  0.6370  0.3841
 3191TIP3    H231065   5.987   0.626  16.696  0.8920 -0.2347  1.1260
 3192TIP3   OH231066   6.403   5.968   5.725  0.1032  0.1106  0.4024
 3192TIP3    H131067   6.361   5.977   5.811  0.1390 -0.9089  0.5390
 3192TIP3    H231068   6.356   5.896   5.683  1.2503 -0.5963  0.2820
 3193TIP3   OH231069   2.129   0.331  14.949 -0.3983  0.0150  0.0237
 3193TIP3    H131070   2.060   0.273  14.983  0.3969 -0.6999  0.4612
 3193TIP3    H231071   2.082   0.401  14.905 -1.3775 -1.7353 -1.8457
 3194TIP3   OH231072   5.208   5.423  12.840 -1.0900 -0.3171  0.1563
 3194TIP3    H131073   5.225   5.509  12.878 -0.0629 -0.5742  0.3077
 3194TIP3    H231074   5.255   5.425  12.756  0.9829 -1.5674  1.2321
 3195TIP3   OH231075   3.116   5.699   1.445 -1.0036  0.6347 -0.4289
 3195TIP3    H131076   3.094   5.732   1.532 -0.1294  0.9201 -0.3107
 3195TIP3    H231077   3.148   5.610   1.460  0.7500  1.2622 -0.2459
 3196TIP3   OH231078   2.405   1.063   4.413 -0.0714 -0.2652 -0.0499
 3196TIP3    H131079   2.388   1.099   4.500 -1.2152 -1.7429  0.3904
 3196TIP3    H231080   2.481   1.006   4.424 -0.2723 -0.5241  0.0179
 3197TIP3   OH231081   2.117   3.714  14.971  0.0163 -0.4612  0.3274
 3197TIP3    H131082   2.063   3.730  15.049 -0.8486  2.0055 -0.6581
 3197TIP3    H231083   2.084   3.632  14.936 -0.5737 -0.8836  1.7606
 3198TIP3   OH231084   1.971   4.676   2.802 -0.3263 -0.6375  0.3626
 3198TIP3    H131085   1.996   4.768   2.812  1.2862 -0.9103 -0.7879
 3198TIP3    H231086   2.022   4.645   2.727 -2.1258 -2.0279 -0.3618
 3199TIP3   OH231087   1.803   3.323   3.112 -0.7478  0.2144 -0.1808
 3199TIP3    H131088   1.891   3.311   3.149 -0.7371  0.2065 -0.2091
 3199TIP3    H231089   1.818   3.336   3.019 -0.7616  0.4001 -0.1583
 3200TIP3   OH231090   3.415   0.020   1.898 -0.2737 -0.6004 -0.7474
 3200TIP3    H131091   3.441   0.091   1.839  0.0528 -0.4801 -0.4632
 3200TIP3    H231092   3.344   0.057   1.950  1.1200  0.1702  0.6924
 3201TIP3   OH231093   6.472   2.990  16.296  0.6393 -0.2736 -0.1828
 3201TIP3    H131094   6.514   2.917  16.251  1.8288  0.6512 -0.6451
 3201TIP3    H231095   6.438   3.045  16.225  0.3190 -0.0713  0.1283
 3202TIP3   OH231096   3.681   5.541   4.837  0.0443  0.8369  0.4424
 3202TIP3    H131097   3.605   5.483   4.839  0.8103 -0.2193 -0.1354
 3202TIP3    H231098   3.648   5.625   4.870 -1.1416  0.1532  1.0589
 3203TIP3   OH231099   6.412   5.082   2.164  0.0086  0.1484  0.7731
 3203TIP3    H131100   6.410   5.034   2.081  1.8831 -0.0030  0.7712
 3203TIP3    H231101   6.429   5.173   2.138  0.8927  0.0513  0.9924
 3204TIP3   OH231102   1.188   3.621   1.068  0.2918  0.1657  0.1698
 3204TIP3    H131103   1.264   3.656   1.115  1.1591 -1.0752 -0.2475
 3204TIP3    H231104   1.220   3.539   1.029 -0.3998  1.0455 -2.4845
 3205TIP3   OH231105   5.962   4.790  13.842  0.1790  0.3823 -0.1751
 3205TIP3    H131106   5.922   4.870  13.810  1.6195  0.1435 -2.8151
 3205TIP3    H231107   6.019   4.818  13.913 -0.1104  1.5344 -0.3872
 3206TIP3   OH231108   5.766   6.669  12.014  0.1189 -0.0213  0.2671
 3206TIP3    H131109   5.747   6.761  11.998  1.7967  0.6443  1.8615
 3206TIP3    H231110   5.847   6.652  11.967 -1.4156 -1.4560 -2.1326
 3207TIP3   OH231111   6.014   5.881  14.695 -0.3049  0.1419  0.0752
 3207TIP3    H131112   6.095   5.829  14.698 -0.2361  0.2807  0.7033
 3207TIP3    H231113   5.998   5.906  14.786 -0.2503  1.3446 -0.2236
 3208TIP3   OH231114   1.434   1.564  13.950 -0.2938  0.1672 -0.4210
 3208TIP3    H131115   1.338   1.560  13.951 -0.2765 -0.3386  0.0103
 3208TIP3    H231116   1.458   1.553  13.859 -0.5696 -2.3667 -0.2560
 3209TIP3   OH231117   2.581   2.491   1.225  0.1892 -0.7392 -0.5694
 3209TIP3    H131118   2.596   2.583   1.246  0.9453 -0.7716 -0.9301
 3209TIP3    H231119   2.486   2.481   1.229  0.1756 -0.2924  0.8749
 3210TIP3   OH231120   2.591   0.289  14.865  0.1725  0.2581  0.1874
 3210TIP3    H131121   2.507   0.304  14.822  1.2567  2.5695 -1.3654
 3210TIP3    H231122   2.639   0.234  14.803 -0.7763 -2.8143  1.9814
 3211TIP3   OH231123   1.151   4.100  13.191 -0.4876  0.2518 -0.1510
 3211TIP3    H131124   1.124   4.190  13.207 -1.4220 -0.2304  1.1764
 3211TIP3    H231125   1.226   4.087  13.249 -2.1467 -0.6494  1.9451
 3212TIP3   OH231126   0.410   1.306  15.358 -0.5060  0.2595 -0.0451
 3212TIP3    H131127   0.498   1.289  15.324  0.4625  0.9383  2.0080
 3212TIP3    H231128   0.385   1.390  15.319  0.7541  1.2245  1.1258
 3213TIP3   OH231129   5.403   1.145  12.646  0.4256 -0.7532  0.9297
 3213TIP3    H131130   5.359   1.195  12.714 -1.8506 -3.0728  1.3175
 3213TIP3    H231131   5.486   1.190  12.633 -1.6047  3.4087  0.7692
 3214TIP3   OH231132   6.629   3.330   6.055  0.1566  0.5180 -0.2596
 3214TIP3    H131133   6.660   3.388   6.125  0.8531  1.1209 -1.0574
 3214TIP3    H231134   6.604   3.389   5.984  2.2625 -0.1835 -1.6572
 3215TIP3   OH231135   2.127   3.494  14.091  0.1805  0.0097 -0.3617
 3215TIP3    H131136   2.087   3.458  14.170  0.7425 -2.6935 -1.1678
 3215TIP3    H231137   2.220   3.501  14.112 -0.0237  1.9176  0.0468
 3216TIP3   OH231138   6.743   6.445  15.057  0.4899 -0.4375 -0.3995
 3216TIP3    H131139   6.823   6.409  15.019  0.4217  1.6552 -2.7517
 3216TIP3    H231140   6.772   6.517  15.113  0.3038  1.2710 -2.3735
 3217TIP3   OH231141   0.985   4.221  12.091 -0.1523  0.6498  0.5726
 3217TIP3    H131142   1.044   4.247  12.020 -0.2919 -1.2642 -0.3032
 3217TIP3    H231143   0.901   4.261  12.068  0.3504  1.9369  0.9008
 3218TIP3   OH231144   6.009   0.295  13.115 -0.2007  0.0422 -0.0607
 3218TIP3    H131145   5.918   0.299  13.086 -0.1263 -0.5564 -0.3871
 3218TIP3    H231146   6.003   0.265  13.206 -0.3201 -0.1094 -0.1180
 3219TIP3   OH231147   4.747   2.410  13.515  0.5247  0.3042  0.1959
 3219TIP3    H131148   4.685   2.439  13.582 -0.9726  0.0297 -0.9858
 3219TIP3    H231149   4.749   2.314  13.523  2.0406  0.3915  1.2298
 3220TIP3   OH231150   3.019   0.859   2.780  0.2389 -0.0757  0.3433
 3220TIP3    H131151   3.039   0.924   2.713  0.6360  0.4896  0.9913
 3220TIP3    H231152   3.093   0.798   2.778 -0.1200 -0.4948 -0.2457
 3221TIP3   OH231153   5.327   4.764   4.337 -0.7461 -0.1967  0.1291
 3221TIP3    H131154   5.240   4.758   4.299 -0.7849  0.8707  0.0303
 3221TIP3    H231155   5.321   4.716   4.420 -1.5590  0.2855  0.3534
 3222TIP3   OH231156   4.178   4.394  13.143 -0.0334 -0.1578 -0.4390
 3222TIP3    H131157   4.086   4.416  13.160  0.0918 -1.0426  1.5552
 3222TIP3    H231158   4.226   4.473  13.166 -0.2620  0.3774 -1.6753
 3223TIP3   OH231159   6.403   4.385  16.419  1.1047  0.3368  0.0120
 3223TIP3    H131160   6.364   4.467  16.387  0.5645 -0.0389 -0.3079
 3223TIP3    H231161   6.466   4.361  16.352 -0.5627 -0.8507 -1.2093
 3224TIP3   OH231162   3.579   1.411   5.582  0.1757 -0.6663 -0.1781
 3224TIP3    H131163   3.631   1.412   5.663  0.4356  0.1909 -0.3440
 3224TIP3    H231164   3.634   1.365   5.519  1.1244  0.9358 -0.5785
 3225TIP3   OH231165   2.588   2.820   3.908 -0.0939 -0.1120  0.2570
 3225TIP3    H131166   2.626   2.887   3.851 -1.2134  0.4507  0.1463
 3225TIP3    H231167   2.659   2.757   3.921  0.4710  0.2162 -1.0236
 3226TIP3   OH231168   0.499   5.079   2.647 -0.0962  0.6565 -0.7476
 3226TIP3    H131169   0.550   5.005   2.681 -1.3193 -0.4905 -1.3518
 3226TIP3    H231170   0.517   5.080   2.553 -2.6714 -1.0685 -1.3657
 3227TIP3   OH231171   0.540   2.309  17.148  0.1967  0.2935  0.6554
 3227TIP3    H131172   0.517   2.337  17.237 -3.2124  2.7445 -0.7950
 3227TIP3    H231173   0.501   2.222  17.139 -0.6979  0.6359  1.1201
 3228TIP3   OH231174   6.359   0.645   3.118 -0.2670 -0.1133  0.5621
 3228TIP3    H131175   6.454   0.658   3.124 -0.3503  0.9903 -0.1828
 3228TIP3    H231176   6.348   0.583   3.047 -0.1629  1.2155 -0.6624
 3229TIP3   OH231177   5.020   5.875   3.750 -0.1598  0.2497  0.0756
 3229TIP3    H131178   5.006   5.920   3.667 -0.9532  0.6431  0.4140
 3229TIP3    H231179   5.115   5.865   3.756  0.0849  2.2819  0.2077
 3230TIP3   OH231180   1.156   3.491   3.596  0.0155 -0.0576  0.3476
 3230TIP3    H131181   1.205   3.521   3.673  0.0530 -0.2296  0.3926
 3230TIP3    H231182   1.202   3.412   3.568  0.5501  0.5164 -0.4123
 3231TIP3   OH231183   1.682   1.143   2.048 -0.1256 -1.0522  0.0520
 3231TIP3    H131184   1.616   1.181   2.105  0.9058 -0.8423  1.1682
 3231TIP3    H231185   1.756   1.204   2.054 -1.4223  1.5345 -5.1153
 3232TIP3   OH231186   5.641   0.471  16.128  0.0293  0.4783  0.1547
 3232TIP3    H131187   5.605   0.524  16.200  1.8471  2.0438 -0.0185
 3232TIP3    H231188   5.720   0.432  16.164  0.9780  1.3086 -0.9803
 3233TIP3   OH231189   0.738   3.578  12.223  0.2810  0.5810 -0.1854
 3233TIP3    H131190   0.829   3.606  12.212 -0.2561  2.5331 -0.0209
 3233TIP3    H231191   0.692   3.656  12.254 -1.6960  0.0180 -1.4790
 3234TIP3   OH231192   4.743   5.059  15.481 -0.0864  0.0928 -0.8721
 3234TIP3    H131193   4.735   5.096  15.569  3.6298 -1.3897  0.2881
 3234TIP3    H231194   4.678   4.989  15.479  0.9466 -1.0742  1.5059
 3235TIP3   OH231195   0.259   5.438  13.764 -0.2608 -0.2366  0.1725
 3235TIP3    H131196   0.319   5.461  13.694 -0.6711  0.8543  0.1745
 3235TIP3    H231197   0.309   5.377  13.819  0.1860 -0.8070 -0.8427
 3236TIP3   OH231198   6.496   1.871  11.637 -0.2132 -0.1380 -0.3956
 3236TIP3    H131199   6.477   1.855  11.545 -1.2761 -0.3124 -0.1639
 3236TIP3    H231200   6.587   1.846  11.648 -0.6842 -2.2532 -0.9095
 3237TIP3   OH231201   5.526   2.036   0.468  0.2927  0.6109  0.8365
 3237TIP3    H131202   5.566   2.082   0.395  0.3728  1.4339  1.3842
 3237TIP3    H231203   5.433   2.058   0.462  0.3478  0.9471  1.1625
 3238TIP3   OH231204   3.188   5.158   4.307  0.3358  0.4599  0.5566
 3238TIP3    H131205   3.255   5.198   4.252  0.0811  0.8720  0.5383
 3238TIP3    H231206   3.173   5.072   4.268  1.1519  0.1943  0.8156
 3239TIP3   OH231207   3.385   3.466  11.754 -0.4331  0.6618 -0.7465
 3239TIP3    H131208   3.436   3.465  11.673 -1.9568  1.5670 -1.7515
 3239TIP3    H231209   3.373   3.558  11.774 -0.5475  0.4452  0.2198
 3240TIP3   OH231210   5.848   3.657   0.179 -0.0925  0.1663 -0.1794
 3240TIP3    H131211   5.794   3.578   0.183 -1.0500  0.8408  0.4055
 3240TIP3    H231212   5.803   3.715   0.118  0.4018  0.4233 -0.3131
 3241TIP3   OH231213   3.548   4.765  15.533  0.0200  0.5110  0.2818
 3241TIP3    H131214   3.577   4.732  15.448 -0.8594  1.7781 -0.5633
 3241TIP3    H231215   3.468   4.716  15.552  1.7829 -1.9601  1.9230
 3242TIP3   OH231216   4.832   3.222   3.593 -0.0129 -0.1642  0.2689
 3242TIP3    H131217   4.916   3.176   3.598 -0.0107 -0.0982  1.0775
 3242TIP3    H231218   4.853   3.305   3.550  0.2732 -0.2791  0.1784
 3243TIP3   OH231219   0.600   0.696  12.345 -0.2979 -0.2504  0.0501
 3243TIP3    H131220   0.528   0.638  12.323 -0.2945 -0.7845  1.3176
 3243TIP3    H231221   0.565   0.784  12.333 -0.9528 -0.5108  0.0002
 3244TIP3   OH231222   4.069   5.833   1.317 -0.3300  0.2318  0.0629
 3244TIP3    H131223   4.015   5.789   1.382  0.5865 -0.6949  0.2180
 3244TIP3    H231224   4.020   5.822   1.235  0.0723 -1.4485  0.0267
 3245TIP3   OH231225   1.595   3.715   3.218  0.1698  0.2254  0.5850
 3245TIP3    H131226   1.675   3.737   3.171  1.2135 -1.7420  1.3316
 3245TIP3    H231227   1.553   3.649   3.163  0.0970 -0.2169  1.1693
 3246TIP3   OH231228   3.580   4.618  17.004  0.3468  0.4659  0.0731
 3246TIP3    H131229   3.546   4.658  16.924 -0.3579 -1.7243 -0.8070
 3246TIP3    H231230   3.674   4.607  16.988 -0.0808 -1.7919 -1.4129
 3247TIP3   OH231231   5.864   1.366  16.995  0.9262  1.1995  0.2998
 3247TIP3    H131232   5.824   1.444  17.034  0.7192  1.7769 -1.0091
 3247TIP3    H231233   5.944   1.399  16.955  0.1899  1.0086 -1.3985
 3248TIP3   OH231234   1.735   2.178  16.022 -0.3336 -0.3258  0.0796
 3248TIP3    H131235   1.782   2.164  15.940 -0.1648 -2.7116  0.4982
 3248TIP3    H231236   1.791   2.139  16.089 -1.0031  0.5336  1.1886
 3249TIP3   OH231237   3.523   5.677  13.088  0.3758  0.6137  0.5579
 3249TIP3    H131238   3.546   5.660  12.996  2.0741  3.7598  0.2723
 3249TIP3    H231239   3.428   5.688  13.087  0.4058  1.0194 -0.9546
 3250TIP3   OH231240   0.994   6.812   2.955  0.4031 -0.8911 -0.3521
 3250TIP3    H131241   0.992   6.724   2.917 -0.2142 -0.8516 -0.4119
 3250TIP3    H231242   0.941   6.865   2.896 -1.6975 -1.1045  1.2204
 3251TIP3   OH231243   2.381   2.011   3.398 -0.0422  0.3578 -0.4407
 3251TIP3    H131244   2.297   1.973   3.372 -0.9807  1.5368  0.7380
 3251TIP3    H231245   2.447   1.954   3.357 -1.3573 -2.1964  0.7619
 3252TIP3   OH231246   1.082   1.630  15.042 -0.2918  0.0750  0.2919
 3252TIP3    H131247   1.081   1.582  14.960  1.5158  1.3815 -0.5625
 3252TIP3    H231248   1.020   1.702  15.029  0.7961  0.9091 -0.3555
 3253TIP3   OH231249   3.982   6.748   4.292  0.3447  0.0961 -0.1902
 3253TIP3    H131250   4.066   6.774   4.329  2.4596 -1.0190 -3.7150
 3253TIP3    H231251   3.976   6.655   4.309  0.4640 -0.0669 -0.9959
 3254TIP3   OH231252   4.609   5.696   2.448  0.4282 -0.1169  0.3253
 3254TIP3    H131253   4.695   5.738   2.438  0.8150 -1.1269 -0.9949
 3254TIP3    H231254   4.622   5.608   2.412 -0.9054 -0.6260  1.0575
 3255TIP3   OH231255   1.228   0.516   1.203  0.0828  0.3829 -0.4972
 3255TIP3    H131256   1.198   0.596   1.161 -0.8310 -0.1938 -0.9807
 3255TIP3    H231257   1.324   0.522   1.203  0.0246  1.3675 -0.7132
 3256TIP3   OH231258   5.736   0.691  10.490 -0.7435  0.3885  0.1811
 3256TIP3    H131259   5.786   0.610  10.499  0.0302  0.7705 -0.5537
 3256TIP3    H231260   5.654   0.674  10.537  0.4038  0.0500  2.2047
 3257TIP3   OH231261   0.754   4.862  13.798  0.6687  0.0234  0.0816
 3257TIP3    H131262   0.831   4.809  13.778 -0.5790 -1.0614 -2.2412
 3257TIP3    H231263   0.736   4.910  13.717 -1.3512 -0.1495  0.3720
 3258TIP3   OH231264   5.147   1.132   0.907  0.2209  0.0600 -0.6156
 3258TIP3    H131265   5.122   1.136   1.000 -1.1527 -0.1035 -0.9493
 3258TIP3    H231266   5.086   1.069   0.869 -0.8794  1.8875 -2.0789
 3259TIP3   OH231267   1.044   1.363   5.184 -0.3495  0.1441  0.3868
 3259TIP3    H131268   1.034   1.448   5.228 -0.4018  0.0148  0.6292
 3259TIP3    H231269   0.956   1.342   5.153 -0.6016 -0.3971  1.4085
 3260TIP3   OH231270   1.549   0.490   1.730 -0.4156 -0.2904  0.4990
 3260TIP3    H131271   1.551   0.450   1.643 -0.3698 -1.8963  1.2083
 3260TIP3    H231272   1.563   0.584   1.713 -1.0419 -0.4754 -1.2601
 3261TIP3   OH231273   5.954   1.043  16.914 -0.1977 -0.6416 -0.0314
 3261TIP3    H131274   5.923   1.115  16.859  0.2927  1.1976  1.9639
 3261TIP3    H231275   6.038   1.018  16.875  0.5338  1.1652  0.2664
 3262TIP3   OH231276   0.621   4.691   4.781 -0.0379  0.5505  0.2869
 3262TIP3    H131277   0.707   4.671   4.818 -0.4024 -0.5506  0.5931
 3262TIP3    H231278   0.639   4.749   4.707  1.2928 -2.1509 -1.6796
 3263TIP3   OH231279   2.365   2.857  17.192 -0.2709  0.1765 -0.1527
 3263TIP3    H131280   2.410   2.777  17.165  0.5130  0.4819  0.1984
 3263TIP3    H231281   2.381   2.918  17.120  1.3682  0.8231  0.6969
 3264TIP3   OH231282   3.039   3.748   1.999  0.5031 -0.0678  0.2388
 3264TIP3    H131283   2.963   3.783   2.044  0.0586  0.6832 -1.0371
 3264TIP3    H231284   3.027   3.774   1.907  0.0986 -3.6151 -0.8690
 3265TIP3   OH231285   3.608   1.973   1.507 -0.1703 -0.1532  0.1524
 3265TIP3    H131286   3.520   1.958   1.541 -0.7568 -2.5726 -2.0511
 3265TIP3    H231287   3.653   1.890   1.520  1.0328  0.3193 -0.7838
 3266TIP3   OH231288   0.807   1.388  16.459 -0.4696 -0.0993 -0.0745
 3266TIP3    H131289   0.781   1.299  16.436 -1.9414 -0.3025  1.9923
 3266TIP3    H231290   0.897   1.380  16.491 -1.0580 -1.1552  1.4344
 3267TIP3   OH231291   2.082   4.368  16.964 -0.1262 -0.1290  0.0399
 3267TIP3    H131292   2.123   4.289  16.927 -1.4720 -0.9155  0.1265
 3267TIP3    H231293   1.989   4.357  16.944 -0.5104  0.8071  1.2154
 3268TIP3   OH231294   2.214   0.978   4.648 -0.4487 -0.1956  0.2966
 3268TIP3    H131295   2.308   0.959   4.658 -0.8462 -2.6160  0.0740
 3268TIP3    H231296   2.171   0.898   4.676 -2.5374  1.2382  1.4150
 3269TIP3   OH231297   1.591   2.513  16.617 -0.7187  0.3795  0.2359
 3269TIP3    H131298   1.646   2.456  16.563 -0.9408  1.3033 -1.0244
 3269TIP3    H231299   1.651   2.581  16.650 -1.0213  1.2910 -1.0022
 3270TIP3   OH231300   1.492   2.729   4.771 -0.0120  0.1880 -0.2995
 3270TIP3    H131301   1.522   2.638   4.767  0.2328  0.2665 -0.2732
 3270TIP3    H231302   1.567   2.781   4.739  0.6707  0.5420  1.6894
 3271TIP3   OH231303   6.243   6.318  17.121 -0.7202  0.7387  0.1025
 3271TIP3    H131304   6.277   6.229  17.134 -0.6454  0.3804 -2.1305
 3271TIP3    H231305   6.151   6.305  17.101 -0.8649  1.2430  0.4257
 3272TIP3   OH231306   4.517   6.655  16.080 -0.0700 -0.8573  0.4413
 3272TIP3    H131307   4.469   6.647  15.997  0.6617 -1.4553  0.0554
 3272TIP3    H231308   4.493   6.576  16.128 -0.3570 -0.5960  0.7250
 3273TIP3   OH231309   2.921   1.901   1.873  0.3988  0.3516 -0.9006
 3273TIP3    H131310   2.845   1.854   1.839  0.6665 -0.7404 -0.0095
 3273TIP3    H231311   2.995   1.844   1.856  0.5163 -0.4182  1.7468
 3274TIP3   OH231312   5.820   1.968   4.982  0.1375  1.0584  0.0131
 3274TIP3    H131313   5.774   1.936   4.905  0.5624  1.3776 -0.3799
 3274TIP3    H231314   5.803   2.062   4.983 -2.2081  0.7157  1.8946
 3275TIP3   OH231315   3.856   6.437   4.309 -0.3458 -0.0886  0.5539
 3275TIP3    H131316   3.789   6.495   4.345  0.8182  1.1723  0.8251
 3275TIP3    H231317   3.861   6.364   4.371 -0.9012  0.2179  0.9710
 3276TIP3   OH231318   4.991   6.053  17.171  0.3786 -0.5976  0.3477
 3276TIP3    H131319   4.961   5.973  17.129 -0.1136  0.0732 -0.6150
 3276TIP3    H231320   5.074   6.073  17.129  0.2534 -0.3361  0.2210
 3277TIP3   OH231321   6.093   1.445   5.157 -0.8233 -0.0819  0.2622
 3277TIP3    H131322   6.184   1.423   5.175 -0.4105  2.0515  0.9976
 3277TIP3    H231323   6.092   1.471   5.064 -0.4173  1.0695  0.5695
 3278TIP3   OH231324   0.410   6.759  10.334  0.1310 -0.2392  0.2351
 3278TIP3    H131325   0.321   6.725  10.324  0.2848 -1.9485  3.1986
 3278TIP3    H231326   0.465   6.695  10.288 -0.0460 -0.0324 -0.2730
 3279TIP3   OH231327   2.981   0.858  14.976 -0.3503 -0.8555  0.2478
 3279TIP3    H131328   2.997   0.849  14.882  0.1892  1.0855  0.0939
 3279TIP3    H231329   2.899   0.908  14.981 -0.3572 -0.9209  0.7943
 3280TIP3   OH231330   6.124   4.870   6.788  0.0821 -0.2064  0.5585
 3280TIP3    H131331   6.166   4.913   6.714 -1.7893  0.3729 -0.2395
 3280TIP3    H231332   6.073   4.939   6.831  0.0211 -0.8372  1.5456
 3281TIP3   OH231333   5.279   5.834  15.599  0.4098  0.2277  0.3215
 3281TIP3    H131334   5.265   5.868  15.687 -1.1441  0.9286 -0.1737
 3281TIP3    H231335   5.212   5.876  15.545  1.0561 -0.5096 -1.1197
 3282TIP3   OH231336   1.718   1.646  16.758 -0.0475 -0.4686 -0.1284
 3282TIP3    H131337   1.630   1.630  16.723  0.2993  0.8312 -1.7431
 3282TIP3    H231338   1.764   1.689  16.686  1.8556 -0.9114  0.7701
 3283TIP3   OH231339   1.057   1.452  14.731 -0.4581 -0.1219  0.6976
 3283TIP3    H131340   0.962   1.452  14.740 -0.5006 -1.4029  0.5198
 3283TIP3    H231341   1.090   1.440  14.820 -0.5545 -1.9341  0.5265
 3284TIP3   OH231342   3.984   3.210   5.501  0.4113 -0.6737 -0.5886
 3284TIP3    H131343   4.041   3.197   5.426 -0.1994  0.1666 -1.2220
 3284TIP3    H231344   3.931   3.286   5.478  0.9431  0.2705  1.1486
 3285TIP3   OH231345   3.745   6.296  15.228 -0.5773  0.5865 -0.0874
 3285TIP3    H131346   3.787   6.376  15.195  0.9285 -0.2806 -0.3423
 3285TIP3    H231347   3.788   6.280  15.312  0.5567 -1.0061 -0.9269
 3286TIP3   OH231348   2.502   5.754  12.675  0.1247 -0.5640 -0.1557
 3286TIP3    H131349   2.460   5.818  12.733 -0.0668 -0.2092 -0.6832
 3286TIP3    H231350   2.440   5.740  12.605 -0.2701 -2.1047  0.4624
 3287TIP3   OH231351   4.936   5.681  13.064 -0.0687 -0.4940  0.2702
 3287TIP3    H131352   4.962   5.737  12.991 -2.3138 -0.7867 -0.8387
 3287TIP3    H231353   4.959   5.593  13.036 -0.3512 -0.5461  0.2068
 3288TIP3   OH231354   1.840   6.744  14.644 -0.2314  0.3128 -0.2417
 3288TIP3    H131355   1.765   6.799  14.667  0.1967  1.0190 -0.4957
 3288TIP3    H231356   1.857   6.764  14.552  0.4264  0.3462 -0.1142
 3289TIP3   OH231357   2.717   2.299   1.833  0.3598  0.3303  0.0024
 3289TIP3    H131358   2.736   2.388   1.804  1.1962  0.1560 -0.0298
 3289TIP3    H231359   2.786   2.246   1.792  0.3802 -0.1996  0.7125
 3290TIP3   OH231360   1.109   2.259   0.314  0.1503  0.6205 -0.3151
 3290TIP3    H131361   1.181   2.318   0.332 -0.1355  1.0788 -0.6596
 3290TIP3    H231362   1.103   2.204   0.392  0.8137  0.6305 -0.2519
 3291TIP3   OH231363   2.528   5.580   5.548  0.3023 -0.4872  0.3412
 3291TIP3    H131364   2.529   5.565   5.454 -0.4289 -2.3057  0.5979
 3291TIP3    H231365   2.607   5.536   5.580  0.9664  0.7856  0.5106
 3292TIP3   OH231366   6.353   5.183   1.142 -0.2044 -0.7563  0.4669
 3292TIP3    H131367   6.343   5.120   1.071 -1.8647  1.3078 -1.2698
 3292TIP3    H231368   6.265   5.218   1.156  0.7572  1.8271  0.6757
 3293TIP3   OH231369   3.228   5.427  13.585  0.4089 -0.0318 -0.2539
 3293TIP3    H131370   3.307   5.434  13.532  1.4203 -0.7687  1.0975
 3293TIP3    H231371   3.255   5.455  13.673 -1.2196  1.1862 -0.0938
 3294TIP3   OH231372   2.345   4.387  11.964  0.1136 -0.1260  0.2871
 3294TIP3    H131373   2.258   4.409  11.932 -0.9273 -2.5606  1.1877
 3294TIP3    H231374   2.363   4.453  12.032 -0.8370  0.6470 -0.1937
 3295TIP3   OH231375   2.272   2.313   2.181  0.3035  0.1105 -0.4751
 3295TIP3    H131376   2.333   2.277   2.116  1.4929 -1.3434  1.3663
 3295TIP3    H231377   2.327   2.335   2.256 -0.8951  2.7321 -0.2404
 3296TIP3   OH231378   4.835   5.630   5.084 -0.1784  0.2896  0.5180
 3296TIP3    H131379   4.806   5.568   5.151  0.0361 -0.3888 -0.0136
 3296TIP3    H231380   4.892   5.579   5.027 -1.1327  0.6191 -0.7520
 3297TIP3   OH231381   5.861   1.100  11.676 -0.3210 -0.5075  0.6805
 3297TIP3    H131382   5.812   1.074  11.598  0.1720  0.1432  0.1430
 3297TIP3    H231383   5.830   1.189  11.695  0.1520 -0.3535  0.7444
 3298TIP3   OH231384   3.806   0.243   2.832  0.0504  0.1304 -0.6117
 3298TIP3    H131385   3.792   0.305   2.760  1.0396  0.4898 -0.5176
 3298TIP3    H231386   3.894   0.208   2.816  0.9499  1.3604  1.2406
 3299TIP3   OH231387   1.344   6.073  15.387 -0.5027 -0.5392  0.0245
 3299TIP3    H131388   1.374   5.984  15.406 -0.9501 -0.6391  0.2696
 3299TIP3    H231389   1.366   6.087  15.295 -0.6074 -0.9766 -0.0674
 3300TIP3   OH231390   4.541   5.362   3.821 -0.6058  0.3187  0.1003
 3300TIP3    H131391   4.566   5.339   3.732 -1.0364  1.6424 -0.3745
 3300TIP3    H231392   4.445   5.365   3.819 -0.7063 -0.9846  0.9709
 3301TIP3   OH231393   3.306   1.706  15.510  0.1346  0.1734 -0.0902
 3301TIP3    H131394   3.383   1.760  15.531 -0.1532 -0.4602  3.1602
 3301TIP3    H231395   3.330   1.618  15.538 -1.1739 -0.3702 -0.6205
 3302TIP3   OH231396   6.106   6.303  11.029  0.3257 -0.9248 -0.0065
 3302TIP3    H131397   6.160   6.354  10.969 -1.1053  1.5625  0.6680
 3302TIP3    H231398   6.018   6.338  11.018 -0.6943 -3.0534  0.8001
 3303TIP3   OH231399   1.573   0.334  16.373  0.0915  0.1778  0.2624
 3303TIP3    H131400   1.593   0.256  16.425 -0.0102  0.0253  0.0761
 3303TIP3    H231401   1.572   0.302  16.282 -0.2440  0.3379  0.2086
 3304TIP3   OH231402   3.383   6.767  12.451 -0.0371  0.3492  0.1113
 3304TIP3    H131403   3.302   6.743  12.406 -0.1879  0.8484  0.1082
 3304TIP3    H231404   3.373   6.730  12.539 -0.0376 -0.0425 -0.0534
 3305TIP3   OH231405   1.740   6.308  15.123 -0.2083  1.0277 -0.0965
 3305TIP3    H131406   1.765   6.399  15.106  0.1837  0.6731 -1.6095
 3305TIP3    H231407   1.751   6.265  15.038  0.2770 -0.5848  0.7511
 3306TIP3   OH231408   4.202   4.743  15.479 -0.0642  0.8803 -0.0097
 3306TIP3    H131409   4.194   4.659  15.524 -2.0927  0.9274 -0.1961
 3306TIP3    H231410   4.235   4.803  15.546 -1.7346  0.6426  1.0807
 3307TIP3   OH231411   6.270   3.569  15.048 -0.6268 -0.7886 -0.3780
 3307TIP3    H131412   6.318   3.644  15.012  1.3492 -1.3984  0.7973
 3307TIP3    H231413   6.179   3.585  15.025  0.2317 -0.2576 -4.0396
 3308TIP3   OH231414   1.648   4.308   5.277  0.2324 -0.0884  0.0058
 3308TIP3    H131415   1.606   4.239   5.226 -0.8607  0.2485  0.4395
 3308TIP3    H231416   1.712   4.346   5.217 -0.9093  0.1962 -1.0732
 3309TIP3   OH231417   1.194   2.301  14.076  0.5005  0.2802 -0.0725
 3309TIP3    H131418   1.229   2.266  14.158  3.1936 -1.2449 -1.7660
 3309TIP3    H231419   1.259   2.366  14.048 -1.3498  2.2230 -0.1177
 3310TIP3   OH231420   4.392   0.228   2.986  0.1691  0.3806 -0.1907
 3310TIP3    H131421   4.434   0.310   2.964  2.6047 -0.5107  0.7950
 3310TIP3    H231422   4.384   0.229   3.082  1.3363 -0.9816 -0.0419
 3311TIP3   OH231423   0.845   2.827  11.355 -0.2267 -0.4502  0.0466
 3311TIP3    H131424   0.851   2.833  11.450 -1.9082 -1.9143  0.2995
 3311TIP3    H231425   0.905   2.756  11.332 -1.7064 -1.8934  0.3782
 3312TIP3   OH231426   4.495   0.607  15.363 -0.1015 -0.2561 -0.0708
 3312TIP3    H131427   4.475   0.693  15.326  0.3566  0.4439  1.2435
 3312TIP3    H231428   4.449   0.545  15.305 -2.1680  0.9759  0.1353
 3313TIP3   OH231429   3.262   2.539   4.872  0.4417 -0.2020 -0.1119
 3313TIP3    H131430   3.331   2.599   4.899  0.0663  0.5239 -0.7394
 3313TIP3    H231431   3.276   2.461   4.926  0.2869  0.8396  1.4999
 3314TIP3   OH231432   4.891   4.184  15.023  0.5823 -0.2076 -0.1325
 3314TIP3    H131433   4.923   4.219  15.106 -2.7195  4.3420 -0.4119
 3314TIP3    H231434   4.950   4.221  14.957 -0.3794  1.4710 -0.1110
 3315TIP3   OH231435   2.513   1.455  14.308 -0.2502  0.0411 -0.0657
 3315TIP3    H131436   2.419   1.438  14.314 -0.9436  2.7021 -1.5664
 3315TIP3    H231437   2.549   1.378  14.263 -1.9396 -0.4438 -0.6558
 3316TIP3   OH231438   3.037   1.668  12.098  0.6291  0.3044  0.1443
 3316TIP3    H131439   2.982   1.700  12.027  2.2993 -1.1259 -1.9347
 3316TIP3    H231440   2.984   1.601  12.142 -0.9934  2.2716  1.3232
 3317TIP3   OH231441   2.464   1.184  14.214 -0.5041  0.1055  0.3108
 3317TIP3    H131442   2.493   1.099  14.178 -0.0287  0.6672 -0.6863
 3317TIP3    H231443   2.423   1.162  14.297  1.5073 -0.9085  1.1163
 3318TIP3   OH231444   2.815   1.200   0.994 -0.1688  0.0317 -0.2601
 3318TIP3    H131445   2.820   1.130   0.929  0.9424 -0.9723  0.8674
 3318TIP3    H231446   2.735   1.247   0.971 -1.9191 -2.6149 -0.0832
 3319TIP3   OH231447   3.930   6.100  13.865 -0.3911  0.2285 -0.3953
 3319TIP3    H131448   4.005   6.094  13.924 -0.8032 -2.0487  0.0016
 3319TIP3    H231449   3.854   6.094  13.923 -0.9074  1.7312 -0.8677
 3320TIP3   OH231450   3.793   2.140   5.442 -0.0954 -0.1794  0.2924
 3320TIP3    H131451   3.743   2.163   5.521 -3.3503 -1.9733 -1.0870
 3320TIP3    H231452   3.813   2.047   5.453 -1.3722 -0.6754 -1.3451
 3321TIP3   OH231453   0.653   3.955  16.199 -0.3226  0.1533 -0.2048
 3321TIP3    H131454   0.580   3.977  16.257  0.2855  2.0929 -0.1111
 3321TIP3    H231455   0.732   3.976  16.250  0.2302  2.0931 -1.7472
 3322TIP3   OH231456   6.759   6.035  16.868 -0.0127  0.2106  0.0407
 3322TIP3    H131457   6.751   6.000  16.780  0.2917 -0.5403  0.3018
 3322TIP3    H231458   6.850   6.020  16.892  0.5884  2.6773 -0.4319
 3323TIP3   OH231459   1.322   0.682  13.809 -0.0862 -0.2572  0.4100
 3323TIP3    H131460   1.260   0.631  13.757 -0.5358 -0.1976  0.8727
 3323TIP3    H231461   1.400   0.627  13.814 -0.2747 -0.5446  0.2223
 3324TIP3   OH231462   6.821   4.815   4.767 -1.1291  0.2131 -0.1596
 3324TIP3    H131463   6.915   4.826   4.751 -1.1946 -0.6750 -1.2692
 3324TIP3    H231464   6.798   4.735   4.721 -2.5058  0.5750 -0.1507
 3325TIP3   OH231465   2.343   0.120   4.345  0.1827 -0.0412  0.4829
 3325TIP3    H131466   2.353   0.200   4.397 -1.1275  0.1809  0.4288
 3325TIP3    H231467   2.327   0.051   4.409 -0.6113  0.0863  0.4252
 3326TIP3   OH231468   3.042   3.633  16.188  0.4120 -0.1782 -0.1044
 3326TIP3    H131469   2.968   3.660  16.133  0.8201  1.2209  0.0215
 3326TIP3    H231470   3.079   3.558  16.141 -0.8736 -0.7088 -0.3354
 3327TIP3   OH231471   5.722   3.174  16.168  0.1144  0.3113 -0.3457
 3327TIP3    H131472   5.696   3.104  16.229 -0.9369  0.3320 -0.7467
 3327TIP3    H231473   5.812   3.153  16.144  1.2263  1.2395  2.5517
 3328TIP3   OH231474   3.308   6.677   4.512  0.1937 -0.0441 -0.4246
 3328TIP3    H131475   3.371   6.743   4.484 -0.8669 -0.0544 -3.1376
 3328TIP3    H231476   3.238   6.681   4.446 -0.2251 -3.4171 -0.3647
 3329TIP3   OH231477   5.043   3.212   4.097  0.0866 -0.2120 -0.1742
 3329TIP3    H131478   5.035   3.199   4.002 -0.0434  0.0087 -0.1937
 3329TIP3    H231479   5.088   3.133   4.128  0.3747 -0.1640 -0.4566
 3330TIP3   OH231480   6.607   3.565  14.660  0.0394  0.1666 -0.4500
 3330TIP3    H131481   6.593   3.654  14.695 -0.3540 -0.2949  0.6090
 3330TIP3    H231482   6.702   3.553  14.663 -0.0611 -0.9659  3.4779
 3331TIP3   OH231483   5.460   2.045  10.936  0.0477  0.4117 -0.2022
 3331TIP3    H131484   5.375   2.064  10.975  0.1563 -1.9453  1.3832
 3331TIP3    H231485   5.443   1.975  10.873  0.4202  1.9211 -2.0810
 3332TIP3   OH231486   3.728   6.739  14.909 -0.0174  0.0950  0.4899
 3332TIP3    H131487   3.736   6.825  14.950 -2.3973  0.3536  0.5497
 3332TIP3    H231488   3.761   6.753  14.820 -1.1793  1.3398  0.2144
 3333TIP3   OH231489   5.052   1.464   1.822 -0.2502 -0.4359  0.2061
 3333TIP3    H131490   4.977   1.461   1.882  1.2025 -3.4593  2.1118
 3333TIP3    H231491   5.054   1.377   1.782 -0.1051  0.9191 -3.0963
 3334TIP3   OH231492   4.069   6.805  14.157 -0.2690 -0.4525 -0.5608
 3334TIP3    H131493   4.006   6.842  14.095 -0.9708 -0.9072 -0.1275
 3334TIP3    H231494   4.142   6.777  14.102 -1.8140 -2.9286 -1.5376
 3335TIP3   OH231495   2.616   1.371   2.330  0.1957  0.1091  0.7879
 3335TIP3    H131496   2.613   1.276   2.327 -0.6208  0.1482 -0.7026
 3335TIP3    H231497   2.709   1.393   2.317  0.3342 -0.4684  0.7840
 3336TIP3   OH231498   2.634   0.105   2.835  0.5209  0.3002  0.4102
 3336TIP3    H131499   2.542   0.123   2.814  0.4795  0.1716  0.4780
 3336TIP3    H231500   2.667   0.058   2.759  1.3159  2.7696 -0.8867
 3337TIP3   OH231501   1.119   2.353   1.319 -0.0173 -0.5851  0.1292
 3337TIP3    H131502   1.071   2.431   1.347  2.5991  0.7031  1.5013
 3337TIP3    H231503   1.105   2.290   1.390 -1.1584 -0.9390 -0.3942
 3338TIP3   OH231504   1.578   4.118   5.094 -0.0806 -0.5081 -0.2727
 3338TIP3    H131505   1.593   4.150   5.005 -0.5578 -0.0125 -0.1806
 3338TIP3    H231506   1.562   4.024   5.084 -1.5135 -0.2203 -0.8684
 3339TIP3   OH231507   0.463   3.944   3.102  0.3723  0.9391 -0.2788
 3339TIP3    H131508   0.521   3.907   3.036  0.1524  0.3862 -0.1735
 3339TIP3    H231509   0.382   3.963   3.055 -0.2412 -0.6396  0.0473
 3340TIP3   OH231510   1.194   0.801  12.361 -0.1185 -0.3580 -0.2111
 3340TIP3    H131511   1.246   0.827  12.285 -0.1980 -0.0537 -0.1628
 3340TIP3    H231512   1.224   0.713  12.381 -1.0339 -0.9705 -1.4013
 3341TIP3   OH231513   1.009   6.783  11.690 -0.6229 -0.0585 -1.0296
 3341TIP3    H131514   0.985   6.847  11.756  0.7042 -0.9764  0.4029
 3341TIP3    H231515   0.926   6.740  11.667 -1.0352 -0.1188  0.4898
 3342TIP3   OH231516   5.018   0.895   1.779 -0.0965 -0.3425 -0.7752
 3342TIP3    H131517   4.947   0.959   1.772  0.4729  0.6837  1.6781
 3342TIP3    H231518   5.068   0.906   1.698 -1.8288 -0.0023 -1.8499
 3343TIP3   OH231519   2.870   4.178  15.470 -0.5575  0.4559  0.5877
 3343TIP3    H131520   2.844   4.242  15.403 -1.5900 -0.2806  0.2668
 3343TIP3    H231521   2.924   4.115  15.423  0.0927  0.8368  0.8117
 3344TIP3   OH231522   0.940   1.004   2.462 -0.1580 -0.2704 -0.0691
 3344TIP3    H131523   1.001   0.965   2.526  0.2678  0.2177 -0.1674
 3344TIP3    H231524   0.889   0.930   2.430 -0.1423 -0.5782  0.5845
 3345TIP3   OH231525   5.902   1.980  15.205  0.4080  0.3402  0.0057
 3345TIP3    H131526   5.829   1.918  15.198  0.6304 -0.1488  1.5611
 3345TIP3    H231527   5.863   2.065  15.187 -0.0741 -0.1414 -1.3619
 3346TIP3   OH231528   2.748   4.231   1.119 -0.0307  0.3092 -0.2152
 3346TIP3    H131529   2.706   4.313   1.091 -0.4229  0.1546 -0.0764
 3346TIP3    H231530   2.682   4.164   1.106  1.6668 -0.8389 -4.7676
 3347TIP3   OH231531   5.357   1.546   4.407  0.0530  0.2489  0.5349
 3347TIP3    H131532   5.392   1.462   4.376 -1.6735  0.2233 -1.5728
 3347TIP3    H231533   5.292   1.521   4.472  1.5455  0.1594  2.0754
 3348TIP3   OH231534   4.433   5.295   4.903  0.2645  0.2945 -0.1245
 3348TIP3    H131535   4.392   5.247   4.975  0.2729 -2.0033 -1.5644
 3348TIP3    H231536   4.443   5.384   4.936 -0.0512 -0.5921  2.5747
 3349TIP3   OH231537   0.693   0.767  13.045  0.2452  0.2772 -0.3356
 3349TIP3    H131538   0.703   0.673  13.028 -0.9647 -0.1000  0.8855
 3349TIP3    H231539   0.763   0.788  13.108  1.6363  0.6242 -1.9098
 3350TIP3   OH231540   6.418   2.288   2.338 -0.4452  0.7036 -0.1999
 3350TIP3    H131541   6.391   2.237   2.415  1.4081  2.1159  1.5006
 3350TIP3    H231542   6.352   2.268   2.272 -1.2193 -1.8521  1.1955
 3351TIP3   OH231543   0.103   4.021   0.345 -0.6236  0.2746 -0.0285
 3351TIP3    H131544   0.109   4.104   0.298  0.2586  0.9167  1.1582
 3351TIP3    H231545   0.188   3.980   0.331 -0.0825  0.7985  1.5302
 3352TIP3   OH231546   1.588   5.406   1.705 -0.9164  0.2901  0.1563
 3352TIP3    H131547   1.549   5.463   1.771  0.7564  0.8502  0.7009
 3352TIP3    H231548   1.536   5.421   1.626 -2.6611 -0.0472  1.1880
 3353TIP3   OH231549   6.485   0.480   0.036 -0.1697  0.2123  0.0027
 3353TIP3    H131550   6.423   0.514   0.101  0.3542 -1.6129  1.5494
 3353TIP3    H231551   6.436   0.482  -0.047 -2.8273 -2.2206  1.3284
 3354TIP3   OH231552   5.765   5.285  13.370 -0.0681 -0.5952  0.0405
 3354TIP3    H131553   5.717   5.203  13.382 -0.3519 -0.5261 -0.6009
 3354TIP3    H231554   5.777   5.292  13.275 -1.0722  0.6928 -0.0181
 3355TIP3   OH231555   6.705   1.297  11.539 -0.2503 -0.3939  0.7137
 3355TIP3    H131556   6.727   1.375  11.487 -2.0897  0.2741  0.8530
 3355TIP3    H231557   6.745   1.224  11.491 -1.6423  0.2308 -1.5824
 3356TIP3   OH231558   3.460   3.916  17.214 -0.1360  0.3271  0.3487
 3356TIP3    H131559   3.443   4.001  17.254 -0.8571  0.0556  0.6353
 3356TIP3    H231560   3.404   3.855  17.263 -0.6800 -0.0876 -0.7662
 3357TIP3   OH231561   5.374   6.688   3.351 -0.1067 -0.6752  0.1326
 3357TIP3    H131562   5.295   6.742   3.349  0.4000  0.1458 -2.6747
 3357TIP3    H231563   5.446   6.750   3.340  0.6429 -1.7041 -1.0377
 3358TIP3   OH231564   0.031   0.780   4.660 -0.0764  0.1416 -0.0550
 3358TIP3    H131565   0.070   0.794   4.574 -0.6096 -0.0512 -0.3274
 3358TIP3    H231566  -0.063   0.774   4.644 -0.3839  2.0790  0.7705
 3359TIP3   OH231567   3.950   2.407  15.728  0.0620 -0.0958  0.2644
 3359TIP3    H131568   4.018   2.384  15.791 -0.8189  0.1022  1.3224
 3359TIP3    H231569   3.910   2.323  15.704  0.5773 -0.1985 -0.2589
 3360TIP3   OH231570   5.454   5.478   3.881 -0.1840 -0.7391  0.5492
 3360TIP3    H131571   5.513   5.552   3.897 -1.6521  0.6778 -0.2678
 3360TIP3    H231572   5.401   5.471   3.960 -1.3568  0.4029 -0.0934
 3361TIP3   OH231573   0.860   2.277  12.430 -0.3057 -0.0116  0.2552
 3361TIP3    H131574   0.812   2.319  12.502 -0.1459 -2.2839  1.8331
 3361TIP3    H231575   0.944   2.252  12.469  0.8002  0.8624 -1.4701
 3362TIP3   OH231576   2.968   6.573  14.240 -0.1791  0.2464 -0.1313
 3362TIP3    H131577   2.888   6.522  14.252 -0.7058  0.8631 -0.9080
 3362TIP3    H231578   3.035   6.525  14.288 -0.7536 -0.9402 -0.4941
 3363TIP3   OH231579   3.909   0.165   1.008 -0.2009 -0.1957 -0.7158
 3363TIP3    H131580   3.912   0.218   1.087  3.0573  0.2476 -1.0272
 3363TIP3    H231581   3.838   0.102   1.024 -1.9507  2.0353  1.0356
 3364TIP3   OH231582   3.259   5.048  11.448  0.2280 -0.2842  0.3219
 3364TIP3    H131583   3.164   5.044  11.439  0.3804 -1.1056 -1.3632
 3364TIP3    H231584   3.281   4.973  11.503 -0.0117 -0.9756 -0.4920
 3365TIP3   OH231585   5.790   4.802   4.113  0.4159 -0.3793  0.2120
 3365TIP3    H131586   5.787   4.801   4.209  1.2716  3.7416  0.4745
 3365TIP3    H231587   5.700   4.784   4.086  0.1256 -1.4676  1.7603
 3366TIP3   OH231588   1.134   3.662  15.853 -0.3874  0.0788  0.1515
 3366TIP3    H131589   1.163   3.734  15.909 -1.8811  1.3446 -0.6163
 3366TIP3    H231590   1.052   3.694  15.814 -0.1888 -1.3525 -1.5529
 3367TIP3   OH231591   2.371   0.872  11.565  0.0132 -0.2588  0.0546
 3367TIP3    H131592   2.322   0.940  11.518  0.0015 -1.2515 -1.4421
 3367TIP3    H231593   2.313   0.845  11.636  0.0387  1.3079  0.6993
 3368TIP3   OH231594   5.712   0.810  11.014  0.4583  0.3200  0.2098
 3368TIP3    H131595   5.645   0.827  10.948  0.3461 -0.1739  0.1883
 3368TIP3    H231596   5.747   0.724  10.991  0.1914 -0.0060  0.9792
 3369TIP3   OH231597   4.047   0.257  15.486 -0.4318 -0.2826  0.0128
 3369TIP3    H131598   3.991   0.332  15.504 -1.3378 -0.6447 -1.1534
 3369TIP3    H231599   4.115   0.260  15.553 -0.4214  1.6081 -0.0406
 3370TIP3   OH231600   6.814   2.553   0.660 -0.3926  0.3683 -0.3028
 3370TIP3    H131601   6.837   2.495   0.732  0.3342  0.6975 -0.2566
 3370TIP3    H231602   6.897   2.573   0.618 -0.3036  2.8492  0.8168
 3371TIP3   OH231603   4.333   3.791  10.523 -0.1079 -0.0354 -0.1881
 3371TIP3    H131604   4.410   3.737  10.509  0.6292  1.2203 -1.1384
 3371TIP3    H231605   4.290   3.796  10.437 -1.0664 -0.4350  0.2501
 3372TIP3   OH231606   4.560   4.720   4.775 -0.2397 -0.1825 -0.1657
 3372TIP3    H131607   4.587   4.628   4.784 -0.3151 -0.2658 -0.7148
 3372TIP3    H231608   4.491   4.731   4.839  3.2109  0.9607  3.8228
 3373TIP3   OH231609   6.604   1.583  13.995  0.1179  0.2142  0.3913
 3373TIP3    H131610   6.509   1.584  14.004 -0.2941  0.5955 -2.8331
 3373TIP3    H231611   6.623   1.505  13.944  1.4594  0.6170  0.2268
 3374TIP3   OH231612   0.415   2.271  10.240 -0.5039 -0.0642 -0.4036
 3374TIP3    H131613   0.481   2.287  10.308 -1.8323  0.3634  0.8302
 3374TIP3    H231614   0.369   2.354  10.231  0.1389  0.1216 -2.4308
 3375TIP3   OH231615   2.159   4.324  12.247  0.9429  0.0834 -0.2946
 3375TIP3    H131616   2.091   4.378  12.208  1.3505  0.6517 -0.2346
 3375TIP3    H231617   2.135   4.316  12.339  0.6266 -0.2454 -0.4025
 3376TIP3   OH231618   1.269   5.890   2.032  0.0253 -0.1004 -0.0237
 3376TIP3    H131619   1.234   5.809   1.995  1.1394 -2.2124  3.0993
 3376TIP3    H231620   1.193   5.937   2.065 -0.5050 -0.7212 -0.3492
 3377TIP3   OH231621   1.066   2.235   1.578  0.0264 -0.4786  0.7580
 3377TIP3    H131622   0.972   2.242   1.595 -1.0194 -0.4396 -3.7606
 3377TIP3    H231623   1.084   2.141   1.582 -1.0960 -0.8637 -1.5468
 3378TIP3   OH231624   0.407   6.249   2.776  0.5256  0.0580  0.0635
 3378TIP3    H131625   0.402   6.341   2.805  2.1933  0.0711  0.3803
 3378TIP3    H231626   0.421   6.200   2.857  1.2686 -0.3133 -0.2893
 3379TIP3   OH231627   3.398   1.533   4.750  0.4845  0.3432 -0.0546
 3379TIP3    H131628   3.426   1.465   4.810 -0.2463 -1.3378 -1.5390
 3379TIP3    H231629   3.412   1.496   4.663 -0.4226  1.8856 -0.9084
 3380TIP3   OH231630   5.470   1.706  11.123  0.1554  0.0275  0.0723
 3380TIP3    H131631   5.492   1.644  11.053 -1.0480 -1.4970  0.9895
 3380TIP3    H231632   5.375   1.702  11.130  0.3060 -2.2037  3.7290
 3381TIP3   OH231633   0.588   3.754  14.123 -0.9654  0.4327 -0.1960
 3381TIP3    H131634   0.616   3.701  14.048 -0.0152  0.8409 -0.1428
 3381TIP3    H231635   0.513   3.707  14.159 -1.0937 -0.0585 -1.0748
 3382TIP3   OH231636   6.535   3.850   3.926  0.3203  0.2130 -0.1741
 3382TIP3    H131637   6.512   3.881   4.014  1.0339  2.0939 -0.6220
 3382TIP3    H231638   6.568   3.927   3.881  1.2020 -1.0029 -1.6925
 3383TIP3   OH231639   5.011   5.968  14.427 -0.0326  0.0980  0.3673
 3383TIP3    H131640   5.028   6.025  14.502  0.5730 -1.4000  1.3998
 3383TIP3    H231641   5.005   5.880  14.464 -1.7733 -0.4563 -1.0799
 3384TIP3   OH231642   2.376   0.019   3.659  0.0796 -0.2477  0.2631
 3384TIP3    H131643   2.366  -0.031   3.578  2.0844  0.4592 -0.4703
 3384TIP3    H231644   2.302   0.080   3.659  0.9275  0.8860 -1.9345
 3385TIP3   OH231645   3.645   6.146   1.817  0.4883  0.1053  0.1548
 3385TIP3    H131646   3.735   6.177   1.808  0.5235 -0.2019 -0.6431
 3385TIP3    H231647   3.653   6.052   1.833  0.2851 -0.3058 -1.8893
 3386TIP3   OH231648   3.078   5.140  13.637 -0.1921  0.0185  0.8243
 3386TIP3    H131649   3.154   5.130  13.694  1.0894  0.6809 -0.6877
 3386TIP3    H231650   3.103   5.207  13.574 -0.6154 -2.2089 -1.9353
 3387TIP3   OH231651   1.306   3.536  12.957  0.9520  0.5872 -0.0489
 3387TIP3    H131652   1.313   3.628  12.984  1.1874  0.3991  0.5498
 3387TIP3    H231653   1.234   3.501  13.008 -0.8400  1.0618 -2.1080
 3388TIP3   OH231654   1.674   6.645   4.640 -0.0524  0.2358 -0.5610
 3388TIP3    H131655   1.608   6.690   4.694  0.1563 -0.7387  0.5469
 3388TIP3    H231656   1.739   6.613   4.703  1.2875  0.8292 -1.5985
 3389TIP3   OH231657   0.221   6.553   3.829 -0.0947 -0.5559  0.3011
 3389TIP3    H131658   0.295   6.520   3.881 -0.7001  0.4025  1.8206
 3389TIP3    H231659   0.158   6.584   3.893 -0.3448  1.8604 -0.9911
 3390TIP3   OH231660   0.073   1.091   5.714  0.5391 -0.5179 -0.7294
 3390TIP3    H131661   0.125   1.055   5.786  0.0596  0.1907  0.0011
 3390TIP3    H231662  -0.017   1.083   5.744  0.3896  0.7613 -0.7751
 3391TIP3   OH231663   0.821   4.052  17.099 -0.0454  0.2743 -0.0318
 3391TIP3    H131664   0.833   4.134  17.051  1.1977  1.2076  1.7756
 3391TIP3    H231665   0.908   4.013  17.102 -0.6303 -1.1633 -0.8830
 3392TIP3   OH231666   0.106   1.918  15.322 -0.4291 -0.2242  0.3097
 3392TIP3    H131667   0.045   1.976  15.276 -0.3595  0.2965  0.8785
 3392TIP3    H231668   0.192   1.944  15.290 -0.3942  0.0224  0.6013
 3393TIP3   OH231669   2.875   4.954   5.848 -0.1359  0.5933  0.6031
 3393TIP3    H131670   2.904   4.863   5.839  0.3112  0.7526  0.4175
 3393TIP3    H231671   2.933   4.992   5.913  0.5513  1.1125 -0.2881
 3394TIP3   OH231672   3.491   2.173  11.576  0.5796 -0.9360 -0.8681
 3394TIP3    H131673   3.418   2.206  11.523 -1.1122 -0.1348  1.7425
 3394TIP3    H231674   3.567   2.221  11.545 -0.9166  1.8263 -0.5282
 3395TIP3   OH231675   0.984   5.188  16.593 -0.1966  0.1379 -0.1835
 3395TIP3    H131676   0.908   5.148  16.636 -0.2739 -0.6914 -1.0776
 3395TIP3    H231677   1.059   5.141  16.629 -0.2157 -0.1098 -0.4682
 3396TIP3   OH231678   2.028   3.077   2.458  0.0350  0.0815  0.0808
 3396TIP3    H131679   2.053   3.125   2.536  1.9235  0.3886 -0.6537
 3396TIP3    H231680   1.982   3.141   2.403 -1.7149 -0.2550  1.0734
 3397TIP3   OH231681   3.072   1.084  13.421 -0.4720 -0.2834  0.5641
 3397TIP3    H131682   2.990   1.114  13.381 -0.5308 -3.7686 -2.4260
 3397TIP3    H231683   3.052   0.997  13.456  2.1848 -2.1099 -1.9704
 3398TIP3   OH231684   6.108   2.791   4.209 -0.3488 -0.3862 -0.5676
 3398TIP3    H131685   6.090   2.699   4.226 -0.8543 -0.0809  0.6904
 3398TIP3    H231686   6.097   2.834   4.295 -0.1353  0.8359 -1.1271
 3399TIP3   OH231687   1.783   0.560  15.537 -0.4722 -0.2966  0.0592
 3399TIP3    H131688   1.743   0.477  15.514 -1.6138  0.1804  0.2821
 3399TIP3    H231689   1.860   0.536  15.589 -0.1428 -1.2334 -0.8289
 3400TIP3   OH231690   4.480   2.739   3.885  0.0026 -0.0418 -0.4451
 3400TIP3    H131691   4.537   2.663   3.892  0.1742  0.2363  2.4151
 3400TIP3    H231692   4.481   2.762   3.792  0.5284 -3.0351 -1.2630
 3401TIP3   OH231693   2.315   5.906   5.507  0.4348  0.5775 -0.7255
 3401TIP3    H131694   2.251   5.938   5.444  0.1212 -0.2821 -0.8534
 3401TIP3    H231695   2.293   5.814   5.520  0.7250  0.6396  0.3534
 3402TIP3   OH231696   6.840   3.005   1.996  0.2550  0.2658  0.2418
 3402TIP3    H131697   6.925   2.964   2.009  0.2430  0.6486  1.8048
 3402TIP3    H231698   6.788   2.976   2.071 -0.9161  0.2415 -0.5557
 3403TIP3   OH231699   0.359   3.442  13.193 -0.8881 -0.3858  0.8824
 3403TIP3    H131700   0.268   3.429  13.220 -1.1323 -2.0259 -0.5054
 3403TIP3    H231701   0.371   3.380  13.120  1.0713  0.4441  0.4337
 3404TIP3   OH231702   3.994   5.732   0.730  0.1854  0.5612  0.5043
 3404TIP3    H131703   3.988   5.825   0.707 -1.5928  0.1983 -0.7402
 3404TIP3    H231704   3.987   5.730   0.826 -0.3689  1.6803  0.4989
 3405TIP3   OH231705   3.482   5.540   0.577  0.8994  0.6466 -0.3263
 3405TIP3    H131706   3.569   5.545   0.539  1.5995  0.3170  1.1649
 3405TIP3    H231707   3.489   5.476   0.647 -0.8590 -0.2968 -0.9364
 3406TIP3   OH231708   4.611   4.501  16.718  0.0817  0.0742  0.3301
 3406TIP3    H131709   4.552   4.566  16.681  0.4693  1.1447  1.5314
 3406TIP3    H231710   4.699   4.533  16.696  0.2663 -0.7115 -0.1342
 3407TIP3   OH231711   5.626   0.095   2.868 -0.3970 -0.0209 -0.0940
 3407TIP3    H131712   5.537   0.129   2.873 -0.1578  0.7783 -1.0376
 3407TIP3    H231713   5.637   0.069   2.777  0.6049  0.6650 -0.1876
 3408TIP3   OH231714   0.365   0.677   2.921  0.0652  0.2268 -0.6116
 3408TIP3    H131715   0.397   0.623   2.849  0.5612 -0.5975  0.2099
 3408TIP3    H231716   0.418   0.756   2.918  0.1149  0.1737 -1.1185
 3409TIP3   OH231717   0.519   1.708   0.602  0.4508 -0.2722 -0.2559
 3409TIP3    H131718   0.445   1.680   0.548 -1.4003 -1.8300  2.8396
 3409TIP3    H231719   0.563   1.626   0.627  0.5627  0.2907  1.4848
 3410TIP3   OH231720   6.453   5.029  15.276 -0.2673 -0.6790  0.2827
 3410TIP3    H131721   6.412   5.103  15.322 -0.7677  0.0565 -1.2720
 3410TIP3    H231722   6.445   4.956  15.338 -0.8199  0.2746  1.3973
 3411TIP3   OH231723   3.859   3.750  11.526 -0.0821  0.2640  0.4082
 3411TIP3    H131724   3.945   3.791  11.535  0.6851 -1.4207  1.0687
 3411TIP3    H231725   3.822   3.790  11.447  1.5131  0.6584 -0.1699
 3412TIP3   OH231726   2.174   3.884   2.849  0.0327  0.3320 -0.2998
 3412TIP3    H131727   2.180   3.979   2.854  2.9481  0.1714  0.8022
 3412TIP3    H231728   2.237   3.859   2.781  0.3544 -0.8747  0.4089
 3413TIP3   OH231729   3.578   5.944  14.349 -0.8150  0.0825 -0.4812
 3413TIP3    H131730   3.581   5.924  14.256  0.8658 -3.6165  0.2042
 3413TIP3    H231731   3.670   5.954  14.375 -1.2244  0.6601  0.8559
 3414TIP3   OH231732   4.199   2.730   4.723  0.7274  0.0768 -0.0815
 3414TIP3    H131733   4.265   2.722   4.792  1.6107  2.7135 -0.5132
 3414TIP3    H231734   4.123   2.770   4.766  1.1140  1.3029 -0.5007
 3415TIP3   OH231735   6.656   6.778   0.275  0.0792 -0.2647  0.0245
 3415TIP3    H131736   6.584   6.809   0.330 -0.8047  0.1695 -1.3022
 3415TIP3    H231737   6.716   6.852   0.270 -0.1725 -0.0662 -0.1199
 3416TIP3   OH231738   1.776   5.355  12.753 -0.0131  0.5407 -0.9432
 3416TIP3    H131739   1.816   5.275  12.789 -1.4552  0.3489  0.3407
 3416TIP3    H231740   1.830   5.426  12.787 -0.9067  0.3085  1.1097
 3417TIP3   OH231741   3.949   1.295   5.266  0.5063 -0.2650  0.4267
 3417TIP3    H131742   4.043   1.281   5.277  1.2261  2.2239 -1.5590
 3417TIP3    H231743   3.916   1.307   5.355  1.8259 -2.0876  1.2449
 3418TIP3   OH231744   4.058   3.897   2.541 -0.2878 -0.1715  0.4342
 3418TIP3    H131745   4.116   3.870   2.469  0.5905 -0.9430  1.4146
 3418TIP3    H231746   3.992   3.828   2.546 -0.3343 -0.1298  0.4051
 3419TIP3   OH231747   1.029   2.169  15.761 -0.0711  0.5028  0.6386
 3419TIP3    H131748   1.051   2.180  15.668 -2.4085  3.9013  0.3051
 3419TIP3    H231749   1.027   2.074  15.774  2.0895 -0.0933 -2.2567
 3420TIP3   OH231750   4.237   4.055  11.052  0.2210 -0.5700  1.0053
 3420TIP3    H131751   4.266   3.988  10.990 -0.2292  0.8475 -0.8135
 3420TIP3    H231752   4.142   4.060  11.039  0.3205  0.8326  0.6536
 3421TIP3   OH231753   0.310   5.317  10.979  0.0045 -0.2351 -0.3343
 3421TIP3    H131754   0.235   5.311  10.920 -1.1288  1.6627  0.8131
 3421TIP3    H231755   0.338   5.226  10.991 -0.7422 -0.8009 -2.4755
 3422TIP3   OH231756   6.018   0.988  16.515  0.2253  0.2582 -0.3540
 3422TIP3    H131757   6.021   1.032  16.599 -0.5971  0.8715 -0.6343
 3422TIP3    H231758   6.080   1.035  16.460  0.7476 -0.1301 -0.1053
 3423TIP3   OH231759   6.580   3.337   1.994 -0.2901 -0.2923 -0.0244
 3423TIP3    H131760   6.635   3.341   2.073  0.0001 -1.3098 -0.1653
 3423TIP3    H231761   6.635   3.296   1.928  0.0316  2.0041 -1.2760
 3424TIP3   OH231762   5.114   5.265   2.525  0.8128  0.2581  0.2214
 3424TIP3    H131763   5.117   5.182   2.573 -0.5865  0.3262  0.4459
 3424TIP3    H231764   5.194   5.310   2.551  0.9046 -0.4232  1.1689
 3425TIP3   OH231765   4.412   4.716   5.014  0.0755 -0.0490 -0.0974
 3425TIP3    H131766   4.438   4.624   5.020 -0.6673 -0.1824  1.6710
 3425TIP3    H231767   4.322   4.718   5.046 -1.1718  0.8369 -3.2508
 3426TIP3   OH231768   1.432   2.288   2.367  0.4071  0.0391  0.7876
 3426TIP3    H131769   1.491   2.309   2.439  1.2086 -0.0019  0.1477
 3426TIP3    H231770   1.489   2.276   2.291 -0.4858  0.9287 -0.0517
 3427TIP3   OH231771   3.744   5.867  16.016 -0.2448 -0.2603  0.3227
 3427TIP3    H131772   3.689   5.861  15.938  0.4607  0.4194 -0.2463
 3427TIP3    H231773   3.711   5.944  16.064 -0.8751 -0.8556  0.8677
 3428TIP3   OH231774   6.274   0.732   3.362  0.1768  0.0370  0.9575
 3428TIP3    H131775   6.319   0.731   3.278  1.1673 -0.3451  1.4718
 3428TIP3    H231776   6.181   0.733   3.340  0.4229  0.0334 -0.1325
 3429TIP3   OH231777   0.708   6.750  16.202  0.6219  1.4555 -0.6080
 3429TIP3    H131778   0.652   6.829  16.203  0.3075  1.2337 -0.3995
 3429TIP3    H231779   0.727   6.736  16.109 -1.2246  0.4589 -0.8994
 3430TIP3   OH231780   4.134   1.351   6.084 -0.1033 -0.1529  0.2279
 3430TIP3    H131781   4.121   1.404   6.163 -3.1596  0.0358 -0.2997
 3430TIP3    H231782   4.058   1.293   6.081 -0.2566  0.0956 -2.7541
 3431TIP3   OH231783   3.871   5.415  12.769 -0.3168  0.2650 -0.3575
 3431TIP3    H131784   3.954   5.453  12.796 -0.6158  0.6242  0.0551
 3431TIP3    H231785   3.875   5.324  12.799 -0.5854  0.6175  0.7862
 3432TIP3   OH231786   4.730   6.533   0.029  0.7807 -0.2057  0.3099
 3432TIP3    H131787   4.710   6.462  -0.031 -0.1226  0.1279  0.1968
 3432TIP3    H231788   4.812   6.507   0.071  1.6277 -0.2635 -1.3273
 3433TIP3   OH231789   1.700   2.447   5.087  0.0541 -0.4864  0.3388
 3433TIP3    H131790   1.707   2.392   5.165 -0.6573 -0.0215  0.7366
 3433TIP3    H231791   1.724   2.389   5.015 -1.7775 -1.6706  0.6121
 3434TIP3   OH231792   3.450   5.739   5.495  0.1478 -0.1087  0.1273
 3434TIP3    H131793   3.386   5.719   5.564  0.6970  0.2195  0.7469
 3434TIP3    H231794   3.531   5.697   5.524  0.2419 -0.4301 -0.5979
 3435TIP3   OH231795   3.183   3.122  14.398 -0.4093  0.4701  0.3065
 3435TIP3    H131796   3.223   3.122  14.485 -1.4698 -0.5117  0.8360
 3435TIP3    H231797   3.098   3.164  14.410 -0.1917  1.1736 -0.4734
 3436TIP3   OH231798   5.483   3.573   1.939 -0.5022  0.4693 -0.4986
 3436TIP3    H131799   5.400   3.552   1.897 -1.1989  0.9999  0.5488
 3436TIP3    H231800   5.466   3.559   2.033 -0.1972  3.0249 -0.0069
 3437TIP3   OH231801   0.506   6.301   5.576 -0.6857 -0.0265 -0.0883
 3437TIP3    H131802   0.534   6.381   5.531 -0.3082 -0.9304 -1.5197
 3437TIP3    H231803   0.571   6.235   5.551 -1.2421 -0.8926  0.6962
 3438TIP3   OH231804   6.787   5.123   1.424  0.1344 -0.5733  0.2648
 3438TIP3    H131805   6.879   5.094   1.425  0.5116  0.4049 -1.5359
 3438TIP3    H231806   6.793   5.218   1.426 -0.9041 -0.5223  1.3232
 3439TIP3   OH231807   0.851   3.897  11.480 -0.0983  0.1861 -0.3992
 3439TIP3    H131808   0.785   3.929  11.418 -1.1554 -0.6477  0.2668
 3439TIP3    H231809   0.872   3.809  11.449  0.3146  0.2508 -0.3056
 3440TIP3   OH231810   1.565   5.708   0.955  0.4673 -0.1979  0.2703
 3440TIP3    H131811   1.524   5.624   0.932 -2.2556  0.3368  2.5310
 3440TIP3    H231812   1.636   5.684   1.015  0.8594 -0.9377 -0.4574
 3441TIP3   OH231813   4.594   5.682  10.703  0.3852  0.2174 -0.1653
 3441TIP3    H131814   4.519   5.732  10.671  1.0809  0.8447 -0.8521
 3441TIP3    H231815   4.588   5.598  10.658  0.7732  0.7156 -1.1538
 3442TIP3   OH231816   6.726   3.341  11.521 -0.7883  0.0088  0.3310
 3442TIP3    H131817   6.668   3.275  11.559 -1.5656  0.5355  0.0796
 3442TIP3    H231818   6.736   3.407  11.589 -0.1278 -0.2941  0.5303
 3443TIP3   OH231819   3.185   3.220  17.059 -0.5870  0.2773 -0.2369
 3443TIP3    H131820   3.230   3.301  17.034 -1.5340  0.5495 -1.1426
 3443TIP3    H231821   3.218   3.201  17.147  1.1626  0.5366 -0.7938
 3444TIP3   OH231822   5.151   5.757  16.762  0.6449  0.3496  0.3180
 3444TIP3    H131823   5.198   5.804  16.831  1.8926  0.9500 -0.8842
 3444TIP3    H231824   5.069   5.806  16.751  0.6759  0.5610  1.0000
 3445TIP3   OH231825   5.946   2.269   2.868  0.3978 -0.1090 -0.2871
 3445TIP3    H131826   5.918   2.360   2.860  1.0548  0.0852 -0.4664
 3445TIP3    H231827   6.016   2.271   2.934 -1.2393 -0.8592  1.5694
 3446TIP3   OH231828   6.691   2.281   0.449 -0.3005  0.5959  0.5386
 3446TIP3    H131829   6.636   2.311   0.521 -0.2585 -0.1225  0.8778
 3446TIP3    H231830   6.708   2.189   0.469 -0.5064  0.3182 -0.5299
 3447TIP3   OH231831   0.542   1.485   4.164 -0.1029  0.8123  0.3091
 3447TIP3    H131832   0.553   1.461   4.256  1.5556  0.2127 -0.0027
 3447TIP3    H231833   0.472   1.550   4.164 -1.3616 -0.4571  1.7751
 3448TIP3   OH231834   2.066   1.512  16.490 -0.3776  0.4022  0.5233
 3448TIP3    H131835   2.005   1.473  16.552  1.5511 -2.3108  0.8856
 3448TIP3    H231836   2.082   1.600  16.524 -1.8564  0.1458  1.9848
 3449TIP3   OH231837   1.087   3.955   1.763  0.1183 -1.1564 -1.2189
 3449TIP3    H131838   1.037   3.875   1.749 -0.7043 -0.6315 -1.3387
 3449TIP3    H231839   1.134   3.940   1.846  0.4213 -1.9714 -1.5292
 3450TIP3   OH231840   3.221   5.698   2.683  0.0377  0.0370 -0.3674
 3450TIP3    H131841   3.222   5.784   2.724 -0.0281 -0.4790  0.7472
 3450TIP3    H231842   3.154   5.649   2.729 -1.5574  0.0624 -2.5026
 3451TIP3   OH231843   4.990   6.806   0.762 -0.0227 -0.3291 -0.1870
 3451TIP3    H131844   5.040   6.881   0.728  0.6621 -1.6230 -2.2239
 3451TIP3    H231845   5.032   6.786   0.845  0.3147  1.0382  0.0020
 3452TIP3   OH231846   2.872   1.548   2.858 -0.0432 -0.2139 -0.0010
 3452TIP3    H131847   2.964   1.570   2.861  0.4646 -2.0504 -0.5167
 3452TIP3    H231848   2.840   1.587   2.776  0.1873  0.6611  0.3193
 3453TIP3   OH231849   1.833   5.048   1.546 -0.1745  0.0774  0.2315
 3453TIP3    H131850   1.857   5.134   1.582  0.4176 -1.1288  2.9713
 3453TIP3    H231851   1.842   5.059   1.451  1.4060  2.5833  0.5602
 3454TIP3   OH231852   3.986   0.506   3.894  0.2391 -0.8703 -0.8021
 3454TIP3    H131853   4.079   0.485   3.883  0.1343 -0.9940 -1.5452
 3454TIP3    H231854   3.956   0.526   3.805 -0.5709 -1.3546 -0.6396
 3455TIP3   OH231855   2.935   6.672   1.661  0.1254  0.1586  0.9387
 3455TIP3    H131856   3.002   6.727   1.703  2.6946 -0.2237 -2.2801
 3455TIP3    H231857   2.984   6.616   1.601 -3.1308  0.5026 -2.3701
 3456TIP3   OH231858   6.626   1.596   0.637  0.0290  0.3684  0.2878
 3456TIP3    H131859   6.537   1.567   0.655  0.1027  0.0237  0.0940
 3456TIP3    H231860   6.682   1.534   0.684  0.2304 -0.5990 -1.1704
 3457TIP3   OH231861   0.179   1.606  11.071  0.0665 -0.3491 -0.1734
 3457TIP3    H131862   0.138   1.561  10.998 -4.1649  1.9211  0.5152
 3457TIP3    H231863   0.107   1.636  11.126  2.7830  2.1948  2.4377
 3458TIP3   OH231864   5.374   3.909   3.990 -0.4362  0.0892 -0.3463
 3458TIP3    H131865   5.314   3.980   3.966  1.1992  1.9415  0.7757
 3458TIP3    H231866   5.434   3.903   3.916  0.6535  1.3476  0.3788
 3459TIP3   OH231867   3.471   5.357   2.084  0.5494  0.2848  0.2452
 3459TIP3    H131868   3.410   5.410   2.135  0.5645 -1.5522  2.3598
 3459TIP3    H231869   3.415   5.301   2.030  0.5172  1.5996 -1.1499
 3460TIP3   OH231870   0.646   4.380   5.446  0.0414 -0.2251 -0.1006
 3460TIP3    H131871   0.657   4.458   5.500  0.2331 -0.4968  0.2541
 3460TIP3    H231872   0.620   4.414   5.360  1.9226  0.3805 -0.4994
 3461TIP3   OH231873   3.824   2.795  11.910  0.1768  0.2359 -0.2032
 3461TIP3    H131874   3.856   2.707  11.893  1.4702  0.5648  0.4201
 3461TIP3    H231875   3.812   2.834  11.823 -1.0436 -0.7462 -0.5006
 3462TIP3   OH231876   2.129   0.230  15.973 -0.4786  1.1663 -0.1423
 3462TIP3    H131877   2.070   0.303  15.991  0.3410  1.7173  0.3902
 3462TIP3    H231878   2.091   0.157  16.021 -1.0872  1.3361 -0.3487
 3463TIP3   OH231879   6.806   6.102  13.820 -0.8078  0.8008  0.2181
 3463TIP3    H131880   6.734   6.155  13.851  0.2506  1.4124  1.7595
 3463TIP3    H231881   6.867   6.098  13.894  0.5189 -0.0839 -0.8633
 3464TIP3   OH231882   1.667   0.927   0.570  0.0113  0.3152  0.7151
 3464TIP3    H131883   1.648   0.840   0.607  2.9447 -2.9411 -4.2708
 3464TIP3    H231884   1.752   0.950   0.606  0.4162 -0.2391  0.1477
 3465TIP3   OH231885   3.805   0.043  12.217  0.1172  1.1455  0.7409
 3465TIP3    H131886   3.712   0.053  12.196  0.0621  1.8418  1.2565
 3465TIP3    H231887   3.847   0.024  12.133 -0.4586  1.0878  0.4638
 3466TIP3   OH231888   1.279   0.655   2.521 -0.4666 -0.5428 -0.2173
 3466TIP3    H131889   1.323   0.662   2.605 -1.2519  0.1103  0.1507
 3466TIP3    H231890   1.200   0.709   2.530 -1.1241 -1.3354 -0.9925
 3467TIP3   OH231891   4.556   1.130   2.675  0.1410 -0.0687 -0.4028
 3467TIP3    H131892   4.539   1.210   2.625  0.3968  1.2538  1.5063
 3467TIP3    H231893   4.590   1.068   2.611  1.8296  1.9836 -1.6397
 3468TIP3   OH231894   6.568   2.679   1.293  0.0384 -0.4445 -0.4973
 3468TIP3    H131895   6.641   2.657   1.350  1.2840 -0.0761 -1.8881
 3468TIP3    H231896   6.607   2.733   1.223 -1.8248  1.0879 -0.4541
 3469TIP3   OH231897   6.400   6.354   4.554  0.1261  0.4751  0.0571
 3469TIP3    H131898   6.332   6.292   4.529 -2.0914  2.3905  0.9591
 3469TIP3    H231899   6.396   6.422   4.488  1.4451  0.4586 -0.0623
 3470TIP3   OH231900   2.733   4.293   5.428 -0.3449 -0.0892 -0.3727
 3470TIP3    H131901   2.675   4.237   5.480 -0.1472  1.2029  1.3167
 3470TIP3    H231902   2.821   4.261   5.447 -0.2705  0.3951  0.1036
 3471TIP3   OH231903   6.814   3.971   3.541  0.2029  0.1149  0.0242
 3471TIP3    H131904   6.862   4.054   3.539 -1.5253  1.1444 -0.7376
 3471TIP3    H231905   6.751   3.981   3.612 -0.6095 -0.1885 -0.6356
 3472TIP3   OH231906   0.003   4.065  16.646  0.2962  0.1981  0.1889
 3472TIP3    H131907  -0.037   4.011  16.577  2.3802 -0.3050 -0.7045
 3472TIP3    H231908  -0.006   4.012  16.725 -2.3522  0.8883  0.4606
 3473TIP3   OH231909   6.249   4.708  13.126 -0.2680 -0.5567  0.0988
 3473TIP3    H131910   6.270   4.725  13.218 -1.0046  0.7464  0.0581
 3473TIP3    H231911   6.331   4.678  13.087  0.6952  1.1900  0.6661
 3474TIP3   OH231912   4.992   0.876   5.274  0.0960  0.2466  0.4934
 3474TIP3    H131913   4.917   0.907   5.325 -0.6566 -0.1577 -0.3314
 3474TIP3    H231914   4.956   0.805   5.219  0.9328  0.4711 -0.3782
 3475TIP3   OH231915   4.676   2.375   2.631 -0.7274 -0.4095  0.6634
 3475TIP3    H131916   4.739   2.426   2.681 -0.7292 -0.2992  0.5549
 3475TIP3    H231917   4.592   2.393   2.673 -0.4529 -2.1049  2.0647
 3476TIP3   OH231918   3.290   2.570   6.097  0.1272 -0.3855  0.0463
 3476TIP3    H131919   3.222   2.539   6.156 -0.7462 -0.7923 -1.1274
 3476TIP3    H231920   3.368   2.520   6.121 -0.3742 -0.9901  0.4488
 3477TIP3   OH231921   3.458   1.402  12.941 -0.1405  0.1279 -1.0317
 3477TIP3    H131922   3.465   1.306  12.935 -1.2725 -0.3092  2.3090
 3477TIP3    H231923   3.373   1.422  12.901 -1.6224 -0.8415  1.3995
 3478TIP3   OH231924   2.072   0.724  12.546 -0.5090  0.0663 -0.2224
 3478TIP3    H131925   2.020   0.733  12.626  0.9596  2.0867  0.6208
 3478TIP3    H231926   2.096   0.632  12.542 -1.8247 -0.3472  0.8605
 3479TIP3   OH231927   0.160   0.694   2.600  0.1383 -0.4798 -0.6051
 3479TIP3    H131928   0.227   0.746   2.645  0.0321 -0.5768 -0.3306
 3479TIP3    H231929   0.155   0.732   2.512  1.0363 -0.9068 -0.8501
 3480TIP3   OH231930   5.091   6.461  10.331 -0.4879 -0.0330 -0.1016
 3480TIP3    H131931   5.092   6.497  10.242 -0.4161 -1.7084 -0.8196
 3480TIP3    H231932   5.098   6.366  10.318  0.2220 -0.2631  1.7234
 3481TIP3   OH231933   5.079   1.764   0.534  0.0077  0.7305 -0.0185
 3481TIP3    H131934   5.168   1.751   0.566  0.4464  0.8045 -1.1894
 3481TIP3    H231935   5.038   1.678   0.540 -0.8790  1.2112  3.4090
 3482TIP3   OH231936   0.095   0.146   6.724  0.1177  0.0575 -0.3893
 3482TIP3    H131937   0.136   0.205   6.660  3.9548 -1.3116  0.5612
 3482TIP3    H231938   0.159   0.077   6.738 -3.2101 -3.2017  0.2878
 3483TIP3   OH231939   6.417   4.371  14.298  0.7276  0.3402 -0.6722
 3483TIP3    H131940   6.504   4.401  14.272  0.7990  0.3711 -0.4028
 3483TIP3    H231941   6.434   4.288  14.343  0.7077  0.7752  0.1546
 3484TIP3   OH231942   0.258   5.810   4.649 -0.4766  0.2630 -0.0878
 3484TIP3    H131943   0.196   5.780   4.583 -0.1985  1.4551 -0.9194
 3484TIP3    H231944   0.325   5.857   4.600 -0.5037  1.5831  1.0769
 3485TIP3   OH231945   3.406   4.763  15.941 -0.5934  0.3157 -0.2309
 3485TIP3    H131946   3.450   4.678  15.942  0.2199  0.7182 -0.7061
 3485TIP3    H231947   3.471   4.824  15.976 -1.1837  0.7413  0.1495
 3486TIP3   OH231948   2.569   5.150   0.451  0.1940 -0.4675 -0.3376
 3486TIP3    H131949   2.561   5.098   0.371 -1.4054 -2.3113  0.8993
 3486TIP3    H231950   2.479   5.176   0.471  0.5477 -0.1372  0.9076
 3487TIP3   OH231951   3.433   5.823  11.473 -0.0547  0.5150  0.4660
 3487TIP3    H131952   3.517   5.858  11.504  1.0235 -1.3878 -0.1732
 3487TIP3    H231953   3.430   5.734  11.506 -1.5340  0.3291 -0.0896
 3488TIP3   OH231954   3.396   1.890  17.191  0.3885 -0.0830 -0.1318
 3488TIP3    H131955   3.390   1.874  17.097 -0.5105 -2.9603  0.3143
 3488TIP3    H231956   3.337   1.826  17.230  1.7022  0.1670  2.4849
 3489TIP3   OH231957   5.426   5.143   2.988  0.5440  0.2372 -0.2276
 3489TIP3    H131958   5.426   5.049   2.967  1.2648  0.5440 -1.6870
 3489TIP3    H231959   5.334   5.167   2.992  0.3708 -0.2598 -1.1593
 3490TIP3   OH231960   2.235   3.855   6.487  0.4940 -0.0424 -0.1528
 3490TIP3    H131961   2.255   3.888   6.574  0.3566 -0.3904  0.0103
 3490TIP3    H231962   2.162   3.795   6.499 -0.8193  1.3629 -0.7749
 3491TIP3   OH231963   6.460   5.309  14.719 -0.4667  0.1630 -0.0327
 3491TIP3    H131964   6.513   5.236  14.687  0.6863  1.4702 -1.2103
 3491TIP3    H231965   6.519   5.360  14.774 -1.1561  0.4528  0.4673
 3492TIP3   OH231966   1.307   5.462  14.130  0.3533 -0.2994 -0.0042
 3492TIP3    H131967   1.393   5.432  14.100  0.1158 -0.7892 -0.2124
 3492TIP3    H231968   1.312   5.557  14.129  0.0570 -0.2550 -2.5003
 3493TIP3   OH231969   4.541   1.311   3.704 -0.2714 -0.5963  0.3599
 3493TIP3    H131970   4.466   1.310   3.764 -1.2755 -1.9688 -0.8534
 3493TIP3    H231971   4.586   1.229   3.720 -0.6322 -1.0489 -0.8113
 3494TIP3   OH231972   4.272   2.326   3.080 -0.0473 -0.6538  0.3315
 3494TIP3    H131973   4.300   2.236   3.095 -2.1403 -1.0886  2.2260
 3494TIP3    H231974   4.281   2.368   3.166 -0.7458  0.4436 -0.1042
 3495TIP3   OH231975   2.469   1.112  16.151 -0.1227  1.2157 -0.1921
 3495TIP3    H131976   2.516   1.034  16.121  0.5313  1.4497  0.1977
 3495TIP3    H231977   2.472   1.107  16.246 -0.7379  1.3292 -0.1643
 3496TIP3   OH231978   4.198   1.133  16.621 -0.0440 -0.7245  0.1225
 3496TIP3    H131979   4.196   1.117  16.527  0.5357 -0.0795 -0.0100
 3496TIP3    H231980   4.156   1.056  16.660  1.4331 -1.9357 -0.5484
 3497TIP3   OH231981   4.118   5.635   4.331  0.3109  0.1524  0.0847
 3497TIP3    H131982   4.069   5.572   4.278 -1.0707  1.0784  0.1966
 3497TIP3    H231983   4.128   5.711   4.274 -1.3110  1.2171  1.1165
 3498TIP3   OH231984   2.596   5.405   0.208 -0.2225 -0.1172  0.2254
 3498TIP3    H131985   2.566   5.445   0.290 -2.7869  0.1976 -0.7867
 3498TIP3    H231986   2.664   5.463   0.176 -0.1940  0.5330  1.4059
 3499TIP3   OH231987   6.829   5.856   0.422  0.1352  0.1143 -0.3714
 3499TIP3    H131988   6.749   5.804   0.428 -0.6049  1.0495 -1.7666
 3499TIP3    H231989   6.799   5.947   0.417  1.2484  0.4536 -1.3911
 3500TIP3   OH231990   0.717   3.824   5.019 -0.1716  0.0498 -0.1948
 3500TIP3    H131991   0.686   3.893   5.078  1.8680  0.7509  0.1580
 3500TIP3    H231992   0.737   3.869   4.937  0.5266 -0.2204 -0.1842
 3501TIP3   OH231993   4.572   4.287  14.578  0.1653  0.4832  0.0654
 3501TIP3    H131994   4.555   4.373  14.616  1.2048  0.3433  0.8945
 3501TIP3    H231995   4.666   4.274  14.589 -0.0020 -0.8248  0.1060
 3502TIP3   OH231996   6.692   0.126   2.509 -0.6174  0.3366 -0.3257
 3502TIP3    H131997   6.777   0.097   2.475 -1.8271 -3.0138 -0.8523
 3502TIP3    H231998   6.712   0.207   2.557  3.0500 -0.8983  0.5576
 3503TIP3   OH231999   4.755   3.207   5.301  0.1334  0.3458  0.3059
 3503TIP3    H132000   4.683   3.164   5.255  0.3981  0.3830 -0.1478
 3503TIP3    H232001   4.735   3.195   5.394 -1.4756  1.9967  0.2356
 3504TIP3   OH232002   2.426   0.562   0.127  0.8185 -0.1009  0.0188
 3504TIP3    H132003   2.378   0.498   0.179  2.4274 -0.5449  1.0207
 3504TIP3    H232004   2.394   0.647   0.157 -0.9242 -0.3816 -0.9289
 3505TIP3   OH232005   2.954   5.208   0.276  0.0268  0.0709 -0.0072
 3505TIP3    H132006   3.041   5.174   0.257  0.1471  0.1318  0.4243
 3505TIP3    H232007   2.894   5.138   0.250  0.2236 -0.1025  0.0092
 3506TIP3   OH232008   1.962   0.648   5.480 -0.5425 -0.3346  0.2111
 3506TIP3    H132009   1.925   0.736   5.484  1.8638  0.7603  0.0045
 3506TIP3    H232010   1.925   0.610   5.400  0.7888  1.7043 -1.4595
 3507TIP3   OH232011   5.980   5.853   0.240 -0.2943  0.3994 -0.0937
 3507TIP3    H132012   5.922   5.810   0.178  0.5235 -1.0610  0.0981
 3507TIP3    H232013   6.047   5.895   0.186  0.4742 -0.9524 -0.2476
 3508TIP3   OH232014   4.120   2.841  15.280 -0.3591  0.5965 -0.1397
 3508TIP3    H132015   4.154   2.770  15.225  0.0278  0.3894  0.3578
 3508TIP3    H232016   4.070   2.796  15.348 -0.3641  0.8196  0.0025
 3509TIP3   OH232017   6.237   0.988   6.323 -0.0083 -0.2842  0.3809
 3509TIP3    H132018   6.232   0.948   6.410 -1.0171 -1.5519 -0.2239
 3509TIP3    H232019   6.248   1.081   6.341  2.8647 -0.7885  1.8579
 3510TIP3   OH232020   1.267   4.002   6.125 -0.3436 -0.0373 -0.0437
 3510TIP3    H132021   1.290   3.989   6.216  0.1453  0.2888 -0.1205
 3510TIP3    H232022   1.199   4.069   6.127 -1.6436 -1.3023  0.2129
 3511TIP3   OH232023   0.233   2.893   4.483  0.4949  0.3635 -0.9076
 3511TIP3    H132024   0.202   2.858   4.399 -1.0656 -0.1115 -0.1644
 3511TIP3    H232025   0.244   2.815   4.538 -2.7616  0.8692  0.6854
 3512TIP3   OH232026   4.157   5.445  15.355 -0.3450  0.3680 -0.7788
 3512TIP3    H132027   4.139   5.471  15.264 -2.7454 -3.5919 -1.6601
 3512TIP3    H232028   4.092   5.493  15.407 -0.7973  0.6057 -1.5428
 3513TIP3   OH232029   5.574   3.981  12.473 -0.0190 -0.4535 -0.5032
 3513TIP3    H132030   5.493   4.010  12.516 -0.6730  0.1010 -2.0196
 3513TIP3    H232031   5.553   3.894  12.439  0.7142 -1.1775  0.8120
 3514TIP3   OH232032   1.204   1.868   4.897 -0.0646 -0.7714  0.1626
 3514TIP3    H132033   1.164   1.786   4.869  1.5894 -1.4192 -0.4327
 3514TIP3    H232034   1.130   1.925   4.918 -1.2610 -2.7534  1.7013
 3515TIP3   OH232035   3.303   2.254  12.012 -0.0776  0.4001  0.4076
 3515TIP3    H132036   3.270   2.280  11.926  0.1584  0.4777  0.3420
 3515TIP3    H232037   3.395   2.233  11.998  0.3455  1.8333  0.9175
 3516TIP3   OH232038   6.152   2.287  16.327  0.2398  0.1142 -0.1727
 3516TIP3    H132039   6.122   2.203  16.362  0.8047  0.5441  1.4291
 3516TIP3    H232040   6.081   2.315  16.269 -0.8360 -0.5663  0.7569
 3517TIP3   OH232041   0.797   1.162   0.677 -0.2445  0.0509 -0.4003
 3517TIP3    H132042   0.727   1.172   0.742 -1.3194 -0.1722 -1.4958
 3517TIP3    H232043   0.859   1.101   0.718 -1.0216 -0.2684  0.3300
 3518TIP3   OH232044   4.305   0.884  17.035 -0.0512 -0.1403 -0.2587
 3518TIP3    H132045   4.394   0.891  17.002  0.2600  1.1432  0.7829
 3518TIP3    H232046   4.312   0.901  17.129 -1.4912  0.8322 -0.2874
 3519TIP3   OH232047   0.726   2.889  16.467 -0.1558 -0.6379  0.1747
 3519TIP3    H132048   0.790   2.824  16.497 -0.7365 -1.6156 -0.6319
 3519TIP3    H232049   0.735   2.889  16.371  0.6703  1.3716  0.2109
 3520TIP3   OH232050   5.681   3.214   2.618  0.1797 -0.0280  0.2307
 3520TIP3    H132051   5.747   3.162   2.573 -0.6222 -3.5232  2.6846
 3520TIP3    H232052   5.600   3.197   2.570  0.3606  1.1725 -0.5270
 3521TIP3   OH232053   0.541   2.238   3.726  0.3135 -0.0771  0.1998
 3521TIP3    H132054   0.531   2.320   3.775  0.0317 -0.3030  0.5253
 3521TIP3    H232055   0.550   2.265   3.635 -0.1423  0.3016  0.2646
 3522TIP3   OH232056   6.611   2.250  12.581  0.0025  0.5569 -0.0103
 3522TIP3    H132057   6.642   2.322  12.525 -0.0299  1.3136  0.9205
 3522TIP3    H232058   6.572   2.294  12.656 -2.5923 -0.3810 -0.7075
 3523TIP3   OH232059   2.497   0.321  12.310 -0.8910 -0.0217 -0.0672
 3523TIP3    H132060   2.545   0.375  12.248  0.1250  1.5963  2.0013
 3523TIP3    H232061   2.563   0.284  12.368 -1.5822 -3.3555 -1.1585
 3524TIP3   OH232062   2.997   4.748  15.353  0.6182 -0.7993  0.7146
 3524TIP3    H132063   3.019   4.841  15.351 -0.2858 -0.5756 -0.6472
 3524TIP3    H232064   3.015   4.720  15.442  0.5166  0.7822  1.2545
 3525TIP3   OH232065   0.305   0.324   0.580  0.2943 -0.2607 -0.2702
 3525TIP3    H132066   0.388   0.297   0.619  0.9402  0.2458 -1.2520
 3525TIP3    H232067   0.326   0.341   0.488 -0.4127  2.0447 -0.0594
 3526TIP3   OH232068   6.092   3.833  15.478  0.0478 -0.0262  0.2464
 3526TIP3    H132069   6.123   3.884  15.554 -0.6515  0.7444  0.0259
 3526TIP3    H232070   6.171   3.816  15.427  0.4023  0.1778  0.7192
 3527TIP3   OH232071   0.344   0.314   1.238  0.2960  0.2488 -0.5751
 3527TIP3    H132072   0.413   0.326   1.173 -0.6658  1.6082 -1.3826
 3527TIP3    H232073   0.292   0.241   1.206  0.7995 -0.1895 -0.4257
 3528TIP3   OH232074   6.441   4.432  14.920  0.2115 -0.5132 -0.4644
 3528TIP3    H132075   6.355   4.460  14.950  0.6346 -0.9719  1.3163
 3528TIP3    H232076   6.503   4.478  14.976  1.1566 -0.2212 -1.6898
 3529TIP3   OH232077   4.138   5.461  15.092  0.4683  0.6276  0.0828
 3529TIP3    H132078   4.117   5.390  15.031 -0.0040  0.7195  0.1365
 3529TIP3    H232079   4.079   5.532  15.067  1.1703  1.1277 -0.1933
 3530TIP3   OH232080   5.421   0.445  15.652 -0.2138 -0.2222  0.1033
 3530TIP3    H132081   5.462   0.423  15.736 -0.9120  0.8752  0.7534
 3530TIP3    H232082   5.458   0.530  15.629  0.3322 -0.7242 -0.9626
 3531TIP3   OH232083   5.797   1.717   2.813 -0.3297 -0.0510  0.2785
 3531TIP3    H132084   5.748   1.796   2.835 -0.6411  0.1364 -1.0054
 3531TIP3    H232085   5.755   1.648   2.864 -0.3599  0.5119  1.0413
 3532TIP3   OH232086   0.309   1.839   6.052 -0.4027  0.3712 -0.1563
 3532TIP3    H132087   0.371   1.778   6.091  0.4498  2.3242  1.8354
 3532TIP3    H232088   0.343   1.857   5.965  3.3481  3.0932  1.6160
 3533TIP3   OH232089   4.625   4.283   3.541 -0.3163 -0.3208 -0.2648
 3533TIP3    H132090   4.594   4.193   3.530 -0.4982 -0.4835  1.3977
 3533TIP3    H232091   4.607   4.304   3.632  2.3108  0.3903  0.1837
 3534TIP3   OH232092   1.770   5.162  15.035 -0.0024  0.5123  0.2848
 3534TIP3    H132093   1.853   5.185  14.993  0.7339 -0.0947  1.3664
 3534TIP3    H232094   1.707   5.159  14.963  1.3193 -0.9843 -0.8643
 3535TIP3   OH232095   0.166   0.493  13.154  0.0970 -0.2822  0.3485
 3535TIP3    H132096   0.173   0.586  13.131 -0.9642  0.5430  2.9613
 3535TIP3    H232097   0.257   0.465  13.168  0.5038  0.0339 -1.4303
 3536TIP3   OH232098   6.450   1.293   2.497 -0.3063  0.2252  0.1645
 3536TIP3    H132099   6.521   1.345   2.458  0.4289 -1.4498 -0.8930
 3536TIP3    H232100   6.424   1.341   2.575  0.9253  1.6972 -0.2854
 3537TIP3   OH232101   2.053   1.190   2.120 -0.3261  0.0295  0.0855
 3537TIP3    H132102   2.107   1.270   2.123  2.4271 -1.6723  2.4633
 3537TIP3    H232103   2.008   1.189   2.205 -0.8449 -0.6163 -0.1917
 3538TIP3   OH232104   1.528   5.393   3.379 -0.0919 -0.1184 -0.2410
 3538TIP3    H132105   1.441   5.425   3.356 -0.1418  0.6918  1.0059
 3538TIP3    H232106   1.548   5.328   3.312 -1.7202 -0.4381 -0.4422
 3539TIP3   OH232107   4.624   6.356  14.210 -0.0883  0.1964  0.1164
 3539TIP3    H132108   4.659   6.380  14.125 -0.5098  0.8007  0.1049
 3539TIP3    H232109   4.529   6.367  14.201 -0.2967 -1.2558  0.1865
 3540TIP3   OH232110   0.715   6.216   2.110 -0.6453 -0.2617  0.2104
 3540TIP3    H132111   0.636   6.199   2.059 -0.0305 -0.6675 -0.6309
 3540TIP3    H232112   0.787   6.186   2.054  0.1763  0.9996  0.5431
 3541TIP3   OH232113   1.273   4.499   3.641  0.7187 -0.1878 -0.2309
 3541TIP3    H132114   1.332   4.557   3.593 -0.8280  0.7917 -1.0310
 3541TIP3    H232115   1.190   4.505   3.594  0.1272 -1.9947  0.4998
 3542TIP3   OH232116   2.152   5.015  13.780  0.0105  0.2808  0.2412
 3542TIP3    H132117   2.142   5.110  13.769 -0.1503  0.1434 -0.9806
 3542TIP3    H232118   2.246   5.000  13.775 -0.0508  0.2147 -1.3735
 3543TIP3   OH232119   0.699   6.550   1.958  0.0723 -0.3676 -0.1982
 3543TIP3    H132120   0.657   6.571   2.041  1.0721  0.6218  0.0681
 3543TIP3    H232121   0.640   6.486   1.917 -0.3124 -1.0635  1.3652
 3544TIP3   OH232122   6.097   3.596  14.273  0.2460  0.0996 -0.0487
 3544TIP3    H132123   6.051   3.519  14.239  1.2776 -0.9139  0.7808
 3544TIP3    H232124   6.032   3.667  14.269 -1.2263 -1.1651  0.6534
 3545TIP3   OH232125   5.566   1.328  13.934  0.1656 -0.1379 -0.2980
 3545TIP3    H132126   5.638   1.309  13.873 -0.7890 -1.6276 -1.0185
 3545TIP3    H232127   5.487   1.309  13.884 -0.7278  0.7468  0.7275
 3546TIP3   OH232128   2.548   5.614  16.448 -0.4252 -0.3378 -0.0380
 3546TIP3    H132129   2.482   5.684  16.443  1.1358  1.1201 -1.1757
 3546TIP3    H232130   2.510   5.543  16.397 -1.1083  0.4845 -0.7177
 3547TIP3   OH232131   6.753   1.169  13.197 -0.4389 -0.5038 -0.8547
 3547TIP3    H132132   6.681   1.213  13.153  0.4021  1.0135 -0.8031
 3547TIP3    H232133   6.714   1.091  13.235 -1.7218 -0.5148 -2.1039
 3548TIP3   OH232134   4.909   4.879  15.647  0.0591 -0.5366 -0.5222
 3548TIP3    H132135   4.869   4.897  15.562 -0.0706  0.2648 -0.2969
 3548TIP3    H232136   4.845   4.910  15.711  0.2125 -1.0098 -0.1324
 3549TIP3   OH232137   3.189   2.047  14.291  0.9550 -0.3054  0.3381
 3549TIP3    H132138   3.149   2.104  14.225  0.3526 -0.6050  0.4323
 3549TIP3    H232139   3.253   1.995  14.243  1.1527  0.0987  0.1570
 3550TIP3   OH232140   4.007   0.598  13.326  0.1633  0.1669 -0.3153
 3550TIP3    H132141   3.950   0.667  13.292 -1.1410 -0.9446 -0.4806
 3550TIP3    H232142   3.970   0.579  13.413  0.9531  0.1631  0.0242
 3551TIP3   OH232143   5.064   0.111   3.845  0.4436 -0.7303  0.0141
 3551TIP3    H132144   5.129   0.044   3.866  1.2735 -0.0884 -0.4354
 3551TIP3    H232145   4.980   0.068   3.859  0.9149 -1.0066  2.5597
 3552TIP3   OH232146   6.657   1.815  13.725  0.3856  0.8511  0.4571
 3552TIP3    H132147   6.597   1.839  13.654  1.2206  0.1610 -0.4984
 3552TIP3    H232148   6.605   1.758  13.782  0.8168 -1.9414 -1.7517
 3553TIP3   OH232149   6.406   5.411   3.778 -0.5515 -0.0155  0.4138
 3553TIP3    H132150   6.395   5.492   3.827 -0.5280 -0.3546  0.9867
 3553TIP3    H232151   6.484   5.426   3.724 -0.7145  0.4423  0.2989
 3554TIP3   OH232152   3.864   0.625  10.494 -0.1947  0.0955  0.1374
 3554TIP3    H132153   3.872   0.676  10.575  1.3948  0.3585 -0.1452
 3554TIP3    H232154   3.807   0.676  10.438 -1.1583  0.0102  1.0138
 3555TIP3   OH232155   3.961   1.082   3.182 -0.7634 -0.2128 -0.2607
 3555TIP3    H132156   3.925   1.102   3.269  0.0849  1.3953 -0.2349
 3555TIP3    H232157   3.891   1.035   3.137 -1.1082 -1.3942  1.3882
 3556TIP3   OH232158   0.258   0.133   4.846  0.2814  0.2230  0.0775
 3556TIP3    H132159   0.233   0.158   4.758 -0.6865  0.1259  0.3130
 3556TIP3    H232160   0.193   0.067   4.872  1.7548 -1.3095  0.1018
 3557TIP3   OH232161   6.584   1.732  14.843  0.4808  0.1412 -0.0744
 3557TIP3    H132162   6.513   1.710  14.783  0.1725 -0.2543  0.4301
 3557TIP3    H232163   6.650   1.664  14.827 -0.7191 -1.5983  1.9041
 3558TIP3   OH232164   6.483   0.364   5.386  0.0720  0.2421 -0.2112
 3558TIP3    H132165   6.389   0.364   5.407  0.5175 -1.1148  2.1334
 3558TIP3    H232166   6.493   0.434   5.321 -2.8512 -0.8958 -2.0757
 3559TIP3   OH232167   1.758   6.222   4.290  0.2297  0.1806  0.4648
 3559TIP3    H132168   1.765   6.127   4.293 -2.2007 -0.1617 -1.4245
 3559TIP3    H232169   1.721   6.241   4.203 -0.3802  2.7646  1.1841
 3560TIP3   OH232170   6.282   3.690  17.028 -0.0089  0.4147 -0.2070
 3560TIP3    H132171   6.367   3.648  17.020 -0.2963 -0.1264 -0.5031
 3560TIP3    H232172   6.290   3.748  17.104  1.0079  1.3362 -0.9867
 3561TIP3   OH232173   0.227   4.961   5.693  0.0309  0.4350 -0.2652
 3561TIP3    H132174   0.136   4.964   5.665 -1.1768  0.8367  3.2676
 3561TIP3    H232175   0.245   4.868   5.705  0.0958  0.3614 -0.8793
 3562TIP3   OH232176   5.348   3.906  12.799  0.3545  0.6954 -0.4761
 3562TIP3    H132177   5.291   3.912  12.875 -1.4589 -1.5770 -1.5453
 3562TIP3    H232178   5.290   3.915  12.724  1.2682 -1.8286 -1.6145
 3563TIP3   OH232179   1.277   4.013  12.674 -0.0102 -0.0939 -0.1676
 3563TIP3    H132180   1.269   4.080  12.742 -1.3516 -2.7249  2.5247
 3563TIP3    H232181   1.202   4.027  12.617  0.8637  1.8826 -0.8910
 3564TIP3   OH232182   2.100   2.113  16.129 -0.8302 -0.2618 -0.5851
 3564TIP3    H132183   2.063   2.030  16.100 -0.8786 -0.3262 -0.3400
 3564TIP3    H232184   2.149   2.091  16.208 -1.3559  0.0509 -0.1720
 3565TIP3   OH232185   3.940   4.056   5.220 -0.0608  0.1408  0.3718
 3565TIP3    H132186   3.997   4.096   5.286 -0.4930 -1.5065  1.8017
 3565TIP3    H232187   3.851   4.077   5.249 -0.2364  1.1469 -0.8430
 3566TIP3   OH232188   0.446   5.555  15.629  0.3617 -0.2954  0.0985
 3566TIP3    H132189   0.403   5.470  15.642 -0.3349  0.0656  0.2065
 3566TIP3    H232190   0.411   5.586  15.545  1.5680 -0.6722 -0.5687
 3567TIP3   OH232191   3.671   5.881   0.517  0.4136  0.6002  0.2837
 3567TIP3    H132192   3.693   5.798   0.558  1.5202  0.6457 -0.1579
 3567TIP3    H232193   3.685   5.947   0.585 -2.7196  0.2778  1.3561
 3568TIP3   OH232194   4.185   6.283  14.526  0.3394 -0.1307  0.0037
 3568TIP3    H132195   4.249   6.342  14.488 -1.5175  1.5593 -0.6502
 3568TIP3    H232196   4.190   6.300  14.620  0.6918  0.1286 -0.0593
 3569TIP3   OH232197   6.215   4.480   2.415 -0.1824 -0.2859 -0.4414
 3569TIP3    H132198   6.197   4.535   2.339  2.0353  1.7765  0.3915
 3569TIP3    H232199   6.129   4.451   2.444 -1.4268  2.1153 -1.4297
 3570TIP3   OH232200   2.149   6.728  14.545 -0.1226 -0.4254 -0.0675
 3570TIP3    H132201   2.165   6.653  14.487  0.5501 -0.0064 -0.4274
 3570TIP3    H232202   2.074   6.772  14.505 -1.8152 -1.9500  1.1998
 3571TIP3   OH232203   2.014   4.093   4.330 -0.3727  0.1461  0.5752
 3571TIP3    H132204   2.002   4.001   4.353 -1.5810  0.0946 -0.1669
 3571TIP3    H232205   1.930   4.120   4.294  0.2639  1.2671 -0.1437
 3572TIP3   OH232206   0.661   4.571  14.900  0.0687  0.1821 -0.2187
 3572TIP3    H132207   0.614   4.630  14.958 -1.8089 -0.3569 -1.1192
 3572TIP3    H232208   0.722   4.627  14.853  0.1261  0.9578  0.7426
 3573TIP3   OH232209   1.154   1.161  14.598  0.1730  0.9382 -0.1721
 3573TIP3    H132210   1.184   1.101  14.666  1.3370  1.5759 -0.0954
 3573TIP3    H232211   1.178   1.118  14.516 -1.3466  0.1089 -0.2177
 3574TIP3   OH232212   4.175   2.370  13.527 -0.1679  0.1278  0.2391
 3574TIP3    H132213   4.237   2.297  13.520 -0.7319 -0.3451  0.1013
 3574TIP3    H232214   4.090   2.328  13.543 -0.3303  0.7984  1.2256
 3575TIP3   OH232215   4.538   3.852  14.242 -0.4849 -0.2983  0.4639
 3575TIP3    H132216   4.607   3.818  14.299 -0.4810 -0.4825  0.3530
 3575TIP3    H232217   4.584   3.874  14.161 -0.0807  2.1001  1.2755
 3576TIP3   OH232218   4.711   2.200   2.408  0.0197 -0.3571 -0.0318
 3576TIP3    H132219   4.773   2.140   2.448  0.7344  0.6893  0.4777
 3576TIP3    H232220   4.703   2.272   2.472 -1.9626 -0.6161  0.0658
 3577TIP3   OH232221   0.604   0.815  14.132 -0.2532 -0.4803  0.5206
 3577TIP3    H132222   0.532   0.769  14.175 -0.1955  0.0592  1.2111
 3577TIP3    H232223   0.562   0.866  14.063 -0.3724 -1.1741  0.0688
 3578TIP3   OH232224   3.257   5.136   2.255 -0.0496  1.1363  0.4354
 3578TIP3    H132225   3.223   5.223   2.277 -0.5083  0.7063  1.5100
 3578TIP3    H232226   3.351   5.150   2.241  0.0437  1.6743  1.4556
 3579TIP3   OH232227   0.782   3.446   6.566 -0.9936 -0.1564 -0.0077
 3579TIP3    H132228   0.843   3.493   6.509 -1.9679  0.9193 -0.2019
 3579TIP3    H232229   0.818   3.358   6.571 -0.9922 -0.3942 -2.5314
 3580TIP3   OH232230   0.454   2.445  13.215  0.0435 -0.3334  0.6462
 3580TIP3    H132231   0.457   2.538  13.196 -1.6691 -0.5728 -1.0286
 3580TIP3    H232232   0.478   2.402  13.133  0.4929 -1.3910  1.3037
 3581TIP3   OH232233   2.357   5.715  11.562 -0.4434 -0.1280  1.3341
 3581TIP3    H132234   2.382   5.776  11.493 -0.4494  0.9990  2.2898
 3581TIP3    H232235   2.349   5.770  11.640 -1.5795 -1.1769  1.9888
 3582TIP3   OH232236   5.284   3.417   5.905 -0.0030  0.3799 -0.6849
 3582TIP3    H132237   5.221   3.449   5.970 -0.8300  1.3542 -1.9104
 3582TIP3    H232238   5.267   3.323   5.899  1.6070 -0.2103  2.0657
 3583TIP3   OH232239   1.220   0.702   0.502  0.4462 -0.4259 -0.3798
 3583TIP3    H132240   1.306   0.724   0.465  1.0602  0.0899  1.2840
 3583TIP3    H232241   1.164   0.775   0.476  0.8225 -0.1498 -0.4270
 3584TIP3   OH232242   0.549   0.611   1.751 -0.7049 -0.5094 -0.6811
 3584TIP3    H132243   0.560   0.527   1.707  0.9007 -0.1430 -1.0458
 3584TIP3    H232244   0.599   0.673   1.699  0.2104  0.1829  0.9377
 3585TIP3   OH232245   2.901   5.915  16.732 -0.4589  1.0204 -0.6168
 3585TIP3    H132246   2.979   5.860  16.724 -0.3037  0.9245  1.2441
 3585TIP3    H232247   2.922   5.994  16.683  0.0480  0.2203 -1.7365
 3586TIP3   OH232248   2.062   5.328   2.094  0.0692  0.4730 -0.3380
 3586TIP3    H132249   1.985   5.348   2.041  0.8288 -0.3446 -1.8214
 3586TIP3    H232250   2.117   5.406   2.087 -0.1239  0.6208 -0.2096
 3587TIP3   OH232251   4.177   1.834  14.492  0.5067 -0.6032 -0.0518
 3587TIP3    H132252   4.269   1.831  14.518  0.1507 -0.7273  1.3008
 3587TIP3    H232253   4.167   1.763  14.429  1.3591 -0.5058 -0.3078
 3588TIP3   OH232254   5.478   6.335  16.964 -0.0736  0.3806 -0.7710
 3588TIP3    H132255   5.460   6.426  16.986 -1.4001 -0.1828  0.6494
 3588TIP3    H232256   5.527   6.301  17.038  1.3512  0.1778 -1.7580
 3589TIP3   OH232257   4.144   3.551  11.202  0.4281 -0.1882 -0.2005
 3589TIP3    H132258   4.125   3.645  11.213 -1.6999 -0.1361 -3.2066
 3589TIP3    H232259   4.219   3.548  11.144  1.7929 -0.4360  1.4918
 3590TIP3   OH232260   4.239   1.045  14.332 -0.5543 -0.1563  0.3281
 3590TIP3    H132261   4.246   0.952  14.313  1.4918 -0.3849  1.8370
 3590TIP3    H232262   4.270   1.088  14.252  1.4211 -0.8861  0.6489
 3591TIP3   OH232263   1.839   2.141   3.966  0.9461 -0.1595  0.5834
 3591TIP3    H132264   1.787   2.167   4.042  1.1403 -1.8902  1.3540
 3591TIP3    H232265   1.906   2.209   3.958  0.8171  0.1485  1.8811
 3592TIP3   OH232266   0.100   5.699  13.154 -0.3252 -0.3238  0.1262
 3592TIP3    H132267   0.041   5.753  13.206 -1.2779 -1.1484 -0.0600
 3592TIP3    H232268   0.059   5.694  13.068 -0.2461 -1.3061  0.1288
 3593TIP3   OH232269   3.470   2.526   3.950  0.1909  0.0690  0.0152
 3593TIP3    H132270   3.428   2.503   4.032  0.1285 -0.9545 -0.2905
 3593TIP3    H232271   3.402   2.514   3.883 -0.0325  1.7656 -0.1137
 3594TIP3   OH232272   4.089   1.559  16.331  0.5687 -0.1708 -0.3451
 3594TIP3    H132273   4.021   1.500  16.363  0.1820  0.6532  0.4159
 3594TIP3    H232274   4.169   1.507  16.333  1.0720  0.3670  4.2418
 3595TIP3   OH232275   3.037   6.578  11.874 -0.0686 -0.4124  0.3507
 3595TIP3    H132276   3.095   6.513  11.913 -0.5146 -1.0979 -0.0879
 3595TIP3    H232277   2.975   6.601  11.943  0.3825 -0.0951  0.6505
 3596TIP3   OH232278   3.543   1.114  10.601 -0.1264  0.0847 -0.5124
 3596TIP3    H132279   3.624   1.066  10.584 -0.7227 -2.8812  3.4502
 3596TIP3    H232280   3.474   1.062  10.559 -0.2823  0.7884 -1.1432
 3597TIP3   OH232281   2.501   2.842  15.923  0.2449  0.0131 -0.3490
 3597TIP3    H132282   2.411   2.841  15.957 -0.0964  0.8076 -1.1945
 3597TIP3    H232283   2.546   2.774  15.974 -0.2149  1.1744  1.7079
 3598TIP3   OH232284   6.305   5.298  13.284 -0.2332  0.4053 -0.3904
 3598TIP3    H132285   6.262   5.349  13.353 -0.4289  0.8017 -0.7901
 3598TIP3    H232286   6.371   5.246  13.329 -1.0205 -0.0811  0.2189
 3599TIP3   OH232287   6.224   5.059  13.702  0.2924 -0.1033  0.1485
 3599TIP3    H132288   6.258   5.062  13.613  0.9668  0.7741  0.4262
 3599TIP3    H232289   6.137   5.098  13.696 -0.2453 -1.3057 -0.3530
 3600TIP3   OH232290   6.459   6.469   2.944  0.4496 -0.7983 -0.1841
 3600TIP3    H132291   6.465   6.485   3.038 -0.8768  0.7866 -0.3142
 3600TIP3    H232292   6.443   6.555   2.906 -0.2337 -1.5638 -1.7393
 3601TIP3   OH232293   6.172   4.303  12.958  0.0646  0.0693 -0.1348
 3601TIP3    H132294   6.165   4.382  13.012  0.6042  0.4375 -0.5842
 3601TIP3    H232295   6.258   4.266  12.980 -0.7181 -1.1376  1.0406
 3602TIP3   OH232296   5.937   0.652  11.581  0.0008  0.3985 -0.0984
 3602TIP3    H132297   5.905   0.740  11.561  1.7648  1.2261  0.5230
 3602TIP3    H232298   5.858   0.598  11.583 -1.2830  2.1969  0.7762
 3603TIP3   OH232299   1.594   5.955  16.139  0.0774  0.0601  0.1795
 3603TIP3    H132300   1.634   6.020  16.197 -1.4670  0.0596  1.3197
 3603TIP3    H232301   1.607   5.871  16.184 -0.3223 -0.0582  0.0787
 3604TIP3   OH232302   4.333   4.448  13.964 -0.0195 -0.1547 -0.1092
 3604TIP3    H132303   4.239   4.442  13.981 -0.1613  1.7679 -0.0629
 3604TIP3    H232304   4.342   4.424  13.871 -0.7214  0.8067 -0.4433
 3605TIP3   OH232305   1.930   5.406  10.442  0.2358  0.1440  0.0276
 3605TIP3    H132306   1.850   5.425  10.490 -0.5283 -0.6726 -0.8939
 3605TIP3    H232307   1.941   5.311  10.448  0.2440  0.0492 -1.1980
 3606TIP3   OH232308   4.190   4.972  14.842  0.8467 -0.0415 -0.2827
 3606TIP3    H132309   4.151   5.002  14.924  0.7681  0.8780 -0.6396
 3606TIP3    H232310   4.265   4.919  14.868  0.8601  0.3004  0.3768
 3607TIP3   OH232311   3.353   0.735   2.407  0.4996 -0.2393  0.8456
 3607TIP3    H132312   3.435   0.705   2.366  0.0622 -0.8815  0.4228
 3607TIP3    H232313   3.298   0.657   2.411 -0.2110  0.2508  0.8500
 3608TIP3   OH232314   6.031   3.568  12.648 -0.2180 -0.5209  0.2151
 3608TIP3    H132315   6.110   3.523  12.676  0.6217  0.9051  0.2502
 3608TIP3    H232316   5.983   3.504  12.595  1.3359 -1.1610 -0.4597
 3609TIP3   OH232317   4.687   1.154  10.226  0.5556 -0.4258 -0.3432
 3609TIP3    H132318   4.682   1.089  10.297  2.4397 -0.7565 -0.4551
 3609TIP3    H232319   4.603   1.199  10.228  1.2175  0.9983  3.4658
 3610TIP3   OH232320   1.842   6.131  12.618  0.1150  0.4697  0.2141
 3610TIP3    H132321   1.895   6.064  12.574  0.2157  0.2711  0.6360
 3610TIP3    H232322   1.756   6.092  12.626 -0.5408  1.3598 -1.8402
 3611TIP3   OH232323   4.183   4.759  11.117  0.1118  0.3890  0.1072
 3611TIP3    H132324   4.253   4.721  11.064 -0.6248  0.0512 -0.6423
 3611TIP3    H232325   4.136   4.817  11.058 -0.9846 -0.3229  0.2404
 3612TIP3   OH232326   6.771   3.617  14.236 -0.2869 -0.0520 -0.3684
 3612TIP3    H132327   6.852   3.616  14.186 -0.9426  0.6022 -1.4994
 3612TIP3    H232328   6.748   3.710  14.242  0.3492  0.0032  2.1754
 3613TIP3   OH232329   5.515   3.617   5.816  0.2334 -0.1155 -0.0053
 3613TIP3    H132330   5.473   3.688   5.866  1.8453  0.2217  0.9248
 3613TIP3    H232331   5.461   3.540   5.836 -0.7170  0.5475  0.0975
 3614TIP3   OH232332   6.825   0.232   4.006 -0.1348 -0.3104 -0.1123
 3614TIP3    H132333   6.879   0.311   4.003  0.2658 -0.4401  1.9531
 3614TIP3    H232334   6.735   0.265   4.014 -0.0402 -0.0604 -0.0614
 3615TIP3   OH232335   5.870   1.069   0.368  0.0314 -0.1970  0.0176
 3615TIP3    H132336   5.828   1.038   0.288  2.0108 -0.0187 -1.1498
 3615TIP3    H232337   5.895   1.159   0.349  0.1334  0.0038  1.0194
 3616TIP3   OH232338   0.067   6.025   3.331 -0.1968  0.5977 -0.0205
 3616TIP3    H132339   0.145   6.060   3.376 -0.1435  0.9359 -0.3706
 3616TIP3    H232340   0.003   6.014   3.401  0.1075  0.4787  0.2469
 3617TIP3   OH232341   6.613   1.315   4.291 -0.1117  0.3124  0.3014
 3617TIP3    H132342   6.523   1.283   4.281 -0.1817  0.2658  1.0105
 3617TIP3    H232343   6.643   1.275   4.373  0.2952  0.9200  0.4561
 3618TIP3   OH232344   6.519   2.933  11.041 -0.1608 -0.0337  0.0234
 3618TIP3    H132345   6.471   2.903  11.118  0.4226 -1.6941 -0.2176
 3618TIP3    H232346   6.493   2.873  10.971  0.5065  0.4683 -0.6847
 3619TIP3   OH232347   3.123   2.354   1.117 -0.2481 -0.1127 -0.4223
 3619TIP3    H132348   3.074   2.382   1.040  0.0305  0.0342 -0.5473
 3619TIP3    H232349   3.201   2.409   1.117 -0.3675  0.0589  0.1072
 3620TIP3   OH232350   4.614   5.174   5.348  0.9772 -0.2198  0.0700
 3620TIP3    H132351   4.652   5.175   5.436 -0.0520  1.0264  0.5323
 3620TIP3    H232352   4.521   5.157   5.363  0.6040  1.0361 -0.6842
 3621TIP3   OH232353   3.104   3.147   4.356  0.0376 -0.0787 -0.4845
 3621TIP3    H132354   3.146   3.159   4.271  1.7795 -1.2566  0.1566
 3621TIP3    H232355   3.076   3.235   4.381 -0.6132  0.2719 -2.2934
 3622TIP3   OH232356   5.637   0.101  13.393 -0.3823  0.2365  0.0738
 3622TIP3    H132357   5.571   0.051  13.345 -0.4531 -0.6627  1.0738
 3622TIP3    H232358   5.598   0.114  13.480  0.8765 -0.6179  0.7934
 3623TIP3   OH232359   6.672   0.189   5.304  0.5342  0.0741 -0.7251
 3623TIP3    H132360   6.738   0.241   5.349 -0.8834  2.3460 -1.1322
 3623TIP3    H232361   6.590   0.234   5.322 -1.0215 -2.8159  0.0191
 3624TIP3   OH232362   6.571   2.832  10.443  0.7097 -1.0612  0.2400
 3624TIP3    H132363   6.529   2.803  10.524  1.0119  1.3846  1.3743
 3624TIP3    H232364   6.657   2.790  10.444  0.4353 -1.6265  0.7827
 3625TIP3   OH232365   3.593   0.707   2.820  0.2473 -0.8398 -0.0130
 3625TIP3    H132366   3.674   0.666   2.848  0.3406 -1.4231 -1.0932
 3625TIP3    H232367   3.605   0.723   2.726 -0.7810 -0.7097 -0.1348
 3626TIP3   OH232368   3.539   3.910  14.453 -0.0416  0.4611  0.5496
 3626TIP3    H132369   3.491   3.830  14.474  0.7690  0.2755  1.8079
 3626TIP3    H232370   3.630   3.889  14.471  0.5257  0.8793 -1.5641
 3627TIP3   OH232371   1.681   0.868  13.775  0.7086 -0.0111 -0.1247
 3627TIP3    H132372   1.597   0.883  13.732  0.7980 -1.9716 -1.1046
 3627TIP3    H232373   1.741   0.930  13.733 -0.3239  1.8351  1.0095
 3628TIP3   OH232374   3.024   2.868   1.344  0.4813 -0.2874  0.3631
 3628TIP3    H132375   2.950   2.927   1.356 -0.9598 -1.6080 -1.3896
 3628TIP3    H232376   3.096   2.909   1.392 -1.2116  1.3402  1.6599
 3629TIP3   OH232377   5.207   0.622  14.403 -0.2106  0.0212  0.1218
 3629TIP3    H132378   5.128   0.639  14.351 -0.5547 -0.1962  0.5685
 3629TIP3    H232379   5.244   0.709  14.420 -1.4068  0.2868  1.5339
 3630TIP3   OH232380   3.851   2.347  10.896  0.1513 -0.2780 -0.4332
 3630TIP3    H132381   3.861   2.285  10.824 -1.0699  0.9938 -1.7695
 3630TIP3    H232382   3.758   2.371  10.894  0.1893  0.1102  1.3197
 3631TIP3   OH232383   4.688   4.605  15.573 -0.0734  0.4821  0.1303
 3631TIP3    H132384   4.781   4.586  15.589 -0.3424 -1.7969 -0.6698
 3631TIP3    H232385   4.641   4.535  15.619 -1.3724  1.2217 -0.0308
 3632TIP3   OH232386   6.346   4.694   3.069 -0.0097 -0.0078  0.1333
 3632TIP3    H132387   6.438   4.673   3.059  0.5095  0.0508  3.5027
 3632TIP3    H232388   6.299   4.617   3.037  1.2406 -0.6079 -0.3098
 3633TIP3   OH232389   0.221   1.337  16.917  0.4341 -0.2315  0.2517
 3633TIP3    H132390   0.214   1.429  16.944  1.2478  0.1652 -0.7699
 3633TIP3    H232391   0.147   1.294  16.958 -0.4474  1.0602  0.0916
 3634TIP3   OH232392   2.881   2.490   1.692 -1.3388  0.8439  0.1839
 3634TIP3    H132393   2.877   2.436   1.613  5.5238  0.4287 -0.5114
 3634TIP3    H232394   2.882   2.580   1.659  0.5241  0.6978 -0.3147
 3635TIP3   OH232395   2.166   0.205   1.991 -0.2156 -0.3480  0.0433
 3635TIP3    H132396   2.227   0.137   1.963 -0.2856 -0.6288  0.5548
 3635TIP3    H232397   2.203   0.287   1.957  1.2069 -0.3332  1.5069
 3636TIP3   OH232398   2.637   6.479   3.834  0.3764  0.0762  0.2926
 3636TIP3    H132399   2.720   6.507   3.794  0.4497  0.2805  0.5892
 3636TIP3    H232400   2.604   6.557   3.878  0.2006 -0.1009  0.4750
 3637TIP3   OH232401   4.736   2.200   1.373 -0.1574  0.7333 -0.7036
 3637TIP3    H132402   4.746   2.157   1.288  0.7377  1.7707 -1.1545
 3637TIP3    H232403   4.649   2.173   1.404 -1.0151  1.2569 -2.5055
 3638TIP3   OH232404   4.388   5.308  14.186  0.1478  0.4759 -0.4595
 3638TIP3    H132405   4.305   5.304  14.137 -0.1641  0.1122  0.0789
 3638TIP3    H232406   4.449   5.351  14.127 -0.4663  0.8747 -0.8176
 3639TIP3   OH232407   3.991   5.601  16.450  0.5472 -0.1101 -0.5828
 3639TIP3    H132408   3.933   5.675  16.431 -1.8684 -1.6707  0.2286
 3639TIP3    H232409   3.964   5.571  16.537  2.2038 -1.2952 -0.4322
 3640TIP3   OH232410   0.165   1.491  14.989 -0.0944  0.1025 -0.1734
 3640TIP3    H132411   0.216   1.493  15.070 -1.1204  1.5311  0.4613
 3640TIP3    H232412   0.200   1.563  14.936 -1.2068  0.8867  0.1307
 3641TIP3   OH232413   2.048   4.536   2.048  0.4865  0.2584  0.6709
 3641TIP3    H132414   2.022   4.526   1.956 -1.0757  1.6921  0.9090
 3641TIP3    H232415   1.996   4.472   2.096 -0.7904  1.3896  0.8473
 3642TIP3   OH232416   1.410   6.569  12.462 -0.2657 -0.0959  0.4229
 3642TIP3    H132417   1.404   6.489  12.514  0.8038  0.5185  1.5418
 3642TIP3    H232418   1.460   6.543  12.384  1.2316 -0.2645  1.3939
 3643TIP3   OH232419   5.159   3.891  11.269 -0.0692 -0.1750 -0.2275
 3643TIP3    H132420   5.250   3.867  11.289 -0.0899  0.8225  1.2301
 3643TIP3    H232421   5.110   3.863  11.347 -1.0512 -0.8461 -1.0674
 3644TIP3   OH232422   1.754   0.544  14.200 -0.6628 -0.3280 -0.3571
 3644TIP3    H132423   1.728   0.624  14.155  2.1930  1.0750  0.3220
 3644TIP3    H232424   1.777   0.483  14.129 -1.7402 -0.2023 -0.8431
 3645TIP3   OH232425   1.871   5.303  16.750 -0.0844 -0.4607  0.1087
 3645TIP3    H132426   1.835   5.250  16.820  0.7245 -0.0568  0.8440
 3645TIP3    H232427   1.902   5.383  16.793 -0.0109  0.0053 -0.7764
 3646TIP3   OH232428   1.328   1.342  12.012  0.2749  0.0346 -0.4683
 3646TIP3    H132429   1.295   1.322  12.100 -0.4991 -1.5763 -1.0933
 3646TIP3    H232430   1.391   1.271  11.994  1.4863  1.1282 -0.6885
 3647TIP3   OH232431   1.959   1.963   4.583  0.1825 -0.1025  0.5326
 3647TIP3    H132432   1.868   1.978   4.557  0.4677  0.9503  0.0732
 3647TIP3    H232433   1.966   2.004   4.669  0.0726 -0.7152  0.8364
 3648TIP3   OH232434   5.855   0.194   1.044  0.1992 -0.2473 -0.0035
 3648TIP3    H132435   5.925   0.199   0.979  1.1678  0.5659  1.0545
 3648TIP3    H232436   5.788   0.254   1.011 -0.3095 -1.4827 -1.3311
 3649TIP3   OH232437   0.060   6.320   0.285  0.1929 -0.6539 -0.1655
 3649TIP3    H132438   0.058   6.225   0.283 -1.7750 -0.7056 -3.2776
 3649TIP3    H232439   0.151   6.343   0.268  0.5906 -2.0007  0.0913
 3650TIP3   OH232440   4.683   2.596   5.444 -0.1221 -0.5746 -0.3928
 3650TIP3    H132441   4.594   2.632   5.446 -0.3040 -1.0432  0.4805
 3650TIP3    H232442   4.740   2.673   5.442 -0.5358 -0.2612 -0.2488
 3651TIP3   OH232443   4.537   4.046   2.085  0.3968  0.1258 -0.3653
 3651TIP3    H132444   4.607   4.110   2.079 -0.4434  0.9475 -2.2479
 3651TIP3    H232445   4.526   4.014   1.996 -0.1837 -1.5814  0.2806
 3652TIP3   OH232446   5.975   6.517  16.893  0.4489 -0.3086 -0.3127
 3652TIP3    H132447   6.062   6.487  16.866  1.2253  1.0302  0.5607
 3652TIP3    H232448   5.993   6.580  16.962 -1.2878 -0.7545  0.5838
 3653TIP3   OH232449   6.232   5.301  12.449  0.7698  0.2037  0.3882
 3653TIP3    H132450   6.257   5.373  12.507 -1.5347 -0.1640  1.9845
 3653TIP3    H232451   6.264   5.327  12.363  1.7002  2.1991  1.2791
 3654TIP3   OH232452   4.358   0.174   6.109  0.4945 -0.2887 -0.1026
 3654TIP3    H132453   4.305   0.219   6.175  1.0816 -1.9588  1.6254
 3654TIP3    H232454   4.447   0.178   6.143  0.7096 -1.8116 -0.3848
 3655TIP3   OH232455   2.016   1.617   5.009  0.6986  0.8873 -0.4279
 3655TIP3    H132456   2.043   1.653   4.925 -1.4292  0.3474 -1.4105
 3655TIP3    H232457   2.047   1.527   5.009 -0.0335  0.6287 -1.0294
 3656TIP3   OH232458   0.278   3.671   0.432 -0.1754 -0.1106  0.2193
 3656TIP3    H132459   0.286   3.576   0.433 -0.5148 -0.1809 -1.1671
 3656TIP3    H232460   0.213   3.691   0.498  0.8771 -0.7128  1.4877
 3657TIP3   OH232461   6.618   5.988   0.667 -0.0142 -0.4919 -1.1182
 3657TIP3    H132462   6.704   6.007   0.706 -0.3282  1.0866 -1.1063
 3657TIP3    H232463   6.578   5.925   0.727  0.9549 -0.8916 -0.8727
 3658TIP3   OH232464   5.417   6.578   0.828  0.3341  0.1435 -0.3481
 3658TIP3    H132465   5.332   6.566   0.785  1.3338  0.0346 -2.4310
 3658TIP3    H232466   5.403   6.548   0.918 -1.7019 -0.2911 -0.7553
 3659TIP3   OH232467   4.377   6.764  12.973  0.4403 -0.2576  0.2736
 3659TIP3    H132468   4.286   6.766  12.944 -0.0562 -2.7750  1.4436
 3659TIP3    H232469   4.422   6.710  12.907  1.6700  2.7303 -1.5308
 3660TIP3   OH232470   3.725   2.541   0.075 -0.4272  0.4286  0.4403
 3660TIP3    H132471   3.673   2.555  -0.004  0.7022 -0.9179 -0.5883
 3660TIP3    H232472   3.813   2.568   0.052  0.9033 -3.7774 -0.2832
 3661TIP3   OH232473   0.352   4.380   3.163 -0.0760 -0.5500 -0.1695
 3661TIP3    H132474   0.321   4.398   3.074 -0.0112 -1.9859 -0.5116
 3661TIP3    H232475   0.396   4.295   3.156  0.1247 -0.5759  1.1906
 3662TIP3   OH232476   6.015   3.656  15.923  0.4555 -0.1943  0.2132
 3662TIP3    H132477   6.027   3.693  16.010 -1.2511  0.8183  0.0691
 3662TIP3    H232478   5.929   3.613  15.927  1.4572 -2.3652 -0.2630
 3663TIP3   OH232479   2.081   1.166   1.525 -0.2359 -0.0474  0.0234
 3663TIP3    H132480   2.107   1.240   1.470 -2.1336  0.6044 -0.0960
 3663TIP3    H232481   2.062   1.096   1.462 -0.6769  0.1262 -0.0431
 3664TIP3   OH232482   0.461   2.997   1.981 -0.6030  0.3597  0.1062
 3664TIP3    H132483   0.368   2.974   1.980 -0.2618 -1.1581  0.5803
 3664TIP3    H232484   0.492   2.975   1.894 -0.2978 -0.9420  0.5289
 3665TIP3   OH232485   3.176   3.333   0.831  0.4641 -0.0065  0.4180
 3665TIP3    H132486   3.160   3.412   0.779  1.8471  0.0749  0.0677
 3665TIP3    H232487   3.230   3.278   0.774  0.1564 -0.8698  0.9552
 3666TIP3   OH232488   3.880   4.829   2.517  0.6205 -0.0773 -0.1167
 3666TIP3    H132489   3.945   4.775   2.561 -0.6821 -0.7879  1.0358
 3666TIP3    H232490   3.815   4.767   2.485  0.5082  0.6088 -1.2876
 3667TIP3   OH232491   6.202   2.898   3.627  0.0714  0.1554  0.1442
 3667TIP3    H132492   6.280   2.882   3.680 -0.6794  1.4504  1.7350
 3667TIP3    H232493   6.150   2.818   3.636  0.4247 -0.0351  0.5375
 3668TIP3   OH232494   0.619   2.622  12.723 -0.7467  0.5835 -0.1663
 3668TIP3    H132495   0.632   2.551  12.660 -1.0365  0.2096  0.1912
 3668TIP3    H232496   0.684   2.604  12.791  1.6989  2.6616 -1.7656
 3669TIP3   OH232497   5.454   2.367  14.051  0.2692  0.9201 -0.8587
 3669TIP3    H132498   5.499   2.442  14.013 -0.0128  1.0752 -0.8961
 3669TIP3    H232499   5.476   2.294  13.994  1.6523  0.6793 -0.0533
 3670TIP3   OH232500   5.454   4.238   1.809  0.1750  0.6407  0.1032
 3670TIP3    H132501   5.423   4.154   1.775 -0.9128  1.0414  0.0575
 3670TIP3    H232502   5.444   4.299   1.735  0.8484  0.8475  0.1705
 3671TIP3   OH232503   6.817   1.724   5.642  0.3688  0.2393 -0.2392
 3671TIP3    H132504   6.847   1.685   5.559  1.1756 -1.4039  0.7755
 3671TIP3    H232505   6.846   1.815   5.637  2.6164 -0.4371 -0.7449
 3672TIP3   OH232506   5.394   4.550   1.070 -0.0004  0.3567 -0.3036
 3672TIP3    H132507   5.387   4.600   0.989  0.2983 -0.2565 -0.7223
 3672TIP3    H232508   5.460   4.483   1.051 -0.1284  0.0308  0.3573
 3673TIP3   OH232509   2.780   5.677  17.195 -0.5015 -0.0810  0.4229
 3673TIP3    H132510   2.845   5.745  17.212  0.8633 -1.3628  0.4793
 3673TIP3    H232511   2.728   5.672  17.276  0.7251 -0.5124  1.2161
 3674TIP3   OH232512   0.644   2.072  12.189  0.2721 -0.2704  1.0136
 3674TIP3    H132513   0.690   2.153  12.167  1.3676 -1.2918 -0.7169
 3674TIP3    H232514   0.689   2.038  12.266  1.3166 -0.3546  0.3914
 3675TIP3   OH232515   3.428   0.350  14.663  0.4363 -0.3374 -0.4659
 3675TIP3    H132516   3.444   0.258  14.685 -0.6101 -0.5284 -0.4440
 3675TIP3    H232517   3.463   0.398  14.738  3.5709 -0.4782 -1.6815
 3676TIP3   OH232518   1.395   5.098   3.075  0.0525 -0.7237  0.0098
 3676TIP3    H132519   1.454   5.049   3.018 -0.9935  0.5490 -2.3463
 3676TIP3    H232520   1.307   5.067   3.051 -0.3789 -1.2884  2.1280
 3677TIP3   OH232521   4.908   0.742   0.644 -0.3358 -0.2948  0.5793
 3677TIP3    H132522   4.822   0.706   0.621 -0.4256 -0.1431  0.6816
 3677TIP3    H232523   4.939   0.686   0.715  0.0866 -0.9729 -0.1182
 3678TIP3   OH232524   0.716   2.632  13.799  0.7693 -0.0762 -0.2307
 3678TIP3    H132525   0.796   2.652  13.848  0.8182 -0.3303 -0.2090
 3678TIP3    H232526   0.745   2.576  13.727  0.6971  0.2849 -0.5499
 3679TIP3   OH232527   4.821   0.523   5.985  0.2041  0.4206  0.1540
 3679TIP3    H132528   4.814   0.448   5.927  0.1348  0.6613 -0.1514
 3679TIP3    H232529   4.761   0.505   6.057  2.0853 -1.0544  1.4716
 3680TIP3   OH232530   0.693   3.867  11.187  0.1197 -0.2154  0.7307
 3680TIP3    H132531   0.764   3.840  11.129 -0.1088 -0.9919  0.8080
 3680TIP3    H232532   0.684   3.961  11.170  1.4526 -0.0060  1.0470
 3681TIP3   OH232533   0.423   5.987   0.553 -0.3714  0.7327 -0.4818
 3681TIP3    H132534   0.377   6.070   0.558 -0.9241  0.3879  0.5237
 3681TIP3    H232535   0.457   5.983   0.464 -1.6482  1.3435 -1.0166
 3682TIP3   OH232536   4.184   5.619   0.591  0.0039  0.4524  0.3302
 3682TIP3    H132537   4.187   5.604   0.497  1.3441 -0.2726  0.4721
 3682TIP3    H232538   4.090   5.624   0.611 -0.3285 -0.6586 -0.8370
 3683TIP3   OH232539   5.016   3.330   2.936  0.1627  0.5577  0.6155
 3683TIP3    H132540   5.010   3.405   2.995 -0.0700  0.6008  0.5360
 3683TIP3    H232541   5.070   3.361   2.863  0.1268  0.6255  0.6178
 3684TIP3   OH232542   3.674   4.867   6.185 -0.0583 -0.8358 -0.4651
 3684TIP3    H132543   3.655   4.786   6.231  0.2469  0.3918  1.9845
 3684TIP3    H232544   3.719   4.839   6.105 -2.1982 -3.1553 -0.9802
 3685TIP3   OH232545   3.818   4.181   0.423  0.1011 -0.1713  0.0523
 3685TIP3    H132546   3.725   4.178   0.403  0.4195 -1.8245 -1.5346
 3685TIP3    H232547   3.825   4.146   0.512 -0.6640 -2.5150 -0.7271
 3686TIP3   OH232548   0.818   5.488   0.883  0.0884 -0.5854 -0.0281
 3686TIP3    H132549   0.766   5.459   0.957  0.7855 -1.9793 -0.0651
 3686TIP3    H232550   0.875   5.557   0.919 -2.7056  2.0896 -0.2984
 3687TIP3   OH232551   2.923   2.179   0.628  0.1673  0.0742  0.7848
 3687TIP3    H132552   2.867   2.106   0.605 -0.6802  0.5008  1.4083
 3687TIP3    H232553   3.005   2.139   0.657 -0.2112 -0.6103  0.9232
 3688TIP3   OH232554   2.546   2.786   1.284 -1.3432 -0.3848  0.5034
 3688TIP3    H132555   2.557   2.759   1.375 -3.4419 -1.3792  0.5292
 3688TIP3    H232556   2.498   2.868   1.289 -1.8142 -0.6439  0.3006
 3689TIP3   OH232557   0.093   6.328  12.020  0.2922  0.2418 -0.2584
 3689TIP3    H132558   0.058   6.334  12.109 -1.8986 -1.4419 -0.9084
 3689TIP3    H232559   0.032   6.379  11.967 -0.9739 -2.1974 -1.3241
 3690TIP3   OH232560   2.207   2.742   2.377 -0.0873 -0.4848  0.2367
 3690TIP3    H132561   2.163   2.710   2.298  0.4558 -1.1152  0.1784
 3690TIP3    H232562   2.154   2.709   2.449 -0.0321 -0.7542  0.1551
 3691TIP3   OH232563   3.548   5.592   3.829 -0.4365 -0.1362  0.1221
 3691TIP3    H132564   3.515   5.653   3.762  0.6988 -1.3224 -1.6027
 3691TIP3    H232565   3.470   5.557   3.870 -1.1500  1.1593 -0.0817
 3692TIP3   OH232566   5.004   5.088   4.919 -0.1533  0.3208  0.5881
 3692TIP3    H132567   5.054   5.103   4.839  1.5580  1.7193  1.8650
 3692TIP3    H232568   4.945   5.016   4.896  1.5746 -0.5882 -1.3621
 3693TIP3   OH232569   6.533   0.772  12.391 -0.2922  0.2273  0.3370
 3693TIP3    H132570   6.617   0.729  12.402  0.3578  1.0811 -0.9542
 3693TIP3    H232571   6.547   0.833  12.318 -1.6665  1.3209  0.9438
 3694TIP3   OH232572   1.813   3.990   2.282 -0.5969 -0.6985 -0.3897
 3694TIP3    H132573   1.768   4.051   2.223 -0.2350 -1.2557 -1.2545
 3694TIP3    H232574   1.871   3.940   2.226 -0.5458 -1.5351  0.3835
 3695TIP3   OH232575   0.388   2.831   0.477  0.2217  1.0072 -0.3936
 3695TIP3    H132576   0.482   2.814   0.483 -0.4855 -3.7387  0.6444
 3695TIP3    H232577   0.365   2.868   0.563  1.0064  1.8944 -0.5402
 3696TIP3   OH232578   1.658   4.851   1.241  0.1300  0.2018 -0.4741
 3696TIP3    H132579   1.748   4.872   1.218  0.5982  1.5474  2.2312
 3696TIP3    H232580   1.665   4.780   1.305 -0.7075  0.4809 -0.0603
 3697TIP3   OH232581   1.168   4.096   2.228  0.0624  0.3949  0.1571
 3697TIP3    H132582   1.251   4.050   2.238  0.0159  0.5236  1.3295
 3697TIP3    H232583   1.181   4.179   2.274 -0.9834  0.0389  1.1450
 3698TIP3   OH232584   4.040   6.089  14.974  0.1580 -0.0579 -0.0933
 3698TIP3    H132585   4.056   6.128  15.060 -0.6285 -1.5261  0.7639
 3698TIP3    H232586   3.989   6.156  14.927  1.0301  0.9652  0.3783
 3699TIP3   OH232587   6.113   5.059   1.282 -0.4656  0.0710 -0.8861
 3699TIP3    H132588   6.031   5.067   1.330 -0.7241 -0.9746 -1.1398
 3699TIP3    H232589   6.181   5.061   1.350 -0.6316  1.6466 -0.7269
 3700TIP3   OH232590   2.093   3.967  12.080  0.3647  0.2586 -0.4762
 3700TIP3    H132591   2.038   3.989  12.155 -2.9806 -1.5399 -2.1775
 3700TIP3    H232592   2.146   3.893  12.109 -0.0079  0.3385  0.4394
 3701TIP3   OH232593   1.042   5.975   2.606 -0.0437 -0.0551  0.7042
 3701TIP3    H132594   0.981   5.903   2.627 -1.2208  0.3996 -0.9884
 3701TIP3    H232595   1.058   5.966   2.512  2.5719 -0.1534  1.0797
 3702TIP3   OH232596   2.774   0.173   0.626  0.1929 -0.0310 -0.0279
 3702TIP3    H132597   2.728   0.155   0.707  0.3020 -1.0510 -0.1760
 3702TIP3    H232598   2.822   0.092   0.607  1.2450  0.6499 -0.3977
 3703TIP3   OH232599   6.424   6.494   5.444  0.1655  0.2007 -0.1069
 3703TIP3    H132600   6.462   6.549   5.512  0.0912 -0.4002  0.4250
 3703TIP3    H232601   6.493   6.486   5.378 -0.1166  1.6467 -0.6307
 3704TIP3   OH232602   1.118   0.406  13.730  0.1982  0.7272 -0.8472
 3704TIP3    H132603   1.106   0.410  13.825 -0.9067  0.4957 -0.9684
 3704TIP3    H232604   1.060   0.337  13.700  0.8577  0.4948 -1.6561
 3705TIP3   OH232605   0.239   6.083  12.921  0.2216 -0.3470 -0.4436
 3705TIP3    H132606   0.262   6.176  12.921 -0.0066 -0.2896 -0.2576
 3705TIP3    H232607   0.181   6.072  12.846  0.8273 -0.4862 -0.8945
 3706TIP3   OH232608   1.061   5.373   5.664 -0.0347  0.0880  0.0285
 3706TIP3    H132609   1.100   5.326   5.738 -0.3765  1.7702  1.3544
 3706TIP3    H232610   1.135   5.398   5.609  0.5582  1.1050  1.2286
 3707TIP3   OH232611   6.691   2.751  10.870  0.4869  0.9943  0.4195
 3707TIP3    H132612   6.725   2.667  10.900 -1.5623  0.1958  0.6710
 3707TIP3    H232613   6.769   2.800  10.843  1.7427 -0.9333  0.3351
 3708TIP3   OH232614   6.681   2.006   4.674  0.1063  0.0211 -0.6724
 3708TIP3    H132615   6.668   1.916   4.704  2.0286  0.1737  0.8203
 3708TIP3    H232616   6.711   2.054   4.752  0.3958  1.6475 -1.7228
 3709TIP3   OH232617   6.730   2.971  11.619  0.7177 -0.2779  0.1207
 3709TIP3    H132618   6.686   2.958  11.703  0.1420  1.8749  0.2006
 3709TIP3    H232619   6.818   2.998  11.642  0.4267  0.7576  0.0694
 3710TIP3   OH232620   0.509   2.352  16.482  0.4255 -0.2777 -0.0505
 3710TIP3    H132621   0.536   2.334  16.572  0.5552 -0.9213 -0.2127
 3710TIP3    H232622   0.569   2.419  16.452  2.4086 -2.2169 -0.6587
 3711TIP3   OH232623   2.086   3.058   4.552 -0.0098 -0.1359  0.3941
 3711TIP3    H132624   2.015   3.090   4.606 -0.3083 -0.3265  0.1173
 3711TIP3    H232625   2.117   3.135   4.504  0.3073  0.0474  0.8890
 3712TIP3   OH232626   1.642   4.534  15.998 -0.2507  0.2776  0.0317
 3712TIP3    H132627   1.704   4.593  16.043 -0.1196  0.6288 -0.5998
 3712TIP3    H232628   1.698   4.468  15.956 -0.4486 -1.0780  1.7796
 3713TIP3   OH232629   4.363   6.524   5.419 -0.6704 -0.1885  0.3561
 3713TIP3    H132630   4.404   6.457   5.363 -0.4175  1.0958 -1.0857
 3713TIP3    H232631   4.417   6.526   5.498  0.3377 -0.5430 -0.2969
 3714TIP3   OH232632   5.424   5.205  13.157  0.1049 -0.5774 -0.4116
 3714TIP3    H132633   5.448   5.147  13.229 -0.4717 -0.4628 -0.1237
 3714TIP3    H232634   5.508   5.242  13.127  0.4243 -1.2063 -0.3024
 3715TIP3   OH232635   5.056   3.981   4.124 -0.0560 -0.1047  0.3434
 3715TIP3    H132636   5.075   4.043   4.195  1.2233  0.7149 -0.6707
 3715TIP3    H232637   5.099   4.019   4.048 -1.3762 -0.9764 -0.8849
 3716TIP3   OH232638   3.356   2.800   2.235 -0.1040 -0.4105  0.1287
 3716TIP3    H132639   3.317   2.882   2.207  1.0775 -0.0385 -0.5194
 3716TIP3    H232640   3.346   2.742   2.160 -0.9569 -0.8745  0.5941
 3717TIP3   OH232641   4.434   0.174  11.255 -0.0289 -0.0391 -0.2206
 3717TIP3    H132642   4.451   0.162  11.348 -3.3420  0.7134  0.6124
 3717TIP3    H232643   4.465   0.262  11.235  1.2515 -0.4240 -0.0588
 3718TIP3   OH232644   1.841   5.405  16.297  0.2532 -0.2308  0.0044
 3718TIP3    H132645   1.822   5.492  16.263 -0.5407 -0.2340  0.4055
 3718TIP3    H232646   1.822   5.412  16.391 -0.3017 -0.9640 -0.0457
 3719TIP3   OH232647   5.962   2.392   4.036  0.3868 -0.2228  0.4483
 3719TIP3    H132648   5.908   2.347   4.101 -0.6614  1.2235  0.6345
 3719TIP3    H232649   5.926   2.364   3.951 -1.0599  1.1214  0.5725
 3720TIP3   OH232650   2.625   1.516   2.647 -0.5430  0.0420 -0.1156
 3720TIP3    H132651   2.556   1.521   2.581  0.5963  0.3463 -1.3432
 3720TIP3    H232652   2.698   1.473   2.602  0.4134  0.6332  0.8116
 3721TIP3   OH232653   2.662   6.279  12.394  0.2566  0.2506 -0.2234
 3721TIP3    H132654   2.720   6.354  12.410  0.7343 -0.0507 -0.5081
 3721TIP3    H232655   2.587   6.316  12.349  0.4806  0.5652 -0.3465
 3722TIP3   OH232656   3.465   1.481  16.460 -0.3640  0.3954  0.3376
 3722TIP3    H132657   3.537   1.422  16.439 -0.0165  0.8739  0.1508
 3722TIP3    H232658   3.453   1.471  16.555 -1.6452 -1.4413  0.0200
 3723TIP3   OH232659   3.954   3.147  11.298  0.1546 -0.6281 -0.0660
 3723TIP3    H132660   4.006   3.103  11.230  0.2115 -2.0788  0.8795
 3723TIP3    H232661   3.863   3.134  11.271  0.1998 -0.0449 -0.5361
 3724TIP3   OH232662   2.895   3.022  13.160 -0.1974 -0.0620 -0.2870
 3724TIP3    H132663   2.910   3.060  13.073 -1.1165  2.4508  0.5551
 3724TIP3    H232664   2.831   2.953  13.145  1.4576 -1.3666 -1.8905
 3725TIP3   OH232665   0.659   0.025  16.742  0.6674  0.5082  0.1931
 3725TIP3    H132666   0.744   0.034  16.785  1.6618  0.3706 -1.6617
 3725TIP3    H232667   0.653   0.101  16.684 -0.4832  0.4997  0.2629
 3726TIP3   OH232668   4.279   0.119   1.339  1.0751  0.1471 -0.0756
 3726TIP3    H132669   4.230   0.118   1.422  1.5887  0.0413  0.2321
 3726TIP3    H232670   4.246   0.196   1.293 -0.4365 -0.7401 -0.5236
 3727TIP3   OH232671   4.123   1.503  15.690 -0.0226  0.4505  0.0309
 3727TIP3    H132672   4.097   1.412  15.673 -0.1709  0.3572  0.7081
 3727TIP3    H232673   4.043   1.545  15.723  0.4785  0.3491  1.4377
 3728TIP3   OH232674   3.459   5.349  15.654 -0.4594  0.1766 -0.0428
 3728TIP3    H132675   3.439   5.264  15.613 -1.6441  1.3260 -1.9810
 3728TIP3    H232676   3.387   5.364  15.714  0.3729 -0.6971  1.2269
 3729TIP3   OH232677   4.725   6.395  11.937 -0.0936  0.0485 -0.1821
 3729TIP3    H132678   4.658   6.389  12.006  0.4314 -2.4544  0.1922
 3729TIP3    H232679   4.683   6.447  11.868 -0.5910  2.7965  1.9873
 3730TIP3   OH232680   5.531   5.432   0.615  0.3741 -0.5234 -0.3321
 3730TIP3    H132681   5.510   5.420   0.523  1.1073  0.6920 -0.6839
 3730TIP3    H232682   5.448   5.460   0.655  0.5212  1.1210 -1.0798
 3731TIP3   OH232683   0.376   6.364   1.521 -0.4406 -0.4498 -0.1446
 3731TIP3    H132684   0.467   6.363   1.492 -0.5846 -0.9594 -0.5934
 3731TIP3    H232685   0.328   6.402   1.447 -0.7327 -1.2076 -0.3510
 3732TIP3   OH232686   4.105   4.856   2.787 -0.1233 -0.1262 -0.3034
 3732TIP3    H132687   4.124   4.825   2.699 -1.0366 -1.0183 -0.2041
 3732TIP3    H232688   4.169   4.809   2.842  1.0969  1.1541 -0.5579
 3733TIP3   OH232689   4.269   4.818  16.494 -0.3601 -0.8632 -0.5814
 3733TIP3    H132690   4.257   4.855  16.581  1.5000 -0.4346 -0.4703
 3733TIP3    H232691   4.261   4.893  16.435 -0.3605 -0.9384 -0.6772
 3734TIP3   OH232692   5.793   3.639  16.919  0.0663  0.2464  0.1865
 3734TIP3    H132693   5.748   3.662  16.838  2.0176  0.0204 -1.0234
 3734TIP3    H232694   5.776   3.714  16.977  0.0999  1.2473 -1.0475
 3735TIP3   OH232695   0.365   3.657  14.276 -0.4310  0.5694  0.2899
 3735TIP3    H132696   0.360   3.568  14.310 -1.7596  0.2688 -0.6442
 3735TIP3    H232697   0.371   3.712  14.354 -0.1223 -0.2918  0.8891
 3736TIP3   OH232698   3.778   3.613   1.297 -0.6159  0.8956  0.6768
 3736TIP3    H132699   3.860   3.596   1.251 -1.1803 -0.7890  0.2298
 3736TIP3    H232700   3.724   3.659   1.233  0.0201  2.2227  1.0482
 3737TIP3   OH232701   1.944   6.787  12.674 -0.4015 -0.0109  0.2905
 3737TIP3    H132702   1.865   6.757  12.630 -0.6119 -1.4619  1.5706
 3737TIP3    H232703   1.929   6.765  12.766  1.6256 -0.6288  0.5132
 3738TIP3   OH232704   6.352   1.001   1.387  0.0743  0.5539 -0.1645
 3738TIP3    H132705   6.418   0.936   1.412  1.0823  1.8285  0.5889
 3738TIP3    H232706   6.395   1.086   1.399 -2.3226  1.5770  2.4928
 3739TIP3   OH232707   5.770   4.308   0.437 -0.3523  0.0397 -0.3322
 3739TIP3    H132708   5.755   4.309   0.343 -0.3350 -0.6976 -0.3432
 3739TIP3    H232709   5.682   4.305   0.475 -0.3708 -2.9683 -0.3828
 3740TIP3   OH232710   5.350   4.189  13.028  0.6963  0.2377  0.4633
 3740TIP3    H132711   5.285   4.190  12.958  1.6026 -0.4268 -0.4167
 3740TIP3    H232712   5.376   4.280  13.039 -0.1503  0.4701  0.6208
 3741TIP3   OH232713   0.975   4.213   1.665 -0.7760  0.2072  0.2042
 3741TIP3    H132714   1.049   4.219   1.725  0.9094 -1.0967 -1.6064
 3741TIP3    H232715   0.966   4.119   1.648 -2.2619  0.4207 -0.3297
 3742TIP3   OH232716   3.385   0.809  10.319 -0.5432  0.0241 -0.2754
 3742TIP3    H132717   3.418   0.899  10.314 -1.3762  0.2952 -1.3889
 3742TIP3    H232718   3.298   0.814  10.280 -0.5142 -1.3113 -0.5441
 3743TIP3   OH232719   6.695   3.784  11.954  0.6300 -0.1095  0.1341
 3743TIP3    H132720   6.769   3.835  11.922 -0.8924  1.6329 -0.7641
 3743TIP3    H232721   6.722   3.693  11.943  2.2783  0.4722 -0.9880
 3744TIP3   OH232722   6.304   6.459   4.790 -0.1782  0.1556 -0.3180
 3744TIP3    H132723   6.323   6.550   4.770 -1.4069  0.3929 -0.4849
 3744TIP3    H232724   6.356   6.409   4.726 -1.0434  0.7990 -1.5730
 3745TIP3   OH232725   4.124   6.461   3.509 -0.3793 -0.1982 -0.5037
 3745TIP3    H132726   4.084   6.382   3.472 -1.7735  0.7546 -1.1349
 3745TIP3    H232727   4.218   6.447   3.501 -0.6159 -1.1871 -1.9417
 3746TIP3   OH232728   5.184   6.116  11.858 -0.3096 -0.2765  0.1274
 3746TIP3    H132729   5.110   6.166  11.891 -0.0821  0.4257 -0.3918
 3746TIP3    H232730   5.232   6.178  11.804 -1.1043 -1.5563 -2.1956
 3747TIP3   OH232731   0.670   0.605  14.691 -0.7571 -0.3361 -0.3039
 3747TIP3    H132732   0.581   0.623  14.658 -0.5722 -0.8718 -1.1101
 3747TIP3    H232733   0.715   0.689  14.682 -1.1808 -0.0587  0.1102
 3748TIP3   OH232734   1.163   5.042   0.584  0.1961 -0.2581 -0.0188
 3748TIP3    H132735   1.149   4.949   0.600 -1.5633 -0.2202 -1.1597
 3748TIP3    H232736   1.257   5.055   0.599  0.0889 -1.7170  2.4490
 3749TIP3   OH232737   4.271   4.761  11.409  0.5312  0.4473 -0.5615
 3749TIP3    H132738   4.201   4.785  11.347 -1.3530 -1.8574  0.5122
 3749TIP3    H232739   4.274   4.666  11.405  3.1736  0.4507  0.0206
 3750TIP3   OH232740   5.504   4.313   6.705  1.1485  0.2638  0.4524
 3750TIP3    H132741   5.528   4.396   6.746  1.0848  0.4851  0.0499
 3750TIP3    H232742   5.583   4.260   6.708  1.3639  0.5662  0.1601
 3751TIP3   OH232743   4.745   6.572  16.351  0.9760 -0.1478  0.1503
 3751TIP3    H132744   4.792   6.586  16.269 -0.3800  1.2882 -0.4248
 3751TIP3    H232745   4.724   6.478  16.350  1.5208 -0.2760 -0.8339
 3752TIP3   OH232746   0.056   0.596   5.283 -0.1774  0.4336 -0.3490
 3752TIP3    H132747   0.023   0.580   5.195 -0.5964 -0.8717  0.0158
 3752TIP3    H232748   0.129   0.534   5.293  0.4561  1.2048 -0.0942
 3753TIP3   OH232749   1.389   0.115   2.554  0.2557 -0.5600  0.3342
 3753TIP3    H132750   1.424   0.196   2.590 -1.0211  0.0671  0.2049
 3753TIP3    H232751   1.411   0.048   2.619  0.5342  0.0456  0.8693
 3754TIP3   OH232752   5.536   4.251  16.314 -1.4567 -0.7762 -0.0564
 3754TIP3    H132753   5.606   4.199  16.352 -1.0715 -0.2238  0.0012
 3754TIP3    H232754   5.506   4.199  16.239  0.2607 -0.2054 -1.2142
 3755TIP3   OH232755   6.784   4.715  11.453  0.0285  0.3051 -0.7419
 3755TIP3    H132756   6.833   4.760  11.522 -2.2558  1.4039  0.2387
 3755TIP3    H232757   6.830   4.631  11.443 -0.1847 -0.4315  2.9751
 3756TIP3   OH232758   3.017   5.531  15.639  0.2343 -0.5322  0.2750
 3756TIP3    H132759   2.939   5.485  15.668  0.8298 -1.8019 -0.0626
 3756TIP3    H232760   3.075   5.530  15.715 -0.7015  1.9887  1.1263
 3757TIP3   OH232761   2.936   1.617   3.723 -0.5637  0.2495 -0.3333
 3757TIP3    H132762   3.011   1.651   3.675 -0.5513 -0.3264 -0.7346
 3757TIP3    H232763   2.870   1.686   3.718 -0.8505 -0.1166 -1.8596
 3758TIP3   OH232764   3.496   1.864  15.990  0.2759  0.4542  0.3011
 3758TIP3    H132765   3.434   1.815  16.044 -0.5787  2.2273  1.0197
 3758TIP3    H232766   3.453   1.948  15.974  1.5571  0.8865 -1.1072
 3759TIP3   OH232767   2.973   5.338  13.295 -0.0028  0.2430 -0.6598
 3759TIP3    H132768   2.965   5.243  13.304  1.1764  0.3156  1.9668
 3759TIP3    H232769   3.066   5.352  13.275  0.2373  0.8998  0.8139
 3760TIP3   OH232770   5.697   6.378  14.108  0.0003 -0.4135  0.2177
 3760TIP3    H132771   5.725   6.340  14.191 -0.6525  0.5825  0.9243
 3760TIP3    H232772   5.771   6.365  14.049  0.0068 -2.2453  0.5735
 3761TIP3   OH232773   3.655   3.250  12.576  0.4007  0.0477 -0.1758
 3761TIP3    H132774   3.651   3.219  12.667  0.2987  0.4836 -0.0294
 3761TIP3    H232775   3.745   3.232  12.549  0.1228 -1.1598 -0.3864
 3762TIP3   OH232776   1.303   5.215   1.303 -0.5122  0.1392 -0.2835
 3762TIP3    H132777   1.340   5.144   1.251  1.4941  2.5662 -2.3856
 3762TIP3    H232778   1.293   5.178   1.391  3.0352 -1.9442 -0.6056
 3763TIP3   OH232779   1.234   0.453   2.327 -0.7059 -0.2211  0.4782
 3763TIP3    H132780   1.287   0.497   2.394  0.1491 -0.9684  0.3124
 3763TIP3    H232781   1.213   0.522   2.264  2.0771 -0.3274 -0.6988
 3764TIP3   OH232782   4.018   5.732   2.399 -0.0833  0.0726 -0.0453
 3764TIP3    H132783   3.965   5.764   2.472  0.1269  0.1494  0.0726
 3764TIP3    H232784   4.005   5.798   2.330 -0.2942 -0.0093 -0.0852
 3765TIP3   OH232785   1.381   2.541   6.478 -0.3086  0.0791 -0.1187
 3765TIP3    H132786   1.380   2.447   6.457 -0.9509  0.4142 -1.7448
 3765TIP3    H232787   1.472   2.567   6.464  0.3798 -0.6761  2.4138
 3766TIP3   OH232788   2.332   3.226   1.566  0.2981 -0.1110 -0.0021
 3766TIP3    H132789   2.304   3.211   1.656  0.2084  0.4122  0.0615
 3766TIP3    H232790   2.427   3.220   1.569  0.2920 -0.1491  0.1214
 3767TIP3   OH232791   3.529   5.136   3.249 -0.6046 -0.4654  0.3538
 3767TIP3    H132792   3.598   5.079   3.282  1.0396  1.8328  1.0719
 3767TIP3    H232793   3.512   5.197   3.320 -1.6652  0.5397 -0.7201
 3768TIP3   OH232794   2.330   3.884   5.562  0.4047 -0.3785  0.0101
 3768TIP3    H132795   2.343   3.978   5.577 -1.7569 -0.4090  2.6474
 3768TIP3    H232796   2.267   3.880   5.490 -0.5905  0.2666  0.8231
 3769TIP3   OH232797   0.568   6.726  14.076  0.6056 -0.6789  0.6531
 3769TIP3    H132798   0.591   6.793  14.012 -0.5460 -0.4431  0.4630
 3769TIP3    H232799   0.646   6.718  14.132  0.7266  0.8915  0.7456
 3770TIP3   OH232800   3.904   2.658  16.760  0.2542 -0.4604 -0.0380
 3770TIP3    H132801   3.953   2.725  16.712 -1.2753  1.1101  0.4654
 3770TIP3    H232802   3.813   2.672  16.733 -0.1836 -1.9617  0.5698
 3771TIP3   OH232803   3.456   3.124  13.950  0.5397 -1.2140  0.8018
 3771TIP3    H132804   3.393   3.127  13.879 -0.2941 -1.5721  1.4957
 3771TIP3    H232805   3.541   3.115  13.907  0.6471  3.2639 -0.3479
 3772TIP3   OH232806   6.721   5.859  13.280 -0.0654  0.8355 -0.0589
 3772TIP3    H132807   6.688   5.935  13.232 -1.4213  0.2217 -0.1448
 3772TIP3    H232808   6.738   5.892  13.369 -0.8822  1.1901 -0.0279
 3773TIP3   OH232809   3.352   6.019   4.894 -0.0804  0.1643 -0.2098
 3773TIP3    H132810   3.260   6.022   4.865 -0.3264  4.9592  0.2698
 3773TIP3    H232811   3.402   6.032   4.813  0.1860 -1.6031 -0.3539
 3774TIP3   OH232812   1.244   2.885  16.055  0.0349  0.6321 -0.9377
 3774TIP3    H132813   1.281   2.923  15.975 -0.8128  1.3713 -0.9978
 3774TIP3    H232814   1.262   2.950  16.122  2.8073 -0.9768  0.0351
 3775TIP3   OH232815   4.952   6.532   6.445 -0.2485 -0.2156  0.1328
 3775TIP3    H132816   4.871   6.493   6.477  0.1451 -1.7375 -0.6232
 3775TIP3    H232817   4.927   6.579   6.366 -0.1697 -2.1577 -1.1108
 3776TIP3   OH232818   1.692   0.404   4.935  0.0411  0.5639 -0.2416
 3776TIP3    H132819   1.742   0.372   5.010  0.4135  1.3738 -0.1292
 3776TIP3    H232820   1.635   0.472   4.971 -1.1757 -0.3582 -0.3650
 3777TIP3   OH232821   1.583   3.087  14.864 -0.0152 -0.6622 -0.3410
 3777TIP3    H132822   1.655   3.058  14.921 -2.3317 -0.1831  3.1082
 3777TIP3    H232823   1.606   3.176  14.840  0.7359 -0.6466  0.3828
 3778TIP3   OH232824   0.279   4.567   2.660  0.1675  0.3486  0.1803
 3778TIP3    H132825   0.191   4.604   2.650  0.4820  0.9514 -0.4020
 3778TIP3    H232826   0.284   4.498   2.594  0.7852  1.5876 -1.1355
 3779TIP3   OH232827   5.675   6.701  11.276 -0.3192  0.2730  0.4384
 3779TIP3    H132828   5.635   6.767  11.332  1.5129  2.5921 -0.7756
 3779TIP3    H232829   5.609   6.681  11.210 -1.4524 -0.3366  1.7145
 3780TIP3   OH232830   0.799   0.727  16.253 -0.2910 -0.3280 -0.3992
 3780TIP3    H132831   0.891   0.752  16.255 -0.8460  1.9610  0.2870
 3780TIP3    H232832   0.775   0.730  16.161  0.4197 -1.4372 -0.6346
 3781TIP3   OH232833   0.149   3.616  14.097  0.1700 -0.2472  0.2733
 3781TIP3    H132834   0.178   3.563  14.023 -1.5250  0.0794 -0.6854
 3781TIP3    H232835   0.228   3.657  14.130  1.3977 -2.5415  0.4167
 3782TIP3   OH232836   5.770   3.367   1.641  0.0497  0.7430 -0.0469
 3782TIP3    H132837   5.727   3.282   1.652  0.0722  0.9135  1.5789
 3782TIP3    H232838   5.716   3.413   1.577 -0.6729 -0.0336 -0.0170
 3783TIP3   OH232839   4.903   4.945  13.705 -0.0129  0.3336  0.9177
 3783TIP3    H132840   4.907   4.872  13.767 -1.5407 -0.3413  0.2738
 3783TIP3    H232841   4.895   5.023  13.761  3.1282  0.2424  1.6602
 3784TIP3   OH232842   2.415   5.149   4.486  0.7805  0.8040  0.3685
 3784TIP3    H132843   2.477   5.151   4.413 -0.5023  0.9220 -0.7469
 3784TIP3    H232844   2.415   5.239   4.520  0.3870  1.0889 -0.3628
 3785TIP3   OH232845   2.226   4.637  15.653 -0.3468 -0.0931  0.5289
 3785TIP3    H132846   2.315   4.661  15.627 -0.8544  0.0474 -1.1950
 3785TIP3    H232847   2.198   4.709  15.710 -0.3896  1.3920 -1.2844
 3786TIP3   OH232848   1.867   4.712  11.270 -0.3818  0.4000 -0.4728
 3786TIP3    H132849   1.881   4.802  11.301 -1.4584  0.1133  0.8892
 3786TIP3    H232850   1.775   4.710  11.245 -0.5001 -0.4850  0.0231
 3787TIP3   OH232851   5.555   3.905  15.167 -0.1081 -0.2790 -0.1118
 3787TIP3    H132852   5.486   3.969  15.154  1.2058  1.0549 -0.8741
 3787TIP3    H232853   5.526   3.827  15.120 -0.8689  0.4159 -0.8158
 3788TIP3   OH232854   6.192   5.946  14.943 -0.2088  0.2192  0.1904
 3788TIP3    H132855   6.148   5.974  15.023  1.2428  1.3870  0.6247
 3788TIP3    H232856   6.274   5.907  14.973 -0.0007 -0.0369 -0.6821
 3789TIP3   OH232857   5.725   1.164   3.612  0.2671  0.5123 -0.5419
 3789TIP3    H132858   5.755   1.176   3.522 -0.7133  0.8227 -0.8463
 3789TIP3    H232859   5.630   1.153   3.604 -0.0637  2.2086  0.5764
 3790TIP3   OH232860   5.787   3.655  15.176 -0.0149  0.0088 -0.1081
 3790TIP3    H132861   5.764   3.684  15.264 -0.5107 -1.1650  0.1804
 3790TIP3    H232862   5.703   3.634  15.136  0.3336 -1.9074  0.0599
 3791TIP3   OH232863   6.769   2.746  14.874 -0.3044  0.2959  0.6573
 3791TIP3    H132864   6.690   2.769  14.922 -0.2132  1.2041  0.4023
 3791TIP3    H232865   6.790   2.825  14.823  0.2402 -0.2496  0.0102
 3792TIP3   OH232866   1.165   0.832  14.981  0.0998  0.6627 -0.2865
 3792TIP3    H132867   1.183   0.797  15.068  0.8641 -0.5821 -0.9184
 3792TIP3    H232868   1.251   0.837  14.939 -0.4326 -0.4103 -1.5680
 3793TIP3   OH232869   1.641   0.052  13.382 -0.0320 -0.0207  0.3593
 3793TIP3    H132870   1.578   0.016  13.320 -0.8474  1.2650  0.4028
 3793TIP3    H232871   1.709  -0.014  13.388 -1.0285 -1.1430 -0.2266
 3794TIP3   OH232872   4.157   6.315  10.261 -0.2560  0.4899 -0.7907
 3794TIP3    H132873   4.069   6.347  10.282  0.3310  2.5447 -1.1678
 3794TIP3    H232874   4.209   6.340  10.337 -0.3565 -2.7497  0.4656
 3795TIP3   OH232875   4.365   6.087  12.646  0.6750 -0.1805  0.2563
 3795TIP3    H132876   4.270   6.095  12.634  0.8262 -0.1379 -1.0552
 3795TIP3    H232877   4.375   6.039  12.729 -0.4487  1.4548  1.4065
 3796TIP3   OH232878   4.544   4.208   4.588 -0.7925  0.2508  0.5365
 3796TIP3    H132879   4.623   4.164   4.621 -0.0738  0.4108 -0.8866
 3796TIP3    H232880   4.524   4.162   4.507 -0.6819  1.8081 -0.4072
 3797TIP3   OH232881   3.582   5.945   3.181 -0.3396 -0.7783  0.2665
 3797TIP3    H132882   3.514   6.006   3.152 -2.0631 -2.6660  0.1142
 3797TIP3    H232883   3.626   5.920   3.100  1.5872  1.4910  0.4966
 3798TIP3   OH232884   6.316   2.078  12.540 -0.8823 -0.2319 -0.3690
 3798TIP3    H132885   6.394   2.132  12.547  0.2310 -1.7994  0.0275
 3798TIP3    H232886   6.306   2.061  12.446 -0.2557 -0.6762 -0.3609
 3799TIP3   OH232887   6.104   5.208   4.226  0.4836  0.1824  0.0278
 3799TIP3    H132888   6.009   5.194   4.233  0.2604  1.0809 -1.0086
 3799TIP3    H232889   6.135   5.131   4.178  0.5653 -0.9849  1.8542
 3800TIP3   OH232890   3.770   2.210  15.181 -0.3247  0.4546  0.1134
 3800TIP3    H132891   3.820   2.269  15.125  0.0014 -1.0339 -1.2507
 3800TIP3    H232892   3.818   2.127  15.177 -0.6230  0.1263  2.1626
 3801TIP3   OH232893   4.415   3.580   2.138 -0.0113 -0.4577 -0.0241
 3801TIP3    H132894   4.498   3.560   2.093  0.5280  0.6254  0.4484
 3801TIP3    H232895   4.374   3.494   2.151  0.5559 -0.9326 -1.1565
 3802TIP3   OH232896   3.395   6.504   0.968  0.3041 -0.8377 -0.3755
 3802TIP3    H132897   3.481   6.507   0.925  0.8589 -1.3253  0.6556
 3802TIP3    H232898   3.414   6.471   1.056 -1.0835 -1.9807 -0.4737
 3803TIP3   OH232899   4.907   4.167   3.537 -0.2095  0.2933 -0.4438
 3803TIP3    H132900   4.885   4.259   3.553  1.4017  0.6247  0.0347
 3803TIP3    H232901   4.872   4.150   3.449 -0.5721  1.3506 -0.5257
 3804TIP3   OH232902   0.730   2.356   0.313  0.0877  0.1770  0.2313
 3804TIP3    H132903   0.714   2.376   0.406 -0.3054  0.8926  0.0127
 3804TIP3    H232904   0.818   2.389   0.296  0.3046 -0.2835  0.4397
 3805TIP3   OH232905   6.635   6.620   5.596  0.0616 -0.0362 -0.4463
 3805TIP3    H132906   6.730   6.614   5.587  0.5405  2.7305  1.3347
 3805TIP3    H232907   6.621   6.708   5.632 -2.8396 -1.7435  3.1601
 3806TIP3   OH232908   3.456   4.656   0.517  0.2560 -0.4720  0.1796
 3806TIP3    H132909   3.367   4.635   0.543  0.1097 -0.3359 -0.2061
 3806TIP3    H232910   3.506   4.653   0.598 -0.4421  1.2886  0.7248
 3807TIP3   OH232911   0.790   6.607  11.633  0.4792  0.5733 -0.5625
 3807TIP3    H132912   0.741   6.551  11.573  0.3416  0.5173 -0.4016
 3807TIP3    H232913   0.817   6.547  11.704  1.9957  0.2890 -1.3301
 3808TIP3   OH232914   0.099   6.456  15.890  0.3924 -0.3466  0.6013
 3808TIP3    H132915   0.021   6.473  15.944  0.1565 -0.1571  0.2081
 3808TIP3    H232916   0.138   6.378  15.928 -1.1562 -1.7113 -0.4294
 3809TIP3   OH232917   0.036   5.268   5.592 -0.4483 -0.3077 -0.7308
 3809TIP3    H132918   0.004   5.340   5.538 -0.2704 -0.2436 -0.7530
 3809TIP3    H232919  -0.030   5.200   5.583 -0.9006  0.0648 -0.2530
 3810TIP3   OH232920   4.400   1.072  10.727 -0.4540 -0.3426  0.1652
 3810TIP3    H132921   4.474   1.102  10.780  0.2639 -2.4315  0.4142
 3810TIP3    H232922   4.370   0.992  10.770 -0.9735 -1.1446 -1.5874
 3811TIP3   OH232923   6.143   2.922  11.965 -0.5863  0.4396 -0.4571
 3811TIP3    H132924   6.237   2.922  11.985 -0.7387 -1.0593  0.4670
 3811TIP3    H232925   6.116   2.831  11.980 -2.3582  1.0289  0.1911
 3812TIP3   OH232926   5.416   2.989  13.282 -0.3779 -0.3472 -0.2401
 3812TIP3    H132927   5.320   2.993  13.277 -0.3557 -0.8125 -1.1548
 3812TIP3    H232928   5.445   2.994  13.191  0.4419 -0.9081 -0.0129
 3813TIP3   OH232929   0.568   2.271  10.483 -0.0428  0.5004 -0.0131
 3813TIP3    H132930   0.608   2.273  10.571 -0.5838 -0.6566  0.2672
 3813TIP3    H232931   0.543   2.180  10.470  0.3731  0.5815 -1.5406
 3814TIP3   OH232932   1.457   5.502   1.930  0.6004 -0.0927 -0.1817
 3814TIP3    H132933   1.383   5.443   1.945  1.1217 -0.6482  0.2444
 3814TIP3    H232934   1.511   5.493   2.008  1.0331  0.4484 -0.4124
 3815TIP3   OH232935   2.770   0.492  10.914 -0.0410 -0.1089 -0.4728
 3815TIP3    H132936   2.834   0.513  10.845  0.8169 -0.8499  0.0726
 3815TIP3    H232937   2.819   0.501  10.996 -0.7755 -0.2118 -0.0157
 3816TIP3   OH232938   1.507   0.691   3.268  0.0538  0.0408 -0.9220
 3816TIP3    H132939   1.602   0.699   3.256  0.2892 -0.3527  0.5121
 3816TIP3    H232940   1.484   0.608   3.226  0.4687 -0.2392 -0.5968
 3817TIP3   OH232941   4.431   4.490   5.572 -0.0257 -0.0470 -0.0321
 3817TIP3    H132942   4.444   4.420   5.509 -1.1551  0.2181 -0.5821
 3817TIP3    H232943   4.464   4.569   5.528 -0.8760  0.1499 -0.3247
 3818TIP3   OH232944   4.440   1.933   4.350 -0.2280 -0.0183  0.4385
 3818TIP3    H132945   4.390   1.897   4.423 -1.6410  1.6253  0.3349
 3818TIP3    H232946   4.385   2.002   4.314  0.2184 -1.0410 -2.5039
 3819TIP3   OH232947   2.668   0.498  12.173  0.2015  0.3823 -0.0235
 3819TIP3    H132948   2.758   0.523  12.195  0.9045 -0.3968 -1.7766
 3819TIP3    H232949   2.660   0.518  12.079 -0.3359 -2.5652 -0.7153
 3820TIP3   OH232950   2.195   4.119  16.966 -0.3082 -0.6779  0.1389
 3820TIP3    H132951   2.183   4.128  17.061 -0.4245 -0.1733  0.0744
 3820TIP3    H232952   2.200   4.024  16.953  3.9108 -0.8177  1.1749
 3821TIP3   OH232953   1.807   2.474   2.338 -0.2120  0.1073  0.0367
 3821TIP3    H132954   1.816   2.436   2.425  0.5590 -0.1080 -0.1272
 3821TIP3    H232955   1.795   2.398   2.280  1.7621  0.0311 -0.3480
 3822TIP3   OH232956   3.287   3.866  12.854 -0.3979  0.1320  0.5105
 3822TIP3    H132957   3.224   3.805  12.816 -0.4876  1.1125 -1.0304
 3822TIP3    H232958   3.338   3.813  12.916 -1.0936 -1.2605 -0.0602
 3823TIP3   OH232959   1.013   3.078   4.122  1.1041  0.1475  0.4351
 3823TIP3    H132960   0.935   3.133   4.114  0.8572 -0.3434 -0.8250
 3823TIP3    H232961   1.027   3.069   4.216  0.6755  1.6775  0.6685
 3824TIP3   OH232962   1.677   2.039   0.757 -0.3720  0.2878  0.0530
 3824TIP3    H132963   1.691   1.949   0.726  0.4868 -0.1966  1.7179
 3824TIP3    H232964   1.588   2.039   0.791 -0.8320  0.4520 -1.0895
 3825TIP3   OH232965   2.135   0.686  14.880  0.0908 -0.2280 -0.0011
 3825TIP3    H132966   2.128   0.747  14.954  0.9221 -1.0110  0.7521
 3825TIP3    H232967   2.049   0.644  14.876  0.5379 -1.4002  1.6409
 3826TIP3   OH232968   3.656   1.245   0.098 -0.6542 -0.2400 -0.0260
 3826TIP3    H132969   3.721   1.195   0.147  0.4806  1.3798  0.2189
 3826TIP3    H232970   3.691   1.335   0.098 -1.2159  0.0586 -2.7454
 3827TIP3   OH232971   3.095   6.747   3.859 -0.8119  0.7181  0.6401
 3827TIP3    H132972   3.181   6.750   3.901  0.3317 -0.8428 -1.3874
 3827TIP3    H232973   3.059   6.663   3.886  1.5302 -2.1876 -3.9656
 3828TIP3   OH232974   4.250   2.959   5.256  0.1701  0.1686 -0.3554
 3828TIP3    H132975   4.296   3.042   5.262 -0.5567  0.5438  0.1826
 3828TIP3    H232976   4.225   2.938   5.346 -0.0585 -0.3955 -0.5422
 3829TIP3   OH232977   6.368   0.568   3.774 -0.4111  0.1291  0.3390
 3829TIP3    H132978   6.379   0.650   3.727 -0.0131  0.9432  1.8041
 3829TIP3    H232979   6.414   0.503   3.720  1.3583  1.3146  0.3667
 3830TIP3   OH232980   4.223   1.235   5.402 -0.1950  0.6462  0.1267
 3830TIP3    H132981   4.274   1.309   5.370 -0.9607  1.1702  0.0819
 3830TIP3    H232982   4.286   1.164   5.411  0.8813  1.7244  1.6977
 3831TIP3   OH232983   0.733   3.460  15.044 -0.1842 -0.0023 -0.1309
 3831TIP3    H132984   0.724   3.403  14.967  0.6673 -1.0253  0.5126
 3831TIP3    H232985   0.782   3.536  15.012  1.2431 -0.9751 -0.3495
 3832TIP3   OH232986   5.629   5.628  17.074  0.1573  0.2223 -0.5149
 3832TIP3    H132987   5.619   5.650  17.166  0.2484 -1.2945 -0.1187
 3832TIP3    H232988   5.706   5.571  17.071 -0.3973 -0.5115 -1.3931
 3833TIP3   OH232989   0.284   2.625   3.838 -0.3552 -0.3482  0.7479
 3833TIP3    H132990   0.287   2.574   3.757 -0.9946  0.5479  0.1544
 3833TIP3    H232991   0.201   2.672   3.835 -0.8196 -0.9869  2.3592
 3834TIP3   OH232992   0.849   2.151   1.263  0.5312  0.3723  0.0801
 3834TIP3    H132993   0.811   2.158   1.350 -0.2947 -0.9336 -0.1517
 3834TIP3    H232994   0.840   2.239   1.225  1.0261  0.9878  1.3283
 3835TIP3   OH232995   2.458   3.152  10.916 -0.3539 -0.4423 -0.8743
 3835TIP3    H132996   2.395   3.079  10.917  2.1728 -2.7708  0.1167
 3835TIP3    H232997   2.459   3.183  11.007  2.0277 -2.5046 -0.0865
 3836TIP3   OH232998   3.242   2.860  11.468 -0.4289 -0.3561 -0.0270
 3836TIP3    H132999   3.227   2.953  11.451  2.1778  0.6861  2.4447
 3836TIP3    H233000   3.273   2.825  11.385 -2.6648  0.5728 -1.3662
 3837TIP3   OH233001   5.143   0.242   4.103 -0.1967 -0.1000  0.9138
 3837TIP3    H133002   5.081   0.306   4.137 -0.0604  1.6661 -1.8549
 3837TIP3    H233003   5.140   0.253   4.008  4.7657  0.6525  0.5357
 3838TIP3   OH233004   1.327   4.055   4.812 -0.3943 -0.4979 -0.4454
 3838TIP3    H133005   1.295   4.096   4.892  3.7056 -0.6964  1.5613
 3838TIP3    H233006   1.300   3.963   4.820 -2.3859  0.0197 -0.7644
 3839TIP3   OH233007   5.748   6.170   2.663 -0.0139 -0.6715 -0.5168
 3839TIP3    H133008   5.746   6.117   2.583 -0.5964 -0.8361 -0.3901
 3839TIP3    H233009   5.831   6.218   2.657  0.1930 -1.0808 -0.9622
 3840TIP3   OH233010   4.995   6.323   1.027 -0.0207  0.0121 -0.9556
 3840TIP3    H133011   5.070   6.271   0.996  1.6592  1.2294  0.8596
 3840TIP3    H233012   4.970   6.283   1.110  0.3162  1.1680 -0.2797
 3841TIP3   OH233013   1.155   4.169  14.285  0.4396  0.0109 -0.0763
 3841TIP3    H133014   1.181   4.260  14.271 -0.2438  0.2772  0.3512
 3841TIP3    H233015   1.231   4.118  14.258  0.9857  0.7260  0.0862
 3842TIP3   OH233016   6.153   0.335   2.422 -0.0842  0.4502 -0.0716
 3842TIP3    H133017   6.099   0.294   2.355 -0.2612  1.3203 -0.4802
 3842TIP3    H233018   6.241   0.337   2.384 -0.0460  0.3043  0.0106
 3843TIP3   OH233019   2.550   1.377  16.842  0.0102 -0.1179  0.4012
 3843TIP3    H133020   2.622   1.313  16.843  0.9167  0.8027 -1.2916
 3843TIP3    H233021   2.486   1.342  16.904  0.2822 -2.8793 -0.7290
 3844TIP3   OH233022   3.523   1.886  10.815 -0.2185 -0.2116  0.1636
 3844TIP3    H133023   3.451   1.940  10.849 -0.0384 -0.4357  0.9210
 3844TIP3    H233024   3.574   1.946  10.760 -0.8791 -0.0068 -0.2424
 3845TIP3   OH233025   4.757   3.981   4.105 -0.1232 -0.7109  0.1981
 3845TIP3    H133026   4.711   3.915   4.053 -0.0006 -2.7800  2.5558
 3845TIP3    H233027   4.850   3.962   4.090 -0.0790 -0.4166  0.0982
 3846TIP3   OH233028   3.863   1.627  15.752  0.0117  0.4906 -0.5823
 3846TIP3    H133029   3.815   1.606  15.673 -0.1511  1.9989 -0.9135
 3846TIP3    H233030   3.823   1.708  15.784  0.7067  0.4309  0.5008
 3847TIP3   OH233031   1.925   0.889   4.929 -0.5061 -0.3974  0.5894
 3847TIP3    H133032   1.844   0.865   4.974 -1.6568  0.6362 -0.8276
 3847TIP3    H233033   1.983   0.814   4.942 -0.9041 -0.3339  3.3720
 3848TIP3   OH233034   6.442   3.166  13.777 -0.1975  0.1344 -0.1154
 3848TIP3    H133035   6.486   3.204  13.701  0.5849 -0.6930 -0.0826
 3848TIP3    H233036   6.365   3.223  13.791 -0.8499 -0.2241 -2.0484
 3849TIP3   OH233037   2.491   5.415  15.809  0.1958 -0.0616  0.4018
 3849TIP3    H133038   2.442   5.430  15.890 -1.0219 -1.3780 -0.0511
 3849TIP3    H233039   2.465   5.488  15.752  0.0476  0.1544  0.7408
 3850TIP3   OH233040   1.042   1.010   1.500 -0.7458 -0.0768 -0.4938
 3850TIP3    H133041   1.025   0.955   1.576 -1.2155  1.2418  0.3886
 3850TIP3    H233042   1.063   1.096   1.537  1.6315 -0.0312 -1.7608
 3851TIP3   OH233043   3.207   0.246   5.085  0.2510 -0.2430  0.4758
 3851TIP3    H133044   3.224   0.332   5.045 -1.0211  0.1760  0.7644
 3851TIP3    H233045   3.171   0.193   5.014  1.3072 -0.6393  0.2282
 3852TIP3   OH233046   0.897   2.213   4.589 -0.6327 -0.0286 -0.2222
 3852TIP3    H133047   0.885   2.127   4.550 -0.4701 -0.6604  1.0495
 3852TIP3    H233048   0.922   2.195   4.680  0.3215  1.3504 -0.1766
 3853TIP3   OH233049   3.239   2.107   5.310  0.1876 -0.7731  0.3603
 3853TIP3    H133050   3.326   2.130   5.279  0.0610  0.2407  0.7284
 3853TIP3    H233051   3.202   2.189   5.343 -1.4286 -0.8569 -1.0334
 3854TIP3   OH233052   0.951   2.145  11.306  0.1896  0.1273 -0.1151
 3854TIP3    H133053   0.867   2.100  11.322 -0.3952  1.0719 -0.4678
 3854TIP3    H233054   0.931   2.209  11.238  0.5031  2.3577  1.7986
 3855TIP3   OH233055   5.846   3.166   0.827 -0.3593  0.0179  0.2845
 3855TIP3    H133056   5.934   3.160   0.863  0.3462  1.2694 -1.1031
 3855TIP3    H233057   5.853   3.130   0.739 -0.4584  2.7778 -0.9620
 3856TIP3   OH233058   4.492   1.137   0.947 -0.8700 -0.5809 -0.5101
 3856TIP3    H133059   4.473   1.194   0.872 -0.6230  1.8418  1.1555
 3856TIP3    H233060   4.465   1.188   1.023  0.0563 -2.4454  1.1511
 3857TIP3   OH233061   1.986   2.650   2.216  0.1431 -0.1987  0.3825
 3857TIP3    H133062   1.931   2.590   2.266  1.2849 -0.8172  0.9365
 3857TIP3    H233063   1.970   2.625   2.125  0.1132 -0.9307  0.5753
 3858TIP3   OH233064   5.982   4.593  13.127 -0.0568 -0.0296  0.4919
 3858TIP3    H133065   6.076   4.612  13.119 -0.2231  0.3391 -0.9237
 3858TIP3    H233066   5.965   4.527  13.061 -0.8298  0.0172  0.6359
 3859TIP3   OH233067   5.078   0.191   5.842 -0.3872 -0.1323  0.6822
 3859TIP3    H133068   5.042   0.278   5.824 -1.4606 -0.8526 -0.9333
 3859TIP3    H233069   5.031   0.133   5.781 -0.4428 -2.0141  2.4076
 3860TIP3   OH233070   0.084   0.045  12.072  0.4537  0.2968 -0.9222
 3860TIP3    H133071   0.116   0.093  11.995  0.0589 -0.8340 -1.8197
 3860TIP3    H233072   0.159  -0.010  12.098  0.6043  0.7147 -0.4492
 3861TIP3   OH233073   0.521   1.387  16.346 -0.2445 -0.4287 -0.3237
 3861TIP3    H133074   0.438   1.401  16.392 -0.3108  0.4273 -0.6959
 3861TIP3    H233075   0.583   1.364  16.415 -0.3533  0.8005  0.2087
 3862TIP3   OH233076   0.418   6.829   2.781  0.0607 -0.4312  0.2558
 3862TIP3    H133077   0.468   6.905   2.753  0.4681 -0.8466 -0.1833
 3862TIP3    H233078   0.420   6.770   2.705  0.2686 -1.1293  0.7952
 3863TIP3   OH233079   6.012   3.294  12.940  0.0411  0.0756 -0.8840
 3863TIP3    H133080   6.102   3.269  12.923  0.2757  1.1626 -1.3564
 3863TIP3    H233081   5.959   3.227  12.896  0.5322 -2.2540  1.8528
 3864TIP3   OH233082   5.938   5.966  16.601 -0.2023 -0.0931 -0.0560
 3864TIP3    H133083   5.912   6.019  16.677  0.0815  0.2102 -0.1680
 3864TIP3    H233084   6.028   5.941  16.618  0.2549  0.9641 -0.8318
 3865TIP3   OH233085   5.292   1.692   0.677  0.7383  0.1568  0.3941
 3865TIP3    H133086   5.316   1.607   0.715  0.7664 -0.0911 -0.1688
 3865TIP3    H233087   5.374   1.741   0.675  0.5092  0.6351  1.8008
 3866TIP3   OH233088   4.458   3.517   5.276  0.3833  0.0784 -0.2136
 3866TIP3    H133089   4.396   3.547   5.210  0.6522 -0.0720 -0.5340
 3866TIP3    H233090   4.458   3.587   5.342  0.8847  0.7267 -0.8752
 3867TIP3   OH233091   2.321   1.265  15.149  0.4770  0.6489 -0.1866
 3867TIP3    H133092   2.238   1.218  15.139 -0.4366  2.0918  0.1866
 3867TIP3    H233093   2.332   1.311  15.065  1.0615  0.2329 -0.3422
 3868TIP3   OH233094   3.221   4.332  12.300  0.2904  0.5494  0.2606
 3868TIP3    H133095   3.279   4.302  12.371  0.4548  0.3439  0.0388
 3868TIP3    H233096   3.273   4.321  12.221 -0.2163 -0.0526  0.0085
 3869TIP3   OH233097   2.658   3.747   1.831 -0.0108  0.0373  0.7466
 3869TIP3    H133098   2.663   3.653   1.845  0.1728 -0.0483  0.1195
 3869TIP3    H233099   2.589   3.759   1.766  0.3523  0.2861  0.4004
 3870TIP3   OH233100   6.547   2.701   4.815  0.1511  0.1070 -0.3402
 3870TIP3    H133101   6.565   2.629   4.754  0.0786  0.1527 -0.4162
 3870TIP3    H233102   6.459   2.731   4.791 -0.8651 -1.3973  1.2941
 3871TIP3   OH233103   1.372   0.341  17.198  0.0218 -0.2106 -0.1359
 3871TIP3    H133104   1.335   0.330  17.111 -0.2728  1.9148 -0.3353
 3871TIP3    H233105   1.443   0.404  17.186  0.1511 -0.0850  1.1270
 3872TIP3   OH233106   2.448   0.561  12.465 -0.3391 -0.2482  0.0408
 3872TIP3    H133107   2.501   0.530  12.539 -1.9548  0.2299  1.4540
 3872TIP3    H233108   2.451   0.489  12.402  1.4996 -0.4601  0.3104
 3873TIP3   OH233109   6.055   3.798  14.659  0.2680 -0.2602 -0.0724
 3873TIP3    H133110   6.117   3.765  14.724  0.6820 -1.5119 -1.0658
 3873TIP3    H233111   5.976   3.746  14.672  0.8963 -1.7072 -1.5892
 3874TIP3   OH233112   3.516   5.298  13.536  0.2501  0.1590 -0.5747
 3874TIP3    H133113   3.530   5.256  13.620  1.8904 -0.1759 -0.9763
 3874TIP3    H233114   3.442   5.253  13.498  0.5472 -0.8236 -0.0159
 3875TIP3   OH233115   6.161   2.545   4.391  0.0409 -0.1495  0.5631
 3875TIP3    H133116   6.119   2.486   4.328 -0.2852 -1.5247  2.0220
 3875TIP3    H233117   6.163   2.496   4.473 -0.5793  2.0152  1.9447
 3876TIP3   OH233118   5.196   1.042   2.241 -0.2418  0.3068 -0.2105
 3876TIP3    H133119   5.131   1.015   2.177  0.6084 -0.7950 -0.6525
 3876TIP3    H233120   5.155   1.027   2.326 -0.5272 -0.5079 -0.4841
 3877TIP3   OH233121   4.275   1.206  13.377 -0.1207  0.4660 -0.2147
 3877TIP3    H133122   4.292   1.218  13.470 -0.0793  0.6164 -0.2421
 3877TIP3    H233123   4.359   1.179  13.340 -0.1927  0.1746 -0.1663
 3878TIP3   OH233124   0.365   0.570   5.492  0.5037  0.2147 -0.4170
 3878TIP3    H133125   0.395   0.661   5.486  1.0352  0.2907  2.1521
 3878TIP3    H233126   0.445   0.518   5.487  0.2802 -0.0622 -1.1188
 3879TIP3   OH233127   3.584   0.376   0.354 -0.7949 -0.2555 -0.0883
 3879TIP3    H133128   3.544   0.292   0.380  0.6727 -0.8592  0.3086
 3879TIP3    H233129   3.573   0.378   0.259 -1.9057 -0.3194  0.0231
 3880TIP3   OH233130   1.530   3.571  15.112 -0.0090 -0.2203 -1.3052
 3880TIP3    H133131   1.447   3.608  15.083 -0.8920  0.4461  1.7080
 3880TIP3    H233132   1.592   3.644  15.109 -0.8987  0.7340  1.3608
 3881TIP3   OH233133   4.660   0.471   3.743  0.9559  0.5528 -0.7670
 3881TIP3    H133134   4.728   0.404   3.733  0.6110 -0.2483  1.6107
 3881TIP3    H233135   4.579   0.427   3.717  0.8323  0.2460  0.1018
 3882TIP3   OH233136   4.114   1.452   0.082  0.1117  0.0386  0.2085
 3882TIP3    H133137   4.118   1.420   0.172 -1.1392  1.4975  0.8222
 3882TIP3    H233138   4.133   1.546   0.089  1.2293 -0.0538 -1.2151
 3883TIP3   OH233139   3.071   0.463  16.921  0.0293  0.0551 -0.6019
 3883TIP3    H133140   3.059   0.499  17.008 -0.3020  0.2148 -0.7130
 3883TIP3    H233141   3.029   0.526  16.862 -0.6892 -0.5749 -0.7826
 3884TIP3   OH233142   3.622   1.131   3.112  0.3123  0.3168 -0.2135
 3884TIP3    H133143   3.561   1.069   3.151 -1.5056  1.5196 -1.0388
 3884TIP3    H233144   3.604   1.127   3.018  2.9466 -0.7608 -0.7803
 3885TIP3   OH233145   2.273   5.103  15.186  0.0175  0.0476 -0.0789
 3885TIP3    H133146   2.285   5.028  15.244  1.9134  1.4702  1.4930
 3885TIP3    H233147   2.178   5.115  15.182 -0.4544 -3.0793 -1.3493
 3886TIP3   OH233148   3.757   3.927   0.510 -0.3408  0.0127 -0.3643
 3886TIP3    H133149   3.690   3.959   0.571 -1.2470 -0.7650 -0.9274
 3886TIP3    H233150   3.709   3.909   0.429  0.6792  0.0928 -1.0019
 3887TIP3   OH233151   5.150   2.676   4.239 -0.0208  0.2990 -0.0474
 3887TIP3    H133152   5.182   2.718   4.319 -0.9322 -0.3315  0.6648
 3887TIP3    H233153   5.116   2.749   4.186  0.3676  0.6941  0.2411
 3888TIP3   OH233154   6.138   3.157  17.077  0.1295 -0.0855  0.1832
 3888TIP3    H133155   6.092   3.239  17.058 -0.8985 -0.6244  0.2813
 3888TIP3    H233156   6.183   3.174  17.160  0.0226  0.4166  0.1403
 3889TIP3   OH233157   3.551   0.006   6.401 -0.2670  0.1483  0.4208
 3889TIP3    H133158   3.603  -0.051   6.457  0.4431  3.5212  3.6259
 3889TIP3    H233159   3.460  -0.019   6.420  0.0215 -0.4461  1.0663
 3890TIP3   OH233160   4.453   6.319   6.019  0.2072 -0.5481  0.2843
 3890TIP3    H133161   4.528   6.334   5.961  1.1358  0.3753  1.6632
 3890TIP3    H233162   4.471   6.234   6.059  0.3065 -0.5152  0.3104
 3891TIP3   OH233163   6.006   2.096   1.275 -0.0691  0.2327  0.3018
 3891TIP3    H133164   5.939   2.084   1.207  1.0113 -0.1800 -0.7376
 3891TIP3    H233165   6.087   2.067   1.233  0.3693 -1.8086  2.3903
 3892TIP3   OH233166   6.326   0.755   2.740 -0.1973 -0.0392  0.3150
 3892TIP3    H133167   6.382   0.790   2.809  1.9733 -0.8395 -0.9277
 3892TIP3    H233168   6.237   0.763   2.774  0.6503  1.2927  2.3971
 3893TIP3   OH233169   1.578   2.969   0.943  0.1802 -0.5742 -0.2412
 3893TIP3    H133170   1.644   2.979   0.874  0.5951  1.5020  0.3984
 3893TIP3    H233171   1.615   2.905   1.003  2.3770  1.5849  0.8721
 3894TIP3   OH233172   5.349   5.685   0.902 -0.6941  0.1638 -0.3350
 3894TIP3    H133173   5.390   5.667   0.817  0.7448  0.3620  0.2923
 3894TIP3    H233174   5.315   5.601   0.930 -1.3258  0.1280 -1.1816
 3895TIP3   OH233175   1.770   0.262  13.017  0.4131  0.0402 -0.6075
 3895TIP3    H133176   1.807   0.263  13.105 -1.2731  0.3452  0.1477
 3895TIP3    H233177   1.747   0.170  13.002  1.3215 -0.1242 -1.0143
 3896TIP3   OH233178   5.493   5.224   4.203 -0.3262  0.5059 -0.0221
 3896TIP3    H133179   5.447   5.155   4.251 -0.5423 -0.5253 -1.6369
 3896TIP3    H233180   5.443   5.304   4.221 -0.9805 -0.0459  0.6438
 3897TIP3   OH233181   1.861   0.044  17.157 -0.2489 -0.6185 -0.8711
 3897TIP3    H133182   1.776   0.078  17.185  0.0884  0.0133 -0.5805
 3897TIP3    H233183   1.863   0.060  17.062  0.0585  0.5623 -0.6859
 3898TIP3   OH233184   3.433   5.499  11.547 -0.3342  0.1423 -0.5311
 3898TIP3    H133185   3.493   5.550  11.601 -0.1523 -1.0082  0.3849
 3898TIP3    H233186   3.450   5.408  11.571 -2.2114 -0.2292 -0.5074
 3899TIP3   OH233187   3.552   4.799  11.828 -0.4394  0.1201  0.4313
 3899TIP3    H133188   3.615   4.860  11.789 -0.9525  0.9832  0.9117
 3899TIP3    H233189   3.543   4.829  11.919 -1.0877 -0.3670  0.5348
 3900TIP3   OH233190   6.827   2.858  11.368 -0.2873 -0.7420 -0.1179
 3900TIP3    H133191   6.773   2.875  11.446  2.7664 -0.7541  2.1526
 3900TIP3    H233192   6.865   2.943  11.346  0.2942 -1.0863 -0.4787
 3901TIP3   OH233193   0.077   2.361  11.125  0.0802 -0.6868  0.0082
 3901TIP3    H133194   0.157   2.313  11.101  0.7072  0.8552 -1.2294
 3901TIP3    H233195   0.053   2.327  11.211  0.9453 -2.5882 -0.4464
 3902TIP3   OH233196   4.890   5.201  15.977 -0.0344 -0.7005  0.6610
 3902TIP3    H133197   4.863   5.265  16.043  0.6388  0.4763 -0.1514
 3902TIP3    H233198   4.978   5.175  16.004  0.5773  0.4108 -0.1828
 3903TIP3   OH233199   3.309   2.577  12.791 -0.4348 -0.6946  0.5751
 3903TIP3    H133200   3.277   2.596  12.879  0.3529  1.2534  0.4889
 3903TIP3    H233201   3.405   2.577  12.799 -0.3503 -0.3652 -0.3077
 3904TIP3   OH233202   0.457   4.058   0.904 -0.3765  0.0564  0.0834
 3904TIP3    H133203   0.404   4.046   0.826  0.7815  0.7165 -0.8328
 3904TIP3    H233204   0.538   4.010   0.886 -0.8010 -1.3461  1.6517
 3905TIP3   OH233205   1.438   0.558  11.758 -0.0978  0.6182  0.7554
 3905TIP3    H133206   1.430   0.492  11.689 -0.1834  1.9511 -0.5735
 3905TIP3    H233207   1.501   0.521  11.820 -1.9412 -1.7309  1.3396
 3906TIP3   OH233208   6.463   4.419   1.068 -0.6388 -0.4029  0.7232
 3906TIP3    H133209   6.487   4.496   1.119  0.1822  0.4857 -0.9282
 3906TIP3    H233210   6.534   4.356   1.085  0.7538  0.6620 -0.8672
 3907TIP3   OH233211   1.823   5.278   1.682  0.4655  0.1568 -0.1915
 3907TIP3    H133212   1.888   5.330   1.728 -0.8508  0.2427  1.6817
 3907TIP3    H233213   1.740   5.324   1.696 -0.5722 -1.8356  0.6466
 3908TIP3   OH233214   0.726   1.594  15.495  0.2761  0.5573 -0.0617
 3908TIP3    H133215   0.737   1.516  15.550 -1.1906  0.3801  0.0404
 3908TIP3    H233216   0.681   1.656  15.552  0.0882  0.9209 -0.5997
 3909TIP3   OH233217   3.682   0.252   4.278 -0.3351  0.0441 -0.3791
 3909TIP3    H133218   3.769   0.225   4.308 -1.1386 -0.5952  1.5261
 3909TIP3    H233219   3.641   0.171   4.247 -1.5269 -0.4088  2.1716
 3910TIP3   OH233220   4.166   4.118   0.857  0.6545  0.4096 -0.7763
 3910TIP3    H133221   4.109   4.141   0.930  0.0441  0.8100 -1.3682
 3910TIP3    H233222   4.220   4.047   0.890 -0.2313 -0.0195 -0.2206
 3911TIP3   OH233223   4.025   0.938  13.486 -0.4416  0.7797  0.0296
 3911TIP3    H133224   4.051   0.968  13.573  0.1404  0.6213 -0.0818
 3911TIP3    H233225   4.063   0.850  13.478  1.5125  1.6525 -1.2313
 3912TIP3   OH233226   6.298   3.493   0.080  0.5806  0.0613  0.0620
 3912TIP3    H133227   6.375   3.511   0.134  0.0576  0.9017  0.5541
 3912TIP3    H233228   6.308   3.549   0.003  0.8860 -0.4813 -0.3020
 3913TIP3   OH233229   6.441   6.015   6.188 -0.0252 -0.1118  0.3250
 3913TIP3    H133230   6.477   5.928   6.206 -0.7452 -0.7294 -1.1001
 3913TIP3    H233231   6.513   6.075   6.207 -0.2752 -0.7131  3.9849
 3914TIP3   OH233232   1.550   0.509   5.353  0.6270 -0.3821 -0.1152
 3914TIP3    H133233   1.496   0.541   5.425  0.1939  0.3506 -0.7368
 3914TIP3    H233234   1.556   0.415   5.366 -1.6372 -0.6507 -0.5389
 3915TIP3   OH233235   6.339   0.399   1.914 -1.0916 -0.3266 -1.1383
 3915TIP3    H133236   6.346   0.494   1.923 -0.9284 -0.3688 -0.7576
 3915TIP3    H233237   6.280   0.373   1.985  0.8599 -0.7653  0.4472
 3916TIP3   OH233238   5.645   0.284  11.108 -0.0325 -0.3451 -0.4295
 3916TIP3    H133239   5.649   0.276  11.013 -0.5845  0.6672 -0.5511
 3916TIP3    H233240   5.555   0.310  11.127 -0.4195 -2.2231  0.5276
 3917TIP3   OH233241   4.753   4.627   6.656  0.3101 -0.0344  0.0811
 3917TIP3    H133242   4.847   4.625   6.638  0.1977  1.3151 -0.7799
 3917TIP3    H233243   4.726   4.716   6.636 -1.6965 -1.0970 -2.6896
 3918TIP3   OH233244   5.355   0.158  14.472 -0.1722  0.3723 -0.1267
 3918TIP3    H133245   5.353   0.176  14.378  0.2927  1.4284  0.0417
 3918TIP3    H233246   5.300   0.227  14.510 -0.3726 -0.0624  0.3750
 3919TIP3   OH233247   3.754   4.477   1.691 -0.1116  0.0411 -0.2440
 3919TIP3    H133248   3.722   4.403   1.639 -1.3903  0.1180  0.3946
 3919TIP3    H233249   3.820   4.440   1.748 -0.6062 -0.5786 -0.0636
 3920TIP3   OH233250   3.352   6.642   1.609  0.1912 -0.0537  0.0548
 3920TIP3    H133251   3.324   6.719   1.559  1.7479  1.7102  1.7638
 3920TIP3    H233252   3.280   6.580   1.599 -1.2986  1.7567 -1.0709
 3921TIP3   OH233253   6.053   0.760  17.132 -0.0966 -0.6491  0.3337
 3921TIP3    H133254   6.057   0.703  17.209  2.9869 -1.9179 -0.6128
 3921TIP3    H233255   6.110   0.834  17.154  1.1916 -1.2560 -0.8295
 3922TIP3   OH233256   0.491   3.794   1.494 -0.4016 -0.3337  0.4668
 3922TIP3    H133257   0.523   3.792   1.584  0.0175 -1.7945  0.3066
 3922TIP3    H233258   0.397   3.784   1.502 -0.4808  0.5226  0.7703
 3923TIP3   OH233259   4.074   0.476   0.073  0.5704  0.0404  0.1097
 3923TIP3    H133260   4.020   0.473   0.152  1.0617  0.5800  0.4805
 3923TIP3    H233261   4.122   0.393   0.073  0.4197 -0.0456  0.2723
 3924TIP3   OH233262   3.386   6.316   4.701 -0.0660  0.0836 -0.6841
 3924TIP3    H133263   3.432   6.232   4.714  0.6501  0.6416  0.6906
 3924TIP3    H233264   3.346   6.334   4.786  1.7809  2.2500 -0.1497
 3925TIP3   OH233265   3.432   3.955   4.709 -1.0578  0.3454 -0.1240
 3925TIP3    H133266   3.374   4.009   4.656  0.2495  0.5788 -1.3930
 3925TIP3    H233267   3.490   3.913   4.646 -0.4352 -0.5901  1.0270
 3926TIP3   OH233268   6.486   1.216  12.452 -0.3242 -0.0017  0.4452
 3926TIP3    H133269   6.506   1.135  12.500  1.1734  0.7994  1.2599
 3926TIP3    H233270   6.498   1.194  12.360  0.6023 -0.5888  0.6944
 3927TIP3   OH233271   1.914   6.523   3.696  0.1760  0.0999 -0.0806
 3927TIP3    H133272   1.883   6.545   3.608  1.2201 -2.1335 -1.0709
 3927TIP3    H233273   1.835   6.521   3.750 -0.4001  2.2334 -0.7397
 3928TIP3   OH233274   5.006   6.598  14.605 -0.2545  0.3878  0.5027
 3928TIP3    H133275   5.092   6.569  14.574 -0.0190  1.1236  0.4537
 3928TIP3    H233276   4.944   6.556  14.546  0.0720 -0.1325  0.5253
 3929TIP3   OH233277   5.575   1.646  14.101  0.3253  0.1474 -0.1445
 3929TIP3    H133278   5.630   1.573  14.129 -0.7033 -0.2454  0.9314
 3929TIP3    H233279   5.633   1.702  14.049  0.9124 -1.8851 -1.7948
 3930TIP3   OH233280   5.433   0.138   1.936 -0.5230 -0.3332 -0.1492
 3930TIP3    H133281   5.452   0.212   1.995 -2.1613  0.1062 -0.1157
 3930TIP3    H233282   5.505   0.138   1.874  0.6392 -0.0749  1.1539
 3931TIP3   OH233283   2.280   5.639  15.718 -0.5769 -0.9696 -0.4312
 3931TIP3    H133284   2.257   5.572  15.655 -0.0211 -0.2898 -1.3943
 3931TIP3    H233285   2.314   5.711  15.664  1.5427 -1.0296  0.7153
 3932TIP3   OH233286   3.261   4.004  13.920 -0.1003  0.7479  0.7767
 3932TIP3    H133287   3.229   3.946  13.989 -0.7443  3.4875  2.9727
 3932TIP3    H233288   3.184   4.022  13.866 -0.5848  1.6664  1.7428
 3933TIP3   OH233289   5.805   5.839   1.227 -0.1214 -0.1269 -0.1757
 3933TIP3    H133290   5.832   5.930   1.217  1.3592 -0.4025  0.9171
 3933TIP3    H233291   5.748   5.822   1.152 -0.3644  1.6675 -0.4332
 3934TIP3   OH233292   6.186   2.065   3.529  0.7048  0.2090  0.1585
 3934TIP3    H133293   6.125   2.121   3.578 -0.9802 -1.2638 -0.1399
 3934TIP3    H233294   6.180   1.980   3.572 -0.5405 -1.0344 -2.2508
 3935TIP3   OH233295   4.249   6.660   4.712 -0.3763 -0.3807  0.7713
 3935TIP3    H133296   4.214   6.663   4.801 -1.1573 -0.7931  0.4927
 3935TIP3    H233297   4.335   6.619   4.721  0.3228  1.1960  1.5470
 3936TIP3   OH233298   2.722   6.815   0.135 -0.0786  0.1362  0.0797
 3936TIP3    H133299   2.812   6.848   0.140  0.0359  0.3442 -2.1081
 3936TIP3    H233300   2.677   6.878   0.079 -0.8031 -1.5016 -1.2649
 3937TIP3   OH233301   3.311   4.656  15.142 -0.1072 -0.0877 -0.2941
 3937TIP3    H133302   3.337   4.730  15.197 -1.3117  0.7092 -0.7606
 3937TIP3    H233303   3.372   4.586  15.166  0.8000  0.9209  0.4505
 3938TIP3   OH233304   0.929   0.584  15.582 -0.5572 -0.8510  0.0989
 3938TIP3    H133305   0.866   0.522  15.545 -0.8542 -0.3563 -0.2405
 3938TIP3    H233306   1.005   0.579  15.525 -1.3227  0.5089 -1.1082
 3939TIP3   OH233307   1.538   6.003   4.625 -0.2759 -0.1461 -0.5851
 3939TIP3    H133308   1.586   6.076   4.662 -0.6534 -0.5324  0.7210
 3939TIP3    H233309   1.519   6.029   4.535 -1.0860  1.7099  0.0812
 3940TIP3   OH233310   3.103   5.102  14.011 -0.4265 -0.9586 -0.4079
 3940TIP3    H133311   3.147   5.157  14.076  0.4130 -2.7330  0.6195
 3940TIP3    H233312   3.026   5.069  14.056 -0.0642 -1.8691 -0.4260
 3941TIP3   OH233313   2.187   3.247   4.370  0.2517 -0.0639  0.2719
 3941TIP3    H133314   2.192   3.342   4.372 -1.7668  0.0605  1.3362
 3941TIP3    H233315   2.182   3.225   4.277  2.6882  0.6663 -0.1144
 3942TIP3   OH233316   1.458   5.520   5.406 -0.0395 -0.3641  0.0639
 3942TIP3    H133317   1.429   5.452   5.345  1.9849 -2.0534  0.8589
 3942TIP3    H233318   1.553   5.515   5.404  0.1178 -0.1253  2.8962
 3943TIP3   OH233319   1.432   5.099   3.497 -0.1196 -0.0110 -0.1967
 3943TIP3    H133320   1.415   5.141   3.413 -0.2239  0.9254  0.2773
 3943TIP3    H233321   1.377   5.021   3.496 -0.1940  0.0428 -0.9575
 3944TIP3   OH233322   2.681   0.234  12.798 -0.0877 -0.2599  0.3545
 3944TIP3    H133323   2.632   0.210  12.877  0.0153  1.1693  0.8790
 3944TIP3    H233324   2.685   0.153  12.748 -1.5115 -0.8371  1.0887
 3945TIP3   OH233325   6.291   1.622   2.862  0.3704 -0.7149  0.0450
 3945TIP3    H133326   6.337   1.684   2.919  1.9936  1.7716 -3.5728
 3945TIP3    H233327   6.233   1.676   2.809 -1.7680 -2.9978 -0.1092
 3946TIP3   OH233328   2.489   1.434   2.954  0.1979 -0.3124 -0.0435
 3946TIP3    H133329   2.555   1.365   2.947 -0.1222 -0.7099  0.7762
 3946TIP3    H233330   2.510   1.494   2.882 -0.5946 -2.1590 -1.9138
 3947TIP3   OH233331   5.690   3.993   0.476 -0.0381  0.3653  0.3823
 3947TIP3    H133332   5.678   4.036   0.391 -2.0914  0.8847  0.8874
 3947TIP3    H233333   5.762   3.931   0.461 -1.1722 -0.4825 -2.1082
 3948TIP3   OH233334   2.383   4.712  16.024 -0.2336  0.4839 -0.2173
 3948TIP3    H133335   2.306   4.737  16.074  0.7048  0.6804  1.1770
 3948TIP3    H233336   2.404   4.790  15.972  0.8732  1.6348  1.8201
 3949TIP3   OH233337   1.457   3.944  15.184 -0.5218 -0.9063 -0.1139
 3949TIP3    H133338   1.422   3.891  15.113 -1.5536 -0.5640  0.1128
 3949TIP3    H233339   1.439   3.893  15.264  0.2726 -1.1086 -0.0507
 3950TIP3   OH233340   5.557   2.557   6.525  0.3018  0.4377  0.3871
 3950TIP3    H133341   5.563   2.594   6.437 -0.8404  1.0635  0.5398
 3950TIP3    H233342   5.599   2.472   6.519 -1.2137 -0.2605 -1.2110
 3951TIP3   OH233343   3.260   5.747  16.923  0.4561  0.0416  0.5702
 3951TIP3    H133344   3.191   5.778  16.983 -0.3147  0.6416 -0.5738
 3951TIP3    H233345   3.286   5.825  16.875  0.8679 -0.4721 -0.0554
 3952TIP3   OH233346   0.149   2.379  15.627 -0.3129  0.0158 -0.1630
 3952TIP3    H133347   0.240   2.389  15.598 -0.1955 -0.1718  0.1368
 3952TIP3    H233348   0.153   2.386  15.722 -0.7453  0.9837 -0.2009
 3953TIP3   OH233349   0.934   0.013  15.391 -0.5651 -0.1303  0.2873
 3953TIP3    H133350   0.993  -0.062  15.386  0.2632  0.5013  0.2807
 3953TIP3    H233351   0.871  -0.001  15.321  0.7749  0.1638 -1.0303
 3954TIP3   OH233352   6.728   1.469  14.866 -0.3841 -0.2758  0.1969
 3954TIP3    H133353   6.777   1.501  14.791 -0.8641  0.2401  0.0935
 3954TIP3    H233354   6.764   1.518  14.941 -0.1650 -0.5124  0.2459
 3955TIP3   OH233355   5.602   2.426  16.768  0.3309  0.5207 -0.0011
 3955TIP3    H133356   5.548   2.371  16.710  1.8500  0.0800 -1.0530
 3955TIP3    H233357   5.541   2.456  16.836 -1.0170 -0.7412 -0.5956
 3956TIP3   OH233358   5.198   3.720   5.747 -0.1050 -0.4556 -0.2817
 3956TIP3    H133359   5.267   3.737   5.812  0.0339  0.8495 -0.7388
 3956TIP3    H233360   5.116   3.736   5.794 -0.0432 -0.5015 -0.1585
 3957TIP3   OH233361   1.248   4.429  11.678 -0.2729  0.0394 -0.1803
 3957TIP3    H133362   1.218   4.387  11.597 -1.2068  2.4790 -1.1784
 3957TIP3    H233363   1.204   4.514  11.680  1.5231  1.0332  1.7081
 3958TIP3   OH233364   3.987   3.416   1.786  0.1922  0.0997 -0.2998
 3958TIP3    H133365   4.037   3.352   1.735  1.6494  1.0742 -0.1211
 3958TIP3    H233366   3.911   3.366   1.817  2.2162 -2.1688  1.4714
 3959TIP3   OH233367   6.699   1.545  14.267 -0.0402  0.1657  0.2335
 3959TIP3    H133368   6.690   1.569  14.175  2.5130 -0.3508 -0.2117
 3959TIP3    H233369   6.670   1.454  14.271 -0.8974  0.4280  0.1114
 3960TIP3   OH233370   1.082   2.946   4.370 -0.2646  0.1792  0.1536
 3960TIP3    H133371   1.162   2.917   4.414  0.3281  0.3872 -0.7726
 3960TIP3    H233372   1.030   2.867   4.359  0.0972 -0.0632  0.1710
 3961TIP3   OH233373   3.999   2.828   2.489 -0.3744 -0.3822  0.7509
 3961TIP3    H133374   3.927   2.857   2.433  0.8505  0.2900 -0.5455
 3961TIP3    H233375   3.957   2.778   2.559 -1.9514 -2.0073 -1.2102
 3962TIP3   OH233376   4.947   2.528  13.717 -0.0645 -0.2125  0.3597
 3962TIP3    H133377   4.859   2.527  13.756 -0.8304  1.5955 -1.1348
 3962TIP3    H233378   4.936   2.485  13.632  0.0496  1.4106 -0.5345
 3963TIP3   OH233379   1.048   6.398  11.530  0.3370  0.5354 -0.3041
 3963TIP3    H133380   1.010   6.418  11.616  0.7664 -0.9664  0.2521
 3963TIP3    H233381   1.095   6.479  11.506 -2.1591  2.0176 -0.4889
 3964TIP3   OH233382   3.283   2.034  16.449 -0.0645 -0.2498  0.6706
 3964TIP3    H133383   3.338   1.959  16.473 -0.0764 -0.3393  0.4158
 3964TIP3    H233384   3.222   2.000  16.384 -1.4030 -0.5278  2.0059
 3965TIP3   OH233385   3.549   1.265   4.921  0.2695 -0.6078 -0.1449
 3965TIP3    H133386   3.643   1.248   4.911  0.6506  0.8422  0.7723
 3965TIP3    H233387   3.527   1.233   5.008 -0.5752 -2.7884 -1.0778
 3966TIP3   OH233388   1.613   6.668   5.338  0.0322  0.3372 -0.3449
 3966TIP3    H133389   1.639   6.732   5.405  0.1556  0.7172 -0.7435
 3966TIP3    H233390   1.688   6.609   5.331 -0.5321 -0.5428  0.8280
 3967TIP3   OH233391   4.383   4.265  16.636  0.2605 -0.3524  0.1526
 3967TIP3    H133392   4.311   4.251  16.575 -1.4205  0.3239  1.8470
 3967TIP3    H233393   4.448   4.315  16.587 -0.8720 -0.1039 -1.1490
 3968TIP3   OH233394   3.668   3.598   2.227 -0.0861 -0.1844  0.3171
 3968TIP3    H133395   3.667   3.691   2.252  2.5111 -0.4916  1.8904
 3968TIP3    H233396   3.741   3.591   2.165 -0.4825 -1.1519 -0.0643
 3969TIP3   OH233397   0.051   2.641  14.626 -0.1217 -0.4807  0.0421
 3969TIP3    H133398  -0.003   2.669  14.700  1.5037  0.6010  0.8807
 3969TIP3    H233399   0.067   2.548  14.642 -0.5011 -0.4600  0.5887
 3970TIP3   OH233400   1.555   3.248  10.838 -0.0871  0.1375  0.6959
 3970TIP3    H133401   1.470   3.216  10.870  0.3270 -0.0956  1.6075
 3970TIP3    H233402   1.539   3.272  10.747 -0.8280 -1.1087  0.4727
 3971TIP3   OH233403   1.487   5.647   3.542  0.1724 -0.7139  0.1443
 3971TIP3    H133404   1.440   5.690   3.472 -1.5672 -0.8329  1.1902
 3971TIP3    H233405   1.526   5.719   3.592  1.6877 -0.6411 -1.0577
 3972TIP3   OH233406   5.676   3.068  15.805 -0.2937 -0.3722 -0.5400
 3972TIP3    H133407   5.603   3.041  15.750  1.3945  0.1311 -3.1943
 3972TIP3    H233408   5.645   3.147  15.849 -2.6931 -2.3540  1.6335
 3973TIP3   OH233409   5.373   6.606   2.274 -0.0983  0.2263  0.4576
 3973TIP3    H133410   5.394   6.647   2.190 -1.0109 -0.8188 -0.3136
 3973TIP3    H233411   5.398   6.514   2.263 -0.8194 -0.0595  1.0960
 3974TIP3   OH233412   2.688   2.320   6.223 -0.1530 -0.1639 -0.5206
 3974TIP3    H133413   2.686   2.256   6.294  0.4539  0.3799 -0.0075
 3974TIP3    H233414   2.659   2.402   6.263  1.9362  0.5874 -0.4113
 3975TIP3   OH233415   2.775   2.320   3.636 -0.2195  0.0779 -0.4266
 3975TIP3    H133416   2.698   2.270   3.611 -0.4229 -0.7019  1.5658
 3975TIP3    H233417   2.740   2.402   3.672 -0.1451 -0.2293  0.3763
 3976TIP3   OH233418   3.205   1.582  11.703  0.0872 -0.2174  0.1460
 3976TIP3    H133419   3.182   1.666  11.743  1.2039  0.6562 -0.9760
 3976TIP3    H233420   3.136   1.567  11.637 -0.3248 -0.3859  0.6101
 3977TIP3   OH233421   0.823   1.757  10.871  0.4839 -0.1693  0.0903
 3977TIP3    H133422   0.885   1.830  10.880 -0.6575  0.9738 -0.9280
 3977TIP3    H233423   0.869   1.694  10.816  1.0569  0.2777  0.0366
 3978TIP3   OH233424   4.971   5.518   3.969  0.0330  0.8357 -0.0317
 3978TIP3    H133425   4.950   5.448   4.030 -0.1654 -0.4990 -1.5797
 3978TIP3    H233426   5.067   5.524   3.970  0.0195  0.9945  0.5755
 3979TIP3   OH233427   5.781   0.168  10.802 -0.4742  0.1708  0.3407
 3979TIP3    H133428   5.754   0.107  10.871  0.4752 -1.2966 -0.5462
 3979TIP3    H233429   5.844   0.119  10.749  0.2827  1.9085 -0.4493
 3980TIP3   OH233430   1.868   0.264  14.793 -0.2467 -0.2004  0.0524
 3980TIP3    H133431   1.862   0.359  14.779  1.3862 -0.1672 -0.6473
 3980TIP3    H233432   1.781   0.231  14.772 -1.4804  1.3471  2.2800
 3981TIP3   OH233433   5.370   4.276  12.693  0.1889 -0.6030 -0.1020
 3981TIP3    H133434   5.357   4.204  12.632 -0.8242 -0.9729  0.5209
 3981TIP3    H233435   5.465   4.286  12.698  0.2883 -0.6833 -1.5726
 3982TIP3   OH233436   5.149   4.061   1.459 -0.3728 -0.3117  0.2241
 3982TIP3    H133437   5.136   4.058   1.364  0.3358 -1.8245  0.1513
 3982TIP3    H233438   5.178   4.151   1.476 -0.9315  0.1193 -0.9115
 3983TIP3   OH233439   4.075   2.160  11.318  0.4309 -0.1752 -0.2168
 3983TIP3    H133440   3.980   2.158  11.306  0.5366 -0.6532 -1.0024
 3983TIP3    H233441   4.089   2.234  11.378 -0.4365 -0.1568 -0.0125
 3984TIP3   OH233442   2.701   5.395   2.039 -0.2816 -0.1067 -1.1824
 3984TIP3    H133443   2.675   5.303   2.041 -2.7067  0.4720 -2.2177
 3984TIP3    H233444   2.630   5.440   2.084  0.2789  1.3807 -1.7363
 3985TIP3   OH233445   5.412   2.009   0.954  0.5089 -0.8413  0.1794
 3985TIP3    H133446   5.456   2.023   0.870  0.9477 -0.6775  0.4376
 3985TIP3    H233447   5.479   2.027   1.020  0.1815 -1.0280  0.5653
 3986TIP3   OH233448   3.624   2.630   2.180 -0.1966 -0.1788 -0.3467
 3986TIP3    H133449   3.680   2.628   2.102  1.4403 -1.3119  0.7969
 3986TIP3    H233450   3.625   2.721   2.208  0.1430  0.0248 -1.0082
 3987TIP3   OH233451   5.660   0.146  14.296  0.1595 -0.0006  0.5970
 3987TIP3    H133452   5.668   0.092  14.217  0.7832 -1.0107  1.3251
 3987TIP3    H233453   5.740   0.198  14.297  0.2670 -0.1684  0.6964
 3988TIP3   OH233454   3.446   6.135  17.119  0.1031 -0.1825 -0.2128
 3988TIP3    H133455   3.474   6.223  17.096  0.1589  0.0783  0.8022
 3988TIP3    H233456   3.502   6.077  17.067  1.3076  0.3553  0.4481
 3989TIP3   OH233457   1.913   2.039   1.321  0.3279 -0.2232 -0.2398
 3989TIP3    H133458   1.992   1.990   1.298  1.4800  0.4760  1.9163
 3989TIP3    H233459   1.850   1.973   1.348  0.5807 -0.7265 -0.8649
 3990TIP3   OH233460   5.593   1.814  10.667  0.0402 -0.1883  0.6955
 3990TIP3    H133461   5.568   1.768  10.587 -1.0934  1.6897 -0.1088
 3990TIP3    H233462   5.513   1.816  10.720  0.5802 -0.7434  1.5636
 3991TIP3   OH233463   1.288   0.127  11.673 -0.3397 -0.0507  0.6720
 3991TIP3    H133464   1.271   0.198  11.735 -1.9138  1.4336 -1.3090
 3991TIP3    H233465   1.205   0.079  11.668 -0.8403  0.9227 -1.4865
 3992TIP3   OH233466   0.873   1.826  11.585 -0.4965 -0.2301  0.1608
 3992TIP3    H133467   0.853   1.811  11.677 -1.5699  1.2748  0.2040
 3992TIP3    H233468   0.964   1.798  11.576 -0.7185 -1.4487  1.4094
 3993TIP3   OH233469   5.970   5.220   2.521 -0.3685  1.1985  0.2968
 3993TIP3    H133470   5.963   5.315   2.507 -0.1527  1.0731 -0.7594
 3993TIP3    H233471   5.937   5.182   2.440 -0.3457  0.3597  0.6708
 3994TIP3   OH233472   3.042   4.498   2.451 -0.2346 -0.5707  0.4956
 3994TIP3    H133473   3.049   4.465   2.362  0.6232 -0.9697  0.6974
 3994TIP3    H233474   3.054   4.593   2.443  0.4619 -0.6744  0.2485
 3995TIP3   OH233475   5.053   6.427  16.646  0.3620  0.0245 -0.4521
 3995TIP3    H133476   5.127   6.379  16.683  1.1276  1.6755  0.2821
 3995TIP3    H233477   5.089   6.471  16.569 -0.3600 -0.6317 -1.1918
 3996TIP3   OH233478   1.012   3.427   0.802  0.0824  0.1466 -0.7021
 3996TIP3    H133479   0.974   3.500   0.752 -2.6327 -1.9800 -2.0407
 3996TIP3    H233480   0.979   3.440   0.891  1.5265  1.7101 -0.3403
 3997TIP3   OH233481   2.572   3.441   2.872 -0.6725 -0.5833 -0.1651
 3997TIP3    H133482   2.485   3.437   2.833 -0.2947 -0.5704 -1.0398
 3997TIP3    H233483   2.604   3.351   2.868 -0.8971 -0.7235  0.7899
 3998TIP3   OH233484   4.852   1.905   2.629 -0.5059 -0.3406  0.8912
 3998TIP3    H133485   4.880   1.859   2.708  0.5538 -0.6303  0.3755
 3998TIP3    H233486   4.929   1.903   2.572 -1.3040 -0.3263 -0.2325
 3999TIP3   OH233487   6.318   4.731  12.533  0.1207  0.0988  0.8149
 3999TIP3    H133488   6.340   4.672  12.460 -1.2138  0.8441 -0.2199
 3999TIP3    H233489   6.403   4.754  12.571  1.0669  1.4264 -1.8841
 4000TIP3   OH233490   4.695   4.476  12.275  0.3320 -0.1933  0.1085
 4000TIP3    H133491   4.751   4.524  12.214 -1.2394  1.0320 -0.4462
 4000TIP3    H233492   4.686   4.534  12.351  2.0314 -1.5771  1.4633
 4001TIP3   OH233493   3.300   0.049   4.241 -0.4266 -1.0332  0.2598
 4001TIP3    H133494   3.259   0.069   4.326 -0.3406  0.1069  0.0563
 4001TIP3    H233495   3.229   0.061   4.178  0.3041  1.7677 -0.1836
 4002TIP3   OH233496   0.973   2.823  10.713 -0.5897 -0.1151 -0.2904
 4002TIP3    H133497   0.879   2.833  10.729 -0.4601  0.5989  0.0782
 4002TIP3    H233498   0.980   2.812  10.619 -1.0386 -0.0048 -0.3416
 4003TIP3   OH233499   2.072   0.125   1.097  0.4192 -0.1657  0.2183
 4003TIP3    H133500   2.092   0.184   1.024 -3.4902  1.3667  0.1402
 4003TIP3    H233501   2.031   0.049   1.056  1.3805 -0.9320  0.6386
 4004TIP3   OH233502   5.891   2.363  12.862 -0.2597  0.1888 -0.1886
 4004TIP3    H133503   5.948   2.356  12.784 -0.5062  1.0422 -0.4598
 4004TIP3    H233504   5.816   2.307  12.842 -0.4740  0.6483 -0.7186
 4005TIP3   OH233505   5.859   4.190   5.552 -0.5278  0.1313  1.0533
 4005TIP3    H133506   5.801   4.258   5.586 -1.9544 -0.8255  0.6218
 4005TIP3    H233507   5.807   4.144   5.487  1.5245  0.7674 -1.1987
 4006TIP3   OH233508   2.581   2.558   0.373 -0.1794 -0.0483  0.0792
 4006TIP3    H133509   2.500   2.548   0.322  0.3585  0.4642 -0.8985
 4006TIP3    H233510   2.619   2.640   0.342  1.2779 -0.8264 -0.2928
 4007TIP3   OH233511   4.032   2.887  16.159 -0.4004 -0.2557 -0.1429
 4007TIP3    H133512   3.940   2.878  16.183 -0.0100  0.7363  1.9910
 4007TIP3    H233513   4.045   2.982  16.149  0.7974 -0.1767  1.6707
 4008TIP3   OH233514   4.379   6.122  14.353 -0.1719 -0.3596  0.2137
 4008TIP3    H133515   4.307   6.178  14.384 -0.9490 -1.0165 -0.3718
 4008TIP3    H233516   4.448   6.184  14.329 -0.4001  0.2671  1.1008
 4009TIP3   OH233517   4.184   5.075   0.408  0.0218 -0.4702  1.1064
 4009TIP3    H133518   4.156   5.141   0.471 -2.4997  0.9643 -1.2421
 4009TIP3    H233519   4.239   5.123   0.346  0.0141 -1.0839  0.6111
 4010TIP3   OH233520   4.933   0.690  11.403 -0.1811  0.2536  0.0305
 4010TIP3    H133521   5.016   0.644  11.409 -0.9600 -1.3806 -1.0223
 4010TIP3    H233522   4.878   0.652  11.471 -1.1577 -1.1791 -1.4833
 4011TIP3   OH233523   2.137   4.003   2.550 -0.4323  0.4345  0.0005
 4011TIP3    H133524   2.148   4.097   2.565  3.4049  0.3160 -0.9663
 4011TIP3    H233525   2.139   3.965   2.638  1.8690  1.0767  0.2942
 4012TIP3   OH233526   0.175   0.850   4.876 -0.1236  0.0414 -0.1740
 4012TIP3    H133527   0.247   0.793   4.850 -0.6449 -1.0608  0.6949
 4012TIP3    H233528   0.110   0.840   4.806 -0.2859 -0.5915  0.0608
 4013TIP3   OH233529   0.056   5.939  11.198 -0.2164  0.4917 -0.1845
 4013TIP3    H133530  -0.039   5.930  11.204 -0.3126  0.9980 -0.8642
 4013TIP3    H233531   0.071   6.032  11.214  0.2937  0.1818  1.3302
 4014TIP3   OH233532   3.536   6.624   1.802 -0.3280  0.0114  0.2014
 4014TIP3    H133533   3.497   6.701   1.844 -1.2116 -0.2093 -0.2123
 4014TIP3    H233534   3.471   6.595   1.739 -0.0666 -1.1751  0.4519
 4015TIP3   OH233535   2.877   1.159   1.973  0.5755 -0.2196 -0.3593
 4015TIP3    H133536   2.796   1.173   2.022 -1.2040 -0.9954 -2.9059
 4015TIP3    H233537   2.944   1.150   2.041 -1.1371  2.0146  1.8241
 4016TIP3   OH233538   4.523   2.871  11.846  0.7520  0.8329  0.4271
 4016TIP3    H133539   4.493   2.782  11.826  2.6127  0.1523  0.4036
 4016TIP3    H233540   4.446   2.915  11.881 -1.1384  0.2687 -2.6402
 4017TIP3   OH233541   0.041   0.021   4.481 -0.4413 -0.3831 -0.3806
 4017TIP3    H133542   0.112   0.084   4.486 -1.4334  0.6872  1.1064
 4017TIP3    H233543   0.006   0.031   4.392  0.2473  0.2158 -0.5864
 4018TIP3   OH233544   3.849   3.835  12.409 -0.3195  0.1840 -0.0951
 4018TIP3    H133545   3.891   3.831  12.495 -0.7134  2.0853  0.2345
 4018TIP3    H233546   3.916   3.802  12.349 -0.1107 -1.3632  0.9433
 4019TIP3   OH233547   4.551   4.417  11.476  0.1583 -0.0821 -0.1105
 4019TIP3    H133548   4.495   4.486  11.512 -1.6402 -1.8628  0.6917
 4019TIP3    H233549   4.630   4.420  11.529 -1.8593 -1.7102  3.3133
 4020TIP3   OH233550   2.947   2.121  15.099 -0.0477 -0.7412  0.0548
 4020TIP3    H133551   2.982   2.049  15.046 -2.5187 -1.4688 -0.7381
 4020TIP3    H233552   2.963   2.095  15.189 -0.0835 -1.8596 -0.2447
 4021TIP3   OH233553   5.601   2.734  11.780  0.9614  0.4858 -0.2336
 4021TIP3    H133554   5.556   2.650  11.774  0.4595  0.5109  2.0584
 4021TIP3    H233555   5.660   2.736  11.705  0.9174 -1.8795 -0.3918
 4022TIP3   OH233556   1.986   2.049  15.108  0.5287  0.0296 -0.6298
 4022TIP3    H133557   2.064   2.090  15.070  0.7027  0.7976  0.5121
 4022TIP3    H233558   1.933   2.122  15.137 -0.7222 -0.4852 -1.5619
 4023TIP3   OH233559   2.243   0.581  14.631 -0.4577 -0.8812 -0.7684
 4023TIP3    H133560   2.309   0.526  14.674  0.8257  0.5391 -0.8280
 4023TIP3    H233561   2.207   0.635  14.702 -2.6305 -2.5887 -0.4690
 4024TIP3   OH233562   0.601   5.992   3.197 -0.3554  0.1770  0.2150
 4024TIP3    H133563   0.689   5.991   3.235 -0.3622 -0.2960  0.2310
 4024TIP3    H233564   0.587   5.902   3.166  0.0138  0.7570 -1.7668
 4025TIP3   OH233565   3.382   4.117   5.460  0.0162  0.3645 -0.6190
 4025TIP3    H133566   3.329   4.128   5.380  0.0300 -0.1028 -0.6935
 4025TIP3    H233567   3.446   4.050   5.437 -0.9261 -0.8726  0.2485
 4026TIP3   OH233568   0.784   6.477  16.198 -0.2646 -0.2565 -0.1894
 4026TIP3    H133569   0.741   6.563  16.199 -1.1817 -0.6660 -1.4681
 4026TIP3    H233570   0.712   6.414  16.203  0.3499 -0.9611 -0.0170
 4027TIP3   OH233571   0.317   5.275   5.539 -0.0853 -0.8073  0.0622
 4027TIP3    H133572   0.314   5.346   5.475  0.4164 -1.6577 -0.9419
 4027TIP3    H233573   0.227   5.267   5.571  0.1266  1.2836  1.3635
 4028TIP3   OH233574   5.298   5.195   0.598  0.4113  0.5396  0.2884
 4028TIP3    H133575   5.224   5.181   0.540 -0.4665  1.7572  1.0871
 4028TIP3    H233576   5.350   5.263   0.556  1.3961 -0.6560 -0.5235
 4029TIP3   OH233577   2.355   1.744  12.369  0.3245  0.1162  0.1752
 4029TIP3    H133578   2.345   1.777  12.279  0.2381 -2.2572 -0.7615
 4029TIP3    H233579   2.265   1.728  12.398  0.4127 -0.4442  0.1437
 4030TIP3   OH233580   2.645   1.944  12.980  0.0650  0.3494  0.1706
 4030TIP3    H133581   2.658   1.863  12.930 -0.1403  0.1488  0.4433
 4030TIP3    H233582   2.555   1.972  12.958 -0.4178 -0.3036  1.2356
 4031TIP3   OH233583   2.765   4.224  13.194  0.5611 -0.8632 -0.1784
 4031TIP3    H133584   2.750   4.131  13.174  1.5874 -0.8110 -1.2647
 4031TIP3    H233585   2.678   4.259  13.211 -0.1101 -1.5279 -2.0206
 4032TIP3   OH233586   5.122   6.580  12.228  0.3897  0.3497  0.3783
 4032TIP3    H133587   5.162   6.534  12.154  1.9505  1.2514  0.6302
 4032TIP3    H233588   5.189   6.580  12.295 -0.1183  1.7038  0.9114
 4033TIP3   OH233589   3.604   0.873  16.489  0.1434 -0.2116 -0.0775
 4033TIP3    H133590   3.693   0.910  16.490  0.7041 -1.4792 -0.6023
 4033TIP3    H233591   3.567   0.903  16.406 -0.6316  1.8393  0.9466
 4034TIP3   OH233592   0.484   3.660  10.982  0.3900  0.4687 -0.6077
 4034TIP3    H133593   0.499   3.613  10.900  4.0311 -1.5013  0.9577
 4034TIP3    H233594   0.526   3.746  10.969  0.8195  0.2198 -0.8925
 4035TIP3   OH233595   1.736   1.016  14.930  0.1966  0.0618  0.3838
 4035TIP3    H133596   1.702   1.037  15.017 -0.0548 -1.0622  0.5622
 4035TIP3    H233597   1.659   0.984  14.882 -0.5035  3.7541 -1.3681
 4036TIP3   OH233598   4.163   0.049  16.604 -0.0032 -0.0802 -0.2064
 4036TIP3    H133599   4.076   0.022  16.574  0.2088  0.0727 -0.9778
 4036TIP3    H233600   4.148   0.132  16.649 -0.6719 -1.4212  2.2209
 4037TIP3   OH233601   4.337   0.040   2.611 -0.1853 -0.4270 -0.4249
 4037TIP3    H133602   4.429   0.028   2.587 -0.1151 -0.6139 -0.0700
 4037TIP3    H233603   4.319   0.132   2.592  0.0675 -0.3954 -0.5169
 4038TIP3   OH233604   6.471   0.827  13.536 -0.2559 -0.5137  0.1252
 4038TIP3    H133605   6.392   0.822  13.589  0.5232 -4.2625  1.2663
 4038TIP3    H233606   6.542   0.839  13.599  0.3802 -1.0404 -0.4771
 4039TIP3   OH233607   1.840   5.312  11.590 -0.1319 -0.3289  0.2907
 4039TIP3    H133608   1.777   5.371  11.548 -1.1602 -0.7866  1.1411
 4039TIP3    H233609   1.909   5.370  11.624  0.8327  0.0399 -2.1190
 4040TIP3   OH233610   6.161   3.773   3.026  0.2143  0.1581 -0.0968
 4040TIP3    H133611   6.101   3.741   3.093  0.3461 -0.8678 -0.4523
 4040TIP3    H233612   6.246   3.776   3.069  0.2502 -0.2360 -0.1430
 4041TIP3   OH233613   1.124   0.313  15.366 -0.3639 -0.3055  0.1718
 4041TIP3    H133614   1.141   0.342  15.455 -1.1478  1.0353 -0.0924
 4041TIP3    H233615   1.041   0.265  15.371  0.1580 -1.2168  0.3394
 4042TIP3   OH233616   1.346   3.027  15.847  0.3270  0.6367  0.1841
 4042TIP3    H133617   1.404   3.084  15.897 -2.1495  2.1257  1.5527
 4042TIP3    H233618   1.293   3.086  15.794  1.2158 -0.7805 -2.4764
 4043TIP3   OH233619   4.703   3.605  12.963 -0.4607  0.0860  0.1085
 4043TIP3    H133620   4.610   3.612  12.983 -0.7554  1.7214 -1.5787
 4043TIP3    H233621   4.725   3.688  12.920  1.2728 -1.0913 -1.4339
 4044TIP3   OH233622   4.306   6.512  15.118  0.1718 -0.2755  0.3245
 4044TIP3    H133623   4.400   6.501  15.127  0.3301  0.6440 -0.0963
 4044TIP3    H233624   4.289   6.603  15.142 -0.4156 -0.0336 -0.8805
 4045TIP3   OH233625   2.556   2.113   1.515  0.2653 -0.2532  0.0762
 4045TIP3    H133626   2.640   2.160   1.517  0.3133 -0.3527  1.0998
 4045TIP3    H233627   2.542   2.092   1.423  0.2638  1.7433 -0.4232
 4046TIP3   OH233628   5.821   0.583  16.768 -0.0998  0.0320  0.4177
 4046TIP3    H133629   5.840   0.489  16.778  0.4230  0.2236  1.3648
 4046TIP3    H233630   5.774   0.606  16.848  0.2099  0.6892  0.4132
 4047TIP3   OH233631   1.441   6.769  12.637  0.1694  0.3730  0.4069
 4047TIP3    H133632   1.419   6.691  12.586  0.3383  0.4382  0.2399
 4047TIP3    H233633   1.388   6.760  12.717  1.0619 -0.5137  0.9297
 4048TIP3   OH233634   3.806   1.654   5.729 -0.3392  0.5964  0.1266
 4048TIP3    H133635   3.824   1.725   5.791 -1.1669  1.2580 -0.3677
 4048TIP3    H233636   3.870   1.587   5.751 -1.3241  0.3092  2.5057
 4049TIP3   OH233637   3.118   2.493  10.428 -0.6879  0.5228 -0.3902
 4049TIP3    H133638   3.153   2.432  10.363 -1.7992 -0.9071  0.2853
 4049TIP3    H233639   3.145   2.579  10.397 -0.6263 -0.1578 -2.3828
 4050TIP3   OH233640   1.901   4.762   0.373  0.1331  0.2763 -0.5483
 4050TIP3    H133641   1.923   4.692   0.311  0.8039  1.3694 -1.5891
 4050TIP3    H233642   1.823   4.730   0.418  0.7902 -1.4219 -0.5368
 4051TIP3   OH233643   1.651   6.299  12.308 -0.0457  0.4586  0.3319
 4051TIP3    H133644   1.707   6.348  12.249  0.2738  0.6561  0.7888
 4051TIP3    H233645   1.640   6.214  12.266  0.0191  0.6622 -0.0988
 4052TIP3   OH233646   0.680   5.587  11.473  0.0880  0.2313 -0.0647
 4052TIP3    H133647   0.633   5.552  11.549 -0.2114  0.7159 -0.0286
 4052TIP3    H233648   0.718   5.669  11.503  1.1789 -0.2668 -0.0175
 4053TIP3   OH233649   0.410   2.136  16.824  0.0563  0.4570 -0.0428
 4053TIP3    H133650   0.462   2.056  16.837 -0.7337 -0.4093 -1.8365
 4053TIP3    H233651   0.370   2.153  16.910  0.5821 -0.8355  0.4851
 4054TIP3   OH233652   0.266   4.015   5.176 -0.4693 -0.2633 -0.0347
 4054TIP3    H133653   0.207   4.008   5.101 -0.1316 -1.8937 -0.1894
 4054TIP3    H233654   0.313   4.097   5.162 -1.4422  0.1867 -0.8165
 4055TIP3   OH233655   0.642   2.066  14.867 -0.1693 -0.8699  0.1296
 4055TIP3    H133656   0.607   2.076  14.778 -1.4730 -1.5242  0.5351
 4055TIP3    H233657   0.586   2.121  14.921  0.9625 -0.0402  0.4928
 4056TIP3   OH233658   1.397   3.062  15.153 -0.1944 -0.2043 -0.3629
 4056TIP3    H133659   1.343   3.132  15.115  1.7694  1.8503  0.3867
 4056TIP3    H233660   1.359   3.049  15.240 -1.0350 -0.6316 -0.7824
 4057TIP3   OH233661   5.802   1.551   1.786  0.0047 -0.1455  0.4961
 4057TIP3    H133662   5.891   1.534   1.816 -0.2253 -0.2172  1.1758
 4057TIP3    H233663   5.805   1.640   1.750 -0.4216  1.5227  4.0576
 4058TIP3   OH233664   2.312   2.277   0.323 -0.1264 -0.5176  0.3817
 4058TIP3    H133665   2.250   2.341   0.287 -0.1171 -0.6821  0.0745
 4058TIP3    H233666   2.277   2.192   0.297  0.7482 -0.5865 -0.6515
 4059TIP3   OH233667   1.006   0.534   3.582 -0.1605  0.0337  0.0259
 4059TIP3    H133668   0.965   0.508   3.499  0.2851 -1.4088  0.2230
 4059TIP3    H233669   1.091   0.571   3.556 -0.3898  0.3888 -0.2155
 4060TIP3   OH233670   0.463   0.231   5.236 -0.0961 -0.3161  0.6703
 4060TIP3    H133671   0.406   0.166   5.277  0.6876 -0.0437  2.2327
 4060TIP3    H233672   0.520   0.179   5.179 -1.0111 -0.7278  0.1116
 4061TIP3   OH233673   0.201   3.223  15.776 -0.2274  0.2177 -0.5885
 4061TIP3    H133674   0.224   3.273  15.854  2.9370  0.7039 -1.6728
 4061TIP3    H233675   0.227   3.133  15.796  0.2893  0.2810 -0.9579
 4062TIP3   OH233676   6.251   4.824   2.781 -0.0908  0.8893 -0.1872
 4062TIP3    H133677   6.255   4.749   2.722  0.5025  1.1068 -0.4339
 4062TIP3    H233678   6.200   4.889   2.733 -1.8028  0.1678  0.5911
 4063TIP3   OH233679   3.696   4.826  14.258  0.2498 -0.6064 -0.2116
 4063TIP3    H133680   3.644   4.847  14.337  1.1814  1.1484 -0.0001
 4063TIP3    H233681   3.711   4.732  14.264 -2.4319 -1.1142 -0.0139
 4064TIP3   OH233682   4.163   6.104  13.989  0.2333 -0.1414  0.1080
 4064TIP3    H133683   4.165   6.074  14.079  1.2498  2.1109  0.9260
 4064TIP3    H233684   4.249   6.079  13.954  0.7632  0.9668  0.5420
 4065TIP3   OH233685   6.292   2.323   5.444 -0.2054 -0.3529 -0.1278
 4065TIP3    H133686   6.213   2.372   5.420  0.5964  1.2206  0.3367
 4065TIP3    H233687   6.281   2.304   5.537  1.1627  2.3604  0.6866
 4066TIP3   OH233688   0.611   6.038   1.650  0.3261  0.5457  0.8956
 4066TIP3    H133689   0.698   6.000   1.638  0.3765  1.0716 -0.6207
 4066TIP3    H233690   0.575   6.046   1.562 -1.8583 -0.9627  1.5634
 4067TIP3   OH233691   5.865   6.170   0.133  0.5075 -0.0012 -0.6151
 4067TIP3    H133692   5.813   6.225   0.192  0.4348  1.0777 -1.6522
 4067TIP3    H233693   5.955   6.182   0.162  0.3542 -0.4983  0.0858
 4068TIP3   OH233694   1.072   0.060  16.393 -0.1588  0.1476  0.3918
 4068TIP3    H133695   1.076  -0.030  16.361 -1.4932  0.1994  0.0076
 4068TIP3    H233696   0.978   0.080  16.396  0.1061  1.4260  0.7574
 4069TIP3   OH233697   1.330   0.074   2.881 -0.2286  0.7035  0.1174
 4069TIP3    H133698   1.317   0.052   2.973  0.9782 -0.0639  0.1275
 4069TIP3    H233699   1.323  -0.010   2.835 -1.2142  1.1346 -0.5561
 4070TIP3   OH233700   3.127   0.366   3.943 -0.1670 -0.1393  0.0641
 4070TIP3    H133701   3.057   0.363   3.878  1.4633  0.7699 -1.8561
 4070TIP3    H233702   3.192   0.304   3.910  1.1193  1.0592  0.2454
 4071TIP3   OH233703   2.514   3.343   1.926 -0.8412  0.6092 -0.1542
 4071TIP3    H133704   2.460   3.423   1.922  0.5598  1.7167  1.4682
 4071TIP3    H233705   2.594   3.367   1.879 -0.1525  0.4021  0.8956
 4072TIP3   OH233706   1.147   3.042   3.338 -0.0067  0.2850  0.5757
 4072TIP3    H133707   1.236   3.008   3.330  0.8357  2.1280  1.5340
 4072TIP3    H233708   1.092   2.976   3.295  1.9359 -0.2255 -1.2698
 4073TIP3   OH233709   6.184   3.361   1.200 -0.7763  0.6186  0.5101
 4073TIP3    H133710   6.167   3.386   1.290 -0.5546 -0.7954  0.9640
 4073TIP3    H233711   6.180   3.266   1.200 -3.1294  0.6092 -1.4322
 4074TIP3   OH233712   0.033   1.192  17.073 -0.5336  0.0376 -0.4047
 4074TIP3    H133713  -0.043   1.157  17.118 -0.5456  0.5106 -0.0494
 4074TIP3    H233714   0.060   1.122  17.013 -0.5187 -0.5997  0.3305
 4075TIP3   OH233715   4.073   5.690   5.769 -0.3413  0.3949 -0.1486
 4075TIP3    H133716   4.063   5.708   5.863  0.5559  0.4273 -0.0426
 4075TIP3    H233717   3.990   5.718   5.730 -0.7681  0.2757  0.6489
 4076TIP3   OH233718   3.639   3.676   1.063  0.1729 -0.0585 -0.2593
 4076TIP3    H133719   3.675   3.673   0.974 -1.4491 -0.2202 -0.9506
 4076TIP3    H233720   3.555   3.631   1.056 -0.7340  1.3477  0.9939
 4077TIP3   OH233721   6.104   4.829   1.667  0.4426 -0.0600  0.2731
 4077TIP3    H133722   6.074   4.799   1.581  1.7648  0.7110 -0.4871
 4077TIP3    H233723   6.052   4.907   1.685  0.9758  0.4559 -0.3820
 4078TIP3   OH233724   2.218   4.492  10.543 -0.3457 -0.6156 -0.0115
 4078TIP3    H133725   2.292   4.432  10.531  0.6878  0.4633  0.7394
 4078TIP3    H233726   2.234   4.533  10.628 -1.7922 -0.3081  0.1396
 4079TIP3   OH233727   5.855   4.309   0.108  0.6181 -0.0561 -0.1669
 4079TIP3    H133728   5.916   4.271   0.046 -0.3963 -0.4848 -0.9341
 4079TIP3    H233729   5.879   4.401   0.113  1.9742 -0.4228  0.3592
 4080TIP3   OH233730   0.352   1.524  13.913  0.3506 -0.1854 -0.3600
 4080TIP3    H133731   0.431   1.540  13.964 -0.6181 -0.7911  1.4092
 4080TIP3    H233732   0.332   1.608  13.872  0.6049  0.6095  1.0791
 4081TIP3   OH233733   5.762   2.039   4.293 -0.2721  0.2195  0.2329
 4081TIP3    H133734   5.742   2.101   4.363 -1.1883 -0.1958  0.3366
 4081TIP3    H233735   5.697   1.970   4.301 -1.0644  0.6833 -1.6711
 4082TIP3   OH233736   4.460   5.216   4.625  0.0675 -0.4395 -0.5183
 4082TIP3    H133737   4.463   5.235   4.719  1.8914  3.2646 -1.1417
 4082TIP3    H233738   4.381   5.163   4.614 -1.3146  0.6181  2.8730
 4083TIP3   OH233739   5.341   6.678   0.214 -0.4645 -0.1976  0.1832
 4083TIP3    H133740   5.388   6.604   0.175 -1.8795 -1.6924  1.2014
 4083TIP3    H233741   5.410   6.732   0.252  0.5368 -1.7321  0.6561
 4084TIP3   OH233742   6.129   6.817   5.602  0.1476 -0.1859 -0.1358
 4084TIP3    H133743   6.085   6.808   5.686 -0.3842  0.4742 -0.3369
 4084TIP3    H233744   6.122   6.730   5.563 -2.9348  0.3309 -1.0842
 4085TIP3   OH233745   6.811   3.632   2.132 -0.2555  0.2606 -0.3534
 4085TIP3    H133746   6.879   3.580   2.174  2.1827  2.7908 -0.8496
 4085TIP3    H233747   6.746   3.647   2.200 -0.7452 -2.7086 -0.0265
 4086TIP3   OH233748   4.280   2.047  15.588 -0.2135  0.0169  0.2990
 4086TIP3    H133749   4.282   1.964  15.540  0.2771 -0.3091  0.8655
 4086TIP3    H233750   4.371   2.076  15.588 -0.4286  0.6987 -0.1307
 4087TIP3   OH233751   1.738   5.038   3.767  0.5698 -0.2249 -0.2850
 4087TIP3    H133752   1.751   4.952   3.728  0.6615 -0.1885 -0.3360
 4087TIP3    H233753   1.653   5.032   3.811 -0.5049  0.3381 -2.1760
 4088TIP3   OH233754   5.319   6.502   4.067 -0.0667  0.2071 -0.5545
 4088TIP3    H133755   5.411   6.485   4.046 -0.0196  1.0249 -1.0792
 4088TIP3    H233756   5.296   6.435   4.130  1.4867  1.1798  1.1507
 4089TIP3   OH233757   2.685   5.517   2.667 -0.2804  0.1071  0.4617
 4089TIP3    H133758   2.752   5.460   2.630 -1.7172 -1.9973  0.9792
 4089TIP3    H233759   2.653   5.472   2.745 -0.4265  2.3618  1.8096
 4090TIP3   OH233760   3.078   6.764   2.271 -0.1034 -0.0112  0.5217
 4090TIP3    H133761   3.034   6.779   2.188  0.6486  2.0566  0.4491
 4090TIP3    H233762   3.150   6.828   2.273  0.3302 -0.4729  2.4553
 4091TIP3   OH233763   1.107   0.231   2.806 -0.4544 -0.6898 -0.3857
 4091TIP3    H133764   1.119   0.286   2.883 -1.7352 -1.8317  0.6806
 4091TIP3    H233765   1.169   0.159   2.818  0.3231 -0.1558 -1.1356
 4092TIP3   OH233766   5.021   0.968   3.199  0.1607  0.5029 -0.0262
 4092TIP3    H133767   4.967   1.040   3.164 -1.1485  0.2433  1.3798
 4092TIP3    H233768   5.067   1.007   3.273  0.4044  0.1909 -0.0129
 4093TIP3   OH233769   1.011   4.477  16.291 -0.3547 -0.1868 -0.4900
 4093TIP3    H133770   0.973   4.558  16.326  1.7569  0.2037  1.1103
 4093TIP3    H233771   1.069   4.507  16.221 -1.5029 -0.6159 -1.6757
 4094TIP3   OH233772   2.961   0.644  13.669  0.2932 -0.6499  0.6583
 4094TIP3    H133773   2.912   0.562  13.659 -0.8254 -0.1069  1.4999
 4094TIP3    H233774   2.920   0.688  13.744  1.6369  0.1458  0.9570
 4095TIP3   OH233775   3.824   2.940   4.067 -0.1514  0.0509 -0.3448
 4095TIP3    H133776   3.817   2.871   4.133  0.0792  0.3632  0.0111
 4095TIP3    H233777   3.777   3.014   4.105  0.4926  0.4275 -0.2655
 4096TIP3   OH233778   2.017   0.384  11.412  0.3652  0.6330 -0.8251
 4096TIP3    H133779   1.973   0.355  11.332  1.5071 -1.7474 -0.6468
 4096TIP3    H233780   2.096   0.428  11.382  0.9954 -0.6125 -1.0219
 4097TIP3   OH233781   5.084   2.893   5.477  0.1991 -0.0835 -0.3188
 4097TIP3    H133782   4.994   2.864   5.492  0.1030  0.0331 -0.6617
 4097TIP3    H233783   5.081   2.988   5.492  0.0682  0.0605 -1.2038
 4098TIP3   OH233784   3.281   4.313  13.107 -0.2891  0.8093  0.2432
 4098TIP3    H133785   3.252   4.387  13.160  1.3460  1.4722  0.2778
 4098TIP3    H233786   3.204   4.258  13.098 -1.6792  2.7225 -0.1429
 4099TIP3   OH233787   3.201   6.107  13.202  0.3403 -0.9935  0.3364
 4099TIP3    H133788   3.238   6.031  13.246  3.1072  0.4299  0.6851
 4099TIP3    H233789   3.238   6.105  13.114  0.3444 -0.1331  0.3042
 4100TIP3   OH233790   5.263   3.858   2.610 -0.1504  0.1125 -0.0994
 4100TIP3    H133791   5.185   3.870   2.663  0.2019 -1.6926  0.8955
 4100TIP3    H233792   5.233   3.865   2.519 -1.8959 -2.5548  0.1788
 4101TIP3   OH233793   1.406   0.190   1.183  0.4050  0.8828  0.1491
 4101TIP3    H133794   1.487   0.213   1.138  1.7407 -0.1311  1.9296
 4101TIP3    H233795   1.410   0.238   1.265 -2.4435  3.4724 -1.0408
 4102TIP3   OH233796   0.870   0.427  14.744  0.0702 -0.3220  0.2050
 4102TIP3    H133797   0.846   0.341  14.779  1.5972 -0.4324  1.0758
 4102TIP3    H233798   0.795   0.483  14.762 -0.8319 -1.3943 -0.1240
 4103TIP3   OH233799   0.561   2.614  12.055  0.1041  0.6371 -0.8946
 4103TIP3    H133800   0.640   2.570  12.026 -0.1379  1.1166 -2.3681
 4103TIP3    H233801   0.492   2.581  11.997 -0.7207  0.4887  0.1287
 4104TIP3   OH233802   3.894   0.936  13.051 -0.5400  0.2295  0.5918
 4104TIP3    H133803   3.955   0.971  13.117  1.3454  1.3012 -1.5893
 4104TIP3    H233804   3.878   1.009  12.992 -2.1304 -0.7101 -0.1911
 4105TIP3   OH233805   6.197   0.308  13.831  0.3226  0.0616  0.0644
 4105TIP3    H133806   6.153   0.319  13.747 -0.3115 -1.3034  0.1955
 4105TIP3    H233807   6.238   0.222  13.826  2.2313  0.9026  0.3072
 4106TIP3   OH233808   0.370   0.383  13.713 -0.6123  0.5552 -0.1148
 4106TIP3    H133809   0.321   0.366  13.633  1.4029 -0.2324 -1.2574
 4106TIP3    H233810   0.304   0.379  13.783 -2.1019 -0.8129 -1.5099
 4107TIP3   OH233811   5.138   1.972  16.938  0.0567 -0.4290  0.3218
 4107TIP3    H133812   5.228   1.945  16.954  0.4212  0.8358  0.5252
 4107TIP3    H233813   5.100   1.901  16.887  1.4615 -0.5264 -0.6393
 4108TIP3   OH233814   1.942   6.667  10.634 -0.2158 -0.3108  0.6265
 4108TIP3    H133815   1.913   6.625  10.553 -0.2294  1.0818 -0.1128
 4108TIP3    H233816   2.026   6.625  10.654  0.2314 -0.0433 -0.6116
 4109TIP3   OH233817   1.323   1.967  14.574 -0.6096 -0.1042 -0.0917
 4109TIP3    H133818   1.304   1.943  14.665 -1.9164 -0.1545 -0.3461
 4109TIP3    H233819   1.347   1.885  14.532 -2.2675 -0.5313 -0.2953
 4110TIP3   OH233820   4.695   4.297   2.645  0.4762  0.1435 -0.2455
 4110TIP3    H133821   4.764   4.231   2.657 -0.9759 -1.7050 -1.5676
 4110TIP3    H233822   4.647   4.268   2.568 -0.4380  2.6268 -0.7031
 4111TIP3   OH233823   0.852   3.317   2.719 -0.0136  0.6572 -0.3779
 4111TIP3    H133824   0.891   3.395   2.679 -0.9045  0.8709 -0.8779
 4111TIP3    H233825   0.803   3.276   2.648  0.8022 -0.6247 -0.2333
 4112TIP3   OH233826   6.264   5.656   4.636 -0.3242  0.1609 -0.0823
 4112TIP3    H133827   6.207   5.652   4.713  0.2717  0.2862  0.3693
 4112TIP3    H233828   6.211   5.618   4.565 -0.4526 -1.0472  0.6467
 4113TIP3   OH233829   1.413   3.471  12.329 -0.0439 -0.3959 -0.1831
 4113TIP3    H133830   1.349   3.431  12.271 -1.0586  1.2673 -0.2761
 4113TIP3    H233831   1.366   3.484  12.412  0.5646 -0.2883  0.1538
 4114TIP3   OH233832   6.498   5.319  13.508 -0.5738  0.2254 -0.0995
 4114TIP3    H133833   6.592   5.336  13.498 -0.6052  0.5544  0.1597
 4114TIP3    H233834   6.474   5.362  13.590 -0.6901 -0.9552  0.4962
 4115TIP3   OH233835   2.065   0.876  11.236 -0.0280  0.2836  0.3192
 4115TIP3    H133836   2.097   0.878  11.146 -1.3092  0.4141 -0.1552
 4115TIP3    H233837   2.015   0.795  11.242  1.4295 -0.5698  1.4308
 4116TIP3   OH233838   3.649   6.753   3.245 -0.3195  0.5380  0.0276
 4116TIP3    H133839   3.556   6.765   3.227 -0.2196  1.8705  0.2779
 4116TIP3    H233840   3.652   6.674   3.300 -0.9319 -1.5219 -2.6988
 4117TIP3   OH233841   6.493   3.652   2.841 -0.2505  0.1122 -0.1868
 4117TIP3    H133842   6.570   3.608   2.806 -0.6361 -0.9919  0.3039
 4117TIP3    H233843   6.466   3.713   2.772  2.0813  1.8613  0.3092
 4118TIP3   OH233844   6.355   5.417  13.724 -0.5556  0.0839  0.5936
 4118TIP3    H133845   6.321   5.497  13.764 -1.7055 -0.7250  1.2666
 4118TIP3    H233846   6.285   5.388  13.666  0.5284  0.4635 -0.9666
 4119TIP3   OH233847   6.434   6.708   4.681 -0.0827  0.3348  0.4725
 4119TIP3    H133848   6.501   6.666   4.628 -2.0769  1.1436 -3.0494
 4119TIP3    H233849   6.475   6.789   4.712  1.5228 -0.7324  1.2490
 4120TIP3   OH233850   1.286   5.409  16.153  0.0549 -0.0054  0.4497
 4120TIP3    H133851   1.307   5.488  16.202 -1.4810  0.4706  0.3835
 4120TIP3    H233852   1.259   5.346  16.219  2.0993 -0.8185  0.5953
 4121TIP3   OH233853   0.434   5.644   3.764 -0.1336  0.6897 -0.1433
 4121TIP3    H133854   0.393   5.609   3.843 -1.8503 -0.3860 -1.4432
 4121TIP3    H233855   0.372   5.708   3.731 -0.1868 -0.0199 -1.4565
 4122TIP3   OH233856   3.997   4.004   0.585  0.2728  0.0658  0.4560
 4122TIP3    H133857   3.926   3.940   0.572  0.4200 -0.1543  0.7312
 4122TIP3    H233858   4.019   4.033   0.496 -0.7630  0.8023  0.4224
 4123TIP3   OH233859   2.480   5.097   0.176 -0.0563  0.0073  0.1351
 4123TIP3    H133860   2.541   5.150   0.125 -0.4828 -0.2810 -0.6952
 4123TIP3    H233861   2.467   5.018   0.123 -0.9956 -0.0257  0.3911
 4124TIP3   OH233862   3.184   4.773   2.873 -0.2476  0.2079  0.1339
 4124TIP3    H133863   3.244   4.839   2.908  1.9447 -1.8768  0.6235
 4124TIP3    H233864   3.216   4.757   2.784 -0.4911 -0.4633  0.1661
 4125TIP3   OH233865   6.195   5.315   1.666  0.1332 -0.1447  0.1922
 4125TIP3    H133866   6.201   5.266   1.584 -0.8059 -0.6787  0.4202
 4125TIP3    H233867   6.285   5.333   1.691  0.4139  0.5169 -1.2409
 4126TIP3   OH233868   4.402   1.539  12.949 -0.7654  0.0961 -0.1344
 4126TIP3    H133869   4.309   1.523  12.968 -0.3321 -1.3952  0.9350
 4126TIP3    H233870   4.427   1.608  13.010 -0.5626 -1.3545  1.4973
 4127TIP3   OH233871   2.307   4.100   4.552 -0.3220 -0.3231 -0.3643
 4127TIP3    H133872   2.246   4.028   4.537 -2.4735  1.2423  0.3759
 4127TIP3    H233873   2.257   4.179   4.532  1.0570  1.1149  1.4178
 4128TIP3   OH233874   2.496   6.038  11.987  0.4178  0.0433  0.1736
 4128TIP3    H133875   2.410   6.024  12.028  0.1006 -0.2103 -0.5533
 4128TIP3    H233876   2.552   5.970  12.023  0.1892 -0.0734  0.3084
 4129TIP3   OH233877   0.662   5.076  12.706  0.5423  0.1058 -0.6516
 4129TIP3    H133878   0.751   5.041  12.705  0.2728 -0.5958 -0.5989
 4129TIP3    H233879   0.616   5.028  12.637 -0.1675 -0.5567  0.2481
 4130TIP3   OH233880   6.452   2.929   1.406  0.2595  0.1926 -0.3172
 4130TIP3    H133881   6.493   2.852   1.367  0.8720  0.7956 -0.8947
 4130TIP3    H233882   6.388   2.894   1.468 -0.6602 -0.8074 -1.7630
 4131TIP3   OH233883   0.112   5.750   4.138  0.2774 -0.4786  0.1992
 4131TIP3    H133884   0.124   5.842   4.164  0.3842 -0.2985 -0.4608
 4131TIP3    H233885   0.137   5.748   4.045  3.3469 -1.8010  0.9389
 4132TIP3   OH233886   2.547   4.004   1.107  0.5952  0.2555 -0.0281
 4132TIP3    H133887   2.602   3.982   1.031 -0.9316 -0.6336 -0.9455
 4132TIP3    H233888   2.477   3.939   1.104 -0.6597  1.5145  0.9182
 4133TIP3   OH233889   6.500   6.224  14.796 -0.3099 -0.2374 -0.0080
 4133TIP3    H133890   6.515   6.235  14.890  1.1859 -1.5050 -0.0751
 4133TIP3    H233891   6.428   6.162  14.791  0.6177 -1.3659  0.3159
 4134TIP3   OH233892   3.640   5.877   2.340  0.1296  0.1834  0.0926
 4134TIP3    H133893   3.691   5.950   2.305  0.5640  1.0206  2.3212
 4134TIP3    H233894   3.603   5.910   2.422 -0.9351 -1.6176  0.4024
 4135TIP3   OH233895   1.039   6.518   4.885 -0.0807  0.3909 -0.0293
 4135TIP3    H133896   1.112   6.480   4.935  0.4264 -0.5978 -1.4529
 4135TIP3    H233897   1.023   6.455   4.815 -0.2307  2.0999 -1.5979
 4136TIP3   OH233898   4.962   2.145  10.707  0.0144 -0.0914  0.3399
 4136TIP3    H133899   4.911   2.140  10.626 -1.0167  1.8802  0.8063
 4136TIP3    H233900   5.043   2.097  10.687 -0.8666 -0.9574 -1.3261
 4137TIP3   OH233901   6.094   4.517  14.573  0.5365 -0.0470 -0.4180
 4137TIP3    H133902   6.107   4.437  14.523  1.9057 -0.8942  1.2143
 4137TIP3    H233903   6.170   4.571  14.552  0.4615  0.1324 -0.2308
 4138TIP3   OH233904   4.375   1.833  11.310  0.0368 -0.5472  0.0675
 4138TIP3    H133905   4.293   1.850  11.265 -0.2422 -0.3338  0.6499
 4138TIP3    H233906   4.352   1.828  11.403 -0.0926 -4.9997  0.0028
 4139TIP3   OH233907   3.971   2.305   5.653 -0.0797  0.3165  0.0345
 4139TIP3    H133908   4.034   2.365   5.692 -0.3382  0.2604  0.5538
 4139TIP3    H233909   4.017   2.221   5.650 -0.5960 -0.0607  1.7436
 4140TIP3   OH233910   2.978   0.250  12.850 -0.1407 -0.2654 -0.0696
 4140TIP3    H133911   2.884   0.246  12.837 -0.2284 -0.9461  0.6879
 4140TIP3    H233912   3.010   0.309  12.781 -1.0654 -0.3183 -0.5516
 4141TIP3   OH233913   0.027   3.550  12.229  0.2379 -0.2142  0.3254
 4141TIP3    H133914   0.016   3.486  12.299 -0.3991 -1.0539 -0.5199
 4141TIP3    H233915   0.002   3.503  12.149  0.8445  0.7527 -0.4575
 4142TIP3   OH233916   6.470   0.211  11.827 -0.0636 -0.1349 -0.0497
 4142TIP3    H133917   6.485   0.293  11.874 -2.3013  0.5322 -0.3656
 4142TIP3    H233918   6.492   0.231  11.736  0.7467 -0.3256  0.0990
 4143TIP3   OH233919   4.027   4.876  14.637  0.2286  0.3221 -0.1041
 4143TIP3    H133920   4.070   4.884  14.552 -0.8213  1.8078 -0.5473
 4143TIP3    H233921   4.089   4.915  14.699  0.4080  0.5334 -0.4147
 4144TIP3   OH233922   6.231   3.319  13.933  0.1405 -0.4598  0.1420
 4144TIP3    H133923   6.307   3.376  13.939 -0.8384  0.8936  0.0783
 4144TIP3    H233924   6.176   3.344  14.007 -1.1038 -0.0920 -0.8688
 4145TIP3   OH233925   3.845   4.935  16.912 -0.1157  0.4496 -0.3694
 4145TIP3    H133926   3.896   4.908  16.988 -0.9326 -0.6350 -0.1777
 4145TIP3    H233927   3.830   4.854  16.863 -1.4173  0.7722 -0.5531
 4146TIP3   OH233928   1.895   3.390   2.869  0.3961  0.0077  0.3437
 4146TIP3    H133929   1.898   3.416   2.777 -0.1073  0.3839  0.4277
 4146TIP3    H233930   1.980   3.415   2.904  0.7272 -0.4645 -0.1015
 4147TIP3   OH233931   3.972   0.297   4.073 -0.3193  0.1401 -0.5870
 4147TIP3    H133932   3.939   0.359   4.007 -1.5460  0.3937  0.2201
 4147TIP3    H233933   3.975   0.348   4.154 -1.1818 -0.7925  0.0500
 4148TIP3   OH233934   4.622   0.867   4.952  0.5005  0.3148 -0.4600
 4148TIP3    H133935   4.566   0.945   4.947  1.5605  1.0301 -3.0263
 4148TIP3    H233936   4.701   0.892   4.905  1.1957 -2.0909 -0.6815
 4149TIP3   OH233937   6.166   1.054   4.834 -0.2544  0.0152 -0.4453
 4149TIP3    H133938   6.109   0.978   4.841 -0.3235  0.0502 -0.6143
 4149TIP3    H233939   6.216   1.040   4.753 -0.5680  0.3504 -0.7024
 4150TIP3   OH233940   3.973   0.312   5.337  0.2411 -0.1750  0.1137
 4150TIP3    H133941   3.945   0.240   5.280 -0.2628  1.4801 -1.8410
 4150TIP3    H233942   3.904   0.318   5.404 -0.9217 -0.0710 -1.0552
 4151TIP3   OH233943   4.990   1.386  11.404 -0.3691  0.0938 -0.0083
 4151TIP3    H133944   5.003   1.449  11.333  1.8678  0.3289  0.5261
 4151TIP3    H233945   4.898   1.397  11.430 -1.2585  0.0035 -2.8173
 4152TIP3   OH233946   3.632   1.878   4.107 -0.0532  0.0553 -0.5735
 4152TIP3    H133947   3.550   1.842   4.139  0.6889 -0.3226  1.0415
 4152TIP3    H233948   3.613   1.908   4.019 -1.1698 -2.7080 -1.3844
 4153TIP3   OH233949   0.984   0.133   5.137  0.2498  0.0699  0.5800
 4153TIP3    H133950   1.062   0.156   5.188  1.0846 -1.1928 -0.0586
 4153TIP3    H233951   1.006   0.048   5.098 -0.8897  0.3613 -0.7708
 4154TIP3   OH233952   3.320   4.366  17.089 -0.2096  0.2777 -0.0630
 4154TIP3    H133953   3.257   4.298  17.113  0.4269  0.2902  1.7831
 4154TIP3    H233954   3.403   4.320  17.082 -0.0158  0.6422 -0.1572
 4155TIP3   OH233955   5.300   4.696  15.758 -0.2570  0.5887  0.2239
 4155TIP3    H133956   5.367   4.698  15.826 -0.6786  0.4481  0.6504
 4155TIP3    H233957   5.222   4.733  15.800  0.0508  2.5824 -0.8290
 4156TIP3   OH233958   4.431   0.452  14.935  0.2199  0.6303  0.5727
 4156TIP3    H133959   4.478   0.528  14.970 -1.2143  2.0853 -0.5024
 4156TIP3    H233960   4.351   0.448  14.987 -1.1683  1.8178 -1.3550
 4157TIP3   OH233961   6.008   4.907  12.750  0.2816  0.1615  0.2697
 4157TIP3    H133962   6.043   4.996  12.758  1.7101 -0.2148 -1.2377
 4157TIP3    H233963   6.082   4.855  12.720 -0.7457 -1.3874  0.3026
 4158TIP3   OH233964   4.148   4.880  13.299  0.0367 -0.3609  0.2137
 4158TIP3    H133965   4.201   4.854  13.374 -1.6704 -0.1263  1.5405
 4158TIP3    H233966   4.079   4.935  13.335 -1.4181 -1.0416 -1.3825
 4159TIP3   OH233967   2.729   4.155  16.879 -0.1660 -0.5320  0.0866
 4159TIP3    H133968   2.821   4.130  16.871  0.1434  0.8375 -1.0544
 4159TIP3    H233969   2.688   4.081  16.924  1.0342 -2.1764 -1.3770
 4160TIP3   OH233970   6.684   1.065  14.369  0.2794 -0.1397  0.5687
 4160TIP3    H133971   6.612   1.009  14.397  1.0860 -0.7105  1.5749
 4160TIP3    H233972   6.642   1.142  14.331 -0.8482 -0.7740  0.5037
 4161TIP3   OH233973   6.214   3.754  13.298 -0.1554 -0.1026  0.2644
 4161TIP3    H133974   6.129   3.711  13.296 -1.1763  1.8061  0.2500
 4161TIP3    H233975   6.277   3.684  13.286 -1.7733 -1.4138 -0.9404
 4162TIP3   OH233976   2.945   3.058   5.224 -0.5971 -0.0648  0.4103
 4162TIP3    H133977   2.855   3.058   5.258 -1.4083 -1.6965 -1.5112
 4162TIP3    H233978   2.937   3.093   5.136  0.6631 -0.2208  0.2181
 4163TIP3   OH233979   2.199   3.836   4.659 -0.0911  0.2333  0.2208
 4163TIP3    H133980   2.234   3.799   4.741 -0.9865 -0.8585  0.1277
 4163TIP3    H233981   2.142   3.907   4.688 -0.3577 -0.1083  0.5542
 4164TIP3   OH233982   5.960   2.535   2.508  0.3051  0.1554  0.3168
 4164TIP3    H133983   5.983   2.468   2.444 -1.2551  0.5199 -0.6756
 4164TIP3    H233984   5.877   2.505   2.545  1.4670 -0.3772  2.6971
 4165TIP3   OH233985   5.741   3.376   2.851  0.0126  0.0815 -0.0107
 4165TIP3    H133986   5.726   3.317   2.777  0.8084 -0.8131  0.5191
 4165TIP3    H233987   5.816   3.339   2.897 -1.1504 -0.0422  1.9045
 4166TIP3   OH233988   4.691   3.370  15.667 -0.1680  0.5235  0.1691
 4166TIP3    H133989   4.657   3.443  15.718 -0.3926  0.2931  0.3561
 4166TIP3    H233990   4.645   3.293  15.702  1.0626  0.0983  0.9131
 4167TIP3   OH233991   0.322   4.008  12.570  0.4171  0.1362 -0.9943
 4167TIP3    H133992   0.258   3.995  12.640  1.7354  0.5838  0.3453
 4167TIP3    H233993   0.293   3.949  12.500  0.3131 -2.0940  0.8019
 4168TIP3   OH233994   3.086   5.171  14.621 -0.1551  0.6532  0.5903
 4168TIP3    H133995   3.076   5.182  14.526 -0.5915  2.2921  0.7966
 4168TIP3    H233996   3.045   5.086  14.640  1.8373 -0.7631 -0.9457
 4169TIP3   OH233997   3.431   0.754  15.119  0.4283 -0.1920  0.0423
 4169TIP3    H133998   3.376   0.797  15.184 -0.5103  0.0390 -0.8826
 4169TIP3    H233999   3.460   0.673  15.161 -1.3390 -0.7514  0.2381
 4170TIP3   OH234000   5.888   0.047  13.484 -0.2345 -0.0419  0.1041
 4170TIP3    H134001   5.867   0.074  13.573 -3.9262  0.2480 -0.6806
 4170TIP3    H234002   5.804   0.052  13.437  0.9086 -3.0239 -2.6539
 4171TIP3   OH234003   5.354   5.217   5.893  0.1168 -0.1930  0.2793
 4171TIP3    H134004   5.389   5.271   5.965  0.4937 -1.1792  0.8599
 4171TIP3    H234005   5.333   5.279   5.824 -0.5188  0.8192  1.3558
 4172TIP3   OH234006   3.185   0.546  13.186 -0.1493 -0.7312  0.1797
 4172TIP3    H134007   3.213   0.637  13.187 -1.0959 -0.3761 -1.8313
 4172TIP3    H234008   3.187   0.520  13.279 -1.2335  1.7486  0.9796
 4173TIP3   OH234009   2.646   0.534   5.828 -0.5244 -0.4762  0.0325
 4173TIP3    H134010   2.699   0.540   5.908  0.9381  0.3934 -0.9558
 4173TIP3    H234011   2.615   0.624   5.815 -0.5002 -0.5518 -0.5368
 4174TIP3   OH234012   6.736   6.731   6.287 -0.1437 -0.2561 -1.0491
 4174TIP3    H134013   6.814   6.781   6.311  0.7533 -0.5593 -3.0718
 4174TIP3    H234014   6.742   6.650   6.337 -0.6853  0.8849  0.9355
 4175TIP3   OH234015   4.342   0.509   0.023  1.0178 -0.0290 -0.2172
 4175TIP3    H134016   4.368   0.557  -0.055  1.2161 -0.0760 -0.1803
 4175TIP3    H234017   4.248   0.520   0.028  0.9756 -0.2015 -0.5834
 4176TIP3   OH234018   1.927   4.299  16.438  0.8296  0.3343 -0.3482
 4176TIP3    H134019   1.994   4.324  16.502 -0.7711  3.7157  0.2297
 4176TIP3    H234020   1.879   4.227  16.480  2.0841 -0.0045  0.5778
 4177TIP3   OH234021   5.889   2.298   6.050 -0.0028 -0.0580 -0.1403
 4177TIP3    H134022   5.808   2.257   6.020  0.3811 -1.6672  0.8810
 4177TIP3    H234023   5.913   2.249   6.128 -0.5359  3.4208  2.4282
 4178TIP3   OH234024   3.235   1.725  15.139  0.1934 -0.5312 -0.1644
 4178TIP3    H134025   3.212   1.656  15.076  2.7875 -0.2129 -1.6017
 4178TIP3    H234026   3.236   1.680  15.223 -1.7813 -1.3445 -0.5040
 4179TIP3   OH234027   2.997   1.517  13.833  0.0992  0.4024 -0.0089
 4179TIP3    H134028   3.044   1.441  13.868 -0.1933  0.1981 -0.0478
 4179TIP3    H234029   3.062   1.565  13.783  0.7597  1.1913  1.5443
 4180TIP3   OH234030   6.447   5.273   4.672  0.5609 -0.1932  0.0175
 4180TIP3    H134031   6.499   5.193   4.663  2.4924  0.8048  1.5201
 4180TIP3    H234032   6.468   5.325   4.594 -2.4671 -1.9353 -2.1972
 4181TIP3   OH234033   6.381   4.808  15.673  0.6399  0.8216  0.0358
 4181TIP3    H134034   6.341   4.721  15.672 -1.5945  1.7832  0.2914
 4181TIP3    H234035   6.428   4.812  15.756  0.9374 -0.2012 -0.0710
 4182TIP3   OH234036   2.480   0.286   0.336 -0.3009 -0.1702 -0.0662
 4182TIP3    H134037   2.396   0.332   0.341 -0.7728 -1.1184  1.0585
 4182TIP3    H234038   2.466   0.218   0.271 -0.9474 -1.3495  1.2559
 4183TIP3   OH234039   6.731   1.658   0.145  0.3432  0.3473 -0.1286
 4183TIP3    H134040   6.741   1.667   0.050 -1.1500  2.3958 -0.1553
 4183TIP3    H234041   6.698   1.569   0.157 -1.9623  0.8739 -1.8296
 4184TIP3   OH234042   6.612   6.344   3.856 -0.4106  0.1560  0.1245
 4184TIP3    H134043   6.651   6.317   3.773  0.5040 -0.6013  0.7820
 4184TIP3    H234044   6.535   6.289   3.866 -0.6493  0.4095 -0.3337
 4185TIP3   OH234045   5.990   6.576  13.990 -0.0403 -0.1217 -0.3670
 4185TIP3    H134046   6.034   6.660  14.006 -1.5338  0.8266 -1.0137
 4185TIP3    H234047   6.049   6.511  14.028  1.5538  1.1319 -0.5550
 4186TIP3   OH234048   1.745   6.062   0.082 -0.1576  0.1566 -0.3134
 4186TIP3    H134049   1.699   6.105   0.010  1.3933  2.5580  0.0455
 4186TIP3    H234050   1.718   6.109   0.161 -0.8056 -1.5868  0.5731
 4187TIP3   OH234051   4.909   6.403  11.344 -0.2651 -0.3910  0.4214
 4187TIP3    H134052   4.946   6.367  11.263  0.1056  0.2319  0.3034
 4187TIP3    H234053   4.981   6.453  11.383 -0.3943 -0.8217  1.2253
 4188TIP3   OH234054   3.170   0.515   0.128 -0.6929  0.4840 -0.3173
 4188TIP3    H134055   3.133   0.446   0.183  1.1282 -0.6410 -0.4220
 4188TIP3    H234056   3.234   0.558   0.184 -1.4122  1.7539 -0.4402
 4189TIP3   OH234057   4.035   5.133  17.029 -0.1719  0.3809 -0.1183
 4189TIP3    H134058   4.060   5.052  17.073  0.9478  0.6384 -0.2421
 4189TIP3    H234059   3.959   5.109  16.976  0.2397 -0.6344 -0.2818
 4190TIP3   OH234060   3.432   2.223   3.681  0.0330  0.6759  0.7542
 4190TIP3    H134061   3.366   2.250   3.616 -0.5547  1.0898  1.5011
 4190TIP3    H234062   3.393   2.147   3.724  1.1725 -0.6932 -0.5255
 4191TIP3   OH234063   3.236   0.055  14.154 -0.0637 -0.0508  0.1899
 4191TIP3    H134064   3.140   0.047  14.159 -0.2377  1.7436  0.4534
 4191TIP3    H234065   3.263  -0.019  14.099 -1.7909  0.3488 -1.3120
 4192TIP3   OH234066   5.317   0.164   1.309 -0.3356 -0.5740 -0.0522
 4192TIP3    H134067   5.247   0.201   1.364 -1.1175 -0.5757 -1.0169
 4192TIP3    H234068   5.338   0.080   1.351  1.1016  0.6735  1.8682
 4193TIP3   OH234069   0.413   1.881   1.794  0.1728 -0.2862  0.2404
 4193TIP3    H134070   0.503   1.858   1.815  0.7598  0.9464 -0.7925
 4193TIP3    H234071   0.361   1.808   1.827  1.7770 -2.3441 -1.4875
 4194TIP3   OH234072   6.453   3.519  16.391  0.4185  0.4717  0.2334
 4194TIP3    H134073   6.440   3.498  16.484  0.9544 -1.3550 -0.0628
 4194TIP3    H234074   6.365   3.531  16.357  0.1246 -0.2760  0.6881
 4195TIP3   OH234075   4.061   1.725  16.094  0.0232  0.7388  0.0805
 4195TIP3    H134076   4.113   1.678  16.028 -1.0413  0.9416 -0.9409
 4195TIP3    H234077   4.069   1.673  16.173 -0.1864 -0.5446 -0.7156
 4196TIP3   OH234078   0.620   2.760   2.741  0.2449  0.4803  0.3343
 4196TIP3    H134079   0.685   2.811   2.692 -0.2975  0.0144 -0.9260
 4196TIP3    H234080   0.620   2.675   2.697 -0.8681  0.3201  0.6293
 4197TIP3   OH234081   6.054   0.953   2.207 -0.7566  0.6211  0.6917
 4197TIP3    H134082   5.959   0.947   2.193 -0.5386  1.9707 -2.1207
 4197TIP3    H234083   6.074   0.879   2.265 -3.2974 -0.7302  0.0330
 4198TIP3   OH234084   4.319   0.138   2.006  0.1996 -0.0078 -0.4258
 4198TIP3    H134085   4.360   0.224   2.007 -0.9669  0.5732  0.3122
 4198TIP3    H234086   4.364   0.088   2.074  0.7026  0.1047 -0.6762
 4199TIP3   OH234087   0.211   3.296  16.307  0.4050  0.2946  0.4349
 4199TIP3    H134088   0.302   3.268  16.315  0.5972  1.2541  1.9035
 4199TIP3    H234089   0.166   3.256  16.381 -0.2921  0.1918 -0.0232
 4200TIP3   OH234090   4.420   0.899  15.547  0.2219  0.2066  0.1436
 4200TIP3    H134091   4.364   0.976  15.558 -0.5585 -0.1704 -1.0520
 4200TIP3    H234092   4.404   0.846  15.625 -0.5936  0.4133  0.1210
 4201TIP3   OH234093   0.655   3.088  11.763  0.0280 -0.0474 -0.4068
 4201TIP3    H134094   0.631   3.168  11.811  0.5267  0.8416 -1.5787
 4201TIP3    H234095   0.711   3.040  11.824 -0.0355  0.6451  0.2230
 4202TIP3   OH234096   1.815   2.802   2.925 -0.1635  0.2064 -0.4149
 4202TIP3    H134097   1.908   2.781   2.923  0.0321  1.0540 -0.4143
 4202TIP3    H234098   1.793   2.825   2.835 -0.3441  0.1149 -0.3954
 4203TIP3   OH234099   1.632   5.409  15.476  0.0029  0.0508 -0.1452
 4203TIP3    H134100   1.591   5.354  15.409 -2.0441 -0.3809  1.3436
 4203TIP3    H234101   1.650   5.349  15.548  3.2386  0.2750 -0.6430
 4204TIP3   OH234102   4.408   0.960   0.651 -0.5596  1.2010  0.1209
 4204TIP3    H134103   4.429   0.929   0.563  1.3302 -0.2397  1.0106
 4204TIP3    H234104   4.482   1.016   0.676  0.6254 -1.0252  1.9614
 4205TIP3   OH234105   6.446   5.301   5.711  0.5999 -0.0619 -0.6995
 4205TIP3    H134106   6.450   5.395   5.696 -0.8120  0.0361 -0.5949
 4205TIP3    H234107   6.410   5.292   5.799  0.8280 -0.6959 -0.6656
 4206TIP3   OH234108   5.789   4.953  14.153 -1.0609  0.1973  0.0017
 4206TIP3    H134109   5.713   4.949  14.094  0.1081 -3.3881 -1.5526
 4206TIP3    H234110   5.764   4.899  14.228  0.0951 -1.5839 -0.8389
 4207TIP3   OH234111   4.891   0.762   4.652 -0.0285  0.0357 -0.0594
 4207TIP3    H134112   4.872   0.703   4.724 -0.3016 -1.2328 -1.1374
 4207TIP3    H234113   4.805   0.799   4.627  0.0334  0.2976  0.1099
 4208TIP3   OH234114   5.472   0.905   1.117 -0.0388 -0.5724 -0.0818
 4208TIP3    H134115   5.398   0.900   1.178 -0.0518 -1.5025 -0.1653
 4208TIP3    H234116   5.548   0.920   1.174 -0.3234  0.8336 -0.0287
 4209TIP3   OH234117   1.822   5.356   0.234  0.1025 -0.4955 -0.0414
 4209TIP3    H134118   1.822   5.374   0.140 -1.0944 -0.4769 -0.0424
 4209TIP3    H234119   1.819   5.442   0.274 -1.1843 -0.5428 -0.0105
 4210TIP3   OH234120   0.216   6.783  15.251 -0.1923  0.5225 -0.5518
 4210TIP3    H134121   0.219   6.739  15.335  2.4491 -0.1193 -0.8868
 4210TIP3    H234122   0.181   6.870  15.270 -0.5303  0.0686  1.0118
 4211TIP3   OH234123   1.587   1.524  11.156 -0.3267 -0.0130 -0.4472
 4211TIP3    H134124   1.650   1.484  11.096  0.9028  0.8379  0.2318
 4211TIP3    H234125   1.628   1.517  11.243  0.1457  2.9616 -0.3266
 4212TIP3   OH234126   0.606   1.094   0.051  0.2275 -0.1160  0.3754
 4212TIP3    H134127   0.529   1.059   0.005  0.2166  1.1893 -0.6547
 4212TIP3    H234128   0.679   1.045   0.015 -0.1581 -2.0685  2.0703
 4213TIP3   OH234129   5.759   3.423   0.761 -0.0653  0.4545  0.5224
 4213TIP3    H134130   5.666   3.411   0.741  0.1311 -0.5689  0.1573
 4213TIP3    H234131   5.784   3.344   0.809  1.0320 -0.1282 -0.9299
 4214TIP3   OH234132   5.477   3.656  12.869  0.2355 -0.4624 -0.7964
 4214TIP3    H134133   5.440   3.731  12.824  1.5066 -0.4502 -1.8677
 4214TIP3    H234134   5.464   3.675  12.962  2.1676  2.0349 -0.9166
 4215TIP3   OH234135   3.100   0.076  16.572  0.0015 -0.0650 -0.3424
 4215TIP3    H134136   3.143   0.133  16.509  1.2092 -0.8987 -0.3067
 4215TIP3    H234137   3.049   0.135  16.628  1.2176  0.9807 -0.3118
 4216TIP3   OH234138   6.505   4.025   2.843  0.2186 -0.0023 -0.0031
 4216TIP3    H134139   6.413   4.049   2.832 -0.4903 -1.2679  2.4720
 4216TIP3    H234140   6.517   4.020   2.938  2.9875  0.5519 -0.2420
 4217TIP3   OH234141   4.372   6.078   0.790  0.0216 -0.2519 -0.0637
 4217TIP3    H134142   4.314   6.137   0.742  2.3659  0.5694 -2.0855
 4217TIP3    H234143   4.363   6.104   0.881 -2.2524  0.2365 -0.3472
 4218TIP3   OH234144   4.690   4.610   5.743 -0.2275  0.1117  0.0582
 4218TIP3    H134145   4.713   4.691   5.788  1.3207 -0.9381  1.2323
 4218TIP3    H234146   4.639   4.639   5.667  0.1402  2.1559  0.5324
 4219TIP3   OH234147   2.136   1.935   1.212  0.6820  0.1359 -0.3427
 4219TIP3    H134148   2.167   1.883   1.286 -0.1132  1.2574  0.8291
 4219TIP3    H234149   2.165   1.887   1.135  0.4066 -1.7796  0.6766
 4220TIP3   OH234150   2.392   4.857  12.380 -0.0702  0.1794 -0.0836
 4220TIP3    H134151   2.457   4.849  12.450 -0.3008  0.2319  0.1354
 4220TIP3    H234152   2.354   4.770  12.372 -0.1473  0.2094 -0.0441
 4221TIP3   OH234153   6.307   2.801  11.626  0.4204  0.4026 -0.0663
 4221TIP3    H134154   6.370   2.753  11.679  1.2471  2.3453  0.8311
 4221TIP3    H234155   6.358   2.873  11.588 -1.3568  2.6779  1.5552
 4222TIP3   OH234156   3.206   3.245   3.389 -0.5469 -0.2663 -0.0833
 4222TIP3    H134157   3.137   3.184   3.362 -2.4651  1.8118 -0.0994
 4222TIP3    H234158   3.226   3.220   3.480 -1.7418 -0.5377  0.1183
 4223TIP3   OH234159   4.658   5.129  11.619 -0.0291 -0.2095 -0.1817
 4223TIP3    H134160   4.568   5.097  11.618 -0.6081  1.3216 -1.1922
 4223TIP3    H234161   4.677   5.145  11.711 -0.4347 -1.4313  0.1358
 4224TIP3   OH234162   4.285   3.341   2.238  0.3274 -0.6015 -0.5358
 4224TIP3    H134163   4.281   3.260   2.289 -0.2506 -0.8285 -0.9340
 4224TIP3    H234164   4.245   3.318   2.154 -0.1015  0.1724 -0.5487
 4225TIP3   OH234165   2.730   6.007   1.458  0.1694  0.7460 -0.7143
 4225TIP3    H134166   2.665   6.058   1.409 -0.2110 -0.5176 -1.5664
 4225TIP3    H234167   2.732   5.922   1.414  0.2626 -0.2453  1.1109
 4226TIP3   OH234168   6.808   2.637  12.886  0.3434  0.5632  0.2354
 4226TIP3    H134169   6.714   2.619  12.887  0.4134  0.1815  0.6790
 4226TIP3    H234170   6.843   2.581  12.956  1.1228 -0.5307 -1.0001
 4227TIP3   OH234171   2.186   4.642   5.841  0.5750 -0.0289  0.7873
 4227TIP3    H134172   2.172   4.730   5.807 -0.2714 -0.7938 -1.0007
 4227TIP3    H234173   2.259   4.607   5.790  1.1244 -0.2658  1.7088
 4228TIP3   OH234174   4.576   1.866   3.611 -0.1152 -0.1401  0.1585
 4228TIP3    H134175   4.544   1.951   3.642  0.7355  0.0088  0.6413
 4228TIP3    H234176   4.566   1.807   3.685 -0.7235 -0.4816 -0.1825
 4229TIP3   OH234177   6.192   6.339  13.896 -0.0611  0.4557  0.0397
 4229TIP3    H134178   6.153   6.263  13.939  0.3420 -0.2072 -0.7354
 4229TIP3    H234179   6.121   6.376  13.845  0.1891 -0.5470 -1.0940
 4230TIP3   OH234180   3.593   0.674   5.798 -0.1413  0.3600  0.6400
 4230TIP3    H134181   3.534   0.607   5.764 -1.3007  0.7611  1.8153
 4230TIP3    H234182   3.598   0.657   5.892  2.3789 -0.2368  0.4807
 4231TIP3   OH234183   4.727   1.813  13.408  0.5277  0.9821 -0.6451
 4231TIP3    H134184   4.691   1.758  13.477 -0.8685  1.3828 -1.0097
 4231TIP3    H234185   4.660   1.812  13.339  1.7472  0.8327 -1.8713
 4232TIP3   OH234186   3.184   0.988   5.870 -0.4998  0.2844  0.0373
 4232TIP3    H134187   3.130   1.046   5.923 -0.1657 -0.2800  1.0377
 4232TIP3    H234188   3.207   0.917   5.930  2.3867  1.1169  0.0642
 4233TIP3   OH234189   2.624   0.893   0.410  0.1726 -0.3316 -0.7145
 4233TIP3    H134190   2.591   0.817   0.458 -1.9419  0.1338 -1.3568
 4233TIP3    H234191   2.670   0.855   0.334  1.4582 -0.9899  0.3358
 4234TIP3   OH234192   1.601   2.889   2.655  0.1650 -0.2741 -0.2911
 4234TIP3    H134193   1.585   2.981   2.673 -0.5461 -0.1401 -1.5219
 4234TIP3    H234194   1.644   2.887   2.570 -2.9266 -1.1733 -2.0030
 4235TIP3   OH234195   0.209   4.632   3.061 -0.2672 -0.4430 -0.7422
 4235TIP3    H134196   0.261   4.585   3.125  3.1151 -0.1632 -3.0234
 4235TIP3    H234197   0.180   4.565   2.999 -1.1309 -0.3585 -0.4374
 4236TIP3   OH234198   3.429   5.469   6.377  0.0698  0.8957  0.2026
 4236TIP3    H134199   3.364   5.445   6.443 -0.0635  0.6987  0.0000
 4236TIP3    H234200   3.471   5.387   6.352  2.2085  1.2834  2.1931
 4237TIP3   OH234201   5.463   0.716  15.608  0.2258  0.2065 -0.3192
 4237TIP3    H134202   5.554   0.708  15.638  0.6166  0.5928 -1.3538
 4237TIP3    H234203   5.467   0.701  15.513 -0.9323 -0.7121 -0.2494
 4238TIP3   OH234204   4.117   6.542   3.926 -0.1868 -0.6027 -0.3377
 4238TIP3    H134205   4.173   6.471   3.895 -0.6092 -1.6732  1.2381
 4238TIP3    H234206   4.050   6.498   3.979 -0.6568  0.9540  0.4029
 4239TIP3   OH234207   1.623   3.711  11.667  0.3149  0.5364 -0.6435
 4239TIP3    H134208   1.648   3.798  11.697  0.3623  0.7069 -1.1773
 4239TIP3    H234209   1.662   3.703  11.580  1.0267 -0.3443 -0.2532
 4240TIP3   OH234210   4.137   1.366   4.106 -0.0474 -0.4449 -0.0249
 4240TIP3    H134211   4.067   1.407   4.157  0.7087  0.6927  0.1339
 4240TIP3    H234212   4.118   1.272   4.111 -0.9591 -0.2372  0.8974
 4241TIP3   OH234213   3.829   4.991  12.018  0.4678  0.2164 -0.4300
 4241TIP3    H134214   3.857   4.970  11.929  0.6194 -0.5128 -0.2182
 4241TIP3    H234215   3.827   4.907  12.063 -0.5617  0.4483 -0.0070
 4242TIP3   OH234216   1.201   4.624   0.356 -0.4173  0.2062 -0.2007
 4242TIP3    H134217   1.228   4.577   0.277 -0.8941 -1.4227  0.5630
 4242TIP3    H234218   1.160   4.704   0.324  1.4318  0.7007 -1.5150
 4243TIP3   OH234219   3.062   1.661   1.772 -0.4442 -0.0026 -0.3066
 4243TIP3    H134220   3.059   1.688   1.680  0.4857  1.2727  0.0037
 4243TIP3    H234221   3.095   1.571   1.769  1.4551  0.6583 -1.1622
 4244TIP3   OH234222   2.937   5.600  12.525  0.0996 -0.4640  0.1612
 4244TIP3    H134223   2.996   5.579  12.597 -0.3502 -1.5846  0.2272
 4244TIP3    H234224   2.877   5.665  12.561  0.7233 -0.0065  0.3745
 4245TIP3   OH234225   1.402   5.109   6.611  0.6308 -0.4456  0.7510
 4245TIP3    H134226   1.428   5.058   6.534 -0.6522 -0.5546  0.3720
 4245TIP3    H234227   1.350   5.048   6.663  0.6835 -0.0783  1.2414
 4246TIP3   OH234228   5.228   1.285   1.404  0.2083  0.0737 -0.6899
 4246TIP3    H134229   5.206   1.248   1.319  1.0230 -1.1072 -0.4082
 4246TIP3    H234230   5.289   1.223   1.443 -0.5526  0.3129  0.9940
 4247TIP3   OH234231   4.139   0.266  16.794  0.7249 -0.0284  0.1494
 4247TIP3    H134232   4.100   0.259  16.881  0.5971  0.7189  0.1602
 4247TIP3    H234233   4.216   0.322  16.807 -0.9319  2.6455 -0.7038
 4248TIP3   OH234234   2.252   3.638  13.187  0.0155  0.5642 -0.4190
 4248TIP3    H134235   2.223   3.549  13.207 -1.5624  1.5255  1.9745
 4248TIP3    H234236   2.280   3.634  13.095  1.3341 -2.6802 -0.0038
 4249TIP3   OH234237   6.146   4.593   0.562  0.4165 -0.2382  0.1247
 4249TIP3    H134238   6.217   4.588   0.498 -0.2007 -1.7413 -0.4850
 4249TIP3    H234239   6.113   4.504   0.568 -1.3639  0.4060  0.4448
 4250TIP3   OH234240   2.998   5.585   0.393  0.4830  0.3032 -0.4855
 4250TIP3    H134241   3.046   5.667   0.402 -0.9992  1.0964  0.7036
 4250TIP3    H234242   3.063   5.516   0.410  1.5483  1.2628 -0.5956
 4251TIP3   OH234243   1.185   6.468   2.412 -0.4418 -0.6778 -0.3776
 4251TIP3    H134244   1.279   6.470   2.392 -0.3768 -0.9125 -0.0925
 4251TIP3    H234245   1.169   6.550   2.458 -0.3458 -0.7149 -0.2801
 4252TIP3   OH234246   0.820   5.180   3.099 -0.1961  0.0781  0.2513
 4252TIP3    H134247   0.736   5.213   3.064 -0.4428 -1.0225 -0.2335
 4252TIP3    H234248   0.826   5.219   3.186 -0.3758  1.5565 -0.3723
 4253TIP3   OH234249   5.241   3.237   2.505  0.4156  0.3354 -0.1408
 4253TIP3    H134250   5.262   3.194   2.588  1.4171  0.3999 -0.3568
 4253TIP3    H234251   5.325   3.253   2.463  0.3131  4.1530  0.7115
 4254TIP3   OH234252   3.984   5.473   3.234  0.1064  0.2997  0.0644
 4254TIP3    H134253   3.999   5.552   3.181 -0.3318 -0.5172 -1.3384
 4254TIP3    H234254   3.897   5.443   3.208  1.2532 -2.0778 -1.4504
 4255TIP3   OH234255   2.836   3.851   2.967  0.3193 -0.6032  0.0753
 4255TIP3    H134256   2.884   3.768   2.960  1.0612 -0.4318  2.2520
 4255TIP3    H234257   2.747   3.829   2.942  0.4346 -2.1543  0.9006
 4256TIP3   OH234258   0.713   5.279  13.915  0.2449  0.3930  0.0093
 4256TIP3    H134259   0.785   5.310  13.970  0.3266 -0.4961  0.4146
 4256TIP3    H234260   0.750   5.206  13.865 -0.1739  0.3992 -0.3223
 4257TIP3   OH234261   1.940   6.826   0.285  0.3480  0.1394  0.3356
 4257TIP3    H134262   1.959   6.756   0.348  1.8637  1.1076  1.0167
 4257TIP3    H234263   1.964   6.789   0.200  1.2533 -0.1565  0.7040
 4258TIP3   OH234264   3.782   0.097   1.403 -0.0303  0.1348  0.2519
 4258TIP3    H134265   3.738   0.176   1.371 -2.4081 -1.2442 -0.1056
 4258TIP3    H234266   3.741   0.078   1.487  1.7220  0.1799  1.1668
 4259TIP3   OH234267   3.642   1.924   2.412  0.2086  0.7681 -0.6241
 4259TIP3    H134268   3.640   1.986   2.485  1.9561  0.5536 -0.3530
 4259TIP3    H234269   3.645   1.979   2.334 -0.4460  1.0000 -0.4934
 4260TIP3   OH234270   1.738   4.252  16.068 -0.8509  0.1214  0.2606
 4260TIP3    H134271   1.815   4.217  16.024  1.1078  1.9333  1.9807
 4260TIP3    H234272   1.665   4.231  16.010  0.9126 -1.6082 -1.5001
 4261TIP3   OH234273   0.769   6.724  15.941 -0.0999 -0.4578  0.2272
 4261TIP3    H134274   0.798   6.637  15.916 -1.2714 -0.6930 -0.3874
 4261TIP3    H234275   0.840   6.782  15.913 -0.3947 -0.9538 -1.6533
 4262TIP3   OH234276   3.864   4.830   5.979  0.1449  0.4025 -0.0065
 4262TIP3    H134277   3.876   4.919   6.012  1.5940  0.1152  0.3260
 4262TIP3    H234278   3.953   4.795   5.973 -0.4708 -1.6346  1.5926
 4263TIP3   OH234279   0.517   3.319   3.722 -0.4373 -0.4238 -0.0007
 4263TIP3    H134280   0.557   3.335   3.636  2.5653 -0.8200  1.1998
 4263TIP3    H234281   0.521   3.224   3.732 -0.9181 -0.3901  0.5080
 4264TIP3   OH234282   4.066   4.287   0.674  0.0560  0.3984  0.2108
 4264TIP3    H134283   4.044   4.195   0.685 -0.5080  0.6701  1.5681
 4264TIP3    H234284   4.027   4.331   0.750  1.4905  1.5603  0.3351
 4265TIP3   OH234285   0.994   4.718  13.693 -0.1741 -0.0213  0.4517
 4265TIP3    H134286   1.059   4.766  13.641  0.0643 -2.0847 -1.3164
 4265TIP3    H234287   0.924   4.697  13.631 -0.0990 -2.1923  1.0083
 4266TIP3   OH234288   6.481   2.827   4.397  0.9950 -0.4042  0.1864
 4266TIP3    H134289   6.484   2.775   4.316  1.1489  0.8697 -0.6501
 4266TIP3    H234290   6.392   2.813   4.430  0.6788 -0.3570 -0.6082
 4267TIP3   OH234291   4.193   0.519  16.217 -0.2003 -0.3629  0.3324
 4267TIP3    H134292   4.280   0.550  16.242  0.0559  0.0143 -0.9897
 4267TIP3    H234293   4.147   0.510  16.301  0.2954  1.8368  0.9144
 4268TIP3   OH234294   3.307   4.292  11.327  0.3695 -0.0539  0.2129
 4268TIP3    H134295   3.399   4.314  11.310  0.2198  0.8007  0.4718
 4268TIP3    H234296   3.305   4.196  11.323  1.3633 -0.1121  0.6717
 4269TIP3   OH234297   5.026   5.938  11.425 -0.1463  0.5840 -0.4808
 4269TIP3    H134298   4.987   6.007  11.477 -1.5583  0.3670 -1.2130
 4269TIP3    H234299   4.957   5.873  11.415  0.9688 -0.6900 -0.2813
 4270TIP3   OH234300   2.907   5.413   4.239 -0.0070  0.2232 -0.0130
 4270TIP3    H134301   2.951   5.396   4.322 -0.9604  0.2518  0.5144
 4270TIP3    H234302   2.949   5.353   4.177  0.5312  0.0089  0.5486
 4271TIP3   OH234303   1.543   1.253  12.310  0.1229  0.3862  0.0402
 4271TIP3    H134304   1.563   1.201  12.387 -1.6699  1.6391  1.4235
 4271TIP3    H234305   1.551   1.343  12.338 -1.9948  0.9005 -0.7632
 4272TIP3   OH234306   2.082   2.178   1.070 -0.0796 -0.5876 -0.4246
 4272TIP3    H134307   2.068   2.262   1.114  2.5776 -0.3356  0.1162
 4272TIP3    H234308   2.032   2.115   1.122 -3.6776  0.7724 -1.9026
 4273TIP3   OH234309   0.465   3.970   5.691  0.2141  0.2630  0.0541
 4273TIP3    H134310   0.486   3.979   5.598 -0.5786 -1.1037 -0.2890
 4273TIP3    H234311   0.467   3.876   5.707  0.8842  0.5124  1.5687
 4274TIP3   OH234312   5.286   6.704  15.126 -0.5227  0.2211  0.1471
 4274TIP3    H134313   5.271   6.692  15.032  2.6277 -0.9317 -0.3251
 4274TIP3    H234314   5.367   6.657  15.144 -1.3424 -0.1831  3.6279
 4275TIP3   OH234315   6.372   0.159  14.744  0.5395 -0.2423 -0.3758
 4275TIP3    H134316   6.459   0.173  14.782 -0.4001  2.0332  1.1547
 4275TIP3    H234317   6.377   0.200  14.657  1.1129 -0.5154 -0.4757
 4276TIP3   OH234318   1.951   5.809  14.944 -0.7243  0.2203  0.2071
 4276TIP3    H134319   1.940   5.824  14.850  0.2715 -1.9369 -0.3208
 4276TIP3    H234320   1.867   5.774  14.973  0.0158 -2.4782 -0.6928
 4277TIP3   OH234321   4.668   2.517  17.087  0.8368 -0.2930 -0.0622
 4277TIP3    H134322   4.637   2.429  17.106 -0.5881  0.1313 -0.2647
 4277TIP3    H234323   4.714   2.545  17.166  0.6961 -0.9646  0.2621
 4278TIP3   OH234324   1.356   5.013   6.018  0.3864 -0.7115  0.7175
 4278TIP3    H134325   1.290   4.945   6.002  0.9399 -1.0488 -0.1507
 4278TIP3    H234326   1.440   4.969   6.004  0.7573  0.1148  0.2929
 4279TIP3   OH234327   4.565   3.756   3.412  0.1599 -0.0895 -0.6755
 4279TIP3    H134328   4.592   3.722   3.497  0.4095 -0.3211 -0.8450
 4279TIP3    H234329   4.634   3.728   3.352 -0.1601 -0.1786 -1.0049
 4280TIP3   OH234330   6.749   5.080  13.417  0.4156 -0.6265  0.4212
 4280TIP3    H134331   6.801   5.079  13.497  1.2887 -3.1043 -0.0843
 4280TIP3    H234332   6.742   4.988  13.392  0.7002  0.0809 -2.6571
 4281TIP3   OH234333   5.476   6.350   2.183  0.4952 -0.2964  0.1795
 4281TIP3    H134334   5.545   6.350   2.249 -0.4216 -0.8245  1.1700
 4281TIP3    H234335   5.522   6.365   2.100  1.5873  1.0887  0.9994
 4282TIP3   OH234336   3.298   4.901  14.733  0.6636  0.3633 -0.1581
 4282TIP3    H134337   3.208   4.903  14.702 -0.1554  0.5166  2.0986
 4282TIP3    H234338   3.318   4.808  14.743  1.1889  0.2743 -1.6970
 4283TIP3   OH234339   3.732   4.169   5.362  0.1707  0.1272 -0.0325
 4283TIP3    H134340   3.748   4.181   5.455  1.7348  1.8938 -0.4657
 4283TIP3    H234341   3.667   4.236   5.340 -0.9996 -0.9706 -0.0563
 4284TIP3   OH234342   5.933   2.367   0.132 -0.0979 -0.2161 -0.5692
 4284TIP3    H134343   5.982   2.445   0.105 -1.3309  0.3734 -1.2283
 4284TIP3    H234344   5.958   2.301   0.068 -1.6199  0.6600 -2.1776
 4285TIP3   OH234345   2.878   0.976  16.085 -0.0751  0.1683  0.4076
 4285TIP3    H134346   2.838   1.063  16.084  1.5398  0.9748 -1.4951
 4285TIP3    H234347   2.969   0.992  16.109  0.6890 -0.6994 -1.6644
 4286TIP3   OH234348   0.411   1.605  12.635  0.1508  0.2719 -0.0974
 4286TIP3    H134349   0.450   1.535  12.581  1.0717  0.1990  0.6353
 4286TIP3    H234350   0.461   1.602  12.717 -0.4040  1.2055  0.2824
 4287TIP3   OH234351   5.562   2.257  10.770 -0.4958 -0.5774 -0.1080
 4287TIP3    H134352   5.542   2.198  10.842 -0.9233 -1.2892 -0.7895
 4287TIP3    H234353   5.644   2.300  10.795  0.6238 -2.5334 -0.2340
 4288TIP3   OH234354   3.561   0.493  10.441 -0.3832 -0.2987 -0.1662
 4288TIP3    H134355   3.514   0.411  10.429  0.6496 -1.0264  0.6121
 4288TIP3    H234356   3.647   0.467  10.475  0.1542  1.0657 -0.4180
 4289TIP3   OH234357   3.091   3.698  14.937 -0.7866 -0.3370 -0.4490
 4289TIP3    H134358   3.161   3.763  14.937 -0.0244 -1.1288  0.3037
 4289TIP3    H234359   3.039   3.719  15.014 -0.0039 -1.1533  0.3225
 4290TIP3   OH234360   6.418   0.234   4.473 -0.8519 -0.2767  0.4913
 4290TIP3    H134361   6.510   0.247   4.448 -0.7871  1.2896  1.3785
 4290TIP3    H234362   6.422   0.201   4.563 -1.1213  1.5871  1.2448
 4291TIP3   OH234363   4.528   1.497  13.939  0.5574  0.0193 -0.2888
 4291TIP3    H134364   4.603   1.498  13.999 -0.4499 -1.3864  1.0598
 4291TIP3    H234365   4.452   1.487  13.996 -0.5493 -0.0504 -1.7305
 4292TIP3   OH234366   1.506   5.029  14.381 -0.2112 -0.2001  0.2829
 4292TIP3    H134367   1.565   5.056  14.311 -0.3785  0.6030  0.4387
 4292TIP3    H234368   1.548   4.953  14.420  2.1821  1.8787  2.1532
 4293TIP3   OH234369   4.225   4.840  12.061 -0.2711 -0.1703  0.0780
 4293TIP3    H134370   4.189   4.921  12.027 -1.9276 -0.4963  0.9527
 4293TIP3    H234371   4.185   4.771  12.008  1.8232 -0.4405 -1.2749
 4294TIP3   OH234372   2.059   5.938   5.383  0.1764 -0.1988 -0.2763
 4294TIP3    H134373   1.981   5.893   5.414 -0.1404  1.5244  1.6508
 4294TIP3    H234374   2.045   5.951   5.289 -2.5491  1.3155  0.2495
 4295TIP3   OH234375   2.533   6.598  13.331 -0.3366  0.2825 -0.7879
 4295TIP3    H134376   2.546   6.686  13.296 -0.0850  0.4147 -0.3626
 4295TIP3    H234377   2.445   6.600  13.369  0.2934  0.8540  0.7003
 4296TIP3   OH234378   1.755   1.568  13.005 -0.3388 -0.1122  0.2362
 4296TIP3    H134379   1.675   1.619  13.017  0.2997  2.0347 -3.1051
 4296TIP3    H234380   1.822   1.619  13.050 -0.4356 -0.5897  0.9322
 4297TIP3   OH234381   0.808   5.707  12.024  0.1207 -0.0661 -0.6014
 4297TIP3    H134382   0.897   5.707  12.060 -0.6184 -0.4670  1.3358
 4297TIP3    H234383   0.785   5.615  12.015 -1.2109 -0.0670  1.9771
 4298TIP3   OH234384   1.944   5.262  13.187  0.3579  0.4590 -0.0201
 4298TIP3    H134385   1.940   5.304  13.102  1.0789  0.0948 -0.2441
 4298TIP3    H234386   1.927   5.332  13.250 -0.6040  0.6468 -0.4702
 4299TIP3   OH234387   4.705   3.265  16.662  0.2550 -0.6669  0.7725
 4299TIP3    H134388   4.753   3.231  16.587  0.4354  0.2333  0.4733
 4299TIP3    H234389   4.687   3.187  16.716 -0.5150 -1.4308 -0.5446
 4300TIP3   OH234390   3.316   1.742   5.330  0.7415  0.1624 -0.1035
 4300TIP3    H134391   3.401   1.726   5.371  0.1157 -2.1462  0.4646
 4300TIP3    H234392   3.256   1.758   5.403  0.1027 -1.5110 -0.2081
 4301TIP3   OH234393   5.379   1.621  14.521 -0.6669  0.2742 -0.1590
 4301TIP3    H134394   5.330   1.681  14.578  0.2861  1.0113 -0.0925
 4301TIP3    H234395   5.468   1.620  14.556 -0.4282 -0.4334 -0.7452
 4302TIP3   OH234396   2.266   5.545  13.869  0.1625 -0.0462 -0.0026
 4302TIP3    H134397   2.192   5.518  13.923  1.1394 -0.6211  1.0992
 4302TIP3    H234398   2.287   5.467  13.818  1.3007 -0.5891  1.2288
 4303TIP3   OH234399   6.782   6.406   2.200  0.1000  0.5015 -0.1664
 4303TIP3    H134400   6.768   6.476   2.137  0.0472  2.1635  1.6196
 4303TIP3    H234401   6.719   6.338   2.174 -0.3511  1.3841 -1.5014
 4304TIP3   OH234402   2.226   6.265   1.843 -0.1616 -0.0855  0.4291
 4304TIP3    H134403   2.168   6.296   1.913  0.2073  0.7994  0.3502
 4304TIP3    H234404   2.181   6.289   1.762 -0.0582 -0.1033  0.3671
 4305TIP3   OH234405   3.520   5.052  16.545 -0.4146  0.2321 -0.0756
 4305TIP3    H134406   3.548   5.094  16.464 -0.3571  0.0545 -0.1475
 4305TIP3    H234407   3.589   4.989  16.565 -1.1262 -0.7669 -0.6818
 4306TIP3   OH234408   6.211   5.529  16.411 -0.3311  0.2657 -0.3610
 4306TIP3    H134409   6.133   5.577  16.381 -2.0011 -1.6349  0.6819
 4306TIP3    H234410   6.257   5.507  16.330 -1.4652  0.4938 -1.0970
 4307TIP3   OH234411   1.358   5.117  12.688 -0.3332 -0.4967 -0.1471
 4307TIP3    H134412   1.337   5.102  12.780 -0.5536 -2.0425 -0.4075
 4307TIP3    H234413   1.273   5.119  12.644 -0.4177  2.8806 -0.0422
 4308TIP3   OH234414   3.648   3.909  10.541  0.5075 -0.1793  0.2593
 4308TIP3    H134415   3.599   3.826  10.545  0.9483 -0.4641 -0.1822
 4308TIP3    H234416   3.627   3.945  10.455  3.3489 -1.7538 -1.2253
 4309TIP3   OH234417   3.411   0.748   4.836  0.4687  0.3354  0.1424
 4309TIP3    H134418   3.334   0.692   4.837  2.6708 -3.0999 -1.3671
 4309TIP3    H234419   3.379   0.833   4.808 -2.5826 -1.4055 -2.3450
 4310TIP3   OH234420   5.340   1.295  13.763 -0.3672 -0.4751  0.1493
 4310TIP3    H134421   5.310   1.305  13.672 -1.6735  0.6391  0.6537
 4310TIP3    H234422   5.318   1.205  13.786 -0.1002 -0.7419 -0.6128
 4311TIP3   OH234423   4.759   1.109   1.428 -0.3065 -0.3439 -0.2474
 4311TIP3    H134424   4.788   1.094   1.338 -1.8770  0.0553 -0.8529
 4311TIP3    H234425   4.793   1.196   1.449 -0.8164  0.0119 -0.8492
 4312TIP3   OH234426   0.957   4.529   0.812 -0.5909 -0.0204  0.6714
 4312TIP3    H134427   0.983   4.589   0.882 -0.5350  2.1971 -1.1414
 4312TIP3    H234428   0.871   4.497   0.838 -0.8261  1.2268  1.5020
 4313TIP3   OH234429   4.793   0.907  12.407 -0.4629 -0.1603 -0.7072
 4313TIP3    H134430   4.706   0.942  12.427  0.0377  0.3214  0.8057
 4313TIP3    H234431   4.852   0.952  12.469  0.2573 -3.5445  1.3757
 4314TIP3   OH234432   3.449   5.343   2.690  0.1159 -0.3636  0.6499
 4314TIP3    H134433   3.510   5.312   2.758 -0.1691 -1.5207  0.3895
 4314TIP3    H234434   3.401   5.265   2.664  0.8000 -0.1248 -1.4887
 4315TIP3   OH234435   6.051   1.718  15.817 -0.3561  0.8485 -0.6201
 4315TIP3    H134436   6.134   1.753  15.784  0.0361  0.3363 -0.1910
 4315TIP3    H234437   6.005   1.795  15.851  0.3376  1.0155 -0.0334
 4316TIP3   OH234438   6.068   1.724   2.693  0.4266 -0.1886  0.5250
 4316TIP3    H134439   6.042   1.758   2.607  1.0948 -0.4160  0.2281
 4316TIP3    H234440   5.986   1.697   2.734 -0.0780  1.3097  0.5743
 4317TIP3   OH234441   4.586   2.892   0.169 -0.7052 -0.2128 -0.6372
 4317TIP3    H134442   4.638   2.957   0.121 -1.1894 -0.9512 -2.2133
 4317TIP3    H234443   4.585   2.815   0.112 -1.5616 -1.0313  0.4390
 4318TIP3   OH234444   5.878   6.236   6.283  0.0254 -0.4449  0.2293
 4318TIP3    H134445   5.862   6.319   6.329 -0.8842 -0.3751 -0.2037
 4318TIP3    H234446   5.839   6.169   6.339  0.0693 -0.4974  0.1973
 4319TIP3   OH234447   3.011   1.099  12.024 -0.5844 -0.0910 -0.3258
 4319TIP3    H134448   3.089   1.083  11.970  0.3411  1.3689  0.5106
 4319TIP3    H234449   2.943   1.123  11.961  0.0004 -0.1207 -0.9793
 4320TIP3   OH234450   0.048   5.933   5.285 -0.1511  0.3680 -0.5484
 4320TIP3    H134451  -0.009   5.866   5.322 -0.2282 -0.5539 -2.2340
 4320TIP3    H234452   0.067   5.902   5.196  1.5706  1.5147 -0.6327
 4321TIP3   OH234453   1.404   4.339  16.629 -0.1682  0.1524 -0.3088
 4321TIP3    H134454   1.381   4.381  16.546 -1.0002  0.3608  0.0185
 4321TIP3    H234455   1.431   4.251  16.604 -1.3072 -0.0959 -0.7237
 4322TIP3   OH234456   1.152   6.326  10.908  0.4476  0.4156 -0.0046
 4322TIP3    H134457   1.164   6.317  11.002 -2.3890 -0.5181  0.3625
 4322TIP3    H234458   1.174   6.418  10.890  2.7389  0.1862  1.1695
 4323TIP3   OH234459   0.861   2.883  12.744 -0.4954 -0.0616  0.3000
 4323TIP3    H134460   0.780   2.924  12.713 -1.3269 -1.2226  0.8422
 4323TIP3    H234461   0.921   2.887  12.670 -1.5495 -0.4454 -0.6010
 4324TIP3   OH234462   2.127   5.892  14.404 -0.2995 -0.2883 -0.1346
 4324TIP3    H134463   2.098   5.826  14.467 -1.0013  0.6105  0.5126
 4324TIP3    H234464   2.220   5.875  14.391 -0.6741 -2.0531 -0.7915
 4325TIP3   OH234465   2.539   2.418  16.801  0.2026  0.2383  0.0723
 4325TIP3    H134466   2.515   2.484  16.736 -1.0198  0.4914  0.7437
 4325TIP3    H234467   2.609   2.368  16.760  0.1481  1.0310 -1.0289
 4326TIP3   OH234468   3.748   2.327   3.202  0.0835 -0.3124  0.4605
 4326TIP3    H134469   3.796   2.266   3.259  0.9119  1.1796  1.4102
 4326TIP3    H234470   3.686   2.370   3.260  1.3173  1.6337  0.4075
 4327TIP3   OH234471   1.498   6.220   3.382  0.3438  0.2218  0.2273
 4327TIP3    H134472   1.491   6.292   3.445  0.5321  0.4174  0.0229
 4327TIP3    H234473   1.590   6.219   3.357  0.2279  0.2768 -0.2068
 4328TIP3   OH234474   6.680   6.296  11.742  0.2104  0.0094  0.0843
 4328TIP3    H134475   6.646   6.249  11.666 -0.4481  1.7836 -0.7596
 4328TIP3    H234476   6.739   6.233  11.784  0.3113 -1.1410 -1.6701
 4329TIP3   OH234477   4.026   0.488   4.254  0.5646  0.1450 -0.1674
 4329TIP3    H134478   4.001   0.559   4.313  1.5151  0.6720 -0.3869
 4329TIP3    H234479   4.110   0.515   4.217  2.4096 -2.3087  1.8501
 4330TIP3   OH234480   1.819   1.110  13.285  0.2370  0.3288 -0.3966
 4330TIP3    H134481   1.901   1.119  13.237  1.5200 -1.1946  1.3484
 4330TIP3    H234482   1.790   1.200  13.302  1.1363  0.8816 -1.6458
 4331TIP3   OH234483   3.784   0.891  13.648 -0.5926  0.3625 -0.3536
 4331TIP3    H134484   3.761   0.969  13.699  0.4730  0.7653 -0.4722
 4331TIP3    H234485   3.852   0.920  13.588  2.0318 -1.2549  1.5951
 4332TIP3   OH234486   4.257   3.964   5.252  0.8771 -0.4887 -0.3823
 4332TIP3    H134487   4.203   3.887   5.271  0.1981  0.3693  1.3203
 4332TIP3    H234488   4.309   3.977   5.331  0.2464  1.3827 -0.2358
 4333TIP3   OH234489   6.523   1.775  10.738  0.1561 -0.2217 -0.1017
 4333TIP3    H134490   6.552   1.864  10.758 -0.0947 -0.3167  0.7120
 4333TIP3    H234491   6.604   1.724  10.737  0.2041 -0.1717  0.4830
 4334TIP3   OH234492   3.817   4.922  15.972  0.2147  0.2834 -0.0640
 4334TIP3    H134493   3.850   4.894  15.886  2.1128  0.8030  0.4423
 4334TIP3    H234494   3.865   5.003  15.990 -1.1919  0.9351  0.8870
 4335TIP3   OH234495   6.322   4.307  12.533  0.0735 -0.6616  0.3221
 4335TIP3    H134496   6.289   4.311  12.444  0.8872  0.5292  0.0426
 4335TIP3    H234497   6.266   4.243  12.577 -0.9261 -0.5830 -0.7869
 4336TIP3   OH234498   3.106   1.412  17.143  0.7241  0.6787  0.3691
 4336TIP3    H134499   3.188   1.458  17.124  1.0503 -0.4630 -1.1401
 4336TIP3    H234500   3.040   1.482  17.150  1.4481  1.4704 -0.5159
 4337TIP3   OH234501   6.504   3.793   1.375  0.2473 -0.4824  0.1142
 4337TIP3    H134502   6.533   3.779   1.465 -1.4146  2.1408  1.1812
 4337TIP3    H234503   6.426   3.738   1.366 -0.9741  0.9914  1.1670
 4338TIP3   OH234504   0.922   4.613  14.814  0.1127  0.0862 -0.1057
 4338TIP3    H134505   0.936   4.655  14.729  1.0375  0.6190  0.2970
 4338TIP3    H234506   0.960   4.525  14.803  1.3566  0.5787  0.1220
 4339TIP3   OH234507   0.511   4.759   3.343 -0.1693 -0.3885  0.6387
 4339TIP3    H134508   0.561   4.694   3.294 -0.3447 -1.3805  1.7512
 4339TIP3    H234509   0.572   4.796   3.406  0.5271  2.0927 -1.3097
 4340TIP3   OH234510   1.079   6.635  15.407  0.2752 -0.6306 -0.7140
 4340TIP3    H134511   1.046   6.577  15.475  0.4755 -0.3804 -0.4047
 4340TIP3    H234512   1.118   6.576  15.342  0.0567 -0.8682 -0.6296
 4341TIP3   OH234513   5.806   1.280   1.531 -0.1863 -0.1545 -0.1970
 4341TIP3    H134514   5.844   1.209   1.582  0.7543 -0.4462 -1.2493
 4341TIP3    H234515   5.767   1.237   1.455 -0.2559  0.3929 -0.4768
 4342TIP3   OH234516   6.464   0.407   3.963 -0.4269  0.2443 -0.4658
 4342TIP3    H134517   6.502   0.422   4.049  1.7407  2.4548 -1.6716
 4342TIP3    H234518   6.424   0.491   3.940  0.2111  0.1262 -2.1196
 4343TIP3   OH234519   4.521   5.316   0.498 -0.4909 -1.1690  0.1939
 4343TIP3    H134520   4.578   5.391   0.515 -1.7006  0.0879 -0.9896
 4343TIP3    H234521   4.570   5.261   0.436 -1.2068  0.8797 -2.3782
 4344TIP3   OH234522   6.565   4.799   1.750 -0.3575  0.0467  0.0892
 4344TIP3    H134523   6.499   4.843   1.696 -0.8870 -0.7898  0.0312
 4344TIP3    H234524   6.522   4.719   1.779 -0.5289  0.9991  2.7438
 4345TIP3   OH234525   2.258   2.659   0.747 -1.0621  0.1829  0.2429
 4345TIP3    H134526   2.243   2.593   0.679  0.9168 -0.8178  0.7182
 4345TIP3    H234527   2.347   2.689   0.732 -0.4663 -0.2469  2.5527
 4346TIP3   OH234528   5.845   4.286  13.312 -0.0344 -0.0673 -0.7097
 4346TIP3    H134529   5.799   4.232  13.248 -1.4925 -0.8915  0.9286
 4346TIP3    H234530   5.834   4.239  13.395 -0.3967  2.1784  0.5969
 4347TIP3   OH234531   2.305   2.463  15.480  0.5638 -0.0075 -0.2458
 4347TIP3    H134532   2.222   2.428  15.447  0.6647  0.5282 -1.0914
 4347TIP3    H234533   2.279   2.533  15.540  0.3736 -1.1190  1.0147
 4348TIP3   OH234534   1.860   3.149  13.410  0.0595  0.9973  0.8042
 4348TIP3    H134535   1.888   3.079  13.351 -0.6052  0.7582  0.7584
 4348TIP3    H234536   1.878   3.230  13.363 -1.2223  0.7872 -0.0782
 4349TIP3   OH234537   6.481   6.110  16.753  0.3760 -0.1509  0.1109
 4349TIP3    H134538   6.554   6.050  16.768  1.1966  0.6780 -0.4252
 4349TIP3    H234539   6.519   6.197  16.764 -0.5356  0.2992 -0.1797
 4350TIP3   OH234540   2.758   5.585  11.847  0.6047  0.0851  0.0602
 4350TIP3    H134541   2.708   5.573  11.928  1.5150 -1.3405  0.4308
 4350TIP3    H234542   2.725   5.668  11.812  1.9066  2.0567  3.1084
 4351TIP3   OH234543   6.837   1.681  14.747  0.2214  0.2426  0.9171
 4351TIP3    H134544   6.821   1.690  14.653 -1.4958  0.5112  1.2179
 4351TIP3    H234545   6.829   1.769  14.782 -0.8486 -0.1000  1.5576
 4352TIP3   OH234546   1.345   1.713   5.106 -0.0180 -0.5152  0.0234
 4352TIP3    H134547   1.333   1.768   5.028  0.8216  1.4906  1.2509
 4352TIP3    H234548   1.270   1.735   5.162  0.1850 -0.8201  0.4167
 4353TIP3   OH234549   3.419   6.827   3.154  0.5090 -0.2134 -0.3356
 4353TIP3    H134550   3.381   6.802   3.070  1.6438 -1.3470 -0.5376
 4353TIP3    H234551   3.486   6.892   3.132 -0.4102  0.8315 -0.1101
 4354TIP3   OH234552   2.807   4.139   1.419 -0.2160 -0.6293  0.0367
 4354TIP3    H134553   2.838   4.176   1.336  0.6039 -0.3983  0.4454
 4354TIP3    H234554   2.721   4.103   1.397  0.4296 -1.5274 -1.1803
 4355TIP3   OH234555   5.303   2.996  14.505 -0.2515 -0.8753 -0.2545
 4355TIP3    H134556   5.335   3.058  14.439  0.6321  0.1188  1.0380
 4355TIP3    H234557   5.268   3.052  14.575  0.2147 -1.8425  0.7772
 4356TIP3   OH234558   3.180   3.097  15.113 -0.1034  0.5118 -0.0286
 4356TIP3    H134559   3.146   3.079  15.026 -0.0592 -3.4081  0.6078
 4356TIP3    H234560   3.275   3.106  15.100 -0.0005 -0.8155 -0.3668
 4357TIP3   OH234561   1.294   0.296  16.944 -0.4235 -0.0661 -0.3448
 4357TIP3    H134562   1.370   0.335  16.900  0.3798  0.1488  1.1482
 4357TIP3    H234563   1.220   0.348  16.914 -0.0832 -0.5512 -2.1789
 4358TIP3   OH234564   2.661   3.711  14.352  0.3083  0.6978  0.1470
 4358TIP3    H134565   2.606   3.730  14.276  0.9982  0.9605 -0.2887
 4358TIP3    H234566   2.740   3.762  14.339  0.2322  1.1498  1.3015
 4359TIP3   OH234567   2.816   5.628   4.949  0.1415  0.3553 -0.0225
 4359TIP3    H134568   2.890   5.619   5.008  0.0540  0.0584  0.0439
 4359TIP3    H234569   2.808   5.722   4.935  1.0514  0.3424 -0.6998
 4360TIP3   OH234570   0.682   1.788   6.317 -0.0939  0.2321  0.2074
 4360TIP3    H134571   0.696   1.881   6.297  0.2514  0.2156  0.3637
 4360TIP3    H234572   0.770   1.752   6.326 -0.2030 -0.2733 -0.5802
 4361TIP3   OH234573   0.653   4.235  12.851 -0.1311 -0.4502  0.4158
 4361TIP3    H134574   0.651   4.150  12.894 -1.1308 -0.5134  0.2608
 4361TIP3    H234575   0.633   4.297  12.921 -0.7288 -0.4647  0.2639
 4362TIP3   OH234576   5.126   2.733   1.032 -0.6686 -0.3065 -0.1504
 4362TIP3    H134577   5.093   2.727   0.942  0.0894 -2.8369 -0.3296
 4362TIP3    H234578   5.126   2.643   1.064  1.9283  0.1195  1.3317
 4363TIP3   OH234579   2.192   0.426   3.413  0.1298  0.4693 -0.1535
 4363TIP3    H134580   2.202   0.506   3.466  2.4035  0.6358 -0.7147
 4363TIP3    H234581   2.144   0.365   3.470  0.4552  1.4318  1.1989
 4364TIP3   OH234582   2.414   2.234   3.172 -0.3736 -0.7845  0.2158
 4364TIP3    H134583   2.420   2.148   3.131  0.1839 -0.7369  0.1962
 4364TIP3    H234584   2.372   2.218   3.256  2.9168 -1.6332  1.8428
 4365TIP3   OH234585   6.141   0.668   1.751  0.1433  0.4352  0.1585
 4365TIP3    H134586   6.100   0.601   1.807 -0.0655  1.1250  0.8425
 4365TIP3    H234587   6.159   0.622   1.669 -1.2552 -0.1084  0.1313
 4366TIP3   OH234588   2.362   1.238   3.645  0.4083  0.3022 -0.1051
 4366TIP3    H134589   2.440   1.196   3.679  0.9194  0.9899 -0.4040
 4366TIP3    H234590   2.394   1.313   3.596 -0.5068  1.4094  0.9258
 4367TIP3   OH234591   6.790   3.987  14.583 -0.1966 -0.8062  0.3329
 4367TIP3    H134592   6.758   3.990  14.493  1.3895 -0.8789 -0.2831
 4367TIP3    H234593   6.865   4.047  14.583  0.2646 -1.3574  1.4087
 4368TIP3   OH234594   2.634   6.423  15.972 -0.4388 -0.1177 -0.1827
 4368TIP3    H134595   2.673   6.348  16.017 -1.4266 -1.5565 -1.6713
 4368TIP3    H234596   2.585   6.386  15.900  0.8184  2.0935 -2.3257
 4369TIP3   OH234597   0.497   6.439  16.085 -0.0288  0.4457 -0.0615
 4369TIP3    H134598   0.474   6.397  16.168 -2.5039  0.5768 -0.6016
 4369TIP3    H234599   0.529   6.368  16.030 -1.3200 -0.2276  0.0229
 4370TIP3   OH234600   4.970   5.245  14.712 -0.2210 -0.0707 -0.3582
 4370TIP3    H134601   5.007   5.191  14.781 -0.0231 -0.6493 -0.9025
 4370TIP3    H234602   4.898   5.193  14.677 -1.3349  0.8921  0.4514
 4371TIP3   OH234603   6.139   5.370   6.334 -0.1743  0.8183  0.5943
 4371TIP3    H134604   6.186   5.298   6.376  1.4612  0.5501 -1.5381
 4371TIP3    H234605   6.046   5.348   6.345  0.2752 -1.4457  0.2936
 4372TIP3   OH234606   3.830   2.089   5.816  0.8301  0.0088 -0.3474
 4372TIP3    H134607   3.807   2.117   5.905 -1.3523  0.8295 -1.1072
 4372TIP3    H234608   3.801   2.161   5.760 -4.2628 -3.0781 -2.3521
 4373TIP3   OH234609   4.155   0.210   0.325  0.0164  0.3058  0.1825
 4373TIP3    H134610   4.200   0.207   0.240  0.7065  1.3057  0.5035
 4373TIP3    H234611   4.092   0.138   0.320  0.7471 -0.3054 -0.7843
 4374TIP3   OH234612   4.492   1.763  13.088  0.4015 -0.1073 -0.2354
 4374TIP3    H134613   4.537   1.781  13.006 -1.4416 -0.3146 -1.3312
 4374TIP3    H234614   4.553   1.707  13.137  1.8335  0.6194 -1.1125
 4375TIP3   OH234615   0.110   0.116   5.970  0.8836 -0.1188  0.0739
 4375TIP3    H134616   0.155   0.033   5.956  2.9146  0.9052  0.2000
 4375TIP3    H234617   0.157   0.157   6.042  0.8003  1.7315 -0.8813
 4376TIP3   OH234618   5.592   6.363   0.764  0.0522 -0.0439  0.0709
 4376TIP3    H134619   5.573   6.356   0.670 -0.4067 -1.4832  0.2533
 4376TIP3    H234620   5.534   6.432   0.795  2.5335  2.8982 -1.2726
 4377TIP3   OH234621   6.330   3.018  13.507 -0.2118  1.6234 -0.5810
 4377TIP3    H134622   6.378   3.048  13.584  1.9394 -0.4376 -0.9947
 4377TIP3    H234623   6.376   3.056  13.433  1.5025 -1.0103 -1.0215
 4378TIP3   OH234624   5.251   3.663  13.382 -0.4253 -0.6484  0.2502
 4378TIP3    H134625   5.265   3.608  13.460 -0.6805  0.1390  0.8660
 4378TIP3    H234626   5.196   3.735  13.414 -0.0575 -0.0127 -0.5386
 4379TIP3   OH234627   2.587   6.452   4.956  0.2071  0.2259  0.0221
 4379TIP3    H134628   2.557   6.542   4.970 -1.5438 -0.5591  1.7729
 4379TIP3    H234629   2.558   6.432   4.866 -1.4995  0.6867  0.4215
 4380TIP3   OH234630   1.740   0.853   5.173 -0.3902 -0.3327  0.0067
 4380TIP3    H134631   1.672   0.917   5.195 -1.3396 -1.1806 -0.3605
 4380TIP3    H234632   1.791   0.844   5.253  0.5179  1.7278 -0.2562
 4381TIP3   OH234633   3.753   3.459   5.053 -0.6418  0.3567 -0.4279
 4381TIP3    H134634   3.701   3.528   5.011 -0.9540  0.6716  0.4631
 4381TIP3    H234635   3.758   3.486   5.144  1.5483  0.6155 -0.5832
 4382TIP3   OH234636   0.917   5.342   2.446 -0.6213 -0.5923 -0.4489
 4382TIP3    H134637   0.859   5.418   2.452  1.5993  1.1264  0.7340
 4382TIP3    H234638   0.991   5.372   2.394  1.7722 -0.8181  2.5373
 4383TIP3   OH234639   4.754   2.646   3.938 -0.5216 -0.0757  0.9748
 4383TIP3    H134640   4.801   2.622   3.858 -1.0061 -0.7484  0.8861
 4383TIP3    H234641   4.767   2.571   3.996  1.1092  1.0240  2.1257
 4384TIP3   OH234642   0.172   1.475  14.124 -0.1153  0.2175 -0.0848
 4384TIP3    H134643   0.137   1.559  14.152 -0.8156  0.2578 -1.0398
 4384TIP3    H234644   0.235   1.496  14.056  0.3964  0.0203  0.3189
 4385TIP3   OH234645   6.509   5.004  16.675 -0.2637 -0.0034 -0.3566
 4385TIP3    H134646   6.466   5.059  16.609  0.3007  0.9335  0.0261
 4385TIP3    H234647   6.445   4.936  16.695 -1.3185  0.9780 -0.2744
 4386TIP3   OH234648   5.803   2.765   6.077  0.1495  0.0662 -0.3536
 4386TIP3    H134649   5.851   2.845   6.099 -0.6693  0.3323  0.5267
 4386TIP3    H234650   5.781   2.726   6.161  1.4447 -1.6675 -0.7687
 4387TIP3   OH234651   2.384   1.426   3.437  0.1378 -0.0555 -0.4447
 4387TIP3    H134652   2.444   1.488   3.481 -1.1420  0.1220  1.1435
 4387TIP3    H234653   2.308   1.479   3.415 -0.3017 -0.7227 -0.5345
 4388TIP3   OH234654   2.535   1.752   3.214  0.2333 -0.3443  0.2906
 4388TIP3    H134655   2.622   1.736   3.178  0.5001 -0.4357  0.9482
 4388TIP3    H234656   2.538   1.714   3.302  0.0276  0.9713  0.8898
 4389TIP3   OH234657   5.077   1.643  14.153  0.5346  0.3700 -0.2302
 4389TIP3    H134658   5.106   1.599  14.233 -3.7218 -0.7207  0.9480
 4389TIP3    H234659   5.100   1.581  14.083  3.0679  0.7208  0.1746
 4390TIP3   OH234660   6.109   6.381   6.189 -0.3258  0.1593  0.2027
 4390TIP3    H134661   6.172   6.320   6.227 -1.7768 -2.5018 -1.3377
 4390TIP3    H234662   6.024   6.341   6.206 -1.3436  1.6069 -1.1886
 4391TIP3   OH234663   1.505   4.765   1.811 -0.0922 -0.7557  0.0227
 4391TIP3    H134664   1.470   4.677   1.806 -0.5655 -0.5794  0.2203
 4391TIP3    H234665   1.594   4.753   1.844  0.1109 -1.2175 -0.6792
 4392TIP3   OH234666   5.586   4.735  11.292  0.4230  0.3121  0.3654
 4392TIP3    H134667   5.508   4.735  11.347 -2.2214 -1.3702 -3.0332
 4392TIP3    H234668   5.602   4.827  11.273 -2.0196  0.6346 -0.4332
 4393TIP3   OH234669   2.173   1.711  16.298 -0.2133 -0.3929 -0.7768
 4393TIP3    H134670   2.193   1.643  16.363 -0.2858 -0.8140 -1.1924
 4393TIP3    H234671   2.173   1.792  16.348  0.0084 -0.6839 -0.2982
 4394TIP3   OH234672   1.006   0.579   4.551 -0.2039 -0.2228 -0.2554
 4394TIP3    H134673   0.986   0.495   4.593 -2.0087 -0.0977 -0.8142
 4394TIP3    H234674   0.923   0.626   4.548  0.5793  1.2209 -0.8181
 4395TIP3   OH234675   6.062   0.211   0.857  0.1159  0.5413 -0.3843
 4395TIP3    H134676   6.065   0.306   0.867  0.3863  0.3618  1.5259
 4395TIP3    H234677   6.153   0.183   0.863 -0.1032  0.0312  0.7231
 4396TIP3   OH234678   6.056   4.451   1.245 -0.8412  0.0119 -0.0535
 4396TIP3    H134679   6.074   4.528   1.192 -0.5196 -1.2040 -1.7722
 4396TIP3    H234680   6.116   4.458   1.319  1.1420  0.0629 -1.5903
 4397TIP3   OH234681   0.057   1.201   5.203  0.0404 -0.0399  0.5993
 4397TIP3    H134682   0.134   1.219   5.149 -1.0988  2.2046 -0.4400
 4397TIP3    H234683   0.092   1.163   5.284  1.8765 -2.6231 -1.2558
 4398TIP3   OH234684   2.811   5.778  13.949 -0.1263  0.5814 -0.2356
 4398TIP3    H134685   2.814   5.697  13.898 -0.9043  0.9301 -0.8509
 4398TIP3    H234686   2.850   5.755  14.033 -1.5998 -0.7997  0.0936
 4399TIP3   OH234687   4.087   3.309  12.180  0.1771 -0.0999  0.6834
 4399TIP3    H134688   4.093   3.375  12.249 -0.2903  0.3646  0.2940
 4399TIP3    H234689   3.996   3.316  12.149  0.3639 -0.3523  0.0697
 4400TIP3   OH234690   6.640   4.356   4.214  0.7096 -0.0844  0.1664
 4400TIP3    H134691   6.582   4.312   4.276  1.5669 -2.2476 -0.4844
 4400TIP3    H234692   6.701   4.405   4.269  0.4738 -0.6846  0.9751
 4401TIP3   OH234693   1.149   3.711  11.847  0.0365 -0.5629 -0.3034
 4401TIP3    H134694   1.244   3.717  11.844  0.0803 -1.2811 -0.5604
 4401TIP3    H234695   1.120   3.796  11.880  0.5476  1.1466 -3.8654
 4402TIP3   OH234696   4.196   6.391  17.143 -0.2453  0.3393 -0.1018
 4402TIP3    H134697   4.255   6.405  17.069  0.1442 -0.0405  0.1310
 4402TIP3    H234698   4.169   6.299  17.134  2.1796 -0.6637  1.9037
 4403TIP3   OH234699   1.917   5.409   6.317 -0.3307 -0.0229 -0.5420
 4403TIP3    H134700   1.895   5.501   6.330 -0.1329 -0.2875  2.3281
 4403TIP3    H234701   1.986   5.410   6.251 -1.0132  1.7607 -1.3009
 4404TIP3   OH234702   2.437   3.174  11.508 -0.2947  0.3870 -0.0836
 4404TIP3    H134703   2.425   3.268  11.510  0.5484  0.5384 -1.0929
 4404TIP3    H234704   2.527   3.160  11.540  0.9580  0.2771 -3.2941
 4405TIP3   OH234705   3.438   2.572  14.488  0.1817 -0.3851 -0.1912
 4405TIP3    H134706   3.351   2.585  14.527  0.4256  0.9059 -0.0124
 4405TIP3    H234707   3.483   2.512  14.548 -0.2895 -0.3629  0.1850
 4406TIP3   OH234708   3.424   3.592   5.351 -0.3700  0.6123  0.4464
 4406TIP3    H134709   3.429   3.615   5.444 -0.7175 -1.1100  0.9155
 4406TIP3    H234710   3.379   3.508   5.349 -2.1843  1.5371 -1.4524
 4407TIP3   OH234711   1.516   2.021  11.116  0.5603 -0.1394  0.5584
 4407TIP3    H134712   1.423   2.040  11.103  0.1565 -1.5444  1.1783
 4407TIP3    H234713   1.551   2.010  11.028  0.1691  0.4929  0.3131
 4408TIP3   OH234714   5.841   2.756  12.568  0.0017  0.0643  0.2321
 4408TIP3    H134715   5.932   2.746  12.542 -1.3772 -2.2917 -5.0093
 4408TIP3    H234716   5.816   2.669  12.600 -1.0039 -0.1410 -1.0393
 4409TIP3   OH234717   6.644   0.550  15.866 -0.2187  0.0179 -0.3899
 4409TIP3    H134718   6.629   0.470  15.816 -1.8632 -1.0593  1.6914
 4409TIP3    H234719   6.607   0.619  15.811  0.7117 -0.6915 -1.9706
 4410TIP3   OH234720   3.925   5.212  13.910  0.5727  0.4990  0.0664
 4410TIP3    H134721   3.877   5.145  13.959  0.5558 -0.5820 -1.3644
 4410TIP3    H234722   3.983   5.251  13.976  0.1955 -0.5457  1.0728
 4411TIP3   OH234723   4.535   6.002   1.210  0.2252  0.2701 -0.1814
 4411TIP3    H134724   4.486   5.938   1.160 -1.0093 -0.1455  1.4864
 4411TIP3    H234725   4.625   5.968   1.211  0.1772  0.0315 -1.6140
 4412TIP3   OH234726   6.782   5.165   4.557  0.5347  0.3117  0.4051
 4412TIP3    H134727   6.729   5.124   4.626 -0.2639 -0.4567 -0.6312
 4412TIP3    H234728   6.872   5.145   4.582  0.2328 -0.5259  0.8880
 4413TIP3   OH234729   5.563   5.957  15.539  0.1691 -0.4621 -0.5819
 4413TIP3    H134730   5.502   5.890  15.569  0.7412 -0.8360 -0.2133
 4413TIP3    H234731   5.508   6.030  15.512 -0.4075  0.2039  2.0929
 4414TIP3   OH234732   2.698   4.603  13.624 -0.2791 -0.0536 -0.5263
 4414TIP3    H134733   2.669   4.554  13.701  1.6530 -0.5159 -0.0492
 4414TIP3    H234734   2.770   4.551  13.588  0.1541  1.1604 -1.4854
 4415TIP3   OH234735   2.079   3.375   0.195 -0.1642  0.2216 -0.4597
 4415TIP3    H134736   2.142   3.416   0.136 -1.4993  1.4684 -1.0846
 4415TIP3    H234737   2.035   3.308   0.141  1.3231 -1.4352  0.2827
 4416TIP3   OH234738   1.172   4.147   5.866  0.6841  0.3004 -0.3883
 4416TIP3    H134739   1.219   4.076   5.910 -1.0634 -0.2052  0.7565
 4416TIP3    H234740   1.241   4.208   5.840  1.9738 -0.1965  1.5896
 4417TIP3   OH234741   0.756   1.354  14.759 -0.0990  0.2922 -0.5898
 4417TIP3    H134742   0.785   1.293  14.827  1.1221  0.7554 -0.6554
 4417TIP3    H234743   0.779   1.311  14.677  1.5294  1.1301 -0.6290
 4418TIP3   OH234744   5.161   6.006   2.031 -0.5769 -0.4810 -0.3160
 4418TIP3    H134745   5.183   6.088   2.076  0.4976 -0.2630 -1.1997
 4418TIP3    H234746   5.139   6.032   1.941 -0.9501 -1.0974 -0.4162
 4419TIP3   OH234747   3.743   4.262   4.411 -0.3165  0.1562  0.5002
 4419TIP3    H134748   3.648   4.251   4.417 -0.2083 -0.0621  2.6652
 4419TIP3    H234749   3.777   4.173   4.422  0.1554  0.5404  2.7199
 4420TIP3   OH234750   4.500   4.196  11.700  0.2514  0.5540  0.0871
 4420TIP3    H134751   4.481   4.173  11.791 -1.3868 -2.0258 -0.8071
 4420TIP3    H234752   4.596   4.202  11.697  0.4885 -1.3606  1.5761
 4421TIP3   OH234753   6.397   4.983   3.085  0.6199 -0.1149 -0.3356
 4421TIP3    H134754   6.346   5.043   3.031 -2.8053 -1.1745  1.4321
 4421TIP3    H234755   6.367   4.896   3.059  1.8969 -0.8408  0.5091
 4422TIP3   OH234756   5.419   1.188  14.578  0.3594  0.1182 -0.2548
 4422TIP3    H134757   5.368   1.163  14.655 -1.3187  1.6769 -0.7968
 4422TIP3    H234758   5.509   1.161  14.599 -0.3969 -1.3468  1.3617
 4423TIP3   OH234759   1.990   3.736  13.189 -0.3461  0.5047 -0.3431
 4423TIP3    H134760   1.982   3.817  13.239  1.0521  1.0751 -0.9924
 4423TIP3    H234761   2.078   3.705  13.206 -0.1353  0.2559 -1.7592
 4424TIP3   OH234762   5.581   5.095   5.031 -0.6846 -0.8934  0.3612
 4424TIP3    H134763   5.631   5.055   5.102 -0.8287 -3.0659 -0.7039
 4424TIP3    H234764   5.491   5.069   5.048 -0.7669 -1.1203 -0.4104
 4425TIP3   OH234765   0.947   3.738   6.048 -0.2956 -0.1141 -0.0670
 4425TIP3    H134766   1.011   3.686   6.095  0.0565 -0.3863 -0.8237
 4425TIP3    H234767   0.867   3.732   6.101  0.1669 -0.1620  0.6320
 4426TIP3   OH234768   6.208   3.904   1.945  0.6028  0.0918 -0.0742
 4426TIP3    H134769   6.257   3.953   1.879  1.3443 -1.9418 -1.1272
 4426TIP3    H234770   6.267   3.832   1.970 -0.7032 -0.7007  0.8405
 4427TIP3   OH234771   0.360   2.995   2.384 -0.3511  0.4965  0.4848
 4427TIP3    H134772   0.380   3.032   2.471  1.3915  1.4940 -0.2826
 4427TIP3    H234773   0.436   3.016   2.331 -0.9944 -0.8844 -1.0822
 4428TIP3   OH234774   4.108   5.416   6.467  0.1526  0.2647  0.0978
 4428TIP3    H134775   4.118   5.445   6.376  0.6616 -1.7522 -0.5288
 4428TIP3    H234776   4.070   5.329   6.460 -1.4456  0.7479  1.9099
 4429TIP3   OH234777   2.233   0.809  13.973 -0.1630 -0.3167 -0.0705
 4429TIP3    H134778   2.176   0.833  13.900 -0.0904  0.3202  0.0741
 4429TIP3    H234779   2.182   0.828  14.051  0.5725  1.1673  0.0789
 4430TIP3   OH234780   3.805   2.571   5.403 -0.6280  0.1088  0.7262
 4430TIP3    H134781   3.807   2.665   5.425  1.9201 -0.2668  2.5561
 4430TIP3    H234782   3.786   2.528   5.486  1.1832 -1.0672  0.5889
 4431TIP3   OH234783   3.837   4.083  15.788  0.5626  0.6598 -0.1837
 4431TIP3    H134784   3.900   4.015  15.811 -0.5802 -0.9726 -1.6027
 4431TIP3    H234785   3.834   4.140  15.864 -1.2757 -3.0110  2.8376
 4432TIP3   OH234786   5.199   6.409   2.399 -0.2333  0.4643  0.5508
 4432TIP3    H134787   5.274   6.377   2.350 -0.8822 -1.0967  0.5276
 4432TIP3    H234788   5.145   6.332   2.415 -2.3909  1.6930 -0.3714
 4433TIP3   OH234789   2.682   0.074  12.580  0.2490  0.1216 -0.0640
 4433TIP3    H134790   2.627  -0.000  12.605  2.1942 -1.0739  0.8150
 4433TIP3    H234791   2.738   0.040  12.511  1.0718  0.8197  0.2464
 4434TIP3   OH234792   0.808   1.902  12.679 -0.4004  0.3064  0.0985
 4434TIP3    H134793   0.750   1.834  12.645  1.2689 -1.1288  0.0356
 4434TIP3    H234794   0.889   1.893  12.629  0.7192  0.7128  1.7431
 4435TIP3   OH234795   1.805   4.519   0.094 -0.3325  0.4027 -0.4006
 4435TIP3    H134796   1.779   4.464   0.168  1.0046 -0.1250 -0.2963
 4435TIP3    H234797   1.729   4.517   0.036 -1.0386  0.0291  0.4988
 4436TIP3   OH234798   6.241   6.448  15.546 -0.0821 -0.2745 -0.5804
 4436TIP3    H134799   6.236   6.460  15.641 -1.6464 -0.3274 -0.6378
 4436TIP3    H234800   6.268   6.534  15.513 -1.2969  0.2630 -0.2119
 4437TIP3   OH234801   2.870   1.429   2.231  0.0018  0.4259  0.2599
 4437TIP3    H134802   2.960   1.408   2.255  0.3144  0.0874 -1.1735
 4437TIP3    H234803   2.857   1.518   2.264  0.6074  0.2156  1.1149
 4438TIP3   OH234804   5.656   1.610  13.318  0.5098 -1.0228 -0.2662
 4438TIP3    H134805   5.673   1.659  13.238  0.3596  0.4925  0.5889
 4438TIP3    H234806   5.738   1.615  13.367  0.9618 -2.8575 -0.7424
 4439TIP3   OH234807   2.920   6.231  11.160  0.7365  0.0846 -0.1222
 4439TIP3    H134808   2.915   6.195  11.072  3.1476 -0.6911 -0.0255
 4439TIP3    H234809   2.854   6.183  11.210  3.0931 -3.7252 -0.2347
 4440TIP3   OH234810   5.960   4.393   2.061 -0.6904 -0.3840  0.4171
 4440TIP3    H134811   5.865   4.390   2.058 -0.7438 -1.3137  1.9734
 4440TIP3    H234812   5.987   4.301   2.059  0.1727 -0.1402  0.2285
 4441TIP3   OH234813   2.137   5.649  16.185  0.4862 -0.0396  0.2240
 4441TIP3    H134814   2.167   5.723  16.133 -0.2530 -0.7093 -1.2318
 4441TIP3    H234815   2.063   5.683  16.236 -1.2809 -0.2159 -2.0525
 4442TIP3   OH234816   2.402   1.230   5.745  0.3868  0.3630 -0.2537
 4442TIP3    H134817   2.308   1.246   5.758  0.4316  0.2977  0.1432
 4442TIP3    H234818   2.437   1.315   5.718  0.4947  0.7898  1.1524
 4443TIP3   OH234819   4.592   5.896  15.145 -0.1939 -0.3633  0.5661
 4443TIP3    H134820   4.623   5.901  15.055 -0.2433 -1.5903  0.4660
 4443TIP3    H234821   4.511   5.947  15.146 -0.0537 -0.1207 -0.0150
 4444TIP3   OH234822   0.340   4.402   1.773  0.5453  0.2619 -0.4316
 4444TIP3    H134823   0.248   4.396   1.745  0.2413 -0.9317  0.7341
 4444TIP3    H234824   0.355   4.496   1.786 -0.7532  0.4215  0.0763
 4445TIP3   OH234825   4.357   5.808   0.319  0.1937  0.6697  0.5527
 4445TIP3    H134826   4.265   5.808   0.291  0.0522  0.3679  1.0108
 4445TIP3    H234827   4.355   5.837   0.410  0.4832  0.0022  0.7784
 4446TIP3   OH234828   4.069   3.126   2.615  0.2373  0.0103  0.6063
 4446TIP3    H134829   4.023   3.199   2.573  1.6230  0.5835  0.0260
 4446TIP3    H234830   4.008   3.095   2.682 -1.7284 -0.3918 -1.2345
 4447TIP3   OH234831   1.703   1.337  15.326 -0.0291 -0.8193 -0.4091
 4447TIP3    H134832   1.693   1.332  15.231 -0.6344  2.2011 -0.5948
 4447TIP3    H234833   1.697   1.430  15.346  0.2625 -1.3504  2.6030
 4448TIP3   OH234834   3.664   1.763  10.385 -0.0227  0.6671 -0.2595
 4448TIP3    H134835   3.756   1.741  10.367 -0.0668  0.1178  0.1624
 4448TIP3    H234836   3.648   1.729  10.473 -0.6489  0.7158 -0.3506
 4449TIP3   OH234837   0.728   0.524  14.225 -0.1832 -0.4320  0.2427
 4449TIP3    H134838   0.658   0.535  14.161  0.5462 -0.6549 -0.6177
 4449TIP3    H234839   0.683   0.510  14.308 -1.1486 -0.0642 -0.2021
 4450TIP3   OH234840   2.100   0.935  12.982 -0.2354 -0.0177 -0.8575
 4450TIP3    H134841   2.070   0.971  13.065 -1.2602  0.2302 -1.3201
 4450TIP3    H234842   2.185   0.977  12.967 -1.2797  2.1131 -1.2692
 4451TIP3   OH234843   3.214   2.253  16.585  0.3115 -1.0207 -0.0600
 4451TIP3    H134844   3.251   2.182  16.533  1.1913  0.0541 -0.9602
 4451TIP3    H234845   3.290   2.304  16.613 -0.1980 -1.2302  1.7895
 4452TIP3   OH234846   2.093   0.966  15.729  0.6434  0.2908 -0.0802
 4452TIP3    H134847   2.092   0.931  15.640 -0.9954 -1.9896  0.7349
 4452TIP3    H234848   2.119   0.893  15.784 -1.7200  0.6000  1.6089
 4453TIP3   OH234849   2.736   1.978   3.356  0.2258 -0.3909 -0.4806
 4453TIP3    H134850   2.740   1.982   3.261  0.5583 -0.4173 -0.4709
 4453TIP3    H234851   2.828   1.977   3.384  0.1401  0.1898 -0.1403
 4454TIP3   OH234852   0.181   4.596  13.466  0.1132  0.3652 -0.4998
 4454TIP3    H134853   0.179   4.681  13.422  1.1490  0.7252  0.1190
 4454TIP3    H234854   0.225   4.613  13.549  0.0612 -0.7202 -0.2384
 4455TIP3   OH234855   0.515   2.277   1.639 -0.0819  0.4359 -0.1669
 4455TIP3    H134856   0.438   2.229   1.668  0.6634 -1.8149 -1.6218
 4455TIP3    H234857   0.495   2.306   1.550  1.5268 -2.5029 -1.6626
 4456TIP3   OH234858   6.778   5.646   4.768  0.2232  0.3424  0.6340
 4456TIP3    H134859   6.793   5.644   4.673 -0.6775 -0.2459  0.5016
 4456TIP3    H234860   6.692   5.608   4.780  0.4736  0.0888  1.7328
 4457TIP3   OH234861   3.712   2.702   1.812  0.2699  0.6355 -0.4854
 4457TIP3    H134862   3.651   2.767   1.847 -1.0746 -0.1375 -1.3065
 4457TIP3    H234863   3.663   2.657   1.743  0.8481 -1.8069  0.5884
 4458TIP3   OH234864   0.600   3.145  15.785  0.5747  0.1093  0.4139
 4458TIP3    H134865   0.625   3.225  15.738  0.7863  0.4450  1.0721
 4458TIP3    H234866   0.589   3.174  15.876 -0.7024 -0.3454  0.4177
 4459TIP3   OH234867   5.082   0.445  13.148  0.2602  0.1210  0.5319
 4459TIP3    H134868   5.020   0.375  13.166 -0.3228  0.0026 -1.6536
 4459TIP3    H234869   5.047   0.521  13.195  0.6011 -0.8537  2.4715
 4460TIP3   OH234870   4.886   3.186   5.059 -0.1206  0.1900 -0.1452
 4460TIP3    H134871   4.825   3.160   5.128 -0.5344  1.4637 -0.0104
 4460TIP3    H234872   4.860   3.275   5.037 -0.5278 -0.4344 -2.5012
 4461TIP3   OH234873   1.551   3.942  12.757  0.1136 -0.3582 -0.0761
 4461TIP3    H134874   1.504   3.862  12.782 -0.9572  0.9382  2.4285
 4461TIP3    H234875   1.642   3.914  12.748 -0.0797 -1.7620  1.6435
 4462TIP3   OH234876   0.880   2.129  16.090  0.6193 -0.0394 -0.2220
 4462TIP3    H134877   0.870   2.127  16.185  3.1988 -2.1669  0.1196
 4462TIP3    H234878   0.792   2.111  16.056  0.2677 -2.9960  1.8932
 4463TIP3   OH234879   5.120   2.753   3.579 -0.6845  0.7954  0.3956
 4463TIP3    H134880   5.168   2.686   3.531 -2.4956  0.5672 -1.1784
 4463TIP3    H234881   5.144   2.738   3.671  2.7277  1.1498 -0.3178
 4464TIP3   OH234882   5.643   0.812   4.535 -0.5910  0.5977 -0.1662
 4464TIP3    H134883   5.692   0.811   4.452 -2.2337 -1.1465 -1.1905
 4464TIP3    H234884   5.682   0.742   4.586  0.5525  1.8009  0.6839
 4465TIP3   OH234885   0.319   4.882   0.692  0.3436 -0.1896  0.4951
 4465TIP3    H134886   0.345   4.849   0.778  3.1576  0.8390  0.1326
 4465TIP3    H234887   0.312   4.977   0.704  0.6693 -0.0474 -0.3593
 4466TIP3   OH234888   1.818   5.373   2.833  0.0044  0.5405 -0.1922
 4466TIP3    H134889   1.820   5.467   2.816  0.2383  0.2978 -1.6148
 4466TIP3    H234890   1.725   5.353   2.848 -0.2846  0.7265 -1.6219
 4467TIP3   OH234891   6.573   1.742  14.403  0.4213  0.6577 -0.3911
 4467TIP3    H134892   6.620   1.662  14.381 -1.1017 -0.1361 -0.9801
 4467TIP3    H234893   6.529   1.722  14.486  1.4712  1.5581  0.4097
 4468TIP3   OH234894   6.470   6.282   2.540 -0.8425  0.3215 -0.2573
 4468TIP3    H134895   6.494   6.374   2.525  0.1137  0.3233  1.0688
 4468TIP3    H234896   6.540   6.232   2.498 -0.0084  0.2773  1.1023
 4469TIP3   OH234897   1.449   3.670   0.897 -0.7627 -0.0321 -0.4670
 4469TIP3    H134898   1.388   3.737   0.929 -1.3101 -0.4323 -0.6551
 4469TIP3    H234899   1.401   3.587   0.909  0.0874 -0.4398  0.2065
 4470TIP3   OH234900   5.496   6.740  10.318  0.3130 -0.3715 -0.1079
 4470TIP3    H134901   5.405   6.715  10.334 -0.6708  2.3967 -0.8436
 4470TIP3    H234902   5.530   6.764  10.404 -0.0687 -0.2041 -0.0020
 4471TIP3   OH234903   2.936   4.552   0.654 -0.0126 -0.1514 -0.1319
 4471TIP3    H134904   2.898   4.562   0.741  1.6910 -0.0622  0.6468
 4471TIP3    H234905   2.930   4.640   0.615 -1.5930 -0.3919 -0.4876
 4472TIP3   OH234906   4.383   0.369  16.821  0.5363 -0.0533 -0.0764
 4472TIP3    H134907   4.367   0.459  16.849  1.4654 -0.3090  1.3951
 4472TIP3    H234908   4.402   0.376  16.728  1.2737  1.3719  0.1532
 4473TIP3   OH234909   6.511   5.105  15.009  0.0488 -0.1112  0.0287
 4473TIP3    H134910   6.520   5.095  15.104  4.0016  1.6462  0.0409
 4473TIP3    H234911   6.425   5.145  14.998 -0.2748  0.2491  2.9713
 4474TIP3   OH234912   2.839   0.961  12.829  0.3322 -0.0643 -0.3283
 4474TIP3    H134913   2.767   0.996  12.881  0.3130 -0.0755 -0.3468
 4474TIP3    H234914   2.910   1.025  12.840 -0.1053  0.6276 -1.3399
 4475TIP3   OH234915   2.588   3.915   0.498  1.0957 -0.0380 -0.1358
 4475TIP3    H134916   2.581   3.845   0.564  1.2459 -0.6977 -0.8010
 4475TIP3    H234917   2.571   3.995   0.546 -0.9894 -0.6700  0.3213
 4476TIP3   OH234918   6.706   3.522   4.185 -0.2592 -0.1134 -0.3284
 4476TIP3    H134919   6.740   3.607   4.157  0.4117  0.0501  0.8967
 4476TIP3    H234920   6.684   3.477   4.103  1.6176  0.3182 -1.1292
 4477TIP3   OH234921   3.335   5.633   2.150  0.5895 -0.1945  0.2943
 4477TIP3    H134922   3.246   5.603   2.135  0.6991 -0.4421  0.1171
 4477TIP3    H234923   3.326   5.713   2.201  0.1805  0.6794 -1.0801
 4478TIP3   OH234924   0.461   2.370   1.383 -0.1194  0.5036  0.4709
 4478TIP3    H134925   0.452   2.464   1.399 -0.3132  0.8418 -1.4037
 4478TIP3    H234926   0.435   2.358   1.292  1.4821 -1.1312  0.1609
 4479TIP3   OH234927   1.018   1.489  14.416  0.2847 -0.0953 -0.5417
 4479TIP3    H134928   1.074   1.445  14.479  0.9927  0.4154 -0.7955
 4479TIP3    H234929   0.975   1.559  14.467  1.9012  1.2042 -0.8761
 4480TIP3   OH234930   4.562   5.511  12.825 -0.4766 -0.3539 -0.2640
 4480TIP3    H134931   4.516   5.446  12.771 -0.8827 -0.3122  0.0320
 4480TIP3    H234932   4.567   5.471  12.912  1.4567 -1.0525 -0.6391
 4481TIP3   OH234933   3.205   1.225   1.917  0.1425 -0.2866  0.2889
 4481TIP3    H134934   3.232   1.147   1.870  0.4348 -0.0003 -0.0229
 4481TIP3    H234935   3.155   1.192   1.992 -0.8577 -0.7387 -0.5439
 4482TIP3   OH234936   4.309   4.013  14.473  0.3740 -0.3250 -0.4512
 4482TIP3    H134937   4.216   4.001  14.455  0.0165  2.3703 -0.7960
 4482TIP3    H234938   4.348   4.032  14.388  0.8346  0.6142 -0.0498
 4483TIP3   OH234939   1.209   5.549  15.764  0.4556  0.2669  0.1906
 4483TIP3    H134940   1.178   5.567  15.852 -0.9568  1.0468 -0.4375
 4483TIP3    H234941   1.263   5.625  15.741  0.2080  0.4203  0.1124
 4484TIP3   OH234942   0.067   6.087   3.079 -0.0047  0.0780  0.0642
 4484TIP3    H134943   0.081   6.072   3.172 -0.8634  2.6909  0.6942
 4484TIP3    H234944  -0.028   6.095   3.069 -0.0718 -1.8581 -1.3759
 4485TIP3   OH234945   3.084   0.925   1.332 -0.4187 -0.4410  0.0379
 4485TIP3    H134946   3.070   1.007   1.285 -2.3188 -1.1027 -0.6579
 4485TIP3    H234947   3.053   0.943   1.421  0.1076 -0.1286  0.1603
 4486TIP3   OH234948   4.567   3.234  12.379  0.0758 -0.1713  0.1259
 4486TIP3    H134949   4.559   3.199  12.468 -0.7697  0.2832  0.2485
 4486TIP3    H234950   4.616   3.168  12.331  0.9094 -0.2340  1.0327
 4487TIP3   OH234951   6.555   0.111   2.216  0.0260  0.2132 -0.1515
 4487TIP3    H134952   6.542   0.104   2.121 -1.3224 -0.8769  0.0912
 4487TIP3    H234953   6.632   0.167   2.225 -0.4997  1.2935 -1.8683
 4488TIP3   OH234954   1.923   4.209   3.927 -0.1882 -0.0753 -0.1616
 4488TIP3    H134955   1.997   4.264   3.901 -0.2603 -0.2335 -0.7291
 4488TIP3    H234956   1.845   4.260   3.905 -0.2946  1.0859  2.5800
 4489TIP3   OH234957   4.329   6.343  11.686  0.9147 -0.6441  0.0769
 4489TIP3    H134958   4.286   6.265  11.651 -3.8105  1.6574 -0.0700
 4489TIP3    H234959   4.311   6.340  11.780  1.7561 -0.2771  0.2561
 4490TIP3   OH234960   4.556   6.623   0.211 -0.3451 -0.7305  0.8009
 4490TIP3    H134961   4.627   6.605   0.149  2.1704  1.1402  2.9542
 4490TIP3    H234962   4.500   6.687   0.165  0.7956 -0.2833 -0.0119
 4491TIP3   OH234963   2.853   5.523   1.834  0.7793 -0.7830  0.0147
 4491TIP3    H134964   2.941   5.510   1.870  0.8500 -1.8186 -0.4824
 4491TIP3    H234965   2.795   5.484   1.899  0.6934 -0.2111  0.2837
 4492TIP3   OH234966   0.072   6.519   4.455 -0.4915  0.2871 -0.3074
 4492TIP3    H134967   0.114   6.595   4.496  0.7380 -0.3815 -0.2536
 4492TIP3    H234968  -0.001   6.555   4.405  0.0748  1.5017 -0.2952
 4493TIP3   OH234969   5.282   2.108  12.532 -0.0629 -0.2890 -0.0620
 4493TIP3    H134970   5.256   2.125  12.442 -3.9988  0.2020  1.0090
 4493TIP3    H234971   5.247   2.021  12.551 -0.3727  0.1314  1.3563
 4494TIP3   OH234972   1.841   3.871  15.740  0.1137  0.5267  0.2183
 4494TIP3    H134973   1.839   3.951  15.689  0.8394  1.4849  1.6293
 4494TIP3    H234974   1.930   3.866  15.775 -0.1282 -0.5041  0.7464
 4495TIP3   OH234975   2.555   4.453   4.168 -0.1424 -0.1272  0.3419
 4495TIP3    H134976   2.546   4.446   4.263 -2.1372  0.6521  0.2435
 4495TIP3    H234977   2.642   4.491   4.155  0.0829 -0.0757  1.8528
 4496TIP3   OH234978   3.917   5.562   3.773  0.3353 -0.1585 -0.8534
 4496TIP3    H134979   3.948   5.560   3.682  0.7722  0.3354 -0.7260
 4496TIP3    H234980   3.960   5.639   3.810 -0.5011  0.1268 -0.4622
 4497TIP3   OH234981   5.287   3.677  14.237  0.6618  0.2163  0.0360
 4497TIP3    H134982   5.248   3.752  14.281  1.3227 -0.5182  1.9497
 4497TIP3    H234983   5.378   3.676  14.265  0.9832 -0.5874 -0.9550
 4498TIP3   OH234984   0.285   4.258  12.387 -0.4448  0.4756 -0.0518
 4498TIP3    H134985   0.301   4.334  12.443 -1.6202  1.4069 -0.9341
 4498TIP3    H234986   0.305   4.183  12.443  2.7417  1.3996  0.2544
 4499TIP3   OH234987   6.811   2.170  16.569 -0.7038  0.0511  0.0433
 4499TIP3    H134988   6.881   2.199  16.626 -1.6157 -0.0778  1.2766
 4499TIP3    H234989   6.757   2.248  16.555 -0.2394  0.1958 -1.0490
 4500TIP3   OH234990   3.882   1.863  13.654  0.2332  0.1888 -0.2893
 4500TIP3    H134991   3.811   1.891  13.712  2.1930  2.8188  1.1270
 4500TIP3    H234992   3.869   1.769  13.643 -2.8770  0.3865  0.6163
 4501TIP3   OH234993   1.387   4.982   0.831  0.0296 -0.4882 -0.3224
 4501TIP3    H134994   1.421   4.902   0.791  1.9682 -0.7108  1.6055
 4501TIP3    H234995   1.409   5.051   0.769  1.6644 -1.0134 -0.3804
 4502TIP3   OH234996   3.852   3.382  12.058  0.5306 -0.4520 -0.0063
 4502TIP3    H134997   3.784   3.391  12.125  2.0959  0.5430  1.5070
 4502TIP3    H234998   3.819   3.312  12.000 -0.3823 -2.1666  2.4263
 4503TIP3   OH234999   3.720   0.972   6.138 -0.1641  0.2021  0.1055
 4503TIP3    H135000   3.685   0.883   6.136  1.3454 -0.4134 -0.1204
 4503TIP3    H235001   3.811   0.961   6.164  0.5267  1.5017 -1.5888
 4504TIP3   OH235002   6.485   5.377  12.885 -0.0248 -0.3076  0.2482
 4504TIP3    H135003   6.446   5.321  12.952  2.2511 -2.1543  0.1294
 4504TIP3    H235004   6.570   5.338  12.868  0.7660  1.9846 -1.4435
 4505TIP3   OH235005   4.539   0.882  13.692 -0.6053 -0.2340  0.2130
 4505TIP3    H135006   4.581   0.798  13.679  0.0157 -0.0633  1.0595
 4505TIP3    H235007   4.497   0.876  13.778 -0.7987  0.2134  0.1566
 4506TIP3   OH235008   4.761   1.917  12.712 -0.2390 -0.8532 -0.5455
 4506TIP3    H135009   4.782   1.987  12.774 -0.8491 -0.7364 -0.4623
 4506TIP3    H235010   4.815   1.936  12.635  0.0743 -0.6550 -0.2790
 4507TIP3   OH235011   4.373   5.727  12.790  0.1959 -0.4557  0.3250
 4507TIP3    H135012   4.370   5.738  12.885 -2.0284 -0.7140  0.3328
 4507TIP3    H235013   4.417   5.643  12.777  0.6966 -0.3252  1.1009
 4508TIP3   OH235014   0.840   5.085   0.610 -0.0656 -0.5860  0.6319
 4508TIP3    H135015   0.868   5.000   0.576 -1.6440 -0.0652 -2.3081
 4508TIP3    H235016   0.910   5.111   0.671  2.9589 -1.8613 -1.9877
 4509TIP3   OH235017   2.703   6.237   3.926 -0.1740 -0.1628  0.8278
 4509TIP3    H135018   2.624   6.193   3.957 -0.9417 -1.5906 -2.6904
 4509TIP3    H235019   2.672   6.323   3.895 -0.2979 -0.5111 -0.0498
 4510TIP3   OH235020   2.772   2.256  11.164 -0.4285 -0.3001  1.0194
 4510TIP3    H135021   2.767   2.349  11.139 -2.3817 -0.2256  1.5298
 4510TIP3    H235022   2.856   2.248  11.208  0.9074  0.6618 -1.1929
 4511TIP3   OH235023   6.171   3.419  17.037 -0.1844 -0.3296 -0.1491
 4511TIP3    H135024   6.140   3.504  17.006 -1.4024 -1.0169 -0.8792
 4511TIP3    H235025   6.189   3.432  17.130  1.0279  1.0813 -0.5313
 4512TIP3   OH235026   3.952   3.986   2.851 -0.2340  0.0261  0.2521
 4512TIP3    H135027   3.986   3.986   2.941  0.4103  0.9655  0.0324
 4512TIP3    H235028   4.012   3.930   2.803  0.6485  1.1628 -0.0012
 4513TIP3   OH235029   1.265   1.154   2.317 -0.8139 -0.1812 -0.4434
 4513TIP3    H135030   1.241   1.201   2.236  2.0338  3.0821  0.3870
 4513TIP3    H235031   1.340   1.100   2.292  0.0447  0.8023 -0.0472
 4514TIP3   OH235032   0.474   1.425   2.072  0.6432  0.3854 -0.2696
 4514TIP3    H135033   0.527   1.487   2.123  0.1492  0.0654  0.6580
 4514TIP3    H235034   0.393   1.417   2.121  1.0128 -1.6370  0.0832
 4515TIP3   OH235035   4.901   6.272   0.672 -0.1545 -0.2446  0.1290
 4515TIP3    H135036   4.941   6.270   0.759 -0.0974  0.4752  0.1247
 4515TIP3    H235037   4.975   6.273   0.612 -0.1601  0.7108  0.1135
 4516TIP3   OH235038   5.485   5.738  15.928 -0.3518 -0.1551  0.1321
 4516TIP3    H135039   5.437   5.656  15.923 -0.1867 -0.1952 -1.1853
 4516TIP3    H235040   5.418   5.806  15.923 -0.4684 -0.1974  0.9835
 4517TIP3   OH235041   6.175   3.061   0.616 -0.4679 -0.2623 -0.3677
 4517TIP3    H135042   6.117   3.030   0.547 -0.6045  1.5837 -1.1320
 4517TIP3    H235043   6.263   3.052   0.579 -0.5989  1.7797 -1.2905
 4518TIP3   OH235044   6.553   0.469  11.910  0.1774 -0.0136  0.5042
 4518TIP3    H135045   6.583   0.541  11.855 -0.5410 -0.2291 -0.1923
 4518TIP3    H235046   6.501   0.511  11.979 -0.6954  0.1106 -0.2110
 4519TIP3   OH235047   0.534   6.716   2.179 -0.6830  0.3465  0.2652
 4519TIP3    H135048   0.589   6.794   2.166  0.3191  0.1497  2.7572
 4519TIP3    H235049   0.445   6.746   2.160  0.0203  1.2080 -1.9193
 4520TIP3   OH235050   4.923   5.150   6.320  0.3101 -0.1395  0.3405
 4520TIP3    H135051   4.903   5.058   6.333 -1.3085  0.4882  3.2123
 4520TIP3    H235052   4.990   5.169   6.386 -1.0738  1.1827  1.4444
 4521TIP3   OH235053   6.593   0.819   4.593  0.2152 -0.1063 -0.3785
 4521TIP3    H135054   6.544   0.764   4.532 -0.8773 -0.6260  0.9279
 4521TIP3    H235055   6.574   0.783   4.679  0.5483  1.5035  0.4132
 4522TIP3   OH235056   6.751   5.787   1.816 -0.2051 -0.1197  0.6784
 4522TIP3    H135057   6.670   5.837   1.801 -1.0419 -1.2628  1.2274
 4522TIP3    H235058   6.754   5.724   1.744 -1.8348 -2.5828  2.6240
 4523TIP3   OH235059   5.286   1.537  15.960 -0.2503  0.2748  0.1238
 4523TIP3    H135060   5.313   1.519  15.870  0.3897 -1.6859  0.6580
 4523TIP3    H235061   5.300   1.631  15.971  0.0217  0.4851 -1.6884
 4524TIP3   OH235062   1.560   3.619   1.447  0.3239  0.2383  0.2872
 4524TIP3    H135063   1.480   3.609   1.499  0.0476  0.2784 -0.1323
 4524TIP3    H235064   1.601   3.533   1.450  1.4606  0.7833  2.4443
 4525TIP3   OH235065   3.737   4.918  12.981 -0.7008 -0.0098 -1.0240
 4525TIP3    H135066   3.669   4.858  12.950 -1.4832  0.1040  0.3572
 4525TIP3    H235067   3.689   4.998  13.003 -0.1894 -0.0505  0.3275
 4526TIP3   OH235068   4.005   3.634   1.139 -0.0201 -0.3245 -0.2462
 4526TIP3    H135069   3.999   3.716   1.089 -0.7789 -0.2519 -0.0547
 4526TIP3    H235070   3.970   3.567   1.079  0.9235 -0.5788 -0.5319
 4527TIP3   OH235071   5.879   4.488   4.897  0.6040  0.7756 -0.1766
 4527TIP3    H135072   5.956   4.494   4.840  0.8467 -2.3552 -0.3358
 4527TIP3    H235073   5.806   4.470   4.838  0.1282  1.4651  0.1853
 4528TIP3   OH235074   0.466   1.962  11.566  0.1784  0.2137 -0.1897
 4528TIP3    H135075   0.546   1.963  11.514 -0.0239 -1.1541 -0.5727
 4528TIP3    H235076   0.477   1.887  11.626 -0.8441 -0.0690 -0.3364
 4529TIP3   OH235077   5.864   2.635  15.464  0.0574 -0.1379 -0.0257
 4529TIP3    H135078   5.884   2.724  15.491  1.4523 -0.6570  0.7495
 4529TIP3    H235079   5.844   2.642  15.371 -1.7858  1.2364  0.4133
 4530TIP3   OH235080   3.491   1.049  16.675  0.4008  0.3592  0.3036
 4530TIP3    H135081   3.526   0.964  16.651 -1.1278 -0.1916 -0.1091
 4530TIP3    H235082   3.412   1.030  16.725  0.3078  1.5330  0.6462
 4531TIP3   OH235083   2.861   5.912  10.664  0.0928  0.0314  0.2334
 4531TIP3    H135084   2.914   5.964  10.604  0.8592 -0.9524  0.0393
 4531TIP3    H235085   2.774   5.912  10.625  0.1939  0.7748 -0.0071
 4532TIP3   OH235086   5.442   5.431   2.070 -0.1279 -0.5069 -0.3039
 4532TIP3    H135087   5.453   5.413   2.163 -1.6177  2.4633  0.5939
 4532TIP3    H235088   5.366   5.378   2.044 -0.1210 -0.8416  0.3493
 4533TIP3   OH235089   3.714   3.414   5.710 -0.4477  0.1374 -0.1222
 4533TIP3    H135090   3.740   3.352   5.778 -1.3978  0.3407  0.4504
 4533TIP3    H235091   3.760   3.384   5.631 -1.0624 -1.4486  0.0883
 4534TIP3   OH235092   3.286   6.054  12.185 -0.5677  0.2381 -0.0603
 4534TIP3    H135093   3.192   6.061  12.170 -0.8524 -0.8900  0.9939
 4534TIP3    H235094   3.315   5.983  12.128 -0.2266  0.9857 -0.8365
 4535TIP3   OH235095   3.889   0.193   2.509  0.0111  0.1050  0.0033
 4535TIP3    H135096   3.874   0.241   2.428 -0.3809 -1.0022 -0.5993
 4535TIP3    H235097   3.801   0.174   2.543  0.0507 -2.1551 -0.9867
 4536TIP3   OH235098   0.682   3.382   5.004  0.1563 -0.3160  0.0454
 4536TIP3    H135099   0.707   3.404   5.094  1.6084  1.2679 -0.6912
 4536TIP3    H235100   0.592   3.412   4.996 -0.0029 -0.5044  0.9533
 4537TIP3   OH235101   2.864   0.386  13.740 -0.7894 -0.1486 -0.0618
 4537TIP3    H135102   2.844   0.439  13.817  0.8225  1.0511 -0.4082
 4537TIP3    H235103   2.790   0.326  13.732 -1.7470  0.7586  1.4835
 4538TIP3   OH235104   3.567   3.611  13.488 -0.5462  0.0504  0.3502
 4538TIP3    H135105   3.523   3.688  13.524  0.8989  1.5818 -0.9907
 4538TIP3    H235106   3.659   3.623  13.512 -0.2352 -1.0444 -0.2362
 4539TIP3   OH235107   0.173   0.508  11.460 -0.0302 -0.0494 -0.0325
 4539TIP3    H135108   0.202   0.492  11.550 -0.4268  2.1433  0.5422
 4539TIP3    H235109   0.079   0.488  11.462 -0.0482  0.0433  0.0421
 4540TIP3   OH235110   1.211   0.874  15.603  0.0614  0.0545  0.0276
 4540TIP3    H135111   1.138   0.897  15.547 -1.1232 -1.5145  0.8627
 4540TIP3    H235112   1.276   0.836  15.544 -0.3722  0.1665 -0.5264
 4541TIP3   OH235113   6.725   2.700  13.897 -0.2129 -0.4021 -0.4830
 4541TIP3    H135114   6.676   2.780  13.918 -0.5536 -0.8831  0.6538
 4541TIP3    H235115   6.706   2.641  13.970  0.3720 -1.3716 -1.0989
 4542TIP3   OH235116   5.341   4.624  12.903 -0.0635  0.2510 -0.0364
 4542TIP3    H135117   5.314   4.712  12.929 -0.5205 -0.0924  0.6771
 4542TIP3    H235118   5.412   4.638  12.841  0.2030  1.1181  0.4479
 4543TIP3   OH235119   3.316   0.290  11.985 -0.8957  0.1886 -0.2789
 4543TIP3    H135120   3.389   0.352  11.994 -1.4005  0.6690  0.5720
 4543TIP3    H235121   3.255   0.333  11.926 -0.8826  0.1516 -0.3202
 4544TIP3   OH235122   5.084   1.341  11.086  0.4910 -0.2701 -0.0462
 4544TIP3    H135123   5.014   1.276  11.095  0.8564 -0.5326  1.1172
 4544TIP3    H235124   5.041   1.424  11.106  0.9229 -0.6622  3.1386
 4545TIP3   OH235125   0.440   2.731  15.024  0.1108  0.0408 -0.3951
 4545TIP3    H135126   0.439   2.712  14.930 -0.6386 -0.8851 -0.2170
 4545TIP3    H235127   0.349   2.715  15.053 -0.5207  3.4656 -0.0963
 4546TIP3   OH235128   1.148   4.360   3.140 -0.3323 -0.2429  0.1269
 4546TIP3    H135129   1.110   4.278   3.108  0.2637 -0.0315 -1.1959
 4546TIP3    H235130   1.106   4.428   3.087  0.3863  0.1578  0.0637
 4547TIP3   OH235131   0.563   2.341  16.023  0.0788  0.2247 -0.4177
 4547TIP3    H135132   0.565   2.255  15.980 -0.4731  0.5231 -1.0495
 4547TIP3    H235133   0.568   2.320  16.117 -2.7083 -0.6855 -0.3807
 4548TIP3   OH235134   0.958   2.450   2.110  0.3104  0.0751 -0.1508
 4548TIP3    H135135   0.885   2.445   2.049  1.0844  1.3936 -1.2356
 4548TIP3    H235136   0.956   2.366   2.157 -1.3519 -0.2530 -0.7521
 4549TIP3   OH235137   4.563   2.972   6.640  0.0968 -0.3017  0.0706
 4549TIP3    H135138   4.535   3.035   6.706 -0.6636 -0.2203 -0.3176
 4549TIP3    H235139   4.576   3.025   6.561 -0.2161 -0.5734 -0.1673
 4550TIP3   OH235140   1.992   1.992  11.542 -0.1541 -0.1345  0.5093
 4550TIP3    H135141   1.948   1.978  11.458  1.9474 -2.3313 -0.3728
 4550TIP3    H235142   1.938   1.945  11.605 -1.9526  1.8372  0.5251
 4551TIP3   OH235143   0.630   1.701  11.560 -0.5166 -0.3288  0.4303
 4551TIP3    H135144   0.721   1.702  11.532 -1.0775  0.9077 -1.5635
 4551TIP3    H235145   0.600   1.611  11.541  0.6394 -1.2420  2.5973
 4552TIP3   OH235146   6.611   1.930   5.405 -0.2973  0.7276  0.3768
 4552TIP3    H135147   6.527   1.887   5.389 -0.0634  0.3538  0.1420
 4552TIP3    H235148   6.641   1.959   5.319  0.2684  0.0043  0.3228
 4553TIP3   OH235149   4.793   3.786  16.129 -0.7723 -0.5276 -0.0063
 4553TIP3    H135150   4.755   3.781  16.041 -0.1983 -1.6981 -0.1959
 4553TIP3    H235151   4.731   3.841  16.178 -1.5354 -0.5525 -0.9129
 4554TIP3   OH235152   0.473   2.517   0.867 -0.2911 -0.1118  0.6293
 4554TIP3    H135153   0.388   2.557   0.882  0.8189  2.8519 -0.3173
 4554TIP3    H235154   0.461   2.465   0.788 -0.8719  1.5892 -0.4512
 4555TIP3   OH235155   6.730   4.507   1.997  0.4511 -0.0286  0.1164
 4555TIP3    H135156   6.663   4.447   1.964  0.7794 -0.9043  0.9828
 4555TIP3    H235157   6.681   4.586   2.021 -0.6965 -1.4351  2.8450
 4556TIP3   OH235158   6.696   5.727  14.046  0.7928  0.2653 -0.4156
 4556TIP3    H135159   6.766   5.709  13.982  2.6906 -0.8741  1.8082
 4556TIP3    H235160   6.624   5.670  14.020  1.6080 -0.3540 -1.3807
 4557TIP3   OH235161   4.700   1.030   4.282  0.7748 -0.2501  0.0450
 4557TIP3    H135162   4.720   1.098   4.218 -2.3965  0.6244 -0.1952
 4557TIP3    H235163   4.645   0.967   4.235 -0.9248 -0.0286  1.5921
 4558TIP3   OH235164   0.796   0.581  17.211  0.5309 -0.5649 -0.2749
 4558TIP3    H135165   0.740   0.526  17.265 -0.6135 -1.2164 -2.0398
 4558TIP3    H235166   0.792   0.542  17.124  3.1636 -0.1883 -0.6600
 4559TIP3   OH235167   2.987   5.690  14.161  0.3946 -0.1529  0.3642
 4559TIP3    H135168   3.042   5.686  14.083  1.3955  3.7969  0.6535
 4559TIP3    H235169   3.048   5.687  14.234 -0.1059  0.6040  0.8248
 4560TIP3   OH235170   3.247   0.834   1.573 -0.4357 -0.2490  0.4382
 4560TIP3    H135171   3.273   0.827   1.482 -2.2733 -0.3295 -0.1161
 4560TIP3    H235172   3.164   0.880   1.571  0.1258  0.9390  2.1984
 4561TIP3   OH235173   5.534   2.715   1.110  0.2333  0.2122 -0.3067
 4561TIP3    H135174   5.572   2.757   1.187  2.2500  1.4630 -1.8898
 4561TIP3    H235175   5.594   2.643   1.090  0.5513  0.7943 -1.5286
 4562TIP3   OH235176   0.401   4.488   5.587 -0.3093 -0.1342  0.7185
 4562TIP3    H135177   0.497   4.491   5.595 -0.2238  0.5421 -0.4319
 4562TIP3    H235178   0.370   4.550   5.653 -0.0273 -1.1977  1.8919
 4563TIP3   OH235179   3.446   5.603  12.386 -0.0430  0.3500 -0.2379
 4563TIP3    H135180   3.424   5.648  12.467  1.0233 -0.3721  0.4765
 4563TIP3    H235181   3.512   5.539  12.411  0.2975  0.1013 -1.6757
 4564TIP3   OH235182   0.747   4.713   4.439  0.3911 -0.2339 -0.9453
 4564TIP3    H135183   0.653   4.728   4.441  0.2543 -1.0630 -0.7748
 4564TIP3    H235184   0.758   4.622   4.465  1.3572  0.3253  0.7784
 4565TIP3   OH235185   3.680   0.958  13.900 -0.0666  0.8228 -0.1183
 4565TIP3    H135186   3.636   1.025  13.953 -0.1460 -0.3029  1.2975
 4565TIP3    H235187   3.635   0.877  13.922  1.2903 -0.0107 -0.2883
 4566TIP3   OH235188   2.787   4.856   5.186  0.4695  0.0379  0.3369
 4566TIP3    H135189   2.787   4.807   5.269  0.2486  1.4053  1.1814
 4566TIP3    H235190   2.851   4.925   5.199 -0.9254  1.4305  0.1144
 4567TIP3   OH235191   5.467   3.563   4.541 -0.1187 -0.0684  0.2969
 4567TIP3    H135192   5.388   3.527   4.501  0.6198 -0.3989 -0.9148
 4567TIP3    H235193   5.517   3.597   4.467  1.3252 -0.7727  0.9198
 4568TIP3   OH235194   5.079   1.178   2.876  0.4616  0.7235 -0.7335
 4568TIP3    H135195   4.996   1.165   2.830  0.3333  0.9701 -0.5698
 4568TIP3    H235196   5.054   1.189   2.968  0.8368 -1.7935 -0.2351
 4569TIP3   OH235197   2.019   0.042   3.784 -0.4840  0.0892 -0.0439
 4569TIP3    H135198   1.941   0.043   3.730 -1.3755 -0.0853  1.2007
 4569TIP3    H235199   1.987   0.049   3.874  1.0252  2.4263  0.4131
 4570TIP3   OH235200   6.553   0.762   1.718  0.1978 -0.7360  0.1233
 4570TIP3    H135201   6.497   0.743   1.643 -0.1143 -1.8615  0.6302
 4570TIP3    H235202   6.641   0.738   1.690  0.0048 -1.6552  0.2879
 4571TIP3   OH235203   5.165   1.576  16.905 -0.3096  0.3393 -0.2307
 4571TIP3    H135204   5.201   1.602  16.990 -0.2452 -0.3854 -0.0285
 4571TIP3    H235205   5.235   1.525  16.864 -0.5597  0.1812 -0.4635
 4572TIP3   OH235206   3.465   6.435  12.769  0.0454  0.1120  0.2547
 4572TIP3    H135207   3.449   6.507  12.829  1.0517  3.0117 -2.6630
 4572TIP3    H235208   3.392   6.437  12.707  0.1026 -1.4010  0.0863
 4573TIP3   OH235209   4.746   2.438  11.725 -0.1538 -0.0141 -0.3447
 4573TIP3    H135210   4.732   2.532  11.713  1.0410  0.3335  0.6444
 4573TIP3    H235211   4.803   2.433  11.802  0.1282 -1.5357 -0.6262
 4574TIP3   OH235212   5.851   0.560  11.111 -0.1816 -0.2202 -0.3672
 4574TIP3    H135213   5.921   0.538  11.173 -1.0518 -1.8253  0.1037
 4574TIP3    H235214   5.884   0.530  11.027  0.5518  0.9641 -0.5165
 4575TIP3   OH235215   0.169   6.469  10.817 -0.4320  0.5162 -0.0332
 4575TIP3    H135216   0.222   6.510  10.749 -1.8341 -0.3057 -1.7071
 4575TIP3    H235217   0.159   6.536  10.885  2.5596  0.7351  0.3175
 4576TIP3   OH235218   1.998   1.520   4.304  0.0251 -0.2809 -0.2852
 4576TIP3    H135219   1.989   1.434   4.264  0.9323 -0.1499 -0.7925
 4576TIP3    H235220   1.908   1.548   4.321 -0.2828 -1.2642 -0.2326
 4577TIP3   OH235221   1.365   3.624   4.703  0.0608  0.2825 -0.0332
 4577TIP3    H135222   1.386   3.577   4.622 -0.4147  0.3775 -0.2146
 4577TIP3    H235223   1.445   3.618   4.755  0.0416 -0.6595 -0.0840
 4578TIP3   OH235224   3.743   5.219   5.040  0.0534  0.7660  0.0029
 4578TIP3    H135225   3.672   5.272   5.005 -0.6276 -0.8355 -1.1563
 4578TIP3    H235226   3.700   5.141   5.076  1.1030  0.4070  0.5287
 4579TIP3   OH235227   2.796   0.863   5.032  0.6242 -0.3021 -0.3954
 4579TIP3    H135228   2.855   0.831   4.963 -1.6274 -3.1541 -1.2067
 4579TIP3    H235229   2.796   0.793   5.097 -0.7875  0.2415  0.2331
 4580TIP3   OH235230   6.065   0.402   2.054  0.1595 -0.0903  0.7804
 4580TIP3    H135231   5.984   0.353   2.068  0.1580 -0.0244  1.0043
 4580TIP3    H235232   6.036   0.492   2.037  0.1942 -0.0230  1.0705
 4581TIP3   OH235233   0.638   4.009  14.182 -0.2569  0.0273 -0.2922
 4581TIP3    H135234   0.609   3.918  14.170  1.9487 -0.9525  1.1799
 4581TIP3    H235235   0.732   4.002  14.197 -0.3795  2.3331  2.2037
 4582TIP3   OH235236   6.829   1.919  15.996  0.1397  0.1505  0.5088
 4582TIP3    H135237   6.789   1.839  16.031 -1.8169  1.2896  1.0523
 4582TIP3    H235238   6.828   1.980  16.070 -0.6178  1.4142 -0.5010
 4583TIP3   OH235239   6.415   1.473   0.210  0.0425  0.8018  0.5880
 4583TIP3    H135240   6.418   1.488   0.116  2.5090 -0.1816  0.4346
 4583TIP3    H235241   6.439   1.557   0.249  1.1458  0.6819  0.2140
 4584TIP3   OH235242   5.778   2.707   5.177 -0.2355 -0.1305 -0.7263
 4584TIP3    H135243   5.684   2.727   5.183 -0.4511 -1.4174  1.4852
 4584TIP3    H235244   5.807   2.704   5.268  1.5112 -1.6652 -1.2849
 4585TIP3   OH235245   4.250   3.528  13.744 -0.9677 -0.3187  0.0786
 4585TIP3    H135246   4.256   3.563  13.655 -0.6422  0.2973  0.3353
 4585TIP3    H235247   4.282   3.438  13.736  0.0373  0.0475 -0.2566
 4586TIP3   OH235248   6.176   5.146  12.702 -0.2083 -0.0739 -0.0015
 4586TIP3    H135249   6.265   5.144  12.666 -0.1368 -0.6085  0.1959
 4586TIP3    H235250   6.132   5.215  12.653  0.0657 -0.3862 -0.7064
 4587TIP3   OH235251   3.024   3.575   1.486  0.0092 -0.5418  0.3301
 4587TIP3    H135252   3.034   3.616   1.400  0.7259  0.8048  1.0207
 4587TIP3    H235253   2.935   3.540   1.485 -1.3654  2.6065  0.2870
 4588TIP3   OH235254   1.652   4.033   4.497 -0.1152 -0.6500 -0.2358
 4588TIP3    H135255   1.590   3.960   4.502  0.1155 -0.7825  1.3432
 4588TIP3    H235256   1.611   4.102   4.548  0.3295 -0.1809 -0.5053
 4589TIP3   OH235257   3.561   5.001  12.092 -0.1280 -0.2312  0.2508
 4589TIP3    H135258   3.541   5.094  12.104  0.3363 -0.1100  0.1007
 4589TIP3    H235259   3.656   4.997  12.082 -0.1947 -0.6552 -0.3395
 4590TIP3   OH235260   0.733   5.468  14.471 -0.3284 -0.5868 -0.2364
 4590TIP3    H135261   0.738   5.375  14.448 -0.8786 -1.0675  1.4265
 4590TIP3    H235262   0.641   5.490  14.465 -0.4368 -0.6183  0.9272
 4591TIP3   OH235263   4.030   0.971  15.609  0.0919 -0.1292  0.2915
 4591TIP3    H135264   4.005   0.909  15.677 -0.8336  0.5198  0.5670
 4591TIP3    H235265   4.005   0.929  15.527 -2.7237  0.7731  0.5758
 4592TIP3   OH235266   3.362   5.079   6.505 -0.1102 -0.1363  0.1874
 4592TIP3    H135267   3.416   5.006   6.474 -0.2627 -0.8312  1.4755
 4592TIP3    H235268   3.285   5.037   6.544 -0.2353  0.7128  0.8984
 4593TIP3   OH235269   5.047   0.810  11.793  0.4540 -0.2721 -0.1296
 4593TIP3    H135270   5.012   0.876  11.853  0.3776 -0.1103 -0.3513
 4593TIP3    H235271   5.135   0.792  11.825  1.8223  2.4154 -2.0066
 4594TIP3   OH235272   6.600   0.389  13.627  0.4612 -0.2449  0.4838
 4594TIP3    H135273   6.555   0.431  13.700 -1.8381  0.4826 -1.2573
 4594TIP3    H235274   6.633   0.461  13.574  0.6067 -0.7282 -0.1014
 4595TIP3   OH235275   4.685   4.879   3.501 -0.2427  0.4351 -0.3445
 4595TIP3    H135276   4.621   4.926   3.554 -0.2124  0.5583 -0.4189
 4595TIP3    H235277   4.633   4.832   3.436 -0.2585  0.5144 -0.3884
 4596TIP3   OH235278   3.532   0.420   2.464 -0.5466  0.5641 -0.5772
 4596TIP3    H135279   3.545   0.343   2.407  0.1386 -0.5365  0.9942
 4596TIP3    H235280   3.520   0.493   2.403 -2.0864 -0.9018 -2.1510
 4597TIP3   OH235281   4.701   2.665  13.235  0.0206  0.3658 -0.1938
 4597TIP3    H135282   4.620   2.617  13.218  0.7758 -0.8526 -0.4086
 4597TIP3    H235283   4.699   2.682  13.329 -0.0862 -0.4017 -0.0541
 4598TIP3   OH235284   0.139   0.114  11.308 -0.3522  0.0307 -0.4013
 4598TIP3    H135285   0.190   0.046  11.264 -1.3726 -0.6621 -0.5157
 4598TIP3    H235286   0.074   0.067  11.359 -1.0993  0.9208 -0.5189
 4599TIP3   OH235287   6.237   6.478   2.642 -0.2058  0.1180 -0.1442
 4599TIP3    H135288   6.210   6.569   2.657 -0.7947 -0.1329  0.3649
 4599TIP3    H235289   6.322   6.485   2.598 -0.1952  0.9157 -0.0098
 4600TIP3   OH235290   0.422   1.698  13.118 -0.2687  0.1289  0.2654
 4600TIP3    H135291   0.497   1.646  13.090  0.7711  1.6238  0.1334
 4600TIP3    H235292   0.447   1.731  13.205 -0.5739  0.9659  0.0530
 4601TIP3   OH235293   4.259   1.631   5.939  0.0682  0.5243  0.2027
 4601TIP3    H135294   4.201   1.555   5.937 -0.6970  1.1076 -0.2566
 4601TIP3    H235295   4.309   1.625   5.857 -1.3563  1.5414 -0.7715
 4602TIP3   OH235296   5.278   2.953   2.384  0.1220  0.3061  0.3615
 4602TIP3    H135297   5.344   2.896   2.424 -0.0019 -0.2951 -0.2787
 4602TIP3    H235298   5.230   2.990   2.458  0.4708 -0.0911  0.7931
 4603TIP3   OH235299   0.474   2.307  12.943 -0.3398  0.6278  0.2261
 4603TIP3    H135300   0.442   2.284  12.856 -1.8522  3.0443  0.0291
 4603TIP3    H235301   0.440   2.238  13.000  0.4018 -0.8170 -0.9954
 4604TIP3   OH235302   1.855   4.664  16.111  0.1313 -0.1771 -0.3056
 4604TIP3    H135303   1.836   4.755  16.135  1.1279  0.0480 -0.3085
 4604TIP3    H235304   1.826   4.613  16.187  0.5380  0.2522  0.1541
 4605TIP3   OH235305   2.544   0.119   5.265 -0.5567 -0.3441  0.4242
 4605TIP3    H135306   2.466   0.137   5.318 -1.9669  0.4721 -1.8101
 4605TIP3    H235307   2.532   0.170   5.186  1.8422 -0.9360 -0.4048
 4606TIP3   OH235308   1.974   6.580   2.645  0.0294 -0.0448  0.4429
 4606TIP3    H135309   1.984   6.552   2.736 -0.3268  0.9173  0.7907
 4606TIP3    H235310   2.044   6.535   2.599 -0.2659 -1.1660  1.0431
 4607TIP3   OH235311   2.526   6.494   3.379  0.3570  0.7018 -0.2746
 4607TIP3    H135312   2.605   6.544   3.359  0.0646  0.5557 -2.0002
 4607TIP3    H235313   2.462   6.559   3.406  1.1035  0.7997  1.3372
 4608TIP3   OH235314   4.982   2.221   0.885  0.2618  0.3822  0.1594
 4608TIP3    H135315   4.916   2.273   0.931 -1.4103 -2.4558  1.2424
 4608TIP3    H235316   4.953   2.219   0.794 -2.7801 -2.7702  0.9855
 4609TIP3   OH235317   5.006   4.867   5.397  0.1431 -0.4449 -0.5274
 4609TIP3    H135318   5.073   4.881   5.465 -0.6744  2.3251 -0.1661
 4609TIP3    H235319   4.929   4.839   5.446 -0.4078  1.4225 -0.2639
 4610TIP3   OH235320   3.664   0.997  13.392  0.3865  0.2582 -0.0047
 4610TIP3    H135321   3.599   0.952  13.339 -0.7152 -0.9242  2.2461
 4610TIP3    H235322   3.622   1.010  13.476  1.9681  2.3558  0.5423
 4611TIP3   OH235323   1.893   5.173   2.435  0.5682  0.8416 -0.1052
 4611TIP3    H135324   1.827   5.156   2.367  0.9547  0.0054 -0.2847
 4611TIP3    H235325   1.842   5.178   2.516  0.2277  0.7023 -0.3062
 4612TIP3   OH235326   0.531   0.173  12.030  0.5245  0.0608 -0.6589
 4612TIP3    H135327   0.523   0.084  11.995  1.4012 -0.1814 -0.2827
 4612TIP3    H235328   0.610   0.207  11.988  0.0989  0.7334 -0.9306
 4613TIP3   OH235329   1.106   4.970   2.611  0.3743  0.3829 -0.5072
 4613TIP3    H135330   1.069   4.895   2.564 -0.2525  1.7476 -2.3190
 4613TIP3    H235331   1.177   5.001   2.554  0.2840  1.4591 -0.0576
 4614TIP3   OH235332   0.338   4.668   4.767  0.9942 -0.5580  0.5958
 4614TIP3    H135333   0.311   4.757   4.790 -0.5690 -1.0211  0.6713
 4614TIP3    H235334   0.434   4.672   4.764  0.9530  1.1206  0.5685
 4615TIP3   OH235335   1.301   2.401  13.305  0.2392  0.4869  0.0437
 4615TIP3    H135336   1.261   2.484  13.331 -0.0347  0.8527 -1.4361
 4615TIP3    H235337   1.390   2.405  13.341 -0.7604 -0.0402  2.7927
 4616TIP3   OH235338   3.675   0.611   1.227  0.4439 -0.4080  0.5528
 4616TIP3    H135339   3.674   0.642   1.318 -0.9129  0.3972  0.2925
 4616TIP3    H235340   3.586   0.582   1.211  0.7774 -0.9234 -0.4134
 4617TIP3   OH235341   5.120   1.496  10.551  0.3304 -0.0870 -0.2531
 4617TIP3    H135342   5.121   1.584  10.589  0.0233 -0.4399  0.5978
 4617TIP3    H235343   5.168   1.442  10.614 -0.0245 -0.6506 -0.4536
 4618TIP3   OH235344   1.882   6.690   3.187 -0.7620  0.6624 -0.3891
 4618TIP3    H135345   1.931   6.772   3.181 -0.3021  0.4627  0.5184
 4618TIP3    H235346   1.949   6.622   3.192 -1.1396  0.2576 -0.7386
 4619TIP3   OH235347   4.636   2.702   1.563 -1.0750 -0.6071 -0.0209
 4619TIP3    H135348   4.658   2.609   1.555 -0.2330 -0.5478  1.2376
 4619TIP3    H235349   4.566   2.716   1.500 -1.4532 -2.1719  0.0136
 4620TIP3   OH235350   3.335   1.442   2.928 -0.4347 -1.0555  0.1571
 4620TIP3    H135351   3.299   1.378   2.989  2.8403 -4.4651 -1.1021
 4620TIP3    H235352   3.412   1.477   2.973 -0.4047 -0.3683 -0.4066
 4621TIP3   OH235353   5.463   5.239   0.960 -0.0725  0.2271 -1.0791
 4621TIP3    H135354   5.412   5.224   1.039 -0.3150  2.8701 -0.6220
 4621TIP3    H235355   5.529   5.303   0.986  1.4880 -0.7795 -2.4269
 4622TIP3   OH235356   6.212   2.001   4.579  0.2695 -0.4165  0.1859
 4622TIP3    H135357   6.125   1.961   4.584  0.2784 -0.4267  0.2676
 4622TIP3    H235358   6.206   2.064   4.508  0.8355 -1.9697 -1.3114
 4623TIP3   OH235359   4.565   6.463  15.169 -0.5845  0.4392 -0.1329
 4623TIP3    H135360   4.592   6.470  15.261  0.9430  2.7111 -0.6666
 4623TIP3    H235361   4.646   6.477  15.120 -1.6091  0.6902 -1.8234
 4624TIP3   OH235362   5.323   1.269   3.252  0.4706  0.2410 -0.0519
 4624TIP3    H135363   5.286   1.232   3.332  0.6111  0.3388  0.0610
 4624TIP3    H235364   5.280   1.354   3.242  1.3525  0.8009  0.6237
 4625TIP3   OH235365   1.584   3.070  13.086 -0.3747  0.0333  0.4121
 4625TIP3    H135366   1.560   3.159  13.059 -0.7158  0.5885  2.3945
 4625TIP3    H235367   1.619   3.029  13.007  0.1794  2.0690 -0.4450
 4626TIP3   OH235368   2.029   0.743  11.991  0.7751  0.5434  0.0331
 4626TIP3    H135369   1.996   0.780  12.073 -0.8813 -1.0727  0.1543
 4626TIP3    H235370   2.067   0.659  12.016  0.5468  0.1796 -0.8161
 4627TIP3   OH235371   2.995   2.417  15.166 -0.1000  0.2011 -0.3479
 4627TIP3    H135372   2.972   2.449  15.253 -0.5558 -1.3320  0.1344
 4627TIP3    H235373   3.014   2.324  15.179 -0.1281 -0.0483 -1.8822
 4628TIP3   OH235374   2.910   5.417  12.949  0.2881 -0.0754 -0.5750
 4628TIP3    H135375   2.913   5.361  13.027 -1.8394  0.8086  0.2077
 4628TIP3    H235376   2.838   5.381  12.897 -0.2722  1.1459 -0.6689
 4629TIP3   OH235377   4.219   2.287   1.896 -0.3618 -0.6328 -0.1515
 4629TIP3    H135378   4.311   2.268   1.916 -0.7566 -2.0430  0.4669
 4629TIP3    H235379   4.190   2.343   1.968 -0.1385 -0.6675 -0.0331
 4630TIP3   OH235380   5.506   1.657  10.474  0.4956  0.0393  0.2774
 4630TIP3    H135381   5.471   1.575  10.437  0.7947  0.1275 -0.2078
 4630TIP3    H235382   5.429   1.702  10.509  0.4179 -0.8007  1.2570
 4631TIP3   OH235383   6.727   5.907   6.014  1.1378  0.2593 -0.1341
 4631TIP3    H135384   6.737   5.951   6.098  0.0761  0.2188  0.0174
 4631TIP3    H235385   6.729   5.814   6.035  0.6496  0.2493 -0.1210
 4632TIP3   OH235386   1.236   0.001  12.201 -0.2890  0.0303 -0.5548
 4632TIP3    H135387   1.322   0.001  12.243 -0.8602 -4.0267  1.0456
 4632TIP3    H235388   1.184   0.061  12.254  0.4130 -1.0026  1.4265
 4633TIP3   OH235389   2.188   6.413   5.654  0.3742 -0.1853 -0.4400
 4633TIP3    H135390   2.142   6.413   5.737  0.5605  0.2740 -0.3357
 4633TIP3    H235391   2.228   6.326   5.649  0.6559 -0.0888  0.1107
 4634TIP3   OH235392   3.546   5.590  16.230  0.2465  0.5042 -0.8373
 4634TIP3    H135393   3.494   5.520  16.192 -0.2352  0.2969  0.1920
 4634TIP3    H235394   3.630   5.584  16.185  0.5770 -1.3935 -0.0350
 4635TIP3   OH235395   1.008   0.849   3.287  0.1966 -0.4639 -0.0099
 4635TIP3    H135396   1.080   0.791   3.264  1.4749  0.1019  2.2600
 4635TIP3    H235397   1.021   0.869   3.380 -1.7923  1.2211  0.0040
 4636TIP3   OH235398   1.034   1.908  12.530 -0.0661  0.2443  0.4218
 4636TIP3    H135399   1.088   1.984  12.555  2.4456 -0.5564 -2.0463
 4636TIP3    H235400   1.022   1.917  12.435 -0.4112 -2.0094  0.1975
 4637TIP3   OH235401   6.526   2.083   2.025  0.3791  0.3079 -0.1996
 4637TIP3    H135402   6.476   2.158   1.994 -1.6135 -1.1108 -0.5526
 4637TIP3    H235403   6.542   2.101   2.118 -0.5343  0.9337 -0.1536
 4638TIP3   OH235404   1.523   6.738  11.598 -0.4277  0.4991  0.1982
 4638TIP3    H135405   1.467   6.737  11.520 -0.2885 -1.5132  0.0893
 4638TIP3    H235406   1.563   6.825  11.597 -0.2025  0.4461 -2.1484
 4639TIP3   OH235407   5.999   3.561   6.066  0.2543 -0.5835 -0.7526
 4639TIP3    H135408   6.036   3.522   5.987 -0.6754 -3.3916  0.0962
 4639TIP3    H235409   5.931   3.620   6.035  2.2080  1.0999 -2.1196
 4640TIP3   OH235410   2.386   5.438  15.504  0.3528  0.2134 -0.2001
 4640TIP3    H135411   2.479   5.428  15.483  0.7657  0.3235  1.4588
 4640TIP3    H235412   2.360   5.353  15.539  1.2188  1.5004  4.1647
 4641TIP3   OH235413   2.800   1.566  14.352 -0.2033 -0.4830  0.9318
 4641TIP3    H135414   2.803   1.473  14.377  1.6974 -0.7399 -0.0437
 4641TIP3    H235415   2.823   1.566  14.259 -1.6658  0.8740  0.5347
 4642TIP3   OH235416   6.143   3.101  14.545 -0.1126 -0.2186  0.1131
 4642TIP3    H135417   6.068   3.092  14.487 -2.4809  2.2125  2.4793
 4642TIP3    H235418   6.172   3.192  14.533 -0.0417  0.0379  1.9169
 4643TIP3   OH235419   4.356   1.868  12.640 -0.0958  0.2297 -0.8778
 4643TIP3    H135420   4.447   1.886  12.616  1.0397 -3.0171  0.4136
 4643TIP3    H235421   4.317   1.831  12.561 -0.4648  1.9453 -1.5367
 4644TIP3   OH235422   1.705   1.305  14.257 -0.2691 -0.1896 -0.1007
 4644TIP3    H135423   1.637   1.368  14.232 -0.3267 -0.4641 -0.6346
 4644TIP3    H235424   1.700   1.302  14.353  0.0251  0.9410 -0.0349
 4645TIP3   OH235425   0.255   4.862  12.839  0.3514 -0.2251  0.2441
 4645TIP3    H135426   0.277   4.953  12.816  1.1616 -0.5093 -0.1462
 4645TIP3    H235427   0.167   4.850  12.804  0.0895  0.5168  0.6107
 4646TIP3   OH235428   2.912   1.171   2.658  0.6785 -0.5667 -0.2606
 4646TIP3    H135429   2.931   1.179   2.752  1.0864 -3.3606 -0.0109
 4646TIP3    H235430   2.817   1.179   2.652  0.7118  0.3826  0.2710
 4647TIP3   OH235431   2.827   3.608   2.417 -0.2169 -0.4327  0.2173
 4647TIP3    H135432   2.779   3.573   2.492 -2.7831  2.7855  0.2871
 4647TIP3    H235433   2.761   3.615   2.348  1.6363 -1.4414 -1.7495
 4648TIP3   OH235434   4.738   4.989   0.643  0.7580  0.5762 -0.7835
 4648TIP3    H135435   4.647   5.016   0.645  0.1073 -1.4685 -0.3441
 4648TIP3    H235436   4.787   5.068   0.665 -1.0386  1.2095  1.3173
 4649TIP3   OH235437   4.503   3.366  11.229  0.3306 -0.2273 -0.7158
 4649TIP3    H135438   4.423   3.405  11.195  0.2765  1.0434  0.7860
 4649TIP3    H235439   4.571   3.431  11.210  0.2689  0.6332  1.6721
 4650TIP3   OH235440   2.721   4.351   2.456 -0.6898 -0.4856  0.7422
 4650TIP3    H135441   2.658   4.387   2.519  0.0676  2.2703  0.0618
 4650TIP3    H235442   2.802   4.345   2.506 -1.0656 -2.6329  1.2010
 4651TIP3   OH235443   6.747   1.546   4.116  0.0507 -0.4259 -0.6282
 4651TIP3    H135444   6.811   1.480   4.088  1.6430  0.8399 -0.1491
 4651TIP3    H235445   6.711   1.511   4.198  1.8959 -0.1069  0.3656
 4652TIP3   OH235446   2.730   4.627  15.554 -0.2388 -0.2730 -0.6043
 4652TIP3    H135447   2.743   4.556  15.617 -2.5706  0.2674  0.6267
 4652TIP3    H235448   2.806   4.684  15.565  1.3842 -2.2097 -1.2047
 4653TIP3   OH235449   4.679   3.446   5.901  0.7263  0.1238 -0.5047
 4653TIP3    H135450   4.613   3.514   5.887 -0.4304 -0.6648  0.7766
 4653TIP3    H235451   4.690   3.442   5.996  3.0658  0.5874 -0.6928
 4654TIP3   OH235452   3.324   1.990  14.050  0.4005  0.2715  0.0202
 4654TIP3    H135453   3.420   1.990  14.051  0.4001  0.7704  0.4278
 4654TIP3    H235454   3.302   2.045  13.974  0.4319  0.0287 -0.1670
 4655TIP3   OH235455   6.420   1.348  16.317  0.2561 -0.1527 -0.1559
 4655TIP3    H135456   6.390   1.426  16.270 -1.7344 -0.3491  0.6898
 4655TIP3    H235457   6.488   1.311  16.261  1.4236  2.2929 -0.4707
 4656TIP3   OH235458   5.091   5.136   3.952 -0.3017  0.2794 -0.2383
 4656TIP3    H135459   5.171   5.094   3.920 -1.5225 -1.2009 -1.4996
 4656TIP3    H235460   5.119   5.185   4.029  1.6274 -1.0585 -0.0149
 4657TIP3   OH235461   1.620   3.756   3.853 -0.3706 -0.2323 -0.3320
 4657TIP3    H135462   1.641   3.718   3.938 -1.6310 -1.0578 -0.3618
 4657TIP3    H235463   1.685   3.825   3.840  0.7139 -1.0475  0.6474
 4658TIP3   OH235464   2.848   0.435  16.494 -0.0664 -0.2524  0.0359
 4658TIP3    H135465   2.783   0.494  16.455 -0.6932 -0.0978  1.2940
 4658TIP3    H235466   2.808   0.406  16.576  0.0338 -2.8057 -0.7511
 4659TIP3   OH235467   6.455   0.262  13.950  0.4644 -0.2780  0.1167
 4659TIP3    H135468   6.394   0.335  13.933 -1.3184 -0.9936  2.6939
 4659TIP3    H235469   6.409   0.184  13.919  1.1669 -0.5968 -0.1449
 4660TIP3   OH235470   5.390   1.437   0.812 -0.1508  0.2291  0.1277
 4660TIP3    H135471   5.481   1.456   0.834 -0.0813  0.2503 -0.1695
 4660TIP3    H235472   5.389   1.435   0.716 -0.5440  0.6334  0.1216
 4661TIP3   OH235473   5.928   1.191  11.040  0.4487 -0.2219 -0.6484
 4661TIP3    H135474   6.020   1.200  11.016  0.9355  1.1600  1.4223
 4661TIP3    H235475   5.881   1.190  10.957  2.3787 -2.5754 -1.8503
 4662TIP3   OH235476   3.986   6.343  12.086  0.6199 -0.2812 -0.2857
 4662TIP3    H135477   3.981   6.331  12.181  0.7081  0.8100 -0.1334
 4662TIP3    H235478   3.898   6.374  12.062  1.2211  1.5651 -0.2217
 4663TIP3   OH235479   6.214   5.808   2.466 -0.1888 -0.7420 -0.4205
 4663TIP3    H135480   6.215   5.865   2.543  0.2096 -1.0208 -0.2195
 4663TIP3    H235481   6.123   5.782   2.456  0.1639 -3.2266  1.8144
 4664TIP3   OH235482   1.749   2.750  15.914 -0.7887 -0.3255 -0.6829
 4664TIP3    H135483   1.675   2.774  15.857 -0.7181  1.1654 -0.1942
 4664TIP3    H235484   1.724   2.665  15.950 -2.9619  0.7033  0.5090
 4665TIP3   OH235485   2.227   5.845   0.070  0.3986 -0.1633 -0.2880
 4665TIP3    H135486   2.288   5.775   0.093  1.9816  1.5116  0.9662
 4665TIP3    H235487   2.167   5.850   0.144 -1.3098 -1.7464 -1.4792
 4666TIP3   OH235488   3.976   5.118   5.123 -0.0870 -0.2052  0.7187
 4666TIP3    H135489   3.937   5.033   5.100 -1.3681  0.7701 -0.9297
 4666TIP3    H235490   3.912   5.183   5.093  1.8081  1.4050 -0.0717
 4667TIP3   OH235491   1.168   3.221  15.070  0.0890  0.4887 -0.3163
 4667TIP3    H135492   1.116   3.238  15.149 -0.2550  0.4313 -0.5260
 4667TIP3    H235493   1.131   3.280  15.005  0.1723  0.3181 -0.5185
 4668TIP3   OH235494   0.485   0.976  13.509  0.3754  0.0124  0.1981
 4668TIP3    H135495   0.439   0.980  13.426  1.2822  3.2199 -0.2520
 4668TIP3    H235496   0.421   1.006  13.574  0.6365  0.6770  0.1531
 4669TIP3   OH235497   6.467   4.309   4.431  0.3515 -0.4385  0.3554
 4669TIP3    H135498   6.529   4.238   4.450 -1.0161 -1.5873  0.7306
 4669TIP3    H235499   6.381   4.269   4.445 -0.4529  1.4813  1.1071
 4670TIP3   OH235500   2.766   6.074  12.546  0.6666 -0.0000 -0.2516
 4670TIP3    H135501   2.726   6.150  12.503 -0.1785 -1.3170 -1.9042
 4670TIP3    H235502   2.842   6.110  12.592  0.0339  1.9021 -0.6074
 4671TIP3   OH235503   0.488   5.766  12.393  0.6778 -0.1988  0.2458
 4671TIP3    H135504   0.570   5.794  12.352  2.2335 -2.0929  1.8398
 4671TIP3    H235505   0.479   5.674  12.369 -1.0186 -0.0211  0.1085
 4672TIP3   OH235506   3.416   4.098  12.879 -0.3433  0.2798 -0.3110
 4672TIP3    H135507   3.337   4.046  12.896 -0.5013  0.5261 -0.2980
 4672TIP3    H235508   3.447   4.067  12.794  0.5876 -1.1328  0.4978
 4673TIP3   OH235509   1.731   4.796   5.723  0.6956 -0.3669  0.5664
 4673TIP3    H135510   1.682   4.810   5.642  0.8171 -1.8929  0.2060
 4673TIP3    H235511   1.781   4.877   5.735  0.6356 -0.1009 -0.8491
 4674TIP3   OH235512   3.553   4.487  12.463  0.3387 -0.4402 -0.6570
 4674TIP3    H135513   3.557   4.580  12.441  1.4814 -0.2213  0.3405
 4674TIP3    H235514   3.478   4.480  12.522  0.7119 -0.0007 -0.1181
 4675TIP3   OH235515   0.583   0.148   4.670  0.2165  0.0900 -0.1894
 4675TIP3    H135516   0.659   0.090   4.670  0.1941  0.0391  1.1750
 4675TIP3    H235517   0.591   0.198   4.751 -1.8953 -0.8293  0.6393
 4676TIP3   OH235518   2.502   4.159  15.285 -0.2486 -0.1449 -0.3413
 4676TIP3    H135519   2.474   4.238  15.331 -2.0146 -0.5920 -0.5783
 4676TIP3    H235520   2.534   4.191  15.201 -1.8934  0.2897 -0.8498
 4677TIP3   OH235521   1.229   3.628   0.646  0.0847  0.0586  0.2427
 4677TIP3    H135522   1.279   3.709   0.645 -0.5931  0.4877  0.1341
 4677TIP3    H235523   1.274   3.572   0.709 -0.1144  0.9542  1.2056
 4678TIP3   OH235524   2.271   3.026  15.613 -0.7719 -0.4817 -0.0452
 4678TIP3    H135525   2.184   2.985  15.611 -1.2083  0.3758  0.4298
 4678TIP3    H235526   2.331   2.955  15.633 -1.1227 -1.4633 -2.1799
 4679TIP3   OH235527   0.789   4.721   6.227  0.0009  0.1169 -0.0161
 4679TIP3    H135528   0.861   4.694   6.285 -0.7930  0.0060  0.9560
 4679TIP3    H235529   0.730   4.770   6.284 -0.0230  1.4265 -1.1131
 4680TIP3   OH235530   0.545   4.977  16.401 -0.0934 -0.0325  0.5107
 4680TIP3    H135531   0.518   4.900  16.450 -1.4286  0.6721  0.9340
 4680TIP3    H235532   0.482   5.045  16.426  2.1420  1.7745  1.6202
 4681TIP3   OH235533   5.615   1.858  15.838  0.0075  0.1000  0.1215
 4681TIP3    H135534   5.646   1.767  15.843 -1.1637 -0.3928 -1.0176
 4681TIP3    H235535   5.663   1.895  15.764  2.4126  1.2659  2.0959
 4682TIP3   OH235536   6.443   5.443   1.748 -0.4077 -0.6947 -0.4666
 4682TIP3    H135537   6.477   5.376   1.689  1.5446  0.4262 -0.7326
 4682TIP3    H235538   6.460   5.526   1.702  0.3514  0.1610  1.2318
 4683TIP3   OH235539   5.213   2.820   2.165 -0.1823 -0.5338  0.1181
 4683TIP3    H135540   5.137   2.777   2.205  0.0622 -0.5795  0.5348
 4683TIP3    H235541   5.269   2.843   2.239 -0.0552  0.0156 -0.1470
 4684TIP3   OH235542   1.225   6.315   4.410  0.3093  0.3910  0.5970
 4684TIP3    H135543   1.176   6.397   4.411  0.4924  0.5886 -1.4882
 4684TIP3    H235544   1.317   6.341   4.407  0.3456  0.2171 -1.5348
 4685TIP3   OH235545   3.310   2.811   5.195  0.4689 -0.1544  0.0052
 4685TIP3    H135546   3.355   2.727   5.194  1.9507  0.5381 -2.5643
 4685TIP3    H235547   3.251   2.808   5.119 -0.8067  0.4929  0.9286
 4686TIP3   OH235548   2.451   0.951  13.265 -0.2836  0.8294 -0.1222
 4686TIP3    H135549   2.500   1.006  13.327 -0.5202  3.1063 -1.8286
 4686TIP3    H235550   2.359   0.966  13.287 -0.3365  0.7824 -0.3106
 4687TIP3   OH235551   3.791   5.009  14.039 -0.4318  0.2508 -0.2115
 4687TIP3    H135552   3.737   4.950  13.986  1.1175 -0.4703 -1.0469
 4687TIP3    H235553   3.788   4.972  14.127  0.9831 -1.4787 -0.8340
 4688TIP3   OH235554   4.156   3.895  17.014  0.5250 -0.2670  0.0811
 4688TIP3    H135555   4.103   3.945  16.951  0.7159 -2.1659 -1.7077
 4688TIP3    H235556   4.237   3.945  17.022  0.3166  0.2469 -0.8491
 4689TIP3   OH235557   5.314   2.638   3.173  0.1918 -0.0324  0.5156
 4689TIP3    H135558   5.270   2.695   3.110  0.0123 -1.1257 -0.3759
 4689TIP3    H235559   5.407   2.662   3.166  0.0457  0.5696  0.5984
 4690TIP3   OH235560   3.904   3.448  13.239 -0.3296  0.3561 -0.5129
 4690TIP3    H135561   3.914   3.401  13.322  1.7590  0.8855 -0.4253
 4690TIP3    H235562   3.809   3.463  13.232 -0.7678 -1.4325  0.7730
 4691TIP3   OH235563   6.274   6.000   5.970 -0.3311  0.1908  0.1034
 4691TIP3    H135564   6.338   5.995   6.041  1.6599 -1.9038 -1.7000
 4691TIP3    H235565   6.205   5.939   5.996 -0.8356  1.1992  1.2663
 4692TIP3   OH235566   5.476   1.742   2.007  0.0197  0.2569  0.3114
 4692TIP3    H135567   5.414   1.684   1.963 -0.5166  0.6533  0.5278
 4692TIP3    H235568   5.447   1.743   2.098  2.3485 -2.2088  1.1878
 4693TIP3   OH235569   6.519   4.363  16.178 -0.1344  0.8830  0.5746
 4693TIP3    H135570   6.563   4.356  16.093 -0.8069  4.4902 -0.2256
 4693TIP3    H235571   6.453   4.294  16.176  1.6934 -0.9655 -0.5424
 4694TIP3   OH235572   0.149   6.697   4.082 -0.1208 -0.4429  0.1024
 4694TIP3    H135573   0.160   6.770   4.020  0.1434  0.4217  1.1429
 4694TIP3    H235574   0.232   6.694   4.129  0.4891 -2.4540 -0.9750
 4695TIP3   OH235575   4.169   1.293  10.661  0.3402  0.3993 -0.2231
 4695TIP3    H135576   4.215   1.209  10.653  0.3288  0.4024 -0.3186
 4695TIP3    H235577   4.088   1.280  10.612 -0.0606  0.1745  0.4692
 4696TIP3   OH235578   2.040   4.177   2.266  0.2044  0.0133  0.1868
 4696TIP3    H135579   2.065   4.247   2.327 -1.3505  1.9518 -1.2914
 4696TIP3    H235580   2.064   4.097   2.312  0.2768  1.4151  2.8233
 4697TIP3   OH235581   6.240   1.203  11.723 -0.1176 -0.4320  0.0402
 4697TIP3    H135582   6.170   1.230  11.662 -0.5522 -0.7784  0.3767
 4697TIP3    H235583   6.321   1.227  11.678 -0.3998 -1.3556 -1.0126
 4698TIP3   OH235584   0.086   4.570   3.303  0.4676 -0.3495 -0.1470
 4698TIP3    H135585   0.114   4.486   3.266 -1.1012 -1.4678  1.0950
 4698TIP3    H235586   0.103   4.562   3.397 -2.4328 -0.5228  0.4536
 4699TIP3   OH235587   6.193   1.916  15.429  0.2550  0.0134 -0.1859
 4699TIP3    H135588   6.164   1.986  15.487  0.0047 -0.8706  0.7775
 4699TIP3    H235589   6.280   1.892  15.462  0.4205 -0.0088 -0.6283
 4700TIP3   OH235590   0.451   2.046  10.773  0.3032  0.3874  0.1791
 4700TIP3    H135591   0.406   1.971  10.736  1.1305  0.5002 -1.1219
 4700TIP3    H235592   0.535   2.050  10.726  1.6939  0.2063  2.4574
 4701TIP3   OH235593   3.137   0.470  15.138  0.1594 -0.5335 -0.0670
 4701TIP3    H135594   3.069   0.437  15.080 -0.6933  0.1702  0.5044
 4701TIP3    H235595   3.115   0.563  15.149  1.7546 -0.0531 -0.6295
 4702TIP3   OH235596   4.417   4.407   2.307  0.2273 -0.0804  0.1100
 4702TIP3    H135597   4.466   4.429   2.228 -0.8507 -1.3747 -0.9713
 4702TIP3    H235598   4.332   4.450   2.296  0.4203  0.6097  1.0940
 4703TIP3   OH235599   0.410   0.037  15.921 -0.8799  0.2565 -0.1048
 4703TIP3    H135600   0.472   0.035  15.848 -0.7563 -1.3587  0.0094
 4703TIP3    H235601   0.392  -0.055  15.939 -1.5143  0.6555  1.3992
 4704TIP3   OH235602   0.548   0.190  13.974  0.1810  0.0209  0.0990
 4704TIP3    H135603   0.462   0.227  13.995 -0.0624 -1.1859  1.4122
 4704TIP3    H235604   0.589   0.175  14.060  0.8294 -1.3614 -0.4166
 4705TIP3   OH235605   6.055   2.836  17.017 -0.2902  0.4510  0.3530
 4705TIP3    H135606   6.039   2.897  17.089  0.1034  0.9352  0.0310
 4705TIP3    H235607   6.145   2.853  16.991  0.0028 -0.6314  0.6047
 4706TIP3   OH235608   1.494   2.809  15.796  0.0899 -0.1368 -0.7410
 4706TIP3    H135609   1.508   2.824  15.703 -0.1514  0.3696 -0.7012
 4706TIP3    H235610   1.477   2.896  15.832  1.0974 -0.2050 -0.0639
 4707TIP3   OH235611   3.794   4.983  15.450 -0.0286 -0.1857  0.2922
 4707TIP3    H135612   3.829   4.954  15.365  1.3662  3.0291 -0.3593
 4707TIP3    H235613   3.711   5.026  15.428  0.4693  0.8950  0.4960
 4708TIP3   OH235614   5.991   0.659   2.021 -0.0645  0.2614 -0.0486
 4708TIP3    H135615   6.009   0.739   1.971  0.3394 -0.2238 -0.7013
 4708TIP3    H235616   5.897   0.644   2.009 -0.1820  0.7548  0.2529
 4709TIP3   OH235617   4.453   4.965  14.510 -0.0973 -0.2037  0.0004
 4709TIP3    H135618   4.415   4.970  14.422 -1.0929  0.6988  0.4642
 4709TIP3    H235619   4.477   5.055  14.532 -0.8903 -0.2434  1.0943
 4710TIP3   OH235620   2.676   3.945   4.486  0.2802 -0.5438 -0.0714
 4710TIP3    H135621   2.647   3.873   4.541  1.1946 -1.2678 -0.5217
 4710TIP3    H235622   2.604   3.956   4.423 -0.6671  0.1430  1.0723
 4711TIP3   OH235623   2.154   2.210  13.129  0.5554 -0.0692 -0.0526
 4711TIP3    H135624   2.100   2.135  13.103  2.1295 -2.0261  1.9123
 4711TIP3    H235625   2.136   2.222  13.222  1.1975  1.2528 -0.0757
 4712TIP3   OH235626   2.740   2.736   5.596  0.7525 -0.1869  0.2539
 4712TIP3    H135627   2.749   2.791   5.674  0.4218  0.9912 -0.5264
 4712TIP3    H235628   2.750   2.647   5.630  1.2587  0.3247  1.5502
 4713TIP3   OH235629   1.678   3.221  12.633 -0.3331 -0.1851 -0.3180
 4713TIP3    H135630   1.598   3.223  12.685 -0.5516 -6.0842  0.2100
 4713TIP3    H235631   1.648   3.232  12.543 -0.9818  2.0754  0.0949
 4714TIP3   OH235632   3.487   0.025  13.522 -0.5585  0.3608 -0.0894
 4714TIP3    H135633   3.446  -0.010  13.443 -2.2023  0.7003  0.5843
 4714TIP3    H235634   3.497   0.119  13.504  0.2440  0.2292 -0.3723
 4715TIP3   OH235635   0.701   2.660  14.377  1.0154  0.5261  0.4780
 4715TIP3    H135636   0.775   2.703  14.420  1.1811  0.9677 -0.2254
 4715TIP3    H235637   0.717   2.674  14.283  1.6837 -2.0046  0.1194
 4716TIP3   OH235638   6.300   2.696  16.257  0.2827 -0.6953  0.5279
 4716TIP3    H135639   6.226   2.719  16.313 -0.5362 -1.1265 -0.3618
 4716TIP3    H235640   6.274   2.725  16.170  0.1736 -2.9249 -0.2263
 4717TIP3   OH235641   1.339   1.783  11.643  0.3556 -0.0583  0.7760
 4717TIP3    H135642   1.365   1.704  11.594 -2.1244 -0.8649  0.6054
 4717TIP3    H235643   1.408   1.795  11.708  1.3037 -1.8003  0.1518
 4718TIP3   OH235644   6.456   0.384   5.905 -0.2074 -0.2702 -0.9411
 4718TIP3    H135645   6.366   0.407   5.879 -0.8031  0.1926  1.3263
 4718TIP3    H235646   6.471   0.433   5.986  2.0474 -0.4807 -1.1685
 4719TIP3   OH235647   4.876   5.276   1.605 -0.9591  0.8957  0.2332
 4719TIP3    H135648   4.793   5.285   1.559 -0.2332  0.4314 -1.2150
 4719TIP3    H235649   4.939   5.251   1.537  0.2942  0.8819  1.3594
 4720TIP3   OH235650   1.190   4.200   1.837  0.6054  0.5381  0.4216
 4720TIP3    H135651   1.237   4.136   1.783 -0.6371  0.5347 -0.7219
 4720TIP3    H235652   1.259   4.254   1.876  1.5886 -0.1195 -0.3497
 4721TIP3   OH235653   5.857   4.704   2.351  0.1350  0.3058 -0.0620
 4721TIP3    H135654   5.820   4.630   2.399  1.2186  1.1128  2.1289
 4721TIP3    H235655   5.781   4.758   2.328 -0.4482 -0.3100  0.3792
 4722TIP3   OH235656   6.784   6.541   6.492 -0.2673 -0.3806 -0.2755
 4722TIP3    H135657   6.777   6.445   6.497 -1.1389 -0.3379 -0.3969
 4722TIP3    H235658   6.849   6.564   6.558  0.5682 -1.1147 -0.8152
 4723TIP3   OH235659   1.265   6.503   5.514  0.6722 -0.1362  0.1475
 4723TIP3    H135660   1.172   6.482   5.510  0.8725 -1.1809 -3.7004
 4723TIP3    H235661   1.308   6.419   5.531  0.9683  0.1856  1.0292
 4724TIP3   OH235662   0.651   0.247   3.658  0.2846  0.6482  0.0452
 4724TIP3    H135663   0.564   0.277   3.631 -0.9302 -0.4404  2.4175
 4724TIP3    H235664   0.696   0.228   3.576 -2.3762 -0.5171 -1.2797
 4725TIP3   OH235665   2.252   2.089   1.802  0.8977  0.1510  1.0405
 4725TIP3    H135666   2.248   2.179   1.836 -0.0586  0.8792 -0.8271
 4725TIP3    H235667   2.230   2.098   1.709  2.6939 -1.8072  0.3521
 4726TIP3   OH235668   1.105   4.991   5.458 -0.2291  0.4169  0.0849
 4726TIP3    H135669   1.014   4.969   5.476 -0.0725 -0.2642  0.0763
 4726TIP3    H235670   1.126   4.943   5.378  0.2073  0.3552  0.2308
 4727TIP3   OH235671   2.836   0.414   0.118 -0.3437 -0.8424 -0.3687
 4727TIP3    H135672   2.875   0.340   0.165  0.9193 -0.3024 -0.5138
 4727TIP3    H235673   2.838   0.486   0.181 -1.5988 -0.9258 -0.2183
 4728TIP3   OH235674   6.493   5.843  12.178 -0.6999 -0.3804 -0.4703
 4728TIP3    H135675   6.523   5.922  12.223  0.0026 -0.4175 -0.8602
 4728TIP3    H235676   6.552   5.835  12.102  0.7416 -2.5248  0.7818
 4729TIP3   OH235677   0.788   5.274  15.230  0.1061  0.3817  0.6462
 4729TIP3    H135678   0.829   5.333  15.166 -1.1079  0.9756  0.3753
 4729TIP3    H235679   0.712   5.323  15.261 -1.0584 -1.1359  0.2653
 4730TIP3   OH235680   6.451   2.990   2.944 -0.1786  0.4339  0.2286
 4730TIP3    H135681   6.542   2.979   2.973  0.2468  1.5374 -0.6211
 4730TIP3    H235682   6.424   3.073   2.982 -1.6143 -0.8813  2.3017
 4731TIP3   OH235683   4.112   5.249   3.361  0.6925 -0.8068  0.9444
 4731TIP3    H135684   4.057   5.319   3.326  1.4675 -1.5570 -2.1923
 4731TIP3    H235685   4.053   5.193   3.410 -0.6236  0.2238  0.5957
 4732TIP3   OH235686   6.635   2.728   5.070 -0.1517 -0.4452 -0.1549
 4732TIP3    H135687   6.668   2.818   5.078 -1.2268  0.0200 -0.7738
 4732TIP3    H235688   6.615   2.718   4.977  0.0596 -1.3697 -0.1093
 4733TIP3   OH235689   2.196   6.739  16.893  0.6160 -0.0189  0.1886
 4733TIP3    H135690   2.281   6.778  16.869 -0.1545  0.1997 -2.4828
 4733TIP3    H235691   2.131   6.803  16.865 -0.5044 -0.9911  0.4819
 4734TIP3   OH235692   0.188   4.725  14.554  0.2367 -0.4793 -0.4339
 4734TIP3    H135693   0.199   4.753  14.463 -1.5758  0.2040 -0.4690
 4734TIP3    H235694   0.184   4.807  14.603  1.0672 -0.8451  0.2755
 4735TIP3   OH235695   2.586   3.993   0.224 -0.2632 -0.3290  0.3581
 4735TIP3    H135696   2.578   3.953   0.310  0.6142 -0.6609  0.3018
 4735TIP3    H235697   2.625   3.925   0.169 -2.0775 -0.5931 -0.6754
 4736TIP3   OH235698   1.743   5.054  10.921 -0.3045 -0.1696 -0.1493
 4736TIP3    H135699   1.704   5.048  11.007  2.0330 -0.1017  1.0041
 4736TIP3    H235700   1.836   5.032  10.935  0.3342  0.7253 -2.4682
 4737TIP3   OH235701   5.332   2.803  11.214 -0.0778 -0.1914 -0.2028
 4737TIP3    H135702   5.255   2.770  11.169  0.0686  0.1113 -0.6867
 4737TIP3    H235703   5.336   2.752  11.295 -1.1416  0.2231  0.1317
 4738TIP3   OH235704   0.794   4.397   1.816  0.2265 -0.1735 -0.4116
 4738TIP3    H135705   0.877   4.378   1.774  0.5670  0.2131  0.0650
 4738TIP3    H235706   0.729   4.393   1.746  0.8170  0.7177 -1.0216
 4739TIP3   OH235707   3.048   3.778   4.131 -0.7758  0.1331  0.0872
 4739TIP3    H135708   3.091   3.713   4.187 -0.1087  0.0111 -0.5641
 4739TIP3    H235709   2.959   3.743   4.119 -0.5538 -0.4429  0.0934
 4740TIP3   OH235710   0.676   1.418  15.934 -0.0302 -0.6255 -0.1144
 4740TIP3    H135711   0.665   1.499  15.984 -1.8891 -0.0026 -1.4252
 4740TIP3    H235712   0.652   1.348  15.995 -1.1418  0.0264  0.2212
 4741TIP3   OH235713   3.117   3.641  12.804 -0.6659 -0.5545 -0.0237
 4741TIP3    H135714   3.085   3.619  12.891  2.1849  0.3355  1.3683
 4741TIP3    H235715   3.134   3.556  12.763 -1.5744 -0.9757  0.4327
 4742TIP3   OH235716   6.180   3.245  15.609 -0.1838  0.2424 -0.3412
 4742TIP3    H135717   6.266   3.251  15.650 -0.9529  2.3735  1.1244
 4742TIP3    H235718   6.131   3.319  15.644 -1.8783  0.4905 -2.9188
 4743TIP3   OH235719   0.597   1.179  13.299  0.9648  0.5289 -0.0017
 4743TIP3    H135720   0.666   1.222  13.247  0.6638  0.2746 -0.6276
 4743TIP3    H235721   0.546   1.130  13.234  0.3693  0.4813  0.4969
 4744TIP3   OH235722   0.872   4.466   6.604  0.3821 -0.6531 -0.4899
 4744TIP3    H135723   0.872   4.553   6.565 -0.8352 -0.1773  0.4845
 4744TIP3    H235724   0.934   4.416   6.552  1.4806  0.9276 -0.7681
 4745TIP3   OH235725   3.268   0.747  12.211  0.0609  0.1833  0.4671
 4745TIP3    H135726   3.243   0.749  12.304  0.3041 -0.2520  0.5456
 4745TIP3    H235727   3.208   0.685  12.171 -0.1343  0.4752  0.3020
 4746TIP3   OH235728   1.990   3.381   1.428  0.5458 -0.4606 -0.2071
 4746TIP3    H135729   1.977   3.458   1.484  0.4383  0.2433 -1.1817
 4746TIP3    H235730   1.908   3.371   1.380  0.8021 -0.7899 -0.5812
 4747TIP3   OH235731   6.293   0.505  13.464  0.1855 -0.2917 -0.0014
 4747TIP3    H135732   6.368   0.519  13.406  1.0224  0.0757  1.1231
 4747TIP3    H235733   6.327   0.525  13.551 -1.0672 -0.7240  0.6043
 4748TIP3   OH235734   6.372   5.511  16.844  0.2842  0.1233 -0.4092
 4748TIP3    H135735   6.369   5.503  16.749 -1.3723 -1.0429 -0.3088
 4748TIP3    H235736   6.464   5.504  16.866  0.5035 -2.5500 -1.7538
 4749TIP3   OH235737   6.169   1.019   0.438 -0.3744  0.2152  0.3113
 4749TIP3    H135738   6.089   1.048   0.394 -1.0471 -0.3249  1.1393
 4749TIP3    H235739   6.155   0.926   0.453  0.0651  0.2847  1.1978
 4750TIP3   OH235740   2.550   4.933   2.636 -0.1834  0.1721 -0.0039
 4750TIP3    H135741   2.501   5.001   2.682  1.9301  1.2764  0.7971
 4750TIP3    H235742   2.557   4.861   2.698 -1.1801 -0.1988 -0.3100
 4751TIP3   OH235743   1.158   2.884   2.888  0.2316 -0.1954 -0.5818
 4751TIP3    H135744   1.106   2.899   2.966  1.5284 -1.3251  0.5601
 4751TIP3    H235745   1.232   2.944   2.896  0.7534 -0.8269 -0.5447
 4752TIP3   OH235746   5.525   3.852   3.772 -0.4920  0.3346  0.7497
 4752TIP3    H135747   5.472   3.778   3.803  0.1331 -0.6897 -0.5415
 4752TIP3    H235748   5.561   3.823   3.689  2.6130  0.7708  1.8192
 4753TIP3   OH235749   1.293   3.799  13.980  0.2387  0.1382  0.1927
 4753TIP3    H135750   1.217   3.809  13.924  0.5132 -0.9886 -0.4088
 4753TIP3    H235751   1.362   3.768  13.922  0.9555  0.4000  0.8770
 4754TIP3   OH235752   1.086   6.104  10.747 -0.4937  0.0902 -0.0649
 4754TIP3    H135753   1.068   6.160  10.672  0.4111  0.3017 -0.1343
 4754TIP3    H235754   1.112   6.165  10.816 -2.9058  0.0693  0.9784
 4755TIP3   OH235755   4.632   3.284  15.400  0.2056 -0.0917 -0.0969
 4755TIP3    H135756   4.624   3.290  15.496  0.9458  0.8568 -0.0885
 4755TIP3    H235757   4.554   3.330  15.367 -0.1538 -0.5892  0.0409
 4756TIP3   OH235758   0.111   6.294   0.832  0.7529  0.7753  0.0984
 4756TIP3    H135759   0.146   6.375   0.796 -1.1489  2.1806  1.1848
 4756TIP3    H235760   0.160   6.281   0.913  1.8894  0.1282 -0.6638
 4757TIP3   OH235761   4.552   5.580  11.006  0.3670 -0.6034 -0.2746
 4757TIP3    H135762   4.628   5.560  11.061 -0.6359 -3.4712  0.2554
 4757TIP3    H235763   4.567   5.533  10.925  0.0120  0.3768 -0.9263
 4758TIP3   OH235764   0.556   2.189   5.462 -0.4724  0.2411  0.4094
 4758TIP3    H135765   0.599   2.199   5.547 -0.8641 -1.6903  0.8892
 4758TIP3    H235766   0.463   2.181   5.482 -0.5492 -0.4415 -0.1718
 4759TIP3   OH235767   6.067   2.440   5.316  0.2720  0.3261  0.0487
 4759TIP3    H135768   6.071   2.535   5.314  1.2613  0.2856 -0.1889
 4759TIP3    H235769   5.974   2.420   5.302 -0.0906  1.2673  1.0028
 4760TIP3   OH235770   1.206   1.265   3.707  0.4767 -0.3883  0.4281
 4760TIP3    H135771   1.129   1.254   3.651  0.0509 -0.1244  0.9461
 4760TIP3    H235772   1.275   1.293   3.648  0.0942 -0.3295  0.0016
 4761TIP3   OH235773   4.803   2.714  11.148  0.1829  0.0242 -0.7210
 4761TIP3    H135774   4.877   2.771  11.129  1.5463 -2.4673 -3.6191
 4761TIP3    H235775   4.749   2.717  11.069 -1.3288 -0.4366  0.2403
 4762TIP3   OH235776   5.032   6.326  11.115 -0.0388  0.0939 -0.3438
 4762TIP3    H135777   5.061   6.241  11.149  0.4809  1.2247  2.2533
 4762TIP3    H235778   5.111   6.378  11.109 -0.7305  1.4889  1.5978
 4763TIP3   OH235779   3.204   3.541  13.086  0.0504 -0.1778  0.0098
 4763TIP3    H135780   3.219   3.460  13.135 -1.3967 -0.6617 -0.2841
 4763TIP3    H235781   3.273   3.601  13.116  1.0986 -1.4831  0.2854
 4764TIP3   OH235782   1.904   0.562   4.833 -0.8169  0.3425 -0.2072
 4764TIP3    H135783   1.981   0.509   4.811 -1.8019 -0.9265 -0.7692
 4764TIP3    H235784   1.839   0.498   4.862 -1.8639  1.3215 -0.3310
 4765TIP3   OH235785   2.719   6.267  13.511  0.8958  0.2586 -0.0841
 4765TIP3    H135786   2.640   6.216  13.491  0.5380  0.5482  0.5620
 4765TIP3    H235787   2.791   6.216  13.474  0.5102 -0.5561  0.2807
 4766TIP3   OH235788   2.478   6.268   0.071 -0.0069 -0.1527  0.8441
 4766TIP3    H135789   2.530   6.284   0.150  1.4329 -1.5568  0.2291
 4766TIP3    H235790   2.499   6.178   0.046 -1.2161 -0.0740 -0.5913
 4767TIP3   OH235791   6.374   6.754   3.181 -0.1918  0.1073 -0.2099
 4767TIP3    H135792   6.333   6.671   3.203 -0.4979  0.1297 -0.6691
 4767TIP3    H235793   6.399   6.792   3.265  2.0695 -1.4898 -0.0804
 4768TIP3   OH235794   2.456   1.794   2.549  0.7532  0.3924  0.6227
 4768TIP3    H135795   2.391   1.724   2.560  3.0510 -2.0814 -0.2837
 4768TIP3    H235796   2.461   1.836   2.635 -3.2970  2.0166  0.2419
 4769TIP3   OH235797   4.018   3.419  14.757 -0.3453  0.5300 -0.0291
 4769TIP3    H135798   3.961   3.424  14.834  1.6487 -1.5252  1.7255
 4769TIP3    H235799   4.055   3.507  14.749  0.6201  0.4322  2.4512
 4770TIP3   OH235800   5.368   0.494  16.298  0.8081 -0.3437 -0.2318
 4770TIP3    H135801   5.377   0.446  16.216 -1.3515  0.4010 -0.9763
 4770TIP3    H235802   5.275   0.518  16.302  1.1400  0.8516  1.7470
 4771TIP3   OH235803   4.246   4.970   1.221 -0.4293 -0.2248  0.6850
 4771TIP3    H135804   4.224   4.878   1.206  1.1246 -0.4827 -0.2093
 4771TIP3    H235805   4.252   5.009   1.134 -0.5975  0.6062  1.0329
 4772TIP3   OH235806   0.356   3.751  15.073 -0.5352 -0.1855  0.0778
 4772TIP3    H135807   0.361   3.788  15.161  0.4208 -2.3927  1.0257
 4772TIP3    H235808   0.403   3.814  15.018  2.9004 -0.8032  1.9690
 4773TIP3   OH235809   2.632   0.657  13.628  0.5555  0.0508 -0.1639
 4773TIP3    H135810   2.628   0.661  13.723 -0.4298 -1.2354 -0.1117
 4773TIP3    H235811   2.646   0.747  13.600  1.1480  0.4009  1.2011
 4774TIP3   OH235812   1.440   0.123  15.834 -0.1225 -0.2705 -0.0106
 4774TIP3    H135813   1.469   0.081  15.915  2.0573  0.1393 -0.5204
 4774TIP3    H235814   1.512   0.109  15.772 -0.2252  2.2945 -0.8550
 4775TIP3   OH235815   6.306   2.535   4.892 -0.7311 -0.4273  0.1553
 4775TIP3    H135816   6.249   2.593   4.842 -0.9283 -1.6749 -1.1624
 4775TIP3    H235817   6.359   2.490   4.825 -0.4459 -1.5950  1.1190
 4776TIP3   OH235818   5.111   4.073  16.373 -0.3377 -0.1847 -0.4913
 4776TIP3    H135819   5.047   4.044  16.438 -0.1748 -0.6386 -0.5322
 4776TIP3    H235820   5.166   4.136  16.419 -1.0707  0.5269 -0.5682
 4777TIP3   OH235821   0.452   6.014   0.962 -0.1865 -0.4767 -0.5675
 4777TIP3    H135822   0.483   5.946   0.903  3.4722 -0.5019  1.1322
 4777TIP3    H235823   0.512   6.011   1.037 -0.5804  3.7628  0.1747
 4778TIP3   OH235824   0.099   4.430   4.002  0.4066  0.3855  0.1970
 4778TIP3    H135825   0.105   4.348   4.051  0.0115 -0.0738 -0.5088
 4778TIP3    H235826   0.103   4.498   4.069 -3.2563 -0.2470  1.2301
 4779TIP3   OH235827   3.591   2.207   5.664  0.3298 -0.2117  0.4621
 4779TIP3    H135828   3.593   2.243   5.752 -0.3660 -1.8195  1.1844
 4779TIP3    H235829   3.512   2.243   5.625 -0.5206 -1.1340  1.2756
 4780TIP3   OH235830   1.405   6.394   1.637 -0.6086  0.0536  0.0049
 4780TIP3    H135831   1.399   6.474   1.688  0.5156  0.1576 -0.0031
 4780TIP3    H235832   1.374   6.418   1.550  2.0485  1.1825 -0.7249
 4781TIP3   OH235833   3.255   1.851   0.988 -0.1097 -0.3236  0.4459
 4781TIP3    H135834   3.240   1.938   1.023 -0.9496 -0.8566  1.4836
 4781TIP3    H235835   3.255   1.793   1.065 -1.3722 -1.4469 -0.3449
 4782TIP3   OH235836   5.061   4.082  16.116  0.3448 -0.2768 -0.0367
 4782TIP3    H135837   5.103   4.155  16.072 -1.0037  0.7846  0.3695
 4782TIP3    H235838   5.066   4.103  16.209 -1.1034 -0.0581  0.0268
 4783TIP3   OH235839   6.189   6.773  14.874  0.3140  0.0636 -0.0095
 4783TIP3    H135840   6.239   6.854  14.886 -0.4112  0.3791  0.9396
 4783TIP3    H235841   6.119   6.798  14.814  0.3240  0.0293 -0.0362
 4784TIP3   OH235842   3.440   5.687   3.026 -0.5602 -0.0444  0.0330
 4784TIP3    H135843   3.521   5.687   3.077  0.3791  3.9484 -1.0288
 4784TIP3    H235844   3.469   5.668   2.937 -0.3951  2.6236 -0.5813
 4785TIP3   OH235845   4.957   5.814   0.880 -0.0044  0.2041 -0.3029
 4785TIP3    H135846   5.039   5.809   0.831 -0.1421 -0.3421 -0.4925
 4785TIP3    H235847   4.951   5.729   0.924 -1.7376 -0.8321 -2.3612
 4786TIP3   OH235848   5.262   0.049  14.035  0.3122  0.1260  0.1629
 4786TIP3    H135849   5.185  -0.007  14.047 -0.8041  1.4063 -0.8289
 4786TIP3    H235850   5.298   0.059  14.123 -1.3549  0.4696  0.8377
 4787TIP3   OH235851   2.599   2.378  17.166 -0.2760  0.3424 -0.5626
 4787TIP3    H135852   2.680   2.333  17.143 -1.0778 -0.0957 -2.7947
 4787TIP3    H235853   2.590   2.364  17.260  1.5147 -0.7624 -0.4958
 4788TIP3   OH235854   1.171   0.846   4.076 -0.3539  0.0036  0.1918
 4788TIP3    H135855   1.109   0.892   4.132  1.2773  1.4675  0.8791
 4788TIP3    H235856   1.125   0.766   4.051 -1.0271 -1.0244  4.0131
 4789TIP3   OH235857   3.013   4.056   0.855  0.3116 -0.0125 -0.1411
 4789TIP3    H135858   3.029   4.150   0.852 -3.1539  0.6834 -0.2905
 4789TIP3    H235859   3.039   4.024   0.769  0.3534  1.0308 -0.5237
 4790TIP3   OH235860   0.763   0.512  11.535 -0.2569  0.1729  0.0895
 4790TIP3    H135861   0.778   0.539  11.626 -0.2152 -0.3289  0.2341
 4790TIP3    H235862   0.707   0.435  11.541 -1.0566  0.7024 -0.3583
 4791TIP3   OH235863   1.201   2.996  16.666 -0.3806  0.6633  0.3626
 4791TIP3    H135864   1.130   2.978  16.605  1.1193  1.7891 -1.8438
 4791TIP3    H235865   1.158   3.041  16.739 -1.7579  3.1970 -1.8133
 4792TIP3   OH235866   5.146   4.309   1.231 -0.0593  0.6270 -0.5328
 4792TIP3    H135867   5.116   4.314   1.322 -1.0442  0.3799 -0.8334
 4792TIP3    H235868   5.231   4.265   1.236 -0.3276  0.1768  0.2265
 4793TIP3   OH235869   5.694   6.088   4.950 -0.1413 -0.2391 -0.0686
 4793TIP3    H135870   5.708   6.141   5.028  0.1131  0.9399 -0.8904
 4793TIP3    H235871   5.611   6.043   4.966 -0.7011  0.9105  0.3826
 4794TIP3   OH235872   3.332   1.733   1.524  0.1929 -0.0036 -0.5546
 4794TIP3    H135873   3.358   1.764   1.611  0.2722 -0.7140 -0.3203
 4794TIP3    H235874   3.393   1.662   1.504 -0.3371 -0.3870 -0.8384
 4795TIP3   OH235875   2.684   5.828  11.740  0.2893  0.1110 -0.1748
 4795TIP3    H135876   2.645   5.895  11.684 -0.4354 -1.0334 -1.0554
 4795TIP3    H235877   2.611   5.793  11.791  0.6074 -0.2666  0.0295
 4796TIP3   OH235878   3.721   6.568  16.885 -0.4011  0.5957  0.3917
 4796TIP3    H135879   3.799   6.540  16.932 -0.7283  0.7414  1.0243
 4796TIP3    H235880   3.712   6.661  16.906 -0.0856  0.8737 -0.6182
 4797TIP3   OH235881   0.162   3.476   2.881  0.3171 -0.3389  0.3540
 4797TIP3    H135882   0.156   3.571   2.879 -0.4449 -0.3737  0.8336
 4797TIP3    H235883   0.143   3.452   2.972 -2.4131 -1.1196 -0.3257
 4798TIP3   OH235884   1.604   6.073   2.635 -0.2831  0.1582  0.2256
 4798TIP3    H135885   1.547   6.072   2.712 -0.4944 -0.5244  0.0697
 4798TIP3    H235886   1.638   5.983   2.630 -0.4701  0.1276 -0.6245
 4799TIP3   OH235887   5.637   6.012   5.985 -0.1498  0.4616 -0.4306
 4799TIP3    H135888   5.651   5.978   5.897 -1.1725  0.5865 -0.6558
 4799TIP3    H235889   5.701   6.083   5.994  0.7743 -0.3321 -0.6118
 4800TIP3   OH235890   5.025   2.582   3.012 -0.5107  0.1559  0.5556
 4800TIP3    H135891   4.952   2.521   3.019 -1.1300  0.5559 -1.6713
 4800TIP3    H235892   5.102   2.526   3.004 -1.1368 -0.4579 -2.2112
 4801TIP3   OH235893   5.871   1.429   3.557  0.3815  0.0418 -0.2364
 4801TIP3    H135894   5.962   1.456   3.563  1.0285 -2.0125 -0.3262
 4801TIP3    H235895   5.851   1.431   3.463  0.1996  0.8260 -0.1914
 4802TIP3   OH235896   6.736   2.424  17.107  0.6227 -0.1385  0.3989
 4802TIP3    H135897   6.824   2.459  17.099  0.4258  0.3904  0.4621
 4802TIP3    H235898   6.721   2.375  17.026 -0.0021  2.0362 -0.8799
 4803TIP3   OH235899   1.516   6.728  12.130  0.3525 -0.0665 -0.3373
 4803TIP3    H135900   1.567   6.767  12.200  1.8022 -1.4369 -0.5964
 4803TIP3    H235901   1.562   6.648  12.107 -0.2077  0.1980 -2.6847
 4804TIP3   OH235902   5.373   5.369  14.542  0.8115 -0.5200 -0.2220
 4804TIP3    H135903   5.325   5.291  14.570 -0.9170  1.2514  2.2792
 4804TIP3    H235904   5.430   5.390  14.616  0.9526  0.7810 -0.6699
 4805TIP3   OH235905   3.961   4.617  15.690 -0.1864  0.1425  0.2899
 4805TIP3    H135906   3.951   4.709  15.715 -1.2147 -0.0497  0.5976
 4805TIP3    H235907   4.039   4.588  15.738  0.5505  1.0210 -0.3281
 4806TIP3   OH235908   2.949   4.373  12.343 -0.1709  0.4757  0.0033
 4806TIP3    H135909   3.043   4.357  12.329 -0.2450  0.9240 -1.1128
 4806TIP3    H235910   2.943   4.468  12.354 -0.5499  0.5014 -0.4231
 4807TIP3   OH235911   4.565   2.446   1.481 -0.4194 -0.1363  0.7181
 4807TIP3    H135912   4.584   2.398   1.401  0.2360  1.5098 -0.1535
 4807TIP3    H235913   4.470   2.447   1.487 -0.4464 -1.6014  0.8172
 4808TIP3   OH235914   0.829   5.672  13.190 -0.3114  0.3223 -0.0427
 4808TIP3    H135915   0.739   5.662  13.161 -0.6369 -0.0286  1.0388
 4808TIP3    H235916   0.824   5.667  13.286  0.9148 -0.2789  0.0060
 4809TIP3   OH235917   5.611   4.978  12.939  0.5526  0.0534  0.1401
 4809TIP3    H135918   5.564   4.932  13.008  1.1267 -1.2766 -0.3334
 4809TIP3    H235919   5.701   4.945  12.944  0.6038 -0.0682 -1.2411
 4810TIP3   OH235920   6.802   2.874   2.318  0.1579  0.1991 -0.0465
 4810TIP3    H135921   6.720   2.916   2.291  0.8618  0.7839 -1.4143
 4810TIP3    H235922   6.780   2.781   2.325 -0.7940  0.4395  0.3908
 4811TIP3   OH235923   3.737   0.236   5.664 -0.3282 -0.3402 -0.1336
 4811TIP3    H135924   3.731   0.179   5.588 -1.2493 -1.4141  0.7019
 4811TIP3    H235925   3.647   0.251   5.691 -0.0173 -1.8680  2.0490
 4812TIP3   OH235926   0.770   6.600   3.341 -0.3072 -0.1343 -0.1208
 4812TIP3    H135927   0.742   6.666   3.278  0.3597  0.2816  0.0018
 4812TIP3    H235928   0.864   6.615   3.351 -0.3168 -0.4989  0.6110
 4813TIP3   OH235929   2.192   5.528  14.500  0.1167 -0.6554 -0.8857
 4813TIP3    H135930   2.235   5.589  14.439  1.3585 -0.1758  0.4025
 4813TIP3    H235931   2.265   5.488  14.548 -0.7980 -1.5108 -0.1765
 4814TIP3   OH235932   0.110   4.090   4.556 -0.1581  0.6021  0.2401
 4814TIP3    H135933   0.119   4.129   4.643 -0.8198  2.6001 -0.5326
 4814TIP3    H235934   0.200   4.075   4.527  0.1735  2.2834  0.2922
 4815TIP3   OH235935   4.746   6.630   4.254 -0.0447  0.2279 -0.0032
 4815TIP3    H135936   4.695   6.706   4.282 -1.1693  0.4137 -2.3697
 4815TIP3    H235937   4.685   6.577   4.203  1.6132 -0.4959 -1.3309
 4816TIP3   OH235938   1.034   5.675   4.233 -0.0242 -0.1201 -0.6206
 4816TIP3    H135939   1.080   5.757   4.217  0.5739  0.1976  2.1336
 4816TIP3    H235940   1.061   5.650   4.322 -2.6129 -1.6630 -0.1752
 4817TIP3   OH235941   0.914   2.818  15.559  0.2142 -0.0088 -0.0603
 4817TIP3    H135942   0.900   2.724  15.549  0.4840 -0.2214  1.3937
 4817TIP3    H235943   0.872   2.857  15.482 -0.3154 -1.2738 -0.4285
 4818TIP3   OH235944   4.637   6.090  13.669  0.3801  0.3667 -0.7278
 4818TIP3    H135945   4.562   6.096  13.609  0.2233 -0.9302 -0.6926
 4818TIP3    H235946   4.711   6.071  13.612  0.6979  1.6134 -0.7576
 4819TIP3   OH235947   4.113   2.571  12.900 -0.7920 -0.0939 -0.3840
 4819TIP3    H135948   4.065   2.492  12.923 -1.0270  0.0045 -0.5286
 4819TIP3    H235949   4.048   2.641  12.909 -0.1332  0.3450  1.5788
 4820TIP3   OH235950   5.593   1.789   0.322 -0.9370  0.0999 -0.2034
 4820TIP3    H135951   5.629   1.835   0.398 -1.9347 -1.3879  1.2622
 4820TIP3    H235952   5.507   1.828   0.309 -0.7194  0.4335 -0.6662
 4821TIP3   OH235953   0.207   0.957  11.432 -0.0556  0.0191 -0.0328
 4821TIP3    H135954   0.222   0.879  11.378 -0.7694 -0.8810  1.0300
 4821TIP3    H235955   0.293   0.977  11.469  0.1734 -0.1252 -0.4702
 4822TIP3   OH235956   1.895   2.232  15.276 -0.1512  0.0442  0.3152
 4822TIP3    H135957   1.800   2.222  15.278 -0.1040 -0.5503  3.0935
 4822TIP3    H235958   1.928   2.151  15.315  1.4614  0.6732  0.3035
 4823TIP3   OH235959   5.108   5.730  16.038 -0.0389  0.2091 -0.0900
 4823TIP3    H135960   5.110   5.812  15.989 -0.9410  0.8939  0.9766
 4823TIP3    H235961   5.111   5.756  16.130 -0.6382 -0.9328  0.2808
 4824TIP3   OH235962   5.330   0.550   6.488  0.4757 -0.0050  0.0151
 4824TIP3    H135963   5.361   0.636   6.461 -2.1800  0.7541 -0.9058
 4824TIP3    H235964   5.306   0.506   6.406  1.3883 -1.4795  0.5043
 4825TIP3   OH235965   5.462   5.709   2.056 -0.1749 -0.1731 -0.2306
 4825TIP3    H135966   5.407   5.762   2.114  2.2165  0.8971  1.2058
 4825TIP3    H235967   5.431   5.620   2.069 -0.6500  0.2184  1.6432
 4826TIP3   OH235968   0.794   6.259   0.990  0.3096  0.7905  0.4773
 4826TIP3    H135969   0.703   6.266   0.961  0.3331  0.9636  0.4446
 4826TIP3    H235970   0.824   6.350   0.996  1.1937  0.7011 -1.7609
 4827TIP3   OH235971   2.041   6.679  15.239 -0.1283 -0.1683  0.5207
 4827TIP3    H135972   2.039   6.700  15.332  0.4450  0.1745  0.4586
 4827TIP3    H235973   1.973   6.734  15.200  0.9896  1.1915  0.4436
 4828TIP3   OH235974   5.199   5.526  16.278 -0.5774  0.3326 -0.5930
 4828TIP3    H135975   5.283   5.568  16.298 -0.6013  0.0521  0.1345
 4828TIP3    H235976   5.220   5.460  16.213  0.2073 -1.3406  1.2647
 4829TIP3   OH235977   3.968   4.163   1.150 -0.6156  0.5064  0.0333
 4829TIP3    H135978   3.994   4.234   1.091 -1.1550 -0.5128 -1.5108
 4829TIP3    H235979   4.007   4.185   1.234 -0.2343  2.2864 -0.5773
 4830TIP3   OH235980   5.880   2.814  13.839  0.3095 -0.0241  0.4588
 4830TIP3    H135981   5.850   2.866  13.765  0.2648 -0.9320 -0.1758
 4830TIP3    H235982   5.940   2.750  13.801  0.3915 -0.4151  1.2266
 4831TIP3   OH235983   2.409   1.702  11.721  0.4091  0.2492  0.0142
 4831TIP3    H135984   2.366   1.653  11.650  0.1730  0.3579  0.0825
 4831TIP3    H235985   2.458   1.771  11.676  0.1791  0.3797 -0.0364
 4832TIP3   OH235986   0.355   3.113   0.794 -0.6759 -0.3358  0.1940
 4832TIP3    H135987   0.332   3.198   0.830  0.6836  0.7094 -1.2970
 4832TIP3    H235988   0.437   3.127   0.748  0.3656 -2.7832  1.1004
 4833TIP3   OH235989   1.229   6.509   5.834  0.0933 -0.3704 -0.3637
 4833TIP3    H135990   1.230   6.496   5.929  0.3765 -1.8307 -0.5366
 4833TIP3    H235991   1.136   6.509   5.811 -0.0308  1.1833  0.0309
 4834TIP3   OH235992   3.092   6.126   3.006  0.3861 -0.0811 -0.1215
 4834TIP3    H135993   3.050   6.176   3.077 -0.9740  1.2805 -1.7825
 4834TIP3    H235994   3.179   6.165   2.998  0.2505  0.3102  0.2584
 4835TIP3   OH235995   1.179   0.002  14.070 -0.2203 -0.3207 -0.1051
 4835TIP3    H135996   1.262  -0.030  14.036 -0.0241 -0.0248  0.0940
 4835TIP3    H235997   1.113  -0.057  14.032  0.0547 -0.4021 -0.4611
 4836TIP3   OH235998   6.102   2.568  15.216  0.2092  0.1456  0.1502
 4836TIP3    H135999   6.076   2.528  15.133 -0.4225  0.7248  0.0637
 4836TIP3    H236000   6.025   2.560  15.271  0.5700 -0.0776  0.6288
 4837TIP3   OH236001   2.432   6.611   0.113  0.5016 -0.2049 -0.3167
 4837TIP3    H136002   2.525   6.630   0.120  0.8285 -1.8284  0.1243
 4837TIP3    H236003   2.427   6.534   0.057 -0.8036  1.3651 -2.5566
 4838TIP3   OH236004   5.372   6.365  11.340  0.2015  0.3060 -0.2573
 4838TIP3    H136005   5.451   6.401  11.380  1.2135 -1.8868 -0.1228
 4838TIP3    H236006   5.332   6.312  11.409 -0.5866  0.2207 -0.7612
 4839TIP3   OH236007   6.579   6.552  17.016 -0.1525 -0.3102 -0.7011
 4839TIP3    H136008   6.647   6.564  17.083 -0.9080 -1.1722  0.2459
 4839TIP3    H236009   6.583   6.632  16.963  0.1735  0.5917  0.6288
 4840TIP3   OH236010   2.144   6.763   2.862  0.6709  0.4325  0.1989
 4840TIP3    H136011   2.182   6.821   2.927  0.8272  0.2684  0.2556
 4840TIP3    H236012   2.196   6.778   2.783  0.6306  0.4626  0.1783
 4841TIP3   OH236013   1.693   6.825  12.320 -0.7264 -0.2536 -0.3334
 4841TIP3    H136014   1.709   6.869  12.403 -0.2042  0.0439 -0.5900
 4841TIP3    H236015   1.771   6.771  12.306 -0.1001  0.8661 -1.3746
 4842TIP3   OH236016   0.587   2.215  11.300 -0.0902  0.0038 -0.3753
 4842TIP3    H136017   0.618   2.252  11.218 -0.0236 -0.3338 -0.5049
 4842TIP3    H236018   0.650   2.145  11.320  0.6039  0.8710  0.5929
 4843TIP3   OH236019   1.322   0.727  10.376  0.0775  0.1838 -0.2521
 4843TIP3    H136020   1.408   0.760  10.399  0.2521 -0.8382  0.6334
 4843TIP3    H236021   1.334   0.632  10.367 -1.3314 -0.2887  1.9778
 4844TIP3   OH236022   1.501   6.242   4.428 -0.0606 -0.0788 -0.1055
 4844TIP3    H136023   1.551   6.204   4.356 -0.5752 -1.2600  0.1509
 4844TIP3    H236024   1.563   6.302   4.470  0.0798  1.1091 -1.8720
 4845TIP3   OH236025   5.110   0.553   2.753 -0.7285 -0.1984  0.6055
 4845TIP3    H136026   5.139   0.622   2.813  0.7442 -1.5107  1.4932
 4845TIP3    H236027   5.016   0.567   2.744 -1.2231 -0.4109  3.9461
 4846TIP3   OH236028   6.533   4.255  13.985 -0.1580 -0.1093  0.2055
 4846TIP3    H136029   6.505   4.330  13.934  0.4513 -0.1664 -0.2282
 4846TIP3    H236030   6.574   4.292  14.063 -0.3137 -0.0024  0.2347
 4847TIP3   OH236031   1.545   5.149   5.759  0.2235  0.3838 -0.1402
 4847TIP3    H136032   1.549   5.166   5.665 -0.1812  0.4142 -0.1538
 4847TIP3    H236033   1.592   5.223   5.799  2.2036 -0.6615 -0.4050
 4848TIP3   OH236034   1.078   0.898   2.195  0.6235 -0.0022  0.4186
 4848TIP3    H136035   1.072   0.944   2.279  1.3798  0.9538 -0.0245
 4848TIP3    H236036   1.031   0.955   2.134  2.1511  0.5621 -0.2821
 4849TIP3   OH236037   4.343   5.678   2.908 -0.2517  0.0913  0.3612
 4849TIP3    H136038   4.324   5.746   2.844 -1.8456  1.3457  2.0947
 4849TIP3    H236039   4.268   5.619   2.904  0.5150 -0.8942 -0.1934
 4850TIP3   OH236040   1.877   5.697   5.343  0.0958 -0.1971 -0.3959
 4850TIP3    H136041   1.840   5.722   5.258  0.3490 -1.3472 -0.8701
 4850TIP3    H236042   1.845   5.608   5.357  0.9184 -0.4082  0.2083
 4851TIP3   OH236043   6.820   4.584  15.544 -0.5091 -0.0607  0.3430
 4851TIP3    H136044   6.843   4.492  15.535  1.3325  0.3381  0.4048
 4851TIP3    H236045   6.802   4.614  15.455 -1.2330 -0.5033  0.3386
 4852TIP3   OH236046   1.308   0.973   0.201  0.1482 -0.0352 -0.3790
 4852TIP3    H136047   1.288   0.995   0.292  1.5640 -1.6145  0.3649
 4852TIP3    H236048   1.397   0.938   0.204  0.7837  1.2497 -2.6266
 4853TIP3   OH236049   5.096   1.087  14.979  0.1129  0.0336 -0.6975
 4853TIP3    H136050   5.121   1.120  14.893 -0.2723  1.1726 -0.4006
 4853TIP3    H236051   5.047   1.007  14.962 -1.2606  1.0376 -1.6283
 4854TIP3   OH236052   4.077   5.772   3.910  0.9344 -0.0797  0.2461
 4854TIP3    H136053   4.028   5.854   3.900 -0.0028 -0.6399  0.0201
 4854TIP3    H236054   4.154   5.782   3.854  0.5808  0.4687 -0.1473
 4855TIP3   OH236055   4.454   4.840   5.734 -0.4632 -0.2364 -0.0960
 4855TIP3    H136056   4.523   4.822   5.798 -1.2587  1.0536  1.2087
 4855TIP3    H236057   4.473   4.783   5.660  2.3581  0.5081 -0.0429
 4856TIP3   OH236058   4.136   2.065  10.643  0.1746 -0.4345  0.6498
 4856TIP3    H136059   4.141   2.060  10.738  1.1345  0.2997  0.6567
 4856TIP3    H236060   4.075   2.136  10.626  1.5497  0.8383  0.7716
 4857TIP3   OH236061   0.737   4.783  16.562 -0.2655 -0.4492  0.1307
 4857TIP3    H136062   0.718   4.803  16.471  1.5933  0.8831 -0.0380
 4857TIP3    H236063   0.694   4.699  16.579 -2.3067  0.2192 -1.3564
 4858TIP3   OH236064   0.036   0.369  10.729  0.0748  0.0063 -0.6125
 4858TIP3    H136065   0.073   0.407  10.809 -1.9485  0.0813  0.3536
 4858TIP3    H236066   0.112   0.333  10.683  1.5655  1.7498  0.3259
 4859TIP3   OH236067   6.791   6.268   3.532 -0.4564  0.3339 -0.7772
 4859TIP3    H136068   6.774   6.174   3.542  0.2667  0.1457 -1.2680
 4859TIP3    H236069   6.873   6.283   3.579 -1.3688  1.0334  0.6558
 4860TIP3   OH236070   1.120   1.104   5.326  0.4702 -0.3715  0.3846
 4860TIP3    H136071   1.063   1.027   5.327 -1.2119  0.7281 -1.7198
 4860TIP3    H236072   1.064   1.175   5.294  2.5464  1.2194  0.0461
 4861TIP3   OH236073   1.728   6.021  11.769  0.0043 -0.7333 -0.6402
 4861TIP3    H136074   1.689   6.043  11.854 -1.7456  1.0947 -1.8210
 4861TIP3    H236075   1.689   5.937  11.745  1.5595 -1.9603  0.9160
 4862TIP3   OH236076   5.806   2.487  12.562  0.0619 -0.0887 -0.2039
 4862TIP3    H136077   5.864   2.418  12.593  0.6859  1.0059  1.1753
 4862TIP3    H236078   5.723   2.442  12.544  0.5609 -1.2605  0.3033
 4863TIP3   OH236079   5.351   5.054  14.285 -0.5450  0.4358  0.8404
 4863TIP3    H136080   5.396   5.131  14.252  0.2368  0.1378  1.1844
 4863TIP3    H236081   5.258   5.077  14.281 -0.4584  0.5762 -1.0884
 4864TIP3   OH236082   1.942   0.706  12.778 -0.0372  0.1120  0.0450
 4864TIP3    H136083   1.967   0.741  12.863 -0.2744 -0.5577  0.3980
 4864TIP3    H236084   1.922   0.613  12.795  0.1799 -0.0947 -0.7862
 4865TIP3   OH236085   5.523   0.397  14.538 -0.0193  0.5729 -0.3161
 4865TIP3    H136086   5.549   0.308  14.512 -0.6744  0.3923 -0.3679
 4865TIP3    H236087   5.432   0.388  14.565  0.2081  1.0443  0.6440
 4866TIP3   OH236088   2.166   3.460  16.989  0.0879  0.0060  0.2386
 4866TIP3    H136089   2.204   3.420  16.910 -0.2444 -1.9623  1.0241
 4866TIP3    H236090   2.108   3.393  17.024 -1.3543  1.6148  1.0673
 4867TIP3   OH236091   5.256   1.517   5.508 -0.0056 -0.0244  0.3116
 4867TIP3    H136092   5.174   1.557   5.479 -0.8505 -1.2791  0.9141
 4867TIP3    H236093   5.257   1.430   5.467  0.8609 -0.1580  0.5889
 4868TIP3   OH236094   2.711   3.503  16.290 -0.4028 -0.5253 -0.4705
 4868TIP3    H136095   2.685   3.413  16.269 -1.0726 -0.8048  1.3412
 4868TIP3    H236096   2.638   3.557  16.259 -0.4163 -0.7011 -0.7486
 4869TIP3   OH236097   2.515   6.515  14.894 -0.2050  0.2903 -0.3587
 4869TIP3    H136098   2.467   6.585  14.938  0.0582  0.2721 -0.0323
 4869TIP3    H236099   2.454   6.441  14.894  0.0065  0.0984  0.5458
 4870TIP3   OH236100   4.505   2.433   1.039  0.1356 -0.5005 -0.7597
 4870TIP3    H136101   4.433   2.494   1.047 -0.8582 -1.5813 -1.2064
 4870TIP3    H236102   4.480   2.358   1.094  1.0251 -0.7924 -0.7250
 4871TIP3   OH236103   3.609   6.581  15.474 -0.1206 -0.1908 -0.2592
 4871TIP3    H136104   3.701   6.559  15.489  0.7045  2.4143 -0.9477
 4871TIP3    H236105   3.608   6.623  15.388 -1.0909  3.6399  1.3821
 4872TIP3   OH236106   3.228   1.293  11.678  0.3648 -0.0031 -0.4513
 4872TIP3    H136107   3.135   1.299  11.653  0.5267  0.6822 -0.9321
 4872TIP3    H236108   3.251   1.382  11.704  0.1865 -0.6809  2.3228
 4873TIP3   OH236109   1.416   2.605   0.923  0.0743  0.3105  0.2340
 4873TIP3    H136110   1.422   2.510   0.916  1.4585  0.3215  0.8857
 4873TIP3    H236111   1.433   2.637   0.835  1.9167 -0.0087  0.4257
 4874TIP3   OH236112   1.186   1.364   3.126 -0.4218  0.1150 -0.0402
 4874TIP3    H136113   1.119   1.427   3.149  0.2017  0.9733 -0.5245
 4874TIP3    H236114   1.267   1.399   3.162 -0.2683 -1.0885  0.8513
 4875TIP3   OH236115   0.194   6.043  16.366  0.0963  0.0371  0.2159
 4875TIP3    H136116   0.207   6.008  16.278  1.1337 -0.2599  0.4807
 4875TIP3    H236117   0.206   5.968  16.424  1.2127  0.5803  0.7213
 4876TIP3   OH236118   2.505   6.227  10.702  1.4340  0.0694 -0.6583
 4876TIP3    H136119   2.496   6.265  10.614  0.5941 -1.4672 -1.2605
 4876TIP3    H236120   2.430   6.169  10.711  2.0540 -0.5456  0.7004
 4877TIP3   OH236121   2.249   6.696  11.850  1.0491  0.1100  0.2047
 4877TIP3    H136122   2.252   6.749  11.770  1.7775  0.9775  0.7794
 4877TIP3    H236123   2.180   6.632  11.834  0.8432  0.5846 -0.9195
 4878TIP3   OH236124   5.059   3.577  11.910  0.5689 -0.3506 -0.2793
 4878TIP3    H136125   5.111   3.527  11.847  2.8377  0.9355  0.4427
 4878TIP3    H236126   5.088   3.544  11.995 -0.7299 -0.4267  0.1507
 4879TIP3   OH236127   2.521   4.743   3.896  0.6609 -0.1333  0.5588
 4879TIP3    H136128   2.556   4.679   3.835  0.6904  0.6126 -0.2124
 4879TIP3    H236129   2.576   4.821   3.886  1.6734 -0.4898  2.6652
 4880TIP3   OH236130   2.221   0.617  12.212 -0.3151 -0.3562 -0.1962
 4880TIP3    H136131   2.278   0.584  12.143  0.3439 -1.0255  0.6533
 4880TIP3    H236132   2.183   0.539  12.252  0.0610 -0.0434  0.8211
 4881TIP3   OH236133   1.277   2.697   3.161 -0.3263  0.0092  0.0739
 4881TIP3    H136134   1.261   2.673   3.070 -0.3640 -0.9460  0.3286
 4881TIP3    H236135   1.203   2.659   3.209  0.1477 -0.2366  0.6155
 4882TIP3   OH236136   5.905   2.862   2.595  0.1217 -0.0235 -0.2268
 4882TIP3    H136137   5.932   2.947   2.631  2.0847 -0.1116 -1.3337
 4882TIP3    H236138   5.947   2.798   2.652  0.2029 -0.2108 -0.4959
 4883TIP3   OH236139   0.210   1.971   0.030  0.1906  0.5326  0.2260
 4883TIP3    H136140   0.196   2.011   0.116  3.5422 -0.0253  1.1415
 4883TIP3    H236141   0.227   1.879   0.048  2.3841  0.6767 -0.8211
 4884TIP3   OH236142   4.084   4.209  14.887  0.0830 -0.0614 -0.7840
 4884TIP3    H136143   4.001   4.248  14.914  0.5941  0.8197 -0.4436
 4884TIP3    H236144   4.059   4.139  14.827 -0.8834  0.4848 -1.0387
 4885TIP3   OH236145   3.174   4.252  16.516 -0.5943  0.7375 -0.3002
 4885TIP3    H136146   3.099   4.310  16.507 -0.3068  1.0949 -0.4521
 4885TIP3    H236147   3.179   4.232  16.609 -0.6443  1.0321 -0.2328
 4886TIP3   OH236148   4.792   5.439  11.119 -0.3283  0.3043  0.7159
 4886TIP3    H136149   4.825   5.403  11.201  1.3652  0.2819  0.0546
 4886TIP3    H236150   4.724   5.378  11.092 -0.0063 -0.3945  1.4523
 4887TIP3   OH236151   4.738   6.782  13.680  0.4767 -0.1419  0.1503
 4887TIP3    H136152   4.690   6.750  13.603 -0.4703  0.0830  0.6256
 4887TIP3    H236153   4.804   6.715  13.696 -0.8252 -1.3991  0.5297
 4888TIP3   OH236154   3.715   3.705   0.811  0.6706 -0.2275  0.1044
 4888TIP3    H136155   3.685   3.726   0.723  1.1343  0.0954  0.0229
 4888TIP3    H236156   3.800   3.749   0.819  1.2901 -1.4222  0.2115
 4889TIP3   OH236157   6.729   3.034  13.989  0.0732 -0.3043  0.6716
 4889TIP3    H136158   6.751   3.120  13.954  1.1939 -0.4270  1.0537
 4889TIP3    H236159   6.784   3.023  14.066  1.7760 -2.3328 -0.6981
 4890TIP3   OH236160   2.145   3.615   1.522 -0.3730  0.2122 -0.2447
 4890TIP3    H136161   2.076   3.679   1.506  0.4057  1.1329  0.0111
 4890TIP3    H236162   2.224   3.653   1.482  0.7191  0.7345  2.2081
 4891TIP3   OH236163   0.097   6.471   5.216  0.6036  0.6519  0.2535
 4891TIP3    H136164   0.049   6.401   5.260  1.9445  0.9722  2.3970
 4891TIP3    H236165   0.163   6.425   5.163 -0.8351  0.2689 -1.2933
 4892TIP3   OH236166   4.666   2.355  12.992  0.7641 -0.2294  0.0285
 4892TIP3    H136167   4.649   2.423  13.058 -1.0331 -1.2484  0.6897
 4892TIP3    H236168   4.604   2.374  12.922 -0.9696 -2.0800  0.9639
 4893TIP3   OH236169   3.376   2.159  16.084  0.2042  0.0670  0.4699
 4893TIP3    H136170   3.464   2.161  16.121 -0.0317  0.8684  1.0074
 4893TIP3    H236171   3.376   2.229  16.018 -0.0491  0.1205  0.5233
 4894TIP3   OH236172   6.130   1.078  12.228  0.1716 -0.2935 -0.4632
 4894TIP3    H136173   6.182   1.026  12.289  0.8853  0.8546 -0.0498
 4894TIP3    H236174   6.049   1.028  12.216  0.8761 -1.5302 -0.1870
 4895TIP3   OH236175   3.940   3.911  13.975 -0.9212 -0.2678 -0.4738
 4895TIP3    H136176   3.890   3.838  14.012 -2.1952 -0.6291 -2.7149
 4895TIP3    H236177   4.026   3.874  13.955 -1.0646 -0.7459 -0.2055
 4896TIP3   OH236178   6.812   5.608   3.312  0.2666 -0.4518 -0.3641
 4896TIP3    H136179   6.718   5.619   3.305  0.2325 -0.2958  0.2496
 4896TIP3    H236180   6.823   5.517   3.343  0.2191  0.0790  1.3180
 4897TIP3   OH236181   1.659   2.907   5.885  0.6856 -0.0210 -0.4455
 4897TIP3    H136182   1.642   3.000   5.870 -3.7047 -0.3359  1.0175
 4897TIP3    H236183   1.693   2.903   5.974 -0.0278  0.1774 -0.1528
 4898TIP3   OH236184   1.055   4.048  12.517  0.1381 -0.7691  0.0430
 4898TIP3    H136185   1.102   4.065  12.436  2.0826 -1.9214  0.8614
 4898TIP3    H236186   1.035   4.136  12.551  1.3416 -0.2299 -0.5581
 4899TIP3   OH236187   3.490   4.463  10.802  0.2639  0.1700 -0.1315
 4899TIP3    H136188   3.579   4.437  10.827  0.5132 -0.2869 -1.3742
 4899TIP3    H236189   3.447   4.380  10.778 -0.8461  0.2543  1.4260
 4900TIP3   OH236190   1.344   4.804   5.302 -0.0360  0.1650  0.2622
 4900TIP3    H136191   1.268   4.777   5.251  0.2824 -1.1483  0.4497
 4900TIP3    H236192   1.358   4.733   5.364  1.1677  0.5158  0.4248
 4901TIP3   OH236193   2.017   2.699   3.510 -0.0048  0.2785  0.0869
 4901TIP3    H136194   1.929   2.722   3.541 -0.4306 -0.1323 -0.7777
 4901TIP3    H236195   2.016   2.721   3.417  1.0362  0.8966  0.2125
 4902TIP3   OH236196   6.462   1.410  12.083  0.5910 -0.0095  0.4824
 4902TIP3    H136197   6.397   1.372  12.142 -1.4248  1.3564 -0.7208
 4902TIP3    H236198   6.450   1.363  12.000  2.3971 -0.9205  0.6787
 4903TIP3   OH236199   5.746   1.195   4.506 -0.0343 -0.0939 -0.2874
 4903TIP3    H136200   5.775   1.282   4.536  1.0163 -0.8967  1.1321
 4903TIP3    H236201   5.684   1.166   4.573  1.8843 -1.6657  0.8887
 4904TIP3   OH236202   6.156   6.358   2.008 -0.4338 -0.3105  0.1147
 4904TIP3    H136203   6.206   6.282   1.978  1.9364  1.3224 -0.3338
 4904TIP3    H236204   6.186   6.371   2.099  0.3343  0.9204 -0.2898
 4905TIP3   OH236205   4.326   4.739  14.627  0.2886 -0.4517 -0.1740
 4905TIP3    H136206   4.367   4.809  14.576  3.7347 -1.4877  0.8934
 4905TIP3    H236207   4.345   4.761  14.718 -2.2186 -0.7353  0.5030
 4906TIP3   OH236208   0.344   0.580  11.104  0.2967 -0.2177 -0.3600
 4906TIP3    H136209   0.425   0.569  11.054  0.0419 -1.9100 -0.4602
 4906TIP3    H236210   0.317   0.490  11.125 -0.5021  0.3930  1.3694
 4907TIP3   OH236211   3.494   2.725   5.592  0.1220 -0.6661 -0.0624
 4907TIP3    H136212   3.508   2.654   5.655 -0.0822  0.7844  1.7115
 4907TIP3    H236213   3.414   2.700   5.546 -0.3613 -1.2591  1.0515
 4908TIP3   OH236214   6.474   3.930   3.544 -0.3601  0.7697  0.4347
 4908TIP3    H136215   6.391   3.926   3.592 -0.5005 -0.6041  0.0954
 4908TIP3    H236216   6.532   3.872   3.593 -0.1598  0.2702 -0.3893
 4909TIP3   OH236217   3.099   3.165  11.462  0.3793  0.0012 -0.0636
 4909TIP3    H136218   3.187   3.203  11.460  0.1235  0.5984 -0.4776
 4909TIP3    H236219   3.071   3.168  11.370 -0.7911  1.5492  0.3146
 4910TIP3   OH236220   1.056   2.859  16.446  0.8714 -0.0567  0.3454
 4910TIP3    H136221   0.997   2.810  16.504  0.7822  0.3055  0.5661
 4910TIP3    H236222   1.051   2.813  16.363  2.2475 -1.5643  1.0461
 4911TIP3   OH236223   3.669   4.168  13.637 -0.7831  0.2474 -0.5946
 4911TIP3    H136224   3.631   4.157  13.724  2.6420 -0.8569  0.9512
 4911TIP3    H236225   3.635   4.094  13.587  1.3235 -2.4304  1.5940
 4912TIP3   OH236226   6.357   5.134  16.475 -0.1523  0.3679 -0.4113
 4912TIP3    H136227   6.327   5.205  16.531 -0.1599  1.0109 -1.2153
 4912TIP3    H236228   6.297   5.134  16.401  1.2564  1.0926 -1.6074
 4913TIP3   OH236229   5.945   2.491  16.310 -0.3197  0.0738  0.5933
 4913TIP3    H136230   5.999   2.550  16.362 -0.1501 -0.1610  0.6866
 4913TIP3    H236231   5.912   2.427  16.374 -1.1320  0.5167  0.6278
 4914TIP3   OH236232   0.012   1.217  14.077 -0.5144  0.1752  0.1920
 4914TIP3    H136233   0.055   1.296  14.109 -0.6680  0.1729  0.4068
 4914TIP3    H236234   0.085   1.158  14.055 -0.3920  0.5850 -0.5227
 4915TIP3   OH236235   2.495   1.269  13.964 -0.3884 -0.4034 -0.3108
 4915TIP3    H136236   2.499   1.257  14.059 -1.4802 -1.9679 -0.4060
 4915TIP3    H236237   2.459   1.186  13.932  0.8282 -0.2571 -2.1865
 4916TIP3   OH236238   6.261   2.769   4.735  0.0226 -0.2119  0.1355
 4916TIP3    H136239   6.220   2.849   4.768  1.5572  0.1527  1.2994
 4916TIP3    H236240   6.238   2.767   4.642 -0.4405  1.3371  0.1836
 4917TIP3   OH236241   2.041   1.618   2.105  0.2372  0.3415  0.2303
 4917TIP3    H136242   1.984   1.678   2.153  0.7656  1.4284 -0.4394
 4917TIP3    H236243   2.106   1.589   2.169 -0.3484  0.0578  0.6938
 4918TIP3   OH236244   0.857   5.101  12.482  0.1564  0.1024 -0.1248
 4918TIP3    H136245   0.831   5.073  12.394  0.1543  0.2676 -0.1774
 4918TIP3    H236246   0.931   5.160  12.466 -1.0337  1.6678 -0.1536
 4919TIP3   OH236247   2.124   5.325   0.884 -0.1649  0.5562  0.1080
 4919TIP3    H136248   2.204   5.279   0.859 -0.9635 -0.4641 -0.6989
 4919TIP3    H236249   2.123   5.404   0.831  0.3643  0.6337  0.2107
 4920TIP3   OH236250   0.212   5.284  15.899  0.0864 -0.2846  0.1893
 4920TIP3    H136251   0.230   5.378  15.903  1.1602 -0.3148 -2.1171
 4920TIP3    H236252   0.122   5.275  15.929  0.3560  1.3017  1.6252
 4921TIP3   OH236253   0.771   2.238   1.512 -0.6224  0.4857  0.0734
 4921TIP3    H136254   0.698   2.194   1.555  1.8907 -1.2531  3.0577
 4921TIP3    H236255   0.787   2.316   1.566  0.4945  0.1288  0.2800
 4922TIP3   OH236256   4.402   4.559  16.287  0.2909 -0.5546 -0.8097
 4922TIP3    H136257   4.419   4.653  16.289 -1.3727 -0.2324  1.3378
 4922TIP3    H236258   4.322   4.550  16.236 -1.2525 -0.3982  1.4416
 4923TIP3   OH236259   3.286   1.393  15.352 -0.3891 -0.3344  0.3875
 4923TIP3    H136260   3.345   1.413  15.425 -0.9946  1.2325  0.4730
 4923TIP3    H236261   3.344   1.391  15.275  0.1962 -1.6649  0.8264
 4924TIP3   OH236262   6.496   3.776  10.893  0.2363  0.0967 -0.6374
 4924TIP3    H136263   6.555   3.848  10.915  0.5697 -0.9113  2.2284
 4924TIP3    H236264   6.410   3.806  10.924  0.3963 -0.7097  0.6727
 4925TIP3   OH236265   1.271   6.165  15.991 -0.4020  0.2179  0.0217
 4925TIP3    H136266   1.319   6.219  16.053  0.4226 -0.6939  0.2086
 4925TIP3    H236267   1.326   6.163  15.913 -0.1817 -0.7282  0.1886
 4926TIP3   OH236268   5.467   6.489   5.718  0.6020  0.3987  0.2128
 4926TIP3    H136269   5.401   6.478   5.787  0.3218 -0.0181 -0.1138
 4926TIP3    H236270   5.543   6.439   5.749  0.3362 -0.1188  0.0397
 4927TIP3   OH236271   4.351   6.795   4.253  0.2281  0.3477 -0.6884
 4927TIP3    H136272   4.289   6.859   4.219  0.1260  0.5069 -0.2082
 4927TIP3    H236273   4.328   6.785   4.345  0.0245 -0.6405 -0.8403
 4928TIP3   OH236274   3.381   0.658   0.210  0.6871 -0.5795  0.3436
 4928TIP3    H136275   3.364   0.752   0.216  0.2950 -0.5575 -0.8224
 4928TIP3    H236276   3.470   0.648   0.243  1.8551  0.6352 -2.1671
 4929TIP3   OH236277   6.392   4.356   3.841 -0.3013  0.3741  0.2275
 4929TIP3    H136278   6.315   4.414   3.843 -0.8072 -0.2738 -0.1450
 4929TIP3    H236279   6.366   4.280   3.894  0.2335  0.3365  0.4351
 4930TIP3   OH236280   0.386   6.564  16.799 -0.8998 -0.6621  0.2467
 4930TIP3    H136281   0.477   6.582  16.822 -0.9765 -1.4921  1.2864
 4930TIP3    H236282   0.390   6.488  16.741 -1.0374 -2.3899  2.3734
 4931TIP3   OH236283   3.669   5.357  17.107 -0.0950  0.1392  0.4365
 4931TIP3    H136284   3.586   5.310  17.100  0.0817 -0.0303 -0.7430
 4931TIP3    H236285   3.732   5.289  17.132 -0.2455  0.1929  0.9583
 4932TIP3   OH236286   6.832   5.460  13.186 -0.5657 -0.1003  0.1266
 4932TIP3    H136287   6.877   5.544  13.184 -0.0701 -0.3627 -1.1980
 4932TIP3    H236288   6.744   5.478  13.152  0.0653 -0.3572 -1.7788
 4933TIP3   OH236289   3.222   2.412  12.596  0.5543 -0.0299  0.0504
 4933TIP3    H136290   3.217   2.328  12.641  0.4722 -0.2695 -0.3969
 4933TIP3    H236291   3.267   2.471  12.658  0.5493 -0.3805  0.3898
 4934TIP3   OH236292   0.152   4.098  13.883 -0.2181 -0.4763 -0.0744
 4934TIP3    H136293   0.166   4.070  13.792 -1.3419 -4.1486  0.7242
 4934TIP3    H236294   0.234   4.076  13.927 -0.3420 -0.4694  0.1584
 4935TIP3   OH236295   5.528   3.559  12.596  0.4124  0.1271 -0.0640
 4935TIP3    H136296   5.525   3.605  12.680 -1.5977  1.5641 -0.8458
 4935TIP3    H236297   5.492   3.472  12.615  3.0426 -0.8347  1.1581
 4936TIP3   OH236298   0.999   3.710   1.699  0.1151  0.9326 -0.1898
 4936TIP3    H136299   0.914   3.701   1.655 -0.3462 -1.2591  1.0364
 4936TIP3    H236300   1.016   3.624   1.736  2.4926  1.5732  0.3363
 4937TIP3   OH236301   6.412   1.343  17.073  0.1460 -0.1648  0.1559
 4937TIP3    H136302   6.489   1.376  17.028  1.3167 -0.8331  1.5929
 4937TIP3    H236303   6.355   1.310  17.003  1.7845 -0.9491 -0.8654
 4938TIP3   OH236304   5.254   0.601   2.305  0.0445 -0.1077  0.0633
 4938TIP3    H136305   5.282   0.630   2.218 -0.4333  0.0493 -0.0413
 4938TIP3    H236306   5.164   0.570   2.292  0.1547 -0.5698  0.3995
 4939TIP3   OH236307   2.053   6.096   5.727  0.3010 -0.1305 -0.5156
 4939TIP3    H136308   1.982   6.033   5.740  0.4558 -0.1270  0.4249
 4939TIP3    H236309   2.010   6.181   5.725  0.2404 -0.1547 -0.2840
 4940TIP3   OH236310   0.934   0.828   1.682  0.8195 -0.5377 -0.1557
 4940TIP3    H136311   0.917   0.831   1.776  2.2104 -0.1437  0.1105
 4940TIP3    H236312   0.904   0.741   1.655 -1.1287 -0.0450  0.3093
 4941TIP3   OH236313   1.498   5.657  13.597 -0.5455 -0.8373  0.2614
 4941TIP3    H136314   1.461   5.727  13.651  0.6703  0.9878 -1.1377
 4941TIP3    H236315   1.430   5.637  13.533 -0.0085  0.9899 -0.9672
 4942TIP3   OH236316   1.205   5.784  17.095  0.0271  0.2786  0.8913
 4942TIP3    H136317   1.129   5.743  17.135 -0.2310 -0.0912  0.0523
 4942TIP3    H236318   1.235   5.721  17.030  1.4566  0.1291  1.6507
 4943TIP3   OH236319   4.744   0.900  16.709 -0.0632  0.1304 -0.2911
 4943TIP3    H136320   4.824   0.887  16.760  1.1096  0.8828 -1.8456
 4943TIP3    H236321   4.736   0.820  16.657  0.2149  0.4415 -0.8194
 4944TIP3   OH236322   4.402   6.421  14.512 -0.2029  0.5763  0.9692
 4944TIP3    H136323   4.397   6.515  14.527 -2.7511  1.1231 -2.2757
 4944TIP3    H236324   4.479   6.409  14.458 -0.4589  0.9755  0.5103
 4945TIP3   OH236325   0.699   4.783  11.865 -0.5309 -0.2049  0.0149
 4945TIP3    H136326   0.605   4.779  11.845 -0.1237 -1.3657 -2.0214
 4945TIP3    H236327   0.717   4.700  11.910 -0.6178  0.3843  1.1487
 4946TIP3   OH236328   3.960   6.326  12.359 -0.0083  0.2876 -0.1905
 4946TIP3    H136329   4.027   6.376  12.405  0.4061  0.5851 -1.1128
 4946TIP3    H236330   3.981   6.234  12.379  0.1616  0.4100  0.2097
 4947TIP3   OH236331   6.178   5.393   3.999 -0.1665  0.0467  0.1639
 4947TIP3    H136332   6.167   5.322   4.061 -1.0556  1.8169  2.1651
 4947TIP3    H236333   6.182   5.472   4.053  1.4011  1.4941 -1.9040
 4948TIP3   OH236334   0.024   3.274   0.843 -0.2971 -0.0944 -0.0374
 4948TIP3    H136335   0.003   3.315   0.759  3.3465 -0.4017 -1.2974
 4948TIP3    H236336   0.052   3.346   0.899  0.5604 -0.2254 -0.2854
 4949TIP3   OH236337   4.818   1.068   9.975  0.3221 -0.2633 -0.1868
 4949TIP3    H136338   4.759   1.087  10.048 -1.0388 -2.7731 -0.5114
 4949TIP3    H236339   4.889   1.016  10.014  0.8390  0.3444 -0.2915
 4950TIP3   OH236340   0.797   5.779  16.100  0.1255 -0.2248  0.2538
 4950TIP3    H136341   0.723   5.728  16.134  0.4794 -0.4446  0.7104
 4950TIP3    H236342   0.870   5.716  16.098 -0.0597 -0.4407 -1.6583
 4951TIP3   OH236343   6.479   5.590  12.330  0.4081 -0.4693 -0.5022
 4951TIP3    H136344   6.402   5.563  12.280  0.1721  0.2586 -0.5575
 4951TIP3    H236345   6.524   5.653  12.273 -0.3133  1.0188  0.4842
 4952TIP3   OH236346   2.500   0.427   5.139 -0.2165 -0.0268  0.0573
 4952TIP3    H136347   2.584   0.412   5.097 -0.3419  1.4795 -0.7788
 4952TIP3    H236348   2.473   0.514   5.111 -2.9669 -1.1713 -1.2401
 4953TIP3   OH236349   3.039   6.214  14.396  0.0893  0.0599  0.4434
 4953TIP3    H136350   2.944   6.222  14.385  0.0407 -0.0113  0.7988
 4953TIP3    H236351   3.051   6.207  14.491  0.5313  1.1227  0.4719
 4954TIP3   OH236352   4.837   6.809   3.901 -0.0499  0.3215  0.3741
 4954TIP3    H136353   4.818   6.716   3.903 -0.2868  0.3681  0.2410
 4954TIP3    H236354   4.752   6.852   3.910 -0.0323  0.5315 -0.4368
 4955TIP3   OH236355   1.580   0.093  11.350  0.3512  0.0832 -0.5434
 4955TIP3    H136356   1.642   0.102  11.278 -0.1761 -2.2775 -1.3856
 4955TIP3    H236357   1.603   0.164  11.411  2.6269  0.4125 -1.6888
 4956TIP3   OH236358   2.412   0.691   4.418 -0.7573 -0.2010 -0.6148
 4956TIP3    H136359   2.463   0.759   4.462  2.4454 -2.5768 -0.2875
 4956TIP3    H236360   2.328   0.732   4.399 -0.0738  2.8833  2.1570
 4957TIP3   OH236361   3.713   2.793   2.728  0.1423 -0.2370  0.3002
 4957TIP3    H136362   3.793   2.743   2.712 -0.3926 -1.4316  1.2768
 4957TIP3    H236363   3.642   2.735   2.699 -0.4562  0.1771  0.9020
 4958TIP3   OH236364   2.362   4.609   1.761  0.4002  0.7351 -0.5402
 4958TIP3    H136365   2.447   4.568   1.746  0.7286  0.4196  1.7397
 4958TIP3    H236366   2.376   4.701   1.739  1.0994  0.5475 -0.9355
 4959TIP3   OH236367   1.865   4.514  13.286  0.9128 -0.5370 -0.3011
 4959TIP3    H136368   1.860   4.560  13.202  0.3302  0.2564  0.1479
 4959TIP3    H236369   1.935   4.450  13.274 -1.6873 -3.2366 -2.7284
 4960TIP3   OH236370   3.602   3.024   5.564 -0.4720 -0.1215 -0.0848
 4960TIP3    H136371   3.620   2.941   5.608 -0.7356  1.0104  2.2626
 4960TIP3    H236372   3.507   3.023   5.548 -0.6050  0.0587  0.6739
 4961TIP3   OH236373   6.702   0.415   1.109  0.4316 -0.1593 -0.0541
 4961TIP3    H136374   6.795   0.431   1.124  0.6777  0.4736 -1.9473
 4961TIP3    H236375   6.672   0.492   1.061 -1.2560 -0.0456  1.0735
 4962TIP3   OH236376   3.425   5.649   3.358 -0.5659 -0.6846 -0.2302
 4962TIP3    H136377   3.486   5.705   3.407 -2.3155  0.0238  1.2755
 4962TIP3    H236378   3.462   5.644   3.270  1.9741 -0.8337  0.7737
 4963TIP3   OH236379   4.751   0.005   3.138  0.3569  0.7113  0.2888
 4963TIP3    H136380   4.800   0.046   3.066 -1.0726  3.1185  0.5784
 4963TIP3    H236381   4.661   0.034   3.125 -1.0069 -3.0548  0.1318
 4964TIP3   OH236382   3.656   4.925  13.695  0.2331  0.2607 -0.6234
 4964TIP3    H136383   3.609   5.006  13.673 -2.3674 -1.1556 -0.7009
 4964TIP3    H236384   3.722   4.918  13.626  1.4025  2.9000  0.0851
 4965TIP3   OH236385   0.169   4.183   2.117  0.0302 -0.8640  0.0498
 4965TIP3    H136386   0.204   4.131   2.045  1.1962  0.0410 -0.0694
 4965TIP3    H236387   0.223   4.263   2.118 -0.1723 -0.7051  1.7072
 4966TIP3   OH236388   2.257   0.595   1.356 -0.4077  0.8295  0.3124
 4966TIP3    H136389   2.259   0.628   1.266  1.3071  0.2834  0.1089
 4966TIP3    H236390   2.306   0.512   1.352 -1.8762 -0.1306  1.4104
 4967TIP3   OH236391   6.030   4.678   1.444 -0.0548  0.5308  0.5806
 4967TIP3    H136392   6.097   4.614   1.468 -0.2163  0.6942  1.5350
 4967TIP3    H236393   5.950   4.626   1.435  0.2696  0.2621 -1.0487
 4968TIP3   OH236394   6.812   6.659  15.221  0.3677  0.1713 -0.2510
 4968TIP3    H136395   6.762   6.737  15.195  1.0237  0.0331 -2.0935
 4968TIP3    H236396   6.903   6.685  15.213  0.6542 -1.2262 -2.6899
 4969TIP3   OH236397   2.283   5.368  12.498 -0.1241 -0.1152  0.5901
 4969TIP3    H136398   2.255   5.441  12.442  0.0100 -0.7321 -0.2903
 4969TIP3    H236399   2.201   5.329  12.529 -0.2114 -0.3360  0.0828
 4970TIP3   OH236400   2.340   1.592   3.110  0.1362  0.0167  0.3765
 4970TIP3    H136401   2.383   1.549   3.036  0.3828 -1.0818  1.1283
 4970TIP3    H236402   2.405   1.653   3.144 -0.5995  1.8611 -1.3740
 4971TIP3   OH236403   2.153   3.475   5.223  0.8466  0.3297 -0.0402
 4971TIP3    H136404   2.124   3.532   5.152  2.7459 -0.6463 -1.7018
 4971TIP3    H236405   2.100   3.396   5.213  0.3497  0.6078  0.3432
 4972TIP3   OH236406   2.494   2.231  13.081  0.0627 -0.1131 -0.2339
 4972TIP3    H136407   2.559   2.240  13.151 -0.0380  0.6451 -0.2346
 4972TIP3    H236408   2.446   2.313  13.082 -2.4293 -1.4636  1.2548
 4973TIP3   OH236409   5.258   6.810   5.824 -0.2722 -0.6466  0.3054
 4973TIP3    H136410   5.205   6.890   5.833 -0.3639 -0.5602 -0.8759
 4973TIP3    H236411   5.300   6.819   5.739  2.9565  0.0427  1.8247
 4974TIP3   OH236412   2.773   4.873  15.832  0.2411  0.2498  0.3713
 4974TIP3    H136413   2.867   4.872  15.849  0.2165 -0.5890  0.5063
 4974TIP3    H236414   2.744   4.784  15.852 -0.4298  0.2526 -0.5334
 4975TIP3   OH236415   5.369   3.191   4.403 -0.2515 -0.2858 -0.4271
 4975TIP3    H136416   5.421   3.212   4.326 -0.2294  4.0909  0.5154
 4975TIP3    H236417   5.289   3.243   4.392 -0.0981  0.7662  2.5447
 4976TIP3   OH236418   2.021   4.022  14.751 -0.2388 -0.2079 -0.4670
 4976TIP3    H136419   2.111   4.039  14.725 -0.5019  1.1819 -0.6021
 4976TIP3    H236420   1.969   4.072  14.687 -1.1041 -1.1316 -0.4994
 4977TIP3   OH236421   6.817   5.998   0.877 -0.0655 -0.4232 -0.5277
 4977TIP3    H136422   6.880   5.984   0.807  0.0078  0.9231 -0.7410
 4977TIP3    H236423   6.844   6.079   0.919 -1.6196  0.1632 -0.6002
 4978TIP3   OH236424   3.261   4.818  13.429  0.3132  0.1555  0.3391
 4978TIP3    H136425   3.319   4.782  13.496  2.3418  0.4580 -1.1464
 4978TIP3    H236426   3.316   4.881  13.382 -1.8363  1.9540  0.0877
 4979TIP3   OH236427   5.558   3.714  12.363  0.2211 -0.2248  0.0365
 4979TIP3    H136428   5.543   3.677  12.275  2.8887 -0.0499 -0.5808
 4979TIP3    H236429   5.526   3.646  12.423  0.5890 -1.4385 -1.0885
 4980TIP3   OH236430   5.625   5.941  13.114 -0.6920  0.9036 -0.0102
 4980TIP3    H136431   5.678   5.914  13.189 -3.2933  0.0234  1.6542
 4980TIP3    H236432   5.658   5.889  13.041  1.0645  0.8019  0.8117
 4981TIP3   OH236433   6.836   3.088   3.491 -0.2278  0.3467  0.5423
 4981TIP3    H136434   6.823   3.013   3.549 -1.7803  1.5364  1.8247
 4981TIP3    H236435   6.786   3.065   3.412  0.7021 -0.6543  0.2145
 4982TIP3   OH236436   3.702   3.779  13.712  0.5679 -0.6450  0.7429
 4982TIP3    H136437   3.615   3.808  13.740  0.6614  0.5567 -0.1522
 4982TIP3    H236438   3.735   3.728  13.786  0.5104  1.7677  2.5427
 4983TIP3   OH236439   4.125   1.213   5.661 -0.3534  0.1635 -0.2216
 4983TIP3    H136440   4.211   1.173   5.669 -0.3426  0.0539 -0.8123
 4983TIP3    H236441   4.118   1.236   5.568 -0.0855  2.1389  0.1999
 4984TIP3   OH236442   2.395   5.946   1.612  0.5506 -0.1393 -0.1784
 4984TIP3    H136443   2.301   5.960   1.626  0.2699 -2.5705  0.9379
 4984TIP3    H236444   2.433   5.960   1.699  0.7851 -1.8639  0.0255
 4985TIP3   OH236445   0.356   3.073  13.595 -0.7171 -0.2894 -0.1835
 4985TIP3    H136446   0.376   3.023  13.515 -1.6258  0.2685 -0.7836
 4985TIP3    H236447   0.373   3.165  13.570 -3.9962  0.2746 -0.8267
 4986TIP3   OH236448   6.291   0.313  16.871 -0.4326 -0.2872 -0.4055
 4986TIP3    H136449   6.213   0.260  16.882  0.0995 -1.0736 -0.3736
 4986TIP3    H236450   6.363   0.258  16.902  0.1081  0.5170 -0.1969
 4987TIP3   OH236451   6.791   1.075  15.653  0.2245  0.1350  0.3985
 4987TIP3    H136452   6.839   1.120  15.584 -0.7793  0.9422  0.1889
 4987TIP3    H236453   6.723   1.138  15.679 -1.1164 -1.1786  0.2219
 4988TIP3   OH236454   6.205   0.358  11.250 -0.1979 -0.0110  0.5391
 4988TIP3    H136455   6.226   0.422  11.182  2.7671  2.4927  3.4308
 4988TIP3    H236456   6.265   0.285  11.233 -1.2069 -0.5732 -0.8197
 4989TIP3   OH236457   0.955   3.933   4.131 -0.0022  0.3285 -0.0082
 4989TIP3    H136458   0.942   3.917   4.038  0.3703 -1.2602  0.1963
 4989TIP3    H236459   0.947   4.028   4.140 -4.6985  0.2478 -0.8924
 4990TIP3   OH236460   6.004   5.193  11.612  0.5492  0.1157 -0.3975
 4990TIP3    H136461   6.056   5.242  11.548  1.0357 -0.7280 -0.6610
 4990TIP3    H236462   6.009   5.245  11.692 -0.8484  1.6938 -1.2621
 4991TIP3   OH236463   4.117   5.409   5.210  0.6110 -0.0716 -0.5706
 4991TIP3    H136464   4.129   5.325   5.166  0.0357 -0.7427  0.5028
 4991TIP3    H236465   4.110   5.473   5.139 -0.0380 -1.0772 -1.4337
 4992TIP3   OH236466   3.959   3.235  16.050  0.1715 -0.0698 -0.1190
 4992TIP3    H136467   3.958   3.226  15.955  0.0664  0.9492 -0.2285
 4992TIP3    H236468   4.048   3.262  16.071  0.3070 -0.6934  0.1170
 4993TIP3   OH236469   0.773   0.507  13.048 -0.4287  0.2181  0.2356
 4993TIP3    H136470   0.826   0.560  13.107 -0.9253  0.8036  0.1654
 4993TIP3    H236471   0.803   0.418  13.062  0.5635  0.5312  0.2173
 4994TIP3   OH236472   6.346   6.224  14.357  0.0713 -0.1317  0.8340
 4994TIP3    H136473   6.344   6.158  14.426  0.4145  0.5107  1.4692
 4994TIP3    H236474   6.428   6.207  14.310  0.8630  0.7274  1.8856
 4995TIP3   OH236475   2.745   6.402   4.528  0.2731 -0.0579 -0.1882
 4995TIP3    H136476   2.659   6.362   4.511  0.0002  1.2279 -2.2470
 4995TIP3    H236477   2.807   6.348   4.479  0.3627  0.0970 -0.2470
 4996TIP3   OH236478   6.217   2.118   2.235 -0.0285 -0.0306  0.2848
 4996TIP3    H136479   6.185   2.073   2.157 -2.7010  0.3517  1.0700
 4996TIP3    H236480   6.301   2.076   2.255 -0.8731 -2.4143 -0.8611
 4997TIP3   OH236481   1.169   0.881  17.127  0.3521 -0.0113 -0.1386
 4997TIP3    H136482   1.153   0.968  17.162 -1.3936 -0.2479 -0.2258
 4997TIP3    H236483   1.165   0.823  17.203  2.3654  0.0259  0.0512
 4998TIP3   OH236484   2.464   4.755   1.510 -0.3225 -0.5820  0.6586
 4998TIP3    H136485   2.530   4.697   1.473  0.2381  0.2106  0.3872
 4998TIP3    H236486   2.494   4.843   1.488 -2.4877 -0.2307 -1.1714
 4999TIP3   OH236487   2.235   3.338  16.052 -0.5262  0.4382 -0.1555
 4999TIP3    H136488   2.205   3.271  15.990  0.0402  0.4416 -0.4426
 4999TIP3    H236489   2.167   3.339  16.120 -0.9662  0.1668 -0.5766
 5000TIP3   OH236490   2.229   2.556   3.616 -0.2832 -1.0229  0.0951
 5000TIP3    H136491   2.231   2.620   3.688 -1.8703 -0.2023 -0.5305
 5000TIP3    H236492   2.138   2.556   3.588 -0.0824 -2.8009 -0.6424
 5001TIP3   OH236493   4.091   3.829  14.353  0.5333  0.3753  0.1022
 5001TIP3    H136494   4.009   3.819  14.304  0.7767 -1.1274 -0.0506
 5001TIP3    H236495   4.160   3.821  14.287  0.8798 -2.1123  0.6834
 5002TIP3   OH236496   3.393   5.967   0.519 -0.1202  0.2610 -0.2842
 5002TIP3    H136497   3.376   5.978   0.613 -1.0977 -0.9354 -0.3031
 5002TIP3    H236498   3.486   5.948   0.514  0.1371  1.2592  0.3495
 5003TIP3   OH236499   0.478   3.963   6.165 -0.1134 -0.3957  0.0756
 5003TIP3    H136500   0.484   3.967   6.260 -0.4936  0.0545  0.0829
 5003TIP3    H236501   0.459   4.053   6.138 -1.8769 -0.8413 -0.2957
 5004TIP3   OH236502   3.125   6.275  17.201 -0.1964 -1.0018 -0.4107
 5004TIP3    H136503   3.084   6.246  17.120 -0.6515 -2.5264  0.3269
 5004TIP3    H236504   3.180   6.201  17.227 -1.1283 -1.1122  1.3772
 5005TIP3   OH236505   1.671   6.651   0.438 -0.1419  1.0811  0.7596
 5005TIP3    H136506   1.652   6.655   0.345 -0.0694  2.2992  0.7778
 5005TIP3    H236507   1.628   6.572   0.468  1.8842 -0.7091 -0.7424
 5006TIP3   OH236508   6.810   5.397  12.568  0.4717 -0.6004 -0.1776
 5006TIP3    H136509   6.845   5.361  12.650 -0.6458 -0.5928  0.3262
 5006TIP3    H236510   6.778   5.484  12.593  0.1792 -0.5756 -0.6407
 5007TIP3   OH236511   1.183   3.409  11.197 -0.1274 -0.9744  0.5052
 5007TIP3    H136512   1.123   3.477  11.228  0.7630 -0.7833  1.8818
 5007TIP3    H236513   1.210   3.439  11.110 -0.6626 -0.1699  0.6085
 5008TIP3   OH236514   0.438   4.295  12.156 -0.5171  0.6004  0.4219
 5008TIP3    H136515   0.380   4.281  12.231 -0.6818 -1.9561 -0.0981
 5008TIP3    H236516   0.473   4.208  12.136  0.8219  1.5003 -1.4484
 5009TIP3   OH236517   5.030   2.756   4.695  0.2351 -0.0976  0.1333
 5009TIP3    H136518   5.016   2.798   4.779  0.1361 -2.3696  1.3160
 5009TIP3    H236519   4.945   2.719   4.671  0.7240 -1.2815  0.1244
 5010TIP3   OH236520   3.271   6.303  11.673 -0.0550  0.5404  0.5985
 5010TIP3    H136521   3.193   6.279  11.723  0.7372 -0.7785  1.2537
 5010TIP3    H236522   3.329   6.227  11.681  0.5670  0.7587 -1.3898
 5011TIP3   OH236523   5.922   4.437  15.845 -0.2853 -0.3936  0.3162
 5011TIP3    H136524   5.953   4.524  15.819 -0.4403 -0.3384  0.3176
 5011TIP3    H236525   5.827   4.442  15.840 -0.2689 -1.0637 -1.2705
 5012TIP3   OH236526   6.682   3.444   3.889 -0.0190 -0.1443  0.0998
 5012TIP3    H136527   6.599   3.433   3.842  1.2592 -0.8678 -2.1026
 5012TIP3    H236528   6.728   3.513   3.842  0.2041  1.1034  2.0262
 5013TIP3   OH236529   3.640   3.462  12.954  0.1368 -0.0811 -0.1779
 5013TIP3    H136530   3.617   3.380  12.911  2.3445 -0.5903 -0.5198
 5013TIP3    H236531   3.613   3.450  13.045 -0.5331 -0.7515 -0.4576
 5014TIP3   OH236532   1.551   3.513  15.819  0.7062  0.6185  0.0417
 5014TIP3    H136533   1.620   3.453  15.790  1.6379  1.3900  0.5651
 5014TIP3    H236534   1.560   3.589  15.762 -0.9550  0.0049 -1.1142
 5015TIP3   OH236535   4.855   6.645  12.696 -0.0098  0.2613 -0.2458
 5015TIP3    H136536   4.907   6.693  12.761  3.4860 -1.2418 -1.6383
 5015TIP3    H236537   4.920   6.592  12.649 -2.7838 -1.0841 -2.8832
 5016TIP3   OH236538   4.174   1.665   4.917  0.3923  0.2432 -0.8600
 5016TIP3    H136539   4.092   1.707   4.890  0.3324  2.0551  1.7379
 5016TIP3    H236540   4.240   1.734   4.910  0.7117  0.2553  1.5150
 5017TIP3   OH236541   1.800   0.810   4.198  0.3566 -0.0739 -0.1160
 5017TIP3    H136542   1.842   0.827   4.283  0.8554  2.2449 -0.7370
 5017TIP3    H236543   1.858   0.853   4.135 -0.9600 -0.1577 -1.4210
 5018TIP3   OH236544   5.295   6.783  16.481 -0.3694 -0.5164  0.2839
 5018TIP3    H136545   5.299   6.823  16.394 -2.5519  0.6151  0.6235
 5018TIP3    H236546   5.263   6.694  16.465 -1.1225 -0.1954 -0.0763
 5019TIP3   OH236547   3.525   0.744  15.417  0.1372  0.1605  0.1161
 5019TIP3    H136548   3.588   0.717  15.483  1.5448  0.8364 -0.8987
 5019TIP3    H236549   3.524   0.840  15.423  1.1977  0.3318 -1.5745
 5020TIP3   OH236550   6.728   0.746   6.347  0.6999  0.2888  0.0077
 5020TIP3    H136551   6.764   0.829   6.377  0.7575 -0.8024  3.3582
 5020TIP3    H236552   6.783   0.722   6.273  0.8157  3.0677 -0.9401
 5021TIP3   OH236553   0.905   3.973   1.513 -0.4537  0.8677 -0.0221
 5021TIP3    H136554   0.988   3.944   1.551 -0.5965  1.1122  0.4852
 5021TIP3    H236555   0.854   3.894   1.502 -0.2377  0.7421 -0.1260
 5022TIP3   OH236556   0.156   3.163  13.766  0.2053 -0.4254 -0.4053
 5022TIP3    H136557   0.068   3.167  13.730  0.1393  1.2629 -0.1584
 5022TIP3    H236558   0.209   3.123  13.697 -0.6394 -0.9165 -0.7814
 5023TIP3   OH236559   4.648   4.467   6.470 -0.2369 -0.4686 -0.2292
 5023TIP3    H136560   4.681   4.532   6.407 -2.4606  0.7978 -0.1966
 5023TIP3    H236561   4.665   4.506   6.555 -0.6415 -0.4074 -0.1758
 5024TIP3   OH236562   5.539   3.800   3.233 -0.5474  0.0585 -0.0440
 5024TIP3    H136563   5.536   3.882   3.184  2.5074 -0.2476 -0.9815
 5024TIP3    H236564   5.515   3.732   3.169  2.0081 -0.1929 -0.8558
 5025TIP3   OH236565   2.097   1.967  14.807  0.9091  0.1442  0.0082
 5025TIP3    H136566   2.187   1.994  14.791  1.5649 -1.5154  0.6413
 5025TIP3    H236567   2.051   2.048  14.828  2.7080  0.8229  1.6828
 5026TIP3   OH236568   5.832   2.787  16.560 -0.5797  0.4197 -0.4623
 5026TIP3    H136569   5.767   2.730  16.600 -0.0784 -0.7947 -1.3216
 5026TIP3    H236570   5.908   2.782  16.617 -0.4726  0.0752 -0.6332
 5027TIP3   OH236571   5.922   6.003   6.873  0.5410  0.4750  0.3593
 5027TIP3    H136572   5.873   5.933   6.916 -0.6066  1.7020  1.1329
 5027TIP3    H236573   6.013   5.973   6.875 -0.1545 -1.9914 -1.3809
 5028TIP3   OH236574   2.838   4.788   0.560 -0.2993 -0.3769  0.1129
 5028TIP3    H136575   2.744   4.801   0.568  0.1179  2.2827  1.8369
 5028TIP3    H236576   2.855   4.794   0.466 -2.0104 -3.1573 -0.5067
 5029TIP3   OH236577   3.437   4.407   4.879 -0.3630  0.0225  0.9086
 5029TIP3    H136578   3.484   4.360   4.809  0.9089  2.5380 -0.0726
 5029TIP3    H236579   3.361   4.353   4.898 -0.4962 -1.0370 -2.1281
 5030TIP3   OH236580   0.257   4.591   6.064  0.1204 -0.4855 -0.2537
 5030TIP3    H136581   0.346   4.560   6.083 -0.0003 -1.6171 -1.4905
 5030TIP3    H236582   0.200   4.534   6.115  0.0273 -0.5970 -0.4843
 5031TIP3   OH236583   6.736   6.818   4.700  0.2430  0.0792  0.0557
 5031TIP3    H136584   6.706   6.731   4.676 -0.5076  0.8144 -1.8607
 5031TIP3    H236585   6.789   6.847   4.625 -0.5484  1.7319  0.0881
 5032TIP3   OH236586   4.802   0.434  15.927 -0.3896  0.4099 -0.1034
 5032TIP3    H136587   4.804   0.339  15.917  2.3699  0.5390 -1.7492
 5032TIP3    H236588   4.862   0.452  15.999 -1.3465  0.9108  0.5897
 5033TIP3   OH236589   4.022   0.265  15.054  0.2242 -0.1563  1.0467
 5033TIP3    H136590   3.968   0.310  14.989  0.9946 -0.3246  0.2619
 5033TIP3    H236591   4.068   0.197  15.004  1.8307  0.5490  1.4785
 5034TIP3   OH236592   2.083   0.822  10.959 -0.0288 -0.0409 -0.8759
 5034TIP3    H136593   2.135   0.839  10.881  0.5906 -0.5312 -0.5762
 5034TIP3    H236594   1.996   0.857  10.937 -0.1347 -1.0052 -2.1488
 5035TIP3   OH236595   6.041   6.687   2.317 -0.5552  0.0501 -0.1564
 5035TIP3    H136596   6.128   6.647   2.323 -1.2386 -1.8843 -1.9127
 5035TIP3    H236597   5.986   6.633   2.374 -0.8944  0.4262 -0.1185
 5036TIP3   OH236598   6.746   0.435  11.467  0.3481  0.0215 -0.2961
 5036TIP3    H136599   6.715   0.456  11.379 -1.3986 -0.3775  0.2061
 5036TIP3    H236600   6.685   0.370  11.499  0.0721  1.2276  1.7723
 5037TIP3   OH236601   3.214   2.133  11.723  0.0822  0.0489 -0.4747
 5037TIP3    H136602   3.162   2.120  11.644  0.0557  0.8453 -0.5953
 5037TIP3    H236603   3.198   2.224  11.748  3.7901  1.3965 -2.2973
 5038TIP3   OH236604   3.847   1.592  15.343  0.3957 -0.1397 -0.2173
 5038TIP3    H136605   3.777   1.599  15.408 -2.3259  0.0990 -2.9752
 5038TIP3    H236606   3.910   1.660  15.369 -1.8681  1.7402  0.7193
 5039TIP3   OH236607   0.804   3.984  11.765  0.7919 -0.3787  0.3657
 5039TIP3    H136608   0.783   3.926  11.692  0.2539 -0.2072  0.3795
 5039TIP3    H236609   0.731   4.046  11.767  1.2240  0.1236  0.5252
 5040TIP3   OH236610   3.816   4.629  10.181  0.2280 -0.7464 -0.1434
 5040TIP3    H136611   3.827   4.555  10.241  1.2603 -1.1636 -0.8146
 5040TIP3    H236612   3.853   4.703  10.229  1.1583 -1.1002 -0.2950
 5041TIP3   OH236613   3.901   5.663  13.017  0.1135  0.1247 -0.2273
 5041TIP3    H136614   3.854   5.589  13.056  0.7389 -0.4406 -0.5151
 5041TIP3    H236615   3.971   5.622  12.965 -0.5593  0.8543 -1.7594
 5042TIP3   OH236616   1.531   1.271   0.194 -0.1899 -0.3974 -0.5698
 5042TIP3    H136617   1.533   1.190   0.244 -1.0882 -1.0241 -1.5157
 5042TIP3    H236618   1.546   1.245   0.103 -4.4622 -0.1488 -1.5709
 5043TIP3   OH236619   1.174   5.858  13.327  0.4669 -0.4461 -0.7454
 5043TIP3    H136620   1.209   5.784  13.378  0.8537 -0.4258 -0.9833
 5043TIP3    H236621   1.243   5.923  13.329 -1.0869  1.3686  2.3664
 5044TIP3   OH236622   4.891   1.488  12.880  0.9721  0.4476  0.0360
 5044TIP3    H136623   4.869   1.538  12.801 -2.3117 -1.8674 -0.7215
 5044TIP3    H236624   4.920   1.403  12.848 -1.1822 -0.8242  1.2148
 5045TIP3   OH236625   4.072   4.271  15.878 -0.2963 -0.2561  0.0490
 5045TIP3    H136626   3.983   4.303  15.889  0.3887  1.7406  0.0701
 5045TIP3    H236627   4.126   4.349  15.875  1.3082 -1.3504 -1.5409
 5046TIP3   OH236628   0.155   2.440  14.774 -0.5465 -0.0274  0.1389
 5046TIP3    H136629   0.240   2.473  14.746  0.3192 -1.8188  0.4824
 5046TIP3    H236630   0.154   2.349  14.744 -1.9976 -0.2773  0.8551
 5047TIP3   OH236631   5.334   5.797   3.833 -0.4756 -0.8751 -0.1280
 5047TIP3    H136632   5.336   5.834   3.745 -2.1811 -1.1111 -0.2980
 5047TIP3    H236633   5.411   5.740   3.837  0.5883  0.4736 -0.8432
 5048TIP3   OH236634   5.569   2.584  13.920  0.2151 -0.0376 -0.0390
 5048TIP3    H136635   5.482   2.623  13.932 -0.4141 -1.6141  0.8442
 5048TIP3    H236636   5.586   2.591  13.827 -2.7151 -3.2614 -1.0397
 5049TIP3   OH236637   4.993   0.671   2.171  0.2350 -0.3172 -0.1279
 5049TIP3    H136638   5.003   0.708   2.259 -0.8859  1.3021 -0.6309
 5049TIP3    H236639   4.919   0.611   2.179 -0.9930  1.1189 -0.2963
 5050TIP3   OH236640   0.021   3.228  14.590 -0.0933  0.3255  0.5651
 5050TIP3    H136641  -0.032   3.152  14.616  0.5480 -0.6815 -0.9619
 5050TIP3    H236642   0.064   3.255  14.671  0.5987 -1.7156  0.9320
 5051TIP3   OH236643   2.036   5.956   5.112 -0.0717  0.1951 -0.1066
 5051TIP3    H136644   1.960   6.001   5.075 -0.8972 -0.1349  1.1181
 5051TIP3    H236645   2.087   5.928   5.036 -0.7340  1.1625 -0.9285
 5052TIP3   OH236646   1.050   3.977  11.227  0.2149 -0.4283  0.3632
 5052TIP3    H136647   0.960   3.981  11.194  1.1500 -1.1972 -2.5699
 5052TIP3    H236648   1.063   3.885  11.249  0.1236 -0.2128  1.3438
 5053TIP3   OH236649   1.150   4.302   4.716 -0.6177 -0.3184 -0.0724
 5053TIP3    H136650   1.148   4.214   4.754  1.8223  0.1968  1.4874
 5053TIP3    H236651   1.241   4.330   4.725 -1.4820  2.7290  0.3177
 5054TIP3   OH236652   3.027   2.492   0.030 -0.3309  0.4911 -1.0754
 5054TIP3    H136653   3.086   2.567   0.022  1.4177 -0.5882  0.7891
 5054TIP3    H236654   2.959   2.521   0.090  0.2494  0.6807 -0.4873
 5055TIP3   OH236655   2.275   6.828  12.847 -0.2702 -0.8333  0.3881
 5055TIP3    H136656   2.310   6.740  12.829  1.1580 -0.3424  0.6062
 5055TIP3    H236657   2.233   6.820  12.933 -1.4657 -1.6391 -0.2432
 5056TIP3   OH236658   1.596   0.433  17.052 -0.3313  0.3678 -0.7067
 5056TIP3    H136659   1.584   0.525  17.076  0.3439  0.7222 -1.6944
 5056TIP3    H236660   1.574   0.429  16.960 -2.5573 -0.9270 -0.1751
 5057TIP3   OH236661   3.794   4.509   1.204 -0.1434 -0.1190  0.4931
 5057TIP3    H136662   3.859   4.475   1.141 -0.3038  0.3758  0.0541
 5057TIP3    H236663   3.722   4.446   1.200  0.1379 -0.4591  0.6933
 5058TIP3   OH236664   1.203   5.232   1.716 -0.0439  0.0116 -0.5814
 5058TIP3    H136665   1.244   5.166   1.661 -0.7902 -0.1346 -0.9821
 5058TIP3    H236666   1.221   5.203   1.806  0.9785  0.1295 -0.7340
 5059TIP3   OH236667   5.540   6.596  15.121 -0.0944  0.3595  0.4508
 5059TIP3    H136668   5.624   6.606  15.077 -0.2127  1.6491  0.4715
 5059TIP3    H236669   5.562   6.567  15.209  0.4285  1.7723  0.8094
 5060TIP3   OH236670   1.467   3.804  10.910  0.0047  0.0717  0.0185
 5060TIP3    H136671   1.519   3.823  10.833 -0.8837 -0.5533 -0.7680
 5060TIP3    H236672   1.483   3.711  10.927 -1.4875 -0.3616 -0.7690
 5061TIP3   OH236673   6.549   5.841   3.631  0.4016  0.0333  0.6215
 5061TIP3    H136674   6.514   5.807   3.549  1.6627 -0.7126  0.3699
 5061TIP3    H236675   6.472   5.872   3.679 -0.4432 -0.3354 -0.4606
 5062TIP3   OH236676   6.071   6.694   6.295  0.1419  0.2338 -0.0118
 5062TIP3    H136677   6.045   6.608   6.260  0.1935  0.0449  0.4137
 5062TIP3    H236678   6.010   6.710   6.367  0.6088  0.2117  0.3930
 5063TIP3   OH236679   2.138   2.987  14.084 -0.2654  0.0702  0.3932
 5063TIP3    H136680   2.135   3.065  14.029 -0.8728  0.2555  0.6724
 5063TIP3    H236681   2.087   3.011  14.162  1.2076  0.0775  1.3941
 5064TIP3   OH236682   2.770   5.497  16.987  0.0556 -0.1329 -0.2952
 5064TIP3    H136683   2.797   5.565  17.049 -1.1343 -0.1633  0.2851
 5064TIP3    H236684   2.689   5.462  17.024  0.2549 -1.3620 -0.9786
 5065TIP3   OH236685   0.528   4.343  15.170 -0.6626 -1.0150 -0.8237
 5065TIP3    H136686   0.491   4.401  15.237  1.7853  0.6938 -0.7855
 5065TIP3    H236687   0.455   4.323  15.112 -1.6820  2.1528 -0.8329
 5066TIP3   OH236688   2.032   1.198   3.118 -0.5616 -0.1718  0.7100
 5066TIP3    H136689   2.063   1.264   3.056  0.1530 -1.2904 -0.1461
 5066TIP3    H236690   2.099   1.130   3.117 -1.8301 -1.4680  0.7080
 5067TIP3   OH236691   3.307   1.124  14.945  0.4059  0.1017  0.1635
 5067TIP3    H136692   3.240   1.059  14.923 -1.4807  2.1252 -0.4192
 5067TIP3    H236693   3.294   1.142  15.038 -0.5838  1.1763 -0.1485
 5068TIP3   OH236694   3.123   2.459  14.363  0.3398  0.3642  0.4994
 5068TIP3    H136695   3.057   2.392  14.342  1.4841 -0.5413 -0.3536
 5068TIP3    H236696   3.090   2.502  14.441 -1.7010  0.5439 -0.4052
 5069TIP3   OH236697   6.070   0.066   3.300 -0.0348  0.0583 -0.3049
 5069TIP3    H136698   6.130   0.024   3.361 -0.3919 -0.4246 -0.2852
 5069TIP3    H236699   6.000   0.101   3.356  0.1296  0.4559 -0.3460
 5070TIP3   OH236700   1.736   1.484  17.050  0.1552  0.1284 -0.3118
 5070TIP3    H136701   1.740   1.578  17.036  1.2712  0.1456  0.0314
 5070TIP3    H236702   1.743   1.446  16.962  1.7462  0.3441 -0.3140
 5071TIP3   OH236703   1.109   3.873  15.168  0.0595 -0.2363 -0.0519
 5071TIP3    H136704   1.101   3.940  15.236  0.9759  1.0082 -1.1136
 5071TIP3    H236705   1.026   3.824  15.173  0.7413 -1.2972  3.0238
 5072TIP3   OH236706   4.000   2.590  12.329 -0.2412  0.0877 -0.6710
 5072TIP3    H136707   4.083   2.609  12.286 -0.1815  0.4037 -0.4129
 5072TIP3    H236708   3.998   2.647  12.405 -1.5347  1.4693 -1.6806
 5073TIP3   OH236709   4.546   0.557   3.993 -0.6540  0.0840 -0.8966
 5073TIP3    H136710   4.596   0.488   4.035  0.8761  2.2770  1.1876
 5073TIP3    H236711   4.591   0.572   3.910 -0.7946 -1.1552 -1.2076
 5074TIP3   OH236712   1.124   0.847   5.755  0.2162  0.3174  0.3595
 5074TIP3    H136713   1.032   0.823   5.753 -0.2234  1.8667  1.1007
 5074TIP3    H236714   1.135   0.897   5.836  0.9893  2.9024 -1.2238
 5075TIP3   OH236715   5.353   3.413  17.050 -0.6274  0.3453 -0.0314
 5075TIP3    H136716   5.281   3.352  17.070 -1.8854  1.9586  0.6101
 5075TIP3    H236717   5.310   3.485  17.004  0.5682  1.4272  0.5087
 5076TIP3   OH236718   0.814   5.021  13.430  0.5174 -0.0110  0.1324
 5076TIP3    H136719   0.894   5.071  13.448  2.7445 -3.0829 -0.4989
 5076TIP3    H236720   0.790   5.047  13.341  0.0808  1.7323  0.7068
 5077TIP3   OH236721   4.073   3.634   0.779  0.1129  0.3108 -0.5455
 5077TIP3    H136722   4.066   3.542   0.802  0.4353  0.4644  0.1697
 5077TIP3    H236723   4.167   3.651   0.774  0.0560  0.4721 -1.2185
 5078TIP3   OH236724   1.093   0.806  13.117 -0.1058 -0.0394  0.0952
 5078TIP3    H136725   1.079   0.831  13.026  2.2834  1.8604  0.1567
 5078TIP3    H236726   1.007   0.813  13.158 -0.8968  0.7662 -1.6358
 5079TIP3   OH236727   5.649   0.416   4.144 -0.1727  0.2842 -0.1965
 5079TIP3    H136728   5.615   0.331   4.116 -0.4767  0.7281 -1.2210
 5079TIP3    H236729   5.724   0.394   4.199 -1.0203 -0.6685  0.6291
 5080TIP3   OH236730   0.287   4.473  17.029  0.0277 -0.0903 -0.1369
 5080TIP3    H136731   0.273   4.559  16.990  1.1095 -0.3753 -1.2224
 5080TIP3    H236732   0.297   4.491  17.123  2.1222  1.2457 -0.5342
 5081TIP3   OH236733   6.643   5.702  10.791  0.6535 -0.2078  0.2145
 5081TIP3    H136734   6.730   5.741  10.786  1.0037 -1.0466 -0.9125
 5081TIP3    H236735   6.599   5.730  10.710  0.2454 -0.6117  0.2882
 5082TIP3   OH236736   1.797   6.192   0.490 -0.4396 -0.2220  0.3416
 5082TIP3    H136737   1.751   6.151   0.416  0.2111 -1.0662  0.3932
 5082TIP3    H236738   1.829   6.275   0.455 -0.7689 -0.2810 -0.1108
 5083TIP3   OH236739   0.330   3.113   5.461  0.3181  0.0963 -0.3935
 5083TIP3    H136740   0.276   3.113   5.540 -1.0277 -0.7272 -1.2866
 5083TIP3    H236741   0.293   3.182   5.406  1.3243  0.7481 -0.2732
 5084TIP3   OH236742   4.167   4.478  16.973 -0.5149  0.2925  0.3531
 5084TIP3    H136743   4.180   4.386  16.995 -0.0917  0.3803  0.4906
 5084TIP3    H236744   4.242   4.522  17.013  0.4851  0.4284 -1.5596
 5085TIP3   OH236745   5.071   1.359  15.463  0.2616  0.1217 -0.3769
 5085TIP3    H136746   4.983   1.330  15.488  0.4086  0.0078  0.0221
 5085TIP3    H236747   5.128   1.321  15.530  0.6107  0.2223 -0.6179
 5086TIP3   OH236748   2.091   4.345   2.873  0.1525  0.2246  0.0297
 5086TIP3    H136749   2.135   4.265   2.902  2.0031  1.2978  0.3607
 5086TIP3    H236750   2.163   4.404   2.848 -1.0902  2.1710  0.8056
 5087TIP3   OH236751   5.716   5.874   5.750  0.0582 -1.0186 -0.2201
 5087TIP3    H136752   5.752   5.897   5.664  0.7263 -2.5100 -0.3626
 5087TIP3    H236753   5.631   5.833   5.730 -1.2619  1.3998  0.0470
 5088TIP3   OH236754   0.799   5.955  11.443  0.1137  0.0643 -0.1637
 5088TIP3    H136755   0.874   5.900  11.466  0.0748  0.8716  2.1148
 5088TIP3    H236756   0.730   5.929  11.504 -1.4863 -0.5869 -2.1532
 5089TIP3   OH236757   3.048   2.396  13.608 -0.1257 -0.3440 -0.4231
 5089TIP3    H136758   2.970   2.343  13.598 -1.4885  1.2661  1.0368
 5089TIP3    H236759   3.016   2.481  13.638  2.2397  0.1765  0.8756
 5090TIP3   OH236760   1.334   5.474  12.929  1.2551 -0.2910 -0.2624
 5090TIP3    H136761   1.286   5.552  12.957  2.3554  2.0234 -4.1163
 5090TIP3    H236762   1.267   5.411  12.907  0.2325  0.4837  0.5171
 5091TIP3   OH236763   2.427   5.139  16.502 -0.0540  0.0424 -0.5866
 5091TIP3    H136764   2.338   5.124  16.535  0.8079 -1.2210  1.2932
 5091TIP3    H236765   2.454   5.220  16.545  0.2034 -0.3225 -0.0563
 5092TIP3   OH236766   6.103   5.968   6.402  0.2569  0.0060  0.0345
 5092TIP3    H136767   6.088   5.879   6.436 -0.1230 -0.1206 -0.4635
 5092TIP3    H236768   6.035   6.021   6.443 -0.9342 -0.3636 -1.3871
 5093TIP3   OH236769   0.264   6.744   2.256  0.3736  0.8135 -0.0360
 5093TIP3    H136770   0.229   6.776   2.173 -0.8442  0.3813  0.2898
 5093TIP3    H236771   0.205   6.673   2.282  1.7538 -0.2414  0.3422
 5094TIP3   OH236772   3.455   2.424   1.911  0.6508 -0.0868  0.1753
 5094TIP3    H136773   3.460   2.504   1.962  1.3065 -0.1937  0.2790
 5094TIP3    H236774   3.480   2.450   1.822 -3.2201  0.7272 -0.8647
 5095TIP3   OH236775   3.620   3.533  11.884 -0.1876 -0.1915  0.3803
 5095TIP3    H136776   3.651   3.599  11.945 -2.3048  0.9516  0.3093
 5095TIP3    H236777   3.557   3.481  11.934 -1.0902  0.0436 -0.4647
 5096TIP3   OH236778   6.759   0.855  12.629 -0.5742 -0.5371  0.0911
 5096TIP3    H136779   6.741   0.949  12.633 -1.6515 -0.6792 -0.7820
 5096TIP3    H236780   6.786   0.840  12.538 -1.9607 -1.3026 -0.2247
 5097TIP3   OH236781   4.726   6.798  15.966  0.0666  0.2579  0.8101
 5097TIP3    H136782   4.669   6.743  16.019 -1.8819  1.6377  0.2532
 5097TIP3    H236783   4.725   6.756  15.879 -1.7545  1.2880  0.2713
 5098TIP3   OH236784   1.874   6.473  11.332 -0.3125  0.1817 -0.0410
 5098TIP3    H136785   1.822   6.545  11.367 -1.3279 -0.9468  0.8682
 5098TIP3    H236786   1.840   6.460  11.244 -1.6019 -0.5077  0.5240
 5099TIP3   OH236787   1.250   1.686  14.673 -0.2894 -0.2335  0.5075
 5099TIP3    H136788   1.292   1.683  14.588 -0.4954  1.3819  0.3202
 5099TIP3    H236789   1.202   1.603  14.679 -0.2080 -0.4037 -0.8951
 5100TIP3   OH236790   2.214   6.364  12.851  0.5032  0.1638 -0.0004
 5100TIP3    H136791   2.172   6.376  12.766  2.7585  1.0590 -1.0465
 5100TIP3    H236792   2.271   6.440  12.862  1.2653 -0.5862  1.7200
 5101TIP3   OH236793   6.785   2.791   3.152 -0.4695  0.1408 -0.5117
 5101TIP3    H136794   6.847   2.780   3.224 -1.7939 -3.8934  0.2640
 5101TIP3    H236795   6.729   2.864   3.179  0.1058 -0.1731  1.7331
 5102TIP3   OH236796   3.082   0.276   0.299  0.3106 -0.0870  0.0696
 5102TIP3    H136797   3.160   0.228   0.324  0.8412 -0.0223 -1.3618
 5102TIP3    H236798   3.019   0.209   0.273 -0.0192 -0.1256  0.9426
 5103TIP3   OH236799   6.372   2.882  14.152  0.0286 -0.3450 -0.0343
 5103TIP3    H136800   6.415   2.797  14.164  1.7038  0.5647  0.8044
 5103TIP3    H236801   6.401   2.911  14.065  1.0803  0.2163  0.4833
 5104TIP3   OH236802   2.342   1.842  12.878 -0.0626 -0.0407  0.7564
 5104TIP3    H136803   2.341   1.846  12.782 -1.8618 -2.1179  0.6016
 5104TIP3    H236804   2.332   1.749  12.898  0.2375  0.3451  2.9892
 5105TIP3   OH236805   2.308   1.098   5.075  0.0224  0.1622  0.1676
 5105TIP3    H136806   2.212   1.090   5.068 -0.2187  2.4330 -0.1210
 5105TIP3    H236807   2.331   1.158   5.004  1.4777  0.7297  1.0774
 5106TIP3   OH236808   2.785   1.023  16.545 -0.7071  0.4300 -0.4438
 5106TIP3    H136809   2.805   0.955  16.610  1.0482 -0.5969 -1.9610
 5106TIP3    H236810   2.862   1.079  16.543 -1.6372  1.7537 -0.1057
 5107TIP3   OH236811   3.845   3.068  14.133 -0.0738  0.3509 -0.0826
 5107TIP3    H136812   3.792   3.139  14.169 -1.6163 -0.3128 -0.9335
 5107TIP3    H236813   3.877   3.021  14.210  1.7646  2.4308  0.5387
 5108TIP3   OH236814   2.340   3.556   1.920 -0.3225 -0.2826  0.2985
 5108TIP3    H136815   2.311   3.619   1.986 -0.4543 -1.8243  1.8041
 5108TIP3    H236816   2.267   3.550   1.858  0.1784  1.8730 -0.5704
 5109TIP3   OH236817   2.265   0.904   5.292  0.1323  0.5625 -0.2597
 5109TIP3    H136818   2.207   0.917   5.217  0.7496 -1.2897 -1.1131
 5109TIP3    H236819   2.354   0.909   5.255  0.5219  2.2806  0.8351
 5110TIP3   OH236820   1.499   4.237   4.605 -0.2145 -0.0954 -0.0297
 5110TIP3    H136821   1.496   4.331   4.624  0.6730  0.0078 -0.3602
 5110TIP3    H236822   1.426   4.200   4.655 -0.4948  0.7480  0.2019
 5111TIP3   OH236823   4.166   4.152  13.350 -0.1069  0.1381 -0.0477
 5111TIP3    H136824   4.084   4.112  13.321 -0.3471 -0.2563  1.1552
 5111TIP3    H236825   4.186   4.217  13.282 -0.9395 -0.3783 -0.8066
 5112TIP3   OH236826   1.260   3.436  14.135  0.3494  0.1194  0.4145
 5112TIP3    H136827   1.301   3.354  14.110  0.8160  0.4396  0.1014
 5112TIP3    H236828   1.332   3.493  14.160 -0.0099  0.2721  1.1332
 5113TIP3   OH236829   4.843   3.915   5.270  0.1478 -0.1587  0.6147
 5113TIP3    H136830   4.751   3.888   5.275 -0.3036  1.4884  2.9326
 5113TIP3    H236831   4.850   3.987   5.332  2.1835  2.3336 -2.2026
 5114TIP3   OH236832   4.324   6.613   1.202  0.6213 -0.0021  0.4280
 5114TIP3    H136833   4.379   6.556   1.148  0.5803 -0.4263  0.8273
 5114TIP3    H236834   4.249   6.558   1.225  0.4766  0.2855  0.6435
 5115TIP3   OH236835   0.160   5.497  15.278 -0.4593  0.6126 -1.0731
 5115TIP3    H136836   0.155   5.592  15.293 -0.0165  0.3882  0.6678
 5115TIP3    H236837   0.072   5.465  15.299 -0.4182  0.5468 -1.0024
 5116TIP3   OH236838   4.698   3.568   6.365  0.0708 -0.3794  0.4533
 5116TIP3    H136839   4.603   3.562   6.356 -0.1149  1.7946  0.3142
 5116TIP3    H236840   4.715   3.544   6.456 -0.6969 -0.0894  0.6834
 5117TIP3   OH236841   1.822   5.844  12.477  0.7925  0.8025  0.6514
 5117TIP3    H136842   1.742   5.867  12.524  1.1522  1.9290  0.7443
 5117TIP3    H236843   1.793   5.819  12.389  0.0120 -2.1545  1.6059
 5118TIP3   OH236844   4.986   6.225   2.399 -0.1526 -0.0276  0.5214
 5118TIP3    H136845   4.952   6.140   2.372 -1.4369  0.4892  0.4480
 5118TIP3    H236846   4.925   6.254   2.467 -0.3338  1.2984 -0.1954
 5119TIP3   OH236847   3.929   1.240  10.461  0.7473 -0.0065  0.0990
 5119TIP3    H136848   3.867   1.168  10.469  0.7506  0.1496  2.0536
 5119TIP3    H236849   4.006   1.202  10.419 -0.5408 -0.2420 -2.1916
 5120TIP3   OH236850   6.474   3.796   0.908  0.1389  0.0510  0.0597
 5120TIP3    H136851   6.412   3.742   0.958 -1.0464  1.4378  0.1426
 5120TIP3    H236852   6.422   3.834   0.838  0.9345  1.1490  0.0392
 5121TIP3   OH236853   5.294   4.086   6.771 -0.5361  0.2056  0.2083
 5121TIP3    H136854   5.344   4.135   6.836 -0.8534  0.6905  0.0906
 5121TIP3    H236855   5.308   4.133   6.689 -0.2960 -0.2910 -0.0454
 5122TIP3   OH236856   5.122   0.232  16.059 -0.2741 -0.4350 -0.5112
 5122TIP3    H136857   5.166   0.311  16.027  1.3898 -1.0813  0.0827
 5122TIP3    H236858   5.041   0.227  16.007  0.7343  0.3435 -2.2478
 5123TIP3   OH236859   1.359   1.714  13.459 -0.2485  0.2287 -0.1770
 5123TIP3    H136860   1.351   1.753  13.547  0.2521 -2.5654  1.2015
 5123TIP3    H236861   1.272   1.681  13.439  0.2926 -1.9362  0.7486
 5124TIP3   OH236862   0.637   0.740   5.893  0.3986 -0.3554 -0.3357
 5124TIP3    H136863   0.596   0.748   5.979 -0.2812 -2.6334 -0.3893
 5124TIP3    H236864   0.569   0.768   5.832  0.9075  1.3410 -0.1958
 5125TIP3   OH236865   2.674   5.022  12.396 -0.2243  0.4234 -0.3885
 5125TIP3    H136866   2.749   4.970  12.369  0.2542  1.2295 -0.6335
 5125TIP3    H236867   2.707   5.080  12.464 -0.1486  2.0702 -1.7566
 5126TIP3   OH236868   0.316   4.635   0.542 -0.1214  0.0189  0.3822
 5126TIP3    H136869   0.292   4.573   0.611  0.1734  0.3321  0.7771
 5126TIP3    H236870   0.341   4.714   0.590 -2.9710  1.3615 -0.1732
 5127TIP3   OH236871   1.104   0.708  14.024  0.0241  0.6295 -0.6396
 5127TIP3    H136872   1.166   0.769  13.983  1.0595 -1.6391 -2.6298
 5127TIP3    H236873   1.141   0.621  14.008 -2.4143 -0.6735  0.3351
 5128TIP3   OH236874   2.554   3.397  12.722  0.2230 -0.2644 -0.2411
 5128TIP3    H136875   2.601   3.335  12.778  0.2768 -1.2880 -1.3718
 5128TIP3    H236876   2.593   3.385  12.635 -1.7283 -0.7568 -1.1027
 5129TIP3   OH236877   0.979   0.372  17.055 -0.0520 -0.8252 -0.7294
 5129TIP3    H136878   1.049   0.419  17.010 -0.0428  1.0553  1.0937
 5129TIP3    H236879   1.010   0.364  17.145 -1.5933 -1.1820 -0.1974
 5130TIP3   OH236880   1.000   2.968   3.083 -0.3721 -0.1824  1.0710
 5130TIP3    H136881   0.933   2.954   3.016  1.7964  0.3911 -1.3976
 5130TIP3    H236882   0.960   3.031   3.144 -2.4638 -0.7778  0.4039
 5131TIP3   OH236883   1.514   3.721   0.291 -0.8268  0.2285 -0.6574
 5131TIP3    H136884   1.420   3.701   0.290 -0.7970 -0.0875  0.5159
 5131TIP3    H236885   1.536   3.740   0.200 -2.0398  0.3594 -0.9436
 5132TIP3   OH236886   2.014   1.961  12.490 -0.4773 -0.3360 -0.5795
 5132TIP3    H136887   2.022   1.918  12.405 -1.3103  0.2471 -0.9550
 5132TIP3    H236888   2.063   1.904  12.550  0.8718 -0.2991 -1.5883
 5133TIP3   OH236889   4.943   1.653  12.663 -0.4496 -0.0320 -0.4347
 5133TIP3    H136890   4.928   1.664  12.569  0.3013  2.6777 -0.3338
 5133TIP3    H236891   4.916   1.737  12.702  0.5149 -0.5919  1.5928
 5134TIP3   OH236892   3.958   4.500   6.229  0.0244 -0.5677 -0.3617
 5134TIP3    H136893   4.032   4.494   6.169 -0.8136 -2.2671 -1.3030
 5134TIP3    H236894   3.908   4.420   6.214 -1.2682 -0.1228  1.2397
 5135TIP3   OH236895   6.421   1.208   4.835 -0.5076 -0.3361 -0.3144
 5135TIP3    H136896   6.374   1.277   4.789 -1.1124 -0.3170  0.3189
 5135TIP3    H236897   6.352   1.155   4.876  0.0461  0.5772  1.9101
 5136TIP3   OH236898   4.827   0.027   6.272  0.6613 -0.5638  0.1162
 5136TIP3    H136899   4.745   0.074   6.262  1.0399 -0.2097 -1.7799
 5136TIP3    H236900   4.807  -0.063   6.245  1.0432 -0.2871 -1.1729
 5137TIP3   OH236901   4.242   1.573  17.053  0.0260 -0.3616  0.3681
 5137TIP3    H136902   4.279   1.523  17.126  0.1818 -0.8457 -0.0349
 5137TIP3    H236903   4.284   1.537  16.976  0.4010  0.6403  0.0898
 5138TIP3   OH236904   3.708   3.236  11.754 -0.0587 -0.1700 -0.3668
 5138TIP3    H136905   3.734   3.163  11.811 -1.6877 -1.0950 -0.7447
 5138TIP3    H236906   3.785   3.251  11.699 -0.4881 -3.4089 -2.1034
 5139TIP3   OH236907   0.623   1.530  16.873  0.7403  0.0722  0.4804
 5139TIP3    H136908   0.561   1.556  16.940 -0.4737  1.1869 -0.9971
 5139TIP3    H236909   0.623   1.435  16.875 -2.1805 -0.0452 -0.4107
 5140TIP3   OH236910   1.017   1.184  11.962 -0.8023  0.2888 -0.2440
 5140TIP3    H136911   1.015   1.146  12.050  0.4787 -0.5629 -0.5690
 5140TIP3    H236912   1.003   1.111  11.903 -1.4894  0.8311 -0.7690
 5141TIP3   OH236913   6.677   0.007   3.789 -0.5645 -0.1854 -0.1776
 5141TIP3    H136914   6.768   0.037   3.796 -0.8676  0.7296  0.0339
 5141TIP3    H236915   6.672  -0.071   3.844  0.8396 -2.1120 -2.5590
 5142TIP3   OH236916   1.982   3.505  16.608  0.3843  0.8007  0.2129
 5142TIP3    H136917   2.072   3.538  16.618  0.4628  0.0241  2.9786
 5142TIP3    H236918   1.934   3.545  16.681 -1.0491 -0.3184 -0.0701
 5143TIP3   OH236919   6.463   6.184   1.682  0.2906 -0.2055  0.2242
 5143TIP3    H136920   6.370   6.162   1.672  0.2805 -1.3080  2.2603
 5143TIP3    H236921   6.465   6.280   1.683 -0.9925 -0.1657  1.3494
 5144TIP3   OH236922   1.331   4.367  14.239  0.5024 -0.0155  0.2789
 5144TIP3    H136923   1.367   4.410  14.162  0.5669 -1.0957 -0.3163
 5144TIP3    H236924   1.375   4.408  14.313  1.4711  0.0722 -0.3377
 5145TIP3   OH236925   4.137   5.118  11.977 -0.0865 -0.4009 -0.2970
 5145TIP3    H136926   4.140   5.202  11.933  1.6111 -0.3277 -0.0996
 5145TIP3    H236927   4.055   5.119  12.026 -0.4717  0.7881 -0.9430
 5146TIP3   OH236928   2.904   3.173  11.925  0.1821 -0.5575  0.3694
 5146TIP3    H136929   2.810   3.170  11.945 -0.5423  0.4928 -2.3719
 5146TIP3    H236930   2.912   3.123  11.843  1.7878  0.3912 -0.0840
 5147TIP3   OH236931   2.057   3.047  12.617  0.1183  0.0190 -0.2260
 5147TIP3    H136932   2.040   3.041  12.523  1.8076 -2.9339 -0.4653
 5147TIP3    H236933   2.032   2.961  12.651 -1.6823  1.4152  2.3358
 5148TIP3   OH236934   6.667   3.139  11.290  0.1575 -0.8305 -0.0408
 5148TIP3    H136935   6.706   3.072  11.234  0.5486 -1.0788  0.5136
 5148TIP3    H236936   6.742   3.177  11.337 -0.0095  0.3146 -0.6800
 5149TIP3   OH236937   1.484   4.295  15.619  0.0611 -0.1464  0.6728
 5149TIP3    H136938   1.477   4.333  15.707 -0.0010 -0.5693  0.8505
 5149TIP3    H236939   1.457   4.366  15.561 -0.6830 -0.1092  1.0413
 5150TIP3   OH236940   6.829   4.212  11.423  0.2580 -0.6764 -0.3806
 5150TIP3    H136941   6.759   4.195  11.360 -1.9793  1.8109  1.2521
 5150TIP3    H236942   6.851   4.305  11.410 -1.4999  0.4775  3.4429
 5151TIP3   OH236943   2.083   5.028   3.317 -0.1984 -0.2526 -0.9604
 5151TIP3    H136944   2.052   5.018   3.407 -0.0476  0.0366 -0.8743
 5151TIP3    H236945   2.175   5.051   3.325 -0.8443  2.8851 -1.0372
 5152TIP3   OH236946   4.840   4.352  12.535  0.4125  0.3291 -0.0882
 5152TIP3    H136947   4.764   4.306  12.569  0.6913  0.8417  1.2860
 5152TIP3    H236948   4.859   4.309  12.452 -1.5243  0.3569 -0.6008
 5153TIP3   OH236949   6.458   2.479  10.796  0.4114 -0.3641 -0.7167
 5153TIP3    H136950   6.453   2.495  10.702  0.7886  1.0802 -0.5127
 5153TIP3    H236951   6.430   2.561  10.836 -0.6324 -1.2477  0.4527
 5154TIP3   OH236952   1.338   3.444   1.766  0.7391  0.5165 -0.4177
 5154TIP3    H136953   1.346   3.371   1.705 -1.4814  0.1793 -0.3878
 5154TIP3    H236954   1.339   3.522   1.711 -3.0202  0.1579 -1.2335
 5155TIP3   OH236955   5.270   2.467  11.334  0.0416  0.6617 -0.0610
 5155TIP3    H136956   5.233   2.389  11.375  0.7936  1.2810  1.8853
 5155TIP3    H236957   5.308   2.517  11.406  1.3836  1.8450 -1.5040
 5156TIP3   OH236958   6.766   4.839  16.276  0.0503 -0.5574 -0.2720
 5156TIP3    H136959   6.707   4.891  16.330  0.3664 -1.0079  0.5137
 5156TIP3    H236960   6.709   4.782  16.225 -0.2920  0.4252 -1.0200
 5157TIP3   OH236961   4.196   2.316   2.622  0.1879  0.3745 -0.0307
 5157TIP3    H136962   4.248   2.238   2.645 -0.0094  0.4198  0.5800
 5157TIP3    H236963   4.215   2.378   2.692 -1.4210  0.0566  0.7229
 5158TIP3   OH236964   1.381   2.871  16.815 -0.6489  0.1409 -0.3088
 5158TIP3    H136965   1.332   2.929  16.757  1.3048  2.3102  0.0637
 5158TIP3    H236966   1.404   2.925  16.890 -1.0089 -1.9107  1.3747
 5159TIP3   OH236967   2.602   4.612  12.915 -0.1542  0.3078 -0.3179
 5159TIP3    H136968   2.539   4.573  12.854  0.3770 -0.8613 -0.1334
 5159TIP3    H236969   2.576   4.704  12.919 -3.2057 -0.4488  1.3232
 5160TIP3   OH236970   5.036   1.467  15.994  0.0747  0.0781 -0.2339
 5160TIP3    H136971   5.128   1.466  16.020 -0.3520 -0.6182  1.3628
 5160TIP3    H236972   5.036   1.508  15.908  1.7300  1.3191  0.2987
 5161TIP3   OH236973   5.430   3.221  15.852 -0.3331  0.0348 -0.2819
 5161TIP3    H136974   5.376   3.171  15.792 -0.6469  1.0156 -0.8441
 5161TIP3    H236975   5.421   3.177  15.937 -1.0192 -0.5229 -0.6432
 5162TIP3   OH236976   5.393   0.896   3.748  0.6048 -0.7161  0.2113
 5162TIP3    H136977   5.416   0.917   3.657  0.1663 -3.2212 -0.5696
 5162TIP3    H236978   5.308   0.936   3.761  0.8837  0.0688 -0.3151
 5163TIP3   OH236979   3.206   3.704  10.998 -0.3660  0.2541 -0.2043
 5163TIP3    H136980   3.150   3.731  11.070  0.1737  1.1103 -0.0933
 5163TIP3    H236981   3.153   3.641  10.949 -1.0121  0.2287  0.5105
 5164TIP3   OH236982   4.932   0.366   5.604 -0.4009  0.2330 -0.1483
 5164TIP3    H136983   4.894   0.280   5.623  1.4643 -0.1824  2.1445
 5164TIP3    H236984   4.862   0.428   5.624 -0.9899 -0.6450  0.5936
 5165TIP3   OH236985   0.759   6.757   4.649  0.4940 -0.0284 -0.2024
 5165TIP3    H136986   0.744   6.679   4.702  0.5742 -0.3548 -0.6566
 5165TIP3    H236987   0.734   6.732   4.560  0.5239  0.4605 -0.3548
 5166TIP3   OH236988   0.847   4.794   5.974  0.1663  0.6614  0.0504
 5166TIP3    H136989   0.814   4.760   6.057  1.3662  0.7200  0.5743
 5166TIP3    H236990   0.856   4.888   5.989  1.2609  0.5530  0.1908
 5167TIP3   OH236991   1.503   1.789   1.012  0.3184  0.2944  0.2147
 5167TIP3    H136992   1.416   1.760   1.038  0.3686 -0.5888 -0.5627
 5167TIP3    H236993   1.561   1.757   1.082  0.1110  0.3071  0.3940
 5168TIP3   OH236994   1.517   1.322   2.220  0.5500  0.2106 -0.3793
 5168TIP3    H136995   1.460   1.329   2.297  0.6964  0.1111 -0.2603
 5168TIP3    H236996   1.495   1.398   2.167  0.2454  0.1273 -0.3766
 5169TIP3   OH236997   0.754   2.710  15.901 -0.3200  0.1708 -0.2298
 5169TIP3    H136998   0.792   2.679  15.819  0.0895  0.0910 -0.0107
 5169TIP3    H236999   0.792   2.796  15.914  1.7489 -0.8871  1.2526
 5170TIP3   OH237000   0.560   1.846  13.322  0.6447  0.6176  0.1877
 5170TIP3    H137001   0.631   1.850  13.385  0.2151 -2.5562  1.0245
 5170TIP3    H237002   0.481   1.855  13.374  0.3433  0.1109 -0.1713
 5171TIP3   OH237003   2.450   6.572  11.628 -0.4471 -0.7763 -0.7112
 5171TIP3    H137004   2.406   6.488  11.618 -1.4648 -0.1411 -2.0225
 5171TIP3    H237005   2.381   6.637  11.610  0.6655  0.2972 -1.2714
 5172TIP3   OH237006   2.381   6.062   1.919  0.1058  0.2758 -0.4182
 5172TIP3    H137007   2.468   6.099   1.933 -0.1002  0.2405  1.2188
 5172TIP3    H237008   2.329   6.134   1.883  0.6978  0.4223 -0.9769
 5173TIP3   OH237009   1.935   0.242   3.491 -0.3890 -0.0345  0.0459
 5173TIP3    H137010   1.942   0.242   3.395  0.1354 -1.3410  0.0508
 5173TIP3    H237011   1.883   0.165   3.511  0.5653 -0.5015  0.8481
 5174TIP3   OH237012   1.699   4.094  12.256 -0.1520 -0.4381  0.2604
 5174TIP3    H137013   1.794   4.107  12.266 -0.5594  1.7370  2.0632
 5174TIP3    H237014   1.675   4.034  12.327 -0.4365  0.9199  1.3472
 5175TIP3   OH237015   5.764   3.630   2.389 -0.0155 -0.2319  0.2328
 5175TIP3    H137016   5.725   3.584   2.314  0.8708 -2.2300  0.9177
 5175TIP3    H237017   5.699   3.624   2.458  0.2824 -0.9163  0.4641
 5176TIP3   OH237018   0.253   6.836   1.991 -0.2493 -0.1531  0.1243
 5176TIP3    H137019   0.280   6.782   1.917  1.3048  0.3791  0.2685
 5176TIP3    H237020   0.210   6.912   1.952 -1.2022 -0.8273 -0.1396
 5177TIP3   OH237021   5.246   0.053   4.885  0.3221  0.1234 -0.0346
 5177TIP3    H137022   5.237   0.009   4.801 -1.8772 -0.4926  0.4454
 5177TIP3    H237023   5.305  -0.002   4.936  0.4995 -0.2802 -0.6753
 5178TIP3   OH237024   4.565   2.860  12.428 -0.1838 -0.0678 -0.1922
 5178TIP3    H137025   4.648   2.823  12.458 -0.6330 -0.1099  1.0426
 5178TIP3    H237026   4.508   2.856  12.504 -0.6944  1.8635 -0.4305
 5179TIP3   OH237027   0.666   3.985   5.926  0.2210 -0.7826  0.0615
 5179TIP3    H137028   0.732   4.048   5.896 -0.4176 -0.3529 -0.4743
 5179TIP3    H237029   0.642   3.936   5.848 -0.1006 -0.9292  0.2494
 5180TIP3   OH237030   5.755   1.498   3.961  0.4436 -0.2886  0.2303
 5180TIP3    H137031   5.771   1.404   3.957 -0.6051 -0.5170  0.9360
 5180TIP3    H237032   5.785   1.532   3.876 -1.3988 -1.6173 -1.0186
 5181TIP3   OH237033   2.149   2.886   3.674  0.3782 -0.0094  0.2352
 5181TIP3    H137034   2.110   2.861   3.590  1.3369 -1.1626  0.0986
 5181TIP3    H237035   2.197   2.808   3.702  2.2330  1.1950  0.5815
 5182TIP3   OH237036   5.736   6.706  12.518  0.0029 -0.1656 -0.0054
 5182TIP3    H137037   5.749   6.620  12.557  0.7011  0.0974  0.3670
 5182TIP3    H237038   5.790   6.765  12.571  0.5405  0.2907 -1.0346
 5183TIP3   OH237039   5.137   2.344   1.719  0.3918 -0.3587  0.3338
 5183TIP3    H137040   5.050   2.368   1.687  0.2648 -2.4508 -1.1138
 5183TIP3    H237041   5.145   2.387   1.804 -0.6026  2.8100 -1.0331
 5184TIP3   OH237042   6.630   5.758   5.098 -0.0480 -0.2722  0.2635
 5184TIP3    H137043   6.672   5.673   5.088 -0.9808 -0.6944 -0.0854
 5184TIP3    H237044   6.537   5.742   5.081 -0.3927  0.6199  1.2050
 5185TIP3   OH237045   5.076   0.980  15.273  0.0324 -0.2641  0.0142
 5185TIP3    H137046   5.044   0.951  15.188 -1.7634  0.1639  0.5036
 5185TIP3    H237047   5.094   0.899  15.321 -2.2592 -0.5883  0.3994
 5186TIP3   OH237048   1.017   3.547  15.012 -0.2402 -0.3870 -0.2877
 5186TIP3    H137049   1.032   3.635  14.978 -1.5412  0.4388  1.1900
 5186TIP3    H237050   1.052   3.489  14.943  1.0068  1.2496 -1.1129
 5187TIP3   OH237051   0.350   3.375   0.882  0.6707  0.1330  0.5369
 5187TIP3    H137052   0.283   3.425   0.930  0.4191 -0.0840  0.4157
 5187TIP3    H237053   0.428   3.382   0.937  0.0700 -1.1092  1.6009
 5188TIP3   OH237054   2.553   2.172   4.075 -0.6667 -0.2086  0.8623
 5188TIP3    H137055   2.514   2.098   4.029 -1.0729  0.9236 -0.6872
 5188TIP3    H237056   2.486   2.200   4.138 -1.2669 -0.0162  0.1546
 5189TIP3   OH237057   1.341   2.360  13.661  0.2203 -0.2518  0.9233
 5189TIP3    H137058   1.411   2.310  13.619 -1.5684 -0.8775 -1.5709
 5189TIP3    H237059   1.371   2.450  13.659  1.2744 -0.5995  0.5809
 5190TIP3   OH237060   6.800   2.026   3.947  0.5699  0.0776 -0.4184
 5190TIP3    H137061   6.785   1.954   4.008  0.4666  1.1850  0.9005
 5190TIP3    H237062   6.716   2.038   3.903  0.2212  0.2150  0.2722
 5191TIP3   OH237063   4.776   3.582   0.505 -0.0469 -0.1451  0.5730
 5191TIP3    H137064   4.859   3.613   0.467  0.5452  1.0336  2.6621
 5191TIP3    H237065   4.716   3.655   0.492  0.0935  0.1686  1.6445
 5192TIP3   OH237066   3.273   3.123  13.752  0.7930 -0.1125 -0.2449
 5192TIP3    H137067   3.195   3.085  13.792 -0.6158  0.6847 -2.0574
 5192TIP3    H237068   3.286   3.072  13.672  0.6687  1.2250 -1.1627
 5193TIP3   OH237069   1.057   5.627  14.571  0.3874 -0.2609 -0.4423
 5193TIP3    H137070   0.995   5.625  14.498 -3.1552 -0.4059  2.2656
 5193TIP3    H237071   1.063   5.536  14.599 -2.6084  0.2052  2.4421
 5194TIP3   OH237072   1.427   6.596   2.348  0.4261  0.0277 -0.4623
 5194TIP3    H137073   1.402   6.665   2.286  0.6677  0.0015 -0.5883
 5194TIP3    H237074   1.501   6.633   2.396  0.7225 -0.2462 -0.7090
 5195TIP3   OH237075   4.153   6.100   5.577  0.1585 -0.0390 -0.2836
 5195TIP3    H137076   4.151   6.159   5.652  1.4897  0.9314 -0.9750
 5195TIP3    H237077   4.246   6.085   5.560 -0.0756 -3.6288  0.8067
 5196TIP3   OH237078   3.928   0.036   1.702  0.6189 -0.3858  0.1436
 5196TIP3    H137079   3.836   0.030   1.678  1.0882  1.0151 -2.3994
 5196TIP3    H237080   3.954  -0.053   1.724 -0.9042 -1.1126 -0.8788
 5197TIP3   OH237081   0.040   5.207   0.491  0.4694 -0.1570  0.9625
 5197TIP3    H137082  -0.014   5.151   0.435  1.4868 -0.5558  0.3475
 5197TIP3    H237083   0.046   5.290   0.443 -2.0120  0.9571  2.4203
 5198TIP3   OH237084   3.812   1.204  11.515  0.3693  0.4002  0.6781
 5198TIP3    H137085   3.800   1.156  11.597 -1.6822 -3.1227 -1.4365
 5198TIP3    H237086   3.902   1.187  11.490 -0.0448 -1.6933  0.4622
 5199TIP3   OH237087   1.985   3.647  13.871 -0.2089  0.5101 -0.4963
 5199TIP3    H137088   2.074   3.658  13.837  0.0800  0.3171  0.1932
 5199TIP3    H237089   1.995   3.588  13.946 -1.0328 -0.2059 -0.9375
 5200TIP3   OH237090   1.860   5.694  16.541 -0.0094 -0.0955 -0.0087
 5200TIP3    H137091   1.892   5.759  16.604  0.8432  0.4201 -0.9343
 5200TIP3    H237092   1.919   5.702  16.466 -2.2022  0.7858 -1.7719
 5201TIP3   OH237093   2.478   0.176  12.999  0.0065 -0.4704  0.0802
 5201TIP3    H137094   2.436   0.108  12.946  0.0758  0.1642 -0.8075
 5201TIP3    H237095   2.404   0.225  13.037 -0.1049  0.5699 -1.3842
 5202TIP3   OH237096   2.994   1.328  11.244  0.5826  0.2081  0.1088
 5202TIP3    H137097   2.906   1.297  11.266 -0.1289  0.4672 -2.1475
 5202TIP3    H237098   2.995   1.333  11.148  3.6239 -1.4856 -0.0928
 5203TIP3   OH237099   0.037   0.979   3.555  0.8474  0.6315 -0.4480
 5203TIP3    H137100   0.120   0.984   3.602 -0.4911  0.3707  2.1471
 5203TIP3    H237101  -0.028   1.008   3.619 -1.2422 -0.8131 -1.7954
 5204TIP3   OH237102   2.924   6.623   5.160  0.2179  0.6104  0.4272
 5204TIP3    H137103   2.925   6.540   5.209 -2.1471  0.2786  0.0237
 5204TIP3    H237104   2.839   6.662   5.180  1.1096  2.7569  0.2494
 5205TIP3   OH237105   0.171   1.188  15.036 -0.3044  0.1526  0.0457
 5205TIP3    H137106   0.144   1.279  15.019 -0.4230  0.2699  0.8085
 5205TIP3    H237107   0.092   1.136  15.021 -0.5482  0.3142  0.7343
 5206TIP3   OH237108   3.395   0.286  13.269 -0.3195 -0.8221  0.3036
 5206TIP3    H137109   3.438   0.296  13.354 -0.3733 -0.7227  0.3189
 5206TIP3    H237110   3.316   0.340  13.275  0.2046  0.0264 -0.1695
 5207TIP3   OH237111   6.199   5.493   6.841  0.1810  0.0055  0.1895
 5207TIP3    H137112   6.232   5.441   6.768 -0.0900 -0.8912  0.6833
 5207TIP3    H237113   6.269   5.492   6.905 -0.6668 -1.7385  1.1586
 5208TIP3   OH237114   6.663   6.438   1.521  0.2226  0.6818 -0.4381
 5208TIP3    H137115   6.606   6.391   1.459 -1.1689  1.7345 -0.0077
 5208TIP3    H237116   6.734   6.377   1.538 -0.6867 -0.6386 -1.1276
 5209TIP3   OH237117   1.267   3.811  12.406  0.4413  0.5450 -0.2642
 5209TIP3    H137118   1.352   3.772  12.425  0.5732  0.4773 -0.9699
 5209TIP3    H237119   1.204   3.752  12.446  0.7423  0.9824  0.9089
 5210TIP3   OH237120   2.547   1.991   4.878  0.2867  0.0879  0.0247
 5210TIP3    H137121   2.540   2.070   4.932 -0.0212  0.9991 -1.3118
 5210TIP3    H237122   2.457   1.962   4.866  0.2433  0.5897 -0.9759
 5211TIP3   OH237123   4.916   6.345   0.400 -0.1413 -0.2961  0.4582
 5211TIP3    H137124   5.004   6.381   0.406  0.4668 -1.3007 -1.5469
 5211TIP3    H237125   4.928   6.257   0.364 -1.9937 -0.0179 -1.0317
 5212TIP3   OH237126   4.270   1.388  11.040 -0.2345  0.3612  0.1313
 5212TIP3    H137127   4.230   1.301  11.027 -0.0387  0.2800  0.0696
 5212TIP3    H237128   4.211   1.448  10.993  1.7414 -0.2016 -3.4007
 5213TIP3   OH237129   3.554   3.550  12.712 -0.0658  0.4102 -0.3278
 5213TIP3    H137130   3.581   3.535  12.803 -1.1615 -2.3111 -0.3651
 5213TIP3    H237131   3.637   3.555  12.664  0.5541 -2.2405  0.3161
 5214TIP3   OH237132   5.819   4.217   4.963 -0.1238 -0.1112 -0.1237
 5214TIP3    H137133   5.869   4.296   4.943  0.5543 -0.8313 -1.3886
 5214TIP3    H237134   5.885   4.151   4.982 -0.6630 -0.5431  0.2687
 5215TIP3   OH237135   1.469   4.687   3.854  0.2202 -0.1010  0.3026
 5215TIP3    H137136   1.443   4.660   3.942 -1.9050 -0.2196 -0.3230
 5215TIP3    H237137   1.403   4.650   3.796  1.5689 -0.0141 -1.3784
 5216TIP3   OH237138   2.413   3.317  11.135  0.3516 -0.1227  0.2564
 5216TIP3    H137139   2.347   3.286  11.197  0.0244  0.5286  0.2443
 5216TIP3    H237140   2.433   3.406  11.163 -0.4308  0.5090 -1.0566
 5217TIP3   OH237141   1.018   0.465  11.653 -0.1678  0.3003 -0.3328
 5217TIP3    H137142   0.932   0.493  11.685 -0.5639  0.3062 -1.3494
 5217TIP3    H237143   1.079   0.488  11.723 -1.1188 -0.6412  0.8571
 5218TIP3   OH237144   2.930   3.263   4.991  0.0632  0.5997 -0.0421
 5218TIP3    H137145   3.000   3.301   4.939  0.4086 -0.7834 -0.6168
 5218TIP3    H237146   2.873   3.220   4.928  1.1224 -2.1490  0.7439
 5219TIP3   OH237147   5.465   0.600  15.930  0.7583 -0.6235  0.5586
 5219TIP3    H137148   5.532   0.566  15.989  0.3199  0.1858  1.5606
 5219TIP3    H237149   5.499   0.685  15.902  0.4376 -0.4915  0.5678
 5220TIP3   OH237150   5.783   3.296  10.819 -0.9604 -0.3330  0.5969
 5220TIP3    H137151   5.829   3.225  10.774  2.3343  2.6836 -1.3249
 5220TIP3    H237152   5.706   3.312  10.764  0.5909  0.2937 -1.5424
 5221TIP3   OH237153   0.988   2.732   2.124  0.5694  0.2280  0.5027
 5221TIP3    H137154   0.964   2.640   2.120 -1.4364  0.6655  0.9716
 5221TIP3    H237155   1.079   2.736   2.095  1.2697 -2.0895  2.1700
 5222TIP3   OH237156   0.321   4.004   0.643 -0.3091 -0.1137 -0.1380
 5222TIP3    H137157   0.336   4.077   0.582  0.6168  1.0483  1.4053
 5222TIP3    H237158   0.232   3.974   0.623 -0.0487  0.2499 -2.0047
 5223TIP3   OH237159   0.770   2.041   6.231 -0.2440 -0.0284  0.1246
 5223TIP3    H137160   0.847   2.092   6.254 -0.6311  0.2039  0.9607
 5223TIP3    H237161   0.718   2.098   6.174 -0.0232 -0.0112 -0.0595
 5224TIP3   OH237162   5.621   1.213  13.195 -0.1513 -0.6492 -0.8365
 5224TIP3    H137163   5.561   1.234  13.124 -0.1925  0.0539 -0.5977
 5224TIP3    H237164   5.708   1.226  13.156 -0.1572 -1.1537 -1.0260
 5225TIP3   OH237165   0.713   0.020   2.408 -0.1134 -0.4659  0.0754
 5225TIP3    H137166   0.665   0.103   2.409 -0.7721 -0.7960 -1.3542
 5225TIP3    H237167   0.803   0.045   2.385 -0.5473 -0.2252 -1.4721
 5226TIP3   OH237168   2.970   5.461  11.951  0.0645  0.0030  0.0281
 5226TIP3    H137169   2.895   5.506  11.915 -0.4383 -0.7353  0.1235
 5226TIP3    H237170   2.983   5.500  12.038 -1.1903 -0.9164  0.6613
 5227TIP3   OH237171   4.869   6.123  12.388 -0.3074  0.0448  0.2099
 5227TIP3    H137172   4.962   6.101  12.378  0.1220  2.3797 -2.1389
 5227TIP3    H237173   4.851   6.184  12.316 -3.3354  0.7422  1.3985
 5228TIP3   OH237174   5.942   5.816   2.384 -0.0073 -0.5731  0.4674
 5228TIP3    H137175   5.931   5.904   2.420  0.5641 -0.0053 -0.7060
 5228TIP3    H237176   5.863   5.769   2.413 -0.2752  0.2822  1.1893
 5229TIP3   OH237177   1.234   6.520  17.196  0.4821 -0.2062  0.2685
 5229TIP3    H137178   1.274   6.565  17.121  0.3163 -0.4915  0.0071
 5229TIP3    H237179   1.223   6.588  17.262  0.6742  0.0368  0.0491
 5230TIP3   OH237180   1.530   2.582  11.481  0.0044 -0.4408  0.2095
 5230TIP3    H137181   1.533   2.669  11.519 -3.1049 -0.5320  0.9325
 5230TIP3    H237182   1.507   2.524  11.554  0.1513 -1.5750 -0.6087
 5231TIP3   OH237183   5.328   1.399  10.689 -0.0278 -0.1124  0.3124
 5231TIP3    H137184   5.365   1.476  10.733 -0.2095  0.8237 -1.0863
 5231TIP3    H237185   5.401   1.338  10.681  0.3458  0.2773  0.6628
 5232TIP3   OH237186   2.904   4.122  11.135 -0.2287  0.1665 -0.0365
 5232TIP3    H137187   2.940   4.053  11.080 -2.7988 -1.0904 -0.2621
 5232TIP3    H237188   2.877   4.190  11.074 -0.6026 -0.0417 -0.1067
 5233TIP3   OH237189   0.589   6.111   4.283 -0.3611 -0.0883  0.7529
 5233TIP3    H137190   0.574   6.201   4.310  1.3129  0.1558  0.9435
 5233TIP3    H237191   0.684   6.102   4.278 -0.5257 -1.4052 -0.7820
 5234TIP3   OH237192   3.380   3.796  11.504 -0.1992 -0.6151  0.2705
 5234TIP3    H137193   3.443   3.780  11.574  0.3254 -0.4339 -0.1493
 5234TIP3    H237194   3.433   3.804  11.425 -0.7804 -0.8011 -0.1492
 5235TIP3   OH237195   4.722   4.503  16.235  0.0743  0.2764  0.1102
 5235TIP3    H137196   4.805   4.455  16.228  0.2823  0.6346  0.0652
 5235TIP3    H237197   4.747   4.588  16.270 -0.3862  0.1003  0.8759
 5236TIP3   OH237198   3.758   4.492  16.695 -0.2662  0.1171 -0.3079
 5236TIP3    H137199   3.822   4.551  16.656 -0.2773  0.0278 -0.4609
 5236TIP3    H237200   3.693   4.550  16.734 -1.3083  0.2258 -2.1213
 5237TIP3   OH237201   2.123   3.849  15.847 -0.7013 -0.3050 -0.0559
 5237TIP3    H137202   2.196   3.911  15.852 -0.8400 -0.2052  0.9235
 5237TIP3    H237203   2.099   3.833  15.938 -3.7025  1.7693 -0.3503
 5238TIP3   OH237204   6.026   3.833  16.138 -1.2662  0.3216  0.6111
 5238TIP3    H137205   6.093   3.880  16.186 -0.0787 -1.0411  0.3447
 5238TIP3    H237206   5.977   3.786  16.205 -0.4203 -0.5678  0.6218
 5239TIP3   OH237207   1.620   4.811   0.548 -0.4980 -0.0281 -0.2366
 5239TIP3    H137208   1.592   4.856   0.468  1.5288 -1.2128 -1.7157
 5239TIP3    H237209   1.633   4.881   0.612 -0.7569  1.1130 -1.3986
 5240TIP3   OH237210   4.722   5.577  17.204  0.4647  0.5417 -0.1908
 5240TIP3    H137211   4.688   5.577  17.294 -1.2545  1.3281 -0.7882
 5240TIP3    H237212   4.696   5.491  17.170  0.2057  0.6342 -0.2334
 5241TIP3   OH237213   0.954   3.523   5.283 -0.2186  0.3171  0.0634
 5241TIP3    H137214   0.945   3.538   5.377 -1.0176  0.0370  0.0390
 5241TIP3    H237215   0.924   3.433   5.271  1.9173 -0.4182 -0.1692
 5242TIP3   OH237216   4.110   4.224  16.173 -0.0009  0.0224  0.7883
 5242TIP3    H137217   4.108   4.235  16.078 -0.7620 -1.2138  0.6505
 5242TIP3    H237218   4.192   4.267  16.200  1.0210 -0.9601 -0.6117
 5243TIP3   OH237219   1.522   2.839  14.254 -0.8660 -0.0028  0.1350
 5243TIP3    H137220   1.491   2.754  14.286  0.2107 -0.8170 -0.9039
 5243TIP3    H237221   1.495   2.901  14.322 -1.0356 -1.2740  1.2756
 5244TIP3   OH237222   0.584   6.597  13.133 -0.7485  0.6349 -0.0149
 5244TIP3    H137223   0.640   6.612  13.209  1.1699  1.2848 -1.4726
 5244TIP3    H237224   0.512   6.659  13.145 -1.6103 -0.6911  2.2439
 5245TIP3   OH237225   0.387   6.393   5.190  0.4698 -0.1943 -0.0411
 5245TIP3    H137226   0.364   6.342   5.113 -0.9947  1.2304 -0.6186
 5245TIP3    H237227   0.466   6.351   5.225  0.4721 -1.5860 -1.6051
 5246TIP3   OH237228   6.819   0.010   5.656 -0.2857  0.0704 -0.1293
 5246TIP3    H137229   6.833   0.045   5.568  0.9912 -0.2271 -0.0693
 5246TIP3    H237230   6.887  -0.057   5.666  0.3045  0.8649  1.5014
 5247TIP3   OH237231   4.206   4.485  14.655  0.8679 -0.4423 -0.1983
 5247TIP3    H137232   4.249   4.559  14.613  0.1821  0.2452  0.2874
 5247TIP3    H237233   4.246   4.408  14.615  1.3153  0.1887 -0.9899
 5248TIP3   OH237234   4.656   2.615  15.711  0.2738 -0.9668  0.3088
 5248TIP3    H137235   4.576   2.590  15.665  0.0727  0.6761 -0.3061
 5248TIP3    H237236   4.633   2.695  15.758  1.8466  0.2682 -0.8884
 5249TIP3   OH237237   6.105   6.386  16.585  0.3496 -0.0558 -0.0954
 5249TIP3    H137238   6.019   6.367  16.548  0.4941 -0.4398 -0.2411
 5249TIP3    H237239   6.131   6.305  16.629  1.2134 -0.4072 -1.1955
 5250TIP3   OH237240   0.147   1.959  11.800 -0.2167 -0.2161 -0.6169
 5250TIP3    H137241   0.230   1.955  11.752 -0.2049 -1.1862 -0.5294
 5250TIP3    H237242   0.080   1.940  11.734 -0.2827 -0.4872 -0.4745
 5251TIP3   OH237243   5.765   4.285  11.670  0.5865  0.2055 -0.1505
 5251TIP3    H137244   5.855   4.257  11.689  0.2463  0.1121  1.3979
 5251TIP3    H237245   5.711   4.238  11.733 -0.3280  1.8997  0.4014
 5252TIP3   OH237246   5.976   4.759  16.394  0.3329  0.5712 -0.6259
 5252TIP3    H137247   5.975   4.703  16.472 -1.7829  0.5557 -0.5969
 5252TIP3    H237248   5.967   4.847  16.428 -0.6284  0.5626 -0.8327
 5253TIP3   OH237249   3.935   3.956   2.021 -0.2234  0.6058 -1.0015
 5253TIP3    H137250   3.968   4.013   2.090 -2.2051  0.5914  0.0055
 5253TIP3    H237251   4.001   3.887   2.014  0.9155  1.5846 -0.4436
 5254TIP3   OH237252   4.402   4.765  14.898  0.0705  0.1842 -0.4111
 5254TIP3    H137253   4.389   4.671  14.901 -0.2948  0.2521  0.8347
 5254TIP3    H237254   4.472   4.781  14.962 -0.0898  0.7836 -0.3817
 5255TIP3   OH237255   0.902   4.494   4.433 -0.4058 -0.3553 -0.2873
 5255TIP3    H137256   0.983   4.537   4.459 -0.5999  0.3291 -0.7811
 5255TIP3    H237257   0.902   4.412   4.482  0.1522  0.0376  0.4022
 5256TIP3   OH237258   0.126   5.411   0.066 -0.8481  0.3818  0.3758
 5256TIP3    H137259   0.166   5.346   0.124  0.8229  1.6027  0.6836
 5256TIP3    H237260   0.171   5.398  -0.018 -0.6217  0.9926  0.3951
 5257TIP3   OH237261   5.713   6.607  13.274  0.2428  0.2873  0.0811
 5257TIP3    H137262   5.731   6.568  13.188  0.2624 -1.4547  0.8352
 5257TIP3    H237263   5.796   6.602  13.320  0.0874  0.6906  0.4066
 5258TIP3   OH237264   6.812   6.452   4.091  0.2869 -0.0276  0.2279
 5258TIP3    H137265   6.780   6.505   4.018  1.3586 -2.8705 -2.5379
 5258TIP3    H237266   6.902   6.482   4.105  1.0289 -1.2286 -1.5961
 5259TIP3   OH237267   2.708   3.294  16.671  0.1351  0.1136  0.0353
 5259TIP3    H137268   2.743   3.208  16.692 -0.2329  0.1580  0.8906
 5259TIP3    H237269   2.770   3.331  16.608 -0.0088 -0.9955 -0.7781
 5260TIP3   OH237270   2.855   5.881  14.616  0.1905  0.7122 -0.6204
 5260TIP3    H137271   2.852   5.835  14.699 -0.3330  0.3488 -0.8318
 5260TIP3    H237272   2.948   5.889  14.596  0.3125 -1.5643 -1.2735
 5261TIP3   OH237273   4.373   2.210   0.807 -0.1735 -0.2138 -0.4212
 5261TIP3    H137274   4.318   2.268   0.859 -2.2527 -1.2575 -1.3567
 5261TIP3    H237275   4.399   2.263   0.732  0.2631  0.3227  0.0918
 5262TIP3   OH237276   5.240   5.867  12.583  0.0279  0.9582  0.1593
 5262TIP3    H137277   5.301   5.815  12.530  0.1335  1.5017 -0.2641
 5262TIP3    H237278   5.156   5.822  12.573  0.1600  0.7509 -0.0425
 5263TIP3   OH237279   3.033   1.338  16.180 -0.3651 -0.2118 -0.3389
 5263TIP3    H137280   3.084   1.256  16.175 -2.4579 -1.6587  0.4262
 5263TIP3    H237281   3.053   1.372  16.268  1.2365  0.6786 -0.9965
 5264TIP3   OH237282   5.114   2.539  14.434 -0.2606 -0.7160 -0.1460
 5264TIP3    H137283   5.109   2.634  14.430  0.7802 -0.6004  0.7840
 5264TIP3    H237284   5.179   2.516  14.368  2.6101 -0.3759  2.3083
 5265TIP3   OH237285   2.711   1.276   0.603 -0.0361  0.0086  0.0774
 5265TIP3    H137286   2.800   1.281   0.569  0.9283 -0.3721  2.3633
 5265TIP3    H237287   2.698   1.184   0.624 -0.6811  0.1775  0.4615
 5266TIP3   OH237288   4.016   1.693  13.143 -0.0730  0.1231 -0.2936
 5266TIP3    H137289   3.921   1.677  13.146 -0.3347  1.0362  4.6012
 5266TIP3    H237290   4.024   1.784  13.115 -0.0876 -1.0879 -5.1482
 5267TIP3   OH237291   5.930   4.466  13.550  0.0350  0.6945  0.5357
 5267TIP3    H137292   5.927   4.401  13.479 -0.3971 -0.0784  1.2530
 5267TIP3    H237293   5.838   4.484  13.570  0.1541  1.3793  0.4863
 5268TIP3   OH237294   0.166   4.822  16.418  0.7047 -0.9027 -0.0781
 5268TIP3    H137295   0.079   4.827  16.378  0.1808 -0.4487  1.0698
 5268TIP3    H237296   0.225   4.855  16.350 -0.0364 -1.0296 -0.8092
 5269TIP3   OH237297   6.053   4.379   6.766  0.2552  0.4014  0.4919
 5269TIP3    H137298   6.075   4.432   6.689 -0.7024 -0.2119 -0.2355
 5269TIP3    H237299   6.118   4.308   6.765 -0.4799 -0.2850 -0.4826
 5270TIP3   OH237300   3.200   1.517  14.419  0.3268 -0.1838 -1.2720
 5270TIP3    H137301   3.275   1.544  14.473  0.0752 -0.4091 -0.8086
 5270TIP3    H237302   3.139   1.590  14.424 -0.7540 -1.1616  0.7210
 5271TIP3   OH237303   3.744   6.802  13.621  0.5125  0.1765  0.0643
 5271TIP3    H137304   3.654   6.808  13.591  0.9799 -1.6460 -1.9588
 5271TIP3    H237305   3.758   6.709  13.638  1.5335  0.6289  2.0959
 5272TIP3   OH237306   6.694   1.872  16.561  0.3986  0.1929  0.1216
 5272TIP3    H137307   6.613   1.916  16.584 -0.0614 -0.4533 -0.2288
 5272TIP3    H237308   6.760   1.941  16.559  0.4752  0.3350  3.2814
 5273TIP3   OH237309   6.395   5.888   4.581  0.0962 -0.0188  0.1507
 5273TIP3    H137310   6.369   5.797   4.598 -2.4916  0.6239  0.1517
 5273TIP3    H237311   6.414   5.924   4.668 -1.3083  0.0461  0.4644
 5274TIP3   OH237312   3.689   0.143  15.033 -0.1034 -0.0383  0.4345
 5274TIP3    H137313   3.708   0.187  15.116  1.5109 -2.6794  1.6199
 5274TIP3    H237314   3.594   0.143  15.027 -0.3180 -0.6201  2.8580
 5275TIP3   OH237315   6.318   5.329   5.997  0.1443  0.6560  0.2882
 5275TIP3    H137316   6.380   5.303   6.065  0.0432 -0.7014 -0.1042
 5275TIP3    H237317   6.244   5.271   6.008  0.2804  0.1520 -1.1979
 5276TIP3   OH237318   6.104   2.674  12.581 -0.7546 -0.6096  0.2032
 5276TIP3    H137319   6.177   2.620  12.550  0.2083 -0.8164  2.6197
 5276TIP3    H237320   6.085   2.641  12.669 -1.0028  2.0934  1.2660
 5277TIP3   OH237321   3.657   2.367  15.395 -0.9584  0.1628  0.8161
 5277TIP3    H137322   3.666   2.306  15.322  0.5029  0.2403  0.8905
 5277TIP3    H237323   3.628   2.312  15.468  2.2972 -1.0008  1.4422
 5278TIP3   OH237324   4.263   1.755  10.908 -0.2129 -0.0276  0.2009
 5278TIP3    H137325   4.224   1.677  10.868 -0.0136 -1.1875  2.1353
 5278TIP3    H237326   4.348   1.764  10.865 -0.2124 -0.9217 -0.0179
 5279TIP3   OH237327   3.575   2.930  12.815 -0.0956  0.1221  0.7756
 5279TIP3    H137328   3.592   2.897  12.903  1.0335  1.4802  1.1084
 5279TIP3    H237329   3.489   2.895  12.792  0.0612 -1.1203  1.9811
 5280TIP3   OH237330   4.928   3.312  15.977  0.3559 -0.0516  0.1134
 5280TIP3    H137331   5.012   3.358  15.972  1.1743 -1.5476 -0.6326
 5280TIP3    H237332   4.864   3.381  15.999  1.5522  1.3718 -0.6581
 5281TIP3   OH237333   1.977   4.809   5.571 -0.2479  0.7372  0.0535
 5281TIP3    H137334   2.045   4.842   5.631 -0.5197 -2.3806  2.3143
 5281TIP3    H237335   1.948   4.887   5.524  3.9908  2.4672 -0.2126
 5282TIP3   OH237336   6.262   2.221  10.987 -0.2525 -0.2027  0.1524
 5282TIP3    H137337   6.213   2.145  10.956 -0.5248  0.2121 -0.4713
 5282TIP3    H237338   6.260   2.214  11.082 -0.7765 -0.6675  0.1113
 5283TIP3   OH237339   4.926   3.047   1.144  0.0676  0.0984  0.0533
 5283TIP3    H137340   4.889   3.040   1.232  0.1787  0.3417  0.1211
 5283TIP3    H237341   4.850   3.060   1.087 -0.1503 -1.6647 -0.0897
 5284TIP3   OH237342   4.450   0.888  12.482 -0.0027 -0.3723 -0.2825
 5284TIP3    H137343   4.439   0.873  12.576  0.8575  0.9501  0.0662
 5284TIP3    H237344   4.504   0.967  12.477 -1.9664  0.9836 -1.8852
 5285TIP3   OH237345   2.230   4.666  11.554 -0.3762 -0.5303 -0.5476
 5285TIP3    H137346   2.223   4.740  11.494 -1.1043 -1.3813 -1.5404
 5285TIP3    H237347   2.242   4.590  11.498 -0.6298 -1.2901  0.4009
 5286TIP3   OH237348   6.048   0.894   5.538 -0.1193  0.0565  0.2289
 5286TIP3    H137349   6.091   0.979   5.548 -1.0236  0.3995  1.4354
 5286TIP3    H237350   6.087   0.857   5.459 -0.4964  2.0739 -1.0012
 5287TIP3   OH237351   0.274   1.640  11.825  0.3862 -0.2863  0.3447
 5287TIP3    H137352   0.240   1.641  11.736  1.4357  1.5051 -0.0851
 5287TIP3    H237353   0.340   1.710  11.827  1.3593 -1.1713  2.1550
 5288TIP3   OH237354   1.744   5.144   2.668 -0.2436  0.5854  0.3699
 5288TIP3    H137355   1.722   5.052   2.685 -0.4285  0.1278 -1.9499
 5288TIP3    H237356   1.797   5.171   2.743  2.0589 -2.2293 -0.0798
 5289TIP3   OH237357   3.821   0.075   4.474  0.1383  1.1371 -0.5873
 5289TIP3    H137358   3.865   0.009   4.422  1.3890  1.4189  0.0724
 5289TIP3    H237359   3.884   0.147   4.480  0.4765  0.7151  2.1142
 5290TIP3   OH237360   4.421   4.346   1.442 -0.6884  0.0669  0.0948
 5290TIP3    H137361   4.471   4.265   1.452 -1.8092 -0.5004  1.4141
 5290TIP3    H237362   4.452   4.383   1.359 -1.7465 -2.8674 -1.7957
 5291TIP3   OH237363   5.037   6.368   5.152  0.0317  0.1645 -0.3711
 5291TIP3    H137364   5.047   6.339   5.242 -2.6530 -0.6840 -0.2671
 5291TIP3    H237365   5.108   6.324   5.104 -0.8805 -2.6222  0.6652
 5292TIP3   OH237366   1.854   4.201   3.626  0.1575  0.6795 -0.2322
 5292TIP3    H137367   1.857   4.280   3.572  0.2132  1.0897  0.3605
 5292TIP3    H237368   1.946   4.184   3.648  0.4187 -0.9772 -2.3722
 5293TIP3   OH237369   5.777   1.100  15.908 -0.4736 -0.0456  0.0479
 5293TIP3    H137370   5.868   1.123  15.927 -0.2609  1.3714 -2.2758
 5293TIP3    H237371   5.737   1.182  15.879 -2.0481 -0.9791 -0.5701
 5294TIP3   OH237372   0.027   1.237   4.150 -0.0605  0.3797  0.1630
 5294TIP3    H137373  -0.056   1.266   4.188  0.2509  2.8173 -0.8562
 5294TIP3    H237374   0.076   1.201   4.223 -1.3520  0.4920  1.1127
 5295TIP3   OH237375   0.173   6.193  16.015 -0.5765  0.2974  0.1682
 5295TIP3    H137376   0.174   6.227  16.105  1.3953 -1.1721  0.7883
 5295TIP3    H237377   0.197   6.101  16.025 -1.4781 -0.1844 -1.7939
 5296TIP3   OH237378   1.545   1.962   5.091  0.1802 -0.1567 -0.2469
 5296TIP3    H137379   1.511   1.961   5.002  0.1576  0.5983 -0.2508
 5296TIP3    H237380   1.481   2.013   5.140  0.8791  0.5695 -0.0789
 5297TIP3   OH237381   4.697   5.147   4.501  0.8896  0.3070 -0.0105
 5297TIP3    H137382   4.768   5.185   4.552  1.1766 -0.3715  0.1014
 5297TIP3    H237383   4.617   5.171   4.548  0.9797  1.6531 -0.5004
 5298TIP3   OH237384   6.333   6.371  11.291 -0.2998 -0.0975 -0.3864
 5298TIP3    H137385   6.346   6.277  11.308  2.9589  0.1535 -0.8007
 5298TIP3    H237386   6.347   6.379  11.196  1.4897  1.0009 -0.0718
 5299TIP3   OH237387   4.999   2.963  17.032  0.6767  0.3105 -0.0299
 5299TIP3    H137388   5.067   2.900  17.055 -0.0614 -0.9967 -1.1960
 5299TIP3    H237389   5.002   2.968  16.936 -1.9557 -1.2067 -0.3139
 5300TIP3   OH237390   3.357   6.248   1.630  0.3358 -0.3182  0.0170
 5300TIP3    H137391   3.348   6.277   1.721  0.4531 -2.5532  0.8067
 5300TIP3    H237392   3.360   6.152   1.635 -0.1822 -0.5357 -2.4025
 5301TIP3   OH237393   6.111   4.945   4.678  0.3140  0.1215  0.3662
 5301TIP3    H137394   6.145   5.034   4.669  1.1050 -0.1555  0.5121
 5301TIP3    H237395   6.189   4.891   4.688 -0.2180 -0.3501  2.3487
 5302TIP3   OH237396   3.630   6.809  11.302 -0.1397 -0.1072 -0.9292
 5302TIP3    H137397   3.616   6.902  11.284  2.1112  0.2447 -1.2622
 5302TIP3    H237398   3.718   6.806  11.340 -0.7987 -1.9504  0.5769
 5303TIP3   OH237399   5.327   0.843   6.095  0.3406 -0.2110 -0.0513
 5303TIP3    H137400   5.255   0.803   6.046 -0.9325  0.7105  0.9991
 5303TIP3    H237401   5.406   0.818   6.046 -0.7737 -0.2230 -1.9391
 5304TIP3   OH237402   0.264   5.734  14.311  0.4187  0.2594  0.0614
 5304TIP3    H137403   0.297   5.797  14.247 -3.1799  0.9365 -1.3513
 5304TIP3    H237404   0.239   5.658  14.259 -0.6227 -0.0152  0.9331
 5305TIP3   OH237405   3.167   3.496  11.222 -0.3858  0.2037  0.1734
 5305TIP3    H137406   3.211   3.505  11.306 -0.4084 -1.3840  0.3750
 5305TIP3    H237407   3.093   3.557  11.228 -0.3948  0.1020  1.3062
 5306TIP3   OH237408   1.779   4.190   2.574  0.4815  0.1497 -0.1352
 5306TIP3    H137409   1.780   4.176   2.479  0.8796 -0.3054 -0.0644
 5306TIP3    H237410   1.687   4.209   2.594  0.5836  1.4806 -0.7868
 5307TIP3   OH237411   6.530   0.612  13.901 -0.2448 -0.3673  0.1502
 5307TIP3    H137412   6.517   0.687  13.960  0.6140  0.2282 -0.3925
 5307TIP3    H237413   6.602   0.563  13.941 -1.5263 -1.5579  1.1100
 5308TIP3   OH237414   4.536   5.525   3.571  0.1346 -0.5116 -0.7182
 5308TIP3    H137415   4.598   5.589   3.606  0.5708 -2.0213  1.4992
 5308TIP3    H237416   4.584   5.480   3.501  0.0636  1.0296 -1.8065
 5309TIP3   OH237417   3.078   4.908   1.394  0.0257  0.1753  0.6434
 5309TIP3    H137418   3.087   4.816   1.419 -0.9085 -0.8928 -2.4474
 5309TIP3    H237419   3.091   4.957   1.475  2.8612 -2.5140  1.9921
 5310TIP3   OH237420   3.691   3.691  15.131  0.1592  0.2023  0.4441
 5310TIP3    H137421   3.670   3.718  15.041 -2.2919  0.0453  0.9029
 5310TIP3    H237422   3.775   3.733  15.149  1.0158 -0.2344 -2.1107
 5311TIP3   OH237423   2.633   5.156  13.908  0.1161 -0.3637 -0.2384
 5311TIP3    H137424   2.713   5.107  13.889 -1.1893 -3.1442  0.8819
 5311TIP3    H237425   2.652   5.203  13.989  0.5918 -1.0360  0.0422
 5312TIP3   OH237426   6.821   5.422  13.806 -0.4405  0.0540 -0.6070
 5312TIP3    H137427   6.912   5.396  13.795 -1.2486 -1.9799 -3.6443
 5312TIP3    H237428   6.792   5.448  13.719 -2.5897  1.3906  0.4221
 5313TIP3   OH237429   3.414   4.527   4.401  0.1147 -0.3034 -0.0769
 5313TIP3    H137430   3.450   4.464   4.338 -0.7726  1.0130 -1.9760
 5313TIP3    H237431   3.491   4.557   4.450  1.0315 -0.5089 -1.3235
 5314TIP3   OH237432   4.715   3.379   4.018  0.5440  0.4066 -0.7548
 5314TIP3    H137433   4.713   3.355   3.926  0.3347 -1.2318 -0.3513
 5314TIP3    H237434   4.681   3.469   4.021  1.4754  0.8429 -2.3570
 5315TIP3   OH237435   4.538   1.326  11.615  0.5134  0.1149  0.4945
 5315TIP3    H137436   4.571   1.410  11.585 -1.1707  0.8232  0.5085
 5315TIP3    H237437   4.577   1.314  11.701 -1.1053  2.1178  1.6007
 5316TIP3   OH237438   1.101   5.677  12.069 -0.3129  0.1460  0.2264
 5316TIP3    H137439   1.080   5.634  11.986 -0.8091 -1.6482  1.2272
 5316TIP3    H237440   1.196   5.669  12.077 -0.5384 -2.4237  1.1895
 5317TIP3   OH237441   4.729   2.299  15.977 -0.6408  0.1441 -0.3948
 5317TIP3    H137442   4.770   2.213  15.969  0.9242  0.8300 -0.2018
 5317TIP3    H237443   4.759   2.347  15.900 -0.4910  0.8923  0.1177
 5318TIP3   OH237444   6.198   4.329  13.367 -0.2839  0.2059  0.3568
 5318TIP3    H137445   6.112   4.355  13.333 -0.6755 -1.2368  0.1986
 5318TIP3    H237446   6.209   4.238  13.340  0.8122  0.0150  1.3422
 5319TIP3   OH237447   6.418   1.178  11.927  0.0142  0.8326 -0.5100
 5319TIP3    H137448   6.339   1.166  11.874 -0.0424 -1.3289 -0.0173
 5319TIP3    H237449   6.488   1.143  11.872  0.6619  2.6191 -0.8907
 5320TIP3   OH237450   0.783   4.618   1.999 -0.3765  0.0293 -0.3222
 5320TIP3    H137451   0.748   4.534   1.970  0.3546 -0.6148  0.6221
 5320TIP3    H237452   0.823   4.655   1.920  0.2565 -1.0066 -0.5040
 5321TIP3   OH237453   0.902   3.411   4.158 -0.1678  0.0413 -0.2032
 5321TIP3    H137454   0.873   3.492   4.117 -1.7208 -0.8626 -0.9794
 5321TIP3    H237455   0.859   3.341   4.108  1.4937 -1.3042  0.1365
 5322TIP3   OH237456   4.407   0.815  14.776 -0.0457  0.9352  0.4575
 5322TIP3    H137457   4.381   0.867  14.851  0.2365  0.3036  1.0046
 5322TIP3    H237458   4.397   0.874  14.701 -1.2160  1.2854  0.8711
 5323TIP3   OH237459   4.881   3.232   3.285  0.3884  0.3417  0.5183
 5323TIP3    H137460   4.860   3.248   3.193  0.1256  2.2292  0.8583
 5323TIP3    H237461   4.821   3.163   3.312  1.9520 -1.8493 -1.2524
 5324TIP3   OH237462   2.634   6.718  10.416  0.7387 -0.3841  0.1148
 5324TIP3    H137463   2.615   6.669  10.336 -1.3025  0.6757 -0.1049
 5324TIP3    H237464   2.565   6.693  10.477 -2.9462  4.7688 -1.2411
 5325TIP3   OH237465   0.908   3.814  11.008  0.4470 -0.4839 -0.2154
 5325TIP3    H137466   0.992   3.803  11.052  0.8332 -3.4037 -1.4443
 5325TIP3    H237467   0.895   3.732  10.960 -1.3706  1.2571 -3.0296
 5326TIP3   OH237468   6.694   1.608   2.834  0.3701  0.1019  0.2067
 5326TIP3    H137469   6.655   1.653   2.759  0.0538  0.3576  0.5208
 5326TIP3    H237470   6.780   1.649   2.846  0.2964  0.2657  0.1700
 5327TIP3   OH237471   5.765   0.512   3.080 -0.3060 -0.0884 -0.9632
 5327TIP3    H137472   5.857   0.534   3.068  0.1430 -1.2224  0.1868
 5327TIP3    H237473   5.743   0.457   3.004  0.0598 -0.1156 -1.0492
 5328TIP3   OH237474   0.723   2.843  17.035 -0.6369  0.2681  0.3770
 5328TIP3    H137475   0.724   2.908  17.106 -2.4016 -0.1140  0.8197
 5328TIP3    H237476   0.772   2.769  17.070 -0.2233  0.6463  0.6118
 5329TIP3   OH237477   6.537   2.067  10.510  0.9109  0.2229 -0.8027
 5329TIP3    H137478   6.623   2.088  10.474  1.2355  0.8988  0.3452
 5329TIP3    H237479   6.543   2.087  10.603 -0.3035 -0.3108 -0.5822
 5330TIP3   OH237480   6.431   2.590  15.679  0.1592  0.5279 -0.4839
 5330TIP3    H137481   6.410   2.513  15.626 -0.7964  0.8144 -0.5425
 5330TIP3    H237482   6.365   2.655  15.655  1.2743  1.5678 -0.8216
 5331TIP3   OH237483   4.832   4.793   4.268 -0.0319  0.4542 -0.0289
 5331TIP3    H137484   4.841   4.820   4.177 -0.2768  0.4739 -0.0471
 5331TIP3    H237485   4.738   4.779   4.280  0.1746 -1.2800 -0.2701
 5332TIP3   OH237486   5.749   5.374   4.633 -0.0682  0.6288  0.5928
 5332TIP3    H137487   5.736   5.465   4.607 -1.7655  0.1914 -0.2535
 5332TIP3    H237488   5.687   5.361   4.704 -0.8272 -0.2125 -0.1983
 5333TIP3   OH237489   3.937   6.015  13.195 -0.0241 -0.1106 -0.8420
 5333TIP3    H137490   3.877   6.033  13.268 -0.8671  1.2213 -1.8271
 5333TIP3    H237491   3.969   5.926  13.212 -1.1057 -0.2719  0.5197
 5334TIP3   OH237492   3.666   0.214   6.241 -0.0431 -0.5151  0.5562
 5334TIP3    H137493   3.655   0.138   6.298  0.0560 -0.2112  0.9885
 5334TIP3    H237494   3.576   0.241   6.220 -0.0760 -0.8650  0.2460
 5335TIP3   OH237495   3.286   2.908   3.243  0.1284  0.2526 -0.0111
 5335TIP3    H137496   3.377   2.937   3.249 -0.2837  1.7644 -0.7123
 5335TIP3    H237497   3.259   2.895   3.334  0.7100  0.8776  0.2559
 5336TIP3   OH237498   0.818   1.888   0.786 -0.1213  0.3997 -0.0773
 5336TIP3    H137499   0.851   1.951   0.849  1.4331 -0.2743 -0.1826
 5336TIP3    H237500   0.767   1.941   0.724 -0.6161  1.2293  1.0026
 5337TIP3   OH237501   2.176   0.425   3.039  0.4751  0.3281  0.4178
 5337TIP3    H137502   2.270   0.437   3.041  0.4797  0.8694 -1.3029
 5337TIP3    H237503   2.158   0.390   2.952 -1.0958  2.1662 -0.0630
 5338TIP3   OH237504   3.502   0.693  13.959  0.5363 -0.0237  0.2533
 5338TIP3    H137505   3.495   0.719  14.051 -1.2252  0.1325  0.1016
 5338TIP3    H237506   3.446   0.616  13.951  0.7216 -0.0756 -0.6699
 5339TIP3   OH237507   1.065   4.529  15.622 -0.0622  0.0011 -0.2158
 5339TIP3    H137508   1.013   4.512  15.700  1.1206 -0.2705  0.5502
 5339TIP3    H237509   1.013   4.495  15.549 -0.3375 -1.5255  0.6662
 5340TIP3   OH237510   1.861   3.705  16.795 -0.3005 -0.5521 -0.4116
 5340TIP3    H137511   1.787   3.663  16.839 -2.4197  2.2387 -1.0924
 5340TIP3    H237512   1.844   3.799  16.803  1.2883  0.1535 -3.6993
 5341TIP3   OH237513   0.708   5.271   3.752  0.0968  0.4307 -0.3503
 5341TIP3    H137514   0.673   5.337   3.813  1.3781  1.3127 -0.5393
 5341TIP3    H237515   0.752   5.323   3.684 -0.0496 -0.5899 -1.2440
 5342TIP3   OH237516   6.466   4.237  13.581 -0.1473  0.8527 -0.6987
 5342TIP3    H137517   6.439   4.210  13.668 -3.2980 -1.8581 -2.2556
 5342TIP3    H237518   6.441   4.330  13.575  1.0077  1.3578  1.4807
 5343TIP3   OH237519   3.592   0.799  14.482 -0.5905 -0.3521  0.0139
 5343TIP3    H137520   3.559   0.710  14.470 -0.8108  0.0504 -3.2806
 5343TIP3    H237521   3.517   0.849  14.513 -1.3590 -0.7290 -1.1786
 5344TIP3   OH237522   0.340   0.925  15.346 -0.4120  0.3271  0.1310
 5344TIP3    H137523   0.252   0.905  15.314 -0.2814 -1.6329  0.8570
 5344TIP3    H237524   0.382   0.972  15.274 -1.3153 -0.7551 -1.1534
 5345TIP3   OH237525   1.171   0.247  11.919 -0.2433  0.0939  0.0066
 5345TIP3    H137526   1.143   0.336  11.897 -0.3925 -0.0592 -0.4299
 5345TIP3    H237527   1.263   0.256  11.944 -0.5682  0.5491  1.0999
 5346TIP3   OH237528   0.939   4.377   2.148  0.9653 -0.3108  0.4244
 5346TIP3    H137529   0.933   4.319   2.072  2.2105  0.8850 -0.6471
 5346TIP3    H237530   0.922   4.464   2.113  0.9225  0.1974  1.6591
 5347TIP3   OH237531   0.845   2.380  16.705 -0.2744 -0.6266 -0.3627
 5347TIP3    H137532   0.765   2.366  16.755 -0.2168  1.0234  0.2417
 5347TIP3    H237533   0.915   2.343  16.759 -0.2442  0.9185  0.6950
 5348TIP3   OH237534   5.680   4.404   1.859  0.3478 -0.1903 -0.4763
 5348TIP3    H137535   5.751   4.403   1.794  0.7616  0.5231 -0.0524
 5348TIP3    H237536   5.623   4.332   1.834  1.1704 -0.7083 -0.8933
 5349TIP3   OH237537   5.071   2.697  14.167 -0.1413 -0.4647 -0.0269
 5349TIP3    H137538   5.071   2.649  14.084 -0.2352 -1.5038  0.5559
 5349TIP3    H237539   5.051   2.630  14.233 -1.4235  0.5981  0.6939
 5350TIP3   OH237540   5.262   1.751   3.658 -0.0616 -0.2092 -0.3446
 5350TIP3    H137541   5.318   1.711   3.724 -0.6323 -0.9396 -0.2834
 5350TIP3    H237542   5.201   1.806   3.709  0.0130 -0.1334 -0.3361
 5351TIP3   OH237543   4.933   3.230   1.760  0.0243 -0.0380  0.6899
 5351TIP3    H137544   4.876   3.155   1.778  0.5455 -0.4829  0.5167
 5351TIP3    H237545   4.930   3.240   1.665 -0.7968  0.7751  0.7825
 5352TIP3   OH237546   5.729   4.009  15.984  0.7092 -0.5572 -0.0628
 5352TIP3    H137547   5.710   4.085  16.040  0.8684 -1.6146  1.5008
 5352TIP3    H237548   5.750   4.047  15.898  0.1128  1.1149  0.4857
 5353TIP3   OH237549   2.303   2.675  14.904  0.0319  0.4974 -0.1687
 5353TIP3    H137550   2.239   2.665  14.833 -1.3098  0.6326  0.9737
 5353TIP3    H237551   2.333   2.587  14.922  1.4353  0.5908 -1.7906
 5354TIP3   OH237552   3.997   6.193   5.368  0.5550  0.1048  0.3811
 5354TIP3    H137553   4.061   6.204   5.297 -0.3582 -0.6586 -0.6045
 5354TIP3    H237554   4.049   6.178   5.446  1.5927  0.2321 -0.2751
 5355TIP3   OH237555   4.515   5.280  12.240  0.0177 -0.1941  0.0558
 5355TIP3    H137556   4.501   5.186  12.248  0.0633 -0.1716  0.4150
 5355TIP3    H237557   4.527   5.310  12.330  1.0387 -0.0127 -0.1280
 5356TIP3   OH237558   1.189   1.841   2.690 -0.2913  0.4654  0.0965
 5356TIP3    H137559   1.218   1.924   2.729  0.0620  1.0933 -1.4430
 5356TIP3    H237560   1.265   1.783   2.700  0.2909  1.0425 -0.8429
 5357TIP3   OH237561   3.194   3.900  15.802 -0.1284  0.0205 -0.5265
 5357TIP3    H137562   3.199   3.979  15.749  0.4119  0.6406  0.4178
 5357TIP3    H237563   3.236   3.923  15.885 -0.0353 -1.2279 -0.1947
 5358TIP3   OH237564   6.004   4.738   6.224 -0.5124  0.1967  0.0580
 5358TIP3    H137565   6.024   4.650   6.192 -0.9381  0.3209 -0.5559
 5358TIP3    H237566   5.959   4.780   6.152 -1.0960  0.6276  0.6631
 5359TIP3   OH237567   6.309   4.229   4.694 -0.1979 -0.2142  0.2024
 5359TIP3    H137568   6.348   4.159   4.747 -0.9224  0.4476  1.6687
 5359TIP3    H237569   6.312   4.196   4.605  0.1553 -1.7955  0.7663
 5360TIP3   OH237570   2.175   5.051   0.263 -0.0046  0.5001  0.6965
 5360TIP3    H137571   2.137   4.992   0.197  1.5140  0.3577 -0.0752
 5360TIP3    H237572   2.257   5.081   0.225 -0.4596  2.7055  1.3130
 5361TIP3   OH237573   6.244   5.648  13.820  0.1516  0.6538  0.0831
 5361TIP3    H137574   6.178   5.704  13.780  1.4689  1.2708 -1.3555
 5361TIP3    H237575   6.220   5.644  13.912 -2.1483  0.4310 -0.4683
 5362TIP3   OH237576   2.499   6.566   6.330  0.8731  0.6765  0.3418
 5362TIP3    H137577   2.570   6.587   6.390  0.5471  0.7203  0.7117
 5362TIP3    H237578   2.531   6.491   6.280  1.4906  1.1786 -0.0367
 5363TIP3   OH237579   3.468   4.603   6.041 -0.1974  0.1029  0.0313
 5363TIP3    H137580   3.396   4.587   5.981 -2.2162  2.0166  1.7709
 5363TIP3    H237581   3.451   4.545   6.115  0.7872 -0.3370 -0.0705
 5364TIP3   OH237582   5.258   0.482   5.910  0.8160 -0.0927  0.4298
 5364TIP3    H137583   5.285   0.574   5.907  0.5350 -0.0127  0.3026
 5364TIP3    H237584   5.335   0.433   5.882  0.6074  0.1739 -0.6483
 5365TIP3   OH237585   6.122   5.693   3.442  0.7956 -0.4390  0.7465
 5365TIP3    H137586   6.177   5.678   3.364  1.4674  0.4756  1.0312
 5365TIP3    H237587   6.115   5.607   3.483  3.9469 -0.2658  1.9431
 5366TIP3   OH237588   4.981   1.713  16.163  0.5224  0.0737  0.1867
 5366TIP3    H137589   4.900   1.764  16.156  1.0779  0.7754 -1.9919
 5366TIP3    H237590   4.960   1.630  16.119  0.8012 -0.0025  0.1998
 5367TIP3   OH237591   0.021   3.173   2.586  0.6132 -0.4013 -0.2556
 5367TIP3    H137592   0.095   3.233   2.594  2.2376 -2.1026 -1.6324
 5367TIP3    H237593   0.061   3.087   2.572 -1.6311 -1.4909 -0.4354
 5368TIP3   OH237594   5.507   6.581   5.478  0.0960  0.4501  0.1182
 5368TIP3    H137595   5.494   6.515   5.546  2.2150  0.5179  0.6331
 5368TIP3    H237596   5.548   6.655   5.522 -2.2022  2.2037 -0.4530
 5369TIP3   OH237597   6.576   3.437   2.524  0.3874 -0.5101  0.6222
 5369TIP3    H137598   6.494   3.484   2.536  1.3950  1.8454 -0.8493
 5369TIP3    H237599   6.632   3.466   2.596  0.5538 -0.4925  0.4906
 5370TIP3   OH237600   6.083   1.933   4.205  0.3026  0.4350  0.3604
 5370TIP3    H137601   6.010   1.909   4.147 -0.7890  0.2653  1.7326
 5370TIP3    H237602   6.118   2.014   4.168 -1.5245  1.3062  0.4102
 5371TIP3   OH237603   1.226   4.697  15.441  0.0371  0.5270  0.1114
 5371TIP3    H137604   1.151   4.655  15.485 -1.6070 -0.8294 -3.5278
 5371TIP3    H237605   1.288   4.625  15.426  0.6328  0.9864  0.3420
 5372TIP3   OH237606   5.692   2.111  11.510 -0.0901 -0.0686 -0.1583
 5372TIP3    H137607   5.697   2.184  11.572 -2.4070 -1.4719  1.8867
 5372TIP3    H237608   5.615   2.131  11.457  0.6315  0.0827 -1.1547
 5373TIP3   OH237609   1.054   5.719  10.799 -0.3507  0.3033  0.1967
 5373TIP3    H137610   0.989   5.658  10.834 -1.3300  0.2014 -1.6623
 5373TIP3    H237611   1.135   5.668  10.794 -0.6868 -0.2589  0.4444
 5374TIP3   OH237612   0.370   1.893  16.109  0.6251 -0.4672  0.3249
 5374TIP3    H137613   0.451   1.903  16.059 -0.5708  2.8039 -1.2201
 5374TIP3    H237614   0.312   1.844  16.051  0.6592 -0.5343  0.3479
 5375TIP3   OH237615   1.281   5.612  13.420 -0.1721 -0.4957 -0.0095
 5375TIP3    H137616   1.204   5.591  13.472  1.0563 -1.2295  1.5785
 5375TIP3    H237617   1.292   5.537  13.362 -0.0746 -0.8672  0.4843
 5376TIP3   OH237618   1.383   4.466  15.149  0.6803  0.3584  0.0687
 5376TIP3    H137619   1.369   4.522  15.072  0.3095  1.0317  0.6080
 5376TIP3    H237620   1.338   4.384  15.127 -1.4581  1.3525  0.4567
 5377TIP3   OH237621   2.254   6.727   2.323 -0.4818 -0.0986 -0.5450
 5377TIP3    H137622   2.328   6.698   2.270  0.0746  2.1729 -1.1278
 5377TIP3    H237623   2.177   6.699   2.274  0.0066 -0.1270 -1.3039
 5378TIP3   OH237624   2.136   2.213   2.403  0.2140  0.2409 -0.0039
 5378TIP3    H137625   2.153   2.119   2.401 -2.1712 -0.2550  0.2526
 5378TIP3    H237626   2.167   2.245   2.318 -0.5763 -1.1243 -0.8532
 5379TIP3   OH237627   6.047   0.181  15.748 -0.3656 -0.0643 -0.5946
 5379TIP3    H137628   6.081   0.252  15.802 -0.7423  2.6404 -3.6327
 5379TIP3    H237629   6.076   0.101  15.792  1.5011  1.9518  2.1263
 5380TIP3   OH237630   3.799   5.584  16.059  0.1604 -0.2196 -0.1082
 5380TIP3    H137631   3.743   5.538  15.997  1.0945  0.4199 -1.4773
 5380TIP3    H237632   3.774   5.676  16.052 -0.5846 -0.2673  1.4225
 5381TIP3   OH237633   1.555   0.026  16.094 -0.0395  0.0368  0.0208
 5381TIP3    H137634   1.471   0.029  16.139 -0.3045  0.7009 -0.4951
 5381TIP3    H237635   1.609   0.090  16.139 -0.5042  1.1538 -0.9631
 5382TIP3   OH237636   5.135   3.470   3.658 -0.3680  0.2212  0.3638
 5382TIP3    H137637   5.127   3.547   3.713  1.3362  1.1898 -0.6725
 5382TIP3    H237638   5.078   3.487   3.583 -0.1886  0.3581  0.2590
 5383TIP3   OH237639   4.306   3.894   3.155  0.6635 -0.1682 -0.5635
 5383TIP3    H137640   4.247   3.819   3.154  0.2305  0.1381  0.4916
 5383TIP3    H237641   4.380   3.868   3.100 -0.1450 -0.8063 -1.3644
 5384TIP3   OH237642   1.503   4.742  16.556  0.2936  0.1552 -0.7967
 5384TIP3    H137643   1.543   4.737  16.470 -1.2729  3.2483 -1.8555
 5384TIP3    H237644   1.409   4.745  16.539 -0.0934  0.2691  1.0745
 5385TIP3   OH237645   0.218   2.215  10.711 -0.1733  0.2928  0.2010
 5385TIP3    H137646   0.188   2.296  10.670 -0.3380  0.0852 -0.0935
 5385TIP3    H237647   0.202   2.147  10.645 -3.9473 -0.6986  1.8783
 5386TIP3   OH237648   5.595   5.986   0.241  0.0184 -0.2195  0.5002
 5386TIP3    H137649   5.620   5.941   0.322 -1.6421  1.5663  2.0933
 5386TIP3    H237650   5.629   6.075   0.251 -1.3946  0.4255 -0.1040
 5387TIP3   OH237651   1.802   3.623   2.978  0.3185 -0.1120  0.2477
 5387TIP3    H137652   1.772   3.663   2.897 -1.5408 -0.2228  0.8276
 5387TIP3    H237653   1.813   3.531   2.957  0.3298 -0.0515 -0.0122
 5388TIP3   OH237654   0.366   3.136  13.307 -0.5927 -0.4920 -0.2154
 5388TIP3    H137655   0.348   3.227  13.327 -2.1230 -0.5919 -1.0255
 5388TIP3    H237656   0.281   3.098  13.285 -0.3512 -2.6162  1.9899
 5389TIP3   OH237657   3.788   2.295  14.727  0.0672  0.5352  0.1450
 5389TIP3    H137658   3.768   2.247  14.808  1.4457 -1.5881 -0.7136
 5389TIP3    H237659   3.776   2.231  14.657  1.9133  1.4434 -1.0737
 5390TIP3   OH237660   6.055   4.866  14.096  0.6330 -1.1160  0.0186
 5390TIP3    H137661   5.961   4.885  14.090  0.1902 -2.7902  0.9365
 5390TIP3    H237662   6.061   4.800  14.166  2.6122 -0.2803  0.7025
 5391TIP3   OH237663   0.179   0.027  14.249  0.0419 -0.1204  0.4385
 5391TIP3    H137664   0.122   0.037  14.325  0.1221 -0.0503  0.4893
 5391TIP3    H237665   0.224   0.111  14.241  0.4700 -0.3229  0.6672
 5392TIP3   OH237666   0.318   6.390   5.807 -0.2654  0.2126  0.0751
 5392TIP3    H137667   0.373   6.452   5.854 -0.3781  0.4517 -0.1021
 5392TIP3    H237668   0.357   6.384   5.720 -1.1019  1.1771 -0.3885
 5393TIP3   OH237669   0.764   3.563   3.996  0.0017  0.2994  0.1591
 5393TIP3    H137670   0.712   3.643   4.009 -1.2648 -0.7332  1.9535
 5393TIP3    H237671   0.702   3.500   3.960  0.5013 -0.4296  0.5635
 5394TIP3   OH237672   2.299   5.807   1.958  0.2961 -0.5781 -0.4526
 5394TIP3    H137673   2.311   5.900   1.938  1.4684 -1.0166 -2.0945
 5394TIP3    H237674   2.387   5.775   1.975 -0.1008 -1.3876  0.1235
 5395TIP3   OH237675   5.181   6.524   6.255  0.8448  0.5781 -0.1470
 5395TIP3    H137676   5.164   6.591   6.188 -1.0159  1.6986  1.3408
 5395TIP3    H237677   5.116   6.542   6.323  2.6447 -0.5237  1.9735
 5396TIP3   OH237678   5.270   2.207   1.093  0.1598  0.0094  0.5691
 5396TIP3    H137679   5.333   2.152   1.046 -0.2920  0.3185 -0.4359
 5396TIP3    H237680   5.298   2.204   1.184 -0.8966 -3.3613  0.8975
 5397TIP3   OH237681   3.676   2.106  14.903  0.4465  0.2497 -0.2636
 5397TIP3    H137682   3.631   2.029  14.868 -0.3408  0.5086  0.1531
 5397TIP3    H237683   3.615   2.142  14.967  1.3465  0.4911  0.4737
 5398TIP3   OH237684   5.853   6.350  16.495 -0.1151 -0.0890 -0.3743
 5398TIP3    H137685   5.839   6.391  16.410 -0.4386 -0.9851 -0.7738
 5398TIP3    H237686   5.789   6.391  16.553  0.1794  0.6021 -0.5363
 5399TIP3   OH237687   6.462   2.845   1.866  0.0778 -0.1104  0.6728
 5399TIP3    H137688   6.371   2.821   1.851  0.0258 -0.4185  1.4136
 5399TIP3    H237689   6.461   2.896   1.947  0.6268 -0.6393  1.0261
 5400TIP3   OH237690   4.130   4.210  16.518 -0.4247  0.2999  0.3159
 5400TIP3    H137691   4.159   4.301  16.515  1.4245 -0.2459  0.4691
 5400TIP3    H237692   4.163   4.171  16.436 -1.2587 -0.2231  0.2134
 5401TIP3   OH237693   5.814   5.274   1.919 -0.1698 -0.2857 -0.6128
 5401TIP3    H137694   5.726   5.300   1.893 -0.3697 -1.1154 -0.8115
 5401TIP3    H237695   5.866   5.354   1.914 -1.0099  0.3082 -0.0399
 5402TIP3   OH237696   1.993   5.362   4.270 -0.3668 -0.0790  0.0692
 5402TIP3    H137697   1.950   5.315   4.341 -1.1007  2.0041  1.0765
 5402TIP3    H237698   1.934   5.434   4.250  1.0364  0.8347 -0.9426
 5403TIP3   OH237699   5.610   1.617   5.608 -0.0538 -0.3778 -0.6799
 5403TIP3    H137700   5.681   1.648   5.552  0.7265 -2.2460 -0.8207
 5403TIP3    H237701   5.589   1.530   5.573 -0.5508 -0.9813  1.0309
 5404TIP3   OH237702   1.164   5.397   3.948  0.1507 -0.2210 -0.0931
 5404TIP3    H137703   1.230   5.381   3.880  2.1438  0.7272  1.5294
 5404TIP3    H237704   1.125   5.481   3.924 -0.8694 -1.0015 -1.3140
 5405TIP3   OH237705   3.060   2.311   2.906 -0.0771 -0.3579  0.2759
 5405TIP3    H137706   2.969   2.279   2.906 -0.7714  1.5024  0.7390
 5405TIP3    H237707   3.072   2.348   2.818  0.6532 -1.5973 -0.1817
 5406TIP3   OH237708   0.402   4.999  14.553 -0.1311  0.2279  0.4061
 5406TIP3    H137709   0.331   5.007  14.490 -0.4636  1.0314  0.8532
 5406TIP3    H237710   0.411   5.087  14.590  0.0189 -0.2262  1.5072
 5407TIP3   OH237711   4.472   1.113  10.461 -0.6819  0.1465 -0.3091
 5407TIP3    H137712   4.567   1.106  10.460 -0.3740  2.9220 -1.0668
 5407TIP3    H237713   4.447   1.090  10.550  1.2872  3.7453  1.4048
 5408TIP3   OH237714   0.572   1.648  14.450 -0.2341 -0.3720  0.0497
 5408TIP3    H137715   0.567   1.560  14.414  2.3722 -0.9041  0.7351
 5408TIP3    H237716   0.665   1.661  14.469 -0.8405  1.6170  2.2005
 5409TIP3   OH237717   4.565   2.757  16.366  0.2587 -0.0693 -0.0818
 5409TIP3    H137718   4.561   2.768  16.461  3.0387  1.5370 -0.0336
 5409TIP3    H237719   4.640   2.810  16.339  0.0233 -1.0756 -3.1117
 5410TIP3   OH237720   5.731   4.404   4.202 -0.0522 -0.1728 -0.0574
 5410TIP3    H137721   5.666   4.334   4.212 -0.2555  0.0191 -0.0133
 5410TIP3    H237722   5.680   4.478   4.166  0.1198  0.0157  0.0888
 5411TIP3   OH237723   2.481   3.538  15.401 -0.5036 -0.0384  0.2209
 5411TIP3    H137724   2.406   3.483  15.425 -0.5113  0.3033  0.9933
 5411TIP3    H237725   2.530   3.548  15.482 -0.0782  0.4565 -0.0935
 5412TIP3   OH237726   4.619   1.485   2.161 -0.0826 -0.3966  0.0461
 5412TIP3    H137727   4.619   1.561   2.220  1.2143 -1.9810  2.2210
 5412TIP3    H237728   4.665   1.417   2.209 -1.1909 -2.6131 -1.8260
 5413TIP3   OH237729   2.829   2.934  13.707 -0.3818  0.1284 -0.7059
 5413TIP3    H137730   2.753   2.883  13.678 -1.3537  0.8098  0.5405
 5413TIP3    H237731   2.831   3.010  13.649  0.9889 -1.1739 -2.4822
 5414TIP3   OH237732   3.928   5.163   1.146  0.2891 -0.5114  0.2424
 5414TIP3    H137733   3.975   5.244   1.131  0.2714  0.2678  3.6645
 5414TIP3    H237734   3.958   5.133   1.231 -1.7170 -2.6650  0.2935
 5415TIP3   OH237735   2.853   6.637  10.154  0.4640 -0.1628  0.0339
 5415TIP3    H137736   2.881   6.553  10.191  1.6933 -1.2425 -3.0379
 5415TIP3    H237737   2.758   6.629  10.144  0.6360 -1.4817 -0.7738
 5416TIP3   OH237738   3.158   1.320   3.125  0.0777  0.5968 -0.0290
 5416TIP3    H137739   3.132   1.248   3.183 -0.2250  1.2955  0.7180
 5416TIP3    H237740   3.181   1.391   3.185  1.6984  0.6899 -0.7136
 5417TIP3   OH237741   0.422   3.429   1.271  0.0810  0.5399  0.0604
 5417TIP3    H137742   0.479   3.487   1.322 -0.1792  0.4645  0.4396
 5417TIP3    H237743   0.476   3.402   1.196 -0.0330  1.8897 -0.5475
 5418TIP3   OH237744   4.441   3.055  17.071  0.1608  0.0393  0.3484
 5418TIP3    H137745   4.428   2.968  17.032 -1.1389  1.1455 -1.8927
 5418TIP3    H237746   4.353   3.085  17.092  0.6948  0.3094  2.4828
 5419TIP3   OH237747   5.293   0.097  16.265  0.4060  0.0143  0.5910
 5419TIP3    H137748   5.347   0.168  16.228 -0.6816  0.3737 -0.3440
 5419TIP3    H237749   5.204   0.131  16.262 -0.0866 -1.2678  0.4777
 5420TIP3   OH237750   2.595   1.320   1.395  0.4404 -0.0289 -0.0403
 5420TIP3    H137751   2.559   1.305   1.483 -1.5797  0.5502 -0.7369
 5420TIP3    H237752   2.525   1.295   1.335  1.2934  0.8977 -1.4856
 5421TIP3   OH237753   6.357   4.623   2.622 -0.3022  0.2290  0.1117
 5421TIP3    H137754   6.303   4.555   2.580 -0.3564 -0.1511  0.7820
 5421TIP3    H237755   6.431   4.575   2.659 -0.1999  0.5757  0.3566
 5422TIP3   OH237756   6.369   1.287  10.405 -0.3942 -0.0406  0.1555
 5422TIP3    H137757   6.448   1.340  10.396 -0.2688 -0.1792  0.4169
 5422TIP3    H237758   6.357   1.245  10.320 -0.9912  1.0940 -0.3303
 5423TIP3   OH237759   2.342   6.178  13.932 -0.7351 -0.3068  0.4565
 5423TIP3    H137760   2.306   6.171  14.021 -1.5775  0.7623  0.2143
 5423TIP3    H237761   2.436   6.167  13.944 -0.9271 -1.2175  1.3457
 5424TIP3   OH237762   0.860   5.465   4.430  0.4717  0.1772  0.0941
 5424TIP3    H137763   0.768   5.489   4.439  0.3911 -0.2840  0.5410
 5424TIP3    H237764   0.883   5.492   4.341 -0.7178 -1.6945 -0.8394
 5425TIP3   OH237765   3.301   1.578   2.263 -0.6723  0.3463  0.4836
 5425TIP3    H137766   3.289   1.607   2.173  0.1288  1.4363  0.6996
 5425TIP3    H237767   3.283   1.656   2.316 -2.4078 -0.5992  1.3664
 5426TIP3   OH237768   3.079   6.051  16.961  0.0726 -0.1525 -0.3337
 5426TIP3    H137769   3.053   6.138  16.931 -2.4350 -1.2697 -1.7082
 5426TIP3    H237770   3.161   6.033  16.916  0.0397  1.0633 -0.9187
 5427TIP3   OH237771   0.211   5.000   1.371 -0.4823  0.0303 -0.3497
 5427TIP3    H137772   0.252   4.954   1.297 -1.9658 -0.5219 -0.8744
 5427TIP3    H237773   0.282   5.050   1.411  0.6241 -0.6668 -1.3785
 5428TIP3   OH237774   6.629   1.050  16.853 -0.0375 -0.6697  0.2152
 5428TIP3    H137775   6.574   0.993  16.800 -2.1723  3.1060 -2.1122
 5428TIP3    H237776   6.575   1.073  16.929 -1.6262  2.3485 -1.6359
 5429TIP3   OH237777   4.246   1.689   0.162 -0.5618  0.0399  0.1262
 5429TIP3    H137778   4.255   1.687   0.257  0.0113  1.4162  0.1236
 5429TIP3    H237779   4.328   1.726   0.131 -1.4103  1.2520 -0.7656
 5430TIP3   OH237780   0.798   6.396  14.376  0.0965  0.1403  0.6416
 5430TIP3    H137781   0.852   6.475  14.370  0.3896 -0.1499 -2.6115
 5430TIP3    H237782   0.708   6.428  14.370 -0.2918  0.5730  5.4587
 5431TIP3   OH237783   6.141   5.158   2.112  0.0078  0.0888 -0.4839
 5431TIP3    H137784   6.135   5.128   2.021 -0.9543  0.5455 -0.5889
 5431TIP3    H237785   6.226   5.126   2.143  1.0330  1.2232 -2.0101
 5432TIP3   OH237786   5.834   3.738   3.660  0.4539 -0.1219 -0.8392
 5432TIP3    H137787   5.822   3.643   3.649  0.1093  0.1143 -2.9510
 5432TIP3    H237788   5.839   3.751   3.755 -2.1116 -1.9507 -0.3534
 5433TIP3   OH237789   3.085   2.817   5.049  0.0337 -0.6070  0.5295
 5433TIP3    H137790   3.036   2.735   5.042  0.6814 -0.9296 -0.3436
 5433TIP3    H237791   3.021   2.880   5.082 -0.6215 -1.3297  0.6632
 5434TIP3   OH237792   1.018   0.856   5.436  0.0957  0.6553  0.1752
 5434TIP3    H137793   1.044   0.764   5.442  2.2020  1.2117  0.2922
 5434TIP3    H237794   0.930   0.854   5.398  0.8829 -1.3361 -1.7322
 5435TIP3   OH237795   4.339   5.591  12.468  0.4630  0.2817  0.9958
 5435TIP3    H137796   4.254   5.557  12.496  0.1451  1.0572  0.9976
 5435TIP3    H237797   4.403   5.540  12.518  0.0754 -1.2949 -0.0471
 5436TIP3   OH237798   1.840   4.444  11.093 -0.4536 -0.4416 -0.0249
 5436TIP3    H137799   1.769   4.404  11.142  0.1588 -3.0574 -1.1134
 5436TIP3    H237800   1.838   4.401  11.007  1.0788  1.0158 -0.8651
 5437TIP3   OH237801   6.165   0.935   2.524  0.1387 -0.7463 -0.7850
 5437TIP3    H137802   6.221   0.860   2.544  0.2248 -0.8835 -1.5367
 5437TIP3    H237803   6.078   0.897   2.513  0.2415 -0.7817 -1.4944
 5438TIP3   OH237804   1.858   6.538  16.855  0.5388  0.1517 -0.0185
 5438TIP3    H137805   1.798   6.611  16.866  1.1682  0.8544 -1.0639
 5438TIP3    H237806   1.821   6.487  16.783  0.9383  0.3339 -0.3557
 5439TIP3   OH237807   1.556   0.085  14.914 -0.0998  0.5589 -0.4263
 5439TIP3    H137808   1.511   0.004  14.936  1.2924 -0.3312 -0.7912
 5439TIP3    H237809   1.498   0.128  14.852 -1.2863  0.3045  0.4727
 5440TIP3   OH237810   3.050   1.457   6.561 -0.3664  0.0658 -0.6470
 5440TIP3    H137811   2.975   1.397   6.566 -0.9016  0.6670 -1.2097
 5440TIP3    H237812   3.011   1.542   6.540  0.1388  1.1059  2.1258
 5441TIP3   OH237813   6.334   4.687  14.536  0.1969  0.4364  0.0875
 5441TIP3    H137814   6.377   4.693  14.451 -1.1824  0.1210 -0.6599
 5441TIP3    H237815   6.405   4.691  14.600  1.1535  2.1512 -1.0177
 5442TIP3   OH237816   6.483   5.890   4.134  0.4266 -0.1390 -0.2476
 5442TIP3    H137817   6.573   5.902   4.104  1.2106 -2.3012  0.9728
 5442TIP3    H237818   6.434   5.961   4.093  2.7349  1.3205 -0.6642
 5443TIP3   OH237819   6.536   4.704   4.247 -0.5014  0.2606 -0.4285
 5443TIP3    H137820   6.543   4.799   4.238 -0.2702  0.1296 -1.7429
 5443TIP3    H237821   6.604   4.681   4.310  0.3510  0.8122 -1.1263
 5444TIP3   OH237822   0.937   1.883  15.024 -0.2258 -0.3544 -0.0480
 5444TIP3    H137823   0.984   1.874  14.941  0.8506 -0.9615  0.6044
 5444TIP3    H237824   1.005   1.902  15.088 -0.8383 -1.4638  0.9622
 5445TIP3   OH237825   4.907   3.774   2.973 -0.3813 -0.6749 -0.2902
 5445TIP3    H137826   4.901   3.703   2.910 -1.5806  0.6500 -1.7408
 5445TIP3    H237827   4.942   3.848   2.923  3.3975 -0.8320  1.7659
 5446TIP3   OH237828   0.516   5.068  14.148  0.5966 -0.0985  0.2999
 5446TIP3    H137829   0.513   4.988  14.201 -2.9219 -1.6821 -1.9095
 5446TIP3    H237830   0.433   5.112  14.167 -0.0347  0.1070 -2.5186
 5447TIP3   OH237831   5.552   0.256  12.148 -0.4311 -0.0187 -0.3975
 5447TIP3    H137832   5.534   0.163  12.161 -0.6616  0.0235 -0.4087
 5447TIP3    H237833   5.485   0.301  12.201  0.3376  0.1343  0.4737
 5448TIP3   OH237834   5.203   0.452   2.067  0.5524  0.6117 -1.2658
 5448TIP3    H137835   5.117   0.438   2.028  0.0526  1.2914 -0.4555
 5448TIP3    H237836   5.242   0.365   2.072 -1.1120 -0.1108  0.5952
 5449TIP3   OH237837   2.664   3.233  12.040 -0.1819 -0.3212  0.4770
 5449TIP3    H137838   2.585   3.211  12.089 -1.1478  1.6420 -0.1222
 5449TIP3    H237839   2.716   3.287  12.100 -0.8702  1.1751 -0.2103
 5450TIP3   OH237840   0.334   2.149  14.971  0.0218 -0.1535 -0.0242
 5450TIP3    H137841   0.374   2.183  14.891  0.3688  0.4357  0.3997
 5450TIP3    H237842   0.258   2.205  14.986  0.1839 -0.0131  0.2782
 5451TIP3   OH237843   3.279   5.930  14.145 -0.0478  0.3273 -0.2458
 5451TIP3    H137844   3.187   5.918  14.167 -0.1760 -0.4246 -1.1105
 5451TIP3    H237845   3.317   5.842  14.150  0.4498  0.5144 -0.6259
 5452TIP3   OH237846   4.869   5.865  16.771 -0.2322 -0.3373 -0.0724
 5452TIP3    H137847   4.828   5.780  16.753  0.6196 -0.3709 -2.1274
 5452TIP3    H237848   4.795   5.925  16.783 -0.8429 -1.2604  0.9300
 5453TIP3   OH237849   4.911   0.148   4.225  0.1614 -0.2946  0.2370
 5453TIP3    H137850   4.844   0.093   4.185 -0.3800  1.5927 -1.6061
 5453TIP3    H237851   4.992   0.124   4.179  0.1469 -0.3559  0.2433
 5454TIP3   OH237852   2.809   0.604   2.475 -0.1983  0.1320 -0.0082
 5454TIP3    H137853   2.724   0.564   2.456 -0.7039 -0.4812  3.0346
 5454TIP3    H237854   2.831   0.574   2.563  1.5236  3.0422  0.7113
 5455TIP3   OH237855   1.963   5.923  13.495  0.0009 -0.4393 -0.2418
 5455TIP3    H137856   1.969   5.975  13.575  0.1228  0.8316 -1.0427
 5455TIP3    H237857   1.885   5.956  13.450 -1.8813 -3.2583  0.7527
 5456TIP3   OH237858   3.462   6.832  15.116  0.1199  0.4312  0.5293
 5456TIP3    H137859   3.409   6.768  15.068  0.1049  0.6468  0.2543
 5456TIP3    H237860   3.405   6.909  15.123  0.2471  0.5192  0.5934
 5457TIP3   OH237861   1.060   1.535  15.562  0.4884  0.5051  0.3708
 5457TIP3    H137862   1.070   1.477  15.487 -0.4411 -1.0260  1.3811
 5457TIP3    H237863   0.988   1.594  15.538 -0.6751 -0.8153  0.5461
 5458TIP3   OH237864   5.677   0.334   2.447  0.1339 -0.6703  0.9427
 5458TIP3    H137865   5.589   0.371   2.449  0.2358 -0.1433 -1.5293
 5458TIP3    H237866   5.735   0.409   2.440  0.6375 -1.1126  0.2952
 5459TIP3   OH237867   5.458   4.935   0.657  0.1200 -0.1269  0.4291
 5459TIP3    H137868   5.494   5.002   0.717  1.4573 -1.3824  1.0913
 5459TIP3    H237869   5.366   4.959   0.648  0.1344  0.7606  2.1170
 5460TIP3   OH237870   5.633   1.936   5.284  0.1953 -0.4335  0.0623
 5460TIP3    H137871   5.551   1.958   5.328  0.7239 -0.2536  0.9909
 5460TIP3    H237872   5.609   1.924   5.192 -0.7889  0.0845  0.2390
 5461TIP3   OH237873   2.437   6.147   2.208  0.4809  0.2286 -0.1243
 5461TIP3    H137874   2.479   6.194   2.136 -0.2931 -1.1943 -1.5697
 5461TIP3    H237875   2.498   6.076   2.228  0.4087  0.2652  0.2280
 5462TIP3   OH237876   3.064   4.374  16.887  0.0129 -0.2869 -0.3421
 5462TIP3    H137877   3.088   4.384  16.979  0.4542  0.5800 -0.5327
 5462TIP3    H237878   3.114   4.297  16.857  0.5312 -0.0674 -0.0609
 5463TIP3   OH237879   4.340   2.175  13.074 -0.3788  0.0557 -0.3137
 5463TIP3    H137880   4.379   2.126  13.146 -0.8504  1.2387  0.7968
 5463TIP3    H237881   4.373   2.133  12.995  1.0180 -0.6072  0.5862
 5464TIP3   OH237882   2.212   5.153  11.620 -0.2135 -0.6961 -0.5597
 5464TIP3    H137883   2.161   5.197  11.552 -0.6248  0.9224  0.7505
 5464TIP3    H237884   2.219   5.062  11.589 -0.5402 -0.0586 -2.6502
 5465TIP3   OH237885   3.002   2.793  16.876  0.0888  0.0420 -0.0036
 5465TIP3    H137886   2.960   2.750  16.950 -0.0955 -2.5769 -1.5087
 5465TIP3    H237887   2.931   2.807  16.813  0.3588  1.5964  0.0070
 5466TIP3   OH237888   5.968   1.637   2.420  0.2385  0.4765 -0.2311
 5466TIP3    H137889   6.000   1.548   2.428  1.3563  0.9007  0.1187
 5466TIP3    H237890   5.990   1.663   2.331  0.2385  0.5280 -0.2161
 5467TIP3   OH237891   3.112   5.119   3.659  0.3063 -0.1299 -0.0098
 5467TIP3    H137892   3.144   5.123   3.568 -1.4233 -1.5420 -0.7421
 5467TIP3    H237893   3.052   5.044   3.660 -0.7220  0.6460  1.9946
 5468TIP3   OH237894   5.125   1.493  14.398 -0.2577  0.0086 -0.2776
 5468TIP3    H137895   5.120   1.513  14.491 -1.2931  0.6669 -0.4574
 5468TIP3    H237896   5.209   1.449  14.387 -1.1300 -2.2061  1.3578
 5469TIP3   OH237897   1.978   1.473   3.981 -0.1231 -0.9780 -0.1164
 5469TIP3    H137898   2.050   1.417   3.953 -0.0038 -0.4313 -0.9356
 5469TIP3    H237899   2.005   1.561   3.956 -0.8641 -0.7082  0.0059
 5470TIP3   OH237900   4.600   4.319  12.820  0.2547 -0.0034 -0.2095
 5470TIP3    H137901   4.516   4.365  12.821  0.4596  0.3802  1.6193
 5470TIP3    H237902   4.666   4.388  12.826  0.6642 -0.3869 -0.2025
 5471TIP3   OH237903   5.685   5.435  13.700 -0.4565  0.1442  0.0073
 5471TIP3    H137904   5.628   5.458  13.627 -2.0869 -1.9432  0.5222
 5471TIP3    H237905   5.670   5.341  13.713  0.6592  0.2163  2.2737
 5472TIP3   OH237906   3.697   4.174   1.101  0.2610 -0.3664 -0.3202
 5472TIP3    H137907   3.792   4.161   1.101  0.1454 -1.3215  0.3885
 5472TIP3    H237908   3.662   4.094   1.061 -0.2042  0.4814 -1.6675
 5473TIP3   OH237909   6.318   0.535  17.062 -0.0982 -0.2351 -0.6195
 5473TIP3    H137910   6.230   0.570  17.075 -0.7829 -1.6105 -1.3087
 5473TIP3    H237911   6.305   0.457  17.007  1.3930 -1.2795  0.4248
 5474TIP3   OH237912   4.563   3.854   6.285  0.8000  0.6643 -0.3266
 5474TIP3    H137913   4.537   3.762   6.278  2.5044  0.2456 -2.1303
 5474TIP3    H237914   4.526   3.894   6.207  1.8076  1.0156 -0.6388
 5475TIP3   OH237915   3.798   3.577  14.465 -0.2442  0.0434 -0.2019
 5475TIP3    H137916   3.713   3.600  14.501 -0.7063 -0.0519 -1.2038
 5475TIP3    H237917   3.806   3.483  14.481  1.2244  0.5840  3.0182
 5476TIP3   OH237918   3.042   2.484   3.113  0.3427 -0.0065  0.2810
 5476TIP3    H137919   3.064   2.436   3.033 -0.7636  0.2343 -0.1814
 5476TIP3    H237920   3.065   2.423   3.184  3.3216  0.5407 -0.0690
 5477TIP3   OH237921   2.251   3.473   4.732  0.8696 -0.0255  0.1046
 5477TIP3    H137922   2.179   3.461   4.793  0.2742 -0.5575 -0.6817
 5477TIP3    H237923   2.330   3.456   4.784  0.3584 -0.7509  0.6515
 5478TIP3   OH237924   1.875   1.331   1.600 -0.0413  0.0558  0.5314
 5478TIP3    H137925   1.964   1.318   1.567  0.2872  1.2186  0.9278
 5478TIP3    H237926   1.867   1.269   1.673  0.2966 -0.3350  0.2435
 5479TIP3   OH237927   1.980   6.257   0.840 -0.2807  0.4998  0.2906
 5479TIP3    H137928   1.924   6.250   0.762  1.2685 -0.2071 -0.8103
 5479TIP3    H237929   1.997   6.351   0.849 -3.3554  1.0214  1.9812
 5480TIP3   OH237930   0.954   6.517   2.201  0.6994  0.3207  0.1017
 5480TIP3    H137931   0.985   6.608   2.198  0.8171  0.2891  0.3987
 5480TIP3    H237932   1.031   6.464   2.182  0.5176  0.3023 -0.6123
 5481TIP3   OH237933   6.256   3.806  14.164  0.1942 -0.1044 -0.6617
 5481TIP3    H137934   6.195   3.738  14.193 -0.6006  0.1926 -1.5864
 5481TIP3    H237935   6.215   3.844  14.086  0.4830  1.6064 -0.0375
 5482TIP3   OH237936   1.619   6.540   1.321 -0.3411  0.5568 -0.2042
 5482TIP3    H137937   1.628   6.545   1.416 -0.6447  1.3831 -0.2112
 5482TIP3    H237938   1.699   6.495   1.292  0.8052  2.1797  0.2692
 5483TIP3   OH237939   1.873   1.736  13.180  0.2976  0.3881 -0.8492
 5483TIP3    H137940   1.953   1.721  13.231  0.2207 -0.5076 -0.9732
 5483TIP3    H237941   1.807   1.759  13.244  0.1913 -0.7662 -0.5191
 5484TIP3   OH237942   1.607   0.569   3.527  0.3044  0.0505  0.0557
 5484TIP3    H137943   1.543   0.590   3.459 -1.1032  1.8967  1.8341
 5484TIP3    H237944   1.574   0.488   3.566  0.5680 -0.4663 -0.7689
 5485TIP3   OH237945   2.927   3.884  15.846  0.0079  0.0869 -1.1313
 5485TIP3    H137946   2.872   3.912  15.773  0.1782  1.1816 -0.8633
 5485TIP3    H237947   3.015   3.881  15.809 -0.1150 -0.9075 -1.3624
 5486TIP3   OH237948   3.091   3.545   2.696 -0.0821  0.1146  0.1987
 5486TIP3    H137949   3.114   3.454   2.711  0.7302  0.4052  0.7753
 5486TIP3    H237950   3.134   3.568   2.614 -0.6376 -0.1303 -0.1698
 5487TIP3   OH237951   0.022   6.607   0.836  0.6785  0.1459 -0.1319
 5487TIP3    H137952  -0.058   6.614   0.888  0.4674 -2.8771  0.1309
 5487TIP3    H237953  -0.005   6.558   0.758  2.1701 -0.5096 -0.2621
 5488TIP3   OH237954   2.897   2.481   1.996 -0.2865  0.0839 -0.2097
 5488TIP3    H137955   2.889   2.448   1.907  0.4586  0.4430 -0.4141
 5488TIP3    H237956   2.834   2.554   2.000  0.5520  0.8661 -0.8373
 5489TIP3   OH237957   4.323   2.589  14.143 -0.0756  0.2208  0.0395
 5489TIP3    H137958   4.298   2.682  14.140 -0.0711  0.1921 -1.3992
 5489TIP3    H237959   4.240   2.544  14.158 -0.1587  0.4143  0.1819
 5490TIP3   OH237960   0.739   3.925   1.127  0.4906  0.0507 -0.2798
 5490TIP3    H137961   0.646   3.936   1.147  0.5986  0.5960 -0.0727
 5490TIP3    H237962   0.756   3.832   1.142 -0.1965 -0.2080 -1.0457
 5491TIP3   OH237963   2.234   2.917  16.113  0.3694  0.3882  0.0546
 5491TIP3    H137964   2.314   2.968  16.117 -0.0433  1.0374  0.3308
 5491TIP3    H237965   2.199   2.921  16.202 -0.4904  0.9852 -0.2952
 5492TIP3   OH237966   6.594   0.242  11.247  0.4890 -0.2342 -0.2131
 5492TIP3    H137967   6.569   0.295  11.171  0.3384 -1.0032 -0.7057
 5492TIP3    H237968   6.645   0.170  11.211 -1.8805 -2.1661  0.0589
 5493TIP3   OH237969   6.450   3.543   2.242 -0.1274  0.0871 -0.2623
 5493TIP3    H137970   6.412   3.473   2.294  0.4863  0.0754  0.1930
 5493TIP3    H237971   6.542   3.518   2.233  0.0797  0.7927 -0.1590
 5494TIP3   OH237972   1.202   0.227   5.278  0.1206 -0.1419 -0.1080
 5494TIP3    H137973   1.269   0.178   5.325 -0.2784 -0.4380  0.1603
 5494TIP3    H237974   1.189   0.306   5.330  0.7728  0.2713 -0.5480
 5495TIP3   OH237975   1.864   2.234  17.125  0.0270  0.0964  0.3154
 5495TIP3    H137976   1.795   2.297  17.104 -0.5881 -1.0769 -1.4286
 5495TIP3    H237977   1.940   2.265  17.075  0.0156  0.0012  0.2399
 5496TIP3   OH237978   3.369   2.497   1.103 -0.7529  0.3500  0.1037
 5496TIP3    H137979   3.455   2.456   1.111 -0.0590  1.3814 -1.5508
 5496TIP3    H237980   3.382   2.586   1.135 -1.3948  0.3280  0.4599
 5497TIP3   OH237981   2.618   5.465  12.058  0.5223 -0.0502  0.0044
 5497TIP3    H137982   2.651   5.418  12.134 -1.5800 -0.5375  0.6765
 5497TIP3    H237983   2.592   5.396  11.997  1.1229  0.3279 -0.6979
 5498TIP3   OH237984   3.715   6.098   6.440  0.3793  0.4158 -0.4866
 5498TIP3    H137985   3.743   6.125   6.528  2.2167  1.0055 -1.2015
 5498TIP3    H237986   3.621   6.082   6.449  0.8929 -1.9652  2.1774
 5499TIP3   OH237987   1.630   0.570  16.514 -0.1329 -0.4863  0.1337
 5499TIP3    H137988   1.704   0.537  16.565  0.3158 -1.1269 -0.8909
 5499TIP3    H237989   1.618   0.505  16.445  0.6788  1.3816 -1.8743
 5500TIP3   OH237990   2.358   6.375  13.586  0.5624  0.2846  0.0961
 5500TIP3    H137991   2.409   6.367  13.505 -2.6155 -0.7474 -2.0180
 5500TIP3    H237992   2.328   6.286  13.604  0.3405  0.6842  1.8476
 5501TIP3   OH237993   5.835   5.463  15.850 -0.4091 -0.5807 -0.2058
 5501TIP3    H137994   5.919   5.442  15.807  0.0665  1.1397 -0.2198
 5501TIP3    H237995   5.769   5.440  15.785  0.2219  0.4886 -1.2956
 5502TIP3   OH237996   0.148   2.743  14.187  0.8938 -0.3273 -0.0881
 5502TIP3    H137997   0.117   2.832  14.205 -1.3589 -1.0439 -0.1164
 5502TIP3    H237998   0.235   2.740  14.226  0.2505  1.2859  1.6677
 5503TIP3   OH237999   3.288   3.893  14.902  0.0685 -0.2722 -0.2516
 5503TIP3    H138000   3.242   3.970  14.869  1.4469  0.8293  0.3030
 5503TIP3    H238001   3.361   3.928  14.953 -0.6973 -1.9175  2.1554
 5504TIP3   OH238002   1.672   3.871   5.721  0.0144 -0.0935 -0.2951
 5504TIP3    H138003   1.674   3.784   5.762  1.0302  0.5034  1.0008
 5504TIP3    H238004   1.589   3.873   5.673  1.4663 -3.1287 -3.4500
 5505TIP3   OH238005   6.679   2.307  14.623 -0.0930 -0.5659  0.1808
 5505TIP3    H138006   6.680   2.347  14.711  1.6427 -0.5922  0.2096
 5505TIP3    H238007   6.619   2.233  14.631 -0.8878  0.1351  1.0086
 5506TIP3   OH238008   4.582   5.401  13.130 -0.7052 -0.3665 -0.1324
 5506TIP3    H138009   4.665   5.353  13.125 -0.3464  0.0405  1.2866
 5506TIP3    H238010   4.517   5.334  13.148 -0.2527 -0.4222  1.5131
 5507TIP3   OH238011   2.855   1.280   6.507 -0.0537 -0.5671  0.8108
 5507TIP3    H138012   2.805   1.207   6.542  0.1440  0.2562  2.9524
 5507TIP3    H238013   2.804   1.310   6.431 -1.3118 -1.4957  1.2634
 5508TIP3   OH238014   3.568   6.024   1.046  0.5129  0.4428 -0.6022
 5508TIP3    H138015   3.594   5.965   0.976  0.2112  0.8802 -1.0807
 5508TIP3    H238016   3.587   5.975   1.126  0.3162 -0.2780 -0.9919
 5509TIP3   OH238017   0.702   2.014  16.538  0.1377 -0.2728 -0.2091
 5509TIP3    H138018   0.710   2.031  16.632  0.4087 -0.4134 -0.2060
 5509TIP3    H238019   0.611   2.035  16.517  0.1904  0.1654 -0.0002
 5510TIP3   OH238020   5.423   3.025  11.351  0.3537  0.1353  0.2581
 5510TIP3    H138021   5.394   2.961  11.285  3.2839 -0.4309 -0.6460
 5510TIP3    H238022   5.344   3.047  11.399 -1.9166  0.2679 -3.1530
 5511TIP3   OH238023   5.682   5.734   2.507 -0.2123  0.3777  1.0595
 5511TIP3    H138024   5.684   5.690   2.592 -0.4626  1.9820  1.9375
 5511TIP3    H238025   5.652   5.822   2.527 -0.3924  0.7535 -0.7304
 5512TIP3   OH238026   5.406   1.514  16.339 -0.2788 -0.2322 -0.2609
 5512TIP3    H138027   5.380   1.496  16.430  1.0615  1.6123  0.5391
 5512TIP3    H238028   5.332   1.482  16.287 -1.0990 -1.3208  1.4604
 5513TIP3   OH238029   5.102   5.237  14.176  0.3049  0.2413  0.4376
 5513TIP3    H138030   5.103   5.292  14.254 -0.8563  0.5318  0.2626
 5513TIP3    H238031   5.106   5.298  14.103  0.9531 -0.0090  0.2570
 5514TIP3   OH238032   5.894   1.827   6.316 -0.5705 -0.1769  0.4178
 5514TIP3    H138033   5.952   1.824   6.240 -1.2638 -1.5407 -0.0953
 5514TIP3    H238034   5.953   1.820   6.392 -0.0453 -1.9169 -0.0989
 5515TIP3   OH238035   6.030   5.117   5.450  0.6768  0.3160  0.4059
 5515TIP3    H138036   6.050   5.087   5.539 -0.1571 -0.5175  0.3312
 5515TIP3    H238037   5.958   5.178   5.461 -2.4668 -2.9997  0.0311
 5516TIP3   OH238038   1.965   3.835  15.459 -0.4769 -1.0095 -0.5763
 5516TIP3    H138039   1.886   3.791  15.426 -2.0117  1.2380 -0.1001
 5516TIP3    H238040   1.933   3.915  15.500  2.0838  0.0078 -0.3737
 5517TIP3   OH238041   1.107   6.281   2.659  0.2044 -0.1786  0.0202
 5517TIP3    H138042   1.048   6.337   2.609  0.9497  0.8632  0.2640
 5517TIP3    H238043   1.070   6.193   2.651 -0.5923  0.2292 -0.9763
 5518TIP3   OH238044   6.321   1.407  14.790  0.1732  0.4508  0.2317
 5518TIP3    H138045   6.389   1.412  14.857 -0.3095 -1.8919  1.0224
 5518TIP3    H238046   6.247   1.367  14.835 -1.6844  2.6758 -0.6834
 5519TIP3   OH238047   1.039   2.714  14.785 -0.1476  0.2033  0.2868
 5519TIP3    H138048   0.971   2.777  14.808  0.8915  1.7272 -0.6597
 5519TIP3    H238049   1.091   2.758  14.718  1.4025 -1.1561  0.5438
 5520TIP3   OH238050   4.194   3.959   1.813 -0.0826  0.3561 -0.9426
 5520TIP3    H138051   4.243   3.881   1.840  0.5237  1.1765  0.4196
 5520TIP3    H238052   4.261   4.025   1.795 -0.6256  1.0073 -0.6213
 5521TIP3   OH238053   3.071   0.418  15.411 -0.0148 -0.2275  0.3436
 5521TIP3    H138054   3.060   0.432  15.317 -2.3352  1.4652  0.7747
 5521TIP3    H238055   3.135   0.347  15.418  1.1489  0.4414 -2.4610
 5522TIP3   OH238056   4.027   5.706   4.587 -0.4239  0.0305  0.2778
 5522TIP3    H138057   4.062   5.692   4.499 -0.7218 -0.0559  0.1707
 5522TIP3    H238058   3.965   5.778   4.577 -0.5299 -0.0437  0.3967
 5523TIP3   OH238059   2.750   1.606   3.129 -0.0105 -0.0434 -0.0837
 5523TIP3    H138060   2.759   1.595   3.035  1.1730  0.7242 -0.0855
 5523TIP3    H238061   2.832   1.647   3.156 -0.7365  0.6727  1.1231
 5524TIP3   OH238062   5.765   3.338  15.096 -0.4137 -0.2349  0.8395
 5524TIP3    H138063   5.776   3.345  15.191 -3.1480 -2.1338  1.4264
 5524TIP3    H238064   5.798   3.251  15.074 -1.2419 -0.4385  0.3543
 5525TIP3   OH238065   4.960   2.443   1.342  0.3509 -0.1152  0.2632
 5525TIP3    H138066   5.045   2.408   1.368 -0.0162  0.4002  2.3494
 5525TIP3    H238067   4.904   2.366   1.335  0.3559 -0.2764  1.5941
 5526TIP3   OH238068   4.952   0.488  13.470 -0.9018 -0.1060  0.2307
 5526TIP3    H138069   5.047   0.483  13.462 -0.5596  1.1796  2.5996
 5526TIP3    H238070   4.930   0.419  13.533 -1.4593  0.0246  0.1818
 5527TIP3   OH238071   4.212   0.561  15.932 -0.5390  0.1111 -0.6829
 5527TIP3    H138072   4.179   0.471  15.936  1.0039 -0.4440  0.5920
 5527TIP3    H238073   4.194   0.596  16.019  0.9249  0.2430 -0.4162
 5528TIP3   OH238074   0.419   3.474   4.981  0.1878  0.2257 -0.1609
 5528TIP3    H138075   0.337   3.450   4.938 -0.7420  1.2040  0.9866
 5528TIP3    H238076   0.393   3.538   5.048  1.7325 -0.3381  1.0286
 5529TIP3   OH238077   5.054   5.674  12.563  0.3497  0.6788  1.0266
 5529TIP3    H138078   5.016   5.668  12.475 -2.2431  2.9156  1.8540
 5529TIP3    H238079   5.099   5.590  12.575  0.2815  0.0420 -2.1593
 5530TIP3   OH238080   0.935   4.153  14.492  0.2342 -0.0131 -0.5306
 5530TIP3    H138081   1.017   4.160  14.443 -0.0836  0.7494 -0.9696
 5530TIP3    H238082   0.908   4.244  14.506 -0.4561 -0.2574 -0.2600
 5531TIP3   OH238083   5.662   6.356  16.692 -0.7452 -0.3210  0.5998
 5531TIP3    H138084   5.619   6.441  16.682  0.5837  0.3427  0.2822
 5531TIP3    H238085   5.604   6.306  16.749 -2.4828  0.1218 -0.6975
 5532TIP3   OH238086   0.276   6.815   5.777  0.3858  0.2389 -0.6530
 5532TIP3    H138087   0.364   6.814   5.815  1.0693 -1.0509 -2.1493
 5532TIP3    H238088   0.281   6.878   5.705  0.5583 -0.9401 -1.7074
 5533TIP3   OH238089   5.034   2.173  12.712 -0.5068  0.3389  0.0541
 5533TIP3    H138090   5.009   2.155  12.621  1.2917 -0.0117 -0.4180
 5533TIP3    H238091   5.046   2.268  12.715 -1.7822  0.5006  0.2713
 5534TIP3   OH238092   2.623   5.160   3.561  0.1129  0.1070  0.0793
 5534TIP3    H138093   2.595   5.229   3.502 -1.0419 -0.4321 -0.0324
 5534TIP3    H238094   2.699   5.197   3.607  2.4566 -0.1657 -3.1675
 5535TIP3   OH238095   1.310   5.290  15.555  0.2025 -0.3093  0.5564
 5535TIP3    H138096   1.312   5.351  15.629  0.4123 -0.2827  0.5308
 5535TIP3    H238097   1.229   5.242  15.566 -0.7196  1.0023 -0.2539
 5536TIP3   OH238098   0.008   0.774  16.035  0.4389  0.1053 -0.1751
 5536TIP3    H138099  -0.000   0.701  15.973 -0.8447 -0.1917  0.3102
 5536TIP3    H238100   0.066   0.740  16.103  1.3453  0.2076 -0.8841
 5537TIP3   OH238101   1.037   2.081  14.026 -0.4143  0.4005  0.3687
 5537TIP3    H138102   1.086   2.158  14.056 -1.5529  0.4968  2.1024
 5537TIP3    H238103   0.958   2.117  13.985 -0.4237  0.1772  0.1907
 5538TIP3   OH238104   5.848   0.392   0.114 -1.0001 -0.3377 -0.0402
 5538TIP3    H138105   5.935   0.415   0.082 -1.0304  1.3073  0.9421
 5538TIP3    H238106   5.792   0.396   0.037 -0.5034  0.3566 -0.3773
 5539TIP3   OH238107   3.798   3.692   3.410 -0.2275 -0.0825  0.1331
 5539TIP3    H138108   3.798   3.778   3.450  1.1233 -0.7275  1.6068
 5539TIP3    H238109   3.747   3.703   3.329 -0.0359  2.0775  0.2632
 5540TIP3   OH238110   0.169   1.819   1.578  1.0631  0.2108  0.1014
 5540TIP3    H138111   0.207   1.906   1.565  0.2914  0.1910 -3.3682
 5540TIP3    H238112   0.086   1.834   1.623  1.8302  1.0115  1.2916
 5541TIP3   OH238113   0.448   6.109   4.036 -0.1186 -0.9877 -0.4790
 5541TIP3    H138114   0.481   6.114   4.126 -0.4262 -0.1297 -0.4094
 5541TIP3    H238115   0.394   6.188   4.025  1.2456 -0.2051 -1.9449
 5542TIP3   OH238116   5.882   3.330   4.684 -0.4681 -0.1241  0.3135
 5542TIP3    H138117   5.852   3.420   4.671 -0.6090 -0.1201  0.6588
 5542TIP3    H238118   5.837   3.301   4.763 -0.7555 -0.6474 -0.0358
 5543TIP3   OH238119   2.234   1.390   2.162 -0.8977 -0.3719  0.4267
 5543TIP3    H138120   2.214   1.355   2.249 -0.7460 -1.3446  0.0873
 5543TIP3    H238121   2.314   1.441   2.174 -0.9580 -0.3818  0.8834
 5544TIP3   OH238122   6.022   3.066   2.720  0.3781 -0.0780  0.0007
 5544TIP3    H138123   5.998   3.146   2.767  1.3264  1.3926 -1.8873
 5544TIP3    H238124   6.117   3.062   2.728  0.4539 -0.3352 -0.9077
 5545TIP3   OH238125   3.557   6.147  15.650 -0.8890 -0.6316 -0.2936
 5545TIP3    H138126   3.644   6.107  15.651 -0.9596 -0.7878  0.5417
 5545TIP3    H238127   3.573   6.239  15.672 -0.9586 -0.7189  0.1286
 5546TIP3   OH238128   6.210   3.527  10.642  0.0806 -0.0596  0.0364
 5546TIP3    H138129   6.244   3.496  10.726  0.8081  0.1291 -0.1784
 5546TIP3    H238130   6.130   3.476  10.628  0.8598 -1.3211  0.0339
 5547TIP3   OH238131   4.383   3.604  11.053  0.3160 -0.4322 -0.0922
 5547TIP3    H138132   4.408   3.643  10.969  1.1907 -0.7306  0.0177
 5547TIP3    H238133   4.407   3.669  11.119 -0.3361 -0.2135 -0.0666
 5548TIP3   OH238134   3.296   5.864   0.259  0.3022 -0.1255 -0.2120
 5548TIP3    H138135   3.295   5.886   0.353 -1.1420 -0.3372 -0.1548
 5548TIP3    H238136   3.362   5.795   0.252  1.1467  0.5885  0.4746
 5549TIP3   OH238137   3.321   3.746   5.142  1.0658  0.4921  0.3637
 5549TIP3    H138138   3.359   3.697   5.216  0.3148 -1.3981 -0.4531
 5549TIP3    H238139   3.228   3.725   5.145  1.2046 -0.6856 -1.8530
 5550TIP3   OH238140   3.967   4.408   4.490 -0.0098 -0.1943  0.0379
 5550TIP3    H138141   3.891   4.369   4.447  0.5109  0.5664 -1.6663
 5550TIP3    H238142   4.002   4.470   4.425  0.4391  1.5054  1.8089
 5551TIP3   OH238143   4.377   2.495  16.790  0.6035  0.4684 -0.4898
 5551TIP3    H138144   4.448   2.446  16.831  0.3335  0.2951 -0.2284
 5551TIP3    H238145   4.297   2.450  16.817  0.3455  1.0713 -0.2220
 5552TIP3   OH238146   4.626   0.422  12.067 -0.5279 -0.0372  0.1678
 5552TIP3    H138147   4.677   0.463  12.137 -0.9057 -0.2388  0.5690
 5552TIP3    H238148   4.666   0.336  12.055  0.4370  0.5366 -0.8625
 5553TIP3   OH238149   5.046   1.121  16.340 -0.2991 -0.2645  0.2918
 5553TIP3    H138150   5.052   1.110  16.245  1.8751  1.0227  0.2025
 5553TIP3    H238151   5.104   1.053  16.376 -0.0459  0.1073  0.6027
 5554TIP3   OH238152   6.359   5.097  11.693 -0.2301 -0.2723  0.4690
 5554TIP3    H138153   6.292   5.041  11.735  0.3752 -2.3722 -1.1801
 5554TIP3    H238154   6.351   5.077  11.600  3.6786 -1.8751  0.2888
 5555TIP3   OH238155   2.744   5.148   1.189 -0.9014 -0.3247  0.1407
 5555TIP3    H138156   2.763   5.064   1.231  0.6749  0.1513  0.4209
 5555TIP3    H238157   2.736   5.126   1.096  1.5573 -0.5527 -0.0924
 5556TIP3   OH238158   4.489   6.723   5.944 -0.1423 -0.6023  0.0178
 5556TIP3    H138159   4.471   6.664   6.017 -1.4147 -0.1164  0.1126
 5556TIP3    H238160   4.409   6.772   5.932  0.6068  0.5034 -0.6403
 5557TIP3   OH238161   5.091   2.165   6.183 -1.0956  0.0873 -0.3902
 5557TIP3    H138162   5.163   2.102   6.184 -1.1372 -0.0461 -2.5139
 5557TIP3    H238163   5.020   2.121   6.229 -1.5273 -2.0030 -2.8565
 5558TIP3   OH238164   1.629   4.752   4.823 -0.1999 -0.3253 -0.7023
 5558TIP3    H138165   1.548   4.786   4.786 -0.2127 -1.0377 -1.3439
 5558TIP3    H238166   1.600   4.679   4.879 -0.1096  0.2393  0.1023
 5559TIP3   OH238167   3.108   0.089  14.738 -0.2764 -0.1496  0.6013
 5559TIP3    H138168   3.067   0.048  14.662  0.9437  0.4133 -0.3977
 5559TIP3    H238169   3.037   0.097  14.802 -1.6606  0.5213 -0.9422
 5560TIP3   OH238170   5.104   1.776   2.216  0.1455 -0.5454 -0.1087
 5560TIP3    H138171   5.033   1.834   2.243  0.2474  0.0668 -1.0962
 5560TIP3    H238172   5.096   1.770   2.121 -0.6225 -3.1756  0.0365
 5561TIP3   OH238173   1.777   3.965  16.869  0.0796 -0.6837 -0.0608
 5561TIP3    H138174   1.841   3.956  16.940 -0.8364 -1.6421  0.6848
 5561TIP3    H238175   1.694   3.979  16.914 -0.2314  0.7413 -1.0207
 5562TIP3   OH238176   3.701   0.226  12.938 -0.6120  0.3753  0.4457
 5562TIP3    H138177   3.692   0.200  13.030  1.1156 -1.0611  0.2643
 5562TIP3    H238178   3.663   0.154  12.889  0.7746 -0.0905  0.0057
 5563TIP3   OH238179   1.545   3.833   5.384  0.3139 -0.3192  0.7227
 5563TIP3    H138180   1.503   3.860   5.466  2.9952  0.3398  2.0075
 5563TIP3    H238181   1.589   3.751   5.407  0.6426 -0.4131 -0.2242
 5564TIP3   OH238182   6.412   4.757   3.456  0.4533 -0.0546 -0.3093
 5564TIP3    H138183   6.507   4.760   3.453  0.5278 -0.7574  0.7212
 5564TIP3    H238184   6.391   4.664   3.465 -0.3026  0.1464  0.0883
 5565TIP3   OH238185   5.421   3.488   2.698  0.3007 -0.1894  0.0797
 5565TIP3    H138186   5.468   3.524   2.623  1.2445 -1.4468  0.0257
 5565TIP3    H238187   5.489   3.447   2.752 -0.4796 -0.1532  1.1416
 5566TIP3   OH238188   2.230   6.104   4.084 -0.3356  0.0841  0.1061
 5566TIP3    H138189   2.325   6.101   4.079 -0.1866  1.6394  1.2099
 5566TIP3    H238190   2.206   6.026   4.134  0.4831  0.3834  0.9862
 5567TIP3   OH238191   4.468   5.072   0.631 -0.0862 -0.8132  0.5469
 5567TIP3    H138192   4.476   5.166   0.613  1.7446 -1.1335 -0.6464
 5567TIP3    H238193   4.397   5.065   0.695 -2.1349  1.1155 -1.3657
 5568TIP3   OH238194   0.681   1.090  13.739  0.3215 -0.6257  0.2467
 5568TIP3    H138195   0.610   1.083  13.676 -0.5283  0.4624  1.0310
 5568TIP3    H238196   0.714   1.179  13.729  1.0780 -0.8747  0.4148
 5569TIP3   OH238197   3.977   4.872   4.132 -0.2380 -0.2035 -0.0271
 5569TIP3    H138198   4.069   4.847   4.117 -0.0232  0.6095 -0.0909
 5569TIP3    H238199   3.936   4.864   4.047 -0.1558 -0.2933 -0.0587
 5570TIP3   OH238200   3.034   4.239   3.200  0.5350  0.1154 -0.5554
 5570TIP3    H138201   3.022   4.333   3.186 -0.4138  0.0810 -0.0466
 5570TIP3    H238202   3.121   4.221   3.166  0.0448  0.8454 -2.3499
 5571TIP3   OH238203   6.106   3.299   0.740 -0.2454  0.2034  0.3085
 5571TIP3    H138204   6.065   3.353   0.673  0.5857 -0.0277 -0.4137
 5571TIP3    H238205   6.137   3.222   0.693 -1.3854 -0.9049  1.3180
 5572TIP3   OH238206   6.497   6.361  13.360 -0.0862 -0.2001  0.1747
 5572TIP3    H138207   6.518   6.366  13.267 -0.0504 -1.3800  0.1039
 5572TIP3    H238208   6.410   6.320  13.363  1.2095 -3.1527  0.7149
 5573TIP3   OH238209   0.721   1.358   0.880  0.2520  0.6155  0.0691
 5573TIP3    H138210   0.802   1.409   0.878  1.7850 -1.6724 -0.4557
 5573TIP3    H238211   0.727   1.306   0.960 -1.7621  1.9319  1.1462
 5574TIP3   OH238212   0.981   4.496  14.042  0.6505  0.6748 -0.8427
 5574TIP3    H138213   0.979   4.580  13.997 -1.2105  0.6628 -0.8510
 5574TIP3    H238214   1.038   4.510  14.117  0.0804  2.0595 -0.6462
 5575TIP3   OH238215   6.600   6.765  16.273  0.1679 -0.0953 -0.5246
 5575TIP3    H138216   6.578   6.763  16.180  0.2591  1.6167 -0.6120
 5575TIP3    H238217   6.517   6.773  16.318  0.1283 -0.8709 -0.4376
 5576TIP3   OH238218   2.850   4.326  14.334  0.0274  0.1719  0.0785
 5576TIP3    H138219   2.910   4.360  14.400 -3.0562  0.2375  3.1388
 5576TIP3    H238220   2.831   4.237  14.364 -1.1675  0.0565 -0.9632
 5577TIP3   OH238221   0.215   1.322   1.867  0.7515 -0.2647  0.3339
 5577TIP3    H138222   0.255   1.356   1.947 -0.2432  0.9854  0.3329
 5577TIP3    H238223   0.138   1.273   1.897  1.7666 -1.9722  0.2831
 5578TIP3   OH238224   3.496   0.236   4.059 -0.3981  0.1903  0.5351
 5578TIP3    H138225   3.472   0.304   4.123 -0.5376 -1.6791  2.5977
 5578TIP3    H238226   3.506   0.157   4.112  3.4491 -0.6945 -1.2106
 5579TIP3   OH238227   0.691   2.205  15.743  0.1111 -0.4037  0.0403
 5579TIP3    H138228   0.617   2.145  15.756 -0.2461 -0.1821 -0.9359
 5579TIP3    H238229   0.740   2.167  15.670  0.8743 -0.4454  0.5554
 5580TIP3   OH238230   2.599   3.042  11.807 -0.3252 -0.7007  0.3549
 5580TIP3    H138231   2.611   3.094  11.728  2.5642 -0.2945  0.9500
 5580TIP3    H238232   2.559   3.103  11.870  0.3573 -0.0461  0.1701
 5581TIP3   OH238233   0.864   1.532   2.096  0.0751  0.9587 -0.1844
 5581TIP3    H138234   0.959   1.540   2.084 -0.0450  1.9225 -0.5208
 5581TIP3    H238235   0.841   1.453   2.046  0.9898 -0.5239  1.6016
 5582TIP3   OH238236   4.631   2.205  17.080  0.4471  0.0107 -0.9092
 5582TIP3    H138237   4.655   2.145  17.009 -0.3069  0.1915 -1.3378
 5582TIP3    H238238   4.684   2.177  17.155  0.2963 -1.0201 -1.1726
 5583TIP3   OH238239   2.246   6.504   6.440 -0.3444 -0.0707 -0.2323
 5583TIP3    H138240   2.341   6.502   6.429 -0.0908 -1.7801  1.6779
 5583TIP3    H238241   2.212   6.463   6.361  0.2798  2.5795 -2.0173
 5584TIP3   OH238242   2.531   5.762   4.339  0.5797  0.6901  0.2066
 5584TIP3    H138243   2.523   5.692   4.273  1.4336 -0.2711  1.0870
 5584TIP3    H238244   2.617   5.800   4.322  1.3620 -0.3976  1.5108
 5585TIP3   OH238245   4.878   1.409  16.288  0.3454  0.0070 -0.0081
 5585TIP3    H138246   4.877   1.462  16.368  0.5116 -1.4712  0.9992
 5585TIP3    H238247   4.954   1.442  16.240  0.0093  1.1887  0.2327
 5586TIP3   OH238248   0.214   4.638  15.775 -1.0406 -0.0934 -0.5908
 5586TIP3    H138249   0.225   4.731  15.796  1.0118 -0.1833 -1.1185
 5586TIP3    H238250   0.119   4.625  15.778 -1.3772  1.9722 -0.3636
 5587TIP3   OH238251   3.523   0.357  16.469 -0.2312 -0.3947 -0.1384
 5587TIP3    H138252   3.506   0.436  16.520 -1.2778 -1.0122  0.5206
 5587TIP3    H238253   3.437   0.333  16.433  0.4727  0.0453 -2.2760
 5588TIP3   OH238254   4.206   6.011  12.916 -0.2776 -0.5730  0.8244
 5588TIP3    H138255   4.195   6.057  12.999 -0.0163  0.2048  0.4345
 5588TIP3    H238256   4.299   5.987  12.914 -0.2848 -0.5942  0.7600
 5589TIP3   OH238257   1.415   3.932  11.718  0.3917  0.2693  0.0442
 5589TIP3    H138258   1.375   3.869  11.657  0.8366  0.2007 -0.1826
 5589TIP3    H238259   1.509   3.921  11.704  0.8236 -2.8556  3.7462
 5590TIP3   OH238260   2.002   1.212  11.844 -0.0766 -0.6319 -0.0246
 5590TIP3    H138261   2.015   1.173  11.930  0.5856 -0.4123 -0.0224
 5590TIP3    H238262   1.965   1.141  11.791 -1.6772 -0.4354  0.7435
 5591TIP3   OH238263   1.127   6.744   1.572 -0.1453 -0.4698 -0.4098
 5591TIP3    H138264   1.053   6.748   1.512 -0.4254  0.6682 -0.0118
 5591TIP3    H238265   1.204   6.743   1.515 -0.4366 -0.6060 -0.8056
 5592TIP3   OH238266   5.767   5.901  15.370  0.3350 -0.3150  0.0258
 5592TIP3    H138267   5.738   5.957  15.298  1.2423 -0.0443 -0.1413
 5592TIP3    H238268   5.707   5.921  15.442  1.6887  2.2378  0.5739
 5593TIP3   OH238269   5.534   3.011   0.508  0.1745  0.1516  0.3524
 5593TIP3    H138270   5.494   3.018   0.594 -1.0553 -1.1242 -0.0585
 5593TIP3    H238271   5.541   2.916   0.493  0.8426  0.3552 -0.7302
 5594TIP3   OH238272   3.092   5.655  10.953  0.3022 -0.1633  0.7816
 5594TIP3    H138273   3.064   5.727  11.011 -0.7837  0.0236  0.0590
 5594TIP3    H238274   3.188   5.661  10.952  0.3895 -0.4812  2.9257
 5595TIP3   OH238275   4.885   4.508   2.634 -0.1958 -0.0335  0.8625
 5595TIP3    H138276   4.816   4.444   2.651  0.5853 -1.1214  0.0158
 5595TIP3    H238277   4.905   4.498   2.541  0.5968  0.7895  0.9345
 5596TIP3   OH238278   5.117   3.814  13.926  0.8133 -0.4900 -0.1807
 5596TIP3    H138279   5.048   3.756  13.895  0.2870 -0.7176  1.3464
 5596TIP3    H238280   5.199   3.766  13.909  0.4435 -1.2655  0.2190
 5597TIP3   OH238281   1.409   2.484  14.051 -0.0614  0.0800  0.3745
 5597TIP3    H138282   1.478   2.424  14.079  0.7053  1.1298  0.8093
 5597TIP3    H238283   1.453   2.569  14.040 -1.0386  0.4927 -0.5977
 5598TIP3   OH238284   6.253   3.089   1.235  0.1761  0.3758  0.5142
 5598TIP3    H138285   6.330   3.056   1.281 -0.3512  1.4488  2.2585
 5598TIP3    H238286   6.194   3.013   1.231  0.0694  0.3354  2.0551
 5599TIP3   OH238287   2.272   4.891   3.878  0.2076  0.6112 -0.0141
 5599TIP3    H138288   2.217   4.817   3.903 -0.7702  1.5548  0.7372
 5599TIP3    H238289   2.357   4.873   3.918 -0.8828  1.3613  2.9221
 5600TIP3   OH238290   1.562   2.588  16.218 -0.3616  0.1254 -0.0237
 5600TIP3    H138291   1.503   2.616  16.148  0.2151 -0.5719 -0.8079
 5600TIP3    H238292   1.602   2.669  16.249 -1.2471  0.5332  0.0761
 5601TIP3   OH238293   3.881   1.036   1.363 -0.6924 -0.3553 -0.4147
 5601TIP3    H138294   3.933   1.042   1.283  0.2610  0.9355  0.2499
 5601TIP3    H238295   3.922   1.099   1.423 -2.4569  0.0248  0.4770
 5602TIP3   OH238296   5.806   3.217  11.957 -0.4642 -0.3069  0.0502
 5602TIP3    H138297   5.743   3.150  11.931 -1.2783  0.3141  0.3843
 5602TIP3    H238298   5.796   3.225  12.052 -0.6895  0.5849 -0.0371
 5603TIP3   OH238299   0.800   6.625   4.395 -0.1347 -0.3669  0.2212
 5603TIP3    H138300   0.742   6.639   4.320 -0.5134 -0.9162  0.4092
 5603TIP3    H238301   0.859   6.700   4.393  0.3439 -0.7593 -1.0661
 5604TIP3   OH238302   4.674   6.181  11.602  0.3138  0.2305 -0.0827
 5604TIP3    H138303   4.603   6.120  11.584  0.0513  0.5176 -0.0103
 5604TIP3    H238304   4.690   6.173  11.696  0.0171  0.5575 -0.0029
 5605TIP3   OH238305   1.443   0.418  14.383 -0.5461  0.2352  0.0260
 5605TIP3    H138306   1.492   0.500  14.381  2.3166 -1.3553  0.0937
 5605TIP3    H238307   1.424   0.403  14.476  1.0151 -0.2954  0.2772
 5606TIP3   OH238308   3.024   4.729  13.817  0.1107  0.3154  0.0416
 5606TIP3    H138309   2.937   4.740  13.855 -0.1426  1.2377 -0.7405
 5606TIP3    H238310   3.027   4.796  13.748  0.7354 -0.9423 -1.1851
 5607TIP3   OH238311   0.366   0.204  15.460  0.3340 -0.5014  0.2956
 5607TIP3    H138312   0.320   0.233  15.381  0.5868 -0.8052  0.0356
 5607TIP3    H238313   0.299   0.207  15.528  0.0535 -0.4612  0.0248
 5608TIP3   OH238314   3.057   0.745  15.203  0.3896  0.1128 -0.1904
 5608TIP3    H138315   3.039   0.796  15.124  2.3646  0.6846 -0.3218
 5608TIP3    H238316   3.118   0.800  15.253 -0.2180 -0.5873  1.3694
 5609TIP3   OH238317   4.782   1.420   2.921 -0.0520 -0.6954 -0.6371
 5609TIP3    H138318   4.761   1.352   2.985 -1.2530 -1.4861 -1.8118
 5609TIP3    H238319   4.705   1.476   2.919  1.3314  1.4066  1.0939
 5610TIP3   OH238320   2.868   0.087  14.921 -0.5474  0.1340  0.1085
 5610TIP3    H138321   2.814   0.103  14.844 -0.1934  2.3161  0.2491
 5610TIP3    H238322   2.823   0.017  14.967 -2.3858  0.7790 -0.5965
 5611TIP3   OH238323   5.040   2.619   2.229  0.2389 -0.0764  0.4135
 5611TIP3    H138324   5.054   2.605   2.323 -1.5632 -0.8394  0.6146
 5611TIP3    H238325   4.945   2.615   2.219  0.2462  2.0161 -1.1462
 5612TIP3   OH238326   1.939   6.019   2.671 -0.1992 -0.1849 -0.1458
 5612TIP3    H138327   1.947   5.929   2.639 -1.8245 -0.8973  1.2789
 5612TIP3    H238328   1.989   6.071   2.608 -0.6466 -1.8606 -2.0094
 5613TIP3   OH238329   1.605   2.471   4.720  0.7466  0.5303  0.0321
 5613TIP3    H138330   1.611   2.397   4.780  2.1152  0.8773  0.3585
 5613TIP3    H238331   1.677   2.459   4.658  0.1489  0.8673 -0.7538
 5614TIP3   OH238332   2.768   4.976   4.209 -0.0433 -0.1695 -0.0874
 5614TIP3    H138333   2.853   4.934   4.212  0.1202 -0.0556 -1.7558
 5614TIP3    H238334   2.770   5.041   4.279  0.7934 -0.9415  0.6205
 5615TIP3   OH238335   5.125   3.171  14.632 -0.3807 -0.0751 -1.3231
 5615TIP3    H138336   5.164   3.223  14.702  2.2624 -0.7313 -2.1864
 5615TIP3    H238337   5.090   3.094  14.676 -1.5539  0.9579 -0.4021
 5616TIP3   OH238338   2.616   0.153  17.154 -0.1324 -0.9934 -0.2446
 5616TIP3    H138339   2.596   0.068  17.115 -1.4936 -0.9001  0.1942
 5616TIP3    H238340   2.659   0.202  17.084 -2.9836 -0.6363 -1.8732
 5617TIP3   OH238341   4.561   3.309   3.480  0.3132 -0.3797 -0.2166
 5617TIP3    H138342   4.612   3.272   3.552  0.1131 -0.9633 -0.3641
 5617TIP3    H238343   4.576   3.403   3.485  0.0476 -0.3777  0.7831
 5618TIP3   OH238344   1.214   1.540  15.275 -0.1786  0.5236  0.6873
 5618TIP3    H138345   1.138   1.592  15.248  0.1455  1.0712  0.8009
 5618TIP3    H238346   1.282   1.564  15.212  0.1718  0.7515  1.1444
 5619TIP3   OH238347   4.492   4.768   2.164  0.0220 -0.4627  0.3860
 5619TIP3    H138348   4.426   4.837   2.160  1.2206  1.0039  3.0173
 5619TIP3    H238349   4.509   4.756   2.258  3.7520 -0.3925 -0.1072
 5620TIP3   OH238350   1.416   6.368  16.565 -0.0478 -0.0644 -0.0256
 5620TIP3    H138351   1.431   6.406  16.652  0.3687 -0.1040 -0.0745
 5620TIP3    H238352   1.412   6.443  16.506 -1.0484  0.0098  0.1165
 5621TIP3   OH238353   3.300   2.035   4.357 -0.8423  0.0368  0.0959
 5621TIP3    H138354   3.294   1.940   4.363 -0.3996  0.0628  1.5596
 5621TIP3    H238355   3.394   2.053   4.349 -0.6749  0.3759  2.0845
 5622TIP3   OH238356   2.101   4.643   5.288  0.3492  1.0925 -0.3894
 5622TIP3    H138357   2.156   4.719   5.270  0.9274  1.0437  1.0515
 5622TIP3    H238358   2.057   4.665   5.371 -0.3953  0.3528 -0.5765
 5623TIP3   OH238359   0.106   2.627  11.245  0.0020  0.1602 -0.4983
 5623TIP3    H138360   0.029   2.676  11.274  0.3446 -0.2541  1.2204
 5623TIP3    H238361   0.070   2.544  11.214 -0.2182 -0.6025  1.5929
 5624TIP3   OH238362   0.111   5.718  13.882 -0.1827  0.1525 -0.4591
 5624TIP3    H138363   0.146   5.791  13.832  0.6288  0.1279  0.0469
 5624TIP3    H238364   0.123   5.642  13.825  0.8225  0.1097 -0.2047
 5625TIP3   OH238365   6.308   5.468   1.999 -0.1876 -0.1135 -0.8123
 5625TIP3    H138366   6.352   5.466   1.914  1.0148  0.7755 -0.2443
 5625TIP3    H238367   6.240   5.534   1.988  0.4775  0.5860 -0.8776
 5626TIP3   OH238368   3.510   0.468   4.342 -0.4381 -0.1689 -0.3422
 5626TIP3    H138369   3.571   0.394   4.345  0.7044  0.6914 -1.4020
 5626TIP3    H238370   3.424   0.427   4.341  0.1692 -1.5030 -1.0663
 5627TIP3   OH238371   0.955   4.988  16.378 -0.0644  0.2645 -0.1263
 5627TIP3    H138372   1.020   5.026  16.318  0.3225  0.1704  0.2229
 5627TIP3    H238373   0.924   5.062  16.429 -0.2973  0.3239 -0.3525
 5628TIP3   OH238374   4.566   0.890   1.337  0.2941 -0.0960  0.5977
 5628TIP3    H138375   4.593   0.967   1.388  0.4739 -1.5285  2.8111
 5628TIP3    H238376   4.516   0.926   1.264  0.3345  2.1216  1.5823
 5629TIP3   OH238377   5.016   6.785  15.229 -0.1346 -0.0242  0.1799
 5629TIP3    H138378   5.055   6.833  15.302  1.0298 -0.2816 -0.2436
 5629TIP3    H238379   5.091   6.753  15.179 -0.8914 -1.2400 -0.2230
 5630TIP3   OH238380   6.337   6.521   4.355  0.3836  0.2079 -0.5046
 5630TIP3    H138381   6.298   6.599   4.394  1.8776  0.5677  0.3574
 5630TIP3    H238382   6.285   6.504   4.277 -0.2561  1.8005 -0.4608
 5631TIP3   OH238383   4.008   1.264  13.121  0.3440  0.0735  0.4549
 5631TIP3    H138384   3.943   1.244  13.053 -0.5441 -0.2140  1.3729
 5631TIP3    H238385   4.001   1.192  13.184 -1.0056  1.8257  2.4352
 5632TIP3   OH238386   3.966   2.839   4.915  0.1730 -0.0216 -0.4962
 5632TIP3    H138387   3.940   2.802   4.999  0.2152  0.7118 -0.1485
 5632TIP3    H238388   4.043   2.892   4.935  2.7420 -2.9761 -1.6468
 5633TIP3   OH238389   3.194   1.871   2.954  0.0462 -0.3407 -0.3071
 5633TIP3    H138390   3.280   1.833   2.974  1.1273  0.6794 -2.6108
 5633TIP3    H238391   3.131   1.807   2.987  1.6877 -1.3026  1.1130
 5634TIP3   OH238392   0.520   4.292  16.785  0.1289 -0.1389  0.1906
 5634TIP3    H138393   0.472   4.375  16.787  1.1803  0.4827  0.2622
 5634TIP3    H238394   0.503   4.254  16.871 -2.3151 -1.1880 -0.6528
 5635TIP3   OH238395   0.641   4.492   3.590  0.3296 -0.1201  0.1505
 5635TIP3    H138396   0.590   4.476   3.511  0.3394  0.8370 -0.0632
 5635TIP3    H238397   0.705   4.420   3.593  0.0556 -0.3946 -0.4766
 5636TIP3   OH238398   1.620   3.206  12.373 -0.0905  0.5498 -0.2335
 5636TIP3    H138399   1.663   3.133  12.329 -1.9069 -1.1534  0.6451
 5636TIP3    H238400   1.589   3.262  12.303 -0.2953 -0.5247 -1.0251
 5637TIP3   OH238401   2.019   0.461   5.194 -0.2259  0.0129  0.3505
 5637TIP3    H138402   1.962   0.388   5.170 -1.3635  1.3595 -1.3068
 5637TIP3    H238403   1.959   0.534   5.211  0.8966  0.6789  1.6244
 5638TIP3   OH238404   5.603   3.374   5.892 -0.1316 -0.2936 -0.3705
 5638TIP3    H138405   5.696   3.361   5.870 -0.0949 -0.3687 -0.1787
 5638TIP3    H238406   5.560   3.391   5.808 -0.1337 -1.3996 -0.6028
 5639TIP3   OH238407   1.652   5.913   1.644 -0.7518  0.0319 -0.1838
 5639TIP3    H138408   1.729   5.858   1.651 -0.3127  0.7669  1.0976
 5639TIP3    H238409   1.585   5.856   1.604  0.2112 -0.8308 -0.6131
 5640TIP3   OH238410   3.969   1.134   0.328 -0.0115 -0.0731  0.1291
 5640TIP3    H138411   3.965   1.091   0.242  0.2790  0.8949 -0.3868
 5640TIP3    H238412   4.038   1.200   0.319 -0.5138  0.5729  0.8533
 5641TIP3   OH238413   6.799   5.368   0.937 -0.1761  0.1287 -1.2984
 5641TIP3    H138414   6.721   5.334   0.893 -0.8566  1.5623 -1.2688
 5641TIP3    H238415   6.765   5.416   1.013  0.9782 -2.1952  0.8011
 5642TIP3   OH238416   1.643   0.098  14.572  0.3067 -0.2380 -0.5035
 5642TIP3    H138417   1.555   0.119  14.605  0.2431 -0.2490 -0.6616
 5642TIP3    H238418   1.656   0.160  14.500  0.8122  0.3871  0.1158
 5643TIP3   OH238419   2.303   0.241  10.631  0.1837  0.2112  0.4847
 5643TIP3    H138420   2.354   0.276  10.558  1.6777  0.1512  1.4541
 5643TIP3    H238421   2.313   0.146  10.623  0.0410  0.1916  0.5464
 5644TIP3   OH238422   5.980   1.952   2.886 -0.0184  0.1972 -0.3991
 5644TIP3    H138423   5.992   1.973   2.793  0.9722  2.1485  0.1203
 5644TIP3    H238424   5.936   1.867   2.885 -1.7128  0.9845 -2.6794
 5645TIP3   OH238425   5.329   4.827   1.187 -0.4709 -0.2017 -0.5675
 5645TIP3    H138426   5.421   4.849   1.170  0.0385 -1.0265  1.0132
 5645TIP3    H238427   5.326   4.732   1.184 -0.3203 -0.5087  3.4980
 5646TIP3   OH238428   1.980   4.880   0.146 -0.4783  0.0091  0.3023
 5646TIP3    H138429   2.025   4.811   0.097  0.4969  0.0826  1.0663
 5646TIP3    H238430   1.985   4.852   0.237 -1.9293  0.0715  0.4144
 5647TIP3   OH238431   2.364   0.329   3.865 -0.2611 -0.1414  0.1504
 5647TIP3    H138432   2.334   0.282   3.942  0.6836  0.0815  0.6626
 5647TIP3    H238433   2.328   0.280   3.791 -0.9811 -0.4843  0.7158
 5648TIP3   OH238434   5.175   2.209  14.169 -0.3001 -0.3933 -0.4463
 5648TIP3    H138435   5.170   2.117  14.142  0.3998 -0.1731 -1.3739
 5648TIP3    H238436   5.145   2.258  14.092 -0.4656  0.1649 -0.0311
 5649TIP3   OH238437   0.705   5.362  12.445  0.1989  0.4268 -0.1492
 5649TIP3    H138438   0.746   5.443  12.474  0.0269 -0.1777  1.8913
 5649TIP3    H238439   0.762   5.293  12.478 -1.3202 -0.3655  0.9100
 5650TIP3   OH238440   3.104   2.072   3.095 -0.0353 -0.3648  0.1656
 5650TIP3    H138441   3.150   2.026   3.025  0.6424 -0.6903  0.8142
 5650TIP3    H238442   3.100   2.163   3.065 -0.3590 -0.6207 -0.5970
 5651TIP3   OH238443   3.451   0.509  12.176 -0.3634 -0.8774  0.0054
 5651TIP3    H138444   3.459   0.477  12.266 -0.2086  1.1062  0.7338
 5651TIP3    H238445   3.383   0.577  12.181  0.9193  0.5227 -0.9891
 5652TIP3   OH238446   6.136   0.585  16.082 -0.6554 -0.1679 -0.7830
 5652TIP3    H138447   6.214   0.543  16.118 -0.4364  0.7150 -0.1841
 5652TIP3    H238448   6.144   0.677  16.108 -2.0252 -0.1066 -0.4864
 5653TIP3   OH238449   2.988   2.272  15.521  0.0780  0.2591  0.3307
 5653TIP3    H138450   2.970   2.287  15.614  0.5187  1.7054  0.2111
 5653TIP3    H238451   2.949   2.348  15.477 -0.9414 -0.8598 -0.7836
 5654TIP3   OH238452   1.995   5.343   4.929 -0.1763 -0.8144 -0.4149
 5654TIP3    H138453   2.055   5.410   4.961 -1.1239 -0.6466  1.1028
 5654TIP3    H238454   2.041   5.303   4.855  1.4541 -0.1531  0.1949
 5655TIP3   OH238455   6.785   1.934  13.030 -0.0372  0.1642  0.2199
 5655TIP3    H138456   6.871   1.901  13.003 -0.7553 -1.2571 -0.4408
 5655TIP3    H238457   6.723   1.881  12.981 -1.3182  0.5373  1.3785
 5656TIP3   OH238458   6.176   5.032  16.697  0.1693 -0.2441  0.2636
 5656TIP3    H138459   6.224   5.062  16.620 -0.0940 -0.5220 -0.0132
 5656TIP3    H238460   6.173   5.108  16.754 -0.9950  0.4721 -0.6853
 5657TIP3   OH238461   5.650   6.467   3.690 -0.2950 -0.5449  0.4766
 5657TIP3    H138462   5.731   6.432   3.651 -0.8756 -2.2677  0.7168
 5657TIP3    H238463   5.596   6.491   3.615 -0.3210 -1.2424  0.2652
 5658TIP3   OH238464   6.135   1.182   2.633  0.8214  0.2151 -0.0254
 5658TIP3    H138465   6.230   1.188   2.623  0.7314  0.3719 -0.8577
 5658TIP3    H238466   6.117   1.088   2.640  0.8653  0.0122 -1.9576
 5659TIP3   OH238467   6.308   0.548  13.751 -0.4007 -0.4932 -0.4653
 5659TIP3    H138468   6.392   0.576  13.788 -0.3079 -0.6320 -0.5716
 5659TIP3    H238469   6.273   0.487  13.816 -1.1511  0.7514  0.3376
 5660TIP3   OH238470   1.252   4.260   5.041 -0.4294 -0.1232 -0.1836
 5660TIP3    H138471   1.286   4.173   5.061 -1.0732 -0.9951 -2.6149
 5660TIP3    H238472   1.166   4.245   5.003 -0.7017  1.6193 -0.3508
 5661TIP3   OH238473   0.723   0.029   5.957  0.1815 -0.1041  0.5552
 5661TIP3    H138474   0.787   0.100   5.964  0.2459 -0.1710  0.6395
 5661TIP3    H238475   0.734  -0.022   6.037 -0.0551 -0.0520  0.6209
 5662TIP3   OH238476   5.502   2.842   1.484  0.3925 -0.0173 -0.5793
 5662TIP3    H138477   5.472   2.752   1.495  1.4941 -0.4647 -1.0450
 5662TIP3    H238478   5.570   2.836   1.417  2.4450  0.6847  1.2951
 5663TIP3   OH238479   2.032   6.004  17.133  0.5262  0.1305  0.7922
 5663TIP3    H138480   1.952   6.001  17.184  0.3366 -0.6518  0.4591
 5663TIP3    H238481   2.086   5.933  17.166  0.8176  0.2433  0.5780
 5664TIP3   OH238482   1.672   1.809  10.653  0.7390 -0.0652 -0.1314
 5664TIP3    H138483   1.582   1.789  10.678  0.4492 -0.3926 -1.3733
 5664TIP3    H238484   1.714   1.724  10.644  1.5492  0.1024  1.6545
 5665TIP3   OH238485   5.033   1.249   5.382  0.1986 -0.1921 -0.0038
 5665TIP3    H138486   4.981   1.191   5.327  0.5069  0.4347 -0.9656
 5665TIP3    H238487   4.991   1.243   5.468  0.3741 -2.0238  0.0026
 5666TIP3   OH238488   5.331   0.565   1.401 -0.7747  0.1426  0.5747
 5666TIP3    H138489   5.307   0.596   1.488 -1.6159 -0.6429  0.6362
 5666TIP3    H238490   5.318   0.640   1.344  0.7893  0.9759  1.2702
 5667TIP3   OH238491   3.045   1.310   5.644  0.1545  0.7949 -0.3221
 5667TIP3    H138492   3.065   1.295   5.552 -0.3770  0.1269 -0.3317
 5667TIP3    H238493   3.128   1.297   5.689 -0.1144 -1.6043 -0.4013
 5668TIP3   OH238494   0.475   2.677  15.535 -0.2544  0.0964  0.0040
 5668TIP3    H138495   0.513   2.652  15.450  0.1870  1.9222 -0.3739
 5668TIP3    H238496   0.534   2.744  15.568  0.1550 -1.2890  2.2743
 5669TIP3   OH238497   5.510   2.241   1.549 -0.4762 -0.9012 -0.2376
 5669TIP3    H138498   5.576   2.173   1.564  0.4252 -0.4146 -1.7494
 5669TIP3    H238499   5.560   2.321   1.533 -1.5125  0.1022  1.2621
 5670TIP3   OH238500   6.808   2.898   2.831 -0.5053  0.3063 -0.0371
 5670TIP3    H138501   6.866   2.890   2.754 -0.9093 -0.8467 -0.2392
 5670TIP3    H238502   6.807   2.810   2.869 -0.7671  0.7382  0.9687
 5671TIP3   OH238503   5.403   1.477  13.449  0.3969  0.8200 -0.7410
 5671TIP3    H138504   5.472   1.531  13.410  0.9139  0.4867 -0.2944
 5671TIP3    H238505   5.438   1.388  13.447  0.1934  0.7193 -0.0372
 5672TIP3   OH238506   0.593   4.444  13.027  0.0323  0.2909 -0.0121
 5672TIP3    H138507   0.551   4.457  13.112 -0.8371 -0.6042 -0.2907
 5672TIP3    H238508   0.605   4.533  12.993  0.5268  0.6709  1.0891
 5673TIP3   OH238509   3.300   4.194   5.868  0.1499 -0.1664 -0.1595
 5673TIP3    H138510   3.392   4.186   5.845  0.3590 -0.0474  0.6302
 5673TIP3    H238511   3.295   4.162   5.958 -0.6962 -0.8491 -0.4283
 5674TIP3   OH238512   2.018   5.511  14.990 -0.5226 -0.1078 -0.2582
 5674TIP3    H138513   2.000   5.604  14.975  1.1182  0.0706 -1.3383
 5674TIP3    H238514   2.101   5.495  14.945 -1.2064 -2.3041 -0.8728
 5675TIP3   OH238515   1.050   3.187  15.383 -0.3492  0.3907 -0.3536
 5675TIP3    H138516   0.997   3.222  15.311 -1.3820  0.0098  0.2004
 5675TIP3    H238517   0.994   3.195  15.460  0.0161 -0.9477  0.0764
 5676TIP3   OH238518   0.086   4.462   3.590  0.4431 -0.0414 -0.4765
 5676TIP3    H138519  -0.007   4.468   3.612  0.6233  0.1140  0.3084
 5676TIP3    H238520   0.130   4.486   3.672  1.1644  2.1298 -1.4146
 5677TIP3   OH238521   1.634   4.378  13.336  0.2699 -0.2058  0.3189
 5677TIP3    H138522   1.718   4.423  13.334  0.3354 -0.3469 -0.2625
 5677TIP3    H238523   1.652   4.293  13.374  0.7976 -1.0254 -1.6174
 5678TIP3   OH238524   0.938   1.521   3.466  0.1666 -0.2966 -0.2440
 5678TIP3    H138525   0.913   1.428   3.465  0.8012 -0.5266  1.3629
 5678TIP3    H238526   1.034   1.519   3.467  0.2054  0.2622  2.0131
 5679TIP3   OH238527   0.441   5.519  12.258 -0.3225  0.5036  0.3570
 5679TIP3    H138528   0.504   5.455  12.291 -2.7084 -1.4019  1.5270
 5679TIP3    H238529   0.357   5.492  12.295 -1.9719  2.5611 -1.5742
 5680TIP3   OH238530   0.218   2.443   5.770 -1.1973 -0.3446  0.3474
 5680TIP3    H138531   0.246   2.459   5.860 -0.1682 -1.1326  0.1838
 5680TIP3    H238532   0.299   2.431   5.721 -1.7636 -0.5531 -0.5644
 5681TIP3   OH238533   0.127   1.528  16.657 -0.5375 -0.3406  0.0970
 5681TIP3    H138534   0.090   1.553  16.572 -0.3008 -0.4384 -0.0370
 5681TIP3    H238535   0.057   1.481  16.701 -1.0620  0.7405  0.4340
 5682TIP3   OH238536   1.155   2.856  15.023 -0.0871 -0.3416  0.1336
 5682TIP3    H138537   1.217   2.814  14.962  0.9594  0.4881  0.5908
 5682TIP3    H238538   1.210   2.912  15.077 -1.4512  1.7275 -0.5273
 5683TIP3   OH238539   5.243   2.663   4.534  0.0098  0.0113  0.0097
 5683TIP3    H138540   5.236   2.752   4.500 -0.8508 -0.4935 -1.2029
 5683TIP3    H238541   5.212   2.668   4.624 -0.5755  0.8367 -0.2310
 5684TIP3   OH238542   4.745   3.860  15.439 -0.5521 -0.0311  0.5008
 5684TIP3    H138543   4.671   3.896  15.389 -1.0310  1.3581  2.1242
 5684TIP3    H238544   4.710   3.846  15.527  0.3645 -2.0996  0.5859
 5685TIP3   OH238545   6.337   1.210   4.259 -0.6678 -0.1090  0.1211
 5685TIP3    H138546   6.275   1.266   4.304 -1.6921 -0.3131 -0.9762
 5685TIP3    H238547   6.292   1.126   4.250 -0.6112 -0.0072 -1.4546
 5686TIP3   OH238548   5.133   0.458   4.860 -0.2589 -0.2780 -0.4375
 5686TIP3    H138549   5.224   0.431   4.875 -1.0114 -2.3701  0.8000
 5686TIP3    H238550   5.115   0.427   4.771 -0.2936 -1.5715 -0.0019
 5687TIP3   OH238551   6.080   6.327  12.759 -0.2115  0.0108 -0.0738
 5687TIP3    H138552   6.022   6.373  12.820  2.1050  1.6314  1.0491
 5687TIP3    H238553   6.064   6.234  12.776 -1.2047  0.4109  1.4354
 5688TIP3   OH238554   3.732   3.177   3.399 -0.4152 -0.3051  0.5329
 5688TIP3    H138555   3.713   3.123   3.476 -1.7051 -0.2629  0.2686
 5688TIP3    H238556   3.753   3.263   3.434  1.9348 -1.0012  0.9805
 5689TIP3   OH238557   4.683   3.592   4.477 -0.3616  0.0980 -0.1853
 5689TIP3    H138558   4.665   3.676   4.435 -0.1639  1.1782  1.7808
 5689TIP3    H238559   4.685   3.611   4.570  1.3593 -1.7741  0.2441
 5690TIP3   OH238560   5.201   4.242   5.060  0.2936 -0.0909  0.5379
 5690TIP3    H138561   5.168   4.288   4.983  1.0264 -2.3536 -1.2625
 5690TIP3    H238562   5.123   4.207   5.103 -0.3062  2.9786  2.1714
 5691TIP3   OH238563   6.066   1.638   4.528  0.3000  0.2195  0.3926
 5691TIP3    H138564   6.075   1.700   4.600 -0.8472 -0.3457  1.0605
 5691TIP3    H238565   6.050   1.693   4.451 -0.1325  0.7880  0.8727
 5692TIP3   OH238566   3.346   6.553  13.021  0.1425  0.4572 -0.3597
 5692TIP3    H138567   3.398   6.511  13.090  0.3415  1.8976  0.4112
 5692TIP3    H238568   3.255   6.540  13.048  0.2196  1.0128  0.1945
 5693TIP3   OH238569   5.676   5.728  11.851  0.7459 -0.1895 -0.1577
 5693TIP3    H138570   5.668   5.682  11.767  0.8203 -0.8231  0.1741
 5693TIP3    H238571   5.769   5.729  11.869  0.6754 -0.7760  0.2962
 5694TIP3   OH238572   4.420   0.878  12.769  0.0143  0.8283  0.2361
 5694TIP3    H138573   4.461   0.814  12.829 -0.9345  1.5066  1.6722
 5694TIP3    H238574   4.333   0.842  12.752  0.8312 -0.2060 -2.1675
 5695TIP3   OH238575   4.132   4.056  10.603 -0.1088 -0.8721  0.4309
 5695TIP3    H138576   4.182   4.125  10.560 -0.6496  0.9316  2.5266
 5695TIP3    H238577   4.192   3.981  10.605  0.0197 -1.0191 -3.1030
 5696TIP3   OH238578   2.568   0.418   2.599  0.2932  0.0833  0.1496
 5696TIP3    H138579   2.536   0.393   2.512 -0.2683  1.0371  0.0674
 5696TIP3    H238580   2.661   0.395   2.597  0.5520  1.0684 -1.1060
 5697TIP3   OH238581   3.575   4.630  16.336  0.3579  0.2271  0.2399
 5697TIP3    H138582   3.590   4.722  16.313  0.2474  0.2784  0.3722
 5697TIP3    H238583   3.610   4.622  16.425  3.0559 -0.5624 -0.7837
 5698TIP3   OH238584   1.945   3.304   5.118  0.2384  0.3507 -0.4959
 5698TIP3    H138585   1.910   3.255   5.044  0.6480 -0.6550 -0.0414
 5698TIP3    H238586   1.868   3.344   5.159 -0.5031 -2.1226  0.7051
 5699TIP3   OH238587   4.682   5.029   2.604 -0.3837  0.0492  0.4291
 5699TIP3    H138588   4.720   4.943   2.622 -2.6732 -1.4398 -1.1327
 5699TIP3    H238589   4.625   5.047   2.679 -0.6328 -0.2929  0.3272
 5700TIP3   OH238590   4.592   0.423  15.531 -0.1329  0.0758 -0.1017
 5700TIP3    H138591   4.537   0.453  15.459  0.4688  0.6687 -0.3220
 5700TIP3    H238592   4.572   0.482  15.603 -2.8320 -2.1575  1.2201
 5701TIP3   OH238593   4.981   5.445   2.700  0.6672 -0.2330 -0.7560
 5701TIP3    H138594   5.046   5.506   2.668 -1.2707  1.5623 -1.5250
 5701TIP3    H238595   4.984   5.371   2.640  0.3201  0.9713 -2.3268
 5702TIP3   OH238596   3.798   5.991   4.946  0.6001 -0.2115  0.0345
 5702TIP3    H138597   3.795   5.984   4.851  0.1139  1.4280 -0.1001
 5702TIP3    H238598   3.729   5.932   4.977  1.4478 -1.5579 -0.5421
 5703TIP3   OH238599   2.179   5.629  12.354  0.0631  0.4435  0.7368
 5703TIP3    H138600   2.243   5.590  12.295 -0.3579 -1.0193  1.2065
 5703TIP3    H238601   2.220   5.710  12.385  0.8335  0.5432 -0.5075
 5704TIP3   OH238602   4.815   4.887   4.796  0.0524 -0.1997 -0.3414
 5704TIP3    H138603   4.744   4.829   4.822 -1.2384  0.8260 -1.4252
 5704TIP3    H238604   4.813   4.887   4.700  2.1017 -0.8148 -0.4467
 5705TIP3   OH238605   4.390   2.145  16.230 -0.1852  0.2077 -0.4299
 5705TIP3    H138606   4.315   2.110  16.181  0.1780  0.2553 -1.0330
 5705TIP3    H238607   4.380   2.109  16.318 -1.8708  1.5870 -0.0045
 5706TIP3   OH238608   0.017   0.038  10.673 -0.0183  0.1348 -0.0931
 5706TIP3    H138609   0.027   0.132  10.656  2.4298  0.3322  1.8107
 5706TIP3    H238610  -0.077   0.027  10.689 -0.2278  2.5266  0.8554
 5707TIP3   OH238611   0.484   2.926  13.154  0.1979 -0.0467 -0.4403
 5707TIP3    H138612   0.428   2.972  13.217 -0.5019 -0.9752 -0.3459
 5707TIP3    H238613   0.548   2.880  13.209 -0.2189 -0.6067 -0.4141
 5708TIP3   OH238614   1.836   2.195   2.248  0.1190 -0.3330  0.0464
 5708TIP3    H138615   1.923   2.155   2.241 -0.2785 -0.9978 -1.7584
 5708TIP3    H238616   1.787   2.157   2.175 -1.4639  0.5988  0.5827
 5709TIP3   OH238617   4.772   3.088   4.058 -0.5096  0.4343  0.1933
 5709TIP3    H138618   4.687   3.044   4.066 -0.5668  0.4459 -0.3683
 5709TIP3    H238619   4.752   3.175   4.025 -0.3141  0.5926  0.4841
 5710TIP3   OH238620   4.063   1.814   5.388  0.0176 -0.4689  0.0102
 5710TIP3    H138621   4.069   1.901   5.349 -0.5533 -0.2594  0.3843
 5710TIP3    H238622   4.093   1.755   5.319 -0.5229 -0.0666 -0.5774
 5711TIP3   OH238623   4.098   2.866  13.260  0.5079 -0.0111  0.2742
 5711TIP3    H138624   4.065   2.783  13.294 -0.2696 -0.9194 -2.4620
 5711TIP3    H238625   4.021   2.911  13.227  0.7776  2.3303  2.5432
 5712TIP3   OH238626   2.802   1.701   2.292  0.0502 -0.0225 -0.4019
 5712TIP3    H138627   2.864   1.765   2.258  0.6520 -0.7282 -0.6863
 5712TIP3    H238628   2.720   1.749   2.302  1.1257  1.4771  1.9779
 5713TIP3   OH238629   5.943   4.866   5.329 -0.2609  0.1442 -0.0932
 5713TIP3    H138630   6.001   4.791   5.342 -0.6879 -0.1099  0.4123
 5713TIP3    H238631   5.994   4.942   5.357  0.5528  0.1868 -1.6200
 5714TIP3   OH238632   5.829   5.567   5.488  0.0196 -0.5654  0.0410
 5714TIP3    H138633   5.743   5.585   5.449  0.2527 -1.2837 -0.8090
 5714TIP3    H238634   5.814   5.575   5.583 -0.6599  0.7001 -0.1508
 5715TIP3   OH238635   0.405   1.798   3.231  0.1817 -0.1055  0.0029
 5715TIP3    H138636   0.423   1.803   3.325  1.2147  1.4405 -0.2451
 5715TIP3    H238637   0.343   1.868   3.214 -0.1993 -0.5420 -0.4439
 5716TIP3   OH238638   5.610   0.542  12.162 -0.4637 -0.0588  0.2231
 5716TIP3    H138639   5.642   0.600  12.093  1.2280 -0.8912  0.2501
 5716TIP3    H238640   5.638   0.454  12.134 -2.3736 -0.7998  0.5059
 5717TIP3   OH238641   2.904   3.980   3.184 -0.2767 -0.3283 -0.2637
 5717TIP3    H138642   2.876   3.919   3.116  0.1116 -1.0018  0.1748
 5717TIP3    H238643   2.993   4.005   3.159 -0.5192  0.2572 -0.5719
 5718TIP3   OH238644   5.054   2.644   5.377 -0.1913 -0.4233 -0.5132
 5718TIP3    H138645   5.104   2.712   5.423  0.9266 -1.2910 -0.3988
 5718TIP3    H238646   4.973   2.687   5.350  0.1667  0.7410  0.2204
 5719TIP3   OH238647   4.038   5.229   4.354 -0.1699 -1.0172  0.7453
 5719TIP3    H138648   3.990   5.154   4.389 -1.7761 -0.2975  0.1708
 5719TIP3    H238649   4.068   5.201   4.268 -0.4527 -1.1191  0.6809
 5720TIP3   OH238650   5.806   3.293  12.235  0.4112  0.1688 -0.1013
 5720TIP3    H138651   5.894   3.320  12.259  0.7293 -0.6495 -0.3271
 5720TIP3    H238652   5.749   3.359  12.275  1.0264 -0.1647  1.3718
 5721TIP3   OH238653   6.818   0.760   5.676  0.4431  0.0494 -0.1899
 5721TIP3    H138654   6.776   0.675   5.667  1.4381 -0.4318 -0.5043
 5721TIP3    H238655   6.890   0.758   5.612  1.8603  0.2534  1.3375
 5722TIP3   OH238656   0.978   0.106  15.066  0.3264  0.7550 -0.7183
 5722TIP3    H138657   1.034   0.151  15.002  1.2480  0.0984 -0.4022
 5722TIP3    H238658   1.026   0.026  15.086 -0.9104  0.0032 -0.6855
 5723TIP3   OH238659   5.278   1.994   1.605 -0.0642  0.1904 -0.3073
 5723TIP3    H138660   5.343   1.945   1.555  1.5146  1.9387 -0.1044
 5723TIP3    H238661   5.220   2.032   1.539 -0.8452 -1.2430 -0.4967
 5724TIP3   OH238662   3.208   0.021   0.531 -0.2851  0.3912 -0.0157
 5724TIP3    H138663   3.256   0.044   0.452  0.4698  1.4533  0.7175
 5724TIP3    H238664   3.148  -0.048   0.504  1.9240 -1.3048 -0.8750
 5725TIP3   OH238665   2.648   3.519   4.185  0.3028 -0.3569  0.2410
 5725TIP3    H138666   2.566   3.469   4.187  0.1437 -0.0953  0.4613
 5725TIP3    H238667   2.643   3.570   4.105 -0.7383  1.2617  1.2827
 5726TIP3   OH238668   2.918   2.452  12.737  0.5305 -1.2280  0.6014
 5726TIP3    H138669   2.924   2.466  12.832  1.1587  0.6049  0.3190
 5726TIP3    H238670   2.963   2.369  12.722 -0.4534 -2.0581  2.0115
 5727TIP3   OH238671   3.026   0.865  11.595  0.0246 -0.2434 -0.0670
 5727TIP3    H138672   3.052   0.869  11.503 -1.0092 -0.0004 -0.3617
 5727TIP3    H238673   3.025   0.772  11.616 -1.3037 -0.4207 -0.7907
 5728TIP3   OH238674   6.612   0.334  10.774 -0.4526  0.1866 -0.7453
 5728TIP3    H138675   6.700   0.371  10.767 -0.2667 -0.1422 -0.1972
 5728TIP3    H238676   6.581   0.330  10.684 -0.1089  0.7905 -0.8953
 5729TIP3   OH238677   6.596   0.713  15.633  0.0038 -0.2224 -0.0972
 5729TIP3    H138678   6.686   0.745  15.624  0.2247  0.1185  2.4996
 5729TIP3    H238679   6.549   0.787  15.671 -1.0949 -0.8068 -0.3044
 5730TIP3   OH238680   0.799   5.921   0.154  0.1485  0.6581 -0.5925
 5730TIP3    H138681   0.774   5.980   0.083  1.5975  2.3083  0.2176
 5730TIP3    H238682   0.863   5.970   0.205  1.4835 -1.6334  0.0805
 5731TIP3   OH238683   2.781   0.614  14.688 -0.0507 -0.0999  0.0851
 5731TIP3    H138684   2.807   0.527  14.659 -0.5672 -1.1486  2.4949
 5731TIP3    H238685   2.858   0.648  14.735 -0.1677  0.3463 -0.0356
 5732TIP3   OH238686   5.364   1.196  14.122  0.1334 -0.1393 -0.7754
 5732TIP3    H138687   5.344   1.242  14.204 -0.7903 -0.4333 -0.8203
 5732TIP3    H238688   5.442   1.239  14.088 -0.7694  1.4779 -0.8765
 5733TIP3   OH238689   3.803   5.482  11.225  0.0912  0.0118  0.1177
 5733TIP3    H138690   3.734   5.437  11.272 -1.8997  1.3021 -1.4069
 5733TIP3    H238691   3.825   5.424  11.152 -1.3339  0.7437 -0.9277
 5734TIP3   OH238692   3.250   4.158   2.783  0.3497 -0.0528 -0.6052
 5734TIP3    H138693   3.237   4.085   2.722 -0.3495 -0.9434  0.5685
 5734TIP3    H238694   3.278   4.117   2.865 -1.5722  0.8007  0.5661
 5735TIP3   OH238695   1.088   5.309  15.747  0.4649 -0.6098  0.1409
 5735TIP3    H138696   1.110   5.402  15.749 -0.4150 -0.3831 -0.0913
 5735TIP3    H238697   1.007   5.305  15.696  0.0888 -1.4194  0.7778
 5736TIP3   OH238698   3.082   1.675  13.200  0.2096  0.1611  0.3171
 5736TIP3    H138699   2.991   1.681  13.169  1.0287 -0.7302 -2.5468
 5736TIP3    H238700   3.088   1.588  13.240  0.0986 -0.3140 -0.6696
 5737TIP3   OH238701   2.636   4.458   1.001 -0.3720 -0.4776  0.1376
 5737TIP3    H138702   2.615   4.476   0.910  1.0451 -0.9518 -0.3127
 5737TIP3    H238703   2.623   4.542   1.045 -0.5031 -0.0957 -0.6120
 5738TIP3   OH238704   6.493   3.948   2.398 -0.1124  0.1039 -0.1737
 5738TIP3    H138705   6.451   3.992   2.324 -1.5880  0.8603  1.0671
 5738TIP3    H238706   6.542   4.016   2.443 -1.6124  0.3434  1.1925
 5739TIP3   OH238707   4.730   1.075   0.526 -0.5159  0.2077  0.6153
 5739TIP3    H138708   4.721   1.128   0.605  0.4821  2.6629 -0.7691
 5739TIP3    H238709   4.825   1.064   0.515 -0.5814  0.6760 -0.6391
 5740TIP3   OH238710   0.126   6.208  17.032 -0.2717 -0.5829 -0.1316
 5740TIP3    H138711   0.146   6.145  17.101  0.1073 -0.7633 -0.4051
 5740TIP3    H238712   0.195   6.274  17.038  1.1716 -1.8377 -1.8498
 5741TIP3   OH238713   5.959   1.913   4.452  0.2866 -0.2584 -0.1536
 5741TIP3    H138714   6.007   1.910   4.369 -0.1106 -2.5122 -0.3553
 5741TIP3    H238715   5.875   1.952   4.429  0.9523  1.1464 -0.3410
 5742TIP3   OH238716   4.583   0.025  13.261 -0.3577  0.4799 -0.0391
 5742TIP3    H138717   4.511   0.024  13.199 -1.7468  0.0154  1.5190
 5742TIP3    H238718   4.592   0.117  13.285 -0.2504  0.5709 -0.4159
 5743TIP3   OH238719   0.299   5.216   3.178 -0.4292  0.0768 -0.0204
 5743TIP3    H138720   0.297   5.144   3.241  0.0245 -0.1503 -0.2657
 5743TIP3    H238721   0.367   5.274   3.211 -0.6372  0.2830  0.0500
 5744TIP3   OH238722   6.200   6.780   3.513  0.2054 -0.5936  0.0114
 5744TIP3    H138723   6.170   6.831   3.588 -1.4095 -1.8273  0.2633
 5744TIP3    H238724   6.289   6.811   3.497 -0.1054  1.0598  1.2066
 5745TIP3   OH238725   5.327   5.008  12.449 -0.5998 -0.5372  0.7382
 5745TIP3    H138726   5.266   5.069  12.489  1.4494  2.3520 -0.2269
 5745TIP3    H238727   5.394   4.994  12.516  0.6012  0.9161 -0.0999
 5746TIP3   OH238728   1.147   4.532   1.922 -0.1659 -0.1935  0.4946
 5746TIP3    H138729   1.241   4.529   1.939  0.0513  1.8327 -0.1841
 5746TIP3    H238730   1.139   4.546   1.828 -1.2080 -1.6786  0.3162
 5747TIP3   OH238731   2.932   4.245  16.061 -0.1260  0.3550  0.4439
 5747TIP3    H138732   2.975   4.330  16.065  0.9057 -0.1928  1.6961
 5747TIP3    H238733   2.913   4.223  16.152  0.1740 -1.0093  0.2012
 5748TIP3   OH238734   6.103   3.721   5.790 -0.4760  1.0693 -0.2836
 5748TIP3    H138735   6.054   3.639   5.803 -3.6751  2.8203 -0.3549
 5748TIP3    H238736   6.140   3.712   5.702  0.9387 -1.0088  0.4240
 5749TIP3   OH238737   4.098   3.807   0.386 -0.1212  0.3881 -0.1141
 5749TIP3    H138738   4.177   3.781   0.340 -0.1712  0.0589 -0.0139
 5749TIP3    H238739   4.030   3.808   0.318  0.0156  0.9236 -0.2529
 5750TIP3   OH238740   0.596   0.502   4.815 -0.0600 -0.4520  0.0916
 5750TIP3    H138741   0.668   0.448   4.848 -0.6739 -1.4726 -0.1978
 5750TIP3    H238742   0.518   0.463   4.853 -0.4702  0.6916  0.4547
 5751TIP3   OH238743   1.219   5.712  11.755 -0.6409  0.4402 -0.5990
 5751TIP3    H138744   1.187   5.640  11.810  0.2295  0.1646 -0.4452
 5751TIP3    H238745   1.251   5.777  11.817  1.5422 -0.4132 -0.7352
 5752TIP3   OH238746   6.683   4.848   0.273 -0.8249 -0.6336  0.5471
 5752TIP3    H138747   6.771   4.832   0.306 -0.1625 -0.4692 -1.0378
 5752TIP3    H238748   6.663   4.938   0.301  0.4468  0.1683 -0.9395
 5753TIP3   OH238749   4.115   0.742   5.550  0.0857  0.3175  0.4103
 5753TIP3    H138750   4.098   0.835   5.533  0.7252  0.5098  0.7901
 5753TIP3    H238751   4.029   0.700   5.544 -0.0265  0.6954 -1.2235
 5754TIP3   OH238752   4.675   0.843  11.255 -0.0405  0.5977 -0.0065
 5754TIP3    H138753   4.756   0.812  11.295  0.5327  0.7236 -1.0302
 5754TIP3    H238754   4.619   0.766  11.251  0.0375  0.5025  0.6787
 5755TIP3   OH238755   4.171   2.962  15.667  0.5291  0.2005  0.0365
 5755TIP3    H138756   4.181   3.055  15.687 -1.3889  0.3390  0.5464
 5755TIP3    H238757   4.224   2.949  15.588  1.6214  1.4813  0.5111
 5756TIP3   OH238758   5.004   6.408  13.626  0.5503 -0.6440  0.2256
 5756TIP3    H138759   4.933   6.438  13.569  0.1913 -1.8742 -0.0016
 5756TIP3    H238760   5.037   6.329  13.584 -0.3120 -2.1127  2.1297
 5757TIP3   OH238761   2.919   0.611  12.295 -0.0035  0.4902  0.1437
 5757TIP3    H138762   2.916   0.647  12.206  1.8570 -0.8240 -0.5004
 5757TIP3    H238763   2.969   0.675  12.345  1.0024  0.1005 -0.3489
 5758TIP3   OH238764   2.795   6.397   5.227 -0.0636  0.6634  0.4358
 5758TIP3    H138765   2.759   6.417   5.141 -1.8817 -0.3662  0.8934
 5758TIP3    H238766   2.721   6.407   5.287  0.7041 -0.3919  1.6165
 5759TIP3   OH238767   4.947   2.105   1.657  0.2712  0.0953 -0.3915
 5759TIP3    H138768   5.027   2.106   1.709  1.2927 -0.1258 -1.8898
 5759TIP3    H238769   4.975   2.132   1.569 -1.4421  0.7885 -0.7677
 5760TIP3   OH238770   1.993   6.106  12.844  0.1628 -0.6806 -0.2454
 5760TIP3    H138771   2.018   6.189  12.886 -1.6177  0.3615 -1.0820
 5760TIP3    H238772   1.977   6.130  12.753 -1.3134 -1.7379 -0.2984
 5761TIP3   OH238773   2.891   1.542   0.755 -0.0337  0.0060 -0.1563
 5761TIP3    H138774   2.798   1.557   0.739  0.3522  0.8792 -1.7390
 5761TIP3    H238775   2.934   1.563   0.672  1.8088  1.7221  1.1246
 5762TIP3   OH238776   5.881   4.524   3.129  0.0564  0.1400 -0.4425
 5762TIP3    H138777   5.890   4.590   3.198 -2.9944  1.3765 -1.0504
 5762TIP3    H238778   5.842   4.572   3.055 -0.9987 -2.0617 -1.3884
 5763TIP3   OH238779   5.012   6.617   4.226  0.5001 -0.6544 -0.8210
 5763TIP3    H138780   5.030   6.589   4.137 -0.4294 -2.5971 -0.4430
 5763TIP3    H238781   4.917   6.625   4.230  0.4789 -1.2343  0.1660
 5764TIP3   OH238782   3.497   4.461   4.002  0.1334  0.5286  0.0200
 5764TIP3    H138783   3.573   4.433   4.054  1.0932 -0.4022 -1.7903
 5764TIP3    H238784   3.429   4.397   4.023  0.7117 -0.2073 -0.3094
 5765TIP3   OH238785   6.665   1.474  11.898 -0.3665 -0.0310 -0.4889
 5765TIP3    H138786   6.587   1.486  11.952 -0.5358 -0.8378 -0.5359
 5765TIP3    H238787   6.631   1.450  11.812 -0.1394  2.4276 -1.3309
 5766TIP3   OH238788   2.467   4.962  14.382 -0.4435 -0.6232  0.3429
 5766TIP3    H138789   2.439   5.054  14.375  0.1935 -0.1968  2.6041
 5766TIP3    H238790   2.554   4.966  14.421 -0.5750 -2.1987  0.8747
 5767TIP3   OH238791   6.684   0.602  13.490  0.0033  0.3942 -0.2206
 5767TIP3    H138792   6.721   0.687  13.518 -0.7650  0.1560  1.6594
 5767TIP3    H238793   6.613   0.626  13.431  0.4827  1.0199 -0.5622
 5768TIP3   OH238794   1.010   3.535  11.623 -0.6839 -0.0583 -0.2788
 5768TIP3    H138795   1.031   3.613  11.675 -1.6880 -0.1482  0.2831
 5768TIP3    H238796   0.919   3.516  11.644 -0.9332 -0.4513 -1.6404
 5769TIP3   OH238797   2.212   1.872   5.690  0.5139 -0.5880 -0.7188
 5769TIP3    H138798   2.305   1.857   5.708  0.2518 -0.1636  1.2661
 5769TIP3    H238799   2.167   1.838   5.768 -1.1337 -1.9322 -2.1586
 5770TIP3   OH238800   1.574   5.570   5.024  0.7761  0.0667  0.1059
 5770TIP3    H138801   1.626   5.639   5.066  0.0367  0.3717  0.5530
 5770TIP3    H238802   1.614   5.559   4.938 -0.9129  3.3165 -1.2748
 5771TIP3   OH238803   2.140   3.846  16.107 -0.1096 -0.3682  0.2798
 5771TIP3    H138804   2.199   3.791  16.158  2.3894  0.1813 -1.8177
 5771TIP3    H238805   2.159   3.935  16.136  0.7135 -0.1227 -0.9433
 5772TIP3   OH238806   0.242   5.184  16.815 -0.8254 -0.0125 -0.0756
 5772TIP3    H138807   0.195   5.101  16.823 -0.2678 -0.4823 -1.3349
 5772TIP3    H238808   0.294   5.175  16.735  0.6399  0.8682  0.7223
 5773TIP3   OH238809   3.026   0.900   0.596 -0.1976 -0.1171  0.2499
 5773TIP3    H138810   3.032   0.825   0.655 -0.2251 -0.7335 -0.5192
 5773TIP3    H238811   3.033   0.863   0.508  0.5750  0.8697 -0.1235
 5774TIP3   OH238812   2.066   4.626   0.127  0.2273 -0.3757  0.1709
 5774TIP3    H138813   2.121   4.590   0.058  1.5612  1.8768 -0.0666
 5774TIP3    H238814   1.980   4.588   0.112  0.8773 -1.2563 -1.6729
 5775TIP3   OH238815   6.341   6.164   0.230  0.9451  0.3240  0.1203
 5775TIP3    H138816   6.268   6.221   0.254  0.7469  0.0145  0.2616
 5775TIP3    H238817   6.299   6.087   0.192  1.2425  0.6545 -0.9054
 5776TIP3   OH238818   5.768   2.371  10.911  0.9008 -0.1949  0.3745
 5776TIP3    H138819   5.856   2.407  10.918 -0.2672  2.7702  1.7217
 5776TIP3    H238820   5.722   2.407  10.987 -1.7003 -0.9736 -0.7314
 5777TIP3   OH238821   5.351   5.460  14.152  0.5087  0.6769 -0.0544
 5777TIP3    H138822   5.393   5.389  14.103 -2.1224 -1.4005  0.4773
 5777TIP3    H238823   5.343   5.531  14.089  0.4378 -0.6188 -1.5552
 5778TIP3   OH238824   3.619   6.762   0.696 -0.0859 -0.1811 -0.0189
 5778TIP3    H138825   3.573   6.835   0.655 -1.3110 -0.2574  1.1584
 5778TIP3    H238826   3.666   6.721   0.624  0.8533  1.8952 -0.6707
 5779TIP3   OH238827   3.652   2.990   3.611 -0.0903  0.1956 -0.4641
 5779TIP3    H138828   3.628   2.898   3.608 -0.5833  0.3010  0.0994
 5779TIP3    H238829   3.743   2.989   3.641 -0.4394 -0.0750  0.6490
 5780TIP3   OH238830   4.031   2.120  13.220 -1.0130  0.7405  0.4647
 5780TIP3    H138831   4.014   2.047  13.160  0.3693  0.9154 -0.1878
 5780TIP3    H238832   4.046   2.079  13.305  0.2251  0.2195  0.0035
 5781TIP3   OH238833   2.119   1.991   2.885 -0.2228 -0.0045 -0.0997
 5781TIP3    H138834   2.125   1.982   2.980 -1.6253 -0.2255 -0.0171
 5781TIP3    H238835   2.175   1.921   2.851 -0.6007 -0.6441  0.5622
 5782TIP3   OH238836   0.051   5.888  14.156  0.5172  0.0049 -0.2737
 5782TIP3    H138837  -0.005   5.817  14.125  0.5522 -1.2042  2.2260
 5782TIP3    H238838   0.134   5.875  14.111  0.3685 -1.2861 -0.2031
 5783TIP3   OH238839   2.850   2.910   2.285  0.6092  0.3983 -0.1682
 5783TIP3    H138840   2.900   2.877   2.210  0.6296 -1.6857  0.7039
 5783TIP3    H238841   2.851   2.838   2.348  1.1985  2.3041  2.1624
 5784TIP3   OH238842   2.104   1.461   1.861  0.0704  0.5509  0.1999
 5784TIP3    H138843   2.081   1.506   1.943  0.0623  1.5521 -0.3352
 5784TIP3    H238844   2.188   1.499   1.836 -0.0971  0.5047 -0.4345
 5785TIP3   OH238845   4.482   1.794  16.033  0.1653  0.3173  0.2811
 5785TIP3    H138846   4.499   1.842  15.952 -0.4182  1.0225  0.5688
 5785TIP3    H238847   4.396   1.754  16.020  0.1277  0.3229  0.5022
 5786TIP3   OH238848   1.677   1.641  15.274 -0.2368 -0.2909  0.4616
 5786TIP3    H138849   1.682   1.733  15.302  0.4811 -1.0258  3.0569
 5786TIP3    H238850   1.642   1.645  15.185 -1.6214  2.4143  1.0046
 5787TIP3   OH238851   4.704   2.333   3.979 -0.3741 -0.6466 -0.6886
 5787TIP3    H138852   4.655   2.369   4.053 -0.3263 -0.6627 -0.6489
 5787TIP3    H238853   4.753   2.260   4.017 -0.8004 -1.0197 -0.8576
 5788TIP3   OH238854   6.190   1.455   4.034 -0.8617  0.5160 -0.0314
 5788TIP3    H138855   6.178   1.360   4.024  0.1377  0.6369 -3.2535
 5788TIP3    H238856   6.283   1.470   4.014 -1.0925  2.2434  0.0442
 5789TIP3   OH238857   6.212   4.618  12.198  0.4606 -0.2423  1.1731
 5789TIP3    H138858   6.225   4.712  12.214 -0.5936 -0.2521  2.2293
 5789TIP3    H238859   6.127   4.599  12.238  0.3212 -1.5013  0.3096
 5790TIP3   OH238860   2.854   2.229  12.442  0.1669 -0.0159  0.1631
 5790TIP3    H138861   2.889   2.161  12.385 -1.3212 -0.5444 -0.1853
 5790TIP3    H238862   2.909   2.306  12.426  1.1783 -0.8155 -0.2716
 5791TIP3   OH238863   0.267   2.023  12.921  0.1073 -0.8556 -0.2056
 5791TIP3    H138864   0.253   1.931  12.946 -0.0515 -0.7217  0.2241
 5791TIP3    H238865   0.350   2.047  12.963 -0.0894 -0.6698  0.0899
 5792TIP3   OH238866   2.535   6.298   1.975  0.3734  0.0179 -0.3990
 5792TIP3    H138867   2.564   6.376   2.024  1.4571 -0.5420 -0.1269
 5792TIP3    H238868   2.553   6.320   1.883 -0.7551  0.6837 -0.4785
 5793TIP3   OH238869   4.592   5.083  14.045  0.0548 -0.0348 -0.7561
 5793TIP3    H138870   4.569   5.121  13.960 -0.3878  1.7602  0.1031
 5793TIP3    H238871   4.605   5.159  14.102 -3.3099 -1.0950  1.7366
 5794TIP3   OH238872   0.835   0.286   0.460  0.3938 -0.5363  0.0441
 5794TIP3    H138873   0.876   0.212   0.414  0.4209  0.1917 -1.1252
 5794TIP3    H238874   0.894   0.360   0.444 -0.6983  0.2238 -0.5575
 5795TIP3   OH238875   5.703   2.880   0.280 -0.1574 -0.4259 -0.5397
 5795TIP3    H138876   5.676   2.800   0.325  0.1004  0.2381  0.8385
 5795TIP3    H238877   5.798   2.880   0.286 -0.1944  1.8836  3.0757
 5796TIP3   OH238878   0.739   4.149   2.080  0.6493  0.1970 -0.2632
 5796TIP3    H138879   0.745   4.197   2.163  2.5156  2.5494 -1.6225
 5796TIP3    H238880   0.830   4.127   2.058  0.4070  1.1483 -2.4657
 5797TIP3   OH238881   1.043   3.541  12.045  0.0467  0.3833  0.1877
 5797TIP3    H138882   1.077   3.577  11.963 -0.8876  2.6574  0.7375
 5797TIP3    H238883   1.032   3.617  12.102 -2.2978 -0.7399  1.3493
 5798TIP3   OH238884   1.525   2.149  15.689 -0.1124 -0.3212 -0.2394
 5798TIP3    H138885   1.464   2.147  15.614 -0.6946  0.3447  0.2059
 5798TIP3    H238886   1.565   2.235  15.685 -0.5023 -0.0971  0.4884
 5799TIP3   OH238887   5.440   6.586  10.861  0.0469 -0.9176  0.3833
 5799TIP3    H138888   5.530   6.572  10.892 -0.5431 -2.2084  1.6342
 5799TIP3    H238889   5.406   6.655  10.918 -0.0412 -1.0508  0.4904
 5800TIP3   OH238890   4.292   4.664  15.218 -0.2960  0.1069  0.4137
 5800TIP3    H138891   4.261   4.683  15.307 -0.2820 -0.0935  0.4615
 5800TIP3    H238892   4.356   4.733  15.200  0.8197 -0.7040  1.1368
 5801TIP3   OH238893   0.876   3.632  14.280 -0.3125  0.3897  0.3177
 5801TIP3    H138894   0.869   3.727  14.289 -2.0001  0.6259 -2.3803
 5801TIP3    H238895   0.969   3.613  14.295 -0.1457  2.2349  2.1138
 5802TIP3   OH238896   1.569   0.574  11.456  0.0229 -0.3489  0.0981
 5802TIP3    H138897   1.644   0.560  11.513 -0.2984 -1.0573  0.3565
 5802TIP3    H238898   1.509   0.503  11.477 -0.7861  0.2903 -0.0016
 5803TIP3   OH238899   3.542   4.125   5.769  0.2898 -0.9334  0.2144
 5803TIP3    H138900   3.621   4.144   5.717 -0.5131 -1.1013 -1.1115
 5803TIP3    H238901   3.540   4.030   5.777 -0.1627 -0.9795 -0.3936
 5804TIP3   OH238902   0.209   6.166   5.372 -0.5458 -0.3404 -0.4060
 5804TIP3    H138903   0.146   6.119   5.317  1.3564 -3.3202 -0.1887
 5804TIP3    H238904   0.275   6.198   5.311 -2.2764  3.2346 -0.7034
 5805TIP3   OH238905   4.892   1.246   5.632 -0.3472  0.1914  0.2343
 5805TIP3    H138906   4.809   1.251   5.678  0.1439 -1.7587  1.4480
 5805TIP3    H238907   4.951   1.201   5.692  1.8663  2.1863 -0.2754
 5806TIP3   OH238908   5.397   0.798   6.371  0.2215 -0.1385  0.2424
 5806TIP3    H138909   5.491   0.815   6.380  0.2779 -0.7037  0.7066
 5806TIP3    H238910   5.382   0.801   6.277  0.7258 -0.1758  0.1560
 5807TIP3   OH238911   0.842   1.828   3.500  0.6997 -0.0651  0.0466
 5807TIP3    H138912   0.913   1.764   3.494 -1.6412 -2.7054 -1.7658
 5807TIP3    H238913   0.803   1.813   3.587  0.5259 -0.6998 -0.1395
 5808TIP3   OH238914   6.496   4.890   2.699 -0.5769 -0.8857 -0.8232
 5808TIP3    H138915   6.531   4.805   2.672 -0.8010 -0.9504 -0.9161
 5808TIP3    H238916   6.406   4.871   2.725 -0.4563 -0.7697 -0.3171
 5809TIP3   OH238917   1.375   0.382   3.615  0.3443 -0.1189 -0.1795
 5809TIP3    H138918   1.360   0.384   3.710 -1.7269 -0.3367 -0.4551
 5809TIP3    H238919   1.351   0.470   3.586  1.2247  0.0251 -0.4816
 5810TIP3   OH238920   6.746   2.621  14.153  0.4905 -0.2670 -0.2945
 5810TIP3    H138921   6.712   2.637  14.241  0.2798  0.3171 -0.4758
 5810TIP3    H238922   6.829   2.671  14.150 -0.2828  1.0408 -0.9406
 5811TIP3   OH238923   5.924   0.813   6.435 -0.0823 -0.6269 -0.0434
 5811TIP3    H138924   5.900   0.768   6.516 -0.5377 -0.0662  0.1336
 5811TIP3    H238925   5.913   0.747   6.367  1.1251 -1.3669  0.4371
 5812TIP3   OH238926   4.251   0.027   5.898  0.3320 -0.0566 -0.5672
 5812TIP3    H138927   4.296   0.081   5.963  1.2984  0.3117 -1.5082
 5812TIP3    H238928   4.254   0.080   5.818 -1.1604 -0.3396 -0.8277
 5813TIP3   OH238929   3.443   2.617   6.377 -0.2477 -0.0876  0.0834
 5813TIP3    H138930   3.363   2.573   6.406 -0.5428 -2.0890 -3.2576
 5813TIP3    H238931   3.413   2.704   6.351 -0.7636  0.1485  1.3576
 5814TIP3   OH238932   2.197   5.100  11.237 -0.4182  0.0077 -0.5509
 5814TIP3    H138933   2.149   5.080  11.156 -0.8914 -1.7036  0.1006
 5814TIP3    H238934   2.135   5.149  11.290 -0.0813  1.2048 -1.2168
 5815TIP3   OH238935   4.959   3.606   1.518 -0.3185  0.4766  0.7200
 5815TIP3    H138936   4.944   3.701   1.516  3.1374  1.1781  0.6948
 5815TIP3    H238937   4.993   3.585   1.431  0.0837 -0.5233  1.1000
 5816TIP3   OH238938   5.029   5.036  11.639  0.2022  0.0988  0.0967
 5816TIP3    H138939   5.098   4.971  11.626  0.0554 -0.0084 -0.1537
 5816TIP3    H238940   5.066   5.098  11.703  0.4434 -0.0799  0.1328
 5817TIP3   OH238941   2.592   5.807  12.081  0.2854  0.3999 -0.0663
 5817TIP3    H138942   2.573   5.733  12.023  1.0568 -0.1936  0.4146
 5817TIP3    H238943   2.642   5.768  12.153 -0.2396  1.2021  0.7572
 5818TIP3   OH238944   4.137   6.197   1.345  0.1492 -0.1814 -0.5321
 5818TIP3    H138945   4.071   6.196   1.276  0.4612  1.8244 -0.9150
 5818TIP3    H238946   4.157   6.105   1.361 -2.6438 -0.8511 -0.4638
 5819TIP3   OH238947   1.351   6.377   2.737  0.0296  0.1493  0.0564
 5819TIP3    H138948   1.370   6.298   2.788 -1.0935  0.4711  1.0308
 5819TIP3    H238949   1.264   6.361   2.700  0.2531  0.4948 -0.6365
 5820TIP3   OH238950   4.567   5.440   4.489 -0.2936  0.2187 -0.4813
 5820TIP3    H138951   4.492   5.499   4.483 -1.4353 -1.2754 -2.0069
 5820TIP3    H238952   4.536   5.366   4.541 -0.1249 -0.7201 -1.6708
 5821TIP3   OH238953   0.524   4.228   4.359 -0.0293 -0.0545  0.4507
 5821TIP3    H138954   0.524   4.242   4.454  0.5161 -1.3810  0.6758
 5821TIP3    H238955   0.446   4.173   4.344  0.5364 -0.8371  0.3186
 5822TIP3   OH238956   5.266   3.962  13.221  0.2661 -0.0692  0.0969
 5822TIP3    H138957   5.307   4.047  13.204 -0.6175  0.7166  1.6552
 5822TIP3    H238958   5.211   3.946  13.144  0.3144  0.8397 -0.1355
 5823TIP3   OH238959   4.298   6.131   3.749  0.1373  0.5159 -0.6128
 5823TIP3    H138960   4.210   6.141   3.713 -0.5843 -1.4611  0.4401
 5823TIP3    H238961   4.307   6.202   3.813 -1.4095 -0.2647  0.5267
 5824TIP3   OH238962   3.447   5.117   2.984  0.1714 -0.8775  0.4268
 5824TIP3    H138963   3.452   5.029   2.946 -0.8881 -0.8241  0.1555
 5824TIP3    H238964   3.480   5.106   3.073  1.1084 -1.3250  0.0470
 5825TIP3   OH238965   4.716   4.639  11.229 -0.0969 -0.1899  0.6703
 5825TIP3    H138966   4.688   4.661  11.318  0.8359 -0.7080  1.1071
 5825TIP3    H238967   4.739   4.546  11.233  1.3207  0.1092  0.2669
 5826TIP3   OH238968   1.186   2.700   5.211  0.0343  0.2806 -0.0551
 5826TIP3    H138969   1.199   2.649   5.131 -1.2614  0.1865 -0.2157
 5826TIP3    H238970   1.218   2.788   5.189  0.1376  0.1339 -0.5109
 5827TIP3   OH238971   4.652   3.458  16.095 -0.0860 -0.3746 -0.0103
 5827TIP3    H138972   4.728   3.477  16.150 -0.4615  1.1691  0.0246
 5827TIP3    H238973   4.624   3.371  16.122  0.9935 -0.5066  0.7633
 5828TIP3   OH238974   0.719   2.633   5.634 -0.2371  0.0321  0.0947
 5828TIP3    H138975   0.676   2.649   5.717 -0.7140 -0.9520  0.0577
 5828TIP3    H238976   0.812   2.621   5.656 -0.3927 -0.4190  0.5166
 5829TIP3   OH238977   6.682   3.445  13.374  0.1118 -0.2542 -0.6373
 5829TIP3    H138978   6.595   3.421  13.405 -0.1700  1.4074 -0.0457
 5829TIP3    H238979   6.682   3.541  13.375  2.0771 -0.2218 -0.2631
 5830TIP3   OH238980   4.508   0.579   4.590 -0.0728  0.2204  0.2535
 5830TIP3    H138981   4.453   0.579   4.512 -1.1240 -0.2396  0.9792
 5830TIP3    H238982   4.562   0.658   4.581  0.0072  0.0345 -1.0504
 5831TIP3   OH238983   4.755   3.647   0.073 -0.1265  0.3395 -0.2582
 5831TIP3    H138984   4.711   3.716   0.123  0.9116  0.4175  0.5974
 5831TIP3    H238985   4.837   3.688   0.044  0.7697 -0.6601  0.7270
 5832TIP3   OH238986   1.961   2.905  13.298  0.7557  0.0442 -0.2455
 5832TIP3    H138987   2.036   2.891  13.356  1.2119 -1.5382 -1.1538
 5832TIP3    H238988   1.983   2.857  13.218 -1.4798 -1.0450 -0.3039
 5833TIP3   OH238989   4.759   4.544   3.091  0.1477 -0.4735  0.3130
 5833TIP3    H138990   4.711   4.486   3.032  0.5306 -1.0718  0.5862
 5833TIP3    H238991   4.725   4.524   3.178 -1.0856  1.0566  0.2380
 5834TIP3   OH238992   5.744   2.113   5.460 -0.3374  0.1416  0.4392
 5834TIP3    H138993   5.727   2.200   5.424 -0.0162  0.5510  1.2411
 5834TIP3    H238994   5.709   2.053   5.395 -0.5827  0.8703 -0.1209
 5835TIP3   OH238995   0.084   2.853  15.693 -0.9971 -0.0352 -0.5461
 5835TIP3    H138996   0.138   2.789  15.647  0.9016  0.8909  0.2965
 5835TIP3    H238997   0.146   2.909  15.739 -2.7037  0.5249  1.2491
 5836TIP3   OH238998   4.663   6.245   1.004 -0.8063  0.0359  0.0577
 5836TIP3    H138999   4.691   6.268   1.093  1.2969  1.7903 -0.9595
 5836TIP3    H239000   4.700   6.157   0.989  2.8694  1.4937 -0.5347
 5837TIP3   OH239001   5.093   3.363   2.165 -0.3242 -0.0622 -0.5577
 5837TIP3    H139002   5.141   3.425   2.220 -1.2259  0.0866  0.0974
 5837TIP3    H239003   5.152   3.289   2.154  0.5303  0.6457 -0.8297
 5838TIP3   OH239004   0.302   6.563   5.391 -0.8339  0.1398  0.7056
 5838TIP3    H139005   0.306   6.475   5.354 -1.2976 -0.2872  1.6474
 5838TIP3    H239006   0.212   6.592   5.375 -0.3258  1.0039 -0.8135
 5839TIP3   OH239007   4.917   2.674   1.570  0.5833 -0.2957  0.5795
 5839TIP3    H139008   4.827   2.684   1.541  0.8132 -1.2109 -0.5562
 5839TIP3    H239009   4.966   2.655   1.489  1.5523 -1.2273  1.3546
 5840TIP3   OH239010   4.722   5.539  13.990 -0.0437 -0.2508 -0.3176
 5840TIP3    H139011   4.810   5.566  14.016 -0.1199  0.6414 -0.9416
 5840TIP3    H239012   4.670   5.546  14.070  0.0597  0.9823 -0.3472
 5841TIP3   OH239013   3.623   0.900   4.034  0.4233 -0.0874 -0.0299
 5841TIP3    H139014   3.629   0.868   4.124 -1.4058  1.4784  0.7160
 5841TIP3    H239015   3.541   0.864   4.001 -0.0646  1.1694 -0.2509
 5842TIP3   OH239016   3.577   0.964   4.681 -0.4137  0.4226  0.2000
 5842TIP3    H139017   3.489   0.991   4.656 -1.0012  0.3203  2.0166
 5842TIP3    H239018   3.568   0.931   4.770  1.6441  1.4703  0.8746
 5843TIP3   OH239019   1.469   1.737   2.414  0.7808 -0.0075  0.0342
 5843TIP3    H139020   1.531   1.669   2.389  3.1776  2.8096 -2.6267
 5843TIP3    H239021   1.489   1.757   2.505  2.4902 -0.4654 -0.2155
 5844TIP3   OH239022   2.734   3.835   0.047  0.4037  0.0319 -0.1232
 5844TIP3    H139023   2.809   3.809   0.101  0.4720  0.2356 -0.1181
 5844TIP3    H239024   2.771   3.890  -0.022  0.0926  1.3894  0.7456
 5845TIP3   OH239025   2.751   2.387   4.077  0.4545 -0.3393  0.2455
 5845TIP3    H139026   2.827   2.382   4.135  2.5372 -2.0883 -2.3908
 5845TIP3    H239027   2.718   2.297   4.073  0.1904 -0.2049 -1.0481
 5846TIP3   OH239028   1.739   4.921  16.199 -0.7210 -0.2759 -0.1438
 5846TIP3    H139029   1.738   5.013  16.174 -0.0303 -0.3639 -0.5224
 5846TIP3    H239030   1.731   4.922  16.294 -1.2040  0.1551 -0.1865
 5847TIP3   OH239031   0.635   2.351   4.191  0.2397 -0.4316  0.1753
 5847TIP3    H139032   0.623   2.375   4.283  0.3547 -0.6579  0.2516
 5847TIP3    H239033   0.634   2.255   4.191  2.2761 -0.4816  0.2268
 5848TIP3   OH239034   4.069   6.106  11.965 -0.0532  0.2890  0.4324
 5848TIP3    H139035   4.064   6.118  11.870  1.2663  1.1219  0.4370
 5848TIP3    H239036   4.056   6.194  12.000 -1.2533 -0.1324  1.0716
 5849TIP3   OH239037   0.246   0.037   3.894 -0.0058 -0.0451  0.5028
 5849TIP3    H139038   0.168   0.060   3.843 -0.2890 -1.2068  0.3755
 5849TIP3    H239039   0.293   0.120   3.905  0.6734  0.1293 -2.6324
 5850TIP3   OH239040   5.367   6.199   3.395 -0.1478 -0.8090 -0.9466
 5850TIP3    H139041   5.308   6.154   3.335  0.7756  0.1577 -2.6505
 5850TIP3    H239042   5.455   6.175   3.366  0.3424  0.8125 -0.9137
 5851TIP3   OH239043   3.046   0.424  12.626  0.0073 -0.1785  0.2178
 5851TIP3    H139044   2.963   0.453  12.589 -0.4637 -1.3225  0.3513
 5851TIP3    H239045   3.092   0.382  12.554  0.5779  0.6337  0.0903
 5852TIP3   OH239046   6.097   6.465  12.303  0.0249 -0.1265 -0.5709
 5852TIP3    H139047   6.150   6.476  12.224  3.4820  0.2887  1.6319
 5852TIP3    H239048   6.100   6.550  12.347 -1.4365 -0.4836  0.3137
 5853TIP3   OH239049   4.969   3.856  13.214 -0.1304  0.0663  0.3575
 5853TIP3    H139050   5.016   3.848  13.297 -0.0602  0.9609  0.4184
 5853TIP3    H239051   4.929   3.770  13.201 -0.1600 -0.0809  1.3284
 5854TIP3   OH239052   0.940   0.322   1.039  0.0532  0.2103  0.1989
 5854TIP3    H139053   0.940   0.324   0.943  1.4409  0.0103  0.1649
 5854TIP3    H239054   0.966   0.232   1.060  1.9388  0.8339  0.7075
 5855TIP3   OH239055   4.672   1.289   4.130 -0.1363 -0.5737  0.4830
 5855TIP3    H139056   4.766   1.301   4.127  0.0866 -2.2504 -0.5353
 5855TIP3    H239057   4.636   1.372   4.100  0.9612  0.3938  1.7405
 5856TIP3   OH239058   5.584   1.306  11.924 -0.4267 -0.0322  0.2964
 5856TIP3    H139059   5.494   1.325  11.952 -0.1035  0.4030  1.0420
 5856TIP3    H239060   5.634   1.382  11.951  0.0198  0.1266 -0.9110
 5857TIP3   OH239061   4.713   4.754  13.215 -0.3969  0.0612 -0.2841
 5857TIP3    H139062   4.696   4.663  13.237  1.9779 -0.2008  0.7808
 5857TIP3    H239063   4.735   4.795  13.299  1.5197  0.8596 -1.1208
 5858TIP3   OH239064   4.096   3.941  12.601  0.1093  0.3280  0.0591
 5858TIP3    H139065   4.091   4.022  12.652  2.4664 -0.0942  1.1150
 5858TIP3    H239066   4.100   3.872  12.666 -2.2718 -0.7629 -0.8342
 5859TIP3   OH239067   3.478   0.932   0.008  0.0216 -0.8088 -0.8233
 5859TIP3    H139068   3.564   0.931  -0.034 -0.8977 -1.3728 -2.7879
 5859TIP3    H239069   3.432   0.856  -0.029 -0.9450 -1.1965  1.0550
 5860TIP3   OH239070   4.434   1.537  14.779  0.4611  0.7847 -0.1917
 5860TIP3    H139071   4.355   1.572  14.737 -0.0682 -0.1586 -0.0168
 5860TIP3    H239072   4.445   1.450  14.740  0.0145 -0.0884  1.5518
 5861TIP3   OH239073   6.124   2.860  13.196  0.6650 -0.0806  0.1673
 5861TIP3    H139074   6.113   2.937  13.252 -1.0110  1.4898 -2.1236
 5861TIP3    H239075   6.216   2.863  13.170  0.0899  2.9979 -2.1478
 5862TIP3   OH239076   3.870   1.275   1.600  0.0252  0.0329 -0.1491
 5862TIP3    H139077   3.949   1.289   1.548 -0.3985 -0.0496 -0.8332
 5862TIP3    H239078   3.894   1.302   1.688  0.7760  0.1322 -0.3779
 5863TIP3   OH239079   4.527   0.344   3.286 -0.1424 -0.0943 -0.4225
 5863TIP3    H139080   4.575   0.424   3.266 -0.4312 -0.2128 -1.6741
 5863TIP3    H239081   4.435   0.366   3.272 -0.3594 -0.2367  0.6879
 5864TIP3   OH239082   5.351   3.614  11.152  0.1182 -0.4256 -0.0031
 5864TIP3    H139083   5.259   3.596  11.172  0.8128 -2.7072  1.5500
 5864TIP3    H239084   5.361   3.707  11.170 -1.9237 -0.0543 -0.4752
 5865TIP3   OH239085   2.332   6.509   1.742 -0.4324 -0.2362 -0.7068
 5865TIP3    H139086   2.355   6.420   1.767 -0.2942 -0.3941 -1.3736
 5865TIP3    H239087   2.249   6.501   1.695 -3.6103  0.6302  4.1038
 5866TIP3   OH239088   1.229   3.794   4.886 -0.6352 -0.7847  0.8732
 5866TIP3    H139089   1.203   3.745   4.964 -1.1879 -0.2147  1.0540
 5866TIP3    H239090   1.269   3.728   4.829  2.4745 -0.7568  2.7935
 5867TIP3   OH239091   2.950   6.012  13.885  0.2926 -0.2109  0.1365
 5867TIP3    H139092   3.021   6.033  13.945  1.1819 -0.2201 -0.8822
 5867TIP3    H239093   2.920   5.925  13.912  1.6545 -0.8471 -0.3050
 5868TIP3   OH239094   6.339   5.632   0.346 -0.0279  0.5232  0.1573
 5868TIP3    H139095   6.392   5.562   0.309  0.1837  0.4214  0.6449
 5868TIP3    H239096   6.332   5.610   0.439  0.0210  1.1303  0.3093
 5869TIP3   OH239097   1.012   4.148   3.041  0.1278  0.1200  0.6706
 5869TIP3    H139098   1.084   4.114   2.987  0.2714  1.6215 -0.1346
 5869TIP3    H239099   1.012   4.092   3.118  1.0509 -0.9945 -0.0976
 5870TIP3   OH239100   5.202   5.595  17.120 -0.9862 -0.8839  0.1544
 5870TIP3    H139101   5.254   5.532  17.169 -1.4340 -0.4676  1.2009
 5870TIP3    H239102   5.257   5.620  17.046  0.2572 -0.5625  1.1439
 5871TIP3   OH239103   1.600   3.996   6.322 -0.0126  0.0485  0.0810
 5871TIP3    H139104   1.637   3.916   6.284 -0.2895  0.1337 -0.3726
 5871TIP3    H239105   1.675   4.039   6.364 -0.1619 -1.2052  1.6798
 5872TIP3   OH239106   6.536   4.363   5.552 -0.0733  0.4752  0.2935
 5872TIP3    H139107   6.556   4.417   5.629  3.4645  0.2694 -0.3018
 5872TIP3    H239108   6.563   4.275   5.577  1.1647  0.4150 -1.1221
 5873TIP3   OH239109   2.874   2.839  12.852 -0.0646  0.0766  0.0146
 5873TIP3    H139110   2.898   2.910  12.792 -1.2427  1.2447  0.8718
 5873TIP3    H239111   2.795   2.801  12.813  1.1869 -1.5853 -1.0534
 5874TIP3   OH239112   2.340   6.801  14.736 -1.2951 -0.1935  0.5064
 5874TIP3    H139113   2.269   6.813  14.799 -1.5690 -0.9416  0.3502
 5874TIP3    H239114   2.301   6.749  14.666 -0.1931 -1.9588  1.1452
 5875TIP3   OH239115   5.702   6.056   4.430  0.3155 -0.6194 -0.2094
 5875TIP3    H139116   5.789   6.061   4.389  0.0772  2.7312 -0.5678
 5875TIP3    H239117   5.720   6.053   4.524  0.8803  1.4029 -0.2123
 5876TIP3   OH239118   0.348   4.883  12.329 -0.3799  0.0377  0.4206
 5876TIP3    H139119   0.419   4.868  12.266 -3.2900 -0.6890 -3.0358
 5876TIP3    H239120   0.294   4.804  12.324 -1.1243  0.2181  3.5129
 5877TIP3   OH239121   0.574   6.554  14.914 -0.4785  0.0701  0.0855
 5877TIP3    H139122   0.647   6.498  14.941  0.9295  2.0546  0.6446
 5877TIP3    H239123   0.550   6.523  14.827  1.2202 -0.4891 -0.2221
 5878TIP3   OH239124   0.491   1.467   1.799  0.6362 -0.0263 -0.2589
 5878TIP3    H139125   0.515   1.536   1.860 -1.6539 -0.0391  0.7597
 5878TIP3    H239126   0.522   1.386   1.840 -0.3805  0.0206  0.6388
 5879TIP3   OH239127   3.917   0.357  11.951  0.4453  0.2787  0.5525
 5879TIP3    H139128   3.927   0.424  12.018 -0.4551  1.1088 -0.1084
 5879TIP3    H239129   3.823   0.338  11.950  0.5184 -0.0930 -0.1042
 5880TIP3   OH239130   4.283   3.973   0.591  0.6536  0.6322  0.2584
 5880TIP3    H139131   4.188   3.983   0.593  0.5575 -0.3512  1.1953
 5880TIP3    H239132   4.316   4.057   0.623  0.1261  1.1576 -0.5419
 5881TIP3   OH239133   1.831   1.873  11.343  0.2299 -0.6330 -0.6139
 5881TIP3    H139134   1.738   1.863  11.323 -0.0561  1.5180 -0.6119
 5881TIP3    H239135   1.876   1.818  11.279 -1.0487 -2.4857  0.0179
 5882TIP3   OH239136   4.558   4.056   6.450 -0.4985 -0.1042 -0.2931
 5882TIP3    H139137   4.539   3.985   6.388 -1.6405  0.2515 -0.3765
 5882TIP3    H239138   4.487   4.052   6.514 -0.0545  0.3687  0.2399
 5883TIP3   OH239139   6.004   3.991  12.449 -0.4455 -0.4216  0.5236
 5883TIP3    H139140   6.056   4.022  12.374 -0.8262  0.5494  0.6455
 5883TIP3    H239141   6.062   3.930  12.494 -0.7684 -2.2989 -1.4393
 5884TIP3   OH239142   1.051   1.688   0.429  0.3203  0.0654 -0.4844
 5884TIP3    H139143   1.132   1.728   0.397  1.8786 -2.5561 -0.1150
 5884TIP3    H239144   1.016   1.641   0.353  0.0195 -0.1019 -0.2466
 5885TIP3   OH239145   6.536   1.455  11.670  0.0255  0.6481  0.2466
 5885TIP3    H139146   6.588   1.385  11.631 -0.5939 -0.5768  1.5379
 5885TIP3    H239147   6.472   1.479  11.603  1.0162  0.8373 -0.6443
 5886TIP3   OH239148   1.371   6.427   2.127  0.1938 -0.6338  0.7038
 5886TIP3    H139149   1.460   6.406   2.098  0.1880  2.2629 -2.0610
 5886TIP3    H239150   1.383   6.470   2.212  1.5296  0.0366  0.2136
 5887TIP3   OH239151   2.727   6.190  10.469 -0.5919  0.1247  0.4691
 5887TIP3    H139152   2.820   6.169  10.473 -0.4052  0.5556 -0.8891
 5887TIP3    H239153   2.685   6.125  10.524  0.5263  0.0131  1.2178
 5888TIP3   OH239154   5.248   3.880  15.960  0.0670 -0.1273  0.4478
 5888TIP3    H139155   5.330   3.833  15.980 -0.0552  0.2841  2.1231
 5888TIP3    H239156   5.271   3.939  15.889  0.4275 -2.1266 -1.1882
 5889TIP3   OH239157   2.844   1.256  12.358  0.0876  0.0311  0.7051
 5889TIP3    H139158   2.881   1.313  12.426 -0.1740 -1.1201  1.8504
 5889TIP3    H239159   2.825   1.315  12.285 -0.1849  1.4197  1.8511
 5890TIP3   OH239160   3.010   3.342   1.060 -0.4777 -0.2967  0.9638
 5890TIP3    H139161   3.056   3.330   0.977  1.9781  1.2620  1.9821
 5890TIP3    H239162   2.919   3.322   1.040  0.1864 -0.9934 -1.8323
 5891TIP3   OH239163   3.474   3.945   1.487  0.3353 -0.0992  0.2691
 5891TIP3    H139164   3.468   3.962   1.393  0.1704 -0.2431  0.2523
 5891TIP3    H239165   3.535   3.871   1.494  0.9982  0.4458  0.3373
 5892TIP3   OH239166   5.803   0.902  12.923 -1.0127 -0.1964 -0.1726
 5892TIP3    H139167   5.731   0.869  12.977 -1.1012 -0.1747 -0.2798
 5892TIP3    H239168   5.856   0.824  12.905  0.0552  0.0761  1.5224
 5893TIP3   OH239169   5.380   4.050   6.298 -0.0338  0.1126 -0.2533
 5893TIP3    H139170   5.351   4.112   6.365 -0.6837  0.7220 -1.0762
 5893TIP3    H239171   5.454   4.093   6.255  0.3711 -0.2686  0.0485
 5894TIP3   OH239172   2.220   0.965  13.426  0.8163 -0.3361 -0.5727
 5894TIP3    H139173   2.221   0.874  13.454  1.3312  0.4198  2.1689
 5894TIP3    H239174   2.154   1.007  13.482  0.0465  0.8671 -2.2755
 5895TIP3   OH239175   6.603   5.149   2.407 -0.0333 -0.2667 -0.6252
 5895TIP3    H139176   6.672   5.116   2.350 -0.7502 -1.0770 -1.0434
 5895TIP3    H239177   6.522   5.125   2.363 -0.6923 -2.8011  1.6960
 5896TIP3   OH239178   3.140   4.153   0.624 -0.1563  0.3699 -0.2029
 5896TIP3    H139179   3.068   4.194   0.575 -0.2858  0.9747  0.4748
 5896TIP3    H239180   3.143   4.063   0.592  0.0770  0.8700 -1.6800
 5897TIP3   OH239181   3.830   3.209  16.650  0.6954 -0.2137 -0.0289
 5897TIP3    H139182   3.897   3.263  16.691  0.2756 -0.8206  1.5460
 5897TIP3    H239183   3.858   3.201  16.559  1.1818  1.9567 -0.1234
 5898TIP3   OH239184   1.874   2.449  15.999 -0.0058 -0.6412  0.1521
 5898TIP3    H139185   1.897   2.391  16.073  0.4602  0.7865  1.1780
 5898TIP3    H239186   1.897   2.398  15.921  2.8032 -0.9454  1.0402
 5899TIP3   OH239187   3.847   5.875  14.949 -0.9043  0.5167  0.5459
 5899TIP3    H139188   3.793   5.897  15.025 -0.6925  0.4516  0.7181
 5899TIP3    H239189   3.905   5.951  14.938 -1.4956  0.8850 -0.0644
 5900TIP3   OH239190   2.880   3.716   3.321  0.6032  0.0103  0.2856
 5900TIP3    H139191   2.918   3.790   3.273 -1.5001  0.2739 -1.1213
 5900TIP3    H239192   2.787   3.736   3.327  0.0737 -2.1983  0.4898
 5901TIP3   OH239193   0.622   3.623  11.345  0.3832  0.2041  0.0342
 5901TIP3    H139194   0.689   3.557  11.364  0.0437  0.5242  2.7623
 5901TIP3    H239195   0.666   3.685  11.287  1.3118 -1.3725 -1.0360
 5902TIP3   OH239196   6.636   5.897   1.047  0.1469 -0.4098  0.0901
 5902TIP3    H139197   6.574   5.882   0.975 -0.7576 -1.0215  0.9755
 5902TIP3    H239198   6.715   5.928   1.003 -0.6822  0.1474 -1.0992
 5903TIP3   OH239199   3.138   3.021  16.294  0.8049 -0.2598  0.3497
 5903TIP3    H139200   3.080   3.095  16.279  1.0854 -0.5010 -2.4837
 5903TIP3    H239201   3.206   3.055  16.351 -0.0516  1.1295  0.5934
 5904TIP3   OH239202   4.190   3.577  15.846 -0.3144  0.1127  0.0419
 5904TIP3    H139203   4.111   3.570  15.900 -0.3786  0.4769 -0.0018
 5904TIP3    H239204   4.214   3.669  15.851  0.4048 -0.0927  0.4743
 5905TIP3   OH239205   3.389   1.750  14.196 -0.4626 -0.4591 -0.4436
 5905TIP3    H139206   3.482   1.736  14.181 -0.2758 -0.7618  0.8453
 5905TIP3    H239207   3.349   1.745  14.109  0.6754 -0.6654 -0.9677
 5906TIP3   OH239208   2.664   4.833   2.868  0.2796 -0.7470  0.1518
 5906TIP3    H139209   2.756   4.804   2.871  0.0904 -1.2837  0.8213
 5906TIP3    H239210   2.614   4.752   2.863 -0.2214 -0.5028  1.1530
 5907TIP3   OH239211   2.371   3.219   1.248 -0.1671 -0.4731 -0.0506
 5907TIP3    H139212   2.366   3.161   1.172 -0.7919  0.1497 -0.4957
 5907TIP3    H239213   2.315   3.294   1.226  1.2004  0.6756  0.1926
 5908TIP3   OH239214   1.831   4.355   6.037 -0.6556  0.5327 -0.0663
 5908TIP3    H139215   1.823   4.286   5.971  1.6411  0.0164  0.1211
 5908TIP3    H239216   1.867   4.430   5.989  0.8487  0.2154  0.5279
 5909TIP3   OH239217   0.151   4.396   5.500  0.1388 -0.3729 -0.4499
 5909TIP3    H139218   0.239   4.425   5.525  0.4832 -1.6013 -0.1627
 5909TIP3    H239219   0.093   4.466   5.530  1.0775  0.7742 -1.2759
 5910TIP3   OH239220   2.412   1.801  16.845  0.1086  0.3304  0.1650
 5910TIP3    H139221   2.358   1.750  16.784  0.3008 -1.7809  1.6661
 5910TIP3    H239222   2.349   1.847  16.901 -0.1357 -0.9390  0.9526
 5911TIP3   OH239223   0.948   6.682   6.030  0.4184 -0.8075  0.3723
 5911TIP3    H139224   0.981   6.768   6.006  0.4496 -1.1097 -0.7252
 5911TIP3    H239225   0.871   6.699   6.084 -1.0037 -0.0306 -1.7616
 5912TIP3   OH239226   4.872   0.325  13.714  0.4224  0.0956 -0.0695
 5912TIP3    H139227   4.923   0.253  13.676  0.3572  0.9584 -1.9255
 5912TIP3    H239228   4.807   0.281  13.770 -0.2443 -1.3951 -1.8846
 5913TIP3   OH239229   4.164   2.342   0.990  0.0630  0.3635  0.1412
 5913TIP3    H139230   4.090   2.296   1.027  0.4114 -1.1184 -0.9216
 5913TIP3    H239231   4.172   2.422   1.043 -3.6047  1.7036 -1.0095
 5914TIP3   OH239232   1.588   4.416  16.859  0.0391 -0.3038  0.4617
 5914TIP3    H139233   1.593   4.512  16.862 -0.6791 -0.2115 -0.5781
 5914TIP3    H239234   1.549   4.397  16.773 -2.0235 -1.4067  1.5471
 5915TIP3   OH239235   1.947   3.601   4.680  0.0929  0.0934  0.4337
 5915TIP3    H139236   1.973   3.680   4.726  4.1028 -0.7052 -0.0541
 5915TIP3    H239237   1.986   3.529   4.730 -1.3082 -1.3896 -0.4788
 5916TIP3   OH239238   0.100   2.243   2.235  0.2397  0.1482  0.0934
 5916TIP3    H139239   0.030   2.296   2.272 -0.4252 -0.0246 -0.9120
 5916TIP3    H239240   0.176   2.262   2.291  0.6457  3.8070 -1.4389
 5917TIP3   OH239241   4.504   1.381   5.744 -0.2289 -0.0390 -0.1625
 5917TIP3    H139242   4.452   1.341   5.814 -1.8909  0.3849 -1.0892
 5917TIP3    H239243   4.498   1.320   5.671 -0.3147  0.5103 -0.6240
 5918TIP3   OH239244   1.634   4.893   3.051  0.4475  0.0629 -0.2582
 5918TIP3    H139245   1.677   4.809   3.033  0.5480  0.2603 -0.9989
 5918TIP3    H239246   1.701   4.959   3.029  0.4622  0.3333  0.5789
 5919TIP3   OH239247   1.258   3.293   0.243 -0.0863  0.1512 -0.7986
 5919TIP3    H139248   1.288   3.381   0.266  1.3358  0.3856 -3.2112
 5919TIP3    H239249   1.328   3.235   0.272 -1.3821 -0.3805  1.5412
 5920TIP3   OH239250   5.588   0.059   1.568  0.1079 -0.4702  0.0066
 5920TIP3    H139251   5.534   0.134   1.592 -0.4478 -0.9566  0.3187
 5920TIP3    H239252   5.626   0.028   1.651  0.5812 -0.3496 -0.1620
 5921TIP3   OH239253   0.277   2.184  10.977  0.0172 -0.3933  0.0126
 5921TIP3    H139254   0.306   2.093  10.979  0.9477 -0.0988  0.3809
 5921TIP3    H239255   0.274   2.206  10.884 -0.4992 -0.8840 -0.0917
 5922TIP3   OH239256   0.426   6.713   4.202  0.0872  0.3183  0.3648
 5922TIP3    H139257   0.521   6.724   4.207  0.2014  0.3047 -1.1206
 5922TIP3    H239258   0.390   6.796   4.235  0.5751 -0.0461  1.8506
 5923TIP3   OH239259   2.164   1.389  15.858 -0.1364 -0.1409 -0.2561
 5923TIP3    H139260   2.146   1.345  15.775  1.3991 -2.5238  0.5453
 5923TIP3    H239261   2.243   1.440  15.842  0.3679 -0.8852 -0.2202
 5924TIP3   OH239262   0.860   1.717   4.246 -0.2460  0.0142  0.4522
 5924TIP3    H139263   0.857   1.675   4.160  0.9089 -0.8532  0.8035
 5924TIP3    H239264   0.781   1.770   4.250  0.1569  0.8382 -1.5239
 5925TIP3   OH239265   0.818   4.325   4.806  0.4972 -0.2812  0.6593
 5925TIP3    H139266   0.837   4.410   4.846  0.8288 -0.1892  0.3157
 5925TIP3    H239267   0.883   4.266   4.844  1.1151 -0.0944 -0.0711
 5926TIP3   OH239268   4.284   4.411   4.107 -0.4548  0.0336  0.3795
 5926TIP3    H139269   4.370   4.369   4.096  1.0988  2.9880  0.0464
 5926TIP3    H239270   4.263   4.398   4.199  0.6765 -0.2337  0.6235
 5927TIP3   OH239271   6.062   1.733   0.632  0.1135 -0.1059  0.4610
 5927TIP3    H139272   6.111   1.792   0.690  0.5839 -0.8525  0.8382
 5927TIP3    H239273   6.104   1.743   0.547  0.2003  0.1001  0.5262
 5928TIP3   OH239274   0.636   3.171  16.918  0.2021 -0.4003  0.3091
 5928TIP3    H139275   0.712   3.118  16.942  0.3647  0.2889  1.3710
 5928TIP3    H239276   0.651   3.255  16.961 -2.1664 -0.9036  2.3221
 5929TIP3   OH239277   4.751   5.151  16.826 -0.5216 -0.0270 -0.3627
 5929TIP3    H139278   4.682   5.085  16.834 -1.0179  0.4102 -0.8862
 5929TIP3    H239279   4.750   5.197  16.910 -0.8238 -0.0717 -0.3413
 5930TIP3   OH239280   2.122   0.718   4.653  0.2300  0.0317 -0.1989
 5930TIP3    H139281   2.113   0.696   4.746  3.8543  0.9463  0.5091
 5930TIP3    H239282   2.152   0.637   4.612  1.3781  0.3534 -0.0082
 5931TIP3   OH239283   5.265   4.046   5.374 -0.1719  0.2223 -0.4109
 5931TIP3    H139284   5.259   3.951   5.373 -1.2773  0.2813 -0.8738
 5931TIP3    H239285   5.307   4.069   5.291 -0.7997  0.1777 -0.7462
 5932TIP3   OH239286   3.490   5.970  12.833 -0.1178  0.5672  0.0889
 5932TIP3    H139287   3.519   6.018  12.756  0.6352 -1.9232 -1.3115
 5932TIP3    H239288   3.566   5.969  12.891 -0.0585  0.8362  0.0164
 5933TIP3   OH239289   4.806   1.832  11.792 -0.2101  0.1896 -0.1968
 5933TIP3    H139290   4.777   1.920  11.817  0.7699  0.8802 -1.3535
 5933TIP3    H239291   4.780   1.776  11.865 -0.3512  1.5331  0.8172
 5934TIP3   OH239292   2.428   1.753  14.400  0.3131 -0.3546 -0.2167
 5934TIP3    H139293   2.401   1.787  14.315  0.5994 -0.3891 -0.3232
 5934TIP3    H239294   2.364   1.789  14.462  0.5974  0.3504 -0.3314
 5935TIP3   OH239295   4.176   3.311   1.980 -0.4743 -0.7804  0.1706
 5935TIP3    H139296   4.093   3.347   1.949  0.3326  1.1103  0.0844
 5935TIP3    H239297   4.233   3.312   1.903 -0.3509 -2.0469  0.2324
 5936TIP3   OH239298   1.432   4.616  12.720 -0.1615 -0.0786  0.3104
 5936TIP3    H139299   1.379   4.598  12.798  1.7213 -1.8565  1.2677
 5936TIP3    H239300   1.491   4.687  12.747  0.5607 -0.7656  0.5437
 5937TIP3   OH239301   3.408   3.417  12.127 -0.0392  0.4010 -0.0528
 5937TIP3    H139302   3.486   3.408  12.181  0.0503 -0.3140 -0.2813
 5937TIP3    H239303   3.390   3.511  12.125 -1.1537  0.3518  2.7913
 5938TIP3   OH239304   5.036   6.260   2.818  0.0044  0.2106  0.4868
 5938TIP3    H139305   5.010   6.349   2.795 -1.2135 -0.1427  0.4589
 5938TIP3    H239306   5.002   6.247   2.907  1.2879  0.2012  1.0016
 5939TIP3   OH239307   2.578   3.160   5.542 -0.5256 -0.1523 -0.0057
 5939TIP3    H139308   2.634   3.159   5.619  0.9900 -0.8931 -1.0694
 5939TIP3    H239309   2.626   3.110   5.476 -2.0486 -0.0643 -1.2552
 5940TIP3   OH239310   3.327   3.503  13.370 -0.1201  0.0760  0.5138
 5940TIP3    H139311   3.335   3.420  13.323  0.4463  1.8126 -2.7762
 5940TIP3    H239312   3.414   3.517  13.407  0.2273 -0.1438 -0.1912
 5941TIP3   OH239313   5.469   3.196  13.470  0.4024  0.4537  0.7087
 5941TIP3    H139314   5.472   3.128  13.403  1.0168  0.9093  0.2636
 5941TIP3    H239315   5.424   3.269  13.429  1.1003  0.8652  0.6564
 5942TIP3   OH239316   0.111   6.031  13.566  0.3036 -0.7370 -0.2935
 5942TIP3    H139317   0.089   6.113  13.523 -0.7028 -1.1680 -0.6385
 5942TIP3    H239318   0.057   6.030  13.645  0.2028 -1.1321 -0.3642
 5943TIP3   OH239319   6.560   5.982  14.017 -0.0558 -0.0396  0.1112
 5943TIP3    H139320   6.633   5.922  14.012 -0.1654 -0.0545 -1.9252
 5943TIP3    H239321   6.488   5.930  14.052  0.1670 -0.7645 -0.5040
 5944TIP3   OH239322   3.884   0.630  16.728  0.0046  0.4170 -0.6391
 5944TIP3    H139323   3.975   0.654  16.714  0.1731 -0.7387 -1.7280
 5944TIP3    H239324   3.851   0.695  16.790  1.1269  1.7941 -1.4244
 5945TIP3   OH239325   1.535   1.992  15.921 -0.3308 -0.0360  0.0097
 5945TIP3    H139326   1.586   2.062  15.963  1.6169 -0.1173 -2.0488
 5945TIP3    H239327   1.508   2.029  15.837 -2.0765 -0.6997  0.2284
 5946TIP3   OH239328   1.108   6.555   4.442  0.1949  0.2329 -0.9920
 5946TIP3    H139329   1.164   6.607   4.500  0.0244  0.5902 -1.1486
 5946TIP3    H239330   1.019   6.572   4.473  0.0660  0.8268 -1.6800
 5947TIP3   OH239331   2.677   0.444   1.138 -0.5570  0.4417  0.6014
 5947TIP3    H139332   2.767   0.413   1.141  1.0345  4.0428 -1.9740
 5947TIP3    H239333   2.629   0.375   1.092  1.7114 -0.1973 -0.9815
 5948TIP3   OH239334   0.161   5.774   1.058 -0.3702 -0.1036 -0.6649
 5948TIP3    H139335   0.144   5.719   0.982  1.5837  3.0599 -3.6551
 5948TIP3    H239336   0.256   5.782   1.061 -0.4954  1.4520  0.9140
 5949TIP3   OH239337   4.829   5.482   4.404 -0.0878  0.3644  0.3689
 5949TIP3    H139338   4.747   5.485   4.453 -0.4079 -1.9364  0.0851
 5949TIP3    H239339   4.810   5.527   4.321 -1.9027 -2.2141 -0.7371
 5950TIP3   OH239340   4.361   2.288   2.202 -0.4074  1.2540 -0.1195
 5950TIP3    H139341   4.339   2.376   2.234 -1.2623  0.4725  1.5376
 5950TIP3    H239342   4.286   2.234   2.228  0.4044 -0.1079 -0.5475
 5951TIP3   OH239343   6.664   2.776  12.471  0.0131 -0.3360 -0.4540
 5951TIP3    H139344   6.699   2.807  12.387  0.2986  2.6031  0.6270
 5951TIP3    H239345   6.736   2.788  12.533 -0.8812 -0.3580  0.6206
 5952TIP3   OH239346   2.087   3.924  12.679 -0.3928  0.1840  0.3101
 5952TIP3    H139347   2.091   3.858  12.748  1.5625  2.1226  2.2464
 5952TIP3    H239348   2.169   3.973  12.689 -2.0125  3.3428 -0.4753
 5953TIP3   OH239349   3.661   3.527   6.156 -0.5210  0.2173  0.2290
 5953TIP3    H139350   3.618   3.503   6.074 -1.0525 -0.9259  0.8172
 5953TIP3    H239351   3.670   3.444   6.204  1.2362  0.6097  0.6532
 5954TIP3   OH239352   5.522   3.349   0.633  0.4138  0.6539 -0.2056
 5954TIP3    H139353   5.553   3.285   0.570 -0.1302 -2.2549  2.2568
 5954TIP3    H239354   5.432   3.323   0.653  0.5344  1.4746  1.6775
 5955TIP3   OH239355   1.016   2.400  15.505  0.4101  0.6756 -0.0764
 5955TIP3    H139356   1.031   2.315  15.464 -0.3171  0.7761 -0.5517
 5955TIP3    H239357   1.101   2.423  15.544  0.7460 -0.0225 -0.3876
 5956TIP3   OH239358   5.799   6.778   4.668  0.3102 -0.3080 -0.0697
 5956TIP3    H139359   5.828   6.868   4.680  3.2431 -0.9823 -1.3147
 5956TIP3    H239360   5.723   6.769   4.726  1.4146  2.2520  1.9374
 5957TIP3   OH239361   1.281   3.434  11.551 -0.5206 -0.0089  0.2082
 5957TIP3    H139362   1.201   3.435  11.605 -0.7561  2.0181 -0.1121
 5957TIP3    H239363   1.249   3.415  11.462 -0.4631 -0.5654  0.3017
 5958TIP3   OH239364   2.006   1.799  15.220 -0.0080 -0.3724 -0.3145
 5958TIP3    H139365   2.011   1.846  15.304 -3.3687 -0.1395 -0.0907
 5958TIP3    H239366   2.008   1.868  15.154  1.5490 -0.4835 -0.4289
 5959TIP3   OH239367   3.205   6.795   2.656  0.3025  0.2910 -0.1317
 5959TIP3    H139368   3.242   6.855   2.592  0.8844  0.6502  0.5210
 5959TIP3    H239369   3.205   6.710   2.613  2.0229  0.2518 -0.1261
 5960TIP3   OH239370   3.027   5.886  11.221  0.3546  0.3237  0.2526
 5960TIP3    H139371   3.109   5.931  11.238  0.1118  0.7588  0.3033
 5960TIP3    H239372   2.997   5.921  11.137  0.6946 -0.5443 -0.2386
 5961TIP3   OH239373   4.142   2.240   5.993  0.9178 -0.0418  0.3682
 5961TIP3    H139374   4.052   2.220   6.018  0.1155  1.4305 -1.1448
 5961TIP3    H239375   4.179   2.282   6.070  0.0357  0.1311  0.7120
 5962TIP3   OH239376   4.956   0.794   3.805  0.0275 -0.5155 -0.2053
 5962TIP3    H139377   4.980   0.710   3.765  0.4891 -0.4614 -0.0465
 5962TIP3    H239378   4.860   0.792   3.808 -0.0621 -0.2702 -1.8579
 5963TIP3   OH239379   1.322   5.329   3.683  0.2408  0.2162 -0.8093
 5963TIP3    H139380   1.351   5.240   3.660  1.9873  1.0678 -2.1230
 5963TIP3    H239381   1.231   5.333   3.653 -0.2585 -1.4708  0.3333
 5964TIP3   OH239382   6.029   3.678   1.622  0.3761 -0.0032 -0.0140
 5964TIP3    H139383   6.103   3.739   1.625  0.2673  0.3557 -2.3727
 5964TIP3    H239384   6.018   3.660   1.529 -1.4118 -1.4268  0.4346
 5965TIP3   OH239385   3.769   6.791  11.740  0.5246  0.3582  0.1818
 5965TIP3    H139386   3.727   6.791  11.654  0.7716  0.7482  0.0591
 5965TIP3    H239387   3.715   6.849  11.793  1.7915  2.2002 -0.4285
 5966TIP3   OH239388   5.643   4.320   1.120  0.3519 -0.7576  0.1615
 5966TIP3    H139389   5.698   4.264   1.175  0.5308 -1.7962 -1.0258
 5966TIP3    H239390   5.557   4.279   1.123  0.0386 -0.0588  0.7241
 5967TIP3   OH239391   6.041   5.414  12.706 -0.1627 -0.1845  0.2786
 5967TIP3    H139392   6.047   5.502  12.670 -1.0369  0.1251  0.8549
 5967TIP3    H239393   5.960   5.378  12.668 -0.9894  0.0696  1.7128
 5968TIP3   OH239394   3.067   2.542   5.841 -0.1533  0.1201 -0.4843
 5968TIP3    H139395   3.128   2.614   5.859  0.5063 -0.2354 -1.2314
 5968TIP3    H239396   2.997   2.553   5.905  0.2334  1.0840 -0.2121
 5969TIP3   OH239397   2.344   1.510   5.138 -0.4871  0.5004 -0.2010
 5969TIP3    H139398   2.392   1.441   5.183  0.1376  1.1395  0.1187
 5969TIP3    H239399   2.252   1.481   5.142  0.0088 -1.7026 -2.5315
 5970TIP3   OH239400   2.487   0.739   0.812 -0.0617 -0.2645 -0.0451
 5970TIP3    H139401   2.544   0.795   0.864  0.6636 -1.1676  0.1591
 5970TIP3    H239402   2.517   0.650   0.830 -0.7267 -0.6841 -0.9045
 5971TIP3   OH239403   3.898   1.951  15.179 -0.1226  0.2919  0.5933
 5971TIP3    H139404   3.963   1.919  15.116 -1.6423 -1.8080 -0.0117
 5971TIP3    H239405   3.927   1.917  15.263 -1.7556 -3.0911 -0.0470
 5972TIP3   OH239406   1.686   1.039  16.377 -0.2445 -0.2533 -0.2201
 5972TIP3    H139407   1.765   1.052  16.429 -0.1702  0.0742 -0.4124
 5972TIP3    H239408   1.687   1.111  16.314 -1.9819  1.2681  1.3654
 5973TIP3   OH239409   6.267   5.020   0.944 -0.4443 -0.0447  0.2478
 5973TIP3    H139410   6.308   4.936   0.961 -0.9431 -0.7750 -1.7733
 5973TIP3    H239411   6.173   5.002   0.951 -0.5312  0.5376  0.5901
 5974TIP3   OH239412   5.601   3.795   1.424  0.3499  0.0759 -0.1559
 5974TIP3    H139413   5.560   3.832   1.502 -0.1433 -0.0342 -0.3560
 5974TIP3    H239414   5.692   3.825   1.427  0.4270 -0.2308  0.6506
 5975TIP3   OH239415   0.068   6.035   1.875 -0.1391  0.3437 -0.1363
 5975TIP3    H139416   0.126   6.025   1.799 -1.8808 -0.0727 -1.4647
 5975TIP3    H239417   0.007   5.961   1.869 -2.2312  1.9750 -0.1060
 5976TIP3   OH239418   4.764   4.299  17.136 -0.4610 -0.5722  0.2593
 5976TIP3    H139419   4.734   4.316  17.225  2.4776  0.9215  1.1192
 5976TIP3    H239420   4.688   4.317  17.081 -2.7020 -2.6037  2.4213
 5977TIP3   OH239421   2.606   2.786  13.572 -0.1869 -0.1223 -0.5329
 5977TIP3    H139422   2.558   2.782  13.655 -0.6285 -1.9520 -0.8319
 5977TIP3    H239423   2.595   2.700  13.534  2.2276 -0.1955 -1.2677
 5978TIP3   OH239424   3.184   2.082   0.666  0.5532 -0.4466  0.0011
 5978TIP3    H139425   3.268   2.051   0.633  0.4648  0.7708 -1.4708
 5978TIP3    H239426   3.207   2.156   0.723  0.4962 -0.0996 -0.4190
 5979TIP3   OH239427   6.250   2.648  15.943  0.0245 -0.1488 -0.3146
 5979TIP3    H139428   6.234   2.602  16.026 -0.3237  0.6502  0.0765
 5979TIP3    H239429   6.278   2.580  15.883  0.9773 -0.6351  0.6557
 5980TIP3   OH239430   0.034   3.338   4.624 -0.8117  0.1631  0.2159
 5980TIP3    H139431   0.091   3.292   4.562 -2.7272 -0.0505 -1.4866
 5980TIP3    H239432   0.080   3.420   4.642  0.6397 -0.5478 -0.0684
 5981TIP3   OH239433   5.979   4.850   4.943 -0.3576  0.0101 -0.8324
 5981TIP3    H139434   6.016   4.843   4.855 -0.1280  1.5722 -0.8919
 5981TIP3    H239435   5.918   4.924   4.938  1.2769  1.5818  0.8039
 5982TIP3   OH239436   6.642   4.474  14.175  0.5494  0.2737  0.7739
 5982TIP3    H139437   6.709   4.542  14.181  0.3814  0.5726 -0.4576
 5982TIP3    H239438   6.570   4.516  14.128 -0.0996 -0.3537  1.1946
 5983TIP3   OH239439   1.654   5.193   2.021  0.7026 -0.2058  0.3564
 5983TIP3    H139440   1.625   5.240   1.943 -1.0404 -0.1559  0.9902
 5983TIP3    H239441   1.659   5.260   2.089 -0.3854 -0.6700  0.9127
 5984TIP3   OH239442   3.442   2.830  15.878  0.6608 -0.1970 -0.5032
 5984TIP3    H139443   3.516   2.866  15.926  1.6432 -1.9781 -0.6161
 5984TIP3    H239444   3.365   2.859  15.927  1.5713 -0.8224  1.3724
 5985TIP3   OH239445   3.613   5.661   2.039 -0.2467 -0.2031  0.1243
 5985TIP3    H139446   3.704   5.631   2.047 -0.1427  0.3764  1.3385
 5985TIP3    H239447   3.574   5.640   2.124 -1.1622 -0.1268 -0.2653
 5986TIP3   OH239448   2.336   0.830   3.454  0.4748 -0.0355  0.6377
 5986TIP3    H139449   2.256   0.799   3.412  0.2988 -1.2972  1.8293
 5986TIP3    H239450   2.402   0.831   3.384 -0.0242 -1.2087  0.1310
 5987TIP3   OH239451   1.395   2.321   5.120 -0.0832  0.0110 -0.2205
 5987TIP3    H139452   1.386   2.251   5.056  1.5716  0.0670 -0.5712
 5987TIP3    H239453   1.464   2.378   5.084 -0.6126  1.2162  0.5808
 5988TIP3   OH239454   5.946   5.220   0.826  0.0602 -0.0276  0.7254
 5988TIP3    H139455   5.925   5.172   0.746  1.3490 -0.1358  0.4262
 5988TIP3    H239456   5.964   5.152   0.891 -1.6426  0.0509  1.3279
 5989TIP3   OH239457   0.917   1.000   2.797  0.5182 -0.3070 -0.0575
 5989TIP3    H139458   0.951   1.047   2.722 -0.8123 -0.8271 -1.0419
 5989TIP3    H239459   0.839   0.955   2.764  0.4073 -1.2937  1.4077
 5990TIP3   OH239460   6.011   1.808   4.741  0.3286  0.1376 -0.6908
 5990TIP3    H139461   5.924   1.783   4.710 -0.9428 -0.2454  2.7407
 5990TIP3    H239462   5.999   1.896   4.776  0.8156 -0.5859  1.4050
 5991TIP3   OH239463   0.070   5.303   5.025 -0.3535 -0.1615  0.2880
 5991TIP3    H139464   0.125   5.380   5.008 -0.1385 -0.3092  0.3008
 5991TIP3    H239465  -0.012   5.321   4.980 -0.6097  0.4400  0.9720
 5992TIP3   OH239466   5.545   5.670  15.312 -0.2801  0.4000 -0.2945
 5992TIP3    H139467   5.462   5.652  15.268 -0.4417  0.0423  0.1461
 5992TIP3    H239468   5.535   5.629  15.398  0.4665  0.1042 -0.3447
 5993TIP3   OH239469   2.709   2.669  15.977  0.1355 -0.1652  0.2034
 5993TIP3    H139470   2.731   2.579  16.002  0.8255 -0.3758 -1.0728
 5993TIP3    H239471   2.774   2.692  15.911 -0.6260  0.9345 -0.1894
 5994TIP3   OH239472   5.989   2.740  15.927 -0.2614 -0.1671  0.5570
 5994TIP3    H139473   5.950   2.670  15.980 -0.3336 -0.2821  0.3515
 5994TIP3    H239474   6.080   2.713  15.914 -0.4868 -0.5965 -0.1607
 5995TIP3   OH239475   5.440   5.776   0.435  0.9981 -0.9443 -0.6636
 5995TIP3    H139476   5.473   5.841   0.497  0.6773 -0.2881 -1.1815
 5995TIP3    H239477   5.506   5.706   0.437  0.8089 -1.1121  0.6873
 5996TIP3   OH239478   4.678   4.200  10.562 -0.0836  0.0892  0.6197
 5996TIP3    H139479   4.686   4.154  10.646 -0.3106  1.4603  1.4223
 5996TIP3    H239480   4.768   4.216  10.534  0.0001 -0.9421  0.2540
 5997TIP3   OH239481   2.620   0.421  13.519 -0.1950 -0.3494 -0.2929
 5997TIP3    H139482   2.645   0.508  13.550 -0.6091  0.1381 -1.3034
 5997TIP3    H239483   2.641   0.421  13.426  2.4198 -2.3040  0.1794
 5998TIP3   OH239484   5.704   0.242   3.235  0.1575  0.4108  0.6932
 5998TIP3    H139485   5.757   0.233   3.315 -0.6710  1.0848  1.3405
 5998TIP3    H239486   5.719   0.332   3.206  1.7041 -0.3011 -0.8503
 5999TIP3   OH239487   2.867   0.308   0.977  0.5322  0.1126 -0.4733
 5999TIP3    H139488   2.908   0.356   0.905 -0.4841 -0.2166 -1.2954
 5999TIP3    H239489   2.777   0.294   0.948  0.8589 -2.5609 -0.4292
 6000TIP3   OH239490   1.898   5.575   2.226  0.2236  0.2929 -0.1067
 6000TIP3    H139491   1.929   5.531   2.148  0.5000 -0.9742  0.6896
 6000TIP3    H239492   1.940   5.661   2.223 -1.6801  1.2529 -2.5775
 6001TIP3   OH239493   0.934   5.249   5.318 -0.2758 -0.2634  0.2111
 6001TIP3    H139494   0.967   5.338   5.330 -0.6163 -0.2464  1.1284
 6001TIP3    H239495   1.000   5.194   5.360  0.3530 -0.5296 -1.0730
 6002TIP3   OH239496   4.179   4.556   2.285  0.5110 -0.1177  0.1055
 6002TIP3    H139497   4.147   4.620   2.221 -0.0296 -1.2336 -0.7719
 6002TIP3    H239498   4.117   4.483   2.280  0.3437 -0.1652  2.0649
 6003TIP3   OH239499   3.505   5.666  14.973  0.5607 -0.1232  0.4692
 6003TIP3    H139500   3.411   5.653  14.969  0.2872  1.5733  0.6897
 6003TIP3    H239501   3.517   5.761  14.977  2.3573 -0.1370 -1.7516
 6004TIP3   OH239502   0.656   2.250   5.713  0.1394  0.2653 -0.2850
 6004TIP3    H139503   0.655   2.194   5.791 -0.4834 -1.3734 -1.4233
 6004TIP3    H239504   0.698   2.331   5.743  1.3314 -0.8846  1.3605
 6005TIP3   OH239505   4.933   5.209   5.419 -0.1100 -0.1245 -0.4087
 6005TIP3    H139506   5.026   5.190   5.413  0.2168  1.7293 -2.7441
 6005TIP3    H239507   4.924   5.263   5.498  0.8594 -0.0941 -0.3148
 6006TIP3   OH239508   4.896   2.560   6.041  0.4877 -0.2164  0.0292
 6006TIP3    H139509   4.904   2.465   6.036 -0.3834 -0.2758 -0.4056
 6006TIP3    H239510   4.859   2.586   5.957  2.3300  0.7066 -0.5545
 6007TIP3   OH239511   4.163   0.209   3.588  0.0614  0.5216  0.4768
 6007TIP3    H139512   4.125   0.123   3.601 -0.3920  0.5779 -0.3990
 6007TIP3    H239513   4.106   0.251   3.523  1.6533  0.5560 -0.9682
 6008TIP3   OH239514   0.004   2.267  13.176 -0.2041 -0.0760 -0.2032
 6008TIP3    H139515   0.049   2.183  13.185 -2.0073 -1.2030 -1.1854
 6008TIP3    H239516   0.071   2.326  13.142  1.6465 -0.5264  2.4030
 6009TIP3   OH239517   0.802   1.494   5.310  0.1283  0.1129 -0.3191
 6009TIP3    H139518   0.787   1.537   5.394 -1.2105 -0.1581 -0.3848
 6009TIP3    H239519   0.772   1.404   5.324  0.5792 -0.1296 -0.8827
 6010TIP3   OH239520   5.715   5.528   2.349 -0.6824  0.6495  0.4221
 6010TIP3    H139521   5.790   5.568   2.306  0.4382 -0.4834  1.2377
 6010TIP3    H239522   5.683   5.594   2.409  0.0855  0.9176  0.5432
 6011TIP3   OH239523   3.761   2.885  16.170 -0.1743 -0.1154 -0.3013
 6011TIP3    H139524   3.669   2.867  16.192 -0.2741 -0.4095 -0.9324
 6011TIP3    H239525   3.762   2.885  16.074  0.5639 -0.5060 -0.2955
 6012TIP3   OH239526   3.409   1.760  16.463 -0.3242  0.1890 -0.4938
 6012TIP3    H139527   3.430   1.668  16.447 -1.0228  0.1448 -1.2244
 6012TIP3    H239528   3.464   1.785  16.537 -0.2042 -0.8430 -0.2239
 6013TIP3   OH239529   6.311   5.787   5.471 -0.2092  1.3378  0.2432
 6013TIP3    H139530   6.291   5.845   5.397  0.7877 -0.2583 -1.3528
 6013TIP3    H239531   6.235   5.729   5.475  1.0269 -0.5584 -1.6232
 6014TIP3   OH239532   3.044   3.284   2.247  0.2664 -0.7843  0.1480
 6014TIP3    H139533   3.060   3.358   2.189 -1.8261 -1.1381 -0.9793
 6014TIP3    H239534   3.116   3.286   2.310  1.0604  1.3005 -0.7605
 6015TIP3   OH239535   1.686   1.335  13.398 -0.2475  0.3280  0.6287
 6015TIP3    H139536   1.679   1.304  13.488  1.2773 -1.2255  0.2538
 6015TIP3    H239537   1.709   1.428  13.407 -0.6525  0.3346  1.8197
 6016TIP3   OH239538   4.236   0.379   4.867  0.2445 -0.1667 -0.3932
 6016TIP3    H139539   4.300   0.449   4.878 -1.1291  0.9717  0.7052
 6016TIP3    H239540   4.221   0.346   4.955 -1.1477  0.0230 -0.5449
 6017TIP3   OH239541   4.890   6.262  14.237  0.0039 -0.0940  0.1858
 6017TIP3    H139542   4.803   6.298  14.218  0.7976  1.7321 -0.1886
 6017TIP3    H239543   4.878   6.213  14.318 -1.5891 -0.7757 -0.4170
 6018TIP3   OH239544   3.127   5.196  11.030 -0.7192 -0.5160 -0.1732
 6018TIP3    H139545   3.187   5.268  11.007 -0.1238 -0.1842  2.1832
 6018TIP3    H239546   3.111   5.152  10.947 -0.1767  1.6294 -1.5161
 6019TIP3   OH239547   3.022   5.340   5.525 -0.0542 -0.8911  0.5289
 6019TIP3    H139548   3.021   5.244   5.528 -1.2045 -0.9007  0.3030
 6019TIP3    H239549   3.072   5.365   5.603 -0.3238 -1.6666  0.9747
 6020TIP3   OH239550   0.193   3.266   4.922 -0.5121  0.1324 -0.1600
 6020TIP3    H139551   0.250   3.195   4.891  0.1085  0.4651  0.1919
 6020TIP3    H239552   0.116   3.221   4.956 -0.7210 -0.2945 -1.1635
 6021TIP3   OH239553   0.766   3.282  14.828 -0.4107 -0.8996  0.1562
 6021TIP3    H139554   0.698   3.285  14.760  0.0114 -1.0142 -0.2776
 6021TIP3    H239555   0.802   3.194  14.822 -0.3523 -0.9007  0.5155
 6022TIP3   OH239556   0.698   5.759   6.040  0.1469  0.0741 -0.4690
 6022TIP3    H139557   0.700   5.841   6.089  0.0522  0.0804 -0.4744
 6022TIP3    H239558   0.610   5.724   6.056  0.5806 -0.6221  0.4951
 6023TIP3   OH239559   4.240   1.850   3.794  0.0428 -0.3947 -0.5883
 6023TIP3    H139560   4.290   1.864   3.713 -0.1198  0.8618 -0.4915
 6023TIP3    H239561   4.274   1.768   3.829  0.7635 -0.4845 -1.4617
 6024TIP3   OH239562   3.126   5.958  14.550 -0.1813 -0.7841 -0.2188
 6024TIP3    H139563   3.216   5.927  14.553  0.4120  0.6936 -1.4879
 6024TIP3    H239564   3.113   5.987  14.460 -0.7378  2.2663  0.7279
 6025TIP3   OH239565   6.610   4.567   0.354 -0.1466  0.4270  0.2888
 6025TIP3    H139566   6.615   4.653   0.313 -0.8334  0.1096 -0.4903
 6025TIP3    H239567   6.693   4.557   0.399  1.5007  0.0514 -2.5717
 6026TIP3   OH239568   4.535   5.804   3.853 -0.8402  0.2339  0.1119
 6026TIP3    H139569   4.585   5.787   3.773 -1.0613  0.3261 -0.0462
 6026TIP3    H239570   4.544   5.723   3.905  0.0726  0.5116  0.4066
 6027TIP3   OH239571   1.618   6.827   5.572  0.7159  0.0997 -0.8596
 6027TIP3    H139572   1.696   6.818   5.626  1.4284  1.6205 -1.5823
 6027TIP3    H239573   1.557   6.762   5.607  1.2554  0.8027  1.5443
 6028TIP3   OH239574   5.872   3.829   2.544  0.0234  0.3687 -0.2644
 6028TIP3    H139575   5.824   3.754   2.509  1.9703 -1.2892  0.4252
 6028TIP3    H239576   5.879   3.811   2.638  2.3221  0.3097 -0.3968
 6029TIP3   OH239577   5.263   2.576   3.434 -0.0423 -0.1245  0.4155
 6029TIP3    H139578   5.355   2.549   3.444  0.7039  2.0164 -0.2589
 6029TIP3    H239579   5.254   2.595   3.341 -0.9692  0.4005  0.6064
 6030TIP3   OH239580   3.597   1.517   2.998 -0.0585 -0.6343  0.1417
 6030TIP3    H139581   3.644   1.515   2.915 -0.9872 -0.0076 -0.4284
 6030TIP3    H239582   3.660   1.549   3.061 -0.0546  1.5141 -0.8630
 6031TIP3   OH239583   3.270   5.289  14.784 -0.0229  0.1515 -0.3646
 6031TIP3    H139584   3.214   5.259  14.712  0.1197  0.4229 -0.5908
 6031TIP3    H239585   3.258   5.224  14.853  0.2989 -0.4314 -0.8553
 6032TIP3   OH239586   3.655   3.451  16.585 -0.3053  0.1029  0.6866
 6032TIP3    H139587   3.738   3.486  16.618  0.4204 -0.5109 -0.4461
 6032TIP3    H239588   3.661   3.357  16.599 -0.8485  0.0634  0.6738
 6033TIP3   OH239589   3.590   3.040  17.173 -0.0835 -0.0949  0.3262
 6033TIP3    H139590   3.598   3.125  17.130 -0.7004 -0.7543 -1.1747
 6033TIP3    H239591   3.626   2.978  17.110 -0.3796 -1.0275  1.0575
 6034TIP3   OH239592   5.945   0.114   3.014 -0.5408  0.3848 -0.4271
 6034TIP3    H139593   5.932   0.159   3.098 -0.4872  2.5772 -1.5065
 6034TIP3    H239594   5.876   0.049   3.010 -1.4498  1.2368  0.7025
 6035TIP3   OH239595   2.229   6.758  11.580 -0.2358 -0.1043 -0.2062
 6035TIP3    H139596   2.153   6.711  11.545 -0.8793  2.2125 -2.2293
 6035TIP3    H239597   2.254   6.818  11.510  1.2414  1.7188  1.7341
 6036TIP3   OH239598   3.165   2.847  12.471 -0.1426 -0.4323  0.1815
 6036TIP3    H139599   3.169   2.827  12.378 -1.8220 -0.4186  0.0664
 6036TIP3    H239600   3.074   2.874  12.485 -0.5193 -2.4773  2.2235
 6037TIP3   OH239601   4.001   0.928   2.097 -0.0259 -0.1735 -0.3520
 6037TIP3    H139602   4.090   0.926   2.133 -0.4329  0.3680  0.7270
 6037TIP3    H239603   3.989   1.019   2.070 -1.5019  0.7160  2.8717
 6038TIP3   OH239604   3.544   1.841  15.518 -0.3331 -0.5993 -0.1393
 6038TIP3    H139605   3.531   1.861  15.425  1.3549 -1.1199 -0.5190
 6038TIP3    H239606   3.576   1.923  15.555  0.6517 -0.8583 -0.3951
 6039TIP3   OH239607   4.896   0.118   2.454  0.0350  0.1590  0.2953
 6039TIP3    H139608   4.945   0.156   2.381 -0.9250  1.9961  0.5447
 6039TIP3    H239609   4.964   0.093   2.518  0.8530 -1.0432 -0.9708
 6040TIP3   OH239610   3.529   1.520   4.195 -0.1212 -0.3384  0.0170
 6040TIP3    H139611   3.446   1.528   4.241 -0.5421  0.4275 -0.8603
 6040TIP3    H239612   3.581   1.461   4.250 -1.0014 -0.3095  0.9004
 6041TIP3   OH239613   6.593   4.203  11.229 -0.2627  0.0623 -0.1263
 6041TIP3    H139614   6.659   4.198  11.160 -0.9986 -0.5538 -0.7965
 6041TIP3    H239615   6.528   4.264  11.196 -0.7125 -0.3753 -0.0535
 6042TIP3   OH239616   3.374   5.788  13.808  0.4202 -0.3664 -0.0149
 6042TIP3    H139617   3.420   5.704  13.811 -0.8056 -1.0555  0.2520
 6042TIP3    H239618   3.291   5.768  13.764 -0.1220  0.5837  0.5518
 6043TIP3   OH239619   6.275   6.289   5.078  0.3799  0.2993  0.4689
 6043TIP3    H139620   6.280   6.384   5.087 -1.2639  0.3675  1.0057
 6043TIP3    H239621   6.228   6.275   4.995 -1.7664  0.0549  1.6545
 6044TIP3   OH239622   1.202   6.536   3.532  0.4048 -0.3523 -0.6417
 6044TIP3    H139623   1.159   6.465   3.483  0.1538 -0.9911  0.4738
 6044TIP3    H239624   1.289   6.501   3.553  0.8554  0.2775 -1.4094
 6045TIP3   OH239625   2.270   6.180   2.725 -0.5789 -0.0705 -0.1335
 6045TIP3    H139626   2.241   6.165   2.635  1.9299  0.0541 -1.0311
 6045TIP3    H239627   2.293   6.093   2.758 -0.8948 -0.0396  0.1723
 6046TIP3   OH239628   0.622   4.029   5.198 -0.6933 -0.3457 -0.5556
 6046TIP3    H139629   0.717   4.036   5.196 -0.5683 -0.9754  1.2836
 6046TIP3    H239630   0.591   4.118   5.179  0.3554  0.5047  1.4171
 6047TIP3   OH239631   4.290   3.763   6.121 -0.1766 -0.1705 -0.4843
 6047TIP3    H139632   4.265   3.693   6.181  2.5838  2.4661  4.2789
 6047TIP3    H239633   4.210   3.816   6.112 -0.7720 -0.8823  0.4313
 6048TIP3   OH239634   1.137   0.551   0.825 -0.0320 -0.0178  0.0674
 6048TIP3    H139635   1.104   0.615   0.763  1.2540  2.0098  1.3469
 6048TIP3    H239636   1.087   0.567   0.905  1.0093  0.1062  0.7114
 6049TIP3   OH239637   4.948   6.065   5.681  0.4553 -0.6676  0.0744
 6049TIP3    H139638   5.025   6.014   5.657  0.6484 -0.4742  0.2751
 6049TIP3    H239639   4.892   6.004   5.729  2.0030 -0.0057  2.9522
 6050TIP3   OH239640   0.904   5.781  12.963 -0.1931 -0.0282 -0.6800
 6050TIP3    H139641   0.822   5.759  12.918 -0.5114  0.5028 -0.3653
 6050TIP3    H239642   0.898   5.736  13.047 -0.7927  1.1209 -0.0825
 6051TIP3   OH239643   5.370   0.097  11.594  0.2253  0.4123 -0.5097
 6051TIP3    H139644   5.392   0.036  11.664 -0.2905  0.7006 -0.0902
 6051TIP3    H239645   5.401   0.182  11.625  0.3329  0.4794 -0.7966
 6052TIP3   OH239646   1.033   6.527  16.136  0.8101 -0.1415 -0.4509
 6052TIP3    H139647   0.948   6.490  16.159  1.5373 -1.1899  0.6571
 6052TIP3    H239648   1.071   6.466  16.073  1.4903 -0.6683  0.4420
 6053TIP3   OH239649   5.210   3.112   2.138  0.2224  0.4053  0.5096
 6053TIP3    H139650   5.247   3.081   2.221 -1.9056  0.7241  1.6463
 6053TIP3    H239651   5.190   3.031   2.089  1.2101  0.2095  0.4094
 6054TIP3   OH239652   5.502   4.894  14.107 -0.1218 -0.4677  0.0144
 6054TIP3    H139653   5.516   4.945  14.186  0.4247 -0.9729  0.2567
 6054TIP3    H239654   5.411   4.910  14.083 -0.6804 -1.3070  1.4711
 6055TIP3   OH239655   3.428   6.166   6.113 -0.2969 -0.1793 -0.3363
 6055TIP3    H139656   3.478   6.247   6.119  0.9585 -1.0161  0.9945
 6055TIP3    H239657   3.379   6.162   6.195  0.1822 -1.0971 -0.0816
 6056TIP3   OH239658   4.959   0.399  12.472  0.3852  0.2184 -0.6080
 6056TIP3    H139659   4.917   0.485  12.474 -0.7638 -0.3399  0.1062
 6056TIP3    H239660   4.927   0.354  12.551  3.4904  0.2737  0.8187
 6057TIP3   OH239661   0.243   2.134  13.722  0.1104  0.0670 -0.0269
 6057TIP3    H139662   0.157   2.108  13.755  0.8290  0.4512  2.4004
 6057TIP3    H239663   0.291   2.051  13.711 -0.0354 -0.0559  0.2606
 6058TIP3   OH239664   4.532   2.255  13.715  0.0455 -0.1872  0.6428
 6058TIP3    H139665   4.495   2.259  13.627 -0.6829 -0.3363  0.9344
 6058TIP3    H239666   4.529   2.163  13.738 -1.1618  0.0276  1.3989
 6059TIP3   OH239667   3.265   0.915   0.278  0.5922 -0.2881  0.1137
 6059TIP3    H139668   3.304   0.939   0.194 -1.3094  1.1397 -0.4465
 6059TIP3    H239669   3.256   0.998   0.325  1.4564 -1.0351  1.7007
 6060TIP3   OH239670   5.760   1.709   5.394  0.0372  0.6333 -0.1444
 6060TIP3    H139671   5.774   1.634   5.337 -1.5618 -0.5737  0.9480
 6060TIP3    H239672   5.715   1.773   5.340  0.6016  0.4430 -0.8465
 6061TIP3   OH239673   2.024   2.954  11.971 -0.3298  0.4835 -0.4778
 6061TIP3    H139674   1.958   2.885  11.976 -1.2608  1.3142 -0.7980
 6061TIP3    H239675   1.991   3.023  12.029  0.9516  0.3898  0.4160
 6062TIP3   OH239676   4.325   3.298  13.603  0.2248  0.0620  0.2350
 6062TIP3    H139677   4.311   3.209  13.636  1.0309 -0.5985 -1.1480
 6062TIP3    H239678   4.340   3.287  13.509  2.1100  1.4731  0.3329
 6063TIP3   OH239679   5.506   3.332  14.563 -0.5182 -0.2666  0.4643
 6063TIP3    H139680   5.485   3.299  14.476 -0.3274  1.0049 -0.0779
 6063TIP3    H239681   5.434   3.301  14.619 -1.6071  0.4719 -0.5104
 6064TIP3   OH239682   0.316   6.113   6.313  0.3240  0.3170 -0.3050
 6064TIP3    H139683   0.399   6.117   6.361 -0.3310  0.7055  0.8272
 6064TIP3    H239684   0.292   6.205   6.301 -0.0196  0.2014 -0.4961
 6065TIP3   OH239685   2.682   1.629   4.430  0.0105  0.2701  0.2015
 6065TIP3    H139686   2.649   1.719   4.425  0.4969  0.4033 -0.8638
 6065TIP3    H239687   2.604   1.575   4.421  0.0227  0.5849 -2.4405
 6066TIP3   OH239688   0.459   0.707  12.611  0.1165 -0.2293  0.4257
 6066TIP3    H139689   0.465   0.612  12.614  0.2319 -0.2590 -0.3910
 6066TIP3    H239690   0.507   0.732  12.532 -0.6077  0.4427  0.1795
 6067TIP3   OH239691   6.416   5.624  11.301 -0.2231 -0.4479  0.1311
 6067TIP3    H139692   6.346   5.577  11.346  0.3385 -1.9629 -0.5071
 6067TIP3    H239693   6.424   5.580  11.217  1.8795 -0.7260  0.4191
 6068TIP3   OH239694   1.014   1.405  13.276 -0.3266 -0.0712  1.0666
 6068TIP3    H139695   1.096   1.356  13.284  0.2628  0.7321  0.1661
 6068TIP3    H239696   1.042   1.496  13.266 -1.4041  0.4461  2.5910
 6069TIP3   OH239697   6.539   1.550   5.364  0.2487  0.4582  0.4570
 6069TIP3    H139698   6.534   1.469   5.414 -0.1872  1.0556  1.4114
 6069TIP3    H239699   6.627   1.583   5.379  1.0841 -0.7279 -1.4177
 6070TIP3   OH239700   6.314   6.389   0.821 -0.2881  0.0738 -0.3126
 6070TIP3    H139701   6.356   6.329   0.759 -1.2092  0.2198 -1.1161
 6070TIP3    H239702   6.249   6.435   0.768 -0.6811  0.6459  0.6470
 6071TIP3   OH239703   3.597   2.528  12.467 -0.2877 -0.0908  0.5257
 6071TIP3    H139704   3.547   2.498  12.391  1.8628 -1.4974 -0.4312
 6071TIP3    H239705   3.609   2.450  12.521 -0.5611  0.5925  1.5959
 6072TIP3   OH239706   5.068   5.487  16.629 -0.4429 -0.5816  0.3016
 6072TIP3    H139707   5.103   5.568  16.668 -1.5366  0.8471 -1.5664
 6072TIP3    H239708   5.040   5.512  16.541  1.4602 -3.5556 -1.3316
 6073TIP3   OH239709   2.129   6.332   3.405 -0.1849 -0.1753 -0.0114
 6073TIP3    H139710   2.208   6.307   3.453  0.0000  0.0485 -0.2007
 6073TIP3    H239711   2.057   6.305   3.462  0.0223 -0.6245  0.0399
 6074TIP3   OH239712   2.502   5.862  13.761  0.0375  0.0876 -0.0331
 6074TIP3    H139713   2.554   5.795  13.807  0.8019 -0.3902 -1.5112
 6074TIP3    H239714   2.548   5.944  13.778  0.8164 -0.2121 -0.6279
 6075TIP3   OH239715   0.353   3.249  12.952 -0.3864  0.0290  0.0518
 6075TIP3    H139716   0.343   3.154  12.953  1.9021 -0.2660 -0.2971
 6075TIP3    H239717   0.338   3.274  12.861 -3.1481  0.3462  0.5117
 6076TIP3   OH239718   0.130   1.698   2.803 -0.0922  0.3812 -0.5732
 6076TIP3    H139719   0.158   1.718   2.892 -2.5361  1.4760  0.0587
 6076TIP3    H239720   0.209   1.672   2.757  1.1591 -0.7500  2.0526
 6077TIP3   OH239721   1.549   6.418   0.510  0.3756  0.1189  0.3125
 6077TIP3    H139722   1.565   6.326   0.486  2.7302 -0.0631  2.1988
 6077TIP3    H239723   1.454   6.423   0.521 -0.1691 -1.2887 -2.6481
 6078TIP3   OH239724   3.487   5.169  13.963  0.6165  0.2358 -0.1079
 6078TIP3    H139725   3.524   5.223  14.032  0.3025  1.0992 -0.5984
 6078TIP3    H239726   3.480   5.082  14.001  0.9791  0.5769  0.7483
 6079TIP3   OH239727   5.782   1.145   1.972  0.0213  0.0385 -0.1871
 6079TIP3    H139728   5.722   1.205   1.928  0.1480  0.0600 -0.3323
 6079TIP3    H239729   5.797   1.075   1.908  0.6521  0.3601 -0.3959
 6080TIP3   OH239730   0.252   3.714   4.811 -0.3833  0.5037  0.4217
 6080TIP3    H139731   0.329   3.662   4.834 -0.0628 -1.6171 -4.3769
 6080TIP3    H239732   0.275   3.804   4.834  2.4370 -0.4009  1.4827
 6081TIP3   OH239733   6.669   1.309  13.877  0.3239  0.8450  0.1477
 6081TIP3    H139734   6.575   1.311  13.891  0.3666  1.2600  0.4052
 6081TIP3    H239735   6.706   1.291  13.964  0.5276  1.9139  0.2972
 6082TIP3   OH239736   1.058   0.582   6.106  0.2841  0.2933  0.3702
 6082TIP3    H139737   1.152   0.601   6.100  1.1485 -3.4333 -1.2059
 6082TIP3    H239738   1.049   0.534   6.188  0.0263 -0.3890 -0.0472
 6083TIP3   OH239739   2.488   4.611   2.827  0.2573 -0.3907 -0.2371
 6083TIP3    H139740   2.557   4.571   2.776 -0.2724 -0.1266 -1.1870
 6083TIP3    H239741   2.407   4.570   2.795 -0.3483  1.5951 -1.4981
 6084TIP3   OH239742   3.826   0.528  11.515  0.1946  0.5919 -0.5079
 6084TIP3    H139743   3.899   0.473  11.487  0.9762  0.2990  1.8897
 6084TIP3    H239744   3.757   0.512  11.450  1.2314 -1.3771 -1.1933
 6085TIP3   OH239745   2.313   2.427  16.523  0.2963  0.2775 -0.0756
 6085TIP3    H139746   2.229   2.466  16.502 -0.2041 -1.2885 -1.1866
 6085TIP3    H239747   2.333   2.370  16.448  1.9324 -0.0372  0.5388
 6086TIP3   OH239748   2.505   1.800   3.895  0.5527  0.1667 -0.9372
 6086TIP3    H139749   2.437   1.785   3.961  1.4686  0.2132  0.0399
 6086TIP3    H239750   2.582   1.754   3.928  1.5743  1.7331 -1.0264
 6087TIP3   OH239751   2.151   5.526   0.619  0.7881  0.5551 -0.0281
 6087TIP3    H139752   2.181   5.474   0.544  1.0059 -0.0712  0.4841
 6087TIP3    H239753   2.230   5.561   0.659  0.6655  0.9839 -0.1497
 6088TIP3   OH239754   2.794   5.496  13.854 -0.3206 -0.4796 -0.0098
 6088TIP3    H139755   2.866   5.442  13.885 -0.1011 -0.6462 -0.7933
 6088TIP3    H239756   2.783   5.472  13.762 -2.3070 -1.4811  0.4348
 6089TIP3   OH239757   6.117   3.983  13.935 -0.4334 -0.5633 -0.1494
 6089TIP3    H139758   6.026   3.959  13.915 -0.9102 -1.5204  2.7299
 6089TIP3    H239759   6.149   4.022  13.854 -2.8878 -1.6805 -1.7972
 6090TIP3   OH239760   0.212   5.826   5.655  0.2372  0.0607 -0.3187
 6090TIP3    H139761   0.179   5.774   5.728 -1.1830 -0.7216 -1.4810
 6090TIP3    H239762   0.266   5.894   5.697 -0.5155 -0.3756  1.4461
 6091TIP3   OH239763   3.062   2.294  16.818  0.1951  0.2205 -0.1522
 6091TIP3    H139764   3.109   2.245  16.751  0.1285 -0.5818  0.3753
 6091TIP3    H239765   3.016   2.363  16.769 -0.8838 -1.1262 -1.0965
 6092TIP3   OH239766   4.482   4.907  13.127 -0.1025  0.0925 -0.2972
 6092TIP3    H139767   4.485   4.851  13.204 -0.0191 -0.0424 -0.3992
 6092TIP3    H239768   4.565   4.891  13.082 -0.4290 -0.3247 -0.7659
 6093TIP3   OH239769   1.709   1.908  15.067  0.5557 -0.5525 -0.0291
 6093TIP3    H139770   1.802   1.930  15.064  0.5391 -0.3284  0.8718
 6093TIP3    H239771   1.698   1.842  14.999  1.4433 -0.8425  0.0951
 6094TIP3   OH239772   0.955   4.948  12.681  0.2008 -0.0815  0.4024
 6094TIP3    H139773   1.036   4.911  12.648 -0.2436  0.5610 -1.5740
 6094TIP3    H239774   0.924   5.005  12.610  0.0421  2.8386  2.5898
 6095TIP3   OH239775   3.678   3.016  10.540  0.0784  0.0957  0.2686
 6095TIP3    H139776   3.649   2.939  10.587  0.5668 -1.0276 -1.1673
 6095TIP3    H239777   3.732   2.981  10.468 -0.0743  1.7364 -0.7036
 6096TIP3   OH239778   6.540   1.147  15.741  0.4184 -0.0583 -0.0693
 6096TIP3    H139779   6.479   1.157  15.668  2.4987 -2.0469 -2.2841
 6096TIP3    H239780   6.514   1.066  15.784 -1.8422  1.9402  2.6567
 6097TIP3   OH239781   3.521   1.331   3.565  0.1786  0.3629  0.2924
 6097TIP3    H139782   3.545   1.238   3.565 -0.8664  0.0268 -2.0125
 6097TIP3    H239783   3.597   1.376   3.602  2.4405 -1.0719 -2.2487
 6098TIP3   OH239784   0.985   3.222  16.019 -0.4805 -0.2573  0.3277
 6098TIP3    H139785   1.057   3.276  15.989 -1.6251  1.2352  0.1713
 6098TIP3    H239786   1.011   3.192  16.106 -0.1093  1.1307  0.7124
 6099TIP3   OH239787   5.742   1.604  10.949  0.2201  0.1516  0.1882
 6099TIP3    H139788   5.655   1.572  10.923  0.1417  1.4723 -1.2971
 6099TIP3    H239789   5.728   1.695  10.973  1.1975  0.3440  0.0487
 6100TIP3   OH239790   6.402   0.033   0.180  0.9835  0.1480 -0.5524
 6100TIP3    H139791   6.481   0.014   0.129  1.4050  0.4958 -0.0351
 6100TIP3    H239792   6.354  -0.050   0.182 -0.4948  0.7370 -3.9274
 6101TIP3   OH239793   2.916   6.606  12.833 -0.0378 -0.1563 -0.1930
 6101TIP3    H139794   2.955   6.572  12.913  1.2013  1.3612 -0.0913
 6101TIP3    H239795   2.963   6.688  12.817 -2.0845  0.9274 -1.0187
 6102TIP3   OH239796   5.309   5.642  12.153 -0.1089 -0.0875  0.0864
 6102TIP3    H139797   5.273   5.698  12.084  2.0402  1.3024 -0.0064
 6102TIP3    H239798   5.403   5.662  12.152  0.2190 -1.3463  2.2434
 6103TIP3   OH239799   2.941   0.070   5.891  0.4948  0.2106  0.0379
 6103TIP3    H139800   2.951   0.001   5.825 -0.5900  0.0470  0.0299
 6103TIP3    H239801   3.009   0.051   5.956  1.3078  0.1332 -0.8131
 6104TIP3   OH239802   6.325   3.316  12.469  0.4307 -0.0297  0.3540
 6104TIP3    H139803   6.415   3.336  12.445  0.9182  1.6931  3.1751
 6104TIP3    H239804   6.324   3.221  12.484  1.5564 -0.1663 -0.3476
 6105TIP3   OH239805   5.847   0.192  16.000  0.1370 -0.1742  0.5194
 6105TIP3    H139806   5.798   0.122  16.043  2.3429 -1.4047  1.1946
 6105TIP3    H239807   5.902   0.146  15.936 -0.5632  1.2840 -1.2094
 6106TIP3   OH239808   5.659   4.629  16.331  0.0502  0.1645  0.1834
 6106TIP3    H139809   5.738   4.579  16.311  0.6431  1.0791  0.1681
 6106TIP3    H239810   5.651   4.625  16.426  0.0233 -0.0580  0.1722
 6107TIP3   OH239811   6.503   4.756  15.902  0.1077  0.2062 -0.2076
 6107TIP3    H139812   6.469   4.839  15.937 -1.0063 -0.0147 -0.7295
 6107TIP3    H239813   6.527   4.706  15.980  0.2815  0.8043  0.1315
 6108TIP3   OH239814   0.694   2.160  13.652 -0.3174  0.1720 -0.2396
 6108TIP3    H139815   0.618   2.214  13.674  1.6595  1.9804  2.7807
 6108TIP3    H239816   0.718   2.117  13.734  2.9199  1.0689 -0.5813
 6109TIP3   OH239817   3.364   2.014  11.274 -0.4334 -0.0546  0.1561
 6109TIP3    H139818   3.386   1.947  11.339 -0.5978 -1.2929 -1.0444
 6109TIP3    H239819   3.314   1.968  11.207  1.8280  0.5989 -2.1599
 6110TIP3   OH239820   1.544   3.043   0.563 -0.6156 -0.0487 -0.4550
 6110TIP3    H139821   1.593   3.119   0.533 -0.4315  0.0032 -0.0329
 6110TIP3    H239822   1.594   2.968   0.530 -0.4358  0.0075 -0.3135
 6111TIP3   OH239823   3.236   2.026  13.105 -0.7514  0.5754 -0.3888
 6111TIP3    H139824   3.274   1.938  13.110 -0.8166  0.6240  1.5540
 6111TIP3    H239825   3.276   2.074  13.178 -1.4363  1.8748 -0.8402
 6112TIP3   OH239826   1.863   4.823   6.108 -0.8418 -0.3381  0.1367
 6112TIP3    H139827   1.936   4.770   6.076 -1.9791 -0.5572 -2.3288
 6112TIP3    H239828   1.803   4.759   6.146 -0.8606 -0.4566 -0.0895
 6113TIP3   OH239829   2.503   2.148   5.692  0.3453 -0.1323  0.0170
 6113TIP3    H139830   2.453   2.229   5.689  0.1087 -0.1950  1.6272
 6113TIP3    H239831   2.453   2.087   5.638  0.6773  0.8449 -1.4449
 6114TIP3   OH239832   5.764   5.882  12.552 -0.0247  0.0875  0.1578
 6114TIP3    H139833   5.821   5.918  12.620 -0.9330 -0.5026  1.2607
 6114TIP3    H239834   5.697   5.950  12.539 -1.2040 -0.7415  1.5756
 6115TIP3   OH239835   3.815   1.357   6.316 -0.0935 -0.5066  0.1603
 6115TIP3    H139836   3.781   1.277   6.355 -0.8918  0.8119  2.3409
 6115TIP3    H239837   3.880   1.388   6.379  0.5272  0.3623 -0.8703
 6116TIP3   OH239838   6.329   0.635   2.504  0.1436 -0.1532 -0.2555
 6116TIP3    H139839   6.393   0.572   2.536 -2.1952 -1.8745  1.4054
 6116TIP3    H239840   6.314   0.694   2.578 -0.5404 -0.0821 -0.4432
 6117TIP3   OH239841   2.649   3.651  13.192 -0.0734 -0.1612 -0.3747
 6117TIP3    H139842   2.579   3.614  13.138  0.7324 -1.3311 -0.6648
 6117TIP3    H239843   2.611   3.729  13.231 -2.0580 -1.5630  0.6612
 6118TIP3   OH239844   6.498   2.778  10.701 -0.5009  0.1880  0.2926
 6118TIP3    H139845   6.580   2.758  10.746 -1.2062 -1.1210  1.0738
 6118TIP3    H239846   6.430   2.758  10.766 -1.4646  0.4089 -0.6260
 6119TIP3   OH239847   5.729   5.820  16.018  0.0888  0.8515  0.3188
 6119TIP3    H139848   5.648   5.790  15.977  0.7146 -2.6019  1.3227
 6119TIP3    H239849   5.707   5.905  16.057 -2.8869  0.2180  0.1785
 6120TIP3   OH239850   3.681   3.949   2.185  0.1941 -0.1348  0.3090
 6120TIP3    H139851   3.651   4.027   2.231  1.2007  0.1476  0.5122
 6120TIP3    H239852   3.769   3.971   2.155  0.1659 -0.8921 -0.3746
 6121TIP3   OH239853   3.159   0.576  14.456 -0.1169 -0.2641 -0.0698
 6121TIP3    H139854   3.142   0.493  14.500  0.4814  0.4543  1.6109
 6121TIP3    H239855   3.254   0.588  14.462 -0.4311  2.0339  2.7519
 6122TIP3   OH239856   3.893   3.836  15.236 -0.3586  0.1637 -0.0020
 6122TIP3    H139857   3.892   3.911  15.296  0.6978  1.3829 -1.4425
 6122TIP3    H239858   3.959   3.777  15.273  1.4950  1.6514 -0.7595
 6123TIP3   OH239859   3.660   6.743   1.224  0.2593 -0.0563  0.9833
 6123TIP3    H139860   3.669   6.774   1.134  0.4255 -1.6505  0.4320
 6123TIP3    H239861   3.715   6.802   1.275 -0.4660  1.3743  0.1887
 6124TIP3   OH239862   0.800   4.888  16.080 -0.4564 -0.2102 -0.2210
 6124TIP3    H139863   0.788   4.980  16.055 -0.4261  0.0083  0.5264
 6124TIP3    H239864   0.712   4.851  16.082 -0.3319 -0.7352 -2.4133
 6125TIP3   OH239865   5.444   1.770  12.759  0.2885 -0.1443  0.0910
 6125TIP3    H139866   5.369   1.719  12.729  0.6731 -0.1955 -0.8278
 6125TIP3    H239867   5.420   1.799  12.847 -0.0793 -1.6188  0.5068
 6126TIP3   OH239868   2.691   2.395   2.605 -0.1141  0.1094  0.0907
 6126TIP3    H139869   2.772   2.355   2.575 -0.2277  0.8740 -1.3128
 6126TIP3    H239870   2.622   2.343   2.564 -0.3932 -0.8059  1.6179
 6127TIP3   OH239871   5.693   1.941  12.146  0.5658 -0.7712  0.2949
 6127TIP3    H139872   5.780   1.981  12.136  1.7068 -2.8126  1.4046
 6127TIP3    H239873   5.643   1.974  12.071  1.4537  2.4027  0.9459
 6128TIP3   OH239874   0.156   1.381  12.596 -0.2166 -0.0990 -0.2152
 6128TIP3    H139875   0.144   1.288  12.616 -1.0342  0.1756  0.5888
 6128TIP3    H239876   0.187   1.420  12.678  0.3088  0.3198 -0.5998
 6129TIP3   OH239877   0.360   6.565  10.631 -0.1756  0.5299  0.5128
 6129TIP3    H139878   0.424   6.495  10.621 -1.1092 -0.2756 -0.0818
 6129TIP3    H239879   0.341   6.592  10.541 -0.7577  0.6600  0.6699
 6130TIP3   OH239880   2.280   2.176   5.038  0.0155 -0.4409 -0.5442
 6130TIP3    H139881   2.291   2.116   4.964  0.0927 -1.5370  0.3149
 6130TIP3    H239882   2.217   2.131   5.095 -0.5085  0.6693 -0.2340
 6131TIP3   OH239883   5.349   0.921   1.840  0.2150  0.1713  0.1492
 6131TIP3    H139884   5.343   0.841   1.891  1.3652  0.4533  0.7697
 6131TIP3    H239885   5.285   0.980   1.879 -0.5018 -0.3731 -0.1930
 6132TIP3   OH239886   0.750   2.576   1.502  0.4412 -0.3707 -0.6889
 6132TIP3    H139887   0.673   2.579   1.445 -0.9180  2.1151  1.1271
 6132TIP3    H239888   0.824   2.574   1.441 -0.9441  1.5883 -2.6001
 6133TIP3   OH239889   2.756   5.117   0.639  0.0950  0.0306 -0.2124
 6133TIP3    H139890   2.694   5.112   0.567 -0.9606 -0.3043  0.6962
 6133TIP3    H239891   2.842   5.118   0.597 -0.5076  0.0828 -1.4725
 6134TIP3   OH239892   5.800   0.905   1.033  0.0197  0.2371  0.1835
 6134TIP3    H139893   5.758   0.917   1.118  1.4429 -0.6548  1.0467
 6134TIP3    H239894   5.873   0.966   1.033 -0.5752  0.9722 -0.8405
 6135TIP3   OH239895   2.228   1.376   6.412 -0.0462  0.3864 -0.0671
 6135TIP3    H139896   2.182   1.319   6.351 -1.5233  2.3148 -0.8751
 6135TIP3    H239897   2.217   1.334   6.498  0.1558 -1.2347 -0.8144
 6136TIP3   OH239898   5.136   2.194   5.108  0.2666 -0.2863  0.5020
 6136TIP3    H139899   5.106   2.208   5.018  2.4858  1.1033 -0.0988
 6136TIP3    H239900   5.103   2.270   5.156  0.3306 -0.2669  0.5151
 6137TIP3   OH239901   3.117   6.597  15.397  0.2152  0.1762 -0.2658
 6137TIP3    H139902   3.100   6.672  15.454 -0.5880 -0.3418  0.2039
 6137TIP3    H239903   3.169   6.537  15.451  1.3511  0.6328 -0.8334
 6138TIP3   OH239904   1.075   6.823  14.583 -0.1895  0.7182  0.4797
 6138TIP3    H139905   1.101   6.806  14.673 -0.5973  2.1941  0.9117
 6138TIP3    H239906   1.047   6.738  14.549  1.0833 -0.0839  1.3444
 6139TIP3   OH239907   2.956   1.705   6.526  0.2818 -0.3413  0.8329
 6139TIP3    H139908   2.898   1.682   6.454  1.0535 -2.3428  0.8112
 6139TIP3    H239909   3.031   1.747   6.483 -0.4557  0.9771  0.7526
 6140TIP3   OH239910   0.886   0.690   2.152 -0.0416 -0.1818 -0.0742
 6140TIP3    H139911   0.873   0.660   2.242  0.2515  0.1682  0.0850
 6140TIP3    H239912   0.960   0.750   2.157  0.8819 -1.2180 -0.7818
 6141TIP3   OH239913   2.923   1.531  15.818 -0.2420 -0.6760 -0.1063
 6141TIP3    H139914   2.889   1.441  15.818 -0.0125 -0.7960  1.6901
 6141TIP3    H239915   2.919   1.558  15.909  1.6393  0.4007 -0.2958
 6142TIP3   OH239916   0.750   5.558   2.441  0.1655 -0.3151  0.0626
 6142TIP3    H139917   0.742   5.641   2.393 -1.1765 -0.8027 -0.6350
 6142TIP3    H239918   0.677   5.559   2.503  0.5779 -0.6669  0.5654
 6143TIP3   OH239919   6.099   6.735   0.007 -0.2727  0.5131 -0.3361
 6143TIP3    H139920   6.114   6.695   0.092 -0.2548 -0.1405 -0.6403
 6143TIP3    H239921   6.120   6.828   0.020  0.5038  0.2785  0.1692
 6144TIP3   OH239922   1.279   3.918   0.674  0.0120  0.2269  0.4155
 6144TIP3    H139923   1.218   3.919   0.600  0.2723 -0.5977  0.1793
 6144TIP3    H239924   1.353   3.972   0.645 -1.1364  2.3136  1.1944
 6145TIP3   OH239925   0.919   3.485  14.547  0.2544 -0.1864  0.6884
 6145TIP3    H139926   0.978   3.479  14.473 -0.8578  0.1722 -0.2579
 6145TIP3    H239927   0.888   3.576  14.546 -0.6583 -0.4788  0.8719
 6146TIP3   OH239928   3.478   0.709   4.219 -1.3186 -0.6063  0.2762
 6146TIP3    H139929   3.496   0.620   4.247  0.4921  0.2218  1.9490
 6146TIP3    H239930   3.447   0.754   4.297 -1.2798  0.4605 -0.2917
 6147TIP3   OH239931   4.072   0.893   2.927 -0.8169  0.2109 -0.2783
 6147TIP3    H139932   4.050   0.873   3.018 -0.7731 -1.4357 -0.5933
 6147TIP3    H239933   3.987   0.906   2.884 -0.8509  0.7055 -0.0606
 6148TIP3   OH239934   4.122   6.709  12.495 -0.0735  0.5958  0.0754
 6148TIP3    H139935   4.150   6.624  12.460 -0.7080 -0.1028  1.1904
 6148TIP3    H239936   4.136   6.770  12.423 -1.2226 -0.7490 -1.3515
 6149TIP3   OH239937   4.456   1.169   3.949 -0.0940  0.5212 -0.0902
 6149TIP3    H139938   4.534   1.203   3.994 -0.4728  0.3726  0.7058
 6149TIP3    H239939   4.399   1.245   3.941 -2.0909 -0.2243  4.0913
 6150TIP3   OH239940   5.973   5.700  16.103 -0.0720  0.2545  0.0272
 6150TIP3    H139941   5.976   5.736  16.192 -1.9208 -1.5233  0.8835
 6150TIP3    H239942   5.886   5.720  16.071  0.6010  0.9599 -1.4811
 6151TIP3   OH239943   2.279   0.722  10.554 -0.1673 -0.0439 -0.1890
 6151TIP3    H139944   2.355   0.742  10.499 -0.4083 -1.0060 -0.9060
 6151TIP3    H239945   2.265   0.628  10.542 -0.6583 -0.1358  0.9855
 6152TIP3   OH239946   5.344   4.471   4.763  0.0647 -0.2485  0.3596
 6152TIP3    H139947   5.344   4.521   4.682  2.0408 -1.2555 -0.3222
 6152TIP3    H239948   5.425   4.419   4.760 -2.0113 -3.8291  0.8143
 6153TIP3   OH239949   4.941   1.963  11.594 -0.1087  0.1698  0.3128
 6153TIP3    H139950   4.896   1.922  11.668  0.5897  0.2207  0.7831
 6153TIP3    H239951   5.033   1.939  11.607  0.2227  1.3288  0.2359
 6154TIP3   OH239952   4.397   3.493   1.124 -0.2097  0.0680  0.1850
 6154TIP3    H139953   4.370   3.402   1.113  1.9612 -0.8709  1.8139
 6154TIP3    H239954   4.397   3.530   1.036 -0.3645 -1.7437 -0.6118
 6155TIP3   OH239955   3.306   5.830   2.366  0.1333 -0.3371 -0.4463
 6155TIP3    H139956   3.343   5.825   2.454  0.9463 -0.3654 -0.7800
 6155TIP3    H239957   3.215   5.801   2.376  0.0233  0.3034  0.4968
 6156TIP3   OH239958   4.008   2.378   5.343 -0.1471 -0.3700  0.4640
 6156TIP3    H139959   4.021   2.328   5.424 -0.0354  1.0501  1.3677
 6156TIP3    H239960   3.937   2.439   5.365 -0.1483 -0.0001 -0.5400
 6157TIP3   OH239961   4.454   1.255  11.339 -0.0844 -0.9366 -0.0477
 6157TIP3    H139962   4.489   1.268  11.427  1.0446 -0.9724 -0.4620
 6157TIP3    H239963   4.492   1.327  11.288 -0.8921 -0.7975 -0.4627
 6158TIP3   OH239964   1.601   0.659  11.098 -0.2045 -0.1998 -0.4473
 6158TIP3    H139965   1.609   0.702  11.013 -1.1312 -2.5344 -1.8131
 6158TIP3    H239966   1.508   0.662  11.118 -0.0954 -0.3402  0.1032
 6159TIP3   OH239967   2.042   1.146   4.522 -0.0777 -0.0727 -0.1658
 6159TIP3    H139968   2.107   1.093   4.567  0.4448  1.5566  1.0975
 6159TIP3    H239969   1.959   1.120   4.560  0.2050  0.2053  0.6576
 6160TIP3   OH239970   6.223   5.203  11.071 -0.6617 -0.4275 -0.0788
 6160TIP3    H139971   6.128   5.202  11.074 -0.6738  0.8591  1.2366
 6160TIP3    H239972   6.251   5.165  11.154 -0.1422  2.0311  0.9675
 6161TIP3   OH239973   0.280   2.177  11.542 -0.7344  0.5982 -0.0415
 6161TIP3    H139974   0.343   2.105  11.540 -0.6355  0.6664  0.4207
 6161TIP3    H239975   0.322   2.248  11.492 -1.6632 -0.3073 -2.2480
 6162TIP3   OH239976   3.221   5.441   0.468 -0.2435 -0.1733  0.3637
 6162TIP3    H139977   3.305   5.476   0.500  0.1682 -0.4443 -0.4037
 6162TIP3    H239978   3.224   5.348   0.491  0.1825 -0.4355 -0.6834
 6163TIP3   OH239979   6.660   5.130  15.721  0.3818 -0.0057 -0.7254
 6163TIP3    H139980   6.572   5.158  15.694 -0.2417 -0.5164  0.6956
 6163TIP3    H239981   6.669   5.041  15.686 -0.1223 -0.3768  0.0628
 6164TIP3   OH239982   5.826   6.044   3.014  0.0408  0.0917 -0.0064
 6164TIP3    H139983   5.813   5.951   2.996  1.8994  0.1290 -1.9411
 6164TIP3    H239984   5.762   6.088   2.957  0.3656  0.0303 -0.4209
 6165TIP3   OH239985   6.555   2.603  13.493  0.0928  0.7954 -0.3982
 6165TIP3    H139986   6.615   2.652  13.550 -0.0639 -1.7948  2.1932
 6165TIP3    H239987   6.608   2.532  13.457 -0.8072 -0.0228 -0.1453
 6166TIP3   OH239988   2.199   0.699  13.528 -0.1163  0.7859  0.2140
 6166TIP3    H139989   2.236   0.661  13.448  0.5029  0.2496  0.7396
 6166TIP3    H239990   2.231   0.642  13.599 -1.1893  0.8652  0.7876
 6167TIP3   OH239991   4.559   1.082  15.338  0.2375 -0.2939 -0.3020
 6167TIP3    H139992   4.524   1.042  15.417  0.4707  0.7415  0.3333
 6167TIP3    H239993   4.647   1.046  15.330  0.1089 -0.6232 -0.2645
 6168TIP3   OH239994   4.391   3.178  14.525 -0.0146  0.4296  0.2827
 6168TIP3    H139995   4.458   3.230  14.482 -2.2305  1.9329 -1.6206
 6168TIP3    H239996   4.319   3.240  14.541 -1.4881 -1.3556  0.9557
 6169TIP3   OH239997   0.035   1.280  11.924  0.2207  0.0515 -0.0786
 6169TIP3    H139998  -0.029   1.351  11.914  1.3840  1.2296  0.4823
 6169TIP3    H239999   0.055   1.280  12.017 -0.7854 -1.9942  0.1848
 6170TIP3   OH240000   5.160   5.032   6.720  0.7010 -0.2609  0.0121
 6170TIP3    H140001   5.113   4.988   6.791  0.6216 -0.6916 -0.3043
 6170TIP3    H240002   5.239   5.067   6.761  0.9693 -1.0570  0.1805
 6171TIP3   OH240003   5.110   6.134  14.611  0.0464 -0.1029  0.8866
 6171TIP3    H140004   5.179   6.180  14.563 -2.0479  1.7549 -0.4762
 6171TIP3    H240005   5.151   6.112  14.695  1.6024  3.1143  1.1244
 6172TIP3   OH240006   2.796   3.796  12.326 -0.0036 -0.4750 -0.1511
 6172TIP3    H140007   2.863   3.847  12.372  0.2777 -0.0605 -1.0054
 6172TIP3    H240008   2.715   3.817  12.372  0.0314  1.1263 -0.7562
 6173TIP3   OH240009   4.187   3.500  12.577  0.6701 -0.2811 -0.1243
 6173TIP3    H140010   4.219   3.590  12.572  1.3951 -0.5507 -0.3313
 6173TIP3    H240011   4.147   3.484  12.492  1.9911 -0.6959 -0.6844
 6174TIP3   OH240012   5.752   3.805   2.091  0.1319 -0.5520  0.2267
 6174TIP3    H140013   5.721   3.861   2.161  0.1727 -2.1828  1.5997
 6174TIP3    H240014   5.726   3.717   2.116  2.1546 -1.4746 -0.6395
 6175TIP3   OH240015   0.417   3.383  16.870 -0.1509 -0.0183  0.1525
 6175TIP3    H140016   0.452   3.297  16.848  0.1269  0.1815 -0.2065
 6175TIP3    H240017   0.368   3.409  16.791 -0.4379  0.0482  0.3505
 6176TIP3   OH240018   4.273   5.323  14.452 -0.5180  0.6107 -0.2178
 6176TIP3    H140019   4.330   5.285  14.519  0.0396 -0.2178 -1.1386
 6176TIP3    H240020   4.320   5.310  14.370 -1.1569  1.6731 -0.7736
 6177TIP3   OH240021   5.143   5.763   3.373 -0.1488  0.1781  0.1506
 6177TIP3    H140022   5.064   5.736   3.418 -1.4133  1.5971 -1.1104
 6177TIP3    H240023   5.115   5.832   3.313  2.2098  1.5216  0.4328
 6178TIP3   OH240024   6.215   3.792  12.538  0.6213  0.1228  0.3326
 6178TIP3    H140025   6.166   3.774  12.618  0.8147 -0.0629  0.4110
 6178TIP3    H240026   6.196   3.718  12.480 -1.7646  1.5713 -0.9074
 6179TIP3   OH240027   3.083   1.159   5.427  0.1917 -0.1394 -0.2583
 6179TIP3    H140028   3.120   1.116   5.350  0.2474 -1.5313  0.5149
 6179TIP3    H240029   3.054   1.087   5.484  0.3831  0.8394  1.1421
 6180TIP3   OH240030   5.552   2.930  12.985  0.6335  0.2845  0.1599
 6180TIP3    H140031   5.627   2.933  12.925  0.1967  0.0476 -0.4060
 6180TIP3    H240032   5.484   2.981  12.942 -0.3079 -1.3955 -0.4512
 6181TIP3   OH240033   6.321   2.824   4.038 -0.1470 -0.2907 -0.2709
 6181TIP3    H140034   6.255   2.803   4.105 -2.5888  0.2689 -2.3268
 6181TIP3    H240035   6.347   2.914   4.058  1.3344 -1.0489  1.5219
 6182TIP3   OH240036   0.456   1.829   0.321  0.8756 -0.6219 -0.4344
 6182TIP3    H140037   0.494   1.917   0.327  0.7837 -0.6355  0.5767
 6182TIP3    H240038   0.390   1.827   0.390  0.7273 -1.4172 -0.5863
 6183TIP3   OH240039   5.552   1.310   2.799  0.2712 -0.4821 -0.4612
 6183TIP3    H140040   5.541   1.367   2.875 -2.2238 -1.5871  0.0982
 6183TIP3    H240041   5.565   1.223   2.837 -1.0502 -1.0542 -1.2633
 6184TIP3   OH240042   4.475   3.816  11.211  0.0202  0.3453 -0.1201
 6184TIP3    H140043   4.443   3.897  11.250  0.1726  1.1006 -1.4918
 6184TIP3    H240044   4.569   3.817  11.226  0.4790  1.8846 -2.5573
 6185TIP3   OH240045   5.094   0.226   0.714  0.5613  0.0394  0.6077
 6185TIP3    H140046   5.186   0.223   0.738  0.5058  1.3219  1.0538
 6185TIP3    H240047   5.058   0.298   0.765 -0.7781 -0.6774  0.7210
 6186TIP3   OH240048   6.475   4.349   1.930 -0.3006 -0.1574 -0.6708
 6186TIP3    H140049   6.421   4.286   1.977  0.1637  0.8972  1.3999
 6186TIP3    H240050   6.506   4.301   1.853  0.7250 -2.7782  1.2064
 6187TIP3   OH240051   4.605   3.536  14.666  0.1328 -0.1579 -0.6329
 6187TIP3    H140052   4.626   3.473  14.597 -0.8915 -1.1491 -0.0708
 6187TIP3    H240053   4.634   3.493  14.747 -0.5469  0.0971 -0.2479
 6188TIP3   OH240054   4.993   5.679  14.446 -0.2498 -0.2237 -0.4992
 6188TIP3    H140055   5.064   5.619  14.423  0.4050  0.4267 -0.2531
 6188TIP3    H240056   4.958   5.644  14.528 -1.1280 -1.3059 -1.3074
 6189TIP3   OH240057   6.138   3.611  12.299 -0.8272 -0.0686 -0.8233
 6189TIP3    H140058   6.104   3.529  12.262 -0.2135 -1.1344  0.8523
 6189TIP3    H240059   6.066   3.674  12.288 -2.8561 -1.8306  1.1868
 6190TIP3   OH240060   0.443   5.644   0.349 -0.1106 -0.4965  0.2305
 6190TIP3    H140061   0.537   5.633   0.365  0.1729  1.3125  0.0607
 6190TIP3    H240062   0.404   5.647   0.436  0.3990  1.5292  0.4421
 6191TIP3   OH240063   1.532   4.550   0.543 -0.3217 -0.0437  0.2345
 6191TIP3    H140064   1.540   4.510   0.629  1.1720 -1.3239 -0.4476
 6191TIP3    H240065   1.576   4.634   0.551 -0.9104  0.2114  0.9111
 6192TIP3   OH240066   5.615   6.834   3.198 -0.7076 -0.1415  0.5141
 6192TIP3    H140067   5.689   6.778   3.173 -1.3700 -0.1247 -1.6668
 6192TIP3    H240068   5.656   6.918   3.219 -0.0165 -0.3995  0.2477
 6193TIP3   OH240069   1.258   0.505  12.456  0.1288 -0.1873 -0.4660
 6193TIP3    H140070   1.274   0.431  12.397 -0.7538 -0.8206  0.0522
 6193TIP3    H240071   1.333   0.506  12.515 -0.3378 -1.3376  0.1758
 6194TIP3   OH240072   5.108   1.757   5.513 -0.3588  0.9104 -0.1144
 6194TIP3    H140073   5.203   1.759   5.525 -0.2172 -0.5152 -0.8221
 6194TIP3    H240074   5.077   1.838   5.554  1.1135  1.2104  0.4607
 6195TIP3   OH240075   1.115   4.000  15.508 -0.2107 -0.2300 -0.0424
 6195TIP3    H140076   1.161   4.005  15.592  1.2429  3.9702 -0.8331
 6195TIP3    H240077   1.057   3.925  15.517 -1.5170  0.9715  5.4493
 6196TIP3   OH240078   5.526   0.645  13.476  0.4248  0.6166 -0.1373
 6196TIP3    H140079   5.604   0.671  13.427  0.5738  1.5148  0.5516
 6196TIP3    H240080   5.460   0.625  13.409  1.5410 -1.2170 -0.7647
 6197TIP3   OH240081   2.541   1.980   1.748 -0.0790  0.7109  0.1808
 6197TIP3    H140082   2.449   1.997   1.767  0.7954  3.0311  2.8826
 6197TIP3    H240083   2.555   2.019   1.662 -1.1369  2.3874  0.7253
 6198TIP3   OH240084   3.459   0.537  11.710  0.7331  0.3499  0.7348
 6198TIP3    H140085   3.544   0.551  11.752  0.7516 -0.2603  0.9057
 6198TIP3    H240086   3.467   0.452  11.666  0.3854  0.5317  0.3132
 6199TIP3   OH240087   2.481   4.690   5.362 -0.4606  0.2321 -0.2935
 6199TIP3    H140088   2.572   4.707   5.338 -0.3303  0.3356  0.2498
 6199TIP3    H240089   2.447   4.636   5.291 -0.0718  0.4740 -0.6632
 6200TIP3   OH240090   0.205   4.694  15.330 -0.3484  0.2207  0.0777
 6200TIP3    H140091   0.188   4.777  15.373  0.1358  0.6870 -0.5959
 6200TIP3    H240092   0.121   4.668  15.292 -0.3629  0.7255 -0.2403
 6201TIP3   OH240093   3.113   2.607   1.332  0.1953 -0.2599 -0.2380
 6201TIP3    H140094   3.192   2.609   1.278  0.4600 -1.4856  0.0576
 6201TIP3    H240095   3.090   2.699   1.345  2.3524  0.2151  0.7772
 6202TIP3   OH240096   5.308   2.620   5.203 -0.1441 -0.4289  0.3881
 6202TIP3    H140097   5.212   2.615   5.208 -0.2032  0.9407  1.0921
 6202TIP3    H240098   5.331   2.692   5.261  1.3133 -0.6160  0.0758
 6203TIP3   OH240099   5.309   6.015  13.361 -0.3434  0.2220 -0.0528
 6203TIP3    H140100   5.317   6.094  13.415 -2.3411 -0.3076  1.1608
 6203TIP3    H240101   5.305   6.048  13.271  0.1011  1.3900  0.3310
 6204TIP3   OH240102   5.187   4.621  16.275  0.3564 -0.1240 -0.2029
 6204TIP3    H140103   5.268   4.579  16.247  0.9776  1.2452 -0.5518
 6204TIP3    H240104   5.204   4.715  16.265 -0.5147  0.2972  1.7447
 6205TIP3   OH240105   5.985   1.281   4.773  0.3431 -0.1775 -0.1863
 6205TIP3    H140106   5.948   1.235   4.848 -0.4683 -1.0014 -1.0724
 6205TIP3    H240107   6.069   1.237   4.758  1.0967  0.7781  0.9461
 6206TIP3   OH240108   1.390   3.043   2.928  0.2115 -0.4603  0.6019
 6206TIP3    H140109   1.378   3.059   3.022  0.6346 -0.1642  0.6099
 6206TIP3    H240110   1.450   2.968   2.924  1.6253  0.6113  0.5962
 6207TIP3   OH240111   1.881   1.312   3.301 -0.5860  0.3500 -0.4567
 6207TIP3    H140112   1.928   1.317   3.384 -0.9446  0.0754 -0.2367
 6207TIP3    H240113   1.936   1.256   3.246 -0.6337  0.0628 -0.2129
 6208TIP3   OH240114   3.318   4.772  16.542  0.2055  0.1879 -0.4308
 6208TIP3    H140115   3.298   4.845  16.484 -0.0020  1.0178  0.6405
 6208TIP3    H240116   3.233   4.734  16.563  0.4193 -1.4021 -2.2363
 6209TIP3   OH240117   4.481   0.253   0.069  0.5238 -0.0603 -0.0644
 6209TIP3    H140118   4.425   0.230  -0.005  1.4938  0.8179 -1.1022
 6209TIP3    H240119   4.447   0.337   0.099  0.3063 -0.2827  0.3175
 6210TIP3   OH240120   3.934   6.437   5.496  0.0207 -0.0922  0.3677
 6210TIP3    H140121   3.943   6.372   5.426 -0.4651 -0.3477  0.5389
 6210TIP3    H240122   3.871   6.398   5.556  1.9323 -0.8347  2.0321
 6211TIP3   OH240123   2.175   5.918  15.066  0.7959  0.3257  0.2452
 6211TIP3    H140124   2.114   5.871  15.009  2.3570  2.0738 -3.1513
 6211TIP3    H240125   2.125   5.993  15.099  0.2857  0.1176 -0.0435
 6212TIP3   OH240126   5.515   5.502  13.490 -0.5360 -0.2400  0.0667
 6212TIP3    H140127   5.497   5.505  13.396  0.1000  1.1031 -0.0330
 6212TIP3    H240128   5.429   5.499  13.531 -0.8660 -4.0022 -0.5700
 6213TIP3   OH240129   3.148   4.391   4.532 -0.5755  1.0966 -0.1151
 6213TIP3    H140130   3.052   4.390   4.543 -0.3941  0.1053  2.0311
 6213TIP3    H240131   3.175   4.476   4.567 -0.6090  0.9546  0.2674
 6214TIP3   OH240132   5.495   5.609   1.722  0.5559  0.0190  0.0604
 6214TIP3    H140133   5.439   5.668   1.671 -0.5745 -1.3671 -0.3671
 6214TIP3    H240134   5.493   5.645   1.811 -0.9117  0.0944  0.0174
 6215TIP3   OH240135   0.005   4.335   3.153 -0.1493  0.5727 -0.2188
 6215TIP3    H140136  -0.075   4.385   3.168 -0.0403  0.7348 -0.1635
 6215TIP3    H240137   0.003   4.313   3.060  0.4633  1.8715 -0.5706
 6216TIP3   OH240138   6.537   5.892  14.614  0.0855 -0.4067 -0.3837
 6216TIP3    H140139   6.570   5.811  14.654 -1.0976 -0.5960  0.2434
 6216TIP3    H240140   6.600   5.958  14.640 -0.4478 -0.6008  1.5238
 6217TIP3   OH240141   3.584   6.258   1.453  0.4474  0.4307 -0.3178
 6217TIP3    H140142   3.606   6.351   1.462 -0.2652  0.6779 -1.0531
 6217TIP3    H240143   3.523   6.241   1.524  0.3098  0.6143 -0.3909
 6218TIP3   OH240144   0.506   6.028  11.152 -0.2079 -0.0091 -0.9144
 6218TIP3    H140145   0.470   6.054  11.068 -3.3877  1.1468  0.6675
 6218TIP3    H240146   0.455   6.076  11.217  0.4340 -2.6695  1.8138
 6219TIP3   OH240147   3.234   4.029  10.372 -0.3522 -0.8327  0.0631
 6219TIP3    H140148   3.138   4.027  10.375 -0.3763 -1.9436 -0.7213
 6219TIP3    H240149   3.258   4.109  10.419 -1.6145 -1.1669  1.3400
 6220TIP3   OH240150   0.861   5.777   0.533  0.3759  0.0567 -0.1649
 6220TIP3    H140151   0.898   5.853   0.487 -0.0576  1.0604  1.0935
 6220TIP3    H240152   0.814   5.815   0.607 -0.1959 -1.4323  0.2559
 6221TIP3   OH240153   2.356   5.026   1.129  0.3349 -0.0761  0.0866
 6221TIP3    H140154   2.396   5.113   1.130 -1.0624  0.5956  1.5342
 6221TIP3    H240155   2.377   4.989   1.215 -0.8086 -0.3387  0.2653
 6222TIP3   OH240156   3.601   3.507   4.165  0.0355 -0.1427  0.7810
 6222TIP3    H140157   3.602   3.561   4.245  0.5503  2.7683 -1.0252
 6222TIP3    H240158   3.693   3.491   4.146  0.0014  0.4811  0.0187
 6223TIP3   OH240159   1.106   4.134   5.335  0.0977 -0.1282 -0.0758
 6223TIP3    H140160   1.170   4.191   5.378  1.3495 -0.2339 -1.6957
 6223TIP3    H240161   1.153   4.099   5.259 -1.5236 -1.1691 -0.6439
 6224TIP3   OH240162   0.865   2.620   4.809  0.5746 -0.1569  0.1015
 6224TIP3    H140163   0.844   2.613   4.716 -0.8693  0.0440  0.3807
 6224TIP3    H240164   0.942   2.676   4.813 -0.9075  2.0695 -0.8419
 6225TIP3   OH240165   2.445   2.053   5.930  0.0833  0.1008 -0.0907
 6225TIP3    H140166   2.361   2.097   5.944 -0.5629 -1.4276  1.0642
 6225TIP3    H240167   2.480   2.095   5.851 -0.3375  2.8329  1.0791
 6226TIP3   OH240168   6.009   1.746   5.516 -0.0758 -0.8128 -0.2891
 6226TIP3    H140169   5.929   1.723   5.469 -0.3540 -0.8886  0.2147
 6226TIP3    H240170   6.028   1.835   5.488  0.6160 -1.3703 -1.7198
 6227TIP3   OH240171   2.563   6.800  16.678  0.6258 -0.1505  0.5702
 6227TIP3    H140172   2.650   6.785  16.641 -1.0085  0.5742 -4.2831
 6227TIP3    H240173   2.516   6.718  16.661 -0.5396  0.6406 -0.1800
 6228TIP3   OH240174   3.295   5.401  10.898  0.0647 -0.5095  0.4067
 6228TIP3    H140175   3.322   5.493  10.906 -0.4841 -0.3717  0.7381
 6228TIP3    H240176   3.278   5.389  10.804 -0.5163 -0.0806  0.4541
 6229TIP3   OH240177   5.679   5.230   3.009 -0.1829  0.2751  0.2573
 6229TIP3    H140178   5.708   5.144   2.981  1.0725  1.5758 -2.9836
 6229TIP3    H240179   5.585   5.232   2.991  0.3315  0.5637 -2.9457
 6230TIP3   OH240180   0.284   2.371   5.409 -0.5132 -0.3960  0.0109
 6230TIP3    H140181   0.277   2.285   5.452 -0.2437 -1.4355 -1.8890
 6230TIP3    H240182   0.335   2.424   5.470 -1.9608 -1.0752  1.9195
 6231TIP3   OH240183   6.537   4.700  13.794  0.0133  0.3413  0.4623
 6231TIP3    H140184   6.633   4.696  13.792  0.0108 -0.5496 -2.0454
 6231TIP3    H240185   6.516   4.783  13.753 -0.3237  0.8046  1.5379
 6232TIP3   OH240186   5.355   2.622  12.687  0.2777  0.0130 -0.0074
 6232TIP3    H140187   5.329   2.532  12.706 -1.0126  0.6108  1.2459
 6232TIP3    H240188   5.289   2.676  12.730  1.1200  1.5775 -0.5762
 6233TIP3   OH240189   2.442   2.748  12.890  0.3853 -0.4362  0.0618
 6233TIP3    H140190   2.516   2.695  12.859  0.9064 -0.1912  0.8524
 6233TIP3    H240191   2.481   2.832  12.912 -0.0650 -0.4145  0.8142
 6234TIP3   OH240192   6.125   6.615   1.865 -0.3051  0.2654 -0.1392
 6234TIP3    H140193   6.060   6.613   1.795 -0.2257 -0.4572 -0.1982
 6234TIP3    H240194   6.097   6.547   1.927 -0.1937  0.6735  0.3667
 6235TIP3   OH240195   4.599   1.379  16.310  0.0385  0.1330 -0.5114
 6235TIP3    H140196   4.688   1.381  16.275 -0.2954  0.5746 -1.3496
 6235TIP3    H240197   4.567   1.468  16.298 -0.6576 -0.1254 -0.5776
 6236TIP3   OH240198   0.606   4.577  15.407 -0.3142  0.4801  0.3396
 6236TIP3    H140199   0.541   4.577  15.478 -0.2613 -2.0637  0.4485
 6236TIP3    H240200   0.667   4.507  15.430  0.9237  1.0059 -1.1771
 6237TIP3   OH240201   5.037   5.723   4.781 -0.5959 -0.3911 -0.0831
 6237TIP3    H140202   4.980   5.776   4.726 -0.7889 -0.0099  0.4812
 6237TIP3    H240203   5.044   5.639   4.734 -0.6605 -0.0337 -0.7424
 6238TIP3   OH240204   6.708   4.321  15.095 -0.3652  0.4197  0.7102
 6238TIP3    H140205   6.679   4.412  15.097 -1.8797  0.0708 -1.8467
 6238TIP3    H240206   6.684   4.289  15.008  3.1175 -1.4925  0.2687
 6239TIP3   OH240207   2.274   1.582   4.297 -0.9278 -0.4253 -0.1953
 6239TIP3    H140208   2.281   1.665   4.345 -2.1080 -1.0282  1.0572
 6239TIP3    H240209   2.184   1.579   4.266 -0.0991  0.1617 -2.9487
 6240TIP3   OH240210   6.540   2.070  17.146  0.0859  0.2465 -0.0801
 6240TIP3    H140211   6.621   2.065  17.096 -0.1382 -0.1996 -0.4095
 6240TIP3    H240212   6.565   2.110  17.229  0.4146  1.2402 -0.6434
 6241TIP3   OH240213   2.871   0.283   6.176 -0.8947 -0.3400  0.1418
 6241TIP3    H140214   2.935   0.224   6.135  0.6626  2.1724 -1.2778
 6241TIP3    H240215   2.876   0.264   6.269  1.9191 -0.2588  0.0640
 6242TIP3   OH240216   5.550   4.882   3.168  0.7483  0.7578  0.8755
 6242TIP3    H140217   5.499   4.867   3.088 -0.4318  2.1286  1.3303
 6242TIP3    H240218   5.638   4.903   3.137  0.4965  0.5300 -0.0233
 6243TIP3   OH240219   4.455   3.864   1.223  0.1644 -0.4737 -0.3163
 6243TIP3    H140220   4.529   3.822   1.178 -0.1674 -1.5502  0.1208
 6243TIP3    H240221   4.407   3.792   1.262 -1.2117  0.2009 -0.7085
 6244TIP3   OH240222   4.150   1.863   1.868  0.4898  0.0664  0.3354
 6244TIP3    H140223   4.192   1.816   1.940 -0.2483 -1.8012 -0.3890
 6244TIP3    H240224   4.224   1.897   1.817  1.2753 -2.7802 -0.6698
 6245TIP3   OH240225   6.223   6.336   5.669 -0.5633 -0.3013  0.1676
 6245TIP3    H140226   6.165   6.384   5.609 -1.0550 -3.7093 -2.3885
 6245TIP3    H240227   6.304   6.325   5.619 -0.4069 -1.8837  0.7352
 6246TIP3   OH240228   5.903   2.627   1.759  0.0238 -0.1197 -0.3969
 6246TIP3    H140229   5.869   2.696   1.701  0.4994  0.9246  0.5270
 6246TIP3    H240230   5.831   2.607   1.817 -0.0358 -0.2093 -0.5026
 6247TIP3   OH240231   2.840   0.775   4.568 -0.2287  0.3311 -0.3376
 6247TIP3    H140232   2.863   0.788   4.660 -0.2729  1.4817 -0.4649
 6247TIP3    H240233   2.874   0.689   4.546 -0.8051 -0.2504  0.9374
 6248TIP3   OH240234   1.956   3.291  14.789 -0.1425  0.6861  0.0232
 6248TIP3    H140235   1.898   3.218  14.767 -0.6779  0.9693  0.4679
 6248TIP3    H240236   1.961   3.343  14.708 -0.7836  0.8411  0.0777
 6249TIP3   OH240237   4.664   2.571   5.827  1.1409 -0.1604  0.4681
 6249TIP3    H140238   4.625   2.524   5.901 -0.7856 -0.2906 -0.5349
 6249TIP3    H240239   4.680   2.502   5.762  0.6939  0.2120 -0.0506
 6250TIP3   OH240240   5.165   4.837   5.748 -0.4211 -0.2778  0.3670
 6250TIP3    H140241   5.240   4.884   5.711  0.2833 -0.2789  1.7399
 6250TIP3    H240242   5.091   4.898   5.738 -0.7528 -1.0011 -2.7548
 6251TIP3   OH240243   6.249   2.130  15.683 -0.6803  0.5758  0.7286
 6251TIP3    H140244   6.164   2.175  15.678 -0.9986 -0.0396  0.5755
 6251TIP3    H240245   6.304   2.177  15.620 -1.5312 -0.3488 -0.7711
 6252TIP3   OH240246   3.609   3.695   3.209 -0.1172  0.0983  0.5547
 6252TIP3    H140247   3.567   3.626   3.157  1.2374 -0.7448  0.5297
 6252TIP3    H240248   3.553   3.704   3.286 -1.1251  0.0491 -0.1497
 6253TIP3   OH240249   3.558   0.525  15.210 -0.3234  0.6310 -0.3001
 6253TIP3    H140250   3.616   0.450  15.198 -1.0125  0.1893 -1.0907
 6253TIP3    H240251   3.527   0.518  15.300 -0.7153 -0.3093 -0.4879
 6254TIP3   OH240252   0.346   4.244   0.513  0.4971  0.3259  0.5861
 6254TIP3    H140253   0.302   4.291   0.443  0.6450  1.7071  1.3835
 6254TIP3    H240254   0.398   4.311   0.558  0.7953 -0.6225  1.7021
 6255TIP3   OH240255   5.502   4.988  12.684 -0.1778 -0.3963  0.4213
 6255TIP3    H140256   5.578   4.946  12.643 -0.8352 -1.5162  0.3057
 6255TIP3    H240257   5.527   4.997  12.776  0.3827 -0.0671  0.2403
 6256TIP3   OH240258   3.117   3.274   1.479 -0.4190  0.1095  0.5254
 6256TIP3    H140259   3.088   3.365   1.485  0.5032  0.4616 -0.0366
 6256TIP3    H240260   3.200   3.279   1.431 -0.2206 -1.0013  0.7265
 6257TIP3   OH240261   4.611   4.194  14.987 -0.0883  0.3669  0.6013
 6257TIP3    H140262   4.551   4.158  15.052  0.1668  2.3230  2.0418
 6257TIP3    H240263   4.698   4.178  15.024  0.2271 -0.9182 -0.6312
 6258TIP3   OH240264   2.021   3.717   4.101  0.5421 -0.2364 -0.2097
 6258TIP3    H140265   2.109   3.689   4.076  1.5090  1.6234  0.8786
 6258TIP3    H240266   2.017   3.700   4.195 -0.4083 -0.5972 -0.3026
 6259TIP3   OH240267   4.472   1.346  12.322 -0.5198  0.7780 -0.7045
 6259TIP3    H140268   4.396   1.376  12.372 -0.5582 -0.8860  0.2788
 6259TIP3    H240269   4.450   1.367  12.231 -0.7673  3.1690 -0.1747
 6260TIP3   OH240270   6.361   1.002  13.909 -0.5776  0.6660  0.1734
 6260TIP3    H140271   6.408   0.964  13.984 -0.1983  0.8944  0.0548
 6260TIP3    H240272   6.273   0.963  13.913 -0.3595  0.1873  0.3624
 6261TIP3   OH240273   4.405   0.790  13.428 -1.0105 -0.1009  0.2942
 6261TIP3    H140274   4.326   0.787  13.482 -0.7020 -1.9938  0.7077
 6261TIP3    H240275   4.374   0.781  13.338 -1.1900 -3.0993  0.5812
 6262TIP3   OH240276   3.570   2.270  10.555  0.1323 -0.0921  0.0102
 6262TIP3    H140277   3.594   2.197  10.612 -0.2891 -0.1619  0.1007
 6262TIP3    H240278   3.495   2.238  10.505  0.0768  0.2062 -0.0975
 6263TIP3   OH240279   2.568   6.646  15.362  0.2085  0.5581  0.2640
 6263TIP3    H140280   2.651   6.652  15.408  0.5359  0.6086 -0.3162
 6263TIP3    H240281   2.571   6.562  15.317 -0.4993  0.0893  1.0600
 6264TIP3   OH240282   3.387   0.386  12.463 -0.9356  0.1627  0.4595
 6264TIP3    H140283   3.395   0.421  12.552  0.3347  0.3652  0.2916
 6264TIP3    H240284   3.453   0.317  12.458 -0.6178  0.5151 -0.4814
 6265TIP3   OH240285   3.341   5.833  11.979 -0.1839 -0.8171  0.2172
 6265TIP3    H140286   3.313   5.749  12.015  0.0546 -1.0438 -0.1198
 6265TIP3    H240287   3.437   5.828  11.977 -0.2051 -1.0679 -1.0429
 6266TIP3   OH240288   6.545   2.330  15.202  0.3922  0.2295  0.3578
 6266TIP3    H140289   6.567   2.423  15.203  0.4395  0.3332 -2.2359
 6266TIP3    H240290   6.449   2.329  15.209  0.4544  0.3946  1.3535
 6267TIP3   OH240291   3.071   2.228   1.337  0.2415  0.1279  0.1396
 6267TIP3    H140292   3.152   2.184   1.314 -0.3130 -0.2036 -1.2517
 6267TIP3    H240293   3.060   2.296   1.271 -0.1971  0.7299  0.8091
 6268TIP3   OH240294   4.713   1.657   0.614 -0.3534  1.0577  0.2221
 6268TIP3    H140295   4.790   1.600   0.612 -1.2124 -0.2040  1.2761
 6268TIP3    H240296   4.738   1.729   0.673  0.5940  1.5804 -0.7832
 6269TIP3   OH240297   2.267   2.882  12.065 -0.0252 -0.5186  0.2433
 6269TIP3    H140298   2.188   2.904  12.017 -0.5825  0.1142  1.4139
 6269TIP3    H240299   2.305   2.967  12.089  1.4882 -0.7819 -1.0147
 6270TIP3   OH240300   0.460   2.393  15.752  0.0358  0.1579  0.1439
 6270TIP3    H140301   0.543   2.377  15.797 -0.1752  1.4328  1.0750
 6270TIP3    H240302   0.470   2.355  15.666  1.4262 -0.0979  0.4066
 6271TIP3   OH240303   1.195   6.772  12.808 -0.1618  0.0035  0.6535
 6271TIP3    H140304   1.181   6.805  12.719 -0.7338  0.8011  1.0264
 6271TIP3    H240305   1.119   6.802  12.857 -0.5467 -1.6116  1.1065
 6272TIP3   OH240306   3.303   0.265   4.815 -0.3866  0.1461  0.8491
 6272TIP3    H140307   3.287   0.358   4.833 -0.3648  0.5377 -0.9391
 6272TIP3    H240308   3.390   0.264   4.774 -1.2184 -0.3665 -1.0138
 6273TIP3   OH240309   2.974   1.528   5.033 -0.0710  0.5872  0.1658
 6273TIP3    H140310   2.991   1.576   4.951  0.5217  0.5199  0.2502
 6273TIP3    H240311   3.044   1.556   5.092  0.8648 -1.1169 -0.0856
 6274TIP3   OH240312   2.290   4.519   4.360 -0.3267  0.2607 -0.5030
 6274TIP3    H140313   2.228   4.547   4.293 -0.3169 -0.4984 -0.8336
 6274TIP3    H240314   2.239   4.468   4.422 -0.6981  2.3738  1.0430
 6275TIP3   OH240315   6.313   4.139   3.980  0.2615  0.5676  0.4973
 6275TIP3    H140316   6.238   4.146   3.920  0.4801  0.7003  0.2383
 6275TIP3    H240317   6.285   4.074   4.045  0.8732 -1.3575 -1.0547
 6276TIP3   OH240318   2.352   4.073  16.145  0.1436 -0.2564  0.4390
 6276TIP3    H140319   2.362   4.036  16.233 -3.0824 -1.8530  0.2845
 6276TIP3    H240320   2.281   4.136  16.154 -0.3525 -0.5768 -1.0348
 6277TIP3   OH240321   2.522   5.705  11.237  0.3120  0.2067  0.1972
 6277TIP3    H140322   2.553   5.785  11.195 -1.1708  1.0720  0.6578
 6277TIP3    H240323   2.429   5.721  11.253 -0.2078 -1.8833 -0.3197
 6278TIP3   OH240324   5.379   5.077   2.110  0.1387  0.1009  0.0703
 6278TIP3    H140325   5.398   5.008   2.047 -0.8380 -0.2772  0.1739
 6278TIP3    H240326   5.349   5.151   2.057 -1.2282 -0.4039  0.0980
 6279TIP3   OH240327   5.665   5.596  14.366  0.4136 -0.9466  0.4488
 6279TIP3    H140328   5.651   5.506  14.336  1.9118 -1.0558  0.0059
 6279TIP3    H240329   5.709   5.586  14.451 -0.1525 -0.6198  0.7903
 6280TIP3   OH240330   1.535   0.549  13.036  0.0415 -0.1050 -0.1227
 6280TIP3    H140331   1.467   0.597  13.084 -0.3913 -0.5166 -0.3186
 6280TIP3    H240332   1.599   0.524  13.103 -0.6905 -0.9040  0.2970
 6281TIP3   OH240333   2.492   4.928  15.045 -0.1432 -0.0548  0.3045
 6281TIP3    H140334   2.479   4.834  15.030  0.0711  0.1201 -1.1461
 6281TIP3    H240335   2.405   4.966  15.035 -0.0341  0.0374 -0.3300
 6282TIP3   OH240336   6.555   4.085   3.768  0.5601  0.0920 -0.5344
 6282TIP3    H140337   6.618   4.139   3.720  0.2459  0.1738 -0.8638
 6282TIP3    H240338   6.480   4.079   3.709 -0.6983  1.9452  0.7601
 6283TIP3   OH240339   0.171   5.991   4.237  0.0150 -0.1857  0.1762
 6283TIP3    H140340   0.098   5.995   4.299  0.6821 -2.6792  1.2840
 6283TIP3    H240341   0.218   6.073   4.250 -0.6130 -0.0604  2.0701
 6284TIP3   OH240342   1.026   3.944   4.675  0.5486  0.0490 -0.1896
 6284TIP3    H140343   1.106   3.904   4.711  0.2160  0.6045  1.2618
 6284TIP3    H240344   0.965   3.871   4.666  0.9669 -0.2590 -0.5731
 6285TIP3   OH240345   6.729   3.708  13.736  0.2331 -0.4778  0.4957
 6285TIP3    H140346   6.804   3.718  13.795  0.2997 -0.1546  0.3572
 6285TIP3    H240347   6.693   3.797  13.727 -0.9571 -0.8061  1.6013
 6286TIP3   OH240348   3.272   3.555   3.861  0.0222 -0.3157 -0.8937
 6286TIP3    H140349   3.339   3.495   3.896 -0.6085 -1.1555 -1.0846
 6286TIP3    H240350   3.296   3.640   3.896 -0.2631 -1.0228  1.1298
 6287TIP3   OH240351   4.542   0.448  13.846  0.3821  0.1433  0.0764
 6287TIP3    H140352   4.534   0.377  13.782 -1.9556  0.0387  0.4221
 6287TIP3    H240353   4.622   0.494  13.820  2.7146 -3.2276  0.5292
 6288TIP3   OH240354   4.746   6.746   1.376 -0.1002 -0.0318  0.1208
 6288TIP3    H140355   4.763   6.653   1.360  0.6837  0.5304 -2.9239
 6288TIP3    H240356   4.820   6.791   1.334  0.0549  1.9934  2.3572
 6289TIP3   OH240357   2.593   5.435   5.880 -0.1238  0.4314  0.0544
 6289TIP3    H140358   2.679   5.475   5.881 -0.2034  0.6422  2.1016
 6289TIP3    H240359   2.606   5.350   5.838  1.5230 -0.3713  2.0316
 6290TIP3   OH240360   3.171   5.501   6.523  0.5320 -0.0011  0.4064
 6290TIP3    H140361   3.137   5.412   6.533  2.3313 -0.8237 -0.3033
 6290TIP3    H240362   3.114   5.542   6.458  1.4237 -1.6967 -1.5737
 6291TIP3   OH240363   5.260   5.318   3.541  0.4426 -0.0838  0.6779
 6291TIP3    H140364   5.259   5.251   3.609  0.4740  0.2764  1.0340
 6291TIP3    H240365   5.168   5.342   3.531  0.3638 -0.5759  0.1520
 6292TIP3   OH240366   2.509   0.671  16.139  0.3237  0.0756 -1.0095
 6292TIP3    H140367   2.451   0.746  16.149 -0.3733 -0.1138 -3.1757
 6292TIP3    H240368   2.454   0.602  16.102  0.9367 -1.5668  0.9464
 6293TIP3   OH240369   5.156   5.317  16.889 -0.1846 -0.2706 -0.1962
 6293TIP3    H140370   5.225   5.347  16.830 -1.2322  0.8690 -0.8853
 6293TIP3    H240371   5.203   5.273  16.961  1.2855  0.9366 -0.3694
 6294TIP3   OH240372   4.187   4.559   0.772  0.6180 -0.3015  0.0655
 6294TIP3    H140373   4.127   4.512   0.829  0.2145 -0.6639 -0.6454
 6294TIP3    H240374   4.140   4.567   0.689  0.5461  1.6405  0.2534
 6295TIP3   OH240375   3.962   3.614   0.515  0.7062  0.2756 -0.2470
 6295TIP3    H140376   3.982   3.615   0.609  1.5477  1.9818 -0.3887
 6295TIP3    H240377   4.022   3.679   0.478 -1.0241  1.1432 -1.6615
 6296TIP3   OH240378   1.229   2.004   2.467 -0.3674  0.3156 -0.0215
 6296TIP3    H140379   1.199   1.954   2.543  1.5440  0.1709  0.7019
 6296TIP3    H240380   1.305   2.054   2.499 -0.5625  1.5950 -1.4140
 6297TIP3   OH240381   5.800   0.033   4.983 -0.0418  0.2089 -0.1823
 6297TIP3    H140382   5.731  -0.007   4.929  0.4031 -0.8958  0.0270
 6297TIP3    H240383   5.757   0.055   5.065 -0.6799  1.7168 -0.8957
 6298TIP3   OH240384   6.502   2.321  12.819  0.1144 -0.4715  0.1350
 6298TIP3    H140385   6.412   2.294  12.838 -0.1899  1.3523  1.5611
 6298TIP3    H240386   6.554   2.278  12.887 -0.3119  1.8805  2.1054
 6299TIP3   OH240387   4.876   4.940  11.877 -0.1093  0.1863  0.5566
 6299TIP3    H140388   4.938   4.990  11.825  1.6574 -1.3464  1.0604
 6299TIP3    H240389   4.798   4.995  11.882  0.2973  1.1384 -2.1515
 6300TIP3   OH240390   4.712   6.448   6.568 -0.2436 -0.7552 -0.3646
 6300TIP3    H140391   4.658   6.369   6.571 -2.1756  0.4504 -1.4914
 6300TIP3    H240392   4.650   6.520   6.581  1.1080  0.6989 -1.5744
 6301TIP3   OH240393   0.760   3.624  13.438  0.0305 -0.3515  0.2478
 6301TIP3    H140394   0.696   3.692  13.462 -0.7826 -0.9090 -0.2798
 6301TIP3    H240395   0.707   3.552  13.406  0.8909 -1.2304  0.7492
 6302TIP3   OH240396   0.218   4.753  14.925  0.0206  0.2422  0.3236
 6302TIP3    H140397   0.219   4.807  15.004 -0.8503 -0.4248  0.8180
 6302TIP3    H240398   0.297   4.778  14.877  2.1324 -1.2654  2.7192
 6303TIP3   OH240399   2.327   1.620   1.832 -0.2051 -0.0523  0.5671
 6303TIP3    H140400   2.271   1.693   1.859  0.2812 -0.5355  3.0908
 6303TIP3    H240401   2.416   1.651   1.850  0.0897 -0.7615  0.3380
 6304TIP3   OH240402   5.339   3.884   4.997 -0.4063  0.4426  0.1481
 6304TIP3    H140403   5.262   3.929   5.031 -1.1476 -0.5210 -0.2049
 6304TIP3    H240404   5.318   3.791   5.006  0.3421  0.1690 -0.8037
 6305TIP3   OH240405   0.236   2.423   0.311 -0.1140 -0.2373 -0.6974
 6305TIP3    H140406   0.233   2.473   0.392  0.1813 -1.0538 -0.1710
 6305TIP3    H240407   0.314   2.456   0.266 -0.3466  0.3041 -0.7139
 6306TIP3   OH240408   2.457   6.651  16.052 -0.2109 -0.9233  0.6266
 6306TIP3    H140409   2.395   6.578  16.050 -1.0597 -0.1942 -0.9438
 6306TIP3    H240410   2.537   6.616  16.013 -0.6966 -0.9769 -0.3548
 6307TIP3   OH240411   1.418   0.152  13.521 -0.1334 -0.4004 -0.1653
 6307TIP3    H140412   1.494   0.119  13.473 -0.0468  1.2175 -1.2241
 6307TIP3    H240413   1.425   0.247  13.514 -2.7448 -0.2058 -1.1416
 6308TIP3   OH240414   0.945   5.721  17.215 -0.1509  0.0955  0.4570
 6308TIP3    H140415   0.921   5.779  17.287 -1.3552 -1.1009  1.0700
 6308TIP3    H240416   0.916   5.766  17.136  0.0915  0.8913  0.8210
 6309TIP3   OH240417   4.273   5.931   5.228 -0.6455 -0.3521  0.0093
 6309TIP3    H140418   4.210   5.963   5.163  0.8532 -0.1843 -1.4308
 6309TIP3    H240419   4.238   5.846   5.256 -3.5841  1.4128  2.3185
 6310TIP3   OH240420   5.881   5.516  16.697  0.3049 -0.3223  0.1188
 6310TIP3    H140421   5.847   5.445  16.751  1.2337 -0.5317  0.4365
 6310TIP3    H240422   5.960   5.545  16.741  0.5544  0.1539 -0.6146
 6311TIP3   OH240423   5.832   3.252   6.279  0.4187  0.7945 -0.0323
 6311TIP3    H140424   5.761   3.274   6.339  0.3809 -1.6782  0.9242
 6311TIP3    H240425   5.904   3.223   6.335  1.1567  0.5068 -1.0895
 6312TIP3   OH240426   6.788   5.660  15.102  0.6620 -0.1046  0.1363
 6312TIP3    H140427   6.808   5.721  15.173 -1.0625  0.4347  0.2148
 6312TIP3    H240428   6.859   5.596  15.104  1.7243  1.0566  1.0213
 6313TIP3   OH240429   6.721   0.923   0.500  0.2916  0.2247  0.5294
 6313TIP3    H140430   6.626   0.911   0.489  0.1543  2.7982 -2.1913
 6313TIP3    H240431   6.759   0.889   0.419  1.7912 -1.0298  1.6987
 6314TIP3   OH240432   5.409   6.721  14.485 -0.0669  0.1441  0.1908
 6314TIP3    H140433   5.398   6.815  14.469 -0.5180  0.1136  0.3091
 6314TIP3    H240434   5.465   6.717  14.563 -1.9409  0.3668  1.6269
 6315TIP3   OH240435   0.729   1.744  13.767 -0.2805  0.1165  0.8393
 6315TIP3    H140436   0.668   1.756  13.840  1.2355 -0.9695  2.3945
 6315TIP3    H240437   0.808   1.708  13.809  0.7740 -0.2167 -1.3194
 6316TIP3   OH240438   6.721   0.228  13.994  0.0541 -0.2553  0.2554
 6316TIP3    H140439   6.638   0.276  13.986 -0.1334 -0.6574 -0.2305
 6316TIP3    H240440   6.723   0.199  14.085  0.5200  1.3001  0.7832
 6317TIP3   OH240441   1.483   5.457   4.552  0.3831 -0.3766 -0.7459
 6317TIP3    H140442   1.415   5.462   4.620 -0.8064  0.0932 -1.9326
 6317TIP3    H240443   1.469   5.372   4.510  0.9271 -0.5402 -0.6041
 6318TIP3   OH240444   3.824   6.713  12.442 -0.1991 -0.5760  0.4124
 6318TIP3    H140445   3.914   6.743  12.458  0.4804 -1.3505 -1.6419
 6318TIP3    H240446   3.799   6.757  12.361 -1.3617 -1.0342  0.5121
 6319TIP3   OH240447   5.491   6.768   4.479 -0.7681  0.0233 -0.1009
 6319TIP3    H140448   5.452   6.726   4.402 -1.1002 -0.6502  0.4156
 6319TIP3    H240449   5.577   6.798   4.450 -0.3356 -1.4059 -0.3893
 6320TIP3   OH240450   6.503   0.454   6.557  0.2042  0.2468 -0.1756
 6320TIP3    H140451   6.539   0.465   6.645 -1.2760 -0.8438  0.6153
 6320TIP3    H240452   6.535   0.369   6.527  0.7745  0.6531 -0.7372
 6321TIP3   OH240453   2.515   6.208   4.576 -0.1617  0.3228  0.3622
 6321TIP3    H140454   2.463   6.151   4.520 -0.4862  1.3143 -0.3603
 6321TIP3    H240455   2.543   6.151   4.648  0.8105 -1.1408 -1.1070
 6322TIP3   OH240456   2.750   6.329  13.861  0.0143 -0.5654 -0.4017
 6322TIP3    H140457   2.701   6.401  13.821  0.9891 -0.2424 -1.0548
 6322TIP3    H240458   2.806   6.296  13.790  0.4916 -1.1429  0.2300
 6323TIP3   OH240459   4.649   5.216   5.626 -0.2276 -0.6919  0.7484
 6323TIP3    H140460   4.703   5.294   5.641 -0.7231 -0.4539  1.3342
 6323TIP3    H240461   4.678   5.154   5.693  1.0891 -1.5335 -0.5263
 6324TIP3   OH240462   1.788   4.408   6.716  0.1652  0.2190 -0.0352
 6324TIP3    H140463   1.816   4.447   6.633 -0.0019  1.2473  0.3851
 6324TIP3    H240464   1.726   4.470   6.753 -0.7185 -0.8100  0.2886
 6325TIP3   OH240465   0.864   3.672   2.455  0.3374 -0.6956  0.0860
 6325TIP3    H140466   0.799   3.739   2.476  1.3797  0.4174 -0.1126
 6325TIP3    H240467   0.882   3.686   2.362  2.7694  0.8027  0.6954
 6326TIP3   OH240468   6.705   5.652  12.674  0.5630 -0.4565  0.5368
 6326TIP3    H140469   6.623   5.688  12.639  1.2342  2.2529  1.4910
 6326TIP3    H240470   6.774   5.695  12.623  1.4454 -1.7869  0.5531
 6327TIP3   OH240471   2.429   6.125  15.014  0.4015  0.1809 -0.1486
 6327TIP3    H140472   2.362   6.058  14.999 -0.8460  0.9287  1.7813
 6327TIP3    H240473   2.416   6.187  14.942 -0.8663  0.2062  0.0678
 6328TIP3   OH240474   1.599   6.473   3.185  0.5677  0.4946  0.2735
 6328TIP3    H140475   1.628   6.416   3.113 -0.8015 -0.5801  0.5276
 6328TIP3    H240476   1.606   6.561   3.150 -0.9959 -0.0386 -1.5768
 6329TIP3   OH240477   1.118   2.170  12.604 -0.0726 -0.6853  0.1384
 6329TIP3    H140478   1.200   2.181  12.556  0.1806 -2.0822  0.2266
 6329TIP3    H240479   1.135   2.206  12.690  1.2414 -3.0179  0.9399
 6330TIP3   OH240480   5.470   3.048   3.649  0.1328 -0.5763 -0.3380
 6330TIP3    H140481   5.421   3.130   3.660  2.9051  1.1594  0.2598
 6330TIP3    H240482   5.406   2.986   3.614 -2.4792  1.3982  0.5794
 6331TIP3   OH240483   4.847   3.282   4.680 -0.2427 -0.0327 -0.7785
 6331TIP3    H140484   4.878   3.352   4.622 -1.5612  0.7234 -0.6281
 6331TIP3    H240485   4.920   3.267   4.741  0.6023  0.1882 -1.7156
 6332TIP3   OH240486   1.397   1.314   1.615 -0.2166  0.0650 -0.2617
 6332TIP3    H140487   1.348   1.243   1.573  0.5965 -0.6229 -0.0665
 6332TIP3    H240488   1.452   1.350   1.545 -0.7624  0.6407 -0.4067
 6333TIP3   OH240489   2.156   2.159   1.541 -0.0997 -0.2285 -0.0041
 6333TIP3    H140490   2.068   2.161   1.503 -0.3767 -1.3811  0.5106
 6333TIP3    H240491   2.191   2.074   1.513  0.5944 -0.0510  0.3285
 6334TIP3   OH240492   4.155   4.937  11.585  0.1483 -0.2086  0.5349
 6334TIP3    H140493   4.170   4.853  11.542 -1.1874 -0.5044  0.6131
 6334TIP3    H240494   4.192   5.001  11.524  1.1993 -0.8383  0.4826
 6335TIP3   OH240495   3.708   5.994   3.420  0.2525 -0.2395  0.1012
 6335TIP3    H140496   3.642   5.989   3.489  0.2301  1.4199  0.2280
 6335TIP3    H240497   3.660   5.975   3.340 -0.0231 -0.7198  0.3745
 6336TIP3   OH240498   6.496   1.592  15.502  0.4950 -0.8474  0.0871
 6336TIP3    H140499   6.581   1.572  15.541 -0.2233 -1.8251  1.1943
 6336TIP3    H240500   6.490   1.534  15.426  1.5196  0.4418 -1.0363
 6337TIP3   OH240501   4.134   5.369  11.307 -0.4236  0.2946 -0.3791
 6337TIP3    H140502   4.103   5.459  11.299 -2.3980 -0.3810 -0.9337
 6337TIP3    H240503   4.101   5.325  11.229 -1.1069 -1.3237  0.7421
 6338TIP3   OH240504   5.282   5.633  15.226 -0.2009 -0.5365  0.0383
 6338TIP3    H140505   5.231   5.593  15.296  0.8481 -3.0439 -0.5012
 6338TIP3    H240506   5.224   5.634  15.150 -0.6844  0.3086  0.4087
 6339TIP3   OH240507   2.709   3.625  14.994 -0.2572 -0.0907  0.0045
 6339TIP3    H140508   2.706   3.632  15.090  0.5995  0.4941  0.0008
 6339TIP3    H240509   2.677   3.710  14.963  0.8459  0.2657 -0.1978
 6340TIP3   OH240510   1.585   5.998  13.104  0.1241  0.2087 -0.3271
 6340TIP3    H140511   1.626   6.038  13.028  1.5548 -2.2897 -0.9859
 6340TIP3    H240512   1.527   5.931  13.067  0.0503 -0.3555  0.7627
 6341TIP3   OH240513   0.363   6.469   3.374 -0.6890  0.4271  0.0732
 6341TIP3    H140514   0.270   6.448   3.364 -0.5663  0.0074 -0.1900
 6341TIP3    H240515   0.409   6.389   3.351 -0.2230  0.9513 -0.8966
 6342TIP3   OH240516   5.004   3.178  16.707 -0.5744  0.0481  0.6903
 6342TIP3    H140517   4.938   3.217  16.765 -0.0892 -1.0430  2.0248
 6342TIP3    H240518   4.980   3.085  16.703  1.0415 -0.4364  1.4659
 6343TIP3   OH240519   5.143   5.058   3.031  0.6996  0.5033  0.2974
 6343TIP3    H140520   5.161   4.968   3.056 -1.8418 -0.1141  0.1307
 6343TIP3    H240521   5.095   5.095   3.105  1.0546  1.4974  0.0514
 6344TIP3   OH240522   5.285   6.613   2.941  0.0112  0.2687 -0.2145
 6344TIP3    H140523   5.299   6.692   2.993 -0.5669  0.4727 -0.3570
 6344TIP3    H240524   5.192   6.593   2.952 -0.3030  0.7472 -1.7389
 6345TIP3   OH240525   3.197   2.817  12.205  0.4782 -0.3039  0.1322
 6345TIP3    H140526   3.137   2.755  12.163 -1.3116  1.5438 -0.2374
 6345TIP3    H240527   3.227   2.873  12.133  1.5646 -0.3441  0.5453
 6346TIP3   OH240528   0.195   5.462   5.797 -0.7679 -0.1502  0.4345
 6346TIP3    H140529   0.251   5.386   5.784  1.2891  1.1747  1.0466
 6346TIP3    H240530   0.106   5.426   5.803  0.1452 -2.4836  0.8565
 6347TIP3   OH240531   5.415   4.558   4.189 -0.7543 -0.1979 -0.6078
 6347TIP3    H140532   5.373   4.474   4.205 -0.5421 -0.1868  0.0483
 6347TIP3    H240533   5.380   4.616   4.257  0.3852 -0.2159  0.0319
 6348TIP3   OH240534   4.083   4.464   2.694 -0.8155 -0.5795 -0.0045
 6348TIP3    H140535   4.122   4.541   2.652 -0.8077 -0.1983  0.6933
 6348TIP3    H240536   4.129   4.390   2.654 -2.9711 -0.4676 -3.0257
 6349TIP3   OH240537   4.362   2.151  13.488 -0.3316  0.3497  0.4829
 6349TIP3    H140538   4.378   2.080  13.550  0.4346  0.3576  0.3126
 6349TIP3    H240539   4.378   2.112  13.402 -1.1181  0.4101  0.3046
 6350TIP3   OH240540   3.510   1.183  11.680  0.2540  1.1989  0.1576
 6350TIP3    H140541   3.536   1.243  11.609 -2.1298  0.8506 -1.1113
 6350TIP3    H240542   3.420   1.208  11.700  0.2756  0.0642  1.8103
 6351TIP3   OH240543   1.667   3.680   2.208  0.3423  0.0339  0.1554
 6351TIP3    H140544   1.607   3.709   2.277  1.0686  0.1905  0.7357
 6351TIP3    H240545   1.695   3.592   2.236 -0.0520 -0.2763 -0.4048
 6352TIP3   OH240546   0.666   3.291  16.556  0.0137 -1.1022  0.0598
 6352TIP3    H140547   0.705   3.238  16.486 -0.8583 -1.8584  0.1219
 6352TIP3    H240548   0.643   3.373  16.513  0.7090 -1.0458 -0.2166
 6353TIP3   OH240549   2.923   5.748   1.652 -1.1893 -0.5314 -0.2274
 6353TIP3    H140550   2.931   5.704   1.737 -1.0366 -0.2544 -0.0969
 6353TIP3    H240551   2.829   5.753   1.637 -1.2155 -0.6614 -0.1144
 6354TIP3   OH240552   0.361   3.922  12.094  0.1709 -0.3392 -0.2217
 6354TIP3    H140553   0.339   3.956  12.007 -2.4245  2.2721  1.2440
 6354TIP3    H240554   0.341   3.828  12.089 -2.3926  0.1795 -1.8360
 6355TIP3   OH240555   3.656   2.843   4.285  0.1193 -0.9983  0.1389
 6355TIP3    H140556   3.592   2.885   4.342 -0.4266  1.5498 -2.1243
 6355TIP3    H240557   3.740   2.880   4.312 -0.1953  0.5951 -0.8909
 6356TIP3   OH240558   1.943   3.711  14.243  0.4835 -0.1077  0.1492
 6356TIP3    H140559   2.038   3.722  14.252  0.5148  0.3311 -0.6213
 6356TIP3    H240560   1.929   3.616  14.248  1.0089 -0.2041 -0.1369
 6357TIP3   OH240561   6.349   2.733  16.781  0.4516  0.9218 -0.0780
 6357TIP3    H140562   6.331   2.820  16.815  1.6391  0.7034  1.2315
 6357TIP3    H240563   6.399   2.748  16.701  2.2332  1.4867  1.0859
 6358TIP3   OH240564   2.899   5.072  13.332 -0.5283 -0.1917  0.6426
 6358TIP3    H140565   2.933   5.003  13.389 -0.2633 -2.3522 -1.9363
 6358TIP3    H240566   2.820   5.103  13.377 -0.9593 -2.5570  1.6701
 6359TIP3   OH240567   0.181   1.379   2.176 -0.2575  0.9480 -0.3206
 6359TIP3    H140568   0.156   1.376   2.268  0.5812  1.8353 -0.0495
 6359TIP3    H240569   0.100   1.357   2.128 -0.5881  0.0472  0.6233
 6360TIP3   OH240570   3.132   3.738  17.139 -0.2506 -0.4548 -0.4930
 6360TIP3    H140571   3.186   3.802  17.093 -0.9774 -1.8189 -3.4711
 6360TIP3    H240572   3.189   3.661  17.147  0.7600  0.4631  3.4137
 6361TIP3   OH240573   0.590   4.449  14.619 -0.3940  0.4468  0.0494
 6361TIP3    H140574   0.565   4.482  14.533  0.9873  0.1635 -0.4919
 6361TIP3    H240575   0.563   4.518  14.681  1.6782  2.2834 -0.9571
 6362TIP3   OH240576   6.800   4.718  14.866  1.1688  0.4450 -0.1977
 6362TIP3    H140577   6.786   4.624  14.874  0.8314  0.4254 -0.9395
 6362TIP3    H240578   6.889   4.732  14.899  0.8063  0.0425  1.0176
 6363TIP3   OH240579   4.062   1.201  11.105 -0.4246  0.3936  0.1900
 6363TIP3    H140580   4.081   1.247  11.187  0.5270  0.2702  0.0448
 6363TIP3    H240581   4.083   1.110  11.123  4.0723  0.8864 -1.3967
 6364TIP3   OH240582   5.665   1.802  16.878 -0.5214 -0.5687  0.0522
 6364TIP3    H140583   5.577   1.839  16.876 -0.2217  0.2695 -3.0884
 6364TIP3    H240584   5.721   1.869  16.839  1.1229 -1.9581 -0.1051
 6365TIP3   OH240585   6.047   3.026  12.942 -0.1256  0.2548 -0.0506
 6365TIP3    H140586   6.061   2.967  13.016 -0.7155  2.1781  1.6718
 6365TIP3    H240587   6.130   3.071  12.931 -0.4661  1.0071  0.4076
 6366TIP3   OH240588   3.240   2.145  12.694 -0.0811 -0.2246 -0.2501
 6366TIP3    H140589   3.172   2.085  12.725 -0.6080  0.9097  0.8552
 6366TIP3    H240590   3.316   2.126  12.748 -0.6249  0.9132  0.9564
 6367TIP3   OH240591   1.410   4.277   3.737 -0.4274  0.1681  0.0823
 6367TIP3    H140592   1.347   4.337   3.697 -2.8045 -1.3880  1.2761
 6367TIP3    H240593   1.409   4.200   3.680 -0.6195 -0.3859  0.8234
 6368TIP3   OH240594   3.606   5.336   5.909 -0.8398  0.0267 -0.5852
 6368TIP3    H140595   3.542   5.264   5.906 -1.0656  0.2506 -2.9192
 6368TIP3    H240596   3.690   5.294   5.887 -0.9252  0.4116 -1.6791
 6369TIP3   OH240597   6.840   4.367  12.467 -0.3140 -0.0029 -0.1470
 6369TIP3    H140598   6.934   4.360  12.478 -0.1079 -0.8857 -2.0339
 6369TIP3    H240599   6.819   4.307  12.395 -1.9409  1.9721 -1.4602
 6370TIP3   OH240600   2.983   5.413  16.818 -0.0910  0.6801  0.3603
 6370TIP3    H140601   2.905   5.430  16.871 -0.4369  0.6491 -0.1318
 6370TIP3    H240602   2.987   5.318  16.811  0.3573  0.6497  0.9146
 6371TIP3   OH240603   1.057   6.055   0.167  0.3209 -0.4246 -0.4866
 6371TIP3    H140604   1.084   6.125   0.107  1.3257  2.1643  2.6831
 6371TIP3    H240605   1.124   5.988   0.157  1.8220  1.0086 -0.6219
 6372TIP3   OH240606   2.424   3.563   5.682 -0.0658 -0.7466  0.5248
 6372TIP3    H140607   2.435   3.658   5.688  0.9445 -0.8272  0.2136
 6372TIP3    H240608   2.343   3.551   5.632  0.9409 -0.0112 -1.4020
 6373TIP3   OH240609   1.508   2.986  15.575  0.1562  0.0345  0.0765
 6373TIP3    H140610   1.546   3.032  15.500 -2.1552 -0.6338 -1.6318
 6373TIP3    H240611   1.476   3.056  15.632  1.2975  0.5536  0.0976
 6374TIP3   OH240612   4.167   4.201   2.002  0.0209  0.6964  0.5538
 6374TIP3    H140613   4.202   4.166   2.084  1.8925  0.1304 -0.4278
 6374TIP3    H240614   4.206   4.146   1.934 -3.5215 -0.5881 -0.6699
 6375TIP3   OH240615   3.196   5.164  12.613  0.8420 -0.5261  0.0739
 6375TIP3    H140616   3.133   5.199  12.550 -1.0382 -0.5643  1.8477
 6375TIP3    H240617   3.153   5.172  12.698  3.3614 -0.2681  1.4380
 6376TIP3   OH240618   2.168   2.958  16.408 -0.4089  0.0119 -0.7988
 6376TIP3    H140619   2.207   2.975  16.494  1.9400 -0.0245 -1.7835
 6376TIP3    H240620   2.102   3.026  16.398 -0.3591  0.3433  0.7990
 6377TIP3   OH240621   1.867   2.384   4.770 -0.8909 -0.2561 -0.6144
 6377TIP3    H140622   1.885   2.475   4.795 -0.5213 -0.0940 -1.4554
 6377TIP3    H240623   1.850   2.388   4.676 -0.7568 -1.0734 -0.6765
 6378TIP3   OH240624   5.038   2.041   2.957  0.6352  0.0492  0.1644
 6378TIP3    H140625   5.128   2.061   2.984 -0.0396  3.5685  0.2046
 6378TIP3    H240626   4.983   2.093   3.016 -1.2467  0.7574 -2.0794
 6379TIP3   OH240627   5.964   5.115  13.532 -0.0975  0.4785  0.2244
 6379TIP3    H140628   5.937   5.205  13.554 -1.6848 -0.1819  1.1613
 6379TIP3    H240629   5.948   5.065  13.612  0.2443 -0.7614 -0.4558
 6380TIP3   OH240630   3.072   3.429  11.869  0.6032  0.1289  0.5535
 6380TIP3    H140631   2.980   3.408  11.853  0.4373  2.1488 -1.7202
 6380TIP3    H240632   3.070   3.481  11.949 -0.1452 -0.2777  0.8208
 6381TIP3   OH240633   3.361   3.863   1.227  0.0991  0.2632  0.4800
 6381TIP3    H140634   3.327   3.942   1.185 -0.3981  0.1544  0.6677
 6381TIP3    H240635   3.366   3.799   1.156  1.4738  0.7534  0.1194
 6382TIP3   OH240636   3.137   1.515   6.102 -0.5320 -0.1089  0.3937
 6382TIP3    H140637   3.069   1.451   6.123 -0.8888 -0.1901 -0.9729
 6382TIP3    H240638   3.219   1.467   6.117 -0.7908 -1.1544 -1.2796
 6383TIP3   OH240639   2.817   0.817   2.968  0.0348 -0.6079 -0.1003
 6383TIP3    H140640   2.907   0.784   2.961 -0.0507 -0.9567  0.3752
 6383TIP3    H240641   2.827   0.910   2.984  0.2756 -0.0770 -2.7656
 6384TIP3   OH240642   4.608   1.598  12.322  0.7374 -0.1395  0.4184
 6384TIP3    H140643   4.626   1.622  12.231 -0.5872  2.0288  0.6591
 6384TIP3    H240644   4.595   1.503  12.319  0.8066 -0.1433 -1.6414
 6385TIP3   OH240645   3.586   6.243   4.403  0.1144 -0.1278  0.2995
 6385TIP3    H140646   3.665   6.234   4.456  0.3016  0.0764  0.0537
 6385TIP3    H240647   3.564   6.336   4.409  0.6539  0.0792 -0.7256
 6386TIP3   OH240648   2.126   2.416   1.172 -0.0490  0.0304  0.3959
 6386TIP3    H140649   2.160   2.430   1.261 -0.6305  0.1101  0.6111
 6386TIP3    H240650   2.197   2.445   1.115  0.5895 -0.6333  0.8258
 6387TIP3   OH240651   2.709   6.425   2.315  0.0201 -0.0186  0.3216
 6387TIP3    H140652   2.762   6.439   2.237 -1.0371  1.3880 -0.1838
 6387TIP3    H240653   2.766   6.451   2.387  0.7485 -0.6088 -0.0285
 6388TIP3   OH240654   3.951   6.182   2.959 -0.1666 -0.3911  0.6762
 6388TIP3    H140655   3.862   6.216   2.949  0.0539  0.0133  0.0690
 6388TIP3    H240656   3.991   6.192   2.873  1.4453  2.2047  1.6308
 6389TIP3   OH240657   1.394   4.477   4.707 -0.3453  0.3564 -0.1787
 6389TIP3    H140658   1.402   4.477   4.802  0.0376  0.5923 -0.2076
 6389TIP3    H240659   1.410   4.568   4.681 -0.3293  0.2716 -0.4744
 6390TIP3   OH240660   6.644   0.461   1.552  0.0547  0.0554  0.0564
 6390TIP3    H140661   6.692   0.455   1.470 -0.6753 -0.7646 -0.3268
 6390TIP3    H240662   6.564   0.509   1.530  0.4601  0.9985  0.5843
 6391TIP3   OH240663   5.159   2.288   4.566 -0.3444 -0.2007 -0.4612
 6391TIP3    H140664   5.065   2.306   4.573 -0.3040 -0.5590  2.8996
 6391TIP3    H240665   5.167   2.194   4.581  0.5499 -0.1351 -0.4650
 6392TIP3   OH240666   2.033   6.170  16.924 -0.6279 -0.6114  0.6917
 6392TIP3    H140667   2.126   6.187  16.913 -0.7955 -0.8880 -1.5067
 6392TIP3    H240668   2.028   6.108  16.997  0.9114 -0.8630  0.6050
 6393TIP3   OH240669   3.306   0.031  13.279 -0.3076 -0.4907 -0.3983
 6393TIP3    H140670   3.235   0.010  13.339  0.3230  0.6873  0.8087
 6393TIP3    H240671   3.320   0.125  13.290  2.5568 -0.9573  0.7153
 6394TIP3   OH240672   0.826   4.421  12.769 -0.0362  0.1781 -0.1485
 6394TIP3    H140673   0.847   4.476  12.845 -0.8441  0.9806 -0.4947
 6394TIP3    H240674   0.786   4.343  12.807  0.1522  0.2908  0.2934
 6395TIP3   OH240675   5.414   5.962  13.944 -0.1909 -0.5618 -0.4736
 6395TIP3    H140676   5.459   6.046  13.951 -1.6422  0.3118 -1.1958
 6395TIP3    H240677   5.388   5.941  14.034  0.2522 -0.2881 -0.2797
 6396TIP3   OH240678   2.350   2.128   0.985  0.1315  0.1333 -0.8164
 6396TIP3    H140679   2.357   2.202   0.925 -0.4926 -0.6590 -1.9024
 6396TIP3    H240680   2.271   2.145   1.036  1.1613  1.2719  0.4810
 6397TIP3   OH240681   3.010   1.395   0.284  0.2158 -0.3790  0.9250
 6397TIP3    H140682   3.060   1.475   0.302 -1.0118  0.6386 -0.0067
 6397TIP3    H240683   2.919   1.424   0.283 -0.1169 -1.2451 -2.1074
 6398TIP3   OH240684   4.364   2.913   3.339  0.4590 -0.0939 -0.0874
 6398TIP3    H140685   4.319   2.919   3.255 -1.2117  1.8383  0.8513
 6398TIP3    H240686   4.346   2.824   3.369  0.6470 -0.6430 -1.5229
 6399TIP3   OH240687   2.503   6.424   2.476  0.0179  0.8591  1.1459
 6399TIP3    H140688   2.542   6.426   2.389 -0.1295 -0.8939  1.0029
 6399TIP3    H240689   2.573   6.394   2.533 -0.0083  1.5846  1.5640
 6400TIP3   OH240690   1.629   4.697  16.805 -0.1893 -0.0952 -0.5720
 6400TIP3    H140691   1.658   4.787  16.821  2.2310 -0.4983 -2.1530
 6400TIP3    H240692   1.609   4.694  16.712  0.8366 -1.4363 -0.7838
 6401TIP3   OH240693   1.467   2.823  14.998  0.2005  0.5268 -0.2409
 6401TIP3    H140694   1.554   2.787  15.012 -0.2284  0.3796  2.5073
 6401TIP3    H240695   1.470   2.911  15.036 -0.3153  1.3302 -1.9587
 6402TIP3   OH240696   2.141   2.348   1.807 -0.0592  0.4911 -0.8106
 6402TIP3    H140697   2.063   2.336   1.861  0.0541 -2.7366 -1.1657
 6402TIP3    H240698   2.110   2.332   1.718  0.8263  0.0397 -1.0415
 6403TIP3   OH240699   0.146   1.142  15.451  0.2824 -0.0756 -0.3361
 6403TIP3    H140700   0.210   1.203  15.417 -0.0947 -0.0838 -1.0782
 6403TIP3    H240701   0.197   1.064  15.474  0.3935 -0.5520 -2.0809
 6404TIP3   OH240702   3.287   6.186   1.110  0.7710  0.1096 -0.4147
 6404TIP3    H140703   3.353   6.117   1.101  1.0339  0.4006 -0.7527
 6404TIP3    H240704   3.260   6.181   1.202  1.5555  0.2432 -0.1670
 6405TIP3   OH240705   4.539   6.241   4.767  0.3818 -0.3826 -0.1902
 6405TIP3    H140706   4.486   6.186   4.708 -0.1296  1.6272 -1.7209
 6405TIP3    H240707   4.626   6.201   4.765  0.2544 -0.6560 -1.9778
 6406TIP3   OH240708   6.191   4.816   3.286  1.1335  0.3588 -0.1374
 6406TIP3    H140709   6.200   4.760   3.209 -1.3362 -0.9495  0.4206
 6406TIP3    H240710   6.275   4.809   3.331  2.4877  0.8228 -2.4076
 6407TIP3   OH240711   0.652   2.406  14.538 -0.0665  0.5167  0.2063
 6407TIP3    H140712   0.710   2.437  14.607 -1.1434 -0.0507  1.4071
 6407TIP3    H240713   0.594   2.480  14.521 -0.9706  0.0769  1.2377
 6408TIP3   OH240714   5.207   1.700  15.504 -0.5956 -0.3164  0.7167
 6408TIP3    H140715   5.238   1.785  15.534  0.2984 -0.5057  0.3675
 6408TIP3    H240716   5.283   1.661  15.460 -1.3887 -0.7186 -0.3378
 6409TIP3   OH240717   4.023   6.164   3.690 -0.9847  0.3986 -0.0589
 6409TIP3    H140718   3.939   6.200   3.716 -1.3356 -0.2084 -0.3223
 6409TIP3    H240719   4.002   6.080   3.648 -0.3355  0.7211 -1.0808
 6410TIP3   OH240720   6.403   5.019  15.921 -0.1890 -0.0911  0.3664
 6410TIP3    H140721   6.478   5.050  15.972 -0.6911  1.2487  0.3265
 6410TIP3    H240722   6.386   5.089  15.857  0.1435 -1.5351 -1.3731
 6411TIP3   OH240723   0.740   5.557  15.525  0.2375  0.1211 -0.3615
 6411TIP3    H140724   0.657   5.603  15.509  0.3898  0.4750 -0.1567
 6411TIP3    H240725   0.799   5.591  15.457  0.2366 -0.0718 -0.4587
 6412TIP3   OH240726   6.174   3.140  12.639 -0.5650 -0.0812 -0.5089
 6412TIP3    H140727   6.204   3.057  12.603  0.1634  0.4848 -1.2201
 6412TIP3    H240728   6.214   3.144  12.726 -0.2183 -0.2463 -0.6614
 6413TIP3   OH240729   0.032   1.514   4.769  0.1844 -0.7396  0.2293
 6413TIP3    H140730  -0.046   1.465   4.795  0.1130 -1.0056 -0.4608
 6413TIP3    H240731   0.068   1.547   4.852 -0.6731 -0.5786  0.5561
 6414TIP3   OH240732   6.402   3.889  13.180 -0.6933  0.0464 -0.1476
 6414TIP3    H140733   6.324   3.853  13.223  0.1710 -0.0100  1.4383
 6414TIP3    H240734   6.454   3.813  13.157 -0.3462  0.1367  0.3172
 6415TIP3   OH240735   3.925   1.765  16.452 -0.0070  0.2965  0.0213
 6415TIP3    H140736   3.893   1.679  16.425 -0.0199  0.8570 -1.8890
 6415TIP3    H240737   4.020   1.759  16.444 -0.0516  0.7089 -1.0388
 6416TIP3   OH240738   4.747   6.438  13.984 -0.2551  0.2841 -0.3565
 6416TIP3    H140739   4.840   6.445  13.962 -0.2437  0.1796 -0.3419
 6416TIP3    H240740   4.708   6.392  13.909  0.0089 -1.2640  0.4170
 6417TIP3   OH240741   3.336   2.979  14.896  0.2861 -0.7206  0.5343
 6417TIP3    H140742   3.307   2.932  14.974 -1.4492 -0.5557  0.0394
 6417TIP3    H240743   3.417   2.936  14.870 -0.8917 -3.0325  0.4621
 6418TIP3   OH240744   3.275   1.321  12.156 -0.0371  0.3460 -0.2265
 6418TIP3    H140745   3.179   1.320  12.150 -0.2387  0.9836  1.9696
 6418TIP3    H240746   3.297   1.414  12.161  0.7003  0.2021 -0.7490
 6419TIP3   OH240747   2.241   5.571  15.323  0.6017  0.7566  0.0027
 6419TIP3    H140748   2.247   5.534  15.235 -0.8121  0.6024 -0.0440
 6419TIP3    H240749   2.279   5.503  15.379  1.6972  0.9412 -0.4894
 6420TIP3   OH240750   6.644   1.580   1.030  0.0236 -0.1841 -0.3486
 6420TIP3    H140751   6.577   1.533   0.981  0.3566  0.2267 -1.2304
 6420TIP3    H240752   6.601   1.609   1.110 -0.9829  0.4915 -1.1208
 6421TIP3   OH240753   4.778   2.385   2.989  0.1086 -0.6507 -0.0990
 6421TIP3    H140754   4.787   2.294   2.961 -0.1114 -1.5177  2.3812
 6421TIP3    H240755   4.705   2.384   3.050  0.1891  1.1855  0.0886
 6422TIP3   OH240756   4.393   6.638  11.938 -0.0642  0.2513 -0.0466
 6422TIP3    H140757   4.463   6.610  11.878  0.7102 -1.5054  1.5730
 6422TIP3    H240758   4.347   6.707  11.890  1.8276  0.4132 -1.7890
 6423TIP3   OH240759   3.615   0.966  15.111  0.4555 -0.0826  0.3151
 6423TIP3    H140760   3.554   0.894  15.099 -1.1355  1.2072  0.3389
 6423TIP3    H240761   3.624   0.975  15.206  1.2685 -0.7210  0.3093
 6424TIP3   OH240762   0.832   3.287   5.678 -0.2884  0.2558  0.1521
 6424TIP3    H140763   0.738   3.269   5.669 -0.0539 -0.9658 -0.0196
 6424TIP3    H240764   0.863   3.221   5.741  0.8863 -0.9381 -1.5930
 6425TIP3   OH240765   5.212   6.766  12.590 -0.0068 -0.1141  0.2707
 6425TIP3    H140766   5.252   6.703  12.530 -2.1496 -0.3942 -0.9770
 6425TIP3    H240767   5.270   6.842  12.587 -0.4558  0.2639 -2.9775
 6426TIP3   OH240768   3.691   0.502   3.734 -0.0661 -0.2875 -0.6865
 6426TIP3    H140769   3.649   0.476   3.652 -2.3582 -0.0784  0.3301
 6426TIP3    H240770   3.738   0.424   3.763  1.5287 -0.0967 -2.5734
 6427TIP3   OH240771   3.677   4.443  11.564 -0.0045 -0.2161 -0.0723
 6427TIP3    H140772   3.611   4.467  11.630 -1.2169  1.0837 -1.6862
 6427TIP3    H240773   3.703   4.354  11.588 -1.3496 -0.2545  1.4055
 6428TIP3   OH240774   2.674   5.680  12.325  0.0005 -0.0527  0.6022
 6428TIP3    H140775   2.680   5.593  12.363 -0.3918  0.2021  1.2663
 6428TIP3    H240776   2.693   5.739  12.398  0.6088  0.4075  0.0764
 6429TIP3   OH240777   6.311   5.050  13.177 -0.4640  0.0335  0.1812
 6429TIP3    H140778   6.226   5.029  13.138 -1.3530 -1.1131  2.5390
 6429TIP3    H240779   6.301   5.139  13.210 -0.3201  0.3227 -0.5187
 6430TIP3   OH240780   0.300   2.973  12.939 -0.0862 -0.8495 -0.0465
 6430TIP3    H140781   0.368   2.967  13.005  0.0942 -0.3661 -0.1889
 6430TIP3    H240782   0.309   2.893  12.887  0.7364 -0.5179 -0.4184
 6431TIP3   OH240783   2.407   1.966  15.032 -0.3068 -0.0139 -0.3402
 6431TIP3    H140784   2.378   1.891  15.084  0.2206 -0.4088 -0.6077
 6431TIP3    H240785   2.496   1.984  15.063 -0.3839  0.4233 -0.3641
 6432TIP3   OH240786   1.093   1.649  12.661 -0.1399 -0.4738 -0.0046
 6432TIP3    H140787   1.107   1.709  12.587  1.6342 -0.1142  0.5708
 6432TIP3    H240788   1.105   1.704  12.739  2.4822 -1.6828  0.5457
 6433TIP3   OH240789   5.851   2.373  13.224 -0.3903 -0.0424 -0.4190
 6433TIP3    H140790   5.912   2.443  13.246 -0.6636 -0.1774  0.8389
 6433TIP3    H240791   5.905   2.306  13.183  0.4300 -0.4259  1.2357
 6434TIP3   OH240792   1.684   0.722   4.850  0.2737 -0.2600  0.7047
 6434TIP3    H140793   1.641   0.685   4.927 -0.5198  0.9243  0.8729
 6434TIP3    H240794   1.755   0.662   4.830 -2.5092 -3.3969 -0.6898
 6435TIP3   OH240795   4.231   2.292   3.910  0.6743 -0.6914  0.1655
 6435TIP3    H140796   4.187   2.356   3.855  0.6724  0.1659  1.1318
 6435TIP3    H240797   4.320   2.288   3.876  0.7233 -0.0343  0.1950
 6436TIP3   OH240798   6.577   0.001   4.201  0.0585 -0.1071  0.3403
 6436TIP3    H140799   6.616  -0.001   4.114 -1.3725 -0.8978 -0.3201
 6436TIP3    H240800   6.639  -0.047   4.256  1.1443  0.6976 -0.1436
 6437TIP3   OH240801   0.039   1.468   1.597 -0.3653 -0.1043 -0.5244
 6437TIP3    H140802  -0.013   1.389   1.611  0.5227 -0.4072  1.3876
 6437TIP3    H240803   0.094   1.475   1.675  0.9316  1.3776 -1.4999
 6438TIP3   OH240804   1.674   2.919  12.841  0.1471  0.0232  0.1697
 6438TIP3    H140805   1.754   2.970  12.840 -0.0714  0.3708 -0.4034
 6438TIP3    H240806   1.622   2.955  12.769 -1.1898  0.8649  1.5065
 6439TIP3   OH240807   3.665   1.287  15.508  0.1676  0.5022  0.5262
 6439TIP3    H140808   3.582   1.292  15.556  0.5861  1.5118  1.1858
 6439TIP3    H240809   3.707   1.372  15.525  1.5294 -0.1633  0.5735
 6440TIP3   OH240810   2.788   3.829   2.072 -0.5327  0.1127 -0.4001
 6440TIP3    H140811   2.755   3.808   2.159  0.3107  0.7127  0.0824
 6440TIP3    H240812   2.715   3.810   2.013 -1.3332  0.3072  0.5032
 6441TIP3   OH240813   3.526   3.664   4.592 -0.0667 -0.3167  0.1938
 6441TIP3    H140814   3.620   3.655   4.575  0.2291  2.7250 -0.4989
 6441TIP3    H240815   3.493   3.715   4.517 -2.0553 -0.3792  0.9622
 6442TIP3   OH240816   6.252   2.759   2.687 -0.1207  0.4454  0.0225
 6442TIP3    H140817   6.347   2.775   2.690 -0.0269 -0.2311  1.2624
 6442TIP3    H240818   6.213   2.846   2.695  0.3893  0.7684 -0.8754
 6443TIP3   OH240819   4.527   4.711  12.217 -0.0706 -0.0205 -0.2933
 6443TIP3    H140820   4.500   4.798  12.187  0.3382 -0.0251 -0.6902
 6443TIP3    H240821   4.518   4.656  12.139  0.2923 -0.1959 -0.2101
 6444TIP3   OH240822   1.426   3.338  12.736 -0.1550  0.6306  0.0042
 6444TIP3    H140823   1.353   3.378  12.690  0.3762  1.1321 -0.4196
 6444TIP3    H240824   1.397   3.248  12.754 -0.4254  0.4560 -1.2100
 6445TIP3   OH240825   6.752   5.740  12.942 -0.2137 -0.1522 -0.1137
 6445TIP3    H140826   6.764   5.832  12.918  0.4249 -0.0001  0.7493
 6445TIP3    H240827   6.724   5.698  12.861 -0.4036  0.7772 -0.5504
 6446TIP3   OH240828   2.937   3.999  14.889 -0.0608 -0.1396  0.2168
 6446TIP3    H140829   2.985   4.081  14.904 -1.3210  0.6209  0.2119
 6446TIP3    H240830   2.922   3.963  14.976 -0.2235  0.0587  0.2703
 6447TIP3   OH240831   0.600   0.505  12.852  0.5280  0.2680 -0.2516
 6447TIP3    H140832   0.679   0.492  12.904 -0.4021 -1.4519  0.8303
 6447TIP3    H240833   0.627   0.483  12.762  1.4567  0.4577 -0.0294
 6448TIP3   OH240834   5.357   6.132   0.250 -0.2685  0.1147 -0.0032
 6448TIP3    H140835   5.409   6.053   0.233 -0.0134  0.3425 -0.2811
 6448TIP3    H240836   5.365   6.147   0.344 -0.0529 -0.0042 -0.0028
 6449TIP3   OH240837   0.465   1.646   3.763  0.0548  0.8174 -0.1078
 6449TIP3    H140838   0.454   1.552   3.776 -0.1366  0.9871  0.9637
 6449TIP3    H240839   0.385   1.673   3.717  0.4073  0.3576 -1.0350
 6450TIP3   OH240840   3.026   4.877  13.584 -0.0787  0.7520  0.3912
 6450TIP3    H140841   3.054   4.959  13.624  2.0823  0.2495  0.0108
 6450TIP3    H240842   3.097   4.852  13.525 -0.4082 -1.6865  0.8950
 6451TIP3   OH240843   5.565   1.262  13.456 -0.0276 -0.0529  0.1685
 6451TIP3    H140844   5.641   1.311  13.489  0.4374 -0.8683  0.3279
 6451TIP3    H240845   5.584   1.245  13.364 -0.0651 -0.1635  0.1803
 6452TIP3   OH240846   0.967   4.704   2.412  0.2084 -0.7950  0.1794
 6452TIP3    H140847   0.923   4.781   2.447  1.8110 -0.4588  1.6128
 6452TIP3    H240848   0.915   4.630   2.444  0.3073 -0.3948  1.3110
 6453TIP3   OH240849   2.937   0.234  14.015  0.3071 -0.4211  0.3231
 6453TIP3    H140850   3.003   0.259  13.951  1.5215  1.4212  2.1837
 6453TIP3    H240851   2.936   0.138  14.012 -0.3942 -0.4513 -3.0389
 6454TIP3   OH240852   1.350   2.981  13.736  0.1064  0.1937 -0.0784
 6454TIP3    H140853   1.443   2.988  13.715 -0.5896  0.9951 -3.5052
 6454TIP3    H240854   1.321   3.071  13.748 -0.0625 -0.1144  2.1869
 6455TIP3   OH240855   0.025   6.245  10.895  0.0684 -0.2584 -0.1072
 6455TIP3    H140856  -0.040   6.266  10.828 -0.6543  2.1209  1.2116
 6455TIP3    H240857   0.101   6.299  10.872  0.1589 -0.1348  0.4644
 6456TIP3   OH240858   6.119   4.455   3.756 -0.0826 -0.4896  0.1604
 6456TIP3    H140859   6.041   4.400   3.765 -0.1142 -0.2917  1.3076
 6456TIP3    H240860   6.128   4.469   3.662  0.0044 -2.5458 -0.1824
 6457TIP3   OH240861   6.012   0.013  14.657 -0.0573  0.2760 -0.8097
 6457TIP3    H140862   6.005  -0.066  14.604  1.0666  0.1360 -0.7632
 6457TIP3    H240863   5.922   0.030  14.687 -0.4782 -0.3854 -1.6671
 6458TIP3   OH240864   6.146   5.721  14.391  0.0102 -0.7411 -0.6120
 6458TIP3    H140865   6.084   5.654  14.362 -0.6685  0.2231 -1.4886
 6458TIP3    H240866   6.162   5.701  14.483 -1.3154 -1.2421 -0.4629
 6459TIP3   OH240867   1.981   0.984  14.781  0.0770 -0.0476  0.3490
 6459TIP3    H140868   2.018   0.928  14.850  0.0792 -0.0317  0.3609
 6459TIP3    H240869   1.888   0.990  14.803 -0.1028 -0.8055 -0.1635
 6460TIP3   OH240870   3.530   1.685   4.424  0.2124 -0.3766 -0.0304
 6460TIP3    H140871   3.535   1.619   4.355 -0.0365  0.0348 -0.4465
 6460TIP3    H240872   3.437   1.707   4.429  0.4695  1.0054 -0.9177
 6461TIP3   OH240873   2.764   4.082  13.929  0.3158  0.2259 -0.2480
 6461TIP3    H140874   2.716   4.003  13.902  1.8475 -0.2110 -1.8957
 6461TIP3    H240875   2.768   4.135  13.849  1.3410  0.8890  0.2280
 6462TIP3   OH240876   1.774   3.795   1.973 -0.0265  0.3144 -0.1416
 6462TIP3    H140877   1.748   3.886   1.992  1.4881  1.0660 -1.4597
 6462TIP3    H240878   1.715   3.742   2.027  0.1308  2.1130  1.9388
 6463TIP3   OH240879   4.987   2.277  11.216  0.2767  0.0426 -0.2697
 6463TIP3    H140880   4.988   2.260  11.122  0.1284  0.3632 -0.3316
 6463TIP3    H240881   4.909   2.331  11.229 -0.8720 -1.6568  0.3246
 6464TIP3   OH240882   2.958   4.382  15.641 -0.0639 -0.0398 -0.4578
 6464TIP3    H140883   2.926   4.311  15.586 -1.5622 -0.6083  1.0513
 6464TIP3    H240884   2.989   4.338  15.721 -0.9931  0.9698  0.4958
 6465TIP3   OH240885   4.931   4.833   0.802 -0.1895 -0.1181  0.6232
 6465TIP3    H140886   4.865   4.778   0.844 -1.4821  0.7674 -0.1740
 6465TIP3    H240887   4.882   4.887   0.741  1.5562 -1.1131 -1.8167
 6466TIP3   OH240888   3.309   2.765  13.549 -0.2764  0.2067  0.1550
 6466TIP3    H140889   3.363   2.766  13.470  1.7042 -0.3533  1.4336
 6466TIP3    H240890   3.251   2.841  13.540  1.2363  1.2771 -0.9467
 6467TIP3   OH240891   1.435   2.324   1.420 -0.0782 -0.6025  0.2220
 6467TIP3    H140892   1.495   2.314   1.347 -0.5868  0.6259 -0.3985
 6467TIP3    H240893   1.368   2.386   1.388 -0.0665  0.3271  1.8566
 6468TIP3   OH240894   3.701   2.619  13.761  0.0728  0.2295 -0.1345
 6468TIP3    H140895   3.677   2.556  13.829 -1.1919  1.2983  0.4372
 6468TIP3    H240896   3.620   2.665  13.740  0.3686 -0.2261 -2.5759
 6469TIP3   OH240897   1.815   0.965  16.800 -0.7647 -0.1810 -0.1515
 6469TIP3    H140898   1.887   1.023  16.773 -0.8503  1.0235  1.9762
 6469TIP3    H240899   1.781   0.929  16.718 -0.7303  2.8517 -1.6550
 6470TIP3   OH240900   6.470   1.330   2.133 -0.5248 -0.6177  0.0164
 6470TIP3    H140901   6.459   1.354   2.041 -1.3779  0.3826  0.3580
 6470TIP3    H240902   6.394   1.275   2.153 -1.5499  0.9547  0.6671
 6471TIP3   OH240903   1.753   6.100  15.726  0.0338  0.8741 -0.5541
 6471TIP3    H140904   1.695   6.024  15.734  0.7794  0.2147 -1.1944
 6471TIP3    H240905   1.730   6.139  15.642  0.0908  0.9722 -0.5243
 6472TIP3   OH240906   6.124   5.724   2.034 -0.2335 -0.2606  0.6601
 6472TIP3    H140907   6.052   5.777   2.001  0.2604 -0.4721 -0.8084
 6472TIP3    H240908   6.196   5.785   2.046  0.2355 -0.5105 -0.7220
 6473TIP3   OH240909   0.229   0.371  12.192  0.0400  0.4086  0.9028
 6473TIP3    H140910   0.164   0.305  12.218  1.3814 -0.6457  1.7141
 6473TIP3    H240911   0.211   0.387  12.099 -0.2505 -1.2227  0.6475
 6474TIP3   OH240912   5.959   3.413   5.810  0.7341 -0.4989 -0.1368
 6474TIP3    H140913   5.959   3.324   5.774  1.4248 -0.4560 -0.2562
 6474TIP3    H240914   5.887   3.457   5.766  0.2597 -1.0526  0.0624
 6475TIP3   OH240915   6.435   6.082  13.764  0.0631  0.5155 -0.3453
 6475TIP3    H140916   6.475   6.166  13.786 -2.8441  1.7868  0.6496
 6475TIP3    H240917   6.450   6.027  13.840  0.4458  0.7382 -0.2581
 6476TIP3   OH240918   0.828   1.285  13.123  0.5302  0.1295 -0.3543
 6476TIP3    H140919   0.873   1.203  13.100  2.5278  0.9382  0.3951
 6476TIP3    H240920   0.890   1.331  13.180 -1.3049  1.3537  0.7493
 6477TIP3   OH240921   6.362   5.212   4.366  0.3334 -0.3329 -0.2451
 6477TIP3    H140922   6.337   5.127   4.402  0.6136  0.0971  0.9883
 6477TIP3    H240923   6.283   5.246   4.324 -1.3140  1.0301  3.5850
 6478TIP3   OH240924   2.360   5.193   5.819 -1.0134  0.0567  0.1913
 6478TIP3    H140925   2.379   5.213   5.911 -1.0901 -0.3914  0.3085
 6478TIP3    H240926   2.444   5.172   5.780 -1.0412 -0.2315  0.2825
 6479TIP3   OH240927   3.362   2.255   1.527 -0.5676 -0.3069  0.2928
 6479TIP3    H140928   3.392   2.206   1.451 -2.4903 -0.3749 -0.4837
 6479TIP3    H240929   3.381   2.347   1.506 -0.1298 -0.4176  0.2033
 6480TIP3   OH240930   6.564   1.508   3.551 -0.0620  0.5128  0.3531
 6480TIP3    H140931   6.482   1.468   3.582 -0.2780  0.4896 -0.2258
 6480TIP3    H240932   6.632   1.445   3.574 -0.2188  0.4865  0.7521
 6481TIP3   OH240933   1.927   4.634  14.913  0.2994 -0.2455  0.6135
 6481TIP3    H140934   1.861   4.624  14.845 -1.7560  1.2998  2.2238
 6481TIP3    H240935   1.972   4.716  14.891  1.3927 -1.0539 -0.2257
 6482TIP3   OH240936   0.166   5.831  16.998 -0.0108 -0.1124 -0.3885
 6482TIP3    H140937   0.072   5.817  17.006 -0.2180  0.4208 -1.6355
 6482TIP3    H240938   0.192   5.773  16.926  0.7035 -0.5729  0.2207
 6483TIP3   OH240939   4.712   1.522   4.649  0.1748  0.3170  0.3467
 6483TIP3    H140940   4.684   1.611   4.673  0.9459  1.2555 -1.9257
 6483TIP3    H240941   4.744   1.485   4.730  0.0343  2.2141  1.3383
 6484TIP3   OH240942   4.835   5.440  15.511 -0.4660 -0.1029  0.7485
 6484TIP3    H140943   4.765   5.385  15.474  0.6974 -0.5207 -0.9320
 6484TIP3    H240944   4.835   5.518  15.455 -0.5848  0.5913  1.7065
 6485TIP3   OH240945   4.830   4.812   3.990 -0.4417 -0.1290  0.0743
 6485TIP3    H140946   4.831   4.717   3.978  1.1256 -0.0479 -0.7189
 6485TIP3    H240947   4.751   4.840   3.944 -0.1631 -0.9277 -0.9501
 6486TIP3   OH240948   1.817   1.791  15.756  0.3519 -0.1491  0.1075
 6486TIP3    H140949   1.849   1.711  15.797 -1.7649 -0.7795  0.6209
 6486TIP3    H240950   1.739   1.764  15.708  0.0439  1.4693 -0.3553
 6487TIP3   OH240951   2.621   6.484  13.672  0.3371  0.2211  0.1026
 6487TIP3    H140952   2.673   6.420  13.622 -0.4959  0.3530 -0.9652
 6487TIP3    H240953   2.530   6.457  13.658  0.0730  0.4473  1.3189
 6488TIP3   OH240954   5.524   1.180  11.549 -0.3244 -0.2288  0.4200
 6488TIP3    H140955   5.484   1.101  11.513  0.4041 -0.7254  0.6724
 6488TIP3    H240956   5.465   1.251  11.523 -0.6132 -0.7649 -0.4278
 6489TIP3   OH240957   0.322   2.266  11.236  0.5758 -0.2420 -0.2742
 6489TIP3    H140958   0.291   2.205  11.169 -0.6049 -0.5896  0.5528
 6489TIP3    H240959   0.407   2.232  11.263  0.3350 -1.0050 -0.4534
 6490TIP3   OH240960   2.414   5.821   6.055  0.0300  0.1145 -0.6649
 6490TIP3    H140961   2.417   5.727   6.072  0.2713  0.4995  1.6742
 6490TIP3    H240962   2.366   5.829   5.972  3.0290 -2.2278 -2.8295
 6491TIP3   OH240963   2.814   3.043  16.574  0.3573  0.3332  0.2866
 6491TIP3    H140964   2.861   3.121  16.547 -0.1560  0.2847 -0.8230
 6491TIP3    H240965   2.877   2.971  16.564  0.1605  0.3095 -0.8881
 6492TIP3   OH240966   2.249   5.578  12.719 -0.4277  0.2284  0.1608
 6492TIP3    H140967   2.220   5.663  12.685  2.5184  1.9149  1.4586
 6492TIP3    H240968   2.282   5.531  12.642 -1.6047  0.4375 -0.4942
 6493TIP3   OH240969   5.546   6.820  12.345  0.0174 -0.3429 -0.0133
 6493TIP3    H140970   5.599   6.772  12.407  2.3354  1.9507 -0.0514
 6493TIP3    H240971   5.512   6.895  12.395  2.3227  1.8202 -1.4118
 6494TIP3   OH240972   3.638   5.568   5.625 -0.7802 -0.2546  0.6210
 6494TIP3    H140973   3.618   5.565   5.719 -1.3052 -1.1193  0.4947
 6494TIP3    H240974   3.588   5.495   5.588  3.2623 -3.3166  0.4256
 6495TIP3   OH240975   3.731   6.349  13.183  0.2821  0.5525  0.1669
 6495TIP3    H140976   3.821   6.372  13.202  1.3521 -3.1852  0.3920
 6495TIP3    H240977   3.724   6.352  13.087  1.1609 -0.5576  0.0461
 6496TIP3   OH240978   0.501   0.972   3.945 -0.2999 -0.2213 -0.0743
 6496TIP3    H140979   0.563   0.999   3.877 -2.4412  0.7619 -1.7267
 6496TIP3    H240980   0.489   1.050   3.999 -1.7808  0.3318 -1.1429
 6497TIP3   OH240981   3.596   1.305   3.873 -0.2134  0.0055 -0.0520
 6497TIP3    H140982   3.521   1.255   3.840 -0.5484  0.3738  0.1365
 6497TIP3    H240983   3.561   1.394   3.885  0.6049  0.5225 -1.2587
 6498TIP3   OH240984   3.868   4.869  15.705  0.1453 -0.1757  0.2232
 6498TIP3    H140985   3.949   4.912  15.734 -0.1950 -0.6913  2.0647
 6498TIP3    H240986   3.845   4.915  15.624  1.2016  1.3322  0.7274
 6499TIP3   OH240987   3.874   3.235   5.879 -0.4714 -0.0776  0.3489
 6499TIP3    H140988   3.884   3.261   5.971  1.7574  0.1730  0.1054
 6499TIP3    H240989   3.945   3.282   5.834 -1.2354 -0.5654 -1.4212
 6500TIP3   OH240990   4.412   4.482  12.072 -0.2712 -0.4810  0.0983
 6500TIP3    H140991   4.343   4.494  12.138 -1.4456  1.4200 -1.3513
 6500TIP3    H240992   4.369   4.503  11.989  1.2993 -2.2889 -1.2401
 6501TIP3   OH240993   3.262   1.426   1.733  0.1810 -0.1448  0.1523
 6501TIP3    H140994   3.249   1.344   1.781 -0.0772 -0.2384 -0.0758
 6501TIP3    H240995   3.261   1.400   1.641  0.8432  0.0083  0.0944
 6502TIP3   OH240996   0.312   0.754   4.036  0.5142  0.3313  0.1114
 6502TIP3    H140997   0.231   0.787   4.075  0.2726 -0.1005 -0.0150
 6502TIP3    H240998   0.352   0.831   3.997  1.6759  1.1896  2.7254
 6503TIP3   OH240999   4.647   4.824  13.930  0.3039  0.4609 -0.3268
 6503TIP3    H141000   4.616   4.904  13.972 -1.9729 -0.4029 -0.2457
 6503TIP3    H241001   4.599   4.754  13.973  2.3956 -1.0150 -0.2558
 6504TIP3   OH241002   1.807   6.820   5.754  0.6552 -0.3339 -0.4106
 6504TIP3    H141003   1.868   6.760   5.712  0.6893  0.3726 -1.4115
 6504TIP3    H241004   1.831   6.819   5.847  2.5276  0.3230 -0.8580
 6505TIP3   OH241005   6.037   4.078   3.845 -0.7239 -0.1972 -0.1155
 6505TIP3    H141006   6.011   4.166   3.817 -1.0397  0.0457  0.8855
 6505TIP3    H241007   5.956   4.027   3.843 -0.5831 -0.4144 -0.4767
 6506TIP3   OH241008   3.356   4.858  15.311  0.2802 -1.2752  0.1837
 6506TIP3    H141009   3.417   4.926  15.282 -1.3996  0.1053 -0.3080
 6506TIP3    H241010   3.365   4.857  15.406 -0.4666  0.5100  0.3214
 6507TIP3   OH241011   2.391   0.682   1.848 -1.0722 -0.1289  0.0371
 6507TIP3    H141012   2.398   0.712   1.758 -1.1323 -0.9044 -0.2372
 6507TIP3    H241013   2.312   0.724   1.882 -1.1500  0.0200 -0.3329
 6508TIP3   OH241014   0.838   6.047  12.984 -0.7225 -0.1449  0.1005
 6508TIP3    H141015   0.887   5.968  12.960 -0.3992 -0.3420  1.3464
 6508TIP3    H241016   0.753   6.035  12.942 -0.1328 -0.3730 -1.0868
 6509TIP3   OH241017   3.958   5.021  11.761 -0.2547  0.0460  0.0085
 6509TIP3    H141018   4.030   5.058  11.811  0.7904 -2.1158  0.2054
 6509TIP3    H241019   3.998   4.991  11.680 -0.7764 -1.7014  0.3586
 6510TIP3   OH241020   5.014   4.579  13.217  0.2670  0.1882  0.0722
 6510TIP3    H141021   4.979   4.577  13.306  0.7819 -0.1404  0.2736
 6510TIP3    H241022   5.044   4.489  13.201 -0.1070  0.1687 -0.5499
 6511TIP3   OH241023   1.044   4.885  12.119 -0.1583  0.2874  0.6977
 6511TIP3    H141024   1.030   4.923  12.032 -2.4105 -2.8195 -0.4256
 6511TIP3    H241025   1.135   4.854  12.116  0.4743  2.0238  0.2910
 6512TIP3   OH241026   2.495   6.122   2.994 -0.2830 -0.4495 -0.2706
 6512TIP3    H141027   2.495   6.192   2.929  0.6146 -0.6377 -0.4931
 6512TIP3    H241028   2.404   6.116   3.024 -0.1897  1.6208  0.6295
 6513TIP3   OH241029   6.527   2.658   2.087 -0.7543 -0.4541 -0.7707
 6513TIP3    H141030   6.525   2.697   2.000 -0.0164  0.2655 -0.4741
 6513TIP3    H241031   6.620   2.659   2.111 -0.6077 -2.8643 -0.9570
 6514TIP3   OH241032   0.474   0.002   4.980 -0.4041 -0.0639 -0.4614
 6514TIP3    H141033   0.412  -0.054   5.025 -1.2974 -0.0027 -1.5784
 6514TIP3    H241034   0.420   0.057   4.923  0.7407 -1.2216 -2.8089
 6515TIP3   OH241035   0.948   3.553  13.631  0.3999  0.4787 -0.5546
 6515TIP3    H141036   0.878   3.601  13.587  0.1595  1.4861  0.8314
 6515TIP3    H241037   1.027   3.606  13.617  0.3806  0.6495 -0.0529
 6516TIP3   OH241038   0.909   5.637  14.340  0.2706  0.1125 -0.1196
 6516TIP3    H141039   0.866   5.561  14.380  1.2951 -0.0958  0.6199
 6516TIP3    H241040   0.851   5.661  14.268  0.0877 -1.5831 -0.5875
 6517TIP3   OH241041   6.452   0.619  12.697 -0.0243  0.0998  0.0051
 6517TIP3    H141042   6.526   0.639  12.755 -0.9456  0.6120  1.0535
 6517TIP3    H241043   6.453   0.689  12.632  1.3380 -0.7718 -0.9576
 6518TIP3   OH241044   1.476   4.920   2.773 -0.0872 -0.7372 -0.3411
 6518TIP3    H141045   1.416   4.904   2.846 -0.5660 -0.5248 -0.6777
 6518TIP3    H241046   1.559   4.883   2.801 -0.3649 -0.9910  0.1593
 6519TIP3   OH241047   1.771   4.320  15.569 -0.0545 -0.9999  0.1108
 6519TIP3    H141048   1.702   4.296  15.507 -0.0998  0.4393 -0.4406
 6519TIP3    H241049   1.732   4.391  15.621  1.1309  0.1263 -0.4902
 6520TIP3   OH241050   2.836   4.342   1.939 -0.0658 -0.2371  0.0061
 6520TIP3    H141051   2.825   4.412   2.003 -0.9228 -0.2533 -0.1026
 6520TIP3    H241052   2.832   4.386   1.854 -1.5686 -0.4933 -0.0926
 6521TIP3   OH241053   2.557   0.858   4.610  0.5703 -0.5539  0.1273
 6521TIP3    H141054   2.646   0.826   4.596  1.6731  1.8788  0.8429
 6521TIP3    H241055   2.549   0.865   4.705 -0.7219 -1.5273  0.1113
 6522TIP3   OH241056   6.395   3.941   5.486  0.7748 -0.2666  0.5467
 6522TIP3    H141057   6.455   3.870   5.462  1.3435  0.3684  0.0451
 6522TIP3    H241058   6.388   3.994   5.406  1.5949  1.1207  1.3660
 6523TIP3   OH241059   1.272   1.941   3.431 -0.2855  0.3247 -0.2407
 6523TIP3    H141060   1.315   1.857   3.417 -1.9101 -0.2124 -2.7388
 6523TIP3    H241061   1.229   1.932   3.516  0.7756 -0.7799  0.2048
 6524TIP3   OH241062   3.376   3.734  12.570 -0.9755 -0.5318  0.1070
 6524TIP3    H141063   3.327   3.675  12.513 -2.4311  0.9557 -0.2196
 6524TIP3    H241064   3.397   3.680  12.647 -0.9084 -1.9096 -0.8395
 6525TIP3   OH241065   0.443   6.372  15.350 -0.3163  0.4370  0.3070
 6525TIP3    H141066   0.360   6.399  15.312 -0.1656  0.6555  0.1334
 6525TIP3    H241067   0.446   6.277  15.335 -1.6491 -0.0326  2.4663
 6526TIP3   OH241068   3.078   1.643  12.660 -0.7017  0.2059  0.6359
 6526TIP3    H141069   3.164   1.679  12.683 -0.8667 -0.1186  1.8100
 6526TIP3    H241070   3.046   1.702  12.592 -0.9535  2.3601  2.4669
 6527TIP3   OH241071   2.825   3.019   1.446  0.0468  0.7393 -0.1604
 6527TIP3    H141072   2.731   3.009   1.457  0.0868  0.6853  0.1338
 6527TIP3    H241073   2.834   3.086   1.378 -0.2062 -0.4494 -1.3882
 6528TIP3   OH241074   6.307   1.448   3.727  0.2777  0.7466  0.2777
 6528TIP3    H141075   6.307   1.358   3.696  2.6587 -0.0089  2.2079
 6528TIP3    H241076   6.267   1.498   3.655 -1.6267 -1.8360 -0.6176
 6529TIP3   OH241077   1.077   3.296   3.066 -0.3409  0.0898 -0.7700
 6529TIP3    H141078   0.988   3.330   3.072 -0.5823 -0.7083  0.7911
 6529TIP3    H241079   1.126   3.343   3.133 -0.0079 -0.6672 -0.4675
 6530TIP3   OH241080   3.081   2.915  13.803 -0.0548  0.0822  0.1426
 6530TIP3    H141081   3.074   2.881  13.892 -1.0700  1.1779  0.5138
 6530TIP3    H241082   2.993   2.910  13.768  0.2538  0.0717 -0.6572
 6531TIP3   OH241083   5.753   6.568  12.995  0.2266 -0.1992  0.2329
 6531TIP3    H141084   5.836   6.601  12.960  0.4640 -0.6318  0.3880
 6531TIP3    H241085   5.701   6.647  13.012  0.8247  0.0986  0.6781
 6532TIP3   OH241086   2.707   4.176  15.086  0.5481 -0.2260  0.3144
 6532TIP3    H141087   2.654   4.134  15.019 -1.4350 -0.2440  1.8044
 6532TIP3    H241088   2.776   4.222  15.038  0.6876 -2.2572 -1.5500
 6533TIP3   OH241089   3.527   3.976  13.831  0.7580  0.4162  0.4246
 6533TIP3    H141090   3.522   4.011  13.920 -0.0885  0.6643  0.2925
 6533TIP3    H241091   3.438   3.947  13.811  0.9640  0.2421 -0.2963
 6534TIP3   OH241092   5.491   4.856  13.175  0.2253 -0.3780 -0.3469
 6534TIP3    H141093   5.399   4.830  13.167 -0.2048  0.7155  0.7402
 6534TIP3    H241094   5.536   4.775  13.200 -0.8005 -0.5045  1.2311
 6535TIP3   OH241095   5.066   2.162   4.128  0.4556 -0.2251  0.2355
 6535TIP3    H141096   4.990   2.199   4.172  0.2565  0.8240 -0.9384
 6535TIP3    H241097   5.141   2.187   4.183  0.0549 -0.5720  0.9590
 6536TIP3   OH241098   1.409   4.462  15.418 -0.2190  0.3645  0.4087
 6536TIP3    H141099   1.378   4.477  15.329 -1.3463  0.0391  0.7329
 6536TIP3    H241100   1.500   4.493  15.417 -0.0513 -0.0998 -0.9790
 6537TIP3   OH241101   4.306   3.096   1.781  0.2733  0.8332 -0.2952
 6537TIP3    H141102   4.225   3.080   1.830  0.5416  0.1855 -0.0542
 6537TIP3    H241103   4.311   3.024   1.719  0.4082  1.1535 -0.6635
 6538TIP3   OH241104   0.521   4.870  16.049  0.4423  0.4026  0.6500
 6538TIP3    H141105   0.517   4.819  15.968  2.1049  0.8484  0.2462
 6538TIP3    H241106   0.477   4.815  16.114 -1.3872  0.2458 -0.6126
 6539TIP3   OH241107   6.611   4.237  13.121  0.5821 -0.1484 -0.2535
 6539TIP3    H141108   6.685   4.202  13.170  0.1105 -2.8473 -1.2764
 6539TIP3    H241109   6.645   4.250  13.032 -0.3587 -2.6620 -1.0800
 6540TIP3   OH241110   6.742   1.024  10.985 -0.1810 -0.0651 -0.5640
 6540TIP3    H141111   6.662   1.051  10.940  1.2690 -0.1858 -3.4102
 6540TIP3    H241112   6.801   0.994  10.916  2.9499  1.5074  1.1502
 6541TIP3   OH241113   2.281   5.211  14.838 -0.0115 -0.0388 -0.0091
 6541TIP3    H141114   2.227   5.196  14.760  0.2447 -1.1574  0.0108
 6541TIP3    H241115   2.371   5.205  14.807  0.0937 -0.5906  0.3749
 6542TIP3   OH241116   5.610   3.277   3.794 -0.1419  0.0779 -0.4970
 6542TIP3    H141117   5.582   3.187   3.778  1.6258 -0.6813  0.4077
 6542TIP3    H241118   5.536   3.330   3.764 -3.0892 -1.7377  2.7328
 6543TIP3   OH241119   1.314   5.885   2.416  0.3342 -0.4400 -0.2860
 6543TIP3    H141120   1.286   5.958   2.472 -1.9185 -0.7280 -0.9148
 6543TIP3    H241121   1.346   5.927   2.336 -1.3891 -0.0747 -0.8360
 6544TIP3   OH241122   3.105   4.763  11.245  0.2782  0.0595  0.6096
 6544TIP3    H141123   3.086   4.831  11.310 -1.1305 -0.7414  1.0635
 6544TIP3    H241124   3.198   4.743  11.258  0.4596  1.1928  1.1340
 6545TIP3   OH241125   1.663   4.514   3.537  0.0585 -0.0444  0.5262
 6545TIP3    H141126   1.751   4.516   3.501  0.2961  3.0951  0.9466
 6545TIP3    H241127   1.675   4.526   3.631 -0.7724 -1.8061  0.8922
 6546TIP3   OH241128   2.954   1.156  14.515 -0.6618  0.5206 -0.5612
 6546TIP3    H141129   3.011   1.130  14.442 -2.6389 -1.2553 -1.5754
 6546TIP3    H241130   2.942   1.075  14.565  0.1454  1.5746  1.4347
 6547TIP3   OH241131   2.294   3.042   5.539 -0.0584  0.0948  0.8348
 6547TIP3    H141132   2.339   3.126   5.533 -0.5837  0.5652  2.8381
 6547TIP3    H241133   2.351   2.988   5.593  0.3907 -0.9611 -0.6266
 6548TIP3   OH241134   6.180   4.261  16.822 -0.3552  0.5528 -0.2476
 6548TIP3    H141135   6.113   4.195  16.836  1.6311 -1.8300 -1.2043
 6548TIP3    H241136   6.220   4.274  16.908 -2.9020  3.2410  0.7251
 6549TIP3   OH241137   4.303   1.400   3.870 -0.0292 -0.3016  0.5224
 6549TIP3    H141138   4.235   1.429   3.931  0.7704  1.5709  0.5836
 6549TIP3    H241139   4.269   1.421   3.783 -0.9534 -2.5227  0.2633
 6550TIP3   OH241140   3.332   2.768  16.520  0.4107 -0.5459  1.1906
 6550TIP3    H141141   3.381   2.848  16.539  1.3942 -1.5282  2.9992
 6550TIP3    H241142   3.246   2.783  16.559  0.3490 -0.1042  0.8946
 6551TIP3   OH241143   4.532   2.545   4.589  0.0081 -0.0018  0.3621
 6551TIP3    H141144   4.562   2.454   4.594 -3.8045 -1.5039 -0.8933
 6551TIP3    H241145   4.488   2.560   4.673 -0.3318  0.3267  0.1249
 6552TIP3   OH241146   5.906   6.702  13.750  0.2573  0.0210  0.4075
 6552TIP3    H141147   5.863   6.788  13.749  1.5251  0.6730  0.8077
 6552TIP3    H241148   5.929   6.688  13.841 -0.9014 -1.2642  0.5297
 6553TIP3   OH241149   3.536   3.187  11.250  0.0172  0.8327  0.2603
 6553TIP3    H141150   3.575   3.153  11.169  0.4210  2.0720 -0.0766
 6553TIP3    H241151   3.441   3.186  11.233  0.1278  1.5483 -0.4152
 6554TIP3   OH241152   4.887   2.491   1.775  0.2647  0.2285 -0.3578
 6554TIP3    H141153   4.900   2.548   1.699  1.6571  0.0186 -0.3000
 6554TIP3    H241154   4.827   2.540   1.832  1.0278  1.4133 -0.5466
 6555TIP3   OH241155   6.694   6.306  17.119 -0.1074 -0.1042 -0.1022
 6555TIP3    H141156   6.782   6.267  17.110  0.7568  1.4600  1.0880
 6555TIP3    H241157   6.671   6.335  17.031  2.0447  2.3862  0.0411
 6556TIP3   OH241158   4.068   6.366   1.567 -0.2329 -0.3417 -0.6228
 6556TIP3    H141159   4.099   6.310   1.495  0.8172  0.6662 -0.9808
 6556TIP3    H241160   4.124   6.443   1.563 -2.6334  1.4587 -1.0925
 6557TIP3   OH241161   2.555   3.907   5.783  0.4972  0.3921  0.1305
 6557TIP3    H141162   2.530   3.968   5.713  0.1415  1.4617  1.1640
 6557TIP3    H241163   2.475   3.861   5.805  0.3641  0.8306  0.5721
 6558TIP3   OH241164   5.628   3.420  15.813 -0.5436 -1.0088  0.1664
 6558TIP3    H141165   5.555   3.363  15.839 -1.0872  0.0107  0.9561
 6558TIP3    H241166   5.679   3.432  15.893 -1.8073  1.5521  0.7037
 6559TIP3   OH241167   1.589   3.840  11.172  0.2922 -1.0224 -0.8645
 6559TIP3    H141168   1.673   3.878  11.145 -0.8508  2.1968 -0.3833
 6559TIP3    H241169   1.537   3.836  11.092  0.0935 -0.5456 -0.7685
 6560TIP3   OH241170   1.757   4.123   5.823 -0.3904 -0.1689  0.2242
 6560TIP3    H141171   1.716   4.139   5.738 -0.4738  1.4130  0.5310
 6560TIP3    H241172   1.720   4.040   5.853 -0.4167 -0.7138 -1.2334
 6561TIP3   OH241173   3.500   3.206  11.923 -0.4648  0.4330  0.3132
 6561TIP3    H141174   3.504   3.111  11.910  0.0308  0.3111  1.2289
 6561TIP3    H241175   3.564   3.241  11.861 -0.9697  0.2193 -0.3464
 6562TIP3   OH241176   0.344   0.703  14.167  0.4461 -0.6442 -0.0667
 6562TIP3    H141177   0.284   0.711  14.241  0.3002  0.3528 -0.2848
 6562TIP3    H241178   0.290   0.722  14.090  1.1685  0.8667 -0.2215
 6563TIP3   OH241179   5.512   1.049   4.928  0.5473 -0.3560 -0.4677
 6563TIP3    H141180   5.443   1.054   4.993  1.4414  0.3132  0.4645
 6563TIP3    H241181   5.568   0.977   4.958  0.9403 -0.0748 -0.5137
 6564TIP3   OH241182   6.183   3.792  16.764 -0.1812 -0.4859  0.1776
 6564TIP3    H141183   6.251   3.827  16.705 -0.2666  0.2312  0.4968
 6564TIP3    H241184   6.226   3.785  16.849 -0.4113 -0.3406  0.3070
 6565TIP3   OH241185   0.660   5.213   0.078 -0.1672 -0.1654  0.7631
 6565TIP3    H141186   0.754   5.204   0.091 -0.0513  1.0540  0.9625
 6565TIP3    H241187   0.621   5.177   0.158  0.2073  0.4998  1.2619
 6566TIP3   OH241188   0.857   4.231  15.697  0.0459  0.5996 -0.2572
 6566TIP3    H141189   0.943   4.264  15.723  0.2343 -0.4237  0.4545
 6566TIP3    H241190   0.822   4.190  15.776  0.7901 -2.9775 -1.6338
 6567TIP3   OH241191   1.093   6.674   2.591 -0.0652 -0.3692 -0.1076
 6567TIP3    H141192   1.054   6.760   2.606 -0.2678 -0.1598 -1.7312
 6567TIP3    H241193   1.178   6.679   2.636  1.0194  1.5903 -2.1900
 6568TIP3   OH241194   1.101   6.284  17.172  0.7823  0.0166 -0.2712
 6568TIP3    H141195   1.122   6.377  17.184 -0.6714  0.6713 -2.2889
 6568TIP3    H241196   1.074   6.277  17.080  0.1088 -2.2742  0.0355
 6569TIP3   OH241197   3.272   3.883  12.338  0.5347 -0.4025 -0.1658
 6569TIP3    H141198   3.313   3.822  12.399  0.1137  0.0851  0.6125
 6569TIP3    H241199   3.302   3.854  12.252  0.0484 -1.9464  0.1514
 6570TIP3   OH241200   2.862   2.958  15.996  0.0108 -0.2734 -0.8186
 6570TIP3    H141201   2.798   2.970  15.925 -0.6249  0.9124 -0.0807
 6570TIP3    H241202   2.809   2.947  16.075  0.5573  3.5701  0.2954
 6571TIP3   OH241203   6.349   2.282  16.539  0.5989  0.2184  0.0385
 6571TIP3    H141204   6.284   2.308  16.605  1.1137  0.9577  0.2710
 6571TIP3    H241205   6.305   2.294  16.455  0.5359  1.0502  0.1811
 6572TIP3   OH241206   2.916   0.221  13.290 -0.0180  0.0066 -0.0874
 6572TIP3    H141207   2.988   0.255  13.238 -0.5471  0.4937 -0.5218
 6572TIP3    H241208   2.922   0.125  13.281  3.1129 -0.3317  3.3164
 6573TIP3   OH241209   4.767   5.219  15.720 -0.3518  0.2927 -0.0114
 6573TIP3    H141210   4.772   5.187  15.810  0.3629 -0.0604 -0.1668
 6573TIP3    H241211   4.849   5.266  15.707 -0.5981  0.6245 -0.3715
 6574TIP3   OH241212   0.788   5.030   4.728 -0.1570 -0.5180 -0.1312
 6574TIP3    H141213   0.845   4.965   4.687  0.0099 -1.3009  1.2739
 6574TIP3    H241214   0.801   5.109   4.676  2.5908 -0.5307  0.3762
 6575TIP3   OH241215   1.286   1.132   4.746  0.9309  0.6910 -0.2773
 6575TIP3    H141216   1.329   1.071   4.807  1.2362  1.8008  0.6644
 6575TIP3    H241217   1.341   1.129   4.667  0.3805 -0.9710 -0.6468
 6576TIP3   OH241218   1.785   4.261  11.854  0.4485  0.1160 -0.3576
 6576TIP3    H141219   1.717   4.266  11.786  1.1448 -0.1892 -1.0864
 6576TIP3    H241220   1.736   4.246  11.935 -0.3801  0.2502 -0.8164
 6577TIP3   OH241221   5.360   3.652  15.334 -0.2673  0.3295 -0.7715
 6577TIP3    H141222   5.301   3.700  15.276 -0.2318  1.1301 -0.1586
 6577TIP3    H241223   5.306   3.629  15.410 -0.1575 -0.1876 -0.8471
 6578TIP3   OH241224   4.932   1.580  14.941  0.6392  0.1219 -0.0349
 6578TIP3    H141225   4.922   1.657  14.996 -0.5121 -0.1622  0.1728
 6578TIP3    H241226   4.843   1.554  14.919  0.9521 -1.8166  0.8211
 6579TIP3   OH241227   5.239   2.606   6.276  0.0698 -0.0331  0.2007
 6579TIP3    H141228   5.262   2.663   6.350  1.8469 -1.0464  0.5024
 6579TIP3    H241229   5.146   2.587   6.289 -0.5263  2.4886  0.2490
 6580TIP3   OH241230   0.681   4.606   5.624  0.1054 -0.4697 -0.1633
 6580TIP3    H141231   0.737   4.668   5.579 -0.1470  1.7486  2.2898
 6580TIP3    H241232   0.740   4.552   5.676  0.1591  1.6012  2.1074
 6581TIP3   OH241233   1.990   2.786  14.951  0.0079  0.1477 -0.0250
 6581TIP3    H141234   1.908   2.741  14.969  0.2110  0.4841  2.0678
 6581TIP3    H241235   1.993   2.794  14.856 -2.3850  0.1560 -0.1653
 6582TIP3   OH241236   1.306   6.242   5.709 -0.9085  0.1049 -0.5526
 6582TIP3    H141237   1.211   6.255   5.715 -0.7844  0.5599  0.7734
 6582TIP3    H241238   1.342   6.292   5.782  0.0980 -2.7775  1.0925
 6583TIP3   OH241239   4.686   3.832  14.789 -0.1898  0.6913 -0.5138
 6583TIP3    H141240   4.632   3.892  14.737 -0.7642 -0.7398 -1.6309
 6583TIP3    H241241   4.695   3.754  14.735 -0.2919 -0.6342  1.2694
 6584TIP3   OH241242   2.935   5.299   4.992 -0.4027 -0.0846 -0.1287
 6584TIP3    H141243   2.854   5.249   4.985 -1.3873  0.3149  4.7665
 6584TIP3    H241244   2.937   5.329   5.083  3.4049  3.2257 -1.0055
 6585TIP3   OH241245   6.583   6.590   3.325 -0.4016  0.1135 -0.0574
 6585TIP3    H141246   6.625   6.632   3.400  0.7583 -1.2662  0.1019
 6585TIP3    H241247   6.558   6.503   3.357  0.1948 -0.5330 -1.2736
 6586TIP3   OH241248   4.371   5.345   2.734 -0.3419 -0.1120  0.5124
 6586TIP3    H141249   4.392   5.384   2.649 -0.3250 -0.5038  0.3337
 6586TIP3    H241250   4.387   5.415   2.798  0.1222  0.0298  0.2409
 6587TIP3   OH241251   4.063   0.219   1.879 -0.4120  0.4098  0.0316
 6587TIP3    H141252   4.026   0.155   1.818 -0.7228  0.4431  0.1832
 6587TIP3    H241253   4.136   0.172   1.921 -1.1533 -0.1377  0.7444
 6588TIP3   OH241254   3.685   3.360  10.516  0.4545 -0.5566 -0.0132
 6588TIP3    H141255   3.709   3.414  10.592  2.1450 -0.4945 -0.5549
 6588TIP3    H241256   3.699   3.418  10.441  0.5922 -1.2126 -0.4943
 6589TIP3   OH241257   4.322   5.197   2.973  0.3932  0.0713  0.7107
 6589TIP3    H141258   4.233   5.172   2.998 -0.2439  1.4129 -0.1143
 6589TIP3    H241259   4.311   5.252   2.896  2.1868 -2.4113 -1.4645
 6590TIP3   OH241260   0.580   0.274   0.569 -0.4426 -0.8065 -0.7134
 6590TIP3    H141261   0.674   0.271   0.547 -0.4399  0.2222 -0.8943
 6590TIP3    H241262   0.542   0.332   0.503 -1.2034 -1.1641 -0.6005
 6591TIP3   OH241263   6.593   4.660  16.169  0.3508 -0.3770 -0.1906
 6591TIP3    H141264   6.579   4.565  16.172 -0.5869 -0.3114 -1.4776
 6591TIP3    H241265   6.509   4.697  16.197  0.7304  0.0729  0.3581
 6592TIP3   OH241266   2.167   3.661  13.446  0.1390 -0.7133  0.0176
 6592TIP3    H141267   2.175   3.602  13.520 -0.5754 -0.8774 -0.0341
 6592TIP3    H241268   2.222   3.622  13.378  0.9769 -0.4413  0.5270
 6593TIP3   OH241269   2.810   1.819   6.720 -0.1335  0.2556 -0.5176
 6593TIP3    H141270   2.721   1.794   6.695 -0.4903 -0.6230  1.4082
 6593TIP3    H241271   2.866   1.776   6.656 -0.9727 -2.0197  0.1760
 6594TIP3   OH241272   5.537   5.253   1.501 -0.2323  0.1975 -0.0082
 6594TIP3    H141273   5.611   5.236   1.559 -0.5376  1.0643  0.6481
 6594TIP3    H241274   5.565   5.220   1.416  0.6065 -0.1787  0.4040
 6595TIP3   OH241275   4.969   4.664  16.067  0.2483  0.2738  0.3435
 6595TIP3    H141276   5.023   4.736  16.033  0.8557 -0.2253  0.2305
 6595TIP3    H241277   4.924   4.701  16.143  0.1435  0.9252 -0.0335
 6596TIP3   OH241278   2.884   1.828  14.809 -0.2814  0.0250 -0.4731
 6596TIP3    H141279   2.870   1.860  14.898  0.8916 -0.1868 -0.2077
 6596TIP3    H241280   2.919   1.740  14.820  1.2472  0.5323 -1.1075
 6597TIP3   OH241281   3.313   6.567   0.046 -0.5158 -0.3390  0.5585
 6597TIP3    H141282   3.311   6.524   0.132 -2.1953  1.7399  1.6694
 6597TIP3    H241283   3.295   6.497  -0.016 -1.6387 -1.5286  2.1304
 6598TIP3   OH241284   3.846   5.254   0.862  0.2322 -0.0469 -0.0640
 6598TIP3    H141285   3.786   5.196   0.816 -0.8179  0.5338  0.5491
 6598TIP3    H241286   3.868   5.209   0.943  0.3213 -0.0850 -0.1086
 6599TIP3   OH241287   5.535   1.777  16.382  0.2414  0.0840  0.3376
 6599TIP3    H141288   5.591   1.745  16.453  3.3389 -0.8373 -2.2322
 6599TIP3    H241289   5.490   1.698  16.350 -0.1923  0.2649  0.5005
 6600TIP3   OH241290   6.053   1.475  13.466  0.7442  0.4573  0.0264
 6600TIP3    H141291   6.112   1.400  13.473 -0.3929 -0.4782 -0.1055
 6600TIP3    H241292   6.110   1.549  13.444  1.7162 -0.6708 -1.4378
 6601TIP3   OH241293   5.668   0.370  12.498  0.2078 -0.8645  0.5708
 6601TIP3    H141294   5.593   0.430  12.499 -0.5123 -1.7270  0.3253
 6601TIP3    H241295   5.643   0.300  12.559 -0.5097 -2.6647 -1.6385
 6602TIP3   OH241296   0.837   0.846  13.704 -0.5719  0.7014 -0.3439
 6602TIP3    H141297   0.819   0.851  13.798  0.6467 -0.2719 -0.0210
 6602TIP3    H241298   0.851   0.936  13.677  2.0259  0.8102  1.0744
 6603TIP3   OH241299   0.295   4.576  16.466 -0.3072 -0.4330  0.1633
 6603TIP3    H141300   0.213   4.528  16.481 -0.5056  0.2335  1.3933
 6603TIP3    H241301   0.267   4.666  16.451  0.2061 -0.0905  1.1479
 6604TIP3   OH241302   3.626   6.481   4.669  0.2314  0.2964 -0.5225
 6604TIP3    H141303   3.556   6.419   4.691  1.1826 -0.8411 -0.5595
 6604TIP3    H241304   3.666   6.503   4.753  0.5260  0.0781 -0.6043
 6605TIP3   OH241305   6.345   0.505  16.673  0.2836  1.0989  0.3774
 6605TIP3    H141306   6.263   0.550  16.654  0.1657  0.6361 -0.2346
 6605TIP3    H241307   6.322   0.440  16.739 -0.2412 -0.2230 -1.0406
 6606TIP3   OH241308   0.118   5.242   4.325  0.2034  0.5167  0.3415
 6606TIP3    H141309   0.047   5.230   4.263  1.3050  0.4210 -0.9469
 6606TIP3    H241310   0.082   5.214   4.409 -0.9512 -0.5045 -0.4688
 6607TIP3   OH241311   3.940   5.615  11.600  0.1999  0.2445  0.3730
 6607TIP3    H141312   3.942   5.707  11.628 -0.6910  0.4436 -0.1761
 6607TIP3    H241313   4.007   5.609  11.532  1.7885 -0.0453  1.8908
 6608TIP3   OH241314   2.806   0.075  15.773  0.1033  0.0826  0.1504
 6608TIP3    H141315   2.722   0.077  15.818  0.4201 -0.7988  0.7969
 6608TIP3    H241316   2.837   0.166  15.777 -0.1841  0.1427  1.1084
 6609TIP3   OH241317   3.027   4.842   4.219  0.2902 -0.1620  0.2208
 6609TIP3    H141318   2.985   4.766   4.179 -1.7304 -0.2676  2.2873
 6609TIP3    H241319   3.109   4.809   4.254  0.2179 -0.9878 -0.3648
 6610TIP3   OH241320   0.110   3.450   3.169 -0.0568 -0.2678 -0.3688
 6610TIP3    H141321   0.070   3.473   3.253 -0.1066  0.9345 -0.7098
 6610TIP3    H241322   0.203   3.444   3.188  0.0596  1.0925 -0.4404
 6611TIP3   OH241323   6.007   3.131  11.510 -0.1596 -0.0670  0.1446
 6611TIP3    H141324   5.995   3.220  11.542 -0.6654  0.1135 -0.5255
 6611TIP3    H241325   6.001   3.076  11.589  0.9592  0.5448  0.6679
 6612TIP3   OH241326   6.637   3.442  16.086  0.1588  0.3804 -0.2827
 6612TIP3    H141327   6.718   3.420  16.039  0.7484 -0.5989  1.1150
 6612TIP3    H241328   6.639   3.386  16.164 -2.7443 -0.9872 -1.0622
 6613TIP3   OH241329   0.060   2.007   0.652 -0.3051 -0.6475 -0.2758
 6613TIP3    H141330   0.121   1.949   0.606  0.1794 -1.7013  1.6158
 6613TIP3    H241331  -0.026   1.968   0.637 -0.0880 -1.3110  0.1627
 6614TIP3   OH241332   0.329   6.438  12.339  0.7139 -0.3968 -0.2221
 6614TIP3    H141333   0.415   6.403  12.364  0.8344 -0.4803 -0.7528
 6614TIP3    H241334   0.348   6.525  12.303  0.3278  0.6610  1.9627
 6615TIP3   OH241335   5.995   1.304   0.296 -0.5815  0.4384 -0.2774
 6615TIP3    H141336   5.978   1.377   0.355  0.5432  0.5916 -0.1104
 6615TIP3    H241337   5.990   1.343   0.208  1.6419  1.1426 -0.1550
 6616TIP3   OH241338   2.134   3.559  15.422  0.2453  0.3372 -1.2501
 6616TIP3    H141339   2.186   3.480  15.435  0.2083  0.5789  0.5984
 6616TIP3    H241340   2.111   3.588  15.510  0.8240  2.8019 -1.8367
 6617TIP3   OH241341   4.709   5.431   3.374  0.3163  0.2136  0.2569
 6617TIP3    H141342   4.742   5.352   3.333  0.3776  0.2968  0.1458
 6617TIP3    H241343   4.645   5.466   3.311  0.2972  0.2578  0.3003
 6618TIP3   OH241344   4.345   4.019   2.652 -0.0796  0.1636  0.2588
 6618TIP3    H141345   4.263   4.058   2.623 -0.7763 -0.5760  1.1798
 6618TIP3    H241346   4.336   3.925   2.633  0.2752 -0.0232  0.9484
 6619TIP3   OH241347   2.685   1.379   2.010 -0.5009 -0.6203 -0.1797
 6619TIP3    H141348   2.755   1.382   2.075 -1.2808 -0.9383  0.6989
 6619TIP3    H241349   2.655   1.288   2.010  0.4507 -0.9903 -2.0729
 6620TIP3   OH241350   0.152   2.356  13.512  0.2297 -0.1678 -0.6216
 6620TIP3    H141351   0.142   2.381  13.603  0.6346  1.0396 -0.8928
 6620TIP3    H241352   0.098   2.277  13.503  0.6162 -0.6190  0.7712
 6621TIP3   OH241353   0.743   3.472  15.679  0.3592  0.1794 -0.4987
 6621TIP3    H141354   0.661   3.521  15.683  0.8576  0.9763  0.5020
 6621TIP3    H241355   0.760   3.462  15.585 -1.4067 -0.9553 -0.7375
 6622TIP3   OH241356   1.635   3.831   0.754  0.0883  0.0580 -0.3534
 6622TIP3    H141357   1.571   3.774   0.798  1.5856 -0.5072  1.2325
 6622TIP3    H241358   1.599   3.844   0.667 -1.3679 -1.6000 -0.0685
 6623TIP3   OH241359   4.644   0.101  16.321  0.5418 -0.7510 -0.2347
 6623TIP3    H141360   4.571   0.040  16.334  0.1229 -0.3093 -0.4801
 6623TIP3    H241361   4.721   0.052  16.349  0.2358 -1.4620 -0.6029
 6624TIP3   OH241362   0.997   3.060  11.614 -0.8130  0.2518  0.0456
 6624TIP3    H141363   1.051   2.982  11.605 -2.2907 -0.6786 -1.1319
 6624TIP3    H241364   0.968   3.059  11.705  0.1688  0.1239  0.3668
 6625TIP3   OH241365   3.884   2.095  12.832  0.0576 -0.9338 -0.2546
 6625TIP3    H141366   3.808   2.150  12.817 -0.0631 -0.7843  0.8267
 6625TIP3    H241367   3.955   2.140  12.785 -0.0616  0.0974  0.5026
 6626TIP3   OH241368   5.545   6.323   5.378 -0.0568  0.4010  0.0248
 6626TIP3    H141369   5.621   6.284   5.335 -1.5570 -0.1698 -2.2928
 6626TIP3    H241370   5.572   6.413   5.398  0.6708  0.8365 -2.5359
 6627TIP3   OH241371   5.167   3.788  12.529 -0.2479 -0.0078 -0.1390
 6627TIP3    H141372   5.082   3.809  12.492 -0.8110 -0.1426  1.0186
 6627TIP3    H241373   5.152   3.709  12.582  0.6664 -0.2382 -0.1965
 6628TIP3   OH241374   0.232   4.633   0.066  0.2914 -0.2100  0.1268
 6628TIP3    H141375   0.262   4.679   0.145 -0.7652  0.4303  0.1798
 6628TIP3    H241376   0.139   4.618   0.081  0.4999 -1.9019 -0.1461
 6629TIP3   OH241377   0.852   5.236   1.061  0.5565  0.5885  0.5154
 6629TIP3    H141378   0.811   5.303   1.116  0.4426  0.2357  0.8603
 6629TIP3    H241379   0.942   5.267   1.050  0.4040  0.9905  0.3615
 6630TIP3   OH241380   4.551   0.380  16.174 -0.4198 -0.6230 -0.7523
 6630TIP3    H141381   4.500   0.300  16.176  1.0197 -1.5851 -0.8481
 6630TIP3    H241382   4.566   0.397  16.081 -0.4234 -0.4409 -0.7191
 6631TIP3   OH241383   4.473   4.098  11.955 -0.2543 -0.5326 -0.4449
 6631TIP3    H141384   4.533   4.023  11.954  1.4346  0.7482 -0.1254
 6631TIP3    H241385   4.480   4.134  12.043 -0.9801  0.0434 -0.6081
 6632TIP3   OH241386   6.404   0.584  11.469  0.5365  0.0619 -0.6555
 6632TIP3    H141387   6.338   0.651  11.450 -0.8781 -1.2425 -0.5735
 6632TIP3    H241388   6.461   0.624  11.533 -0.4327  1.1096 -0.4178
 6633TIP3   OH241389   4.604   3.878   1.552 -0.2774 -0.4757 -0.2756
 6633TIP3    H141390   4.596   3.784   1.536 -0.8619 -0.4068 -0.4127
 6633TIP3    H241391   4.653   3.911   1.477 -0.4045 -0.6132 -0.4189
 6634TIP3   OH241392   5.162   4.028  14.764  0.4600 -0.5650 -0.2724
 6634TIP3    H141393   5.147   4.117  14.797  0.2704 -0.7764  0.2215
 6634TIP3    H241394   5.141   4.033  14.671  0.2827 -0.1330 -0.2112
 6635TIP3   OH241395   6.794   0.205  16.305 -0.1807  0.2789 -0.0616
 6635TIP3    H141396   6.843   0.134  16.345  0.0205  0.4608  0.0099
 6635TIP3    H241397   6.791   0.182  16.212  0.1923  0.3601 -0.0939
 6636TIP3   OH241398   2.379   5.020  15.613 -0.0388 -0.7051 -0.3184
 6636TIP3    H141399   2.349   4.948  15.668  2.2581 -2.7761 -1.6112
 6636TIP3    H241400   2.360   5.099  15.665 -0.8551 -2.3166  1.9948
 6637TIP3   OH241401   1.160   5.466   1.613 -0.0493 -0.2842 -0.4254
 6637TIP3    H141402   1.136   5.522   1.687 -0.1305  1.2232 -1.5568
 6637TIP3    H241403   1.175   5.380   1.652  1.8664  0.8907  1.6609
 6638TIP3   OH241404   2.112   1.752   6.375  0.5299  0.2552  0.1408
 6638TIP3    H141405   2.076   1.784   6.292 -0.0217 -0.2182  0.1906
 6638TIP3    H241406   2.110   1.657   6.366  0.9917  0.2102  0.4826
 6639TIP3   OH241407   4.559   3.611  12.703 -0.0658 -0.1865 -0.2477
 6639TIP3    H141408   4.578   3.529  12.749 -1.5283 -0.8367 -0.7477
 6639TIP3    H241409   4.645   3.651  12.689  0.8265 -2.2900 -1.1933
 6640TIP3   OH241410   0.003   2.684   2.104 -0.0606 -0.5484  0.6062
 6640TIP3    H141411   0.006   2.663   2.011 -0.0706  2.2147 -0.0982
 6640TIP3    H241412   0.075   2.634   2.142  0.6267 -0.8978 -1.0673
 6641TIP3   OH241413   2.616   1.491  12.726 -0.2421 -0.0840  0.2617
 6641TIP3    H141414   2.604   1.399  12.749 -1.0230 -0.2458 -0.7603
 6641TIP3    H241415   2.565   1.503  12.646  0.0991  1.1654  0.2153
 6642TIP3   OH241416   0.154   2.295   0.030 -0.3030 -0.2113 -0.4567
 6642TIP3    H141417   0.120   2.343   0.106 -2.6745  0.0686 -1.5928
 6642TIP3    H241418   0.175   2.364  -0.033  0.9175 -0.4800 -0.3545
 6643TIP3   OH241419   1.699   6.809   0.172 -0.4682 -0.1119 -0.0772
 6643TIP3    H141420   1.685   6.883   0.114 -1.1273  0.8425  1.2490
 6643TIP3    H241421   1.765   6.838   0.234 -0.1154 -0.9434 -0.0411
 6644TIP3   OH241422   6.048   0.116   2.251 -0.0106  0.5478 -0.2319
 6644TIP3    H141423   6.023   0.030   2.285 -0.0556  0.4179 -0.5806
 6644TIP3    H241424   6.087   0.097   2.165  0.8315  0.7967  0.0909
 6645TIP3   OH241425   5.433   2.070  16.994 -0.1811 -0.0925 -0.2170
 6645TIP3    H141426   5.420   2.028  17.079 -0.5528  1.6880  0.6563
 6645TIP3    H241427   5.502   2.134  17.009 -0.8256  0.8336 -1.0241
 6646TIP3   OH241428   4.431   2.403  15.923 -0.0905 -0.2340 -0.0417
 6646TIP3    H141429   4.438   2.398  15.828 -0.9314 -1.7921 -0.0555
 6646TIP3    H241430   4.522   2.410  15.953  0.1072  1.6795 -0.9899
 6647TIP3   OH241431   3.528   1.398  13.668 -0.4487  0.0043 -0.3299
 6647TIP3    H141432   3.511   1.361  13.582  1.8498  1.0605 -1.3286
 6647TIP3    H241433   3.494   1.487  13.664  0.4390  0.3476 -0.4817
 6648TIP3   OH241434   3.985   6.055  12.397 -0.0234 -0.7600 -0.1145
 6648TIP3    H141435   4.022   6.049  12.485 -1.7709 -2.6046  0.5774
 6648TIP3    H241436   4.031   5.989  12.346 -1.1860 -1.9682  0.3347
 6649TIP3   OH241437   1.193   1.403   4.916  0.4416 -0.0956  0.4485
 6649TIP3    H141438   1.132   1.378   4.986  2.1069 -2.2065  1.2456
 6649TIP3    H241439   1.173   1.345   4.844 -0.8585  1.6757 -0.6994
 6650TIP3   OH241440   5.222   3.688  16.940 -0.3959  0.2312 -0.1049
 6650TIP3    H141441   5.287   3.750  16.974 -1.0836  0.4378  0.8762
 6650TIP3    H241442   5.216   3.708  16.847  0.4112  0.6977 -0.0670
 6651TIP3   OH241443   3.512   3.749  16.658 -0.2981 -0.2944 -0.4703
 6651TIP3    H141444   3.558   3.682  16.606  0.0579  0.1172 -0.6967
 6651TIP3    H241445   3.438   3.703  16.697  1.1763 -1.3940  1.2017
 6652TIP3   OH241446   5.443   0.839   0.845 -0.1296  0.1099 -0.6589
 6652TIP3    H141447   5.376   0.907   0.843  1.0246  1.3840  1.3380
 6652TIP3    H241448   5.467   0.830   0.937  0.3905 -2.4107 -0.9519
 6653TIP3   OH241449   6.304   2.479  12.594 -0.6372  0.1965  0.3536
 6653TIP3    H141450   6.393   2.464  12.561 -0.2348  2.0497  0.4960
 6653TIP3    H241451   6.291   2.410  12.659 -0.4098 -1.8596 -1.6448
 6654TIP3   OH241452   5.238   0.774   2.903  0.1889  0.2322  0.0416
 6654TIP3    H141453   5.294   0.747   2.976  0.3841 -3.0670 -1.1351
 6654TIP3    H241454   5.292   0.834   2.852  1.1648  0.2180  1.0236
 6655TIP3   OH241455   4.230   6.722  11.051 -0.5745 -0.8683  0.3858
 6655TIP3    H141456   4.284   6.726  11.131  0.7064  0.7802 -0.4943
 6655TIP3    H241457   4.293   6.710  10.980 -1.4490  0.1219 -0.5928
 6656TIP3   OH241458   5.048   2.321  15.278  0.2001 -0.4025 -0.4626
 6656TIP3    H141459   5.008   2.398  15.238  0.3692  0.2521  0.5723
 6656TIP3    H241460   5.010   2.318  15.366  0.4578 -1.3027 -0.3770
 6657TIP3   OH241461   3.094   1.584  14.785 -0.0086 -0.6632  0.0882
 6657TIP3    H141462   3.183   1.561  14.756  0.1606  0.4434 -0.3341
 6657TIP3    H241463   3.036   1.536  14.726  0.3382  0.5312 -1.2974
 6658TIP3   OH241464   2.170   4.024  11.438  0.4108 -0.1127 -0.1942
 6658TIP3    H141465   2.143   3.987  11.353  0.4335 -0.6189  0.0152
 6658TIP3    H241466   2.187   3.947  11.493  1.6523  0.2032 -0.1216
 6659TIP3   OH241467   2.890   2.741   1.596  0.0803  0.4171 -0.6229
 6659TIP3    H141468   2.815   2.800   1.597  1.4584  2.2209  0.3992
 6659TIP3    H241469   2.945   2.772   1.524  1.2573  1.0369  0.4919
 6660TIP3   OH241470   1.530   2.650  11.222 -0.1664 -0.1512 -0.3274
 6660TIP3    H141471   1.540   2.662  11.316 -0.1256  0.7328 -0.4364
 6660TIP3    H241472   1.614   2.679  11.185 -0.6472  0.7872 -0.7245
 6661TIP3   OH241473   4.396   3.193  14.146 -0.6121  0.1426  0.3470
 6661TIP3    H141474   4.479   3.172  14.188 -0.1066  1.8752  0.2836
 6661TIP3    H241475   4.354   3.108  14.132  1.3029 -0.7991  0.0397
 6662TIP3   OH241476   6.678   4.816  13.505  0.1234  0.0002 -0.0818
 6662TIP3    H141477   6.731   4.808  13.584  1.4752  0.3331 -0.9249
 6662TIP3    H241478   6.705   4.742  13.450 -1.2361 -0.5805 -0.0150
 6663TIP3   OH241479   0.131   6.512   1.105  0.1386 -0.6883  0.2629
 6663TIP3    H141480   0.180   6.469   1.175  0.0679 -1.1214  0.0516
 6663TIP3    H241481   0.146   6.456   1.028 -1.3014 -1.2573  0.3643
 6664TIP3   OH241482   6.077   2.355  12.355 -0.0977 -0.1393  0.2147
 6664TIP3    H141483   6.009   2.318  12.298  1.5735  1.5408 -3.2306
 6664TIP3    H241484   6.078   2.448  12.333  1.5706  0.3609  2.1072
 6665TIP3   OH241485   6.086   3.802   6.193 -0.4780  0.3272 -0.2406
 6665TIP3    H141486   6.042   3.830   6.273 -0.1600  0.2108 -0.0240
 6665TIP3    H241487   6.047   3.717   6.173 -0.3091  0.1995 -0.0193
 6666TIP3   OH241488   0.607   0.871  17.055 -0.0555  0.5429  0.0001
 6666TIP3    H141489   0.696   0.902  17.071  0.2160 -0.3552  0.3275
 6666TIP3    H241490   0.589   0.813  17.130 -0.2080 -0.7195 -0.9840
 6667TIP3   OH241491   6.417   6.323   4.142 -0.1471 -0.4103  0.0456
 6667TIP3    H141492   6.397   6.389   4.075  1.0911 -0.0714 -0.0153
 6667TIP3    H241493   6.433   6.243   4.092 -2.2902 -0.9710  0.1562
 6668TIP3   OH241494   1.809   5.901   3.663 -0.1381  0.3088 -0.6078
 6668TIP3    H141495   1.727   5.876   3.705  1.3002 -1.4483  1.3526
 6668TIP3    H241496   1.843   5.973   3.716  1.2068 -1.2791  0.8368
 6669TIP3   OH241497   6.071   4.915  13.390  1.1252  0.0963  0.1958
 6669TIP3    H141498   6.046   4.840  13.444 -1.2065 -0.7985 -1.8725
 6669TIP3    H241499   6.025   4.989  13.429 -1.8647 -0.8249 -1.2569
 6670TIP3   OH241500   4.310   2.299  15.306  0.3734  0.0478  0.0888
 6670TIP3    H141501   4.342   2.324  15.220  0.0912 -0.5280 -0.1869
 6670TIP3    H241502   4.261   2.218  15.291 -1.1930  0.8963  0.5031
 6671TIP3   OH241503   3.979   1.091   1.090  0.0963 -0.1230 -0.1355
 6671TIP3    H141504   4.023   1.175   1.076 -1.9527  0.8934 -1.0080
 6671TIP3    H241505   3.997   1.041   1.010  0.1836  0.0500 -0.2253
 6672TIP3   OH241506   6.419   3.040   0.488 -0.0237  0.3211 -0.7200
 6672TIP3    H141507   6.411   2.966   0.428 -0.2863 -0.1279 -0.1454
 6672TIP3    H241508   6.380   3.114   0.441 -0.8121 -0.1692 -0.8655
 6673TIP3   OH241509   5.135   5.226   0.823  0.2078  0.3494 -0.7879
 6673TIP3    H141510   5.187   5.193   0.750  1.5509 -0.7092  0.5717
 6673TIP3    H241511   5.160   5.170   0.897 -1.9078  0.6743  0.2469
 6674TIP3   OH241512   2.446   0.498   3.555 -0.3677  0.0211  0.4486
 6674TIP3    H141513   2.359   0.495   3.593 -1.2184  1.6997 -1.2168
 6674TIP3    H241514   2.499   0.443   3.612 -1.8256  1.3247  3.2303
 6675TIP3   OH241515   4.198   4.253   2.520  0.3116 -0.0198 -0.2667
 6675TIP3    H141516   4.214   4.263   2.426 -2.0401  1.7136 -0.5543
 6675TIP3    H241517   4.114   4.208   2.526 -0.5433  1.6440  0.9360
 6676TIP3   OH241518   3.817   2.513  12.138 -0.3672 -0.3462 -0.3722
 6676TIP3    H141519   3.725   2.498  12.160 -0.0247 -0.5476  0.9813
 6676TIP3    H241520   3.865   2.492  12.218  0.6489  2.2016 -0.2409
 6677TIP3   OH241521   5.306   6.205   5.298  0.2769  0.0451 -0.0056
 6677TIP3    H141522   5.230   6.245   5.341 -0.2163 -0.1304 -0.6982
 6677TIP3    H241523   5.380   6.257   5.327  0.0772 -0.5628  1.7142
 6678TIP3   OH241524   3.886   3.886   6.250  0.6844 -0.4228 -0.6267
 6678TIP3    H141525   3.893   3.852   6.161 -1.4429  1.3299 -1.5770
 6678TIP3    H241526   3.812   3.839   6.288 -1.5200  2.0316 -1.5550
 6679TIP3   OH241527   4.781   1.281   0.724 -0.7610  0.5627  0.2093
 6679TIP3    H141528   4.859   1.336   0.738 -1.3792  1.7823 -0.9366
 6679TIP3    H241529   4.773   1.230   0.805  2.6618 -1.4767 -0.5042
 6680TIP3   OH241530   2.609   5.047  11.743  0.2878 -0.6293  0.4128
 6680TIP3    H141531   2.619   5.091  11.658  1.1084  1.0446  1.3317
 6680TIP3    H241532   2.699   5.029  11.771  0.1287  0.5092  1.7403
 6681TIP3   OH241533   2.954   2.444  13.037 -0.1209 -0.1270  0.8715
 6681TIP3    H141534   2.861   2.451  13.020 -0.4044 -1.6578  1.5915
 6681TIP3    H241535   2.974   2.350  13.027  1.2628  0.1152  1.0686
 6682TIP3   OH241536   3.626   3.403  16.204  0.3770  0.5626  0.0246
 6682TIP3    H141537   3.601   3.380  16.294 -0.2532  0.3137 -0.2060
 6682TIP3    H241538   3.664   3.322  16.169  0.6844  0.6788  0.0809
 6683TIP3   OH241539   0.157   0.840   0.566  0.3805  0.1659 -0.2654
 6683TIP3    H141540   0.135   0.747   0.561 -1.0188  0.4250  0.5816
 6683TIP3    H241541   0.116   0.878   0.488  0.2891  0.1916 -0.2050
 6684TIP3   OH241542   3.489   5.920   2.771 -0.4816 -0.6230 -0.2185
 6684TIP3    H141543   3.499   5.827   2.788 -0.9774 -0.4653  1.0652
 6684TIP3    H241544   3.441   5.953   2.847 -0.5318  0.6331 -0.7708
 6685TIP3   OH241545   0.949   2.696   4.389  0.5804 -0.3520 -0.1678
 6685TIP3    H141546   0.917   2.653   4.309 -0.0671  1.5798 -1.0191
 6685TIP3    H241547   1.012   2.634   4.426 -1.3269 -2.6467 -0.5003
 6686TIP3   OH241548   5.855   6.053  15.842 -0.1041 -0.0923  0.0384
 6686TIP3    H141549   5.870   5.971  15.796 -0.9821 -0.6444  0.7076
 6686TIP3    H241550   5.791   6.032  15.909  2.3974  0.2354  2.7450
 6687TIP3   OH241551   1.044   3.357  14.817  0.0970  0.3292  0.6137
 6687TIP3    H141552   0.948   3.364  14.824 -0.2978 -0.7195 -2.2529
 6687TIP3    H241553   1.062   3.375  14.724  3.0083  2.9821  1.5277
 6688TIP3   OH241554   0.819   2.020  14.369 -0.1239 -0.0365 -0.4622
 6688TIP3    H141555   0.911   2.017  14.395  0.4039  1.8962 -1.8102
 6688TIP3    H241556   0.771   2.038  14.450  0.6758 -0.9231  0.2307
 6689TIP3   OH241557   4.304   1.930  14.869 -0.1487  0.7575  0.6994
 6689TIP3    H141558   4.286   1.957  14.779 -1.9179  2.1066  1.3920
 6689TIP3    H241559   4.388   1.884  14.864 -1.1005 -0.9748 -1.9485
 6690TIP3   OH241560   1.963   5.468  11.837 -0.2272 -0.4439 -0.2331
 6690TIP3    H141561   2.007   5.513  11.764  1.1381 -1.3541 -0.0040
 6690TIP3    H241562   1.889   5.525  11.859  1.6764  1.9412  0.3564
 6691TIP3   OH241563   3.992   5.099  13.654  0.2376  0.0179 -0.9557
 6691TIP3    H141564   3.950   5.158  13.716  0.3181  0.6186 -1.4658
 6691TIP3    H241565   4.084   5.125  13.654  0.3771 -0.4513 -0.8028
 6692TIP3   OH241566   2.100   4.298  11.036 -0.4072 -1.1370  0.5167
 6692TIP3    H141567   2.032   4.360  11.062 -0.5559 -1.0187 -0.1188
 6692TIP3    H241568   2.181   4.350  11.040 -0.9038  0.3446 -3.6257
 6693TIP3   OH241569   4.409   1.724   0.513 -0.0544  0.0286 -0.2530
 6693TIP3    H141570   4.370   1.775   0.583 -0.6558 -0.9418  0.1403
 6693TIP3    H241571   4.496   1.700   0.545 -0.2287 -0.1942  0.0567
 6694TIP3   OH241572   2.692   2.799   0.307  0.0038  0.7167  0.3344
 6694TIP3    H141573   2.675   2.890   0.285  2.6715  1.3474  0.4698
 6694TIP3    H241574   2.685   2.752   0.225  1.7281  1.6365 -0.3915
 6695TIP3   OH241575   6.164   3.158  12.093 -0.5534  0.3633 -0.0968
 6695TIP3    H141576   6.148   3.080  12.039 -2.8335  0.7407 -0.0853
 6695TIP3    H241577   6.217   3.126  12.166 -2.7474 -1.6362  0.7800
 6696TIP3   OH241578   4.515   6.470  16.582 -0.0447  0.0825  0.5966
 6696TIP3    H141579   4.576   6.429  16.520  1.1139  1.4373  0.7984
 6696TIP3    H241580   4.569   6.533  16.630 -2.1042  3.4302 -1.1623
 6697TIP3   OH241581   5.627   6.745   0.806 -0.1946  0.2667  0.0164
 6697TIP3    H141582   5.629   6.812   0.875  1.1379 -0.4061  0.6694
 6697TIP3    H241583   5.565   6.679   0.838  0.2417  0.0706  0.4602
 6698TIP3   OH241584   5.942   6.807  15.033 -0.2093  0.4427  0.3844
 6698TIP3    H141585   5.980   6.869  15.096  0.1619  1.7569 -1.0774
 6698TIP3    H241586   6.015   6.784  14.976 -0.5828 -0.6128  0.3179
 6699TIP3   OH241587   6.682   0.414  16.870  0.4631 -0.0944 -0.1317
 6699TIP3    H141588   6.682   0.463  16.787 -1.3596  0.2579  0.0260
 6699TIP3    H241589   6.627   0.338  16.852  1.6012 -1.0148  0.2294
 6700TIP3   OH241590   5.550   6.364  14.688 -0.4028 -0.2482  0.1383
 6700TIP3    H141591   5.486   6.294  14.691 -0.2074 -0.4765 -0.8598
 6700TIP3    H241592   5.526   6.422  14.760 -2.2910  0.1615 -0.7749
 6701TIP3   OH241593   0.425   4.360   3.450 -0.4538  0.5331 -1.1943
 6701TIP3    H141594   0.435   4.338   3.357 -1.7255  1.0121 -1.4601
 6701TIP3    H241595   0.403   4.453   3.450  2.8635  1.4719 -0.2090
 6702TIP3   OH241596   3.116   1.012  13.820  0.0804  0.4725  0.0764
 6702TIP3    H141597   3.147   1.103  13.811  0.0767  0.3055 -1.9838
 6702TIP3    H241598   3.134   0.991  13.912 -0.4496  2.7366  0.7810
 6703TIP3   OH241599   2.318   6.707  13.470  0.5377 -0.5689 -0.1026
 6703TIP3    H141600   2.295   6.793  13.506  0.1783 -0.8910  0.4585
 6703TIP3    H241601   2.281   6.708  13.382  1.2805  0.1677 -0.4173
 6704TIP3   OH241602   0.421   2.533   2.014  0.0729 -0.1452 -0.4152
 6704TIP3    H141603   0.353   2.489   1.964  0.3763 -0.6560 -0.3832
 6704TIP3    H241604   0.451   2.604   1.957 -0.3867 -0.0028 -0.4837
 6705TIP3   OH241605   0.818   2.816   1.904  0.2062  0.7222  0.4225
 6705TIP3    H141606   0.845   2.792   1.992  0.6367 -1.3726 -0.2077
 6705TIP3    H241607   0.752   2.750   1.881  1.3696  0.1165 -1.4296
 6706TIP3   OH241608   5.134   6.652  13.628 -0.0734  0.0088  0.3944
 6706TIP3    H141609   5.224   6.632  13.654 -0.1466 -0.3033  0.4109
 6706TIP3    H241610   5.092   6.567  13.616 -0.4108  0.1495  0.5362
 6707TIP3   OH241611   1.903   2.011   1.739 -0.3140  0.1918  0.5365
 6707TIP3    H141612   1.965   2.025   1.668 -0.7630 -0.0950  0.0839
 6707TIP3    H241613   1.940   1.938   1.789 -0.5251 -0.3042 -0.0151
 6708TIP3   OH241614   1.933   2.427  11.512 -0.3472 -0.2337  0.2019
 6708TIP3    H141615   1.953   2.514  11.479  0.1969 -0.0377  1.0258
 6708TIP3    H241616   1.847   2.407  11.476 -1.1459  1.2587  1.1954
 6709TIP3   OH241617   3.868   4.609  12.513  0.3183  0.3571 -0.4447
 6709TIP3    H141618   3.790   4.555  12.522  1.2965 -0.8901  0.9172
 6709TIP3    H241619   3.881   4.648  12.599  2.3551 -1.1711  0.0299
 6710TIP3   OH241620   1.607   4.035   3.166  0.4386  0.0387  0.5078
 6710TIP3    H141621   1.632   4.019   3.257 -0.6651  0.0611  0.8313
 6710TIP3    H241622   1.521   4.077   3.172  0.9121  1.2271 -0.5042
 6711TIP3   OH241623   4.626   2.212   1.635  0.0125  0.4359  0.0576
 6711TIP3    H141624   4.613   2.306   1.632  0.5511  0.5206  0.2976
 6711TIP3    H241625   4.719   2.199   1.616 -0.3824 -0.1574 -1.7117
 6712TIP3   OH241626   2.780   6.091  14.940  0.4180 -0.7200 -0.6987
 6712TIP3    H141627   2.849   6.064  14.880  2.3136 -0.6073  1.2888
 6712TIP3    H241628   2.770   6.185  14.926  1.2846 -0.5805 -0.4703
 6713TIP3   OH241629   3.655   4.661   2.583 -0.8223 -0.3337  0.0457
 6713TIP3    H141630   3.586   4.598   2.563 -2.0401  0.1229  2.4504
 6713TIP3    H241631   3.718   4.612   2.636  1.1642 -0.9302 -2.6798
 6714TIP3   OH241632   3.842   3.475  15.767 -0.6091 -0.8539  0.0228
 6714TIP3    H141633   3.849   3.394  15.818  1.1948 -0.5494  0.3521
 6714TIP3    H241634   3.875   3.543  15.826  0.1919 -0.2767 -1.0585
 6715TIP3   OH241635   0.456   1.395  14.548 -0.3735  0.3560  0.0022
 6715TIP3    H141636   0.458   1.487  14.574  1.1036  0.2041  0.5280
 6715TIP3    H241637   0.394   1.354  14.609 -0.9718  0.9671 -0.1813
 6716TIP3   OH241638   2.446   5.876  16.380 -0.0684  0.1597  0.1233
 6716TIP3    H141639   2.498   5.874  16.300 -0.5717  0.2224 -0.2143
 6716TIP3    H241640   2.509   5.895  16.449  0.3473  0.2773 -0.2812
 6717TIP3   OH241641   0.081   1.990   3.540 -0.0939 -0.0655  0.5823
 6717TIP3    H141642   0.151   1.994   3.605 -0.6961  0.7640  1.2015
 6717TIP3    H241643   0.077   1.898   3.513  1.5497 -0.0393  0.1724
 6718TIP3   OH241644   1.583   2.192  10.411  0.1453 -0.2609 -0.0452
 6718TIP3    H141645   1.583   2.286  10.426  2.0482 -0.1373 -0.5307
 6718TIP3    H241646   1.637   2.181  10.332 -1.0464 -1.6616 -0.7005
 6719TIP3   OH241647   4.539   0.556  11.855  0.4881 -0.5124 -0.3018
 6719TIP3    H141648   4.546   0.646  11.887  1.7152 -0.3004 -1.1210
 6719TIP3    H241649   4.575   0.502  11.926  1.0019 -0.2379 -0.3477
 6720TIP3   OH241650   0.248   6.826   3.292 -0.6314  0.4292 -0.1139
 6720TIP3    H141651   0.206   6.889   3.351 -0.4923 -1.0474  1.6716
 6720TIP3    H241652   0.176   6.778   3.253 -0.7052 -0.1844  0.7405
 6721TIP3   OH241653   3.758   0.667   4.170  0.0320  0.1539  0.4203
 6721TIP3    H141654   3.745   0.578   4.136  0.0646  0.5802 -0.7475
 6721TIP3    H241655   3.670   0.696   4.196 -0.3048  0.4837 -1.0136
 6722TIP3   OH241656   2.675   4.244  12.145 -0.0719  0.0670  0.1854
 6722TIP3    H141657   2.755   4.214  12.187 -0.4104 -1.2618 -0.0743
 6722TIP3    H241658   2.704   4.309  12.081  0.8444 -0.7163 -0.2073
 6723TIP3   OH241659   1.464   2.063   2.586 -0.1105  0.5284  0.2628
 6723TIP3    H141660   1.462   1.968   2.597 -2.5659  0.5685  0.7910
 6723TIP3    H241661   1.498   2.096   2.669  1.7808  0.1115 -0.3115
 6724TIP3   OH241662   1.038   3.708  11.404 -0.4194 -0.1476 -0.5234
 6724TIP3    H141663   0.990   3.686  11.324  1.2563 -1.1863 -1.2993
 6724TIP3    H241664   1.021   3.636  11.463 -0.5826 -0.0382 -0.4357
 6725TIP3   OH241665   5.087   3.725   3.777  0.4139 -0.1832  0.3156
 6725TIP3    H141666   5.063   3.685   3.861  1.6210 -0.6912  0.4524
 6725TIP3    H241667   5.054   3.814   3.782 -0.8952 -0.6688  0.6915
 6726TIP3   OH241668   3.189   4.388  11.942  0.6242  0.0400 -0.9187
 6726TIP3    H141669   3.096   4.366  11.945  0.6795 -0.1157  1.7846
 6726TIP3    H241670   3.191   4.481  11.917 -0.4413  0.6740  1.1530
 6727TIP3   OH241671   2.759   4.918  11.426  0.4605  0.7176 -0.0837
 6727TIP3    H141672   2.681   4.934  11.374 -0.0840  0.9921  0.8086
 6727TIP3    H241673   2.773   4.998  11.475  0.3199  0.0782  1.0342
 6728TIP3   OH241674   3.171   4.507   1.668 -0.4455  0.2944  0.2887
 6728TIP3    H141675   3.260   4.516   1.702  0.0119 -0.2943 -0.7171
 6728TIP3    H241676   3.171   4.557   1.586 -1.4858  1.5606  1.0226
 6729TIP3   OH241677   6.488   3.451  13.979  0.9905 -0.7548 -0.2151
 6729TIP3    H141678   6.509   3.411  14.063  0.7709 -1.8567 -0.6685
 6729TIP3    H241679   6.474   3.544  13.999 -0.1356 -1.1878  1.1430
 6730TIP3   OH241680   3.554   3.379  13.995 -0.5739 -0.8113  0.1083
 6730TIP3    H141681   3.507   3.296  13.992 -3.4443  0.5137  2.5717
 6730TIP3    H241682   3.493   3.442  13.955  0.3220  0.5280  0.7912
 6731TIP3   OH241683   0.078   4.404  16.846  0.2115 -0.2410 -0.4012
 6731TIP3    H141684   0.016   4.429  16.914  0.7897  0.6181 -0.1736
 6731TIP3    H241685   0.160   4.386  16.894  0.6535  0.4804 -0.8534
 6732TIP3   OH241686   4.408   0.924   1.111 -0.0057 -0.1587  0.7991
 6732TIP3    H141687   4.438   0.978   1.038 -1.3680 -2.1003 -1.3436
 6732TIP3    H241688   4.322   0.960   1.133 -0.2814 -0.5446  0.3606
 6733TIP3   OH241689   3.240   1.131  15.414  0.0707 -0.3044 -0.6296
 6733TIP3    H141690   3.257   1.223  15.391  1.9314 -0.0967  1.2643
 6733TIP3    H241691   3.167   1.135  15.476 -0.6271 -0.2314 -1.4465
 6734TIP3   OH241692   2.179   1.731   0.944  0.1727  0.4108 -0.1272
 6734TIP3    H141693   2.196   1.671   0.872  1.9184 -0.8732  1.2667
 6734TIP3    H241694   2.264   1.770   0.964 -0.0990  0.1775  1.6965
 6735TIP3   OH241695   0.875   2.632  12.532 -0.4195  0.4621  0.1501
 6735TIP3    H141696   0.809   2.566  12.508  0.5862 -0.0538 -1.3200
 6735TIP3    H241697   0.854   2.708  12.477 -1.5245  1.4051  1.7800
 6736TIP3   OH241698   2.914   3.084  15.439  0.4618  0.0821 -0.1114
 6736TIP3    H141699   3.009   3.079  15.441  0.4609  0.0294 -0.2213
 6736TIP3    H241700   2.891   3.129  15.520  0.7443  2.9035 -1.4933
 6737TIP3   OH241701   5.487   1.186   5.990  0.1807  0.3964 -0.5165
 6737TIP3    H141702   5.517   1.126   5.921  1.8287  0.3755  0.1609
 6737TIP3    H241703   5.499   1.273   5.953  2.5077  0.4504  0.2035
 6738TIP3   OH241704   6.240   6.430   1.073 -0.3515 -0.2936 -0.7420
 6738TIP3    H141705   6.281   6.419   0.987  1.8074 -0.3956  0.2494
 6738TIP3    H241706   6.186   6.351   1.083  0.2162 -0.8138 -1.5631
 6739TIP3   OH241707   1.779   0.540   4.337  0.4961 -0.2728  0.3409
 6739TIP3    H141708   1.718   0.539   4.412  0.6760  0.7328  0.5091
 6739TIP3    H241709   1.751   0.615   4.285 -0.0454 -1.3532 -0.9762
 6740TIP3   OH241710   0.368   4.930   5.462  0.1383 -0.6927  0.5353
 6740TIP3    H141711   0.311   4.929   5.540  0.9019 -0.5019  1.1078
 6740TIP3    H241712   0.454   4.954   5.496  0.6340 -1.2858 -0.2756
 6741TIP3   OH241713   2.598   5.355   0.970  0.2152 -0.5011  0.1698
 6741TIP3    H141714   2.636   5.277   0.931 -0.6987 -0.9631  0.1716
 6741TIP3    H241715   2.528   5.380   0.910  1.7165  1.4848 -0.8757
 6742TIP3   OH241716   3.947   1.351  17.066  0.1308 -0.3966  0.1521
 6742TIP3    H141717   3.980   1.382  17.150 -0.4852  0.1502  0.1925
 6742TIP3    H241718   3.911   1.428  17.024 -2.0198 -1.1179  0.5294
 6743TIP3   OH241719   4.938   4.400   2.190 -0.2710  0.6134  0.0239
 6743TIP3    H141720   4.891   4.316   2.187 -1.2164  1.1464 -0.5832
 6743TIP3    H241721   4.885   4.455   2.248  1.7283  0.0199  2.5863
 6744TIP3   OH241722   5.928   6.310  14.836 -0.5078  0.6499 -0.1255
 6744TIP3    H141723   5.923   6.238  14.898 -2.3999  0.4282 -0.5006
 6744TIP3    H241724   6.010   6.355  14.858 -0.7540  0.1321  2.0187
 6745TIP3   OH241725   6.523   3.488  14.256  0.4773 -0.0936 -0.3573
 6745TIP3    H141726   6.460   3.542  14.303  0.4373 -2.1151  2.0982
 6745TIP3    H241727   6.603   3.541  14.255 -0.3748  1.2365 -0.7805
 6746TIP3   OH241728   1.871   0.003   2.653  0.1112 -0.2079  0.0656
 6746TIP3    H141729   1.781  -0.019   2.628  0.9155 -1.9134 -1.5973
 6746TIP3    H241730   1.915  -0.082   2.662  1.8042  0.5831 -0.2273
 6747TIP3   OH241731   0.319   0.738   1.389  0.2786  0.8384  0.4421
 6747TIP3    H141732   0.414   0.734   1.384  0.1995 -0.1430 -1.1510
 6747TIP3    H241733   0.292   0.647   1.406 -0.4313  0.4961 -2.0440
 6748TIP3   OH241734   4.418   0.956  11.323  0.1115 -0.2817 -0.0787
 6748TIP3    H141735   4.443   1.046  11.342  0.9513 -0.6092  0.4046
 6748TIP3    H241736   4.483   0.925  11.260  0.0408 -0.6604  0.0306
 6749TIP3   OH241737   6.148   2.077  13.815  0.0474 -0.3812 -0.2215
 6749TIP3    H141738   6.229   2.123  13.793 -0.0548 -0.1888 -0.1969
 6749TIP3    H241739   6.080   2.120  13.762 -0.1181 -0.2293  0.1055
 6750TIP3   OH241740   2.413   0.233   2.732 -0.0492 -0.0650 -0.4660
 6750TIP3    H141741   2.410   0.190   2.646 -0.2768  0.5793 -0.7810
 6750TIP3    H241742   2.455   0.317   2.716  0.5000 -0.2003  0.1771
 6751TIP3   OH241743   5.759   3.227  14.129  0.1154 -0.2099  0.3107
 6751TIP3    H141744   5.709   3.232  14.048  1.0290 -0.8734 -0.3052
 6751TIP3    H241745   5.762   3.134  14.150  0.6802 -0.1288  0.6037
 6752TIP3   OH241746   6.083   3.430   4.265 -0.3689  0.3193  0.2966
 6752TIP3    H141747   6.145   3.357   4.272 -1.2279 -0.4255  0.3063
 6752TIP3    H241748   6.002   3.390   4.234 -0.5297  1.4629 -0.8734
 6753TIP3   OH241749   1.048   4.542   1.644  0.2534  0.6157 -0.3482
 6753TIP3    H141750   0.980   4.524   1.579 -0.2630  0.1063  0.3255
 6753TIP3    H241751   1.122   4.487   1.618 -0.2787 -0.2859  0.0178
 6754TIP3   OH241752   0.294   1.122  13.644 -0.2887 -0.0603 -0.3215
 6754TIP3    H141753   0.315   1.178  13.719 -1.0360 -0.2655  0.0546
 6754TIP3    H241754   0.302   1.180  13.568  0.7293  0.0860 -0.1187
 6755TIP3   OH241755   4.545   0.130   6.439 -0.3020  0.1087 -0.2050
 6755TIP3    H141756   4.571   0.179   6.361 -1.3257  0.3748 -0.3987
 6755TIP3    H241757   4.449   0.125   6.434 -0.5325  1.3443  1.7349
 6756TIP3   OH241758   1.104   5.904   4.076 -0.0254 -0.3948 -0.2171
 6756TIP3    H141759   1.116   5.975   4.139  0.2435 -0.4546 -0.1988
 6756TIP3    H241760   1.052   5.943   4.005  1.2780  0.2299 -0.8749
 6757TIP3   OH241761   0.661   4.792   3.997 -0.3186  0.2904 -0.0204
 6757TIP3    H141762   0.717   4.718   3.974  0.9035  0.5206  2.0265
 6757TIP3    H241763   0.675   4.856   3.927 -0.5741 -0.9408 -1.2447
 6758TIP3   OH241764   0.946   6.017  13.362  0.1430 -0.4279  0.2084
 6758TIP3    H141765   0.937   5.999  13.456  0.4643  0.7209  0.4779
 6758TIP3    H241766   0.994   5.941  13.328  1.8389  0.0585  1.3691
 6759TIP3   OH241767   3.294   2.280   4.982 -0.1434 -0.3868 -0.0587
 6759TIP3    H141768   3.220   2.221   4.993  0.6512 -1.2584  0.7508
 6759TIP3    H241769   3.317   2.308   5.071  1.5797 -1.5079 -0.0999
 6760TIP3   OH241770   0.818   3.361  11.983  0.2585 -0.1168 -0.9401
 6760TIP3    H141771   0.751   3.428  11.975  1.6238  1.1672 -2.4328
 6760TIP3    H241772   0.891   3.405  12.028  0.4358 -1.2203 -0.1040
 6761TIP3   OH241773   5.951   5.082  15.669  0.1056 -0.3047 -0.0554
 6761TIP3    H141774   5.912   5.110  15.586 -1.8049 -1.3406  0.4490
 6761TIP3    H241775   6.016   5.016  15.643  0.9102  0.7570 -0.8359
 6762TIP3   OH241776   5.757   2.807   3.765 -0.3306  0.6831  0.9632
 6762TIP3    H141777   5.851   2.785   3.761 -0.3015  0.6486  1.7348
 6762TIP3    H241778   5.731   2.815   3.673  0.1374 -0.5598  0.6939
 6763TIP3   OH241779   1.547   1.620   1.708  0.6909  1.1493 -0.3796
 6763TIP3    H141780   1.627   1.599   1.756  0.6415  1.9980  0.0958
 6763TIP3    H241781   1.503   1.686   1.762  0.9727  2.6669 -1.9184
 6764TIP3   OH241782   2.730   3.177  12.787  0.4763 -0.4753  0.2312
 6764TIP3    H141783   2.768   3.255  12.827  2.0831 -2.8506  3.8597
 6764TIP3    H241784   2.799   3.142  12.730 -0.0515  0.3718 -0.9739
 6765TIP3   OH241785   5.194   3.884   6.925  0.2428 -0.1942  0.0151
 6765TIP3    H141786   5.190   3.814   6.859  0.1496 -1.2224  1.0813
 6765TIP3    H241787   5.218   3.962   6.875 -0.5807 -0.7799 -1.3606
 6766TIP3   OH241788   1.713   3.898  14.626  0.7932 -0.4120  0.8595
 6766TIP3    H141789   1.756   3.981  14.646  1.0150 -0.2735 -0.1262
 6766TIP3    H241790   1.726   3.886  14.532 -1.8836 -0.0271  0.3325
 6767TIP3   OH241791   6.805   1.320   3.329  0.3723  0.5414 -0.0413
 6767TIP3    H141792   6.726   1.336   3.278 -0.4127 -0.4276  0.8315
 6767TIP3    H241793   6.774   1.303   3.418  1.3709 -1.7090 -0.0394
 6768TIP3   OH241794   4.996   6.592   3.312  0.0769 -0.1220  0.3751
 6768TIP3    H141795   4.930   6.523   3.320 -0.5570  0.4536  0.1551
 6768TIP3    H241796   4.960   6.666   3.361 -1.0266  1.3479 -2.4395
 6769TIP3   OH241797   1.036   1.275  15.675  0.3662  0.4653 -0.2649
 6769TIP3    H141798   1.051   1.186  15.642 -0.1562  0.6798 -1.1079
 6769TIP3    H241799   1.117   1.322  15.654  0.4909  0.2908 -0.1772
 6770TIP3   OH241800   0.553   4.980  15.550 -0.3097 -0.0768  0.5204
 6770TIP3    H141801   0.548   4.946  15.461 -2.0128  0.4763  0.3770
 6770TIP3    H241802   0.558   5.075  15.539  0.4040 -0.0529  1.0062
 6771TIP3   OH241803   3.309   5.497   4.297  0.0037  0.4740 -0.1424
 6771TIP3    H141804   3.255   5.537   4.365 -0.8934 -1.1771  0.1676
 6771TIP3    H241805   3.309   5.404   4.318  1.2838  0.1735 -1.3332
 6772TIP3   OH241806   0.109   6.021  15.775  0.3207 -0.0752 -0.5747
 6772TIP3    H141807   0.124   6.112  15.752 -0.8424  0.4390  0.5767
 6772TIP3    H241808   0.149   6.010  15.861 -2.7703  0.4546  1.0603
 6773TIP3   OH241809   6.600   1.326   3.119 -0.1853  0.0268 -0.2092
 6773TIP3    H141810   6.580   1.326   3.025 -0.4161 -0.0966 -0.1612
 6773TIP3    H241811   6.617   1.234   3.140 -0.9024 -0.0558  0.0285
 6774TIP3   OH241812   5.829   1.734   1.174  0.3222 -0.6018 -0.0427
 6774TIP3    H141813   5.845   1.765   1.085 -1.5575  1.7012  0.3246
 6774TIP3    H241814   5.742   1.695   1.171  0.1406 -0.2748  0.8259
 6775TIP3   OH241815   6.588   5.615   2.594 -0.4647  1.0644 -0.4112
 6775TIP3    H141816   6.603   5.535   2.645 -0.5826  1.3966  0.1631
 6775TIP3    H241817   6.663   5.671   2.614 -1.2949  1.8357  0.6939
 6776TIP3   OH241818   6.333   4.486  11.972 -0.0813  0.0251  0.4125
 6776TIP3    H141819   6.241   4.491  11.947 -0.3568 -1.2391  1.0920
 6776TIP3    H241820   6.334   4.498  12.067  0.4098 -0.4293  0.4713
 6777TIP3   OH241821   2.370   5.787   2.349 -0.1176  0.9149  0.1299
 6777TIP3    H141822   2.380   5.791   2.444 -0.4089  0.2121  0.1947
 6777TIP3    H241823   2.447   5.833   2.315  0.7546 -0.0810  0.6888
 6778TIP3   OH241824   6.315   4.547  15.872 -0.5913 -0.3292 -0.7659
 6778TIP3    H141825   6.404   4.514  15.865  0.0392  1.2084 -0.4641
 6778TIP3    H241826   6.284   4.553  15.782 -0.1045 -0.1760 -0.9270
 6779TIP3   OH241827   6.814   2.201   1.096 -0.0719 -0.6231 -0.5827
 6779TIP3    H141828   6.849   2.135   1.036  0.0382  1.7669 -3.3258
 6779TIP3    H241829   6.825   2.284   1.050 -0.1574  1.3830  2.7265
 6780TIP3   OH241830   6.623   3.662   0.114  0.6559 -0.0768  0.0351
 6780TIP3    H141831   6.683   3.619   0.054  2.0862 -0.7723  1.8772
 6780TIP3    H241832   6.655   3.639   0.202 -0.7246  1.7358  1.0918
 6781TIP3   OH241833   0.727   2.167   3.266 -0.3422 -0.2044  0.2340
 6781TIP3    H141834   0.718   2.073   3.285  0.5599 -0.0772  1.4445
 6781TIP3    H241835   0.736   2.208   3.352  1.6771  0.7175 -0.3469
 6782TIP3   OH241836   4.738   0.577   5.614 -0.6272 -0.2211 -0.1224
 6782TIP3    H141837   4.717   0.616   5.529 -0.2534 -0.3697 -0.2856
 6782TIP3    H241838   4.654   0.546   5.647 -0.9574  0.8846  0.1023
 6783TIP3   OH241839   1.898   2.968   5.183 -0.0165 -0.6212  0.8249
 6783TIP3    H141840   1.852   2.885   5.189  0.2449 -0.8926 -0.4573
 6783TIP3    H241841   1.928   2.986   5.272 -2.1459 -0.6742  1.6030
 6784TIP3   OH241842   3.593   4.705  11.425  0.0089 -0.4770 -0.2312
 6784TIP3    H141843   3.553   4.704  11.338 -1.7021  0.6956  0.5071
 6784TIP3    H241844   3.623   4.615  11.438 -1.7070 -1.2388 -1.1655
 6785TIP3   OH241845   6.250   6.550  11.847  0.1920 -0.2809  0.1859
 6785TIP3    H141846   6.312   6.477  11.852  0.0726 -0.3206  1.3485
 6785TIP3    H241847   6.258   6.582  11.757  0.2721 -1.7026 -0.3347
 6786TIP3   OH241848   3.741   2.222   1.066  0.0633  0.0176  0.1516
 6786TIP3    H141849   3.724   2.189   0.978  1.4079 -1.2804  0.3415
 6786TIP3    H241850   3.701   2.158   1.124  0.6233 -0.0154  0.5057
 6787TIP3   OH241851   2.826   1.051  11.472 -0.4667  0.0305 -0.2024
 6787TIP3    H141852   2.745   1.028  11.517  0.1852 -1.1034  0.4405
 6787TIP3    H241853   2.892   0.994  11.511  0.8019  1.4855 -0.1571
 6788TIP3   OH241854   3.047   0.010  12.766  0.6630  0.0540 -0.4471
 6788TIP3    H141855   3.071   0.043  12.679 -0.9786  0.4686 -0.7855
 6788TIP3    H241856   3.014   0.087  12.812  2.2553 -0.0058  0.8551
 6789TIP3   OH241857   3.800   0.960   2.700  0.4637  0.3084  0.0027
 6789TIP3    H141858   3.749   1.032   2.738  0.6426  0.4727 -0.0639
 6789TIP3    H241859   3.780   0.885   2.755  0.9776  0.6204  0.6271
 6790TIP3   OH241860   3.851   2.018  16.501  0.1979 -0.1436 -0.3656
 6790TIP3    H141861   3.920   2.016  16.567 -1.2098  0.8098  1.2480
 6790TIP3    H241862   3.842   1.927  16.471  1.3330 -0.4707  0.2626
 6791TIP3   OH241863   0.772   3.813   0.319  0.4217 -0.1855 -0.1830
 6791TIP3    H141864   0.684   3.808   0.356  1.5026  1.9740  3.1001
 6791TIP3    H241865   0.760   3.862   0.237 -1.3180  1.4602  0.9580
 6792TIP3   OH241866   0.577   4.669  15.136  0.3282 -0.3158  0.3144
 6792TIP3    H141867   0.597   4.652  15.228  0.6395 -1.2005  0.0938
 6792TIP3    H241868   0.484   4.645  15.127  0.3498 -0.4167  0.3560
 6793TIP3   OH241869   4.739   2.025   0.652  0.3040  0.1741 -0.3245
 6793TIP3    H141870   4.787   2.106   0.635  0.2268  0.3003  0.0439
 6793TIP3    H241871   4.649   2.045   0.625  0.1172  0.4735  0.4841
 6794TIP3   OH241872   5.288   1.346  13.204  0.5076  0.5350 -0.3863
 6794TIP3    H141873   5.333   1.373  13.284  1.5114 -0.0830 -0.7332
 6794TIP3    H241874   5.333   1.393  13.134  1.4374 -0.9949 -0.8614
 6795TIP3   OH241875   5.090   4.010  13.668 -0.2880  1.0220 -0.0254
 6795TIP3    H141876   5.151   3.950  13.710 -0.6061 -0.5556 -1.6978
 6795TIP3    H241877   5.146   4.070  13.618  0.1464  3.4485  3.0932
 6796TIP3   OH241878   5.384   6.745   5.059 -0.2438  0.9768 -0.0601
 6796TIP3    H141879   5.390   6.650   5.064 -0.4628  0.9838  0.3853
 6796TIP3    H241880   5.411   6.776   5.145 -1.6680  1.2308  0.3313
 6797TIP3   OH241881   1.673   1.227   4.106  0.2751 -0.1403  0.1697
 6797TIP3    H141882   1.709   1.185   4.028 -0.5033  0.1915 -0.3743
 6797TIP3    H241883   1.703   1.171   4.178 -0.8219 -1.7200 -0.5444
 6798TIP3   OH241884   6.547   3.103  10.380  0.3460 -0.2463  0.7201
 6798TIP3    H141885   6.565   3.013  10.409  1.1070 -0.2570  0.2553
 6798TIP3    H241886   6.608   3.157  10.432  0.1258 -0.0326  0.7589
 6799TIP3   OH241887   6.451   3.463  10.538  0.2703 -0.2977  0.2633
 6799TIP3    H141888   6.427   3.374  10.511 -2.1676 -0.0312  1.2968
 6799TIP3    H241889   6.368   3.505  10.558  1.5311  1.2782  2.6427
 6800TIP3   OH241890   3.194   2.420   0.272  0.3944 -0.2038 -0.2585
 6800TIP3    H141891   3.184   2.331   0.308 -0.4777  0.4785  1.3024
 6800TIP3    H241892   3.104   2.446   0.249  0.8679 -0.4720 -2.7543
 6801TIP3   OH241893   1.014   6.213  11.298  0.0496 -0.4063  0.7881
 6801TIP3    H141894   1.003   6.267  11.376  0.5608 -0.9970  1.2757
 6801TIP3    H241895   0.949   6.247  11.236  0.9694  1.3638  0.7407
 6802TIP3   OH241896   0.416   2.404   2.921  0.0668  0.1475 -0.4259
 6802TIP3    H141897   0.484   2.365   2.865 -0.0692  0.3328 -0.7268
 6802TIP3    H241898   0.454   2.486   2.951  0.4041 -0.2682  0.3141
 6803TIP3   OH241899   5.279   5.445   0.975 -0.4749  0.1859 -0.5303
 6803TIP3    H141900   5.214   5.405   1.032 -0.3842  0.1922 -0.4209
 6803TIP3    H241901   5.320   5.371   0.930 -2.6215  0.3005 -2.9159
 6804TIP3   OH241902   0.135   2.244  16.155 -0.9077 -0.1545  0.1882
 6804TIP3    H141903   0.220   2.260  16.195 -1.4363 -0.1742  1.3668
 6804TIP3    H241904   0.118   2.151  16.169 -1.3556 -0.0400  0.4337
 6805TIP3   OH241905   5.957   5.042   6.963  0.0718 -0.5591 -0.2241
 6805TIP3    H141906   5.889   5.106   6.982 -0.9224 -1.5846 -0.2593
 6805TIP3    H241907   5.958   4.984   7.039  2.9001  1.0509  1.1436
 6806TIP3   OH241908   4.252   0.606   1.503 -0.1043 -0.2971 -0.0841
 6806TIP3    H141909   4.276   0.604   1.596 -1.5258  2.7384  0.4850
 6806TIP3    H241910   4.313   0.669   1.465 -1.6267  1.0800 -0.3907
 6807TIP3   OH241911   0.361   2.862   1.112 -0.5786 -0.4785 -0.0165
 6807TIP3    H141912   0.451   2.849   1.081 -0.8728  1.6776 -1.9509
 6807TIP3    H241913   0.311   2.793   1.069  0.0797 -1.6043  0.9595
 6808TIP3   OH241914   0.531   1.668   5.128  0.1182 -0.1795 -0.0004
 6808TIP3    H141915   0.494   1.626   5.050  0.1173  0.9392 -0.6207
 6808TIP3    H241916   0.582   1.598   5.171  0.9531 -0.5685 -1.5494
 6809TIP3   OH241917   0.405   3.841  14.480  0.2777 -0.3459 -0.0405
 6809TIP3    H141918   0.485   3.893  14.491 -0.0408  0.7814 -2.4965
 6809TIP3    H241919   0.401   3.787  14.559  1.4481  2.2647  1.9574
 6810TIP3   OH241920   4.316   6.079  15.754 -0.0562  0.1182 -0.4132
 6810TIP3    H141921   4.361   6.023  15.690 -0.2910 -0.3189 -0.1971
 6810TIP3    H241922   4.261   6.019  15.804 -1.5062  0.7462 -1.2053
 6811TIP3   OH241923   3.880   5.931  17.104  0.3953  0.0953  0.4121
 6811TIP3    H141924   3.804   5.876  17.121  1.3218 -1.3451  0.0994
 6811TIP3    H241925   3.933   5.923  17.184  0.6317  0.3881  0.2878
 6812TIP3   OH241926   6.316   3.852  15.322 -0.0681 -0.4450  0.1393
 6812TIP3    H141927   6.347   3.763  15.337 -0.5450 -0.8927 -1.3692
 6812TIP3    H241928   6.385   3.908  15.360  2.1219 -1.4000 -2.1411
 6813TIP3   OH241929   0.271   0.726  11.314 -0.0524 -0.3530  0.1773
 6813TIP3    H141930   0.232   0.665  11.377 -0.4721 -0.7849 -0.4795
 6813TIP3    H241931   0.280   0.674  11.234  0.1120  0.2927 -0.2248
 6814TIP3   OH241932   6.357   5.765  16.221 -0.1880  0.4968  0.3494
 6814TIP3    H141933   6.282   5.823  16.236 -0.7022 -0.2154  0.6559
 6814TIP3    H241934   6.424   5.796  16.281 -1.1856 -0.4727  2.0701
 6815TIP3   OH241935   6.653   1.569   4.436 -0.0464 -0.6657  0.7392
 6815TIP3    H141936   6.681   1.483   4.405  0.0227  0.6483 -3.3968
 6815TIP3    H241937   6.557   1.564   4.436 -0.1113 -1.5442  3.5711
 6816TIP3   OH241938   2.621   1.587  15.117  0.1908  0.5949  0.0812
 6816TIP3    H141939   2.634   1.675  15.151  1.1285  0.1801  0.8513
 6816TIP3    H241940   2.700   1.539  15.143 -0.5540 -0.6267  0.1750
 6817TIP3   OH241941   4.502   4.406   3.773  0.3404 -0.2697  0.3349
 6817TIP3    H141942   4.537   4.420   3.861  0.4879 -0.8983  0.3814
 6817TIP3    H241943   4.409   4.427   3.781  0.7072  1.5626  0.1743
 6818TIP3   OH241944   0.391   4.777   0.930  0.1434 -0.2062 -0.0836
 6818TIP3    H141945   0.416   4.853   0.983 -2.1569  0.2845  0.4085
 6818TIP3    H241946   0.336   4.725   0.987 -0.2007 -1.0716 -1.1675
 6819TIP3   OH241947   6.601   0.141   6.055  1.0223 -0.0786  0.5954
 6819TIP3    H141948   6.512   0.168   6.078  0.5950 -0.8241 -0.1216
 6819TIP3    H241949   6.657   0.202   6.103  0.1495 -0.1479  1.7557
 6820TIP3   OH241950   0.955   4.795  13.416 -0.3939  0.5859 -0.2848
 6820TIP3    H141951   0.909   4.747  13.347  0.3633 -0.3129 -0.1841
 6820TIP3    H241952   0.904   4.876  13.427 -2.4364 -0.7249  0.4065
 6821TIP3   OH241953   3.687   1.171  10.840 -0.6164  0.2214  0.1807
 6821TIP3    H141954   3.763   1.115  10.822  0.3160  0.6716  2.3567
 6821TIP3    H241955   3.625   1.150  10.770  1.2611 -0.5900 -1.3645
 6822TIP3   OH241956   0.296   4.458   4.460 -0.0250  0.5938  0.1038
 6822TIP3    H141957   0.215   4.509   4.453 -0.2666  0.1902 -0.1182
 6822TIP3    H241958   0.268   4.374   4.497  0.0323 -0.1142 -1.3773
 6823TIP3   OH241959   5.789   6.464  14.613  0.1854 -0.1176  0.1126
 6823TIP3    H141960   5.821   6.423  14.693 -0.5540 -1.3192 -0.1880
 6823TIP3    H241961   5.697   6.440  14.609 -0.2772  1.5429 -0.1131
 6824TIP3   OH241962   4.934   0.797   1.114 -0.3150  0.2326 -0.2168
 6824TIP3    H141963   4.878   0.791   1.192 -0.6032  2.6695 -0.1733
 6824TIP3    H241964   5.020   0.820   1.149  0.3314 -1.7061 -0.4280
 6825TIP3   OH241965   0.652   0.096  13.318  0.2008  0.3599  0.4882
 6825TIP3    H141966   0.724   0.076  13.377 -0.4376 -1.0277  0.8524
 6825TIP3    H241967   0.597   0.017  13.320 -1.9420  1.7689  1.1230
 6826TIP3   OH241968   2.423   0.393  16.153 -0.2597  0.2622 -0.5128
 6826TIP3    H141969   2.514   0.368  16.136  0.5515  2.1125  0.8472
 6826TIP3    H241970   2.373   0.349  16.084  1.5713 -1.2622 -0.9474
 6827TIP3   OH241971   3.724   1.728   4.619 -0.0980  0.1945 -0.3138
 6827TIP3    H141972   3.726   1.653   4.678  2.0933  0.6226  0.2350
 6827TIP3    H241973   3.658   1.705   4.553  0.4462 -2.1658 -0.1222
 6828TIP3   OH241974   3.266   0.011   5.698  0.1203  0.6432  0.1794
 6828TIP3    H141975   3.218  -0.065   5.732  1.1834  0.2074  0.7455
 6828TIP3    H241976   3.200   0.062   5.651 -0.6272 -0.6085 -0.1714
 6829TIP3   OH241977   3.407   0.822  13.504 -0.1969  0.4212 -0.4522
 6829TIP3    H141978   3.429   0.908  13.542 -0.1481  1.6277 -3.0340
 6829TIP3    H241979   3.373   0.772  13.578  0.1468  2.5259  1.2335
 6830TIP3   OH241980   1.753   4.792   4.024  0.2700  0.2495 -0.5037
 6830TIP3    H141981   1.689   4.860   4.046  0.7521  0.8800 -1.0013
 6830TIP3    H241982   1.800   4.827   3.948  0.3526 -0.7622 -0.9376
 6831TIP3   OH241983   0.318   4.450  15.335  0.1051  0.1498 -0.0046
 6831TIP3    H141984   0.275   4.461  15.249 -3.4336 -1.0850  1.4172
 6831TIP3    H241985   0.293   4.529  15.383  1.1329  0.3096  0.2775
 6832TIP3   OH241986   6.295   1.222  14.233 -0.1233  0.1856 -0.0790
 6832TIP3    H141987   6.257   1.146  14.278  1.2264  0.0010  0.8062
 6832TIP3    H241988   6.227   1.249  14.171 -0.4408 -2.0735 -0.8304
 6833TIP3   OH241989   5.958   4.405  16.472 -0.8372 -0.0380 -0.6378
 6833TIP3    H141990   5.961   4.456  16.552 -1.8167 -1.3479  0.2811
 6833TIP3    H241991   5.916   4.323  16.497  0.9903 -1.4833 -1.9452
 6834TIP3   OH241992   1.623   5.873   1.266 -0.5610 -0.1328  0.0328
 6834TIP3    H141993   1.535   5.869   1.303 -0.8053  0.7739 -0.4364
 6834TIP3    H241994   1.671   5.803   1.312 -1.6087 -0.8757  0.0325
 6835TIP3   OH241995   1.204   1.366   0.712 -0.4004 -0.3269  0.4356
 6835TIP3    H141996   1.188   1.458   0.729 -0.4613 -0.0125 -1.1264
 6835TIP3    H241997   1.165   1.320   0.786  0.2168  0.9174  1.5655
 6836TIP3   OH241998   2.320   6.688   0.616 -0.4090  0.0159 -0.5560
 6836TIP3    H141999   2.409   6.654   0.625 -0.5315 -0.2295 -0.2207
 6836TIP3    H242000   2.311   6.710   0.524 -0.0571 -0.1182 -0.6218
 6837TIP3   OH242001   3.724   2.559  14.791 -0.1095 -0.7404 -0.0520
 6837TIP3    H142002   3.797   2.606  14.832 -0.3857  0.2530 -0.6439
 6837TIP3    H242003   3.759   2.473  14.770  0.9877 -0.1794 -0.5912
 6838TIP3   OH242004   4.189   1.552  14.966  0.0085 -0.3360 -0.3989
 6838TIP3    H142005   4.120   1.488  14.948 -2.2793  1.7548  0.4306
 6838TIP3    H242006   4.230   1.567  14.882 -0.0073 -2.1651 -0.7824
 6839TIP3   OH242007   2.123   2.593  11.681 -0.1933  0.0711  0.3856
 6839TIP3    H142008   2.092   2.587  11.771  0.0786  1.7346  0.6167
 6839TIP3    H242009   2.091   2.513  11.639 -1.0169 -0.3326  1.7398
 6840TIP3   OH242010   6.055   4.531  12.436 -0.0158  0.7042  0.0566
 6840TIP3    H142011   6.008   4.610  12.409  0.8064  1.8707  1.7809
 6840TIP3    H242012   6.044   4.528  12.531  0.6325 -0.8358  0.1158
 6841TIP3   OH242013   0.967   0.504  16.594 -0.4344 -0.1096  0.2645
 6841TIP3    H142014   0.883   0.548  16.605 -0.5196 -0.0111 -0.6885
 6841TIP3    H242015   1.014   0.558  16.530  0.1459 -0.4581  0.3901
 6842TIP3   OH242016   0.350   0.389  12.845  0.0458  0.4106  0.5013
 6842TIP3    H142017   0.277   0.442  12.877 -0.5118 -0.7585  1.2301
 6842TIP3    H242018   0.427   0.445  12.856 -0.7193  1.6533 -0.2667
 6843TIP3   OH242019   1.042   0.729   2.648  0.5699  0.5564 -0.1088
 6843TIP3    H142020   0.947   0.728   2.635  0.5615  0.7539 -0.0673
 6843TIP3    H242021   1.053   0.743   2.742  0.6396  0.4045 -0.0937
 6844TIP3   OH242022   1.485   1.686  15.792 -0.3150  0.1252 -0.4492
 6844TIP3    H142023   1.515   1.726  15.711  0.5373  0.3483 -0.0373
 6844TIP3    H242024   1.394   1.661  15.775 -0.6047  1.4807 -0.9877
 6845TIP3   OH242025   4.186   6.388  15.998 -0.5254  0.3621 -0.3502
 6845TIP3    H142026   4.218   6.335  16.071 -0.2821  0.5464 -0.3227
 6845TIP3    H242027   4.098   6.414  16.025 -0.7597 -0.2717 -0.4927
 6846TIP3   OH242028   6.226   1.200   0.152  0.0976  0.0096  0.1814
 6846TIP3    H142029   6.136   1.166   0.148 -0.1291  0.7162 -1.1210
 6846TIP3    H242030   6.218   1.282   0.202 -0.4057  1.2579 -1.8505
 6847TIP3   OH242031   2.127   3.174   1.741  0.1151  0.0188  0.0815
 6847TIP3    H142032   2.075   3.197   1.664 -0.5112  0.2889  0.5803
 6847TIP3    H242033   2.072   3.111   1.790  0.3602  0.1107  0.4800
 6848TIP3   OH242034   1.924   6.346  11.985  0.0650  0.0205  0.1137
 6848TIP3    H142035   1.952   6.255  11.998 -0.9872 -0.2113  0.8536
 6848TIP3    H242036   1.939   6.388  12.071 -0.6628  0.2121  0.1490
 6849TIP3   OH242037   5.409   3.696  12.125 -0.1896 -0.1742  0.1974
 6849TIP3    H142038   5.471   3.629  12.094 -2.1951 -1.8000 -0.5291
 6849TIP3    H242039   5.408   3.761  12.055  0.3789 -0.3356  0.0276
 6850TIP3   OH242040   3.938   6.386  16.493  0.0673  0.2854 -0.2798
 6850TIP3    H142041   3.865   6.443  16.467  0.2194  0.6778  0.1450
 6850TIP3    H242042   3.902   6.332  16.563 -0.8308 -1.8818 -2.2596
 6851TIP3   OH242043   4.963   3.465   3.445 -0.1241  0.0624 -0.5123
 6851TIP3    H142044   4.958   3.450   3.351 -1.1319 -1.1611 -0.2847
 6851TIP3    H242045   4.929   3.553   3.457 -0.7278 -0.0614 -1.2217
 6852TIP3   OH242046   5.691   3.301  16.543  0.1420 -0.2495  0.3422
 6852TIP3    H142047   5.764   3.241  16.553  2.4699  2.3075 -0.2348
 6852TIP3    H242048   5.670   3.330  16.632  2.1487  1.4578  0.3456
 6853TIP3   OH242049   5.903   6.321  12.451  0.0870  0.1920 -0.1753
 6853TIP3    H142050   5.819   6.368  12.451  0.0934  0.2027 -0.4819
 6853TIP3    H242051   5.958   6.370  12.390  0.6038  0.6881  0.6571
 6854TIP3   OH242052   1.095   4.415   0.548 -0.3832 -0.0026  0.5629
 6854TIP3    H142053   1.081   4.483   0.614  1.9113  0.8407  0.2856
 6854TIP3    H242054   1.116   4.463   0.468 -1.6720 -1.0390 -0.4475
 6855TIP3   OH242055   4.087   3.305   3.361  0.0410  0.2352  0.1901
 6855TIP3    H142056   4.157   3.349   3.313  0.4222  0.3023  0.7892
 6855TIP3    H242057   4.129   3.276   3.443 -0.7770  0.8266  0.8347
 6856TIP3   OH242058   6.408   2.613   5.127  0.2088  0.0983 -0.9011
 6856TIP3    H142059   6.490   2.653   5.097  0.3203 -0.5693 -1.5064
 6856TIP3    H242060   6.368   2.577   5.048 -0.4533  0.0173 -0.5401
 6857TIP3   OH242061   0.228   0.754  17.163  0.1236  0.6086  0.2335
 6857TIP3    H142062   0.207   0.661  17.166  2.2078  0.1217  1.4521
 6857TIP3    H242063   0.226   0.776  17.070 -1.6710 -0.2838  0.0015
 6858TIP3   OH242064   5.891   2.411  10.583 -0.1208  0.0911 -0.5222
 6858TIP3    H142065   5.847   2.347  10.527  0.3221  0.2832 -1.0913
 6858TIP3    H242066   5.957   2.361  10.629 -1.2975 -0.3271  0.7926
 6859TIP3   OH242067   4.044   2.905   1.351  0.0542  0.0909 -0.8625
 6859TIP3    H142068   4.137   2.886   1.337  0.0941 -0.9184  0.5257
 6859TIP3    H242069   3.999   2.830   1.310  0.0636 -1.4317  1.6996
 6860TIP3   OH242070   1.030   1.043   0.128  0.3708 -0.2963 -0.0596
 6860TIP3    H142071   0.977   1.055   0.207  1.4233  0.6485  0.5286
 6860TIP3    H242072   1.108   0.996   0.159  0.5164 -0.4510 -0.6517
 6861TIP3   OH242073   4.715   3.462   5.205  0.6889  0.1211 -0.3631
 6861TIP3    H142074   4.632   3.485   5.246  1.3133  2.3935 -0.2468
 6861TIP3    H242075   4.745   3.385   5.254  0.3209  1.3738  1.9830
 6862TIP3   OH242076   6.495   4.007   4.632 -0.1761 -0.0736 -0.2783
 6862TIP3    H142077   6.558   3.965   4.572  0.7226  0.0917  0.5316
 6862TIP3    H242078   6.547   4.031   4.708 -1.2683 -0.0774  0.4833
 6863TIP3   OH242079   0.441   1.583   5.729  0.1025 -0.0819  0.5930
 6863TIP3    H142080   0.514   1.535   5.769  1.3938  1.5655  0.3101
 6863TIP3    H242081   0.423   1.535   5.649  1.9623  0.3390 -0.1332
 6864TIP3   OH242082   6.573   4.572   3.029  0.1156  0.4743  0.0682
 6864TIP3    H142083   6.558   4.479   3.010 -1.5805  0.5913  0.7308
 6864TIP3    H242084   6.625   4.602   2.954 -1.4456 -0.4366 -1.4591
 6865TIP3   OH242085   2.626   1.971   0.350  0.2399 -0.7415  0.9738
 6865TIP3    H142086   2.532   1.955   0.360 -0.1680  0.4943 -0.4399
 6865TIP3    H242087   2.631   2.058   0.309  1.9864 -0.9669  0.6311
 6866TIP3   OH242088   2.375   0.902   1.226  0.4720  0.1951 -0.3564
 6866TIP3    H142089   2.442   0.949   1.176  2.0210 -0.8044  0.6527
 6866TIP3    H242090   2.326   0.852   1.160  1.2230  0.3699 -1.0691
 6867TIP3   OH242091   0.804   3.690  11.927 -0.9207  0.0529  0.4136
 6867TIP3    H142092   0.867   3.661  11.993 -1.0344 -0.2504  0.3897
 6867TIP3    H242093   0.829   3.781  11.908 -0.3004 -0.1672  0.1758
 6868TIP3   OH242094   3.396   1.483   0.168 -0.3321  0.2990 -0.4279
 6868TIP3    H142095   3.380   1.519   0.081 -1.2325  1.2911  0.1320
 6868TIP3    H242096   3.361   1.394   0.163 -0.2824  0.3099 -1.1055
 6869TIP3   OH242097   1.578   1.614  11.546 -0.1412 -0.7028  0.2214
 6869TIP3    H142098   1.586   1.552  11.618 -2.3154  0.1297  1.2662
 6869TIP3    H242099   1.501   1.583  11.496  1.2191 -1.1772 -1.7113
 6870TIP3   OH242100   2.378   6.828  11.205 -0.5268 -0.4261  0.1402
 6870TIP3    H142101   2.301   6.880  11.229  0.0342  0.3799  0.2095
 6870TIP3    H242102   2.351   6.737  11.222 -1.0121 -0.0707  1.4306
 6871TIP3   OH242103   0.757   2.927   1.476 -0.5301 -0.4339 -0.1812
 6871TIP3    H142104   0.752   2.837   1.443  0.7442 -0.5393 -0.1462
 6871TIP3    H242105   0.790   2.977   1.402  0.1612 -0.2697  0.2254
 6872TIP3   OH242106   4.374   1.047   5.809  0.2946 -0.5724 -0.7025
 6872TIP3    H142107   4.434   1.075   5.739 -0.9920 -1.4560 -2.2180
 6872TIP3    H242108   4.405   0.961   5.835  1.0196 -0.0746  0.1531
 6873TIP3   OH242109   0.630   6.493   2.593  0.0668  0.3177 -0.2721
 6873TIP3    H142110   0.585   6.470   2.512 -0.7703 -1.7428  0.7155
 6873TIP3    H242111   0.569   6.549   2.640 -0.7381 -0.9501  0.2375
 6874TIP3   OH242112   2.946   6.508  16.710 -0.4632 -0.5950  0.0744
 6874TIP3    H142113   2.980   6.564  16.780 -2.4158  0.5316  0.1910
 6874TIP3    H242114   2.981   6.546  16.630  0.9183 -1.2480  0.3445
 6875TIP3   OH242115   0.526   1.682   2.280 -0.2029 -0.9069  0.1365
 6875TIP3    H142116   0.545   1.633   2.360 -0.1856  0.6638  1.1471
 6875TIP3    H242117   0.433   1.703   2.286 -0.5828 -2.0687 -1.0489
 6876TIP3   OH242118   2.084   3.562   0.623 -0.0950  0.0868 -0.5813
 6876TIP3    H142119   1.993   3.551   0.650 -0.0548 -0.2192 -0.5621
 6876TIP3    H242120   2.094   3.504   0.547 -0.0124  0.3913 -0.8091
 6877TIP3   OH242121   6.093   5.267  16.846  0.1976  0.4541 -0.0721
 6877TIP3    H142122   6.008   5.269  16.890 -0.3239 -0.2567 -1.0147
 6877TIP3    H242123   6.151   5.221  16.908 -0.1769  0.6584  0.4401
 6878TIP3   OH242124   5.755   5.344  16.880 -1.0103 -0.2485  0.4305
 6878TIP3    H142125   5.710   5.261  16.862 -3.6008  0.7021  1.8728
 6878TIP3    H242126   5.768   5.343  16.975  3.0574 -0.8324  0.0460
 6879TIP3   OH242127   2.641   4.999   1.465 -0.4838 -0.0103  0.4972
 6879TIP3    H142128   2.663   4.978   1.556 -1.6456 -1.9504  0.3973
 6879TIP3    H242129   2.712   4.960   1.414 -1.0755 -1.0957  0.4749
 6880TIP3   OH242130   3.376   2.466  16.685  0.0387  0.5023  0.0120
 6880TIP3    H142131   3.391   2.471  16.590  0.8180 -3.5500 -0.2706
 6880TIP3    H242132   3.440   2.402  16.716 -1.8584 -0.2183  2.8387
 6881TIP3   OH242133   4.969   4.492  10.993 -0.7274 -0.5892 -0.3192
 6881TIP3    H142134   4.976   4.588  10.998  1.0862 -0.7265  0.8035
 6881TIP3    H242135   4.938   4.466  11.079  2.0422 -1.1718  0.5897
 6882TIP3   OH242136   4.135   5.340   4.591 -0.0721  0.1503  0.2861
 6882TIP3    H142137   4.052   5.364   4.551 -0.3929 -1.1770  0.1176
 6882TIP3    H242138   4.201   5.386   4.537 -0.4247 -2.2516 -2.4398
 6883TIP3   OH242139   0.208   5.456  13.446  0.1676 -0.0157  0.2143
 6883TIP3    H142140   0.182   5.491  13.361 -1.8986 -0.6424  0.5316
 6883TIP3    H242141   0.185   5.525  13.508 -0.0215 -0.2730  0.4331
 6884TIP3   OH242142   2.780   6.242  12.828  0.7194 -0.0974 -0.1245
 6884TIP3    H142143   2.820   6.197  12.902 -1.3878 -0.5827  0.7766
 6884TIP3    H242144   2.839   6.225  12.755  1.6660 -1.5321  0.9276
 6885TIP3   OH242145   0.832   5.538   5.669 -0.8755  0.3081  0.5116
 6885TIP3    H142146   0.820   5.632   5.660 -0.8768  0.7988  4.1131
 6885TIP3    H242147   0.925   5.524   5.655 -1.0640  0.5603 -1.3078
 6886TIP3   OH242148   0.308   5.620   1.930 -0.0438 -0.1508 -0.3761
 6886TIP3    H142149   0.229   5.656   1.970  0.6184 -0.7192  1.5052
 6886TIP3    H242150   0.279   5.536   1.893 -0.7704  0.6105 -1.6042
 6887TIP3   OH242151   2.661   0.482  15.024 -0.1616 -0.2983  0.5474
 6887TIP3    H142152   2.673   0.427  14.946 -2.2424 -2.2074  1.4863
 6887TIP3    H242153   2.567   0.500  15.027  0.3386  3.0636  0.5502
 6888TIP3   OH242154   3.525   4.060   6.242 -0.1554 -0.3041  0.0249
 6888TIP3    H142155   3.556   4.126   6.304  0.4099  0.7661 -1.3545
 6888TIP3    H242156   3.498   3.986   6.297  0.0733  0.7093  1.5465
 6889TIP3   OH242157   5.956   0.511  12.429 -0.5708  0.3444  0.6693
 6889TIP3    H142158   5.956   0.573  12.503 -2.4887  1.9474 -0.5499
 6889TIP3    H242159   5.867   0.475  12.428 -0.8993  1.0624 -1.3573
 6890TIP3   OH242160   3.567   4.630   1.386 -0.3736  0.7849 -0.1379
 6890TIP3    H142161   3.589   4.537   1.392 -3.3139 -0.0252 -0.1078
 6890TIP3    H242162   3.595   4.656   1.298 -0.2395 -0.3589 -0.4516
 6891TIP3   OH242163   2.783   4.701   5.412 -0.0874 -0.0636  0.0444
 6891TIP3    H142164   2.879   4.702   5.404 -0.1134  0.3247 -0.2359
 6891TIP3    H242165   2.765   4.629   5.472  0.3401 -0.5857 -0.4411
 6892TIP3   OH242166   4.597   0.637  15.051 -0.2895 -0.5851  0.5278
 6892TIP3    H142167   4.663   0.629  15.120 -0.4332  0.7165  0.8441
 6892TIP3    H242168   4.547   0.715  15.075 -0.0894  0.1384 -1.2593
 6893TIP3   OH242169   2.647   3.491   2.599  0.3039 -0.2684  0.5737
 6893TIP3    H142170   2.622   3.404   2.570 -1.1007  0.5662 -0.8809
 6893TIP3    H242171   2.635   3.490   2.694 -0.4058 -1.4283  0.4808
 6894TIP3   OH242172   3.891   6.384  17.023 -0.5197  0.6847 -0.1015
 6894TIP3    H142173   3.911   6.358  17.113 -0.0079  0.3856 -0.2982
 6894TIP3    H242174   3.977   6.388  16.980 -0.8956 -0.8294 -1.0301
 6895TIP3   OH242175   4.491   5.356  11.477 -0.0611 -0.1871  0.0895
 6895TIP3    H142176   4.466   5.324  11.390  0.1830  0.4439 -0.2223
 6895TIP3    H242177   4.424   5.322  11.535 -0.4833 -0.2404 -0.4203
 6896TIP3   OH242178   2.206   5.929   3.354 -0.0597  0.5326 -0.0149
 6896TIP3    H142179   2.239   5.941   3.443  0.1130 -1.3455  0.2079
 6896TIP3    H242180   2.110   5.931   3.364 -0.0451  1.4224  0.0274
 6897TIP3   OH242181   6.733   2.957  12.796 -0.0989  0.1106 -0.2034
 6897TIP3    H142182   6.778   2.894  12.740 -0.0338  0.3976 -0.4751
 6897TIP3    H242183   6.800   2.989  12.856 -0.1815 -0.2388  0.0794
 6898TIP3   OH242184   1.665   4.227   4.860  0.1150  0.1356  0.4908
 6898TIP3    H142185   1.697   4.137   4.847 -0.0975 -0.2294  2.2093
 6898TIP3    H242186   1.674   4.268   4.774  0.2626 -1.5108 -0.3350
 6899TIP3   OH242187   1.461   3.356   3.974 -0.1953 -0.0367 -0.3735
 6899TIP3    H142188   1.420   3.403   3.901 -0.0144 -0.4677 -0.7555
 6899TIP3    H242189   1.387   3.318   4.022 -0.4078  1.3664  0.4589
 6900TIP3   OH242190   3.696   3.569   3.866 -0.3672 -0.2271  0.0998
 6900TIP3    H142191   3.758   3.560   3.795  0.6475 -1.1023  1.0580
 6900TIP3    H242192   3.675   3.479   3.892  2.0845 -0.1176  3.1974
 6901TIP3   OH242193   6.231   4.687   3.858  0.3777 -0.5676  0.1870
 6901TIP3    H142194   6.201   4.596   3.850 -0.1090 -0.5240  1.2651
 6901TIP3    H242195   6.152   4.739   3.842  0.6829 -0.3174 -0.5575
 6902TIP3   OH242196   4.445   6.642  14.695  0.6578 -0.7029 -0.5224
 6902TIP3    H142197   4.504   6.576  14.733  0.1604 -1.1893 -0.5857
 6902TIP3    H242198   4.503   6.715  14.673  1.0394 -0.6292  0.6434
 6903TIP3   OH242199   5.694   4.512  17.086 -0.2582  0.0826 -0.4672
 6903TIP3    H142200   5.692   4.419  17.108  1.9302 -0.0605 -0.6445
 6903TIP3    H242201   5.632   4.553  17.147 -0.3123 -1.3237  0.4584
 6904TIP3   OH242202   1.659   3.139   5.209 -0.2587 -0.7844 -0.3584
 6904TIP3    H142203   1.640   3.075   5.141  1.0619 -1.0884 -0.4716
 6904TIP3    H242204   1.719   3.093   5.268 -1.0626 -0.3924  0.7975
 6905TIP3   OH242205   4.655   4.352   0.945  0.3483  0.3193  0.1038
 6905TIP3    H142206   4.608   4.273   0.974  1.7265 -0.3170  0.6996
 6905TIP3    H242207   4.737   4.349   0.993  0.5089  2.0371 -0.0262
 6906TIP3   OH242208   1.109   4.452  14.441 -0.2544 -0.5737  0.1321
 6906TIP3    H142209   1.157   4.370  14.432 -1.2272 -0.9640 -1.8168
 6906TIP3    H242210   1.024   4.427  14.475 -0.0694 -0.1836  0.9133
 6907TIP3   OH242211   1.182   2.097   3.037  0.2972  0.6563 -0.2992
 6907TIP3    H142212   1.171   2.114   2.943 -1.5946  1.9376  0.0966
 6907TIP3    H242213   1.119   2.156   3.079 -0.4642 -1.4214  1.6765
 6908TIP3   OH242214   5.253   6.492   1.962 -0.6187 -0.3099 -0.0115
 6908TIP3    H142215   5.258   6.432   1.888  0.3175 -1.2112  0.7462
 6908TIP3    H242216   5.344   6.521   1.976 -0.9971  0.9853 -0.1197
 6909TIP3   OH242217   5.830   1.202  12.227  0.6968 -0.4571  0.4231
 6909TIP3    H142218   5.784   1.121  12.206  0.6477 -0.8604  1.9779
 6909TIP3    H242219   5.906   1.202  12.170  1.0242 -1.9202  0.8229
 6910TIP3   OH242220   4.638   0.907  14.279  0.5765 -0.8204 -0.2747
 6910TIP3    H142221   4.643   0.867  14.193 -0.4710 -0.1155 -0.6936
 6910TIP3    H242222   4.551   0.884  14.311 -1.3544  3.2873 -1.7492
 6911TIP3   OH242223   0.017   2.918   0.437  0.1989 -0.3774 -0.1974
 6911TIP3    H142224   0.093   2.955   0.482 -0.7498  0.9539  0.3792
 6911TIP3    H242225  -0.054   2.926   0.500 -0.7846 -0.0574 -1.3088
 6912TIP3   OH242226   3.974   4.644  14.776 -0.0411 -0.2185 -0.0413
 6912TIP3    H142227   4.033   4.570  14.763  0.6810  0.4713 -0.7834
 6912TIP3    H242228   4.008   4.713  14.719 -1.5885  0.1843 -0.5384
 6913TIP3   OH242229   2.640   1.784  10.993 -0.0543 -0.0720  0.9086
 6913TIP3    H142230   2.663   1.876  10.979  0.8180 -0.1768  1.5857
 6913TIP3    H242231   2.712   1.735  10.955 -0.2595 -0.4688  1.0233
 6914TIP3   OH242232   4.976   3.728  15.452 -0.8364 -0.6229  0.3040
 6914TIP3    H142233   4.904   3.792  15.453  0.2129  0.6264 -0.2705
 6914TIP3    H242234   5.033   3.755  15.524 -0.3745 -0.9038  0.0443
 6915TIP3   OH242235   4.486   4.475  11.200 -0.2388  0.0750  0.0466
 6915TIP3    H142236   4.509   4.568  11.190  1.9734 -0.4180  0.0310
 6915TIP3    H242237   4.541   4.445  11.272  1.9216 -2.0421 -2.2869
 6916TIP3   OH242238   5.114   6.402  11.648 -0.1957  0.1587  0.3271
 6916TIP3    H142239   5.168   6.480  11.633  0.1006 -0.1262 -0.1137
 6916TIP3    H242240   5.171   6.329  11.622 -1.3659 -0.0679 -1.7865
 6917TIP3   OH242241   1.095   1.646  16.639 -0.3319  0.2310  0.2571
 6917TIP3    H142242   1.023   1.708  16.653  0.5958  0.9348  2.2397
 6917TIP3    H242243   1.067   1.567  16.686 -0.5885 -0.1354 -0.4982
 6918TIP3   OH242244   5.633   4.020   2.234 -0.0946  0.4780  0.1630
 6918TIP3    H142245   5.613   4.078   2.160 -0.5144  0.0995 -0.0287
 6918TIP3    H242246   5.673   4.077   2.299  0.0742  0.8629 -0.2680
 6919TIP3   OH242247   0.380   0.782  14.847  0.0257 -0.1435  0.3115
 6919TIP3    H142248   0.469   0.797  14.879  0.7788 -0.7805 -1.3218
 6919TIP3    H242249   0.363   0.855  14.787 -0.1514 -0.5259 -0.1194
 6920TIP3   OH242250   1.978   1.596  13.540  0.6937 -0.3515  0.1192
 6920TIP3    H142251   1.947   1.543  13.467 -1.1004  1.9977 -0.9851
 6920TIP3    H242252   2.058   1.637  13.508 -0.2954  0.9750 -0.7486
 6921TIP3   OH242253   4.023   3.498  12.368 -0.5757  0.2121  0.2568
 6921TIP3    H142254   4.037   3.558  12.294  1.4478 -1.6460 -1.0039
 6921TIP3    H242255   3.929   3.484  12.370 -1.2818  4.0233  1.1972
 6922TIP3   OH242256   2.455   3.388   5.460  0.0494  0.2334 -0.3820
 6922TIP3    H142257   2.485   3.303   5.490  1.8877  1.2229  0.7694
 6922TIP3    H242258   2.510   3.407   5.383  0.4985  0.8608  0.0788
 6923TIP3   OH242259   1.752   1.054  12.072 -0.1692  0.1064  0.3928
 6923TIP3    H142260   1.785   0.965  12.082  2.4973  0.4993 -2.9251
 6923TIP3    H242261   1.807   1.107  12.130 -1.7188 -0.3082  2.3241
 6924TIP3   OH242262   5.185   0.147   2.056  0.4836 -0.1290  0.3605
 6924TIP3    H142263   5.251   0.135   1.989  1.1357 -0.8508  1.1089
 6924TIP3    H242264   5.205   0.081   2.122  1.2274  1.9582  2.3519
 6925TIP3   OH242265   0.883   0.321   0.748  0.4609 -0.0959 -0.0370
 6925TIP3    H142266   0.909   0.230   0.765  1.7301  0.2472 -0.0574
 6925TIP3    H242267   0.924   0.342   0.664 -1.2452 -0.0267 -0.9173
 6926TIP3   OH242268   5.037   0.715   0.891  0.0093  0.0621 -0.4017
 6926TIP3    H142269   5.022   0.711   0.985  1.5709 -1.2146 -0.1699
 6926TIP3    H242270   5.022   0.806   0.868 -0.5686  0.3586  1.0350
 6927TIP3   OH242271   1.487   1.412   0.590 -0.4236 -0.1667 -0.2752
 6927TIP3    H142272   1.409   1.369   0.624 -0.2825 -0.3014 -0.1232
 6927TIP3    H242273   1.494   1.493   0.640 -1.8161  1.0277 -1.8951
 6928TIP3   OH242274   4.729   1.784   0.328  0.2522 -0.2430  0.2133
 6928TIP3    H142275   4.729   1.879   0.319 -0.9866 -0.2091  0.3487
 6928TIP3    H242276   4.786   1.767   0.403  0.3703  0.4012  0.2755
 6929TIP3   OH242277   6.639   5.996  13.522  0.1339 -0.0320 -0.1476
 6929TIP3    H142278   6.544   5.996  13.521  0.0691  2.2483  0.6262
 6929TIP3    H242279   6.663   5.935  13.593 -0.7903  0.2137  0.3895
 6930TIP3   OH242280   6.425   2.821  17.172 -0.8705  0.0571  0.1434
 6930TIP3    H142281   6.390   2.750  17.227  0.8837 -1.7449 -0.9211
 6930TIP3    H242282   6.503   2.783  17.131  1.3186  3.2449  1.0132
 6931TIP3   OH242283   4.758   1.474  14.058  0.0045 -0.7753 -0.2054
 6931TIP3    H142284   4.813   1.467  14.136 -0.1885 -0.6754 -0.0612
 6931TIP3    H242285   4.819   1.461  13.985  0.6602  1.5450 -0.1597
 6932TIP3   OH242286   1.700   3.160  11.980  0.2262  0.1643  0.0187
 6932TIP3    H142287   1.692   3.085  12.039  0.9388  0.5453  0.6202
 6932TIP3    H242288   1.684   3.236  12.035  0.0687  0.4892 -0.4674
 6933TIP3   OH242289   6.159   4.191  16.044  0.4194  0.1910  0.3409
 6933TIP3    H142290   6.120   4.141  16.116  1.6628  0.2885  1.1125
 6933TIP3    H242291   6.253   4.188  16.061  0.7592  0.0466 -1.4044
 6934TIP3   OH242292   5.774   4.033   4.619 -0.3774  0.0556 -0.2677
 6934TIP3    H142293   5.824   4.097   4.569 -1.5416 -0.0559 -1.6265
 6934TIP3    H242294   5.683   4.062   4.611 -0.5747  0.5081  2.4992
 6935TIP3   OH242295   3.780   0.357  14.848 -0.1992  0.4809 -0.3283
 6935TIP3    H142296   3.811   0.320  14.765 -0.1282 -0.3736  0.0624
 6935TIP3    H242297   3.746   0.282  14.896 -2.3702  1.3160 -0.4910
 6936TIP3   OH242298   4.471   4.192   5.868 -0.0229  0.8925  0.2983
 6936TIP3    H142299   4.487   4.132   5.795  1.1216  0.2232  1.0644
 6936TIP3    H242300   4.559   4.216   5.900 -0.4380 -0.4327  2.7125
 6937TIP3   OH242301   5.984   3.137   0.173  0.0414 -0.0372 -0.5924
 6937TIP3    H142302   5.911   3.196   0.189  0.7660  0.8993 -0.6626
 6937TIP3    H242303   6.057   3.194   0.148  0.3265 -1.0638 -2.2846
 6938TIP3   OH242304   4.268   3.862  10.878  0.2288  0.9507  0.6200
 6938TIP3    H142305   4.339   3.900  10.826  1.5108  0.6205  2.0382
 6938TIP3    H242306   4.261   3.772  10.846  1.0059  0.7484  0.9888
 6939TIP3   OH242307   1.861   3.455  15.723  0.1439  0.1516 -0.0137
 6939TIP3    H142308   1.927   3.523  15.713  0.6555 -0.4880 -1.2229
 6939TIP3    H242309   1.865   3.431  15.816  1.3602  0.3891  0.0124
 6940TIP3   OH242310   0.382   2.990  15.454  0.3871 -0.1732  0.5531
 6940TIP3    H142311   0.458   3.033  15.492 -0.0961  0.7583  0.5014
 6940TIP3    H242312   0.416   2.938  15.381  1.1880 -1.1547  1.5965
 6941TIP3   OH242313   1.227   2.101   2.747  0.9334 -0.4788  1.0659
 6941TIP3    H142314   1.319   2.126   2.737  0.3175  1.3864 -0.5712
 6941TIP3    H242315   1.179   2.165   2.695 -1.2463 -1.9912  1.0781
 6942TIP3   OH242316   5.268   5.468   5.244  0.2571 -0.3617  0.8126
 6942TIP3    H142317   5.275   5.379   5.211  0.9760 -0.6719  1.7603
 6942TIP3    H242318   5.276   5.523   5.166 -0.1500 -1.1064  0.2229
 6943TIP3   OH242319   2.966   2.219   5.539  1.0946  0.3471 -0.0413
 6943TIP3    H142320   2.969   2.206   5.634  2.9195 -0.1707 -0.1333
 6943TIP3    H242321   2.975   2.131   5.503  0.4637  0.5498 -0.7210
 6944TIP3   OH242322   2.901   2.971  15.071 -0.6546  0.0264 -0.1344
 6944TIP3    H142323   2.965   3.006  15.133 -1.4313  1.7919 -0.2618
 6944TIP3    H242324   2.827   2.945  15.126 -0.3964 -0.6596 -0.1117
 6945TIP3   OH242325   1.681   2.498   0.018  0.4070  0.1538  0.0807
 6945TIP3    H142326   1.756   2.445   0.046  1.6009  1.2452 -0.8926
 6945TIP3    H242327   1.686   2.496  -0.078 -1.7298 -0.9806 -0.0636
 6946TIP3   OH242328   2.605   4.702   2.020 -0.0243 -0.3873 -0.0384
 6946TIP3    H142329   2.552   4.781   2.031  1.9505  1.0864 -0.4591
 6946TIP3    H242330   2.605   4.660   2.106 -0.5012  0.4723  0.3893
 6947TIP3   OH242331   2.923   1.363   3.832 -0.7719 -0.0880  0.9633
 6947TIP3    H142332   2.972   1.306   3.772 -0.1273 -0.7937  2.1059
 6947TIP3    H242333   2.912   1.445   3.785 -0.8989 -0.8449 -0.3762
 6948TIP3   OH242334   6.021   2.624   0.043  0.9941 -0.3581 -0.0018
 6948TIP3    H142335   6.099   2.642  -0.010 -0.7606 -1.7244 -3.4165
 6948TIP3    H242336   5.971   2.706   0.040  1.0927 -0.3014 -0.1322
 6949TIP3   OH242337   4.777   0.924  14.737 -0.0433 -0.0644  0.2307
 6949TIP3    H142338   4.762   0.833  14.764 -3.6286 -0.1645 -1.5267
 6949TIP3    H242339   4.755   0.976  14.815  0.9455 -0.6214  0.9052
 6950TIP3   OH242340   5.316   3.117  13.693  1.0831  0.4159 -0.2927
 6950TIP3    H142341   5.336   3.131  13.601 -2.8459 -1.5520 -1.6646
 6950TIP3    H242342   5.390   3.065  13.725  0.6836 -2.5551 -3.5846
 6951TIP3   OH242343   3.682   5.300  13.789 -0.8824  0.4473 -0.2610
 6951TIP3    H142344   3.614   5.263  13.845 -0.7134  2.4039  1.3412
 6951TIP3    H242345   3.761   5.252  13.813 -1.1363  0.1527 -0.0063
 6952TIP3   OH242346   5.272   1.092   4.220 -0.2583  0.2708  0.1741
 6952TIP3    H142347   5.181   1.103   4.249  0.1476 -0.4057  1.7935
 6952TIP3    H242348   5.320   1.071   4.300  0.7405 -3.0027 -1.1567
 6953TIP3   OH242349   3.747   5.141   3.681  0.2896 -0.3417  0.6563
 6953TIP3    H142350   3.699   5.088   3.745  1.4756  1.5853  3.3186
 6953TIP3    H242351   3.688   5.213   3.661  0.6988  0.1366  1.1659
 6954TIP3   OH242352   2.993   2.269  12.021 -0.6879 -0.3834  0.2989
 6954TIP3    H142353   3.062   2.204  12.025 -0.0027  0.2118 -1.1233
 6954TIP3    H242354   3.032   2.343  11.975 -1.4006  1.0986  1.9382
 6955TIP3   OH242355   0.223   4.600   1.074 -0.1257  0.5587 -0.1365
 6955TIP3    H142356   0.182   4.514   1.083 -2.2055  1.5238  0.1496
 6955TIP3    H242357   0.280   4.607   1.150 -0.1177 -0.4625 -0.0317
 6956TIP3   OH242358   1.230   5.057  16.588 -0.4570 -0.5379 -0.2312
 6956TIP3    H142359   1.191   4.987  16.537  0.4592  0.5876 -2.6896
 6956TIP3    H242360   1.321   5.061  16.557 -0.1157  0.8384  0.8258
 6957TIP3   OH242361   5.625   3.761  14.548  0.2351 -0.1541  0.3841
 6957TIP3    H142362   5.605   3.684  14.602 -0.3846 -0.5111 -0.3232
 6957TIP3    H242363   5.574   3.832  14.587 -3.3571 -1.2169 -1.8599
 6958TIP3   OH242364   3.736   3.943   3.120 -0.1917 -0.4346  0.5158
 6958TIP3    H142365   3.702   4.022   3.163  0.5356 -0.2649  0.7963
 6958TIP3    H242366   3.671   3.875   3.139 -0.5627 -0.0317  0.7163
 6959TIP3   OH242367   6.617   0.026  13.812  0.1744 -0.0376  0.6383
 6959TIP3    H142368   6.613   0.091  13.882  0.9609  0.9058 -0.1823
 6959TIP3    H242369   6.643   0.075  13.734  0.2881 -1.2433 -0.1054
 6960TIP3   OH242370   3.162   5.153   3.188  1.0253  0.1890 -0.1275
 6960TIP3    H142371   3.084   5.106   3.218  0.7644  0.4720 -0.3609
 6960TIP3    H242372   3.203   5.185   3.269  1.5278 -0.9420  0.0733
 6961TIP3   OH242373   6.619   4.595  15.104 -0.1286  0.0221 -0.1920
 6961TIP3    H142374   6.672   4.639  15.171  0.8788 -1.1716 -0.1531
 6961TIP3    H242375   6.591   4.665  15.045  0.4478  0.8562  0.4983
 6962TIP3   OH242376   2.087   3.090  14.406  0.0109  0.3778 -0.3980
 6962TIP3    H142377   2.012   3.114  14.461  0.8711  0.3191  0.8493
 6962TIP3    H242378   2.110   3.170  14.360  1.4314  1.4281  1.9862
 6963TIP3   OH242379   2.650   6.126   5.185  0.5544 -0.1553  0.2957
 6963TIP3    H142380   2.562   6.164   5.178 -1.7412 -4.2450  3.1296
 6963TIP3    H242381   2.698   6.186   5.243 -0.8203  1.3478 -0.0477
 6964TIP3   OH242382   5.643   4.253   5.738  0.4195  0.4088 -0.3275
 6964TIP3    H142383   5.624   4.307   5.816 -0.7102 -0.6156  0.1376
 6964TIP3    H242384   5.563   4.259   5.686  0.8963  0.4666 -1.0536
 6965TIP3   OH242385   1.305   0.146   4.118  1.0600 -0.4725 -0.0582
 6965TIP3    H142386   1.347   0.087   4.181  1.6536 -0.7328 -0.6880
 6965TIP3    H242387   1.350   0.230   4.130  1.0114 -0.4592  0.0308
 6966TIP3   OH242388   5.085   3.764  11.506  0.1114  0.0560  0.0477
 6966TIP3    H142389   4.991   3.781  11.512  0.3315  1.1376  0.6563
 6966TIP3    H242390   5.091   3.670  11.487 -1.1401  0.3421 -2.2466
 6967TIP3   OH242391   1.420   0.288  12.918 -0.2480 -0.4178  0.0149
 6967TIP3    H142392   1.494   0.233  12.891 -1.9978 -3.1897  0.4826
 6967TIP3    H242393   1.460   0.357  12.971  2.1970 -0.5242 -1.5317
 6968TIP3   OH242394   4.591   4.725   5.506  0.8709  0.1772  0.0177
 6968TIP3    H142395   4.640   4.800   5.542 -0.9824  2.1085 -1.2184
 6968TIP3    H242396   4.604   4.732   5.411 -0.1922 -0.4129 -0.1865
 6969TIP3   OH242397   3.445   1.634   3.470 -0.5267 -0.1932  0.1663
 6969TIP3    H142398   3.389   1.662   3.543 -1.4344 -1.1899 -0.1269
 6969TIP3    H242399   3.442   1.539   3.472 -0.6764 -0.2447 -1.2383
 6970TIP3   OH242400   0.713   0.153  14.178 -0.4005 -0.0089 -0.0489
 6970TIP3    H142401   0.689   0.226  14.234  0.5858  0.0245  0.3523
 6970TIP3    H242402   0.732   0.081  14.239  3.4483  0.8071 -0.0533
 6971TIP3   OH242403   0.325   3.331  12.237 -0.5732 -0.1246 -0.8334
 6971TIP3    H142404   0.366   3.259  12.188  1.9012 -0.1909  1.1480
 6971TIP3    H242405   0.237   3.300  12.257  0.3181 -2.4828 -0.3279
 6972TIP3   OH242406   2.075   2.503  15.093 -0.2788 -0.1009 -0.1381
 6972TIP3    H142407   2.043   2.590  15.070 -0.7062 -0.3607 -0.5413
 6972TIP3    H242408   2.118   2.471  15.014  0.6460  0.0901  0.2821
 6973TIP3   OH242409   5.522   5.070   4.493 -0.4439 -0.3649  0.1806
 6973TIP3    H142410   5.487   5.151   4.531  0.1467 -0.3193  0.6604
 6973TIP3    H242411   5.446   5.024   4.460 -0.6064  1.3543 -2.0392
 6974TIP3   OH242412   4.173   2.227   3.341  0.0844 -0.0958 -0.2230
 6974TIP3    H142413   4.155   2.133   3.336 -1.9602  0.1512  1.2265
 6974TIP3    H242414   4.242   2.234   3.406 -0.3164 -0.5642  0.2692
 6975TIP3   OH242415   1.115   6.339   3.361 -0.6958  0.8941 -0.4596
 6975TIP3    H142416   1.039   6.376   3.316 -0.1787  2.1278 -0.3645
 6975TIP3    H242417   1.185   6.344   3.296 -1.0843 -2.0950 -1.2683
 6976TIP3   OH242418   6.430   6.081   3.888  0.5888 -0.3697 -0.0966
 6976TIP3    H142419   6.358   6.034   3.846  0.9898  0.4500 -1.8183
 6976TIP3    H242420   6.503   6.019   3.887  0.3766 -0.6242  0.0954
 6977TIP3   OH242421   0.360   5.199  13.468  0.0108 -0.3909 -0.1593
 6977TIP3    H142422   0.292   5.266  13.469 -0.1010 -0.5047  0.1326
 6977TIP3    H242423   0.425   5.231  13.406  1.0743  1.0870  1.6273
 6978TIP3   OH242424   5.917   5.642  14.145  0.1254 -0.2227  0.0779
 6978TIP3    H142425   5.862   5.575  14.186 -2.3239  0.9169 -1.1201
 6978TIP3    H242426   5.897   5.636  14.052  1.9593  0.3811 -0.3901
 6979TIP3   OH242427   2.777   0.004   4.634  0.0515 -0.1659  0.3312
 6979TIP3    H142428   2.761  -0.018   4.726  0.4337  1.2668  0.7675
 6979TIP3    H242429   2.872   0.007   4.626  0.0251 -0.6160 -0.2071
 6980TIP3   OH242430   0.421   3.339  14.307 -0.1408  0.2874 -1.2092
 6980TIP3    H142431   0.437   3.307  14.396 -0.9070  1.5040 -0.5954
 6980TIP3    H242432   0.389   3.263  14.259 -0.5399 -0.1975 -0.1991
 6981TIP3   OH242433   6.782   4.523  12.675 -0.2403 -0.0410  0.3151
 6981TIP3    H142434   6.876   4.526  12.692  0.0908  0.2551 -1.3437
 6981TIP3    H242435   6.773   4.463  12.601 -1.3856 -0.2548  0.6075
 6982TIP3   OH242436   2.994   6.379  15.793 -0.4746 -0.4587 -0.2555
 6982TIP3    H142437   2.987   6.464  15.837 -0.2116 -0.0664 -0.9490
 6982TIP3    H242438   3.085   6.374  15.763 -0.8927 -0.2278 -1.6737
 6983TIP3   OH242439   5.245   0.445  14.834 -0.3061 -0.2530  0.2064
 6983TIP3    H142440   5.254   0.489  14.919  0.7411  0.1448 -0.0893
 6983TIP3    H242441   5.317   0.382  14.833 -1.8163 -2.0860  0.6541
 6984TIP3   OH242442   5.286   2.887   3.013 -0.1989 -0.6082 -0.3552
 6984TIP3    H142443   5.348   2.958   3.028 -1.4692  0.1523  1.5810
 6984TIP3    H242444   5.203   2.930   2.997 -1.4369 -1.5566  2.8120
 6985TIP3   OH242445   5.228   4.487   0.252 -0.0398 -0.0543  0.0059
 6985TIP3    H142446   5.134   4.472   0.260  0.2841 -2.0139  0.5199
 6985TIP3    H242447   5.259   4.417   0.195  0.7693  2.1226 -2.4496
 6986TIP3   OH242448   5.347   0.664  11.840  0.3110 -0.6227 -0.4752
 6986TIP3    H142449   5.370   0.619  11.758  1.7898 -1.1238  0.1878
 6986TIP3    H242450   5.310   0.595  11.895 -0.3498 -0.3608 -0.5904
 6987TIP3   OH242451   0.382   0.156   0.163 -0.1691  0.1221  0.0487
 6987TIP3    H142452   0.350   0.086   0.220  0.0462 -1.5997 -1.8323
 6987TIP3    H242453   0.470   0.130   0.140  0.3644  1.6529  0.2079
 6988TIP3   OH242454   2.172   4.979   2.553  0.1525  0.5706 -0.4232
 6988TIP3    H142455   2.077   4.994   2.554  0.0064 -0.3768  0.3470
 6988TIP3    H242456   2.194   4.954   2.642  1.0185  0.0912 -0.7595
 6989TIP3   OH242457   1.143   2.844  10.444 -0.6412 -0.0711  0.8101
 6989TIP3    H142458   1.063   2.878  10.403  0.0901 -0.8601 -1.4713
 6989TIP3    H242459   1.138   2.749  10.431 -0.1506 -0.3219  2.2627
 6990TIP3   OH242460   0.481   3.398   0.637  0.1345 -1.0015  0.0607
 6990TIP3    H142461   0.530   3.481   0.640  0.9964 -1.5193  2.0940
 6990TIP3    H242462   0.416   3.407   0.706 -0.2609 -1.7342 -0.2119
 6991TIP3   OH242463   1.920   0.943   0.680  0.1949  0.8008  0.5502
 6991TIP3    H142464   2.005   0.922   0.640 -2.4980 -1.5467 -4.9567
 6991TIP3    H242465   1.909   0.879   0.750  1.2248 -1.9518 -1.6460
 6992TIP3   OH242466   3.763   3.600   4.501 -0.2812 -0.5422  0.1026
 6992TIP3    H142467   3.858   3.591   4.491 -0.6526 -3.9273 -1.6419
 6992TIP3    H242468   3.737   3.658   4.429  0.4000  0.4473  0.6226
 6993TIP3   OH242469   5.133   3.366  10.862  0.1681  0.1857 -0.1897
 6993TIP3    H142470   5.067   3.425  10.826  0.0766  0.6398  0.6895
 6993TIP3    H242471   5.172   3.416  10.934  1.1056 -0.2787 -0.3651
 6994TIP3   OH242472   3.118   2.004   4.710  0.3476  0.0536  0.0635
 6994TIP3    H142473   3.026   1.980   4.719  0.1601  0.8189  0.1803
 6994TIP3    H242474   3.164   1.920   4.704 -0.2109 -0.3713  1.4080
 6995TIP3   OH242475   0.611   0.955   5.093 -0.4515 -0.6016 -0.0149
 6995TIP3    H142476   0.536   0.896   5.090 -2.4105  1.7566 -0.4237
 6995TIP3    H242477   0.575   1.039   5.121  1.9984  0.7163 -0.5061
 6996TIP3   OH242478   3.305   4.940   2.453  0.1114 -0.4938  0.8216
 6996TIP3    H142479   3.296   5.017   2.396  1.2293 -0.2960  0.8853
 6996TIP3    H242480   3.342   4.873   2.396 -0.4734 -0.8741  0.8740
 6997TIP3   OH242481   0.812   2.577  13.033 -0.2849  0.0527  0.0235
 6997TIP3    H142482   0.834   2.534  13.116 -1.3027 -1.2714 -0.3572
 6997TIP3    H242483   0.740   2.526  12.998 -0.3641  1.0426 -1.3362
 6998TIP3   OH242484   4.030   6.035   0.677 -0.1366 -0.0284 -0.2334
 6998TIP3    H142485   4.035   6.054   0.583  1.6790  0.2914 -0.1091
 6998TIP3    H242486   3.983   6.109   0.715 -0.5793  0.0082 -0.8476
 6999TIP3   OH242487   4.482   5.998   6.714 -0.0116  0.9603  1.0449
 6999TIP3    H142488   4.413   6.009   6.649  0.6878  1.8798  0.4422
 6999TIP3    H242489   4.439   6.016   6.798 -0.8124  0.1780  0.8172
 7000TIP3   OH242490   1.588   4.564  17.118  0.0949 -0.2519 -0.1065
 7000TIP3    H142491   1.509   4.521  17.149 -0.1897  1.1834  1.2847
 7000TIP3    H242492   1.629   4.501  17.059 -0.9614 -1.8786  0.8489
 7001TIP3   OH242493   5.659   1.277   2.363 -0.2406 -0.1030  0.2983
 7001TIP3    H142494   5.624   1.191   2.338 -0.6329  0.4733 -1.2907
 7001TIP3    H242495   5.692   1.264   2.451 -0.2166 -1.9125  0.0799
 7002TIP3   OH242496   0.428   5.978  16.967  0.6728  0.1117 -0.3635
 7002TIP3    H142497   0.498   5.914  16.979 -0.0048 -0.7384 -0.8744
 7002TIP3    H242498   0.347   5.927  16.967  0.1333  0.9250 -1.0230
 7003TIP3   OH242499   5.467   0.010   0.603  0.0726  0.7557 -0.8125
 7003TIP3    H142500   5.516  -0.044   0.665 -0.6140  0.3645 -0.5950
 7003TIP3    H242501   5.527   0.024   0.531  0.5732  0.4507 -0.4638
 7004TIP3   OH242502   5.308   1.069   5.109  0.0703 -0.0895 -0.1969
 7004TIP3    H142503   5.235   1.126   5.085 -0.6164 -0.7435  0.2990
 7004TIP3    H242504   5.280   0.981   5.085  0.2195 -0.4913  0.9981
 7005TIP3   OH242505   2.817   0.496   4.512 -0.2693  0.0759 -0.4164
 7005TIP3    H142506   2.805   0.446   4.431  0.1852 -1.6386  0.5241
 7005TIP3    H242507   2.893   0.456   4.554 -0.4095  1.0231  0.7930
 7006TIP3   OH242508   0.547   0.327  15.897  0.1374 -0.2237  0.1351
 7006TIP3    H142509   0.471   0.269  15.890  0.7862 -1.1122  0.2158
 7006TIP3    H242510   0.525   0.389  15.966 -0.7718 -0.0521 -0.2957
 7007TIP3   OH242511   2.561   6.475  10.831 -0.1304 -0.3683 -0.3561
 7007TIP3    H142512   2.542   6.382  10.816  0.5581 -0.3877 -1.1926
 7007TIP3    H242513   2.535   6.518  10.750 -2.8263  0.5819  0.9005
 7008TIP3   OH242514   0.613   3.409  13.339 -0.0035 -0.1572  0.3366
 7008TIP3    H142515   0.532   3.400  13.288  0.0821  0.9188 -0.0103
 7008TIP3    H242516   0.683   3.411  13.274  0.3767 -1.7536  0.6723
 7009TIP3   OH242517   5.622   1.776   4.315  0.1873 -0.1608 -0.5959
 7009TIP3    H142518   5.663   1.690   4.309  0.5992  0.0600 -0.9681
 7009TIP3    H242519   5.583   1.778   4.402  1.5311 -0.1306  0.0302
 7010TIP3   OH242520   1.167   6.063   4.322  0.4238 -0.4931  0.0315
 7010TIP3    H142521   1.248   6.016   4.344 -2.2066 -3.5183  4.9593
 7010TIP3    H242522   1.185   6.154   4.348  2.8207 -0.5236 -1.1937
 7011TIP3   OH242523   5.182   0.469   3.406 -0.6421 -0.0829  0.4752
 7011TIP3    H142524   5.129   0.406   3.358  0.5790 -0.9326  0.1907
 7011TIP3    H242525   5.156   0.554   3.371 -0.8794 -0.5733 -0.5764
 7012TIP3   OH242526   0.055   2.192  14.284  0.3224 -0.3816 -0.2861
 7012TIP3    H142527   0.046   2.119  14.222  3.3882 -0.8219 -0.4027
 7012TIP3    H242528   0.033   2.269  14.232 -1.1652 -1.0515 -0.7020
 7013TIP3   OH242529   0.352   0.300   6.020  0.5277 -0.3581 -0.1739
 7013TIP3    H142530   0.423   0.355   6.052  0.4888 -0.0398 -0.6307
 7013TIP3    H242531   0.283   0.309   6.085  1.2042 -1.3337  0.7221
 7014TIP3   OH242532   0.848   3.242   4.853  0.1488 -0.5900 -0.0015
 7014TIP3    H142533   0.883   3.190   4.925 -1.5184 -0.5387  0.8920
 7014TIP3    H242534   0.778   3.294   4.892  2.0967  2.8496 -0.7027
 7015TIP3   OH242535   1.681   0.780  14.045  0.3165 -0.6159 -0.6509
 7015TIP3    H142536   1.640   0.780  13.959  2.7683 -0.4855 -1.9023
 7015TIP3    H242537   1.717   0.867  14.055 -0.1651 -0.5432  0.6733
 7016TIP3   OH242538   6.622   6.720  11.124  0.1764 -0.5927 -0.2274
 7016TIP3    H142539   6.571   6.698  11.046 -3.0783  0.8508  1.2758
 7016TIP3    H242540   6.707   6.748  11.090 -0.8038 -0.8532 -3.1848
 7017TIP3   OH242541   3.939   0.535   2.678  0.6435 -0.6295 -0.1954
 7017TIP3    H142542   3.937   0.546   2.583 -1.4688  0.1334 -0.1228
 7017TIP3    H242543   3.847   0.517   2.702  1.3293 -2.1458  1.5674
 7018TIP3   OH242544   6.023   5.475   2.996  0.4030  0.1642 -0.3173
 7018TIP3    H142545   6.064   5.438   3.074 -1.6038  0.6566  1.0450
 7018TIP3    H242546   6.086   5.459   2.926  1.9395 -0.9775  1.2444
 7019TIP3   OH242547   3.036   5.776   5.213 -0.5377 -0.2489 -0.2587
 7019TIP3    H142548   2.944   5.756   5.233 -0.4558 -3.4559 -2.2766
 7019TIP3    H242549   3.034   5.811   5.124  0.2013 -0.6438 -0.4365
 7020TIP3   OH242550   2.791   6.344   2.564 -0.5933  0.7002  0.2645
 7020TIP3    H142551   2.816   6.308   2.649 -0.3404  0.5411  0.1214
 7020TIP3    H242552   2.748   6.272   2.519 -0.8966  0.8388  0.3282
 7021TIP3   OH242553   4.650   3.717   1.094  0.3524 -0.3303 -0.2738
 7021TIP3    H142554   4.593   3.641   1.086  1.6613 -1.3966  0.1602
 7021TIP3    H242555   4.651   3.757   1.007 -1.3637 -0.0230 -0.1848
 7022TIP3   OH242556   4.582   5.423   6.188  0.2994  0.4931  0.1333
 7022TIP3    H142557   4.577   5.436   6.094  0.8243 -0.1856  0.0049
 7022TIP3    H242558   4.493   5.398   6.214  0.6234 -1.5726 -0.5531
 7023TIP3   OH242559   5.220   6.691  10.437  0.2496 -0.1765 -0.1844
 7023TIP3    H142560   5.166   6.765  10.463 -0.9668 -0.7283 -1.0564
 7023TIP3    H242561   5.162   6.636  10.384  0.2510 -3.2173  2.6913
 7024TIP3   OH242562   2.416   0.205  12.618 -0.3530 -0.1955  1.1084
 7024TIP3    H142563   2.362   0.265  12.669 -1.2216  2.4720 -2.5692
 7024TIP3    H242564   2.503   0.245  12.616 -0.8213  0.8745 -0.9825
 7025TIP3   OH242565   6.214   6.513   5.263  0.1979  0.1572 -0.3501
 7025TIP3    H142566   6.275   6.508   5.336 -0.3975  0.5312  0.1848
 7025TIP3    H242567   6.221   6.604   5.233  1.9049 -0.4772 -2.0637
 7026TIP3   OH242568   6.689   5.072   1.823 -0.2217  0.6563 -0.4162
 7026TIP3    H142569   6.676   4.981   1.796  0.3182  0.1665  0.8795
 7026TIP3    H242570   6.771   5.098   1.781 -0.2203  0.4438 -0.5470
 7027TIP3   OH242571   5.113   6.644   0.090  0.4071  1.2813 -0.4527
 7027TIP3    H142572   5.201   6.653   0.127  0.1556 -0.1580  0.5718
 7027TIP3    H242573   5.055   6.669   0.162 -0.0453  2.5189 -1.2175
 7028TIP3   OH242574   2.307   1.286   1.880 -0.4817  0.1203 -0.0828
 7028TIP3    H142575   2.220   1.247   1.871 -0.4758 -0.1071  0.7661
 7028TIP3    H242576   2.296   1.352   1.948  0.3693 -1.0653  1.2605
 7029TIP3   OH242577   4.582   5.355  16.698  0.7740 -0.6458  0.2936
 7029TIP3    H142578   4.535   5.345  16.615  0.8822  0.0438  0.1390
 7029TIP3    H242579   4.636   5.276  16.704  3.1398  0.6289 -1.8600
 7030TIP3   OH242580   3.618   2.253  14.348  0.0630 -0.5462 -0.2364
 7030TIP3    H142581   3.529   2.269  14.316 -0.2951 -1.5075  0.2325
 7030TIP3    H242582   3.671   2.322  14.307 -1.2523  1.4877  1.2285
 7031TIP3   OH242583   6.286   1.855   1.544 -0.1304  0.2064  0.4484
 7031TIP3    H142584   6.242   1.939   1.538  0.0849  0.4033  1.4046
 7031TIP3    H242585   6.368   1.868   1.496 -0.2280  0.4486  0.3434
 7032TIP3   OH242586   2.619   3.773   2.557  0.4081  0.5144 -0.1881
 7032TIP3    H142587   2.711   3.792   2.574  0.4887 -0.6992  0.8221
 7032TIP3    H242588   2.620   3.686   2.517 -0.2592  0.8215 -0.9064
 7033TIP3   OH242589   4.394   2.334  12.003 -0.5486 -0.0930  0.1429
 7033TIP3    H142590   4.378   2.321  11.910 -0.9749 -0.3573  0.2468
 7033TIP3    H242591   4.327   2.281  12.046 -2.9751  3.0540  0.6059
 7034TIP3   OH242592   1.666   0.904   0.917  0.0332  0.1786  0.9081
 7034TIP3    H142593   1.597   0.849   0.955  0.8508  0.2488  2.5717
 7034TIP3    H242594   1.729   0.842   0.881 -0.8442  0.1138 -0.6131
 7035TIP3   OH242595   2.934   4.208   1.667 -0.2209 -0.8205  0.1555
 7035TIP3    H142596   3.013   4.181   1.620 -0.2968 -1.8453  0.5931
 7035TIP3    H242597   2.867   4.213   1.599  0.3299  0.5905 -0.3074
 7036TIP3   OH242598   4.510   3.095   0.843  0.0418  0.0439 -0.2299
 7036TIP3    H142599   4.593   3.048   0.839  0.5075  0.6855  1.3206
 7036TIP3    H242600   4.507   3.147   0.763 -0.0416 -1.8338 -1.5174
 7037TIP3   OH242601   2.379   5.224  14.494  0.2173  0.0127 -0.1382
 7037TIP3    H142602   2.284   5.232  14.500  0.4416  3.0380  0.4461
 7037TIP3    H242603   2.407   5.197  14.582 -0.0282 -0.1538 -0.1104
 7038TIP3   OH242604   2.411   4.998   2.882 -0.3591 -0.1187  0.2603
 7038TIP3    H142605   2.356   4.997   2.960  0.6211 -1.4063  0.9717
 7038TIP3    H242606   2.484   4.941   2.903 -0.4610 -1.1526 -1.8970
 7039TIP3   OH242607   1.054   1.572  11.121  0.1626 -0.4433  0.0969
 7039TIP3    H142608   0.988   1.547  11.186 -0.0485 -2.2380 -0.7449
 7039TIP3    H242609   1.053   1.667  11.121 -1.2452 -0.4254  1.3008
 7040TIP3   OH242610   2.843   1.524  14.079 -0.4180 -0.2813  0.1771
 7040TIP3    H142611   2.863   1.538  13.987 -0.3228 -0.1937  0.2123
 7040TIP3    H242612   2.861   1.431  14.094 -1.0664 -0.4515 -0.0581
 7041TIP3   OH242613   3.910   2.704  14.948 -0.7878 -0.3078 -0.0154
 7041TIP3    H142614   3.961   2.768  14.900  0.8315 -1.3988  0.1570
 7041TIP3    H242615   3.855   2.756  15.007 -2.2244  1.0154 -2.3852
 7042TIP3   OH242616   0.313   4.523  12.466  0.2976 -0.0331  0.2964
 7042TIP3    H142617   0.277   4.568  12.389  1.8628  0.1372 -0.3555
 7042TIP3    H242618   0.406   4.514  12.448  0.6990 -0.0070  2.1718
 7043TIP3   OH242619   1.109   2.364  13.814  0.3221 -0.2236 -0.7688
 7043TIP3    H142620   1.188   2.335  13.769  1.4272  1.0666  0.2784
 7043TIP3    H242621   1.116   2.327  13.902  0.6439  1.2668 -0.1304
 7044TIP3   OH242622   1.804   2.931  16.801  0.1068  0.3547  0.1768
 7044TIP3    H142623   1.889   2.920  16.845  0.4788  2.8608  0.2319
 7044TIP3    H242624   1.795   2.853  16.748  2.7212  0.2261 -0.2249
 7045TIP3   OH242625   1.442   6.383   3.838  0.2141  0.2546 -0.3219
 7045TIP3    H142626   1.425   6.300   3.883 -0.5200  0.9261  0.6698
 7045TIP3    H242627   1.362   6.434   3.852  1.3860  1.8637  0.7146
 7046TIP3   OH242628   1.763   4.072  11.065 -0.2755 -0.0064  0.2188
 7046TIP3    H142629   1.703   4.146  11.068 -0.5535 -0.2204  0.0026
 7046TIP3    H242630   1.828   4.096  10.999  0.5303  0.7120  1.2595
 7047TIP3   OH242631   3.608   4.217  11.053 -0.1728 -0.0939 -0.4672
 7047TIP3    H142632   3.686   4.176  11.091  0.0104 -0.4423 -1.2077
 7047TIP3    H242633   3.642   4.293  11.006 -0.3672  0.1590 -0.2049
 7048TIP3   OH242634   4.386   3.990  13.046 -0.1957 -0.2385 -0.9221
 7048TIP3    H142635   4.311   3.970  12.990 -2.0149  2.5718  0.3131
 7048TIP3    H242636   4.451   4.027  12.987  0.2385 -2.4384 -1.9529
 7049TIP3   OH242637   2.231   4.659  12.286 -0.1239  0.4927  0.2012
 7049TIP3    H142638   2.279   4.644  12.204  0.2158 -1.3845  0.6998
 7049TIP3    H242639   2.141   4.636  12.266 -0.0371  0.0131  0.3385
 7050TIP3   OH242640   0.788   0.010  11.083 -0.2283 -0.5712 -0.0102
 7050TIP3    H142641   0.695   0.010  11.061 -1.0643  0.1102  3.1092
 7050TIP3    H242642   0.800   0.087  11.137  1.9251 -1.2365  0.5489
 7051TIP3   OH242643   5.291   5.583   0.654  0.0764 -0.5087 -0.0242
 7051TIP3    H142644   5.203   5.551   0.677  0.9120 -1.7914  1.5956
 7051TIP3    H242645   5.305   5.553   0.564 -0.3735 -2.0942  0.4045
 7052TIP3   OH242646   0.651   2.451  12.511  0.4532 -0.3983  0.1290
 7052TIP3    H142647   0.570   2.403  12.529  1.4683 -2.4318 -0.4884
 7052TIP3    H242648   0.627   2.510  12.439 -0.5147 -0.9218 -0.0057
 7053TIP3   OH242649   3.112   5.348  16.110 -0.4610  0.6146  0.1995
 7053TIP3    H142650   3.109   5.442  16.130  0.1448  0.6068  0.3558
 7053TIP3    H242651   3.194   5.318  16.149 -0.5548  0.0580 -0.0221
 7054TIP3   OH242652   1.178   4.180  16.714  0.2205 -0.3253 -0.1640
 7054TIP3    H142653   1.226   4.251  16.672 -2.1547  1.6931  0.2674
 7054TIP3    H242654   1.169   4.207  16.805  0.0871 -1.6888  0.2601
 7055TIP3   OH242655   2.169   2.713  15.944 -0.0659 -0.1062  0.0650
 7055TIP3    H142656   2.079   2.684  15.934 -1.0023  2.5832  0.1552
 7055TIP3    H242657   2.169   2.768  16.022  1.4007  0.8346 -0.5519
 7056TIP3   OH242658   4.560   1.403  10.828  0.1786  0.5337 -0.9593
 7056TIP3    H142659   4.471   1.400  10.863  0.4675  2.1080  0.0264
 7056TIP3    H242660   4.553   1.461  10.752  0.3793  0.8184 -0.7639
 7057TIP3   OH242661   2.084   1.123  13.228 -0.5320 -0.2201 -0.4433
 7057TIP3    H142662   2.146   1.077  13.285  0.0233 -0.2340 -1.0428
 7057TIP3    H242663   2.135   1.195  13.191 -1.4690  1.0621  0.6898
 7058TIP3   OH242664   2.675   2.822  13.224  0.0779  0.0582 -0.4033
 7058TIP3    H142665   2.681   2.791  13.314  0.7629  0.0064 -0.4641
 7058TIP3    H242666   2.660   2.743  13.172  1.2740 -0.1304 -0.4983
 7059TIP3   OH242667   2.996   4.799   2.185 -0.3060  0.4962  0.3183
 7059TIP3    H142668   3.089   4.812   2.168 -0.4346  1.8053  0.5272
 7059TIP3    H242669   2.993   4.757   2.271  0.1111 -0.4333 -0.1106
 7060TIP3   OH242670   2.477   2.711  14.302  0.2519  0.3510  0.0194
 7060TIP3    H142671   2.473   2.763  14.382  0.9916  1.1780 -0.4644
 7060TIP3    H242672   2.538   2.640  14.321  2.8818  2.2557 -0.7145
 7061TIP3   OH242673   4.627   2.131  11.545 -0.4261 -0.9050 -0.2821
 7061TIP3    H142674   4.720   2.116  11.564 -0.7462 -0.8957  1.4730
 7061TIP3    H242675   4.589   2.043  11.546 -0.2849 -1.0302 -2.1389
 7062TIP3   OH242676   5.832   6.049  13.574 -0.0327  0.4426  0.0058
 7062TIP3    H142677   5.863   6.111  13.508  0.5152  1.3115  1.0595
 7062TIP3    H242678   5.843   5.963  13.532  1.1640  0.9174 -0.7024
 7063TIP3   OH242679   2.590   2.102   0.754 -0.5956  0.3182  0.0678
 7063TIP3    H142680   2.624   2.051   0.827 -0.5992  1.4292  0.8800
 7063TIP3    H242681   2.497   2.080   0.750 -0.4955 -0.1040  0.1014
 7064TIP3   OH242682   2.283   3.865   1.099 -0.7098  0.3452 -0.0779
 7064TIP3    H142683   2.272   3.939   1.040 -0.0196  0.9204  0.5070
 7064TIP3    H242684   2.207   3.809   1.081 -0.9289  0.9041 -0.9319
 7065TIP3   OH242685   4.220   2.922   4.985 -0.4091  0.2595 -0.1443
 7065TIP3    H142686   4.250   2.952   5.071 -0.6657 -0.1086  0.0768
 7065TIP3    H242687   4.288   2.952   4.925 -0.0298  0.1832  0.2359
 7066TIP3   OH242688   3.429   0.189   5.436  0.1793 -0.1379  0.1072
 7066TIP3    H142689   3.463   0.175   5.524 -0.3939  0.7311  0.4748
 7066TIP3    H242690   3.433   0.102   5.395 -0.1529 -0.6832  1.1945
 7067TIP3   OH242691   2.368   3.647  11.887  0.3173  0.1872  0.0159
 7067TIP3    H142692   2.358   3.742  11.888 -0.4494  0.1182 -0.5988
 7067TIP3    H242693   2.348   3.620  11.977  1.4689  0.6793  0.4467
 7068TIP3   OH242694   4.165   3.658   5.822 -0.3560 -0.4751  0.3945
 7068TIP3    H142695   4.153   3.721   5.893  0.2082 -1.9297  1.8606
 7068TIP3    H242696   4.078   3.650   5.783 -0.9211 -0.3389  1.5709
 7069TIP3   OH242697   3.728   1.247  12.664  0.6379  0.1503  0.1646
 7069TIP3    H142698   3.714   1.186  12.591  0.8935  1.1308 -0.7278
 7069TIP3    H242699   3.643   1.290  12.676  0.1661 -1.0514  1.4667
 7070TIP3   OH242700   2.568   6.053   5.809 -0.3215 -0.5173 -1.1035
 7070TIP3    H142701   2.489   6.105   5.796 -1.1951 -2.1076 -2.5998
 7070TIP3    H242702   2.544   5.965   5.780  1.1184 -1.7845  1.2027
 7071TIP3   OH242703   0.056   3.890  16.863 -0.2342 -0.1017  0.0003
 7071TIP3    H142704   0.046   3.801  16.831  0.3017  0.0451 -0.6261
 7071TIP3    H242705   0.130   3.886  16.924 -1.5251 -0.4602  1.5915
 7072TIP3   OH242706   6.324   0.472   2.920  0.2943 -0.2798  0.5209
 7072TIP3    H142707   6.273   0.391   2.927 -2.5637  1.2436 -0.7446
 7072TIP3    H242708   6.343   0.480   2.826  1.5353 -0.0072  0.7773
 7073TIP3   OH242709   0.811   0.710   3.127 -0.2183 -0.2976  0.1429
 7073TIP3    H142710   0.841   0.774   3.191 -0.6481  1.5468 -1.4107
 7073TIP3    H242711   0.872   0.719   3.053 -0.3056 -1.6823 -0.1389
 7074TIP3   OH242712   6.428   3.867  16.241  0.4363  0.4001  0.2751
 7074TIP3    H142713   6.350   3.811  16.246  0.3463  0.3864 -1.0521
 7074TIP3    H242714   6.501   3.806  16.231  0.3429  0.4943 -1.1224
 7075TIP3   OH242715   0.731   6.447   5.763 -0.0089 -0.2491  0.1751
 7075TIP3    H142716   0.646   6.472   5.726 -0.3042 -1.4476  0.0065
 7075TIP3    H242717   0.791   6.514   5.731 -1.2690  2.0779  2.3110
 7076TIP3   OH242718   6.168   4.456  14.989 -0.5376  0.0618 -0.0040
 7076TIP3    H142719   6.074   4.441  14.984 -0.5526  0.1649 -0.0374
 7076TIP3    H242720   6.176   4.539  15.037 -0.4653  0.0824 -0.0517
 7077TIP3   OH242721   1.578   3.395   3.228  0.2779 -0.1555 -0.7397
 7077TIP3    H142722   1.511   3.422   3.165 -0.4763 -1.2573 -0.4553
 7077TIP3    H242723   1.654   3.374   3.175  1.0401  2.7368 -0.9572
 7078TIP3   OH242724   1.022   0.292  12.905  0.1893 -0.4167  0.1586
 7078TIP3    H142725   0.972   0.211  12.918 -1.1307  0.4897  0.9649
 7078TIP3    H242726   1.025   0.333  12.991  4.3160 -1.4493  0.7304
 7079TIP3   OH242727   0.560   0.311  11.571  0.4464  0.3899  0.4454
 7079TIP3    H142728   0.525   0.341  11.656  0.1986 -0.4387  0.6422
 7079TIP3    H242729   0.482   0.287  11.521  0.6001  0.7979  0.0033
 7080TIP3   OH242730   0.748   1.750  12.398 -0.1059  0.1712 -0.1603
 7080TIP3    H142731   0.781   1.828  12.355  0.1530 -0.1165 -0.4926
 7080TIP3    H242732   0.663   1.775  12.433 -0.8233  0.1198 -1.7661
 7081TIP3   OH242733   6.180   1.092  15.163  0.5940  0.4881 -0.6158
 7081TIP3    H142734   6.142   1.090  15.250  0.2948 -3.1986 -0.6468
 7081TIP3    H242735   6.263   1.044  15.172  0.5650  0.0363 -2.2984
 7082TIP3   OH242736   3.909   5.036  11.265 -0.0956 -0.7916 -1.0748
 7082TIP3    H142737   3.977   5.075  11.211  0.0601 -0.8023 -0.8904
 7082TIP3    H242738   3.927   4.942  11.261  1.0210 -0.6863  0.4267
 7083TIP3   OH242739   4.640   3.132  11.331  0.1044  0.3081  0.3167
 7083TIP3    H142740   4.632   3.198  11.262  0.6596 -0.0483 -0.1052
 7083TIP3    H242741   4.650   3.050  11.283  1.8079  0.2084  0.7872
 7084TIP3   OH242742   3.233   6.237   2.555  0.1789 -0.3961 -0.6311
 7084TIP3    H142743   3.141   6.212   2.548 -0.7503  2.2002  0.7326
 7084TIP3    H242744   3.271   6.218   2.470 -1.8451 -0.7630 -1.4932
 7085TIP3   OH242745   3.297   3.711  11.855  0.1540  0.5810 -0.3911
 7085TIP3    H142746   3.223   3.721  11.915 -0.5597  3.1802 -1.5731
 7085TIP3    H242747   3.355   3.784  11.875  3.0351 -1.9160  1.1606
 7086TIP3   OH242748   3.250   6.668  12.716  0.1839 -0.3028 -0.6369
 7086TIP3    H142749   3.205   6.745  12.750  1.0568 -0.4826  1.0691
 7086TIP3    H242750   3.188   6.596  12.729  0.3871 -0.3134  0.3215
 7087TIP3   OH242751   2.554   4.039   5.264  0.2493 -0.0283  0.0256
 7087TIP3    H142752   2.647   4.063   5.261  0.2941 -0.1420  0.4900
 7087TIP3    H242753   2.511   4.116   5.300  0.2925 -0.3405  0.7612
 7088TIP3   OH242754   5.726   3.499  15.561 -0.4216  0.1751 -0.8532
 7088TIP3    H142755   5.796   3.557  15.593  0.4171 -0.8573 -0.7513
 7088TIP3    H242756   5.696   3.453  15.639 -1.6790  1.0521 -0.7866
 7089TIP3   OH242757   1.239   4.049   2.872 -0.0489  0.4214 -0.0801
 7089TIP3    H142758   1.322   4.001   2.878 -0.9467 -1.3326 -0.8150
 7089TIP3    H242759   1.219   4.050   2.778 -0.5739  1.3373  0.0351
 7090TIP3   OH242760   6.041   2.883  14.888  0.1253 -0.3882  0.1823
 7090TIP3    H142761   6.136   2.888  14.880  0.1840 -0.2097  0.8538
 7090TIP3    H242762   6.008   2.958  14.839  0.3146 -0.6163 -0.2917
 7091TIP3   OH242763   2.887   0.613  15.649  0.2215 -0.0607  0.2045
 7091TIP3    H142764   2.840   0.551  15.593 -0.7956  2.2274 -1.6577
 7091TIP3    H242765   2.853   0.597  15.737 -0.7505 -1.4488 -0.3969
 7092TIP3   OH242766   4.589   2.568   3.635 -0.1789  0.5666 -0.2376
 7092TIP3    H142767   4.589   2.664   3.627 -0.6970  0.5554 -0.4117
 7092TIP3    H242768   4.661   2.540   3.578 -0.4001  0.8180 -0.6498
 7093TIP3   OH242769   6.242   0.908   1.127  0.4574  0.1541 -0.2366
 7093TIP3    H142770   6.316   0.922   1.186  0.8272 -1.4303 -0.2790
 7093TIP3    H242771   6.181   0.853   1.178 -0.3669  0.8456 -0.4538
 7094TIP3   OH242772   4.430   0.980   4.522 -0.6572  0.2893  0.0198
 7094TIP3    H142773   4.417   1.074   4.533 -0.2930  0.2460  0.8854
 7094TIP3    H242774   4.368   0.955   4.453 -0.5298  1.2125 -0.4451
 7095TIP3   OH242775   6.709   5.609   3.791  0.1199 -0.0841  0.0358
 7095TIP3    H142776   6.647   5.631   3.722 -0.8949 -0.2145  0.8791
 7095TIP3    H242777   6.657   5.614   3.872  0.6050 -2.5194  0.5502
 7096TIP3   OH242778   1.146   4.616  11.372  0.2092 -0.2127 -0.0907
 7096TIP3    H142779   1.140   4.711  11.362  0.3097 -0.2804 -0.8968
 7096TIP3    H242780   1.073   4.593  11.430 -0.4356  0.2509 -0.6980
 7097TIP3   OH242781   0.053   4.311  15.585  0.1534 -0.4846  0.9710
 7097TIP3    H142782   0.024   4.262  15.508 -1.8089 -1.2134  2.0949
 7097TIP3    H242783   0.119   4.255  15.626 -1.4956 -1.8957  1.8055
 7098TIP3   OH242784   0.742   0.010   5.475 -0.2744 -0.4533  0.6048
 7098TIP3    H142785   0.835   0.032   5.473 -0.5296  0.7545  0.8385
 7098TIP3    H242786   0.727  -0.040   5.395  0.6964 -1.2283  0.8891
 7099TIP3   OH242787   5.141   2.748   3.856  0.2032  0.1439  0.0185
 7099TIP3    H142788   5.172   2.672   3.905  0.6089 -0.1361 -0.6662
 7099TIP3    H242789   5.046   2.737   3.851  0.3040 -0.5319 -0.4475
 7100TIP3   OH242790   3.284   2.199   6.319  0.6001 -0.6053 -0.5534
 7100TIP3    H142791   3.223   2.172   6.388  0.9306 -0.1120 -0.0524
 7100TIP3    H242792   3.357   2.138   6.328  0.9268 -0.1497 -0.0391
 7101TIP3   OH242793   2.898   0.650   1.989  0.6891 -0.1416 -0.3907
 7101TIP3    H142794   2.838   0.720   2.016  0.4889  0.0647 -1.3231
 7101TIP3    H242795   2.841   0.574   1.976  1.0232 -0.7692  1.5250
 7102TIP3   OH242796   3.263   4.933  11.879  0.1895 -0.2673 -0.8731
 7102TIP3    H142797   3.212   4.971  11.807 -1.2660 -0.5333 -0.0279
 7102TIP3    H242798   3.333   4.996  11.895  1.4070 -0.8551 -3.3988
 7103TIP3   OH242799   3.089   0.233  11.541 -0.0818  0.3909 -0.5206
 7103TIP3    H142800   3.169   0.270  11.501 -0.6714  1.3807 -0.8276
 7103TIP3    H242801   3.048   0.184  11.470  0.8630 -1.1743 -0.0268
 7104TIP3   OH242802   4.663   3.133  10.648  0.2625 -0.3588 -0.1532
 7104TIP3    H142803   4.754   3.157  10.632 -0.1774  1.9734  0.5066
 7104TIP3    H242804   4.646   3.061  10.586  2.3874 -0.5368 -0.6048
 7105TIP3   OH242805   4.996   5.545   3.191 -0.2890  0.2670 -0.5079
 7105TIP3    H142806   4.966   5.564   3.102 -2.3090  0.5916  0.1945
 7105TIP3    H242807   4.940   5.599   3.247  0.4593 -0.4776  1.0109
 7106TIP3   OH242808   1.059   3.925  17.087 -0.7664  0.2468 -0.4568
 7106TIP3    H142809   1.053   3.830  17.087  2.5959 -0.0755 -0.3435
 7106TIP3    H242810   1.131   3.945  17.027  0.1061  2.5349  1.1876
 7107TIP3   OH242811   5.274   1.514   1.553 -0.4723  0.3539 -0.1537
 7107TIP3    H142812   5.252   1.466   1.473  0.6290  3.3704 -2.4792
 7107TIP3    H242813   5.339   1.460   1.597 -0.9656 -1.3148 -1.3857
 7108TIP3   OH242814   1.320   1.497   2.794  0.7989 -0.3178 -0.0812
 7108TIP3    H142815   1.298   1.551   2.871  0.9383 -1.1672  0.5681
 7108TIP3    H242816   1.371   1.556   2.738 -2.8695  1.7079 -1.6241
 7109TIP3   OH242817   0.592   4.655   0.720  0.0133 -0.5694  0.1080
 7109TIP3    H142818   0.536   4.629   0.794 -3.2348  0.5915 -1.7166
 7109TIP3    H242819   0.649   4.723   0.756 -1.2473 -0.2498  1.6380
 7110TIP3   OH242820   1.476   3.290  16.407 -0.0426  0.5040  0.2747
 7110TIP3    H142821   1.435   3.299  16.493 -0.0872  0.9058  0.2112
 7110TIP3    H242822   1.413   3.327  16.345  0.4328  1.1958  0.1874
 7111TIP3   OH242823   4.691   5.783   1.054 -0.3649 -0.2964  0.2023
 7111TIP3    H142824   4.732   5.698   1.072 -0.3980 -0.0507  1.4898
 7111TIP3    H242825   4.600   5.761   1.034 -0.3613 -0.5669  0.4726
 7112TIP3   OH242826   1.346   1.462   0.193  0.0930  0.4757  0.2037
 7112TIP3    H142827   1.411   1.391   0.195  0.2737  0.6589  1.2133
 7112TIP3    H242828   1.295   1.449   0.273 -0.3523  1.0514  0.0155
 7113TIP3   OH242829   1.839   0.776  10.850 -0.0025 -0.1916  0.4244
 7113TIP3    H142830   1.747   0.756  10.830 -0.0700  0.0504  0.4890
 7113TIP3    H242831   1.882   0.776  10.764 -0.0477 -0.3827  0.4009
 7114TIP3   OH242832   3.798   1.243  14.659 -0.1852 -0.2082 -0.3520
 7114TIP3    H142833   3.718   1.219  14.705 -1.4930  3.1586 -0.6157
 7114TIP3    H242834   3.836   1.159  14.633 -2.6226 -2.0015  1.3903
 7115TIP3   OH242835   0.009   1.743   1.032  0.7017 -0.0936  0.3777
 7115TIP3    H142836   0.031   1.730   1.124  0.1764 -3.2556  0.1720
 7115TIP3    H242837  -0.070   1.690   1.019  0.7177  0.3439 -1.8889
 7116TIP3   OH242838   2.682   5.914  10.251 -0.0534 -0.3574  0.2391
 7116TIP3    H142839   2.660   5.982  10.186 -0.5378 -1.2276 -0.5321
 7116TIP3    H242840   2.612   5.920  10.315 -0.0461 -0.0719  0.2243
 7117TIP3   OH242841   1.033   1.649  16.991  0.4307  0.4493 -0.1792
 7117TIP3    H142842   1.081   1.643  17.074 -1.1667  0.4679  0.8141
 7117TIP3    H242843   1.052   1.736  16.958 -0.0527  1.0191  0.9611
 7118TIP3   OH242844   3.310   4.418   3.608 -0.4985 -0.1992  0.2509
 7118TIP3    H142845   3.382   4.482   3.616  0.9844 -1.5632 -1.3589
 7118TIP3    H242846   3.274   4.434   3.521  0.0724 -1.6884 -0.2840
 7119TIP3   OH242847   4.169   6.793  15.873  0.2025  0.3267  0.1914
 7119TIP3    H142848   4.191   6.841  15.793  0.4036  1.3846  0.8495
 7119TIP3    H242849   4.142   6.861  15.935  0.9982 -0.3481  1.3292
 7120TIP3   OH242850   5.923   6.676   5.145 -0.0046  0.1478  0.0505
 7120TIP3    H142851   5.926   6.582   5.131  0.5833 -0.0035  1.0886
 7120TIP3    H242852   5.901   6.713   5.059  1.8324 -0.7963 -0.8737
 7121TIP3   OH242853   5.015   3.514   5.169 -0.7761 -0.4528  0.2477
 7121TIP3    H142854   4.961   3.465   5.231 -0.9750 -1.6521 -0.8286
 7121TIP3    H242855   4.970   3.506   5.085  0.8730 -1.2416 -0.6238
 7122TIP3   OH242856   6.481   1.738  16.416  0.1671 -0.5098 -0.0834
 7122TIP3    H142857   6.555   1.742  16.477  0.4250 -1.3927 -0.3136
 7122TIP3    H242858   6.513   1.777  16.335 -0.0324  0.2582  0.2009
 7123TIP3   OH242859   2.683   1.476   4.922  0.2668 -0.2387 -0.1349
 7123TIP3    H142860   2.777   1.485   4.910  0.8656  0.5650  3.9598
 7123TIP3    H242861   2.661   1.537   4.992 -3.2775 -0.7273 -0.6067
 7124TIP3   OH242862   2.103   6.411  13.221  0.3501 -0.1695 -0.0818
 7124TIP3    H142863   2.116   6.360  13.301 -0.4199 -0.3843 -0.0845
 7124TIP3    H242864   2.040   6.360  13.170 -0.8673  1.0492  0.1482
 7125TIP3   OH242865   5.363   5.633   3.469 -0.4029  0.1857 -0.4970
 7125TIP3    H142866   5.429   5.700   3.484  3.3810 -2.7856 -2.2337
 7125TIP3    H242867   5.293   5.679   3.423  1.2961  3.1915 -0.3433
 7126TIP3   OH242868   0.610   4.303  14.832 -0.1778 -0.5501  0.4829
 7126TIP3    H142869   0.601   4.378  14.891  1.9000 -0.3228  0.5790
 7126TIP3    H242870   0.611   4.343  14.745  0.3294 -0.5195  0.5010
 7127TIP3   OH242871   5.682   2.254   1.799 -0.3034 -0.1165 -0.1199
 7127TIP3    H142872   5.730   2.306   1.734 -0.2737 -1.0147 -0.8393
 7127TIP3    H242873   5.709   2.290   1.883 -0.1441  0.9046 -0.5968
 7128TIP3   OH242874   4.739   1.757  15.545 -0.2325 -0.1047 -0.8683
 7128TIP3    H142875   4.814   1.756  15.605 -1.6825  0.7323  1.0722
 7128TIP3    H242876   4.742   1.844  15.505 -1.2893  0.7944  0.8450
 7129TIP3   OH242877   1.043   2.852  11.867 -0.0362  0.0790 -0.1669
 7129TIP3    H142878   1.114   2.894  11.916  0.1426 -0.0018 -0.3554
 7129TIP3    H242879   1.085   2.777  11.824 -0.5956 -1.0453  1.1696
 7130TIP3   OH242880   6.216   1.178   2.241  0.0066  0.9127  0.7239
 7130TIP3    H142881   6.155   1.106   2.228  1.0107  0.6003 -3.6452
 7130TIP3    H242882   6.168   1.256   2.215  0.4139  1.1366  0.6265
 7131TIP3   OH242883   4.608   0.162  11.464 -0.5441 -0.2826  0.3894
 7131TIP3    H142884   4.597   0.222  11.538  0.9782 -0.5845  0.8989
 7131TIP3    H242885   4.682   0.197  11.415 -1.4868 -0.1191 -1.0075
 7132TIP3   OH242886   1.668   3.251  11.308  0.0375  0.0141 -0.5093
 7132TIP3    H142887   1.613   3.280  11.381  0.4551  0.0903 -0.2189
 7132TIP3    H242888   1.691   3.332  11.262  0.5319  0.0661 -0.1787
 7133TIP3   OH242889   6.150   3.591   5.345  0.3296  0.3584 -0.0481
 7133TIP3    H142890   6.165   3.653   5.417  1.7533  0.9838 -0.8332
 7133TIP3    H242891   6.151   3.646   5.267  1.3348 -0.5972 -0.7361
 7134TIP3   OH242892   2.578   2.683   1.580 -0.1062 -0.5163 -0.6611
 7134TIP3    H142893   2.543   2.766   1.612  1.2975  0.0264 -0.4625
 7134TIP3    H242894   2.580   2.627   1.657  0.7828 -0.0784 -0.3532
 7135TIP3   OH242895   4.807   2.151   2.815 -0.5016 -0.0392 -0.5083
 7135TIP3    H142896   4.847   2.088   2.754 -1.1183 -0.0148 -0.9501
 7135TIP3    H242897   4.728   2.181   2.769  0.0213  1.4112 -0.5136
 7136TIP3   OH242898   1.968   1.752  11.104  0.1589  0.1445  0.5313
 7136TIP3    H142899   2.041   1.731  11.045  0.1965 -1.2836  1.0560
 7136TIP3    H242900   1.891   1.716  11.061 -0.0513  0.5057  0.6019
 7137TIP3   OH242901   1.799   4.724   1.688  0.4083  0.1638 -0.1140
 7137TIP3    H142902   1.889   4.694   1.703  0.6125  0.2017 -1.1464
 7137TIP3    H242903   1.806   4.820   1.684  0.8961  0.1150 -3.1563
 7138TIP3   OH242904   0.557   5.207  16.821 -0.0278 -0.2725 -0.1238
 7138TIP3    H142905   0.512   5.162  16.893  1.3943 -1.0577  0.3122
 7138TIP3    H242906   0.627   5.256  16.864  1.5446 -1.6280 -1.0324
 7139TIP3   OH242907   0.495   5.370   0.592 -0.1452 -0.5174  0.4549
 7139TIP3    H142908   0.404   5.348   0.572 -0.6940  0.3056  1.8725
 7139TIP3    H242909   0.497   5.466   0.587  0.4279 -0.4837  1.2144
 7140TIP3   OH242910   5.580   1.303  11.150 -0.1337  0.1273 -0.0353
 7140TIP3    H142911   5.493   1.319  11.187 -0.2133 -3.3597  1.7092
 7140TIP3    H242912   5.641   1.338  11.216 -0.2679 -1.0981  0.7632
 7141TIP3   OH242913   3.748   2.466  14.241  0.5185  0.5090 -0.0076
 7141TIP3    H142914   3.718   2.520  14.314  1.0482  0.4033  0.2940
 7141TIP3    H242915   3.713   2.509  14.163  2.4403  2.3644  0.0611
 7142TIP3   OH242916   1.812   6.381  16.352  0.8212 -0.1377 -0.1428
 7142TIP3    H142917   1.775   6.293  16.342  0.7749  0.0426 -1.8671
 7142TIP3    H242918   1.897   6.376  16.310  1.4751  0.2794  1.0707
 7143TIP3   OH242919   1.394   2.449   3.683  0.0107  0.3617  0.0102
 7143TIP3    H142920   1.340   2.375   3.711  1.7620 -1.1171 -0.3553
 7143TIP3    H242921   1.461   2.410   3.627  1.3862  2.1417  0.3348
 7144TIP3   OH242922   0.752   2.381  13.955  0.0744 -0.5880 -0.4608
 7144TIP3    H142923   0.737   2.440  13.881  0.5486 -1.1336 -1.0035
 7144TIP3    H242924   0.795   2.435  14.021 -1.7241  0.3091  0.0477
 7145TIP3   OH242925   5.237   3.767   3.548 -0.4857  0.0782  0.6474
 7145TIP3    H142926   5.239   3.860   3.526  1.0704  0.0798  0.6985
 7145TIP3    H242927   5.153   3.755   3.592 -0.7225  1.4565  0.6247
 7146TIP3   OH242928   0.417   6.124   0.000 -0.2373 -0.0979  0.2223
 7146TIP3    H142929   0.417   6.069  -0.079  0.5984 -0.2745  0.3409
 7146TIP3    H242930   0.509   6.143   0.017 -0.5406  2.5827 -0.6491
 7147TIP3   OH242931   5.478   3.404   3.307  0.2184 -0.0655  0.3721
 7147TIP3    H142932   5.482   3.325   3.253  0.8900  0.2173 -0.0119
 7147TIP3    H242933   5.504   3.475   3.247 -0.5535  0.4698  0.6604
 7148TIP3   OH242934   1.294   5.530  13.822 -0.2288  0.0073  0.3936
 7148TIP3    H142935   1.383   5.559  13.801 -0.3080 -1.4566 -2.4700
 7148TIP3    H242936   1.306   5.457  13.884  0.6920 -0.7918 -0.6767
 7149TIP3   OH242937   2.875   4.018   0.455 -0.0168 -0.7036  0.3939
 7149TIP3    H142938   2.880   4.113   0.465  2.6860 -0.4773 -1.8790
 7149TIP3    H242939   2.789   4.002   0.417  0.4329  1.1912 -1.6081
 7150TIP3   OH242940   5.974   6.388   4.043  0.4500 -0.2931  0.2199
 7150TIP3    H142941   5.994   6.345   4.126  1.0071 -1.1342 -0.3289
 7150TIP3    H242942   6.042   6.356   3.983 -0.5581 -0.5345 -0.8263
 7151TIP3   OH242943   6.292   0.815   5.343 -0.0109 -0.6853  0.7345
 7151TIP3    H142944   6.232   0.755   5.298  0.1661  0.3700 -0.9676
 7151TIP3    H242945   6.314   0.881   5.278 -0.1552  1.2351  2.5431
 7152TIP3   OH242946   0.066   2.514  15.176  0.1170  0.5741 -0.0899
 7152TIP3    H142947   0.123   2.589  15.163 -2.8030  2.9784 -0.0993
 7152TIP3    H242948   0.008   2.540  15.248 -1.0537 -1.6688 -0.1160
 7153TIP3   OH242949   2.448   2.956   6.268 -0.4120 -0.7056  0.4741
 7153TIP3    H142950   2.494   2.945   6.185 -0.3749 -1.0052  0.5360
 7153TIP3    H242951   2.516   2.943   6.335  0.0904  1.7249  0.5513
 7154TIP3   OH242952   5.905   0.494  14.793 -0.0188  0.3743  0.0900
 7154TIP3    H142953   5.809   0.500  14.790 -0.0334  0.9151  1.1594
 7154TIP3    H242954   5.928   0.442  14.716 -1.1845  0.0804 -0.0829
 7155TIP3   OH242955   3.496   1.432   6.397 -0.1893  0.5655 -0.3250
 7155TIP3    H142956   3.529   1.367   6.336 -1.1578 -1.5511  1.2703
 7155TIP3    H242957   3.574   1.469   6.438  0.3923  0.8276 -1.6222
 7156TIP3   OH242958   3.733   1.735  15.121 -0.4456  0.5075  0.0238
 7156TIP3    H142959   3.781   1.818  15.116 -1.9582  1.4307  0.2104
 7156TIP3    H242960   3.766   1.693  15.201  0.9566  0.4990 -0.5314
 7157TIP3   OH242961   6.441   0.142   4.741 -0.4509 -0.3981 -0.1054
 7157TIP3    H142962   6.506   0.207   4.767  1.6522 -2.4095 -0.0626
 7157TIP3    H242963   6.420   0.095   4.822 -0.8090 -0.7389 -0.3914
 7158TIP3   OH242964   1.233   1.933   2.017  0.0894  0.4523 -0.1346
 7158TIP3    H142965   1.312   1.988   2.011  2.2980 -2.6079 -1.5399
 7158TIP3    H242966   1.242   1.887   2.100 -0.2608  0.1455 -0.2643
 7159TIP3   OH242967   1.320   0.638  13.177 -0.2143  0.0440  0.1688
 7159TIP3    H142968   1.328   0.670  13.267  0.4153 -0.9137  0.4728
 7159TIP3    H242969   1.239   0.677  13.144  0.1224  1.2849  0.7739
 7160TIP3   OH242970   3.169   1.441   0.591  0.5418 -0.5758 -0.8329
 7160TIP3    H142971   3.182   1.503   0.662  2.6351 -1.3709 -0.4404
 7160TIP3    H242972   3.205   1.484   0.514 -1.7701  0.3050 -1.4945
 7161TIP3   OH242973   0.354   4.054   4.248 -0.6226  0.2705  0.4034
 7161TIP3    H142974   0.363   3.988   4.317 -1.0573  0.7928  0.9708
 7161TIP3    H242975   0.411   4.023   4.177  1.3378  0.6676  1.7068
 7162TIP3   OH242976   5.390   6.392  12.147 -0.8182 -0.4564 -0.3401
 7162TIP3    H142977   5.409   6.484  12.164  0.7455 -0.5237 -1.4965
 7162TIP3    H242978   5.461   6.363  12.089 -1.6028 -2.2316 -0.4813
 7163TIP3   OH242979   2.568   3.437  15.658 -0.7592 -0.2310 -0.5707
 7163TIP3    H142980   2.481   3.461  15.688 -1.2267 -1.8357 -0.5546
 7163TIP3    H242981   2.609   3.394  15.734 -0.0642  0.2346 -0.6697
 7164TIP3   OH242982   4.189   0.230  12.653 -0.5468  0.0995 -0.3947
 7164TIP3    H142983   4.191   0.292  12.580 -2.1841  0.1849 -0.4193
 7164TIP3    H242984   4.106   0.249  12.697 -1.3617 -2.3716 -0.6941
 7165TIP3   OH242985   4.559   4.683   2.861  0.6602 -0.3588 -0.3002
 7165TIP3    H142986   4.584   4.739   2.934  1.4598  2.6838 -2.7067
 7165TIP3    H242987   4.555   4.595   2.899  0.5448  1.0691  3.4504
 7166TIP3   OH242988   4.730   5.373   4.872  0.6372 -0.1171  0.2636
 7166TIP3    H142989   4.647   5.331   4.895 -1.4810  4.0429  1.0650
 7166TIP3    H242990   4.785   5.360   4.948 -0.1635 -0.8112  0.7511
 7167TIP3   OH242991   1.290   4.360   2.358 -0.1760 -0.2951 -0.2659
 7167TIP3    H142992   1.371   4.312   2.373 -1.0278 -1.5573  0.4465
 7167TIP3    H242993   1.307   4.448   2.392 -0.0675 -1.3938  2.8065
 7168TIP3   OH242994   5.996   4.862  16.747 -0.0500 -0.2151  0.2620
 7168TIP3    H142995   5.917   4.906  16.715  0.0699 -0.5660 -0.5428
 7168TIP3    H242996   6.066   4.926  16.733  0.2680 -0.9222 -1.7075
 7169TIP3   OH242997   5.908   4.760   0.527 -0.8590 -0.4703  0.1007
 7169TIP3    H142998   5.966   4.686   0.546 -1.4441 -1.1178 -0.5254
 7169TIP3    H242999   5.921   4.821   0.600 -0.0774 -1.0128  0.4301
 7170TIP3   OH243000   5.751   0.751   1.776  0.1340 -0.7831  0.0241
 7170TIP3    H143001   5.766   0.699   1.696 -0.4853 -0.3702 -0.3739
 7170TIP3    H243002   5.739   0.686   1.845  2.1574 -1.1450  0.0947
 7171TIP3   OH243003   3.428   0.412  12.751  0.3179 -0.1359  0.2234
 7171TIP3    H143004   3.503   0.354  12.769 -0.8571 -1.7241  0.2073
 7171TIP3    H243005   3.372   0.402  12.828 -0.7821 -0.4738 -0.5998
 7172TIP3   OH243006   0.914   1.308   0.486 -0.4617  0.2143 -0.3744
 7172TIP3    H143007   0.999   1.336   0.517 -1.5975  1.8726  1.4299
 7172TIP3    H243008   0.884   1.244   0.550  0.5308 -2.6082 -2.5084
 7173TIP3   OH243009   2.810   3.445  15.933 -0.1644  0.4699  0.1583
 7173TIP3    H143010   2.724   3.480  15.953 -1.6370 -2.0368 -1.2706
 7173TIP3    H243011   2.849   3.510  15.874 -0.7190  1.9718  1.3602
 7174TIP3   OH243012   3.927   3.493   3.232 -0.3716 -0.5910 -0.1605
 7174TIP3    H143013   3.983   3.436   3.284 -0.5789 -1.6596 -1.0581
 7174TIP3    H243014   3.934   3.579   3.273  1.6827 -0.7591 -0.0525
 7175TIP3   OH243015   4.343   6.124  15.003  0.2728 -0.4438  0.1366
 7175TIP3    H143016   4.302   6.182  14.939  2.1435 -0.3262 -1.0327
 7175TIP3    H243017   4.437   6.135  14.989  0.7591 -0.5267  2.8408
 7176TIP3   OH243018   2.633   0.428  10.263  0.4747  0.3840  0.4787
 7176TIP3    H143019   2.704   0.466  10.211  0.0417 -0.8976 -1.1133
 7176TIP3    H243020   2.633   0.335  10.241 -1.1225  0.1929  1.1395
 7177TIP3   OH243021   0.343   5.274   6.562 -0.4163 -1.1911 -0.4139
 7177TIP3    H143022   0.396   5.195   6.556  0.9333 -0.2300 -1.9016
 7177TIP3    H243023   0.295   5.277   6.478  0.4147  0.1256 -0.8676
 7178TIP3   OH243024   4.813   4.705  14.278  0.0601  0.6168 -0.3367
 7178TIP3    H143025   4.735   4.759  14.261  0.1666  0.9585  0.2313
 7178TIP3    H243026   4.789   4.653  14.354 -0.1963 -0.4605 -1.1401
 7179TIP3   OH243027   0.223   3.707   1.506  0.4256 -0.1933  0.2871
 7179TIP3    H143028   0.153   3.771   1.491  0.9171  0.3140  0.1172
 7179TIP3    H243029   0.222   3.652   1.428  1.3745  0.9267 -0.5539
 7180TIP3   OH243030   4.571   1.323  12.920 -0.3702 -0.5363  0.1467
 7180TIP3    H143031   4.511   1.396  12.936 -0.3746 -0.6535  0.6730
 7180TIP3    H243032   4.642   1.337  12.982  0.1961 -0.3482 -0.5386
 7181TIP3   OH243033   4.467   2.824  15.867  0.2342 -0.6591  0.8797
 7181TIP3    H143034   4.499   2.914  15.879  2.2513 -1.2254  0.1250
 7181TIP3    H243035   4.438   2.821  15.776 -0.2242 -0.6732  1.0243
 7182TIP3   OH243036   3.919   6.562   0.277 -0.0762 -0.4434 -0.1177
 7182TIP3    H143037   3.836   6.552   0.230 -0.7714  2.4830  0.2923
 7182TIP3    H243038   3.985   6.567   0.208 -0.2495 -2.3520 -0.4651
 7183TIP3   OH243039   0.774   2.817   5.427 -0.3629 -0.2710 -0.5762
 7183TIP3    H143040   0.821   2.896   5.454  1.4110 -1.4253 -0.0809
 7183TIP3    H243041   0.788   2.755   5.499 -0.6114 -1.4492 -1.5070
 7184TIP3   OH243042   0.086   3.474  14.477 -0.4867  0.8037  0.0686
 7184TIP3    H143043   0.077   3.380  14.492  3.8412 -0.5836 -3.5602
 7184TIP3    H243044   0.035   3.490  14.397  0.3718  0.9774 -0.4628
 7185TIP3   OH243045   2.273   6.610   6.087  0.2374  0.1433 -0.1005
 7185TIP3    H143046   2.308   6.591   6.000 -1.1738  2.6724 -1.3021
 7185TIP3    H243047   2.348   6.597   6.145  2.2550  1.8348 -2.1333
 7186TIP3   OH243048   5.496   6.020  16.667 -0.4600 -0.3357 -0.0863
 7186TIP3    H143049   5.532   6.024  16.755 -1.5864 -0.2800  0.3840
 7186TIP3    H243050   5.442   5.942  16.666 -0.7537 -0.1309 -0.6062
 7187TIP3   OH243051   1.804   5.342  13.801  0.1379 -0.0152  0.1209
 7187TIP3    H143052   1.814   5.432  13.833  1.2134 -0.5395  1.3439
 7187TIP3    H243053   1.886   5.323  13.755 -0.5647  0.0128 -1.2028
 7188TIP3   OH243054   4.772   6.250  12.614 -0.1338 -0.4134 -0.5632
 7188TIP3    H143055   4.766   6.325  12.555  0.6813 -0.3448 -0.5638
 7188TIP3    H243056   4.807   6.179  12.559  1.5817 -0.0825  0.0514
 7189TIP3   OH243057   6.784   3.733   4.906 -0.5630 -0.4264 -0.1618
 7189TIP3    H143058   6.774   3.739   4.811  2.0253  1.4633 -0.4271
 7189TIP3    H243059   6.868   3.690   4.919 -1.4355 -1.7620  1.3458
 7190TIP3   OH243060   5.389   6.769   1.436  0.3038  0.0018 -0.2939
 7190TIP3    H143061   5.357   6.702   1.497  0.5976 -2.0911 -2.2595
 7190TIP3    H243062   5.457   6.815   1.484 -0.1369 -0.8910  1.2706
 7191TIP3   OH243063   6.786   4.316   5.322 -0.2451 -0.1245 -0.3035
 7191TIP3    H143064   6.860   4.353   5.370  0.4371  0.6945 -1.9099
 7191TIP3    H243065   6.774   4.229   5.359  0.1631  0.4980  1.3993
 7192TIP3   OH243066   2.618   4.311  14.702 -0.4122 -0.6599  0.5178
 7192TIP3    H143067   2.697   4.265  14.673  0.0720  0.2211  0.4123
 7192TIP3    H243068   2.589   4.262  14.779 -0.4464 -1.6950 -0.1285
 7193TIP3   OH243069   6.177   1.015  14.361 -0.8824 -0.4346 -0.2330
 7193TIP3    H143070   6.175   0.933  14.312  0.0127 -1.3337  1.1789
 7193TIP3    H243071   6.102   1.011  14.420  0.4907 -1.4033  1.5579
 7194TIP3   OH243072   0.162   3.867   1.990  0.2511  0.1274  0.1641
 7194TIP3    H143073   0.131   3.885   1.902 -0.3361  1.0822  0.5470
 7194TIP3    H243074   0.245   3.822   1.978 -0.9013 -1.8189 -0.8880
 7195TIP3   OH243075   2.475   3.462  14.380 -1.0740  0.1994 -0.2580
 7195TIP3    H143076   2.469   3.434  14.471 -2.3260 -1.8344 -0.8873
 7195TIP3    H243077   2.553   3.518  14.376 -0.1069 -0.9214  1.7395
 7196TIP3   OH243078   3.039   4.952  15.879 -0.2217 -0.0031 -0.1369
 7196TIP3    H143079   3.092   4.995  15.946  0.8673 -0.6542 -0.5495
 7196TIP3    H243080   3.096   4.948  15.802 -1.5899  1.1308 -1.2790
 7197TIP3   OH243081   3.705   5.529   0.410  0.0685  0.5818 -0.3366
 7197TIP3    H143082   3.765   5.517   0.336 -0.1460  1.4331 -0.6632
 7197TIP3    H243083   3.758   5.512   0.487  0.5467  0.6004 -0.6555
 7198TIP3   OH243084   4.171   6.612  11.587  0.2827 -0.0549  0.0431
 7198TIP3    H143085   4.081   6.589  11.609  0.6150 -1.6699 -0.1431
 7198TIP3    H243086   4.218   6.529  11.588  1.9904  0.8555  1.0914
 7199TIP3   OH243087   1.952   4.824   3.216 -0.1278 -0.2477  0.2931
 7199TIP3    H143088   2.001   4.905   3.228  0.9755 -0.7404 -0.7387
 7199TIP3    H243089   1.975   4.770   3.292 -0.4655  0.2038  0.7169
 7200TIP3   OH243090   2.643   3.585   0.317  1.0189  0.4546  0.2435
 7200TIP3    H143091   2.557   3.627   0.311  1.0922  0.6121  0.2895
 7200TIP3    H243092   2.652   3.536   0.235 -0.0255 -1.3021  1.1051
 7201TIP3   OH243093   2.728   3.704  11.459 -0.5311 -0.3460  0.0307
 7201TIP3    H143094   2.643   3.689  11.417  0.0053  0.6384 -1.4923
 7201TIP3    H243095   2.706   3.747  11.542 -1.5129  2.1712 -1.4044
 7202TIP3   OH243096   1.274   4.517  13.748  0.3091 -0.2597  0.1833
 7202TIP3    H143097   1.185   4.551  13.744  0.6381  0.5065 -2.7599
 7202TIP3    H243098   1.266   4.427  13.717  0.4881 -0.3948  0.5252
 7203TIP3   OH243099   0.880   0.748  14.943 -0.2986  0.0121  0.5459
 7203TIP3    H143100   0.908   0.656  14.943  0.6641  0.2516 -1.8148
 7203TIP3    H243101   0.955   0.795  14.979  1.3613  0.3173 -2.9189
 7204TIP3   OH243102   1.080   2.701   1.081 -0.1955  0.1035  0.1525
 7204TIP3    H143103   1.144   2.711   1.152 -0.8130 -0.3646  0.7912
 7204TIP3    H243104   1.129   2.721   1.002  0.4441  0.9030  0.7313
 7205TIP3   OH243105   1.725   6.387   4.488  0.0937  0.0416 -0.2539
 7205TIP3    H143106   1.802   6.441   4.501 -0.2526  0.6953 -0.8604
 7205TIP3    H243107   1.743   6.338   4.408 -0.4708  0.8568 -0.9014
 7206TIP3   OH243108   4.473   1.470  17.180  0.5059 -0.1928  0.3268
 7206TIP3    H143109   4.495   1.425  17.261  3.2907  0.6560  0.1299
 7206TIP3    H243110   4.507   1.414  17.111 -1.2257 -0.5620 -0.2883
 7207TIP3   OH243111   5.612   0.279  15.312 -0.5142  0.2185 -0.0718
 7207TIP3    H143112   5.610   0.324  15.397  0.9103  0.6262 -0.2321
 7207TIP3    H243113   5.625   0.349  15.249 -0.9620 -0.1525 -0.5825
 7208TIP3   OH243114   3.525   2.073   6.116  0.3250 -0.3864 -0.0475
 7208TIP3    H143115   3.620   2.069   6.116  0.3210 -0.4844 -0.1227
 7208TIP3    H243116   3.498   2.015   6.187  0.3535  0.4549  0.6605
 7209TIP3   OH243117   3.316   4.024   0.953  0.2452 -0.1722 -0.2610
 7209TIP3    H143118   3.394   3.977   0.923  0.4909  1.7806 -3.1020
 7209TIP3    H243119   3.325   4.111   0.914 -2.5958  0.6364  0.6747
 7210TIP3   OH243120   4.140   2.350   1.632  0.1419  0.3170  0.1836
 7210TIP3    H143121   4.046   2.339   1.617  0.6147 -1.8498 -1.7935
 7210TIP3    H243122   4.156   2.314   1.719 -1.0005  2.0585  1.1820
 7211TIP3   OH243123   3.267   6.424  16.149 -0.1640  0.7969 -0.1877
 7211TIP3    H143124   3.291   6.491  16.085 -0.1625 -0.6152 -1.7091
 7211TIP3    H243125   3.350   6.403  16.194 -0.3538  2.5625  1.1238
 7212TIP3   OH243126   6.804   4.319   2.864  0.7518 -0.2316  0.2013
 7212TIP3    H143127   6.832   4.408   2.843  0.7109 -0.8941 -3.0649
 7212TIP3    H243128   6.710   4.327   2.879  0.6569  0.2233 -0.5745
 7213TIP3   OH243129   2.820   1.048  15.115 -0.2544  0.0171  0.0354
 7213TIP3    H143130   2.810   0.989  15.190 -0.4935  0.2503  0.1904
 7213TIP3    H243131   2.730   1.075  15.094 -0.2973 -0.8344 -0.9788
 7214TIP3   OH243132   6.699   5.255  14.000 -0.3898  0.2709 -0.5721
 7214TIP3    H143133   6.607   5.228  13.988  0.2566 -1.4718 -2.1805
 7214TIP3    H243134   6.713   5.323  13.934  0.3066 -1.8722 -2.7941
 7215TIP3   OH243135   6.023   5.894   4.245 -0.3285  0.3402  0.1737
 7215TIP3    H143136   5.963   5.828   4.281 -2.4083  2.4221  0.8107
 7215TIP3    H243137   5.969   5.945   4.184  1.4971  0.8074 -1.1337
 7216TIP3   OH243138   0.474   2.851   5.501  0.1574  0.0680  0.1273
 7216TIP3    H143139   0.463   2.944   5.519  0.7615  0.1864 -0.0964
 7216TIP3    H243140   0.569   2.836   5.506  0.1014 -0.4480 -0.2449
 7217TIP3   OH243141   2.957   6.133   0.751  0.2825 -0.1011 -0.4067
 7217TIP3    H143142   2.919   6.055   0.792  1.5434 -0.9105 -0.7041
 7217TIP3    H243143   2.988   6.186   0.825 -0.2815 -0.0290 -0.2161
 7218TIP3   OH243144   4.545   0.290  13.629 -0.6578 -0.4446  0.5251
 7218TIP3    H143145   4.626   0.286  13.578 -1.1471 -0.5023 -0.2587
 7218TIP3    H243146   4.475   0.299  13.564 -1.2530  0.0535  1.2149
 7219TIP3   OH243147   6.585   5.972  12.852 -0.0680  0.0157 -0.4382
 7219TIP3    H143148   6.679   5.985  12.843 -0.2727  2.8371  0.7485
 7219TIP3    H243149   6.552   5.975  12.762  0.8215  0.3543 -0.7584
 7220TIP3   OH243150   2.541   4.495   3.447  0.1329 -0.3947 -0.4932
 7220TIP3    H143151   2.534   4.483   3.352  1.4441  3.6724 -1.2830
 7220TIP3    H243152   2.630   4.466   3.468  0.5529  0.5625 -0.9110
 7221TIP3   OH243153   5.821   0.156  15.572 -0.0188  0.5168 -0.1191
 7221TIP3    H143154   5.843   0.177  15.481  0.3088 -1.2549 -0.4924
 7221TIP3    H243155   5.901   0.177  15.621  0.9563 -1.4631 -0.7563
 7222TIP3   OH243156   5.266   3.473   5.627 -0.3377 -0.2583  0.5293
 7222TIP3    H143157   5.251   3.563   5.656  1.8423 -0.0582  1.2134
 7222TIP3    H243158   5.259   3.420   5.707  0.1723 -0.4468  0.4542
 7223TIP3   OH243159   0.940   6.451  12.103  0.4377  0.0138  0.0106
 7223TIP3    H143160   1.031   6.480  12.095 -0.0351  1.9021  0.9125
 7223TIP3    H243161   0.921   6.453  12.197 -1.0983  1.7249 -0.2564
 7224TIP3   OH243162   0.522   1.614   0.990 -0.2281  0.1195 -0.6551
 7224TIP3    H143163   0.431   1.643   0.981 -0.4428 -0.6650 -1.0191
 7224TIP3    H243164   0.539   1.560   0.913 -0.4370 -2.2999  0.9033
 7225TIP3   OH243165   1.411   3.005   2.039  0.2257  0.2437 -0.0035
 7225TIP3    H143166   1.355   3.082   2.027 -0.5070 -0.5534 -2.1011
 7225TIP3    H243167   1.499   3.036   2.016  0.2099  0.8222  0.6727
 7226TIP3   OH243168   1.548   5.879   2.061  0.8835  0.3456  0.2277
 7226TIP3    H143169   1.459   5.850   2.039  0.6353  1.4088 -0.2247
 7226TIP3    H243170   1.539   5.924   2.144  0.8981  0.9084 -0.0690
 7227TIP3   OH243171   1.327   2.058   1.392  0.0093 -0.1585 -0.4443
 7227TIP3    H143172   1.386   2.132   1.410  0.0368  0.4763 -2.7856
 7227TIP3    H243173   1.379   1.980   1.412  0.4024  0.4205  0.8814
 7228TIP3   OH243174   2.277   4.411  16.260  0.5627  0.3809  0.2891
 7228TIP3    H143175   2.349   4.366  16.306 -0.3532 -1.0970  0.3384
 7228TIP3    H243176   2.252   4.482  16.319  0.9106 -0.0964  1.0274
 7229TIP3   OH243177   0.149   6.669  13.846 -0.9232 -0.5744 -0.2766
 7229TIP3    H143178   0.112   6.756  13.827  2.4320  1.0245 -0.3208
 7229TIP3    H243179   0.163   6.630  13.759 -0.4552 -0.1839 -0.3853
 7230TIP3   OH243180   3.190   2.924  13.180  0.0528  0.3451 -0.0142
 7230TIP3    H143181   3.096   2.913  13.192  0.1513 -2.2617 -0.8842
 7230TIP3    H243182   3.202   2.928  13.085  0.8877 -0.8229  0.0134
 7231TIP3   OH243183   5.236   0.405  14.561 -0.0913  0.3624  0.0926
 7231TIP3    H143184   5.213   0.494  14.533 -1.1330  0.0027 -0.2331
 7231TIP3    H243185   5.219   0.405  14.655 -1.6531  0.0540 -0.1696
 7232TIP3   OH243186   4.787   5.317   4.032  0.0051 -0.1337  0.5431
 7232TIP3    H143187   4.707   5.340   3.985 -0.8693 -2.0407  1.0158
 7232TIP3    H243188   4.759   5.256   4.101  1.8680 -1.0085  0.6060
 7233TIP3   OH243189   4.525   4.515  10.755  0.1344  0.2913 -0.2085
 7233TIP3    H143190   4.592   4.446  10.748 -0.0065  0.1594 -0.2589
 7233TIP3    H243191   4.557   4.585  10.698  1.3368  1.1441  1.4045
 7234TIP3   OH243192   0.163   0.009  16.733  0.1391  0.1607  0.0563
 7234TIP3    H143193   0.241   0.044  16.776  0.1364  1.8161 -1.1682
 7234TIP3    H243194   0.190  -0.006  16.642 -0.8758  0.4848 -0.3179
 7235TIP3   OH243195   5.584   6.708  11.621  0.0961  0.0962 -0.5320
 7235TIP3    H143196   5.607   6.774  11.555 -2.1936  0.7111 -0.7924
 7235TIP3    H243197   5.615   6.746  11.704 -0.0257  0.9041 -0.8467
 7236TIP3   OH243198   6.572   1.829   4.982 -0.5116 -0.2202  0.4326
 7236TIP3    H143199   6.630   1.903   4.959  0.2019 -1.5229 -2.5170
 7236TIP3    H243200   6.498   1.837   4.921 -1.7814 -0.4723  1.9001
 7237TIP3   OH243201   0.213   2.668   0.946 -0.0455 -0.1856 -0.5238
 7237TIP3    H143202   0.197   2.654   0.852  0.9051 -1.9277 -0.4868
 7237TIP3    H243203   0.197   2.582   0.985  2.0267 -0.1514  0.5229
 7238TIP3   OH243204   2.255   5.705  16.704  0.3327 -0.5422  0.8480
 7238TIP3    H143205   2.257   5.624  16.754 -1.3188 -1.7689 -0.9248
 7238TIP3    H243206   2.297   5.683  16.621 -0.0098  0.4646  0.3843
 7239TIP3   OH243207   4.303   2.961  11.981  0.1831 -0.6199  0.3125
 7239TIP3    H143208   4.336   3.050  11.988 -0.8589 -0.3402  2.4705
 7239TIP3    H243209   4.337   2.917  12.059  0.1594 -1.9335 -0.3952
 7240TIP3   OH243210   0.725   2.393   4.469  0.6695  0.3698  0.3884
 7240TIP3    H143211   0.790   2.436   4.414  1.1135 -0.3628  0.3322
 7240TIP3    H243212   0.776   2.358   4.543  0.4360 -0.7325  0.0385
 7241TIP3   OH243213   5.657   2.572   3.867  0.2127 -0.0677  0.1244
 7241TIP3    H143214   5.698   2.659   3.864 -0.1877  0.2699  2.4760
 7241TIP3    H243215   5.592   2.573   3.797  0.6139  1.3026 -0.2574
 7242TIP3   OH243216   1.584   2.442   3.912 -0.0008 -0.4261  0.1430
 7242TIP3    H143217   1.581   2.524   3.962  1.7517  0.8665 -1.7232
 7242TIP3    H243218   1.505   2.444   3.858 -1.4026 -1.3732  2.0260
 7243TIP3   OH243219   3.747   6.298   0.314 -0.0697 -0.2115  0.1228
 7243TIP3    H143220   3.708   6.221   0.273 -0.5642  0.8609 -1.5409
 7243TIP3    H243221   3.788   6.265   0.394 -0.6572 -2.1015 -0.3061
 7244TIP3   OH243222   5.960   4.513  13.905 -0.5128 -0.2522  0.4187
 7244TIP3    H143223   5.960   4.603  13.872 -1.3371 -0.3766  0.0436
 7244TIP3    H243224   5.902   4.516  13.981 -0.4401 -0.4442  0.4824
 7245TIP3   OH243225   3.672   0.094  11.940  0.5649 -0.2699 -0.3421
 7245TIP3    H143226   3.680   0.177  11.892 -1.0668 -0.1923 -0.5626
 7245TIP3    H243227   3.620   0.116  12.017  0.0664 -1.0954 -0.4331
 7246TIP3   OH243228   4.802   4.217  11.722 -0.2037  0.1198 -0.7566
 7246TIP3    H143229   4.876   4.160  11.744 -0.5301 -0.5641 -1.3878
 7246TIP3    H243230   4.778   4.258  11.805 -0.4219 -1.2161 -0.1416
 7247TIP3   OH243231   0.077   0.081  11.651 -0.1515  0.4202  0.0797
 7247TIP3    H143232  -0.007   0.039  11.670  0.7123 -0.8262  1.2585
 7247TIP3    H243233   0.110   0.034  11.574 -0.1719  0.4123  0.0757
 7248TIP3   OH243234   4.130   2.649  16.196 -0.2237  0.2090  0.1703
 7248TIP3    H143235   4.109   2.735  16.160 -0.4597 -0.5400 -1.5948
 7248TIP3    H243236   4.045   2.610  16.215 -0.2270 -0.3772 -0.9469
 7249TIP3   OH243237   0.192   2.999  14.669 -0.0422  0.2579  0.1847
 7249TIP3    H143238   0.238   3.082  14.684 -0.0423  0.2784  0.0713
 7249TIP3    H243239   0.103   3.016  14.701  0.2727 -0.0827  1.2948
 7250TIP3   OH243240   4.992   2.994   4.894 -0.6984 -0.2449 -0.0169
 7250TIP3    H143241   5.079   3.021   4.866 -0.2840  0.0752  1.4919
 7250TIP3    H243242   4.950   3.075   4.924 -1.0705 -0.5824  0.3881
 7251TIP3   OH243243   6.730   6.427  14.129 -0.1295 -0.1117 -0.6955
 7251TIP3    H143244   6.732   6.474  14.046  0.2437 -1.2057 -1.3324
 7251TIP3    H243245   6.822   6.410  14.149 -0.2907 -1.7638 -1.2067
 7252TIP3   OH243246   3.069   3.904  16.163 -0.6371 -1.1657 -0.3358
 7252TIP3    H143247   3.081   3.809  16.174 -0.9413 -1.2804 -0.9537
 7252TIP3    H243248   2.995   3.912  16.103 -1.2369 -0.5228  0.4668
 7253TIP3   OH243249   0.924   6.039   3.755 -0.2320  0.1558 -0.2221
 7253TIP3    H143250   0.959   6.122   3.722 -0.9221  0.7887  0.5813
 7253TIP3    H243251   0.892   6.060   3.843 -0.6299 -0.9127 -0.0953
 7254TIP3   OH243252   5.025   4.766  15.166  0.1072 -0.0327 -0.6295
 7254TIP3    H143253   5.005   4.731  15.253 -2.4483 -1.1592 -1.5562
 7254TIP3    H243254   5.006   4.860  15.174 -0.3388 -0.1648 -0.0290
 7255TIP3   OH243255   0.530   1.432   2.439 -0.2554 -0.0957  0.2102
 7255TIP3    H143256   0.572   1.347   2.429  0.6257  0.4924 -1.5850
 7255TIP3    H243257   0.474   1.423   2.516 -0.7304 -2.5131 -0.3389
 7256TIP3   OH243258   0.522   1.825  11.303  0.2607 -0.2945  0.2803
 7256TIP3    H143259   0.492   1.744  11.343  1.7764 -1.3060 -0.5046
 7256TIP3    H243260   0.525   1.805  11.209  0.4825  0.7262  0.0624
 7257TIP3   OH243261   5.623   4.655  12.947  0.5616 -0.0521 -0.1996
 7257TIP3    H143262   5.695   4.709  12.981 -1.1245  1.3783  1.3661
 7257TIP3    H243263   5.621   4.579  13.005  1.5279 -0.7159 -1.0035
 7258TIP3   OH243264   6.008   6.005   3.888 -0.1382 -0.2335 -0.5795
 7258TIP3    H143265   5.975   6.082   3.841 -1.5144 -1.2855 -1.4310
 7258TIP3    H243266   5.929   5.961   3.919  0.6520 -1.0270  0.3526
 7259TIP3   OH243267   5.892   5.738   5.914  0.0811 -0.1170 -0.1785
 7259TIP3    H143268   5.851   5.661   5.875  0.6950 -0.8049  0.4972
 7259TIP3    H243269   5.855   5.812   5.866 -0.5474 -0.8269 -0.8153
 7260TIP3   OH243270   4.032   5.897  11.248 -0.7284 -0.0651  0.3117
 7260TIP3    H143271   4.059   5.977  11.293  2.0864  0.2759 -1.7492
 7260TIP3    H243272   3.961   5.925  11.191 -0.7163  0.6581  0.6306
 7261TIP3   OH243273   1.099   5.552  16.344  0.4901  0.4396  0.4834
 7261TIP3    H143274   1.179   5.520  16.385  0.3693 -0.1974  0.2289
 7261TIP3    H243275   1.129   5.597  16.265  0.6771  1.1778  0.9607
 7262TIP3   OH243276   2.833   3.706   0.751  0.2436 -0.0352  0.0490
 7262TIP3    H143277   2.741   3.731   0.741  0.2059 -0.3783 -0.4773
 7262TIP3    H243278   2.838   3.665   0.837 -0.0428  0.2168  0.1864
 7263TIP3   OH243279   1.068   4.829   5.218  0.0730 -0.4397  0.2476
 7263TIP3    H143280   1.046   4.850   5.127 -0.7541 -1.8694  0.0956
 7263TIP3    H243281   1.053   4.735   5.226  2.4497 -0.7980  1.2318
 7264TIP3   OH243282   3.180   2.090  10.462 -0.1594 -0.2178 -0.5421
 7264TIP3    H143283   3.142   2.004  10.443  0.5002 -0.4152 -0.9663
 7264TIP3    H243284   3.266   2.071  10.499 -1.3247  0.1291  2.6903
 7265TIP3   OH243285   2.421   1.808  12.084 -0.3625 -0.4033  0.0637
 7265TIP3    H143286   2.507   1.836  12.051 -0.3547 -1.4945 -0.9537
 7265TIP3    H243287   2.360   1.831  12.014 -0.5040 -1.8799 -0.3354
 7266TIP3   OH243288   5.996   3.072  11.804  0.1070 -0.4716 -0.2344
 7266TIP3    H143289   6.055   3.011  11.848  1.6789  0.4144 -1.0069
 7266TIP3    H243290   5.940   3.105  11.874 -1.2221 -3.1835  0.1128
 7267TIP3   OH243291   3.113   1.347  15.659 -0.5700 -0.3754  0.2901
 7267TIP3    H143292   3.199   1.373  15.628  0.5722  0.5384  3.7894
 7267TIP3    H243293   3.127   1.261  15.698 -1.3830 -0.4372  0.4701
 7268TIP3   OH243294   2.195   0.595   3.625 -0.2029  0.4613 -0.4351
 7268TIP3    H143295   2.128   0.558   3.683  0.9829 -2.5456 -0.8050
 7268TIP3    H243296   2.185   0.690   3.635 -3.0124  0.1235  1.1876
 7269TIP3   OH243297   0.678   3.427  17.038  0.1243  0.0375  0.2097
 7269TIP3    H143298   0.643   3.512  17.066  1.2349  0.2820  0.9280
 7269TIP3    H243299   0.752   3.411  17.097  1.0757 -0.5627 -1.0937
 7270TIP3   OH243300   1.322   4.143  11.174  0.3430 -0.4884  0.0127
 7270TIP3    H143301   1.292   4.079  11.110  0.1338  1.6844 -2.2416
 7270TIP3    H243302   1.247   4.202  11.186  1.6182  1.4419 -0.9327
 7271TIP3   OH243303   4.862   0.493  11.204  0.1180 -0.0933  0.1128
 7271TIP3    H143304   4.803   0.533  11.140 -1.3066  0.6415  1.8275
 7271TIP3    H243305   4.887   0.565  11.262 -1.1647 -1.2854  2.2630
 7272TIP3   OH243306   2.864   2.732   0.811  0.0379  0.2978  0.0434
 7272TIP3    H143307   2.827   2.738   0.724  0.9428  0.8864 -0.3210
 7272TIP3    H243308   2.792   2.751   0.870 -0.5936 -0.1616 -0.5739
 7273TIP3   OH243309   6.283   0.839  11.412 -0.2719 -0.3022  0.1217
 7273TIP3    H143310   6.302   0.834  11.318  0.4506 -2.3485  0.3375
 7273TIP3    H243311   6.197   0.881  11.416 -0.5623 -0.6527 -1.4901
 7274TIP3   OH243312   5.224   0.921  16.520  0.1309 -0.1058  0.0706
 7274TIP3    H143313   5.314   0.901  16.493  0.2713  1.8963 -1.1858
 7274TIP3    H243314   5.217   0.888  16.609  2.1527 -0.2072  0.2271
 7275TIP3   OH243315   0.468   4.211   3.989 -0.9349  0.0414  0.0816
 7275TIP3    H143316   0.505   4.264   3.918 -0.6452  0.1088  0.2805
 7275TIP3    H243317   0.400   4.159   3.947 -2.4451  1.8167  0.1781
 7276TIP3   OH243318   6.794   1.847  10.975 -0.6061  0.6392 -0.1253
 7276TIP3    H143319   6.782   1.941  10.990 -0.1082  0.8142 -0.7599
 7276TIP3    H243320   6.853   1.843  10.899  0.7698 -0.1675  0.9507
 7277TIP3   OH243321   0.734   0.199   4.895  0.1857  0.3686 -0.1071
 7277TIP3    H143322   0.784   0.258   4.951  1.5855 -0.7225 -0.1581
 7277TIP3    H243323   0.741   0.114   4.937 -1.7104  0.1667 -0.0956
 7278TIP3   OH243324   2.740   3.991   0.928  0.6950 -0.0380 -0.2231
 7278TIP3    H143325   2.825   4.018   0.892  0.6747  2.3188  1.2798
 7278TIP3    H243326   2.682   3.991   0.852  1.6071  0.3568 -0.9503
 7279TIP3   OH243327   2.693   2.389  12.945  0.1331 -0.5834  0.3447
 7279TIP3    H143328   2.672   2.440  12.867 -1.8058  0.7493  1.6549
 7279TIP3    H243329   2.680   2.298  12.918  2.1691 -0.3997 -1.5997
 7280TIP3   OH243330   5.922   1.730   4.106  0.1207  0.4941  0.2256
 7280TIP3    H143331   5.845   1.787   4.118  0.3039  0.3133  2.5905
 7280TIP3    H243332   5.887   1.641   4.111  0.2081  0.3764 -0.9164
 7281TIP3   OH243333   5.791   5.098   4.496  0.5287  0.7705  0.3742
 7281TIP3    H143334   5.784   5.161   4.567 -1.0677  0.3680  0.6047
 7281TIP3    H243335   5.702   5.067   4.482  1.1290 -0.7033 -0.4115
 7282TIP3   OH243336   1.783   5.082   6.193 -0.7498  0.4483  0.4203
 7282TIP3    H143337   1.820   5.004   6.152 -1.7490 -0.7245  1.6517
 7282TIP3    H243338   1.838   5.098   6.269  0.2533  1.7738 -0.5543
 7283TIP3   OH243339   2.963   2.163   5.814  0.5811 -0.0632 -0.5629
 7283TIP3    H143340   2.922   2.227   5.873 -0.1096 -1.9499  1.1213
 7283TIP3    H243341   2.889   2.125   5.765  0.6376 -1.2331  0.2076
 7284TIP3   OH243342   2.465   5.063  12.195  0.2168  0.4345 -0.0967
 7284TIP3    H143343   2.448   4.999  12.264  0.6046  0.9808  0.5214
 7284TIP3    H243344   2.533   5.120  12.231 -0.9587  1.9323 -0.1503
 7285TIP3   OH243345   6.782   3.299  14.260  0.4229  0.1167 -0.1233
 7285TIP3    H143346   6.686   3.299  14.262  0.0701 -2.3552 -4.3216
 7285TIP3    H243347   6.805   3.376  14.208  0.4061 -0.8005 -1.5533
 7286TIP3   OH243348   5.800   2.052  13.294  0.1281  0.2165 -0.0293
 7286TIP3    H143349   5.844   2.096  13.222 -1.4987 -0.3943 -1.4904
 7286TIP3    H243350   5.780   1.964  13.259  0.2839 -0.4861  1.5736
 7287TIP3   OH243351   6.514   0.787   3.939 -0.1233  0.5030 -0.7410
 7287TIP3    H143352   6.588   0.742   3.897 -0.2729  0.0860 -0.5643
 7287TIP3    H243353   6.555   0.842   4.006  0.0469  0.4155 -0.7712
 7288TIP3   OH243354   3.604   5.491  12.097  0.5054 -0.1766 -0.6017
 7288TIP3    H143355   3.608   5.579  12.135  0.4520 -0.2156 -0.5047
 7288TIP3    H243356   3.665   5.494  12.024 -0.3733  0.2977 -1.3308
 7289TIP3   OH243357   0.310   1.914  11.026 -0.0388  0.0514  0.3315
 7289TIP3    H143358   0.278   1.862  10.952 -0.2933  0.3929  0.1975
 7289TIP3    H243359   0.398   1.880  11.043  0.2089  0.2688 -0.4320
 7290TIP3   OH243360   3.316   4.060  14.513 -0.4470  0.1015 -0.4038
 7290TIP3    H143361   3.398   4.012  14.504 -0.8706 -0.7586  0.2645
 7290TIP3    H243362   3.271   4.045  14.430 -0.7846 -1.0704 -0.0223
 7291TIP3   OH243363   3.452   6.747   6.166 -0.0320  0.1275  0.3008
 7291TIP3    H143364   3.519   6.680   6.154  0.7923  0.9332  0.2978
 7291TIP3    H243365   3.483   6.799   6.241 -0.0823  1.1789 -0.3872
 7292TIP3   OH243366   3.635   2.189  13.195 -0.4295 -0.0965  0.0099
 7292TIP3    H143367   3.602   2.112  13.241  1.9132 -1.8684 -1.1034
 7292TIP3    H243368   3.726   2.198  13.223 -0.2273  1.3966 -0.9691
 7293TIP3   OH243369   5.459   4.627   3.770  0.1850 -0.1654  0.2162
 7293TIP3    H143370   5.371   4.592   3.784  0.0375  0.0875 -0.0536
 7293TIP3    H243371   5.445   4.721   3.755  0.2734 -0.4519 -2.0339
 7294TIP3   OH243372   4.320   1.582  12.642  0.1359 -0.7259  0.5513
 7294TIP3    H143373   4.311   1.519  12.713  0.6833 -0.8646  0.4996
 7294TIP3    H243374   4.390   1.640  12.671 -1.9600  1.3997  1.7333
 7295TIP3   OH243375   6.060   6.746  15.806  0.4718 -0.0406  0.5513
 7295TIP3    H143376   6.094   6.703  15.885  0.8725 -2.0238 -0.6147
 7295TIP3    H243377   6.136   6.752  15.748  0.0698  0.9038  0.0971
 7296TIP3   OH243378   6.542   5.456   0.316 -0.0637  0.0478 -0.4278
 7296TIP3    H143379   6.631   5.448   0.281 -0.2325 -1.8878 -0.5338
 7296TIP3    H243380   6.538   5.392   0.387 -1.1959  0.5366 -0.0235
 7297TIP3   OH243381   0.574   2.733   5.130  0.1617 -0.4229  1.2579
 7297TIP3    H143382   0.526   2.650   5.125  0.2810 -0.5697  2.3486
 7297TIP3    H243383   0.651   2.713   5.182 -0.4194  0.6530  2.5746
 7298TIP3   OH243384   4.956   6.069   4.112  0.2585  0.1331  0.3974
 7298TIP3    H143385   4.977   5.982   4.078 -1.5948  0.0098 -0.5989
 7298TIP3    H243386   4.868   6.060   4.147 -0.4111  1.8312 -0.7238
 7299TIP3   OH243387   4.430   4.047   4.107 -0.2744 -0.1827  0.6349
 7299TIP3    H143388   4.375   3.970   4.099 -1.8661  0.9479  0.2813
 7299TIP3    H243389   4.477   4.053   4.023  0.6223 -1.2905  1.0351
 7300TIP3   OH243390   5.767   6.398   3.445  0.0941 -0.3210 -0.2257
 7300TIP3    H143391   5.796   6.489   3.438  0.5321 -0.4607 -0.2400
 7300TIP3    H243392   5.733   6.377   3.358 -0.1321 -0.1327 -0.1858
 7301TIP3   OH243393   3.102   0.725   4.402 -0.1627 -0.0032  0.3308
 7301TIP3    H143394   3.065   0.689   4.321 -1.1333  0.8289  0.3916
 7301TIP3    H243395   3.130   0.648   4.451  1.9586 -0.4812 -1.4706
 7302TIP3   OH243396   2.562   6.772   0.392  0.2987 -0.6341  0.3058
 7302TIP3    H143397   2.634   6.801   0.336  1.5067 -1.3000  1.4656
 7302TIP3    H243398   2.483   6.795   0.343  1.2937 -0.2221 -1.1703
 7303TIP3   OH243399   0.301   2.169   1.014 -0.0402  0.3918  0.1359
 7303TIP3    H143400   0.327   2.127   1.096  0.3210 -0.1818 -0.2624
 7303TIP3    H243401   0.224   2.120   0.985 -0.2331  0.6640  0.1858
 7304TIP3   OH243402   5.071   0.140   5.095 -0.1997 -0.1878  0.6244
 7304TIP3    H143403   5.143   0.105   5.042 -0.9984 -1.1855  0.1353
 7304TIP3    H243404   5.078   0.094   5.179  1.3301  1.7140  1.6257
 7305TIP3   OH243405   2.077   2.462   4.163  0.5586 -0.0447 -0.5208
 7305TIP3    H143406   2.127   2.455   4.245 -1.5301 -2.1026  0.6777
 7305TIP3    H243407   2.025   2.542   4.174  0.6120 -0.0748 -0.0131
 7306TIP3   OH243408   2.982   1.021   3.081  0.3262  0.0717 -1.0342
 7306TIP3    H143409   2.931   1.031   3.161  0.9300 -0.1672 -0.6110
 7306TIP3    H243410   2.947   1.087   3.021 -1.5526 -1.0957 -1.3273
 7307TIP3   OH243411   6.487   1.222   0.078  0.3384 -0.0954  0.2139
 7307TIP3    H143412   6.456   1.279   0.008  0.3813  0.4088  0.5950
 7307TIP3    H243413   6.410   1.208   0.134  0.6480  0.7004  0.8555
 7308TIP3   OH243414   0.881   6.331  13.043  0.4941  0.4615  0.1910
 7308TIP3    H143415   0.890   6.312  13.136  0.4040 -0.0247  0.1051
 7308TIP3    H243416   0.884   6.245  13.001 -0.9237  0.5507 -0.1380
 7309TIP3   OH243417   3.038   3.254  14.104 -0.6164 -0.1677  0.1367
 7309TIP3    H143418   3.086   3.316  14.048 -2.2805  1.9524  0.9332
 7309TIP3    H243419   3.098   3.235  14.175  0.5506 -0.8216 -0.9893
 7310TIP3   OH243420   3.562   6.279  16.693  0.0151  0.1318 -0.2170
 7310TIP3    H143421   3.473   6.270  16.659 -0.4956  0.8577  0.8475
 7310TIP3    H243422   3.579   6.195  16.737  0.4789 -0.6030 -1.7513
 7311TIP3   OH243423   2.351   0.763  16.915  0.3630  0.6474  0.2146
 7311TIP3    H143424   2.331   0.792  17.004  0.0333  1.1705 -0.0287
 7311TIP3    H243425   2.444   0.740  16.918  0.2005  0.0301  0.8570
 7312TIP3   OH243426   1.011   4.575   5.208 -0.1573  0.0025 -0.4121
 7312TIP3    H143427   1.103   4.549   5.217  0.0647  1.4130  3.2130
 7312TIP3    H243428   0.967   4.496   5.175  2.2493 -0.7659 -2.0838
 7313TIP3   OH243429   5.950   4.386   5.830 -0.1388 -0.2939 -0.2153
 7313TIP3    H143430   5.897   4.308   5.811 -1.4679  1.2118 -3.2386
 7313TIP3    H243431   6.033   4.370   5.784 -0.2045 -0.1708 -0.3773
 7314TIP3   OH243432   3.169   3.037  16.574 -0.4675  0.6087 -0.1712
 7314TIP3    H143433   3.175   3.076  16.661 -0.0698  0.6128 -0.1990
 7314TIP3    H243434   3.112   2.961  16.586 -0.9974  1.0217 -0.0595
 7315TIP3   OH243435   0.736   5.933  12.391 -0.3461  0.1883 -0.0792
 7315TIP3    H143436   0.713   5.960  12.479  0.5398 -2.1835  0.9799
 7315TIP3    H243437   0.798   5.999  12.360  1.9796 -0.5864  2.4675
 7316TIP3   OH243438   6.101   3.062  11.250 -0.0196 -0.1564 -0.2140
 7316TIP3    H143439   6.091   3.078  11.344  1.6324 -0.6051  0.0782
 7316TIP3    H243440   6.033   3.115  11.209 -0.1820  0.7737  1.1888
 7317TIP3   OH243441   2.519   0.649  15.388 -0.0607  1.0812 -0.0797
 7317TIP3    H143442   2.447   0.650  15.326 -2.3601 -0.3750  2.3340
 7317TIP3    H243443   2.532   0.557  15.409 -0.8241  1.5548  3.0042
 7318TIP3   OH243444   3.348   1.976   2.118 -0.4128  0.7855  0.7674
 7318TIP3    H143445   3.360   1.890   2.158  1.2661 -0.5304 -2.2025
 7318TIP3    H243446   3.254   1.985   2.106 -0.5845 -0.9737  0.5687
 7319TIP3   OH243447   2.342   5.481  16.112  0.0175 -0.4229  0.1554
 7319TIP3    H143448   2.338   5.410  16.176  0.5811 -1.7298 -1.1929
 7319TIP3    H243449   2.261   5.530  16.125 -2.0339 -3.2495 -1.0307
 7320TIP3   OH243450   3.035   2.165   6.227 -0.1343  0.3046 -0.1658
 7320TIP3    H143451   3.128   2.181   6.243 -0.6815  1.8164  1.8715
 7320TIP3    H243452   3.015   2.085   6.276  0.3215 -0.7742 -1.6695
 7321TIP3   OH243453   6.423   6.717  14.663  0.3949 -0.4703  0.4497
 7321TIP3    H143454   6.448   6.661  14.737  1.3823 -1.6112 -0.6996
 7321TIP3    H243455   6.414   6.804  14.702 -0.7592 -1.3125  2.2061
 7322TIP3   OH243456   2.068   4.308   5.332  0.6531 -1.0916  0.6556
 7322TIP3    H143457   2.018   4.389   5.334  0.9942 -0.7745 -1.4554
 7322TIP3    H243458   2.008   4.243   5.296  1.1120 -1.2006  0.0700
 7323TIP3   OH243459   4.788   1.468   5.491  0.2948 -0.2800  0.6575
 7323TIP3    H143460   4.713   1.443   5.436 -0.8427  1.3589  1.4148
 7323TIP3    H243461   4.801   1.392   5.549  0.7629 -1.5475 -1.0106
 7324TIP3   OH243462   3.260   6.510   3.234  0.0733 -0.1575  0.3997
 7324TIP3    H143463   3.323   6.540   3.168 -0.3351 -0.7977 -0.2871
 7324TIP3    H243464   3.302   6.530   3.317 -0.3517  2.7880  0.0254
 7325TIP3   OH243465   0.288   3.583  12.302  0.4243  0.7593  0.1618
 7325TIP3    H143466   0.198   3.574  12.270  0.2459  2.3010  0.1405
 7325TIP3    H243467   0.327   3.497  12.289 -1.0726  0.0385  0.2581
 7326TIP3   OH243468   6.494   0.363  15.160 -0.3580  0.0840 -0.2259
 7326TIP3    H143469   6.470   0.419  15.234  1.8890 -0.2984  0.8625
 7326TIP3    H243470   6.484   0.274  15.192  1.3852 -0.0846 -0.0710
 7327TIP3   OH243471   3.127   0.451  15.741 -0.4732  0.3053  0.2539
 7327TIP3    H143472   3.161   0.539  15.728  1.6270 -0.4449  0.2563
 7327TIP3    H243473   3.050   0.446  15.683  0.0146  1.7740 -0.5613
 7328TIP3   OH243474   2.935   4.715  14.992 -0.3476 -0.2385  0.1325
 7328TIP3    H143475   2.998   4.755  15.051 -0.6982 -2.3494  2.0535
 7328TIP3    H243476   2.860   4.775  14.993  0.1107  0.3422  0.9086
 7329TIP3   OH243477   2.866   0.028   3.000  0.5678 -0.8952 -0.0951
 7329TIP3    H143478   2.826   0.009   3.085 -0.0111 -0.6386 -0.3053
 7329TIP3    H243479   2.794   0.062   2.947  1.0293 -0.6099 -0.5411
 7330TIP3   OH243480   6.530   1.151   0.779 -0.1897 -0.0490 -0.1097
 7330TIP3    H143481   6.440   1.135   0.750 -0.2997 -0.1380  0.2833
 7330TIP3    H243482   6.566   1.065   0.798 -0.7102  0.1185  1.7823
 7331TIP3   OH243483   1.401   6.777   4.277 -0.1256  0.6264 -0.2927
 7331TIP3    H143484   1.352   6.762   4.357  0.7773 -0.2366  0.1193
 7331TIP3    H243485   1.492   6.764   4.302  0.2329  1.1526 -1.2794
 7332TIP3   OH243486   4.404   6.747   0.892 -0.4823  0.0638 -0.1150
 7332TIP3    H143487   4.369   6.718   0.808 -1.0032  0.3474  0.0014
 7332TIP3    H243488   4.490   6.705   0.898 -0.6978 -0.4379 -0.5152
 7333TIP3   OH243489   0.043   2.768   1.257  0.6720 -0.3267  0.1583
 7333TIP3    H143490   0.019   2.809   1.341  1.2640  0.2132  0.0753
 7333TIP3    H243491  -0.024   2.797   1.196 -0.9458 -2.3719  0.8638
 7334TIP3   OH243492   3.721   3.793   4.296 -0.1754  0.4699  0.8376
 7334TIP3    H143493   3.798   3.783   4.240 -0.1215 -2.4266  1.2668
 7334TIP3    H243494   3.665   3.854   4.248  2.3304  2.6688  0.5289
 7335TIP3   OH243495   5.816   2.009   1.873  0.3455 -0.1849  0.2080
 7335TIP3    H143496   5.804   2.098   1.841  0.8769 -0.6766 -1.4294
 7335TIP3    H243497   5.911   1.999   1.880  0.3093 -0.8218 -0.1900
 7336TIP3   OH243498   4.589   5.413  10.609  0.5080  0.2596 -0.3554
 7336TIP3    H143499   4.572   5.333  10.659  0.9051  1.3741  1.6456
 7336TIP3    H243500   4.604   5.382  10.520 -1.8395 -1.6553 -0.1757
 7337TIP3   OH243501   6.167   4.071  12.246  0.7001 -0.7384 -0.0369
 7337TIP3    H143502   6.237   4.023  12.201  3.2051  2.0036  0.5839
 7337TIP3    H243503   6.189   4.163  12.231 -2.1047  0.2486  1.3255
 7338TIP3   OH243504   1.947   0.224  14.296  0.5093  0.1763 -0.1155
 7338TIP3    H143505   1.940   0.317  14.320 -0.0685  0.3438 -0.9219
 7338TIP3    H243506   2.018   0.222  14.232  1.2237 -0.1037  0.6523
 7339TIP3   OH243507   6.147   2.167   5.631 -0.1775  0.9460 -0.1376
 7339TIP3    H143508   6.054   2.190   5.638 -0.5610 -0.7637  0.9690
 7339TIP3    H243509   6.149   2.101   5.561  0.4168  1.9133 -1.0525
 7340TIP3   OH243510   3.319   6.639  14.561 -0.5302 -0.7034  0.4448
 7340TIP3    H143511   3.270   6.702  14.614  0.9066  1.9681 -1.1878
 7340TIP3    H243512   3.389   6.609  14.618 -0.4313  0.2562  0.8416
 7341TIP3   OH243513   6.060   4.184   0.757 -0.0548 -0.0955  0.0408
 7341TIP3    H143514   6.061   4.218   0.668  1.6237 -0.3335 -0.0613
 7341TIP3    H243515   6.004   4.244   0.805 -1.3419 -0.2175 -1.2546
 7342TIP3   OH243516   4.492   1.807   0.093 -0.3568 -0.2193 -0.1563
 7342TIP3    H143517   4.533   1.891   0.114 -0.1272 -0.1871 -0.7278
 7342TIP3    H243518   4.551   1.767   0.029 -0.5362 -0.7585  0.0117
 7343TIP3   OH243519   1.056   1.252   0.922  0.2125 -0.2257  0.6541
 7343TIP3    H143520   1.081   1.255   1.015 -0.5587  1.6785  0.8615
 7343TIP3    H243521   0.997   1.177   0.916  1.1627 -1.0668  1.4397
 7344TIP3   OH243522   4.449   1.622   0.777  0.0752  0.4322  0.0213
 7344TIP3    H143523   4.458   1.597   0.869 -0.1619 -0.8873 -0.2967
 7344TIP3    H243524   4.526   1.584   0.734 -0.8296 -0.6853 -0.6579
 7345TIP3   OH243525   3.020   4.326   3.690  0.2587 -0.4288  0.4909
 7345TIP3    H143526   3.078   4.291   3.757 -0.6090 -1.0302  0.9521
 7345TIP3    H243527   3.066   4.403   3.656  1.4530 -1.0782  0.6077
 7346TIP3   OH243528   4.076   0.420   0.652 -0.7498  0.4565  0.0302
 7346TIP3    H143529   3.995   0.373   0.674  0.1569 -0.6443  1.1835
 7346TIP3    H243530   4.082   0.414   0.557 -2.0236  0.5718 -0.0723
 7347TIP3   OH243531   5.852   1.721  13.973  0.0935  0.9882  0.0277
 7347TIP3    H143532   5.897   1.805  13.968  0.2875  0.8319 -1.9849
 7347TIP3    H243533   5.905   1.663  13.918 -1.4450  0.2661 -0.7497
 7348TIP3   OH243534   3.550   4.407   1.027 -0.4382  0.2474 -0.2227
 7348TIP3    H143535   3.546   4.312   1.018  0.3141  0.1689  0.1388
 7348TIP3    H243536   3.496   4.426   1.104 -1.5437  0.2479 -0.9740
 7349TIP3   OH243537   1.356   5.767   4.046  0.1445 -0.4695 -0.6071
 7349TIP3    H143538   1.356   5.685   3.996 -0.1510 -1.0279  0.2832
 7349TIP3    H243539   1.264   5.792   4.052  0.1531 -0.5379 -0.1410
 7350TIP3   OH243540   3.378   5.197  14.472  0.5782 -0.1016  0.2090
 7350TIP3    H143541   3.415   5.173  14.557  2.5668 -1.1090 -0.8534
 7350TIP3    H243542   3.364   5.113  14.428 -1.7270  0.3322 -0.0009
 7351TIP3   OH243543   3.770   6.771   5.828 -0.7682 -0.1710 -0.1487
 7351TIP3    H143544   3.746   6.837   5.894 -2.4986 -1.4314  0.5735
 7351TIP3    H243545   3.693   6.765   5.771  0.6065  0.7157 -2.2080
 7352TIP3   OH243546   5.752   0.307  13.260 -0.6194  0.0687 -0.1925
 7352TIP3    H143547   5.795   0.355  13.331  0.5659 -1.7561  0.4203
 7352TIP3    H243548   5.709   0.234  13.305 -1.9119  0.2194 -1.1361
 7353TIP3   OH243549   6.389   6.725   2.838  0.3903 -0.3248 -0.7011
 7353TIP3    H143550   6.343   6.759   2.761 -0.9771  0.0304  0.2308
 7353TIP3    H243551   6.361   6.781   2.910 -1.2018 -2.7315  0.7145
 7354TIP3   OH243552   5.939   3.953  11.718  0.3454 -0.3659  0.1932
 7354TIP3    H143553   5.955   4.044  11.695  1.9786 -0.5653  0.4131
 7354TIP3    H243554   5.965   3.946  11.810  2.9724 -1.6194 -0.5497
 7355TIP3   OH243555   5.576   2.323  11.127 -0.7019  0.0463  0.4423
 7355TIP3    H143556   5.488   2.355  11.106 -0.8526 -0.3303  0.4905
 7355TIP3    H243557   5.624   2.402  11.153 -0.8692  0.3335 -0.1077
 7356TIP3   OH243558   5.789   5.116   5.691 -0.2612  0.2017 -0.0101
 7356TIP3    H143559   5.727   5.072   5.633 -2.3598  0.9622  1.5291
 7356TIP3    H243560   5.846   5.047   5.722 -1.9000 -1.0300  0.4179
 7357TIP3   OH243561   2.131   6.159   2.483 -0.3575 -0.1781  0.0362
 7357TIP3    H143562   2.133   6.090   2.416  0.9005  0.1884 -0.3334
 7357TIP3    H243563   2.168   6.236   2.440 -2.8617  1.1321  0.0604
 7358TIP3   OH243564   5.347   5.154  12.203  0.0477 -0.9249 -0.2532
 7358TIP3    H143565   5.322   5.130  12.292 -4.3791 -0.3260 -1.0813
 7358TIP3    H243566   5.392   5.077  12.169  1.6842 -1.2341  2.3501
 7359TIP3   OH243567   6.494   2.447   0.031  0.1633  0.0407 -0.1186
 7359TIP3    H143568   6.564   2.417  -0.026  1.1701 -0.2008  1.1901
 7359TIP3    H243569   6.415   2.405  -0.003  0.0863  2.2823 -3.2131
 7360TIP3   OH243570   4.813   1.848  13.076  0.2509  0.1783  0.0361
 7360TIP3    H143571   4.884   1.845  13.012 -1.4589  1.6559 -2.0839
 7360TIP3    H243572   4.749   1.785  13.044 -0.2423  0.2600  0.8283
 7361TIP3   OH243573   0.112   4.548  16.189  0.3323 -0.5711  0.6373
 7361TIP3    H143574   0.037   4.590  16.233 -0.9787  0.3994 -2.3079
 7361TIP3    H243575   0.077   4.465  16.157  0.5387 -0.2140 -0.5622
 7362TIP3   OH243576   3.045   1.687   3.139  0.0071  0.4144 -0.4761
 7362TIP3    H143577   3.034   1.616   3.202  1.2177  0.1662 -0.5208
 7362TIP3    H243578   3.052   1.766   3.193 -0.3548  0.3824 -0.3779
 7363TIP3   OH243579   0.320   3.052   3.964  0.8145 -0.1074 -0.5044
 7363TIP3    H143580   0.288   3.127   3.913  1.2789 -0.5107 -1.4176
 7363TIP3    H243581   0.400   3.025   3.919  2.4276  0.7958  1.6436
 7364TIP3   OH243582   4.995   4.647   3.229 -0.0035 -0.2233 -0.0292
 7364TIP3    H143583   4.948   4.590   3.289 -0.4228  1.3036  1.1457
 7364TIP3    H243584   4.927   4.691   3.178  0.3150 -0.7232 -0.9137
 7365TIP3   OH243585   5.058   3.474   6.043 -0.3352 -0.0328 -0.1655
 7365TIP3    H143586   4.999   3.538   6.004  1.1776  1.7725  0.3353
 7365TIP3    H243587   5.046   3.482   6.137  0.5145  0.2018 -0.0626
 7366TIP3   OH243588   6.358   4.777  16.773  0.4148 -0.0586  0.0414
 7366TIP3    H143589   6.373   4.698  16.721  0.9356 -1.5015  2.2490
 7366TIP3    H243590   6.333   4.745  16.859  1.3702  2.1652  1.2385
 7367TIP3   OH243591   6.703   4.680  13.227  0.1069  0.2165  0.3597
 7367TIP3    H143592   6.720   4.624  13.302 -1.4283 -1.2985 -0.3542
 7367TIP3    H243593   6.618   4.650  13.193  0.3905  1.3584 -1.5102
 7368TIP3   OH243594   1.902   2.510  12.852 -0.0577 -0.1936  0.6014
 7368TIP3    H143595   1.874   2.445  12.916 -0.8481  1.3862  1.9649
 7368TIP3    H243596   1.821   2.535  12.807  0.4839 -1.2524 -1.0322
 7369TIP3   OH243597   2.063   5.366   3.893  0.7087 -0.1076  0.2801
 7369TIP3    H143598   2.040   5.356   3.801  0.0925 -0.9441  0.5172
 7369TIP3    H243599   1.986   5.407   3.932  0.5457 -0.7175  0.6140
 7370TIP3   OH243600   5.593   5.290  10.928 -0.1437 -0.2732 -0.1738
 7370TIP3    H143601   5.533   5.273  10.855  1.6776  0.8376 -2.0521
 7370TIP3    H243602   5.575   5.380  10.954 -0.3613 -0.4617  0.3422
 7371TIP3   OH243603   2.567   3.965   1.426 -0.6242 -0.7908  0.1984
 7371TIP3    H143604   2.603   3.911   1.356 -0.9607 -3.0116  1.6661
 7371TIP3    H243605   2.490   4.007   1.386  0.8775  0.4334 -1.5950
 7372TIP3   OH243606   4.932   1.045  13.954  0.4649  0.1915  0.0592
 7372TIP3    H143607   4.946   1.029  14.047 -1.9985 -0.5507  0.3690
 7372TIP3    H243608   4.996   0.989  13.910  0.8090 -0.4109  1.2856
 7373TIP3   OH243609   2.649   0.534   4.730  0.1643 -0.2102  0.3590
 7373TIP3    H143610   2.710   0.531   4.656  1.3354  0.3069  1.2870
 7373TIP3    H243611   2.681   0.469   4.791  0.3254  0.6796  1.2528
 7374TIP3   OH243612   4.506   0.652   1.084 -0.0856  0.3138  0.3913
 7374TIP3    H143613   4.493   0.747   1.093  0.6775  0.3431  1.4047
 7374TIP3    H243614   4.483   0.617   1.170  0.1407 -0.3663  0.1767
 7375TIP3   OH243615   3.772   2.872   0.209 -0.7028 -0.3407 -0.7599
 7375TIP3    H143616   3.733   2.869   0.122 -1.1498 -0.4141 -0.5589
 7375TIP3    H243617   3.726   2.805   0.259  0.2349 -0.9943 -0.7374
 7376TIP3   OH243618   3.546   1.871  16.913  0.8729 -0.1544  0.0373
 7376TIP3    H143619   3.556   1.893  16.820  2.5130  3.1265  0.8502
 7376TIP3    H243620   3.574   1.779  16.918  1.5923 -0.1763 -2.5608
 7377TIP3   OH243621   6.050   0.520   0.885 -0.2490 -0.1268 -0.6435
 7377TIP3    H143622   6.111   0.577   0.931 -2.3217  1.1082  0.7767
 7377TIP3    H243623   5.977   0.577   0.862 -1.7544 -1.8880 -0.4569
 7378TIP3   OH243624   1.681   4.627  13.728  0.0118  0.2858 -0.0776
 7378TIP3    H143625   1.749   4.575  13.684 -0.1357  0.2740 -0.2914
 7378TIP3    H243626   1.615   4.641  13.661  0.3513  1.3171 -0.2172
 7379TIP3   OH243627   4.115   2.061  11.568  0.1129  0.4485 -0.3744
 7379TIP3    H143628   4.092   2.090  11.480 -0.5588  0.3636 -0.2337
 7379TIP3    H243629   4.102   1.966  11.566 -0.6208  0.5308  0.0136
 7380TIP3   OH243630   0.965   6.610   0.260 -0.0003  0.0572 -0.1859
 7380TIP3    H143631   0.975   6.640   0.169 -0.4943 -3.3019 -1.4763
 7380TIP3    H243632   1.054   6.601   0.292  0.1829  2.3618  0.1799
 7381TIP3   OH243633   1.902   1.830  14.520  0.0199  0.0214 -0.0222
 7381TIP3    H143634   1.936   1.865  14.603 -0.6843 -1.3982  0.8943
 7381TIP3    H243635   1.877   1.740  14.540 -1.6662  0.1428 -1.3698
 7382TIP3   OH243636   6.841   5.748   3.039  0.2638 -0.3726  1.0527
 7382TIP3    H143637   6.890   5.718   2.963  0.3692 -1.1606  1.4224
 7382TIP3    H243638   6.894   5.721   3.114  1.5735  2.7857  1.4236
 7383TIP3   OH243639   4.755   5.397   5.266 -0.4817 -0.1363  0.6489
 7383TIP3    H143640   4.675   5.447   5.281 -0.3984 -0.3164  1.7737
 7383TIP3    H243641   4.736   5.311   5.302  0.6322  0.1855  2.0979
 7384TIP3   OH243642   1.002   1.922  12.878  0.2532  0.3397  0.5102
 7384TIP3    H143643   0.951   1.886  12.805  1.6318  0.1983 -0.4244
 7384TIP3    H243644   0.953   1.896  12.956 -2.6492  2.5890 -0.3594
 7385TIP3   OH243645   5.058   4.373  12.291  0.5172 -0.4013 -0.0786
 7385TIP3    H143646   5.008   4.303  12.334  0.9440 -0.2449  0.6961
 7385TIP3    H243647   5.124   4.327  12.239 -0.8403 -0.6354 -1.6889
 7386TIP3   OH243648   3.725   5.559  13.740  0.8012  0.4483  0.3855
 7386TIP3    H143649   3.809   5.578  13.699 -0.0167  0.8102 -1.2023
 7386TIP3    H243650   3.716   5.464  13.735 -0.4198  0.6375 -2.7497
 7387TIP3   OH243651   0.272   4.348   2.529  0.4751  0.0471 -0.0279
 7387TIP3    H143652   0.291   4.256   2.547 -0.2517 -0.1970 -0.4732
 7387TIP3    H243653   0.329   4.369   2.454  0.3168 -0.1706 -0.2111
 7388TIP3   OH243654   0.229   5.889  16.603  0.9181 -0.2605 -0.1208
 7388TIP3    H143655   0.173   5.825  16.646 -0.5828 -0.5605 -2.3276
 7388TIP3    H243656   0.303   5.838  16.569  0.2957 -0.6537 -0.9106
 7389TIP3   OH243657   1.428   1.350  16.013 -0.1918  0.2572 -0.6154
 7389TIP3    H143658   1.405   1.282  15.949  0.0528  0.2717 -0.7170
 7389TIP3    H243659   1.511   1.321  16.051 -0.5239  0.0506 -0.0276
 7390TIP3   OH243660   4.460   4.881  11.129 -0.2655 -0.1790 -0.2242
 7390TIP3    H143661   4.471   4.957  11.072  1.4025 -1.6621 -1.9884
 7390TIP3    H243662   4.368   4.885  11.156 -0.2259  2.4368 -0.2443
 7391TIP3   OH243663   4.409   1.474   2.846 -0.8134 -0.1089 -0.7772
 7391TIP3    H143664   4.484   1.450   2.791  0.0796 -0.4248  0.5193
 7391TIP3    H243665   4.333   1.448   2.796  0.0081 -1.6661 -1.2850
 7392TIP3   OH243666   2.608   0.721   3.883  0.3429 -0.1266  0.0191
 7392TIP3    H143667   2.574   0.754   3.800  0.4875  2.2002  0.8058
 7392TIP3    H243668   2.534   0.678   3.924 -1.1155  2.7212  0.6226
 7393TIP3   OH243669   2.363   4.126  15.797  0.4874 -0.3408  0.6114
 7393TIP3    H143670   2.455   4.114  15.821  0.7661  1.0534  0.3392
 7393TIP3    H243671   2.358   4.095  15.706  1.6997  3.2098 -0.8790
 7394TIP3   OH243672   3.490   2.464   3.322 -0.3383 -0.2471  0.6881
 7394TIP3    H143673   3.431   2.497   3.255 -0.6569 -1.3355  0.4200
 7394TIP3    H243674   3.566   2.523   3.318 -0.8576  0.3985  0.1818
 7395TIP3   OH243675   2.697   3.934  14.750  0.4407  0.6032 -0.1512
 7395TIP3    H143676   2.781   3.966  14.786  0.0018  2.3404 -0.6017
 7395TIP3    H243677   2.690   3.976  14.665  0.2389 -1.4752 -1.2089
 7396TIP3   OH243678   4.688   1.329  14.383 -0.3876  0.1264 -0.2631
 7396TIP3    H143679   4.774   1.346  14.345 -0.2239  2.7240  1.0281
 7396TIP3    H243680   4.646   1.270  14.322  1.7193  0.0712 -1.7659
 7397TIP3   OH243681   1.822   0.375   2.913 -0.4176 -0.0674 -0.0895
 7397TIP3    H143682   1.820   0.334   2.999 -2.3015 -1.7723 -0.8814
 7397TIP3    H243683   1.891   0.328   2.865 -1.2954 -1.0556 -0.3969
 7398TIP3   OH243684   2.350   2.314   3.928 -0.2695 -0.1898 -0.6783
 7398TIP3    H143685   2.381   2.316   4.019  0.6114  1.9143 -0.9807
 7398TIP3    H243686   2.350   2.221   3.905 -2.1527 -0.9813  1.9922
 7399TIP3   OH243687   0.064   3.740   3.414 -0.1414 -0.3567  0.5878
 7399TIP3    H143688   0.058   3.822   3.462  0.1858 -0.4068  0.7167
 7399TIP3    H243689   0.153   3.709   3.430 -0.1343 -0.5387  0.2210
 7400TIP3   OH243690   5.072   5.514   4.561  0.5632  0.3340 -0.6192
 7400TIP3    H143691   5.089   5.423   4.535 -0.2313  0.2958 -1.0375
 7400TIP3    H243692   4.979   5.527   4.542  0.9424  1.6066 -1.6766
 7401TIP3   OH243693   6.107   3.312   6.064 -0.4765  0.6753 -0.4724
 7401TIP3    H143694   6.016   3.342   6.069  0.0741  2.2857  1.3058
 7401TIP3    H243695   6.140   3.321   6.154  1.6006  0.7060 -1.1886
 7402TIP3   OH243696   1.807   4.680  16.500  0.6910  0.1921 -0.1976
 7402TIP3    H143697   1.740   4.713  16.440  0.9614  0.2378 -0.4763
 7402TIP3    H243698   1.829   4.594  16.467 -1.4205 -1.1698  1.6384
 7403TIP3   OH243699   4.316   2.598   1.471  0.4436  0.3089 -0.2634
 7403TIP3    H143700   4.292   2.523   1.416  0.7889 -0.3497  0.4669
 7403TIP3    H243701   4.271   2.672   1.431 -2.5610 -0.7793  0.8399
 7404TIP3   OH243702   2.993   6.121   1.449 -0.4039  0.4058  0.0918
 7404TIP3    H143703   2.902   6.094   1.459  0.1953 -2.4765 -1.2513
 7404TIP3    H243704   3.040   6.079   1.520  0.1595  0.2375 -0.3660
 7405TIP3   OH243705   1.194   0.238  16.598 -0.1145  0.1518  0.2026
 7405TIP3    H143706   1.108   0.214  16.630 -0.3788 -1.3617 -1.4807
 7405TIP3    H243707   1.233   0.156  16.567  2.1810  0.6856  1.4129
 7406TIP3   OH243708   6.356   6.142  16.450 -0.4483  0.1948 -0.0639
 7406TIP3    H143709   6.393   6.149  16.538 -0.9783 -0.7081  0.2514
 7406TIP3    H243710   6.415   6.193  16.395 -0.7090  1.7053  0.9855
 7407TIP3   OH243711   6.681   3.855   6.208 -0.9456  0.3557 -0.8055
 7407TIP3    H143712   6.753   3.813   6.253 -0.3259  1.9436 -0.2353
 7407TIP3    H243713   6.617   3.785   6.194  0.2701 -0.8685 -0.4556
 7408TIP3   OH243714   5.106   1.484   5.038  0.2482 -0.1757  0.6900
 7408TIP3    H143715   5.069   1.411   5.088  0.2415  0.4873  1.7060
 7408TIP3    H243716   5.094   1.560   5.096  1.8771  0.3122  0.4423
 7409TIP3   OH243717   5.243   4.019  15.432 -0.4479 -0.0965 -0.2678
 7409TIP3    H143718   5.244   3.945  15.493  1.7170 -2.1290 -2.5610
 7409TIP3    H243719   5.164   4.005  15.379 -0.9685  0.2678  0.3876
 7410TIP3   OH243720   3.309   2.248   3.420  0.3476  0.0727  0.3039
 7410TIP3    H143721   3.393   2.246   3.374 -0.9379 -0.5523 -2.1965
 7410TIP3    H243722   3.285   2.341   3.422 -0.2578  0.0060 -1.7500
 7411TIP3   OH243723   3.964   0.926  14.672 -0.0066 -0.5358 -0.2242
 7411TIP3    H143724   3.945   0.840  14.709  0.6233 -0.4113  0.4098
 7411TIP3    H243725   3.903   0.935  14.598 -0.6091 -1.1967  0.1855
 7412TIP3   OH243726   6.414   0.003  12.971 -0.3414  0.5010  0.1880
 7412TIP3    H143727   6.345   0.015  13.037 -1.4775 -1.6483 -0.4774
 7412TIP3    H243728   6.454   0.089  12.961 -1.3959  1.3092  2.2869
 7413TIP3   OH243729   0.562   1.400   5.104 -0.0888 -0.0114  0.2982
 7413TIP3    H143730   0.620   1.431   5.034  0.7600  1.0708  1.4297
 7413TIP3    H243731   0.620   1.381   5.177 -1.1065  0.6372  1.3134
 7414TIP3   OH243732   1.679   1.419  12.531  0.0951  0.3034  0.3211
 7414TIP3    H143733   1.620   1.478  12.577  1.8741  1.0997  1.7065
 7414TIP3    H243734   1.662   1.333  12.571  2.7708  1.2324  3.9607
 7415TIP3   OH243735   5.982   2.772   5.022 -0.5281  0.4686 -0.0007
 7415TIP3    H143736   6.044   2.814   5.083  0.9309  0.7169 -1.5750
 7415TIP3    H243737   5.916   2.733   5.079 -0.8140  3.0702  1.6701
 7416TIP3   OH243738   5.807   4.130  13.768 -0.4262 -0.3032 -0.0009
 7416TIP3    H143739   5.859   4.182  13.829 -1.1659  0.4806 -0.0328
 7416TIP3    H243740   5.832   4.039  13.787  1.3593  0.0694 -0.3965
 7417TIP3   OH243741   0.469   6.322  16.702  0.2821  0.4361  0.0837
 7417TIP3    H143742   0.429   6.250  16.753  0.3797  0.9581  0.9193
 7417TIP3    H243743   0.541   6.280  16.656  0.3156 -0.0221  0.5306
 7418TIP3   OH243744   3.469   6.459  11.983  0.2779 -0.0118  0.1264
 7418TIP3    H143745   3.479   6.532  12.044  1.6784  0.8970 -1.1305
 7418TIP3    H243746   3.463   6.500  11.897 -2.8499 -1.1812 -0.3389
 7419TIP3   OH243747   5.095   5.332  15.588  0.0905 -0.2344  0.3505
 7419TIP3    H143748   5.025   5.388  15.554 -0.8116 -0.7362  1.3556
 7419TIP3    H243749   5.144   5.389  15.647  2.2554  0.9407 -2.3345
 7420TIP3   OH243750   3.515   5.068  15.612  0.2328  0.3972 -0.0069
 7420TIP3    H143751   3.488   5.050  15.702  0.8484  1.4683  0.4066
 7420TIP3    H243752   3.555   4.986  15.582 -2.7842 -1.0412 -0.4336
 7421TIP3   OH243753   2.251   3.348  13.028  0.6417 -0.0132  1.1676
 7421TIP3    H143754   2.161   3.377  13.011  1.3494  1.2879 -0.7150
 7421TIP3    H243755   2.275   3.298  12.951  2.5887  2.4985 -0.0106
 7422TIP3   OH243756   4.444   2.255   1.234 -0.3398  0.3898  0.4683
 7422TIP3    H143757   4.366   2.291   1.278 -1.0740 -0.3431 -0.1987
 7422TIP3    H243758   4.417   2.168   1.204  0.6776  0.2055  0.0411
 7423TIP3   OH243759   0.794   0.903   4.455  0.6124 -0.2858 -0.2379
 7423TIP3    H143760   0.787   0.975   4.518 -0.1783  1.2466 -1.9932
 7423TIP3    H243761   0.777   0.825   4.507 -0.9718  0.9998  1.3005
 7424TIP3   OH243762   0.084   4.949  12.653  0.2430  0.0985 -0.2619
 7424TIP3    H143763   0.009   4.939  12.711  0.9742  0.9830  0.8816
 7424TIP3    H243764   0.047   4.946  12.564 -1.1355  0.5135  0.2723
 7425TIP3   OH243765   1.167   2.351   2.916 -0.3672  0.1510  0.2849
 7425TIP3    H143766   1.167   2.443   2.890  0.6997  0.0436 -0.1186
 7425TIP3    H243767   1.204   2.352   3.005  1.7232 -0.0781 -0.5298
 7426TIP3   OH243768   5.291   6.339  12.615 -0.3976 -0.0475 -0.1633
 7426TIP3    H143769   5.351   6.343  12.540  0.1494  0.6169  0.3062
 7426TIP3    H243770   5.348   6.326  12.690 -0.7910  1.0347  0.3407
 7427TIP3   OH243771   6.492   3.847  11.767  0.2454 -0.0246 -0.9992
 7427TIP3    H143772   6.503   3.941  11.751  1.1476  0.1600  0.4134
 7427TIP3    H243773   6.548   3.830  11.843  1.4620 -2.0578 -2.2504
 7428TIP3   OH243774   0.840   1.330   1.887  0.2628  0.0359  0.1131
 7428TIP3    H143775   0.897   1.270   1.839  2.3626  0.9703  1.2966
 7428TIP3    H243776   0.795   1.380   1.819  1.3586 -0.2942 -0.8918
 7429TIP3   OH243777   0.312   5.550  14.995 -0.4407  0.7186  0.3506
 7429TIP3    H143778   0.264   5.535  15.077  0.3580 -0.6730  0.5922
 7429TIP3    H243779   0.379   5.482  14.993  0.5016  1.6277 -0.7681
 7430TIP3   OH243780   1.843   5.898   2.130 -0.0037  0.0207 -0.6570
 7430TIP3    H143781   1.855   5.971   2.190  1.4502 -0.1843 -0.6611
 7430TIP3    H243782   1.749   5.880   2.133 -0.0892  0.5663  0.8955
 7431TIP3   OH243783   2.030   0.228   2.232  0.5285 -0.3485 -0.1406
 7431TIP3    H143784   2.066   0.215   2.145 -0.0685 -0.6040 -0.3588
 7431TIP3    H243785   1.984   0.312   2.227  1.1491  0.0169  0.1594
 7432TIP3   OH243786   1.248   5.637   3.191 -0.1916  0.5915  0.1373
 7432TIP3    H143787   1.228   5.672   3.278  0.7041  1.1001  0.1485
 7432TIP3    H243788   1.254   5.542   3.205 -0.9955  0.5729  0.4293
 7433TIP3   OH243789   5.220   2.954   0.581  0.3292  0.4103  0.3256
 7433TIP3    H143790   5.192   3.040   0.550  2.1472  1.0252  0.2979
 7433TIP3    H243791   5.299   2.971   0.632  2.2545 -1.4684 -1.8213
 7434TIP3   OH243792   2.729   0.022   2.559 -0.3378  0.2761  0.3958
 7434TIP3    H143793   2.776  -0.059   2.537 -0.5689  0.3338 -0.3201
 7434TIP3    H243794   2.660   0.029   2.493 -1.3974  0.1731  1.4577
 7435TIP3   OH243795   4.443   2.852  12.190 -0.4186  0.2917  0.0265
 7435TIP3    H143796   4.472   2.847  12.281 -1.7494 -0.9172  0.4113
 7435TIP3    H243797   4.525   2.848  12.139  0.3757  1.5111  1.1481
 7436TIP3   OH243798   0.169   2.505  17.046  0.2139  0.0467 -0.2854
 7436TIP3    H143799   0.159   2.542  16.958 -0.3813  2.0651  0.5739
 7436TIP3    H243800   0.240   2.555  17.085 -0.6164  0.3289  0.9359
 7437TIP3   OH243801   3.675   1.588  15.565 -0.4396  0.4708  0.0355
 7437TIP3    H143802   3.603   1.548  15.615 -0.9973  1.7931  0.3284
 7437TIP3    H243803   3.654   1.681  15.564  0.9146  0.7836 -0.4951
 7438TIP3   OH243804   2.579   3.757  12.070 -0.3386  0.0073 -0.3700
 7438TIP3    H143805   2.572   3.687  12.005  1.7440 -0.4595 -0.1625
 7438TIP3    H243806   2.612   3.832  12.022  2.2741 -0.6479  0.2314
 7439TIP3   OH243807   4.279   2.914  14.103 -0.1520 -0.3674  0.3269
 7439TIP3    H143808   4.264   2.942  14.012 -0.1099  0.3724  0.5364
 7439TIP3    H243809   4.373   2.896  14.106  0.2180  1.4397  0.6822
 7440TIP3   OH243810   5.109   3.714  15.158 -0.2113 -0.4176  0.6317
 7440TIP3    H143811   5.023   3.742  15.188 -0.2618 -0.8561  0.9218
 7440TIP3    H243812   5.128   3.769  15.082 -1.6456 -1.6906 -0.7206
 7441TIP3   OH243813   2.258   0.223  10.986  0.2758 -0.4086  0.1224
 7441TIP3    H143814   2.288   0.310  10.961  0.4658 -0.8012 -1.0834
 7441TIP3    H243815   2.221   0.235  11.073  0.9267  0.7363  0.2652
 7442TIP3   OH243816   0.305   1.542  15.270 -0.7371  0.1725 -0.4649
 7442TIP3    H143817   0.221   1.581  15.249 -1.8709 -1.9311 -0.1749
 7442TIP3    H243818   0.332   1.584  15.351 -0.9593  1.6393 -1.1323
 7443TIP3   OH243819   2.300   2.304  16.809  0.1232  0.6356  0.2763
 7443TIP3    H143820   2.291   2.333  16.719  1.9411  1.5810  0.3610
 7443TIP3    H243821   2.391   2.322  16.832  0.3594 -1.6990  1.5723
 7444TIP3   OH243822   5.808   4.793   0.176  0.0209  0.0973  0.1647
 7444TIP3    H143823   5.834   4.701   0.181  0.6176  0.2991  1.0153
 7444TIP3    H243824   5.722   4.791   0.134  0.8508 -0.6933 -1.6398
 7445TIP3   OH243825   5.672   0.991  12.090  0.2950 -0.6192 -0.3570
 7445TIP3    H143826   5.586   0.999  12.131  0.5323 -2.7330  0.6549
 7445TIP3    H243827   5.655   1.006  11.997 -0.6445  1.8630  0.1251
 7446TIP3   OH243828   2.700   5.157   4.419 -0.2675 -0.0880 -0.2054
 7446TIP3    H143829   2.668   5.218   4.353  1.7278 -0.6376 -1.8054
 7446TIP3    H243830   2.734   5.213   4.490  1.6176  0.7593 -1.6817
 7447TIP3   OH243831   0.216   5.089   5.023  0.4053  0.7087 -0.2752
 7447TIP3    H143832   0.261   5.076   5.107 -1.8030 -0.0568  0.8715
 7447TIP3    H243833   0.181   5.178   5.027 -2.2136 -0.2757  1.0009
 7448TIP3   OH243834   1.536   6.568  13.767 -0.2736 -0.3038 -0.4602
 7448TIP3    H143835   1.449   6.556  13.805  0.0006 -0.0597  0.2654
 7448TIP3    H243836   1.530   6.529  13.680 -0.6487 -1.7397  0.1790
 7449TIP3   OH243837   4.691   1.422  11.358  0.3233  0.3388 -0.2949
 7449TIP3    H143838   4.728   1.510  11.353  2.7189 -0.6432 -1.7073
 7449TIP3    H243839   4.625   1.420  11.289  2.4672  0.1850 -2.4897
 7450TIP3   OH243840   4.536   4.794  11.412  0.3761 -0.0464 -0.9712
 7450TIP3    H143841   4.441   4.799  11.412  0.3835  2.5345  0.9128
 7450TIP3    H243842   4.563   4.831  11.328 -0.2688 -0.8380 -1.5324
 7451TIP3   OH243843   5.258   4.469   3.200  0.2198  0.3434 -0.1995
 7451TIP3    H143844   5.298   4.487   3.115 -1.0493  0.6470 -0.7572
 7451TIP3    H243845   5.195   4.540   3.212  0.2881  0.2319  0.9436
 7452TIP3   OH243846   5.321   4.104  16.960  0.0669  0.3333 -0.0583
 7452TIP3    H143847   5.299   4.099  16.867  1.6801  0.0836 -0.4586
 7452TIP3    H243848   5.300   4.194  16.985 -2.9770 -0.3122  0.0935
 7453TIP3   OH243849   4.944   3.321  15.599 -0.2443  0.6761 -0.8014
 7453TIP3    H143850   4.877   3.362  15.653  0.5227  1.7610 -0.6485
 7453TIP3    H243851   4.900   3.244  15.562 -1.1975  0.6763  0.2504
 7454TIP3   OH243852   0.177   3.077   0.569  0.2404  0.2092 -0.1217
 7454TIP3    H143853   0.121   3.145   0.605 -0.1327 -0.5751  0.8536
 7454TIP3    H243854   0.250   3.071   0.631  0.3134 -0.2055 -0.2415
 7455TIP3   OH243855   1.691   5.038   4.845 -0.7371 -0.1534  0.4020
 7455TIP3    H143856   1.686   4.954   4.801 -1.6123  0.0633  0.0805
 7455TIP3    H243857   1.754   5.089   4.794  0.9611 -1.0998  1.4545
 7456TIP3   OH243858   4.523   3.169   6.834  0.4721  0.0233  0.0870
 7456TIP3    H143859   4.457   3.234   6.858  1.6640  2.1268 -1.8521
 7456TIP3    H243860   4.606   3.214   6.846  1.4357 -1.6287 -0.0675
 7457TIP3   OH243861   5.444   2.206   3.660  0.3553  0.2342  0.0444
 7457TIP3    H143862   5.532   2.169   3.671  0.8236  1.0658 -0.6943
 7457TIP3    H243863   5.400   2.146   3.600  0.2112 -0.4948  0.8663
 7458TIP3   OH243864   2.630   4.744   0.979 -0.1007  0.0982  0.1079
 7458TIP3    H143865   2.587   4.827   0.958  1.0758  0.4135 -1.1655
 7458TIP3    H243866   2.634   4.697   0.896  0.1504 -0.8049  0.6161
 7459TIP3   OH243867   5.043   4.639   6.288 -0.4427 -0.4920 -0.3128
 7459TIP3    H143868   4.951   4.663   6.295 -1.2026 -2.7369 -1.6296
 7459TIP3    H243869   5.090   4.721   6.298 -2.4992  0.5592  1.5535
 7460TIP3   OH243870   1.304   0.664   4.967 -0.6981  0.0231 -0.2339
 7460TIP3    H143871   1.264   0.626   4.888 -1.1936  1.1976 -0.5697
 7460TIP3    H243872   1.245   0.735   4.992  1.3538  2.1579 -1.0290
 7461TIP3   OH243873   1.453   1.984   4.822 -0.0407 -0.4967  0.0369
 7461TIP3    H143874   1.363   1.952   4.836 -0.0968 -0.9060 -1.2067
 7461TIP3    H243875   1.454   2.016   4.732  0.2192  2.4320  0.9664
 7462TIP3   OH243876   6.394   6.499  13.767  0.6993  0.9266  0.2295
 7462TIP3    H143877   6.392   6.404  13.776  0.0664  0.6418 -2.1073
 7462TIP3    H243878   6.358   6.533  13.849 -1.4097 -0.9396  0.1414
 7463TIP3   OH243879   1.102   6.653  13.702  0.1885  0.2194 -0.5829
 7463TIP3    H143880   1.176   6.623  13.755  0.9536 -0.0677 -1.7835
 7463TIP3    H243881   1.083   6.580  13.644 -0.9044  0.3789 -0.4452
 7464TIP3   OH243882   6.789   0.413  12.592 -0.5621 -0.1429  0.9984
 7464TIP3    H143883   6.787   0.468  12.670 -0.8181  0.1667  0.7772
 7464TIP3    H243884   6.770   0.473  12.520  0.3769 -0.2883  0.6141
 7465TIP3   OH243885   3.204   4.755   2.608  0.1035 -0.0520  0.1417
 7465TIP3    H143886   3.124   4.746   2.555 -0.2594  1.8126  0.2758
 7465TIP3    H243887   3.248   4.832   2.570  1.9129 -1.0934  0.0093
 7466TIP3   OH243888   3.297   4.590  10.978  0.6172  0.3139  0.5944
 7466TIP3    H143889   3.220   4.579  10.922  1.0594  0.3573 -0.0358
 7466TIP3    H243890   3.366   4.541  10.934  1.3057  1.4064  0.4186
 7467TIP3   OH243891   2.584   5.604   0.438  0.1027  0.4952 -0.4031
 7467TIP3    H143892   2.502   5.652   0.453 -1.2548 -2.0808  1.0943
 7467TIP3    H243893   2.639   5.628   0.513 -0.2532  0.3453 -0.0903
 7468TIP3   OH243894   6.534   4.308   2.974  0.3846 -0.5377  0.4571
 7468TIP3    H143895   6.502   4.285   2.887 -1.9938  1.2690  0.7553
 7468TIP3    H243896   6.510   4.233   3.029 -0.1517 -0.7229 -0.0269
 7469TIP3   OH243897   5.378   6.832   3.058  0.2545 -0.1531 -0.3336
 7469TIP3    H143898   5.356   6.896   3.126 -0.5995  1.7530 -2.2780
 7469TIP3    H243899   5.472   6.817   3.069  0.2349  0.5138  0.9281
 7470TIP3   OH243900   6.634   3.939   1.981  0.5941 -0.1384 -0.1269
 7470TIP3    H143901   6.700   4.007   1.991  0.7599 -0.4415  0.9039
 7470TIP3    H243902   6.659   3.892   1.901  1.2979  0.0998 -0.0466
 7471TIP3   OH243903   4.899   0.580  11.905 -0.7066 -0.4218 -0.8479
 7471TIP3    H143904   4.942   0.642  11.846 -0.7474 -0.1545 -0.6033
 7471TIP3    H243905   4.855   0.636  11.969 -1.3226 -0.6933 -1.0282
 7472TIP3   OH243906   2.516   2.251   2.000  0.3579  0.2855 -0.0495
 7472TIP3    H143907   2.533   2.157   2.010  1.5940  0.6063  1.0431
 7472TIP3    H243908   2.574   2.278   1.929  0.0006  0.2302 -0.3651
 7473TIP3   OH243909   5.675   4.582  15.849  0.1488  0.3462  0.1454
 7473TIP3    H143910   5.621   4.558  15.774  3.3799 -0.8106 -1.9828
 7473TIP3    H243911   5.635   4.663  15.882 -2.6143 -0.2320 -1.4321
 7474TIP3   OH243912   2.415   6.308  15.764  0.1328  0.3648  0.0044
 7474TIP3    H143913   2.492   6.337  15.716  1.2035 -1.8569  0.2675
 7474TIP3    H243914   2.362   6.387  15.774  2.1306  1.8640 -0.6108
 7475TIP3   OH243915   2.550   2.582  13.423  0.1830  0.5503  0.1546
 7475TIP3    H143916   2.587   2.551  13.340  0.3193  1.1776 -0.0266
 7475TIP3    H243917   2.470   2.531  13.434  2.0578 -2.3546  1.5668
 7476TIP3   OH243918   4.774   3.718  16.810  0.3782 -0.3190  0.2275
 7476TIP3    H143919   4.726   3.776  16.751 -2.0607  0.4621  2.7597
 7476TIP3    H243920   4.845   3.771  16.844  2.6049 -1.1529 -2.7545
 7477TIP3   OH243921   3.205   6.753  11.714 -0.4800  0.1502 -0.2148
 7477TIP3    H143922   3.189   6.802  11.634 -1.8815  0.0180 -0.0372
 7477TIP3    H243923   3.123   6.707  11.731 -0.0210 -0.2673  0.9913
 7478TIP3   OH243924   5.832   0.379  13.523 -0.1894 -0.4116 -0.0173
 7478TIP3    H143925   5.820   0.456  13.577  0.5470 -0.4594  0.2251
 7478TIP3    H243926   5.804   0.306  13.578  0.6826 -0.4738  0.3636
 7479TIP3   OH243927   1.356   0.547  14.756  0.0410  0.3514  0.0658
 7479TIP3    H143928   1.394   0.621  14.803  2.1119 -0.3534 -0.3900
 7479TIP3    H243929   1.274   0.581  14.721  0.5067  2.1655  0.6209
 7480TIP3   OH243930   6.613   0.215   0.003 -0.5787  0.8443 -0.1283
 7480TIP3    H143931   6.579   0.178  -0.078  3.6086  0.4623 -1.9682
 7480TIP3    H243932   6.604   0.310  -0.008 -0.9858  0.7632 -0.5314
 7481TIP3   OH243933   6.278   5.979   3.467 -0.5633  0.1463  0.0439
 7481TIP3    H143934   6.261   5.894   3.508  0.8592 -0.5091 -0.6628
 7481TIP3    H243935   6.192   6.010   3.440 -1.1030 -1.0681  0.3061
 7482TIP3   OH243936   4.652   6.707  15.003 -0.1700  0.1284  0.2989
 7482TIP3    H143937   4.702   6.671  14.929  0.7186  1.8527  0.0132
 7482TIP3    H243938   4.718   6.726  15.069 -0.0863  3.8157 -0.6324
 7483TIP3   OH243939   0.109   6.272   5.600 -0.1287 -0.2261 -0.0387
 7483TIP3    H143940   0.024   6.251   5.560 -0.1667 -0.1283 -0.0082
 7483TIP3    H243941   0.173   6.254   5.531 -0.2004  0.0179 -0.1695
 7484TIP3   OH243942   1.337   3.648  13.322 -0.0901 -0.5850 -0.3491
 7484TIP3    H143943   1.325   3.693  13.238 -0.2004 -0.7230 -0.4063
 7484TIP3    H243944   1.432   3.648  13.335 -0.0768 -0.5021 -0.4393
 7485TIP3   OH243945   1.077   5.900  14.398  0.4361 -0.0621 -0.3102
 7485TIP3    H143946   0.997   5.948  14.418  1.7786  2.1097  0.2381
 7485TIP3    H243947   1.062   5.812  14.434 -1.3664  0.5468  0.5379
 7486TIP3   OH243948   4.564   5.507  13.784 -0.1680  0.1211 -0.2728
 7486TIP3    H143949   4.574   5.568  13.711 -3.0520  1.0802  0.0322
 7486TIP3    H243950   4.635   5.530  13.844  0.4881  1.2748 -1.4418
 7487TIP3   OH243951   5.431   2.469   3.740 -0.0908 -0.2728 -0.6858
 7487TIP3    H143952   5.389   2.446   3.822  1.0243 -0.4931 -0.1633
 7487TIP3    H243953   5.458   2.386   3.701  0.6512 -0.0939 -0.5774
 7488TIP3   OH243954   2.332   1.671  16.568  0.5193  0.1225 -0.0603
 7488TIP3    H143955   2.261   1.735  16.573  1.3147  0.9468  1.5268
 7488TIP3    H243956   2.406   1.720  16.533  0.6853 -0.3670 -0.3951
 7489TIP3   OH243957   6.383   6.823  14.063 -0.3443 -0.1847 -0.2986
 7489TIP3    H143958   6.429   6.778  14.133 -0.6867 -1.4925 -0.8782
 7489TIP3    H243959   6.439   6.811  13.986  0.2024  1.5281 -0.2158
 7490TIP3   OH243960   2.002   3.728   6.581 -0.5947 -0.4938  0.0503
 7490TIP3    H143961   1.947   3.678   6.520 -2.4660 -0.3489  1.5289
 7490TIP3    H243962   1.966   3.816   6.580 -0.9235 -0.5790  1.6132
 7491TIP3   OH243963   2.094   2.380   4.458 -0.4241 -0.0244 -0.3995
 7491TIP3    H143964   2.148   2.322   4.512 -2.4128 -1.8487 -0.2159
 7491TIP3    H243965   2.088   2.461   4.508 -1.0336 -1.1676  1.4812
 7492TIP3   OH243966   5.669   1.823  13.140 -0.0779 -0.5930  0.0236
 7492TIP3    H143967   5.722   1.831  13.061 -0.2482 -2.7956 -0.3857
 7492TIP3    H243968   5.590   1.872  13.121  0.3840 -0.1132 -0.7028
 7493TIP3   OH243969   1.180   5.731   1.117 -0.0328 -0.1922 -0.2298
 7493TIP3    H143970   1.206   5.824   1.116 -0.2174 -0.0928 -2.4415
 7493TIP3    H243971   1.179   5.707   1.209  0.7875  1.7978  0.3597
 7494TIP3   OH243972   0.026   3.735  15.055  1.0242 -0.0983  0.4233
 7494TIP3    H143973  -0.040   3.804  15.046 -0.1799 -1.4472 -1.7084
 7494TIP3    H243974  -0.020   3.654  15.036  3.0129 -1.2313  0.1423
 7495TIP3   OH243975   4.227   5.331   0.870  0.6194  0.0552 -0.3192
 7495TIP3    H143976   4.277   5.395   0.820 -0.4407  0.5421 -0.7866
 7495TIP3    H243977   4.188   5.381   0.942  2.1890 -0.6502  1.0734
 7496TIP3   OH243978   4.843   4.786  11.472  0.1012  0.3722 -0.4471
 7496TIP3    H143979   4.765   4.789  11.527  1.1567 -1.0923  1.2745
 7496TIP3    H243980   4.861   4.877  11.449 -0.8599  0.9588  1.0020
 7497TIP3   OH243981   0.931   6.502   1.858  0.4999  0.2348 -0.2841
 7497TIP3    H143982   0.847   6.505   1.902 -0.4944  0.1294 -2.0736
 7497TIP3    H243983   0.989   6.456   1.919 -0.6096  0.6443  1.1330
 7498TIP3   OH243984   3.784   0.827  17.152 -0.1600 -0.7340  0.7608
 7498TIP3    H143985   3.809   0.831  17.060 -1.4202  0.4624  0.4365
 7498TIP3    H243986   3.703   0.775  17.153 -1.1288  0.7169  0.9225
 7499TIP3   OH243987   3.640   0.498  13.021  0.3864  0.1117  0.0632
 7499TIP3    H143988   3.683   0.415  13.000 -0.7000 -1.0151  2.0013
 7499TIP3    H243989   3.632   0.497  13.117 -1.3538  1.5904 -0.0155
 7500TIP3   OH243990   0.292   4.417   2.911  0.0056 -0.3334 -0.3455
 7500TIP3    H143991   0.312   4.463   2.830  1.6063 -0.1794  0.0992
 7500TIP3    H243992   0.304   4.324   2.889  1.6173 -0.2308 -0.0194
 7501TIP3   OH243993   1.582   3.456   0.119  0.8666 -0.4301  0.4661
 7501TIP3    H143994   1.522   3.501   0.178  0.5999 -1.0880  0.7124
 7501TIP3    H243995   1.649   3.521   0.097  0.0323  0.3385  0.1398
 7502TIP3   OH243996   1.042   0.960  11.775  0.0047 -0.3643  0.0033
 7502TIP3    H143997   1.029   0.890  11.711 -0.8032 -0.0814 -0.1462
 7502TIP3    H243998   1.132   0.990  11.759 -1.0170  1.5667 -2.9179
 7503TIP3   OH243999   3.236   3.106  12.633  0.1424 -0.3603 -0.0970
 7503TIP3    H144000   3.311   3.050  12.654  0.7100  0.5914  0.5043
 7503TIP3    H244001   3.255   3.141  12.546 -0.7390 -1.9178 -0.9559
 7504TIP3   OH244002   2.246   1.923  15.915 -0.1854 -0.4302  0.2021
 7504TIP3    H144003   2.209   1.836  15.930  0.0342 -0.8459 -1.4931
 7504TIP3    H244004   2.339   1.908  15.897 -0.1410  0.1494 -0.0932
 7505TIP3   OH244005   3.344   4.163   1.637  0.6968 -0.2226 -0.6128
 7505TIP3    H144006   3.401   4.098   1.594  0.8408  0.1508 -0.9974
 7505TIP3    H244007   3.269   4.172   1.578  1.2336  0.8217 -1.1676
 7506TIP3   OH244008   4.281   1.696  11.770 -0.3438  0.0400  0.4167
 7506TIP3    H144009   4.271   1.604  11.747 -0.1588  0.0704  0.2178
 7506TIP3    H244010   4.240   1.743  11.697  1.5479  0.1846 -0.6066
 7507TIP3   OH244011   2.260   4.819   5.176  0.2686 -0.2031  0.5475
 7507TIP3    H144012   2.300   4.759   5.113  0.8111 -0.0289  0.7223
 7507TIP3    H244013   2.333   4.868   5.212 -0.1001  0.0819  0.9144
 7508TIP3   OH244014   2.159   4.386  16.640  1.0313 -0.5860 -0.0214
 7508TIP3    H144015   2.108   4.429  16.708 -0.2139 -1.9644 -0.0358
 7508TIP3    H244016   2.200   4.458  16.592 -1.3759  0.6584 -0.3697
 7509TIP3   OH244017   3.461   6.572  11.223 -0.3082  0.3776  0.0833
 7509TIP3    H144018   3.470   6.544  11.132 -2.3015  0.4109 -0.1664
 7509TIP3    H244019   3.473   6.667  11.220 -4.4777  1.0481 -0.9262
 7510TIP3   OH244020   4.600   6.160  17.168 -0.3952  0.2479  0.8004
 7510TIP3    H144021   4.649   6.176  17.249  1.0052 -0.1168  0.0505
 7510TIP3    H244022   4.610   6.241  17.118 -0.8705  0.3025  0.7937
 7511TIP3   OH244023   0.641   5.807  14.830  0.4262  0.3178  0.4794
 7511TIP3    H144024   0.581   5.739  14.800  1.1910  0.1546 -0.7710
 7511TIP3    H244025   0.718   5.760  14.860  0.6773  0.5911  0.2744
 7512TIP3   OH244026   0.968   4.586  16.881  0.2930 -0.5004  0.5987
 7512TIP3    H144027   0.949   4.501  16.842  1.8872 -0.7248  0.2380
 7512TIP3    H244028   0.978   4.645  16.806 -0.6503 -0.0054  0.8412
 7513TIP3   OH244029   3.775   0.580  14.108  0.0181 -0.0521  0.7036
 7513TIP3    H144030   3.754   0.652  14.167  0.2057  0.2242  0.4393
 7513TIP3    H244031   3.775   0.620  14.021 -1.2493 -0.6566  0.3999
 7514TIP3   OH244032   2.500   3.718  17.128 -1.0088 -0.4479  0.1435
 7514TIP3    H144033   2.567   3.782  17.153 -1.8266  0.2473  0.6075
 7514TIP3    H244034   2.417   3.757  17.157 -1.7844 -0.6039 -1.7020
 7515TIP3   OH244035   5.677   6.393   5.855  0.0866  0.0832  0.3175
 7515TIP3    H144036   5.636   6.398   5.941  0.5842  1.8729  0.4840
 7515TIP3    H244037   5.749   6.331   5.867 -0.4729 -0.4765  0.8933
 7516TIP3   OH244038   2.002   0.180   5.513 -0.7563  0.1575  0.0552
 7516TIP3    H144039   1.946   0.254   5.536 -0.8158 -0.0063  0.4533
 7516TIP3    H244040   2.062   0.171   5.587 -1.3122 -0.7317  0.4198
 7517TIP3   OH244041   3.017   5.321  13.853 -0.5632 -0.3740 -0.0010
 7517TIP3    H144042   3.031   5.252  13.917 -0.8513  0.2113  0.7167
 7517TIP3    H244043   3.091   5.380  13.865 -0.1853 -0.6781 -0.7834
 7518TIP3   OH244044   2.640   5.129  17.181 -0.0343  0.1700 -0.4494
 7518TIP3    H144045   2.731   5.157  17.191 -0.2281  0.6511  0.0602
 7518TIP3    H244046   2.615   5.158  17.093  0.2024  0.3493 -0.4573
 7519TIP3   OH244047   6.638   0.726  16.370 -0.1134  0.1682 -0.4628
 7519TIP3    H144048   6.679   0.642  16.347 -0.3819 -0.3375  0.7960
 7519TIP3    H244049   6.611   0.715  16.462 -0.1556  1.6419 -0.2756
 7520TIP3   OH244050   2.838   6.617   2.589  0.4673  1.0469  0.2746
 7520TIP3    H144051   2.843   6.524   2.564 -1.5123  1.0854 -0.4428
 7520TIP3    H244052   2.833   6.616   2.684 -3.4516  0.0620  0.2135
 7521TIP3   OH244053   4.424   1.965  11.824 -0.0707 -0.1277 -0.1904
 7521TIP3    H144054   4.372   1.885  11.832  0.2230 -0.2217  0.9238
 7521TIP3    H244055   4.451   1.967  11.732  0.1198 -1.4381 -0.1814
 7522TIP3   OH244056   2.619   5.728   0.199 -0.7782  0.1692  0.4389
 7522TIP3    H144057   2.644   5.730   0.291 -0.0254 -0.1244  0.2456
 7522TIP3    H244058   2.526   5.703   0.200 -0.7413  0.0404  1.1073
 7523TIP3   OH244059   2.922   6.517   3.687 -0.0351 -0.2283  0.2574
 7523TIP3    H144060   2.979   6.479   3.620  0.6702  0.9528  0.1563
 7523TIP3    H244061   2.979   6.578   3.734 -1.2570  1.1156  0.0462
 7524TIP3   OH244062   2.204   5.534  17.108 -0.1481 -0.7987 -0.2108
 7524TIP3    H144063   2.139   5.560  17.173 -0.4642  2.6498 -1.6705
 7524TIP3    H244064   2.279   5.591  17.126  0.6367 -1.4022 -1.4550
 7525TIP3   OH244065   4.463   5.882   3.075 -0.2916 -0.2125  0.1579
 7525TIP3    H144066   4.439   5.856   3.164  1.4470 -2.0264  0.1812
 7525TIP3    H244067   4.401   5.835   3.018 -2.2916  2.0053  0.3488
 7526TIP3   OH244068   6.246   0.273   2.700 -0.5710 -0.2525  0.5331
 7526TIP3    H144069   6.158   0.261   2.735 -1.1303  0.4229 -0.5956
 7526TIP3    H244070   6.246   0.224   2.618 -0.2433  0.6313 -0.0071
 7527TIP3   OH244071   0.732   0.734  15.734  0.0908  0.1133 -0.0435
 7527TIP3    H144072   0.794   0.688  15.677  1.5028  1.7720  0.0827
 7527TIP3    H244073   0.648   0.730  15.688  0.9872  0.5655 -1.7681
 7528TIP3   OH244074   1.916   1.235   2.379 -0.0356 -0.5484  0.0851
 7528TIP3    H144075   1.961   1.213   2.460 -0.0415  1.0878  0.5628
 7528TIP3    H244076   1.828   1.197   2.389  0.0259 -0.5214  0.7632
 7529TIP3   OH244077   4.477   0.669  12.968 -0.6038 -0.1251 -0.0080
 7529TIP3    H144078   4.453   0.577  12.959 -1.7545  0.1302  0.3201
 7529TIP3    H244079   4.538   0.670  13.043 -0.8050 -0.5799  0.1653
 7530TIP3   OH244080   2.749   2.483  10.955  0.5596  0.2104  0.8521
 7530TIP3    H144081   2.803   2.562  10.955  0.2249  0.4700  2.2978
 7530TIP3    H244082   2.664   2.512  10.922  0.5015  0.4043  1.1730
 7531TIP3   OH244083   0.571   5.236   6.208 -0.1152 -0.0891 -0.1509
 7531TIP3    H144084   0.555   5.189   6.126  1.3748  0.1145 -0.5835
 7531TIP3    H244085   0.557   5.171   6.277  0.0742 -0.6464 -0.6390
 7532TIP3   OH244086   4.915   5.587   1.055 -0.1741 -0.3644 -0.0329
 7532TIP3    H144087   4.862   5.507   1.048 -0.9943  0.1438  0.2759
 7532TIP3    H244088   4.983   5.565   1.119 -0.1156 -0.9675 -0.2995
 7533TIP3   OH244089   5.604   5.663  12.494  0.3844 -0.0361  0.2590
 7533TIP3    H144090   5.557   5.708  12.423 -0.2474 -0.7527  0.2173
 7533TIP3    H244091   5.679   5.720  12.512 -0.0136  0.6783 -0.2764
 7534TIP3   OH244092   1.650   6.799   4.098  0.0404  0.3772  0.3431
 7534TIP3    H144093   1.681   6.865   4.036  0.9056 -1.2305 -1.0067
 7534TIP3    H244094   1.723   6.787   4.158  0.7667 -0.9129 -0.7541
 7535TIP3   OH244095   4.382   4.437  12.732  0.4400 -0.7486 -0.1535
 7535TIP3    H144096   4.421   4.469  12.651  1.0749  1.3416  0.9095
 7535TIP3    H244097   4.289   4.426  12.710  0.7259 -0.9791 -1.3571
 7536TIP3   OH244098   4.509   0.208   1.535 -0.4627  0.3804  0.6183
 7536TIP3    H144099   4.470   0.166   1.458  0.9957 -4.1173  1.9805
 7536TIP3    H244100   4.574   0.268   1.499 -1.0161 -0.2878 -1.6760
 7537TIP3   OH244101   5.022   0.682  13.946 -0.1765  0.0571  0.3978
 7537TIP3    H144102   4.999   0.656  14.035 -1.5864 -0.2019 -0.0254
 7537TIP3    H244103   5.113   0.713  13.953  1.1488 -3.5088  1.2273
 7538TIP3   OH244104   2.056   2.905   2.154 -0.1373  0.2526  0.2680
 7538TIP3    H144105   2.106   2.863   2.083 -1.2011 -0.7357  0.0618
 7538TIP3    H244106   2.032   2.833   2.211  0.4174  1.0032  1.4834
 7539TIP3   OH244107   4.237   1.184  15.573  0.1121 -0.4365  0.2952
 7539TIP3    H144108   4.246   1.201  15.667  0.7903 -0.9908  0.3362
 7539TIP3    H244109   4.164   1.122  15.566 -1.2070  1.0481  0.2845
 7540TIP3   OH244110   5.386   3.092  17.114  0.2586 -0.3303 -0.4965
 7540TIP3    H144111   5.477   3.099  17.087  0.4565  0.9354  0.4149
 7540TIP3    H244112   5.341   3.162  17.066 -0.0689 -0.3779 -0.2674
 7541TIP3   OH244113   6.127   1.184  10.491 -0.0767 -0.5292  0.8626
 7541TIP3    H144114   6.205   1.202  10.439 -0.2377 -1.3342  0.3325
 7541TIP3    H244115   6.145   1.226  10.576  0.8247 -0.5073  0.6686
 7542TIP3   OH244116   0.207   2.982  16.881 -0.0931  0.9420  0.5670
 7542TIP3    H144117   0.264   3.023  16.947  0.3905 -0.7666  1.2734
 7542TIP3    H244118   0.268   2.939  16.821 -0.5889  0.6228  0.2925
 7543TIP3   OH244119   4.398   6.171   2.154  0.3803 -0.4345  0.6483
 7543TIP3    H144120   4.386   6.140   2.243  1.8335 -1.9118  0.3661
 7543TIP3    H244121   4.423   6.093   2.104  1.7680  0.7560 -0.6045
 7544TIP3   OH244122   2.630   3.677   1.298  0.2901 -0.4576 -0.3423
 7544TIP3    H144123   2.710   3.727   1.279 -0.0754 -0.0358 -0.7831
 7544TIP3    H244124   2.605   3.639   1.214 -1.5436  1.7193 -0.8853
 7545TIP3   OH244125   5.911   2.644  12.056 -0.6480  0.0296  0.4820
 7545TIP3    H144126   5.892   2.556  12.090 -0.5032  0.6355  2.2208
 7545TIP3    H244127   5.834   2.696  12.079 -0.6710  0.4033 -0.4136
 7546TIP3   OH244128   0.116   0.900   2.828  0.1501  0.0292 -0.4969
 7546TIP3    H144129   0.116   0.842   2.752  1.4536 -0.1832 -0.3624
 7546TIP3    H244130   0.199   0.883   2.871  0.6171  2.0485 -0.4819
 7547TIP3   OH244131   2.387   5.538  12.210  0.3654  0.0936 -0.3388
 7547TIP3    H144132   2.480   5.555  12.226  0.7293 -0.5266 -1.6637
 7547TIP3    H244133   2.385   5.486  12.129 -1.2020  1.2342 -1.0995
 7548TIP3   OH244134   4.697   3.166  13.069  0.1426 -0.2088 -0.4163
 7548TIP3    H144135   4.641   3.092  13.092 -1.4143  0.7874 -0.7775
 7548TIP3    H244136   4.676   3.184  12.978  1.1861  0.1201 -0.6076
 7549TIP3   OH244137   4.947   3.420  13.950 -1.0276 -0.4940  0.1148
 7549TIP3    H144138   4.875   3.362  13.975 -1.1269  0.1403  1.3885
 7549TIP3    H244139   5.000   3.428  14.029 -0.6291  0.5831 -0.2409
 7550TIP3   OH244140   4.169   2.618  15.882 -0.1294 -0.1060  0.1432
 7550TIP3    H144141   4.161   2.524  15.897  1.2035 -0.2538 -0.0054
 7550TIP3    H244142   4.225   2.649  15.953 -1.2926  0.7491  0.7271
 7551TIP3   OH244143   3.528   4.833   5.895  0.1314  0.0257  0.2050
 7551TIP3    H144144   3.473   4.780   5.952 -3.3372  0.3611 -2.5600
 7551TIP3    H244145   3.609   4.782   5.885 -1.0975 -2.3201  1.5020
 7552TIP3   OH244146   2.016   3.228  15.919 -0.0430  0.3070  0.1527
 7552TIP3    H144147   1.956   3.302  15.927 -0.1301  0.1799  0.7859
 7552TIP3    H244148   1.993   3.171  15.992  0.6698  0.1253  0.2453
 7553TIP3   OH244149   0.118   1.402  10.871  0.3305 -0.0275  0.3303
 7553TIP3    H144150   0.136   1.473  10.810  0.6581 -0.4280 -0.0482
 7553TIP3    H244151   0.154   1.324  10.829  1.6843 -0.1311  1.5749
 7554TIP3   OH244152   2.243   5.262   5.146 -0.5524  0.0526  0.5780
 7554TIP3    H144153   2.296   5.199   5.097 -1.7752 -2.1499  1.9270
 7554TIP3    H244154   2.289   5.272   5.230 -0.3317  1.0467  0.3487
 7555TIP3   OH244155   2.546   3.350   2.211  0.4392 -0.0608  0.1569
 7555TIP3    H144156   2.485   3.336   2.138 -0.4391 -0.8211  1.0095
 7555TIP3    H244157   2.631   3.323   2.176  0.3070  0.9795 -1.0405
 7556TIP3   OH244158   6.126   3.522   6.302 -0.6550  0.5932  0.0369
 7556TIP3    H144159   6.064   3.559   6.365 -1.4575  3.3209 -2.1411
 7556TIP3    H244160   6.071   3.492   6.230  0.2837 -1.8361  0.2567
 7557TIP3   OH244161   3.045   2.331  10.984  0.1641  0.2154  0.3859
 7557TIP3    H144162   2.989   2.297  10.914 -2.1548 -0.2349  2.3225
 7557TIP3    H244163   3.074   2.417  10.953 -1.6613  0.4829 -0.7174
 7558TIP3   OH244164   3.704   3.251  14.268 -0.3938  0.3386  0.3299
 7558TIP3    H144165   3.629   3.301  14.234 -2.9120 -2.4086  1.4552
 7558TIP3    H244166   3.681   3.233  14.359  0.2168 -3.0145 -0.0781
 7559TIP3   OH244167   1.902   2.713   5.839  0.1192  0.4782 -0.1573
 7559TIP3    H144168   1.899   2.805   5.815  0.0825  0.5523  0.1282
 7559TIP3    H244169   1.947   2.712   5.924  0.6205  0.1830 -0.4230
 7560TIP3   OH244170   5.515   4.928  16.471 -0.2585 -0.8013 -0.2991
 7560TIP3    H144171   5.468   4.981  16.406  0.7034 -1.0687 -1.2433
 7560TIP3    H244172   5.470   4.946  16.553 -0.9505  0.2500 -0.8804
 7561TIP3   OH244173   5.763   5.347  14.691  0.1352  0.0477 -0.6295
 7561TIP3    H144174   5.712   5.273  14.655 -1.3669  0.8140 -0.1541
 7561TIP3    H244175   5.698   5.401  14.735  1.5549  0.5014  1.0028
 7562TIP3   OH244176   3.349   3.477  14.280 -0.6980 -0.4839  0.1801
 7562TIP3    H144177   3.353   3.385  14.255 -1.1187 -0.3669 -0.3401
 7562TIP3    H244178   3.374   3.524  14.200 -3.4166 -0.0475 -0.4899
 7563TIP3   OH244179   1.322   0.044  16.865  0.9537  0.2784  0.5892
 7563TIP3    H144180   1.304   0.136  16.886 -0.3947 -0.0649  0.9974
 7563TIP3    H244181   1.320   0.040  16.770  1.8167  0.8108  0.5343
 7564TIP3   OH244182   2.630   0.521   1.419  0.1380  0.3360 -0.6154
 7564TIP3    H144183   2.617   0.497   1.327  2.5534  1.1761 -1.2338
 7564TIP3    H244184   2.669   0.608   1.416 -0.3164  0.6436  1.2589
 7565TIP3   OH244185   5.826   6.485  11.297 -0.2276  0.2051 -0.5964
 7565TIP3    H144186   5.777   6.567  11.291 -0.1107  0.2600 -0.8207
 7565TIP3    H244187   5.810   6.441  11.214  1.5874  1.0751 -1.4818
 7566TIP3   OH244188   0.230   4.458   0.342  0.1021  0.1762  0.5317
 7566TIP3    H144189   0.259   4.534   0.393 -1.7890  0.8990  0.5882
 7566TIP3    H244190   0.293   4.452   0.270  0.8097  1.2288  1.0415
 7567TIP3   OH244191   3.457   3.394   3.968  0.2335 -0.2696  0.0028
 7567TIP3    H144192   3.491   3.305   3.958  1.1645  0.1677 -0.9020
 7567TIP3    H244193   3.499   3.427   4.047 -0.4899 -0.7903  0.6152
 7568TIP3   OH244194   6.352   1.487  10.629 -0.3753  0.2326  0.2686
 7568TIP3    H144195   6.328   1.406  10.584 -0.3273 -0.2176  1.0272
 7568TIP3    H244196   6.361   1.552  10.559 -1.6955 -0.0914 -0.2270
 7569TIP3   OH244197   4.793   3.739  12.674 -0.2778 -0.2999  0.2303
 7569TIP3    H144198   4.812   3.766  12.764 -0.0987  0.1225  0.0722
 7569TIP3    H244199   4.867   3.683  12.650  0.4853  0.8306 -0.1678
 7570TIP3   OH244200   0.448   0.975  13.896  0.5382 -0.8234  0.0066
 7570TIP3    H144201   0.524   1.003  13.845 -1.2573  1.7869 -1.4506
 7570TIP3    H244202   0.393   0.929  13.834 -0.4035 -0.0802  0.2729
 7571TIP3   OH244203   0.166   2.179  12.346 -0.0689  0.1597  0.2336
 7571TIP3    H144204   0.076   2.145  12.346  0.4411 -1.3222  1.0995
 7571TIP3    H244205   0.211   2.126  12.412  1.0992  1.8460  0.8689
 7572TIP3   OH244206   4.862   0.832  13.702 -0.6718 -0.1232  0.4665
 7572TIP3    H144207   4.934   0.771  13.684 -0.4199  0.3555 -0.1733
 7572TIP3    H244208   4.905   0.917  13.714 -1.1375  0.1907 -0.0538
 7573TIP3   OH244209   1.004   4.747  15.025  0.4885  0.6690 -0.1200
 7573TIP3    H144210   1.065   4.801  14.974 -0.3586  2.1816  0.3746
 7573TIP3    H244211   0.986   4.672  14.969  0.6092  1.6157 -1.4864
 7574TIP3   OH244212   0.618   2.361   3.484  0.5078 -0.0684 -0.0081
 7574TIP3    H144213   0.643   2.421   3.414 -0.4053  0.0474 -0.2448
 7574TIP3    H244214   0.648   2.405   3.564  0.1089  0.5650 -0.2007
 7575TIP3   OH244215   2.079   3.200  17.087 -0.3271  0.1618  0.2257
 7575TIP3    H144216   2.115   3.112  17.090  0.1865  0.3059 -1.0380
 7575TIP3    H244217   2.012   3.201  17.156  1.5432 -0.3215  2.1367
 7576TIP3   OH244218   4.429   0.610   0.273  0.7864  0.9047  0.3996
 7576TIP3    H144219   4.385   0.591   0.190  0.8313  1.4901  0.2399
 7576TIP3    H244220   4.523   0.607   0.252  0.8003  0.9343  0.4569
 7577TIP3   OH244221   4.553   0.241   4.491  0.3878 -0.0154 -0.2577
 7577TIP3    H144222   4.620   0.298   4.453 -0.4391  1.2394  0.1119
 7577TIP3    H244223   4.483   0.300   4.518  0.0267 -1.0776  1.2825
 7578TIP3   OH244224   4.568   0.033   2.926  0.0083 -0.5788  1.1100
 7578TIP3    H144225   4.523   0.117   2.933  0.1164 -0.3695 -0.3931
 7578TIP3    H244226   4.523  -0.012   2.855  0.9080 -1.1719  0.9018
 7579TIP3   OH244227   1.860   1.247   0.561  0.0208  0.1201 -0.8063
 7579TIP3    H144228   1.808   1.297   0.498 -1.2674  1.4250  1.1469
 7579TIP3    H244229   1.801   1.235   0.636  1.7523 -0.5534  0.5125
 7580TIP3   OH244230   5.145   1.498  16.584  0.0444  0.5069 -0.7050
 7580TIP3    H144231   5.227   1.452  16.600 -0.0616  0.6281  0.2396
 7580TIP3    H244232   5.077   1.437  16.614 -0.2391  0.2976 -1.7249
 7581TIP3   OH244233   3.709   4.607  13.496 -0.2060 -0.0884 -0.2197
 7581TIP3    H144234   3.750   4.558  13.566  0.9401  2.4037  0.9634
 7581TIP3    H244235   3.630   4.645  13.536  0.7461  1.8051 -0.0029
 7582TIP3   OH244236   0.983   2.993  17.093  0.5945 -0.0076 -0.4202
 7582TIP3    H144237   1.047   2.968  17.159  0.0631  0.2119  0.1928
 7582TIP3    H244238   0.902   3.009  17.143 -0.5293 -2.2538 -1.3445
 7583TIP3   OH244239   2.331   6.262   5.903  0.0838  0.1998  0.1914
 7583TIP3    H144240   2.356   6.258   5.810 -0.3077 -0.5185  0.1119
 7583TIP3    H244241   2.239   6.290   5.902  0.4445  1.4866  0.4298
 7584TIP3   OH244242   6.332   5.007   0.398  0.3062  0.1621 -0.8847
 7584TIP3    H144243   6.238   5.026   0.389  0.4823  0.8239 -1.4188
 7584TIP3    H244244   6.374   5.093   0.389  0.9766 -0.1637 -0.8589
 7585TIP3   OH244245   1.321   5.447   2.608 -0.0085 -0.0546  0.1675
 7585TIP3    H144246   1.291   5.359   2.632 -0.9621  0.3208  0.4039
 7585TIP3    H244247   1.415   5.437   2.595 -0.1918 -1.2395 -0.4234
 7586TIP3   OH244248   1.626   0.172  17.167  0.0046 -0.3533 -0.5272
 7586TIP3    H144249   1.534   0.180  17.193  0.4952  1.2246  0.9179
 7586TIP3    H244250   1.654   0.262  17.148  0.9410 -0.9414 -2.1747
 7587TIP3   OH244251   5.813   3.706  16.276  1.0819  0.4163 -0.1052
 7587TIP3    H144252   5.737   3.760  16.257  1.0829  0.0814 -1.1410
 7587TIP3    H244253   5.786   3.617  16.250  1.8491  0.3152 -0.5890
 7588TIP3   OH244254   1.484   4.166   2.598  0.3575 -0.2942 -0.0383
 7588TIP3    H144255   1.408   4.109   2.588  0.7204 -0.5202 -1.7311
 7588TIP3    H244256   1.496   4.207   2.513  1.3362  0.7692  0.5763
 7589TIP3   OH244257   6.239   2.081   1.788  0.5489  0.2604 -0.2496
 7589TIP3    H144258   6.314   2.137   1.768 -0.3686  1.1219 -1.5175
 7589TIP3    H244259   6.183   2.089   1.711 -0.6750 -0.6403  0.5124
 7590TIP3   OH244260   0.949   4.489  15.876  0.7362 -0.2718  0.3912
 7590TIP3    H144261   0.987   4.570  15.911 -0.5591  0.2065  0.7626
 7590TIP3    H244262   0.870   4.518  15.830  1.8478 -0.9943 -2.1491
 7591TIP3   OH244263   4.499   4.950   1.358 -0.3508 -0.1049  0.3924
 7591TIP3    H144264   4.476   4.885   1.424 -0.2393 -2.9629 -2.1955
 7591TIP3    H244265   4.416   4.972   1.315  0.0465 -1.2016 -0.9900
 7592TIP3   OH244266   0.934   4.366   1.449  0.2649 -0.1589 -0.5804
 7592TIP3    H144267   0.908   4.308   1.377  1.3871 -0.1232 -1.0319
 7592TIP3    H244268   0.916   4.315   1.528 -1.6446  0.0625 -0.8117
 7593TIP3   OH244269   5.668   5.101   2.078  0.0803 -0.2392 -0.3515
 7593TIP3    H144270   5.615   5.164   2.126 -0.9398 -0.2005 -1.4737
 7593TIP3    H244271   5.736   5.153   2.037 -0.2841  0.0273 -0.6239
 7594TIP3   OH244272   3.807   4.218   3.896  0.0719 -0.0621 -0.4738
 7594TIP3    H144273   3.735   4.281   3.894 -1.7220 -2.0153 -1.2891
 7594TIP3    H244274   3.846   4.228   3.983 -1.5815  0.6399  0.2192
 7595TIP3   OH244275   1.371   4.105  14.765  0.7473 -0.0158 -0.0966
 7595TIP3    H144276   1.464   4.110  14.789  0.7628  0.0468 -0.1732
 7595TIP3    H244277   1.347   4.014  14.784  1.1066 -0.3391 -1.1344
 7596TIP3   OH244278   2.314   6.788  16.286 -0.0344  0.4260  0.3778
 7596TIP3    H144279   2.397   6.827  16.314 -0.5830  1.0265  1.1973
 7596TIP3    H244280   2.332   6.757  16.197  0.6487  1.8632 -0.0166
 7597TIP3   OH244281   1.016   5.112  14.237 -0.3702  0.3692  0.0111
 7597TIP3    H144282   0.976   5.025  14.236  0.2005  0.1037 -1.4010
 7597TIP3    H244283   1.081   5.107  14.308 -0.5910 -0.2350  0.1799
 7598TIP3   OH244284   6.821   5.075  14.420  0.5308  0.4513  0.5990
 7598TIP3    H144285   6.746   5.066  14.361  0.0413  0.7054  1.1619
 7598TIP3    H244286   6.822   4.993  14.470  1.2473  0.0284 -0.0966
 7599TIP3   OH244287   0.171   6.013   2.670  0.4963  0.4998 -0.4597
 7599TIP3    H144288   0.078   6.025   2.692  0.2520 -1.2173 -0.4152
 7599TIP3    H244289   0.214   5.997   2.754  0.4469 -0.8552 -0.6729
 7600TIP3   OH244290   0.682   4.871  14.061  0.1806  0.3141  0.1613
 7600TIP3    H144291   0.706   4.874  13.969 -1.0095  0.2603 -0.1691
 7600TIP3    H244292   0.631   4.950  14.076 -0.4859 -0.1692  0.5128
 7601TIP3   OH244293   0.114   4.041   2.551 -0.3602  0.4450 -0.0200
 7601TIP3    H144294   0.084   3.951   2.546 -1.2568  0.7820 -1.3517
 7601TIP3    H244295   0.198   4.041   2.506 -0.1802  0.2035  0.3161
 7602TIP3   OH244296   5.233   2.394   3.037  0.7120 -0.4022 -0.4844
 7602TIP3    H144297   5.252   2.310   3.079 -0.6650 -0.3769  0.2176
 7602TIP3    H244298   5.290   2.456   3.082 -0.5022 -0.4354  1.1490
 7603TIP3   OH244299   4.806   4.622  12.504  0.1779  0.2102 -0.6207
 7603TIP3    H144300   4.778   4.532  12.521  0.3602  0.1622 -0.5698
 7603TIP3    H244301   4.899   4.614  12.481  0.8442  0.6178  1.6693
 7604TIP3   OH244302   5.398   2.423  15.551  0.1324 -0.0816  0.5607
 7604TIP3    H144303   5.465   2.442  15.617 -0.1943  1.5951  0.4604
 7604TIP3    H244304   5.428   2.471  15.473 -0.7731  0.0446  0.2835
 7605TIP3   OH244305   5.587   0.505  13.109  0.2199 -0.2715 -0.1351
 7605TIP3    H144306   5.665   0.461  13.142 -0.3887 -1.1444  0.1888
 7605TIP3    H244307   5.576   0.471  13.020  0.4141  0.1329 -0.3156
 7606TIP3   OH244308   4.518   5.736   3.373 -0.1907  0.0862 -0.0871
 7606TIP3    H144309   4.523   5.689   3.456  0.6779 -0.0273 -0.1959
 7606TIP3    H244310   4.426   5.729   3.347 -0.5787  0.5313  1.0968
 7607TIP3   OH244311   0.134   2.752   3.376  0.5782  0.0027  0.2912
 7607TIP3    H144312   0.119   2.658   3.380 -0.3259 -0.0410 -2.4852
 7607TIP3    H244313   0.083   2.787   3.449 -3.0334 -1.2972 -1.3807
 7608TIP3   OH244314   2.160   2.572   5.488 -0.2688 -0.0059  0.3555
 7608TIP3    H144315   2.200   2.632   5.425  0.0983  0.0800  0.6675
 7608TIP3    H244316   2.121   2.629   5.555 -1.3092 -0.0741 -0.1761
 7609TIP3   OH244317   3.172   1.461   4.323  0.2246  0.3851  0.3159
 7609TIP3    H144318   3.115   1.391   4.355 -0.0365  0.5558  0.2291
 7609TIP3    H244319   3.153   1.466   4.229  0.0748  0.7257  0.3639
 7610TIP3   OH244320   3.058   0.159  14.411 -0.9043  0.4952 -0.2070
 7610TIP3    H144321   3.008   0.080  14.390 -0.1804  0.2565 -1.1104
 7610TIP3    H244322   3.149   0.128  14.420 -0.3670  1.4047 -2.0269
 7611TIP3   OH244323   5.084   6.009  16.641  0.5052 -0.5262  0.0982
 7611TIP3    H144324   5.024   5.938  16.619  0.6609 -0.6211 -0.0238
 7611TIP3    H244325   5.151   6.006  16.572  0.8135 -0.6144  0.3950
 7612TIP3   OH244326   2.441   1.073  15.763 -0.1051  0.2346 -0.1124
 7612TIP3    H144327   2.501   1.031  15.824  1.5374  2.8267  0.2163
 7612TIP3    H244328   2.420   1.005  15.699  1.6098 -1.3299  0.8997
 7613TIP3   OH244329   0.740   1.127  14.929 -0.6093  0.2394  0.4323
 7613TIP3    H144330   0.802   1.069  14.974  0.5094  0.9547 -0.1423
 7613TIP3    H244331   0.679   1.067  14.886  0.6231 -0.5484 -0.2815
 7614TIP3   OH244332   5.410   0.295   4.335  0.3170 -0.3462  1.0251
 7614TIP3    H144333   5.435   0.357   4.267 -1.3088 -0.0658  0.6349
 7614TIP3    H244334   5.315   0.301   4.340  0.2380 -1.7083  2.0498
 7615TIP3   OH244335   5.974   5.837   3.640  0.0812  0.4926 -0.4246
 7615TIP3    H144336   5.915   5.869   3.573 -1.0972 -2.4290 -0.9218
 7615TIP3    H244337   6.034   5.779   3.594 -0.9721 -1.8660  0.9711
 7616TIP3   OH244338   4.951   1.593   4.508 -0.2182 -0.4256 -0.1554
 7616TIP3    H144339   4.859   1.596   4.531 -0.2681 -0.4837 -0.3399
 7616TIP3    H244340   4.996   1.570   4.589 -0.5580 -2.5859 -0.5244
 7617TIP3   OH244341   5.341   1.025  12.944  0.0517 -0.0895  0.9666
 7617TIP3    H144342   5.411   1.084  12.916  0.5727 -1.0339  0.2122
 7617TIP3    H244343   5.271   1.084  12.975  0.6470  0.9053  0.4844
 7618TIP3   OH244344   3.780   3.320  14.554  0.4506 -0.2575  0.1740
 7618TIP3    H144345   3.831   3.304  14.633 -1.4927  0.1181  1.5757
 7618TIP3    H244346   3.716   3.249  14.553  0.2404 -0.0704 -0.9091
 7619TIP3   OH244347   3.455   1.196  15.821 -0.1357  0.0169  0.5854
 7619TIP3    H144348   3.446   1.284  15.784  0.0587 -0.7473 -1.3696
 7619TIP3    H244349   3.367   1.158  15.813  0.0239 -0.3258  0.4486
 7620TIP3   OH244350   1.102   1.010   5.982 -0.2475  0.2878 -0.1066
 7620TIP3    H144351   1.059   1.093   5.964 -1.2641 -0.1705  0.1023
 7620TIP3    H244352   1.150   1.025   6.064  1.1554  1.2058 -1.0531
 7621TIP3   OH244353   6.271   6.028   0.868 -0.0524  0.1013  0.3134
 7621TIP3    H144354   6.176   6.017   0.860 -0.2410  0.1342  2.2011
 7621TIP3    H244355   6.287   6.119   0.845 -0.7885  0.7353  2.1817
 7622TIP3   OH244356   3.337   5.756  15.986 -0.0174 -0.6247  0.2291
 7622TIP3    H144357   3.313   5.755  16.078 -2.6330 -0.7702 -0.3730
 7622TIP3    H244358   3.314   5.844  15.956  1.9405 -0.1580 -0.0880
 7623TIP3   OH244359   6.247   4.334   0.208 -0.3203  0.4627  0.3980
 7623TIP3    H144360   6.227   4.363   0.297 -1.0476 -0.7695  0.6620
 7623TIP3    H244361   6.287   4.410   0.166 -0.9325  1.3898  1.4536
 7624TIP3   OH244362   5.068   4.584   0.618  0.0947  0.1942 -0.0208
 7624TIP3    H144363   4.980   4.546   0.619  0.3163 -0.3297 -0.2730
 7624TIP3    H244364   5.071   4.640   0.696 -0.4492  0.1899  0.0082
 7625TIP3   OH244365   5.908   5.462   3.437 -0.6512  0.4671  0.1616
 7625TIP3    H144366   5.977   5.456   3.503 -1.0807 -1.9821  0.4672
 7625TIP3    H244367   5.837   5.509   3.482  0.3638  2.0621  0.1839
 7626TIP3   OH244368   1.542   5.959   4.007  0.1094  0.6915 -0.1141
 7626TIP3    H144369   1.507   6.044   4.033  0.0899  1.3807 -2.2101
 7626TIP3    H244370   1.468   5.899   4.015  0.3671  0.5643  2.3639
 7627TIP3   OH244371   3.085   1.658  10.990 -0.1481  0.1009  0.1896
 7627TIP3    H144372   3.074   1.586  11.053  0.4547 -0.1482  0.0158
 7627TIP3    H244373   3.114   1.615  10.910 -1.8029  0.3056 -0.5657
 7628TIP3   OH244374   5.344   1.638   5.750  0.4234  0.5819  0.1526
 7628TIP3    H144375   5.431   1.599   5.750 -0.1284 -0.7050  0.2715
 7628TIP3    H244376   5.299   1.597   5.676 -1.5405 -2.3137  2.7017
 7629TIP3   OH244377   3.421   5.105  13.706 -0.3301  0.2632 -0.3137
 7629TIP3    H144378   3.441   5.129  13.797  0.8672 -1.1060 -0.1794
 7629TIP3    H244379   3.340   5.054  13.713 -0.5531  0.6464 -0.0880
 7630TIP3   OH244380   0.679   5.882  16.566 -0.0499 -0.2033  0.2465
 7630TIP3    H144381   0.709   5.971  16.544  0.0383 -0.1565  0.5623
 7630TIP3    H244382   0.756   5.827  16.555 -0.5928 -0.6284 -2.1799
 7631TIP3   OH244383   4.612   2.179  11.285 -0.4139  0.6304 -0.0371
 7631TIP3    H144384   4.583   2.269  11.268 -2.2172  0.1341  0.1601
 7631TIP3    H244385   4.612   2.171  11.380 -0.5061  0.3549 -0.0596
 7632TIP3   OH244386   5.012   3.947   4.870 -0.8057 -0.0917 -0.0058
 7632TIP3    H144387   5.092   3.947   4.817 -0.6328  2.4865  0.1466
 7632TIP3    H244388   4.941   3.957   4.806 -0.7742  0.5749  0.0582
 7633TIP3   OH244389   0.292   5.817   2.323 -0.0620 -0.3321  0.0651
 7633TIP3    H144390   0.213   5.862   2.291 -0.0238 -0.3364 -0.0343
 7633TIP3    H244391   0.277   5.725   2.300  0.0166 -0.3178 -0.0410
 7634TIP3   OH244392   5.778   1.494   6.258 -0.4853  1.0667 -0.6167
 7634TIP3    H144393   5.796   1.525   6.169 -0.7168 -1.5543 -1.6598
 7634TIP3    H244394   5.860   1.456   6.287 -0.4102  1.9210  0.3285
 7635TIP3   OH244395   1.167   2.007   0.888  0.5128  0.7831 -0.2252
 7635TIP3    H144396   1.122   2.091   0.880  0.9425  0.9201 -1.3823
 7635TIP3    H244397   1.131   1.953   0.818  1.3256  0.5224 -0.4607
 7636TIP3   OH244398   6.761   1.958   2.493  0.2891  0.7094  0.4193
 7636TIP3    H144399   6.668   1.980   2.491  0.0175  0.1849  3.1050
 7636TIP3    H244400   6.785   1.946   2.401 -3.0600 -2.2036 -0.3061
 7637TIP3   OH244401   5.733   0.750  15.766  0.5867  0.4621 -0.3769
 7637TIP3    H144402   5.789   0.685  15.809  1.0918  1.3213  0.2948
 7637TIP3    H244403   5.703   0.806  15.838  0.2322  1.0273 -0.9596
 7638TIP3   OH244404   2.879   5.390  13.606 -0.2301  0.3394  0.5003
 7638TIP3    H144405   2.911   5.309  13.647  1.4011  0.5552 -0.2653
 7638TIP3    H244406   2.959   5.436  13.579 -1.2100  0.7293 -1.9127
 7639TIP3   OH244407   5.249   0.473  13.466 -0.3427  0.2694 -0.2728
 7639TIP3    H144408   5.270   0.479  13.372 -1.1414  1.1674 -0.4087
 7639TIP3    H244409   5.333   0.464  13.509  0.0619  0.2216 -1.0550
 7640TIP3   OH244410   4.121   4.165  15.615  0.7657 -0.1531 -0.0397
 7640TIP3    H144411   4.095   4.256  15.603  1.9554  0.1636 -0.2816
 7640TIP3    H244412   4.106   4.148  15.708  0.5920  0.3044  0.0172
 7641TIP3   OH244413   5.630   0.619  16.398 -0.0288 -0.4009  0.9253
 7641TIP3    H144414   5.536   0.636  16.403 -0.0535  0.0755 -0.6377
 7641TIP3    H244415   5.662   0.677  16.330  1.1885 -1.4629  0.5391
 7642TIP3   OH244416   5.632   0.812  12.348  0.2733 -0.8099 -0.2123
 7642TIP3    H144417   5.670   0.757  12.280 -1.7213 -1.0621 -1.1748
 7642TIP3    H244418   5.573   0.754  12.397  0.4170 -0.2297  0.6872
 7643TIP3   OH244419   1.668   4.215  11.314  0.2485  0.9729  0.4212
 7643TIP3    H144420   1.593   4.167  11.349 -0.7387  0.9787 -1.5275
 7643TIP3    H244421   1.743   4.183  11.364 -0.9141  0.2615  1.7730
 7644TIP3   OH244422   0.450   5.137  15.944  0.2741 -0.5899  0.0642
 7644TIP3    H144423   0.468   5.045  15.959 -0.4313 -0.4692  1.9567
 7644TIP3    H244424   0.356   5.140  15.925  0.8620 -0.5734 -3.5888
 7645TIP3   OH244425   0.731   0.166  10.649 -0.6515  0.6126  0.0875
 7645TIP3    H144426   0.677   0.134  10.577 -0.0968  0.7398 -0.3920
 7645TIP3    H244427   0.807   0.108  10.650 -1.1809 -0.0907  1.2960
 7646TIP3   OH244428   0.515   4.626   3.798 -0.2085  0.1422 -0.2014
 7646TIP3    H144429   0.550   4.583   3.876  0.6282  0.1502 -0.5568
 7646TIP3    H244430   0.567   4.591   3.726 -2.6107 -1.7698 -1.1306
 7647TIP3   OH244431   3.173   6.650   5.059 -0.0525 -0.0404  0.0929
 7647TIP3    H144432   3.195   6.607   4.976  0.4343 -2.7490  1.5147
 7647TIP3    H244433   3.078   6.645   5.063 -0.1514  0.9027 -0.6620
 7648TIP3   OH244434   0.620   2.756   2.123  0.3674 -0.1348  0.6317
 7648TIP3    H144435   0.575   2.767   2.039  2.4683 -1.6210 -0.7913
 7648TIP3    H244436   0.589   2.828   2.177 -0.5573  1.2783 -1.6548
 7649TIP3   OH244437   3.501   5.266   4.865  0.3018 -0.6183  0.2598
 7649TIP3    H144438   3.452   5.259   4.783  0.6942 -1.5851  0.0906
 7649TIP3    H244439   3.436   5.294   4.930 -0.1081 -0.2757 -0.2879
 7650TIP3   OH244440   6.147   0.815  15.833 -0.4226  0.4337 -0.2964
 7650TIP3    H144441   6.152   0.732  15.879  3.4689 -0.4994 -1.9469
 7650TIP3    H244442   6.136   0.791  15.741  1.0548  1.6244 -0.8415
 7651TIP3   OH244443   0.231   5.029  14.357  0.0214 -0.3260 -0.3494
 7651TIP3    H144444   0.270   5.110  14.326 -1.3288  0.3358 -0.3873
 7651TIP3    H244445   0.140   5.052  14.378 -0.6289 -1.9916 -1.1507
 7652TIP3   OH244446   0.304   6.249  11.211 -0.0452  0.6200  0.0352
 7652TIP3    H144447   0.302   6.345  11.212 -0.2805  0.6216 -0.5844
 7652TIP3    H244448   0.214   6.222  11.194  0.2859  0.3226 -1.3642
 7653TIP3   OH244449   0.949   3.108   5.854  0.3576  0.0210 -0.5352
 7653TIP3    H144450   0.953   3.026   5.804 -2.0436 -0.0985 -0.6208
 7653TIP3    H244451   1.026   3.105   5.910 -0.0223 -2.6417 -0.0254
 7654TIP3   OH244452   4.001   0.004   5.073 -0.0761 -0.2866 -0.1293
 7654TIP3    H144453   4.069  -0.034   5.129 -1.2347  0.1208  1.6226
 7654TIP3    H244454   4.005  -0.048   4.993 -0.0379 -2.5871  1.2809
 7655TIP3   OH244455   0.731   3.698   3.198 -0.4337 -0.1560 -0.0428
 7655TIP3    H144456   0.777   3.734   3.274 -0.2397 -0.2757 -0.1028
 7655TIP3    H244457   0.726   3.771   3.136  0.6154 -0.4275 -0.4627
 7656TIP3   OH244458   0.403   0.374   0.330  0.6344  0.0929 -0.6188
 7656TIP3    H144459   0.390   0.299   0.272  0.1370  0.9536 -1.6539
 7656TIP3    H244460   0.356   0.446   0.287  0.7360  0.8905  0.5711
 7657TIP3   OH244461   4.432   3.775  15.803 -0.8500  0.8452  0.3267
 7657TIP3    H144462   4.373   3.813  15.739 -1.8628 -0.1804  0.6090
 7657TIP3    H244463   4.442   3.842  15.870 -2.5482  0.6702  0.7911
 7658TIP3   OH244464   3.004   1.229  15.150 -0.0345 -0.8519 -0.2688
 7658TIP3    H144465   2.951   1.155  15.122  0.0467 -1.1481  0.3512
 7658TIP3    H244466   3.002   1.226  15.245 -0.6646  0.4029 -0.2224
 7659TIP3   OH244467   0.929   0.467  13.418 -0.3145  0.1829 -0.3332
 7659TIP3    H144468   0.976   0.423  13.490  0.3968 -1.4581 -1.7354
 7659TIP3    H244469   0.838   0.439  13.430 -0.5599  1.4518  1.0031
 7660TIP3   OH244470   5.953   3.777  12.184 -0.1873 -0.1556 -0.2557
 7660TIP3    H144471   5.912   3.849  12.233  0.7990 -0.7087  1.4387
 7660TIP3    H244472   5.903   3.773  12.102 -2.5643  0.1562  1.0921
 7661TIP3   OH244473   2.310   6.690   3.440 -0.0455 -0.3931 -0.1195
 7661TIP3    H144474   2.243   6.631   3.407 -1.4139  0.4169  1.0532
 7661TIP3    H244475   2.306   6.766   3.381 -0.0716 -0.4007 -0.1281
 7662TIP3   OH244476   4.616   0.172  15.297 -0.1730 -0.6018  0.1694
 7662TIP3    H144477   4.702   0.132  15.312  0.7553  0.6153 -1.5709
 7662TIP3    H244478   4.607   0.175  15.202 -1.2135  1.2350  0.2829
 7663TIP3   OH244479   5.228   4.296  16.464 -0.2173  0.0289 -0.7079
 7663TIP3    H144480   5.262   4.258  16.545 -0.5756 -2.5552 -1.7008
 7663TIP3    H244481   5.300   4.287  16.401 -0.3949  0.8407 -1.0474
 7664TIP3   OH244482   1.753   5.433   5.301  0.7328 -0.3478  0.0113
 7664TIP3    H144483   1.756   5.374   5.376 -1.8333  0.0144  0.4999
 7664TIP3    H244484   1.798   5.386   5.231  2.0003 -1.2563  1.3976
 7665TIP3   OH244485   6.139   4.261   4.977 -0.3304 -0.0582 -0.0568
 7665TIP3    H144486   6.133   4.166   4.964 -0.4458 -0.0417 -0.1252
 7665TIP3    H244487   6.121   4.298   4.890 -0.3912  0.0306 -0.0060
 7666TIP3   OH244488   5.585   1.455   1.491 -0.1440  0.3612  0.1584
 7666TIP3    H144489   5.668   1.410   1.508  0.5450  0.9577 -1.4342
 7666TIP3    H244490   5.527   1.424   1.560  1.1429 -0.7510  0.7977
 7667TIP3   OH244491   1.591   4.592  14.884 -0.0239 -0.0290 -1.1259
 7667TIP3    H144492   1.619   4.625  14.969  0.9345 -2.9377 -0.2041
 7667TIP3    H244493   1.497   4.579  14.893  0.5905 -4.8053  1.4020
 7668TIP3   OH244494   5.304   5.051   4.304 -0.1699 -1.0659  0.6438
 7668TIP3    H144495   5.237   5.117   4.320  0.6618 -0.9127  4.3734
 7668TIP3    H244496   5.256   4.969   4.293 -1.0443 -0.4475 -0.3068
 7669TIP3   OH244497   4.437   0.957  16.005  0.1663  0.5322 -0.2195
 7669TIP3    H144498   4.465   0.992  16.089  0.9295 -2.1561  0.7517
 7669TIP3    H244499   4.518   0.925  15.964 -0.6733 -2.7280  0.3491
 7670TIP3   OH244500   0.053   4.877  11.654  0.1103 -0.2690  0.4964
 7670TIP3    H144501   0.025   4.963  11.624  1.6674  0.5662  1.2630
 7670TIP3    H244502   0.009   4.866  11.739 -1.3120 -0.9553 -0.2961
 7671TIP3   OH244503   4.254   1.123  11.926 -0.0982 -0.2020 -0.2491
 7671TIP3    H144504   4.344   1.092  11.930  0.1738  0.6399  0.5739
 7671TIP3    H244505   4.227   1.131  12.017 -0.8433  0.0255 -0.4774
 7672TIP3   OH244506   4.376   1.555   4.323  0.1518  0.8287  0.1219
 7672TIP3    H144507   4.457   1.506   4.333 -0.9025 -1.6938 -2.3977
 7672TIP3    H244508   4.337   1.555   4.410  1.3244 -0.7679  0.6890
 7673TIP3   OH244509   5.530   2.442   5.180  0.9700  0.0662 -0.1818
 7673TIP3    H144510   5.481   2.524   5.172  0.6956  0.1297  1.6163
 7673TIP3    H244511   5.468   2.382   5.223  2.3815  0.1438  2.1244
 7674TIP3   OH244512   4.098   3.893   4.843 -0.1492 -0.0416  0.0754
 7674TIP3    H144513   4.091   3.855   4.931 -0.3693 -2.3127 -0.8423
 7674TIP3    H244514   4.171   3.955   4.849  1.1255 -1.5741  1.4142
 7675TIP3   OH244515   6.167   6.726   4.437 -0.3862 -0.6067 -0.6552
 7675TIP3    H144516   6.149   6.761   4.524 -1.0708  0.7182 -1.2784
 7675TIP3    H244517   6.080   6.718   4.397 -0.0341 -0.3662 -1.4895
 7676TIP3   OH244518   6.376   5.003   1.897 -0.8192  0.4915 -0.2503
 7676TIP3    H144519   6.385   4.918   1.856 -0.1885 -0.1261  1.0976
 7676TIP3    H244520   6.322   5.054   1.837 -0.6490 -0.6397 -1.3827
 7677TIP3   OH244521   2.848   5.824   0.464  0.6889  0.3089 -0.5513
 7677TIP3    H144522   2.835   5.729   0.463 -0.4698  0.3711  2.0141
 7677TIP3    H244523   2.939   5.835   0.434  1.3437 -1.7254  0.4340
 7678TIP3   OH244524   0.507   6.555  11.060 -0.0124 -0.1590  0.1035
 7678TIP3    H144525   0.498   6.637  11.011  0.1557  0.2016  0.6650
 7678TIP3    H244526   0.421   6.541  11.099  0.2980  0.4188  1.0277
 7679TIP3   OH244527   1.761   4.452  16.263 -0.0545  0.2660  0.0469
 7679TIP3    H144528   1.742   4.396  16.188 -1.9224  0.3229  0.4323
 7679TIP3    H244529   1.818   4.399  16.319 -0.4580 -0.6347 -0.3715
 7680TIP3   OH244530   2.334   2.630  13.971 -0.3661 -0.4519  0.2822
 7680TIP3    H144531   2.268   2.690  14.007  1.7820  1.2091  1.7420
 7680TIP3    H244532   2.374   2.590  14.049  0.4208 -1.3634 -0.5682
 7681TIP3   OH244533   3.904   0.425   3.502 -0.2885  0.2745  0.7297
 7681TIP3    H144534   3.872   0.386   3.584  0.0706 -0.3353  0.5900
 7681TIP3    H244535   3.955   0.501   3.530  0.6270 -0.4712  1.1508
 7682TIP3   OH244536   2.620   6.490   2.872  0.0537 -0.3474 -0.2470
 7682TIP3    H144537   2.716   6.485   2.872  0.1330  0.7087 -1.6003
 7682TIP3    H244538   2.593   6.410   2.826  0.1379 -1.7879  2.0288
 7683TIP3   OH244539   0.803   3.297  14.298 -0.2342  0.3075  0.1788
 7683TIP3    H144540   0.799   3.327  14.207 -1.6110  1.2076  0.5082
 7683TIP3    H244541   0.896   3.303  14.321  0.1189  0.1277 -1.1350
 7684TIP3   OH244542   0.666   4.122   1.809 -0.0296 -0.4137  0.2668
 7684TIP3    H144543   0.674   4.156   1.898 -0.0652 -0.6935  0.3800
 7684TIP3    H244544   0.727   4.174   1.757 -0.0187 -0.2396  0.4533
 7685TIP3   OH244545   0.343   0.684  13.048 -0.1892  0.3493  0.4032
 7685TIP3    H144546   0.392   0.602  13.056 -1.1220 -0.4527 -1.5022
 7685TIP3    H244547   0.398   0.749  13.092  2.0961 -0.7045 -0.7178
 7686TIP3   OH244548   3.064   6.497  11.548 -0.0444 -0.2034  0.1409
 7686TIP3    H144549   3.129   6.437  11.585 -0.7589 -0.9441  0.2375
 7686TIP3    H244550   3.105   6.532  11.469  0.9779  0.3680  0.9080
 7687TIP3   OH244551   3.199   4.762   5.985  0.6293  0.2095 -0.0734
 7687TIP3    H144552   3.140   4.690   6.007 -1.2258  1.6119 -0.1849
 7687TIP3    H244553   3.224   4.800   6.069  1.0709 -0.1437 -0.0426
 7688TIP3   OH244554   3.703   0.403   3.244  0.3406  0.0415 -0.0004
 7688TIP3    H144555   3.675   0.315   3.219 -1.4777  0.9951 -1.6129
 7688TIP3    H244556   3.660   0.419   3.328  2.1953 -1.2230  1.2772
 7689TIP3   OH244557   2.668   4.152   4.039 -0.1952  0.7842  0.0753
 7689TIP3    H144558   2.715   4.207   4.102  0.8623  0.2885 -0.2534
 7689TIP3    H244559   2.731   4.140   3.967 -0.7584 -0.0620 -0.2858
 7690TIP3   OH244560   3.713   5.430   4.439  0.2539 -0.0898 -0.4458
 7690TIP3    H144561   3.788   5.445   4.496  0.1182  0.2463 -0.3512
 7690TIP3    H244562   3.707   5.510   4.386 -0.3661  0.1202 -0.0748
 7691TIP3   OH244563   0.769   6.291   3.332 -0.5480 -0.4328  0.0560
 7691TIP3    H144564   0.807   6.287   3.244  2.4240 -0.4388  1.2148
 7691TIP3    H244565   0.747   6.384   3.344  1.0834 -0.0087  0.0260
 7692TIP3   OH244566   0.314   3.997  12.932  0.3993 -0.4901  0.0074
 7692TIP3    H144567   0.300   3.919  12.986  0.4111 -0.6793 -0.2623
 7692TIP3    H244568   0.271   3.977  12.849  0.7088 -0.3530 -0.1885
 7693TIP3   OH244569   4.756   6.082  11.855 -0.2002 -0.0210  0.6314
 7693TIP3    H144570   4.839   6.121  11.881 -1.0449  2.0707  0.3995
 7693TIP3    H244571   4.695   6.106  11.925 -1.0156  0.1179 -0.1028
 7694TIP3   OH244572   4.424   6.115   2.431  0.2125 -0.0056 -0.1376
 7694TIP3    H144573   4.342   6.139   2.472  0.1640  0.0250 -0.2506
 7694TIP3    H244574   4.490   6.173   2.471  0.0908  0.3421 -0.4351
 7695TIP3   OH244575   2.191   5.168   3.075  0.2959 -0.2166  0.1358
 7695TIP3    H144576   2.114   5.150   3.129  0.0647  0.7009  0.1262
 7695TIP3    H244577   2.263   5.174   3.138 -0.2146  2.3978  0.5801
 7696TIP3   OH244578   3.207   1.756  16.964 -0.0084  0.2107 -0.1290
 7696TIP3    H144579   3.151   1.691  16.922  1.5409 -0.5351 -1.1569
 7696TIP3    H244580   3.154   1.836  16.967 -1.7724 -0.9362  0.7229
 7697TIP3   OH244581   3.915   1.201   6.102  0.7430 -0.5181 -0.3138
 7697TIP3    H144582   3.918   1.111   6.134  1.1873 -0.7442 -0.9807
 7697TIP3    H244583   3.870   1.250   6.172 -0.8379 -1.5089 -0.5775
 7698TIP3   OH244584   2.807   2.448  14.145  0.0158 -0.1446 -0.0185
 7698TIP3    H144585   2.835   2.502  14.219 -0.0439  0.6906 -0.5928
 7698TIP3    H244586   2.807   2.508  14.070 -0.8208 -0.7571 -0.5206
 7699TIP3   OH244587   5.357   3.115  14.820 -0.0345 -0.4610  0.2723
 7699TIP3    H144588   5.437   3.062  14.827  0.2521  0.1090  1.6024
 7699TIP3    H244589   5.314   3.104  14.905 -1.5899 -1.0569 -0.5381
 7700TIP3   OH244590   6.711   6.613   2.042  0.3451  0.0973 -0.3341
 7700TIP3    H144591   6.756   6.621   1.958 -1.2894  2.7735 -1.0903
 7700TIP3    H244592   6.618   6.616   2.020 -0.1864 -1.2154  1.4641
 7701TIP3   OH244593   3.550   0.692  17.068  0.2326  0.2588 -0.2095
 7701TIP3    H144594   3.457   0.694  17.043  0.3271 -0.9826 -0.7022
 7701TIP3    H244595   3.594   0.652  16.993  0.6923 -2.3330  1.3473
 7702TIP3   OH244596   6.085   3.459   1.821  0.2118 -0.2008  0.2443
 7702TIP3    H144597   6.025   3.386   1.834  0.7056 -0.7476 -0.4778
 7702TIP3    H244598   6.028   3.534   1.803 -0.3349 -0.2161  1.7697
 7703TIP3   OH244599   1.231   1.458   1.146 -0.7565  0.3252  0.1682
 7703TIP3    H144600   1.220   1.526   1.212 -2.2059  0.1280  0.1494
 7703TIP3    H244601   1.199   1.497   1.065 -0.3483  0.0616 -0.1272
 7704TIP3   OH244602   2.945   6.408   4.744 -0.3861 -0.0616  0.0052
 7704TIP3    H144603   2.992   6.490   4.731  0.1689 -0.4345 -0.3664
 7704TIP3    H244604   2.871   6.413   4.683 -0.3672  0.1629 -0.0002
 7705TIP3   OH244605   2.137   1.420  11.704 -0.2201 -0.0485 -0.2482
 7705TIP3    H144606   2.108   1.342  11.752 -2.3906 -0.2067 -1.6505
 7705TIP3    H244607   2.126   1.396  11.612  3.1257  0.5026 -0.9013
 7706TIP3   OH244608   6.352   5.703   5.034  0.4079 -0.3681  0.1564
 7706TIP3    H144609   6.292   5.761   5.081  1.2389  1.7658 -1.2921
 7706TIP3    H244610   6.303   5.621   5.023 -1.0265  0.2308  1.7371
 7707TIP3   OH244611   2.349   6.792   6.443 -0.5262 -0.2377 -0.5366
 7707TIP3    H144612   2.392   6.735   6.379 -0.5786 -0.3199 -0.4988
 7707TIP3    H244613   2.274   6.741   6.474 -0.8337  0.0261 -0.8374
 7708TIP3   OH244614   6.695   3.074  16.992  0.1078 -0.3661 -0.0427
 7708TIP3    H144615   6.787   3.101  16.992 -0.2963  1.1679  1.1116
 7708TIP3    H244616   6.681   3.036  17.078 -0.2780 -0.8576 -0.3187
 7709TIP3   OH244617   1.061   6.650   3.313  0.3955  0.4366 -0.6200
 7709TIP3    H144618   1.071   6.734   3.269 -1.3020  1.2483  0.4359
 7709TIP3    H244619   1.120   6.654   3.388 -0.6699  1.2810  0.2016
 7710TIP3   OH244620   4.566   6.022  16.370 -0.1560  0.4677 -0.5762
 7710TIP3    H144621   4.562   5.964  16.294  0.8065  0.7950 -0.8986
 7710TIP3    H244622   4.476   6.051  16.384 -0.9874 -2.3262  0.5661
 7711TIP3   OH244623   0.529   5.055   3.036 -0.1419 -0.1805  0.7179
 7711TIP3    H144624   0.437   5.075   3.053 -0.6378 -0.8439 -1.0267
 7711TIP3    H244625   0.547   5.095   2.951  0.4359 -2.2383 -0.1825
 7712TIP3   OH244626   0.950   0.338   4.733  0.2480  0.1153 -0.2908
 7712TIP3    H144627   0.863   0.323   4.770  0.0019  1.2367 -0.3955
 7712TIP3    H244628   1.005   0.270   4.773 -0.2594  0.5621  1.2533
 7713TIP3   OH244629   3.974   3.572  15.990  0.6968  0.1053  0.2748
 7713TIP3    H144630   3.914   3.631  16.033  0.2164  0.0657 -0.3239
 7713TIP3    H244631   4.014   3.521  16.061 -1.2826 -1.1100  0.5973
 7714TIP3   OH244632   6.761   0.278  12.022 -0.1453  0.8080  0.8314
 7714TIP3    H144633   6.706   0.345  11.980  0.7268 -0.0254 -1.8429
 7714TIP3    H244634   6.778   0.214  11.953  1.6124 -0.5864  2.4503
 7715TIP3   OH244635   1.642   0.515  11.961 -0.6629 -0.0974  0.0433
 7715TIP3    H144636   1.620   0.516  12.055 -2.3502  0.3160 -0.3083
 7715TIP3    H244637   1.712   0.451  11.953 -0.3515  0.0009  1.6155
 7716TIP3   OH244638   2.101   3.934   1.890 -0.0368 -0.2763 -0.2774
 7716TIP3    H144639   2.135   3.990   1.821  0.3265  0.4349  0.4649
 7716TIP3    H244640   2.075   3.854   1.845  0.1656  0.1845 -1.2376
 7717TIP3   OH244641   4.349   5.898  11.886 -0.1861  0.0721  0.0933
 7717TIP3    H144642   4.269   5.949  11.896 -0.1667  0.3754 -1.1102
 7717TIP3    H244643   4.382   5.922  11.799  1.8976  0.9331  1.0470
 7718TIP3   OH244644   2.229   5.332   5.587 -0.3856  0.7717  0.2445
 7718TIP3    H144645   2.271   5.298   5.508 -2.7342 -0.5436 -0.5162
 7718TIP3    H244646   2.285   5.301   5.659 -0.5383 -1.7505 -0.6530
 7719TIP3   OH244647   1.486   1.552   1.180 -0.4934 -0.4264  0.0444
 7719TIP3    H144648   1.404   1.503   1.171 -0.1304 -0.8400 -1.1442
 7719TIP3    H244649   1.554   1.486   1.179 -0.0882 -0.0134  0.0569
 7720TIP3   OH244650   2.832   6.640   4.451 -0.1069  0.1672  0.2478
 7720TIP3    H144651   2.781   6.564   4.479  1.3075 -0.6577  0.6798
 7720TIP3    H244652   2.786   6.714   4.490 -1.7151 -0.3985 -0.4626
 7721TIP3   OH244653   5.850   3.443  17.124  0.7357 -0.5741  0.1899
 7721TIP3    H144654   5.814   3.503  17.059 -1.6239 -3.5219 -1.5100
 7721TIP3    H244655   5.941   3.469  17.134  0.0744  2.6297 -1.0801
 7722TIP3   OH244656   1.743   1.477   4.142  0.1324 -0.3246  0.3664
 7722TIP3    H144657   1.818   1.495   4.085  2.2034 -2.2207  2.2653
 7722TIP3    H244658   1.720   1.386   4.123 -0.7692 -0.1940  0.7913
 7723TIP3   OH244659   4.470   1.124  13.162  0.1215 -0.6357  0.0912
 7723TIP3    H144660   4.547   1.090  13.208  0.2686 -1.9098 -1.0513
 7723TIP3    H244661   4.506   1.171  13.087 -0.1978 -1.4241 -0.5712
 7724TIP3   OH244662   3.345   4.304  14.099 -0.8201  0.4344  0.2926
 7724TIP3    H144663   3.293   4.276  14.023 -0.4393 -2.8211  1.1008
 7724TIP3    H244664   3.285   4.296  14.173 -0.2725  0.4375  0.7396
 7725TIP3   OH244665   2.832   0.603  13.934 -0.0124  0.1900 -0.4164
 7725TIP3    H144666   2.918   0.643  13.936  0.3273 -0.5389 -0.0266
 7725TIP3    H244667   2.806   0.598  14.026  1.2155 -3.0949 -0.1276
 7726TIP3   OH244668   1.490   6.544   0.209  0.5505  0.0596  0.4301
 7726TIP3    H144669   1.410   6.584   0.243  1.3651  0.9393  1.3744
 7726TIP3    H244670   1.467   6.520   0.119 -0.3257  1.6875  0.1636
 7727TIP3   OH244671   4.858   1.409  16.590 -0.7666  0.0970 -0.8261
 7727TIP3    H144672   4.787   1.461  16.627 -2.4892 -1.5249 -1.6589
 7727TIP3    H244673   4.858   1.328  16.640  1.5555  0.5981  0.1463
 7728TIP3   OH244674   4.008   1.056  13.726 -0.0237  0.6286  0.0130
 7728TIP3    H144675   3.996   1.010  13.808 -1.7481  0.1652 -0.4497
 7728TIP3    H244676   4.001   1.149  13.749 -0.4183  0.5044  0.4012
 7729TIP3   OH244677   0.822   2.759  11.649  0.2293 -0.3270 -0.5268
 7729TIP3    H144678   0.780   2.795  11.727  0.0737 -3.0875  0.8256
 7729TIP3    H244679   0.915   2.780  11.661 -0.1174  1.6887 -1.0910
 7730TIP3   OH244680   4.891   0.214  17.165  0.1487  0.1652 -0.2835
 7730TIP3    H144681   4.834   0.140  17.144 -0.9211  0.7574  0.4296
 7730TIP3    H244682   4.979   0.177  17.167 -0.3553 -1.0705 -0.0272
 7731TIP3   OH244683   1.005   1.321   2.855  0.5102  0.1152  0.5162
 7731TIP3    H144684   1.061   1.347   2.928 -0.6740  1.9256  0.8431
 7731TIP3    H244685   1.043   1.366   2.779  0.8616 -0.5512  0.2934
 7732TIP3   OH244686   4.936   6.778  12.217 -0.3186 -0.4147 -0.4735
 7732TIP3    H144687   4.940   6.825  12.301 -1.3013  0.3339 -0.8306
 7732TIP3    H244688   4.998   6.705  12.227  0.3232  0.2463  0.5377
 7733TIP3   OH244689   4.580   3.913   1.858  0.0539  0.0303  0.1074
 7733TIP3    H144690   4.634   3.959   1.794  0.3842 -0.2872  0.1525
 7733TIP3    H244691   4.566   3.826   1.819 -1.9601  0.6806 -0.7657
 7734TIP3   OH244692   3.230   0.843  16.249  0.0024 -0.0728  0.6570
 7734TIP3    H144693   3.195   0.831  16.160  1.7637 -2.4043  0.1773
 7734TIP3    H244694   3.311   0.892  16.236  1.3580 -2.1718  0.6106
 7735TIP3   OH244695   4.696   5.286  13.586  0.0770  0.8148 -0.0248
 7735TIP3    H144696   4.732   5.212  13.539  0.0186  0.9356 -0.2594
 7735TIP3    H244697   4.769   5.318  13.640  0.6259  1.6617 -1.2240
 7736TIP3   OH244698   4.949   4.118   1.195 -0.1827  0.0362  0.1934
 7736TIP3    H144699   5.014   4.109   1.124 -0.2589  0.9600 -0.0008
 7736TIP3    H244700   4.900   4.196   1.172  0.8284  1.2968  2.0852
 7737TIP3   OH244701   4.866   2.074   5.224  0.1759  0.1194 -0.7359
 7737TIP3    H144702   4.800   2.111   5.165  0.0903  0.5590 -0.3654
 7737TIP3    H244703   4.853   2.120   5.307  1.8219  1.2205 -1.0337
 7738TIP3   OH244704   2.818   5.586   3.931  0.4106 -0.5866 -0.1582
 7738TIP3    H144705   2.799   5.680   3.926 -1.0797 -0.8743 -0.4693
 7738TIP3    H244706   2.829   5.569   4.024  0.4246 -0.1403 -0.0771
 7739TIP3   OH244707   4.916   2.044   3.896  0.9045  0.1373 -0.1064
 7739TIP3    H144708   4.964   2.117   3.935 -0.2848  1.7886 -1.5227
 7739TIP3    H244709   4.850   2.021   3.961  2.9266 -1.5666  1.4839
 7740TIP3   OH244710   5.363   4.676   6.423  0.2432  0.3672  0.1048
 7740TIP3    H144711   5.291   4.735   6.445  0.1508  0.5352 -0.6320
 7740TIP3    H244712   5.375   4.622   6.502 -1.1432 -0.1335 -0.0078
 7741TIP3   OH244713   5.845   3.722  15.676 -0.2665 -0.2274  0.6256
 7741TIP3    H144714   5.933   3.718  15.712 -0.3706 -0.6545  0.8351
 7741TIP3    H244715   5.853   3.780  15.600  0.3513 -0.8681  0.1874
 7742TIP3   OH244716   3.909   6.577  15.555 -0.2411  0.0014  0.2560
 7742TIP3    H144717   3.979   6.513  15.566 -0.4558  0.0733  2.7617
 7742TIP3    H244718   3.944   6.640  15.492  0.2412 -2.1324 -1.7554
 7743TIP3   OH244719   1.785   4.138  12.846 -0.1682 -0.4512 -0.2037
 7743TIP3    H144720   1.743   4.052  12.854  0.0756 -0.6059 -0.5635
 7743TIP3    H244721   1.794   4.169  12.936 -0.5948 -0.6378 -0.0941
 7744TIP3   OH244722   0.728   0.671  16.544 -0.0036 -0.2329  0.0228
 7744TIP3    H144723   0.655   0.651  16.603 -0.5325  1.1042 -0.1489
 7744TIP3    H244724   0.689   0.722  16.474  1.3466  2.0004  0.8067
 7745TIP3   OH244725   3.402   6.188  11.372  0.4168  0.9520 -0.4662
 7745TIP3    H144726   3.319   6.194  11.419  1.4594  0.8953  1.4809
 7745TIP3    H244727   3.468   6.214  11.436  1.9908  0.2361 -1.7225
 7746TIP3   OH244728   0.171   4.890  17.175 -0.1180 -0.0904  0.6071
 7746TIP3    H144729   0.203   4.800  17.167 -0.9190 -0.3483  0.1871
 7746TIP3    H244730   0.248   4.941  17.199  0.7552 -0.5844 -0.9924
 7747TIP3   OH244731   6.288   0.936  10.450 -0.5785  0.1065  0.6364
 7747TIP3    H144732   6.323   0.922  10.538 -2.3252  0.4980  1.4329
 7747TIP3    H244733   6.226   1.008  10.460  0.6879  1.5754 -1.3480
 7748TIP3   OH244734   2.343   1.988   0.661  0.2863  0.3588  0.6767
 7748TIP3    H144735   2.304   2.014   0.745 -1.7683  0.5883 -0.2778
 7748TIP3    H244736   2.366   1.896   0.673 -3.3082 -0.7241  0.4973
 7749TIP3   OH244737   0.248   4.502  14.677  0.0185  0.4143 -0.2899
 7749TIP3    H144738   0.170   4.525  14.727  1.3708  0.7406  1.7813
 7749TIP3    H244739   0.265   4.579  14.622 -1.8778 -0.2145 -1.8505
 7750TIP3   OH244740   3.748   1.431   2.757  0.1313  0.7713  0.5279
 7750TIP3    H144741   3.687   1.470   2.695  1.3373 -0.5670 -1.6217
 7750TIP3    H244742   3.815   1.390   2.702  1.3324 -0.4028  2.7356
 7751TIP3   OH244743   0.805   2.360   5.478  0.2521 -0.2185 -0.0182
 7751TIP3    H144744   0.768   2.411   5.550 -2.6346 -1.0635 -0.7954
 7751TIP3    H244745   0.743   2.288   5.465  1.6069 -1.0849 -2.2153
 7752TIP3   OH244746   5.557   0.826  14.477  0.3733 -0.1558 -0.4604
 7752TIP3    H144747   5.612   0.904  14.468 -0.3759  0.4630  0.1314
 7752TIP3    H244748   5.525   0.830  14.567 -0.9595 -0.2689 -0.9049
 7753TIP3   OH244749   2.729   1.940  14.178  0.6152  0.3785 -0.0510
 7753TIP3    H144750   2.745   2.032  14.156  0.7726  0.5064  0.5791
 7753TIP3    H244751   2.807   1.894  14.147 -0.7328 -0.0527 -3.2173
 7754TIP3   OH244752   1.948   4.472  12.160  0.3619 -0.3565 -0.2932
 7754TIP3    H144753   1.887   4.501  12.228  1.0565  0.2147  0.1061
 7754TIP3    H244754   1.910   4.504  12.078 -0.2247 -0.6161 -0.1258
 7755TIP3   OH244755   5.098   6.447  14.939 -0.1335  0.1727 -0.0145
 7755TIP3    H144756   5.121   6.415  15.026 -1.2676  0.0674  0.2725
 7755TIP3    H244757   5.171   6.422  14.884 -0.0860 -1.1642  0.6024
 7756TIP3   OH244758   5.548   2.003  12.634 -0.0967 -0.1477 -0.5471
 7756TIP3    H144759   5.558   1.919  12.679 -2.5155  0.2060  0.8203
 7756TIP3    H244760   5.454   2.009  12.615  0.3929  1.1656 -2.8703
 7757TIP3   OH244761   1.242   2.436   3.419  0.0480 -0.4613 -0.5398
 7757TIP3    H144762   1.245   2.439   3.515  1.6652  0.5088 -0.5921
 7757TIP3    H244763   1.166   2.489   3.396  0.8635  1.0867  0.1713
 7758TIP3   OH244764   3.335   1.770  10.524  0.1716  0.0300 -0.3492
 7758TIP3    H144765   3.335   1.731  10.436 -0.8105  1.9138 -1.2334
 7758TIP3    H244766   3.366   1.699  10.581  3.1670 -0.5850 -2.4609
 7759TIP3   OH244767   2.792   3.059   4.334 -0.0641  0.2563 -0.3985
 7759TIP3    H144768   2.831   3.021   4.256  0.9141  0.2793  0.0697
 7759TIP3    H244769   2.863   3.061   4.398 -0.3996  1.7691 -0.0343
 7760TIP3   OH244770   4.054   3.532  14.043  0.2063  0.1294  0.8514
 7760TIP3    H144771   4.126   3.483  14.084 -0.3450  0.0557  1.7797
 7760TIP3    H244772   4.093   3.614  14.015  0.9737 -0.5089 -0.0047
 7761TIP3   OH244773   3.428   4.912  14.086 -0.1800 -0.3401 -0.3498
 7761TIP3    H144774   3.362   4.849  14.060  0.0232  0.3029 -2.6613
 7761TIP3    H244775   3.509   4.861  14.090 -0.3854 -0.6456  0.0821
 7762TIP3   OH244776   0.848   6.838   3.865  0.1563  0.2543 -0.2975
 7762TIP3    H144777   0.937   6.814   3.839  0.3239 -1.1727  1.4083
 7762TIP3    H244778   0.793   6.797   3.798  0.7546  1.1748 -1.3823
 7763TIP3   OH244779   3.096   5.557   2.169 -0.0786  0.0863  0.0713
 7763TIP3    H144780   3.069   5.480   2.119 -0.1035  0.0651  0.1176
 7763TIP3    H244781   3.014   5.600   2.192 -0.0889 -0.1618  0.5033
 7764TIP3   OH244782   2.206   1.558  12.905 -0.4272  0.2636  0.1598
 7764TIP3    H144783   2.135   1.597  12.855 -1.0422 -2.3399 -1.1368
 7764TIP3    H244784   2.164   1.514  12.978  0.1676  1.1315  1.0584
 7765TIP3   OH244785   0.549   0.986  12.361 -0.2792 -0.5849  0.3765
 7765TIP3    H144786   0.499   1.038  12.298  0.3380 -0.1996  0.1952
 7765TIP3    H244787   0.628   1.038  12.378  1.7708 -2.6432 -1.9930
 7766TIP3   OH244788   4.965   3.893   1.574 -0.2132 -0.1451  0.7977
 7766TIP3    H144789   5.032   3.958   1.552  0.3118 -0.6760  0.7929
 7766TIP3    H244790   4.883   3.932   1.544  0.2999 -0.2082 -0.8155
 7767TIP3   OH244791   6.659   4.669   1.187  0.2785 -0.2293 -0.0177
 7767TIP3    H144792   6.647   4.752   1.233  0.8447 -0.9333  1.4863
 7767TIP3    H244793   6.711   4.616   1.248  0.8009 -1.3235 -1.3730
 7768TIP3   OH244794   4.544   5.697  14.902 -0.5219 -0.1399  0.0237
 7768TIP3    H144795   4.471   5.699  14.839 -1.0030  1.5429  0.5828
 7768TIP3    H244796   4.519   5.630  14.965 -1.7753  0.6017  0.3693
 7769TIP3   OH244797   1.770   3.031  16.072  0.1797  0.2152  0.8791
 7769TIP3    H144798   1.717   3.102  16.034  0.2270 -0.2565 -0.1204
 7769TIP3    H244799   1.708   2.959  16.083  0.6400 -0.4415 -0.5874
 7770TIP3   OH244800   6.139   1.963   2.011 -0.5053 -0.8667 -0.8064
 7770TIP3    H144801   6.179   2.021   1.946 -1.2640 -0.5042 -0.9642
 7770TIP3    H244802   6.168   1.875   1.985  0.0844 -0.6292 -0.9806
 7771TIP3   OH244803   5.024   4.640   4.842  0.0594  0.5693 -0.0661
 7771TIP3    H144804   5.103   4.676   4.883 -0.3879  0.4832  0.8838
 7771TIP3    H244805   4.958   4.709   4.853 -0.2250  0.3055 -0.1173
 7772TIP3   OH244806   5.301   1.665   2.565 -0.1451  0.0243  0.1608
 7772TIP3    H144807   5.328   1.706   2.647 -0.9845  0.3875  0.2599
 7772TIP3    H244808   5.369   1.599   2.548 -1.4864 -2.2265  2.7430
 7773TIP3   OH244809   4.882   6.277   5.864  0.3266  0.3685  0.7687
 7773TIP3    H144810   4.915   6.229   5.940 -1.2191 -1.3709  0.4401
 7773TIP3    H244811   4.908   6.224   5.789  0.6521  1.3363  0.1801
 7774TIP3   OH244812   2.093   0.028  13.144  0.0434 -0.7903 -0.2335
 7774TIP3    H144813   2.136   0.113  13.133 -1.9391  0.1515 -1.4525
 7774TIP3    H244814   2.039   0.040  13.223 -1.5414 -0.2446 -1.3394
 7775TIP3   OH244815   1.241   3.347  13.209 -0.3953 -0.3153  0.6190
 7775TIP3    H144816   1.168   3.357  13.270 -0.1933  0.1829  0.7865
 7775TIP3    H244817   1.226   3.262  13.167 -0.4669 -0.7274  1.4527
 7776TIP3   OH244818   1.356   6.128   2.524 -0.1157 -0.1456 -0.2346
 7776TIP3    H144819   1.303   6.178   2.586 -0.0522 -0.1249 -0.1981
 7776TIP3    H244820   1.446   6.145   2.550 -0.0502  0.6227 -0.9099
 7777TIP3   OH244821   6.637   5.257  10.889 -0.1323 -0.2832  0.0014
 7777TIP3    H144822   6.558   5.203  10.878 -0.9595  1.1178 -1.3340
 7777TIP3    H244823   6.634   5.284  10.980 -0.8093 -0.8344  0.1580
 7778TIP3   OH244824   4.286   0.974   2.186  0.2049 -0.0893 -0.1755
 7778TIP3    H144825   4.329   0.896   2.150 -0.5725 -0.6983  0.1952
 7778TIP3    H244826   4.312   0.976   2.278 -0.9533 -0.7665  0.1893
 7779TIP3   OH244827   1.269   3.582   0.362 -0.0168  0.2370 -0.2320
 7779TIP3    H144828   1.273   3.600   0.456  0.3291  0.7530 -0.3424
 7779TIP3    H244829   1.176   3.585   0.341  0.0007  1.7688 -0.2123
 7780TIP3   OH244830   6.413   3.826   0.027  0.3074 -0.0718  0.1789
 7780TIP3    H144831   6.492   3.879   0.027 -0.2552  0.8767  2.4741
 7780TIP3    H244832   6.440   3.742   0.065  0.3406  0.0289  0.3766
 7781TIP3   OH244833   3.593   0.684  13.695  0.0149  0.1709 -0.5251
 7781TIP3    H144834   3.543   0.711  13.772 -1.6692 -0.4717 -1.3346
 7781TIP3    H244835   3.620   0.766  13.654  0.4411  0.5181  0.4225
 7782TIP3   OH244836   5.397   0.255   1.648  0.0277  0.2503  0.4895
 7782TIP3    H144837   5.452   0.333   1.658  1.4345 -0.3220 -1.8140
 7782TIP3    H244838   5.353   0.268   1.564 -1.3473 -0.5268  1.0567
 7783TIP3   OH244839   1.736   2.153  14.705  0.6883 -0.6919 -0.1462
 7783TIP3    H144840   1.685   2.197  14.773  2.3525  1.6593 -0.3243
 7783TIP3    H244841   1.672   2.135  14.636 -0.4119 -0.2846  0.7327
 7784TIP3   OH244842   6.778   3.270   0.311  0.2369  0.0761  0.3669
 7784TIP3    H144843   6.849   3.264   0.247 -0.1974 -0.2573 -0.0956
 7784TIP3    H244844   6.732   3.186   0.303 -0.6630  0.5766  0.1172
 7785TIP3   OH244845   3.951   3.194  16.402  0.4952  0.0472 -0.5974
 7785TIP3    H144846   4.033   3.179  16.447  0.2261  0.7275  0.1399
 7785TIP3    H244847   3.968   3.267  16.343  0.4987 -0.0064 -0.6629
 7786TIP3   OH244848   6.748   4.195   2.039  0.0601 -0.1520  0.1961
 7786TIP3    H144849   6.827   4.194   2.093  0.6879 -0.2936 -0.6924
 7786TIP3    H244850   6.676   4.186   2.101  0.6799  0.9526  1.1286
 7787TIP3   OH244851   1.850   0.235   1.243 -1.0241 -0.0585 -0.1004
 7787TIP3    H144852   1.926   0.188   1.207 -1.4893 -0.5814 -0.4106
 7787TIP3    H244853   1.775   0.192   1.204 -1.5027  0.1857  0.5407
 7788TIP3   OH244854   2.669   6.480  11.407  0.2190  0.0387  0.0643
 7788TIP3    H144855   2.638   6.564  11.441 -0.4367 -0.8377  1.7316
 7788TIP3    H244856   2.749   6.462  11.456  0.0529 -0.5798  0.1102
 7789TIP3   OH244857   5.689   2.813  12.138 -0.7152 -0.8599  0.0924
 7789TIP3    H144858   5.652   2.856  12.060 -0.4858  0.4246  0.6716
 7789TIP3    H244859   5.686   2.880  12.206  2.4090 -0.7510  0.2612
 7790TIP3   OH244860   3.665   4.422   0.581  0.6759 -0.3922  0.4308
 7790TIP3    H144861   3.752   4.433   0.542  0.8865 -2.8147  0.0610
 7790TIP3    H244862   3.682   4.411   0.675  0.5597  0.9471  0.6353
 7791TIP3   OH244863   2.757   3.719  15.317 -0.4380  0.4789 -0.6460
 7791TIP3    H144864   2.846   3.719  15.281 -0.5937  2.6294 -1.1572
 7791TIP3    H244865   2.743   3.629  15.346  2.9015  0.6161  1.9402
 7792TIP3   OH244866   6.257   6.068  12.092  0.3082 -0.4909  0.3438
 7792TIP3    H144867   6.266   6.094  12.001  2.3846 -0.7035  0.4370
 7792TIP3    H244868   6.244   5.973  12.089  0.4710 -0.5105  0.2845
 7793TIP3   OH244869   6.688   0.261   3.025 -0.0102 -0.5179 -0.5604
 7793TIP3    H144870   6.782   0.244   3.032  0.3195  1.1313 -0.6426
 7793TIP3    H244871   6.653   0.182   2.983  0.7240 -2.7536  2.6599
 7794TIP3   OH244872   2.811   2.820   5.863 -0.5184 -0.4220 -0.0113
 7794TIP3    H144873   2.867   2.770   5.922 -1.3366 -1.7146 -0.3005
 7794TIP3    H244874   2.761   2.877   5.921  0.0401 -0.3091  0.3705
 7795TIP3   OH244875   2.279   4.527  13.814 -0.0253 -0.2055 -0.9901
 7795TIP3    H144876   2.347   4.554  13.875 -0.7017 -0.8677  0.0890
 7795TIP3    H244877   2.202   4.579  13.837 -1.1126 -2.3243  0.6109
 7796TIP3   OH244878   0.443   5.770   1.269 -0.1541 -0.8498 -0.0345
 7796TIP3    H144879   0.449   5.729   1.182  2.8796  0.3246 -0.5011
 7796TIP3    H244880   0.528   5.753   1.309 -0.4561  1.0673  1.5567
 7797TIP3   OH244881   0.141   3.763  11.822  0.0656 -0.0346  0.1600
 7797TIP3    H144882   0.103   3.850  11.836  1.8935  0.6733  0.9596
 7797TIP3    H244883   0.213   3.758  11.885  1.8079 -0.9933 -1.7984
 7798TIP3   OH244884   1.435   4.721  16.089  0.0234  0.0406  0.1339
 7798TIP3    H144885   1.501   4.674  16.038  0.5757  1.2180 -0.2930
 7798TIP3    H244886   1.454   4.813  16.072 -0.4947  0.4393  1.5847
 7799TIP3   OH244887   0.211   1.745   3.060 -0.3131  0.4403  0.0784
 7799TIP3    H144888   0.171   1.672   3.107 -1.3503  1.1417  0.3241
 7799TIP3    H244889   0.294   1.761   3.104  0.3431 -1.1398 -0.5237
 7800TIP3   OH244890   6.489   5.715  11.005 -0.0490  0.0704  0.2216
 7800TIP3    H144891   6.556   5.696  10.940 -0.9653 -0.0501 -0.7295
 7800TIP3    H244892   6.448   5.630  11.022  0.4396  0.0293  1.2777
 7801TIP3   OH244893   1.935   3.114   0.332 -0.5819  0.1599  0.0587
 7801TIP3    H144894   1.907   3.035   0.378 -1.1928 -0.4852 -1.3459
 7801TIP3    H244895   2.013   3.143   0.379  0.5872 -2.1689 -0.2778
 7802TIP3   OH244896   3.714   6.796   4.807  0.2729  0.1219  0.2327
 7802TIP3    H144897   3.679   6.712   4.837  0.5484  0.1568  0.6719
 7802TIP3    H244898   3.808   6.779   4.793 -0.1662 -0.4415 -2.6239
 7803TIP3   OH244899   0.397   0.862   6.389 -0.7199  0.2094 -0.3520
 7803TIP3    H144900   0.438   0.945   6.410  0.3875 -0.2018 -0.8495
 7803TIP3    H244901   0.355   0.834   6.471 -0.3136  0.8031  0.0590
 7804TIP3   OH244902   0.455   0.788   6.139 -0.2029  0.2890 -0.2103
 7804TIP3    H144903   0.422   0.800   6.228  0.2281  1.1190 -0.1535
 7804TIP3    H244904   0.475   0.876   6.109  2.8591 -0.1708  0.1343
 7805TIP3   OH244905   2.533   5.444  17.156 -0.5216 -0.0364  0.0124
 7805TIP3    H144906   2.506   5.366  17.109  2.2419  0.2274 -2.2878
 7805TIP3    H244907   2.553   5.413  17.244  0.4193 -1.9343 -0.8112
 7806TIP3   OH244908   6.069   0.128  16.919  0.4408 -0.0731 -0.3316
 7806TIP3    H144909   6.069   0.072  16.997 -1.3364 -0.6628 -0.6936
 7806TIP3    H244910   6.101   0.071  16.849 -0.3925 -0.3583 -0.4988
 7807TIP3   OH244911   3.096   5.904   5.473  0.1259 -0.1735 -0.1111
 7807TIP3    H144912   3.009   5.903   5.513  0.9216 -0.0732  1.7563
 7807TIP3    H244913   3.081   5.884   5.381 -2.0045  1.2367 -0.1368
 7808TIP3   OH244914   1.372   4.793   5.612  0.3382  0.3467  0.4520
 7808TIP3    H144915   1.416   4.708   5.613  0.2411  0.2988  0.6994
 7808TIP3    H244916   1.283   4.774   5.641 -0.9961 -0.1988 -3.4022
 7809TIP3   OH244917   4.202   6.049   6.011 -0.2365 -0.4022 -0.4618
 7809TIP3    H144918   4.218   5.980   5.946  0.3394  0.4201 -1.1990
 7809TIP3    H244919   4.122   6.020   6.055 -2.3200  0.3549 -3.3935
 7810TIP3   OH244920   6.379   5.289   3.356  0.3874 -0.0553 -0.1240
 7810TIP3    H144921   6.337   5.310   3.272  1.2987 -0.3565 -0.6668
 7810TIP3    H244922   6.307   5.260   3.412 -0.2606  0.3326 -0.7390
 7811TIP3   OH244923   5.413   3.224   4.115 -0.0887  0.5830 -0.1962
 7811TIP3    H144924   5.416   3.319   4.107 -1.8454  0.6415 -0.6135
 7811TIP3    H244925   5.469   3.192   4.043  0.0886  1.2900 -0.3805
 7812TIP3   OH244926   5.030   3.771   5.949  0.0468  0.7171  0.3311
 7812TIP3    H144927   5.078   3.820   6.014  0.6118  2.1304 -1.0821
 7812TIP3    H244928   4.938   3.795   5.963 -0.1067 -0.5453  1.8257
 7813TIP3   OH244929   6.096   3.673   4.714  1.1253  0.6877 -0.5777
 7813TIP3    H144930   6.171   3.720   4.677  1.1293 -0.3195 -1.9425
 7813TIP3    H244931   6.087   3.595   4.659  1.9117 -1.6305  2.3009
 7814TIP3   OH244932   3.830   1.491  13.105  0.1299  0.2549  0.5694
 7814TIP3    H144933   3.792   1.470  13.191  0.6507 -0.8163  0.5584
 7814TIP3    H244934   3.919   1.455  13.109  0.4346  0.8809 -0.1533
 7815TIP3   OH244935   3.735   3.246   4.693 -0.3121 -0.1667 -0.2662
 7815TIP3    H144936   3.677   3.176   4.724 -0.6540 -0.0141 -0.5606
 7815TIP3    H244937   3.795   3.202   4.632 -0.7070 -0.1580 -0.6705
 7816TIP3   OH244938   3.061   1.996   1.492 -0.1102  0.6223  0.3671
 7816TIP3    H144939   3.103   2.036   1.568 -0.7541  1.0852  0.4857
 7816TIP3    H244940   3.064   2.064   1.425 -2.4189  1.4275  0.9772
 7817TIP3   OH244941   3.763   2.617   0.553  0.1011  0.6530  0.5636
 7817TIP3    H144942   3.738   2.708   0.567  0.5122  0.7497  0.7014
 7817TIP3    H244943   3.858   2.620   0.542  0.3883  0.0385  2.5258
 7818TIP3   OH244944   2.836   5.762  14.881  0.0050  0.5862  0.0513
 7818TIP3    H144945   2.762   5.797  14.931  0.9278  1.4738  0.8296
 7818TIP3    H244946   2.913   5.786  14.932  0.8667 -0.0118 -0.9338
 7819TIP3   OH244947   2.891   1.213  13.200  0.4455  0.2199  0.6635
 7819TIP3    H144948   2.969   1.223  13.145  0.2886 -2.3757 -0.1296
 7819TIP3    H244949   2.861   1.303  13.215  3.4436  1.3179  0.8510
 7820TIP3   OH244950   0.365   1.382   1.545 -0.3893  0.2795 -0.3502
 7820TIP3    H144951   0.360   1.452   1.480  3.1558  1.2877  0.2304
 7820TIP3    H244952   0.388   1.427   1.627  0.1535 -1.3721  0.4552
 7821TIP3   OH244953   4.325   5.084  15.185 -0.1918 -0.1066  0.4642
 7821TIP3    H144954   4.383   5.007  15.188 -0.1332 -0.0942 -0.2423
 7821TIP3    H244955   4.238   5.048  15.168 -0.3615 -0.1035  1.2730
 7822TIP3   OH244956   3.274   3.147  14.673 -0.2994  0.3656 -0.1731
 7822TIP3    H144957   3.205   3.203  14.708 -0.6919  0.6171 -1.3312
 7822TIP3    H244958   3.315   3.109  14.751 -0.0085  2.2482  0.6380
 7823TIP3   OH244959   0.514   6.155  16.209 -0.4256 -0.1416  0.0055
 7823TIP3    H144960   0.493   6.071  16.249  2.1828 -0.1733  1.5760
 7823TIP3    H244961   0.535   6.212  16.282 -1.9131  1.8799 -1.0456
 7824TIP3   OH244962   3.258   0.849  15.338 -0.0118 -0.2838 -0.0598
 7824TIP3    H144963   3.261   0.941  15.364 -0.0604 -0.2663 -0.1158
 7824TIP3    H244964   3.303   0.802  15.409  0.9544 -0.1099 -0.5412
 7825TIP3   OH244965   0.766   6.550   2.936  0.0262  0.1804  0.2569
 7825TIP3    H144966   0.779   6.599   2.855 -0.6234  1.6554  1.0095
 7825TIP3    H244967   0.688   6.589   2.976 -0.5205 -1.4961  0.8914
 7826TIP3   OH244968   3.799   6.131  14.134 -0.0673  0.2686 -0.5354
 7826TIP3    H144969   3.874   6.115  14.191  0.4085 -0.2686 -1.2842
 7826TIP3    H244970   3.810   6.222  14.105  0.8598 -0.0955 -1.4104
 7827TIP3   OH244971   4.840   3.009  11.642  0.3532 -0.8396 -0.1727
 7827TIP3    H144972   4.883   3.092  11.662 -1.9006  0.6978 -1.2017
 7827TIP3    H244973   4.785   2.991  11.718  0.3088 -1.0208 -0.2463
 7828TIP3   OH244974   6.781   5.995   3.603  0.1873  0.0696  0.0665
 7828TIP3    H144975   6.845   5.925   3.587  0.1829 -0.1261  0.8286
 7828TIP3    H244976   6.700   5.948   3.623 -0.3266  0.3204 -1.3297
 7829TIP3   OH244977   0.528   0.449  12.554  0.0652 -0.0109 -0.5767
 7829TIP3    H144978   0.462   0.380  12.562 -0.6997  0.7031 -0.5707
 7829TIP3    H244979   0.591   0.414  12.492 -0.1375 -0.8489 -0.3254
 7830TIP3   OH244980   2.092   4.717  13.798 -0.0999 -0.4402 -0.3392
 7830TIP3    H144981   2.070   4.715  13.891  1.4133 -0.1829  0.0560
 7830TIP3    H244982   2.127   4.805  13.784 -0.3871 -0.4555 -1.1743
 7831TIP3   OH244983   3.770   3.200   4.998 -0.4246 -0.0433  0.0003
 7831TIP3    H144984   3.858   3.185   4.963 -0.3122 -0.0293  0.2770
 7831TIP3    H244985   3.775   3.286   5.041 -0.6170  0.0302 -0.1184
 7832TIP3   OH244986   5.665   4.757   4.782  0.3564 -0.2680 -0.1541
 7832TIP3    H144987   5.639   4.744   4.873  1.9487 -1.4054  0.1971
 7832TIP3    H244988   5.741   4.815   4.786 -0.0731  0.3656 -0.8502
 7833TIP3   OH244989   2.550   4.416   3.180  0.0100  0.2198 -0.1154
 7833TIP3    H144990   2.589   4.336   3.146  1.5371  0.9886 -0.2901
 7833TIP3    H244991   2.607   4.486   3.147 -0.5715  1.2816  1.0298
 7834TIP3   OH244992   2.167   0.815   0.511  0.4074 -0.5215  0.4067
 7834TIP3    H144993   2.198   0.732   0.475 -2.2393 -1.7083  0.6742
 7834TIP3    H244994   2.115   0.854   0.441 -1.0448 -0.6917  1.3385
 7835TIP3   OH244995   5.022   1.950  11.332  0.0098  0.2217 -0.2981
 7835TIP3    H144996   4.978   2.007  11.395 -1.2286 -0.1654 -0.7867
 7835TIP3    H244997   5.060   1.880  11.385  3.1053  2.3158  0.5509
 7836TIP3   OH244998   1.962   0.793  10.609  0.0689 -0.4188 -0.5260
 7836TIP3    H144999   2.010   0.718  10.645  1.0716 -0.2680 -1.4784
 7836TIP3    H245000   1.971   0.783  10.514  0.7560  1.2173 -0.6696
 7837TIP3   OH245001   6.509   5.428  15.186  0.1741  0.2666 -0.3868
 7837TIP3    H145002   6.468   5.375  15.254  1.5039 -0.1584  0.1097
 7837TIP3    H245003   6.486   5.518  15.209  1.2551  0.1917  1.0944
 7838TIP3   OH245004   2.360   3.763   1.373  0.0215 -0.1258 -0.6706
 7838TIP3    H145005   2.439   3.716   1.347 -1.0197 -1.2441 -1.9521
 7838TIP3    H245006   2.332   3.810   1.294 -0.1469  0.9573  0.0004
 7839TIP3   OH245007   0.272   0.435   5.284 -0.0250 -0.1222  0.5245
 7839TIP3    H145008   0.309   0.495   5.348  0.7205  0.9178 -0.8112
 7839TIP3    H245009   0.340   0.370   5.270 -0.9183 -1.4776  2.1363
 7840TIP3   OH245010   0.732   1.308  14.490  0.5498  0.4944 -0.7341
 7840TIP3    H145011   0.743   1.270  14.403 -0.1985  0.0550 -0.6438
 7840TIP3    H245012   0.637   1.320  14.499  0.4611 -0.9434  0.6317
 7841TIP3   OH245013   3.302   5.963  16.778  0.5001  0.1304 -0.2752
 7841TIP3    H145014   3.384   5.934  16.738  0.8103 -0.3797  0.7157
 7841TIP3    H245015   3.279   6.043  16.730  1.4427  0.1440 -0.7180
 7842TIP3   OH245016   3.478   3.421  10.893 -0.4619 -0.8035 -0.0882
 7842TIP3    H145017   3.467   3.347  10.834  3.0489 -0.7576 -0.9991
 7842TIP3    H245018   3.500   3.495  10.836 -1.3464  0.3564  1.0077
 7843TIP3   OH245019   5.677   4.948   3.608  0.0923  0.5882  0.2748
 7843TIP3    H145020   5.630   4.953   3.525  0.6280 -0.8362 -0.1530
 7843TIP3    H245021   5.608   4.946   3.675 -0.3562  1.2052 -0.1591
 7844TIP3   OH245022   3.311   0.603   1.708 -0.4645 -0.3092  0.2683
 7844TIP3    H145023   3.263   0.677   1.672  2.1778  1.2951 -0.2532
 7844TIP3    H245024   3.364   0.571   1.635  1.4567 -0.0362  1.4479
 7845TIP3   OH245025   4.532   1.536   5.039  0.5140  0.8222 -0.0417
 7845TIP3    H145026   4.509   1.487   5.118  0.5872 -0.3376 -0.7060
 7845TIP3    H245027   4.624   1.559   5.051  0.6419  0.2827  0.0317
 7846TIP3   OH245028   3.876   6.282   4.947  0.0117  0.5855 -0.2536
 7846TIP3    H145029   3.841   6.194   4.938 -1.4679  1.1597 -0.4802
 7846TIP3    H245030   3.811   6.328   5.000  1.9775  0.8995  2.0226
 7847TIP3   OH245031   3.560   0.609   3.959 -0.1589 -0.3304  0.0352
 7847TIP3    H145032   3.474   0.617   3.919 -0.6554  1.9843  1.4289
 7847TIP3    H245033   3.614   0.570   3.890 -1.7558  0.3124 -1.6691
 7848TIP3   OH245034   6.646   3.711   2.357 -0.0858 -0.3131 -0.1217
 7848TIP3    H145035   6.590   3.680   2.427  0.7184  0.1587  0.7601
 7848TIP3    H245036   6.620   3.802   2.344 -0.5325 -0.5244 -0.7514
 7849TIP3   OH245037   5.589   5.380   1.842  1.1412  0.0231 -0.0970
 7849TIP3    H145038   5.563   5.448   1.780  0.9173 -0.6303 -0.7343
 7849TIP3    H245039   5.550   5.408   1.925 -0.9435 -0.4772 -0.8274
 7850TIP3   OH245040   2.648   6.281  17.067 -0.3087  0.5275 -0.3324
 7850TIP3    H145041   2.577   6.285  17.131 -1.4799  1.1495 -1.6194
 7850TIP3    H245042   2.652   6.189  17.041 -0.6970  0.5082 -0.3226
 7851TIP3   OH245043   1.071   1.819   0.673  0.1099 -0.2394 -0.3753
 7851TIP3    H145044   0.981   1.831   0.706 -0.1284 -0.8186 -0.7954
 7851TIP3    H245045   1.061   1.759   0.599  1.1792 -2.8090  1.4335
 7852TIP3   OH245046   1.695   5.618  10.936  0.5000 -0.0035 -0.1359
 7852TIP3    H145047   1.691   5.677  10.861 -3.2104  1.7285  1.1617
 7852TIP3    H245048   1.670   5.533  10.901 -0.7999  0.6923 -1.0193
 7853TIP3   OH245049   1.241   1.598   1.561  0.1224  0.4498 -0.6695
 7853TIP3    H145050   1.307   1.530   1.545  1.1494  1.0895  0.7034
 7853TIP3    H245051   1.286   1.664   1.613 -1.6917  0.7648  0.5866
 7854TIP3   OH245052   2.863   2.247   1.513 -0.3869  0.7689  0.4391
 7854TIP3    H145053   2.886   2.199   1.593 -1.0400  0.3566  0.3923
 7854TIP3    H245054   2.941   2.243   1.458 -0.3571 -0.0532  0.5301
 7855TIP3   OH245055   5.453   1.624  15.405  0.0542  0.9972 -0.1104
 7855TIP3    H145056   5.420   1.697  15.352  3.7816  1.0781 -2.7437
 7855TIP3    H245057   5.530   1.659  15.449 -0.7786 -0.1772  2.4273
 7856TIP3   OH245058   1.345   6.224   6.370  0.2438  0.4627 -0.0284
 7856TIP3    H145059   1.279   6.186   6.429  0.9413 -1.4890 -0.4207
 7856TIP3    H245060   1.357   6.313   6.401 -3.3532  1.3225 -0.5835
 7857TIP3   OH245061   0.835   5.798   4.503  0.2019 -0.3068 -0.3459
 7857TIP3    H145062   0.804   5.726   4.449 -2.0006 -1.3823  2.1244
 7857TIP3    H245063   0.900   5.759   4.561  1.7053  0.5770 -1.3728
 7858TIP3   OH245064   3.163   6.406  12.698 -0.0418 -0.6876 -0.2901
 7858TIP3    H145065   3.092   6.344  12.709  0.5291 -1.0012  2.2307
 7858TIP3    H245066   3.227   6.360  12.643  0.2151 -2.2806  1.2414
 7859TIP3   OH245067   6.093   3.846   0.216  0.3480 -0.1974  0.1434
 7859TIP3    H145068   6.073   3.918   0.156 -2.5224  0.3662  1.5832
 7859TIP3    H245069   6.047   3.770   0.179  1.3512 -0.7101 -0.0878
 7860TIP3   OH245070   6.269   0.362   4.817 -0.1454 -0.0531 -0.2841
 7860TIP3    H145071   6.343   0.303   4.804 -0.3756 -0.6064  0.8516
 7860TIP3    H245072   6.205   0.311   4.867 -2.0995 -0.2324 -2.7118
 7861TIP3   OH245073   2.064   4.638  16.951  0.1566  0.3595 -0.1303
 7861TIP3    H145074   2.069   4.545  16.974  2.6803  0.3417 -0.4883
 7861TIP3    H245075   2.153   4.660  16.923 -1.0530  2.1843 -2.8717
 7862TIP3   OH245076   4.919   2.360   4.652 -0.2717  0.1094  0.7183
 7862TIP3    H145077   4.914   2.452   4.629 -0.2292 -0.2760 -0.9273
 7862TIP3    H245078   4.829   2.329   4.650 -0.0768 -0.4290 -1.2056
 7863TIP3   OH245079   3.552   1.892  12.838 -0.3943  0.1984  0.0414
 7863TIP3    H145080   3.603   1.815  12.863 -1.3941 -0.0451  1.4437
 7863TIP3    H245081   3.567   1.901  12.744  3.1002  0.7873  0.5107
 7864TIP3   OH245082   3.263   1.728   3.893 -0.4024  0.5367 -0.7473
 7864TIP3    H145083   3.183   1.780   3.881 -1.8534 -1.7810 -1.8733
 7864TIP3    H245084   3.242   1.644   3.853  2.1953 -0.5834  0.0854
 7865TIP3   OH245085   1.532   3.217  15.926  0.2150 -0.5577 -0.0323
 7865TIP3    H145086   1.546   3.256  15.840  0.8623 -1.0843 -0.1677
 7865TIP3    H245087   1.534   3.291  15.987 -0.6469 -0.1307 -0.5002
 7866TIP3   OH245088   3.567   4.870   6.532  0.2240  0.0697  0.3434
 7866TIP3    H145089   3.594   4.961   6.534  2.7986 -0.5531 -1.2744
 7866TIP3    H245090   3.568   4.842   6.624 -1.1464  1.7446  0.9167
 7867TIP3   OH245091   2.976   6.278  14.710  0.2109  0.0836 -0.3298
 7867TIP3    H145092   2.904   6.222  14.683 -0.5226 -0.0203  1.6774
 7867TIP3    H245093   3.044   6.218  14.739 -0.1061  0.1987  0.6786
 7868TIP3   OH245094   3.869   2.756  16.388 -0.2880  0.9657 -0.0830
 7868TIP3    H145095   3.860   2.671  16.343  0.5214  0.6432  0.3450
 7868TIP3    H245096   3.824   2.818  16.330 -0.6443  0.2952 -0.5464
 7869TIP3   OH245097   2.191   2.106  15.456 -0.3354  0.1674 -0.1421
 7869TIP3    H145098   2.237   2.158  15.390 -0.3221 -0.1436 -0.3800
 7869TIP3    H245099   2.245   2.027  15.465  0.0011  0.4793  0.6900
 7870TIP3   OH245100   4.867   4.098   5.456 -0.3649  0.3495  0.3647
 7870TIP3    H145101   4.921   4.064   5.527 -0.2801  0.8096  0.5261
 7870TIP3    H245102   4.848   4.189   5.481 -2.1750 -0.1369  0.8742
 7871TIP3   OH245103   6.259   6.033   1.896  0.1702  0.1362 -0.1391
 7871TIP3    H145104   6.262   5.995   1.984  1.0939 -1.8081 -0.9557
 7871TIP3    H245105   6.165   6.039   1.876 -0.0541  0.8286  1.0493
 7872TIP3   OH245106   2.909   2.783  11.629 -0.1594  0.0418 -0.1698
 7872TIP3    H145107   2.924   2.753  11.540  1.4089 -1.4836  0.5423
 7872TIP3    H245108   2.829   2.738  11.657 -1.2897  1.3799 -1.1197
 7873TIP3   OH245109   5.624   0.722  11.947  0.0100 -1.0915  0.6004
 7873TIP3    H145110   5.593   0.726  11.856 -2.8513  0.6920  1.5235
 7873TIP3    H245111   5.674   0.803  11.958 -0.0628 -1.0681  0.7588
 7874TIP3   OH245112   4.176   1.653   5.208 -0.0747  0.2123  0.3810
 7874TIP3    H145113   4.192   1.700   5.126  2.5096  0.3038  0.8695
 7874TIP3    H245114   4.183   1.560   5.183 -1.7288  0.1305  0.0872
 7875TIP3   OH245115   5.475   4.312   0.830  0.1005 -0.2588  0.1897
 7875TIP3    H145116   5.565   4.281   0.824 -0.3629 -1.5870 -0.2672
 7875TIP3    H245117   5.424   4.235   0.856 -0.8156  0.6310  1.1501
 7876TIP3   OH245118   4.491   2.854   1.801  0.2908 -1.2387  0.4075
 7876TIP3    H145119   4.446   2.809   1.873  0.5732 -1.1319  0.6559
 7876TIP3    H245120   4.504   2.786   1.735 -1.4291 -0.9616 -0.2526
 7877TIP3   OH245121   4.310   4.929   2.465 -0.5729 -0.8571  0.1465
 7877TIP3    H145122   4.392   4.880   2.468 -0.8625 -1.3703 -0.1730
 7877TIP3    H245123   4.311   4.984   2.543  0.8127  0.3356 -0.6587
 7878TIP3   OH245124   1.519   5.597  11.155  0.0061  0.1623  0.0846
 7878TIP3    H145125   1.543   5.588  11.063 -1.5714  1.3791 -0.4902
 7878TIP3    H245126   1.557   5.681  11.182  1.1518 -0.5545  0.8214
 7879TIP3   OH245127   0.408   2.211   2.111  0.5400 -0.6267 -0.1078
 7879TIP3    H145128   0.358   2.154   2.170  0.6372  0.3570  0.9573
 7879TIP3    H245129   0.347   2.281   2.088  0.9798 -0.1716  0.0861
 7880TIP3   OH245130   4.990   2.894  16.761 -0.1912  0.0926  0.5995
 7880TIP3    H145131   5.056   2.887  16.692 -0.2416  2.0168  0.3122
 7880TIP3    H245132   4.963   2.803  16.777 -0.9318 -0.4142 -2.6635
 7881TIP3   OH245133   3.793   3.256   4.322 -0.2367  0.1172 -0.0057
 7881TIP3    H145134   3.796   3.203   4.401  2.0478  0.4636  0.2203
 7881TIP3    H245135   3.731   3.210   4.264  0.6300 -2.0505  0.6854
 7882TIP3   OH245136   6.594   4.117  15.847  0.5282  0.5767 -0.2089
 7882TIP3    H145137   6.625   4.046  15.904  1.1299  0.1270 -1.0682
 7882TIP3    H245138   6.595   4.078  15.760 -0.1825  1.3195 -0.5509
 7883TIP3   OH245139   0.024   6.654  11.002 -0.5159 -0.5040  1.1472
 7883TIP3    H145140   0.082   6.730  10.996 -1.1090 -0.1070  0.1526
 7883TIP3    H245141   0.065   6.598  11.068  1.3312 -0.5245  0.0661
 7884TIP3   OH245142   1.055   0.863  16.237  0.5796  0.0101  0.1138
 7884TIP3    H145143   1.145   0.891  16.249  1.1559 -0.3441 -2.6774
 7884TIP3    H245144   1.004   0.943  16.239  1.1598  0.3852  0.1365
 7885TIP3   OH245145   6.670   2.618   0.142  0.2443  0.0936  0.2134
 7885TIP3    H145146   6.614   2.566   0.085  0.7506 -0.9821  0.6727
 7885TIP3    H245147   6.728   2.554   0.184  2.0325  1.1759 -0.4889
 7886TIP3   OH245148   5.658   3.229  16.945 -0.2292 -0.3349 -0.0783
 7886TIP3    H145149   5.674   3.139  16.975 -1.6260 -0.5843  0.0037
 7886TIP3    H245150   5.743   3.259  16.912  0.5336 -1.2771  0.9291
 7887TIP3   OH245151   0.701   5.289   6.529  0.8081  0.1444  0.3887
 7887TIP3    H145152   0.659   5.362   6.575  0.6304 -0.7207  1.6339
 7887TIP3    H245153   0.631   5.226   6.513  0.5445  1.0211 -2.4394
 7888TIP3   OH245154   4.801   0.240   0.635 -0.0270 -0.1033 -0.1232
 7888TIP3    H145155   4.887   0.281   0.629  0.3735 -0.6677  1.2646
 7888TIP3    H245156   4.752   0.295   0.696 -0.7487  0.3392 -1.0740
 7889TIP3   OH245157   5.769   2.936   4.645  0.0302  0.3501  0.6166
 7889TIP3    H145158   5.754   2.889   4.727 -1.5717  1.4994  1.0396
 7889TIP3    H245159   5.748   3.027   4.665  1.4724  1.0021 -0.5957
 7890TIP3   OH245160   5.144   5.899   4.326 -0.7114  0.0876 -0.2885
 7890TIP3    H145161   5.136   5.927   4.235 -0.1297 -0.3888 -0.4920
 7890TIP3    H245162   5.169   5.979   4.373 -0.5356  0.2348 -0.6261
 7891TIP3   OH245163   6.192   2.109  11.261 -0.2013  0.7103  0.0335
 7891TIP3    H145164   6.239   2.162  11.326 -1.2498  0.5101  0.9751
 7891TIP3    H245165   6.229   2.021  11.270  0.4857  0.9334 -0.4886
 7892TIP3   OH245166   2.459   0.229   4.783 -0.2374  1.0990 -0.3242
 7892TIP3    H145167   2.521   0.223   4.856 -0.4397  3.1642  0.0805
 7892TIP3    H245168   2.374   0.206   4.822  0.0401 -0.3708 -0.5514
 7893TIP3   OH245169   4.806   4.869   0.389 -0.2366  0.2436  0.3940
 7893TIP3    H145170   4.863   4.844   0.461 -0.4633 -1.4164  0.0637
 7893TIP3    H245171   4.745   4.932   0.426  0.7868  0.7962  1.1680
 7894TIP3   OH245172   2.680   3.082  17.178  0.4633 -0.5933  0.1719
 7894TIP3    H145173   2.638   3.005  17.140 -0.2423 -0.3430  0.4354
 7894TIP3    H245174   2.637   3.094  17.262 -0.0001  0.5589 -0.2100
 7895TIP3   OH245175   3.934   5.633  15.344 -0.6761 -0.2682  0.6781
 7895TIP3    H145176   3.855   5.630  15.291  0.7232 -0.5633 -1.5198
 7895TIP3    H245177   3.961   5.725  15.342 -0.9685 -0.1517  1.4977
 7896TIP3   OH245178   5.347   3.559  10.418  0.4858 -0.1264 -0.1970
 7896TIP3    H145179   5.331   3.466  10.434 -0.7839  0.0724 -0.2767
 7896TIP3    H245180   5.337   3.600  10.503 -0.2671  0.1171 -0.4041
 7897TIP3   OH245181   6.303   2.618  14.773 -0.2116 -0.5816  0.2344
 7897TIP3    H145182   6.291   2.703  14.730  4.2270  1.3222  2.1265
 7897TIP3    H245183   6.334   2.560  14.703  2.0821  1.0288 -0.1696
 7898TIP3   OH245184   3.460   4.522  13.777  0.3500  0.2397 -0.4131
 7898TIP3    H145185   3.395   4.453  13.769 -1.7412  1.9356  0.7919
 7898TIP3    H245186   3.500   4.507  13.863 -0.7878  1.0052  0.2826
 7899TIP3   OH245187   2.846   1.157   0.284  0.4403  0.1879 -0.5224
 7899TIP3    H145188   2.902   1.168   0.361  1.8762 -1.8344 -1.2008
 7899TIP3    H245189   2.771   1.214   0.301  1.2758  0.7138  1.8027
 7900TIP3   OH245190   5.276   3.399  12.647 -0.1913 -0.4732  0.0501
 7900TIP3    H145191   5.206   3.464  12.647 -0.1118 -0.3634 -1.1052
 7900TIP3    H245192   5.267   3.355  12.563  1.0820 -0.4952 -0.0915
 7901TIP3   OH245193   0.495   3.303  14.001 -0.4356  0.5844 -1.1693
 7901TIP3    H145194   0.486   3.312  14.096 -0.5615  0.5834 -1.1805
 7901TIP3    H245195   0.589   3.298  13.986 -0.3560  1.6253 -1.1335
 7902TIP3   OH245196   1.169   3.194   6.294  0.0350 -0.2079 -0.2119
 7902TIP3    H145197   1.180   3.258   6.224 -0.5885  0.7407  0.5353
 7902TIP3    H245198   1.257   3.157   6.307  0.2554 -0.0267 -1.1271
 7903TIP3   OH245199   5.112   4.389   4.843 -0.1813 -0.1604 -0.1324
 7903TIP3    H145200   5.054   4.466   4.840 -0.6287 -0.4421  1.0355
 7903TIP3    H245201   5.197   4.422   4.813 -0.5786  0.5971 -0.4533
 7904TIP3   OH245202   6.792   1.364  13.384 -0.1518 -0.1193  0.2130
 7904TIP3    H145203   6.740   1.287  13.363  0.3488 -0.5536  0.5256
 7904TIP3    H245204   6.791   1.368  13.479  0.1935 -0.0059  0.2141
 7905TIP3   OH245205   5.479   0.298  11.794  0.5810 -0.2592 -0.1337
 7905TIP3    H145206   5.570   0.326  11.802  0.0258  1.7905 -0.4316
 7905TIP3    H245207   5.433   0.374  11.759 -1.0870 -1.5727 -0.9890
 7906TIP3   OH245208   3.536   2.155  16.342 -0.3233  0.2875 -0.1850
 7906TIP3    H145209   3.559   2.066  16.318 -0.6771  0.1991 -0.1960
 7906TIP3    H245210   3.468   2.146  16.409  0.9490  0.5199  1.1786
 7907TIP3   OH245211   2.677   2.893   6.408  0.0361  0.1941  0.1249
 7907TIP3    H145212   2.757   2.842   6.392  0.9101  1.0771  1.4719
 7907TIP3    H245213   2.665   2.891   6.503 -1.7181 -0.1415 -0.0700
 7908TIP3   OH245214   0.697   0.529  15.376  0.1592 -0.0952  0.1732
 7908TIP3    H145215   0.725   0.454  15.323  1.9588 -0.2419  1.2121
 7908TIP3    H245216   0.675   0.597  15.313  2.4664 -0.1819 -0.8212
 7909TIP3   OH245217   2.172   3.019  11.137  0.0205  0.3889 -0.0688
 7909TIP3    H145218   2.131   3.090  11.087  1.9973  1.6822  0.0311
 7909TIP3    H245219   2.191   3.058  11.222  0.4585 -0.5217  0.2602
 7910TIP3   OH245220   3.490   5.992   4.420  0.0005  0.3519 -0.1215
 7910TIP3    H145221   3.424   5.977   4.353 -0.1397  0.4131  0.0023
 7910TIP3    H245222   3.520   6.082   4.406  0.0906  0.3081 -0.2078
 7911TIP3   OH245223   5.623   0.776   3.544  0.1302  0.3561 -0.1607
 7911TIP3    H145224   5.706   0.750   3.585  0.0511  1.0673  0.4506
 7911TIP3    H245225   5.559   0.714   3.577  0.2011  0.5012  0.2481
 7912TIP3   OH245226   2.355   6.047   4.412 -0.0101 -0.2089 -0.1471
 7912TIP3    H145227   2.302   5.992   4.354  0.5585 -0.2201 -0.6678
 7912TIP3    H245228   2.330   6.136   4.390 -0.2730 -0.2346  0.0529
 7913TIP3   OH245229   0.402   1.329  17.187  0.5145 -0.2515 -0.5497
 7913TIP3    H145230   0.309   1.349  17.198  0.6213 -0.8748  2.1827
 7913TIP3    H245231   0.406   1.234  17.182  1.1015 -0.4604  2.0868
 7914TIP3   OH245232   0.158   2.487  16.516 -0.2712  0.0093  0.6479
 7914TIP3    H145233   0.240   2.533  16.532  0.9819 -1.9630  0.2898
 7914TIP3    H245234   0.166   2.406  16.568 -1.0941 -1.1521 -0.9483
 7915TIP3   OH245235   3.852   5.021   4.346 -0.1775  0.6353 -0.6480
 7915TIP3    H145236   3.803   4.955   4.396 -1.1167  1.2746 -0.7034
 7915TIP3    H245237   3.883   4.974   4.268 -0.0767  0.0457 -0.2635
 7916TIP3   OH245238   4.072   3.761  13.506 -0.1046 -0.1319  0.2451
 7916TIP3    H145239   4.085   3.775  13.412 -0.5147  0.9976  0.3368
 7916TIP3    H245240   4.041   3.846  13.538 -1.6296 -0.9718  1.1023
 7917TIP3   OH245241   0.104   1.401  12.204  0.0300  0.1103  0.5629
 7917TIP3    H145242   0.027   1.431  12.254  0.8059  0.5796  1.5190
 7917TIP3    H245243   0.122   1.474  12.144 -2.8953 -1.7221 -2.9504
 7918TIP3   OH245244   5.558   6.081  13.709  0.1824  0.4736  0.2933
 7918TIP3    H145245   5.563   6.177  13.710  0.2241  0.5061  3.1380
 7918TIP3    H245246   5.648   6.052  13.697  0.3546  0.7994  0.7901
 7919TIP3   OH245247   4.133   3.522  15.079  0.2537 -0.0364  0.3230
 7919TIP3    H145248   4.044   3.507  15.046 -0.1803  0.7229  1.1251
 7919TIP3    H245249   4.141   3.617  15.086  0.4797 -0.1529  2.0097
 7920TIP3   OH245250   2.227   4.460  17.185 -0.0086 -0.2889  0.0371
 7920TIP3    H145251   2.319   4.460  17.160  0.1450 -2.7244  0.3575
 7920TIP3    H245252   2.181   4.430  17.106 -0.4509  0.1622  0.1161
 7921TIP3   OH245253   2.730   3.780   6.115 -0.3978 -0.0783  0.3073
 7921TIP3    H145254   2.701   3.693   6.141  0.8253 -1.2475 -1.9247
 7921TIP3    H245255   2.815   3.791   6.159 -0.8753  0.3185  1.1535
 7922TIP3   OH245256   3.176   4.835   3.451  0.7305  0.2621  0.2307
 7922TIP3    H145257   3.102   4.844   3.512 -0.7141  0.0499 -1.3976
 7922TIP3    H245258   3.250   4.813   3.507 -0.7191 -0.8534  1.8355
 7923TIP3   OH245259   5.819   2.335   3.816 -0.2524  0.0820 -0.1099
 7923TIP3    H145260   5.753   2.405   3.816  2.1081  2.5375 -2.0824
 7923TIP3    H245261   5.772   2.259   3.782 -2.1175  1.7604 -1.5883
 7924TIP3   OH245262   3.584   5.839   5.071  0.2995 -0.6126  0.0660
 7924TIP3    H145263   3.515   5.838   5.004  1.0687 -1.3572 -0.7279
 7924TIP3    H245264   3.587   5.749   5.104 -0.3414 -0.1702  1.4137
 7925TIP3   OH245265   0.032   3.168   5.535  0.0304 -0.2984  0.5786
 7925TIP3    H145266   0.083   3.124   5.603  0.2600  0.8338  1.1664
 7925TIP3    H245267   0.012   3.254   5.572  0.0804  0.3119 -0.7563
 7926TIP3   OH245268   3.426   0.832  12.492 -0.4569  0.1206  0.5337
 7926TIP3    H145269   3.355   0.787  12.536 -2.3243  0.7944 -1.5775
 7926TIP3    H245270   3.382   0.895  12.434  1.8967  1.2803 -0.1117
 7927TIP3   OH245271   2.180   6.824  10.891 -0.3212  0.1582 -0.2582
 7927TIP3    H145272   2.209   6.912  10.916 -1.3216  0.8508 -1.4368
 7927TIP3    H245273   2.231   6.802  10.813 -0.1517 -0.2819 -0.0306
 7928TIP3   OH245274   5.300   6.043  16.463 -0.6591  0.3885  0.5704
 7928TIP3    H145275   5.367   6.041  16.531 -1.2968  1.4911  1.2676
 7928TIP3    H245276   5.348   6.056  16.381  0.0272  0.3555  0.9650
 7929TIP3   OH245277   0.348   4.258  12.814  0.0858  0.0998  0.4820
 7929TIP3    H145278   0.440   4.233  12.804  0.6361  1.6973  1.1428
 7929TIP3    H245279   0.303   4.176  12.835  1.4273 -0.6426  0.5973
 7930TIP3   OH245280   2.615   4.016  16.439  0.3172  0.2375 -0.3811
 7930TIP3    H145281   2.530   4.001  16.396  1.6186 -0.6324 -2.8593
 7930TIP3    H245282   2.669   3.942  16.410  1.9479  0.7854  1.1374
 7931TIP3   OH245283   2.035   3.369   4.862 -0.6215 -0.0633 -0.3213
 7931TIP3    H145284   2.009   3.371   4.954 -0.6644  0.1197 -0.3377
 7931TIP3    H245285   2.026   3.277   4.837  2.8441 -0.8380  0.8172
 7932TIP3   OH245286   6.228   4.525   5.091 -0.1889  0.4938 -0.4782
 7932TIP3    H145287   6.230   4.433   5.118 -1.6715  0.6997  0.4889
 7932TIP3    H245288   6.196   4.523   5.001 -0.6340  0.0736 -0.3178
 7933TIP3   OH245289   2.183   1.163  14.624  0.3734  0.0292  1.1067
 7933TIP3    H145290   2.123   1.107  14.673  0.2573 -0.6048  0.2520
 7933TIP3    H245291   2.126   1.216  14.569  0.4871  0.9450  1.8377
 7934TIP3   OH245292   6.289   5.938   5.248  0.0322 -0.4945  0.3844
 7934TIP3    H145293   6.249   5.961   5.164 -0.8568 -3.1872 -0.0284
 7934TIP3    H245294   6.378   5.972   5.243  0.0591 -0.7870 -1.7478
 7935TIP3   OH245295   1.502   6.516   4.140  0.2585  0.2304 -0.0982
 7935TIP3    H145296   1.470   6.601   4.109  2.2166  0.2541 -2.3093
 7935TIP3    H245297   1.551   6.536   4.220  1.6759  1.3960 -1.2181
 7936TIP3   OH245298   5.442   1.141   3.537  0.0493  0.3570 -0.1975
 7936TIP3    H145299   5.458   1.235   3.527 -0.0559  0.7281  2.3928
 7936TIP3    H245300   5.352   1.128   3.508  0.1030  1.0252 -0.6755
 7937TIP3   OH245301   3.633   2.844   1.190 -0.0936  0.4757 -0.0397
 7937TIP3    H145302   3.717   2.800   1.175 -0.5525 -0.5456  0.2640
 7937TIP3    H245303   3.651   2.937   1.176  1.1223  0.2846  0.1725
 7938TIP3   OH245304   2.514   5.802   4.609 -0.1983  0.2882 -0.3665
 7938TIP3    H145305   2.500   5.828   4.518 -1.4148  2.6191  0.4231
 7938TIP3    H245306   2.447   5.736   4.626 -0.8870  0.8798 -0.7683
 7939TIP3   OH245307   3.514   2.454  11.776 -0.2807 -0.5275  0.0471
 7939TIP3    H145308   3.482   2.544  11.785  1.2140 -0.1371  2.2569
 7939TIP3    H245309   3.474   2.422  11.695  0.8872  2.8691 -2.0845
 7940TIP3   OH245310   3.713   4.874  13.356 -0.0852  0.0011  0.1828
 7940TIP3    H145311   3.628   4.881  13.314  0.2627  0.3770 -0.4668
 7940TIP3    H245312   3.720   4.782  13.382 -0.4303 -0.1635 -0.3055
 7941TIP3   OH245313   1.175   6.637  12.057  0.1609 -0.6717  0.5401
 7941TIP3    H145314   1.187   6.707  12.121 -1.6721  2.6245 -2.4128
 7941TIP3    H245315   1.237   6.657  11.987 -0.1028 -2.3264 -0.2243
 7942TIP3   OH245316   1.292   3.106  16.203  0.0264 -0.1459 -0.2287
 7942TIP3    H145317   1.354   3.108  16.275  1.7677  0.5028 -1.6805
 7942TIP3    H245318   1.288   3.196  16.172 -0.3655 -0.4923 -1.2133
 7943TIP3   OH245319   2.338   1.486  13.880  0.8640  0.2009  0.4741
 7943TIP3    H145320   2.412   1.545  13.867  0.6090 -0.0021 -2.6268
 7943TIP3    H245321   2.377   1.403  13.909  2.2990 -0.6388 -3.2961
 7944TIP3   OH245322   1.467   4.449   0.293  0.4142  0.0991 -0.6782
 7944TIP3    H145323   1.455   4.507   0.368 -2.6516 -3.2061  1.7356
 7944TIP3    H245324   1.562   4.435   0.288  0.8358  1.6295  1.5248
 7945TIP3   OH245325   2.592   2.867  16.729  0.0320 -0.0538  0.4234
 7945TIP3    H145326   2.510   2.876  16.681  0.0046 -0.2537  0.4296
 7945TIP3    H245327   2.659   2.897  16.668 -0.0551  0.2064  0.4558
 7946TIP3   OH245328   5.451   4.927  16.756  0.0897 -0.2942 -0.0454
 7946TIP3    H145329   5.468   4.918  16.849  0.0228  1.4067  0.1688
 7946TIP3    H245330   5.356   4.944  16.750  0.0371 -0.6958 -0.4529
 7947TIP3   OH245331   2.339   4.578   4.050  0.1246 -0.3297  0.2310
 7947TIP3    H145332   2.412   4.613   4.000 -0.3262 -2.9172 -2.5313
 7947TIP3    H245333   2.379   4.518   4.114  0.6881  2.8861  3.1945
 7948TIP3   OH245334   4.671   0.478  16.808  0.0421  0.5739 -0.2280
 7948TIP3    H145335   4.658   0.463  16.902  1.6277  1.2699  0.1453
 7948TIP3    H245336   4.716   0.399  16.777  1.6612  1.2871  0.1511
 7949TIP3   OH245337   3.706   2.339   5.270  0.4302  0.0879  0.1483
 7949TIP3    H145338   3.726   2.271   5.335  2.5023 -0.0429 -0.5496
 7949TIP3    H245339   3.726   2.421   5.315  2.3476 -0.0256 -0.4255
 7950TIP3   OH245340   4.011   5.615  11.300 -0.6517  0.3274  0.6066
 7950TIP3    H145341   4.018   5.706  11.269  0.5714 -0.0822 -0.4064
 7950TIP3    H245342   3.931   5.582  11.260 -1.2446  1.0219  1.1874
 7951TIP3   OH245343   6.642   3.724   1.600  0.4575 -0.2057 -0.0587
 7951TIP3    H145344   6.679   3.660   1.540  1.2497 -0.2345  0.4355
 7951TIP3    H245345   6.674   3.696   1.687 -2.7258 -1.6815  0.7798
 7952TIP3   OH245346   2.881   5.462   5.817 -0.1977  0.2090  0.1383
 7952TIP3    H145347   2.882   5.461   5.913  1.4407  0.3700  0.1534
 7952TIP3    H245348   2.972   5.477   5.792 -0.4989 -0.3814 -1.4609
 7953TIP3   OH245349   0.041   3.533  16.338  0.1198 -0.0845 -0.5534
 7953TIP3    H145350   0.060   3.609  16.283  0.1609  0.0258 -0.3878
 7953TIP3    H245351   0.107   3.468  16.313  1.1400  0.5292  0.4740
 7954TIP3   OH245352   3.897   0.131  15.726 -0.4509  0.9280  0.2551
 7954TIP3    H145353   3.819   0.170  15.685 -1.8500 -0.0215  1.9078
 7954TIP3    H245354   3.963   0.131  15.656 -1.2573  3.5792 -0.6371
 7955TIP3   OH245355   1.351   0.921  12.126 -0.6897 -0.6568  0.3210
 7955TIP3    H145356   1.387   0.988  12.068 -0.4183 -2.4981 -1.7372
 7955TIP3    H245357   1.423   0.860  12.141 -0.9842 -0.6450  2.0057
 7956TIP3   OH245358   3.211   0.484   1.074 -0.2029 -0.2149  0.6503
 7956TIP3    H145359   3.279   0.459   1.135 -0.3328 -1.2181  0.4052
 7956TIP3    H245360   3.165   0.557   1.117  1.3981  0.9012  0.5293
 7957TIP3   OH245361   1.404   4.520   1.713 -0.1416 -0.1940 -0.5801
 7957TIP3    H145362   1.401   4.579   1.638  0.2126 -0.1084 -0.5276
 7957TIP3    H245363   1.395   4.433   1.675 -0.2012 -0.1364 -0.7000
 7958TIP3   OH245364   5.744   3.088  11.312  0.0294 -0.1964  0.0768
 7958TIP3    H145365   5.652   3.103  11.293  0.2188 -1.1992 -1.9363
 7958TIP3    H245366   5.754   2.993  11.314  1.5430 -0.2826 -3.3721
 7959TIP3   OH245367   3.322   0.518  10.978  0.6682 -0.0235 -0.4654
 7959TIP3    H145368   3.273   0.585  10.928  1.4980 -0.2639 -1.6414
 7959TIP3    H245369   3.329   0.555  11.066 -0.7710  0.4529 -0.5130
 7960TIP3   OH245370   4.919   2.475  13.310  0.1984  0.0820  0.2465
 7960TIP3    H145371   4.862   2.535  13.263 -1.4991 -0.5455  1.4085
 7960TIP3    H245372   4.876   2.462  13.394  2.3411 -0.0228  1.4121
 7961TIP3   OH245373   4.240   6.171   0.258 -0.2183  0.1962 -0.1498
 7961TIP3    H145374   4.271   6.253   0.219  0.3183 -0.5574 -1.3800
 7961TIP3    H245375   4.313   6.141   0.312 -0.0661  0.0796 -0.4190
 7962TIP3   OH245376   4.914   6.340  12.194 -0.0322  0.2022  0.1140
 7962TIP3    H145377   4.987   6.400  12.211  1.2860 -1.2602 -0.2335
 7962TIP3    H245378   4.898   6.349  12.100  1.2731 -1.1568 -0.2702
 7963TIP3   OH245379   1.800   1.061   2.826  0.4527 -0.4582  0.0450
 7963TIP3    H145380   1.757   1.111   2.896 -0.0599 -0.4365 -0.2826
 7963TIP3    H245381   1.751   1.084   2.747  1.1249 -0.3646 -0.3497
 7964TIP3   OH245382   0.861   5.799  16.967 -0.1237  0.0468  0.5740
 7964TIP3    H145383   0.872   5.741  16.891  0.3260 -0.4983  1.0462
 7964TIP3    H245384   0.767   5.799  16.983 -0.2374  0.2624 -0.0581
 7965TIP3   OH245385   4.723   3.782  15.741 -0.9042 -0.4627 -0.5428
 7965TIP3    H145386   4.638   3.753  15.773 -0.6300 -2.0390 -1.1534
 7965TIP3    H245387   4.739   3.729  15.663 -0.1146  1.0244 -1.4376
 7966TIP3   OH245388   0.560   1.148   0.330 -0.0239  0.6370 -0.3923
 7966TIP3    H145389   0.593   1.127   0.243 -2.0967  1.7617 -1.5106
 7966TIP3    H245390   0.583   1.240   0.343 -1.7892  1.1803 -0.8206
 7967TIP3   OH245391   2.882   4.892   0.238 -0.2379  0.3801 -0.0899
 7967TIP3    H145392   2.894   4.936   0.154 -1.7521  1.8093  0.3918
 7967TIP3    H245393   2.969   4.857   0.259  0.2953  0.4880 -1.9583
 7968TIP3   OH245394   4.627   1.780   5.491  0.2215 -0.3463 -0.1753
 7968TIP3    H145395   4.627   1.766   5.586 -0.6940  0.3803 -0.0573
 7968TIP3    H245396   4.571   1.711   5.456  1.9667 -1.7430 -0.4075
 7969TIP3   OH245397   1.705   2.763   3.269  0.2652  0.3395 -0.1385
 7969TIP3    H145398   1.783   2.713   3.294  0.6445  1.2138  0.4593
 7969TIP3    H245399   1.739   2.848   3.241 -0.4024  0.3916 -0.8389
 7970TIP3   OH245400   0.996   3.383   1.234  0.2038  0.3400  0.5145
 7970TIP3    H145401   1.009   3.428   1.317  1.1709  0.3810  0.3475
 7970TIP3    H245402   1.073   3.327   1.224  0.1138  0.3585 -0.3677
 7971TIP3   OH245403   5.597   1.876   2.544 -0.3509  0.0265  0.8842
 7971TIP3    H145404   5.636   1.791   2.562  0.9193  0.2799 -0.4761
 7971TIP3    H245405   5.667   1.926   2.501 -1.3776  1.4120  0.7465
 7972TIP3   OH245406   3.677   4.985  11.404  0.5463  0.1398  0.3667
 7972TIP3    H145407   3.753   5.025  11.362  0.8634 -0.5670  0.2541
 7972TIP3    H245408   3.676   4.895  11.372  0.7669 -0.4128  1.8296
 7973TIP3   OH245409   4.588   2.925  15.309  0.4169 -0.2749  0.3978
 7973TIP3    H145410   4.536   2.970  15.241 -0.8444 -1.6736  0.3888
 7973TIP3    H245411   4.679   2.947  15.287  0.0540 -0.6500 -1.7529
 7974TIP3   OH245412   1.200   1.300  16.989 -0.3646 -0.1208  0.5856
 7974TIP3    H145413   1.278   1.333  17.033  0.3197  0.3219 -0.8667
 7974TIP3    H245414   1.215   1.321  16.896 -1.7357 -0.9779  0.1421
 7975TIP3   OH245415   5.931   0.593   5.939 -0.8591  0.0854  0.5779
 7975TIP3    H145416   5.887   0.616   6.021  0.1578 -0.2747  1.2455
 7975TIP3    H245417   5.918   0.498   5.930 -0.2718 -0.0118  0.7489
 7976TIP3   OH245418   4.773   1.144   4.499 -0.2126  0.4099  0.5271
 7976TIP3    H145419   4.727   1.107   4.424  0.8858  2.3729 -1.1821
 7976TIP3    H245420   4.725   1.223   4.521 -1.3507 -0.8015  2.8891
 7977TIP3   OH245421   0.314   4.474  15.964 -0.0279 -0.0586 -0.0301
 7977TIP3    H145422   0.234   4.440  16.005  0.3078  0.0482  0.7322
 7977TIP3    H245423   0.284   4.511  15.881 -0.6784 -0.5541 -0.0306
 7978TIP3   OH245424   2.603   3.143  13.606 -0.0840 -1.2073 -0.5499
 7978TIP3    H145425   2.559   3.110  13.685  1.3044 -0.2383  0.6923
 7978TIP3    H245426   2.634   3.230  13.631 -0.2616 -0.5539 -2.4483
 7979TIP3   OH245427   2.861   3.923  15.137 -0.2900 -0.3409  0.2632
 7979TIP3    H145428   2.870   3.918  15.232  1.3184  0.1800  0.1645
 7979TIP3    H245429   2.800   3.996  15.123  0.5639  0.5189  0.8773
 7980TIP3   OH245430   4.734   3.413  14.896 -0.3501  0.0611  0.2619
 7980TIP3    H145431   4.778   3.493  14.923 -2.5240  0.6147  2.5769
 7980TIP3    H245432   4.793   3.342  14.925 -0.4142  0.7819  2.3467
 7981TIP3   OH245433   1.713   5.258  11.201  0.1996  0.3884 -0.4451
 7981TIP3    H145434   1.668   5.175  11.188  1.2299 -0.2904  0.1191
 7981TIP3    H245435   1.712   5.301  11.115 -1.2201  0.2630 -0.5035
 7982TIP3   OH245436   2.030   2.816  13.057  0.5479 -0.3033 -0.0114
 7982TIP3    H145437   2.084   2.748  13.017  1.3222  0.0165  0.4614
 7982TIP3    H245438   2.066   2.898  13.023  0.2511 -0.0956  0.1769
 7983TIP3   OH245439   4.310   3.168   4.037  0.2165 -0.2158  0.2627
 7983TIP3    H145440   4.387   3.135   3.991  1.4064  2.2763  0.2734
 7983TIP3    H245441   4.294   3.106   4.108  0.1959 -2.5123 -1.6325
 7984TIP3   OH245442   1.765   6.283   2.685 -0.1883 -0.9821  0.1879
 7984TIP3    H145443   1.810   6.298   2.602 -3.4462 -0.5391 -1.6765
 7984TIP3    H245444   1.706   6.210   2.668 -3.6388  1.4028  0.7437
 7985TIP3   OH245445   0.072   3.596   0.681  0.7459  0.1856 -0.0011
 7985TIP3    H145446   0.142   3.535   0.703  1.1645  0.1624 -1.3403
 7985TIP3    H245447   0.002   3.575   0.742  0.7289 -1.8984 -0.6817
 7986TIP3   OH245448   5.895   0.074  12.636  0.0040 -0.0972  0.2276
 7986TIP3    H145449   5.963   0.104  12.577  0.0929  0.1280  0.4421
 7986TIP3    H245450   5.915   0.117  12.719  0.7404 -1.5568  0.8389
 7987TIP3   OH245451   3.733   3.035  15.613 -0.0146  0.1526  0.5666
 7987TIP3    H145452   3.716   2.945  15.586 -2.0618  0.9808 -1.1740
 7987TIP3    H245453   3.819   3.055  15.576  0.7556 -1.2256  1.5081
 7988TIP3   OH245454   1.327   3.732  15.024  0.0909  0.2680 -0.3166
 7988TIP3    H145455   1.288   3.745  14.938  1.2882 -1.0021 -1.0799
 7988TIP3    H245456   1.258   3.759  15.086 -1.1708  0.1817 -1.6352
 7989TIP3   OH245457   4.297   3.625   3.417 -0.1310  0.1805 -0.0726
 7989TIP3    H145458   4.307   3.566   3.342  0.0636 -2.1159  1.6353
 7989TIP3    H245459   4.370   3.686   3.409  1.6284 -1.8187 -0.2727
 7990TIP3   OH245460   6.474   1.522  13.388 -0.4476 -0.0580  0.3786
 7990TIP3    H145461   6.487   1.559  13.301  1.4067  0.9443  1.0314
 7990TIP3    H245462   6.511   1.434  13.382 -0.3159  0.0111  0.1466
 7991TIP3   OH245463   3.961   5.329   6.078 -0.0273  0.2296  0.0128
 7991TIP3    H145464   3.883   5.354   6.028  0.4625 -0.7615 -1.3143
 7991TIP3    H245465   3.963   5.233   6.073  0.6240  0.1827  1.0443
 7992TIP3   OH245466   0.436   2.047  16.460  0.3398  0.2098  1.1855
 7992TIP3    H145467   0.349   2.024  16.491 -0.2888  1.1160  0.1525
 7992TIP3    H245468   0.432   2.141  16.442  1.1877  0.0509  0.0398
 7993TIP3   OH245469   4.896   5.059  14.211  0.0480 -0.2733  0.4297
 7993TIP3    H145470   4.957   5.125  14.177 -1.1686  0.9723  0.5868
 7993TIP3    H245471   4.918   5.053  14.304  2.0901 -2.2707 -0.1034
 7994TIP3   OH245472   4.924   1.683  12.111  0.0901 -0.1158  0.1178
 7994TIP3    H145473   4.833   1.666  12.088 -0.3726  0.7971  1.2081
 7994TIP3    H245474   4.973   1.615  12.065 -1.1751 -0.8886 -0.1366
 7995TIP3   OH245475   0.305   5.456   5.345  0.5153  0.9975 -0.2531
 7995TIP3    H145476   0.330   5.484   5.257  0.8996  0.7148 -0.2397
 7995TIP3    H245477   0.350   5.516   5.403  1.4085  0.3225 -0.2219
 7996TIP3   OH245478   2.805   4.717  13.959 -0.6466 -0.0681  0.7564
 7996TIP3    H145479   2.754   4.646  13.920 -0.8878  0.0707  0.8172
 7996TIP3    H245480   2.815   4.692  14.051 -0.6430 -0.0753  0.7535
 7997TIP3   OH245481   0.853   5.701   2.856  0.0817  0.3695 -0.6423
 7997TIP3    H145482   0.887   5.690   2.767  0.3889  0.6899 -0.5719
 7997TIP3    H245483   0.897   5.781   2.887 -0.8882  0.9080 -0.6144
 7998TIP3   OH245484   5.358   3.622   3.815  0.0160  0.0459 -0.2455
 7998TIP3    H145485   5.283   3.663   3.772 -0.1471 -0.1473 -0.1461
 7998TIP3    H245486   5.406   3.579   3.745  0.2462  0.4952 -0.3674
 7999TIP3   OH245487   5.387   4.340  13.563  0.2486  0.5924  0.0876
 7999TIP3    H145488   5.439   4.322  13.484 -0.4827  0.8797 -0.4759
 7999TIP3    H245489   5.436   4.300  13.634  0.6430 -0.1591 -0.5936
 8000TIP3   OH245490   6.293   1.881  12.033 -0.1726 -0.0415 -0.0769
 8000TIP3    H145491   6.300   1.789  12.008  0.4203  0.2228 -0.9379
 8000TIP3    H245492   6.245   1.880  12.116  0.4780 -1.1731  0.3003
 8001TIP3   OH245493   3.623   1.505  10.207 -0.4825  0.0606 -0.3841
 8001TIP3    H145494   3.642   1.467  10.293  2.2083 -0.4071 -1.1081
 8001TIP3    H245495   3.637   1.599  10.219  1.6055 -0.1825 -0.6749
 8002TIP3   OH245496   5.541   5.046   3.386  0.6427 -0.1757 -0.4995
 8002TIP3    H145497   5.549   4.993   3.307 -0.2979 -0.3595 -0.4780
 8002TIP3    H245498   5.480   5.115   3.363 -0.6921 -0.9924  0.4470
 8003TIP3   OH245499   0.722   1.542  11.203  0.2185  0.3025 -0.0112
 8003TIP3    H145500   0.750   1.470  11.146  1.1852 -0.1806  1.0387
 8003TIP3    H245501   0.628   1.526  11.215  0.1054  0.1102 -1.0193
 8004TIP3   OH245502   3.465   3.482   6.488  0.6924  0.2541 -0.0175
 8004TIP3    H145503   3.401   3.552   6.471 -0.6293 -0.9530 -0.2254
 8004TIP3    H245504   3.544   3.528   6.516 -0.6010  1.7683  1.3459
 8005TIP3   OH245505   5.620   6.075  16.021  0.1211  0.4798  0.4449
 8005TIP3    H145506   5.616   6.099  16.113  2.0006 -0.2808  0.7717
 8005TIP3    H245507   5.544   6.118  15.982 -0.4981  1.1381  2.2579
 8006TIP3   OH245508   6.239   5.338  16.609 -0.5803 -0.5818 -0.1464
 8006TIP3    H145509   6.217   5.393  16.534  0.3270 -1.2736 -0.9519
 8006TIP3    H245510   6.182   5.369  16.679 -1.9107 -0.3299 -1.2885
 8007TIP3   OH245511   3.621   6.619   2.809  0.2127  0.5163  0.7282
 8007TIP3    H145512   3.552   6.633   2.744  0.6121  0.6513  0.3378
 8007TIP3    H245513   3.697   6.592   2.759  0.9860  2.1121  0.9760
 8008TIP3   OH245514   5.407   6.419   0.131 -0.3076 -0.2266  0.2832
 8008TIP3    H145515   5.386   6.338   0.177  0.2793 -0.0037  0.9750
 8008TIP3    H245516   5.344   6.424   0.059 -1.0631 -0.7294  0.8984
 8009TIP3   OH245517   6.001   4.123   2.082  0.1760  0.0645 -0.0736
 8009TIP3    H145518   6.001   4.088   2.171  1.3124  0.3905  0.0641
 8009TIP3    H245519   6.016   4.046   2.026  0.1941 -0.0325  0.0642
 8010TIP3   OH245520   6.475   1.434   3.918 -0.0768 -0.1683 -0.1265
 8010TIP3    H145521   6.405   1.426   3.854 -2.0803  3.1478  1.3804
 8010TIP3    H245522   6.507   1.524   3.907  0.4635  0.0445  2.5413
 8011TIP3   OH245523   2.085   3.133  15.284 -0.2031 -0.3638  0.2764
 8011TIP3    H145524   1.990   3.134  15.297  0.0850  0.1821  2.6519
 8011TIP3    H245525   2.106   3.041  15.269 -0.8519 -0.8436  2.1186
 8012TIP3   OH245526   1.314   4.693   4.148 -0.2725  0.3845  0.4117
 8012TIP3    H145527   1.221   4.715   4.155 -0.1179  0.9297  0.8393
 8012TIP3    H245528   1.317   4.616   4.091 -1.0201  0.1156  0.7247
 8013TIP3   OH245529   2.245   4.261  15.523 -0.2270  0.8002 -0.0806
 8013TIP3    H145530   2.332   4.300  15.513  0.3211 -0.6715 -1.5081
 8013TIP3    H245531   2.262   4.169  15.544 -1.4767  0.9774  1.9854
 8014TIP3   OH245532   2.974   4.704   5.715  0.0358  0.2463  0.4139
 8014TIP3    H145533   2.940   4.763   5.648 -0.3573 -0.3329  0.0961
 8014TIP3    H245534   3.063   4.734   5.731  0.3477  0.0257 -0.8077
 8015TIP3   OH245535   6.789   5.358   2.456 -0.0272  0.0053 -0.0251
 8015TIP3    H145536   6.730   5.283   2.447  0.0902 -0.0177 -0.6014
 8015TIP3    H245537   6.743   5.417   2.517 -1.5982  0.8961 -1.9746
 8016TIP3   OH245538   6.481   0.954   4.207 -0.2225  0.3707  0.5543
 8016TIP3    H145539   6.386   0.940   4.213 -0.4311  2.1714  3.4894
 8016TIP3    H245540   6.491   1.034   4.155 -0.2419 -0.0987 -0.1897
 8017TIP3   OH245541   6.386   2.349   3.137 -0.3178 -0.1607 -0.6205
 8017TIP3    H145542   6.466   2.369   3.186 -2.0112  0.9811  1.9263
 8017TIP3    H245543   6.403   2.265   3.096  1.9930 -0.1962  0.2630
 8018TIP3   OH245544   0.169   5.392   2.292  0.3701  0.1622  0.8671
 8018TIP3    H145545   0.140   5.364   2.205  2.1601 -2.2738  0.9734
 8018TIP3    H245546   0.088   5.398   2.343 -0.6051  0.6187 -0.6705
 8019TIP3   OH245547   6.551   2.445   2.540 -0.7541 -0.1203  0.1148
 8019TIP3    H145548   6.475   2.446   2.598 -0.1969  0.4975  0.8565
 8019TIP3    H245549   6.515   2.421   2.454 -1.5374 -1.4482  0.7656
 8020TIP3   OH245550   0.662   0.862  10.336 -0.0376  0.2884 -0.3511
 8020TIP3    H145551   0.606   0.906  10.399  1.6370 -1.7410  2.8224
 8020TIP3    H245552   0.614   0.783  10.311  0.6552 -0.6712  1.1871
 8021TIP3   OH245553   0.122   3.772  11.531  0.2674 -0.1346 -0.5888
 8021TIP3    H145554   0.164   3.776  11.616 -0.6979 -0.0125 -0.1058
 8021TIP3    H245555   0.048   3.834  11.537  0.5779  0.3754 -1.7300
 8022TIP3   OH245556   0.096   2.287  14.998  0.5287  0.0512 -0.4375
 8022TIP3    H145557   0.099   2.351  14.927  0.6722  2.1864  1.3664
 8022TIP3    H245558   0.080   2.340  15.077  1.0200 -2.1235  1.2145
 8023TIP3   OH245559   3.679   2.987   1.567  0.1378 -0.2627  0.5062
 8023TIP3    H145560   3.710   2.920   1.506  0.8240  1.9106 -1.7237
 8023TIP3    H245561   3.616   2.942   1.623  2.0002 -3.1788  0.4388
 8024TIP3   OH245562   5.768   5.346   0.375 -0.2812  0.2725 -0.0938
 8024TIP3    H145563   5.760   5.255   0.347 -1.0687  1.1310 -2.9607
 8024TIP3    H245564   5.863   5.359   0.386  0.0369 -0.3261 -1.8641
 8025TIP3   OH245565   3.353   1.876   1.756 -0.3414  0.0622  0.2551
 8025TIP3    H145566   3.270   1.921   1.742  0.6025  1.6939 -0.4243
 8025TIP3    H245567   3.410   1.942   1.796  1.0420 -0.5843 -0.5550
 8026TIP3   OH245568   2.472   0.428   1.590 -0.6223 -0.0338  0.1029
 8026TIP3    H145569   2.396   0.475   1.624  0.1238  0.5961  0.9619
 8026TIP3    H245570   2.516   0.492   1.534  1.3142  0.9650  2.5836
 8027TIP3   OH245571   6.196   4.985   5.143  0.4213 -0.1657 -0.3006
 8027TIP3    H145572   6.249   4.989   5.064 -1.7551  0.7906 -1.8262
 8027TIP3    H245573   6.129   4.919   5.123 -0.7987  0.8483  0.2947
 8028TIP3   OH245574   2.059   4.213   4.930 -0.0524 -0.5194 -0.6358
 8028TIP3    H145575   2.063   4.307   4.911  0.1639 -0.5830 -0.9058
 8028TIP3    H245576   2.144   4.193   4.970 -0.5067 -0.3821  0.4305
 8029TIP3   OH245577   2.292   6.719   4.771  0.1160  0.1345  0.0624
 8029TIP3    H145578   2.358   6.744   4.706 -0.3572  3.8281  0.7493
 8029TIP3    H245579   2.218   6.688   4.720  1.1483 -0.8922 -0.8788
 8030TIP3   OH245580   6.469   3.036  12.747 -0.0387 -0.4511  0.2475
 8030TIP3    H145581   6.562   3.016  12.747 -0.2988 -1.7242 -0.2738
 8030TIP3    H245582   6.433   2.987  12.674 -0.9938  0.6942 -0.0969
 8031TIP3   OH245583   1.361   4.407  16.347  0.2577 -0.6392  0.3093
 8031TIP3    H145584   1.294   4.396  16.279  0.6271  1.2951 -0.4096
 8031TIP3    H245585   1.431   4.346  16.322  1.0959  1.1490 -2.0108
 8032TIP3   OH245586   4.368   1.825   3.418  0.2388 -0.1828  0.7070
 8032TIP3    H145587   4.380   1.750   3.360 -0.1066 -0.3629  0.8628
 8032TIP3    H245588   4.450   1.830   3.468  0.2201 -0.5269  0.7755
 8033TIP3   OH245589   4.965   5.251  16.503 -0.0541 -0.2384 -0.2346
 8033TIP3    H145590   4.998   5.303  16.576 -2.8981  2.1693 -0.4861
 8033TIP3    H245591   4.909   5.185  16.544  0.5815 -0.7139 -0.1181
 8034TIP3   OH245592   5.042   2.996  13.704  0.1741  0.0346 -0.1491
 8034TIP3    H145593   5.104   3.065  13.679 -0.8868  0.3350 -2.1059
 8034TIP3    H245594   5.078   2.916  13.665  0.0515 -0.0344 -0.1222
 8035TIP3   OH245595   6.455   3.757  12.389  0.3452 -0.2225 -0.0436
 8035TIP3    H145596   6.369   3.789  12.416 -0.4053  0.6891 -3.0790
 8035TIP3    H245597   6.492   3.828  12.337  0.7560 -2.3287 -2.8878
 8036TIP3   OH245598   3.440   3.566   1.415  0.1183  0.7037 -0.1831
 8036TIP3    H145599   3.389   3.646   1.419  0.7088  1.0806  0.0128
 8036TIP3    H245600   3.475   3.555   1.503  0.6247  0.6268 -0.3882
 8037TIP3   OH245601   3.119   2.551   2.152  0.0735 -0.1846  0.5319
 8037TIP3    H145602   3.187   2.485   2.166  0.4108  0.3162  1.3834
 8037TIP3    H245603   3.059   2.511   2.090  1.5261 -0.3754 -0.8227
 8038TIP3   OH245604   5.970   1.915  16.686 -0.4591 -0.0771 -0.0385
 8038TIP3    H145605   5.974   1.819  16.692 -1.1439 -0.0928  0.3370
 8038TIP3    H245606   5.940   1.932  16.597 -1.5302 -0.2662  0.2682
 8039TIP3   OH245607   1.197   6.319  15.391 -0.3153  0.0486 -0.1114
 8039TIP3    H145608   1.259   6.246  15.400  1.6230  1.6319  0.2479
 8039TIP3    H245609   1.163   6.333  15.479 -0.6977 -0.4212 -0.1835
 8040TIP3   OH245610   1.397   2.023  11.426 -0.1947 -0.2713  0.1031
 8040TIP3    H145611   1.312   1.979  11.419  0.0982 -1.1217  1.5440
 8040TIP3    H245612   1.461   1.954  11.416  0.2880 -0.0602  1.5419
 8041TIP3   OH245613   3.163   0.366  14.163 -0.4419  0.0874  0.0197
 8041TIP3    H145614   3.179   0.273  14.179 -2.3928 -0.3786 -0.3676
 8041TIP3    H245615   3.136   0.400  14.248 -3.0526 -0.5555 -0.4511
 8042TIP3   OH245616   2.919   2.946  14.563  0.1194  0.1679  0.3898
 8042TIP3    H145617   2.916   2.992  14.647  0.5780  2.0540 -0.5692
 8042TIP3    H245618   2.849   2.882  14.569  0.2402  0.1524  2.2663
 8043TIP3   OH245619   6.775   6.370   4.961 -0.3831 -0.0296  0.4615
 8043TIP3    H145620   6.810   6.336   5.043  0.1657  0.6094  0.4953
 8043TIP3    H245621   6.841   6.431   4.930 -0.7396 -0.0208 -0.2928
 8044TIP3   OH245622   0.418   5.829   2.796 -0.0880 -0.2347  0.0232
 8044TIP3    H145623   0.359   5.892   2.838 -2.8473 -2.8020  0.3335
 8044TIP3    H245624   0.483   5.808   2.863 -0.7654  0.2724  0.8560
 8045TIP3   OH245625   0.615   3.282   3.453 -0.1055 -0.3057 -0.1852
 8045TIP3    H145626   0.529   3.262   3.417 -1.1577  1.5913  1.1050
 8045TIP3    H245627   0.663   3.322   3.380 -0.6130 -0.5976 -0.6831
 8046TIP3   OH245628   4.366   5.881  15.520  0.1591 -0.1369  0.0005
 8046TIP3    H145629   4.289   5.877  15.463 -1.3793  1.7848  1.7957
 8046TIP3    H245630   4.407   5.795  15.511 -0.2439 -0.1006 -3.5747
 8047TIP3   OH245631   0.078   1.632  12.025 -0.0204 -0.0624  0.0453
 8047TIP3    H145632  -0.006   1.614  11.981 -0.0987  1.4120 -0.4467
 8047TIP3    H245633   0.141   1.639  11.953 -0.0012  1.5708  0.1873
 8048TIP3   OH245634   0.940   3.961  13.307  0.2925  0.0417  0.2658
 8048TIP3    H145635   0.849   3.984  13.289  0.3283  0.1811  0.2658
 8048TIP3    H245636   0.989   3.997  13.233  0.7774  2.8300  1.7883
 8049TIP3   OH245637   3.992   4.898  17.187 -0.1645 -0.0737 -0.1013
 8049TIP3    H145638   3.984   4.932  17.276 -0.5023 -0.2846 -0.0508
 8049TIP3    H245639   4.064   4.835  17.192  1.0740  1.2645 -0.3964
 8050TIP3   OH245640   4.710   0.056   3.649  0.0130 -0.4528  0.2775
 8050TIP3    H145641   4.619   0.062   3.621  0.0986 -0.6413 -0.0457
 8050TIP3    H245642   4.706   0.050   3.744 -0.3150 -0.5397  0.2588
 8051TIP3   OH245643   1.435   5.080   3.828 -0.1201 -0.3090 -0.5581
 8051TIP3    H145644   1.438   5.043   3.740  1.0795 -1.0283 -0.2394
 8051TIP3    H245645   1.346   5.115   3.836 -0.0425  0.4080 -2.2880
 8052TIP3   OH245646   5.178   4.395  15.823  0.3011 -0.0353  0.2702
 8052TIP3    H145647   5.108   4.330  15.813 -0.9538  1.4789 -1.6305
 8052TIP3    H245648   5.160   4.437  15.907 -0.9577  0.1701 -0.0814
 8053TIP3   OH245649   3.479   4.142  11.924  0.2943 -0.6990 -0.4693
 8053TIP3    H145650   3.460   4.165  11.833  0.9722 -1.8616 -0.9241
 8053TIP3    H245651   3.573   4.155  11.934  0.3580 -1.3327 -0.1721
 8054TIP3   OH245652   3.029   3.624   3.528  0.4767  0.4510  0.4306
 8054TIP3    H145653   2.959   3.649   3.468 -1.5280  2.3217  3.2707
 8054TIP3    H245654   2.983   3.579   3.599  2.2778  0.9516  1.9789
 8055TIP3   OH245655   3.935   3.159  11.617 -0.4196 -0.1242 -0.3157
 8055TIP3    H145656   3.966   3.130  11.531 -0.4411  1.7186 -0.9738
 8055TIP3    H245657   4.014   3.190  11.661 -0.3233 -1.5144  0.5627
 8056TIP3   OH245658   1.251   6.710   0.175  0.3830  0.0560 -0.2477
 8056TIP3    H145659   1.251   6.805   0.160 -0.5920  0.3838  1.5304
 8056TIP3    H245660   1.245   6.701   0.270 -3.3037 -1.7423 -0.4844
 8057TIP3   OH245661   6.022   3.977  15.026 -0.0342  0.3128 -0.5454
 8057TIP3    H145662   6.112   3.947  15.040 -0.1979  0.0308 -0.0887
 8057TIP3    H245663   5.980   3.907  14.977 -0.3456 -0.1097  0.3040
 8058TIP3   OH245664   1.165   1.610  14.234 -0.0172  0.1972 -0.1365
 8058TIP3    H145665   1.125   1.694  14.211  1.0520  0.6137 -0.5441
 8058TIP3    H245666   1.091   1.555  14.261 -0.4868  2.1320  2.9541
 8059TIP3   OH245667   6.721   4.784  14.186 -0.2627 -0.2115  0.6850
 8059TIP3    H145668   6.802   4.741  14.157  0.4164  1.0411  0.6816
 8059TIP3    H245669   6.686   4.824  14.106 -1.0148 -0.9055  0.6460
 8060TIP3   OH245670   4.677   1.182   5.879 -0.1097  0.5076  0.5460
 8060TIP3    H145671   4.631   1.266   5.874 -0.0629  0.6767  2.2602
 8060TIP3    H245672   4.677   1.161   5.973 -0.6111 -1.6896  0.1049
 8061TIP3   OH245673   3.721   0.375   1.702 -0.4657 -0.0329 -0.3496
 8061TIP3    H145674   3.725   0.335   1.789 -0.2541  1.1621  0.2174
 8061TIP3    H245675   3.798   0.431   1.698  1.0307 -2.1097 -2.3991
 8062TIP3   OH245676   2.406   1.312   1.179 -0.0043 -0.8084  0.1689
 8062TIP3    H145677   2.376   1.227   1.147  1.5497 -1.4727  0.4411
 8062TIP3    H245678   2.331   1.370   1.163  0.0550 -1.4640 -3.0871
 8063TIP3   OH245679   0.774   3.200   4.026 -0.0241 -0.4087  0.9191
 8063TIP3    H145680   0.760   3.128   3.964  2.2656  0.4722 -0.7757
 8063TIP3    H245681   0.703   3.262   4.007  2.1971  1.2676 -3.2224
 8064TIP3   OH245682   6.566   6.382  16.813 -0.6523 -0.5399 -0.1008
 8064TIP3    H145683   6.549   6.414  16.724  0.1164 -2.7727 -1.1139
 8064TIP3    H245684   6.554   6.459  16.868 -2.7711  0.5711 -1.9186
 8065TIP3   OH245685   0.532   0.237   2.662 -0.3825 -0.0555 -0.2377
 8065TIP3    H145686   0.471   0.309   2.679 -0.2432  0.4480 -1.7256
 8065TIP3    H245687   0.618   0.279   2.661 -0.0248 -0.6788  1.3524
 8066TIP3   OH245688   2.047   6.593  14.886 -0.3841 -0.5882 -0.0871
 8066TIP3    H145689   2.073   6.638  14.805  2.9732 -0.4561  0.9433
 8066TIP3    H245690   2.095   6.511  14.885 -1.4361 -1.2551  1.1147
 8067TIP3   OH245691   1.269   1.087  11.689  0.3925 -0.0514 -0.0603
 8067TIP3    H145692   1.327   1.163  11.677 -1.7201  1.5224 -1.0159
 8067TIP3    H245693   1.302   1.022  11.628  0.8742  0.9944 -0.9540
 8068TIP3   OH245694   6.050   3.545  16.814 -0.2142 -0.0398 -0.2238
 8068TIP3    H145695   6.104   3.620  16.791 -1.3152  0.0082 -3.0229
 8068TIP3    H245696   5.965   3.582  16.834 -0.6175 -0.4600 -1.0916
 8069TIP3   OH245697   0.889   3.844   0.880 -0.3669  0.0444 -0.0867
 8069TIP3    H145698   0.831   3.831   0.955  0.5171 -1.5323  0.3645
 8069TIP3    H245699   0.851   3.918   0.833 -1.9970 -0.1248  0.8938
 8070TIP3   OH245700   2.800   4.442  16.781  0.0179 -0.6747 -0.1760
 8070TIP3    H145701   2.891   4.450  16.811 -0.2280  0.1373  0.4107
 8070TIP3    H245702   2.763   4.373  16.835 -1.0715  2.2466  3.2773
 8071TIP3   OH245703   1.484   3.311  13.029 -0.0390 -0.2571  0.2535
 8071TIP3    H145704   1.443   3.325  13.114 -1.7250 -0.6822 -0.4669
 8071TIP3    H245705   1.444   3.376  12.972 -0.0740 -1.0035 -0.5903
 8072TIP3   OH245706   1.680   6.817  12.992 -0.0530 -0.2888  0.0043
 8072TIP3    H145707   1.733   6.738  12.997 -0.4058 -0.6082 -0.9713
 8072TIP3    H245708   1.597   6.793  13.033 -1.0938 -1.2777 -2.4653
 8073TIP3   OH245709   0.837   2.121  15.418  0.2844  0.1610  0.0074
 8073TIP3    H145710   0.882   2.162  15.344  1.1462 -0.4575  0.1708
 8073TIP3    H245711   0.745   2.143  15.405  0.6295  1.5528 -0.2862
 8074TIP3   OH245712   3.814   1.153  16.191 -0.6915 -0.5513  0.4771
 8074TIP3    H145713   3.786   1.244  16.204 -1.2307 -0.9289  2.2184
 8074TIP3    H245714   3.892   1.159  16.137 -1.3385  0.8738 -0.3565
 8075TIP3   OH245715   4.777   0.777  12.078 -0.0952  0.2908 -0.0733
 8075TIP3    H145716   4.774   0.872  12.072 -0.0895  0.2049 -2.3368
 8075TIP3    H245717   4.700   0.754  12.131 -1.4286  1.4562 -1.4278
 8076TIP3   OH245718   1.664   5.004  16.451  0.2437 -0.7393 -0.3979
 8076TIP3    H145719   1.674   5.042  16.538  1.7326 -1.7218 -0.0960
 8076TIP3    H245720   1.575   5.026  16.425  0.3815  1.1405  0.5916
 8077TIP3   OH245721   2.847   3.312  13.708 -0.1657  0.1001 -0.3969
 8077TIP3    H145722   2.896   3.390  13.684 -0.1393  0.4265  0.6572
 8077TIP3    H245723   2.820   3.328  13.799  0.5982 -1.4901  0.1422
 8078TIP3   OH245724   4.891   1.466   2.031 -0.5739  0.0122  0.2598
 8078TIP3    H145725   4.815   1.480   2.086 -0.4239  2.1692 -0.0005
 8078TIP3    H245726   4.966   1.476   2.090 -0.4540 -0.8059  0.2592
 8079TIP3   OH245727   4.926   6.245   3.807  0.0988  0.2261  0.5574
 8079TIP3    H145728   4.973   6.327   3.790 -1.3159  0.9661  0.0307
 8079TIP3    H245729   4.994   6.178   3.809  1.0283  0.9604 -2.0296
 8080TIP3   OH245730   6.757   5.455  10.743  0.4185  0.2767  0.5909
 8080TIP3    H145731   6.693   5.387  10.766  0.5751 -0.1062 -0.0708
 8080TIP3    H245732   6.715   5.537  10.769 -0.8330  0.1362 -0.8436
 8081TIP3   OH245733   3.786   1.679   3.997  0.2409  0.1602  0.4630
 8081TIP3    H145734   3.764   1.766   4.029  2.4887  1.3245 -0.9026
 8081TIP3    H245735   3.705   1.645   3.960 -1.1061  0.8955  2.5723
 8082TIP3   OH245736   5.566   4.621   5.898 -0.5575 -0.3803  0.3710
 8082TIP3    H145737   5.655   4.612   5.931  0.6158 -0.1966 -2.5160
 8082TIP3    H245738   5.527   4.535   5.911  0.6202 -0.9669  0.1293
 8083TIP3   OH245739   5.703   3.466   2.181 -0.4545 -0.0169 -1.1189
 8083TIP3    H145740   5.641   3.393   2.178 -0.8893  0.3690 -1.7085
 8083TIP3    H245741   5.729   3.480   2.090 -0.3637  0.5549 -1.0101
 8084TIP3   OH245742   3.801   1.672   2.135 -0.2428  0.7519 -0.5796
 8084TIP3    H145743   3.770   1.582   2.142  0.5768  0.5492  0.8652
 8084TIP3    H245744   3.888   1.664   2.096 -0.0615  0.8927 -0.2049
 8085TIP3   OH245745   0.679   1.484   3.136 -0.0967 -0.1475  0.2527
 8085TIP3    H145746   0.691   1.507   3.228 -2.1622 -1.0019  0.7864
 8085TIP3    H245747   0.588   1.458   3.129 -0.2339  0.7436 -2.2590
 8086TIP3   OH245748   6.670   2.249   3.014  0.6403 -0.2137  0.1172
 8086TIP3    H145749   6.596   2.194   2.991  1.3899 -1.4399  0.5174
 8086TIP3    H245750   6.746   2.191   3.007  1.4680  0.8020  0.4482
 8087TIP3   OH245751   2.729   2.240  13.237 -0.0546 -0.3361 -0.0937
 8087TIP3    H145752   2.736   2.334  13.253  3.1022 -0.6309  1.0711
 8087TIP3    H245753   2.712   2.202  13.324 -1.2936 -0.8660 -0.5501
 8088TIP3   OH245754   3.649   3.233  12.187  0.2280 -0.0409  0.1706
 8088TIP3    H145755   3.574   3.220  12.129  0.8772  1.2457 -1.0225
 8088TIP3    H245756   3.660   3.149  12.232 -1.2317 -0.5936 -0.4457
 8089TIP3   OH245757   5.808   3.589   4.679 -0.4129  0.5353  0.0573
 8089TIP3    H145758   5.770   3.642   4.609 -2.0452  0.1071  0.5846
 8089TIP3    H245759   5.850   3.653   4.737 -1.5599  1.1630  0.2101
 8090TIP3   OH245760   5.144   5.427  10.872  0.0709 -0.3294  0.0416
 8090TIP3    H145761   5.127   5.356  10.811 -0.1401 -0.3578  0.1330
 8090TIP3    H245762   5.063   5.478  10.873 -1.5451 -2.6058  3.3827
 8091TIP3   OH245763   0.648   4.983   3.759  0.3026  0.1998 -0.2974
 8091TIP3    H145764   0.627   5.070   3.726 -1.4905  0.1119  0.4939
 8091TIP3    H245765   0.604   4.923   3.699 -0.0899 -0.0798  0.2648
 8092TIP3   OH245766   2.682   4.113   2.324  0.1013 -0.4485  0.3309
 8092TIP3    H145767   2.686   4.192   2.378  1.7235 -0.8493  0.8439
 8092TIP3    H245768   2.630   4.052   2.376 -1.5592  0.3962 -0.2703
 8093TIP3   OH245769   6.469   2.413   4.715  0.3076 -0.2310  0.6677
 8093TIP3    H145770   6.505   2.482   4.659 -1.6671  0.5739  0.2934
 8093TIP3    H245771   6.512   2.333   4.685  0.0758  0.3331 -1.3464
 8094TIP3   OH245772   2.127   1.521   3.430  0.2154 -0.5064  0.3774
 8094TIP3    H145773   2.097   1.594   3.375  1.1829  0.0561  0.5589
 8094TIP3    H245774   2.072   1.526   3.508  1.0878  0.8609  0.9589
 8095TIP3   OH245775   3.021   0.761   0.165  0.0742  0.3445  0.1614
 8095TIP3    H145776   3.064   0.759   0.251 -2.1522  0.2709  1.3544
 8095TIP3    H245777   3.015   0.669   0.140 -0.6987  0.2401  0.7059
 8096TIP3   OH245778   2.037   2.334   5.033  0.9624 -0.6120 -0.1040
 8096TIP3    H145779   2.102   2.329   5.103  0.1450  0.5915  0.7738
 8096TIP3    H245780   2.078   2.388   4.966  1.5889 -1.4342 -0.4086
 8097TIP3   OH245781   0.358   0.390   3.683 -0.2932 -0.3855 -0.1017
 8097TIP3    H145782   0.361   0.483   3.659 -1.2743 -0.3009  0.0689
 8097TIP3    H245783   0.267   0.365   3.669 -0.7043 -0.5950  2.4907
 8098TIP3   OH245784   1.853   1.104  15.845  0.6549 -0.7268  0.2116
 8098TIP3    H145785   1.825   1.171  15.782  2.0221  0.1597  0.4940
 8098TIP3    H245786   1.920   1.055  15.798  0.8743 -0.7878  0.5852
 8099TIP3   OH245787   0.515   4.951   6.034 -0.2504  0.3974  0.6816
 8099TIP3    H145788   0.555   4.905   6.108 -1.3208  0.3123  1.2396
 8099TIP3    H245789   0.521   4.888   5.962  0.4195  0.3094  0.8077
 8100TIP3   OH245790   2.491   2.991  12.438  0.3675  0.1614  0.7322
 8100TIP3    H145791   2.509   3.084  12.455 -1.3069  0.6968 -0.1366
 8100TIP3    H245792   2.415   2.992  12.380  2.3082 -1.6720 -2.0987
 8101TIP3   OH245793   3.211   5.717   3.655  0.3614  0.0242 -0.3637
 8101TIP3    H145794   3.302   5.740   3.640  0.5130 -0.7815 -0.7743
 8101TIP3    H245795   3.190   5.752   3.741  1.0839  0.1252 -0.2288
 8102TIP3   OH245796   2.381   5.803   5.108 -0.0147 -0.3619  0.1417
 8102TIP3    H145797   2.426   5.721   5.090  0.2929 -0.1243 -0.2011
 8102TIP3    H245798   2.298   5.778   5.147  0.0460 -0.8354 -0.0347
 8103TIP3   OH245799   0.146   4.314  15.061 -0.2398 -0.3200 -0.4224
 8103TIP3    H145800   0.184   4.238  15.016 -1.2958 -1.9955  1.3713
 8103TIP3    H245801   0.055   4.316  15.031 -0.1545  0.4248 -0.6517
 8104TIP3   OH245802   3.388   1.170   5.130 -0.0864  0.0851 -0.4062
 8104TIP3    H145803   3.350   1.104   5.187  0.5990 -0.2995 -0.3831
 8104TIP3    H245804   3.392   1.249   5.184 -1.2502  0.2633 -0.5514
 8105TIP3   OH245805   3.405   4.554   2.555  0.1773 -0.2706 -0.3482
 8105TIP3    H145806   3.327   4.608   2.549  0.8850  0.7213 -1.0342
 8105TIP3    H245807   3.403   4.517   2.643 -0.6372  0.3882 -0.0806
 8106TIP3   OH245808   1.091   0.261  10.378  0.2042 -0.2439 -0.1252
 8106TIP3    H145809   1.021   0.227  10.322  0.2555  0.1753 -0.4399
 8106TIP3    H245810   1.159   0.194  10.375  0.9239  0.5078 -1.8913
 8107TIP3   OH245811   3.584   3.617  11.611  0.1880  0.0426 -0.1603
 8107TIP3    H145812   3.596   3.611  11.705  0.3254 -0.4682 -0.2063
 8107TIP3    H245813   3.636   3.545  11.575 -2.0386 -1.5326 -0.4482
 8108TIP3   OH245814   5.530   4.157  14.900  0.0158  0.2400  0.1657
 8108TIP3    H145815   5.543   4.249  14.875  1.4463  0.4124  1.4256
 8108TIP3    H245816   5.607   4.135  14.952  1.2287 -2.5872 -2.4848
 8109TIP3   OH245817   6.490   5.560  13.966 -0.4599 -0.0302  0.8678
 8109TIP3    H145818   6.481   5.473  13.927 -0.2932 -0.4029  1.6411
 8109TIP3    H245819   6.400   5.593  13.972 -0.4285  0.3549 -0.5229
 8110TIP3   OH245820   0.498   2.444   0.191  0.2529  0.7661  0.5426
 8110TIP3    H145821   0.558   2.509   0.155  1.4938 -0.7482 -0.2877
 8110TIP3    H245822   0.555   2.376   0.226 -0.9413 -0.7965 -0.3765
 8111TIP3   OH245823   4.352   2.028   3.091 -0.3980  0.4597  0.0295
 8111TIP3    H145824   4.284   1.963   3.108 -1.8884  1.3632 -2.0126
 8111TIP3    H245825   4.427   1.998   3.141 -0.8849 -3.0024 -1.0617
 8112TIP3   OH245826   3.581   3.798  12.368  0.2837  0.2071 -0.4074
 8112TIP3    H145827   3.543   3.750  12.442 -0.4096 -0.3193 -1.0939
 8112TIP3    H245828   3.676   3.791  12.382  0.2300 -1.7870 -0.7320
 8113TIP3   OH245829   4.116   0.839   2.458 -0.0159 -0.2147 -0.2563
 8113TIP3    H145830   4.142   0.766   2.513 -0.6253 -0.3208 -0.0962
 8113TIP3    H245831   4.192   0.897   2.456 -0.0906 -0.0591  0.9363
 8114TIP3   OH245832   2.749   4.260  16.359  0.0483  0.5549  0.4131
 8114TIP3    H145833   2.716   4.175  16.389  1.4367 -0.7238 -1.4208
 8114TIP3    H245834   2.672   4.305  16.326 -0.6375 -0.2327  0.8827
 8115TIP3   OH245835   0.670   4.323  15.508 -0.1213 -0.4925  0.0375
 8115TIP3    H145836   0.587   4.344  15.550  0.2544  0.5013  0.3128
 8115TIP3    H245837   0.723   4.283  15.577  0.6943  1.6425  0.7210
 8116TIP3   OH245838   3.231   2.659   3.840  0.4604  0.3251  0.3095
 8116TIP3    H145839   3.225   2.709   3.759 -0.7635 -0.5673 -0.1960
 8116TIP3    H245840   3.217   2.723   3.909 -0.4400  0.7988 -0.2942
 8117TIP3   OH245841   0.115   0.975  16.943  0.1682  0.3243  0.1174
 8117TIP3    H145842   0.153   0.888  16.929  2.7153  1.3448  0.1311
 8117TIP3    H245843   0.101   1.010  16.855  0.2652  0.3458  0.1107
 8118TIP3   OH245844   1.407   0.142   4.549 -0.0430 -0.5741 -0.0357
 8118TIP3    H145845   1.480   0.164   4.493  0.5973 -0.3772  0.8488
 8118TIP3    H245846   1.435   0.168   4.637 -2.0295  1.6136  0.0526
 8119TIP3   OH245847   0.509   0.409  11.831  0.3081  0.4742 -0.0133
 8119TIP3    H145848   0.431   0.363  11.862  0.7959 -0.3864 -0.0333
 8119TIP3    H245849   0.519   0.483  11.892  0.5912 -0.5323  1.2050
 8120TIP3   OH245850   3.517   3.839   2.925 -0.3250  0.0192 -0.0349
 8120TIP3    H145851   3.433   3.795   2.942  0.1566 -1.0140 -0.2852
 8120TIP3    H245852   3.493   3.913   2.870 -1.0937 -0.1951 -0.0114
 8121TIP3   OH245853   0.094   0.088   6.334  0.1806  0.2036  0.1150
 8121TIP3    H145854   0.132   0.105   6.420  0.4260  1.7229 -0.2607
 8121TIP3    H245855   0.109   0.169   6.285 -2.2066  0.3260 -0.5371
 8122TIP3   OH245856   2.967   2.577   3.505 -0.2096  0.3119 -0.1653
 8122TIP3    H145857   3.003   2.519   3.438 -1.7700 -1.5655  0.5244
 8122TIP3    H245858   3.007   2.546   3.587  0.5681  1.6334 -0.0207
 8123TIP3   OH245859   0.690   2.194  13.373  0.2138 -0.6039  0.2955
 8123TIP3    H145860   0.684   2.157  13.462 -1.5399 -0.2073  0.3889
 8123TIP3    H245861   0.601   2.225  13.355  0.5450 -0.6744 -1.6102
 8124TIP3   OH245862   1.701   4.782   3.695  0.1837  0.2590  0.1043
 8124TIP3    H145863   1.631   4.760   3.756  0.6733 -0.2858  0.4875
 8124TIP3    H245864   1.761   4.707   3.700 -0.0908 -0.1252 -1.5306
 8125TIP3   OH245865   3.325   1.838   3.629  0.1989  0.0062  0.0501
 8125TIP3    H145866   3.334   1.901   3.557 -0.3238  0.4230  0.3376
 8125TIP3    H245867   3.319   1.893   3.707 -2.9123 -0.2094  0.1003
 8126TIP3   OH245868   1.280   3.751  11.538 -0.1552 -0.4010 -0.1964
 8126TIP3    H145869   1.205   3.736  11.480  0.9885 -0.1001 -1.8414
 8126TIP3    H245870   1.296   3.666  11.579 -0.3183 -0.9283 -1.1890
 8127TIP3   OH245871   5.514   1.192  16.358  0.2473 -0.6177  0.1216
 8127TIP3    H145872   5.607   1.203  16.341  0.2676 -0.9353  0.0178
 8127TIP3    H245873   5.491   1.266  16.415  1.2816 -2.2463  2.8933
 8128TIP3   OH245874   2.588   5.533  15.097  0.0724  0.1735 -0.1551
 8128TIP3    H145875   2.557   5.597  15.033 -1.3685 -0.2941  0.0397
 8128TIP3    H245876   2.518   5.467  15.100 -0.5179  0.7872  2.7866
 8129TIP3   OH245877   2.463   0.929   6.103  0.3027  0.3366  0.3635
 8129TIP3    H145878   2.434   1.019   6.118 -1.1812 -0.3608  2.0781
 8129TIP3    H245879   2.557   0.930   6.122  0.3893  1.5990 -0.0708
 8130TIP3   OH245880   4.433   3.723   4.389 -0.0537 -0.5816  0.3831
 8130TIP3    H145881   4.339   3.706   4.394  0.3285 -2.9325  0.5471
 8130TIP3    H245882   4.463   3.716   4.480  0.3796 -0.5058  0.2453
 8131TIP3   OH245883   3.975   0.650   2.120 -0.3850  0.3228 -0.4005
 8131TIP3    H145884   3.990   0.741   2.097  0.3971  0.4741  0.6774
 8131TIP3    H245885   4.010   0.641   2.209 -1.1152 -0.8422 -0.2099
 8132TIP3   OH245886   5.940   6.522  13.417  0.5622  0.2417 -0.0751
 8132TIP3    H145887   6.018   6.562  13.455 -0.1222  0.5219  1.0842
 8132TIP3    H245888   5.970   6.437  13.385  1.4381  0.5507 -0.1155
 8133TIP3   OH245889   0.308   6.107  16.744  0.8046  0.2212  0.0212
 8133TIP3    H145890   0.292   6.032  16.687 -1.7174 -0.2247  1.2054
 8133TIP3    H245891   0.361   6.071  16.816 -0.2845 -0.4180  0.5186
 8134TIP3   OH245892   6.184   3.586  12.959  0.1962 -0.2351  0.1935
 8134TIP3    H145893   6.249   3.543  12.903 -0.3244 -1.0104  0.1658
 8134TIP3    H245894   6.219   3.578  13.047  0.5107  0.0518  0.0988
 8135TIP3   OH245895   0.155   3.863  14.837 -0.1044 -0.5158  0.1843
 8135TIP3    H145896   0.132   3.818  14.918  1.8186 -2.8939 -0.4537
 8135TIP3    H245897   0.102   3.821  14.770  0.9142 -1.1339 -0.2655
 8136TIP3   OH245898   0.084   1.578   6.267  0.0113  0.0881 -0.6982
 8136TIP3    H145899   0.141   1.634   6.319 -0.5280  0.5520 -0.5952
 8136TIP3    H245900   0.131   1.495   6.260 -0.3916 -0.3954  1.5067
 8137TIP3   OH245901   3.780   4.321  12.351  0.2476  0.4361 -0.1019
 8137TIP3    H145902   3.825   4.390  12.302 -0.7474  1.8897  0.9487
 8137TIP3    H245903   3.702   4.364  12.386  0.2869 -0.8484  1.7041
 8138TIP3   OH245904   1.807   0.100  16.859 -0.2376 -0.3994  0.3307
 8138TIP3    H145905   1.800   0.184  16.814 -1.8527  0.3892  1.9591
 8138TIP3    H245906   1.731   0.050  16.830  0.2284 -0.9672  0.0620
 8139TIP3   OH245907   4.449   3.661  12.013 -0.0087  0.0624  0.5013
 8139TIP3    H145908   4.483   3.729  11.955  0.1830 -0.4697 -0.0105
 8139TIP3    H245909   4.426   3.708  12.093  1.7077  0.4829  0.7855
 8140TIP3   OH245910   0.157   2.764  15.040  0.0594 -0.0156 -0.4892
 8140TIP3    H145911   0.070   2.751  15.003  0.2925 -1.3062 -0.6450
 8140TIP3    H245912   0.142   2.809  15.123 -0.8630 -1.2849  0.0580
 8141TIP3   OH245913   4.263   0.696  14.512  0.0410 -0.6508 -0.1860
 8141TIP3    H145914   4.176   0.671  14.481  0.8073 -2.9067 -0.7102
 8141TIP3    H245915   4.251   0.710  14.606 -0.6819 -2.1951 -0.0142
 8142TIP3   OH245916   6.625   4.905   1.340  0.0406  0.3420  0.2114
 8142TIP3    H145917   6.676   4.982   1.365  1.5540 -0.6858  0.4413
 8142TIP3    H245918   6.577   4.881   1.419  0.6190  0.2644  0.5414
 8143TIP3   OH245919   2.123   4.549   5.043 -0.2246  0.3117 -0.3363
 8143TIP3    H145920   2.036   4.570   5.010 -1.1194 -2.8430 -0.3143
 8143TIP3    H245921   2.115   4.559   5.138 -0.8524 -0.7220 -0.2621
 8144TIP3   OH245922   3.535   5.944  14.963  0.5686  0.1205 -0.2440
 8144TIP3    H145923   3.529   6.028  15.009 -1.8004 -0.1378  0.0704
 8144TIP3    H245924   3.564   5.967  14.875  2.5504  0.9261  0.5593
 8145TIP3   OH245925   5.366   4.256  10.983  0.7520 -0.2471 -0.0256
 8145TIP3    H145926   5.405   4.342  11.001 -0.7674  0.3254  0.6265
 8145TIP3    H245927   5.355   4.254  10.888  2.0440 -0.2976 -0.1942
 8146TIP3   OH245928   1.743   0.903  12.671  1.1925 -0.1635 -0.8962
 8146TIP3    H145929   1.813   0.837  12.675 -0.5098 -1.9867  0.2696
 8146TIP3    H245930   1.706   0.904  12.759 -0.4923  0.5057 -1.5842
 8147TIP3   OH245931   0.129   3.578   3.967 -0.3727 -0.0309  0.3637
 8147TIP3    H145932   0.085   3.494   3.983 -0.5893  0.1768  0.8706
 8147TIP3    H245933   0.067   3.644   3.995 -0.0723  0.2935  0.2737
 8148TIP3   OH245934   0.717   6.095  13.241 -0.9004  0.3926 -1.1126
 8148TIP3    H145935   0.777   6.052  13.301  0.7566  2.5568 -1.0755
 8148TIP3    H245936   0.739   6.059  13.155 -1.1212 -0.4595 -0.8166
 8149TIP3   OH245937   3.557   1.583   3.912  0.2863  0.0069 -0.3673
 8149TIP3    H145938   3.544   1.565   4.005  1.1959  1.7339  0.1419
 8149TIP3    H245939   3.475   1.624   3.883 -0.5829 -1.8986 -0.7535
 8150TIP3   OH245940   6.554   6.611  11.783  0.0392 -0.5748  0.0856
 8150TIP3    H145941   6.570   6.618  11.689  2.0639  1.3048  0.4843
 8150TIP3    H245942   6.501   6.532  11.793 -2.4789  0.5546 -2.8428
 8151TIP3   OH245943   3.237   4.145  12.530  0.2122 -0.5979  0.1105
 8151TIP3    H145944   3.223   4.083  12.458  2.5586  0.7525 -1.6612
 8151TIP3    H245945   3.161   4.133  12.587 -1.3804 -2.2950 -2.1768
 8152TIP3   OH245946   1.465   1.874  10.448 -0.1056 -0.2012  0.5804
 8152TIP3    H145947   1.459   1.789  10.404  0.7611 -0.3095  0.6501
 8152TIP3    H245948   1.375   1.905  10.452 -0.6696 -1.8354  1.9929
 8153TIP3   OH245949   2.234   5.336   0.082  0.4906  0.1050 -0.1930
 8153TIP3    H145950   2.222   5.391   0.005 -3.3067  0.6241  0.5576
 8153TIP3    H245951   2.162   5.273   0.078  2.6817 -2.6696  0.7824
 8154TIP3   OH245952   0.475   4.991   1.074 -0.3485  0.1752 -0.0225
 8154TIP3    H145953   0.566   4.996   1.044 -0.8387  0.3867 -1.5711
 8154TIP3    H245954   0.448   5.082   1.086 -1.2763  0.3461 -2.6794
 8155TIP3   OH245955   5.294   6.116  16.187  0.3935 -0.0446  0.1841
 8155TIP3    H145956   5.265   6.142  16.099  1.1199  1.0175  0.2418
 8155TIP3    H245957   5.354   6.044  16.172  2.3270  1.6025 -0.4104
 8156TIP3   OH245958   0.539   4.306  13.879  0.2162 -0.0735  0.0678
 8156TIP3    H145959   0.592   4.372  13.923  0.1586 -0.3603  0.5730
 8156TIP3    H245960   0.499   4.353  13.806 -2.3208  1.3316  2.1817
 8157TIP3   OH245961   3.261   1.324   3.526  0.7763  0.4883 -0.0189
 8157TIP3    H145962   3.356   1.326   3.528  0.8145 -0.6611  1.4585
 8157TIP3    H245963   3.239   1.249   3.470  0.9577 -2.7508  3.7842
 8158TIP3   OH245964   4.362   6.582  12.215 -0.3472 -0.0476 -0.0412
 8158TIP3    H145965   4.344   6.606  12.124  0.1215  2.2256  0.3910
 8158TIP3    H245966   4.457   6.584  12.222 -0.3996  1.9178  0.9265
 8159TIP3   OH245967   5.635   4.824  15.644  0.9692 -0.0013  0.0212
 8159TIP3    H145968   5.639   4.845  15.737  1.4257 -1.0429  0.2543
 8159TIP3    H245969   5.723   4.793  15.622  1.0238  0.7643 -0.8978
 8160TIP3   OH245970   4.248   0.249  14.608  0.0745  0.1239 -0.2067
 8160TIP3    H145971   4.211   0.184  14.548 -1.1476  2.7350 -2.5060
 8160TIP3    H245972   4.310   0.298  14.554 -1.2461  2.7504  0.4955
 8161TIP3   OH245973   3.455   1.778  14.890  0.2361  0.2222 -0.0795
 8161TIP3    H145974   3.506   1.836  14.834  3.1174  0.3461  2.4351
 8161TIP3    H245975   3.380   1.831  14.917  1.2701  1.7753 -0.1309
 8162TIP3   OH245976   5.470   0.669  13.745  0.1711 -0.1437  0.3337
 8162TIP3    H145977   5.470   0.674  13.649  1.3031  2.6553  0.3858
 8162TIP3    H245978   5.552   0.626  13.767 -0.0782 -0.7713  0.0787
 8163TIP3   OH245979   4.461   3.781   4.686  0.1212  0.4319 -0.3364
 8163TIP3    H145980   4.418   3.857   4.726  0.5682 -0.2584  1.5597
 8163TIP3    H245981   4.553   3.790   4.709  0.9312  1.3223 -3.4458
 8164TIP3   OH245982   1.484   5.980  15.162 -0.1928 -0.1648  0.0226
 8164TIP3    H145983   1.442   5.912  15.109 -0.9921  0.8037 -0.6347
 8164TIP3    H245984   1.563   5.938  15.197 -0.8324 -1.5213 -0.0874
 8165TIP3   OH245985   4.907   5.309   0.249 -0.7457  0.2584 -0.0916
 8165TIP3    H145986   4.971   5.341   0.313 -0.2774 -0.5759 -0.1355
 8165TIP3    H245987   4.929   5.355   0.168 -1.8705  1.9685  0.5076
 8166TIP3   OH245988   1.270   4.023   5.573 -0.2312  0.4915  0.5835
 8166TIP3    H145989   1.288   3.969   5.650  0.1600  0.7414  0.6701
 8166TIP3    H245990   1.232   3.963   5.510  0.9219 -0.0610  0.3874
 8167TIP3   OH245991   2.338   5.141   0.837  0.0788 -0.5235 -0.3909
 8167TIP3    H145992   2.399   5.086   0.787 -0.3762 -1.4536  0.0583
 8167TIP3    H245993   2.333   5.099   0.923  0.7184  0.9577  0.4112
 8168TIP3   OH245994   0.314   5.888   5.415  0.7211 -0.0632  0.2135
 8168TIP3    H145995   0.232   5.923   5.380 -0.2928 -1.8891  0.6305
 8168TIP3    H245996   0.287   5.835   5.490  2.3658 -0.2371  0.7251
 8169TIP3   OH245997   0.536   5.472   6.661  0.1352 -0.0345 -0.1893
 8169TIP3    H145998   0.498   5.408   6.721 -0.1538 -1.9647 -2.2931
 8169TIP3    H245999   0.463   5.501   6.607 -0.0672  3.3850  1.6921
 8170TIP3   OH246000   1.424   4.766   4.643  0.3594 -0.3510 -0.0296
 8170TIP3    H146001   1.339   4.808   4.626 -0.1743 -0.2868  2.4102
 8170TIP3    H246002   1.481   4.799   4.574 -1.2338  0.7276 -0.9044
 8171TIP3   OH246003   3.971   2.829   4.349  1.1373 -0.2363  0.5297
 8171TIP3    H146004   3.944   2.752   4.400  0.0132  0.5267  1.1323
 8171TIP3    H246005   4.061   2.810   4.323  0.9690 -1.6441  0.8836
 8172TIP3   OH246006   2.061   0.459  15.782  0.0834  0.1538  0.0322
 8172TIP3    H146007   2.067   0.534  15.841 -1.2374 -0.6051  1.1929
 8172TIP3    H246008   2.115   0.483  15.706 -1.5052  2.9284 -0.3465
 8173TIP3   OH246009   3.478   6.622   2.575 -0.0550 -0.5091  0.6520
 8173TIP3    H146010   3.535   6.567   2.520 -0.4242 -1.5170  1.2599
 8173TIP3    H246011   3.427   6.673   2.512  0.7160 -0.4141  0.0814
 8174TIP3   OH246012   3.323   2.066  12.354  0.4191 -0.0008 -0.0878
 8174TIP3    H146013   3.267   2.083  12.429 -0.0323 -2.2867  0.1656
 8174TIP3    H246014   3.264   2.066  12.279  0.5230  0.1935 -0.1712
 8175TIP3   OH246015   1.674   5.700  15.509 -0.5203  0.0373  0.4002
 8175TIP3    H146016   1.705   5.695  15.599 -0.1459  2.1621  0.4529
 8175TIP3    H246017   1.656   5.609  15.484 -0.5329 -0.6101  2.5608
 8176TIP3   OH246018   3.421   0.245   2.253  0.7214  0.3676  0.2416
 8176TIP3    H146019   3.365   0.323   2.252 -1.3315 -1.0206 -1.1817
 8176TIP3    H246020   3.445   0.231   2.161  0.1966 -1.2389  0.3220
 8177TIP3   OH246021   2.448   4.273  16.856  0.4885  0.0230 -0.5060
 8177TIP3    H146022   2.512   4.211  16.820  0.7567 -0.3974  0.6490
 8177TIP3    H246023   2.367   4.223  16.863  0.0891  0.4728 -1.6936
 8178TIP3   OH246024   5.127   4.702  13.506 -0.6517  0.1433 -0.0647
 8178TIP3    H146025   5.091   4.744  13.428 -0.6471 -0.3168 -0.3217
 8178TIP3    H246026   5.052   4.661  13.549 -0.5724 -0.0963 -0.1467
 8179TIP3   OH246027   1.490   2.414  12.576 -0.1187 -0.0666 -0.1561
 8179TIP3    H146028   1.397   2.436  12.580 -0.0140  0.3115  0.2635
 8179TIP3    H246029   1.536   2.498  12.571  0.2139 -0.2306  0.0303
 8180TIP3   OH246030   0.879   3.563   3.596  0.2661  0.2123  0.4280
 8180TIP3    H146031   0.844   3.564   3.685  0.0632 -0.1790  0.3581
 8180TIP3    H246032   0.966   3.523   3.605 -0.8775 -2.6084  0.0936
 8181TIP3   OH246033   0.748   3.929   4.740  0.3242 -1.2330  0.5052
 8181TIP3    H146034   0.729   3.842   4.705 -1.6258 -0.8700  0.5731
 8181TIP3    H246035   0.739   3.987   4.664  2.1645 -1.1144  0.3359
 8182TIP3   OH246036   5.346   4.679   0.820 -0.0707  0.4010 -0.0940
 8182TIP3    H146037   5.304   4.634   0.746  2.2474 -0.7972 -0.7782
 8182TIP3    H246038   5.402   4.745   0.779  1.0864 -0.1324  0.5817
 8183TIP3   OH246039   5.767   2.160  14.178 -0.0451  0.6770  0.2193
 8183TIP3    H146040   5.683   2.116  14.166  0.1353  0.4917 -0.4107
 8183TIP3    H246041   5.747   2.253  14.172  0.0429  0.6097 -1.7946
 8184TIP3   OH246042   2.503   0.324  11.233  0.5012  0.2008  0.6226
 8184TIP3    H146043   2.520   0.405  11.185  1.2312  0.1666  0.8026
 8184TIP3    H246044   2.557   0.259  11.189 -1.2660 -0.5642 -0.5103
 8185TIP3   OH246045   2.124   1.537  12.105  0.1163 -0.2300 -0.0307
 8185TIP3    H146046   2.145   1.460  12.157  0.2236  0.2914  0.7284
 8185TIP3    H246047   2.198   1.549  12.046 -0.9583 -2.0857 -1.8700
 8186TIP3   OH246048   1.435   5.831  15.496  0.5125 -0.2281 -0.1256
 8186TIP3    H146049   1.403   5.806  15.583  1.0283  0.9283  0.4188
 8186TIP3    H246050   1.521   5.790  15.489  0.1259 -1.0127 -0.4490
 8187TIP3   OH246051   2.897   3.651   1.036  0.7798 -0.0675 -0.2817
 8187TIP3    H146052   2.983   3.616   1.056  1.5072  1.9167  0.2799
 8187TIP3    H246053   2.874   3.705   1.112 -0.5815  0.1190 -0.7903
 8188TIP3   OH246054   4.989   3.871   3.205 -0.6660 -0.0146 -0.3365
 8188TIP3    H146055   4.954   3.826   3.129  0.7795 -0.5411 -0.7172
 8188TIP3    H246056   5.084   3.866   3.195 -0.4559  1.1266  0.7884
 8189TIP3   OH246057   6.520   5.639  13.520 -0.4320 -0.7561  0.2359
 8189TIP3    H146058   6.429   5.658  13.496 -0.4368 -0.9520  0.0996
 8189TIP3    H246059   6.552   5.581  13.451 -1.2655 -3.5707  2.0612
 8190TIP3   OH246060   5.455   5.237  17.061 -0.1307  0.4969  0.9957
 8190TIP3    H146061   5.484   5.256  16.972  0.5857  0.3910  1.1988
 8190TIP3    H246062   5.423   5.146  17.058  0.7094  0.1928  1.0348
 8191TIP3   OH246063   5.365   0.329  12.337 -1.0969  0.2365 -0.2574
 8191TIP3    H146064   5.281   0.310  12.295 -0.6506 -1.3291 -0.5068
 8191TIP3    H246065   5.368   0.270  12.413 -0.3003  0.4080 -0.1447
 8192TIP3   OH246066   0.430   5.318  13.934  0.2610  0.0670  0.2061
 8192TIP3    H146067   0.525   5.311  13.931  0.2353 -0.0932 -0.1935
 8192TIP3    H246068   0.407   5.283  14.020  0.6397  1.0422  0.7200
 8193TIP3   OH246069   0.979   3.642   0.346 -0.0726  1.2813  0.0317
 8193TIP3    H146070   0.917   3.709   0.318 -0.7821  0.5140 -0.2541
 8193TIP3    H246071   0.943   3.608   0.427  0.1115  1.0176  0.0041
 8194TIP3   OH246072   6.032   3.341  14.138 -0.4767  0.5081  0.1661
 8194TIP3    H146073   6.081   3.260  14.153 -0.5726  0.5867  0.9836
 8194TIP3    H246074   5.953   3.313  14.092  0.5367  0.4397 -1.6009
 8195TIP3   OH246075   3.014   2.623   4.745  0.1841 -0.2947 -0.1165
 8195TIP3    H146076   2.938   2.594   4.795 -0.6596  2.1671  0.1186
 8195TIP3    H246077   3.089   2.601   4.801 -0.6071  0.5342  1.3042
 8196TIP3   OH246078   3.646   4.906   1.540 -0.1753 -0.1184 -0.5756
 8196TIP3    H146079   3.714   4.963   1.506  0.6240 -1.0050 -0.5000
 8196TIP3    H246080   3.626   4.846   1.468  0.5034 -1.0849  0.0150
 8197TIP3   OH246081   2.500   0.009   4.628 -0.1047  0.6205  0.0661
 8197TIP3    H146082   2.485   0.090   4.677 -0.3719 -0.4665  1.8493
 8197TIP3    H246083   2.596   0.001   4.624 -0.0523 -0.0445  1.8052
 8198TIP3   OH246084   6.743   3.787   3.068 -0.1128 -0.4332  0.5337
 8198TIP3    H146085   6.747   3.778   2.973  0.7091  1.2262  0.3781
 8198TIP3    H246086   6.738   3.881   3.083  0.5206 -0.6337  2.1672
 8199TIP3   OH246087   0.849   3.455   1.029  0.2458 -0.0989 -0.9755
 8199TIP3    H146088   0.905   3.418   1.098 -0.7222 -0.3539 -0.3032
 8199TIP3    H246089   0.850   3.549   1.044 -1.1573 -0.2628  0.3551
 8200TIP3   OH246090   5.476   4.941  12.073  0.5134  0.3881 -0.2845
 8200TIP3    H146091   5.423   4.916  11.997  2.5146 -1.1468 -1.3008
 8200TIP3    H246092   5.485   4.860  12.123  3.1709  0.0867 -1.0617
 8201TIP3   OH246093   5.971   5.160   5.165 -0.1103 -0.2940  0.6285
 8201TIP3    H146094   5.911   5.146   5.238 -0.4275  0.3250  0.5010
 8201TIP3    H246095   6.046   5.103   5.183 -0.3706 -0.4535  1.2199
 8202TIP3   OH246096   5.839   1.331  15.016 -0.2333 -0.4299 -0.4742
 8202TIP3    H146097   5.930   1.328  14.987 -0.6761  1.4998 -2.2798
 8202TIP3    H246098   5.843   1.376  15.101  0.6090 -1.9228  0.3331
 8203TIP3   OH246099   4.348   2.693  15.651 -0.5804 -0.5011 -0.3066
 8203TIP3    H146100   4.279   2.706  15.716  0.5795 -0.0067  0.8739
 8203TIP3    H246101   4.329   2.607  15.614 -0.8076 -1.1772  1.2848
 8204TIP3   OH246102   6.308   3.064   4.175  0.5320 -0.1817 -0.2297
 8204TIP3    H146103   6.261   3.105   4.247  0.4927  0.0780 -0.4009
 8204TIP3    H246104   6.400   3.088   4.190  0.3562  1.1962 -1.1070
 8205TIP3   OH246105   0.620   1.473   4.439 -0.5717  0.2934  0.1056
 8205TIP3    H146106   0.581   1.546   4.487  0.9111  0.3407  1.3306
 8205TIP3    H246107   0.714   1.492   4.438 -0.5420  0.6937 -3.6078
 8206TIP3   OH246108   3.899   5.270  11.428 -0.0525  0.2968 -0.1931
 8206TIP3    H146109   3.972   5.332  11.417 -1.1268  1.2602 -2.5345
 8206TIP3    H246110   3.931   5.189  11.386  0.3801  0.0644  0.5608
 8207TIP3   OH246111   1.317   1.918  14.851  0.0675  0.3194 -0.2176
 8207TIP3    H146112   1.276   1.842  14.811 -0.9089  1.2286 -1.0213
 8207TIP3    H246113   1.282   1.921  14.940 -1.5649  0.9843 -0.8369
 8208TIP3   OH246114   1.681   3.408   2.206  0.1807  0.3254 -0.3408
 8208TIP3    H146115   1.642   3.355   2.275  1.4322 -0.8263 -0.4881
 8208TIP3    H246116   1.626   3.391   2.129  0.7106 -1.0016 -0.4528
 8209TIP3   OH246117   1.569   1.077   5.152 -0.0864 -0.5377  0.1515
 8209TIP3    H146118   1.629   1.106   5.083  0.4528 -2.0250 -0.0404
 8209TIP3    H246119   1.488   1.125   5.135  0.8440  1.1100  0.0910
 8210TIP3   OH246120   6.800   4.396   4.961 -0.0691  0.9376 -0.4228
 8210TIP3    H146121   6.725   4.384   4.903 -0.4311 -2.7816  0.6066
 8210TIP3    H246122   6.762   4.432   5.042  0.0142  3.1960 -1.2987
 8211TIP3   OH246123   1.209   4.506  11.152  0.5904  0.0146  0.1057
 8211TIP3    H146124   1.184   4.414  11.143 -1.6276  0.6028 -0.2950
 8211TIP3    H246125   1.198   4.525  11.245 -0.8740  0.3415 -0.1087
 8212TIP3   OH246126   0.129   2.949   4.110  0.2983  0.1090 -0.8011
 8212TIP3    H146127   0.187   2.998   4.052  1.1594 -0.0168 -0.0641
 8212TIP3    H246128   0.182   2.876   4.142 -0.5156 -0.4653 -0.7338
 8213TIP3   OH246129   1.691   6.679  11.370 -0.0226  0.2899  0.0088
 8213TIP3    H146130   1.647   6.762  11.352  2.3192  1.5643 -0.1187
 8213TIP3    H246131   1.643   6.642  11.444 -2.1612  0.8754 -0.9880
 8214TIP3   OH246132   5.428   3.703   1.226  0.0179  0.0419 -0.3550
 8214TIP3    H146133   5.489   3.629   1.225 -0.0771 -0.0335 -0.6352
 8214TIP3    H246134   5.455   3.755   1.302  1.0904  0.5576 -1.0698
 8215TIP3   OH246135   3.133   2.981  13.467  0.2816  0.2182 -0.2907
 8215TIP3    H146136   3.063   3.033  13.506  1.3443  0.9139  0.7406
 8215TIP3    H246137   3.143   3.016  13.378 -1.5432 -0.7767 -0.9470
 8216TIP3   OH246138   6.085   4.419   5.487 -0.3015  0.1218  0.0807
 8216TIP3    H146139   6.120   4.393   5.572  2.3465 -0.1627 -0.9993
 8216TIP3    H246140   6.040   4.341   5.455 -1.4450  0.2715  1.2236
 8217TIP3   OH246141   0.098   1.121   0.175 -0.3406 -0.5642  0.3551
 8217TIP3    H146142   0.193   1.124   0.163 -0.4463  1.7727 -0.5434
 8217TIP3    H246143   0.063   1.126   0.086 -1.2732  0.1968  0.7536
 8218TIP3   OH246144   0.570   3.066   3.828  0.3911  0.3254 -0.3364
 8218TIP3    H146145   0.607   2.993   3.877  1.5716  0.9952 -0.1739
 8218TIP3    H246146   0.640   3.092   3.768  0.0702  1.4366 -0.2565
 8219TIP3   OH246147   3.332   5.370   5.130  0.0947  0.1612  0.5793
 8219TIP3    H146148   3.269   5.421   5.181 -0.0311 -0.9680  1.6030
 8219TIP3    H246149   3.385   5.325   5.196  1.0038 -0.0782 -0.2865
 8220TIP3   OH246150   1.553   1.451   5.906  0.5359 -0.1127  0.3115
 8220TIP3    H146151   1.621   1.518   5.896 -0.2833  0.6269 -0.5122
 8220TIP3    H246152   1.595   1.370   5.877  1.4063  0.1133  0.9014
 8221TIP3   OH246153   4.358   0.805  14.292  0.0410  0.1702 -0.4115
 8221TIP3    H146154   4.320   0.791  14.378 -0.1461  0.7085 -0.4062
 8221TIP3    H246155   4.328   0.730  14.240 -1.1911  0.6646 -0.4576
 8222TIP3   OH246156   1.055   1.411  16.311  0.1324 -0.7552 -0.3078
 8222TIP3    H146157   1.072   1.325  16.349  3.2417 -0.2530 -0.2868
 8222TIP3    H246158   1.046   1.395  16.217  1.0685 -1.0791 -0.3472
 8223TIP3   OH246159   2.255   4.917  11.448 -0.4047  0.2390  0.4139
 8223TIP3    H146160   2.216   4.970  11.379 -0.1659 -1.2585 -0.9459
 8223TIP3    H246161   2.350   4.922  11.431 -0.3836 -0.6360  0.2259
 8224TIP3   OH246162   3.075   6.291   3.511 -0.0240  0.5935  0.0541
 8224TIP3    H146163   3.132   6.365   3.533 -0.8714  1.1465  0.4632
 8224TIP3    H246164   3.067   6.243   3.593  1.0431 -0.3338 -0.3668
 8225TIP3   OH246165   3.482   2.287   2.694 -0.1674  0.0835  0.0830
 8225TIP3    H146166   3.574   2.297   2.671 -0.0674 -1.4867 -0.3244
 8225TIP3    H246167   3.481   2.283   2.790  0.4243 -1.6121  0.0504
 8226TIP3   OH246168   4.093   2.446  16.852  0.5210 -0.1587 -0.0781
 8226TIP3    H146169   4.062   2.523  16.804  1.3289 -0.4777 -1.1363
 8226TIP3    H246170   4.030   2.436  16.924 -0.1291  0.9303 -0.4698
 8227TIP3   OH246171   2.217   3.993  15.563 -0.2531  0.4442  0.6083
 8227TIP3    H146172   2.236   3.937  15.488  0.9261  0.2409  1.0336
 8227TIP3    H246173   2.128   3.970  15.588 -0.4738  0.1467 -0.4002
 8228TIP3   OH246174   3.098   3.600   5.350 -0.0720 -0.0129  0.1127
 8228TIP3    H146175   3.110   3.507   5.329 -0.4636  0.0949 -0.6171
 8228TIP3    H246176   3.139   3.611   5.436  0.5931 -0.7078 -0.1086
 8229TIP3   OH246177   3.672   3.982   4.501 -0.2767 -0.2171  0.5180
 8229TIP3    H146178   3.743   3.979   4.566  0.2874  0.2072 -0.0650
 8229TIP3    H246179   3.704   3.927   4.429 -0.3929  0.2538  0.1047
 8230TIP3   OH246180   1.568   2.209   4.141 -0.2693 -0.8396 -0.2468
 8230TIP3    H146181   1.511   2.161   4.081  1.2197 -1.1110 -1.5260
 8230TIP3    H246182   1.597   2.286   4.091  0.5072 -0.7330  0.3411
 8231TIP3   OH246183   6.789   1.680   5.105 -0.0445  0.2167  0.3933
 8231TIP3    H146184   6.872   1.728   5.100  0.0685 -0.0153  0.0676
 8231TIP3    H246185   6.731   1.728   5.047 -0.4308  0.9552  1.3585
 8232TIP3   OH246186   2.373   2.127  17.069 -0.0232 -0.1654  0.5293
 8232TIP3    H146187   2.316   2.162  17.138 -1.2246  0.0884 -0.5686
 8232TIP3    H246188   2.436   2.196  17.052  0.2697 -0.2200  1.3488
 8233TIP3   OH246189   5.970   2.978  16.080  0.1180 -0.5884  0.3585
 8233TIP3    H146190   5.990   2.894  16.039  3.4900 -0.4589  1.4436
 8233TIP3    H246191   6.021   2.979  16.161 -3.1951  0.8093  2.6393
 8234TIP3   OH246192   1.894   0.498  10.963  0.3861 -0.3102  0.3533
 8234TIP3    H146193   1.940   0.555  10.901 -0.3472  1.8603  1.7081
 8234TIP3    H246194   1.802   0.502  10.935  0.1686  0.0640  1.1072
 8235TIP3   OH246195   0.400   0.964   2.972 -0.1227 -0.2458 -0.3772
 8235TIP3    H146196   0.350   0.991   3.049  0.3919 -0.9281  0.2040
 8235TIP3    H246197   0.450   1.042   2.948  1.1968 -0.5698  1.1650
 8236TIP3   OH246198   1.443   5.553   4.251 -0.3035  0.5819 -0.1356
 8236TIP3    H146199   1.432   5.459   4.239 -2.2327  0.9587 -1.7990
 8236TIP3    H246200   1.534   5.563   4.280 -0.4548 -1.8704  1.4778
 8237TIP3   OH246201   4.308   6.098  16.467 -0.3838  0.6226 -0.5488
 8237TIP3    H146202   4.292   6.028  16.530  0.0441  1.0503  0.0416
 8237TIP3    H246203   4.311   6.177  16.520 -1.1383  1.1233 -1.2463
 8238TIP3   OH246204   3.375   5.000  17.003  0.1648  0.2206 -0.0525
 8238TIP3    H146205   3.435   4.952  17.060  1.0929  0.9037 -0.4264
 8238TIP3    H246206   3.420   5.083  16.986  0.7047 -0.5757 -3.1090
 8239TIP3   OH246207   4.643   2.793  16.666 -0.1017  0.4460  0.7496
 8239TIP3    H146208   4.629   2.748  16.750 -0.7140  0.5621  0.7151
 8239TIP3    H246209   4.673   2.880  16.690  2.9195 -0.4939  0.8113
 8240TIP3   OH246210   3.571   2.623  15.351  0.0171 -0.0728  0.5082
 8240TIP3    H146211   3.488   2.600  15.310 -1.1173  1.2781  1.9381
 8240TIP3    H246212   3.602   2.541  15.389 -1.5612 -0.2745  1.4579
 8241TIP3   OH246213   2.991   2.055  11.039 -0.3607 -0.4415 -0.2337
 8241TIP3    H146214   2.975   2.105  10.959  0.0839 -0.2241 -0.1913
 8241TIP3    H246215   2.959   2.111  11.109  0.1579 -0.1979 -0.1850
 8242TIP3   OH246216   6.651   5.636  15.493 -0.5930  0.4855 -0.1492
 8242TIP3    H146217   6.611   5.657  15.577 -0.5761  2.7753 -0.6406
 8242TIP3    H246218   6.580   5.646  15.429 -0.6822 -1.5170 -0.4457
 8243TIP3   OH246219   5.830   3.992   6.192 -0.0532 -0.2032  0.0625
 8243TIP3    H146220   5.892   4.057   6.159 -0.4680 -0.6303 -1.6659
 8243TIP3    H246221   5.867   3.964   6.275  2.3224 -0.7147 -1.0724
 8244TIP3   OH246222   4.378   4.657  10.932  0.0264  0.7436  0.7826
 8244TIP3    H146223   4.325   4.585  10.967  0.1756  0.3667  0.2584
 8244TIP3    H246224   4.443   4.613  10.876  0.1853  1.2822  0.5364
 8245TIP3   OH246225   1.921   5.576  12.802  0.2892  0.4939  0.7221
 8245TIP3    H146226   1.883   5.659  12.830  0.8550  0.8430  0.4763
 8245TIP3    H246227   1.930   5.585  12.707  0.2726  0.1145  0.6826
 8246TIP3   OH246228   3.451   2.401  10.341 -0.7223 -0.3160 -0.6705
 8246TIP3    H146229   3.539   2.382  10.310 -0.2345 -0.2265  0.6054
 8246TIP3    H246230   3.449   2.496  10.354  0.1479 -0.6244  2.4896
 8247TIP3   OH246231   1.979   6.001  13.774 -0.1586  0.3563 -0.7879
 8247TIP3    H146232   2.056   5.945  13.782  0.5666  1.4352  0.0992
 8247TIP3    H246233   1.962   6.032  13.863 -2.5248 -0.9842 -0.6778
 8248TIP3   OH246234   2.114   3.286   0.461 -0.1464  0.5538 -0.3167
 8248TIP3    H146235   2.210   3.283   0.466 -0.2097  0.1195  0.7948
 8248TIP3    H246236   2.096   3.327   0.376  1.0020 -1.0559 -1.4054
 8249TIP3   OH246237   4.130   3.328   0.807 -0.0674 -0.5828  0.0945
 8249TIP3    H146238   4.114   3.252   0.751 -0.4804 -0.8869  0.6120
 8249TIP3    H246239   4.218   3.357   0.784 -0.0519 -0.9853 -0.3772
 8250TIP3   OH246240   5.470   6.473   4.339  0.2868  0.2339 -0.2231
 8250TIP3    H146241   5.396   6.504   4.392  0.6576  1.0634 -0.1912
 8250TIP3    H246242   5.458   6.378   4.337 -0.4320  0.2996  0.3104
 8251TIP3   OH246243   5.349   3.391  11.394 -0.5120 -0.0235  0.6602
 8251TIP3    H146244   5.268   3.358  11.431 -0.6117 -1.1657 -0.4922
 8251TIP3    H246245   5.387   3.315  11.349  0.7962  0.6921  0.5046
 8252TIP3   OH246246   1.459   1.557  13.254 -0.8624  0.3395  0.6217
 8252TIP3    H146247   1.547   1.524  13.272 -0.8999  0.7692  1.6362
 8252TIP3    H246248   1.439   1.614  13.328 -0.3768  3.5517 -1.5168
 8253TIP3   OH246249   5.807   4.040   5.792 -0.5367 -0.0633  0.9531
 8253TIP3    H146250   5.715   4.062   5.798 -0.4177  1.5734 -1.7382
 8253TIP3    H246251   5.826   4.039   5.698  1.6835 -2.6680  1.2861
 8254TIP3   OH246252   0.415   4.942  11.532 -0.6382  0.3589 -0.1401
 8254TIP3    H146253   0.358   4.866  11.541  0.5283 -0.7195 -1.4429
 8254TIP3    H246254   0.357   5.012  11.502 -1.4055 -0.5701 -0.8891
 8255TIP3   OH246255   3.624   6.548   4.431 -0.0996  0.1842  0.6493
 8255TIP3    H146256   3.635   6.537   4.525  0.5385  0.8355  0.6612
 8255TIP3    H246257   3.613   6.642   4.418 -2.1795 -0.0682  0.2485
 8256TIP3   OH246258   5.769   5.484  12.220 -0.0723 -0.0960 -0.5133
 8256TIP3    H146259   5.851   5.517  12.183 -1.0645  1.8716 -1.1038
 8256TIP3    H246260   5.737   5.421  12.155  1.0648 -1.0895 -0.1465
 8257TIP3   OH246261   1.644   3.126   0.008  0.1436 -0.5971 -0.2996
 8257TIP3    H146262   1.558   3.099  -0.024  0.8000 -1.6769 -1.2577
 8257TIP3    H246263   1.701   3.122  -0.069  1.0300  0.2190  0.2873
 8258TIP3   OH246264   6.425   2.163  13.487 -0.6532  0.4666 -0.8204
 8258TIP3    H146265   6.397   2.190  13.574 -1.1544  0.9579 -1.1268
 8258TIP3    H246266   6.499   2.220  13.466 -1.4545  1.3482 -1.3021
 8259TIP3   OH246267   6.815   2.538  12.303 -0.5124 -0.1815  0.4594
 8259TIP3    H146268   6.825   2.453  12.260 -4.0348 -0.4501 -0.1353
 8259TIP3    H246269   6.788   2.597  12.232 -0.9546  0.7232  1.3537
 8260TIP3   OH246270   2.841   5.150   3.302 -0.2532  0.0121  0.2961
 8260TIP3    H146271   2.873   5.235   3.332  1.3093  0.2084 -1.7526
 8260TIP3    H246272   2.797   5.113   3.379 -0.9328  2.6191  1.2514
 8261TIP3   OH246273   4.186   5.329   5.685  0.6428  0.2522 -0.0359
 8261TIP3    H146274   4.211   5.237   5.671  0.1093  0.1335 -0.2261
 8261TIP3    H246275   4.215   5.374   5.605 -0.1908  0.0216 -0.4796
 8262TIP3   OH246276   6.488   4.831  15.008 -0.2638  0.2054  0.6106
 8262TIP3    H146277   6.513   4.924  15.003  0.1429  0.0535 -0.4086
 8262TIP3    H246278   6.415   4.823  14.946 -1.5417  0.2057  2.0473
 8263TIP3   OH246279   2.594   3.636   2.252 -0.5580 -0.0269 -0.6605
 8263TIP3    H146280   2.547   3.553   2.242 -2.0210  0.3008  2.4486
 8263TIP3    H246281   2.538   3.700   2.209 -0.2000 -0.3796 -1.6919
 8264TIP3   OH246282   2.071   0.890  15.438  0.4238 -0.2115 -0.1415
 8264TIP3    H146283   2.028   0.869  15.355 -2.4678  0.0410  1.1775
 8264TIP3    H246284   2.135   0.958  15.415 -0.4960  0.0648 -2.1010
 8265TIP3   OH246285   4.596   2.093  14.187 -0.7262  0.0974 -0.5605
 8265TIP3    H146286   4.555   2.077  14.272  2.5115 -2.7583  0.7626
 8265TIP3    H246287   4.554   2.030  14.128 -1.7741  0.8622 -0.6538
 8266TIP3   OH246288   6.352   4.146  13.114 -0.3093  0.4435  0.4748
 8266TIP3    H146289   6.366   4.055  13.143  0.8996  0.8032  1.1254
 8266TIP3    H246290   6.439   4.186  13.121 -0.6318  1.4073 -0.7131
 8267TIP3   OH246291   0.763   3.956   3.889 -0.8209 -0.2979 -0.3485
 8267TIP3    H146292   0.824   3.941   3.816  0.5326  0.2433  0.6213
 8267TIP3    H246293   0.700   3.884   3.883 -0.4349 -0.5520 -1.7336
 8268TIP3   OH246294   6.048   1.420  13.110  0.2369  0.0359 -0.2424
 8268TIP3    H146295   6.075   1.354  13.174  2.4369  1.0211 -0.0571
 8268TIP3    H246296   6.041   1.501  13.161  0.3313  0.5049 -0.9611
 8269TIP3   OH246297   0.654   6.659  15.652 -0.0115 -0.1420 -0.2415
 8269TIP3    H146298   0.599   6.735  15.639 -1.0839 -0.7273  0.7657
 8269TIP3    H246299   0.741   6.695  15.670  0.1735  0.7765 -2.5627
 8270TIP3   OH246300   5.965   6.697   1.199  0.1892  0.2590  0.1984
 8270TIP3    H146301   5.907   6.655   1.136 -0.1287  0.4535  0.3609
 8270TIP3    H246302   6.031   6.631   1.218 -0.1400 -0.0613  0.2314
 8271TIP3   OH246303   6.415   6.623  13.137 -0.5520  0.4263  0.4507
 8271TIP3    H146304   6.419   6.709  13.094  0.5556 -0.0611 -0.4746
 8271TIP3    H246305   6.376   6.565  13.072  1.4663 -0.4002 -0.0991
 8272TIP3   OH246306   0.748   5.747   1.166 -0.1163  0.3596  0.1208
 8272TIP3    H146307   0.730   5.839   1.149  0.1126  0.5564  0.9192
 8272TIP3    H246308   0.832   5.731   1.123  0.9780  1.1249  1.8639
 8273TIP3   OH246309   1.905   0.194  10.315  0.2851 -0.6458 -0.1299
 8273TIP3    H146310   1.907   0.105  10.281 -3.0072 -0.8010 -0.2339
 8273TIP3    H246311   1.825   0.232  10.279  1.0024  1.9911  0.8221
 8274TIP3   OH246312   6.356   0.933   0.180  0.4032 -0.1228 -0.1889
 8274TIP3    H146313   6.282   0.993   0.178  0.0344 -0.5804 -0.6543
 8274TIP3    H246314   6.381   0.927   0.272 -0.5130 -0.4218  0.0431
 8275TIP3   OH246315   2.874   6.247   2.799 -0.3802 -0.8637 -0.3521
 8275TIP3    H146316   2.928   6.257   2.878  0.0882 -0.6837 -0.6943
 8275TIP3    H246317   2.805   6.186   2.825 -0.0238 -1.0801  0.0961
 8276TIP3   OH246318   5.424   1.540  12.965  0.6601  0.0069 -0.5403
 8276TIP3    H146319   5.492   1.585  13.015  0.9165 -0.8297 -0.1100
 8276TIP3    H246320   5.425   1.581  12.879  1.6385  0.0813 -0.5051
 8277TIP3   OH246321   0.128   2.421  15.921  0.5785  0.3247  0.1118
 8277TIP3    H146322   0.036   2.443  15.911  0.9073  2.1529  0.6643
 8277TIP3    H246323   0.130   2.358  15.994 -0.3194 -0.8154 -0.8123
 8278TIP3   OH246324   1.591   3.878   1.177  0.4175  0.3299 -0.4983
 8278TIP3    H146325   1.677   3.918   1.168  0.1077  0.7950 -1.5123
 8278TIP3    H246326   1.552   3.920   1.254  0.9195  0.4395 -0.3028
 8279TIP3   OH246327   0.695   4.505  10.766  0.1029  0.3595 -0.2879
 8279TIP3    H146328   0.764   4.509  10.700  0.2956  1.3058 -0.0480
 8279TIP3    H246329   0.648   4.424  10.747 -0.5397  1.1342 -2.2877
 8280TIP3   OH246330   2.813   6.277   4.959 -0.0089  0.3902 -0.3804
 8280TIP3    H146331   2.847   6.354   4.914 -1.3940  1.5646  0.4806
 8280TIP3    H246332   2.720   6.295   4.971 -0.2745 -1.2253  0.2516
 8281TIP3   OH246333   6.512   4.204  14.505 -0.3741  0.0315 -0.1571
 8281TIP3    H146334   6.456   4.268  14.550 -1.0398 -1.1551  0.7467
 8281TIP3    H246335   6.466   4.121  14.513  0.3432 -0.5433 -1.5550
 8282TIP3   OH246336   3.533   3.440  15.116  0.1514  0.0214 -0.0895
 8282TIP3    H146337   3.576   3.526  15.106 -0.7401  0.4062 -0.7126
 8282TIP3    H246338   3.442   3.455  15.089 -0.1786 -0.9716  0.4324
 8283TIP3   OH246339   0.042   2.694   4.792 -0.5211 -0.0969  0.4367
 8283TIP3    H146340   0.120   2.665   4.838  1.3451  0.2020 -2.2993
 8283TIP3    H246341   0.039   2.789   4.807  0.2678  0.0499 -0.2856
 8284TIP3   OH246342   3.855   2.922  12.744  0.9007 -0.0522 -0.7212
 8284TIP3    H146343   3.761   2.904  12.749  1.0271 -0.5604 -0.0109
 8284TIP3    H246344   3.886   2.868  12.671  0.5901  0.4016 -1.2045
 8285TIP3   OH246345   0.907   0.373   2.077 -0.0831 -0.0589 -0.1235
 8285TIP3    H146346   0.923   0.324   1.997  1.7218  0.6492 -0.2379
 8285TIP3    H246347   0.981   0.434   2.083 -0.8423  0.7625  1.4220
 8286TIP3   OH246348   2.617   1.355   3.205  0.1669 -0.2350 -0.0484
 8286TIP3    H146349   2.676   1.427   3.184 -0.3932 -0.0902 -1.1814
 8286TIP3    H246350   2.534   1.378   3.164 -0.4778 -0.7863  0.9041
 8287TIP3   OH246351   0.881   1.163   3.032  0.0036 -0.2060 -0.1075
 8287TIP3    H146352   0.915   1.239   2.985 -0.3453  1.4076  2.1226
 8287TIP3    H246353   0.906   1.089   2.977  0.9329  1.4319 -2.0481
 8288TIP3   OH246354   3.056   1.550  16.839 -0.2100 -0.2143 -0.1485
 8288TIP3    H146355   2.979   1.566  16.895 -1.7436 -1.4292 -1.7881
 8288TIP3    H246356   3.059   1.455  16.829 -0.4758 -0.0373 -2.6675
 8289TIP3   OH246357   2.225   5.891   5.853 -0.0464 -0.1882 -0.9356
 8289TIP3    H146358   2.212   5.983   5.830  0.0161  0.0119 -0.2070
 8289TIP3    H246359   2.170   5.842   5.792  0.1804  0.3128 -1.5479
 8290TIP3   OH246360   4.113   6.212  13.431 -0.3003 -0.7145 -0.5200
 8290TIP3    H146361   4.049   6.276  13.462  1.1330  0.1278  0.7958
 8290TIP3    H246362   4.136   6.161  13.509  1.1083 -0.5720 -0.8280
 8291TIP3   OH246363   5.368   4.565   2.965 -0.1578 -0.4374  0.3767
 8291TIP3    H146364   5.454   4.608   2.959  0.3156 -1.5338 -1.7664
 8291TIP3    H246365   5.360   4.516   2.883 -1.1319 -3.5849  2.1792
 8292TIP3   OH246366   0.304   1.700   0.132  0.6559 -0.3815  0.1095
 8292TIP3    H146367   0.302   1.611   0.166 -0.0466  0.1655  1.5701
 8292TIP3    H246368   0.379   1.741   0.175 -0.4653  0.4254  1.3783
 8293TIP3   OH246369   5.497   0.571   2.087 -0.1650  0.1528 -0.1803
 8293TIP3    H146370   5.555   0.611   2.151 -0.7935  0.3456  0.2718
 8293TIP3    H246371   5.440   0.642   2.058 -2.7045 -0.7843  2.1879
 8294TIP3   OH246372   4.098   5.467   1.710 -0.3364 -0.4242  0.5365
 8294TIP3    H146373   4.036   5.539   1.717  0.9079  0.7308  0.2266
 8294TIP3    H246374   4.067   5.415   1.636 -0.4210  0.6571 -0.2052
 8295TIP3   OH246375   4.076   4.369   3.747 -0.0575 -0.0041 -0.6017
 8295TIP3    H146376   4.060   4.452   3.703  0.9438 -0.0691 -1.1182
 8295TIP3    H246377   4.078   4.391   3.840  0.2665  0.5618 -0.7402
 8296TIP3   OH246378   0.034   6.201  11.160 -0.3392 -0.1121 -0.1075
 8296TIP3    H146379  -0.002   6.285  11.189 -2.7101 -1.5396  1.3998
 8296TIP3    H246380   0.021   6.201  11.065  0.7265  1.6247 -0.2974
 8297TIP3   OH246381   5.689   2.098   3.728 -0.4180 -0.4468 -0.2189
 8297TIP3    H146382   5.679   2.091   3.823 -1.1620  0.3372 -0.2284
 8297TIP3    H246383   5.734   2.017   3.703 -0.7690 -0.9519  0.7192
 8298TIP3   OH246384   2.462   4.088  13.356  0.8378  0.1429 -0.0071
 8298TIP3    H146385   2.556   4.104  13.364  0.8493 -0.2912  0.9108
 8298TIP3    H246386   2.455   3.994  13.337  0.6771  0.6474 -2.7922
 8299TIP3   OH246387   1.154   5.681   1.888  0.2792 -0.6107 -0.1428
 8299TIP3    H146388   1.114   5.595   1.897 -0.6624 -0.1830 -0.0626
 8299TIP3    H246389   1.081   5.739   1.867  0.3979  0.6479  2.5360
 8300TIP3   OH246390   1.185   6.507   3.038  0.0796 -0.2394  0.2354
 8300TIP3    H146391   1.245   6.443   3.076  2.9599  1.1628 -1.6241
 8300TIP3    H246392   1.138   6.544   3.113 -0.1725 -2.9439  1.5375
 8301TIP3   OH246393   0.594   2.296   2.751  0.4879  0.1765  0.7453
 8301TIP3    H146394   0.562   2.261   2.668  1.5823  3.3115 -1.1405
 8301TIP3    H246395   0.686   2.273   2.754  0.1856 -1.0010  1.7572
 8302TIP3   OH246396   2.991   6.342   0.224 -0.3711  0.1771 -0.7460
 8302TIP3    H146397   3.019   6.264   0.272  0.6224  1.5256  0.9945
 8302TIP3    H246398   3.019   6.327   0.134  2.6118 -0.2153  0.1488
 8303TIP3   OH246399   1.909   6.396   3.974 -0.1811 -0.2519 -0.1794
 8303TIP3    H146400   1.840   6.331   3.986 -0.7115 -0.1611 -2.3859
 8303TIP3    H246401   1.864   6.474   3.942  0.4960  1.1455  2.0025
 8304TIP3   OH246402   1.853   0.695   3.111  0.0675 -0.1834 -0.1933
 8304TIP3    H146403   1.879   0.607   3.085 -0.4551 -0.2683 -0.4510
 8304TIP3    H246404   1.844   0.690   3.206  1.0166 -0.1366 -0.0925
 8305TIP3   OH246405   4.939   1.617   5.659  0.9012 -0.3206  0.5794
 8305TIP3    H146406   5.009   1.657   5.607  1.6143 -1.1647  0.8640
 8305TIP3    H246407   4.885   1.572   5.595  0.5808  0.3789  0.3506
 8306TIP3   OH246408   4.634   4.577   0.370  0.0207  0.4298 -0.0365
 8306TIP3    H146409   4.620   4.662   0.328  1.7373 -0.2521 -2.1988
 8306TIP3    H246410   4.671   4.599   0.455  0.3875  1.8669 -0.5264
 8307TIP3   OH246411   6.791   4.403   2.257 -0.1468  0.2944  0.8349
 8307TIP3    H146412   6.708   4.447   2.277 -0.9143 -0.7323  0.0671
 8307TIP3    H246413   6.793   4.399   2.161  0.3432 -0.4823  0.8642
 8308TIP3   OH246414   1.416   0.076  12.387  0.3025 -0.0495  0.0623
 8308TIP3    H146415   1.510   0.055  12.385 -0.1453 -2.3624 -0.0004
 8308TIP3    H246416   1.385   0.037  12.469 -0.7265  0.0451 -0.2752
 8309TIP3   OH246417   1.493   0.253   4.795  0.2482  0.3299  0.3540
 8309TIP3    H146418   1.551   0.313   4.843 -0.5424  1.6389 -0.2571
 8309TIP3    H246419   1.420   0.237   4.854  0.8811 -0.7822  0.8637
 8310TIP3   OH246420   0.030   3.650   1.186  0.6722  0.1855  0.0703
 8310TIP3    H146421  -0.034   3.707   1.143 -0.2666 -0.9005 -0.0139
 8310TIP3    H246422  -0.020   3.604   1.254  0.5665 -2.9010 -1.9072
 8311TIP3   OH246423   2.278   0.881  10.766 -0.3059  0.2073  0.0688
 8311TIP3    H146424   2.298   0.965  10.724 -0.1828 -0.3420 -1.0144
 8311TIP3    H246425   2.271   0.820  10.693  0.4186 -0.8971  0.9068
 8312TIP3   OH246426   0.752   4.118  16.694  0.0910  0.6702  0.1093
 8312TIP3    H146427   0.714   4.202  16.718  0.8915  1.2493 -0.5984
 8312TIP3    H246428   0.676   4.060  16.682 -0.5179  1.5331 -0.3056
 8313TIP3   OH246429   3.687   6.039   5.873  0.5152 -0.0297 -0.0658
 8313TIP3    H146430   3.688   6.135   5.871  0.7787 -0.0142  0.6138
 8313TIP3    H246431   3.760   6.015   5.930  1.6797 -0.7021 -1.7811
 8314TIP3   OH246432   2.601   4.054   2.597  0.6691  0.8242 -0.4447
 8314TIP3    H146433   2.572   3.969   2.563 -0.6899  0.9979  0.1950
 8314TIP3    H246434   2.693   4.041   2.618 -0.1943 -1.5391  2.7113
 8315TIP3   OH246435   3.836   6.821  15.365 -0.3464 -0.1568 -0.6622
 8315TIP3    H146436   3.776   6.834  15.439  0.5617 -0.4253  0.1383
 8315TIP3    H246437   3.785   6.770  15.302 -1.4639  0.9267 -0.6702
 8316TIP3   OH246438   2.536   5.981   1.056  0.2775 -0.2352 -0.1318
 8316TIP3    H146439   2.572   6.064   1.023 -1.7804  0.2071 -1.3992
 8316TIP3    H246440   2.536   5.992   1.152  3.5813 -0.3737  0.0208
 8317TIP3   OH246441   3.908   1.787  12.503 -0.3581 -0.1316  0.3065
 8317TIP3    H146442   3.958   1.805  12.582  0.7358 -0.9060 -0.1874
 8317TIP3    H246443   3.959   1.721  12.456 -1.3785 -0.2665 -0.6694
 8318TIP3   OH246444   6.448   4.281   2.671 -0.5809 -0.3759  0.1493
 8318TIP3    H146445   6.534   4.252   2.643 -1.1494 -2.5524  0.4556
 8318TIP3    H246446   6.389   4.255   2.600 -0.9422  1.9359 -0.5101
 8319TIP3   OH246447   1.796   3.942   1.548 -0.1638 -0.2529 -0.0367
 8319TIP3    H146448   1.753   3.948   1.634  0.7628 -1.3691  0.5354
 8319TIP3    H246449   1.870   4.002   1.554  0.0788 -0.5598  0.0597
 8320TIP3   OH246450   1.523   5.740  17.149 -0.0237 -0.2531  0.0301
 8320TIP3    H146451   1.475   5.658  17.140  1.0324 -0.6876 -2.5762
 8320TIP3    H246452   1.611   5.714  17.176  0.1287  0.0881 -0.1323
 8321TIP3   OH246453   3.803   5.757  14.673  0.2251 -0.6289  0.6168
 8321TIP3    H146454   3.788   5.787  14.763  0.4868  0.8512  0.1965
 8321TIP3    H246455   3.883   5.705  14.678  0.6448  0.0469  1.1225
 8322TIP3   OH246456   6.491   2.460  13.149  0.1581 -0.0896 -0.6079
 8322TIP3    H146457   6.500   2.507  13.066  1.6549  2.5953  0.9099
 8322TIP3    H246458   6.411   2.496  13.188  0.1495 -0.3954 -0.3392
 8323TIP3   OH246459   5.024   0.036  12.826 -0.1447 -0.3212 -0.0772
 8323TIP3    H146460   5.092   0.100  12.806 -1.3882  0.3202 -2.6610
 8323TIP3    H246461   4.944   0.088  12.839 -0.5271 -1.1647  1.1759
 8324TIP3   OH246462   6.684   6.609  12.640 -0.3725 -0.4336 -0.2089
 8324TIP3    H146463   6.707   6.650  12.724  1.1361  1.8371 -1.5962
 8324TIP3    H246464   6.675   6.516  12.660 -2.3615  0.2856  2.8778
 8325TIP3   OH246465   2.504   2.525   1.820  0.1604 -0.3306 -0.5659
 8325TIP3    H146466   2.485   2.449   1.765  0.5007 -0.4030 -0.5801
 8325TIP3    H246467   2.428   2.531   1.879  0.3074 -0.9023 -0.3107
 8326TIP3   OH246468   0.159   2.463   1.605  0.1805 -0.1779 -0.3827
 8326TIP3    H146469   0.112   2.505   1.533  1.1931 -0.1953 -1.0688
 8326TIP3    H246470   0.106   2.385   1.626 -1.6894  1.3367  0.8713
 8327TIP3   OH246471   1.396   5.666  16.827  0.1812 -0.1041 -0.5383
 8327TIP3    H146472   1.402   5.623  16.913  1.6167 -3.7810 -2.2201
 8327TIP3    H246473   1.466   5.731  16.828  1.3481 -1.3007  0.5520
 8328TIP3   OH246474   0.551   5.350  13.147  0.5486 -0.0520  0.3149
 8328TIP3    H146475   0.486   5.368  13.079  0.3696  0.1320  0.5341
 8328TIP3    H246476   0.526   5.263  13.180  0.9984 -0.4087 -0.2647
 8329TIP3   OH246477   5.130   0.952  13.781 -0.6133 -0.1699  0.0666
 8329TIP3    H146478   5.133   0.866  13.740 -0.5042  0.2765 -0.9010
 8329TIP3    H246479   5.221   0.974  13.798 -0.7486 -1.3722  2.8447
 8330TIP3   OH246480   5.228   4.083  15.772  0.1742  0.0296 -0.0886
 8330TIP3    H146481   5.285   4.129  15.833  0.1710  0.1275 -0.1596
 8330TIP3    H246482   5.284   4.064  15.696 -0.3326  1.6868 -0.9146
 8331TIP3   OH246483   6.148   4.000  13.421  0.5087  0.2142 -0.5547
 8331TIP3    H146484   6.178   3.909  13.421  1.5364  0.5364 -0.2709
 8331TIP3    H246485   6.140   4.022  13.328  1.5212  0.2182 -0.6511
 8332TIP3   OH246486   5.299   1.331   5.313 -0.1432 -0.1517  0.1106
 8332TIP3    H146487   5.216   1.289   5.333  0.3246 -1.5475 -0.7028
 8332TIP3    H246488   5.360   1.259   5.299  1.1779  0.8380  0.5336
 8333TIP3   OH246489   2.173   2.674   5.981 -0.2752 -0.0534  0.5260
 8333TIP3    H146490   2.140   2.703   6.067  2.1357  1.2804  1.0961
 8333TIP3    H246491   2.257   2.633   6.000  0.1242 -0.1012 -1.1812
 8334TIP3   OH246492   3.508   3.150  15.130 -0.3317  0.0380 -0.9991
 8334TIP3    H146493   3.491   3.244  15.137 -0.2772  0.0730 -1.3469
 8334TIP3    H246494   3.566   3.141  15.055 -0.6337 -0.3097 -1.1977
 8335TIP3   OH246495   2.249   3.795   0.013  0.0389 -0.4163  0.2021
 8335TIP3    H146496   2.221   3.877   0.052  0.9316 -0.3712  0.7859
 8335TIP3    H246497   2.170   3.740   0.013  0.0494 -0.5430  2.4244
 8336TIP3   OH246498   2.768   4.069  12.724 -0.2393  0.2990  0.3915
 8336TIP3    H146499   2.768   3.999  12.790 -0.6997 -1.0981 -1.0224
 8336TIP3    H246500   2.734   4.145  12.770 -0.3426 -0.5682  1.8214
 8337TIP3   OH246501   1.269   2.151  14.284 -0.2340  0.1219  0.0193
 8337TIP3    H146502   1.207   2.110  14.345 -1.5573 -0.3956 -1.5913
 8337TIP3    H246503   1.314   2.077  14.243  1.0428  0.4789  0.7151
 8338TIP3   OH246504   5.779   5.014   4.867  0.1789  0.1287  0.7518
 8338TIP3    H146505   5.757   5.042   4.778  2.9200  0.9132  0.2458
 8338TIP3    H246506   5.716   5.060   4.922 -0.1957  1.3415 -0.6251
 8339TIP3   OH246507   5.738   0.427   0.935 -0.3617 -0.0710  0.1740
 8339TIP3    H146508   5.743   0.480   0.856  0.1203  1.5569  1.2242
 8339TIP3    H246509   5.645   0.407   0.946 -0.6124  0.9628 -0.0109
 8340TIP3   OH246510   2.306   6.172   5.636 -0.4234  0.1415  0.4665
 8340TIP3    H146511   2.248   6.103   5.669  0.9669 -1.1367  0.3049
 8340TIP3    H246512   2.343   6.137   5.555 -0.8759  1.7249 -0.4860
 8341TIP3   OH246513   0.366   5.147   4.377  0.3020 -0.2434  0.1516
 8341TIP3    H146514   0.276   5.176   4.361  0.1632 -1.6293 -1.9540
 8341TIP3    H246515   0.415   5.178   4.301  1.3608 -0.5559  0.6889
 8342TIP3   OH246516   0.173   1.760  13.031  0.2040  0.2061  0.0308
 8342TIP3    H146517   0.263   1.748  13.063  0.0359  1.5242  1.0860
 8342TIP3    H246518   0.120   1.709  13.092  0.1103  0.5314  0.2175
 8343TIP3   OH246519   3.413   4.724  12.525  0.5916  0.0673  0.5353
 8343TIP3    H146520   3.330   4.698  12.566 -0.3580 -0.0104 -1.3411
 8343TIP3    H246521   3.389   4.796  12.467  1.2997 -1.6680 -2.0729
 8344TIP3   OH246522   5.994   4.980   1.004 -0.1818 -0.4487 -0.1367
 8344TIP3    H146523   5.965   4.972   1.095 -0.1347 -1.3851 -0.1940
 8344TIP3    H246524   5.951   4.908   0.958 -0.2047  0.0120 -0.8604
 8345TIP3   OH246525   4.620   0.871  15.775 -0.2111  0.0013 -0.1050
 8345TIP3    H146526   4.532   0.839  15.754 -0.1634  0.4694 -1.0927
 8345TIP3    H246527   4.626   0.956  15.732  0.5676  0.1871  0.3389
 8346TIP3   OH246528   2.586   6.402  10.232  0.2323  0.0784 -0.2300
 8346TIP3    H146529   2.670   6.358  10.245  0.2662  0.2322  0.0783
 8346TIP3    H246530   2.607   6.474  10.171  0.0374 -0.7415 -1.3027
 8347TIP3   OH246531   1.294   5.650  15.335 -0.3655  0.0428  0.2133
 8347TIP3    H146532   1.323   5.571  15.380 -0.9838  0.2354  0.9704
 8347TIP3    H246533   1.346   5.720  15.374 -0.4594  0.1299  0.1815
 8348TIP3   OH246534   5.949   6.385  13.734 -0.2671 -0.0659  0.3600
 8348TIP3    H146535   5.871   6.371  13.787 -0.8287  0.1997 -0.3664
 8348TIP3    H246536   5.956   6.480  13.727  0.7904 -0.0493  1.3619
 8349TIP3   OH246537   3.063   2.012  16.642 -0.4472  0.1024 -0.5004
 8349TIP3    H146538   3.014   1.990  16.563 -0.4384 -0.8643 -0.2405
 8349TIP3    H246539   3.153   2.027  16.611 -0.3288 -0.7869 -0.6140
 8350TIP3   OH246540   5.707   4.894   5.189  0.2074  0.0549  0.3952
 8350TIP3    H146541   5.701   4.828   5.121  1.4186 -1.4283  1.6550
 8350TIP3    H246542   5.792   4.879   5.231 -0.0381  1.5831  1.5578
 8351TIP3   OH246543   0.941   5.427  12.648  0.5211  0.1315  0.3210
 8351TIP3    H146544   0.856   5.396  12.681  0.6441 -0.2786  0.2496
 8351TIP3    H246545   0.926   5.520  12.628 -0.1296 -0.1191 -0.4180
 8352TIP3   OH246546   1.846   5.118   5.284  0.5330 -0.3151  0.1493
 8352TIP3    H146547   1.910   5.054   5.252 -0.3092 -1.3015  0.3915
 8352TIP3    H246548   1.768   5.102   5.230  0.3089  0.5094  0.2189
 8353TIP3   OH246549   4.775   4.150   5.801 -0.0035 -0.2234 -0.0261
 8353TIP3    H146550   4.764   4.102   5.883  0.6946  0.3149  0.3865
 8353TIP3    H246551   4.766   4.242   5.826 -0.5875 -0.0867 -0.6929
 8354TIP3   OH246552   4.147   1.919   1.189 -0.2322  0.4954 -0.2561
 8354TIP3    H146553   4.058   1.940   1.217 -2.0557 -4.6728 -0.9520
 8354TIP3    H246554   4.154   1.957   1.102 -2.9466 -1.1277 -1.3158
 8355TIP3   OH246555   3.608   1.125   0.552 -0.3839  0.4021 -0.2383
 8355TIP3    H146556   3.605   1.152   0.644 -0.3393 -1.4580  0.3440
 8355TIP3    H246557   3.651   1.198   0.507  1.5683  0.4717  1.5712
 8356TIP3   OH246558   1.613   2.225   4.897 -0.0281  0.5070  0.3704
 8356TIP3    H146559   1.543   2.168   4.867 -0.2649  1.0494 -0.1288
 8356TIP3    H246560   1.682   2.165   4.925 -0.7586 -0.0362  1.0609
 8357TIP3   OH246561   2.230   2.849   4.692  0.3586  0.0233 -0.0851
 8357TIP3    H146562   2.177   2.913   4.644  0.8528 -1.3476 -2.6032
 8357TIP3    H246563   2.236   2.885   4.781  1.8189  4.2510 -1.6508
 8358TIP3   OH246564   2.182   0.790  16.673  0.2985 -0.2415  0.1059
 8358TIP3    H146565   2.234   0.793  16.753 -0.4597 -1.8702  0.6989
 8358TIP3    H246566   2.118   0.720  16.688 -0.8250  0.4202 -1.3452
 8359TIP3   OH246567   2.716   0.096  14.680 -0.3510  0.3603 -0.1783
 8359TIP3    H146568   2.630   0.078  14.643  0.1524 -0.1582 -1.1475
 8359TIP3    H246569   2.774   0.030  14.640  0.4489  0.5545  0.6228
 8360TIP3   OH246570   5.222   5.876  11.994 -0.5690  0.2503 -0.1788
 8360TIP3    H146571   5.299   5.909  11.947 -0.4840  0.0665 -0.1680
 8360TIP3    H246572   5.195   5.949  12.050 -1.4690  0.9662 -1.4770
 8361TIP3   OH246573   2.117   0.482   4.438  0.6635  0.1801 -0.4180
 8361TIP3    H146574   2.204   0.452   4.412  0.1970  0.2341 -2.2531
 8361TIP3    H246575   2.060   0.406   4.424  0.2030  0.5643 -0.6810
 8362TIP3   OH246576   4.710   6.148  12.938 -0.7050 -0.2122 -0.2269
 8362TIP3    H146577   4.801   6.122  12.923 -1.2131 -1.6058 -1.0411
 8362TIP3    H246578   4.706   6.239  12.908  0.0649 -0.6144 -1.6614
 8363TIP3   OH246579   4.052   5.650  14.679 -0.3686 -0.3504 -0.0607
 8363TIP3    H146580   4.079   5.571  14.632 -0.5848 -1.3343  1.4025
 8363TIP3    H246581   4.124   5.668  14.739 -0.2638  0.6678 -0.4613
 8364TIP3   OH246582   0.361   2.193   0.226 -0.0206  0.1691  0.1159
 8364TIP3    H146583   0.276   2.154   0.209 -0.6031  0.6436  1.7167
 8364TIP3    H246584   0.342   2.284   0.245  0.9843  0.5385 -0.5904
 8365TIP3   OH246585   4.365   2.394   4.370  0.2184  0.1167 -0.3735
 8365TIP3    H146586   4.345   2.300   4.376 -1.7114  0.5078 -0.0314
 8365TIP3    H246587   4.431   2.409   4.438 -0.6882 -0.6964  0.7306
 8366TIP3   OH246588   5.241   2.396  14.999  0.8961  0.5300 -0.4119
 8366TIP3    H146589   5.177   2.342  15.044  1.9928  2.2382  3.6516
 8366TIP3    H246590   5.284   2.337  14.937 -1.6006 -1.7259 -0.1554
 8367TIP3   OH246591   0.526   5.295   3.343 -0.3273  0.2724 -0.2452
 8367TIP3    H146592   0.614   5.333   3.345 -1.2666  2.6339  1.5318
 8367TIP3    H246593   0.472   5.358   3.392 -2.9306 -1.2968 -0.9190
 8368TIP3   OH246594   2.247   6.175   0.833 -0.2513 -0.1586  0.3734
 8368TIP3    H146595   2.294   6.220   0.762  1.2472 -2.0758  0.0594
 8368TIP3    H246596   2.158   6.209   0.828 -0.1026  0.0652 -2.1867
 8369TIP3   OH246597   5.131   3.831   1.845 -0.3610  0.2664  0.0820
 8369TIP3    H146598   5.187   3.764   1.807 -0.0612  0.4410  0.2070
 8369TIP3    H246599   5.049   3.825   1.797  0.4355  1.3732 -1.5317
 8370TIP3   OH246600   6.000   5.375  15.659  0.4639  0.4107  0.3298
 8370TIP3    H146601   5.973   5.284  15.649  1.1531  0.2280  0.1125
 8370TIP3    H246602   6.094   5.371  15.675  0.4701  1.0744  0.4982
 8371TIP3   OH246603   0.820   0.825   4.928 -0.6742  0.6667 -0.7772
 8371TIP3    H146604   0.813   0.823   4.833 -1.7005  2.1551 -0.7609
 8371TIP3    H246605   0.742   0.871   4.958 -0.3964  0.1962  0.7987
 8372TIP3   OH246606   4.438   0.044  14.942  0.1334  0.4259  0.8169
 8372TIP3    H146607   4.385   0.017  15.017 -0.7830 -0.8153 -0.2303
 8372TIP3    H246608   4.510  -0.019  14.939  1.1404  1.4950  1.6266
 8373TIP3   OH246609   0.728   6.689  17.143  0.7463 -0.3339  0.0085
 8373TIP3    H146610   0.822   6.702  17.140  0.5459  1.3374 -0.1554
 8373TIP3    H246611   0.701   6.726  17.227  0.0395  1.1076 -0.7986
 8374TIP3   OH246612   6.613   3.616  15.813 -0.3150  0.4025  0.6145
 8374TIP3    H146613   6.550   3.569  15.867  2.2688 -2.3129  1.5320
 8374TIP3    H246614   6.693   3.620  15.867  0.4983  3.3975 -0.5839
 8375TIP3   OH246615   3.034   5.769  15.080  0.5730  0.3779  0.2624
 8375TIP3    H146616   3.101   5.831  15.052  0.3270  0.3233 -0.4669
 8375TIP3    H246617   2.977   5.820  15.139  1.4527  0.3244  1.1791
 8376TIP3   OH246618   3.289   6.407   4.472 -0.5882 -0.1848 -0.1817
 8376TIP3    H146619   3.339   6.352   4.533 -1.2273  0.2826  0.7886
 8376TIP3    H246620   3.319   6.496   4.490 -0.9030 -0.0249 -0.4368
 8377TIP3   OH246621   5.046   1.541   2.566  0.4690  0.2379 -1.0404
 8377TIP3    H146622   5.029   1.469   2.505  0.0733 -0.4809 -0.1062
 8377TIP3    H246623   5.130   1.576   2.539  0.1387  0.1590 -2.2153
 8378TIP3   OH246624   5.203   6.813   2.277  0.0322 -0.4552 -0.0917
 8378TIP3    H146625   5.150   6.790   2.353 -1.2626  0.2244 -0.7318
 8378TIP3    H246626   5.259   6.737   2.261 -1.8371 -1.8644 -0.2766
 8379TIP3   OH246627   1.613   6.223   0.288  0.5996 -0.0574 -0.0991
 8379TIP3    H146628   1.546   6.163   0.254  0.9813  0.2674 -1.5106
 8379TIP3    H246629   1.571   6.309   0.286  1.1528  0.2035 -1.3447
 8380TIP3   OH246630   2.712   6.398  13.258  0.3038 -0.4480  0.4885
 8380TIP3    H146631   2.684   6.321  13.308  2.4228 -1.2439  0.5675
 8380TIP3    H246632   2.658   6.469  13.292  1.1363 -1.0841  3.4366
 8381TIP3   OH246633   2.502   6.709   4.991  0.3968 -0.0003 -0.3872
 8381TIP3    H146634   2.420   6.714   4.941  0.4604 -1.2144 -0.6409
 8381TIP3    H246635   2.474   6.687   5.080  0.4587 -1.0140 -0.6017
 8382TIP3   OH246636   4.267   4.658   5.421  0.4952  0.1526 -0.2309
 8382TIP3    H146637   4.265   4.752   5.404 -2.2884  0.1062 -0.6972
 8382TIP3    H246638   4.298   4.619   5.340  0.5214  0.6105 -0.4436
 8383TIP3   OH246639   4.900   4.949  14.471  0.2024  0.5260 -0.7306
 8383TIP3    H146640   4.868   4.861  14.452 -2.5700  1.9527 -3.7125
 8383TIP3    H246641   4.848   4.978  14.546  0.3702  0.0400 -0.4196
 8384TIP3   OH246642   4.360   6.363  15.593 -0.1644  0.0740 -0.2505
 8384TIP3    H146643   4.366   6.275  15.629  2.3239  0.0527 -0.5416
 8384TIP3    H246644   4.290   6.358  15.528 -0.3412 -1.5620  0.0376
 8385TIP3   OH246645   2.784   3.371  13.980 -0.0111  0.3222  0.2632
 8385TIP3    H146646   2.858   3.345  14.035 -0.0914 -0.3111  0.0769
 8385TIP3    H246647   2.707   3.353  14.035 -0.0544  0.4545  0.2456
 8386TIP3   OH246648   4.923   0.100   2.924  0.0282  0.2006  0.1725
 8386TIP3    H146649   4.923   0.193   2.901 -3.0040  0.3105  0.2343
 8386TIP3    H246650   4.972   0.058   2.854 -0.8421  1.6053 -1.3513
 8387TIP3   OH246651   3.031   1.961  12.555  0.4355  0.3619 -0.5248
 8387TIP3    H146652   3.042   1.962  12.650  0.8191  1.1893 -0.5747
 8387TIP3    H246653   3.099   1.901  12.524 -1.0364 -1.6211 -0.1356
 8388TIP3   OH246654   5.239   1.772  14.688  1.0451 -0.3260 -0.0783
 8388TIP3    H146655   5.274   1.736  14.769  0.8122 -1.9090 -0.6587
 8388TIP3    H246656   5.197   1.854  14.714  0.2350 -1.2161  1.5430
 8389TIP3   OH246657   1.129   1.690   1.285 -0.2755  0.0272 -0.3685
 8389TIP3    H146658   1.144   1.679   1.379 -0.9943  0.3549 -0.2054
 8389TIP3    H246659   1.048   1.741   1.280 -0.4655 -0.3421 -1.1718
 8390TIP3   OH246660   3.959   4.622  15.131 -0.1036  0.9042 -0.2754
 8390TIP3    H146661   3.937   4.629  15.224 -1.8429  3.9648 -0.7936
 8390TIP3    H246662   3.875   4.614  15.086  0.7394 -2.2471 -1.6406
 8391TIP3   OH246663   5.519   6.715   4.171 -0.5297 -0.2102  0.3324
 8391TIP3    H146664   5.438   6.663   4.165  0.0072 -1.0521  0.1801
 8391TIP3    H246665   5.589   6.650   4.162  0.1771  0.7687 -1.8638
 8392TIP3   OH246666   2.339   4.417  15.971  0.3333  0.3253  0.1074
 8392TIP3    H146667   2.353   4.511  15.955  0.1339  0.0916 -1.6731
 8392TIP3    H246668   2.350   4.407  16.065  1.9724  1.8828  0.1483
 8393TIP3   OH246669   3.656   5.424  12.490  0.1834  0.4738  0.1959
 8393TIP3    H146670   3.736   5.379  12.518  0.0718  0.6064  0.7426
 8393TIP3    H246671   3.686   5.511  12.462  0.2386  0.4947  0.3218
 8394TIP3   OH246672   0.181   5.949  15.506  0.3566  0.0766 -0.3702
 8394TIP3    H146673   0.150   5.992  15.585 -0.8845  0.2948 -0.9593
 8394TIP3    H246674   0.202   6.022  15.446 -0.0158 -0.1079 -0.7271
 8395TIP3   OH246675   2.283   2.264   0.737 -0.0520  0.2954 -0.0238
 8395TIP3    H146676   2.284   2.195   0.670 -0.5972  0.7473 -0.5184
 8395TIP3    H246677   2.306   2.344   0.689  3.1198  0.1259  1.0041
 8396TIP3   OH246678   2.638   5.110   2.440 -0.6809 -0.4612  0.4308
 8396TIP3    H146679   2.615   5.037   2.497 -1.9403 -1.4908 -1.3156
 8396TIP3    H246680   2.562   5.123   2.384  0.4420  0.5929 -0.9361
 8397TIP3   OH246681   0.944   5.706   0.971 -0.4883 -0.0027  0.0283
 8397TIP3    H146682   1.001   5.698   1.047  0.2478  0.9009 -0.4009
 8397TIP3    H246683   1.002   5.737   0.901 -1.5382  1.2176 -0.3507
 8398TIP3   OH246684   4.097   4.925  15.112  0.0316 -0.2875  0.3027
 8398TIP3    H146685   4.126   4.842  15.149 -1.1121 -1.2803 -0.9313
 8398TIP3    H246686   4.009   4.907  15.078  0.2047  1.1007 -1.0111
 8399TIP3   OH246687   2.700   0.141   5.537  0.6483  0.0889  0.2378
 8399TIP3    H146688   2.657   0.179   5.461  1.0888  0.5873  0.2296
 8399TIP3    H246689   2.644   0.068   5.563  0.3430  0.0985 -0.3839
 8400TIP3   OH246690   5.165   0.066   5.347  0.6478  0.3345 -0.1272
 8400TIP3    H146691   5.139   0.142   5.399  2.0561  0.5033  0.3684
 8400TIP3    H246692   5.124  -0.008   5.391 -2.1888  0.8867 -1.5961
 8401TIP3   OH246693   1.333   2.556   1.807  0.4597  0.0585  0.3258
 8401TIP3    H146694   1.347   2.545   1.901  0.5251  1.8150  0.5460
 8401TIP3    H246695   1.246   2.594   1.800  0.8980  0.9810 -0.2392
 8402TIP3   OH246696   2.725   2.866  14.021 -0.3859 -0.3639  0.2778
 8402TIP3    H146697   2.753   2.957  14.011 -1.0153 -0.2680 -0.7796
 8402TIP3    H246698   2.665   2.867  14.095 -0.9399  0.2326 -0.1635
 8403TIP3   OH246699   1.352   5.775  15.774  0.2997 -0.2216 -0.2380
 8403TIP3    H146700   1.303   5.845  15.816  0.9125  0.2915 -0.3627
 8403TIP3    H246701   1.442   5.787  15.805  0.6211 -0.2734 -1.1196
 8404TIP3   OH246702   5.064   1.477  12.005 -0.3910 -0.2181  0.1088
 8404TIP3    H146703   5.073   1.414  12.077 -0.0157 -0.5122 -0.1865
 8404TIP3    H246704   5.083   1.425  11.926  4.0404  1.0408  0.0566
 8405TIP3   OH246705   0.689   5.113  15.011  0.1799 -0.4839  0.2055
 8405TIP3    H146706   0.712   5.152  15.095  2.1560 -0.8384 -0.1228
 8405TIP3    H246707   0.705   5.019  15.023  2.6468 -0.2993 -1.1770
 8406TIP3   OH246708   6.784   0.866  13.530  0.1325 -0.0035 -0.3531
 8406TIP3    H146709   6.733   0.879  13.610 -0.3575 -0.2466 -0.6227
 8406TIP3    H246710   6.863   0.919  13.543 -0.4792  0.8945 -0.1928
 8407TIP3   OH246711   5.012   2.221   3.199  0.0508  0.3237 -0.0883
 8407TIP3    H146712   4.947   2.287   3.223  0.7604  0.9401  0.1733
 8407TIP3    H246713   5.097   2.263   3.216  0.5117 -0.8633  0.6869
 8408TIP3   OH246714   2.994   5.384  10.861 -0.2634 -0.2375  0.2212
 8408TIP3    H146715   2.963   5.318  10.922  0.9487 -0.2984  0.8052
 8408TIP3    H246716   2.981   5.467  10.907  1.5694 -0.3487  1.0290
 8409TIP3   OH246717   2.483   0.003   1.195 -0.1954 -0.3366 -0.9050
 8409TIP3    H146718   2.480   0.073   1.259 -1.5858 -0.8922 -0.3134
 8409TIP3    H246719   2.525  -0.070   1.240  0.5222 -0.1571 -1.2599
 8410TIP3   OH246720   0.489   0.393   0.998 -0.0721 -0.6230  0.3815
 8410TIP3    H146721   0.497   0.453   1.072 -0.5674  0.7511 -0.6230
 8410TIP3    H246722   0.560   0.418   0.939 -1.2235  0.1079 -0.7701
 8411TIP3   OH246723   3.400   4.251   0.696 -0.0869  0.1609  0.0605
 8411TIP3    H146724   3.400   4.344   0.673 -0.5306  0.0696 -0.3265
 8411TIP3    H246725   3.310   4.223   0.682  0.3346 -0.6529 -1.2195
 8412TIP3   OH246726   1.349   4.977  15.042  0.1739  0.0387 -0.4658
 8412TIP3    H146727   1.364   4.942  15.130  0.6584 -0.7789 -0.8639
 8412TIP3    H246728   1.313   5.065  15.058 -0.5854 -0.4352  0.5381
 8413TIP3   OH246729   0.786   5.501   2.098 -0.2679 -0.6991  0.0893
 8413TIP3    H146730   0.716   5.543   2.148  0.4655  0.8618 -0.1459
 8413TIP3    H246731   0.745   5.424   2.059 -2.4986  1.3321 -1.8686
 8414TIP3   OH246732   5.999   3.341   2.208 -0.1187  0.7980  0.1193
 8414TIP3    H146733   5.916   3.294   2.214  0.9676 -1.6861 -2.3338
 8414TIP3    H246734   5.978   3.419   2.157 -1.1693  0.8890  0.6492
 8415TIP3   OH246735   6.385   0.860  15.239 -0.1558  0.1154  0.2810
 8415TIP3    H146736   6.407   0.767  15.239  1.7984  0.5248  0.0070
 8415TIP3    H246737   6.383   0.884  15.332  2.7475  0.4508  0.3591
 8416TIP3   OH246738   0.822   5.208   1.915  0.5098 -0.4196  0.3838
 8416TIP3    H146739   0.761   5.209   1.989 -0.9341 -1.6070 -0.7370
 8416TIP3    H246740   0.891   5.269   1.941 -2.3005  2.9708  0.7110
 8417TIP3   OH246741   2.873   4.447   6.517 -0.5668 -0.7086  0.3190
 8417TIP3    H146742   2.959   4.467   6.554  0.7465 -0.9163 -2.3367
 8417TIP3    H246743   2.884   4.362   6.474 -1.3693  0.2262 -1.9291
 8418TIP3   OH246744   1.190   0.789  14.343 -0.0478 -0.1258 -0.1967
 8418TIP3    H146745   1.100   0.756  14.340  0.3681 -1.2797 -0.9322
 8418TIP3    H246746   1.226   0.766  14.257  0.9829  0.2111  0.1356
 8419TIP3   OH246747   2.481   3.680   5.414 -0.1592 -0.5213  0.4805
 8419TIP3    H146748   2.432   3.754   5.451 -1.9924 -1.1279 -0.6219
 8419TIP3    H246749   2.511   3.631   5.490 -0.8254  0.1663  1.2043
 8420TIP3   OH246750   1.421   1.704  10.690 -0.2193 -0.0726  0.3103
 8420TIP3    H146751   1.362   1.664  10.754 -0.9743 -1.4092 -1.1493
 8420TIP3    H246752   1.366   1.769  10.645 -0.1186 -0.1569  0.0622
 8421TIP3   OH246753   6.538   3.283   0.709  0.0266  0.5990 -0.2159
 8421TIP3    H146754   6.598   3.287   0.634 -0.8075  0.9498 -0.8786
 8421TIP3    H246755   6.479   3.357   0.697 -0.0291  0.7433  0.8784
 8422TIP3   OH246756   3.041   1.308   4.747  0.0345  0.2654 -0.0426
 8422TIP3    H146757   3.115   1.319   4.807 -1.1704 -1.3491  1.8500
 8422TIP3    H246758   3.027   1.395   4.711  1.0933  1.2192  1.7047
 8423TIP3   OH246759   2.748   3.121  11.389 -0.1150  0.3667 -0.1250
 8423TIP3    H146760   2.832   3.077  11.403 -0.1814  0.9230  2.4587
 8423TIP3    H246761   2.682   3.058  11.418 -0.4840  0.5772 -0.4871
 8424TIP3   OH246762   6.686   0.694  12.833 -0.2568  0.0734  0.1076
 8424TIP3    H146763   6.748   0.725  12.767 -0.3721 -0.1389 -0.1067
 8424TIP3    H246764   6.686   0.761  12.900 -0.6787  0.6426 -0.4551
 8425TIP3   OH246765   2.191   1.493   1.146 -0.1982  0.4266 -0.3403
 8425TIP3    H146766   2.237   1.577   1.147 -0.8568  0.8181 -1.4026
 8425TIP3    H246767   2.129   1.500   1.073  0.5516 -1.4071 -1.2328
 8426TIP3   OH246768   5.260   6.599  14.270 -0.6898 -0.1902  0.7028
 8426TIP3    H146769   5.312   6.574  14.193  0.3146 -0.5393  1.4663
 8426TIP3    H246770   5.314   6.665  14.315 -1.6746  0.6809  0.6421
 8427TIP3   OH246771   6.274   4.248   2.075  0.1059 -0.0477 -0.1143
 8427TIP3    H146772   6.271   4.343   2.086  0.0350 -0.1218  0.5117
 8427TIP3    H246773   6.185   4.218   2.093  0.1076 -0.2247 -0.3900
 8428TIP3   OH246774   1.371   0.270  12.171 -0.3094  0.9849  0.1765
 8428TIP3    H146775   1.388   0.203  12.238  0.4622  0.9458 -0.0494
 8428TIP3    H246776   1.285   0.304  12.193 -1.3802 -1.0716 -0.5405
 8429TIP3   OH246777   0.198   1.313   4.647  0.4054 -0.4007 -0.5679
 8429TIP3    H146778   0.253   1.389   4.630  0.3255  0.0988  1.2275
 8429TIP3    H246779   0.114   1.349   4.677  0.3912 -1.1548  0.3791
 8430TIP3   OH246780   0.720   5.401  16.956 -0.1543 -0.0437  0.2516
 8430TIP3    H146781   0.707   5.485  16.914 -1.0533 -0.6519 -0.7324
 8430TIP3    H246782   0.799   5.365  16.916  1.7970  1.4067  2.5325
 8431TIP3   OH246783   4.591   3.362  13.959  0.3719 -0.2292 -0.0032
 8431TIP3    H146784   4.557   3.273  13.950 -1.5891  0.4367  0.2882
 8431TIP3    H246785   4.588   3.397  13.870  1.1836 -0.4459 -0.1245
 8432TIP3   OH246786   3.696   0.679   2.560  0.3986 -0.0883 -0.0699
 8432TIP3    H146787   3.783   0.706   2.529 -0.2548  2.4534  0.1055
 8432TIP3    H246788   3.654   0.642   2.482  1.4096 -0.8586 -0.2859
 8433TIP3   OH246789   0.393   5.448   3.534  0.4864  0.0795  0.1988
 8433TIP3    H146790   0.409   5.505   3.609  0.6658  0.9891 -0.5063
 8433TIP3    H246791   0.374   5.362   3.572 -2.4650  1.1657  1.4448
 8434TIP3   OH246792   5.537   4.582  13.283  0.0133  0.1529  0.3887
 8434TIP3    H146793   5.492   4.604  13.364 -0.2495  0.9265  0.0391
 8434TIP3    H246794   5.628   4.608  13.298 -0.2984  1.5907 -0.0313
 8435TIP3   OH246795   2.713   2.684  11.248  0.0825  0.0169  0.0935
 8435TIP3    H146796   2.709   2.593  11.278 -0.4350 -0.2428 -0.7345
 8435TIP3    H246797   2.782   2.724  11.302  2.2804 -1.5554 -1.3997
 8436TIP3   OH246798   4.361   0.348  14.228 -0.5698  0.4391 -0.1876
 8436TIP3    H146799   4.402   0.380  14.309  0.4923  1.7610 -1.2031
 8436TIP3    H246800   4.276   0.392  14.226 -0.9854 -0.2930  0.6316
 8437TIP3   OH246801   1.113   3.981   1.210 -0.3827 -0.0020  0.3659
 8437TIP3    H146802   1.131   3.980   1.116 -0.3365  0.1086  0.3736
 8437TIP3    H246803   1.093   3.890   1.231 -0.7680  0.0356  0.1751
 8438TIP3   OH246804   2.377   1.489  13.481  0.3940 -0.1323  0.1199
 8438TIP3    H146805   2.294   1.442  13.477  0.1942  0.2645 -0.5678
 8438TIP3    H246806   2.354   1.575  13.514  0.4457  0.1437 -0.5390
 8439TIP3   OH246807   4.000   2.539   0.314  0.3383  0.1659  0.0903
 8439TIP3    H146808   3.993   2.543   0.218 -2.1950  0.5238  0.2146
 8439TIP3    H246809   4.010   2.630   0.340  0.6974  0.1014  0.1691
 8440TIP3   OH246810   4.051   3.418  15.359  0.5824  0.0820 -0.3319
 8440TIP3    H146811   3.967   3.393  15.320  0.5197  1.0253 -0.8326
 8440TIP3    H246812   4.043   3.513  15.374  0.3573 -0.3249  2.6016
 8441TIP3   OH246813   0.400   6.223   1.252  0.2653  0.3762 -0.3824
 8441TIP3    H146814   0.328   6.162   1.234 -2.8228  3.2014  1.4176
 8441TIP3    H246815   0.391   6.291   1.185  0.4834  1.4019  0.6129
 8442TIP3   OH246816   3.398   0.519   1.267  0.1497 -0.3762 -0.1928
 8442TIP3    H146817   3.357   0.605   1.284  0.2351 -0.2613 -0.5459
 8442TIP3    H246818   3.449   0.501   1.345 -1.0415 -0.7971  0.5247
 8443TIP3   OH246819   6.522   2.264   5.343  0.0839 -0.3256  0.4515
 8443TIP3    H146820   6.536   2.358   5.337  2.0329 -0.3817  2.7863
 8443TIP3    H246821   6.434   2.256   5.380 -1.1998  0.4090 -2.1754
 8444TIP3   OH246822   0.883   2.115  12.043  0.0578 -0.4141  0.2057
 8444TIP3    H146823   0.966   2.161  12.052  0.7559 -1.3164 -1.3202
 8444TIP3    H246824   0.830   2.170  11.986  0.5123 -0.9759 -0.7775
 8445TIP3   OH246825   1.552   2.584   2.302 -0.7159  0.2297  0.3823
 8445TIP3    H146826   1.552   2.679   2.288 -0.0823 -0.0061 -1.6224
 8445TIP3    H246827   1.641   2.565   2.331  0.2063 -0.0562 -2.3494
 8446TIP3   OH246828   1.214   0.226  14.489  0.5238 -0.4896 -0.0346
 8446TIP3    H146829   1.172   0.155  14.538  1.0007 -1.2278 -0.6833
 8446TIP3    H246830   1.142   0.284  14.465 -0.1802 -1.8228 -1.2825
 8447TIP3   OH246831   3.105   4.004  11.996  0.1572 -0.0465 -0.2002
 8447TIP3    H146832   3.063   4.079  11.954  0.0327  0.6066  1.0382
 8447TIP3    H246833   3.033   3.955  12.034  0.3278 -0.1959 -0.0694
 8448TIP3   OH246834   1.178   0.532  11.858  0.2142  0.0682  0.5847
 8448TIP3    H146835   1.263   0.544  11.816  1.1025 -0.6469  2.1078
 8448TIP3    H246836   1.157   0.618  11.894  0.6019  0.1021  0.7385
 8449TIP3   OH246837   4.532   6.329  12.713 -0.5484  0.4873  0.0713
 8449TIP3    H146838   4.601   6.262  12.715 -0.1270  0.9384  0.7909
 8449TIP3    H246839   4.475   6.301  12.641 -0.7125 -0.9761  0.7185
 8450TIP3   OH246840   4.885   3.107   0.239 -0.1466 -0.2927  0.1181
 8450TIP3    H146841   4.916   3.184   0.286 -4.5374  2.4536 -0.9583
 8450TIP3    H246842   4.892   3.130   0.147 -0.1731 -1.8309 -0.2943
 8451TIP3   OH246843   4.427   2.006   2.606  0.1841  0.3609 -0.5853
 8451TIP3    H146844   4.467   1.935   2.655 -0.6238  0.4272  0.1981
 8451TIP3    H246845   4.408   1.969   2.520 -0.8477 -0.5905  0.0328
 8452TIP3   OH246846   2.467   6.323   5.161  0.0343  0.3056  0.0293
 8452TIP3    H146847   2.483   6.364   5.076 -0.5020 -2.9743 -1.8154
 8452TIP3    H246848   2.375   6.343   5.181 -0.3984 -0.4269 -1.1312
 8453TIP3   OH246849   6.416   0.601   1.491  0.2520  0.1384 -0.3448
 8453TIP3    H146850   6.335   0.554   1.513  1.4540 -1.2690  1.4870
 8453TIP3    H246851   6.409   0.620   1.398 -2.9521  1.6945  0.0779
 8454TIP3   OH246852   6.605   4.148   4.056 -0.2181  0.7001  0.1331
 8454TIP3    H146853   6.611   4.240   4.084 -0.3126  0.8504 -0.3210
 8454TIP3    H246854   6.534   4.148   3.992  1.5364  0.8533 -1.9430
 8455TIP3   OH246855   5.639   1.047   2.199  0.5562 -0.4078 -0.1906
 8455TIP3    H146856   5.552   1.069   2.165  1.7672  3.3228 -1.3145
 8455TIP3    H246857   5.700   1.079   2.132  2.8468 -1.0404  1.4733
 8456TIP3   OH246858   0.352   2.845   0.785 -0.7872 -0.3053  0.3279
 8456TIP3    H146859   0.305   2.817   0.864 -0.7769  1.0261  0.8250
 8456TIP3    H246860   0.367   2.938   0.798 -0.4496 -0.1462 -1.0899
 8457TIP3   OH246861   4.863   1.450  16.898  0.2559  0.8664  0.3039
 8457TIP3    H146862   4.891   1.512  16.965 -1.1137 -0.5434  2.3011
 8457TIP3    H246863   4.941   1.400  16.877  0.4123  0.3253  2.0386
 8458TIP3   OH246864   6.076   6.529   5.502 -0.3374 -0.7943  0.4040
 8458TIP3    H146865   6.105   6.519   5.411  1.1975  0.2807  0.7470
 8458TIP3    H246866   5.988   6.491   5.503 -0.4311 -0.7308 -1.5579
 8459TIP3   OH246867   0.449   6.422  12.761 -0.3257  0.6087  0.0990
 8459TIP3    H146868   0.471   6.390  12.849  1.6946  0.0305 -0.5625
 8459TIP3    H246869   0.526   6.472  12.734  1.0974 -2.8178 -3.0090
 8460TIP3   OH246870   1.128   3.118  16.908 -0.3375  0.6341 -0.1056
 8460TIP3    H146871   1.215   3.099  16.942 -0.1508 -0.1265 -0.9864
 8460TIP3    H246872   1.068   3.079  16.971  0.0025 -0.6605 -0.5588
 8461TIP3   OH246873   6.288   5.318   6.654 -0.1061 -0.2840  0.0370
 8461TIP3    H146874   6.341   5.379   6.604  0.7597 -0.8831  0.1906
 8461TIP3    H246875   6.273   5.244   6.595 -0.7661 -0.1235 -0.0005
 8462TIP3   OH246876   4.860   0.675  17.014 -0.1368  0.2323 -0.0145
 8462TIP3    H146877   4.823   0.758  17.041 -1.3034 -0.1742 -0.3025
 8462TIP3    H246878   4.785   0.622  16.987  0.3625 -1.5812  1.9069
 8463TIP3   OH246879   2.909   3.150  13.484  0.0804 -0.0777  0.0739
 8463TIP3    H146880   2.856   3.198  13.548 -0.9457 -2.4292  1.1138
 8463TIP3    H246881   2.845   3.109  13.426  0.8625 -0.8868 -0.2425
 8464TIP3   OH246882   0.296   3.487  11.109  0.0040 -0.2070 -0.1998
 8464TIP3    H146883   0.246   3.419  11.065 -0.0574 -1.1761  1.2924
 8464TIP3    H246884   0.357   3.519  11.042 -0.7612 -0.8907 -1.2561
 8465TIP3   OH246885   4.314   5.818  13.577  0.0470 -0.0980 -0.4029
 8465TIP3    H146886   4.257   5.818  13.655  0.5212  1.8064 -0.0083
 8465TIP3    H246887   4.260   5.781  13.508 -1.2318  0.4153  0.2865
 8466TIP3   OH246888   6.191   6.040  12.782 -0.0917  0.3112 -0.1171
 8466TIP3    H146889   6.128   6.017  12.715  1.2237 -0.6792 -1.0650
 8466TIP3    H246890   6.200   5.961  12.836 -1.5939  1.2770  1.6724
 8467TIP3   OH246891   6.140   0.347  11.976  0.0027 -0.2842  0.2920
 8467TIP3    H146892   6.204   0.373  12.042  0.9542  4.2401 -2.0371
 8467TIP3    H246893   6.057   0.381  12.008 -1.0784 -4.0508  2.1354
 8468TIP3   OH246894   2.270   5.600  16.464  0.0599  0.0904  0.0184
 8468TIP3    H146895   2.215   5.525  16.440 -0.9763  0.9367 -0.2911
 8468TIP3    H246896   2.264   5.659  16.390 -0.7179  1.3637  1.0588
 8469TIP3   OH246897   0.168   3.318  16.035 -0.8018 -0.0370 -0.1328
 8469TIP3    H146898   0.122   3.234  16.033  1.1014 -1.1899  0.9576
 8469TIP3    H246899   0.184   3.333  16.128 -0.6456  1.2718 -0.3633
 8470TIP3   OH246900   4.775   4.564   2.347 -0.2014 -0.2431  0.3349
 8470TIP3    H146901   4.816   4.648   2.329  0.3337 -0.5529  0.0882
 8470TIP3    H246902   4.701   4.560   2.287 -0.8585  0.4969  1.0650
 8471TIP3   OH246903   5.424   1.418   0.522  0.4890  0.0949  0.8330
 8471TIP3    H146904   5.422   1.324   0.504  0.1021  0.2002  0.3041
 8471TIP3    H246905   5.485   1.453   0.458  1.4568  0.0662  1.7240
 8472TIP3   OH246906   5.263   0.752  14.006 -0.0079 -0.3268  0.5968
 8472TIP3    H146907   5.308   0.674  13.975 -1.9626 -1.2834 -0.0454
 8472TIP3    H246908   5.317   0.785  14.078  3.6206  0.7731 -2.3503
 8473TIP3   OH246909   2.506   4.255  12.506  0.2467  0.2076 -0.1790
 8473TIP3    H146910   2.481   4.276  12.417  0.4023  0.5922 -0.1344
 8473TIP3    H246911   2.600   4.276  12.511  0.3159 -0.1276 -0.0211
 8474TIP3   OH246912   3.335   0.607  11.231  0.1380  0.3358  0.0053
 8474TIP3    H146913   3.244   0.627  11.206  0.0639  2.0639  1.4237
 8474TIP3    H246914   3.337   0.622  11.325  1.7614 -0.3061  0.0958
 8475TIP3   OH246915   4.801   0.472   0.473 -0.0289  0.3815  0.0432
 8475TIP3    H146916   4.769   0.383   0.461  0.1237  0.4447 -0.9350
 8475TIP3    H246917   4.881   0.476   0.420  0.1074  1.0201  0.2876
 8476TIP3   OH246918   3.401   5.220  12.831  0.3619 -0.5172  0.2385
 8476TIP3    H146919   3.440   5.133  12.831  1.1774 -0.2186 -2.1827
 8476TIP3    H246920   3.355   5.226  12.747  0.0549  1.2693  0.5026
 8477TIP3   OH246921   2.901   5.285  17.166 -0.2067  0.3634  0.6146
 8477TIP3    H146922   2.903   5.349  17.237  1.9206 -0.5024  1.4381
 8477TIP3    H246923   2.863   5.332  17.092  1.5008  2.7265  1.1038
 8478TIP3   OH246924   0.487   0.158   3.286 -0.2803  0.1417  0.0116
 8478TIP3    H146925   0.528   0.169   3.200 -1.2268  0.1610 -0.4499
 8478TIP3    H246926   0.433   0.080   3.277  1.5299 -1.3688  1.3597
 8479TIP3   OH246927   0.402   1.202  12.256  0.0705  0.3248 -0.0040
 8479TIP3    H146928   0.395   1.269  12.325  1.8670  1.5783 -0.9616
 8479TIP3    H246929   0.444   1.247  12.183 -2.5133 -0.7148 -2.3234
 8480TIP3   OH246930   0.853   0.768  10.502  0.3652 -0.0370 -0.4997
 8480TIP3    H146931   0.871   0.676  10.484  2.6768  0.2369  0.0686
 8480TIP3    H246932   0.785   0.792  10.439  1.0688 -1.6553 -1.9534
 8481TIP3   OH246933   1.526   4.314   2.924  0.7055  0.0054 -0.1123
 8481TIP3    H146934   1.552   4.252   2.856  2.5241  0.4827  0.0840
 8481TIP3    H246935   1.605   4.324   2.979 -0.0744  1.1734  0.8603
 8482TIP3   OH246936   2.773   2.387  16.028 -0.4396  0.5564 -0.1172
 8482TIP3    H146937   2.737   2.298  16.036 -0.7271  0.6616 -0.2204
 8482TIP3    H246938   2.867   2.376  16.037 -0.3431  0.0704 -1.5034
 8483TIP3   OH246939   0.306   3.359  14.598  0.5448 -0.0600 -0.1358
 8483TIP3    H146940   0.287   3.269  14.572  0.6093 -0.7380  1.9610
 8483TIP3    H246941   0.245   3.413  14.548  1.0746 -1.1723 -2.0537
 8484TIP3   OH246942   5.869   5.689  14.585 -0.1508 -0.2307  0.0641
 8484TIP3    H146943   5.929   5.760  14.610  0.6867  0.3801 -3.1977
 8484TIP3    H246944   5.927   5.614  14.570 -0.0169  0.3799 -3.1794
 8485TIP3   OH246945   6.754   1.483  15.687  0.1086 -0.0608  0.1041
 8485TIP3    H146946   6.790   1.479  15.598 -0.9304 -1.7412 -0.2869
 8485TIP3    H246947   6.798   1.411  15.734  0.3724  0.5783  0.8525
 8486TIP3   OH246948   1.415   2.915   3.591  0.2341  0.0017 -0.1747
 8486TIP3    H146949   1.442   2.986   3.648  1.7906 -0.3588 -0.4284
 8486TIP3    H246950   1.469   2.924   3.513 -0.8757 -0.3456 -1.0116
 8487TIP3   OH246951   5.072   6.658   5.422 -0.1206 -0.0402 -0.1283
 8487TIP3    H146952   5.120   6.655   5.505  0.5274  1.4803 -0.4074
 8487TIP3    H246953   5.129   6.612   5.360  0.4821  0.7742 -0.2056
 8488TIP3   OH246954   3.299   6.779   0.941 -0.1329 -0.0210  0.2817
 8488TIP3    H146955   3.232   6.747   1.002  0.5870 -1.1855  0.5023
 8488TIP3    H246956   3.346   6.700   0.915  1.3201  0.8009  0.3333
 8489TIP3   OH246957   3.074   0.631   2.385  0.1635 -0.4086 -0.1578
 8489TIP3    H146958   2.982   0.643   2.406 -0.2631 -0.7024 -1.7858
 8489TIP3    H246959   3.105   0.569   2.451 -1.3916 -2.0964 -0.9261
 8490TIP3   OH246960   3.136   0.680   2.105  0.2723 -0.1051  1.1479
 8490TIP3    H146961   3.104   0.702   2.193 -2.5085 -0.4297  0.3254
 8490TIP3    H246962   3.057   0.681   2.050  1.5742 -2.0820 -0.9218
 8491TIP3   OH246963   2.827   0.103  12.052 -0.8897 -0.1613 -0.3328
 8491TIP3    H146964   2.862   0.167  11.990 -1.5527  0.3725 -0.1683
 8491TIP3    H246965   2.743   0.076  12.014 -0.2858 -1.4863 -0.7646
 8492TIP3   OH246966   6.787   2.355  14.079  0.7860 -0.4373  0.1257
 8492TIP3    H146967   6.700   2.320  14.097 -0.0254  1.1438 -0.4704
 8492TIP3    H246968   6.785   2.444  14.117  1.8958 -0.1243 -0.5038
 8493TIP3   OH246969   3.434   5.417   1.724 -0.5818 -0.5051  0.7707
 8493TIP3    H146970   3.426   5.509   1.747  1.2455 -0.0433 -0.2566
 8493TIP3    H246971   3.527   5.397   1.734 -0.6592 -1.7670 -0.6057
 8494TIP3   OH246972   1.390   3.821  13.066 -0.0859 -0.2841  0.6503
 8494TIP3    H146973   1.387   3.909  13.029 -0.6680 -1.5139 -2.5427
 8494TIP3    H246974   1.479   3.790  13.048 -0.2340 -0.7650  0.7321
 8495TIP3   OH246975   1.387   0.458   2.967 -0.0790 -0.0705 -0.1444
 8495TIP3    H146976   1.428   0.461   3.053  0.2316  0.3900 -0.3065
 8495TIP3    H246977   1.297   0.430   2.985 -0.2246  0.7189  0.4109
 8496TIP3   OH246978   3.298   5.498   3.917  0.1642 -0.0012 -0.8010
 8496TIP3    H146979   3.338   5.422   3.961 -1.8813 -0.8729 -0.3037
 8496TIP3    H246980   3.234   5.460   3.857 -1.2788  1.3229 -0.1741
 8497TIP3   OH246981   6.564   5.251   0.855  0.5883 -0.5113  0.0776
 8497TIP3    H146982   6.480   5.264   0.898  0.5389  0.3036 -0.2504
 8497TIP3    H246983   6.553   5.169   0.805 -0.7683  0.6806 -1.7160
 8498TIP3   OH246984   3.931   3.006   5.212  0.3847  0.1338  0.6254
 8498TIP3    H146985   3.964   2.923   5.177  0.6050 -0.6952  2.6260
 8498TIP3    H246986   3.969   3.073   5.155  0.6408 -1.0993 -0.7210
 8499TIP3   OH246987   4.737   5.810  12.433 -0.0576 -0.0513 -0.2155
 8499TIP3    H146988   4.826   5.787  12.404  0.6894  0.8565  1.2300
 8499TIP3    H246989   4.736   5.787  12.526 -1.4700 -0.3496 -0.2847
 8500TIP3   OH246990   3.307   1.657   1.981  0.5620 -0.3699  0.0971
 8500TIP3    H146991   3.317   1.732   1.923  2.9921 -0.0757  0.7797
 8500TIP3    H246992   3.239   1.604   1.940 -1.9366  2.5533  0.0628
 8501TIP3   OH246993   2.756   0.529   6.085  0.6840  0.1591 -0.2559
 8501TIP3    H146994   2.777   0.451   6.137 -0.0160 -0.0975 -0.3429
 8501TIP3    H246995   2.707   0.585   6.144 -0.5936 -0.3726 -0.7632
 8502TIP3   OH246996   2.352   1.160   0.860 -0.3165 -0.9125 -0.1983
 8502TIP3    H146997   2.257   1.169   0.871 -0.2984  1.2245 -1.4114
 8502TIP3    H246998   2.363   1.079   0.811 -1.4466 -1.5957  0.6357
 8503TIP3   OH246999   5.409   0.979   4.438 -0.1153  0.0420 -0.4718
 8503TIP3    H147000   5.483   0.917   4.442 -1.2907 -1.3852  2.0798
 8503TIP3    H247001   5.399   1.009   4.529 -1.6410  1.5056 -1.0838
 8504TIP3   OH247002   2.797   5.988   3.649 -0.5502 -0.3191 -0.3882
 8504TIP3    H147003   2.870   5.942   3.609  1.4652  0.4921  2.1246
 8504TIP3    H247004   2.836   6.065   3.689 -2.9018  0.4833  0.5558
 8505TIP3   OH247005   1.700   0.381  16.020  0.3717 -0.5821 -0.5296
 8505TIP3    H147006   1.686   0.462  16.068 -0.5665 -0.8461 -0.3303
 8505TIP3    H247007   1.734   0.320  16.086  3.5133  0.2931 -1.1873
 8506TIP3   OH247008   6.726   3.666   4.664  1.0779  0.5447  0.0944
 8506TIP3    H147009   6.780   3.700   4.592  1.6599 -2.1927 -0.8888
 8506TIP3    H247010   6.669   3.602   4.623 -0.2280  0.5669  1.7694
 8507TIP3   OH247011   1.655   3.895   0.438 -0.1612 -0.0367 -0.4227
 8507TIP3    H147012   1.586   3.933   0.492  1.0862  1.2417  0.3720
 8507TIP3    H247013   1.612   3.828   0.386 -1.8532  0.2770  0.5127
 8508TIP3   OH247014   3.687   1.239   2.503  0.3422 -0.8056 -0.3624
 8508TIP3    H147015   3.628   1.269   2.572  0.0740 -0.6937 -0.6359
 8508TIP3    H247016   3.676   1.304   2.433 -0.2923 -1.5594 -0.9910
 8509TIP3   OH247017   2.198   5.008  17.025  0.0050 -0.1205  0.2221
 8509TIP3    H147018   2.130   4.959  16.978 -0.7124  1.5120 -0.5581
 8509TIP3    H247019   2.152   5.048  17.098  0.4285 -0.0931  0.4763
 8510TIP3   OH247020   5.460   1.278  12.905  0.3234 -0.5344  0.1670
 8510TIP3    H147021   5.409   1.359  12.904 -2.0593 -1.9280 -1.8572
 8510TIP3    H247022   5.540   1.299  12.858 -0.1455  0.7282 -0.1011
 8511TIP3   OH247023   2.579   0.546  10.740 -0.3523 -0.3720 -0.0656
 8511TIP3    H147024   2.640   0.520  10.808  1.7051 -0.8329 -1.9665
 8511TIP3    H247025   2.571   0.641  10.750  0.6393 -0.3141  0.2489
 8512TIP3   OH247026   4.593   3.629   1.771 -0.1106 -0.4253  0.4656
 8512TIP3    H147027   4.597   3.584   1.687 -0.8862  1.5450 -0.6763
 8512TIP3    H247028   4.610   3.560   1.836  2.1185 -1.6791 -1.3332
 8513TIP3   OH247029   6.118   2.351  16.674 -0.5151 -0.1629  0.3424
 8513TIP3    H147030   6.023   2.349  16.661 -0.8022 -1.4475  2.3036
 8513TIP3    H247031   6.138   2.443  16.694 -1.5667 -0.1283  1.2939
 8514TIP3   OH247032   0.246   1.467  11.361 -0.3403 -0.1648  0.1385
 8514TIP3    H147033   0.320   1.513  11.321 -0.6432  1.9554  1.8690
 8514TIP3    H247034   0.226   1.397  11.299  1.1336  1.0914 -1.8954
 8515TIP3   OH247035   0.775   5.436   2.751 -0.2065  0.0533  0.5237
 8515TIP3    H147036   0.819   5.516   2.781  0.1502 -0.6275  1.9175
 8515TIP3    H247037   0.845   5.370   2.748 -0.8640 -0.7034  1.4022
 8516TIP3   OH247038   2.394   4.886  11.854  0.0518  0.2231  0.0737
 8516TIP3    H147039   2.352   4.957  11.904 -0.5267  0.9595 -1.4083
 8516TIP3    H247040   2.397   4.919  11.764  0.2853 -1.4243 -0.5448
 8517TIP3   OH247041   2.790   0.474  12.961  0.0594 -0.1089 -0.7415
 8517TIP3    H147042   2.860   0.419  12.925  0.4898  0.7513 -1.2620
 8517TIP3    H247043   2.740   0.503  12.885 -0.1633  0.2152 -0.4750
 8518TIP3   OH247044   6.067   5.324  12.152 -0.1645 -0.1888  0.2125
 8518TIP3    H147045   6.029   5.295  12.235  0.4857  0.6972  0.8444
 8518TIP3    H247046   6.005   5.388  12.118 -0.7380 -1.0042 -0.3117
 8519TIP3   OH247047   5.622   0.546  11.268 -0.0099  0.6000  0.0411
 8519TIP3    H147048   5.563   0.570  11.196  0.3606 -2.3639 -1.3989
 8519TIP3    H247049   5.709   0.542  11.227  0.3133 -0.4870  0.7866
 8520TIP3   OH247050   0.880   3.100  12.290  0.0040  0.1478  0.4576
 8520TIP3    H147051   0.806   3.158  12.307  0.7371  0.8977  1.2248
 8520TIP3    H247052   0.957   3.158  12.294  0.8990 -1.0800  2.6006
 8521TIP3   OH247053   1.810   6.801  14.994  0.1573 -0.2983 -0.4935
 8521TIP3    H147054   1.716   6.810  14.978  0.5079 -0.5189 -2.9703
 8521TIP3    H247055   1.846   6.887  14.972  0.4076  0.3668  2.1547
 8522TIP3   OH247056   1.065   6.722  14.836 -0.2372 -0.4954  0.2925
 8522TIP3    H147057   1.092   6.631  14.820 -1.6806 -0.8728 -0.1702
 8522TIP3    H247058   1.067   6.731  14.931  0.2317 -0.9084  0.3297
 8523TIP3   OH247059   1.771   4.113   2.843  0.0384 -0.1210 -0.0267
 8523TIP3    H147060   1.791   4.168   2.919 -1.2254  1.7507 -0.9794
 8523TIP3    H247061   1.774   4.173   2.768 -1.8805 -1.2195 -1.0528
 8524TIP3   OH247062   5.561   6.736   3.581  0.3558  0.5971 -0.3863
 8524TIP3    H147063   5.477   6.779   3.566  0.7064  1.6552  0.5704
 8524TIP3    H247064   5.543   6.643   3.566 -0.6808  0.9314 -1.3928
 8525TIP3   OH247065   0.958   2.922  13.679 -0.2614  0.3369  0.0497
 8525TIP3    H147066   0.954   2.828  13.663  0.0905  0.4623 -0.8195
 8525TIP3    H247067   0.887   2.939  13.742 -0.8409 -0.3857 -0.3908
 8526TIP3   OH247068   4.781   0.565   3.386 -0.1622 -0.0770  0.6313
 8526TIP3    H147069   4.857   0.593   3.336 -0.8335 -0.9141 -0.9358
 8526TIP3    H247070   4.744   0.646   3.422 -0.5008  0.7676 -1.4944
 8527TIP3   OH247071   3.887   2.456  13.066 -0.2837  0.3482 -0.5622
 8527TIP3    H147072   3.869   2.547  13.087 -1.0245  0.2320 -0.6312
 8527TIP3    H247073   3.871   2.409  13.148  1.8103  0.4618 -0.0443
 8528TIP3   OH247074   3.110   5.932   0.533  0.5934 -0.2898 -0.3829
 8528TIP3    H147075   3.199   5.897   0.534  0.9944  0.6673  0.7802
 8528TIP3    H247076   3.096   5.962   0.623 -0.3555  0.9135 -0.9102
 8529TIP3   OH247077   4.057   2.737  14.436 -0.3854 -0.3734 -0.2637
 8529TIP3    H147078   4.047   2.699  14.348  2.8511  0.3799 -1.0819
 8529TIP3    H247079   4.093   2.824  14.421  2.4194 -1.0296  1.7585
 8530TIP3   OH247080   5.175   3.246   6.197 -0.5929  0.0149 -0.7372
 8530TIP3    H147081   5.111   3.232   6.127 -0.2808 -3.0167 -0.5742
 8530TIP3    H247082   5.214   3.159   6.211  0.6740  0.8988  1.9265
 8531TIP3   OH247083   2.101   5.555   3.361  0.2043 -0.4831  0.2705
 8531TIP3    H147084   2.191   5.551   3.330  0.7821  1.2426  1.6054
 8531TIP3    H247085   2.102   5.619   3.431 -1.9156 -1.0376  0.8887
 8532TIP3   OH247086   4.524   2.690   0.717  0.2599  0.1994  0.4501
 8532TIP3    H147087   4.561   2.604   0.735  2.1479  1.2606  1.9942
 8532TIP3    H247088   4.579   2.726   0.647 -1.3161 -0.2863 -1.1085
 8533TIP3   OH247089   3.447   4.452   6.899 -0.3050 -0.1822  0.1227
 8533TIP3    H147090   3.424   4.455   6.807 -0.0983 -1.6135  0.0040
 8533TIP3    H247091   3.469   4.360   6.916  2.2625  0.4731  0.9432
 8534TIP3   OH247092   4.924   1.208   3.118  0.4603  0.2575  0.5938
 8534TIP3    H147093   4.929   1.277   3.184 -0.4566  3.4944 -2.4182
 8534TIP3    H247094   4.832   1.183   3.117  0.7305 -0.8306  1.4435
 8535TIP3   OH247095   1.308   4.531  15.776  0.0699 -0.5668 -0.0042
 8535TIP3    H147096   1.358   4.610  15.751  2.5558 -2.3149 -0.9670
 8535TIP3    H247097   1.228   4.537  15.724  0.4807  1.0108 -0.5291
 8536TIP3   OH247098   3.861   5.210  15.958  0.4054  0.1445 -0.4031
 8536TIP3    H147099   3.782   5.212  15.904  0.6708  2.4256 -0.8256
 8536TIP3    H247100   3.929   5.246  15.901  2.0943 -2.8465 -0.4499
 8537TIP3   OH247101   5.954   0.474   1.349 -0.3383  0.3119  0.4830
 8537TIP3    H147102   5.989   0.385   1.339 -0.8096  0.0500  1.1113
 8537TIP3    H247103   5.917   0.495   1.263  1.6698  0.7494 -0.3370
 8538TIP3   OH247104   3.045   4.521  15.187 -0.4472 -0.7097 -0.4668
 8538TIP3    H147105   3.021   4.613  15.194  1.8606  0.1896 -2.7586
 8538TIP3    H247106   3.126   4.521  15.136 -0.0216 -3.9849 -0.0060
 8539TIP3   OH247107   3.605   0.509  11.357 -1.1942 -0.2740 -0.0036
 8539TIP3    H147108   3.549   0.583  11.333 -1.9497 -0.6536  0.5188
 8539TIP3    H247109   3.660   0.494  11.281 -0.2566  1.5188  0.2697
 8540TIP3   OH247110   2.818   2.927  14.289 -0.2605 -0.1126 -0.3670
 8540TIP3    H147111   2.865   2.945  14.371 -1.3778 -0.3013  0.3466
 8540TIP3    H247112   2.814   2.832  14.284 -1.0731 -0.0993 -0.1045
 8541TIP3   OH247113   0.255   1.100  14.072 -0.1907  0.2418  0.2618
 8541TIP3    H147114   0.307   1.064  14.001  0.9827  1.2828  0.5537
 8541TIP3    H247115   0.311   1.092  14.149 -0.5663  1.1263  0.6421
 8542TIP3   OH247116   2.667   4.575  14.755  0.0541  0.9697 -0.7875
 8542TIP3    H147117   2.653   4.486  14.722  2.9972 -0.6488  1.7408
 8542TIP3    H247118   2.591   4.593  14.810  0.0092 -0.5199 -0.3308
 8543TIP3   OH247119   1.838   4.627   2.258 -0.8486  0.0300 -0.3379
 8543TIP3    H147120   1.846   4.532   2.253 -0.6472  0.0623 -0.7066
 8543TIP3    H247121   1.906   4.660   2.198 -0.1458  0.4353  0.6630
 8544TIP3   OH247122   5.212   6.442  17.138 -0.3162  0.0607  0.0894
 8544TIP3    H147123   5.180   6.519  17.185 -0.6900  0.3827 -0.6754
 8544TIP3    H247124   5.210   6.467  17.046  0.8470 -0.3956 -0.0847
 8545TIP3   OH247125   3.397   2.424   5.553 -0.4075 -0.3104  0.1808
 8545TIP3    H147126   3.325   2.462   5.503  0.4854  0.5525 -0.4933
 8545TIP3    H247127   3.363   2.418   5.642 -0.5616  2.3614  0.3937
 8546TIP3   OH247128   4.270   5.519   3.589  0.0731 -0.5331 -0.0396
 8546TIP3    H147129   4.258   5.458   3.662  0.4756 -1.6208 -0.8447
 8546TIP3    H247130   4.363   5.539   3.589 -0.1833  0.7722  0.7240
 8547TIP3   OH247131   4.962   6.025  13.516  0.2734  0.4417  0.1904
 8547TIP3    H147132   4.972   6.068  13.601  2.4013  1.2425 -0.3890
 8547TIP3    H247133   5.003   6.085  13.454 -1.0202 -0.2422 -1.3925
 8548TIP3   OH247134   5.746   6.548   4.075 -0.4779 -0.1949  0.3156
 8548TIP3    H147135   5.678   6.481   4.072  1.0320 -1.7602 -1.2920
 8548TIP3    H247136   5.827   6.500   4.058  0.7327  1.9670 -0.3440
 8549TIP3   OH247137   6.303   2.921  14.883  0.5704  0.2537  0.0774
 8549TIP3    H147138   6.359   2.992  14.913  1.0735  0.5315 -1.4341
 8549TIP3    H247139   6.312   2.921  14.788 -0.7945 -0.7017 -0.0937
 8550TIP3   OH247140   3.218   3.267  12.332  0.5123 -0.6739  0.2691
 8550TIP3    H147141   3.178   3.276  12.246  0.8589  3.4471  0.3328
 8550TIP3    H247142   3.306   3.233  12.315 -0.0293 -1.5999 -0.7642
 8551TIP3   OH247143   0.111   0.097   1.340 -0.0634 -0.3046  0.0288
 8551TIP3    H147144   0.066   0.102   1.425 -2.6894  1.5347 -1.2999
 8551TIP3    H247145   0.077   0.018   1.299 -0.2456 -0.2158  0.0033
 8552TIP3   OH247146   4.862   2.627  16.422  0.4897 -0.2924  0.3939
 8552TIP3    H147147   4.778   2.624  16.467 -0.0483  0.0228 -0.5729
 8552TIP3    H247148   4.888   2.535  16.414 -0.4820 -0.4927 -0.6186
 8553TIP3   OH247149   2.649   4.540   2.230  0.5509 -0.0653 -0.6736
 8553TIP3    H147150   2.703   4.591   2.291 -0.3566 -0.4728  0.5007
 8553TIP3    H247151   2.667   4.449   2.253  0.3519 -0.2304 -1.1686
 8554TIP3   OH247152   5.635   4.421  14.900 -0.2115 -0.8636  0.5775
 8554TIP3    H147153   5.586   4.474  14.962  0.2867 -2.1169  2.0992
 8554TIP3    H247154   5.583   4.424  14.819  0.0601  2.2897  0.3934
 8555TIP3   OH247155   2.253   6.487  12.084 -0.2225  0.2551 -0.4507
 8555TIP3    H147156   2.280   6.463  11.995 -2.8052  0.0920 -1.2914
 8555TIP3    H247157   2.252   6.583  12.084 -0.9926  0.2583 -0.9014
 8556TIP3   OH247158   0.533   5.805   0.083  0.1311  0.3827 -0.3373
 8556TIP3    H147159   0.444   5.771   0.066  0.8543 -0.8301 -1.9911
 8556TIP3    H247160   0.569   5.744   0.147  0.1928  0.1341 -0.6059
 8557TIP3   OH247161   1.975   5.005  12.248  0.7484 -0.6846  0.0026
 8557TIP3    H147162   1.999   5.091  12.213 -0.1982 -0.7514 -0.8488
 8557TIP3    H247163   1.884   5.015  12.275  0.4351 -1.5687 -0.6709
 8558TIP3   OH247164   2.471   4.541   6.067  0.5429 -0.0212  0.4334
 8558TIP3    H147165   2.380   4.556   6.094  0.7664  0.0596  1.1699
 8558TIP3    H247166   2.510   4.494   6.141  0.4458 -2.3417 -0.9163
 8559TIP3   OH247167   3.250   2.660  17.176 -0.2621 -0.4768  0.1939
 8559TIP3    H147168   3.246   2.755  17.165  2.9609 -0.1819  0.5864
 8559TIP3    H247169   3.240   2.624  17.088  0.9235  0.4171 -0.3301
 8560TIP3   OH247170   0.202   6.295   3.717 -0.3468 -0.3193  0.2062
 8560TIP3    H147171   0.208   6.382   3.758  2.5929 -0.4647  0.2827
 8560TIP3    H247172   0.137   6.249   3.769 -0.4756  1.1852  1.4632
 8561TIP3   OH247173   6.111   0.820   3.037  0.0664  0.2861  0.4619
 8561TIP3    H147174   6.062   0.765   2.977 -1.1317 -0.3248  1.9169
 8561TIP3    H247175   6.193   0.773   3.052  0.7519  0.8531 -1.2711
 8562TIP3   OH247176   5.163   4.437  12.973  0.6606  0.4424  0.3162
 8562TIP3    H147177   5.225   4.509  12.958  1.6827 -0.5686 -0.4570
 8562TIP3    H247178   5.099   4.447  12.902  0.0451  1.3394  0.9694
 8563TIP3   OH247179   4.751   1.489   3.825 -0.0219 -0.6481  0.1959
 8563TIP3    H147180   4.803   1.432   3.882  0.9069 -0.0608 -0.0501
 8563TIP3    H247181   4.696   1.428   3.775  0.9742 -1.3415 -0.0933
 8564TIP3   OH247182   1.219   5.516   1.323  0.1190 -0.0297 -0.0531
 8564TIP3    H147183   1.303   5.556   1.299  0.7189 -1.8764 -1.2229
 8564TIP3    H247184   1.224   5.504   1.418  1.0140  0.2173 -0.0605
 8565TIP3   OH247185   2.203   5.850  12.712  0.5680 -0.1023  0.0105
 8565TIP3    H147186   2.144   5.867  12.785 -0.0319  0.8127 -0.6668
 8565TIP3    H247187   2.286   5.889  12.739  0.2580  0.5254  0.0801
 8566TIP3   OH247188   6.791   3.613  11.679  0.3610  0.1956  0.5897
 8566TIP3    H147189   6.828   3.649  11.598 -0.8945 -0.3632 -0.2634
 8566TIP3    H247190   6.784   3.689  11.737  2.6300  0.3613  0.7582
 8567TIP3   OH247191   0.425   5.587  11.990 -0.8549 -0.0117 -0.6196
 8567TIP3    H147192   0.463   5.515  11.940  2.3162  1.7712 -1.0490
 8567TIP3    H247193   0.448   5.568  12.081  2.3213  1.5501 -0.9661
 8568TIP3   OH247194   6.704   5.720  14.836  0.1344 -0.1720  0.0948
 8568TIP3    H147195   6.721   5.730  14.929  2.8734  0.8263 -0.4311
 8568TIP3    H247196   6.684   5.626  14.825 -0.7788 -0.1935  1.7142
 8569TIP3   OH247197   3.038   6.318  16.927 -0.1257  0.1610 -0.9346
 8569TIP3    H147198   3.089   6.387  16.969 -0.2219 -0.7451  0.7756
 8569TIP3    H247199   3.021   6.350  16.839  0.9489  1.7273 -0.6063
 8570TIP3   OH247200   1.752   5.314   5.539 -0.2760 -0.3338 -0.0047
 8570TIP3    H147201   1.790   5.262   5.610 -0.3481 -0.2498  0.0945
 8570TIP3    H247202   1.720   5.394   5.581 -2.0363 -1.0953  0.1925
 8571TIP3   OH247203   0.493   6.314  11.813  0.2330  0.2703 -0.2128
 8571TIP3    H147204   0.542   6.266  11.879 -0.4603  0.8301  0.7294
 8571TIP3    H247205   0.432   6.369  11.863 -0.5718  0.4183 -1.3219
 8572TIP3   OH247206   5.574   1.046   3.945  0.7308 -0.0097 -0.7500
 8572TIP3    H147207   5.509   0.980   3.969  0.7669 -0.6361 -2.2829
 8572TIP3    H247208   5.521   1.121   3.916  0.6807 -0.3305 -1.5034
 8573TIP3   OH247209   6.291   3.705   6.028  0.3399 -0.3493 -0.2413
 8573TIP3    H147210   6.274   3.767   5.957  2.2242  0.8924  0.3130
 8573TIP3    H247211   6.225   3.725   6.094  0.1098  0.1667 -0.6186
 8574TIP3   OH247212   1.089   5.484  13.572  0.1045 -0.2772 -0.2595
 8574TIP3    H147213   0.999   5.465  13.599 -0.5285 -0.5697 -2.4114
 8574TIP3    H247214   1.141   5.463  13.649 -1.5551 -1.1770  0.6859
 8575TIP3   OH247215   2.658   2.998  15.210  0.7703 -0.0211 -0.3282
 8575TIP3    H147216   2.675   3.079  15.259 -0.6339  0.1507 -0.0816
 8575TIP3    H247217   2.583   3.019  15.155  1.2963 -0.7301 -1.3548
 8576TIP3   OH247218   1.566   0.228   0.272  0.2985  0.1439  0.4236
 8576TIP3    H147219   1.495   0.231   0.337 -0.6016  0.5897 -0.5460
 8576TIP3    H247220   1.558   0.311   0.225  0.9329 -0.1776 -0.2565
 8577TIP3   OH247221   5.188   4.789  11.618 -0.1837 -0.1622  0.1840
 8577TIP3    H147222   5.202   4.740  11.699  2.7535 -1.1646 -0.8018
 8577TIP3    H247223   5.158   4.724  11.555 -2.2526  0.5737  0.3326
 8578TIP3   OH247224   1.720   1.933   5.436 -0.3009  0.0713 -0.2235
 8578TIP3    H147225   1.796   1.979   5.471  0.2329 -0.1635 -1.0532
 8578TIP3    H247226   1.664   1.918   5.512  0.6077  0.0047  0.4439
 8579TIP3   OH247227   1.082   0.610   4.056 -0.8083  0.3878 -0.7101
 8579TIP3    H147228   1.023   0.587   3.984 -0.6791 -1.0102 -0.4045
 8579TIP3    H247229   1.030   0.594   4.135 -0.1571 -0.5491 -0.4505
 8580TIP3   OH247230   4.848   5.280   6.112  1.1316  0.2034  0.5168
 8580TIP3    H147231   4.894   5.236   6.184  2.1985  1.1329  0.4324
 8580TIP3    H247232   4.824   5.365   6.149  0.4100  0.1365  0.2103
 8581TIP3   OH247233   2.316   1.093  16.791 -0.1548 -0.4104  0.2701
 8581TIP3    H147234   2.271   1.024  16.840 -1.1717  0.7661  1.0574
 8581TIP3    H247235   2.409   1.073  16.802 -0.3081 -0.0335  3.0078
 8582TIP3   OH247236   6.172   2.429   4.633 -0.1360  0.3265 -0.0825
 8582TIP3    H147237   6.113   2.474   4.693  1.0131  0.2038  1.2033
 8582TIP3    H247238   6.253   2.420   4.682 -0.5484 -4.0094  0.1359
 8583TIP3   OH247239   4.796   1.386  11.883  0.2244 -0.0870  0.1875
 8583TIP3    H147240   4.858   1.402  11.955 -0.1281  2.6996 -0.0169
 8583TIP3    H247241   4.729   1.453  11.894 -2.5577 -2.6226  0.0355
 8584TIP3   OH247242   4.171   1.168   1.858 -0.2088  0.4168 -0.0035
 8584TIP3    H147243   4.108   1.225   1.816  0.9954  0.8114 -1.3453
 8584TIP3    H247244   4.191   1.211   1.941 -2.1263 -0.0404  0.7350
 8585TIP3   OH247245   4.597   6.788   1.137  0.3884  0.8278 -0.5788
 8585TIP3    H147246   4.660   6.768   1.206 -1.5063  2.5967  1.8592
 8585TIP3    H247247   4.641   6.854   1.083  1.2374  0.7507 -0.0025
 8586TIP3   OH247248   1.151   1.969  13.809 -0.3256  0.2623  0.1784
 8586TIP3    H147249   1.101   1.889  13.791 -2.5452  1.4544  0.6529
 8586TIP3    H247250   1.105   2.010  13.883  1.2964  1.5245  0.5405
 8587TIP3   OH247251   2.553   4.005  14.520  0.7708  0.6972  0.0192
 8587TIP3    H147252   2.560   3.927  14.464 -0.8167  0.5400 -0.0102
 8587TIP3    H247253   2.575   4.078  14.463  0.3064  0.4299 -0.5181
 8588TIP3   OH247254   6.498   1.232  13.393 -0.3316  0.1154  0.0783
 8588TIP3    H147255   6.522   1.179  13.317 -0.0931  0.5615 -0.1640
 8588TIP3    H247256   6.538   1.187  13.467  0.3994  0.2912 -0.1986
 8589TIP3   OH247257   6.669   6.808  13.415  0.0023 -0.0883 -0.2764
 8589TIP3    H147258   6.617   6.739  13.455  0.3357  0.7223  1.6547
 8589TIP3    H247259   6.747   6.763  13.381 -0.1921 -0.7830  0.1832
 8590TIP3   OH247260   0.057   3.804   2.468  0.4183 -0.0831 -0.5686
 8590TIP3    H147261  -0.032   3.774   2.447  0.2067 -0.7213  1.0983
 8590TIP3    H247262   0.084   3.854   2.391 -1.5903  0.5633 -0.9251
 8591TIP3   OH247263   4.522   4.055  14.714  0.0486 -0.1189 -0.3533
 8591TIP3    H147264   4.535   4.097  14.799 -0.1684  0.0759 -0.4133
 8591TIP3    H247265   4.534   4.126  14.651  0.8548 -0.3991 -0.5234
 8592TIP3   OH247266   0.406   5.642   0.628  0.5361 -0.3748  0.2685
 8592TIP3    H147267   0.345   5.596   0.686 -0.6632 -0.1593 -0.7956
 8592TIP3    H247268   0.481   5.662   0.684  0.9392 -3.2368  0.8863
 8593TIP3   OH247269   5.145   2.249   2.080 -0.0105  0.3977 -0.2941
 8593TIP3    H147270   5.155   2.340   2.052 -0.8665  0.6559  0.2172
 8593TIP3    H247271   5.057   2.244   2.118  0.7131 -0.1876  1.4067
 8594TIP3   OH247272   0.489   0.791   4.389  0.5352 -0.0586  0.5533
 8594TIP3    H147273   0.486   0.868   4.445  0.6442 -0.0019  0.4828
 8594TIP3    H247274   0.562   0.808   4.329  0.4576 -0.1434  0.4327
 8595TIP3   OH247275   6.837   4.618   0.686 -0.0362 -0.1613 -0.1167
 8595TIP3    H147276   6.862   4.710   0.683 -3.7663  1.0158 -0.2102
 8595TIP3    H247277   6.807   4.604   0.776 -1.2964 -0.6726 -0.5865
 8596TIP3   OH247278   6.256   1.441   2.330  0.1469  0.1302  0.5705
 8596TIP3    H147279   6.331   1.384   2.347 -0.8567 -0.9794  1.5345
 8596TIP3    H247280   6.182   1.397   2.373 -0.9217  1.5482  0.2846
 8597TIP3   OH247281   5.330   5.403  13.794  0.3507 -0.4749  0.0730
 8597TIP3    H147282   5.313   5.488  13.753 -2.8386 -0.7477  0.5593
 8597TIP3    H247283   5.345   5.344  13.720 -2.9149 -0.4827 -0.7343
 8598TIP3   OH247284   2.358   2.751   3.780 -0.1147  0.0283  0.2871
 8598TIP3    H147285   2.444   2.771   3.818 -0.0169 -0.6585  0.4300
 8598TIP3    H247286   2.304   2.725   3.854 -0.1340 -0.6076  0.0508
 8599TIP3   OH247287   4.802   3.672   0.853  0.7664 -0.6691  0.7732
 8599TIP3    H147288   4.879   3.694   0.800  0.0415  0.7002  0.2342
 8599TIP3    H247289   4.762   3.597   0.808  1.5587 -1.1593  0.8578
 8600TIP3   OH247290   1.351   2.236   0.527  0.2764 -0.5869  0.0789
 8600TIP3    H147291   1.412   2.232   0.453 -0.3680 -0.7565 -0.4507
 8600TIP3    H247292   1.396   2.290   0.592  0.3018  0.7163 -0.9684
 8601TIP3   OH247293   5.320   2.513   4.926 -0.2208  0.5337 -0.7224
 8601TIP3    H147294   5.376   2.578   4.883  0.2019  0.1988 -0.6803
 8601TIP3    H247295   5.323   2.535   5.019 -0.9492  1.1146 -0.8214
 8602TIP3   OH247296   1.613   0.916  13.380 -0.1658 -0.3663 -0.1925
 8602TIP3    H147297   1.679   0.958  13.325  1.7609 -0.7831  1.6942
 8602TIP3    H247298   1.569   0.989  13.425  1.1294 -0.2041  0.8413
 8603TIP3   OH247299   3.057   3.761  16.514  0.3803 -0.1629  0.4210
 8603TIP3    H147300   3.125   3.813  16.470 -0.4336  1.5033  1.0210
 8603TIP3    H247301   3.097   3.732  16.595  0.8202 -0.4095  0.1185
 8604TIP3   OH247302   0.769   1.764   2.184  0.0985  0.2796  0.4886
 8604TIP3    H147303   0.794   1.676   2.158 -0.0063  0.3883  0.0059
 8604TIP3    H247304   0.673   1.762   2.186 -0.0033  0.9669 -1.6893
 8605TIP3   OH247305   4.587   3.828   2.721 -0.3630  0.5734 -0.0674
 8605TIP3    H147306   4.643   3.885   2.774 -0.5642  2.8867 -2.1674
 8605TIP3    H247307   4.640   3.807   2.645  0.3800 -3.6990  1.3457
 8606TIP3   OH247308   4.889   5.577   1.661  0.1673  0.4007 -0.1357
 8606TIP3    H147309   4.923   5.505   1.714 -0.2284  1.6509  1.9844
 8606TIP3    H247310   4.805   5.546   1.628 -0.1153 -0.0385  0.9634
 8607TIP3   OH247311   3.191   0.541   4.575  0.3476  0.0229 -0.1003
 8607TIP3    H147312   3.284   0.544   4.601  0.1501  0.4348  0.5960
 8607TIP3    H247313   3.144   0.530   4.658 -0.1726 -1.3101 -0.5453
 8608TIP3   OH247314   4.509   2.532  12.416 -0.0393 -0.1308 -0.2878
 8608TIP3    H147315   4.494   2.625  12.437 -0.1781 -0.0677 -0.6570
 8608TIP3    H247316   4.597   2.529  12.380  0.4352 -0.3337  0.8614
 8609TIP3   OH247317   5.079   4.853  15.878  0.1250  0.5922  0.2170
 8609TIP3    H147318   5.068   4.939  15.920 -1.2088  0.6726 -0.2379
 8609TIP3    H247319   5.007   4.848  15.816 -0.8663 -1.5552  1.4343
 8610TIP3   OH247320   1.319   6.669   2.792 -0.0550 -0.5542  0.0384
 8610TIP3    H147321   1.346   6.595   2.738  0.9553 -1.3139  1.4969
 8610TIP3    H247322   1.269   6.629   2.863 -0.9946  0.3673 -0.0954
 8611TIP3   OH247323   5.053   6.640   2.492  0.0839  0.5485  0.2437
 8611TIP3    H147324   4.972   6.623   2.444 -0.1914  0.6851  0.6536
 8611TIP3    H247325   5.116   6.578   2.455 -0.1842  0.4992 -0.1374
 8612TIP3   OH247326   1.114   6.265   3.844  0.0565 -0.3874 -0.3443
 8612TIP3    H147327   1.050   6.337   3.846  0.8811  0.3494  0.4944
 8612TIP3    H247328   1.142   6.256   3.935  0.4058 -1.3890 -0.5407
 8613TIP3   OH247329   4.112   6.372  16.817 -0.0910 -0.0035  0.5136
 8613TIP3    H147330   4.120   6.466  16.803  0.3306  0.1628  1.7317
 8613TIP3    H247331   4.188   6.334  16.773 -0.5114  0.1708 -0.3807
 8614TIP3   OH247332   6.657   0.023  11.434  0.0644 -0.1851 -0.6905
 8614TIP3    H147333   6.670  -0.055  11.488 -3.4435  0.2072  0.9998
 8614TIP3    H247334   6.608  -0.009  11.358  1.5541 -0.0777 -1.7454
 8615TIP3   OH247335   0.132   0.538   5.654 -0.1007 -0.2968 -0.3900
 8615TIP3    H147336   0.160   0.468   5.713  0.5624  1.9787  2.1920
 8615TIP3    H247337   0.211   0.559   5.604  0.6583  0.7614  1.1935
 8616TIP3   OH247338   5.971   3.004   0.406 -0.3826 -0.4260  0.0474
 8616TIP3    H147339   6.007   3.041   0.326  2.2672 -0.7652  0.9636
 8616TIP3    H247340   5.911   3.070   0.439  0.7851  1.0573 -0.6874
 8617TIP3   OH247341   4.281   1.570   2.507  0.1747  0.1764  0.3309
 8617TIP3    H147342   4.230   1.649   2.490 -0.0237  0.1316  0.7021
 8617TIP3    H247343   4.371   1.595   2.486  0.1894  0.6655  0.9275
 8618TIP3   OH247344   6.820   6.273  12.287  0.2290 -0.6945  0.2826
 8618TIP3    H147345   6.839   6.304  12.376 -0.3088  0.2339  0.0902
 8618TIP3    H247346   6.738   6.224  12.295 -0.7584  0.8439  0.0418
 8619TIP3   OH247347   3.795   5.327  14.321 -0.0826  0.1563 -0.7614
 8619TIP3    H147348   3.794   5.232  14.310  3.0709 -0.2310  1.0271
 8619TIP3    H247349   3.774   5.341  14.413 -2.5810  1.4620 -1.4310
 8620TIP3   OH247350   2.275   5.593   1.063  0.0697 -0.2143 -0.0496
 8620TIP3    H147351   2.244   5.569   1.151  0.9918 -2.8436 -0.3612
 8620TIP3    H247352   2.201   5.573   1.006 -0.7001  1.9314  0.0824
 8621TIP3   OH247353   4.966   6.102   6.188  0.7237  0.3161 -0.0888
 8621TIP3    H147354   4.972   6.025   6.131 -1.0392  0.5164 -0.5914
 8621TIP3    H247355   4.993   6.069   6.275 -3.1801 -1.8559  0.5188
 8622TIP3   OH247356   0.425   4.377   0.178  0.1632  0.5878  0.2166
 8622TIP3    H147357   0.521   4.375   0.184  0.3015  2.8466 -0.1019
 8622TIP3    H247358   0.403   4.310   0.114  1.5331 -0.0150  0.3528
 8623TIP3   OH247359   5.273   3.612   1.730 -0.5568  0.2288  0.4606
 8623TIP3    H147360   5.284   3.612   1.635  2.2090  2.5814  0.6596
 8623TIP3    H247361   5.204   3.547   1.745 -0.6886 -0.6917 -3.0597
 8624TIP3   OH247362   2.587   2.141   5.125 -0.0103  0.8224  0.0133
 8624TIP3    H147363   2.651   2.142   5.197  0.2795  1.1085 -0.2406
 8624TIP3    H247364   2.518   2.083   5.155  0.1574  0.8578  0.4827
 8625TIP3   OH247365   6.648   3.745   5.450 -0.0808 -0.4316  0.5258
 8625TIP3    H147366   6.605   3.668   5.413  0.6033 -0.9342  0.7412
 8625TIP3    H247367   6.724   3.709   5.497  0.0092  0.3387  0.9875
 8626TIP3   OH247368   0.447   5.677   6.036  0.1023  0.1527  0.1598
 8626TIP3    H147369   0.427   5.583   6.037  1.7089 -0.2540  2.2076
 8626TIP3    H247370   0.369   5.719   6.072  0.4849 -0.7802  2.2577
 8627TIP3   OH247371   4.187   1.649  14.710  0.4684  0.3659 -0.4410
 8627TIP3    H147372   4.194   1.692  14.625  0.6665  0.3260 -0.4453
 8627TIP3    H247373   4.093   1.652  14.731 -0.4342 -3.6850 -2.8062
 8628TIP3   OH247374   0.099   3.092  11.775 -0.1308  0.1199  1.2552
 8628TIP3    H147375   0.041   3.073  11.849  0.9291  0.0611  2.0842
 8628TIP3    H247376   0.176   3.039  11.790 -0.3034 -0.6849 -0.4566
 8629TIP3   OH247377   4.954   3.688   4.679  0.6458 -0.3736  0.1770
 8629TIP3    H147378   5.001   3.616   4.720  1.0937 -0.5313 -0.6116
 8629TIP3    H247379   5.015   3.723   4.614  1.1764  1.8963  1.7667
 8630TIP3   OH247380   3.278   6.411  15.785  0.2971 -0.2911  0.2964
 8630TIP3    H147381   3.245   6.450  15.866 -0.0776 -0.9981  0.5000
 8630TIP3    H247382   3.367   6.382  15.806  0.7911  0.9275 -0.0238
 8631TIP3   OH247383   1.867   4.448  13.895  0.8313  0.0383  0.4015
 8631TIP3    H147384   1.821   4.366  13.881 -1.5788  1.4144 -0.3788
 8631TIP3    H247385   1.878   4.485  13.807  1.8750  0.5727  0.7401
 8632TIP3   OH247386   2.832   6.214  10.876  0.2883  0.4318  0.2557
 8632TIP3    H147387   2.772   6.285  10.898 -2.6367 -0.3808 -4.0284
 8632TIP3    H247388   2.876   6.244  10.796  2.8035 -0.6410  1.1440
 8633TIP3   OH247389   6.800   4.532   1.377 -0.3596 -0.1724 -0.1557
 8633TIP3    H147390   6.878   4.569   1.419 -0.4070 -1.9174  1.6074
 8633TIP3    H247391   6.822   4.441   1.360 -1.8383 -0.5755 -0.0745
 8634TIP3   OH247392   1.111   1.097  14.937  0.8007  0.7328 -0.3887
 8634TIP3    H147393   1.030   1.073  14.892  0.0704  0.5421  0.9897
 8634TIP3    H247394   1.141   1.015  14.977  1.4135  0.9089 -0.4852
 8635TIP3   OH247395   1.288   2.929  14.078 -0.3045 -0.0781  0.2966
 8635TIP3    H147396   1.240   2.876  14.141 -1.0537 -0.2760 -0.4259
 8635TIP3    H247397   1.380   2.909  14.095 -0.5213 -0.5389  0.9615
 8636TIP3   OH247398   0.769   1.009  13.423  0.5534 -0.1209 -0.4159
 8636TIP3    H147399   0.704   1.076  13.401  0.8608 -0.3115 -1.9885
 8636TIP3    H247400   0.719   0.928  13.429  0.2726  0.1280  0.9131
 8637TIP3   OH247401   3.449   5.257  16.980  0.2206  0.0350  0.4378
 8637TIP3    H147402   3.455   5.247  16.885 -1.3043  0.5197  0.2682
 8637TIP3    H247403   3.378   5.319  16.994 -1.4048 -2.0124  1.9621
 8638TIP3   OH247404   0.159   5.673  11.140  0.3767 -0.0980 -0.4280
 8638TIP3    H147405   0.137   5.675  11.233 -2.0403 -0.0816 -0.9525
 8638TIP3    H247406   0.130   5.757  11.106 -0.0623 -0.6455 -1.4523
 8639TIP3   OH247407   1.074   5.879  14.016  0.3603 -0.1593 -0.3980
 8639TIP3    H147408   1.002   5.844  14.068  0.9847 -0.4295  0.2884
 8639TIP3    H247409   1.040   5.963  13.983  0.3493  0.5923  1.3938
 8640TIP3   OH247410   1.793   2.959   0.738  0.2775 -0.0790  0.0016
 8640TIP3    H147411   1.819   2.871   0.713  0.9655  0.0162  0.3600
 8640TIP3    H247412   1.756   2.997   0.658  0.0603 -0.6558 -0.1770
 8641TIP3   OH247413   3.423   1.487  16.105  0.3085 -0.3445  0.0345
 8641TIP3    H147414   3.465   1.534  16.033 -0.1749  1.2046  0.7253
 8641TIP3    H247415   3.338   1.459  16.070  1.2299 -2.1286 -0.8739
 8642TIP3   OH247416   6.020   4.889  14.709 -0.4555 -0.5389 -0.4414
 8642TIP3    H147417   6.010   4.981  14.732 -0.7326 -0.7345  0.2428
 8642TIP3    H247418   6.051   4.890  14.618  1.3640  0.2891  0.1292
 8643TIP3   OH247419   5.388   0.888  17.019  0.4342 -0.1021  0.1811
 8643TIP3    H147420   5.444   0.924  17.087  0.0470 -0.8705  0.9243
 8643TIP3    H247421   5.305   0.869  17.064 -0.1878  0.3669 -0.7362
 8644TIP3   OH247422   3.113   5.526  12.716  0.0780  0.2759 -0.7143
 8644TIP3    H147423   3.073   5.508  12.801  0.0433  0.1768 -0.7511
 8644TIP3    H247424   3.204   5.548  12.736  0.0008  0.5198 -0.6287
 8645TIP3   OH247425   6.185   5.252   0.072 -0.3470  0.1178 -0.2925
 8645TIP3    H147426   6.178   5.227  -0.020 -0.7074 -0.1258 -0.2011
 8645TIP3    H247427   6.181   5.347   0.072 -0.0950  0.1300 -0.5491
 8646TIP3   OH247428   3.625   1.494  11.204 -0.7724 -0.4266  0.0848
 8646TIP3    H147429   3.673   1.433  11.149 -0.3583 -0.1808  0.1665
 8646TIP3    H247430   3.597   1.564  11.145  0.7441  0.4719  0.3883
 8647TIP3   OH247431   2.545   1.036   5.631 -0.2263  0.1247  0.0589
 8647TIP3    H147432   2.493   1.101   5.678 -0.6920 -0.4075  0.2934
 8647TIP3    H247433   2.520   1.047   5.539  0.2392  0.7632  0.0075
 8648TIP3   OH247434   2.547   3.687  16.603 -0.1477 -1.0022 -0.4107
 8648TIP3    H147435   2.520   3.632  16.677 -2.4553 -1.1955 -1.3055
 8648TIP3    H247436   2.489   3.661  16.532  0.9054  0.3362 -1.8253
 8649TIP3   OH247437   0.964   2.012  10.863 -0.2611 -0.1890 -0.1026
 8649TIP3    H147438   1.050   2.045  10.840  0.1703 -1.1618  0.0402
 8649TIP3    H247439   0.916   2.088  10.895  0.7420  0.2595  0.3750
 8650TIP3   OH247440   6.703   4.361   0.753  0.1914 -0.5324 -0.9749
 8650TIP3    H147441   6.783   4.322   0.719  2.0732  2.4326 -0.3330
 8650TIP3    H247442   6.733   4.421   0.821 -2.9379 -2.2387  2.2904
 8651TIP3   OH247443   4.802   4.815   2.222 -0.4056  0.0286 -0.7058
 8651TIP3    H147444   4.717   4.815   2.266 -0.2803 -1.1298 -0.4420
 8651TIP3    H247445   4.833   4.906   2.229 -0.4329 -0.0817  1.5360
 8652TIP3   OH247446   5.536   2.566   3.497 -0.3182 -0.0922 -0.4604
 8652TIP3    H147447   5.570   2.655   3.506  0.2351 -0.1104 -2.0033
 8652TIP3    H247448   5.507   2.542   3.585  0.5826  1.1818  0.2164
 8653TIP3   OH247449   1.495   2.584  13.425  0.1551  0.2164  0.1230
 8653TIP3    H147450   1.419   2.622  13.469  0.3452  0.1791  0.4883
 8653TIP3    H247451   1.530   2.655  13.372 -0.0098  0.2958  0.1190
 8654TIP3   OH247452   1.053   2.642   3.378 -0.1112  0.1766  0.3660
 8654TIP3    H147453   1.097   2.699   3.440  0.8205 -0.8834  0.7118
 8654TIP3    H247454   0.976   2.692   3.350  1.1169  1.9454 -0.0249
 8655TIP3   OH247455   6.650   2.816   1.079 -0.2753  0.5988 -0.1388
 8655TIP3    H147456   6.611   2.778   1.000  1.4368 -0.1014 -0.7053
 8655TIP3    H247457   6.668   2.907   1.055  0.0647  0.4391 -0.5067
 8656TIP3   OH247458   6.781   2.498  10.935 -0.6715  0.0647  0.0656
 8656TIP3    H147459   6.823   2.454  11.009 -1.3714  0.5406  0.7543
 8656TIP3    H247460   6.695   2.456  10.928 -1.5318  1.6112  1.0182
 8657TIP3   OH247461   3.070   1.823  10.421 -0.1310  0.0646 -0.5042
 8657TIP3    H147462   3.091   1.733  10.395  0.5981 -0.1116  0.6224
 8657TIP3    H247463   3.019   1.813  10.502  0.4436  0.6748 -0.0583
 8658TIP3   OH247464   6.083   5.917  14.204 -0.5570  0.2027  0.0635
 8658TIP3    H147465   5.996   5.954  14.221  0.1067  0.6166  2.9345
 8658TIP3    H247466   6.094   5.848  14.269  1.7422  1.0363  0.6663
 8659TIP3   OH247467   4.703   1.880  16.913 -0.3721 -0.7510 -0.2466
 8659TIP3    H147468   4.679   1.811  16.974  0.3866 -0.0205  0.9189
 8659TIP3    H247469   4.787   1.913  16.945  0.5216 -0.9600 -2.2290
 8660TIP3   OH247470   3.741   3.737  16.822  0.4853  0.3374 -0.1025
 8660TIP3    H147471   3.761   3.830  16.829 -0.9323  0.7165 -0.7335
 8660TIP3    H247472   3.646   3.734  16.807  0.4526 -1.2211  0.2711
 8661TIP3   OH247473   3.411   4.519   1.819  0.6489  0.0908 -0.1615
 8661TIP3    H147474   3.442   4.436   1.785 -0.2709  0.2037 -1.3197
 8661TIP3    H247475   3.469   4.584   1.781  0.6794  0.0725 -0.1465
 8662TIP3   OH247476   5.203   2.341   4.309  0.0826 -0.3510 -0.2675
 8662TIP3    H147477   5.177   2.432   4.297 -0.8768 -0.6758 -0.7022
 8662TIP3    H247478   5.194   2.326   4.404  0.8553  0.1779 -0.1028
 8663TIP3   OH247479   1.857   5.776   0.805  0.0316  0.1248  0.0460
 8663TIP3    H147480   1.854   5.869   0.782  1.7116  0.1058 -0.3686
 8663TIP3    H247481   1.771   5.757   0.842 -1.0734  1.3577 -1.7524
 8664TIP3   OH247482   4.648   4.106  14.373 -0.1576 -0.6767  0.1923
 8664TIP3    H147483   4.605   4.121  14.457  0.2870 -0.3152  0.3600
 8664TIP3    H247484   4.577   4.083  14.313 -0.5299 -0.5074  0.5639
 8665TIP3   OH247485   0.345   3.542  16.557 -0.0486 -0.2212 -0.1792
 8665TIP3    H147486   0.420   3.513  16.504 -0.8283  0.4686 -1.7112
 8665TIP3    H247487   0.290   3.464  16.565  0.5895 -0.6126  0.5688
 8666TIP3   OH247488   5.865   0.574  15.942  0.3358  0.4398  0.1771
 8666TIP3    H147489   5.798   0.520  15.983 -0.2899  0.1810 -1.1261
 8666TIP3    H247490   5.947   0.549  15.986 -0.2014 -0.3066  0.7721
 8667TIP3   OH247491   4.837   1.082   2.764  1.0608  0.8766  0.0139
 8667TIP3    H147492   4.831   1.020   2.691 -1.2199 -0.7158  1.4152
 8667TIP3    H247493   4.769   1.147   2.747  0.4110  0.4107  0.7381
 8668TIP3   OH247494   0.500   0.520  16.972  0.4111 -0.6743  0.1505
 8668TIP3    H147495   0.465   0.492  17.056 -0.3654  0.1339  0.1103
 8668TIP3    H247496   0.423   0.545  16.921  0.9013 -0.7894 -0.6714
 8669TIP3   OH247497   6.528   0.300  15.754 -0.3881 -0.0685 -0.3897
 8669TIP3    H147498   6.543   0.206  15.751  0.4223  0.0751 -1.6250
 8669TIP3    H247499   6.543   0.330  15.664  3.3214  1.7901  0.6002
 8670TIP3   OH247500   3.455   5.025   6.211 -0.2711 -0.2436 -0.1240
 8670TIP3    H147501   3.374   4.974   6.213 -0.5381  0.1769 -0.0338
 8670TIP3    H247502   3.525   4.960   6.217 -0.6266 -0.5082  1.3405
 8671TIP3   OH247503   5.240   0.854  15.725  0.0340  0.2168  0.4570
 8671TIP3    H147504   5.323   0.849  15.678  0.6694 -0.2827  1.5808
 8671TIP3    H247505   5.190   0.778  15.695  0.8037 -0.6222  1.2233
 8672TIP3   OH247506   1.748   5.078  13.614  0.2699 -0.1869 -0.0069
 8672TIP3    H147507   1.744   4.983  13.609  0.1974 -0.2278  0.6749
 8672TIP3    H247508   1.717   5.098  13.702  1.8068  0.3715  0.4396
 8673TIP3   OH247509   5.370   1.371  14.388  0.7602 -0.2180 -0.0656
 8673TIP3    H147510   5.403   1.302  14.445  1.7660  0.8922  0.7679
 8673TIP3    H247511   5.412   1.451  14.421 -2.1036  1.1937  0.5222
 8674TIP3   OH247512   0.416   3.329  15.327 -0.3419  0.2873 -0.0204
 8674TIP3    H147513   0.420   3.306  15.420 -1.1647  0.8347  0.1656
 8674TIP3    H247514   0.466   3.410  15.320  1.5708 -0.8743 -0.4659
 8675TIP3   OH247515   6.788   4.133  16.182 -0.4099 -0.3057 -0.4157
 8675TIP3    H147516   6.780   4.050  16.135 -1.1257  0.3312 -1.4761
 8675TIP3    H247517   6.718   4.130  16.247  0.0059 -0.8147  0.0177
 8676TIP3   OH247518   3.144   3.679   5.601  0.0402  0.0156 -0.1772
 8676TIP3    H147519   3.164   3.611   5.666  1.8259  1.0788  0.4434
 8676TIP3    H247520   3.125   3.757   5.654 -1.4513  0.1832 -0.8954
 8677TIP3   OH247521   0.486   6.813  10.931  0.0907  0.0695  0.0360
 8677TIP3    H147522   0.527   6.886  10.885  2.0877 -0.3408  1.0331
 8677TIP3    H247523   0.402   6.801  10.888  2.0357 -0.7422 -4.0738
 8678TIP3   OH247524   0.795   0.139  14.542 -0.0042 -0.9006  0.1645
 8678TIP3    H147525   0.873   0.085  14.554  0.5239 -0.6306 -1.6575
 8678TIP3    H247526   0.741   0.121  14.619  0.6517 -3.1481  0.1859
 8679TIP3   OH247527   1.592   0.623  16.144  0.3612 -0.3041 -0.3088
 8679TIP3    H147528   1.627   0.711  16.130  1.1471 -0.4392  0.6590
 8679TIP3    H247529   1.597   0.611  16.239  0.4884 -1.4812 -0.4563
 8680TIP3   OH247530   5.198   2.886  13.070 -0.2518 -0.7894 -0.0647
 8680TIP3    H147531   5.266   2.898  13.004  0.2985  2.4323  0.9130
 8680TIP3    H247532   5.203   2.794  13.094  1.7062 -1.3124 -2.1770
 8681TIP3   OH247533   5.610   2.264   0.258 -0.1420 -0.4830 -0.7432
 8681TIP3    H147534   5.568   2.326   0.317  1.1046 -0.2747 -0.0206
 8681TIP3    H247535   5.629   2.315   0.179  3.6115  1.1033  0.9190
 8682TIP3   OH247536   5.904   5.929  12.274 -0.9204 -0.4255 -0.6702
 8682TIP3    H147537   5.932   5.846  12.313 -2.7275 -0.5260  0.5492
 8682TIP3    H247538   5.865   5.978  12.346  2.1576  2.5967 -0.7954
 8683TIP3   OH247539   0.674   6.135   4.884 -0.0363  0.2593 -0.1205
 8683TIP3    H147540   0.619   6.125   4.962 -0.4965 -0.9325 -0.5695
 8683TIP3    H247541   0.617   6.178   4.820 -0.4734 -0.9303 -0.5691
 8684TIP3   OH247542   2.963   3.610   2.925 -0.5310  0.7951  0.0257
 8684TIP3    H147543   2.885   3.554   2.926 -2.2065  2.9399 -0.0557
 8684TIP3    H247544   3.009   3.586   2.845 -1.6079  0.0286 -0.3945
 8685TIP3   OH247545   1.445   3.307   2.360 -0.1165  0.1431  0.3173
 8685TIP3    H147546   1.418   3.215   2.366  0.5534 -0.0451  0.5826
 8685TIP3    H247547   1.371   3.351   2.318 -0.1414 -0.6484 -0.5019
 8686TIP3   OH247548   4.512   6.426   1.322 -0.2043 -0.1251  0.1534
 8686TIP3    H147549   4.607   6.438   1.331 -0.0313 -0.3945 -1.1178
 8686TIP3    H247550   4.477   6.515   1.318  0.1056 -0.0177 -0.2941
 8687TIP3   OH247551   4.119   4.902   4.843  0.4298 -0.0872  0.2760
 8687TIP3    H147552   4.028   4.894   4.873 -0.2023 -2.2430 -1.9108
 8687TIP3    H247553   4.169   4.845   4.901  0.3657  0.8649  1.2922
 8688TIP3   OH247554   2.319   2.674  11.478 -0.3036 -0.8463  0.3778
 8688TIP3    H147555   2.252   2.715  11.533 -4.0797 -2.9308 -2.2219
 8688TIP3    H247556   2.341   2.593  11.524  0.0847 -0.4207  0.9640
 8689TIP3   OH247557   1.866   4.300   1.886  0.9827 -0.2465  0.2069
 8689TIP3    H147558   1.811   4.247   1.944  1.2243  0.5342  1.1716
 8689TIP3    H247559   1.823   4.294   1.800  0.2077 -0.8302  0.6272
 8690TIP3   OH247560   3.199   6.451   4.230  0.0949  0.1803  0.2763
 8690TIP3    H147561   3.241   6.410   4.305 -0.4785 -1.2954 -0.1696
 8690TIP3    H247562   3.125   6.500   4.267  0.0067 -0.2741  0.7088
 8691TIP3   OH247563   3.907   2.406  15.058  0.2486 -0.0087  0.0942
 8691TIP3    H147564   3.858   2.488  15.072  1.8853  0.8281  1.2920
 8691TIP3    H247565   3.962   2.424  14.982 -0.8586 -0.7514 -0.9076
 8692TIP3   OH247566   1.340   4.976   4.248 -0.1898 -0.0969  0.3912
 8692TIP3    H147567   1.323   4.882   4.240 -0.9259 -0.0651  1.3435
 8692TIP3    H247568   1.258   5.012   4.283 -0.5564  1.1806 -1.6303
 8693TIP3   OH247569   0.601   5.248   2.857 -0.4252  0.0619  0.4191
 8693TIP3    H147570   0.660   5.301   2.804 -0.2455 -0.3575  0.1963
 8693TIP3    H247571   0.534   5.219   2.796 -1.3252  1.1943  0.8333
 8694TIP3   OH247572   3.464   3.674  12.145 -0.3230 -0.1410 -0.1219
 8694TIP3    H147573   3.522   3.693  12.218  1.5713 -1.7365 -1.1101
 8694TIP3    H247574   3.439   3.760  12.111  0.8003  0.6000  0.8464
 8695TIP3   OH247575   5.607   2.715  16.701 -0.4553 -0.0612  0.1594
 8695TIP3    H147576   5.574   2.696  16.613  0.8403 -1.4490 -0.0635
 8695TIP3    H247577   5.575   2.643  16.755  1.8941 -1.3260 -0.0159
 8696TIP3   OH247578   6.065   2.640  13.647 -0.1436  0.3537  0.2054
 8696TIP3    H147579   6.077   2.554  13.689 -1.9681 -0.2760 -0.4615
 8696TIP3    H247580   6.153   2.677  13.645  1.1471 -2.4369 -1.4310
 8697TIP3   OH247581   3.880   4.511  11.395 -0.6328 -0.1409 -1.1844
 8697TIP3    H147582   3.806   4.487  11.450 -1.1550  1.7314 -1.0116
 8697TIP3    H247583   3.943   4.439  11.406 -0.3253  0.4999  2.5436
 8698TIP3   OH247584   5.093   0.349  14.342 -0.2498 -0.8799 -0.4190
 8698TIP3    H147585   5.142   0.393  14.411  0.8437  1.7793 -2.6939
 8698TIP3    H247586   5.156   0.288  14.303  0.1290 -0.1384 -0.9914
 8699TIP3   OH247587   2.864   4.277   5.017 -0.1188 -0.4234 -0.5840
 8699TIP3    H147588   2.938   4.219   5.032 -0.7378 -1.3466 -1.0124
 8699TIP3    H247589   2.808   4.229   4.956 -0.9514  0.3608 -0.4559
 8700TIP3   OH247590   2.874   0.830   3.859 -0.6011  0.3342  0.6912
 8700TIP3    H147591   2.786   0.809   3.889 -0.6474 -0.0382  0.2892
 8700TIP3    H247592   2.864   0.853   3.767 -0.3549  0.8280  0.7814
 8701TIP3   OH247593   1.942   4.479   0.512 -0.6879  0.3427  0.1959
 8701TIP3    H147594   1.921   4.517   0.597 -2.3741  1.2816 -0.5946
 8701TIP3    H247595   2.014   4.419   0.530 -0.2967  1.2986  2.0970
 8702TIP3   OH247596   2.978   5.167  12.024 -1.0074 -0.1870 -0.1289
 8702TIP3    H147597   3.062   5.194  12.062 -0.1333 -0.6734 -1.5952
 8702TIP3    H247598   2.952   5.240  11.968 -0.3272 -0.9792 -1.5196
 8703TIP3   OH247599   1.320   6.513  12.810 -0.8307 -0.7776 -0.4319
 8703TIP3    H147600   1.276   6.597  12.816 -0.6247 -0.7344  0.6867
 8703TIP3    H247601   1.407   6.528  12.848 -0.6882 -1.4174 -0.4838
 8704TIP3   OH247602   3.271   1.453   2.505  0.4274 -0.2447  0.3094
 8704TIP3    H147603   3.284   1.498   2.422  0.3949  0.9777  0.9401
 8704TIP3    H247604   3.228   1.370   2.482  2.5283 -1.0184 -1.1008
 8705TIP3   OH247605   6.243   1.437   1.030  0.4773  0.4050  0.4581
 8705TIP3    H147606   6.305   1.404   1.095 -1.6980 -0.9019  2.0139
 8705TIP3    H247607   6.160   1.441   1.077 -0.9295  0.7078 -1.9100
 8706TIP3   OH247608   3.335   0.325   6.604  0.0738 -0.3126 -0.1309
 8706TIP3    H147609   3.316   0.247   6.552 -0.5732 -0.3872  0.2001
 8706TIP3    H247610   3.249   0.365   6.620  0.0532 -1.1066  2.1342
 8707TIP3   OH247611   1.368   3.783   3.738 -0.4995 -0.2914  0.5625
 8707TIP3    H147612   1.452   3.747   3.766  0.1102 -0.3764 -1.2403
 8707TIP3    H247613   1.390   3.864   3.692 -1.3469 -0.5365 -0.3191
 8708TIP3   OH247614   6.497   5.347  16.357 -0.0147 -0.2772 -0.5861
 8708TIP3    H147615   6.440   5.404  16.306  0.4344 -1.5201 -2.6009
 8708TIP3    H247616   6.441   5.273  16.382 -0.4595  0.7066  1.5639
 8709TIP3   OH247617   5.003   3.363  14.485  0.4815  0.0352  0.1803
 8709TIP3    H147618   4.951   3.309  14.425  0.7248 -1.3058  1.1244
 8709TIP3    H247619   5.053   3.300  14.537  2.6743  1.2526 -0.3146
 8710TIP3   OH247620   2.652   5.398  14.061  0.3309 -0.3348  0.0106
 8710TIP3    H147621   2.681   5.455  13.990  1.1421  1.7756  1.8933
 8710TIP3    H247622   2.562   5.424  14.078 -0.6716 -2.4387 -1.6455
 8711TIP3   OH247623   3.131   5.739  13.918 -0.2836  0.0924  0.1074
 8711TIP3    H147624   3.087   5.747  13.833 -0.2626 -1.3251 -0.0506
 8711TIP3    H247625   3.212   5.790  13.907 -0.1356 -0.3155 -0.8275
 8712TIP3   OH247626   2.340   3.422   3.188 -0.0676  0.5138 -0.1943
 8712TIP3    H147627   2.405   3.355   3.164  0.9380  1.1367  0.6945
 8712TIP3    H247628   2.362   3.497   3.134  0.9745  1.2535  1.1791
 8713TIP3   OH247629   6.155   0.755  11.904  0.0606  0.0543  0.4127
 8713TIP3    H147630   6.124   0.845  11.898 -3.0874 -0.9331  0.0495
 8713TIP3    H247631   6.207   0.742  11.825 -1.1580  0.9814 -0.5763
 8714TIP3   OH247632   3.657   6.689  11.050  0.0172  0.2313  0.6425
 8714TIP3    H147633   3.665   6.737  11.132 -0.1348  1.2833  0.0530
 8714TIP3    H247634   3.657   6.756  10.982 -0.5536 -0.5746 -0.1839
 8715TIP3   OH247635   5.740   3.048   5.824 -0.0296 -0.0310 -0.6557
 8715TIP3    H147636   5.760   3.070   5.915  0.6046 -2.1566 -0.2328
 8715TIP3    H247637   5.791   3.111   5.772 -0.5425  1.3193  0.4286
 8716TIP3   OH247638   2.914   2.012   4.911  0.2553 -0.1593 -0.4025
 8716TIP3    H147639   3.005   2.010   4.941 -0.0276 -0.5190  0.4466
 8716TIP3    H247640   2.862   2.016   4.991 -0.5001 -0.6055 -0.8629
 8717TIP3   OH247641   6.072   4.171  13.201 -0.4163 -0.4351 -0.7403
 8717TIP3    H147642   6.102   4.204  13.116  0.7745 -2.8164 -1.3182
 8717TIP3    H247643   5.987   4.213  13.214 -2.4099 -2.6082 -4.8671
 8718TIP3   OH247644   5.763   0.850  13.537  0.7224  0.7985 -0.6545
 8718TIP3    H147645   5.691   0.912  13.527  0.4213  0.2832 -1.8376
 8718TIP3    H247646   5.839   0.905  13.556  0.2989  1.4575 -0.8224
 8719TIP3   OH247647   3.675   3.385   1.846  0.0375  0.4554  0.6752
 8719TIP3    H147648   3.626   3.305   1.866 -0.0605  0.5774  0.9288
 8719TIP3    H247649   3.680   3.432   1.930 -0.5511  1.0718  0.3752
 8720TIP3   OH247650   3.905   6.644  14.320 -0.5191  0.0243  0.7956
 8720TIP3    H147651   3.813   6.650  14.293 -0.0608 -0.9460 -1.1747
 8720TIP3    H247652   3.951   6.699  14.257  0.3859 -0.4477  1.0325
 8721TIP3   OH247653   4.406   6.769   0.056  0.0606 -0.0933 -0.0177
 8721TIP3    H147654   4.324   6.816   0.043  1.3539  2.2031 -0.4104
 8721TIP3    H247655   4.464   6.803  -0.012  2.1600  0.4499  1.9401
 8722TIP3   OH247656   4.088   0.892  11.048 -0.6591 -0.0104 -0.1687
 8722TIP3    H147657   4.152   0.952  11.011 -0.1461  0.3544  1.2155
 8722TIP3    H247658   4.137   0.810  11.062 -1.3124 -0.7363 -1.9052
 8723TIP3   OH247659   2.015   5.710  15.787 -0.3468  0.0723 -0.1118
 8723TIP3    H147660   1.999   5.689  15.694  0.3369  1.3514 -0.5411
 8723TIP3    H247661   2.109   5.695  15.798 -0.8350 -2.6911  1.1231
 8724TIP3   OH247662   6.324   1.630  12.936 -0.3349 -0.7863  0.3062
 8724TIP3    H147663   6.367   1.653  13.019  0.0188 -0.0520 -0.0624
 8724TIP3    H247664   6.350   1.540  12.919  0.1610 -0.7128  0.6508
 8725TIP3   OH247665   6.729   0.078  10.307 -0.4615  0.1485 -0.2297
 8725TIP3    H147666   6.765   0.166  10.302  0.7131 -0.2618  0.5925
 8725TIP3    H247667   6.795   0.027  10.355 -1.3487 -1.0524 -0.2233
 8726TIP3   OH247668   2.389   3.663   0.232 -0.0239 -0.2771 -0.3209
 8726TIP3    H147669   2.363   3.724   0.163  0.2725  1.3379  0.9349
 8726TIP3    H247670   2.374   3.711   0.314  0.8256 -1.6605  0.6957
 8727TIP3   OH247671   1.607   3.932  12.454 -0.2657  0.1059 -0.4817
 8727TIP3    H147672   1.541   3.923  12.522 -1.9937  1.2230 -1.9218
 8727TIP3    H247673   1.628   3.842  12.429 -1.2759 -0.2765 -0.0056
 8728TIP3   OH247674   4.297   6.754   0.394  0.3598 -0.0975  0.0009
 8728TIP3    H147675   4.244   6.735   0.317 -0.3874 -0.4940  0.6045
 8728TIP3    H247676   4.329   6.843   0.379  0.1584 -0.1390 -0.7247
 8729TIP3   OH247677   6.163   2.146  16.049  0.0941  0.2051  0.2785
 8729TIP3    H147678   6.247   2.188  16.034 -0.2047  0.4237 -0.9133
 8729TIP3    H247679   6.184   2.054  16.064  0.5248  0.2013 -0.3343
 8730TIP3   OH247680   3.081   4.883  14.303  0.1630  0.3010 -0.7610
 8730TIP3    H147681   3.134   4.963  14.303 -0.3843  0.6696  0.1589
 8730TIP3    H247682   3.009   4.902  14.243 -1.1557  1.3276  1.0594
 8731TIP3   OH247683   1.863   3.421  15.422  0.6168  0.1863 -0.4247
 8731TIP3    H147684   1.955   3.408  15.448 -0.5686 -4.1418  2.7516
 8731TIP3    H247685   1.824   3.467  15.496 -0.5822 -2.1927  0.5110
 8732TIP3   OH247686   3.494   5.235   4.550  0.2929  0.4482  0.0843
 8732TIP3    H147687   3.578   5.266   4.516  0.6008  1.0978  1.3943
 8732TIP3    H247688   3.498   5.140   4.539  2.3187  0.1658  2.4608
 8733TIP3   OH247689   1.151   4.819   6.029 -0.1076 -0.1107  0.0355
 8733TIP3    H147690   1.061   4.788   6.024 -0.1400 -0.0338  0.1437
 8733TIP3    H247691   1.164   4.842   6.121  0.2514 -0.7926  0.1600
 8734TIP3   OH247692   1.660   4.972   2.393  0.5538  0.0662 -0.1429
 8734TIP3    H147693   1.722   4.917   2.443  0.7724  0.2944 -0.1596
 8734TIP3    H247694   1.634   4.918   2.319  1.2802  0.2243 -0.5235
 8735TIP3   OH247695   3.522   1.536  15.002  0.2514  0.5675  0.0550
 8735TIP3    H147696   3.441   1.486  14.997  0.7653 -0.1581 -1.5163
 8735TIP3    H247697   3.504   1.618  14.956  0.1607  0.7727  0.4516
 8736TIP3   OH247698   5.250   0.836  11.176  0.4032 -0.0478 -0.1622
 8736TIP3    H147699   5.258   0.742  11.189 -0.6396 -0.1223 -0.0006
 8736TIP3    H247700   5.337   0.871  11.197  0.4123 -0.8196  1.1441
 8737TIP3   OH247701   4.508   6.129   3.563  0.0770  0.3168 -0.4946
 8737TIP3    H147702   4.592   6.096   3.595 -0.0655 -0.5270 -0.9627
 8737TIP3    H247703   4.448   6.119   3.637  0.4613  1.2580 -0.0410
 8738TIP3   OH247704   6.343   6.513   3.979 -0.7464  0.2786 -0.3651
 8738TIP3    H147705   6.297   6.505   3.896 -0.0457  0.0649 -0.7439
 8738TIP3    H247706   6.289   6.572   4.031 -1.6908 -0.3462 -0.6141
 8739TIP3   OH247707   0.980   3.128  13.959 -0.2377  0.0291  0.2072
 8739TIP3    H147708   1.005   3.046  13.915 -3.5657 -0.8104 -0.3603
 8739TIP3    H247709   0.997   3.196  13.894 -1.0109 -0.6865 -0.7633
 8740TIP3   OH247710   5.492   3.022   3.935 -0.3849  0.2817  0.4303
 8740TIP3    H147711   5.485   3.004   3.841 -0.1162 -0.6128  0.5667
 8740TIP3    H247712   5.492   2.935   3.976 -0.5250  0.6590  1.2615
 8741TIP3   OH247713   5.783   5.119   1.651 -0.1182 -0.0120 -0.2619
 8741TIP3    H147714   5.711   5.063   1.680 -0.9172  0.6338 -0.9163
 8741TIP3    H247715   5.816   5.160   1.731 -1.3984  0.7314 -0.0764
 8742TIP3   OH247716   2.744   0.367  16.771 -0.4460 -0.3378  0.3178
 8742TIP3    H147717   2.737   0.370  16.867 -2.2587  0.3706  0.2172
 8742TIP3    H247718   2.654   0.383  16.741  0.1549 -0.2362 -1.5060
 8743TIP3   OH247719   2.551   1.281   4.042 -0.0870 -0.0992 -0.5054
 8743TIP3    H147720   2.514   1.193   4.046  0.0860 -0.1584 -0.1557
 8743TIP3    H247721   2.630   1.271   3.989  2.2807 -1.0373  2.8622
 8744TIP3   OH247722   4.117   4.563  16.220 -0.6170 -0.1984  0.2105
 8744TIP3    H147723   4.046   4.579  16.281  0.4598  1.1394  1.1618
 8744TIP3    H247724   4.076   4.516  16.147 -2.3238 -0.0284  1.0197
 8745TIP3   OH247725   2.489   5.373   0.659  0.2947 -0.0416 -0.6521
 8745TIP3    H147726   2.483   5.468   0.666 -1.5702 -0.2467  1.7666
 8745TIP3    H247727   2.582   5.357   0.641  0.6525  2.2079 -1.1727
 8746TIP3   OH247728   6.328   0.774   5.033 -0.3972  0.2922 -0.3130
 8746TIP3    H147729   6.321   0.740   4.944 -0.4867 -2.4178  0.6387
 8746TIP3    H247730   6.244   0.815   5.050 -0.9682 -0.5974 -0.9414
 8747TIP3   OH247731   0.050   0.864   0.287 -1.0029  0.3798 -0.5747
 8747TIP3    H147732   0.090   0.930   0.230 -1.5946  1.5722  0.3211
 8747TIP3    H247733  -0.029   0.837   0.242 -0.7650  0.2909 -0.9415
 8748TIP3   OH247734   3.405   0.331   3.050  0.1387 -0.4137  0.5074
 8748TIP3    H147735   3.319   0.290   3.043  0.2996 -0.8474  0.9962
 8748TIP3    H247736   3.465   0.258   3.065  0.7396 -0.2328 -0.8769
 8749TIP3   OH247737   1.637   1.324  11.359 -0.2253 -0.0476  0.3020
 8749TIP3    H147738   1.696   1.393  11.392 -0.4906  1.2114 -1.7023
 8749TIP3    H247739   1.689   1.278  11.294 -0.6554 -0.5668  0.3239
 8750TIP3   OH247740   0.069   3.086  16.545 -0.4493  0.2753  0.1999
 8750TIP3    H147741   0.007   3.077  16.472 -1.4198 -1.3652  1.1649
 8750TIP3    H247742   0.112   3.001  16.551  1.3616  1.1320  0.0774
 8751TIP3   OH247743   1.171   3.390  15.904 -0.5013  0.6830  0.2635
 8751TIP3    H147744   1.153   3.483  15.915  2.7351  1.3462  0.9162
 8751TIP3    H247745   1.210   3.383  15.817 -2.2626 -0.3892 -0.4828
 8752TIP3   OH247746   4.128   0.497   5.731 -0.0463  0.3286 -0.3577
 8752TIP3    H147747   4.125   0.591   5.753 -0.7081  0.0992  0.6219
 8752TIP3    H247748   4.046   0.482   5.684 -0.2191  0.1277  0.0045
 8753TIP3   OH247749   6.468   4.270  17.153  0.5132  0.0684 -0.0611
 8753TIP3    H147750   6.454   4.252  17.246  0.1190 -2.9624 -0.5893
 8753TIP3    H247751   6.384   4.305  17.122  0.3397  0.1755  0.5312
 8754TIP3   OH247752   0.882   2.429   3.352  0.4573 -0.5290 -0.2639
 8754TIP3    H147753   0.944   2.503   3.351 -0.6396  0.5018  1.4482
 8754TIP3    H247754   0.814   2.454   3.290 -0.2766  0.2888  0.8309
 8755TIP3   OH247755   0.930   2.277   4.226  0.3929 -0.0486  0.0800
 8755TIP3    H147756   0.889   2.362   4.210  1.6098  0.4695 -0.4506
 8755TIP3    H247757   0.871   2.213   4.186 -0.4521  0.5611  0.3452
 8756TIP3   OH247758   0.616   5.102   0.328  0.1714 -0.4653  0.1036
 8756TIP3    H147759   0.681   5.169   0.348  0.4963 -0.4435 -0.9486
 8756TIP3    H247760   0.545   5.118   0.391  1.1312 -0.4366  1.2076
 8757TIP3   OH247761   3.133   5.564   1.844  0.0731  0.2148  0.2298
 8757TIP3    H147762   3.108   5.552   1.753 -0.1120  1.9757  0.0046
 8757TIP3    H247763   3.222   5.600   1.840 -0.5309  1.8292  0.6427
 8758TIP3   OH247764   4.728   5.599  16.302  0.1654 -0.0520 -0.1872
 8758TIP3    H147765   4.667   5.554  16.243 -1.6577  1.8602  0.1477
 8758TIP3    H247766   4.693   5.687  16.311  2.6209  0.9245  0.6254
 8759TIP3   OH247767   3.886   3.736   2.985  0.3001  0.2280  0.4249
 8759TIP3    H147768   3.820   3.684   2.940  0.5697  1.6764 -1.8692
 8759TIP3    H247769   3.838   3.812   3.018  0.5624  0.5775  0.0161
 8760TIP3   OH247770   0.927   2.955   3.743 -0.1027 -0.0614 -0.6041
 8760TIP3    H147771   0.841   2.981   3.708 -1.1507 -0.5106  1.4395
 8760TIP3    H247772   0.907   2.883   3.804  1.8676 -0.8567 -0.8227
 8761TIP3   OH247773   4.011   2.085   4.922 -0.2940 -0.0352  0.1775
 8761TIP3    H147774   3.987   2.060   5.011  0.2523  1.2391  0.7167
 8761TIP3    H247775   3.972   2.172   4.910 -0.4231 -0.2149 -0.8622
 8762TIP3   OH247776   1.109   1.956   1.519  0.4974 -0.3071 -0.1087
 8762TIP3    H147777   1.182   1.959   1.458  0.7632  3.9198  0.1065
 8762TIP3    H247778   1.034   1.928   1.465  1.4273 -0.2788 -1.4677
 8763TIP3   OH247779   5.016   6.299   4.779  1.1125 -0.1058 -0.2935
 8763TIP3    H147780   4.921   6.313   4.787  1.2743  1.9600 -1.3368
 8763TIP3    H247781   5.024   6.211   4.744 -0.4048 -0.5172  0.3219
 8764TIP3   OH247782   3.022   3.953  12.409 -0.3565  0.0068  0.0537
 8764TIP3    H147783   3.010   3.905  12.491 -0.4070 -1.0578 -0.5550
 8764TIP3    H247784   3.115   3.941  12.388 -0.7001 -1.1631 -0.8932
 8765TIP3   OH247785   6.052   0.239  12.477  0.4092 -0.2230  0.3026
 8765TIP3    H147786   6.029   0.330  12.457  1.7842  0.0460 -0.1568
 8765TIP3    H247787   6.044   0.193  12.394 -0.0954 -0.4864  0.4941
 8766TIP3   OH247788   4.364   1.193  15.006 -0.4041  0.0962  0.0566
 8766TIP3    H147789   4.435   1.172  15.067 -0.1770 -1.5361 -0.7323
 8766TIP3    H247790   4.284   1.183  15.059 -0.1276  0.9196  0.6622
 8767TIP3   OH247791   6.248   5.448   5.057 -0.4168 -0.1968 -0.8763
 8767TIP3    H147792   6.211   5.382   5.117 -0.4907  0.7724  0.1763
 8767TIP3    H247793   6.203   5.432   4.974 -0.2665 -1.6142 -0.7032
 8768TIP3   OH247794   1.181   0.122   3.869 -0.2634  0.8931  0.0057
 8768TIP3    H147795   1.249   0.176   3.828  1.8915 -0.3825  1.6976
 8768TIP3    H247796   1.202   0.123   3.962 -1.6119 -0.8777  0.3923
 8769TIP3   OH247797   5.448   5.863  13.557 -0.5382  0.1165 -0.0271
 8769TIP3    H147798   5.400   5.907  13.487 -1.2535  1.6169  1.3444
 8769TIP3    H247799   5.506   5.929  13.592  0.5389 -0.9090  0.1728
 8770TIP3   OH247800   4.740   6.555   2.081 -0.0913  0.3208 -0.7586
 8770TIP3    H147801   4.677   6.492   2.114  1.9246 -0.5479  1.7995
 8770TIP3    H247802   4.824   6.526   2.117  1.3653  2.8663 -1.8300
 8771TIP3   OH247803   0.310   6.086  14.615  0.1867 -0.3384  0.0697
 8771TIP3    H147804   0.287   6.179  14.615  2.7481  0.3635 -0.2478
 8771TIP3    H247805   0.272   6.052  14.696 -0.6897  1.0075  0.2480
 8772TIP3   OH247806   5.584   6.600  17.057  0.0905 -0.1298  0.0251
 8772TIP3    H147807   5.652   6.603  16.990 -0.5283 -0.5788 -0.6382
 8772TIP3    H247808   5.524   6.670  17.035 -0.2511 -0.4405 -0.0384
 8773TIP3   OH247809   1.032   6.750   5.015  0.3280 -0.3333  0.1527
 8773TIP3    H147810   0.936   6.760   5.016  0.4719  1.3751 -0.2958
 8773TIP3    H247811   1.047   6.664   4.977 -0.9968  0.0996 -1.4467
 8774TIP3   OH247812   4.344   0.869   1.467  0.1838 -0.3996 -0.9065
 8774TIP3    H147813   4.296   0.930   1.521  1.5913 -0.2367  0.2123
 8774TIP3    H247814   4.423   0.916   1.440 -0.5403 -0.3959 -3.3171
 8775TIP3   OH247815   6.145   4.104   5.526 -0.0492  0.9394  0.2496
 8775TIP3    H147816   6.197   4.103   5.606  0.1380  0.5883  0.1217
 8775TIP3    H247817   6.054   4.111   5.557 -0.0377 -0.0140  0.5235
 8776TIP3   OH247818   1.920   6.760  10.900  0.0762 -0.3831 -0.1949
 8776TIP3    H147819   2.003   6.806  10.892  1.2022 -2.1153  0.9249
 8776TIP3    H247820   1.907   6.719  10.815  0.6511 -0.5375 -0.2115
 8777TIP3   OH247821   2.232   5.243  15.669 -0.0873  0.1620  0.8340
 8777TIP3    H147822   2.238   5.253  15.764 -1.9041  1.1521  0.8917
 8777TIP3    H247823   2.138   5.233  15.652  0.1176  0.8904 -0.9334
 8778TIP3   OH247824   4.882   2.243   3.659  0.0452 -0.0756  0.1939
 8778TIP3    H147825   4.892   2.161   3.707  2.1590  0.4316  0.7025
 8778TIP3    H247826   4.971   2.278   3.650 -0.7189  1.8682 -0.5510
 8779TIP3   OH247827   4.294   5.770   2.145  0.2572 -0.2973 -0.1704
 8779TIP3    H147828   4.375   5.801   2.185 -0.0738  0.0405  0.2450
 8779TIP3    H247829   4.225   5.815   2.192 -0.1886 -0.7682 -0.3599
 8780TIP3   OH247830   0.407   3.277   1.843  0.5817 -0.1253 -0.0356
 8780TIP3    H147831   0.377   3.358   1.883 -2.2907 -1.6887  1.2211
 8780TIP3    H247832   0.461   3.235   1.910 -0.3771 -0.5756  0.4757
 8781TIP3   OH247833   5.076   3.112   0.921 -0.1217  0.2753 -0.0194
 8781TIP3    H147834   5.016   3.080   0.989 -0.4391  0.2062 -0.3270
 8781TIP3    H247835   5.023   3.114   0.841  1.2749 -3.6914 -1.2724
 8782TIP3   OH247836   3.345   2.452  16.035  0.2125 -0.1019 -0.3869
 8782TIP3    H147837   3.289   2.506  15.980 -1.4681 -0.6435  0.6855
 8782TIP3    H247838   3.416   2.510  16.062 -1.3287  1.4990  0.4264
 8783TIP3   OH247839   5.405   6.107  12.268  0.3657 -0.5051  0.3024
 8783TIP3    H147840   5.374   6.134  12.181 -2.0943 -0.0532  1.2398
 8783TIP3    H247841   5.456   6.182  12.298  0.6371 -0.3689 -0.4638
 8784TIP3   OH247842   1.523   2.632  16.854  0.2397 -0.1331  0.2267
 8784TIP3    H147843   1.497   2.724  16.854  0.6180 -0.0235  0.1914
 8784TIP3    H247844   1.504   2.602  16.765  2.1587  0.5097 -0.4424
 8785TIP3   OH247845   1.424   5.346   6.000  0.2759 -0.1066 -0.3420
 8785TIP3    H147846   1.385   5.421   6.046 -0.4029 -1.0347  0.6611
 8785TIP3    H247847   1.508   5.333   6.043 -0.6261 -1.3662  1.1602
 8786TIP3   OH247848   6.622   2.619   0.463  0.0343 -0.5141  0.2890
 8786TIP3    H147849   6.692   2.624   0.527  1.1190  1.2013 -0.9392
 8786TIP3    H247850   6.554   2.565   0.505  1.6739 -1.4429  1.8619
 8787TIP3   OH247851   0.825   3.101  16.690  0.1235 -0.1186 -0.4581
 8787TIP3    H147852   0.757   3.034  16.683  0.8274 -0.8070 -0.9712
 8787TIP3    H247853   0.779   3.184  16.680 -0.7744 -0.5270  0.2377
 8788TIP3   OH247854   2.558   3.247  15.434 -0.1972  0.3730 -0.4076
 8788TIP3    H147855   2.640   3.276  15.394  1.7982 -2.9971  0.8156
 8788TIP3    H247856   2.558   3.289  15.521 -0.3128  1.1432 -0.7671
 8789TIP3   OH247857   2.517   4.333  13.195 -0.3106  0.4486 -0.2567
 8789TIP3    H147858   2.452   4.358  13.129 -0.4341  0.1518 -0.2501
 8789TIP3    H247859   2.465   4.315  13.274 -0.2580 -0.1447 -0.3543
 8790TIP3   OH247860   4.020   3.309  13.446  0.2054 -0.3216 -0.0095
 8790TIP3    H147861   4.097   3.320  13.390  0.1123 -0.4213 -0.1606
 8790TIP3    H247862   4.055   3.295  13.534  0.3601 -0.4055 -0.0839
 8791TIP3   OH247863   2.919   3.494  14.859  0.4389 -0.1389  0.3441
 8791TIP3    H147864   2.849   3.543  14.904 -0.5317  2.2017 -3.2405
 8791TIP3    H247865   2.994   3.553  14.861  0.6570 -0.3866 -0.2718
 8792TIP3   OH247866   1.578   1.881   5.688  0.4132 -0.5476  0.0380
 8792TIP3    H147867   1.633   1.943   5.735  0.2956  1.2575 -2.0504
 8792TIP3    H247868   1.489   1.907   5.709  0.3582  0.3950 -1.2565
 8793TIP3   OH247869   1.951   2.698  11.464 -0.1480  0.4306  0.3669
 8793TIP3    H147870   2.016   2.689  11.534  0.3849  0.6563 -0.0916
 8793TIP3    H247871   1.938   2.793  11.455 -0.0532  0.4097  0.0119
 8794TIP3   OH247872   6.730   4.338  12.885  0.5262 -0.2330 -0.1037
 8794TIP3    H147873   6.776   4.414  12.849 -0.2366  0.0038 -0.6054
 8794TIP3    H247874   6.651   4.330  12.830 -0.2659 -0.3428  1.0235
 8795TIP3   OH247875   5.607   0.369   4.990  0.5737  0.8081  0.0824
 8795TIP3    H147876   5.639   0.448   5.035  0.4870  1.3320 -0.7529
 8795TIP3    H247877   5.676   0.347   4.928  0.0527  0.9861 -0.5787
 8796TIP3   OH247878   2.685   1.783   3.649  0.0169  0.5032 -0.7557
 8796TIP3    H147879   2.676   1.754   3.740 -0.1455  0.6309 -0.7306
 8796TIP3    H247880   2.690   1.879   3.655 -1.2351  0.5968 -0.9753
 8797TIP3   OH247881   5.018   5.356   0.006  0.2758  0.0172 -0.0355
 8797TIP3    H147882   5.112   5.340  -0.006  0.6966  2.5727 -0.9729
 8797TIP3    H247883   4.975   5.291  -0.048  1.5146 -1.0499  0.2213
 8798TIP3   OH247884   0.008   1.531  13.198  0.2364  0.5397 -0.1631
 8798TIP3    H147885  -0.016   1.476  13.272 -0.4978  0.4102 -0.4915
 8798TIP3    H247886   0.087   1.490  13.162  0.6500  0.6542  0.5923
 8799TIP3   OH247887   0.007   1.090  16.694  0.5125 -0.1719  0.2257
 8799TIP3    H147888  -0.077   1.083  16.738  0.5885  2.2482  0.9327
 8799TIP3    H247889  -0.012   1.072  16.602 -0.8040  0.3661  0.3702
 8800TIP3   OH247890   6.755   0.175  13.609  0.8917 -0.0894 -0.1235
 8800TIP3    H147891   6.693   0.246  13.593 -1.8378 -1.7895  2.0041
 8800TIP3    H247892   6.728   0.106  13.549  1.7546 -0.3127 -0.2637
 8801TIP3   OH247893   5.466   6.424   2.937  1.0372  0.5952  0.1460
 8801TIP3    H147894   5.439   6.516   2.943 -3.2791 -0.4486 -0.3243
 8801TIP3    H247895   5.401   6.376   2.988  3.0628 -2.2992  0.2710
 8802TIP3   OH247896   2.233   0.343  13.723  0.6263 -0.0507 -0.2909
 8802TIP3    H147897   2.140   0.366  13.720  0.5413 -0.3711 -0.2396
 8802TIP3    H247898   2.257   0.356  13.815 -0.0777 -2.5772  0.3287
 8803TIP3   OH247899   1.708   0.686   3.768 -0.9223  0.0000  0.3039
 8803TIP3    H147900   1.714   0.594   3.792  0.1522  0.2987  1.2840
 8803TIP3    H247901   1.653   0.687   3.690 -1.5181 -1.3980  0.6714
 8804TIP3   OH247902   1.693   3.333  14.105 -0.0268  0.1635  0.2803
 8804TIP3    H147903   1.616   3.380  14.072  0.6026 -0.7036 -2.6838
 8804TIP3    H247904   1.766   3.393  14.090  0.6428 -1.2155 -2.6388
 8805TIP3   OH247905   3.543   4.704  12.952 -0.0944 -0.4034  0.0592
 8805TIP3    H147906   3.625   4.676  12.994  0.3589 -0.1542 -0.6359
 8805TIP3    H247907   3.510   4.625  12.910 -1.0567 -0.8892  1.6567
 8806TIP3   OH247908   4.765   2.266   5.907  0.1074  0.8803  0.0248
 8806TIP3    H147909   4.692   2.306   5.955  0.3399  1.2219  0.1009
 8806TIP3    H247910   4.729   2.248   5.820 -0.7814 -1.1689  0.7598
 8807TIP3   OH247911   4.680   5.139   4.209  0.4131 -0.3078 -0.4076
 8807TIP3    H147912   4.698   5.122   4.301  1.4719 -0.0588 -0.5478
 8807TIP3    H247913   4.606   5.083   4.187  0.0440 -0.2383  0.6364
 8808TIP3   OH247914   2.377   0.834  12.526  0.1149 -0.2960 -0.2400
 8808TIP3    H147915   2.425   0.754  12.503 -1.1415 -0.9641 -0.6401
 8808TIP3    H247916   2.287   0.817  12.498 -0.0618  1.5189 -0.9701
 8809TIP3   OH247917   5.279   2.232   0.759  0.0250 -0.0197  0.5600
 8809TIP3    H147918   5.294   2.309   0.815 -0.0661  1.4971 -1.3755
 8809TIP3    H247919   5.242   2.269   0.678 -2.0872 -2.3392  0.3630
 8810TIP3   OH247920   5.834   3.180   1.240  0.4543  0.0244  0.0078
 8810TIP3    H147921   5.742   3.159   1.226  0.1007  0.0842  1.9377
 8810TIP3    H247922   5.851   3.252   1.179 -0.8468  0.1957 -0.1943
 8811TIP3   OH247923   3.231   5.653  15.356  0.2484 -0.2530  0.0430
 8811TIP3    H147924   3.175   5.576  15.349  0.0968 -0.5088  2.8168
 8811TIP3    H247925   3.293   5.645  15.284  1.9852 -4.4548  1.7324
 8812TIP3   OH247926   6.757   0.473  16.361 -0.8095 -0.0195  0.3128
 8812TIP3    H147927   6.768   0.383  16.332  0.4339  0.5130 -0.9365
 8812TIP3    H247928   6.744   0.466  16.456 -1.8486 -1.5690  0.0800
 8813TIP3   OH247929   5.932   5.463   1.740  0.1339 -0.6627 -0.3964
 8813TIP3    H147930   5.996   5.420   1.683  0.4627 -0.6089 -0.0676
 8813TIP3    H247931   5.862   5.490   1.681  0.9346  0.3042 -0.9405
 8814TIP3   OH247932   2.290   2.270   3.627  0.3772  0.5019  0.2456
 8814TIP3    H147933   2.196   2.284   3.636  0.1963 -0.0943 -0.5766
 8814TIP3    H247934   2.327   2.358   3.619 -0.0888  0.7438  0.7201
 8815TIP3   OH247935   3.251   0.959   2.281 -0.1118  0.0978  0.2705
 8815TIP3    H147936   3.283   0.881   2.326 -0.6440  0.0120  0.5039
 8815TIP3    H247937   3.330   1.002   2.249  0.2238 -0.2369  0.6360
 8816TIP3   OH247938   6.361   1.364   5.162  0.1415 -0.4876  0.1695
 8816TIP3    H147939   6.413   1.444   5.168 -0.5412  0.1177 -1.6409
 8816TIP3    H247940   6.375   1.333   5.073  0.1341 -2.2373  0.7449
 8817TIP3   OH247941   1.867   2.462   6.374  0.5792 -0.0472  0.2755
 8817TIP3    H147942   1.866   2.410   6.454  1.1315  0.9795  0.9766
 8817TIP3    H247943   1.958   2.489   6.364  0.3789  0.4301 -0.3007
 8818TIP3   OH247944   4.467   1.178  13.626  0.0370  0.3755 -0.1922
 8818TIP3    H147945   4.550   1.226  13.637  0.2355 -0.3000  1.4842
 8818TIP3    H247946   4.491   1.086  13.637 -0.8861  0.1474 -0.0608
 8819TIP3   OH247947   2.932   1.954   0.036 -0.5780  0.0187 -0.0510
 8819TIP3    H147948   2.958   2.036   0.078 -2.3098  1.3162 -1.3324
 8819TIP3    H247949   2.918   1.978  -0.056 -0.6438 -1.8485 -0.5689
 8820TIP3   OH247950   4.291   4.081   3.394 -0.4399  0.2174  0.0678
 8820TIP3    H147951   4.291   4.018   3.321 -2.1775 -1.8636  1.7061
 8820TIP3    H247952   4.275   4.166   3.352  1.6555 -0.3934 -2.2264
 8821TIP3   OH247953   3.247   6.515  11.343 -0.3843  0.4624 -0.4637
 8821TIP3    H147954   3.322   6.557  11.299 -1.0158  2.3997  0.1931
 8821TIP3    H247955   3.253   6.423  11.318  1.2305  0.8815 -1.8152
 8822TIP3   OH247956   3.896   4.838   3.086 -0.0363  0.4906 -0.3717
 8822TIP3    H147957   3.895   4.786   3.006  0.5663 -1.0183  0.5702
 8822TIP3    H247958   3.832   4.796   3.144 -0.5083  1.5957 -0.0553
 8823TIP3   OH247959   5.392   6.054  14.759 -0.4391  0.1469  0.0217
 8823TIP3    H147960   5.477   6.098  14.758 -0.0734 -0.5412  0.4317
 8823TIP3    H247961   5.399   5.986  14.692 -0.8089  0.3432 -0.2220
 8824TIP3   OH247962   1.045   2.594  10.393 -0.1381 -0.3924  0.1342
 8824TIP3    H147963   0.966   2.540  10.395 -0.5417  0.0670 -1.4553
 8824TIP3    H247964   1.116   2.531  10.384 -0.2507 -0.8322  1.8928
 8825TIP3   OH247965   5.170   5.033   4.679 -0.1041 -0.3168  0.6370
 8825TIP3    H147966   5.250   5.020   4.731 -0.5801 -1.6383  1.0851
 8825TIP3    H247967   5.153   4.947   4.639 -0.4888  0.3319 -0.6636
 8826TIP3   OH247968   4.300   2.454   5.191 -0.7192  0.4512 -0.0438
 8826TIP3    H147969   4.260   2.393   5.130 -1.1551  2.9354 -2.4126
 8826TIP3    H247970   4.231   2.475   5.254 -1.3848  0.5002 -0.7885
 8827TIP3   OH247971   6.629   4.535   3.283  0.5168 -0.4647  0.1271
 8827TIP3    H147972   6.708   4.588   3.286 -0.6633  1.3088  1.3447
 8827TIP3    H247973   6.593   4.551   3.195  0.3881  0.4330  0.3387
 8828TIP3   OH247974   5.638   0.029  12.762  0.0032 -0.5586  0.3560
 8828TIP3    H147975   5.560   0.068  12.721 -0.0120 -0.5994  0.3464
 8828TIP3    H247976   5.705   0.035  12.694 -0.6077 -2.6736 -0.5310
 8829TIP3   OH247977   4.213   0.135   0.064  0.8942 -0.3168 -0.0563
 8829TIP3    H147978   4.238   0.126  -0.028  0.2179 -0.1886 -0.2550
 8829TIP3    H247979   4.125   0.097   0.069  1.0879 -0.6914  0.6187
 8830TIP3   OH247980   5.786   5.461  12.536 -0.2081 -0.4696 -0.6302
 8830TIP3    H147981   5.859   5.522  12.543  1.0224 -1.7917 -1.5089
 8830TIP3    H247982   5.719   5.508  12.486  0.2999  0.5131 -0.3933
 8831TIP3   OH247983   1.247   4.041   3.404 -0.2538 -0.3722 -0.5530
 8831TIP3    H147984   1.241   3.946   3.396 -0.4661 -0.3155 -1.0907
 8831TIP3    H247985   1.300   4.069   3.329  1.4743 -0.2429  0.6584
 8832TIP3   OH247986   0.120   0.035   0.728  0.1510  0.3654 -0.5131
 8832TIP3    H147987   0.074  -0.049   0.727  1.3958 -0.3505 -0.0259
 8832TIP3    H247988   0.213   0.012   0.723  0.6061  1.6253  1.1910
 8833TIP3   OH247989   4.965   0.973  17.142 -0.0205 -0.0744 -0.0611
 8833TIP3    H147990   5.038   1.023  17.179 -0.2902  0.6873 -0.5537
 8833TIP3    H247991   4.895   1.037  17.131 -0.6276 -0.7196  0.0228
 8834TIP3   OH247992   5.953   2.899   0.052 -0.0219 -0.9655  0.0754
 8834TIP3    H147993   5.967   2.976   0.108 -0.4787 -0.5903 -0.3107
 8834TIP3    H247994   5.866   2.912   0.015  0.9135 -0.2815 -2.0876
 8835TIP3   OH247995   4.255   5.094   2.679  0.4057  0.3725  0.5500
 8835TIP3    H147996   4.269   5.186   2.698 -1.9470  0.8934  0.0308
 8835TIP3    H247997   4.185   5.067   2.739 -1.5301 -0.0577 -1.7568
 8836TIP3   OH247998   4.125   2.678   4.017 -0.1129 -0.2184  0.1085
 8836TIP3    H147999   4.059   2.615   4.045 -1.1668  1.4221  1.4959
 8836TIP3    H248000   4.151   2.723   4.097  1.8486 -0.0108 -0.5930
 8837TIP3   OH248001   1.993   1.583   6.091 -0.1651  0.4903  0.1087
 8837TIP3    H148002   2.046   1.508   6.065 -0.0464  0.6074  0.0105
 8837TIP3    H248003   1.955   1.558   6.176 -1.3117 -0.2734 -0.6030
 8838TIP3   OH248004   2.220   5.589   2.721  0.0091  0.5877 -0.2074
 8838TIP3    H148005   2.228   5.579   2.816 -0.4615  1.8065 -0.0269
 8838TIP3    H248006   2.243   5.503   2.686  0.4575  0.2018  0.9944
 8839TIP3   OH248007   6.795   1.386   5.042 -0.7163 -0.2887 -0.2549
 8839TIP3    H148008   6.837   1.457   5.091 -3.1410  0.6722  0.5910
 8839TIP3    H248009   6.823   1.306   5.085 -0.0840  0.3280  0.5066
 8840TIP3   OH248010   6.744   3.299  13.892 -0.0769  0.1314  0.1345
 8840TIP3    H148011   6.744   3.278  13.799  0.1452  2.4872 -0.4842
 8840TIP3    H248012   6.666   3.354  13.904  0.2707  0.4195  1.1627
 8841TIP3   OH248013   5.571   2.873  14.559 -0.0291  0.6133  0.0433
 8841TIP3    H148014   5.503   2.940  14.554 -0.0407  0.5392 -1.2192
 8841TIP3    H248015   5.523   2.790  14.565 -0.0177  0.7014  2.2481
 8842TIP3   OH248016   3.236   6.256   3.273 -0.5196  0.2601  0.4482
 8842TIP3    H148017   3.185   6.246   3.354  0.2984  0.9842  1.0754
 8842TIP3    H248018   3.239   6.351   3.259  0.8949  0.2557  0.5962
 8843TIP3   OH248019   6.642   4.722   3.781  0.1333  0.2132 -0.4765
 8843TIP3    H148020   6.708   4.739   3.714  0.2951 -0.9490 -0.6274
 8843TIP3    H248021   6.690   4.733   3.864  1.2387 -3.0247 -0.5650
 8844TIP3   OH248022   2.957   0.025  15.549  0.6880  0.2368 -0.5309
 8844TIP3    H148023   2.906   0.064  15.620  0.9226  2.9720 -1.7352
 8844TIP3    H248024   3.042   0.005  15.589  0.0987 -0.3726  0.4639
 8845TIP3   OH248025   0.427   1.858  14.519  0.0551 -0.1224  0.3026
 8845TIP3    H148026   0.479   1.789  14.477  0.6114 -0.4314  1.4737
 8845TIP3    H248027   0.487   1.933  14.526  0.5521 -0.6347  2.0994
 8846TIP3   OH248028   2.600   1.751  14.647  0.7276  0.4268 -0.7552
 8846TIP3    H148029   2.654   1.756  14.726  0.7652  0.7603 -0.7997
 8846TIP3    H248030   2.597   1.841  14.614 -0.4946  0.5646 -0.3223
 8847TIP3   OH248031   1.464   3.687   4.292  0.2297  0.1484 -0.4327
 8847TIP3    H148032   1.402   3.734   4.347  0.7730 -0.9019  1.1513
 8847TIP3    H248033   1.513   3.755   4.246 -0.2198  1.0631  0.4144
 8848TIP3   OH248034   3.498   4.443   2.074 -0.3268  0.2097  0.3849
 8848TIP3    H148035   3.584   4.426   2.038 -0.4421  1.7792 -0.7521
 8848TIP3    H248036   3.450   4.486   2.003 -2.1059 -0.7465  0.9369
 8849TIP3   OH248037   1.562   0.285   4.383 -0.5980  0.2224  0.1463
 8849TIP3    H148038   1.572   0.380   4.392  3.1879 -0.0261  0.1723
 8849TIP3    H248039   1.652   0.251   4.388 -1.5979 -3.2038 -2.0877
 8850TIP3   OH248040   1.526   1.517  14.740  0.2947 -0.1571  0.3625
 8850TIP3    H148041   1.448   1.482  14.696  0.1872 -0.9358  1.1534
 8850TIP3    H248042   1.590   1.526  14.669 -0.6485  0.9792 -0.3932
 8851TIP3   OH248043   2.199   2.942   2.771 -0.0902  0.5659 -0.2085
 8851TIP3    H148044   2.263   2.898   2.716  1.7764  4.6841 -1.7672
 8851TIP3    H248045   2.124   2.957   2.713  0.2811  1.4740 -0.4743
 8852TIP3   OH248046   0.274   0.143   5.543 -0.4490  0.0305  0.2097
 8852TIP3    H148047   0.285   0.107   5.455 -1.2929  1.1476 -0.3828
 8852TIP3    H248048   0.361   0.175   5.567 -0.1554 -0.5117 -0.1115
 8853TIP3   OH248049   1.052   0.048  13.238  0.6852  0.0646 -0.0400
 8853TIP3    H148050   1.135   0.062  13.191  1.4637 -2.8640  0.2669
 8853TIP3    H248051   1.072   0.075  13.328  0.1083  2.7981 -0.6362
 8854TIP3   OH248052   5.147   6.745   0.997  0.4611  0.0981 -0.1415
 8854TIP3    H148053   5.237   6.722   1.018 -0.0037 -1.1766  0.5577
 8854TIP3    H248054   5.105   6.758   1.083 -0.1465  0.1626 -0.4407
 8855TIP3   OH248055   0.410   5.059   1.983 -0.0521  0.3010  0.0846
 8855TIP3    H148056   0.460   4.981   1.958  3.8148  2.6743 -0.4921
 8855TIP3    H248057   0.377   5.039   2.070  0.0217 -2.2804 -0.3985
 8856TIP3   OH248058   6.153   0.493  11.705 -0.3481  0.4422 -0.1581
 8856TIP3    H148059   6.125   0.454  11.789  2.2924  1.7880  1.4863
 8856TIP3    H248060   6.082   0.551  11.681 -0.9460  0.4438  1.4668
 8857TIP3   OH248061   1.811   6.441  12.836 -0.2861  0.0231 -0.7437
 8857TIP3    H148062   1.870   6.388  12.783  0.3818 -0.7386  0.6834
 8857TIP3    H248063   1.777   6.508  12.777  2.3370  0.7507 -1.5318
 8858TIP3   OH248064   0.156   6.118  12.650 -0.4760 -0.4428 -0.3807
 8858TIP3    H148065   0.236   6.088  12.607 -0.7019 -1.0127 -0.4132
 8858TIP3    H248066   0.159   6.214  12.643  0.6329 -0.3963  0.3821
 8859TIP3   OH248067   2.133   4.720   6.162 -0.2254 -0.0768  0.3279
 8859TIP3    H148068   2.188   4.742   6.238 -0.0321 -0.1777  0.2168
 8859TIP3    H248069   2.096   4.634   6.183  1.7274 -1.2483 -0.7311
 8860TIP3   OH248070   0.844   0.776   0.927  0.0185 -0.2202 -0.2570
 8860TIP3    H148071   0.897   0.762   0.849  1.0533  0.5034  0.3045
 8860TIP3    H248072   0.879   0.715   0.991  1.3848  1.4447  0.6702
 8861TIP3   OH248073   4.906   1.956   2.258 -0.0730 -0.1331  0.8269
 8861TIP3    H148074   4.900   2.043   2.297  0.4087 -0.3624  1.4418
 8861TIP3    H248075   4.916   1.972   2.164 -0.6647  0.4499  0.8601
 8862TIP3   OH248076   4.730   2.654  15.374  0.2074 -0.1236 -0.1620
 8862TIP3    H148077   4.655   2.697  15.333  0.3387 -0.2116 -0.5014
 8862TIP3    H248078   4.692   2.594  15.438 -0.0521 -0.7283 -0.8662
 8863TIP3   OH248079   3.005   4.364   6.072 -0.4562  0.2430 -0.0122
 8863TIP3    H148080   3.042   4.280   6.048  0.7428  0.2934  1.5083
 8863TIP3    H248081   3.031   4.377   6.163 -4.2124  0.3144  1.2221
 8864TIP3   OH248082   3.505   5.257  12.185  0.5352  1.0223 -0.4097
 8864TIP3    H148083   3.509   5.248  12.280  0.3848  1.3118 -0.3743
 8864TIP3    H248084   3.537   5.346  12.168  0.8497  0.8638 -0.6525
 8865TIP3   OH248085   0.568   2.222   1.898  0.3109 -0.3208 -0.0895
 8865TIP3    H148086   0.495   2.239   1.958 -0.4394 -0.2255 -1.0068
 8865TIP3    H248087   0.533   2.244   1.812  0.4416 -3.1125 -0.9516
 8866TIP3   OH248088   1.888   5.066  14.219  0.2585  0.4997 -0.1184
 8866TIP3    H148089   1.933   5.058  14.135  0.1671  1.7145 -0.2901
 8866TIP3    H248090   1.860   4.977  14.240 -0.4229  0.3080 -1.7539
 8867TIP3   OH248091   5.265   0.926  12.565  0.0924  0.0780  0.5449
 8867TIP3    H148092   5.260   0.911  12.471 -0.0369 -1.8714  0.8167
 8867TIP3    H248093   5.305   1.013  12.574 -0.0685  0.3751 -1.2857
 8868TIP3   OH248094   3.882   1.589  14.358  0.5518  0.5740 -0.4131
 8868TIP3    H148095   3.963   1.614  14.313 -0.7978  1.5305 -2.4349
 8868TIP3    H248096   3.909   1.518  14.416  2.6644  0.1314 -1.8089
 8869TIP3   OH248097   4.464   1.673  13.491 -0.4866 -0.3804  0.1652
 8869TIP3    H148098   4.381   1.694  13.449 -0.9648 -0.6918  0.9436
 8869TIP3    H248099   4.513   1.625  13.424 -1.2954 -1.0066  0.0098
 8870TIP3   OH248100   1.939   2.686  16.101 -0.6008 -0.0848 -0.1821
 8870TIP3    H148101   1.908   2.598  16.083 -1.1225 -0.8471  3.6614
 8870TIP3    H248102   1.870   2.744  16.068 -0.3066 -1.0087 -2.6232
 8871TIP3   OH248103   4.344   6.795  16.804  0.1963 -0.4493  0.1485
 8871TIP3    H148104   4.279   6.839  16.750 -1.9733 -0.5938  2.4548
 8871TIP3    H248105   4.427   6.805  16.756 -1.3459  0.4227 -2.5304
 8872TIP3   OH248106   3.234   1.814   2.661  0.4950  0.2120 -0.1790
 8872TIP3    H148107   3.283   1.847   2.736  1.3080 -1.3990  0.0351
 8872TIP3    H248108   3.170   1.754   2.699  0.2367  0.1626 -0.6882
 8873TIP3   OH248109   4.822   2.087  12.166  0.6124  0.3971 -0.5620
 8873TIP3    H148110   4.749   2.030  12.145 -0.9315  2.2250 -0.4006
 8873TIP3    H248111   4.837   2.075  12.260  0.9234 -0.4197 -0.7132
 8874TIP3   OH248112   4.138   2.583   1.117 -0.6440  0.2949  0.1812
 8874TIP3    H148113   4.049   2.596   1.148 -0.7426 -0.0887  0.0567
 8874TIP3    H248114   4.176   2.671   1.116 -1.1875  0.5280 -0.2796
 8875TIP3   OH248115   5.054   6.770  16.968  0.2889  0.4270  0.2346
 8875TIP3    H148116   5.013   6.847  16.928 -1.0100  0.1353  0.9278
 8875TIP3    H248117   5.095   6.805  17.048  4.2915  1.3152 -1.9655
 8876TIP3   OH248118   0.359   2.528  16.048  0.3939 -0.5832  0.1364
 8876TIP3    H148119   0.288   2.480  16.006  0.3510  1.9995 -3.1402
 8876TIP3    H248120   0.439   2.486  16.014  0.3618 -0.0732 -0.5992
 8877TIP3   OH248121   5.831   1.882   3.655  0.7534  0.6393  0.3392
 8877TIP3    H148122   5.903   1.847   3.707  1.1404  0.1592 -0.4927
 8877TIP3    H248123   5.832   1.830   3.575 -1.3882 -0.3073  0.8620
 8878TIP3   OH248124   1.186   4.360  13.031  0.1234 -0.2354 -0.2788
 8878TIP3    H148125   1.279   4.357  13.055  0.1764 -2.1981 -0.6080
 8878TIP3    H248126   1.179   4.301  12.957 -1.6145 -1.1051  0.5326
 8879TIP3   OH248127   3.497   3.355   3.309  0.0066  0.2380  0.5562
 8879TIP3    H148128   3.547   3.284   3.269  0.1883  0.1066  1.0082
 8879TIP3    H248129   3.545   3.376   3.389 -0.1805  0.7069  0.5492
 8880TIP3   OH248130   0.373   5.542  12.821 -0.0512  0.0059  0.1655
 8880TIP3    H148131   0.370   5.634  12.796 -1.2418 -0.0686 -0.0156
 8880TIP3    H248132   0.409   5.498  12.745 -2.3085 -0.0362 -0.9634
 8881TIP3   OH248133   0.255   4.552   3.789  0.0188 -0.2032  0.0105
 8881TIP3    H148134   0.341   4.594   3.792 -1.4103  3.0070  0.0516
 8881TIP3    H248135   0.249   4.506   3.873  1.4908 -0.1491  0.1856
 8882TIP3   OH248136   6.227   1.123  16.695 -0.4169  0.1466 -0.1833
 8882TIP3    H148137   6.252   1.114  16.604 -0.9018  1.0041 -0.4122
 8882TIP3    H248138   6.268   1.204  16.724 -2.3232  1.2488 -0.3952
 8883TIP3   OH248139   1.969   0.186   4.068 -0.2896  0.3469  0.1109
 8883TIP3    H148140   2.064   0.172   4.060 -0.1763 -0.5291  2.3582
 8883TIP3    H248141   1.960   0.252   4.137 -1.3378 -0.9235  1.2324
 8884TIP3   OH248142   5.705   3.430   5.168 -0.7010 -0.1881  0.8180
 8884TIP3    H148143   5.663   3.502   5.121  0.0403  0.9403  1.8340
 8884TIP3    H248144   5.748   3.378   5.100  1.3533  2.0429  0.2821
 8885TIP3   OH248145   0.477   5.364   4.912 -0.2520 -0.8820  0.3623
 8885TIP3    H148146   0.482   5.270   4.894 -0.8560 -0.3951 -3.1240
 8885TIP3    H248147   0.566   5.396   4.895  0.0089 -0.7921  1.7649
 8886TIP3   OH248148   3.424   0.963  15.978 -0.8942 -0.4538  0.6322
 8886TIP3    H148149   3.419   1.028  15.908 -1.0503  0.0466  1.0991
 8886TIP3    H248150   3.458   0.885  15.935 -3.3010 -0.9431 -0.5757
 8887TIP3   OH248151   3.066   0.624  14.067 -0.1607 -0.1404 -0.1742
 8887TIP3    H148152   3.092   0.532  14.071  0.8958  0.1420 -0.2603
 8887TIP3    H248153   3.145   0.672  14.088 -0.4735  0.7720 -1.0269
 8888TIP3   OH248154   1.770   4.859   2.724 -0.5650  0.2266  0.1894
 8888TIP3    H148155   1.804   4.795   2.786  1.2461  0.2601 -0.7099
 8888TIP3    H248156   1.759   4.810   2.642  0.0553  0.8549 -0.2844
 8889TIP3   OH248157   5.024   3.521   3.157  0.0888 -0.1413 -0.0250
 8889TIP3    H148158   4.995   3.602   3.115  0.6437 -0.3135 -0.7543
 8889TIP3    H248159   5.088   3.550   3.222 -0.3898  0.0761  0.3633
 8890TIP3   OH248160   6.443   6.359   0.476 -0.1317 -0.1536 -0.5783
 8890TIP3    H148161   6.477   6.310   0.551  0.6257 -0.9065 -1.3837
 8890TIP3    H248162   6.475   6.310   0.400  1.0829  1.8581 -1.4307
 8891TIP3   OH248163   5.946   1.176  12.632  0.3824  0.6082  0.3496
 8891TIP3    H148164   5.942   1.080  12.631 -0.3567  0.6330 -0.6426
 8891TIP3    H248165   6.038   1.196  12.612  0.7588  0.1137  1.5008
 8892TIP3   OH248166   6.566   5.761   0.186  0.1672 -0.5385  0.4027
 8892TIP3    H148167   6.582   5.767   0.280  1.0401 -0.0462  0.2389
 8892TIP3    H248168   6.590   5.671   0.163 -0.9493 -0.9473  0.8002
 8893TIP3   OH248169   6.173   2.376   1.125 -0.5491 -0.2686  0.2603
 8893TIP3    H148170   6.254   2.332   1.098 -1.6811 -0.7196 -2.7544
 8893TIP3    H248171   6.197   2.469   1.130 -0.2490 -0.0855 -2.8601
 8894TIP3   OH248172   6.603   2.629  11.603  0.6613  0.8562 -0.7360
 8894TIP3    H148173   6.570   2.637  11.514 -0.3477 -3.4845 -0.9940
 8894TIP3    H248174   6.667   2.558  11.599 -0.0600 -0.1261  2.0427
 8895TIP3   OH248175   2.073   3.430   5.725  0.7254  0.0452 -0.5314
 8895TIP3    H148176   2.117   3.437   5.640  1.8268  1.8900  0.1442
 8895TIP3    H248177   2.051   3.520   5.748 -0.4679 -0.5264  0.6993
 8896TIP3   OH248178   2.030   6.781   4.721  0.1917 -0.1194  0.8294
 8896TIP3    H148179   2.001   6.693   4.747 -0.0452  0.0314  1.0792
 8896TIP3    H248180   1.974   6.840   4.771  0.1329  0.1772  0.4155
 8897TIP3   OH248181   2.345   5.171   3.730 -0.6251  0.2861 -0.7298
 8897TIP3    H148182   2.366   5.078   3.721 -0.1927  0.4477 -1.5754
 8897TIP3    H248183   2.367   5.192   3.821  0.6467 -0.1163 -0.9234
 8898TIP3   OH248184   1.507   3.697  16.545 -0.0481 -0.4744  1.1400
 8898TIP3    H148185   1.468   3.770  16.592  0.1794 -0.8620  1.9569
 8898TIP3    H248186   1.439   3.629  16.543  0.1380 -0.6694  1.4110
 8899TIP3   OH248187   1.690   4.329   3.837 -0.0395 -0.3909 -0.0607
 8899TIP3    H148188   1.598   4.316   3.860 -0.2682 -0.1922 -0.8260
 8899TIP3    H248189   1.705   4.272   3.761  0.5181 -0.5531  0.1623
 8900TIP3   OH248190   4.045   1.958   4.484  0.7377  0.3183 -0.3128
 8900TIP3    H148191   3.995   1.955   4.402  0.7764  1.2023 -0.3771
 8900TIP3    H248192   4.061   1.866   4.505 -0.0153  0.0485 -0.8431
 8901TIP3   OH248193   6.337   4.240  15.616  0.4231 -0.3943  0.3561
 8901TIP3    H148194   6.285   4.284  15.683  2.3005  1.5545  0.6751
 8901TIP3    H248195   6.328   4.147  15.634 -2.4455 -0.1242  0.6785
 8902TIP3   OH248196   1.313   5.235   0.032 -0.3906  0.4063  0.1306
 8902TIP3    H148197   1.305   5.239   0.128 -0.3622 -1.2570  0.2358
 8902TIP3    H248198   1.279   5.318   0.002 -1.4908  0.5093  1.5412
 8903TIP3   OH248199   1.712   4.545   1.071  0.4609 -0.2506 -0.2284
 8903TIP3    H148200   1.662   4.616   1.031 -0.6032  0.3446  2.0022
 8903TIP3    H248201   1.796   4.585   1.093  0.4424 -0.1225 -0.3878
 8904TIP3   OH248202   2.723   6.718   4.106  0.2047 -0.6580  0.0309
 8904TIP3    H148203   2.680   6.731   4.021  0.1989 -0.8296  0.0059
 8904TIP3    H248204   2.694   6.791   4.159 -1.1456 -1.4441  0.4201
 8905TIP3   OH248205   0.955   1.440  10.377 -0.1010 -0.3441  0.0334
 8905TIP3    H148206   0.985   1.394  10.455  0.9217 -1.4778 -0.9713
 8905TIP3    H248207   0.959   1.374  10.307 -1.7237  0.4187 -0.8416
 8906TIP3   OH248208   5.488   5.121  10.731  0.0464 -0.5767 -0.6583
 8906TIP3    H148209   5.475   5.088  10.643 -1.3338 -0.2335 -0.6104
 8906TIP3    H248210   5.564   5.073  10.764  0.3604 -0.9635 -1.8936
 8907TIP3   OH248211   0.779   0.846  14.611  0.4585  0.3960  0.1015
 8907TIP3    H148212   0.802   0.833  14.519  0.4000 -0.4701  0.1997
 8907TIP3    H248213   0.821   0.928  14.635 -0.4191  1.1996 -0.9962
 8908TIP3   OH248214   2.117   3.069  13.039 -0.7028  0.4820  0.0121
 8908TIP3    H148215   2.046   3.114  13.085 -1.9850 -0.4417 -0.9840
 8908TIP3    H248216   2.196   3.112  13.070 -1.6816  1.5395  1.1847
 8909TIP3   OH248217   3.907   6.398  10.319  0.2683  0.2795 -0.6936
 8909TIP3    H148218   3.832   6.456  10.332  0.5486  0.3466  0.8825
 8909TIP3    H248219   3.926   6.364  10.407  1.4051 -0.5783 -1.2478
 8910TIP3   OH248220   4.481   5.986  12.892 -0.2040  0.3078  0.3111
 8910TIP3    H148221   4.534   6.059  12.858 -0.5682  1.5354  2.2423
 8910TIP3    H248222   4.531   5.908  12.867  0.9616  1.2700 -0.5467
 8911TIP3   OH248223   0.647   5.011  11.425 -0.5803 -0.3826 -0.0491
 8911TIP3    H148224   0.578   4.985  11.486 -1.9804  0.7436 -1.0715
 8911TIP3    H248225   0.603   5.015  11.340  0.6086  0.8989 -0.6450
 8912TIP3   OH248226   4.571   3.979  17.111  0.7812 -0.2150  0.4945
 8912TIP3    H148227   4.650   4.005  17.063  0.5538  1.5572  1.0282
 8912TIP3    H248228   4.500   4.023  17.066  0.3316 -0.1510  1.2606
 8913TIP3   OH248229   0.092   2.345   4.912 -0.1106 -0.1214  0.0642
 8913TIP3    H148230   0.087   2.330   5.006 -1.1001  2.2257  0.4309
 8913TIP3    H248231   0.122   2.435   4.903  1.2581 -0.7056 -1.9120
 8914TIP3   OH248232   2.084   3.671   2.997  0.0384 -0.1731  0.4871
 8914TIP3    H148233   2.093   3.753   2.950  0.2432 -1.7996 -2.5841
 8914TIP3    H248234   1.990   3.660   3.010 -0.0272  0.2284  0.3578
 8915TIP3   OH248235   5.163   3.764   4.504  0.2510 -0.6872 -0.3483
 8915TIP3    H148236   5.245   3.777   4.552  0.3683 -2.4560 -0.0051
 8915TIP3    H248237   5.187   3.770   4.412  1.2971 -3.4631 -0.3617
 8916TIP3   OH248238   0.174   4.493   2.077  0.3843 -0.1432 -0.1952
 8916TIP3    H148239   0.237   4.515   2.008  1.1326 -0.0824  0.4920
 8916TIP3    H248240   0.089   4.497   2.034  0.7019  1.5119 -0.7369
 8917TIP3   OH248241   1.648   0.841  12.930 -0.4686  0.3014  0.1530
 8917TIP3    H148242   1.719   0.795  12.975 -0.2060 -0.2219 -0.7748
 8917TIP3    H248243   1.569   0.794  12.957 -0.6943  1.8663  2.4663
 8918TIP3   OH248244   6.566   2.790   3.369  0.3504 -0.2307 -0.8979
 8918TIP3    H148245   6.585   2.858   3.304  0.7079  1.1976  0.6166
 8918TIP3    H248246   6.486   2.748   3.337 -0.7583  1.9121 -1.1785
 8919TIP3   OH248247   4.858   3.115  13.955 -0.2280 -0.8805  0.0027
 8919TIP3    H148248   4.934   3.060  13.974 -0.5457 -1.4830 -0.4520
 8919TIP3    H248249   4.832   3.091  13.866 -0.3624  0.0178 -0.2111
 8920TIP3   OH248250   4.291   0.916   6.687  0.3131  0.3599 -0.2772
 8920TIP3    H148251   4.203   0.888   6.713 -0.1779  1.3118 -0.8648
 8920TIP3    H248252   4.349   0.849   6.723 -0.6975 -0.5973 -0.3920
 8921TIP3   OH248253   2.032   1.829   4.817 -0.8520  0.1588  0.5724
 8921TIP3    H148254   1.940   1.804   4.804 -0.1876 -2.0727 -0.4575
 8921TIP3    H248255   2.052   1.887   4.743 -1.5482  1.0587  1.0772
 8922TIP3   OH248256   6.780   3.352   0.580 -0.1755 -0.1591  0.1023
 8922TIP3    H148257   6.779   3.285   0.511 -1.3572 -0.2298  0.1655
 8922TIP3    H248258   6.756   3.433   0.535  0.0845 -0.0048  0.2403
 8923TIP3   OH248259   4.063   4.539   4.240 -0.2903 -0.5243 -0.2107
 8923TIP3    H148260   4.009   4.614   4.266 -0.8906 -0.8830 -0.4127
 8923TIP3    H248261   4.150   4.577   4.224  0.0645 -0.2442  2.0347
 8924TIP3   OH248262   6.824   2.068  12.577 -0.0365  0.1822 -0.2232
 8924TIP3    H148263   6.739   2.066  12.534  0.1593  0.1368 -0.6122
 8924TIP3    H248264   6.829   2.155  12.616  0.8139  1.2123 -2.4338
 8925TIP3   OH248265   4.142   1.476   0.702 -0.4303 -0.5707  0.0507
 8925TIP3    H148266   4.146   1.561   0.746 -1.7790 -0.9951  1.0725
 8925TIP3    H248267   4.139   1.497   0.609  0.0584  0.4637  0.2595
 8926TIP3   OH248268   5.413   0.057  16.712  0.2381 -0.0876  0.1783
 8926TIP3    H148269   5.394   0.005  16.634 -1.3267  0.1949  0.3398
 8926TIP3    H248270   5.428   0.145  16.678  1.3955 -0.3184  0.0463
 8927TIP3   OH248271   1.541   2.429   3.440  0.3037 -0.1940  0.8862
 8927TIP3    H148272   1.478   2.501   3.439  0.4734  0.0468 -2.4651
 8927TIP3    H248273   1.487   2.350   3.445 -0.2634  0.0505 -0.7756
 8928TIP3   OH248274   4.497   2.377  15.667  0.2619 -0.1021  0.3922
 8928TIP3    H148275   4.405   2.389  15.642  0.4048  0.3927  0.0902
 8928TIP3    H248276   4.543   2.369  15.583  0.6804  1.0532  0.5036
 8929TIP3   OH248277   5.203   5.740  14.674 -0.2060 -0.2628 -0.0637
 8929TIP3    H148278   5.275   5.737  14.610 -1.0032  0.2438 -1.0244
 8929TIP3    H248279   5.180   5.648  14.689 -0.9431 -0.3679 -1.6346
 8930TIP3   OH248280   1.252   1.698  10.955 -0.1024  0.1757 -0.3578
 8930TIP3    H148281   1.189   1.770  10.944 -0.0586  0.3473  0.4513
 8930TIP3    H248282   1.224   1.653  11.034 -0.7350 -1.3492 -1.4229
 8931TIP3   OH248283   4.202   3.891  12.863  0.1741  0.2606  0.4348
 8931TIP3    H148284   4.187   3.974  12.817  0.9383 -0.7347 -1.7716
 8931TIP3    H248285   4.115   3.866  12.896 -0.2714  1.3725  0.1652
 8932TIP3   OH248286   4.535   6.502  11.756 -0.4836  1.1280  0.1806
 8932TIP3    H148287   4.471   6.436  11.727  1.0000 -1.0272  1.5370
 8932TIP3    H248288   4.574   6.534  11.675  1.4209 -2.5214 -0.5574
 8933TIP3   OH248289   4.686   5.149   1.419 -0.6563  0.4365  0.4194
 8933TIP3    H148290   4.766   5.099   1.406 -0.5228  0.4731  1.0686
 8933TIP3    H248291   4.616   5.086   1.404 -0.5300  0.5234 -0.6497
 8934TIP3   OH248292   5.791   1.240   2.625 -0.1880  0.4266  0.2673
 8934TIP3    H148293   5.723   1.277   2.682 -1.0511  1.4856 -1.3633
 8934TIP3    H248294   5.870   1.287   2.650 -0.4100  0.4007  1.0481
 8935TIP3   OH248295   6.026   2.198   6.474 -0.2638 -0.2345  0.3924
 8935TIP3    H148296   6.101   2.141   6.494 -0.4488 -0.5058  0.3210
 8935TIP3    H248297   6.004   2.177   6.384 -0.2546  0.0452  0.3251
 8936TIP3   OH248298   4.379   5.319  15.889  0.3461  0.4975  0.3888
 8936TIP3    H148299   4.367   5.224  15.885 -1.7219  0.7020  0.3879
 8936TIP3    H248300   4.455   5.336  15.833  0.0390 -1.0514 -0.5608
 8937TIP3   OH248301   0.757   5.884  14.507  0.0668  0.1558 -0.0793
 8937TIP3    H148302   0.771   5.958  14.448  0.1615  0.2881  0.1072
 8937TIP3    H248303   0.667   5.855  14.488 -0.4525  1.1491  0.7592
 8938TIP3   OH248304   4.165   5.686   5.310  0.4694 -0.0736 -0.4268
 8938TIP3    H148305   4.101   5.624   5.273  0.4037  0.4842 -1.2867
 8938TIP3    H248306   4.114   5.743   5.367  0.6023 -1.0662  0.7293
 8939TIP3   OH248307   5.563   4.262  13.778 -0.5207  0.4189 -0.4341
 8939TIP3    H148308   5.650   4.222  13.774 -0.8024 -0.1323 -1.3408
 8939TIP3    H248309   5.505   4.191  13.807 -0.7852  0.5942 -0.5304
 8940TIP3   OH248310   0.792   3.252   1.557  0.6529  0.4219 -0.3677
 8940TIP3    H148311   0.870   3.212   1.519  1.2702  0.3228  0.9445
 8940TIP3    H248312   0.786   3.214   1.645  0.2244  1.8597  0.2616
 8941TIP3   OH248313   0.383   5.590  14.012  0.0310  0.1335  0.1753
 8941TIP3    H148314   0.293   5.576  14.040  0.3035 -2.0382  0.1508
 8941TIP3    H248315   0.408   5.508  13.969  1.9582  0.7354  0.0454
 8942TIP3   OH248316   2.136   3.453   1.753 -0.4725 -1.3661 -0.4312
 8942TIP3    H148317   2.154   3.517   1.684  0.7031  0.4610  1.4283
 8942TIP3    H248318   2.160   3.369   1.715  0.0442 -0.4343 -2.2677
 8943TIP3   OH248319   4.747   1.858  16.141 -0.1850 -0.3312 -0.1703
 8943TIP3    H148320   4.678   1.830  16.080  0.8989  0.0977 -1.6683
 8943TIP3    H248321   4.700   1.888  16.218 -1.6485 -0.6235 -0.9035
 8944TIP3   OH248322   5.254   6.192  14.956 -0.1563 -0.7852 -0.3845
 8944TIP3    H148323   5.284   6.128  14.891 -0.8663  0.0119 -1.5505
 8944TIP3    H248324   5.324   6.257  14.960  0.5255 -1.5687  0.7349
 8945TIP3   OH248325   5.543   6.718  16.146 -0.2164 -0.4883  0.5354
 8945TIP3    H148326   5.622   6.751  16.188  0.7984 -0.6871 -1.1022
 8945TIP3    H248327   5.515   6.789  16.087  0.5327 -1.5094 -1.1338
 8946TIP3   OH248328   0.984   6.825   4.394  0.1424 -0.2558 -0.0939
 8946TIP3    H148329   0.957   6.887   4.462 -0.0414 -0.8099  0.3531
 8946TIP3    H248330   1.049   6.872   4.342  0.8259 -0.0620  0.9103
 8947TIP3   OH248331   1.327   5.299  13.571  0.3492 -0.2934 -0.2806
 8947TIP3    H148332   1.358   5.330  13.486 -0.3569  1.3004  0.0021
 8947TIP3    H248333   1.396   5.323  13.632  1.0008 -1.7241 -0.4187
 8948TIP3   OH248334   4.488   1.211  16.791 -0.5290  0.2054  0.0935
 8948TIP3    H148335   4.515   1.173  16.708 -2.4950 -1.5512  0.1788
 8948TIP3    H248336   4.425   1.149  16.827  0.5610  0.6744  3.1360
 8949TIP3   OH248337   1.285   3.932   4.155  0.1311 -0.3697  0.2455
 8949TIP3    H148338   1.251   4.007   4.106 -1.1996 -1.0068  0.1405
 8949TIP3    H248339   1.375   3.921   4.124  1.1617  2.5354  1.8717
 8950TIP3   OH248340   4.281   3.114   2.446  0.2600  0.0321 -0.3037
 8950TIP3    H148341   4.256   3.025   2.422 -0.4449  0.6350 -1.9990
 8950TIP3    H248342   4.211   3.144   2.504 -0.3649  0.0047 -1.0254
 8951TIP3   OH248343   3.858   5.998  12.125 -0.1246  0.3913  0.2550
 8951TIP3    H148344   3.943   6.021  12.090  1.1758 -1.7145  1.7612
 8951TIP3    H248345   3.870   5.910  12.163 -3.0911 -0.2222  0.0786
 8952TIP3   OH248346   4.019   4.942  12.996  0.3046 -0.0652  0.0321
 8952TIP3    H148347   4.023   5.027  13.041  1.6671 -0.2061  0.2417
 8952TIP3    H248348   3.927   4.916  13.002 -0.1680  1.4437 -0.1469
 8953TIP3   OH248349   3.911   3.964  13.710 -0.3659 -0.5176 -0.1104
 8953TIP3    H148350   3.840   3.900  13.715 -1.0695  0.0095 -2.3170
 8953TIP3    H248351   3.939   3.975  13.801 -1.8916 -2.0791  0.6187
 8954TIP3   OH248352   3.577   1.258   0.795 -0.5678 -0.0089  0.3119
 8954TIP3    H148353   3.635   1.329   0.768 -2.9777  2.8532  1.9669
 8954TIP3    H248354   3.621   1.217   0.870  0.1421  0.8613  0.3801
 8955TIP3   OH248355   2.667   3.354  15.097  0.4715  0.5388 -0.3616
 8955TIP3    H148356   2.676   3.388  15.008 -0.7199 -1.0631 -1.1512
 8955TIP3    H248357   2.574   3.357  15.116  0.5390 -0.4605  0.2561
 8956TIP3   OH248358   6.784   4.577  12.008  0.0188 -0.0672 -0.1971
 8956TIP3    H148359   6.827   4.652  11.967 -1.3234  0.6444 -0.3982
 8956TIP3    H248360   6.855   4.527  12.048  1.0026  1.0778 -0.4412
 8957TIP3   OH248361   3.966   5.712   1.016 -0.4523 -0.2349  0.1121
 8957TIP3    H148362   3.877   5.689   0.988 -0.0712 -1.5847 -0.0839
 8957TIP3    H248363   3.995   5.636   1.067 -0.2702  1.1931  2.2600
 8958TIP3   OH248364   3.408   1.259  12.674  0.4421  0.6430 -0.0337
 8958TIP3    H148365   3.338   1.303  12.722  0.4326  0.6995 -0.0986
 8958TIP3    H248366   3.441   1.193  12.735  0.6203  0.9012  0.1516
 8959TIP3   OH248367   5.733   4.527  14.061 -0.0744 -0.3403 -0.5032
 8959TIP3    H148368   5.708   4.576  13.982 -1.3110  0.4460  0.3428
 8959TIP3    H248369   5.675   4.560  14.129  1.6720 -0.2335  1.0051
 8960TIP3   OH248370   4.454   5.633  15.647 -0.5797 -0.3566 -0.0052
 8960TIP3    H148371   4.495   5.548  15.661 -0.9126 -0.3186  1.3519
 8960TIP3    H248372   4.361   5.615  15.635 -0.2946 -0.4252 -2.9259
 8961TIP3   OH248373   5.425   3.945  14.630 -0.5282  0.0697  0.7424
 8961TIP3    H148374   5.329   3.942  14.629 -0.5407 -0.0664 -1.4028
 8961TIP3    H248375   5.445   4.020  14.687 -1.8204 -0.8469  2.5151
 8962TIP3   OH248376   2.883   5.458   0.183 -0.0519 -0.4425  0.0859
 8962TIP3    H148377   2.894   5.372   0.225 -0.5580 -0.9889 -0.8705
 8962TIP3    H248378   2.903   5.521   0.253 -0.2406 -1.3238  0.9644
 8963TIP3   OH248379   4.109   0.842   1.276 -0.0846  0.0547 -0.1372
 8963TIP3    H148380   4.186   0.859   1.331 -0.1863 -1.7588  0.6402
 8963TIP3    H248381   4.085   0.928   1.241  1.9928  0.7366 -0.0227
 8964TIP3   OH248382   3.404   5.981  10.386 -0.2496  0.6063  0.2339
 8964TIP3    H148383   3.358   6.002  10.304 -1.6512  0.1725  0.8695
 8964TIP3    H248384   3.488   5.945  10.358 -0.7907  0.2726 -1.0295
 8965TIP3   OH248385   1.087   4.391  14.754 -0.0580  0.2122  0.2344
 8965TIP3    H148386   1.156   4.358  14.697 -1.7436 -0.6880 -1.3939
 8965TIP3    H248387   1.046   4.312  14.790 -0.9475  0.6844  0.2784
 8966TIP3   OH248388   0.645   5.961   0.722 -0.3797  0.1849 -0.4875
 8966TIP3    H148389   0.685   6.043   0.696 -1.3668  0.2232 -1.9908
 8966TIP3    H248390   0.562   5.958   0.674 -1.4014 -0.6637  1.2361
 8967TIP3   OH248391   3.810   0.079   0.493 -0.0375  0.6458  0.0652
 8967TIP3    H148392   3.821   0.174   0.491 -0.3956  0.7168  1.0188
 8967TIP3    H248393   3.898   0.045   0.511  0.8288  0.5712 -3.5203
 8968TIP3   OH248394   2.349   4.134   4.044 -0.4716  0.4559  0.7196
 8968TIP3    H148395   2.377   4.062   3.988 -1.9651  2.0079 -2.2191
 8968TIP3    H248396   2.408   4.130   4.119  0.0428 -3.2547  0.3004
 8969TIP3   OH248397   1.761   0.976   3.615 -0.2784 -0.6209  0.0931
 8969TIP3    H148398   1.812   1.050   3.647  0.5138 -0.8158 -0.6828
 8969TIP3    H248399   1.670   1.001   3.631 -0.2793  2.0386 -3.0852
 8970TIP3   OH248400   4.512   5.243  13.820  0.4244 -0.1185  0.4027
 8970TIP3    H148401   4.499   5.329  13.861  1.1204  0.1841 -0.0105
 8970TIP3    H248402   4.581   5.257  13.756 -0.4157 -0.6646 -0.6606
 8971TIP3   OH248403   1.408   0.773   4.342  0.3392  1.2939  0.0844
 8971TIP3    H148404   1.315   0.753   4.339  0.5373  0.2986  0.1340
 8971TIP3    H248405   1.423   0.832   4.268 -0.0873  0.4003 -0.7217
 8972TIP3   OH248406   4.038   1.945   0.681 -0.4302  0.2401  0.3239
 8972TIP3    H148407   3.944   1.950   0.691 -0.4997 -0.7055  0.2815
 8972TIP3    H248408   4.059   2.011   0.615 -1.0747  0.4015  0.2782
 8973TIP3   OH248409   3.492   2.219  16.680  0.7281  0.2009 -0.0890
 8973TIP3    H148410   3.574   2.221  16.729 -0.6191 -0.3186  2.3109
 8973TIP3    H248411   3.431   2.171  16.736 -1.6321  1.7636 -1.1403
 8974TIP3   OH248412   6.116   5.793   6.051 -0.0426 -0.5534 -0.2569
 8974TIP3    H148413   6.034   5.758   6.015 -0.4189 -1.0435  1.0230
 8974TIP3    H248414   6.142   5.730   6.118  0.4798  0.4683  0.5354
 8975TIP3   OH248415   5.428   6.184   5.020 -0.2381 -0.2079 -0.0334
 8975TIP3    H148416   5.357   6.149   4.967  0.2370 -0.6497 -0.3855
 8975TIP3    H248417   5.400   6.169   5.111  0.4545 -2.6011 -0.1567
 8976TIP3   OH248418   6.650   5.067   0.430 -0.1715  0.0135  0.4644
 8976TIP3    H148419   6.602   5.146   0.456 -0.3200  0.7868 -1.9420
 8976TIP3    H248420   6.616   4.998   0.488 -1.4102  1.3197  1.3530
 8977TIP3   OH248421   5.312   4.049  12.529  0.2955  0.5161 -1.0550
 8977TIP3    H148422   5.240   4.085  12.476 -0.9958  1.0794  0.9689
 8977TIP3    H248423   5.288   3.957  12.542  0.7373  0.3159 -1.6315
 8978TIP3   OH248424   2.865   1.526  17.035  0.7811  0.2169  0.2312
 8978TIP3    H148425   2.787   1.578  17.019  1.0368  0.3866 -0.4781
 8978TIP3    H248426   2.832   1.446  17.076  0.1796  0.0748 -0.5014
 8979TIP3   OH248427   0.563   4.343   1.611  0.0054 -0.1343 -0.0875
 8979TIP3    H148428   0.568   4.267   1.553 -0.8190  0.1666 -0.5747
 8979TIP3    H248429   0.479   4.333   1.656 -1.4695  1.8311 -2.1454
 8980TIP3   OH248430   3.780   0.236   3.688 -0.3857  0.7136  0.4691
 8980TIP3    H148431   3.744   0.176   3.622 -0.8408  2.5488 -1.0561
 8980TIP3    H248432   3.788   0.183   3.767 -2.3272 -0.9247 -0.3331
 8981TIP3   OH248433   1.488   0.378  11.018  0.8213  0.3619  0.1633
 8981TIP3    H148434   1.519   0.319  11.087 -0.4415  0.3176  0.7061
 8981TIP3    H248435   1.467   0.459  11.064 -1.6544 -0.2105  0.1462
 8982TIP3   OH248436   6.290   3.947  15.073  0.2113  0.2837  0.3274
 8982TIP3    H148437   6.316   3.893  15.148 -2.0867 -0.6678  0.5437
 8982TIP3    H248438   6.263   4.030  15.111 -2.5910 -0.7676  0.8928
 8983TIP3   OH248439   1.521   3.206   3.421  0.2154 -0.1671  0.0180
 8983TIP3    H148440   1.514   3.126   3.369 -0.7406  0.5468 -1.0083
 8983TIP3    H248441   1.547   3.274   3.359  0.0728  0.5114  0.6776
 8984TIP3   OH248442   3.079   0.850   3.310 -0.1168  0.1859 -0.1786
 8984TIP3    H148443   3.011   0.802   3.358  0.6058 -1.1803 -0.4634
 8984TIP3    H248444   3.038   0.872   3.226  0.1237 -1.6970 -0.8405
 8985TIP3   OH248445   3.126   4.841  13.101  0.1955  0.0368  0.5978
 8985TIP3    H148446   3.057   4.816  13.163 -0.7364  1.5478  0.2128
 8985TIP3    H248447   3.188   4.768  13.104 -0.8781 -0.8745  1.7467
 8986TIP3   OH248448   6.497   6.344  15.944 -0.3198  0.2655 -0.6099
 8986TIP3    H148449   6.571   6.306  15.898 -0.7249  0.1532 -1.1775
 8986TIP3    H248450   6.536   6.405  16.007  0.2386  0.4225 -1.1064
 8987TIP3   OH248451   2.166   0.997   2.369 -0.1717 -0.5059  0.0609
 8987TIP3    H148452   2.181   1.091   2.361 -0.6382 -0.3774  0.6527
 8987TIP3    H248453   2.193   0.961   2.284  0.3544  0.1119 -0.0415
 8988TIP3   OH248454   5.574   4.064  16.709  0.0793  0.2975 -0.0173
 8988TIP3    H148455   5.579   4.151  16.749 -1.9317  0.0282  0.9213
 8988TIP3    H248456   5.626   4.008  16.766  0.5820  0.6882 -0.0846
 8989TIP3   OH248457   5.317   4.611   6.686  0.2051 -0.1452 -0.2622
 8989TIP3    H148458   5.260   4.564   6.747 -1.9293  0.8643 -1.3420
 8989TIP3    H248459   5.406   4.588   6.712 -0.6690 -1.1135  2.0866
 8990TIP3   OH248460   2.180   6.392   6.214  0.5334 -0.4971  0.2855
 8990TIP3    H148461   2.233   6.323   6.176 -0.7321 -0.3157 -1.9442
 8990TIP3    H248462   2.178   6.461   6.148  1.3969  1.5789  2.2512
 8991TIP3   OH248463   1.226   2.785   2.030  0.8462  0.0295 -0.2618
 8991TIP3    H148464   1.227   2.800   1.935  0.8568  1.0179 -0.1152
 8991TIP3    H248465   1.286   2.851   2.065 -0.8867  1.1841  0.6426
 8992TIP3   OH248466   2.659   5.179   5.811  0.2757  0.0558  0.0601
 8992TIP3    H148467   2.653   5.085   5.830  0.5283 -0.2291 -1.1664
 8992TIP3    H248468   2.733   5.210   5.863 -0.9192 -0.0155  1.8954
 8993TIP3   OH248469   3.086   3.808   1.271 -0.2465  0.3602  0.9181
 8993TIP3    H148470   3.138   3.887   1.258 -0.3683  0.2303 -0.4031
 8993TIP3    H248471   3.143   3.736   1.242 -1.0786  0.2073 -0.4152
 8994TIP3   OH248472   1.204   6.187  10.456  0.4969  0.2508  0.3972
 8994TIP3    H148473   1.119   6.188  10.499 -0.6675 -3.2100 -1.4811
 8994TIP3    H248474   1.187   6.224  10.369  0.3269 -2.3033 -0.7262
 8995TIP3   OH248475   6.611   2.209  14.253  0.1091  0.2681 -0.4341
 8995TIP3    H148476   6.521   2.192  14.282  0.0362 -0.1342 -0.8771
 8995TIP3    H248477   6.664   2.198  14.332 -0.4712  3.1962  0.5133
 8996TIP3   OH248478   1.631   6.362   6.270  0.6263 -0.2334 -0.3094
 8996TIP3    H148479   1.637   6.454   6.298 -0.3662 -0.5979  1.2571
 8996TIP3    H248480   1.703   6.318   6.316 -0.9938 -0.8307  1.8223
 8997TIP3   OH248481   6.223   4.386   2.802 -0.0539 -0.6940  0.2254
 8997TIP3    H148482   6.243   4.476   2.776  1.3568  0.1451  3.6379
 8997TIP3    H248483   6.284   4.332   2.751  1.1444  0.5742  0.2565
 8998TIP3   OH248484   6.697   4.322  16.536 -0.2769  0.1996 -0.8041
 8998TIP3    H148485   6.644   4.272  16.473  0.7597 -2.7910  0.4975
 8998TIP3    H248486   6.778   4.271  16.545  1.5025  2.9346 -0.3542
 8999TIP3   OH248487   6.604   1.116  13.622  0.1342  0.1603 -0.4182
 8999TIP3    H148488   6.576   1.101  13.712 -1.4445 -1.3122 -1.0891
 8999TIP3    H248489   6.697   1.094  13.622  0.3732  1.0249  1.0045
 9000TIP3   OH248490   5.259   4.057   5.753  0.1395  0.1329 -0.1934
 9000TIP3    H148491   5.168   4.029   5.737  0.5892 -0.6844 -1.5094
 9000TIP3    H248492   5.255   4.104   5.836 -1.6693  0.9873 -0.7139
 9001TIP3   OH248493   3.339   4.904   5.151  0.3392  0.5299 -0.2358
 9001TIP3    H148494   3.368   4.920   5.240  0.0593 -0.5969  0.0705
 9001TIP3    H248495   3.370   4.816   5.130 -0.9801  0.1290 -0.6553
 9002TIP3   OH248496   3.940   2.354   2.249  0.5600  0.6493 -0.2212
 9002TIP3    H148497   3.845   2.353   2.258  0.6392  0.7709  0.8259
 9002TIP3    H248498   3.970   2.407   2.323  1.4138  1.0572 -0.8465
 9003TIP3   OH248499   6.731   3.190  13.561 -0.2325 -0.2875 -0.4126
 9003TIP3    H148500   6.806   3.154  13.513 -0.7735 -0.6903 -0.9756
 9003TIP3    H248501   6.702   3.263  13.508  1.1414  1.3450  0.9577
 9004TIP3   OH248502   2.722   0.572  15.890  0.0620 -0.4335  0.6526
 9004TIP3    H148503   2.786   0.586  15.960  0.0903  0.9410  0.3832
 9004TIP3    H248504   2.669   0.498  15.920 -0.0710  0.2611  2.2340
 9005TIP3   OH248505   2.036   6.502   2.921  0.0055 -0.2717  0.0625
 9005TIP3    H148506   2.021   6.494   3.015 -1.1920  0.3517 -0.0492
 9005TIP3    H248507   2.078   6.588   2.911  0.9560 -0.7235  0.0990
 9006TIP3   OH248508   1.784   6.729  14.179  0.1186  0.4105 -0.2764
 9006TIP3    H148509   1.733   6.649  14.187  0.8978  0.0477  1.3560
 9006TIP3    H248510   1.720   6.800  14.183 -0.3989 -0.0803  0.2004
 9007TIP3   OH248511   6.029   1.351  16.192  0.0867 -0.3655 -0.0946
 9007TIP3    H148512   5.960   1.369  16.128 -0.5298 -1.5490  0.2169
 9007TIP3    H248513   6.094   1.420  16.177 -1.4130  1.1257 -0.0007
 9008TIP3   OH248514   3.717   2.340   2.548 -0.0979  0.0796 -0.0089
 9008TIP3    H148515   3.775   2.263   2.548 -1.6882 -1.1686 -0.4449
 9008TIP3    H248516   3.712   2.365   2.456  0.7185  0.9758  0.1768
 9009TIP3   OH248517   1.234   6.204  16.688 -0.2512 -0.1993 -0.0405
 9009TIP3    H148518   1.288   6.263  16.635  0.0498 -1.4415 -1.1774
 9009TIP3    H248519   1.185   6.262  16.746  0.8179  1.0913 -0.3695
 9010TIP3   OH248520   0.286   4.144   2.929  0.3513  0.1022 -0.4588
 9010TIP3    H148521   0.347   4.083   2.887 -0.6039 -1.0770 -0.1666
 9010TIP3    H248522   0.200   4.115   2.901 -0.1784  0.6642  0.5600
 9011TIP3   OH248523   0.698   6.194   2.440 -0.1573 -0.6205 -0.1721
 9011TIP3    H148524   0.605   6.199   2.419 -0.2655 -1.2761  0.1339
 9011TIP3    H248525   0.700   6.183   2.535  0.2318 -0.6894 -0.1895
 9012TIP3   OH248526   4.511   4.920  15.525  0.1169 -0.6692  0.2124
 9012TIP3    H148527   4.438   4.978  15.503  1.1280  0.4503 -0.2635
 9012TIP3    H248528   4.470   4.848  15.573 -1.6316 -1.1770 -1.8360
 9013TIP3   OH248529   5.473   2.547  10.930  0.3260  0.2129  0.1781
 9013TIP3    H148530   5.428   2.626  10.900  0.7889  0.6544  0.6428
 9013TIP3    H248531   5.402   2.491  10.962  0.0007  0.4638 -0.0892
 9014TIP3   OH248532   6.413   2.320  15.548  0.3649  0.2211  0.1218
 9014TIP3    H148533   6.487   2.269  15.514  2.3274  1.5616  2.0805
 9014TIP3    H248534   6.354   2.329  15.474  0.7104 -3.3561 -0.7880
 9015TIP3   OH248535   5.450   6.765  12.980 -0.6452  0.5384  0.1436
 9015TIP3    H148536   5.359   6.750  12.953 -0.8540  0.3943  0.8954
 9015TIP3    H248537   5.488   6.816  12.909 -1.1425  0.0834 -0.4626
 9016TIP3   OH248538   6.049   1.372  10.205  0.2062  0.0987 -0.1920
 9016TIP3    H148539   6.084   1.284  10.221 -1.3253 -0.5443 -0.2080
 9016TIP3    H248540   5.955   1.359  10.197  0.2193  1.2686 -3.5111
 9017TIP3   OH248541   1.297   0.400   1.539 -0.2962  0.1636 -0.0557
 9017TIP3    H148542   1.278   0.417   1.631 -0.2535 -0.6239  0.1017
 9017TIP3    H248543   1.211   0.386   1.499 -0.2406 -0.7167  0.1166
 9018TIP3   OH248544   3.482   6.427  14.942  0.1086  0.7855  0.3362
 9018TIP3    H148545   3.467   6.495  15.008 -3.7646 -0.3665  0.9259
 9018TIP3    H248546   3.452   6.466  14.860  1.6529  1.0513 -0.1314
 9019TIP3   OH248547   0.931   5.055   3.700  0.4126 -0.0407  0.1150
 9019TIP3    H148548   0.843   5.071   3.733  0.7713  0.0191  1.0608
 9019TIP3    H248549   0.945   5.124   3.635  0.2457  0.7277  0.8810
 9020TIP3   OH248550   4.018   3.542   5.075 -0.2162  0.0624  0.8825
 9020TIP3    H148551   3.939   3.509   5.031 -1.3283  1.3684  1.8233
 9020TIP3    H248552   4.008   3.637   5.074  2.6777  0.4904 -1.3818
 9021TIP3   OH248553   0.144   5.073  13.599  0.5134  0.2640  0.5984
 9021TIP3    H148554   0.155   5.057  13.693 -0.8949  1.5008  1.0190
 9021TIP3    H248555   0.217   5.130  13.576  0.4144  0.6264  1.1497
 9022TIP3   OH248556   0.783   0.760   0.223 -0.2353  0.4367  0.7418
 9022TIP3    H148557   0.779   0.714   0.139  2.3778  1.1866  0.1184
 9022TIP3    H248558   0.700   0.738   0.266 -1.1343 -0.9445 -1.5034
 9023TIP3   OH248559   2.913   1.826  15.383  0.0378  0.0628  0.4694
 9023TIP3    H148560   2.866   1.897  15.427 -0.6882  0.0997 -0.3418
 9023TIP3    H248561   2.931   1.762  15.452 -3.8023 -1.3653  0.4032
 9024TIP3   OH248562   1.614   5.829   6.550  0.3157 -0.2875  0.2208
 9024TIP3    H148563   1.593   5.736   6.553  0.2915 -0.2916 -0.0719
 9024TIP3    H248564   1.708   5.832   6.530  0.0372 -0.2299 -1.1041
 9025TIP3   OH248565   3.716   2.685   3.883  0.1621  0.3577  0.2009
 9025TIP3    H148566   3.793   2.665   3.936  0.1111 -0.5134 -0.0375
 9025TIP3    H248567   3.661   2.607   3.889 -1.0931  1.2740  1.0102
 9026TIP3   OH248568   4.709   2.529   4.213  0.5106  0.4881  0.3892
 9026TIP3    H148569   4.745   2.613   4.244  0.0755  1.6316 -1.9927
 9026TIP3    H248570   4.618   2.550   4.189  0.1102 -0.9072  0.6304
 9027TIP3   OH248571   3.380   6.809   1.206 -0.3159 -0.2093  0.2092
 9027TIP3    H148572   3.468   6.781   1.230 -0.5158 -2.9939 -1.8695
 9027TIP3    H248573   3.378   6.804   1.111 -2.6466  0.1258  0.1729
 9028TIP3   OH248574   6.072   2.232   3.753  0.1723 -0.3421 -0.3467
 9028TIP3    H148575   5.996   2.291   3.753  0.2741 -0.1774 -1.8763
 9028TIP3    H248576   6.146   2.289   3.775 -0.1133 -0.5183  1.2370
 9029TIP3   OH248577   3.785   1.459  11.423  0.7995 -0.2991 -0.4624
 9029TIP3    H148578   3.795   1.372  11.461  2.4125  0.2984  0.6091
 9029TIP3    H248579   3.735   1.446  11.343 -1.6562 -1.8101  1.2100
 9030TIP3   OH248580   3.536   0.207  17.098 -0.2713 -0.0441 -0.4324
 9030TIP3    H148581   3.489   0.130  17.131  1.2708 -0.9900 -0.3417
 9030TIP3    H248582   3.539   0.267  17.173 -0.6321 -0.3037 -0.2066
 9031TIP3   OH248583   1.876   4.852  13.490  0.0228  0.1185 -0.2177
 9031TIP3    H148584   1.790   4.825  13.457 -0.8629 -0.1473  2.1139
 9031TIP3    H248585   1.915   4.902  13.419 -1.5550 -0.7612 -1.7759
 9032TIP3   OH248586   3.921   6.367  10.592  1.1969 -0.4951 -0.0435
 9032TIP3    H148587   3.959   6.341  10.676 -2.1708 -0.9044  1.5336
 9032TIP3    H248588   3.871   6.445  10.612 -0.9043 -1.4457 -1.2625
 9033TIP3   OH248589   4.638   5.388   2.078  0.1986  0.5783 -0.4280
 9033TIP3    H148590   4.711   5.335   2.048  0.5967  0.7887  0.1593
 9033TIP3    H248591   4.628   5.455   2.011 -0.5593 -0.4413 -1.3846
 9034TIP3   OH248592   0.074   1.036  14.544 -0.1490 -0.1084 -0.0544
 9034TIP3    H148593   0.024   1.070  14.618  0.0917  0.7794 -0.2942
 9034TIP3    H248594   0.017   1.048  14.468 -1.2656 -2.8962  0.2020
 9035TIP3   OH248595   4.727   1.741   2.266  0.1110 -0.0829 -0.0087
 9035TIP3    H148596   4.756   1.752   2.175 -0.5995 -0.2861 -0.2689
 9035TIP3    H248597   4.796   1.781   2.318  0.8282 -0.5107 -0.6103
 9036TIP3   OH248598   4.827   6.482   3.623  0.1612  0.6876  0.3614
 9036TIP3    H148599   4.921   6.472   3.610 -0.0523  1.1085 -1.9623
 9036TIP3    H248600   4.818   6.519   3.710  2.0374 -0.8038  1.2445
 9037TIP3   OH248601   3.060   0.824   5.518  0.1789  0.0210 -0.0181
 9037TIP3    H148602   3.016   0.818   5.602 -0.4308  1.7496 -0.1732
 9037TIP3    H248603   3.153   0.830   5.540  0.0522  0.1122  0.5021
 9038TIP3   OH248604   3.395   2.725   1.262 -0.1981 -0.0023  0.0201
 9038TIP3    H148605   3.408   2.737   1.356 -1.7800 -0.0470  0.2698
 9038TIP3    H248606   3.469   2.770   1.222 -0.2635  1.2628  1.2449
 9039TIP3   OH248607   4.740   0.851  11.762  0.0017 -0.2586 -0.1592
 9039TIP3    H148608   4.785   0.933  11.743  0.5687 -0.5992 -0.3190
 9039TIP3    H248609   4.671   0.875  11.824 -0.5252  0.5135 -1.0165
 9040TIP3   OH248610   4.414   0.860  13.936 -1.3301  0.2098  0.0624
 9040TIP3    H148611   4.405   0.768  13.960  2.9767 -1.2393 -2.6882
 9040TIP3    H248612   4.491   0.890  13.985 -1.3722  1.7138 -0.7368
 9041TIP3   OH248613   0.188   0.328   5.803  0.2751  0.7067  0.3580
 9041TIP3    H148614   0.251   0.305   5.872  1.3963  0.5328 -0.6946
 9041TIP3    H248615   0.120   0.260   5.809  1.8846 -1.0704 -0.6134
 9042TIP3   OH248616   5.595   4.948   6.075  0.3077  0.1274  1.0822
 9042TIP3    H148617   5.570   5.037   6.098 -1.3276  0.2131 -0.7561
 9042TIP3    H248618   5.524   4.917   6.019  2.5179 -1.0751 -1.2455
 9043TIP3   OH248619   0.163   1.405   1.090  0.0866  0.3949 -0.1809
 9043TIP3    H148620   0.224   1.424   1.019 -1.2796  0.7369 -1.3055
 9043TIP3    H248621   0.130   1.318   1.071 -1.4048  1.0754 -0.8271
 9044TIP3   OH248622   3.859   0.383   0.297 -0.0321 -0.4473  0.4056
 9044TIP3    H148623   3.768   0.375   0.325 -0.7001  1.5930 -0.9327
 9044TIP3    H248624   3.892   0.460   0.342  0.6148 -0.4063 -0.1174
 9045TIP3   OH248625   0.463   6.056  12.692 -0.0122  0.3173 -0.4430
 9045TIP3    H148626   0.470   6.090  12.781 -0.5209 -0.6823 -0.0064
 9045TIP3    H248627   0.491   6.129  12.636 -1.6199  1.6553  0.4023
 9046TIP3   OH248628   3.534   3.400   0.376  0.4982  0.1263  0.0116
 9046TIP3    H148629   3.536   3.316   0.421  0.2090  0.1988  0.1613
 9046TIP3    H248630   3.626   3.418   0.354  0.4142 -0.9132 -1.2965
 9047TIP3   OH248631   6.309   6.615  11.573 -0.4770 -0.2569  0.3949
 9047TIP3    H148632   6.223   6.652  11.553  0.8132  3.0617  0.2993
 9047TIP3    H248633   6.363   6.637  11.497  0.2524 -3.4661 -0.1666
 9048TIP3   OH248634   2.898   3.864  13.569 -0.2391  0.0117 -0.2898
 9048TIP3    H148635   2.941   3.844  13.652  2.2459  0.6104 -1.3460
 9048TIP3    H248636   2.890   3.778  13.525  0.0365 -0.0822 -0.1546
 9049TIP3   OH248637   2.591   1.420   0.044 -0.0858 -0.5758 -0.1982
 9049TIP3    H148638   2.515   1.466   0.008  0.4193 -0.0800 -0.6684
 9049TIP3    H248639   2.556   1.338   0.079 -1.2871  0.7875  2.0618
 9050TIP3   OH248640   2.077   0.593  16.447  0.2008  0.0092  0.7657
 9050TIP3    H148641   2.052   0.625  16.534  0.2474  1.8600  0.1495
 9050TIP3    H248642   2.166   0.562  16.458 -0.4817 -1.7598  1.8127
 9051TIP3   OH248643   0.355   2.056   4.419  0.0226 -0.0118  0.0970
 9051TIP3    H148644   0.263   2.054   4.391  0.4568 -1.9806 -1.3780
 9051TIP3    H248645   0.405   2.069   4.338  1.0867  0.8143  0.8561
 9052TIP3   OH248646   2.054   0.320  10.521  0.1543 -0.3252 -0.0122
 9052TIP3    H148647   2.124   0.264  10.555  0.5322  0.1368 -0.0287
 9052TIP3    H248648   2.009   0.265  10.456 -0.3925 -1.1111  1.0111
 9053TIP3   OH248649   2.719   2.318  16.477  0.1084  0.6051  0.2175
 9053TIP3    H148650   2.696   2.306  16.569 -1.3344  1.4683 -0.0024
 9053TIP3    H248651   2.811   2.344  16.478 -0.4402  2.6690  1.5867
 9054TIP3   OH248652   0.017   5.512  14.424 -0.2749  0.0625 -0.1618
 9054TIP3    H148653  -0.040   5.456  14.476 -0.7273  0.7706  0.1214
 9054TIP3    H248654  -0.031   5.595  14.417 -0.2364 -0.0173 -1.7213
 9055TIP3   OH248655   2.658   0.958  13.691  0.0295  0.1103  0.1222
 9055TIP3    H148656   2.573   0.955  13.735 -0.1123  2.3305  0.1259
 9055TIP3    H248657   2.717   0.910  13.749 -0.8172  0.2956  1.1658
 9056TIP3   OH248658   6.599   4.104   5.587 -0.3266  0.2657 -0.0463
 9056TIP3    H148659   6.535   4.033   5.597 -0.0556  0.2141  1.7958
 9056TIP3    H248660   6.663   4.071   5.525 -1.7465  0.0777 -1.4527
 9057TIP3   OH248661   1.556   6.092   5.298 -0.0753  0.2752  0.4776
 9057TIP3    H148662   1.518   6.012   5.262 -1.7349  0.5238  1.5662
 9057TIP3    H248663   1.621   6.061   5.361 -0.1508 -0.2077  0.3219
 9058TIP3   OH248664   1.867   2.168   5.164  0.4285 -0.0336 -0.2431
 9058TIP3    H148665   1.932   2.223   5.121  1.1370 -0.0252  0.7988
 9058TIP3    H248666   1.803   2.230   5.199  0.5086  0.0442 -0.2318
 9059TIP3   OH248667   2.879   5.922  12.819  0.8258 -0.4085 -0.5323
 9059TIP3    H148668   2.912   5.836  12.846 -0.4686 -1.5967 -2.5064
 9059TIP3    H248669   2.853   5.910  12.728  2.6056  2.6872 -1.5956
 9060TIP3   OH248670   5.872   0.326   5.825  0.0797  0.1065  0.1428
 9060TIP3    H148671   5.799   0.345   5.885  0.4334  1.8674  0.0735
 9060TIP3    H248672   5.945   0.304   5.883 -0.4029 -1.4342  0.2189
 9061TIP3   OH248673   6.772   2.718  13.623  0.1191 -0.8388  0.4547
 9061TIP3    H148674   6.854   2.766  13.607 -0.0394 -0.6615  0.1816
 9061TIP3    H248675   6.759   2.726  13.718  0.2865 -0.6567  0.4638
 9062TIP3   OH248676   5.028   5.303   5.908  0.6388  0.5169 -0.0030
 9062TIP3    H148677   5.094   5.295   5.977  0.5172 -2.1441 -0.1083
 9062TIP3    H248678   4.945   5.305   5.954  0.5645 -1.1386 -0.0142
 9063TIP3   OH248679   3.788   5.601  17.214 -0.0201 -0.4783  0.7335
 9063TIP3    H148680   3.728   5.537  17.175 -0.2272 -0.0765  0.3775
 9063TIP3    H248681   3.874   5.561  17.206 -0.0771 -0.4664 -0.0149
 9064TIP3   OH248682   4.375   5.157   5.905 -0.1455 -0.8989  0.1723
 9064TIP3    H148683   4.357   5.135   5.814  0.6514 -0.0943 -0.1997
 9064TIP3    H248684   4.314   5.228   5.926 -1.0012 -1.7353  0.5882
 9065TIP3   OH248685   2.087   1.239   0.884 -0.3419  0.0250  0.2919
 9065TIP3    H148686   2.007   1.268   0.839 -0.4842 -1.1437 -0.2450
 9065TIP3    H248687   2.056   1.206   0.969 -0.2817  0.6411  0.5576
 9066TIP3   OH248688   3.266   5.178   0.025 -0.2272 -0.1306  0.2647
 9066TIP3    H148689   3.324   5.138  -0.040  0.4989 -1.6588  1.7710
 9066TIP3    H248690   3.206   5.232  -0.026 -0.8058 -2.6139 -1.8642
 9067TIP3   OH248691   6.420   2.470   0.628  0.5051 -0.3326  0.7623
 9067TIP3    H148692   6.414   2.429   0.715 -1.4073 -0.4660  0.6111
 9067TIP3    H248693   6.329   2.491   0.606  1.1330  1.1863 -0.5174
 9068TIP3   OH248694   5.565   6.527   3.210  0.0054 -0.5037  0.1541
 9068TIP3    H148695   5.574   6.622   3.205 -1.9498 -0.3191 -1.3168
 9068TIP3    H248696   5.554   6.509   3.303  3.5319  0.2707  0.8687
 9069TIP3   OH248697   0.657   4.574  13.854 -0.1327  0.3425 -0.4320
 9069TIP3    H148698   0.709   4.635  13.905 -0.5650  0.5670 -0.2484
 9069TIP3    H248699   0.692   4.580  13.765  1.1979 -0.6996 -0.0014
 9070TIP3   OH248700   5.774   1.237  14.720  0.1563  0.1041 -0.1187
 9070TIP3    H148701   5.715   1.167  14.748 -1.0024  1.4223  0.8682
 9070TIP3    H248702   5.827   1.256  14.797  1.0521 -0.2223 -0.6342
 9071TIP3   OH248703   3.010   4.981  11.688 -0.1061 -0.0440 -0.8526
 9071TIP3    H148704   3.075   5.050  11.693  0.9193 -0.7983 -2.6411
 9071TIP3    H248705   2.978   4.970  11.778  0.1974  2.2332 -0.4200
 9072TIP3   OH248706   6.552   0.830   4.873 -0.5378  0.2165  0.2728
 9072TIP3    H148707   6.492   0.819   4.946 -1.0615  0.3134 -0.1365
 9072TIP3    H248708   6.605   0.906   4.897  0.5120 -0.8079  1.3589
 9073TIP3   OH248709   2.804   3.115   6.249  0.5470 -0.0292  0.2023
 9073TIP3    H148710   2.828   3.191   6.302  3.1692 -1.4755  1.2934
 9073TIP3    H248711   2.751   3.061   6.307 -0.1557  0.3250 -0.1057
 9074TIP3   OH248712   1.645   1.164  16.037 -0.1802  0.2046 -0.1960
 9074TIP3    H148713   1.704   1.226  16.078  0.7712 -1.1678  0.6029
 9074TIP3    H248714   1.701   1.111  15.980 -0.6639 -0.8919  0.3037
 9075TIP3   OH248715   3.100   6.617  16.970  0.3444  0.6600  0.1376
 9075TIP3    H148716   3.023   6.673  16.962  1.1919  1.6383 -1.6975
 9075TIP3    H248717   3.173   6.673  16.945  1.5518 -0.5096  0.9429
 9076TIP3   OH248718   6.493   0.911  14.541 -0.2145 -0.0618 -0.3663
 9076TIP3    H148719   6.402   0.896  14.567 -0.0985  0.9040  0.6778
 9076TIP3    H248720   6.543   0.907  14.623  0.6796 -0.4937 -0.9095
 9077TIP3   OH248721   5.559   0.730  14.849 -0.2217 -0.2506  0.2447
 9077TIP3    H148722   5.487   0.793  14.844 -0.3804 -0.4025  0.5670
 9077TIP3    H248723   5.597   0.744  14.936  0.5305  0.2514 -0.1628
 9078TIP3   OH248724   2.349   0.768  11.301 -0.3672  0.5611 -0.3984
 9078TIP3    H148725   2.356   0.779  11.396  0.1439 -3.1221  0.1356
 9078TIP3    H248726   2.260   0.736  11.287  0.2181 -0.9632 -0.8358
 9079TIP3   OH248727   0.409   1.203  16.771 -0.3361 -0.0289 -0.6033
 9079TIP3    H148728   0.428   1.124  16.820  2.6903  0.0544 -1.4426
 9079TIP3    H248729   0.344   1.249  16.824 -0.2022 -1.8115  1.2318
 9080TIP3   OH248730   3.249   4.150   4.596 -0.6112  0.1135  0.5065
 9080TIP3    H148731   3.175   4.090   4.595 -0.8614  0.3958  1.5645
 9080TIP3    H248732   3.210   4.238   4.600 -0.2784  0.2204  3.6458
 9081TIP3   OH248733   5.097   4.111   1.881 -0.1122  0.1559 -0.7004
 9081TIP3    H148734   5.094   4.195   1.928 -1.8512 -0.1791 -0.1574
 9081TIP3    H248735   5.187   4.105   1.850  0.2690  1.8468 -0.0532
 9082TIP3   OH248736   2.401   4.243   2.600  0.0472  0.2543 -0.4887
 9082TIP3    H148737   2.484   4.194   2.597 -0.4414 -0.5544 -1.1546
 9082TIP3    H248738   2.402   4.295   2.520  0.6983  1.6031  0.3564
 9083TIP3   OH248739   3.849   4.340   3.583 -0.2812  0.6541  0.4650
 9083TIP3    H148740   3.925   4.323   3.639 -0.8269  0.9070  1.2845
 9083TIP3    H248741   3.778   4.362   3.643 -0.9493  0.6637 -0.3081
 9084TIP3   OH248742   1.264   0.813   1.989 -0.3016 -0.2692 -0.9404
 9084TIP3    H148743   1.232   0.848   2.072  0.4600  0.7139 -1.0382
 9084TIP3    H248744   1.314   0.885   1.951  1.1229 -1.3849 -1.2704
 9085TIP3   OH248745   4.530   0.826   0.040 -0.3592  0.0826 -0.3629
 9085TIP3    H148746   4.469   0.806   0.110  1.4560 -1.7494  0.7769
 9085TIP3    H248747   4.542   0.921   0.045  2.7492 -0.2684  4.5890
 9086TIP3   OH248748   3.259   3.808   5.895  0.1795  0.1048 -0.2420
 9086TIP3    H148749   3.266   3.876   5.962  3.5003 -2.0340  1.9026
 9086TIP3    H248750   3.166   3.790   5.889 -0.5315  2.5810  1.4535
 9087TIP3   OH248751   6.694   5.748  14.343 -0.4171  0.1071 -0.7468
 9087TIP3    H148752   6.716   5.794  14.262  2.0141  0.3986 -0.0051
 9087TIP3    H248753   6.640   5.811  14.392  0.1867  0.9147 -1.0969
 9088TIP3   OH248754   1.353   5.042   1.585  0.3527  0.1004 -0.3185
 9088TIP3    H148755   1.442   5.015   1.608  0.5246  0.5277 -0.4542
 9088TIP3    H248756   1.339   5.005   1.497 -0.5161 -2.0092  0.6536
 9089TIP3   OH248757   6.762   6.632  10.487 -0.2283 -0.2057  0.5966
 9089TIP3    H148758   6.677   6.636  10.444 -0.3619 -1.5060  0.7017
 9089TIP3    H248759   6.752   6.565  10.554  1.1918 -1.1776 -0.1204
 9090TIP3   OH248760   6.028   5.417   0.361 -0.1710 -0.0809 -0.1164
 9090TIP3    H148761   6.081   5.458   0.293  0.2756  0.3824  0.5011
 9090TIP3    H248762   6.045   5.469   0.440 -0.5761 -0.6884  0.3830
 9091TIP3   OH248763   1.155   5.602   3.481  0.1241  0.0264 -0.2213
 9091TIP3    H148764   1.153   5.515   3.521 -0.7311  0.1438  0.0300
 9091TIP3    H248765   1.150   5.663   3.555 -3.1556  0.2409 -0.4348
 9092TIP3   OH248766   5.253   6.168  13.147 -0.1584 -0.1396 -0.5454
 9092TIP3    H148767   5.344   6.194  13.139 -0.0997 -0.4277 -0.8580
 9092TIP3    H248768   5.210   6.208  13.071 -0.9008  2.5004  1.1473
 9093TIP3   OH248769   1.365   2.356  14.431 -0.2447  0.6980 -0.1153
 9093TIP3    H148770   1.404   2.304  14.501 -0.6516  0.0768 -0.3482
 9093TIP3    H248771   1.363   2.297  14.356  1.6969  1.8230 -1.1535
 9094TIP3   OH248772   3.294   4.153   5.195 -0.3540  0.6344 -0.3191
 9094TIP3    H148773   3.298   4.095   5.119  2.5333 -0.5465  0.5771
 9094TIP3    H248774   3.363   4.217   5.179 -1.1751  1.7029  0.3353
 9095TIP3   OH248775   2.644   1.112   2.669  0.4601  1.2532 -0.2382
 9095TIP3    H148776   2.549   1.117   2.663  0.5875  3.5502 -1.3105
 9095TIP3    H248777   2.666   1.032   2.621 -0.9231  0.3963  0.4833
 9096TIP3   OH248778   0.608   4.731  12.972  0.4646 -0.5451 -0.2210
 9096TIP3    H148779   0.657   4.792  13.027  0.9533  0.6441 -1.8908
 9096TIP3    H248780   0.522   4.725  13.013  1.3336 -1.0391  1.5986
 9097TIP3   OH248781   1.842   3.049   1.428  0.2724 -0.2985  0.3057
 9097TIP3    H148782   1.795   3.054   1.346 -1.0583  0.6166  1.0914
 9097TIP3    H248783   1.934   3.044   1.403  0.0363  1.8368 -1.2369
 9098TIP3   OH248784   1.907   2.647   4.261  0.2932 -0.7249  0.7750
 9098TIP3    H148785   1.817   2.668   4.288 -0.8860 -1.2153 -2.3592
 9098TIP3    H248786   1.960   2.719   4.296 -1.6963  0.8224  0.7679
 9099TIP3   OH248787   1.223   1.401   0.441 -0.2106 -0.7380 -0.1765
 9099TIP3    H148788   1.203   1.491   0.414  1.7692 -0.0781  0.3983
 9099TIP3    H248789   1.236   1.407   0.535  3.4962 -0.8222 -0.5463
 9100TIP3   OH248790   6.329   5.653   2.680 -0.0524  0.0251  0.5701
 9100TIP3    H148791   6.304   5.730   2.630  1.0030 -1.1293 -1.9104
 9100TIP3    H248792   6.413   5.626   2.642 -0.4011 -2.3629  1.3357
 9101TIP3   OH248793   0.362   5.444   1.562  0.2877 -0.1466 -0.0379
 9101TIP3    H148794   0.339   5.384   1.633  2.0797 -0.1956  0.5738
 9101TIP3    H248795   0.285   5.500   1.551 -0.2188 -0.4641  1.6121
 9102TIP3   OH248796   4.218   0.412  11.806 -0.2040  0.5753  0.3677
 9102TIP3    H148797   4.142   0.373  11.849  0.5730 -1.3688  0.1069
 9102TIP3    H248798   4.289   0.402  11.869  0.2796  0.4709 -0.1854
 9103TIP3   OH248799   2.012   6.788  16.630 -0.4526  0.0555  0.4638
 9103TIP3    H148800   2.034   6.832  16.713  0.4138  0.4375  0.0511
 9103TIP3    H248801   2.044   6.699  16.642  0.6465  0.3882  0.1776
 9104TIP3   OH248802   0.537   2.133   0.779  0.1539  0.0052  0.6083
 9104TIP3    H148803   0.627   2.121   0.750  0.1607  0.0219  0.6236
 9104TIP3    H248804   0.514   2.050   0.821 -0.0512 -0.2475  0.0160
 9105TIP3   OH248805   6.435   2.582  16.530  0.0865  0.4501  0.6145
 9105TIP3    H148806   6.475   2.666  16.507  0.9501  0.0367  0.5813
 9105TIP3    H248807   6.506   2.519  16.522  0.0607  0.0505  2.9487
 9106TIP3   OH248808   4.526   2.162  12.822 -0.3596  0.1255  0.2371
 9106TIP3    H148809   4.611   2.118  12.826 -0.7524 -0.7291 -0.5349
 9106TIP3    H248810   4.515   2.184  12.730  0.0782  2.4090  0.6726
 9107TIP3   OH248811   1.374   3.783   6.311  0.3782  0.0184  0.4434
 9107TIP3    H148812   1.434   3.710   6.321  1.3440  0.4740 -1.5819
 9107TIP3    H248813   1.288   3.742   6.303  0.8869 -0.9012 -0.5437
 9108TIP3   OH248814   1.335   5.022  16.037  0.2729 -0.1784  0.0765
 9108TIP3    H148815   1.249   5.029  16.079  0.3379  0.4435  0.1186
 9108TIP3    H248816   1.316   5.003  15.946  0.1334 -1.6852  0.4008
 9109TIP3   OH248817   2.050   2.157  13.397  0.2884 -0.1193  0.5409
 9109TIP3    H148818   2.036   2.189  13.486  1.0298  2.6240 -0.2466
 9109TIP3    H248819   1.974   2.188  13.347  0.4956 -0.5338 -0.0537
 9110TIP3   OH248820   1.121   0.716   4.351 -0.4829 -0.3893  0.0547
 9110TIP3    H148821   1.042   0.731   4.299 -1.6200  3.3089  2.4625
 9110TIP3    H248822   1.093   0.654   4.419 -0.2196 -1.7563 -1.0169
 9111TIP3   OH248823   0.619   0.918  15.247  0.2216  0.0629 -0.0359
 9111TIP3    H148824   0.569   0.947  15.170 -0.1373 -1.6019 -0.4548
 9111TIP3    H248825   0.590   0.976  15.317  0.6436  1.6983 -1.1542
 9112TIP3   OH248826   5.882   0.907  10.417 -0.0907 -0.0694  0.2587
 9112TIP3    H148827   5.948   0.856  10.371 -0.3151  0.3367 -0.5246
 9112TIP3    H248828   5.815   0.843  10.442  0.4858 -0.4429  0.8621
 9113TIP3   OH248829   2.477   4.708  15.592  0.3946 -0.4884  0.1086
 9113TIP3    H148830   2.556   4.660  15.565  0.2259 -1.0179  0.5294
 9113TIP3    H248831   2.500   4.748  15.676  0.9812  1.3153 -0.8563
 9114TIP3   OH248832   0.939   3.198   1.903  0.3747  0.1282 -0.5548
 9114TIP3    H148833   0.984   3.118   1.876  0.6758 -0.2185  0.8790
 9114TIP3    H248834   0.851   3.169   1.927  0.3976  0.2694 -0.2955
 9115TIP3   OH248835   1.722   5.441   4.814  0.3892 -0.3026 -0.0979
 9115TIP3    H148836   1.641   5.415   4.769  0.0348  0.0827  0.3078
 9115TIP3    H248837   1.788   5.380   4.781  0.1736  0.0590 -1.2429
 9116TIP3   OH248838   0.355   5.188   1.753 -0.2669  0.0159 -0.5010
 9116TIP3    H148839   0.444   5.213   1.728  0.3943 -2.3750 -0.7283
 9116TIP3    H248840   0.365   5.138   1.834 -1.2928 -1.0488 -1.0038
 9117TIP3   OH248841   5.481   2.527  14.647 -0.5440 -0.2422 -0.8683
 9117TIP3    H148842   5.424   2.604  14.653  0.9050  0.9846 -1.9198
 9117TIP3    H248843   5.532   2.528  14.728  1.5911  1.7562 -2.1176
 9118TIP3   OH248844   2.508   2.222   2.473  0.3716  0.2425 -0.3263
 9118TIP3    H148845   2.568   2.250   2.404  1.8991  1.0176  1.2441
 9118TIP3    H248846   2.469   2.142   2.440  1.6274  0.1963 -1.7804
 9119TIP3   OH248847   3.256   4.902   4.610  0.6952 -0.4206  0.5893
 9119TIP3    H148848   3.336   4.935   4.570  0.4197 -0.4055  0.0448
 9119TIP3    H248849   3.248   4.952   4.692  1.1182 -0.2659  0.5385
 9120TIP3   OH248850   6.244   0.537   6.530 -0.2158  0.3161 -0.4721
 9120TIP3    H148851   6.333   0.502   6.524  0.1160  1.1720 -0.5943
 9120TIP3    H248852   6.188   0.460   6.514  0.4478 -0.5907  1.3163
 9121TIP3   OH248853   6.064   3.955   4.494  0.0298  0.0730 -0.5224
 9121TIP3    H148854   6.111   3.875   4.469  0.1299  0.0774 -0.3459
 9121TIP3    H248855   5.973   3.937   4.471 -0.3374 -0.9249  1.4540
 9122TIP3   OH248856   5.421   0.875   5.569  0.4834 -0.1628  0.0123
 9122TIP3    H148857   5.358   0.845   5.636 -0.1180  0.3087 -0.3322
 9122TIP3    H248858   5.374   0.943   5.522  0.5817 -1.0757 -1.4636
 9123TIP3   OH248859   4.552   4.236  15.850 -0.2915  0.8369 -0.0431
 9123TIP3    H148860   4.584   4.159  15.898  0.7208  0.5379 -1.1339
 9123TIP3    H248861   4.494   4.199  15.783 -0.0645  1.0531 -0.3594
 9124TIP3   OH248862   3.590   1.110  14.119 -1.0503 -0.2140 -0.3202
 9124TIP3    H148863   3.563   1.198  14.092 -1.6847  0.1007  1.2321
 9124TIP3    H248864   3.632   1.123  14.204  0.4489 -1.2110 -0.8522
 9125TIP3   OH248865   0.568   5.285  15.722 -0.1521  0.0826  0.2799
 9125TIP3    H148866   0.598   5.368  15.760 -0.5411  1.0636 -1.4128
 9125TIP3    H248867   0.515   5.245  15.791  0.6801  0.8530  1.4123
 9126TIP3   OH248868   6.698   1.915  11.921  0.4249  0.2773  0.3240
 9126TIP3    H148869   6.722   1.846  11.858  1.2974  0.7647  0.1148
 9126TIP3    H248870   6.781   1.949  11.953  0.0607  2.1100 -0.5274
 9127TIP3   OH248871   5.363   3.103  16.095  0.0620  0.0670  0.6370
 9127TIP3    H148872   5.279   3.086  16.138  0.2330  2.4821  2.1540
 9127TIP3    H248873   5.428   3.066  16.153  0.1917  1.6409  1.5539
 9128TIP3   OH248874   4.105   4.060  12.206 -0.6671  0.2187  0.3910
 9128TIP3    H148875   4.170   4.029  12.268 -1.7530 -1.9650  0.5369
 9128TIP3    H248876   4.120   4.154  12.200  0.2075  0.3398  3.1028
 9129TIP3   OH248877   2.660   4.901   5.640  0.4443 -0.3569 -0.5057
 9129TIP3    H148878   2.685   4.873   5.728  0.7094 -0.5809 -0.6504
 9129TIP3    H248879   2.636   4.820   5.595 -0.9599 -0.1062 -0.2451
 9130TIP3   OH248880   4.781   6.472  12.475 -0.4079  0.1655  0.6024
 9130TIP3    H148881   4.759   6.551  12.525 -0.2277  0.9269 -0.4861
 9130TIP3    H248882   4.869   6.488  12.442 -0.9531  0.2048 -0.9120
 9131TIP3   OH248883   2.743   5.984   1.871 -0.0206  0.3072 -0.4207
 9131TIP3    H148884   2.809   6.045   1.837 -0.5172  0.1192 -1.7862
 9131TIP3    H248885   2.717   5.933   1.794 -0.5515 -0.7495  0.4460
 9132TIP3   OH248886   0.706   3.006   0.785  0.4633  0.3702 -0.2217
 9132TIP3    H148887   0.783   3.050   0.749  0.5264  0.6252  0.2180
 9132TIP3    H248888   0.640   3.012   0.716  1.3713 -1.3722 -1.2955
 9133TIP3   OH248889   5.158   3.700   7.138 -0.2895  0.0446 -0.1896
 9133TIP3    H148890   5.175   3.758   7.064 -0.2915  0.2073 -0.0618
 9133TIP3    H248891   5.063   3.700   7.148 -0.1785  3.1415  2.2857
 9134TIP3   OH248892   2.513   5.294  12.602 -0.6365 -0.7272  0.1299
 9134TIP3    H148893   2.427   5.320  12.569 -0.3101  0.2297 -0.0199
 9134TIP3    H248894   2.573   5.318  12.532  0.0256  1.0146  1.2272
 9135TIP3   OH248895   5.509   0.006   2.648  0.0974 -0.2330 -0.4363
 9135TIP3    H148896   5.504  -0.090   2.653  1.4491 -0.2688  1.1836
 9135TIP3    H248897   5.418   0.035   2.660 -0.2668 -1.2946 -0.5081
 9136TIP3   OH248898   2.308   0.863  11.947  0.2256  0.7442  0.0945
 9136TIP3    H148899   2.233   0.874  11.889  0.3075 -0.5919 -0.3081
 9136TIP3    H248900   2.279   0.897  12.031 -0.1825  1.9364 -0.5051
 9137TIP3   OH248901   0.773   2.367   1.126  0.0124 -0.1571 -0.1116
 9137TIP3    H148902   0.681   2.388   1.139 -0.5442 -2.5417  0.2966
 9137TIP3    H248903   0.787   2.377   1.032 -0.0018  2.3991  0.0901
 9138TIP3   OH248904   4.598   6.158   0.687 -0.0830 -0.4036  0.2574
 9138TIP3    H148905   4.520   6.112   0.717  0.9071 -1.5513  1.1822
 9138TIP3    H248906   4.651   6.170   0.766 -0.1907  2.1933  0.0195
 9139TIP3   OH248907   6.330   5.424  12.158  0.3680 -0.6351 -0.1883
 9139TIP3    H148908   6.245   5.380  12.158  0.0260  0.0040  0.5784
 9139TIP3    H248909   6.344   5.449  12.067 -1.0821  0.7678 -0.0723
 9140TIP3   OH248910   0.901   4.871   1.483 -0.2965 -0.0381  0.5599
 9140TIP3    H148911   0.951   4.892   1.404  1.2382 -1.4040  1.1155
 9140TIP3    H248912   0.935   4.930   1.550  0.3700 -0.7551  0.8623
 9141TIP3   OH248913   1.110   2.083   1.192  0.1165  0.7453 -0.2659
 9141TIP3    H148914   1.022   2.117   1.207 -1.1379 -2.7444  1.4929
 9141TIP3    H248915   1.161   2.117   1.265 -0.6239  0.4078  0.4349
 9142TIP3   OH248916   2.425   2.616  16.253  0.0013  0.2455  0.1138
 9142TIP3    H148917   2.506   2.564  16.258  0.1464  0.4304 -0.2793
 9142TIP3    H248918   2.438   2.685  16.318 -1.2540 -1.6330  2.5161
 9143TIP3   OH248919   4.834   0.528  12.219 -0.2273 -0.4664 -0.0135
 9143TIP3    H148920   4.820   0.585  12.294  0.1614 -0.1053 -0.2116
 9143TIP3    H248921   4.906   0.569  12.171 -1.7231  0.3977 -1.6308
 9144TIP3   OH248922   5.438   6.358   6.528  0.2626  0.0851 -1.0461
 9144TIP3    H148923   5.403   6.274   6.499 -1.9653  1.2982 -2.0991
 9144TIP3    H248924   5.465   6.402   6.448 -0.5763  1.1823 -0.7583
 9145TIP3   OH248925   4.822   0.458   2.187  0.0633  0.1519 -0.4640
 9145TIP3    H148926   4.854   0.368   2.181 -2.1337 -0.8258  0.9848
 9145TIP3    H248927   4.759   0.465   2.115 -2.6351 -0.8944  1.5941
 9146TIP3   OH248928   5.692   2.596   6.285 -0.2233 -0.0318 -0.1639
 9146TIP3    H148929   5.772   2.574   6.333 -0.1876  0.7721  0.1452
 9146TIP3    H248930   5.694   2.537   6.209 -0.4844 -1.5922  0.9960
 9147TIP3   OH248931   2.930   6.132   4.683 -0.3456 -0.2011 -0.4247
 9147TIP3    H148932   2.913   6.221   4.711 -0.0211  0.3761 -1.9791
 9147TIP3    H248933   2.849   6.085   4.700 -0.4286  0.3118  0.6528
 9148TIP3   OH248934   2.731   5.397   5.571 -0.1395  0.3872 -0.1293
 9148TIP3    H148935   2.707   5.304   5.571 -0.7405  0.5201  0.8750
 9148TIP3    H248936   2.809   5.402   5.625 -0.2711  0.4964  0.0534
 9149TIP3   OH248937   2.992   1.034  12.305  0.5394  0.1324 -0.1107
 9149TIP3    H148938   2.998   1.041  12.210  1.5070  1.0288  0.0018
 9149TIP3    H248939   2.937   1.108  12.331  0.9024  0.3358  0.0850
 9150TIP3   OH248940   3.008   5.436   4.765 -0.3343  1.3550 -0.4209
 9150TIP3    H148941   2.997   5.389   4.848  0.0246  2.7209  0.4299
 9150TIP3    H248942   3.094   5.409   4.733 -0.5479  0.6881 -0.4615
 9151TIP3   OH248943   2.512   3.244  15.924  0.2033  0.4104 -0.1340
 9151TIP3    H148944   2.434   3.243  15.869  0.0726  0.5287  0.0489
 9151TIP3    H248945   2.508   3.161  15.972  0.4357  0.2054 -0.4671
 9152TIP3   OH248946   3.861   3.506  13.765 -0.1094 -0.3208  0.2752
 9152TIP3    H148947   3.903   3.446  13.826 -0.8331 -2.2006 -0.9745
 9152TIP3    H248948   3.841   3.583  13.817  1.1612 -1.0095  1.8753
 9153TIP3   OH248949   4.485   3.741   2.955  0.8030 -0.0174 -0.5559
 9153TIP3    H148950   4.503   3.776   2.867  0.7306 -1.0342 -0.9951
 9153TIP3    H248951   4.434   3.662   2.938 -0.5734  0.6286  0.4877
 9154TIP3   OH248952   1.617   2.638   0.527 -0.3720 -0.2840  0.2886
 9154TIP3    H148953   1.591   2.591   0.448 -1.9885  1.4017 -0.2593
 9154TIP3    H248954   1.594   2.579   0.599  1.2264 -1.8900 -0.4354
 9155TIP3   OH248955   4.778   2.667   2.290  0.3589 -0.1469 -0.6317
 9155TIP3    H148956   4.685   2.687   2.282  0.5862  0.6487 -1.3720
 9155TIP3    H248957   4.801   2.699   2.378 -0.3470 -1.6075  0.1300
 9156TIP3   OH248958   3.507   1.050  15.367  0.2695 -0.0477  0.2006
 9156TIP3    H148959   3.566   1.126  15.374  0.6515 -0.4586  1.6915
 9156TIP3    H248960   3.424   1.081  15.402  0.2986 -0.1863  0.3916
 9157TIP3   OH248961   3.057   0.078   4.138  0.1472 -0.0386 -0.3197
 9157TIP3    H148962   3.033   0.092   4.046  0.1824 -0.0762 -0.3350
 9157TIP3    H248963   2.998   0.134   4.187  1.5877  1.7350 -0.4958
 9158TIP3   OH248964   1.893   5.117  12.813  0.7922  0.0244  0.1938
 9158TIP3    H148965   1.847   5.036  12.837 -2.1459  1.4353 -0.2684
 9158TIP3    H248966   1.986   5.092  12.813  0.1864 -2.7524  2.2341
 9159TIP3   OH248967   6.656   2.326  13.355  0.1576  0.3453  0.0992
 9159TIP3    H148968   6.737   2.307  13.308 -0.6753 -0.8055 -0.9135
 9159TIP3    H248969   6.607   2.383  13.295 -0.6152 -0.5677 -0.1532
 9160TIP3   OH248970   5.525   2.178  13.202  0.9489  0.2701 -0.4405
 9160TIP3    H148971   5.515   2.271  13.222  1.0481  0.3675 -0.8339
 9160TIP3    H248972   5.550   2.138  13.286  1.5030  0.6930 -0.3984
 9161TIP3   OH248973   5.727   0.102  16.508  0.6128 -0.1682 -0.3740
 9161TIP3    H148974   5.688   0.022  16.474  0.7950 -0.2793 -0.3258
 9161TIP3    H248975   5.761   0.077  16.594 -2.2186  0.7653  1.1362
 9162TIP3   OH248976   4.183   4.443  15.026 -0.0599 -0.2609  0.1517
 9162TIP3    H148977   4.111   4.497  15.059 -0.0231 -1.0773  1.6713
 9162TIP3    H248978   4.141   4.371  14.979 -0.1994 -0.2369  0.2411
 9163TIP3   OH248979   1.308   5.537   4.769 -0.8131  0.0464  0.3677
 9163TIP3    H148980   1.217   5.561   4.786 -1.2004 -0.9312 -0.2835
 9163TIP3    H248981   1.334   5.489   4.848 -0.6280  0.8988  0.8482
 9164TIP3   OH248982   1.420   6.710   4.790 -0.4045  0.2443 -0.1235
 9164TIP3    H148983   1.361   6.718   4.715 -0.2858  2.3757 -0.0525
 9164TIP3    H248984   1.373   6.751   4.863  0.4533  0.4248  0.3536
 9165TIP3   OH248985   5.312   0.536  11.086 -0.6566 -0.1298 -0.1992
 9165TIP3    H148986   5.251   0.583  11.029  0.1038  0.5783 -0.4518
 9165TIP3    H248987   5.390   0.524  11.032 -0.2905 -0.3437  0.3697
 9166TIP3   OH248988   0.609   3.498   1.612  0.5028  0.3643 -0.0297
 9166TIP3    H148989   0.681   3.440   1.585  0.0917 -0.0102 -0.3244
 9166TIP3    H248990   0.543   3.439   1.650  0.5203  0.7500  0.6255
 9167TIP3   OH248991   0.772   2.026  16.825  0.3119  0.4494 -0.0523
 9167TIP3    H148992   0.754   1.952  16.883  0.5788 -0.4624 -1.1028
 9167TIP3    H248993   0.804   2.095  16.883 -0.5402 -0.0390  1.0234
 9168TIP3   OH248994   4.156   6.160  13.160 -1.0304 -0.3340 -0.3731
 9168TIP3    H148995   4.076   6.109  13.169 -1.7453  0.9641  1.1638
 9168TIP3    H248996   4.185   6.175  13.251  0.4602 -0.0305 -0.8704
 9169TIP3   OH248997   4.699   3.748   4.782  0.1285  0.0868 -0.2068
 9169TIP3    H148998   4.794   3.752   4.791  0.1185  1.1762 -0.4114
 9169TIP3    H248999   4.667   3.722   4.868  0.4655  2.6196  0.7747
 9170TIP3   OH249000   2.819   6.801  16.503  0.2354 -0.3254  0.1482
 9170TIP3    H149001   2.890   6.736  16.507  2.0174  1.5117  0.0924
 9170TIP3    H249002   2.848   6.863  16.436 -1.0045  0.9601  0.7558
 9171TIP3   OH249003   3.409   5.988   5.338 -0.2360 -0.3832 -0.1430
 9171TIP3    H149004   3.400   5.921   5.405 -0.2628  0.0840  0.3271
 9171TIP3    H249005   3.326   5.986   5.291 -0.5415 -0.1435  0.3766
 9172TIP3   OH249006   5.529   3.711  13.463  0.1430 -0.3354  0.2309
 9172TIP3    H149007   5.567   3.631  13.427  0.5331  0.3433 -0.9184
 9172TIP3    H249008   5.457   3.732  13.403 -0.4404 -0.2316  0.9548
 9173TIP3   OH249009   6.152   2.540  11.661 -1.6074 -0.1397  0.5496
 9173TIP3    H149010   6.213   2.613  11.656  0.3678 -1.6465  1.3309
 9173TIP3    H249011   6.072   2.578  11.698 -0.8866  1.7388  0.2604
 9174TIP3   OH249012   4.810   2.580   0.095 -0.3328  0.6850  0.4584
 9174TIP3    H149013   4.854   2.652   0.140 -1.0067 -0.2084  2.7089
 9174TIP3    H249014   4.881   2.525   0.063  0.1947  1.0200  1.0194
 9175TIP3   OH249015   5.491   6.298  12.798  0.4321  0.5751 -0.5898
 9175TIP3    H149016   5.499   6.223  12.856 -0.2660  2.1644  1.6951
 9175TIP3    H249017   5.506   6.374  12.854 -2.7802  2.3605 -1.8897
 9176TIP3   OH249018   1.821   0.825   1.508  0.5545  0.4766 -0.0411
 9176TIP3    H149019   1.794   0.806   1.598 -1.8800 -1.4383 -1.0576
 9176TIP3    H249020   1.893   0.765   1.491  0.0922 -0.1560  0.2085
 9177TIP3   OH249021   1.853   3.537  16.254 -0.1642  0.5383 -0.5377
 9177TIP3    H149022   1.909   3.483  16.310  1.0217  1.4179 -0.8571
 9177TIP3    H249023   1.819   3.604  16.313  1.4966  1.7782 -0.9226
 9178TIP3   OH249024   6.755   2.860  15.414 -0.0967 -0.3771 -0.0733
 9178TIP3    H149025   6.734   2.855  15.508  0.0630  2.6733  0.2288
 9178TIP3    H249026   6.827   2.923  15.409  0.6619 -1.3322 -2.1705
 9179TIP3   OH249027   5.282   4.162   6.026  0.0808  0.7655  0.1019
 9179TIP3    H149028   5.232   4.235   6.064 -1.2159  0.0364 -0.1570
 9179TIP3    H249029   5.261   4.087   6.081  1.6662  0.6231  0.5610
 9180TIP3   OH249030   6.651   4.568   1.599  0.7304 -0.0631  0.3190
 9180TIP3    H149031   6.669   4.649   1.648  2.6802  0.9026 -1.7823
 9180TIP3    H249032   6.699   4.579   1.517 -0.8389 -2.4013 -1.0261
 9181TIP3   OH249033   6.529   6.314   1.295  0.4274 -0.4929 -0.1524
 9181TIP3    H149034   6.460   6.370   1.331  0.7297  0.0125 -0.3418
 9181TIP3    H249035   6.561   6.363   1.219  0.4162 -1.1182 -0.5686
 9182TIP3   OH249036   2.754   2.455  12.070 -0.6021  0.4245 -0.0164
 9182TIP3    H149037   2.709   2.441  12.153  0.6716  1.0296  0.8068
 9182TIP3    H249038   2.835   2.405  12.078 -1.0925 -0.6576 -1.4715
 9183TIP3   OH249039   4.892   5.361   5.654  0.4233 -0.3106 -0.0607
 9183TIP3    H149040   4.960   5.337   5.716  0.1425 -2.0004 -0.3814
 9183TIP3    H249041   4.884   5.456   5.663 -1.1210 -0.6465  4.0663
 9184TIP3   OH249042   4.430   2.042   6.510  0.3918 -0.0261  0.0885
 9184TIP3    H149043   4.365   2.112   6.502  1.8600  1.2924 -0.8657
 9184TIP3    H249044   4.441   2.030   6.604 -0.3308  0.5818  0.2585
 9185TIP3   OH249045   3.866   4.597   2.204 -0.2275  0.0946  0.3137
 9185TIP3    H149046   3.938   4.655   2.181  0.2159  0.0354  1.5019
 9185TIP3    H249047   3.906   4.529   2.259 -1.1912  0.1079  1.0641
 9186TIP3   OH249048   5.329   4.411   2.256 -0.1707  0.1761  0.0870
 9186TIP3    H149049   5.309   4.485   2.198 -1.3282 -2.0810 -2.6724
 9186TIP3    H249050   5.258   4.412   2.320  0.8682  2.4662  1.3130
 9187TIP3   OH249051   2.873   3.902   2.574  0.4063  0.6415  0.2090
 9187TIP3    H149052   2.923   3.954   2.637  1.3201  0.7873 -0.6091
 9187TIP3    H249053   2.937   3.840   2.538 -0.2297  0.1967 -0.1780
 9188TIP3   OH249054   5.743   5.730   2.098 -0.4369  0.2053  0.0667
 9188TIP3    H149055   5.652   5.702   2.109 -0.4109  0.2441  0.3888
 9188TIP3    H249056   5.738   5.804   2.038 -0.6293  0.2669  0.1561
 9189TIP3   OH249057   0.342   1.560   4.573  0.2243 -0.0806  0.4896
 9189TIP3    H149058   0.402   1.631   4.549 -0.3086  0.6218  1.1995
 9189TIP3    H249059   0.256   1.591   4.547 -0.1959  0.1507  2.1091
 9190TIP3   OH249060   0.937   3.795  15.469  0.4895  0.1927  0.1004
 9190TIP3    H149061   0.935   3.791  15.373  2.0479  3.2274 -0.1660
 9190TIP3    H249062   0.971   3.709  15.495  0.0307 -0.7113 -2.0127
 9191TIP3   OH249063   1.505   6.446  13.521  0.0775  0.0652 -0.0472
 9191TIP3    H149064   1.482   6.478  13.433 -1.3565 -0.6212  0.0609
 9191TIP3    H249065   1.554   6.365  13.505  0.7251  0.4791 -0.2233
 9192TIP3   OH249066   6.238   5.944   2.165  0.2415 -0.2573 -0.4129
 9192TIP3    H149067   6.261   5.866   2.215 -0.9811 -0.5511 -0.2873
 9192TIP3    H249068   6.262   6.017   2.222  2.2617 -0.4778 -0.8993
 9193TIP3   OH249069   1.531   5.174  16.661 -0.3108 -0.2256  0.2750
 9193TIP3    H149070   1.503   5.227  16.586  0.2701  1.2754  1.0887
 9193TIP3    H249071   1.495   5.219  16.737  0.7811 -0.6124  1.0449
 9194TIP3   OH249072   1.823   1.050   4.698  0.3821 -0.1189 -0.7684
 9194TIP3    H149073   1.873   0.991   4.755 -2.2199 -0.9157  0.8590
 9194TIP3    H249074   1.756   0.995   4.658  0.2987  1.0266 -2.2849
 9195TIP3   OH249075   2.525   3.341  17.102  0.1110 -0.0092 -0.4176
 9195TIP3    H149076   2.588   3.276  17.131  1.2326  1.2650  0.1133
 9195TIP3    H249077   2.547   3.356  17.010  2.4239  2.3125  0.3749
 9196TIP3   OH249078   1.535   5.339   2.932 -0.3275 -0.2094  0.0931
 9196TIP3    H149079   1.477   5.298   2.996 -0.8649  2.3067  1.3612
 9196TIP3    H249080   1.482   5.350   2.854 -1.1618  0.7233  0.7551
 9197TIP3   OH249081   2.983   3.648   5.859 -0.2686  0.3187 -0.1334
 9197TIP3    H149082   2.905   3.621   5.812  0.3014  0.5628 -1.2420
 9197TIP3    H249083   2.996   3.740   5.834 -0.5661  0.7974  1.3561
 9198TIP3   OH249084   6.126   4.497  16.076 -0.3751 -0.3025  0.2202
 9198TIP3    H149085   6.154   4.527  15.990 -1.8376 -0.0383 -0.1943
 9198TIP3    H249086   6.122   4.402  16.068 -1.4472 -0.2235 -0.3284
 9199TIP3   OH249087   5.649   6.591  13.573  0.0612  0.5871  0.5441
 9199TIP3    H149088   5.714   6.642  13.620 -0.3013  0.7206  0.9076
 9199TIP3    H249089   5.667   6.608  13.480  0.8467  0.2344  0.6282
 9200TIP3   OH249090   4.823   1.002  14.475 -0.2155  0.7830  0.1024
 9200TIP3    H149091   4.792   0.978  14.562  2.4815 -1.3271  0.6096
 9200TIP3    H249092   4.764   0.957  14.415 -0.3701 -0.1162  0.9120
 9201TIP3   OH249093   0.270   4.431   0.711 -0.3351 -0.4126 -0.5274
 9201TIP3    H149094   0.340   4.424   0.775 -0.0589  0.6841 -0.6835
 9201TIP3    H249095   0.198   4.380   0.748 -0.5304  0.9867  1.1792
 9202TIP3   OH249096   0.433   4.966   0.127 -0.2342 -0.0616 -0.4673
 9202TIP3    H149097   0.498   4.900   0.104  0.5048  0.0442  1.1529
 9202TIP3    H249098   0.471   5.012   0.202 -1.6543  0.8073 -0.2370
 9203TIP3   OH249099   4.565   2.337   0.327 -0.1310  0.3751 -0.0142
 9203TIP3    H149100   4.551   2.426   0.358 -2.2628  0.0404  0.0896
 9203TIP3    H249101   4.547   2.341   0.233 -0.2933  0.0539 -0.0001
 9204TIP3   OH249102   5.933   2.124  13.050 -0.5321  0.3848 -0.4355
 9204TIP3    H149103   6.028   2.120  13.038 -0.6035 -0.8253 -0.7870
 9204TIP3    H249104   5.904   2.191  12.988  0.1670  1.4231  0.3233
 9205TIP3   OH249105   1.741   0.475  11.651  0.2183 -0.1558  0.6236
 9205TIP3    H149106   1.817   0.528  11.626  0.4500 -0.6605  0.2292
 9205TIP3    H249107   1.706   0.518  11.729  1.5345 -0.4953  1.4415
 9206TIP3   OH249108   1.235   5.326   5.403  0.4627  0.2219 -0.0263
 9206TIP3    H149109   1.215   5.397   5.343 -0.8305  0.8853  1.1278
 9206TIP3    H249110   1.274   5.258   5.348 -0.3999  0.9160 -1.5504
 9207TIP3   OH249111   1.234   1.801   1.067 -0.0687  0.4121  0.0118
 9207TIP3    H149112   1.197   1.774   1.151 -0.5316 -2.4366 -1.0049
 9207TIP3    H249113   1.194   1.886   1.049 -1.7311  0.0171  1.6026
 9208TIP3   OH249114   6.669   0.387   1.840  0.0425  0.6102 -0.1669
 9208TIP3    H149115   6.634   0.423   1.759 -0.5237 -0.8983 -0.6456
 9208TIP3    H249116   6.592   0.349   1.884  0.1141  2.4387  1.6934
 9209TIP3   OH249117   2.895   4.678   1.505  0.5746 -0.1040 -0.2282
 9209TIP3    H149118   2.890   4.752   1.565 -0.4935  0.0955 -0.5383
 9209TIP3    H249119   2.811   4.633   1.517  0.9693 -0.9158 -0.4814
 9210TIP3   OH249120   4.171   4.566   1.830 -0.4129  0.6964  0.6253
 9210TIP3    H149121   4.185   4.658   1.851  0.2407  0.5163  1.0191
 9210TIP3    H249122   4.246   4.542   1.776 -0.5437  0.3823  0.5806
 9211TIP3   OH249123   0.283   1.100   4.846 -0.4525 -0.2068  0.1960
 9211TIP3    H149124   0.258   1.169   4.785 -0.5988 -0.4128  0.0226
 9211TIP3    H249125   0.223   1.028   4.827  0.4268 -0.7928 -0.3934
 9212TIP3   OH249126   2.568   3.803   5.164 -0.5631 -0.1634  0.1369
 9212TIP3    H149127   2.562   3.898   5.174 -0.8331 -0.0282 -1.0546
 9212TIP3    H249128   2.521   3.768   5.239 -0.9651  0.6579  0.2856
 9213TIP3   OH249129   5.668   5.903   5.477  0.9665  0.1492  0.6678
 9213TIP3    H149130   5.632   5.819   5.506 -0.8699  0.1973 -1.2157
 9213TIP3    H249131   5.701   5.886   5.388 -0.7813  1.6769 -0.3471
 9214TIP3   OH249132   3.257   6.239  16.681 -0.5872 -0.5992 -0.0072
 9214TIP3    H149133   3.247   6.226  16.586  3.4165 -0.9310 -0.5406
 9214TIP3    H249134   3.246   6.333  16.693 -1.9465 -0.6610 -0.6413
 9215TIP3   OH249135   2.012   4.374  14.167 -0.0796  0.4332  0.3539
 9215TIP3    H149136   2.090   4.420  14.199  0.6315  0.5667 -1.4210
 9215TIP3    H249137   1.990   4.419  14.085 -2.8516  1.2354  1.4264
 9216TIP3   OH249138   6.425   5.690   2.189  0.3138 -0.1594 -0.5003
 9216TIP3    H149139   6.361   5.641   2.241 -1.3018  0.7556 -1.5283
 9216TIP3    H249140   6.490   5.625   2.163 -1.4625 -1.6795 -1.3891
 9217TIP3   OH249141   5.605   2.211   1.050  0.5106  0.6083 -0.6162
 9217TIP3    H149142   5.693   2.220   1.088  1.0658 -0.5221 -1.5514
 9217TIP3    H249143   5.596   2.288   0.994  2.2605 -0.7385 -2.9766
 9218TIP3   OH249144   1.153   5.424   2.282 -0.7079  0.2079 -0.4048
 9218TIP3    H149145   1.240   5.384   2.273 -0.5009  0.3751  0.6492
 9218TIP3    H249146   1.171   5.512   2.317 -1.3379 -0.1754  0.9705
 9219TIP3   OH249147   1.755   0.287   3.199 -0.7386 -0.0820  0.3792
 9219TIP3    H149148   1.827   0.224   3.195 -1.0837 -0.4120 -1.1149
 9219TIP3    H249149   1.793   0.363   3.242  0.7302  0.0094 -0.9824
 9220TIP3   OH249150   3.792   3.249  15.140  0.2307 -0.0345 -0.3157
 9220TIP3    H149151   3.786   3.325  15.198 -0.0332  0.3617 -0.8543
 9220TIP3    H249152   3.731   3.186  15.177 -0.4514  0.4770 -0.5490
 9221TIP3   OH249153   0.222   6.767   1.058  0.3587 -0.3484 -0.7971
 9221TIP3    H149154   0.277   6.734   1.130 -0.8379 -0.4276  0.1192
 9221TIP3    H249155   0.168   6.692   1.033  0.5432 -0.2255 -1.5634
 9222TIP3   OH249156   6.030   2.950   3.982 -0.7545  0.1317  0.6963
 9222TIP3    H149157   6.043   2.922   4.073  0.9126 -1.6030 -0.0118
 9222TIP3    H249158   5.935   2.952   3.971 -0.9749 -1.0123  2.0870
 9223TIP3   OH249159   0.480   0.015   0.527  0.9340  0.7461  0.1022
 9223TIP3    H149160   0.503   0.101   0.563  1.1445  0.5442  0.4586
 9223TIP3    H249161   0.397   0.030   0.480 -0.8750  0.4850  2.9704
 9224TIP3   OH249162   2.485   1.484   3.816 -0.1853  0.1011  0.0776
 9224TIP3    H149163   2.546   1.519   3.880  0.5712 -0.7849 -0.1377
 9224TIP3    H249164   2.521   1.398   3.792  0.4720  1.0567 -2.7309
 9225TIP3   OH249165   6.652   0.621   5.906  0.0226  0.6555  0.2726
 9225TIP3    H149166   6.575   0.646   5.957 -0.3373 -0.5102  0.3323
 9225TIP3    H249167   6.620   0.555   5.845  1.3896 -1.5686  1.8224
 9226TIP3   OH249168   4.966   0.740   5.685 -0.4748  0.1683 -0.3238
 9226TIP3    H149169   4.908   0.807   5.721  0.0763  0.8780 -0.7326
 9226TIP3    H249170   4.911   0.662   5.677 -0.8620  0.2567  1.1398
 9227TIP3   OH249171   1.489   0.611   1.215 -0.1738 -0.3062  0.1247
 9227TIP3    H149172   1.565   0.572   1.172  0.9167 -0.2378  1.9098
 9227TIP3    H249173   1.485   0.700   1.181  0.6504 -0.2609  0.1263
 9228TIP3   OH249174   4.846   2.987  15.255 -0.2729 -0.4218  0.3974
 9228TIP3    H149175   4.846   3.083  15.250 -0.9424 -0.4480 -0.2415
 9228TIP3    H249176   4.884   2.968  15.341 -0.1998  0.4165  0.5627
 9229TIP3   OH249177   0.678   3.453  10.492  0.1660 -0.1260  0.0042
 9229TIP3    H149178   0.629   3.500  10.424 -0.8405  0.4169  1.0760
 9229TIP3    H249179   0.738   3.519  10.528 -0.3793  0.0100  0.6727
 9230TIP3   OH249180   4.447   0.983   5.342 -0.3768 -0.0703  0.5432
 9230TIP3    H149181   4.507   0.930   5.289 -0.3513  0.3280  0.1632
 9230TIP3    H249182   4.364   0.935   5.339 -0.9733  0.9380 -1.5953
 9231TIP3   OH249183   0.516   3.599  11.594  0.2749 -0.3408 -0.6822
 9231TIP3    H149184   0.527   3.621  11.502  0.7248 -0.3517 -0.6336
 9231TIP3    H249185   0.444   3.536  11.596  0.8556 -1.0339 -1.1268
 9232TIP3   OH249186   6.429   2.506  14.986  0.0835  0.1526  0.1366
 9232TIP3    H149187   6.387   2.422  15.004  1.4074 -0.8787 -1.3116
 9232TIP3    H249188   6.374   2.546  14.919 -0.0478  0.0030  0.1537
 9233TIP3   OH249189   1.743   6.314   5.295  0.0192  0.0219  0.3009
 9233TIP3    H149190   1.731   6.320   5.389  1.0668  0.5234  0.4133
 9233TIP3    H249191   1.686   6.241   5.268  1.2651 -1.4945  1.6101
 9234TIP3   OH249192   0.636   3.241  12.545  0.0931  0.5215  0.4498
 9234TIP3    H149193   0.707   3.301  12.568 -0.8128  1.6475  0.4058
 9234TIP3    H249194   0.627   3.249  12.450  1.2243 -1.1532  0.1663
 9235TIP3   OH249195   1.790   2.471  13.490 -0.2398 -0.0075 -0.4487
 9235TIP3    H149196   1.857   2.420  13.534  1.0510  1.7812 -0.2265
 9235TIP3    H249197   1.836   2.513  13.417 -1.7240 -0.7514 -1.8999
 9236TIP3   OH249198   5.851   2.206   3.435 -0.0446  0.6330  0.3832
 9236TIP3    H149199   5.864   2.126   3.384 -0.1110  0.8688 -0.0122
 9236TIP3    H249200   5.803   2.179   3.512 -2.4751  0.6985 -1.0210
 9237TIP3   OH249201   3.804   4.942   4.805 -0.1107  0.0015  0.3147
 9237TIP3    H149202   3.805   5.036   4.785 -0.2992 -0.0949 -0.1546
 9237TIP3    H249203   3.765   4.901   4.727  0.8577 -0.5565  0.1017
 9238TIP3   OH249204   0.395   3.070  14.243 -0.5929  0.3057 -0.1648
 9238TIP3    H149205   0.382   3.075  14.148 -2.0990  0.4130  0.0260
 9238TIP3    H249206   0.362   2.984  14.267  1.4131 -0.4566  0.0589
 9239TIP3   OH249207   5.470   6.110  12.981 -0.2430  0.1152  0.1370
 9239TIP3    H149208   5.389   6.077  12.942  1.1465 -2.8490 -0.5537
 9239TIP3    H249209   5.503   6.036  13.032  1.2634  1.7648  1.6780
 9240TIP3   OH249210   2.135   2.009  14.287  0.3223 -0.3050  0.0899
 9240TIP3    H149211   2.122   2.019  14.192  0.2265 -1.6643 -0.0644
 9240TIP3    H249212   2.132   2.098  14.321 -1.5627  0.0755 -0.9489
 9241TIP3   OH249213   2.109   3.593  11.807 -0.1834  0.2076 -0.1752
 9241TIP3    H149214   2.082   3.501  11.815 -0.0335 -0.0643 -2.2751
 9241TIP3    H249215   2.204   3.590  11.806 -0.1437  0.5373  0.9222
 9242TIP3   OH249216   0.146   6.189   2.364  0.4459  0.3963  0.4627
 9242TIP3    H149217   0.148   6.115   2.303  1.6568 -0.7436  1.8243
 9242TIP3    H249218   0.104   6.259   2.314 -0.3354 -1.0513 -1.0281
 9243TIP3   OH249219   0.264   5.807   1.501 -0.6564 -0.4072  0.2035
 9243TIP3    H149220   0.188   5.766   1.459  0.0067  0.1990 -1.6714
 9243TIP3    H249221   0.328   5.816   1.431  1.2115 -0.9750  1.7493
 9244TIP3   OH249222   1.859   5.613   0.582 -0.3803  0.5557  0.2796
 9244TIP3    H149223   1.904   5.657   0.654  1.4938  0.2159 -0.6276
 9244TIP3    H249224   1.868   5.520   0.601  0.5561  0.4474 -0.6054
 9245TIP3   OH249225   5.524   2.570   2.702  0.0229  0.6058  0.4509
 9245TIP3    H149226   5.511   2.642   2.763 -0.7193 -0.2041  1.2790
 9245TIP3    H249227   5.443   2.520   2.706 -0.0369  0.5104 -1.1889
 9246TIP3   OH249228   3.897   1.622  17.009 -0.2163 -0.1625  0.5551
 9246TIP3    H149229   3.859   1.710  17.018  0.0228  0.2296 -1.6414
 9246TIP3    H249230   3.987   1.631  17.038 -0.6104 -0.0993  1.8385
 9247TIP3   OH249231   4.786   6.243   1.861 -0.6324 -0.3283  0.4761
 9247TIP3    H149232   4.856   6.187   1.827 -0.6198  0.7832 -1.4129
 9247TIP3    H249233   4.826   6.329   1.869 -1.2942 -0.0773  1.1647
 9248TIP3   OH249234   0.251   0.509  14.695 -0.1986 -0.1337  0.0611
 9248TIP3    H149235   0.170   0.546  14.660  0.1150 -0.0104 -0.5410
 9248TIP3    H249236   0.297   0.584  14.733 -0.0217 -0.0745 -0.2687
 9249TIP3   OH249237   0.739   6.396  15.604  0.6585  0.0621 -0.2862
 9249TIP3    H149238   0.717   6.488  15.610  0.0394  0.0525 -1.9140
 9249TIP3    H249239   0.718   6.360  15.691 -0.2347  1.2150 -0.0029
 9250TIP3   OH249240   2.685   0.159  10.261 -0.1885 -0.3716  0.2212
 9250TIP3    H149241   2.662   0.068  10.279 -1.0342 -0.4957 -1.3318
 9250TIP3    H249242   2.748   0.154  10.190 -0.7324  0.2594 -0.3190
 9251TIP3   OH249243   1.410   6.652  15.272 -0.2744  0.2595  0.2170
 9251TIP3    H149244   1.343   6.720  15.270 -0.0864  0.4312 -0.3515
 9251TIP3    H249245   1.433   6.638  15.180 -0.5364 -0.7911  0.2883
 9252TIP3   OH249246   3.913   0.299   4.980  0.3372 -0.2453  0.1794
 9252TIP3    H149247   3.895   0.303   4.886 -1.1663 -0.1998  0.4480
 9252TIP3    H249248   3.941   0.209   4.995 -0.2478 -0.5009 -0.1890
 9253TIP3   OH249249   4.799   3.939   0.539 -0.0370 -0.0999 -0.4531
 9253TIP3    H149250   4.885   3.899   0.549 -0.7121 -1.4434  0.1844
 9253TIP3    H249251   4.780   3.936   0.445  0.3921 -0.2503 -0.5314
 9254TIP3   OH249252   1.625   4.094  15.786 -0.3510 -0.3890  0.1772
 9254TIP3    H149253   1.589   4.159  15.726  0.0822 -1.2433 -1.0466
 9254TIP3    H249254   1.720   4.105  15.779 -0.2880 -0.8037  0.3517
 9255TIP3   OH249255   3.594   6.535   1.462  0.8055  0.2992 -0.2281
 9255TIP3    H149256   3.521   6.562   1.518 -0.1379  0.0392 -1.2848
 9255TIP3    H249257   3.672   6.569   1.506  0.0479  0.6772  0.8811
 9256TIP3   OH249258   1.363   2.238  15.467  0.2388 -0.1041 -0.0254
 9256TIP3    H149259   1.344   2.321  15.511  2.3196  0.6856 -0.4894
 9256TIP3    H249260   1.279   2.212  15.428 -0.8936  0.7961  1.6731
 9257TIP3   OH249261   0.743   1.924  13.534 -0.0537  0.6214  0.4077
 9257TIP3    H149262   0.737   2.005  13.586  1.4194 -0.6999  2.8275
 9257TIP3    H249263   0.723   1.854  13.596  2.8661 -1.1356 -0.4487
 9258TIP3   OH249264   4.775   0.499  14.098 -0.3287  0.3426  0.1539
 9258TIP3    H149265   4.747   0.512  14.008 -0.1480 -0.1075  0.0328
 9258TIP3    H249266   4.806   0.409  14.101 -2.1045 -0.2980  1.1190
 9259TIP3   OH249267   6.438   1.851  13.084  0.0463 -0.3119 -0.4137
 9259TIP3    H149268   6.365   1.870  13.142 -0.6053 -0.5789 -1.1322
 9259TIP3    H249269   6.428   1.913  13.012  1.4538  0.7473  0.2338
 9260TIP3   OH249270   4.322   1.936   0.673  0.2755  0.1044  0.0227
 9260TIP3    H149271   4.237   1.924   0.715 -0.5531  1.8825 -1.0281
 9260TIP3    H249272   4.343   2.028   0.688  0.4513  0.5347 -2.4335
 9261TIP3   OH249273   3.331   0.951  10.566 -0.2326 -0.0675  0.0810
 9261TIP3    H149274   3.243   0.924  10.593  0.1209 -0.3142  1.0285
 9261TIP3    H249275   3.317   1.019  10.500 -1.1322  0.2927  0.6356
 9262TIP3   OH249276   5.025   3.451   5.504 -0.2059  0.0788  0.1737
 9262TIP3    H149277   5.107   3.432   5.549 -1.3371 -0.7840  1.9514
 9262TIP3    H249278   5.040   3.423   5.414  1.6017  0.4189  0.3318
 9263TIP3   OH249279   6.522   6.578  14.870 -0.3697  0.1040 -0.2609
 9263TIP3    H149280   6.499   6.492  14.904  1.3125  0.3083  1.6056
 9263TIP3    H249281   6.612   6.570  14.839 -0.0793  1.2125  0.2051
 9264TIP3   OH249282   0.221   1.285   3.424 -0.0142 -0.4504  0.5819
 9264TIP3    H149283   0.256   1.372   3.444  1.0882 -1.0084  1.1611
 9264TIP3    H249284   0.130   1.301   3.398  0.9070  1.1629 -1.9962
 9265TIP3   OH249285   4.817   5.982   0.612 -0.4058 -0.1870 -0.2960
 9265TIP3    H149286   4.785   6.071   0.599 -0.5286 -0.3477 -1.1419
 9265TIP3    H249287   4.912   5.992   0.621 -0.3639 -0.0132 -0.8849
 9266TIP3   OH249288   1.694   4.108  13.388  1.1822  0.1009  0.0368
 9266TIP3    H149289   1.762   4.136  13.449  0.7590 -1.7276  1.4632
 9266TIP3    H249290   1.713   4.015  13.373 -1.3193 -0.6637  1.0218
 9267TIP3   OH249291   0.459   0.748  14.509  0.0758  0.6077 -0.1014
 9267TIP3    H149292   0.434   0.840  14.514 -0.4027  0.4416  0.8135
 9267TIP3    H249293   0.420   0.717  14.427 -1.7723  0.6570  0.7013
 9268TIP3   OH249294   0.405   5.780  15.160  0.5310  0.5205  0.4009
 9268TIP3    H149295   0.390   5.709  15.098  0.7959 -0.2196  1.1706
 9268TIP3    H249296   0.349   5.851  15.129 -0.3746 -0.3054  0.0938
 9269TIP3   OH249297   5.840   6.188  13.279 -0.1331 -0.0461 -0.0338
 9269TIP3    H149298   5.918   6.217  13.231 -0.5109 -0.5455 -0.9647
 9269TIP3    H249299   5.767   6.227  13.231 -0.5090 -0.3567  0.2845
 9270TIP3   OH249300   1.301   4.661  12.966  0.7101  0.4287  0.1835
 9270TIP3    H149301   1.230   4.722  12.989 -0.9730 -1.4908  0.4749
 9270TIP3    H249302   1.300   4.597  13.038  1.2164 -0.8953 -0.9552
 9271TIP3   OH249303   2.537   5.717  13.117  0.1755 -0.0802  0.1044
 9271TIP3    H149304   2.563   5.809  13.111 -0.4685  0.0139 -1.8046
 9271TIP3    H249305   2.508   5.694  13.029 -1.5571 -1.5645  0.9848
 9272TIP3   OH249306   1.335   3.244   1.559  1.1791  0.2679  0.4357
 9272TIP3    H149307   1.253   3.213   1.522  1.6404 -0.5966  0.1105
 9272TIP3    H249308   1.363   3.174   1.617  2.5110 -0.1895 -0.7084
 9273TIP3   OH249309   5.995   0.556   0.345  0.1601  0.4122  0.1276
 9273TIP3    H149310   6.029   0.531   0.259 -1.7318 -0.4569 -0.4096
 9273TIP3    H249311   5.982   0.651   0.340  3.6368  1.0934  0.8371
 9274TIP3   OH249312   4.406   5.247  11.224 -0.0080  0.1505 -0.4367
 9274TIP3    H149313   4.390   5.205  11.139  0.5072 -0.7601 -0.0940
 9274TIP3    H249314   4.383   5.339  11.209 -3.7342 -0.6160 -0.5056
 9275TIP3   OH249315   4.480   5.513  14.531  0.3416 -1.1578  0.0505
 9275TIP3    H149316   4.443   5.577  14.593  1.2184 -0.3826 -0.1933
 9275TIP3    H249317   4.425   5.521  14.453  0.5955 -0.5135 -0.0666
 9276TIP3   OH249318   2.255   2.470  11.229  0.6163 -0.2856  0.0254
 9276TIP3    H149319   2.275   2.484  11.136 -2.8747 -1.3005 -1.0485
 9276TIP3    H249320   2.207   2.548  11.255  1.2644 -0.1696  0.9064
 9277TIP3   OH249321   6.635   5.852  11.232 -0.2100 -0.1191  0.0212
 9277TIP3    H149322   6.593   5.797  11.166  0.5480  1.5501 -1.9695
 9277TIP3    H249323   6.620   5.807  11.315  1.7543 -4.2154 -1.5821
 9278TIP3   OH249324   2.684   0.711  11.514  0.2172  0.1215 -0.1662
 9278TIP3    H149325   2.603   0.663  11.532  1.0102 -1.9842 -1.7289
 9278TIP3    H249326   2.738   0.697  11.591  0.6912 -2.2492 -0.8357
 9279TIP3   OH249327   4.213   0.845   5.300  0.4107 -0.3712 -0.3648
 9279TIP3    H149328   4.137   0.890   5.265 -0.3994 -0.3096  1.3884
 9279TIP3    H249329   4.178   0.785   5.366  1.9336  0.7061  1.5499
 9280TIP3   OH249330   0.954   5.850  16.470 -0.9645 -0.0237 -0.4338
 9280TIP3    H149331   1.035   5.799  16.469 -2.0674 -1.8498 -1.0162
 9280TIP3    H249332   0.956   5.900  16.389  1.0717  2.5828  1.0323
 9281TIP3   OH249333   6.524   4.109  11.785 -0.5544  0.5052 -0.9257
 9281TIP3    H149334   6.478   4.154  11.714 -2.3957  0.1283 -0.0324
 9281TIP3    H249335   6.550   4.180  11.844 -3.0475  0.5483  0.2497
 9282TIP3   OH249336   4.963   6.137  13.773  0.0323 -0.2953 -0.1335
 9282TIP3    H149337   5.034   6.199  13.789 -0.3638  0.0447  0.3188
 9282TIP3    H249338   4.993   6.055  13.811  0.2952 -0.2176 -0.1749
 9283TIP3   OH249339   1.538   3.341  11.548 -0.0603  0.3822 -0.0298
 9283TIP3    H149340   1.544   3.282  11.623  2.3241  0.2265 -0.2585
 9283TIP3    H249341   1.457   3.390  11.563 -0.3158 -0.5350  1.9741
 9284TIP3   OH249342   5.267   4.917  11.875  0.1265 -0.2045 -0.1647
 9284TIP3    H149343   5.206   4.950  11.940  0.4436 -1.0652  0.5903
 9284TIP3    H249344   5.245   4.964  11.795 -2.9161 -1.9241 -0.4850
 9285TIP3   OH249345   1.792   6.761   1.212 -0.0821  0.1492  0.1491
 9285TIP3    H149346   1.879   6.762   1.173  0.5535  0.3799  1.4965
 9285TIP3    H249347   1.808   6.758   1.307 -1.5405 -1.5518  0.4035
 9286TIP3   OH249348   4.345   4.326   0.792  0.4684  0.1876  0.0230
 9286TIP3    H149349   4.294   4.251   0.822  2.0976 -2.4079 -3.0048
 9286TIP3    H249350   4.280   4.386   0.755 -0.7063 -1.1887 -0.2361
 9287TIP3   OH249351   6.569   3.317   5.064 -0.0491 -0.3254 -0.1547
 9287TIP3    H149352   6.490   3.368   5.082  0.3236  0.1309  0.1770
 9287TIP3    H249353   6.629   3.378   5.022  0.3714 -0.5126  0.1699
 9288TIP3   OH249354   4.275   2.495  11.511 -0.4529 -0.7907 -0.6661
 9288TIP3    H149355   4.238   2.547  11.583 -0.4953 -0.1218 -1.1669
 9288TIP3    H249356   4.362   2.471  11.543  0.3277  1.1887 -1.1591
 9289TIP3   OH249357   5.376   1.441   2.303 -0.1289  0.2868 -0.1631
 9289TIP3    H149358   5.446   1.442   2.368  1.4740 -0.3721 -1.8158
 9289TIP3    H249359   5.312   1.379   2.338  0.0151  0.9610  1.4053
 9290TIP3   OH249360   4.776   4.039   4.403  0.0037 -0.1560  0.0871
 9290TIP3    H149361   4.682   4.047   4.415  0.1945  0.9732  1.0231
 9290TIP3    H249362   4.787   4.003   4.315 -1.2673  0.7496 -0.4644
 9291TIP3   OH249363   4.854   0.253  11.329 -0.1963  0.1884 -0.1263
 9291TIP3    H149364   4.849   0.275  11.422  0.3844 -1.5822  0.3607
 9291TIP3    H249365   4.839   0.336  11.284 -1.1345  0.9569  1.5257
 9292TIP3   OH249366   4.369   1.311  14.631 -0.1109  0.1449 -0.4975
 9292TIP3    H149367   4.444   1.266  14.669 -0.4713 -0.1432 -0.1060
 9292TIP3    H249368   4.293   1.261  14.662 -0.7408  2.4807  2.2074
 9293TIP3   OH249369   0.459   6.520   2.826  0.6182 -0.1039  0.0641
 9293TIP3    H149370   0.416   6.604   2.817  2.2352  0.8651  0.8384
 9293TIP3    H249371   0.502   6.524   2.912  0.8702 -1.6441  0.0486
 9294TIP3   OH249372   0.127   0.650   3.440  0.5100 -0.0078 -0.3468
 9294TIP3    H149373   0.157   0.689   3.522  0.9824  1.3157 -1.1233
 9294TIP3    H249374   0.032   0.653   3.445  0.4736 -1.6317  0.9126
 9295TIP3   OH249375   3.290   1.608  16.686 -0.2155 -0.4569  0.2559
 9295TIP3    H149376   3.239   1.589  16.764  0.8412 -0.5013  0.9679
 9295TIP3    H249377   3.227   1.643  16.623 -0.9352  0.4397  1.4451
 9296TIP3   OH249378   1.283   1.245   3.970  0.5205  0.0391 -0.2685
 9296TIP3    H149379   1.263   1.247   3.876  0.1241  2.4923 -0.2089
 9296TIP3    H249380   1.311   1.155   3.987 -0.8972 -0.8982 -2.4068
 9297TIP3   OH249381   3.555   0.103   5.975  0.7231 -0.5380  0.1976
 9297TIP3    H149382   3.520   0.024   6.015  0.0116 -1.3734 -1.9410
 9297TIP3    H249383   3.501   0.174   6.010 -0.3056 -1.3078  0.2027
 9298TIP3   OH249384   2.313   3.411   0.090 -0.3265 -0.3805 -0.9005
 9298TIP3    H149385   2.361   3.388   0.010 -0.0912  0.7001 -1.0767
 9298TIP3    H249386   2.337   3.502   0.107  1.7982 -1.3536  1.9426
 9299TIP3   OH249387   3.045   0.959   4.525 -0.3456 -0.2795 -0.1516
 9299TIP3    H149388   3.088   0.877   4.500  0.5399  0.3247 -0.6708
 9299TIP3    H249389   2.952   0.942   4.514 -0.0714 -0.1699 -3.6228
 9300TIP3   OH249390   4.246   5.511   4.804 -0.3150  0.6493  0.1017
 9300TIP3    H149391   4.234   5.489   4.712  0.4954 -0.4218  0.2345
 9300TIP3    H249392   4.191   5.449   4.851  0.2612  0.3352  0.3825
 9301TIP3   OH249393   0.940   5.160  11.654  0.0870  0.8505 -0.5411
 9301TIP3    H149394   1.034   5.173  11.644  0.1718 -0.8465 -3.0142
 9301TIP3    H249395   0.906   5.160  11.564 -2.4808  2.4401  0.3065
 9302TIP3   OH249396   4.867   6.226  14.511 -0.5103  0.0850 -0.1147
 9302TIP3    H149397   4.805   6.192  14.575  0.3012  0.6195  0.9899
 9302TIP3    H249398   4.951   6.225  14.557 -0.0120  1.0549 -0.9712
 9303TIP3   OH249399   5.472   6.569  16.691  0.5997 -0.0442 -0.0112
 9303TIP3    H149400   5.411   6.576  16.765  1.0569 -0.2976  0.3968
 9303TIP3    H249401   5.465   6.654  16.647  1.0216  0.4728  0.8857
 9304TIP3   OH249402   2.697   3.638   4.997  0.2677  0.7807  0.1569
 9304TIP3    H149403   2.724   3.557   5.042 -1.8337  0.2370  0.5732
 9304TIP3    H249404   2.655   3.690   5.065 -0.8941  0.9769 -0.6828
 9305TIP3   OH249405   3.925   0.846  16.224 -0.1191 -0.5862  0.2691
 9305TIP3    H149406   3.956   0.900  16.297  0.1791 -0.1686 -0.1686
 9305TIP3    H249407   3.996   0.848  16.160 -0.4321 -0.8499 -0.0933
 9306TIP3   OH249408   1.113   5.674  16.000  0.3628 -0.3907 -0.0953
 9306TIP3    H149409   1.162   5.679  16.082 -0.1051 -1.2150  0.2475
 9306TIP3    H249410   1.115   5.764  15.965  1.4784 -0.2627  0.2694
 9307TIP3   OH249411   1.467   4.204  12.335  0.1304  0.3264  0.3038
 9307TIP3    H149412   1.549   4.166  12.303  0.3783  0.5696  0.6385
 9307TIP3    H249413   1.485   4.224  12.427 -0.4096  0.0879  0.4639
 9308TIP3   OH249414   4.830   5.569  15.741  0.1991 -0.6994 -0.0410
 9308TIP3    H149415   4.895   5.627  15.700 -1.3806  0.5094 -0.9854
 9308TIP3    H249416   4.796   5.517  15.668 -0.4198 -0.7766  0.3037
 9309TIP3   OH249417   3.594   1.772   1.966  0.1074  0.3221 -0.0481
 9309TIP3    H149418   3.512   1.725   1.982 -1.7027  3.0058 -0.6286
 9309TIP3    H249419   3.640   1.770   2.050 -0.9405 -0.5611  0.5307
 9310TIP3   OH249420   3.269   6.046  15.613  0.2018  0.3169  0.0128
 9310TIP3    H149421   3.322   6.107  15.561  1.3485  0.1185  0.8947
 9310TIP3    H249422   3.179   6.075  15.601  0.8278  3.7742  2.3225
 9311TIP3   OH249423   2.331   0.652  13.290  0.1283 -0.0564 -0.1150
 9311TIP3    H149424   2.337   0.593  13.215  0.0033 -1.4949  0.9677
 9311TIP3    H249425   2.380   0.730  13.263  1.3774 -1.1424 -1.1229
 9312TIP3   OH249426   4.508   6.690   2.448  0.1447 -0.2249 -0.1713
 9312TIP3    H149427   4.525   6.751   2.375  0.0566 -0.8935 -0.7612
 9312TIP3    H249428   4.568   6.718   2.517 -1.4620  1.9876  0.4491
 9313TIP3   OH249429   4.918   4.503  13.460  0.5167  0.2164 -0.0509
 9313TIP3    H149430   4.850   4.502  13.392 -1.3507  2.0920  1.6779
 9313TIP3    H249431   4.883   4.448  13.530  0.4090  1.7385  1.1428
 9314TIP3   OH249432   5.876   6.665   4.442  0.2321 -0.0032 -0.3739
 9314TIP3    H149433   5.839   6.713   4.516  0.1597 -0.4068 -0.1455
 9314TIP3    H249434   5.839   6.577   4.449  1.6467 -0.5813  0.1824
 9315TIP3   OH249435   0.804   0.228   3.114  0.3886 -0.1949 -0.0224
 9315TIP3    H149436   0.890   0.260   3.141 -0.4395 -0.4058  3.3318
 9315TIP3    H249437   0.753   0.307   3.097  0.6581 -0.0051  0.0486
 9316TIP3   OH249438   4.103   6.460   5.059  0.1936 -0.2955  0.6660
 9316TIP3    H149439   4.024   6.447   5.008  1.2407  0.1774 -1.1648
 9316TIP3    H249440   4.173   6.424   5.004  1.3812  0.3024  1.7428
 9317TIP3   OH249441   3.558   5.569  13.955  0.0043 -0.8177 -0.8835
 9317TIP3    H149442   3.615   5.555  13.880  0.5285 -1.5204 -0.3663
 9317TIP3    H249443   3.580   5.498  14.016  0.8847  0.7537  0.7111
 9318TIP3   OH249444   4.279   2.745  16.856 -0.2210 -0.1082 -0.3455
 9318TIP3    H149445   4.325   2.663  16.840 -1.7332 -1.2008  0.6520
 9318TIP3    H249446   4.329   2.811  16.808  2.7626 -1.0886  1.1820
 9319TIP3   OH249447   0.376   3.687   5.148  0.2174 -0.2139 -0.3791
 9319TIP3    H149448   0.356   3.777   5.172  2.1205  0.2335 -0.3117
 9319TIP3    H249449   0.448   3.661   5.206  1.3611 -0.9091 -2.0077
 9320TIP3   OH249450   5.692   6.280   1.296 -0.2593 -0.3644 -0.0860
 9320TIP3    H149451   5.687   6.328   1.379 -0.3174 -1.2564  0.4383
 9320TIP3    H249452   5.633   6.327   1.237 -0.2512  0.2487  0.3875
 9321TIP3   OH249453   1.218   4.684  14.543 -0.7864 -0.0009 -0.0861
 9321TIP3    H149454   1.147   4.621  14.532 -0.7585 -0.6138  2.5814
 9321TIP3    H249455   1.187   4.763  14.499 -3.1792 -0.2585  0.9815
 9322TIP3   OH249456   5.129   5.611   2.532  0.2014 -0.1018 -0.2740
 9322TIP3    H149457   5.084   5.601   2.448 -0.0886  0.5912 -0.2100
 9322TIP3    H249458   5.093   5.691   2.569  0.7687 -0.0747  0.2391
 9323TIP3   OH249459   4.549   1.021   2.921 -0.5999  0.6420  0.1450
 9323TIP3    H149460   4.563   1.054   2.833 -0.0966  0.6454  0.2256
 9323TIP3    H249461   4.455   1.035   2.937 -1.0936 -0.9896 -1.0622
 9324TIP3   OH249462   6.113   2.976   4.845  0.1707 -0.0754  0.0735
 9324TIP3    H149463   6.135   3.062   4.879 -0.2420  0.2612 -0.5046
 9324TIP3    H249464   6.088   2.925   4.923  0.5457  0.2786  0.4307
 9325TIP3   OH249465   2.878   4.556  13.002 -0.3377 -0.5601 -0.0549
 9325TIP3    H149466   2.913   4.508  12.927  0.3326 -0.1429 -0.0141
 9325TIP3    H249467   2.801   4.601  12.967  0.5999  0.5354 -0.7987
 9326TIP3   OH249468   2.629   0.980  11.671 -0.8199 -0.0154  0.0929
 9326TIP3    H149469   2.595   1.010  11.756 -0.4992 -0.8363  0.5275
 9326TIP3    H249470   2.556   0.936  11.630 -0.5735 -0.9246  0.6023
 9327TIP3   OH249471   1.394   4.785  15.723  0.3615 -0.4083  0.1877
 9327TIP3    H149472   1.436   4.823  15.800 -0.3193  0.9142 -0.0621
 9327TIP3    H249473   1.423   4.841  15.651  0.3796 -1.1667 -0.3985
 9328TIP3   OH249474   1.627   2.864  16.272 -0.5570  0.1963  0.3757
 9328TIP3    H149475   1.698   2.897  16.327 -1.8987  1.5024  1.4395
 9328TIP3    H249476   1.548   2.883  16.323 -1.6360 -1.8917 -0.4155
 9329TIP3   OH249477   0.531   1.983  10.418  0.3816  0.3486  0.3337
 9329TIP3    H149478   0.606   1.929  10.394 -0.9015 -0.6783 -1.6761
 9329TIP3    H249479   0.468   1.969  10.347 -1.1244  2.3319  1.1809
 9330TIP3   OH249480   5.434   2.041  14.342 -0.1799  0.3278  0.2767
 9330TIP3    H149481   5.476   2.071  14.262 -0.4004 -0.2343 -0.0545
 9330TIP3    H249482   5.418   1.948  14.328 -1.1254  0.4328  0.5752
 9331TIP3   OH249483   6.429   1.389  13.703 -0.2137  0.3727 -0.2290
 9331TIP3    H149484   6.474   1.332  13.641 -0.9139 -1.6079  0.9965
 9331TIP3    H249485   6.379   1.449  13.647  3.4527  2.4667 -1.6483
 9332TIP3   OH249486   3.485   3.004  15.423  0.1390 -0.0601  0.3451
 9332TIP3    H149487   3.572   2.968  15.407 -0.2222 -0.3669 -0.9926
 9332TIP3    H249488   3.480   3.083  15.368 -0.3387  0.0916  0.5947
 9333TIP3   OH249489   0.796   1.849   1.576  0.1685  0.2479 -0.4502
 9333TIP3    H149490   0.870   1.800   1.612 -0.8967 -1.2184 -0.1653
 9333TIP3    H249491   0.776   1.914   1.642  1.2178  0.7009 -0.5529
 9334TIP3   OH249492   4.069   2.271  12.696 -0.5086 -0.6292 -0.1445
 9334TIP3    H149493   3.999   2.329  12.666 -1.0690 -1.9100 -1.4121
 9334TIP3    H249494   4.149   2.315  12.671 -0.8554  0.4669  0.5862
 9335TIP3   OH249495   2.036   6.069  13.183 -0.1207  0.0815  0.2382
 9335TIP3    H149496   1.956   6.110  13.152  0.3979  1.9262  1.2050
 9335TIP3    H249497   2.006   5.990  13.229 -1.4307  0.9921  1.0088
 9336TIP3   OH249498   3.349   4.684  14.431  0.4388  0.3865 -0.2647
 9336TIP3    H149499   3.422   4.624  14.414  1.1069  0.3256  2.2683
 9336TIP3    H249500   3.284   4.631  14.477 -0.3838  0.8846 -0.8285
 9337TIP3   OH249501   2.897   3.826   4.957  0.3368  0.9036  0.3248
 9337TIP3    H149502   2.803   3.812   4.967  0.2077  2.4225  1.7044
 9337TIP3    H249503   2.906   3.871   4.873 -0.2440  1.3090  0.4715
 9338TIP3   OH249504   3.929   4.395   5.714 -0.4814 -0.2002  0.5384
 9338TIP3    H149505   3.872   4.445   5.773  1.3378  2.0259  0.5775
 9338TIP3    H249506   4.011   4.445   5.713  0.8320 -2.2437 -0.9507
 9339TIP3   OH249507   1.074   5.355   0.843  0.4299 -0.0180 -0.1477
 9339TIP3    H149508   1.101   5.373   0.933  0.0427  1.2053 -0.2586
 9339TIP3    H249509   0.998   5.412   0.829 -1.5880 -2.5723 -0.2112
 9340TIP3   OH249510   0.403   3.072   0.228  0.3644 -0.0967 -0.0619
 9340TIP3    H149511   0.488   3.114   0.242  0.1396 -0.1120  1.5095
 9340TIP3    H249512   0.396   3.007   0.298 -1.1600  0.2664  0.1612
 9341TIP3   OH249513   1.211   0.001  15.596  0.1654  0.7826  0.3835
 9341TIP3    H149514   1.165  -0.076  15.562  1.8673 -0.2962  0.4015
 9341TIP3    H249515   1.141   0.060  15.625 -1.3196  0.5391 -2.3089
 9342TIP3   OH249516   1.602   3.893  15.974 -0.4743 -0.3565  0.2199
 9342TIP3    H149517   1.696   3.877  15.990 -0.2371  0.4253 -0.3310
 9342TIP3    H249518   1.600   3.974  15.922 -1.3401 -1.4295 -1.5136
 9343TIP3   OH249519   0.904   2.281   2.853 -0.0519 -0.1414  0.3170
 9343TIP3    H149520   0.994   2.284   2.886  0.5021  1.3761 -1.1640
 9343TIP3    H249521   0.895   2.361   2.801 -2.1806 -0.4033  0.1890
 9344TIP3   OH249522   3.763   2.477   0.788 -0.0473 -0.5098  0.3421
 9344TIP3    H149523   3.753   2.516   0.701 -1.6642  1.9143  1.4890
 9344TIP3    H249524   3.857   2.458   0.796  0.2722  0.0889 -1.5674
 9345TIP3   OH249525   1.492   0.741   2.359  0.0906 -0.2923  0.5565
 9345TIP3    H149526   1.548   0.783   2.424 -0.8041  1.0869  0.4771
 9345TIP3    H249527   1.430   0.689   2.410 -0.0591  0.0953  0.7728
 9346TIP3   OH249528   3.146   3.209  16.788 -0.0406 -0.2221 -0.4151
 9346TIP3    H149529   3.076   3.273  16.795  0.4417  0.2529  0.1620
 9346TIP3    H249530   3.172   3.192  16.879 -0.2114 -1.2904 -0.5540
 9347TIP3   OH249531   2.726   6.488  10.549 -0.4498  0.0221 -0.0210
 9347TIP3    H149532   2.636   6.515  10.534 -1.3317 -0.9574  2.9413
 9347TIP3    H249533   2.730   6.397  10.519 -0.3192  0.1703 -0.4677
 9348TIP3   OH249534   4.313   2.980  15.421  0.0676 -0.0371  0.1901
 9348TIP3    H149535   4.270   2.920  15.360 -2.0064 -0.0740  1.5880
 9348TIP3    H249536   4.305   3.066  15.381 -1.6254 -0.0058  0.5455
 9349TIP3   OH249537   1.996   3.991   4.762 -0.4032 -0.4722 -0.2305
 9349TIP3    H149538   1.904   3.979   4.788 -0.9398  1.3196 -1.1277
 9349TIP3    H249539   2.024   4.069   4.810  1.2348 -1.9556  1.3463
 9350TIP3   OH249540   5.643   1.030  14.805 -0.8542 -0.0782  0.6955
 9350TIP3    H149541   5.635   1.053  14.897 -3.5852  1.0225  0.2632
 9350TIP3    H249542   5.560   0.986  14.784  0.0506 -1.0609 -1.0619
 9351TIP3   OH249543   0.208   5.608  11.578  0.5073 -0.4073 -0.0489
 9351TIP3    H149544   0.154   5.686  11.569  1.5475  0.2308 -0.9512
 9351TIP3    H249545   0.166   5.558  11.648 -1.1248  0.1543 -0.5798
 9352TIP3   OH249546   4.817   1.415   1.026 -0.1852  0.6354 -0.0642
 9352TIP3    H149547   4.777   1.487   0.977  0.1452  0.6651 -0.2950
 9352TIP3    H249548   4.901   1.450   1.054  0.9962 -0.3757 -2.1058
 9353TIP3   OH249549   4.627   0.199   6.160 -0.3918 -0.2783 -0.3860
 9353TIP3    H149550   4.651   0.212   6.068 -0.9198 -2.3726 -0.8796
 9353TIP3    H249551   4.663   0.275   6.205  0.0461  0.7084 -2.2911
 9354TIP3   OH249552   4.665   6.298   2.857 -0.3057 -0.6320 -0.3749
 9354TIP3    H149553   4.616   6.371   2.820 -1.3903  0.4114  2.8043
 9354TIP3    H249554   4.602   6.252   2.912  1.3964 -1.3849  1.0450
 9355TIP3   OH249555   5.411   5.228   5.412  0.3301  0.9280  0.8518
 9355TIP3    H149556   5.323   5.238   5.446  0.6213 -1.1747  2.3647
 9355TIP3    H249557   5.466   5.217   5.489  1.6825  0.5028 -0.1334
 9356TIP3   OH249558   4.942   0.170   1.854 -0.3960 -0.0823  1.0299
 9356TIP3    H149559   4.985   0.146   1.772  0.8278  0.2244  1.5630
 9356TIP3    H249560   4.878   0.100   1.868 -2.3011  1.0464 -1.3447
 9357TIP3   OH249561   5.248   3.803  10.956 -0.2612 -0.0617  0.3853
 9357TIP3    H149562   5.343   3.800  10.951 -0.2883  0.5150 -1.1439
 9357TIP3    H249563   5.222   3.719  10.994  0.8126 -0.5854 -0.0114
 9358TIP3   OH249564   1.122   3.563  15.278 -0.1435  0.5227  0.2007
 9358TIP3    H149565   1.085   3.533  15.195  0.5711 -0.1517  0.1181
 9358TIP3    H249566   1.084   3.505  15.343  0.2333  0.2768  0.2001
 9359TIP3   OH249567   4.342   0.564   2.483 -0.6013  0.0791  0.1280
 9359TIP3    H149568   4.318   0.506   2.555  0.8428 -0.0811  0.5202
 9359TIP3    H249569   4.397   0.631   2.524  0.2107  0.0129 -0.8123
 9360TIP3   OH249570   2.648   2.363   0.742  0.4341 -0.0557  0.0082
 9360TIP3    H149571   2.617   2.272   0.749  2.1778 -0.8004 -1.1712
 9360TIP3    H249572   2.732   2.363   0.787  1.0981  0.6132 -1.1875
 9361TIP3   OH249573   3.902   0.628  13.589 -0.5224 -0.7428 -0.0883
 9361TIP3    H149574   3.832   0.693  13.594 -0.5184 -0.8224  1.3521
 9361TIP3    H249575   3.917   0.602  13.679  0.4355 -1.7360 -0.5135
 9362TIP3   OH249576   4.756   0.607  11.624  0.1517  0.1759 -0.1943
 9362TIP3    H149577   4.810   0.556  11.684  3.2404  0.4559 -2.4871
 9362TIP3    H249578   4.752   0.694  11.664  0.5696 -0.1215  0.5175
 9363TIP3   OH249579   4.468   6.804   5.578 -0.4218  0.6198  0.0440
 9363TIP3    H149580   4.505   6.774   5.661 -2.5181  1.3054  1.2999
 9363TIP3    H249581   4.462   6.725   5.524  0.8387  0.1427  0.5775
 9364TIP3   OH249582   0.193   4.676  12.257 -0.0825  0.0141  0.1664
 9364TIP3    H149583   0.101   4.670  12.281 -0.5269  1.0423 -1.1898
 9364TIP3    H249584   0.193   4.681  12.162  1.3166  1.0169  0.1907
 9365TIP3   OH249585   4.674   6.047   5.052 -0.5533  0.5986  0.0044
 9365TIP3    H149586   4.750   5.992   5.032 -1.2045 -0.2726 -0.1267
 9365TIP3    H249587   4.711   6.134   5.070  0.5419  0.0118  0.6881
 9366TIP3   OH249588   1.808   6.745  13.879 -0.6100 -0.0641  0.4696
 9366TIP3    H149589   1.714   6.727  13.874 -0.3830 -1.3223  0.1570
 9366TIP3    H249590   1.828   6.746  13.973 -0.6994 -1.3096  0.5237
 9367TIP3   OH249591   1.571   3.942  14.852 -0.1272 -0.3117  0.2695
 9367TIP3    H149592   1.604   3.944  14.762 -0.8630 -2.9395 -0.1410
 9367TIP3    H249593   1.624   3.876  14.896 -0.6594 -0.0231  1.3961
 9368TIP3   OH249594   1.486   5.736   0.666 -0.6111 -0.2743 -0.8934
 9368TIP3    H149595   1.520   5.779   0.745  0.6520 -2.2859 -0.2768
 9368TIP3    H249596   1.515   5.645   0.674 -1.3519 -0.7647 -3.1884
 9369TIP3   OH249597   0.046   3.960   0.866 -0.0255 -0.0493  0.6637
 9369TIP3    H149598   0.099   3.922   0.795  1.8477  2.7144  0.4339
 9369TIP3    H249599  -0.038   3.980   0.825  1.1379  1.8291 -1.0074
 9370TIP3   OH249600   0.484   4.833  15.765  0.4046  0.1275 -0.2624
 9370TIP3    H149601   0.421   4.881  15.819 -0.5160 -2.3780  1.0616
 9370TIP3    H249602   0.500   4.891  15.690 -0.3496  2.5712  1.3443
 9371TIP3   OH249603   4.534   6.609  12.696  0.2566  0.3119 -0.1620
 9371TIP3    H149604   4.550   6.516  12.706  1.2527  0.3324 -1.3265
 9371TIP3    H249605   4.439   6.618  12.698  0.1741 -0.5237  1.3656
 9372TIP3   OH249606   2.315   1.608  15.765 -0.2392 -0.3699  0.3864
 9372TIP3    H149607   2.248   1.633  15.701 -1.1520 -0.9154  1.0957
 9372TIP3    H249608   2.279   1.635  15.849  0.4397 -0.6685  0.7799
 9373TIP3   OH249609   4.006   3.128   4.732 -0.2011  0.0654 -0.0978
 9373TIP3    H149610   3.976   3.043   4.700  3.0570 -1.4253  0.3647
 9373TIP3    H249611   4.014   3.182   4.653 -2.7949  0.2134 -0.3377
 9374TIP3   OH249612   1.218   6.592   0.421  0.4394 -0.5143  0.9264
 9374TIP3    H149613   1.204   6.637   0.504 -0.3562 -1.5653  1.3841
 9374TIP3    H249614   1.277   6.520   0.443  2.4311  0.7570  0.0333
 9375TIP3   OH249615   3.634   3.784  14.169  0.5533 -0.1359  0.3352
 9375TIP3    H149616   3.622   3.878  14.182 -0.2389 -0.5115  3.0292
 9375TIP3    H249617   3.725   3.769  14.194  0.4157 -0.2025  0.8015
 9376TIP3   OH249618   1.410   0.034  16.576 -0.2633  1.0836  0.7287
 9376TIP3    H149619   1.484   0.094  16.588  0.7908  0.4308 -1.8514
 9376TIP3    H249620   1.447  -0.053  16.589 -1.2140  0.8330  1.9524
 9377TIP3   OH249621   4.055   3.454  10.868 -0.1286  0.0183 -0.2372
 9377TIP3    H149622   4.120   3.490  10.808  2.6931  0.3246  2.6898
 9377TIP3    H249623   3.982   3.515  10.864  0.6240  0.8704 -2.1248
 9378TIP3   OH249624   5.309   3.287   0.780  0.4837  0.9664 -0.1934
 9378TIP3    H149625   5.333   3.237   0.858  1.1058 -0.0820 -1.0265
 9378TIP3    H249626   5.221   3.256   0.758  0.4236  1.0520 -0.0722
 9379TIP3   OH249627   5.995   2.632  12.839  0.1675 -0.5198  0.8245
 9379TIP3    H149628   5.945   2.552  12.830  0.1883 -0.5834  1.2560
 9379TIP3    H249629   5.932   2.697  12.869 -0.5127  0.3721 -2.1740
 9380TIP3   OH249630   5.426   5.105   4.805 -0.1251  0.9920  0.9749
 9380TIP3    H149631   5.504   5.118   4.858  0.0170  2.4674  0.4501
 9380TIP3    H249632   5.429   5.175   4.740 -0.8673 -0.1135 -0.2957
 9381TIP3   OH249633   2.074   1.373   2.634  0.1574  0.1101  0.3260
 9381TIP3    H149634   2.001   1.311   2.635  0.6434 -0.5298 -1.2473
 9381TIP3    H249635   2.097   1.384   2.727  0.6188 -2.7556  0.6591
 9382TIP3   OH249636   4.936   0.214   2.175 -0.3532  0.0982 -0.1916
 9382TIP3    H149637   5.030   0.230   2.180 -0.1264 -1.2831  0.5996
 9382TIP3    H249638   4.923   0.172   2.090 -0.2480  0.3138 -0.3118
 9383TIP3   OH249639   3.939   1.640  11.135  0.1926 -0.1509 -0.3799
 9383TIP3    H149640   3.870   1.691  11.091 -0.1199 -0.4208 -0.2099
 9383TIP3    H249641   3.950   1.563  11.080 -0.5137 -0.7090  0.2320
 9384TIP3   OH249642   6.118   0.546   0.079  0.6343 -0.4410 -0.1246
 9384TIP3    H149643   6.190   0.605   0.102  0.9154 -0.3027 -1.3159
 9384TIP3    H249644   6.160   0.472   0.035  0.1088 -0.6516 -0.2849
 9385TIP3   OH249645   5.161   4.319   1.510 -0.2747  0.2561  1.0043
 9385TIP3    H149646   5.133   4.345   1.598  1.7391  0.4370  1.6351
 9385TIP3    H249647   5.253   4.296   1.520 -0.2307 -0.5533 -0.9103
 9386TIP3   OH249648   6.377   5.674  16.572 -0.0265  0.0365 -0.5620
 9386TIP3    H149649   6.327   5.604  16.531  0.4386 -1.7220  1.6522
 9386TIP3    H249650   6.468   5.642  16.573  0.2520  0.8043  0.1945
 9387TIP3   OH249651   4.312   0.819   4.714  0.1202 -0.2422  0.1801
 9387TIP3    H149652   4.227   0.824   4.672  0.2034  0.7433  0.1226
 9387TIP3    H249653   4.372   0.860   4.652  0.2457  1.2242  1.2446
 9388TIP3   OH249654   0.859   2.422  13.673 -0.0201 -0.0720 -0.0162
 9388TIP3    H149655   0.931   2.404  13.734  0.6757 -2.1272 -1.3171
 9388TIP3    H249656   0.838   2.336  13.636 -1.3811  0.8929 -1.5977
 9389TIP3   OH249657   0.033   2.309   1.364 -0.2502  0.4141 -0.0474
 9389TIP3    H149658   0.092   2.368   1.317 -0.9290  0.1470 -1.2555
 9389TIP3    H249659  -0.052   2.321   1.323 -0.9654  0.4668  1.3855
 9390TIP3   OH249660   5.388   4.981   5.631 -0.5949 -0.4421 -0.1100
 9390TIP3    H149661   5.442   4.960   5.555 -0.3364 -1.1336  0.2473
 9390TIP3    H249662   5.451   4.994   5.702 -0.7274  1.8201 -0.3355
 9391TIP3   OH249663   2.325   6.194   3.578 -0.0896  0.2516  0.0388
 9391TIP3    H149664   2.371   6.253   3.638 -0.1551  3.2359 -2.5473
 9391TIP3    H249665   2.392   6.165   3.517 -0.7164  0.8129 -0.9591
 9392TIP3   OH249666   5.734   2.120  12.390  0.0041  0.0113  0.8305
 9392TIP3    H149667   5.805   2.114  12.326 -0.4882 -1.8278  0.3722
 9392TIP3    H249668   5.663   2.165  12.344 -0.4377 -1.5244 -0.0830
 9393TIP3   OH249669   6.558   5.890  16.360  0.3150  0.5450  0.1087
 9393TIP3    H149670   6.625   5.957  16.344 -0.9361  2.2201  1.5037
 9393TIP3    H249671   6.563   5.873  16.454 -0.7136  0.1497  0.1053
 9394TIP3   OH249672   2.996   6.127   2.552  0.2940  0.1703  0.0870
 9394TIP3    H149673   3.001   6.056   2.488 -0.6343  0.9382 -0.8703
 9394TIP3    H249674   2.942   6.092   2.623  1.3938 -0.7144  0.5242
 9395TIP3   OH249675   3.329   3.527  11.438 -0.4189 -0.1267 -0.3574
 9395TIP3    H149676   3.357   3.614  11.468 -1.2417 -0.0148  0.1113
 9395TIP3    H249677   3.396   3.467  11.472  1.2976  0.5136 -2.4084
 9396TIP3   OH249678   1.547   6.655  16.664 -0.5093 -0.2608 -0.0166
 9396TIP3    H149679   1.512   6.594  16.728 -1.9853 -1.1251 -1.5736
 9396TIP3    H249680   1.636   6.624  16.646  0.0891  0.2604  1.8865
 9397TIP3   OH249681   1.797   1.248  11.638  0.1069 -0.2931  0.3091
 9397TIP3    H149682   1.827   1.300  11.713  1.4883 -1.4293  0.5972
 9397TIP3    H249683   1.784   1.160  11.673  2.8021 -1.3896 -1.0781
 9398TIP3   OH249684   0.640   4.006   4.123  0.3444 -0.5676  0.1250
 9398TIP3    H149685   0.574   4.046   4.066 -0.1688 -0.6976  0.6165
 9398TIP3    H249686   0.713   3.984   4.065  0.2519  0.2315 -0.3070
 9399TIP3   OH249687   4.060   3.976  16.256  0.1945 -0.3550  0.1850
 9399TIP3    H149688   4.036   3.986  16.349  0.6104 -1.1738  0.3896
 9399TIP3    H249689   4.075   4.066  16.226  0.5821 -0.1142  1.0559
 9400TIP3   OH249690   5.073   0.481  15.202 -0.2951 -0.1324 -0.3648
 9400TIP3    H149691   5.166   0.459  15.207 -0.5070 -1.0595 -0.2524
 9400TIP3    H249692   5.029   0.405  15.239 -1.1076  0.2780 -0.4644
 9401TIP3   OH249693   4.137   4.288   1.332 -0.2815  0.3582 -0.4277
 9401TIP3    H149694   4.232   4.280   1.318 -0.1572  1.3315 -0.2403
 9401TIP3    H249695   4.119   4.381   1.316 -0.7105  0.8648  2.4343
 9402TIP3   OH249696   2.352   5.395   4.894 -0.4271  0.4879 -0.4254
 9402TIP3    H149697   2.308   5.391   4.809 -0.4924  0.1252 -0.3754
 9402TIP3    H249698   2.297   5.343   4.952 -1.1031  1.8098  0.1810
 9403TIP3   OH249699   2.544   0.092   6.569 -0.3006  0.5552  0.1201
 9403TIP3    H149700   2.584   0.064   6.652 -0.7550 -2.8238 -0.6712
 9403TIP3    H249701   2.459   0.047   6.567  0.7054 -1.5111 -3.1951
 9404TIP3   OH249702   4.044   2.462  14.815 -0.4378  0.2641  1.0493
 9404TIP3    H149703   3.997   2.435  14.736  2.3367 -0.2814 -0.5395
 9404TIP3    H249704   4.050   2.557  14.808 -0.0659  0.2045  0.5114
 9405TIP3   OH249705   0.911   1.776   1.940 -0.5282  0.0111 -0.2295
 9405TIP3    H149706   0.891   1.781   2.033 -0.3609  1.0921 -0.2446
 9405TIP3    H249707   0.965   1.853   1.922 -0.3599 -0.3104 -1.1698
 9406TIP3   OH249708   5.119   3.390  16.557 -0.3784 -0.6262  0.0186
 9406TIP3    H149709   5.115   3.370  16.463 -1.2551 -0.0195 -0.0833
 9406TIP3    H249710   5.063   3.324  16.598 -3.9445  1.8721 -0.3969
 9407TIP3   OH249711   5.847   2.561  13.494 -0.0651 -0.5114 -0.3759
 9407TIP3    H149712   5.869   2.570  13.401  0.8858 -0.1781 -0.1243
 9407TIP3    H249713   5.925   2.589  13.541 -1.3337  1.7110  0.5796
 9408TIP3   OH249714   5.045   6.339  15.412 -0.3390 -0.3666  0.0977
 9408TIP3    H149715   5.113   6.336  15.479 -0.2346  1.4896  0.1052
 9408TIP3    H249716   5.092   6.341  15.329 -0.4323 -0.6273  0.0349
 9409TIP3   OH249717   1.788   5.023   1.842 -0.1233  0.1438 -0.1020
 9409TIP3    H149718   1.785   5.099   1.784  2.1853 -0.2278 -0.7957
 9409TIP3    H249719   1.763   5.058   1.928  0.7004  1.6857 -0.4399
 9410TIP3   OH249720   0.406   6.384  15.652  0.0506 -0.5566 -0.6317
 9410TIP3    H149721   0.487   6.414  15.693 -0.4368 -0.1386  0.0356
 9410TIP3    H249722   0.424   6.388  15.558  1.2569 -1.7417 -0.4776
 9411TIP3   OH249723   3.946   3.871  12.936 -0.3725  0.0758 -0.9217
 9411TIP3    H149724   3.884   3.803  12.964  1.5045 -0.9467  1.0602
 9411TIP3    H249725   3.911   3.952  12.972  1.5573 -1.0595  4.4352
 9412TIP3   OH249726   4.847   4.355  15.439 -0.2086 -0.3169 -0.2472
 9412TIP3    H149727   4.916   4.400  15.487  1.8919 -1.5116 -1.9442
 9412TIP3    H249728   4.861   4.380  15.347 -2.2000 -0.4369 -0.6430
 9413TIP3   OH249729   0.904   1.955   0.301  0.1168 -0.6964  0.3015
 9413TIP3    H149730   0.864   2.002   0.228  2.9866  0.1416 -0.8831
 9413TIP3    H249731   0.870   1.866   0.294 -0.0617 -0.5111 -1.7888
 9414TIP3   OH249732   5.586   3.850   6.169 -0.1406 -0.1600  0.9272
 9414TIP3    H149733   5.545   3.879   6.250  2.3050  4.3627  0.8727
 9414TIP3    H249734   5.679   3.865   6.183  0.4383  0.0614 -2.4392
 9415TIP3   OH249735   4.566   3.824  11.813  0.2696 -0.5061 -0.3508
 9415TIP3    H149736   4.607   3.746  11.776 -2.1265 -1.7412 -0.5696
 9415TIP3    H249737   4.537   3.875  11.737 -1.2240 -1.1326 -0.2208
 9416TIP3   OH249738   1.320   5.160  14.073  0.6911 -1.0393 -0.2580
 9416TIP3    H149739   1.345   5.247  14.042  1.0015 -1.3591 -0.9288
 9416TIP3    H249740   1.355   5.155  14.162 -1.1017  0.2784  0.5769
 9417TIP3   OH249741   3.395   0.911   2.861  0.0600 -0.0185 -0.5724
 9417TIP3    H149742   3.327   0.863   2.908  1.5604 -1.5007  0.1544
 9417TIP3    H249743   3.471   0.853   2.861  1.3918  1.6288 -1.2440
 9418TIP3   OH249744   0.582   6.378  12.110 -0.7947  0.1191 -0.1970
 9418TIP3    H149745   0.556   6.326  12.186  0.4931  0.4530  0.5032
 9418TIP3    H249746   0.507   6.434  12.092 -1.2654 -0.2443  0.5801
 9419TIP3   OH249747   0.813   4.571  12.279 -0.0853 -0.5712  0.0001
 9419TIP3    H149748   0.892   4.623  12.294 -0.4893  0.2404 -0.6271
 9419TIP3    H249749   0.839   4.482  12.301  1.3583 -0.5214 -1.3509
 9420TIP3   OH249750   6.762   4.861  11.893 -0.1110 -1.0041 -0.0071
 9420TIP3    H149751   6.780   4.847  11.986  0.0641  0.7140  0.2550
 9420TIP3    H249752   6.704   4.937  11.892 -0.7370 -1.4787 -1.2760
 9421TIP3   OH249753   3.894   6.201  15.448  0.0885 -0.1585 -0.4062
 9421TIP3    H149754   3.893   6.128  15.510 -1.3832  1.4599  1.6551
 9421TIP3    H249755   3.961   6.261  15.483 -1.9752  1.5905  0.7650
 9422TIP3   OH249756   1.970   3.008   3.921  0.3886 -0.3142  0.3693
 9422TIP3    H149757   1.897   2.948   3.937  1.4125 -1.2266  1.8991
 9422TIP3    H249758   2.007   2.980   3.837 -0.9997  0.1733 -0.4311
 9423TIP3   OH249759   3.313   2.083  10.925 -0.9625 -0.3417 -0.1877
 9423TIP3    H149760   3.253   2.061  10.996 -1.4877  1.1184 -0.1535
 9423TIP3    H249761   3.259   2.133  10.863  0.2238  1.0984 -0.1074
 9424TIP3   OH249762   0.557   2.822  12.552 -0.5234  0.5210 -0.2336
 9424TIP3    H149763   0.608   2.757  12.601 -0.1147  1.5123  0.6844
 9424TIP3    H249764   0.567   2.903  12.601 -3.5431  0.6317  0.3891
 9425TIP3   OH249765   0.896   1.776  13.097 -0.1158 -0.6228  0.2185
 9425TIP3    H149766   0.969   1.721  13.069 -1.6563 -2.5654 -0.1487
 9425TIP3    H249767   0.837   1.716  13.143 -1.2172  1.0198  1.0529
 9426TIP3   OH249768   1.830   1.169  11.220  0.4999 -0.2637  0.5711
 9426TIP3    H149769   1.907   1.225  11.217  0.4168 -0.1702  0.0968
 9426TIP3    H249770   1.849   1.099  11.157  0.7606 -0.9769  1.4214
 9427TIP3   OH249771   6.326   0.501   5.152  0.1008  0.1545  0.7268
 9427TIP3    H149772   6.245   0.450   5.160  0.4313 -0.3909  0.6813
 9427TIP3    H249773   6.301   0.590   5.177 -0.4263 -0.0881  1.0867
 9428TIP3   OH249774   6.005   4.148   3.239 -0.2125 -0.2087 -0.6131
 9428TIP3    H149775   6.059   4.161   3.161 -2.5107 -0.4312 -2.3557
 9428TIP3    H249776   5.958   4.066   3.222 -2.0187  0.6063  0.1940
 9429TIP3   OH249777   2.390   4.006   1.930  0.8965 -0.1967 -0.2957
 9429TIP3    H149778   2.376   3.927   1.879 -0.6584 -0.9454  1.1704
 9429TIP3    H249779   2.302   4.040   1.946  1.3347  0.2449  1.4520
 9430TIP3   OH249780   2.540   2.249  11.772 -0.2605 -0.3387 -0.7678
 9430TIP3    H149781   2.607   2.306  11.810 -1.8914  0.6350  0.8058
 9430TIP3    H249782   2.589   2.171  11.744  1.2767 -0.8089  2.6538
 9431TIP3   OH249783   2.798   1.856   4.634  0.0985  0.5161 -0.3510
 9431TIP3    H149784   2.792   1.930   4.694  0.5040  1.1212 -1.0310
 9431TIP3    H249785   2.827   1.895   4.551  1.5010 -0.5473 -0.4074
 9432TIP3   OH249786   0.906   2.424  14.364  0.1856 -0.2301  0.2718
 9432TIP3    H149787   0.902   2.429  14.268  0.3576 -1.3238  0.2002
 9432TIP3    H249788   0.818   2.451  14.392  0.2636  0.5175 -0.1671
 9433TIP3   OH249789   4.010   6.328  16.227  0.5135 -0.3745 -0.3798
 9433TIP3    H149790   4.055   6.251  16.192  1.4266  0.8886 -2.1600
 9433TIP3    H249791   4.032   6.329  16.320 -1.2630 -3.3860  0.2072
 9434TIP3   OH249792   2.279   4.595   0.761  0.8426  0.3935  0.0582
 9434TIP3    H149793   2.204   4.590   0.703  1.3013 -1.9454 -0.4372
 9434TIP3    H249794   2.259   4.668   0.820 -1.1327  0.7293 -0.9381
 9435TIP3   OH249795   3.799   6.806  13.321  0.1824  0.0276 -0.1690
 9435TIP3    H149796   3.797   6.803  13.417  0.9827 -0.7577 -0.1714
 9435TIP3    H249797   3.755   6.726  13.294  0.2591  0.0837 -0.4623
 9436TIP3   OH249798   0.422   4.228  15.475 -0.3697 -0.0711  0.8890
 9436TIP3    H149799   0.353   4.293  15.463 -1.3622 -1.3261 -0.6526
 9436TIP3    H249800   0.382   4.160  15.530  0.1659 -0.1052  1.2501
 9437TIP3   OH249801   1.451   5.996  13.567  0.3830 -0.2612 -0.0609
 9437TIP3    H149802   1.434   5.944  13.489 -1.7850  1.1212 -0.5843
 9437TIP3    H249803   1.405   5.950  13.637  0.0251 -0.0371 -0.1492
 9438TIP3   OH249804   4.035   0.871   1.823 -0.2201 -0.6691 -0.1627
 9438TIP3    H149805   4.025   0.900   1.913  1.2452 -1.0530  0.1549
 9438TIP3    H249806   3.969   0.920   1.774 -1.3100 -0.7624  1.1657
 9439TIP3   OH249807   4.127   1.653  13.758 -0.3140  0.0313 -0.5218
 9439TIP3    H149808   4.195   1.585  13.750 -1.8674 -1.9552  1.7735
 9439TIP3    H249809   4.079   1.648  13.676 -0.5230 -1.8557 -0.3319
 9440TIP3   OH249810   0.443   2.884  16.464 -0.0269  0.3881  0.6493
 9440TIP3    H149811   0.431   2.865  16.371  0.0388  0.3939  0.6400
 9440TIP3    H249812   0.537   2.895  16.475 -0.0297  0.3437  0.7252
 9441TIP3   OH249813   0.876   2.121  15.136  0.6463 -0.5557 -0.2741
 9441TIP3    H149814   0.907   2.033  15.116  0.2692 -1.1353  1.5076
 9441TIP3    H249815   0.947   2.179  15.108  0.9148 -1.4083 -1.4306
 9442TIP3   OH249816   5.786   5.921  14.071 -0.2196 -0.4562 -0.2628
 9442TIP3    H149817   5.835   5.956  13.997 -1.7794  0.7214 -0.7878
 9442TIP3    H249818   5.754   5.836  14.040 -0.6404 -0.0857 -0.8758
 9443TIP3   OH249819   5.836   1.282   2.947  0.3135 -0.4595  0.2403
 9443TIP3    H149820   5.803   1.370   2.963 -0.4443 -0.7238  0.1572
 9443TIP3    H249821   5.931   1.291   2.952  0.4801  1.0629 -3.1274
 9444TIP3   OH249822   5.961   2.776   4.546 -0.0797  0.5588 -0.1693
 9444TIP3    H149823   5.937   2.697   4.595 -0.2424  0.5285 -0.2950
 9444TIP3    H249824   5.899   2.842   4.577 -1.8748 -0.0778 -2.1122
 9445TIP3   OH249825   4.370   2.063  17.200 -0.2837 -0.1936  0.2297
 9445TIP3    H149826   4.375   1.988  17.259 -1.1906 -0.6500 -0.2559
 9445TIP3    H249827   4.280   2.064  17.169 -0.3288  1.1802  0.3133
 9446TIP3   OH249828   0.362   5.285  14.239  0.0659 -0.2515  0.2251
 9446TIP3    H149829   0.402   5.332  14.312  1.6745 -0.8617 -0.2162
 9446TIP3    H249830   0.296   5.345  14.205  0.6316  0.8309  0.9834
 9447TIP3   OH249831   4.448   1.521  14.463 -0.1834 -0.1816 -0.0965
 9447TIP3    H149832   4.532   1.503  14.420  0.8717  0.3315  1.6556
 9447TIP3    H249833   4.428   1.440  14.510 -0.1311  0.0507  0.3272
 9448TIP3   OH249834   1.724   0.034   5.208  0.4352 -0.6379 -0.1411
 9448TIP3    H149835   1.724   0.047   5.113  0.7575  1.8482  0.1361
 9448TIP3    H249836   1.665  -0.040   5.222  1.5787 -2.0880 -2.3526
 9449TIP3   OH249837   3.071   0.275   1.954  0.1749 -0.1522  0.4063
 9449TIP3    H149838   3.083   0.328   1.875 -0.6721 -0.0182  0.3635
 9449TIP3    H249839   2.979   0.287   1.978  0.1815 -0.9492  0.8716
 9450TIP3   OH249840   5.407   5.324   4.561 -0.3787  0.1611  0.0935
 9450TIP3    H149841   5.353   5.362   4.491 -0.8995  0.8632  0.8577
 9450TIP3    H249842   5.424   5.397   4.620  1.0360 -0.1582  0.1147
 9451TIP3   OH249843   0.172   5.127   4.644 -0.2589 -0.3645  0.1843
 9451TIP3    H149844   0.191   5.081   4.725 -0.0548  0.0600  0.3846
 9451TIP3    H249845   0.255   5.169   4.620  0.5664 -2.9697 -1.9124
 9452TIP3   OH249846   1.924   5.659  12.226 -0.1685  0.3202  0.4269
 9452TIP3    H149847   1.909   5.574  12.184 -1.5979  0.8324 -0.1581
 9452TIP3    H249848   2.001   5.645  12.282 -0.3758 -1.3514  0.3376
 9453TIP3   OH249849   5.201   4.499   5.314  0.1219  0.0974  0.2141
 9453TIP3    H149850   5.201   4.489   5.219  1.6536 -0.6491  0.2574
 9453TIP3    H249851   5.155   4.421   5.346 -0.7362  0.5428  0.0847
 9454TIP3   OH249852   6.447   5.563   0.620  0.4933  0.1540 -0.4063
 9454TIP3    H149853   6.525   5.583   0.672  0.3615 -0.4515  0.0318
 9454TIP3    H249854   6.374   5.572   0.682  0.1482  1.2913 -0.9531
 9455TIP3   OH249855   3.191   2.289   2.195  0.3904  0.0611  0.0961
 9455TIP3    H149856   3.239   2.277   2.277  0.7878  0.4804 -0.0695
 9455TIP3    H249857   3.099   2.295   2.221  0.4574 -0.4386  0.4483
 9456TIP3   OH249858   4.928   2.870  15.743 -0.0932 -0.2740  0.1522
 9456TIP3    H149859   4.897   2.940  15.801  1.1287  0.1978  0.2626
 9456TIP3    H249860   4.899   2.790  15.786 -0.1348  0.1105  0.8688
 9457TIP3   OH249861   6.063   0.143   4.949 -0.2801  0.4635 -0.0383
 9457TIP3    H149862   5.979   0.101   4.969 -0.5385  0.8084 -0.3899
 9457TIP3    H249863   6.082   0.197   5.026 -1.0193  1.3807 -0.4733
 9458TIP3   OH249864   2.634   6.117   2.509  0.0365 -0.2905 -0.3546
 9458TIP3    H149865   2.716   6.069   2.512  0.3342  0.2103 -0.3989
 9458TIP3    H249866   2.579   6.068   2.447  0.1194 -0.9000  0.0440
 9459TIP3   OH249867   0.488   5.498  13.597  0.6791  0.5939  0.3139
 9459TIP3    H149868   0.536   5.477  13.517 -0.4729  1.6375 -0.6897
 9459TIP3    H249869   0.500   5.592  13.609  1.2777  0.3697  1.6965
 9460TIP3   OH249870   0.135   5.618   0.324 -0.2340 -0.2450 -0.3291
 9460TIP3    H149871   0.096   5.702   0.348 -1.9095 -0.9296 -0.5410
 9460TIP3    H249872   0.224   5.623   0.358 -0.3578  1.5283 -0.1446
 9461TIP3   OH249873   3.500   3.966  15.826 -0.1716 -0.0682  0.4722
 9461TIP3    H149874   3.447   3.934  15.900 -0.4521 -0.8083 -0.0320
 9461TIP3    H249875   3.559   3.894  15.806 -0.2346  0.0437 -0.1488
 9462TIP3   OH249876   0.039   6.385   5.911  0.1097 -0.4699  0.6058
 9462TIP3    H149877   0.035   6.365   6.005 -0.6552 -0.2338  0.6296
 9462TIP3    H249878   0.084   6.469   5.906 -1.3712  0.3666  0.9018
 9463TIP3   OH249879   2.208   5.860  16.025 -0.3591  0.7458 -0.0403
 9463TIP3    H149880   2.297   5.827  16.040 -0.2985  1.8598  2.8434
 9463TIP3    H249881   2.208   5.892  15.935  1.7904 -0.2885 -0.4707
 9464TIP3   OH249882   3.400   1.190   5.875  0.2799  0.2249 -0.1803
 9464TIP3    H149883   3.350   1.110   5.891 -0.0649  0.6107  0.7393
 9464TIP3    H249884   3.491   1.165   5.891  0.1312  0.1136  0.5417
 9465TIP3   OH249885   4.981   2.894   1.871 -0.0460  0.5863  1.1133
 9465TIP3    H149886   4.941   2.876   1.956 -1.5685 -2.4728 -0.0976
 9465TIP3    H249887   4.908   2.923   1.816  0.4876  0.4978  0.3443
 9466TIP3   OH249888   2.980   5.878   4.478 -0.1907 -0.2914  0.0396
 9466TIP3    H149889   2.955   5.832   4.558 -0.1551 -0.0905  0.1679
 9466TIP3    H249890   3.001   5.967   4.507 -1.1691  0.0849 -0.3259
 9467TIP3   OH249891   2.007   6.353   0.381 -0.1569  0.3681 -0.4411
 9467TIP3    H149892   2.053   6.298   0.318  0.3275  0.4176 -0.1436
 9467TIP3    H249893   2.057   6.435   0.381  0.9595 -0.2580  1.3202
 9468TIP3   OH249894   3.367   1.081   5.416  0.0790  0.3682 -0.3212
 9468TIP3    H149895   3.354   1.162   5.464  2.7912 -0.6137  2.3321
 9468TIP3    H249896   3.326   1.014   5.471  2.3184 -0.6405  0.2317
 9469TIP3   OH249897   3.701   0.167  16.613  0.1538 -0.1570  0.1124
 9469TIP3    H149898   3.767   0.218  16.660  1.3811 -0.3254 -1.3268
 9469TIP3    H249899   3.642   0.232  16.576  0.0771  0.0552  0.5984
 9470TIP3   OH249900   4.216   0.520  11.266 -0.0093  0.3468 -0.5473
 9470TIP3    H149901   4.207   0.604  11.311  0.6476  0.3590 -0.4277
 9470TIP3    H249902   4.163   0.459  11.318  0.3502  0.4659 -0.0256
 9471TIP3   OH249903   1.143   1.360  11.350 -0.1556 -0.0176 -0.2713
 9471TIP3    H149904   1.112   1.273  11.375 -1.8860  0.9050  1.0384
 9471TIP3    H249905   1.064   1.406  11.322  0.7025  1.1967 -0.8000
 9472TIP3   OH249906   5.250   0.528   6.195  0.1016  0.6669  0.1221
 9472TIP3    H149907   5.202   0.598   6.151  0.4585  1.1279  0.4548
 9472TIP3    H249908   5.324   0.510   6.137 -0.8399 -0.5415 -0.7488
 9473TIP3   OH249909   4.041   2.824  17.025 -0.0480 -0.1571 -0.2755
 9473TIP3    H149910   4.119   2.792  16.980  0.3965  0.9780 -0.3582
 9473TIP3    H249911   4.047   2.788  17.113 -0.3154 -1.4373 -0.7554
 9474TIP3   OH249912   5.172   1.359   4.585  0.2689  0.4490  0.3602
 9474TIP3    H149913   5.215   1.284   4.543 -0.0691  0.2483  0.3604
 9474TIP3    H249914   5.115   1.319   4.652 -1.5717  0.5153 -1.0754
 9475TIP3   OH249915   4.447   0.743   3.322  0.0398  0.2649  0.0210
 9475TIP3    H149916   4.529   0.778   3.358 -0.2186  1.6493 -0.6768
 9475TIP3    H249917   4.473   0.703   3.239  0.0609  0.4515 -0.0640
 9476TIP3   OH249918   0.802   6.119   4.615  0.7800  0.5193 -0.1140
 9476TIP3    H149919   0.797   6.024   4.615  1.6984  0.4704 -0.3656
 9476TIP3    H249920   0.857   6.141   4.690  3.1337  0.6840 -1.7663
 9477TIP3   OH249921   0.862   3.994  12.234  0.5246 -0.5854 -0.5538
 9477TIP3    H149922   0.825   4.077  12.262  2.4321 -0.4515  1.9461
 9477TIP3    H249923   0.940   4.018  12.184  1.3084 -0.8181  0.5181
 9478TIP3   OH249924   5.983   6.401   5.110  0.2811 -0.2361 -0.5184
 9478TIP3    H149925   5.997   6.371   5.020  1.8273  1.5600 -0.9345
 9478TIP3    H249926   6.071   6.421   5.142 -0.3545  0.1794  1.0387
 9479TIP3   OH249927   4.739   3.638  12.293 -0.2361 -0.8377  0.0378
 9479TIP3    H149928   4.714   3.729  12.276 -0.0114 -0.8997 -0.6635
 9479TIP3    H249929   4.664   3.600  12.338 -1.5153 -1.0620 -2.1502
 9480TIP3   OH249930   4.450   2.036   1.515  0.4821  0.3165  0.5783
 9480TIP3    H149931   4.395   1.999   1.585  2.0581 -0.3416  1.5381
 9480TIP3    H249932   4.498   2.106   1.558  0.9454  0.3846 -0.0466
 9481TIP3   OH249933   5.709   3.782   4.525  0.0022 -0.2202 -0.2889
 9481TIP3    H149934   5.723   3.814   4.436 -0.2624  0.7363 -0.0002
 9481TIP3    H249935   5.710   3.861   4.580 -0.1618 -0.7588  0.5140
 9482TIP3   OH249936   3.630   1.200  14.370 -0.4771 -0.3396  0.0382
 9482TIP3    H149937   3.557   1.242  14.324 -0.1882  2.0057  1.5761
 9482TIP3    H249938   3.685   1.272  14.399  0.6733 -1.8567  1.8513
 9483TIP3   OH249939   5.087   4.816   0.447  0.0023  0.3677 -0.2121
 9483TIP3    H149940   5.116   4.810   0.356 -0.9239 -1.3338 -0.4462
 9483TIP3    H249941   5.109   4.730   0.484 -1.6733  0.2264  0.5133
 9484TIP3   OH249942   0.100   4.254   0.866 -0.2982  0.3107 -0.3079
 9484TIP3    H149943   0.112   4.181   0.927  0.9787  0.0946 -0.7932
 9484TIP3    H249944   0.093   4.212   0.780  0.6614  0.7434 -0.6164
 9485TIP3   OH249945   0.990   6.195  16.474  0.2898 -0.2437 -0.4702
 9485TIP3    H149946   1.050   6.174  16.546  0.7267 -0.6484 -0.9451
 9485TIP3    H249947   1.006   6.126  16.409 -2.2635 -1.6994  0.3159
 9486TIP3   OH249948   2.990   3.819  12.628  0.0124 -0.1101  0.2093
 9486TIP3    H149949   2.916   3.763  12.607  0.1650 -1.0133  1.9091
 9486TIP3    H249950   3.025   3.783  12.710  1.6316  0.9800  0.0464
 9487TIP3   OH249951   5.800   4.145  14.971 -0.1617 -0.1121 -0.4807
 9487TIP3    H149952   5.879   4.091  14.982 -0.5326 -0.3869  1.1272
 9487TIP3    H249953   5.827   4.234  14.993  0.1053  0.1128 -1.6855
 9488TIP3   OH249954   3.805   2.383   6.106 -1.0877  0.0651  0.4526
 9488TIP3    H149955   3.774   2.466   6.143  1.0898  0.7222  0.9485
 9488TIP3    H249956   3.880   2.359   6.160 -0.4792 -1.2175 -0.8957
 9489TIP3   OH249957   6.752   4.896  17.115 -0.1626 -0.5702 -0.0456
 9489TIP3    H149958   6.705   4.818  17.144 -0.6793  0.0878  0.9691
 9489TIP3    H249959   6.844   4.877  17.136 -0.4792 -0.2391  1.8975
 9490TIP3   OH249960   6.813   6.003   4.423  0.3757  0.3192  0.8187
 9490TIP3    H149961   6.759   5.924   4.433 -1.0144  1.2329  0.8257
 9490TIP3    H249962   6.752   6.075   4.439  1.2344  1.4516 -0.7407
 9491TIP3   OH249963   5.868   5.052   6.606  0.0982  0.1752  0.2841
 9491TIP3    H149964   5.887   5.048   6.513 -0.7868 -1.4555  0.1317
 9491TIP3    H249965   5.942   5.098   6.644 -0.5674  2.9151 -1.4676
 9492TIP3   OH249966   5.743   3.683   1.705  0.4545  0.1035  0.2921
 9492TIP3    H149967   5.823   3.718   1.666  0.8489  1.9396  2.5697
 9492TIP3    H249968   5.754   3.696   1.799 -2.0545 -0.6588  0.7694
 9493TIP3   OH249969   3.901   6.815   6.399  0.0402 -0.0057 -0.4021
 9493TIP3    H149970   3.882   6.819   6.305 -1.7997  0.2610 -0.0618
 9493TIP3    H249971   3.946   6.897   6.418  0.3929 -0.0457 -1.0474
 9494TIP3   OH249972   6.533   2.765  15.027  0.7447  0.7002  0.4057
 9494TIP3    H149973   6.441   2.792  15.034  0.2606 -1.1682  2.0955
 9494TIP3    H249974   6.531   2.670  15.035  2.8001  0.5530 -0.2439
 9495TIP3   OH249975   0.891   1.411  14.174  0.1354  0.4351 -0.0792
 9495TIP3    H149976   0.874   1.317  14.172  0.1435  0.3903 -3.0605
 9495TIP3    H249977   0.915   1.429  14.264  0.7971 -2.5557  0.4643
 9496TIP3   OH249978   1.956   1.440  12.653 -0.3639 -0.1386  0.1613
 9496TIP3    H149979   1.873   1.418  12.612 -0.4933  0.7346 -0.0774
 9496TIP3    H249980   1.987   1.358  12.692 -1.9896 -0.1963  1.4332
 9497TIP3   OH249981   0.429   6.675  17.199  0.0676 -0.3371 -0.3094
 9497TIP3    H149982   0.457   6.701  17.112  0.1386  0.3455 -0.0886
 9497TIP3    H249983   0.359   6.737  17.221 -0.2841 -0.8141 -0.0801
 9498TIP3   OH249984   0.431   2.056  17.107  0.3833 -0.2121  0.0966
 9498TIP3    H149985   0.357   2.048  17.167  0.2033 -1.1462 -0.2348
 9498TIP3    H249986   0.446   1.967  17.075  0.1728  0.3357 -1.5954
 9499TIP3   OH249987   6.411   3.917  16.676 -0.8187  0.0159  0.0015
 9499TIP3    H149988   6.382   3.977  16.607  0.7592  1.2809  0.3866
 9499TIP3    H249989   6.428   3.973  16.752  3.2998 -0.3461 -0.4001
 9500TIP3   OH249990   0.180   0.297   2.833  0.8761  0.3694 -0.1942
 9500TIP3    H149991   0.161   0.218   2.781 -0.0070  1.0736 -0.9981
 9500TIP3    H249992   0.157   0.273   2.923 -2.1110  0.4909 -0.7985
 9501TIP3   OH249993   6.429   1.905  12.720  0.5345  0.0804 -0.4742
 9501TIP3    H149994   6.406   1.822  12.677  0.8419  0.3603 -1.1809
 9501TIP3    H249995   6.372   1.970  12.679  1.4712  0.5068 -1.1180
 9502TIP3   OH249996   6.476   1.754   4.155 -0.4344  0.5894  0.1019
 9502TIP3    H149997   6.513   1.776   4.240  0.3107 -1.8844  0.4948
 9502TIP3    H249998   6.399   1.701   4.174 -0.0545 -0.2957 -0.7283
 9503TIP3   OH249999   3.691   6.838  16.814  0.3143 -0.3018 -0.1493
 9503TIP3    H150000   3.690   6.889  16.733  2.3711 -0.2753 -0.1955
 9503TIP3    H250001   3.752   6.885  16.871 -0.4090 -0.8345  1.1007
 9504TIP3   OH250002   2.911   3.226   3.818  0.0328  0.1499 -0.0635
 9504TIP3    H150003   2.953   3.141   3.832 -2.8578 -1.6852 -1.5686
 9504TIP3    H250004   2.960   3.286   3.874  2.4027 -2.4074  0.8485
 9505TIP3   OH250005   5.315   0.657   3.622 -0.4233 -0.2441  0.7666
 9505TIP3    H150006   5.253   0.710   3.572  0.2013  0.8210  1.0663
 9505TIP3    H250007   5.332   0.709   3.701 -1.2172 -1.7835  2.0009
 9506TIP3   OH250008   3.216   2.793  16.157  0.1359  0.0516 -0.5425
 9506TIP3    H150009   3.175   2.826  16.078 -1.8715 -0.5287  0.1798
 9506TIP3    H250010   3.173   2.841  16.228  0.6272 -0.6729  0.2678
 9507TIP3   OH250011   1.733   4.637  14.092  0.4505  0.2871  0.2364
 9507TIP3    H150012   1.772   4.563  14.046 -2.6957 -2.0904  1.0648
 9507TIP3    H250013   1.671   4.674  14.029 -0.9755 -0.4452  1.1837
 9508TIP3   OH250014   1.251   0.029   3.567 -0.0240 -0.5168 -0.0491
 9508TIP3    H150015   1.327   0.033   3.509  0.6937  0.1411  0.8968
 9508TIP3    H250016   1.217   0.119   3.567 -1.2326 -0.9438 -0.9855
 9509TIP3   OH250017   5.373   2.025   2.481 -0.1043  0.0928  0.2400
 9509TIP3    H150018   5.363   2.103   2.536  0.3796  0.2752  0.0763
 9509TIP3    H250019   5.449   1.979   2.517  0.1916  0.1940 -0.2471
 9510TIP3   OH250020   1.412   3.182   6.124  0.7144  0.3213 -0.3520
 9510TIP3    H150021   1.400   3.116   6.192  0.5647  0.5442 -0.1602
 9510TIP3    H250022   1.366   3.146   6.048  0.7259  0.1551 -0.2811
 9511TIP3   OH250023   0.929   0.683  12.088 -0.1363 -0.3615  0.4758
 9511TIP3    H150024   0.867   0.752  12.063  0.0178  0.3284  1.8970
 9511TIP3    H250025   1.015   0.720  12.067 -0.0763 -0.2893  0.8430
 9512TIP3   OH250026   6.790   2.991  11.083  0.1590 -0.2521 -0.5685
 9512TIP3    H150027   6.833   2.955  11.006 -0.0283 -0.6111 -0.5072
 9512TIP3    H250028   6.697   2.976  11.067  0.1760 -1.3343  0.2229
 9513TIP3   OH250029   2.835   6.580   1.364  0.1729 -0.0688 -0.3487
 9513TIP3    H150030   2.902   6.639   1.330 -0.2650  0.6391 -0.0159
 9513TIP3    H250031   2.845   6.500   1.314  1.4870 -0.0931 -0.0736
 9514TIP3   OH250032   2.171   0.216   1.335  0.4020  0.4861 -0.2537
 9514TIP3    H150033   2.176   0.174   1.421  2.1717  0.5506 -0.2856
 9514TIP3    H250034   2.130   0.150   1.279 -3.4242  1.4100  1.1268
 9515TIP3   OH250035   1.174   4.148   0.142 -0.2090 -0.1496  0.6621
 9515TIP3    H150036   1.124   4.077   0.102  0.0038  0.3146 -0.4576
 9515TIP3    H250037   1.124   4.227   0.121  0.1422  0.1499  0.9449
 9516TIP3   OH250038   1.983   1.546   3.660 -0.0573 -0.1600  0.5803
 9516TIP3    H150039   1.909   1.494   3.690 -0.6853 -0.0316 -0.7179
 9516TIP3    H250040   2.034   1.562   3.740 -0.1270 -2.2852  1.1063
 9517TIP3   OH250041   4.698   6.752   3.390  0.1793 -0.0598  0.0177
 9517TIP3    H150042   4.724   6.771   3.300 -0.8748 -1.2475 -0.5685
 9517TIP3    H250043   4.728   6.828   3.440  1.6481  0.1847 -1.1509
 9518TIP3   OH250044   3.819   5.302  16.515  0.8208  0.1214 -0.1096
 9518TIP3    H150045   3.889   5.355  16.552  0.6775  0.4896 -0.3636
 9518TIP3    H250046   3.752   5.365  16.490  0.5574 -0.1979 -0.2155
 9519TIP3   OH250047   0.536   5.511   2.896 -0.6513 -0.2276 -0.0374
 9519TIP3    H150048   0.587   5.525   2.816 -0.4476  1.0151  0.2817
 9519TIP3    H250049   0.553   5.420   2.920  1.5611  0.1876  0.1379
 9520TIP3   OH250050   2.687   1.288   3.781  0.2293 -0.8880  0.3577
 9520TIP3    H150051   2.765   1.268   3.834  0.4357 -1.4842 -0.1599
 9520TIP3    H250052   2.722   1.326   3.701  0.0679 -2.0423 -0.2881
 9521TIP3   OH250053   3.745   3.703  13.042 -0.0125 -0.1637  0.2747
 9521TIP3    H150054   3.732   3.627  12.985 -0.0895  0.4602 -0.5652
 9521TIP3    H250055   3.669   3.759  13.025  0.8757  0.8897 -0.4032
 9522TIP3   OH250056   2.400   1.486  14.586  0.2384 -0.8672 -0.3570
 9522TIP3    H150057   2.440   1.523  14.665 -0.5145 -1.3296  0.2473
 9522TIP3    H250058   2.311   1.521  14.586 -0.0626 -1.6202 -0.4915
 9523TIP3   OH250059   2.975   6.353  13.170  0.4394  0.8402  0.4263
 9523TIP3    H150060   2.983   6.267  13.128  2.3327  0.7178  0.9484
 9523TIP3    H250061   2.886   6.355  13.204  0.7039 -1.4302  1.4676
 9524TIP3   OH250062   1.513   0.150   2.216 -0.2176 -0.3453 -0.6936
 9524TIP3    H150063   1.512   0.082   2.149  0.5259  0.0270 -1.0947
 9524TIP3    H250064   1.423   0.183   2.219 -0.3113 -0.5395 -1.3340
 9525TIP3   OH250065   3.816   4.701   4.262  0.2584  0.8559 -0.1691
 9525TIP3    H150066   3.892   4.752   4.232 -0.2264  2.8015  1.6951
 9525TIP3    H250067   3.754   4.706   4.189  1.1753  0.8284 -0.9751
 9526TIP3   OH250068   3.253   5.822  16.250 -0.2180 -0.4701  0.2012
 9526TIP3    H150069   3.169   5.852  16.284  0.0515  0.6003 -0.0373
 9526TIP3    H250070   3.311   5.820  16.326 -0.2634 -0.5085  0.2344
 9527TIP3   OH250071   1.879   2.733  11.956  0.0314  0.3106  0.3412
 9527TIP3    H150072   1.911   2.688  12.034 -0.3109  0.5428  0.6198
 9527TIP3    H250073   1.871   2.664  11.890 -0.0974  0.0370  0.6423
 9528TIP3   OH250074   0.925   2.111  16.359  0.1409  0.6791 -0.0528
 9528TIP3    H150075   0.844   2.096  16.408  0.1935  0.0305 -0.1455
 9528TIP3    H250076   0.978   2.033  16.376  0.4977  0.8211 -0.4771
 9529TIP3   OH250077   2.477   4.916  16.937  0.4959  0.4075 -0.1327
 9529TIP3    H150078   2.464   4.907  16.843  1.9491 -0.0233 -0.3246
 9529TIP3    H250079   2.396   4.954  16.970 -0.4203 -0.4097 -1.4044
 9530TIP3   OH250080   5.061   4.183  12.928 -0.0684 -0.1647  0.5393
 9530TIP3    H150081   4.991   4.213  12.870  0.9870  0.7342 -0.3291
 9530TIP3    H250082   5.102   4.264  12.960  1.7864 -0.6192 -0.5238
 9531TIP3   OH250083   6.048   5.470   1.252  0.3176 -0.1935  0.4470
 9531TIP3    H150084   6.142   5.482   1.270  0.9771 -3.7050  0.0761
 9531TIP3    H250085   6.037   5.504   1.163  0.5607  2.6346  1.3917
 9532TIP3   OH250086   1.156   2.082  16.052 -0.4092 -0.9111 -0.3339
 9532TIP3    H150087   1.185   2.003  16.007  1.3240 -1.0711  0.9471
 9532TIP3    H250088   1.084   2.054  16.108 -0.7821 -1.2640 -0.9884
 9533TIP3   OH250089   0.869   3.726   5.787  0.4672  0.3987 -0.0728
 9533TIP3    H150090   0.916   3.738   5.869  3.2107 -0.5065 -1.4124
 9533TIP3    H250091   0.864   3.814   5.749 -0.4242  0.7499  0.8208
 9534TIP3   OH250092   4.478   1.980  13.669 -0.4245  0.0969 -0.2609
 9534TIP3    H150093   4.485   1.907  13.730  0.4615 -0.0132 -0.4744
 9534TIP3    H250094   4.559   1.975  13.617  1.1481  2.9755  1.6537
 9535TIP3   OH250095   5.767   2.986  12.678 -0.5166 -0.3053  0.4074
 9535TIP3    H150096   5.811   2.921  12.622 -0.1831  0.6977 -0.5319
 9535TIP3    H250097   5.825   3.062  12.676 -1.0203  0.1187  1.2977
 9536TIP3   OH250098   4.876   3.332   4.264 -0.0948 -0.0529 -0.2635
 9536TIP3    H150099   4.929   3.266   4.219 -0.9118 -0.3637 -0.7953
 9536TIP3    H250100   4.800   3.344   4.207 -0.5342  0.4765  0.4237
 9537TIP3   OH250101   0.696   3.736  14.571 -0.0901 -0.4051  0.1974
 9537TIP3    H150102   0.655   3.822  14.569  2.9049  1.1272 -0.5840
 9537TIP3    H250103   0.646   3.684  14.509 -0.0540  1.7742 -1.7734
 9538TIP3   OH250104   1.273   3.872   6.644  0.0141  0.0548 -0.1688
 9538TIP3    H150105   1.292   3.799   6.703  0.2251  0.2438  0.0032
 9538TIP3    H250106   1.189   3.850   6.605  0.7361 -0.9812 -1.2200
 9539TIP3   OH250107   3.884   3.705   2.636 -0.1473  0.0388  0.4444
 9539TIP3    H150108   3.885   3.622   2.683 -1.4405 -0.1973  0.0825
 9539TIP3    H250109   3.827   3.762   2.689  1.1835  0.9041  1.0021
 9540TIP3   OH250110   5.332   4.025   1.717  0.3489  0.2244 -0.1672
 9540TIP3    H150111   5.379   3.948   1.688 -0.0402  0.6018 -1.8891
 9540TIP3    H250112   5.242   3.995   1.731  0.5765  0.0009  0.9030
 9541TIP3   OH250113   3.638   1.976  13.734  0.3959 -0.1131 -0.6904
 9541TIP3    H150114   3.665   2.063  13.762 -1.5060 -0.0668  1.2319
 9541TIP3    H250115   3.603   1.989  13.646 -0.2631  1.1649 -0.2593
 9542TIP3   OH250116   3.917   1.201   2.058 -0.5279 -0.6738 -0.0125
 9542TIP3    H150117   3.886   1.221   1.970  0.5804  2.0172  0.0917
 9542TIP3    H250118   3.869   1.262   2.114  0.3656 -0.8212  0.9446
 9543TIP3   OH250119   4.372   6.571  15.865 -0.2514  0.2635 -0.4629
 9543TIP3    H150120   4.314   6.645  15.850  0.5100  0.4182 -3.1400
 9543TIP3    H250121   4.314   6.497  15.879 -1.0825  0.7835 -1.0801
 9544TIP3   OH250122   2.760   4.350  11.354  0.0166 -0.5490 -0.1338
 9544TIP3    H150123   2.696   4.417  11.380  1.7638  0.8476  0.8399
 9544TIP3    H250124   2.755   4.283  11.422 -0.4394 -0.4564 -0.0773
 9545TIP3   OH250125   1.834   1.796   2.792  0.0827 -0.1972 -0.0376
 9545TIP3    H150126   1.812   1.836   2.877 -0.1862  1.0763 -0.6747
 9545TIP3    H250127   1.752   1.798   2.743  0.7022  1.1155 -1.0920
 9546TIP3   OH250128   4.775   0.601  13.823 -0.6321  0.1724  0.0662
 9546TIP3    H150129   4.752   0.676  13.769  2.4221  0.9695 -0.2725
 9546TIP3    H250130   4.860   0.622  13.861 -0.6041 -2.2636  1.6382
 9547TIP3   OH250131   4.033   6.743   2.818  0.1260 -0.1971 -0.1849
 9547TIP3    H150132   3.969   6.736   2.889  2.5877 -1.5069  2.0839
 9547TIP3    H250133   4.067   6.832   2.825  0.4047 -0.3411  0.3352
 9548TIP3   OH250134   4.378   4.779   0.733  0.0999 -0.2369  0.1014
 9548TIP3    H150135   4.337   4.865   0.723  0.0160 -0.4305 -1.3902
 9548TIP3    H250136   4.307   4.721   0.761 -0.0773 -0.0530  0.0350
 9549TIP3   OH250137   2.816   0.408  11.472 -0.6029 -0.4259  0.1960
 9549TIP3    H150138   2.795   0.462  11.396  1.6036 -0.4740 -0.5136
 9549TIP3    H250139   2.841   0.323  11.434  2.5630  0.1643  0.7223
 9550TIP3   OH250140   1.938   1.014  16.471  0.0540 -0.4881  0.3910
 9550TIP3    H150141   1.993   1.005  16.392  0.2397 -1.1259  0.5874
 9550TIP3    H250142   1.998   1.046  16.538 -0.1191  0.1186  0.2639
 9551TIP3   OH250143   0.667   3.522  16.154  0.0501  0.3612 -0.7201
 9551TIP3    H150144   0.672   3.454  16.087  0.4445 -0.9567  0.5740
 9551TIP3    H250145   0.666   3.604  16.106 -2.5192 -0.5788 -2.4491
 9552TIP3   OH250146   6.504   5.275   0.546  0.0406  0.2098 -0.2615
 9552TIP3    H150147   6.489   5.366   0.569  0.0031  0.2829 -0.5769
 9552TIP3    H250148   6.496   5.228   0.629  2.1013  0.7347  0.2906
 9553TIP3   OH250149   0.726   0.825   5.308  0.0075  0.2083 -0.1979
 9553TIP3    H150150   0.709   0.883   5.234  0.3170  0.4716 -0.0633
 9553TIP3    H250151   0.738   0.884   5.383 -0.6439 -0.0693  0.1343
 9554TIP3   OH250152   0.860   6.000   4.306  0.1110 -0.1767 -0.1431
 9554TIP3    H150153   0.948   6.034   4.323  0.4643 -1.5719  0.9673
 9554TIP3    H250154   0.838   5.948   4.383 -0.6796 -1.9041 -1.4642
 9555TIP3   OH250155   2.605   0.010   4.325 -0.2859 -0.0251 -0.6289
 9555TIP3    H150156   2.562  -0.040   4.395 -0.0255  2.0202  1.0901
 9555TIP3    H250157   2.532   0.042   4.271 -0.7687  0.8700  0.4948
 9556TIP3   OH250158   5.903   2.618   2.128 -0.0318  0.5992 -0.6553
 9556TIP3    H150159   5.851   2.677   2.074  0.4831  1.4562 -0.2347
 9556TIP3    H250160   5.978   2.595   2.073 -0.5633 -0.2018 -1.0608
 9557TIP3   OH250161   2.489   0.087  14.548 -0.0848 -0.3825 -0.4844
 9557TIP3    H150162   2.431   0.138  14.492 -0.1780  0.6637  0.5330
 9557TIP3    H250163   2.436   0.069  14.626  0.6773 -0.1733  0.0803
 9558TIP3   OH250164   5.297   4.453  11.325  0.5849 -0.0472 -0.7241
 9558TIP3    H150165   5.360   4.472  11.256  1.4024 -0.6252 -0.1549
 9558TIP3    H250166   5.221   4.507  11.304  0.3360 -1.1050 -2.7489
 9559TIP3   OH250167   1.584   0.207   3.641  0.1925  0.0700  0.6655
 9559TIP3    H150168   1.510   0.266   3.653  0.2173 -0.1731  2.2572
 9559TIP3    H250169   1.557   0.146   3.573 -0.5573  0.7756  0.3258
 9560TIP3   OH250170   2.349   2.393   2.643 -0.5227  0.2630  0.1006
 9560TIP3    H150171   2.397   2.325   2.597 -1.7859 -0.8544  0.3956
 9560TIP3    H250172   2.285   2.346   2.696  1.4227  1.3566  3.8254
 9561TIP3   OH250173   3.513   4.198  16.111 -0.0611 -0.0649 -0.0580
 9561TIP3    H150174   3.582   4.135  16.132 -1.1703 -1.2109  0.3173
 9561TIP3    H250175   3.552   4.283  16.126  0.4544 -0.7265  2.8224
 9562TIP3   OH250176   1.339   0.593  11.210  0.0127 -0.3508  0.1985
 9562TIP3    H150177   1.256   0.549  11.190 -1.1605  1.9729 -0.5128
 9562TIP3    H250178   1.346   0.589  11.305 -0.7050 -0.9218  0.2399
 9563TIP3   OH250179   3.560   4.570  13.248 -0.5172 -0.8587  0.2057
 9563TIP3    H150180   3.621   4.575  13.322  0.0308 -2.7870 -0.0503
 9563TIP3    H250181   3.615   4.583  13.171 -0.3477 -2.7546 -0.0332
 9564TIP3   OH250182   4.600   5.648  11.844 -0.5854 -0.2945  0.0212
 9564TIP3    H150183   4.611   5.581  11.776 -2.6713 -0.6320 -0.0522
 9564TIP3    H250184   4.628   5.729  11.802  1.1611 -0.9524 -0.1680
 9565TIP3   OH250185   3.110   3.824  11.241 -0.3935 -0.3326  0.0194
 9565TIP3    H150186   3.042   3.765  11.273  0.9329 -1.3300  1.1526
 9565TIP3    H250187   3.130   3.881  11.316  0.3952 -0.4273 -0.1069
 9566TIP3   OH250188   5.112   3.723   5.481  0.4811 -0.1919 -0.1504
 9566TIP3    H150189   5.033   3.679   5.512  1.8956 -2.5747  0.3728
 9566TIP3    H250190   5.162   3.742   5.561  0.2144  1.9012 -0.4161
 9567TIP3   OH250191   1.236   0.997  12.587  0.6435 -0.0977 -0.4153
 9567TIP3    H150192   1.327   0.995  12.556  0.6958 -1.5201 -0.2501
 9567TIP3    H250193   1.193   0.925  12.541  0.0464 -0.5277  0.7569
 9568TIP3   OH250194   6.341   0.133  11.295  0.4686 -0.2729 -0.6166
 9568TIP3    H150195   6.342   0.067  11.364  1.5450 -0.0059 -0.3571
 9568TIP3    H250196   6.432   0.159  11.285  0.0591  1.3133 -0.5775
 9569TIP3   OH250197   5.133   2.581  15.456 -0.1328  0.2126  0.9059
 9569TIP3    H150198   5.202   2.518  15.476 -2.0348 -1.6484  2.0090
 9569TIP3    H250199   5.120   2.628  15.538 -1.7564 -1.1410  1.4853
 9570TIP3   OH250200   4.262   3.750  15.144 -0.1141 -0.3590 -0.1731
 9570TIP3    H150201   4.272   3.722  15.235  0.1571  0.0520 -0.0750
 9570TIP3    H250202   4.242   3.843  15.149  3.1518  0.4860 -0.6228
 9571TIP3   OH250203   1.020   0.255   3.375  0.1691  0.1448  0.5147
 9571TIP3    H150204   0.982   0.247   3.462  0.6669 -1.4219  0.6249
 9571TIP3    H250205   1.018   0.349   3.356 -2.0669  0.2874  1.2413
 9572TIP3   OH250206   3.490   5.028  14.898 -0.1652 -0.3801  0.5864
 9572TIP3    H150207   3.425   5.016  14.829  0.7833  0.3130 -0.4571
 9572TIP3    H250208   3.506   4.939  14.930 -2.2172 -0.4991  1.4749
 9573TIP3   OH250209   4.838   3.804   2.489 -0.5039  0.3821 -0.4076
 9573TIP3    H150210   4.812   3.716   2.461 -0.4132  0.1658  0.1815
 9573TIP3    H250211   4.813   3.860   2.415  1.4652 -0.4112 -1.7633
 9574TIP3   OH250212   1.636   0.702  14.588 -0.5517  0.4285  1.0443
 9574TIP3    H150213   1.573   0.727  14.655 -2.5190 -0.4893 -0.3573
 9574TIP3    H250214   1.591   0.719  14.505  0.4832 -1.5969 -0.0084
 9575TIP3   OH250215   5.483   2.862   6.269 -0.8985 -0.0193 -0.1722
 9575TIP3    H150216   5.542   2.789   6.286  1.0003  0.9867 -1.9555
 9575TIP3    H250217   5.506   2.928   6.335  0.3556  0.5139 -1.0773
 9576TIP3   OH250218   1.417   1.609  12.096 -0.1663  0.0777 -0.2420
 9576TIP3    H150219   1.347   1.549  12.071 -1.8195  1.0627  1.7083
 9576TIP3    H250220   1.475   1.611  12.020 -1.5218 -1.8217 -1.4201
 9577TIP3   OH250221   0.149   6.370  11.445 -0.0709 -0.0971 -0.3959
 9577TIP3    H150222   0.153   6.410  11.358  0.4493  0.1068 -0.2794
 9577TIP3    H250223   0.231   6.395  11.487  0.9213 -2.3878 -0.8059
 9578TIP3   OH250224   5.153   1.078  13.358  0.4016  0.1863  0.2652
 9578TIP3    H150225   5.114   1.128  13.287  0.4972  0.6802  0.5610
 9578TIP3    H250226   5.127   0.987  13.340 -1.7179  0.6060  1.0035
 9579TIP3   OH250227   5.246   6.508  13.385  0.3449  0.0162 -0.2783
 9579TIP3    H150228   5.172   6.548  13.339 -0.9164 -0.4852  1.2046
 9579TIP3    H250229   5.315   6.574  13.382 -0.6717  1.1036 -0.4166
 9580TIP3   OH250230   2.066   0.462  14.100 -0.4945  0.6711  0.0347
 9580TIP3    H150231   2.109   0.513  14.169 -1.9059 -0.6264  1.9957
 9580TIP3    H250232   2.121   0.384  14.091 -0.0247  1.0815 -0.7169
 9581TIP3   OH250233   0.402   4.743   2.391 -0.5963  0.0298 -0.6795
 9581TIP3    H150234   0.483   4.703   2.361 -0.0302 -0.0958  0.8994
 9581TIP3    H250235   0.339   4.671   2.395  0.4488 -0.8502  2.2662
 9582TIP3   OH250236   6.054   1.014  11.829 -0.1726  0.3570 -0.8677
 9582TIP3    H150237   6.109   1.086  11.798  0.7775 -0.5387 -1.3177
 9582TIP3    H250238   5.975   1.018  11.774 -0.8222  1.9629  0.1227
 9583TIP3   OH250239   6.730   2.164   4.876  0.3515  0.3729 -0.0661
 9583TIP3    H150240   6.814   2.207   4.861  0.8193 -0.0975  1.0625
 9583TIP3    H250241   6.673   2.235   4.907  0.2396  0.7484 -1.1043
 9584TIP3   OH250242   3.154   6.718  12.320 -0.0475 -0.0841 -0.2374
 9584TIP3    H150243   3.090   6.749  12.256 -1.0000  1.2068  1.2387
 9584TIP3    H250244   3.119   6.634  12.349 -1.0283  0.5205  0.4149
 9585TIP3   OH250245   0.660   0.434  14.474 -0.1667 -0.4183 -0.2455
 9585TIP3    H150246   0.633   0.488  14.549 -2.5631 -1.1271 -0.5117
 9585TIP3    H250247   0.707   0.360  14.513 -0.9172 -0.5006  0.5308
 9586TIP3   OH250248   4.322   1.818  15.446  0.2841 -0.0770 -0.2693
 9586TIP3    H150249   4.394   1.868  15.408  0.3157 -1.3742 -2.0898
 9586TIP3    H250250   4.345   1.726  15.429 -1.7976 -0.5197 -0.9918
 9587TIP3   OH250251   6.656   5.907   3.874  0.5349 -0.4512  0.3560
 9587TIP3    H150252   6.707   5.841   3.922  0.6022  0.0294  0.9475
 9587TIP3    H250253   6.645   5.869   3.787  3.0059 -0.0338 -0.2055
 9588TIP3   OH250254   5.029   4.422  15.118  0.7033 -0.0974 -0.0737
 9588TIP3    H150255   5.001   4.489  15.181  1.3822  0.8285 -0.7255
 9588TIP3    H250256   5.118   4.399  15.146  0.5113 -0.6663  0.0861
 9589TIP3   OH250257   3.055   0.571  11.552  0.6410  0.5570  0.3192
 9589TIP3    H150258   2.986   0.518  11.513  1.6477 -0.5059 -0.0599
 9589TIP3    H250259   3.123   0.575  11.485  1.6891  0.1261  1.3269
 9590TIP3   OH250260   6.138   1.529   2.103  0.2676  0.2315  0.2519
 9590TIP3    H150261   6.085   1.606   2.125  0.1063 -0.0456  0.8456
 9590TIP3    H250262   6.197   1.518   2.177  0.0119 -0.4545  0.3637
 9591TIP3   OH250263   6.044   1.452  16.518  0.0097  0.1998 -0.3200
 9591TIP3    H150264   6.038   1.468  16.424 -0.4938  1.6775 -0.0760
 9591TIP3    H250265   6.111   1.513  16.548 -1.6314  1.6454  0.6131
 9592TIP3   OH250266   1.178   5.637   2.463 -0.5216 -0.3236 -0.4124
 9592TIP3    H150267   1.251   5.587   2.499  0.3151  0.1609 -1.3686
 9592TIP3    H250268   1.210   5.727   2.460 -1.6660  0.1333  0.4119
 9593TIP3   OH250269   5.796   2.618  15.176 -0.4292 -0.7264 -0.5218
 9593TIP3    H150270   5.832   2.607  15.089  0.5167 -0.2191 -0.2134
 9593TIP3    H250271   5.757   2.705  15.175  1.7803  0.3487  0.2611
 9594TIP3   OH250272   3.767   5.626  12.372 -0.0959 -0.1494 -0.0715
 9594TIP3    H150273   3.834   5.641  12.438 -0.4375  1.2926 -0.0106
 9594TIP3    H250274   3.815   5.617  12.290  0.2487 -0.4763  0.1663
 9595TIP3   OH250275   2.807   2.643   2.776 -0.0993  0.0307  0.3024
 9595TIP3    H150276   2.830   2.598   2.857  1.1554 -0.0149 -0.0523
 9595TIP3    H250277   2.733   2.593   2.741  0.9378 -1.5026  0.1683
 9596TIP3   OH250278   2.524   2.110  13.927 -0.1874  0.2533  0.1762
 9596TIP3    H150279   2.436   2.142  13.908  0.2520  0.0706 -2.6886
 9596TIP3    H250280   2.581   2.185  13.911  0.3239 -0.1424  0.0992
 9597TIP3   OH250281   4.023   5.230   0.584 -0.3037  0.2619  0.0429
 9597TIP3    H150282   3.957   5.273   0.530 -1.9485 -1.7831  0.3005
 9597TIP3    H250283   3.976   5.203   0.663  1.4967  1.0437  1.4522
 9598TIP3   OH250284   5.031   4.812  14.149 -0.2143  0.3879 -0.4304
 9598TIP3    H150285   4.956   4.784  14.201 -0.9870 -0.2543 -1.8451
 9598TIP3    H250286   5.038   4.906  14.165 -0.4968  0.2270  0.7237
 9599TIP3   OH250287   3.038   2.453   6.191  0.1544 -0.1496 -0.1232
 9599TIP3    H150288   3.033   2.358   6.181  2.7908 -0.4767  0.7988
 9599TIP3    H250289   2.972   2.488   6.131 -3.4137 -2.5812  1.9881
 9600TIP3   OH250290   3.281   4.090  15.988 -0.2362 -0.0460  0.5407
 9600TIP3    H150291   3.361   4.115  16.034  0.2027  1.4825 -0.9639
 9600TIP3    H250292   3.216   4.080  16.057  1.1510 -1.0245  1.7665
 9601TIP3   OH250293   2.682   3.988  13.107  0.4269  0.0915 -0.3619
 9601TIP3    H150294   2.718   3.917  13.054  0.6550 -0.5238  0.5864
 9601TIP3    H250295   2.625   4.037  13.047 -0.4442 -1.4143 -0.8246
 9602TIP3   OH250296   2.362   2.954  11.776  0.6556  0.4852  0.1618
 9602TIP3    H150297   2.456   2.974  11.776  0.4637  1.4868  0.7348
 9602TIP3    H250298   2.349   2.903  11.856  0.9960 -1.2972 -0.8552
 9603TIP3   OH250299   0.471   5.196  12.924  0.4357  0.0234 -0.3015
 9603TIP3    H150300   0.401   5.261  12.918  0.4202 -0.0107 -0.4753
 9603TIP3    H250301   0.475   5.156  12.838  0.2464 -0.4162 -0.1127
 9604TIP3   OH250302   6.506   1.304   5.713  0.6510  0.2141 -0.5559
 9604TIP3    H150303   6.525   1.219   5.672  1.6933  0.1511  0.0346
 9604TIP3    H250304   6.556   1.367   5.661  0.4464  0.3762 -0.5546
 9605TIP3   OH250305   2.899   1.275  14.202  0.0685 -0.5371 -0.0161
 9605TIP3    H150306   2.852   1.276  14.286  1.1061 -0.1462  0.5721
 9605TIP3    H250307   2.951   1.195  14.205  0.4760 -0.2750 -0.0772
 9606TIP3   OH250308   4.982   5.640  12.301  0.3225  0.7848  0.6344
 9606TIP3    H150309   4.916   5.641  12.231  1.8579  0.2208 -0.9011
 9606TIP3    H250310   5.054   5.588  12.265  1.2760  0.6689  2.5803
 9607TIP3   OH250311   4.507   0.901   0.398  0.0349  0.2557 -0.1936
 9607TIP3    H150312   4.552   0.830   0.443 -0.5309  0.2514  0.3795
 9607TIP3    H250313   4.577   0.960   0.370  0.5523 -0.7675 -1.1304
 9608TIP3   OH250314   5.486   4.776  15.984  0.4105 -0.3649 -0.1333
 9608TIP3    H150315   5.404   4.801  16.026  0.6710  0.3171 -0.0136
 9608TIP3    H250316   5.554   4.821  16.036  0.9446 -1.7755  0.4385
 9609TIP3   OH250317   1.131   1.061  12.217 -0.7966 -0.0506 -0.2131
 9609TIP3    H150318   1.209   1.007  12.202 -1.6174 -0.9124 -1.5528
 9609TIP3    H250319   1.166   1.149  12.229  0.5548 -0.7814  1.7321
 9610TIP3   OH250320   1.916   1.824   2.537 -0.1759 -0.2881  0.0427
 9610TIP3    H150321   1.914   1.816   2.632  0.4303  1.0431  0.2008
 9610TIP3    H250322   1.840   1.879   2.516 -0.8507 -1.3516 -0.3506
 9611TIP3   OH250323   4.176   4.457  13.497  0.5406  0.1591 -0.2156
 9611TIP3    H150324   4.223   4.454  13.414 -1.2999 -2.9915 -1.3395
 9611TIP3    H250325   4.085   4.477  13.472 -0.1852 -1.5493  0.8596
 9612TIP3   OH250326   3.235   6.560  10.422 -0.2054 -0.2862 -0.5370
 9612TIP3    H150327   3.166   6.612  10.380 -0.6841  0.7876  1.4315
 9612TIP3    H250328   3.194   6.476  10.440 -0.5232 -0.1744 -0.7252
 9613TIP3   OH250329   4.989   2.978  12.532  0.3222 -0.5354  0.4469
 9613TIP3    H150330   4.949   3.055  12.492  0.8688 -0.4570  0.0410
 9613TIP3    H250331   5.061   2.954  12.473 -1.2826 -2.8019 -0.7732
 9614TIP3   OH250332   2.571   1.976  16.240  0.0451 -0.2808 -0.4169
 9614TIP3    H150333   2.617   2.035  16.180 -0.7866  1.3450  0.4781
 9614TIP3    H250334   2.568   1.893  16.193 -0.6909  0.9337 -2.7116
 9615TIP3   OH250335   0.254   4.719  11.536 -0.6161 -0.1271 -0.1906
 9615TIP3    H150336   0.242   4.625  11.523  0.5886 -0.4753  0.9437
 9615TIP3    H250337   0.170   4.749  11.570 -0.3950 -1.2483  1.5186
 9616TIP3   OH250338   0.728   1.069  12.781 -0.6428 -0.0194  0.7651
 9616TIP3    H150339   0.715   0.978  12.754 -1.0571  0.4437 -0.7463
 9616TIP3    H250340   0.704   1.120  12.703  1.1056  1.3196  1.0547
 9617TIP3   OH250341   0.021   3.189   4.260  0.4264  0.3454  0.4978
 9617TIP3    H150342   0.053   3.208   4.348 -0.7379  1.1220  0.7760
 9617TIP3    H250343   0.010   3.094   4.259  1.1948  0.2417  0.9191
 9618TIP3   OH250344   3.828   5.167   5.859 -0.1849 -0.2181  0.5005
 9618TIP3    H150345   3.887   5.128   5.924  0.5393 -0.2644 -0.1697
 9618TIP3    H250346   3.863   5.138   5.775 -1.6159 -0.8751  0.1083
 9619TIP3   OH250347   3.065   0.802  12.427  0.1400  0.0647 -0.0909
 9619TIP3    H150348   3.019   0.788  12.510  0.4567  2.0081  0.4669
 9619TIP3    H250349   3.047   0.893  12.406  2.5528  0.4768 -0.5950
 9620TIP3   OH250350   4.390   0.574  14.041 -0.0067  1.2479 -0.5314
 9620TIP3    H150351   4.409   0.521  13.964  3.8126  3.6688 -1.5413
 9620TIP3    H250352   4.426   0.524  14.114  0.0165  0.7204 -0.8965
 9621TIP3   OH250353   5.094   5.737   2.095 -0.5007 -0.5848 -0.5643
 9621TIP3    H150354   5.131   5.705   2.013 -0.3871  0.3519 -0.9004
 9621TIP3    H250355   5.084   5.832   2.081 -2.0120 -0.6419 -0.0896
 9622TIP3   OH250356   4.730   4.224   0.483  0.4474 -0.1577 -0.2252
 9622TIP3    H150357   4.681   4.244   0.563  0.1690 -1.6973  0.0334
 9622TIP3    H250358   4.822   4.225   0.509  0.3158 -1.7474  0.4302
 9623TIP3   OH250359   6.377   5.610  12.939 -0.0641 -0.4417 -0.3098
 9623TIP3    H150360   6.427   5.639  13.015 -2.9667 -1.4013  2.1658
 9623TIP3    H250361   6.420   5.529  12.911  0.3022 -0.7585  1.1269
 9624TIP3   OH250362   1.680   5.440  11.407 -0.7409 -0.0373  0.1777
 9624TIP3    H150363   1.704   5.381  11.335 -0.0504 -0.4302  0.7131
 9624TIP3    H250364   1.584   5.445  11.402 -0.6462  0.9434 -1.5272
 9625TIP3   OH250365   1.230   5.437   0.316 -0.4154  0.4578  0.3360
 9625TIP3    H150366   1.252   5.447   0.409 -0.9741 -0.3084  0.5612
 9625TIP3    H250367   1.136   5.452   0.312 -0.2569  1.4009 -0.2600
 9626TIP3   OH250368   3.232   1.746   4.357  0.3967  0.1816  0.3258
 9626TIP3    H150369   3.193   1.658   4.360 -1.7979  1.0067 -1.3570
 9626TIP3    H250370   3.181   1.797   4.419 -0.4968  1.0136 -1.0583
 9627TIP3   OH250371   4.760   1.995   3.161 -0.0754  0.5503 -0.1027
 9627TIP3    H150372   4.680   2.008   3.213 -0.6013  0.2374 -0.8063
 9627TIP3    H250373   4.728   1.963   3.076  0.5715  2.9630 -1.3587
 9628TIP3   OH250374   1.568   1.257   0.986  0.5664 -0.1312  0.7495
 9628TIP3    H150375   1.583   1.291   0.898 -1.0585 -0.7473  0.1973
 9628TIP3    H250376   1.653   1.264   1.029  1.2727  0.6576 -0.6956
 9629TIP3   OH250377   5.496   5.268  16.791  0.2650 -0.2993 -0.0324
 9629TIP3    H150378   5.562   5.283  16.723 -0.5432  1.6510 -0.4375
 9629TIP3    H250379   5.416   5.245  16.744  0.2578 -1.2006  0.3909
 9630TIP3   OH250380   6.422   0.510   0.392 -0.0358  0.1802 -0.0044
 9630TIP3    H150381   6.515   0.497   0.406  0.4174  2.3184 -0.5821
 9630TIP3    H250382   6.393   0.434   0.342  1.2924 -0.7056  0.5345
 9631TIP3   OH250383   1.813   6.727  11.814 -0.2062 -0.1459  0.4685
 9631TIP3    H150384   1.760   6.796  11.775 -2.7994 -0.7092  2.6825
 9631TIP3    H250385   1.772   6.646  11.784  1.1388 -0.6980  0.0513
 9632TIP3   OH250386   1.999   2.432   6.106  0.7255 -0.0201 -0.4063
 9632TIP3    H150387   2.005   2.457   6.198  1.5767 -1.6561  0.0119
 9632TIP3    H250388   1.944   2.354   6.105 -1.6682  1.5425 -1.6522
 9633TIP3   OH250389   3.678   5.523  15.224 -0.3358 -0.3468 -0.0071
 9633TIP3    H150390   3.672   5.531  15.129  0.7732  1.7844  0.0358
 9633TIP3    H250391   3.590   5.498  15.252 -1.2100  0.9337 -1.4451
 9634TIP3   OH250392   6.147   0.452   0.605  0.5155 -0.3134 -0.1382
 9634TIP3    H150393   6.105   0.525   0.650  2.1594  0.3775  0.3595
 9634TIP3    H250394   6.104   0.447   0.520 -2.3741 -1.3665  1.2620
 9635TIP3   OH250395   1.689   6.661  16.341  0.0329 -0.0682 -0.8102
 9635TIP3    H150396   1.753   6.595  16.313 -1.4479 -1.7698 -0.3834
 9635TIP3    H250397   1.741   6.726  16.389  1.6382 -0.5717 -1.7927
 9636TIP3   OH250398   5.392   2.439  12.418  0.1058  0.0983  0.5890
 9636TIP3    H150399   5.428   2.496  12.487  2.0986  0.2671 -0.5032
 9636TIP3    H250400   5.452   2.365  12.415 -0.4016 -0.2845 -0.4479
 9637TIP3   OH250401   2.128   5.055   1.614 -0.0022  0.1092  0.1277
 9637TIP3    H150402   2.165   4.969   1.591  0.5885 -0.1874  2.0457
 9637TIP3    H250403   2.059   5.036   1.677  0.9002  1.0941  1.4596
 9638TIP3   OH250404   6.756   0.089  16.041 -0.1152  0.5337  0.2130
 9638TIP3    H150405   6.757  -0.006  16.037  2.5690  0.5122 -0.0072
 9638TIP3    H250406   6.847   0.114  16.054 -0.6271  3.1193 -0.5808
 9639TIP3   OH250407   5.243   4.957  13.974 -0.2076  1.0853 -0.8872
 9639TIP3    H150408   5.230   4.951  13.879  1.5642  1.0903 -1.1735
 9639TIP3    H250409   5.203   4.877  14.009  2.1316 -0.7217 -2.0649
 9640TIP3   OH250410   0.945   4.506   4.175 -0.2201 -0.2574  0.4455
 9640TIP3    H150411   0.914   4.513   4.265  0.7161  0.5044  0.7184
 9640TIP3    H250412   0.985   4.591   4.156  1.4468 -1.0845  0.0284
 9641TIP3   OH250413   4.943   4.927   3.701 -0.5744  0.4679 -0.4979
 9641TIP3    H150414   4.886   4.912   3.625 -1.3591  0.5792  0.0512
 9641TIP3    H250415   4.921   5.016   3.730 -0.6621  0.2362  0.1639
 9642TIP3   OH250416   6.191   0.461   1.560  0.3143 -0.2913  0.3397
 9642TIP3    H150417   6.225   0.372   1.575 -0.3275 -0.4018  1.2333
 9642TIP3    H250418   6.117   0.448   1.501 -0.0375 -0.4079  0.7997
 9643TIP3   OH250419   2.735   0.273   4.954 -0.0063 -0.1067  0.4215
 9643TIP3    H150420   2.787   0.351   4.972 -0.9939  0.5202  0.6805
 9643TIP3    H250421   2.767   0.208   5.017  1.3986 -0.2118 -0.3573
 9644TIP3   OH250422   5.468   3.305   2.129 -0.7773 -0.4670  0.7224
 9644TIP3    H150423   5.441   3.336   2.043 -0.0901 -0.9324  0.3336
 9644TIP3    H250424   5.502   3.217   2.114  0.6892 -0.0208  1.2233
 9645TIP3   OH250425   2.429   6.744  15.041  0.1134 -0.5247 -0.2341
 9645TIP3    H150426   2.434   6.793  14.959  0.7607 -1.6589 -0.9165
 9645TIP3    H250427   2.484   6.793  15.102  0.7592 -0.3942 -0.9006
 9646TIP3   OH250428   4.436   5.305  13.426 -0.6287 -0.5465 -0.7736
 9646TIP3    H150429   4.530   5.323  13.438 -0.3711 -2.2548  0.1178
 9646TIP3    H250430   4.430   5.210  13.430 -2.3994 -0.4649 -0.9639
 9647TIP3   OH250431   4.168   5.573  13.105  0.4722 -0.2845  0.1156
 9647TIP3    H150432   4.209   5.542  13.186 -0.7427 -0.4412  0.6956
 9647TIP3    H250433   4.203   5.661  13.093  0.9631 -0.4068  0.5941
 9648TIP3   OH250434   3.528   4.967  16.077  0.0550  0.0827  0.1813
 9648TIP3    H150435   3.506   5.013  15.996 -0.2995  1.4144  0.9994
 9648TIP3    H250436   3.621   4.946  16.067  0.9729  3.2666  0.7501
 9649TIP3   OH250437   2.032   5.563  15.531  0.0421  0.4014  0.5518
 9649TIP3    H150438   2.106   5.589  15.476  0.6161  0.3234  1.2790
 9649TIP3    H250439   1.960   5.549  15.469  0.1962  1.9805 -0.0221
 9650TIP3   OH250440   3.346   0.897   3.988 -1.1128  0.1655 -0.5195
 9650TIP3    H150441   3.256   0.891   3.957 -0.3172 -3.0534 -2.6151
 9650TIP3    H250442   3.353   0.829   4.055 -0.3565  0.7377  0.0006
 9651TIP3   OH250443   5.323   3.058  12.863  0.0402  0.1963  0.0329
 9651TIP3    H150444   5.390   3.082  12.799 -0.3322  1.7133  0.1644
 9651TIP3    H250445   5.283   3.141  12.888  0.2031 -0.3229  2.2856
 9652TIP3   OH250446   4.078   5.751   6.041 -0.2165  0.0014  0.8103
 9652TIP3    H150447   4.040   5.827   6.086 -0.6757  0.9245 -1.0253
 9652TIP3    H250448   4.110   5.695   6.111  1.0882  2.3605  2.2300
 9653TIP3   OH250449   1.919   6.411  14.377 -0.0183 -0.2897  0.0295
 9653TIP3    H150450   1.900   6.369  14.293  1.7146  0.5336 -0.8255
 9653TIP3    H250451   1.835   6.411  14.423 -1.6062  1.2711 -2.6054
 9654TIP3   OH250452   1.895   4.982   0.563  0.2479 -0.2212  0.2865
 9654TIP3    H150453   1.891   4.910   0.500  2.3229 -0.0144 -0.1208
 9654TIP3    H250454   1.923   5.058   0.512  2.1053 -0.0808  1.4554
 9655TIP3   OH250455   4.108   4.356   4.943  0.6190  0.3552 -0.4824
 9655TIP3    H150456   4.099   4.414   4.868  0.6978  2.0650  0.7633
 9655TIP3    H250457   4.048   4.284   4.925 -4.0128  3.5577  0.3659
 9656TIP3   OH250458   1.228   3.157   5.916 -0.3457  0.3890  0.0872
 9656TIP3    H150459   1.250   3.245   5.943 -1.2680  0.6984 -0.1162
 9656TIP3    H250460   1.277   3.143   5.835 -1.5286  1.3790 -0.8333
 9657TIP3   OH250461   5.154   6.549  16.434 -0.2334  0.6499  0.7601
 9657TIP3    H150462   5.122   6.596  16.357 -1.3830 -0.8833  0.2254
 9657TIP3    H250463   5.172   6.460  16.401 -1.5700 -0.2845  2.3861
 9658TIP3   OH250464   4.780   2.133  10.495  0.4168 -0.1631 -0.6034
 9658TIP3    H150465   4.746   2.069  10.432  1.1560 -0.7657 -0.4042
 9658TIP3    H250466   4.839   2.189  10.444 -0.1506  0.3035 -0.7564
 9659TIP3   OH250467   5.703   4.475   3.851  0.1046  0.3653  0.4981
 9659TIP3    H150468   5.626   4.433   3.889  1.0382 -0.4348  1.5681
 9659TIP3    H250469   5.673   4.507   3.766 -2.0188  2.0846  1.7897
 9660TIP3   OH250470   2.625   5.514   4.595 -0.0672  0.1651  0.6146
 9660TIP3    H150471   2.638   5.507   4.501 -0.6785 -1.1678  0.6102
 9660TIP3    H250472   2.599   5.605   4.609  2.6243  1.1503 -0.1492
 9661TIP3   OH250473   3.850   6.510   5.899 -0.0256 -0.3580 -0.4883
 9661TIP3    H150474   3.904   6.517   5.820 -0.3137 -0.8801 -0.7354
 9661TIP3    H250475   3.797   6.590   5.899  0.0713 -0.2934 -0.7547
 9662TIP3   OH250476   1.954   2.668   1.334  0.5600 -0.4180 -0.0113
 9662TIP3    H150477   2.000   2.748   1.309  0.0163  0.7721  2.4619
 9662TIP3    H250478   2.022   2.610   1.368  0.7329 -0.3022 -0.1606
 9663TIP3   OH250479   0.956   2.476   0.180  0.6793 -0.0272 -0.2995
 9663TIP3    H150480   0.994   2.389   0.175  0.8271  0.0932 -2.6922
 9663TIP3    H250481   0.999   2.524   0.108 -1.9272  0.9355 -1.3299
 9664TIP3   OH250482   5.574   1.505  14.711  0.4002 -0.0032  0.0294
 9664TIP3    H150483   5.603   1.414  14.713  0.4899 -0.0286 -1.4440
 9664TIP3    H250484   5.650   1.555  14.683 -0.2772  0.2169 -1.5221
 9665TIP3   OH250485   3.592   0.251   1.249  0.3085 -0.0053 -0.3892
 9665TIP3    H150486   3.564   0.162   1.272 -0.7372 -0.3715 -2.7497
 9665TIP3    H250487   3.524   0.308   1.286  0.5956 -0.2351  0.5077
 9666TIP3   OH250488   1.327   0.459  13.551 -0.8492 -0.5424  0.3998
 9666TIP3    H150489   1.265   0.441  13.621 -1.3529  0.1523  0.1462
 9666TIP3    H250490   1.292   0.537  13.508  0.7508  0.4931  0.8965
 9667TIP3   OH250491   4.572   3.389   3.785  0.1166  0.1096 -0.1510
 9667TIP3    H150492   4.528   3.433   3.857 -0.4521 -0.6664 -0.0085
 9667TIP3    H250493   4.505   3.332   3.747  1.3097 -2.0849  0.8687
 9668TIP3   OH250494   1.012   4.772  15.914 -0.4744 -0.5421 -0.8390
 9668TIP3    H150495   0.954   4.815  15.976 -0.2567 -2.1885  0.5856
 9668TIP3    H250496   1.008   4.827  15.835 -0.6597  1.6970  0.6304
 9669TIP3   OH250497   5.020   4.044  11.704 -0.2404  0.8085  0.3578
 9669TIP3    H150498   5.098   4.069  11.655 -1.1952 -0.5147 -1.9751
 9669TIP3    H250499   5.036   3.953  11.729 -0.6027  0.8702  0.8223
 9670TIP3   OH250500   6.015   2.008   3.905  0.0244  0.0115  0.5795
 9670TIP3    H150501   6.025   2.070   3.833 -0.7015 -0.7277 -0.1910
 9670TIP3    H250502   5.944   2.044   3.958 -2.9016 -1.7834 -1.7802
 9671TIP3   OH250503   2.636   1.042   1.394  0.1353  0.4853  0.3074
 9671TIP3    H150504   2.617   1.048   1.300  0.5094  1.2234  0.2679
 9671TIP3    H250505   2.664   1.130   1.418  0.0136  0.3101  1.1231
 9672TIP3   OH250506   5.844   6.318   4.618  0.2312  0.0126  0.3669
 9672TIP3    H150507   5.816   6.229   4.595  0.6640 -0.1072  0.3068
 9672TIP3    H250508   5.822   6.371   4.542  0.1832 -0.0868  0.3116
 9673TIP3   OH250509   1.211   4.936  13.688  0.2546  0.4114  0.6434
 9673TIP3    H150510   1.210   4.949  13.783 -0.7332 -0.6128  0.7906
 9673TIP3    H250511   1.302   4.915  13.667 -0.1027 -2.8732  1.9083
 9674TIP3   OH250512   0.127   2.620   5.474  0.5269 -0.3255 -0.1711
 9674TIP3    H150513   0.114   2.689   5.409 -1.0891 -0.5691 -0.1395
 9674TIP3    H250514   0.115   2.539   5.426 -0.2091 -0.5192  0.3328
 9675TIP3   OH250515   1.791   0.947  17.076 -0.1756 -0.2560 -0.1602
 9675TIP3    H150516   1.780   0.919  16.986  2.2992 -0.3889 -0.4835
 9675TIP3    H250517   1.883   0.928  17.097 -0.2682  1.1488  1.8918
 9676TIP3   OH250518   5.894   2.001  13.953  0.4629 -0.5419  0.2511
 9676TIP3    H150519   5.985   2.030  13.958  0.5594 -0.0250 -2.7449
 9676TIP3    H250520   5.850   2.047  14.026  2.3731 -0.0661  1.1713
 9677TIP3   OH250521   3.805   6.119   2.672  0.1816 -0.4589 -0.2462
 9677TIP3    H150522   3.813   6.208   2.638  1.0871 -0.5177 -0.2121
 9677TIP3    H250523   3.758   6.130   2.755 -2.4465 -0.3653 -1.6419
 9678TIP3   OH250524   2.203   5.412  16.834 -0.1534  0.2685 -0.6519
 9678TIP3    H150525   2.248   5.466  16.899  1.0742 -0.5975 -0.7554
 9678TIP3    H250526   2.110   5.432  16.847 -0.2132 -1.5399  2.9600
 9679TIP3   OH250527   0.406   5.532  11.127  0.0142 -0.1797  0.2294
 9679TIP3    H150528   0.372   5.459  11.075 -1.6210 -0.3542  1.4415
 9679TIP3    H250529   0.332   5.593  11.134  1.1960  1.3764 -0.3216
 9680TIP3   OH250530   3.429   5.993   4.054  1.0004 -0.0617 -0.0157
 9680TIP3    H150531   3.389   5.906   4.065 -2.0775  1.3953  1.4549
 9680TIP3    H250532   3.520   5.980   4.079  0.7083 -2.9201 -0.0803
 9681TIP3   OH250533   6.560   1.516   1.918  0.0931 -0.3023  0.0874
 9681TIP3    H150534   6.561   1.607   1.950 -1.0385 -0.0070 -0.6442
 9681TIP3    H250535   6.499   1.518   1.844  2.4026 -1.0283 -1.9445
 9682TIP3   OH250536   3.902   2.796   3.387 -0.6637  0.3390 -0.0289
 9682TIP3    H150537   3.910   2.812   3.481 -0.9329 -0.3451  0.1131
 9682TIP3    H250538   3.946   2.871   3.346  0.5301  0.0316  0.6528
 9683TIP3   OH250539   4.840   5.872   4.638 -0.3325 -0.1578  0.1824
 9683TIP3    H150540   4.831   5.886   4.544 -0.8281 -1.0349  0.0855
 9683TIP3    H250541   4.786   5.795   4.656  0.6239 -0.6524  1.0130
 9684TIP3   OH250542   3.356   3.290  16.206  0.5199 -0.6730 -0.2471
 9684TIP3    H150543   3.368   3.269  16.299  0.7460 -3.4887 -0.8287
 9684TIP3    H250544   3.436   3.335  16.180  0.0961  0.9328  1.0742
 9685TIP3   OH250545   3.028   3.355   5.233  0.2275  0.9982 -0.3145
 9685TIP3    H150546   3.018   3.317   5.146  0.0558  0.3157 -0.0047
 9685TIP3    H250547   3.114   3.324   5.262 -0.4194 -0.1583  0.4190
 9686TIP3   OH250548   2.118   2.001  12.163  0.2029 -0.3787 -0.0939
 9686TIP3    H150549   2.164   1.970  12.085  0.8339  0.1682  0.0404
 9686TIP3    H250550   2.044   1.942  12.173 -1.3587  0.9507 -2.5295
 9687TIP3   OH250551   4.115   1.184  15.157 -0.1889  0.1732  0.0496
 9687TIP3    H150552   4.063   1.232  15.221  0.4002 -0.0319  0.6954
 9687TIP3    H250553   4.051   1.151  15.094 -0.5146  2.8399 -1.1668
 9688TIP3   OH250554   3.302   1.035   6.148  1.2270  0.2531  0.2655
 9688TIP3    H150555   3.315   0.959   6.205 -1.0994 -0.1290  0.3999
 9688TIP3    H250556   3.239   1.089   6.195  1.0164  1.0640 -0.9269
 9689TIP3   OH250557   3.879   0.761  10.735  0.6730 -0.5767 -0.2974
 9689TIP3    H150558   3.883   0.829  10.803 -1.0275 -0.2705 -0.4762
 9689TIP3    H250559   3.962   0.713  10.745  1.8610  1.3912 -0.0570
 9690TIP3   OH250560   1.484   5.231  15.319  0.1788  0.3666 -0.5490
 9690TIP3    H150561   1.425   5.241  15.394 -0.1420 -0.9301 -0.6107
 9690TIP3    H250562   1.426   5.207  15.246  0.4943  1.5084 -1.2052
 9691TIP3   OH250563   4.176   3.834  11.254  0.3064 -0.2494 -0.1243
 9691TIP3    H150564   4.105   3.843  11.190  1.0748  0.9428 -0.8417
 9691TIP3    H250565   4.180   3.918  11.298  0.2379 -0.8409  1.0494
 9692TIP3   OH250566   1.180   4.291  11.902  0.2159  0.0999 -0.7784
 9692TIP3    H150567   1.250   4.226  11.900  2.8627  2.4335  2.7122
 9692TIP3    H250568   1.201   4.350  11.830  1.2329  0.1448 -0.4712
 9693TIP3   OH250569   0.841   5.810   1.997 -0.0160 -0.6323  0.3473
 9693TIP3    H150570   0.748   5.814   1.971 -0.2994 -0.5391  1.3596
 9693TIP3    H250571   0.843   5.748   2.070  0.8160 -1.0579 -0.0164
 9694TIP3   OH250572   0.835   1.393  12.838 -0.0120  0.0385  0.4869
 9694TIP3    H150573   0.805   1.338  12.911  0.8530 -1.1355 -0.0148
 9694TIP3    H250574   0.869   1.331  12.774  1.3452  1.1869  0.0591
 9695TIP3   OH250575   2.163   1.963   3.146 -0.3776  0.1102 -0.2860
 9695TIP3    H150576   2.179   2.008   3.228 -1.3025  1.2652 -0.7062
 9695TIP3    H250577   2.152   1.871   3.171 -0.0658  0.3566  0.8015
 9696TIP3   OH250578   4.079   2.379  12.138  0.7086  0.4082 -0.0420
 9696TIP3    H150579   4.142   2.348  12.203  0.4564  1.0480  0.5112
 9696TIP3    H250580   4.080   2.474  12.147 -1.8433  0.3796  1.3976
 9697TIP3   OH250581   5.646   0.848   6.420 -0.5268 -0.3936 -0.1437
 9697TIP3    H150582   5.633   0.914   6.353 -2.0244 -0.6614 -0.1462
 9697TIP3    H250583   5.736   0.862   6.450 -0.5927  1.2124 -0.5904
 9698TIP3   OH250584   0.372   1.464   5.485  0.0712  0.2900 -0.0532
 9698TIP3    H150585   0.331   1.463   5.399 -0.4354 -1.3039  0.1665
 9698TIP3    H250586   0.341   1.383   5.527 -1.0264  1.7628  2.2350
 9699TIP3   OH250587   1.130   1.262  14.103  0.5401 -0.5476 -0.4294
 9699TIP3    H150588   1.048   1.244  14.056 -0.8790 -0.3572  1.8178
 9699TIP3    H250589   1.130   1.357  14.116 -0.1199 -0.7723  1.5701
 9700TIP3   OH250590   4.081   5.043   2.984 -0.5132 -0.2387  0.2505
 9700TIP3    H150591   4.021   5.005   3.049  0.7781 -0.9597  1.0564
 9700TIP3    H250592   4.091   4.974   2.918 -1.1884  0.1916 -0.3196
 9701TIP3   OH250593   0.831   4.654   5.377  0.3927  0.3183 -0.0927
 9701TIP3    H150594   0.905   4.620   5.327  0.2190  0.4397 -0.4390
 9701TIP3    H250595   0.754   4.616   5.335  0.2977 -0.7812  1.0191
 9702TIP3   OH250596   5.415   4.400   5.936 -0.0190 -0.9528 -0.0396
 9702TIP3    H150597   5.354   4.421   5.866  1.8789  0.2423 -1.4614
 9702TIP3    H250598   5.391   4.312   5.965 -1.3732 -1.1452 -1.6268
 9703TIP3   OH250599   1.747   5.792   5.127 -0.5230  0.2220 -0.1864
 9703TIP3    H150600   1.806   5.765   5.057  1.0677  3.6483 -0.3978
 9703TIP3    H250601   1.690   5.858   5.087 -1.5941  0.1387  1.0885
 9704TIP3   OH250602   3.518   0.856   3.367  0.2676  0.2026 -0.1411
 9704TIP3    H150603   3.509   0.871   3.461 -1.3895  4.2091 -0.7493
 9704TIP3    H250604   3.475   0.771   3.353 -0.3784 -0.0210  2.5690
 9705TIP3   OH250605   3.630   2.299  16.103 -0.4299  0.0185 -0.3416
 9705TIP3    H150606   3.602   2.387  16.131  0.7015  0.1568  0.4109
 9705TIP3    H250607   3.682   2.266  16.176  2.3771  0.2631 -2.0803
 9706TIP3   OH250608   3.464   4.383   6.307  0.3832 -0.1361  0.4328
 9706TIP3    H150609   3.505   4.339   6.381  0.3157  1.7223  1.6506
 9706TIP3    H250610   3.379   4.411   6.340 -0.2597 -0.5180 -0.8257
 9707TIP3   OH250611   2.211   0.890   1.011  0.1748 -0.0477  0.0450
 9707TIP3    H150612   2.206   0.829   0.937 -0.3620 -0.6670  0.5784
 9707TIP3    H250613   2.122   0.923   1.020 -0.4371 -2.0027  2.0617
 9708TIP3   OH250614   5.790   6.570   6.210 -0.5243  0.2635 -0.3181
 9708TIP3    H150615   5.706   6.523   6.212 -0.0854 -0.7041 -2.1463
 9708TIP3    H250616   5.828   6.553   6.296 -1.1674 -1.3133 -0.2971
 9709TIP3   OH250617   6.048   0.163  11.774 -0.4524  0.3546 -0.5703
 9709TIP3    H150618   6.007   0.212  11.703 -2.1938  0.5219  0.4664
 9709TIP3    H250619   6.112   0.224  11.812 -1.2124  1.1459 -0.5185
 9710TIP3   OH250620   2.304   5.025   4.695  0.1889  1.0878 -0.2535
 9710TIP3    H150621   2.336   4.941   4.728 -1.0041  0.7457  0.0927
 9710TIP3    H250622   2.350   5.038   4.612  0.5267  0.1851 -0.2136
 9711TIP3   OH250623   5.284   5.902  14.188  0.5189 -0.2053 -0.3065
 9711TIP3    H150624   5.290   5.875  14.280  0.7197  2.1510  0.4255
 9711TIP3    H250625   5.244   5.989  14.191  0.5668 -0.0556 -2.4664
 9712TIP3   OH250626   3.591   3.185   3.102 -0.0085  0.0009  0.5440
 9712TIP3    H150627   3.621   3.121   3.039 -1.4159  0.3031 -0.4836
 9712TIP3    H250628   3.643   3.263   3.085  0.0360 -0.1100  0.1791
 9713TIP3   OH250629   1.916   3.157   3.571 -0.1637 -0.5119 -0.2753
 9713TIP3    H150630   1.865   3.217   3.515  0.6594  2.3422  1.7825
 9713TIP3    H250631   1.973   3.111   3.510 -0.3181  1.3735 -1.9708
 9714TIP3   OH250632   2.843   1.146   3.991 -0.0197  0.1541  0.4565
 9714TIP3    H150633   2.850   1.145   4.086  0.7340 -0.6515  0.4067
 9714TIP3    H250634   2.918   1.197   3.961 -0.2424  0.3876  0.2968
 9715TIP3   OH250635   1.036   3.646   4.536  0.8367  0.3761  0.4334
 9715TIP3    H150636   1.125   3.653   4.500  0.4820 -1.2759 -0.8945
 9715TIP3    H250637   0.979   3.664   4.462  0.0573  0.6018  1.0808
 9716TIP3   OH250638   6.655   5.550  16.287  0.1873  0.4848  0.0021
 9716TIP3    H150639   6.614   5.476  16.331  1.6317  0.2208  0.9784
 9716TIP3    H250640   6.670   5.520  16.198  0.9855 -0.5180  0.4534
 9717TIP3   OH250641   3.846   1.042  16.437 -0.1823 -0.5971  0.0850
 9717TIP3    H150642   3.849   1.109  16.369 -2.1568 -1.2658 -0.7404
 9717TIP3    H250643   3.937   1.012  16.445  0.1282 -0.5109 -2.3008
 9718TIP3   OH250644   5.340   5.432   0.423  0.2401 -0.0659 -0.0126
 9718TIP3    H150645   5.245   5.421   0.420 -0.0294  1.8309  0.4094
 9718TIP3    H250646   5.360   5.491   0.351  1.1242 -0.4870 -0.1278
 9719TIP3   OH250647   4.035   2.808   0.327  0.3593  0.7791 -0.5058
 9719TIP3    H150648   4.079   2.893   0.332  0.2735  1.3380 -4.9458
 9719TIP3    H250649   3.945   2.829   0.304 -0.3950 -0.5231  1.0774
 9720TIP3   OH250650   4.224   1.946  12.841  0.4877  0.5195 -0.7428
 9720TIP3    H150651   4.271   1.910  12.766  0.1244  1.1678 -1.2909
 9720TIP3    H250652   4.263   2.033  12.854 -0.2608  0.8912 -0.9357
 9721TIP3   OH250653   6.247   3.808   3.996  0.2465 -0.3188 -0.3527
 9721TIP3    H150654   6.223   3.721   3.966  0.4741 -0.7425  0.6863
 9721TIP3    H250655   6.283   3.851   3.918 -2.4714 -0.1301 -1.6317
 9722TIP3   OH250656   3.660   4.738   2.126 -0.0439 -0.7521  0.2100
 9722TIP3    H150657   3.706   4.660   2.155  0.4794 -0.6783 -0.3916
 9722TIP3    H250658   3.714   4.811   2.156  0.8318 -0.6799 -1.4015
 9723TIP3   OH250659   4.156   1.443   1.576 -0.3371  0.2855 -0.2287
 9723TIP3    H150660   4.236   1.469   1.530 -0.8662  1.0429 -0.7695
 9723TIP3    H250661   4.085   1.468   1.515 -1.0546  1.1479  0.9086
 9724TIP3   OH250662   2.321   4.538   2.113 -0.4860  0.1812  0.4591
 9724TIP3    H150663   2.401   4.515   2.065 -0.1524  3.7823 -1.0792
 9724TIP3    H250664   2.251   4.498   2.062 -0.0165  2.6425 -2.4029
 9725TIP3   OH250665   1.021   3.625  13.018  0.2644 -0.1451  0.0294
 9725TIP3    H150666   0.942   3.590  12.976  0.9724 -0.7566 -0.8308
 9725TIP3    H250667   0.996   3.634  13.110 -0.0581 -2.7323  0.2719
 9726TIP3   OH250668   6.673   1.554   6.407 -0.0328  0.1054  0.1698
 9726TIP3    H150669   6.742   1.544   6.341 -1.1243 -0.9473 -0.8705
 9726TIP3    H250670   6.649   1.646   6.404  1.1255  0.4292  0.3591
 9727TIP3   OH250671   0.372   2.396  12.524 -0.4865  0.2543  0.1572
 9727TIP3    H150672   0.347   2.333  12.592 -1.4967 -1.3098 -1.5780
 9727TIP3    H250673   0.408   2.342  12.454  1.9844  1.9509 -0.0078
 9728TIP3   OH250674   4.443   4.464   5.142 -0.0715  0.7872 -0.2009
 9728TIP3    H150675   4.460   4.374   5.113 -2.2506  0.2464 -0.0004
 9728TIP3    H250676   4.367   4.457   5.200  0.1791  2.6820  0.4472
 9729TIP3   OH250677   2.808   5.662   1.386 -0.3531  0.1717 -0.2759
 9729TIP3    H150678   2.821   5.588   1.327  1.3311 -0.1152  0.4114
 9729TIP3    H250679   2.895   5.701   1.396 -0.9076  1.2212  0.6970
 9730TIP3   OH250680   0.702   4.130  13.744 -0.1706  0.1763  0.0494
 9730TIP3    H150681   0.657   4.195  13.797 -2.0666 -1.1164  0.1429
 9730TIP3    H250682   0.698   4.165  13.655  0.4255  1.0047  0.3439
 9731TIP3   OH250683   6.495   4.214  12.177 -0.1699 -0.2347  0.2722
 9731TIP3    H150684   6.528   4.257  12.098  1.2573 -1.7963 -0.0595
 9731TIP3    H250685   6.482   4.123  12.150  0.1002 -0.7354  1.7596
 9732TIP3   OH250686   5.387   1.880   3.145  0.2386 -0.2013  0.0758
 9732TIP3    H150687   5.454   1.817   3.172 -1.0019 -2.4571 -1.7125
 9732TIP3    H250688   5.324   1.827   3.097 -2.5976  1.9055  1.2313
 9733TIP3   OH250689   5.879   3.470   3.394 -0.1713  0.0329  0.2550
 9733TIP3    H150690   5.798   3.429   3.364  0.1727 -0.8233  0.4708
 9733TIP3    H250691   5.866   3.485   3.487 -0.1106 -0.0481  0.2772
 9734TIP3   OH250692   2.601   5.834  15.047 -0.1933 -0.2658  0.6033
 9734TIP3    H150693   2.571   5.925  15.045 -2.3270 -0.9175 -0.3849
 9734TIP3    H250694   2.617   5.815  15.140  1.7709  1.5169  0.6866
 9735TIP3   OH250695   2.172   4.146   5.993  0.2346  0.3749 -0.1410
 9735TIP3    H150696   2.096   4.189   5.952  0.6445  1.3879  0.1254
 9735TIP3    H250697   2.151   4.146   6.086  1.6635  3.1234  0.3003
 9736TIP3   OH250698   6.125   6.014   3.112  0.6749  0.0761 -0.1569
 9736TIP3    H150699   6.120   5.942   3.174  0.1438  0.4388  0.2327
 9736TIP3    H250700   6.053   6.072   3.137  0.1627  0.0055 -1.3950
 9737TIP3   OH250701   1.141   0.950  12.843  0.1402  0.2707 -0.1544
 9737TIP3    H150702   1.171   0.971  12.755 -0.6028 -0.5736 -0.6292
 9737TIP3    H250703   1.081   0.876  12.831  0.0412  0.1297  1.0601
 9738TIP3   OH250704   4.777   4.215   6.396  0.1786  0.0272 -0.0213
 9738TIP3    H150705   4.697   4.167   6.419  0.6050 -0.8992 -0.4225
 9738TIP3    H250706   4.759   4.305   6.422 -0.6212 -0.3557  0.8139
 9739TIP3   OH250707   6.201   0.182  16.271 -0.6120  0.0472 -0.0241
 9739TIP3    H150708   6.242   0.100  16.298  0.7504  0.1173 -1.6812
 9739TIP3    H250709   6.111   0.176  16.303 -1.1899 -3.0042 -1.8103
 9740TIP3   OH250710   2.884   0.723   0.967 -0.0154 -0.3609  0.1045
 9740TIP3    H150711   2.838   0.640   0.956  0.9522 -0.7931 -0.7632
 9740TIP3    H250712   2.940   0.730   0.890 -1.3723  1.9560 -0.7596
 9741TIP3   OH250713   6.587   0.540  11.262 -0.1428  0.0926 -0.3491
 9741TIP3    H150714   6.545   0.501  11.185 -1.1202 -2.0828  1.1822
 9741TIP3    H250715   6.521   0.533  11.331  1.5858 -0.4577  1.3286
 9742TIP3   OH250716   6.477   2.605  11.091  0.2231 -0.1408 -0.1822
 9742TIP3    H150717   6.472   2.673  11.024  0.3891 -0.3075 -0.3659
 9742TIP3    H250718   6.496   2.525  11.042 -0.4175 -0.3986 -0.0186
 9743TIP3   OH250719   4.889   5.919  16.141  0.2956 -0.1181  0.0915
 9743TIP3    H150720   4.956   5.960  16.195  1.6985 -1.3996 -0.6034
 9743TIP3    H250721   4.859   5.990  16.083 -0.1192  0.8645  1.4546
 9744TIP3   OH250722   0.539   4.100  11.610  1.1634 -0.0884  0.9670
 9744TIP3    H150723   0.499   4.146  11.536  0.3354 -0.5281  1.1313
 9744TIP3    H250724   0.483   4.024  11.624  2.0973 -0.7565  1.1686
 9745TIP3   OH250725   3.281   4.612   1.431  0.0199  0.4122  0.0400
 9745TIP3    H150726   3.279   4.613   1.335  0.0818 -1.8028 -0.0300
 9745TIP3    H250727   3.363   4.656   1.454  0.3569  0.3230 -0.9468
 9746TIP3   OH250728   4.018   0.792  12.143 -0.4504 -0.0198  0.6708
 9746TIP3    H150729   4.039   0.825  12.230  0.2710  0.3507  0.3614
 9746TIP3    H250730   4.103   0.769  12.104 -0.4000  2.6671 -1.0914
 9747TIP3   OH250731   4.772   6.417  13.483  0.4654 -0.1517 -0.1145
 9747TIP3    H150732   4.732   6.343  13.438  0.5091  0.2223 -0.7841
 9747TIP3    H250733   4.737   6.494  13.437  1.2699  0.2050 -0.1415
 9748TIP3   OH250734   3.271   5.947  15.003 -0.1865 -0.1924  0.0282
 9748TIP3    H150735   3.361   5.933  14.975 -0.1530  1.3283 -0.7591
 9748TIP3    H250736   3.277   6.011  15.074 -0.6153 -0.3618  0.2196
 9749TIP3   OH250737   6.145   1.469  14.275 -0.0305 -0.2455 -0.2459
 9749TIP3    H150738   6.155   1.470  14.371  0.0541 -0.3486 -0.2528
 9749TIP3    H250739   6.226   1.429  14.244 -0.3713 -0.8944 -0.3182
 9750TIP3   OH250740   1.931   6.706  12.955  0.1646  0.6690  0.0160
 9750TIP3    H150741   1.971   6.762  13.023 -1.4693  0.8363  0.8938
 9750TIP3    H250742   1.932   6.618  12.993  1.6487  0.2666 -0.8759
 9751TIP3   OH250743   6.607   0.135   1.110 -0.2876 -0.6577 -0.0501
 9751TIP3    H150744   6.651   0.218   1.126 -1.0456  0.0407 -1.4408
 9751TIP3    H250745   6.592   0.133   1.015  2.1999 -3.6336 -0.5470
 9752TIP3   OH250746   2.629   6.804  12.847 -0.5400  0.1658  0.1629
 9752TIP3    H150747   2.587   6.719  12.862 -1.2796  0.6162  0.7253
 9752TIP3    H250748   2.694   6.811  12.916 -0.5159  0.0860  0.1488
 9753TIP3   OH250749   5.204   5.039   0.994 -0.6716 -0.3402 -0.0787
 9753TIP3    H150750   5.118   5.021   1.034 -0.3065 -1.5952  0.1995
 9753TIP3    H250751   5.267   5.000   1.054  0.2701  2.0922  0.6334
 9754TIP3   OH250752   1.016   6.232  14.089 -0.6484  0.1361  0.0643
 9754TIP3    H150753   0.989   6.190  14.007 -0.3219  0.8189 -0.4108
 9754TIP3    H250754   0.962   6.192  14.156 -0.3163 -1.0757 -0.3583
 9755TIP3   OH250755   1.239   3.530   5.046 -0.0112 -0.7243 -0.0429
 9755TIP3    H150756   1.185   3.451   5.043 -0.1306 -0.7611  1.8339
 9755TIP3    H250757   1.242   3.553   5.139 -0.9656  2.1880 -0.6371
 9756TIP3   OH250758   6.081   0.512   3.809  0.0393 -0.2126  0.7501
 9756TIP3    H150759   6.085   0.508   3.904  1.8516  0.9844  0.7604
 9756TIP3    H250760   6.163   0.553   3.782 -0.8656  0.4390 -1.2764
 9757TIP3   OH250761   4.273   6.359   4.873  0.2036 -0.4271 -0.0626
 9757TIP3    H150762   4.352   6.313   4.902  1.4742  0.7696 -1.4088
 9757TIP3    H250763   4.251   6.318   4.789 -0.8370 -0.9772  0.4612
 9758TIP3   OH250764   3.588   2.049   1.222 -0.4990 -0.1991 -0.0785
 9758TIP3    H150765   3.579   1.959   1.190  1.2492 -0.8053  0.9865
 9758TIP3    H250766   3.606   2.040   1.315  1.5295  1.1246 -0.2740
 9759TIP3   OH250767   5.266   1.227   2.683  0.1278  0.4728  0.1767
 9759TIP3    H150768   5.337   1.254   2.742 -1.0557  1.4318  1.2139
 9759TIP3    H250769   5.191   1.214   2.741 -0.5124 -0.7402 -0.8801
 9760TIP3   OH250770   6.664   3.361  16.333 -0.4361  0.9769  0.3385
 9760TIP3    H150771   6.735   3.425  16.343 -0.3576  0.7287  1.4756
 9760TIP3    H250772   6.587   3.405  16.367 -0.4683  0.6196  0.7309
 9761TIP3   OH250773   2.416   1.718   0.753  0.1726  0.1079 -0.1090
 9761TIP3    H150774   2.469   1.702   0.675 -0.5526  1.1893 -0.8516
 9761TIP3    H250775   2.475   1.700   0.826  0.6499 -1.6872 -0.8613
 9762TIP3   OH250776   2.011   5.191   0.043 -0.2576 -0.0288  0.5418
 9762TIP3    H150777   1.965   5.249   0.103  0.8375  2.2023 -0.6469
 9762TIP3    H250778   1.944   5.129   0.013 -2.0473  1.9532  0.2408
 9763TIP3   OH250779   6.166   2.865   3.356 -0.0279 -0.2790  0.4545
 9763TIP3    H150780   6.231   2.795   3.356 -0.3239 -0.5582  1.0275
 9763TIP3    H250781   6.172   2.904   3.443 -1.5357 -1.1760  1.0037
 9764TIP3   OH250782   1.666   1.531   3.382 -0.0239  0.3424 -0.2303
 9764TIP3    H150783   1.715   1.449   3.375 -1.6527 -0.7841  0.6527
 9764TIP3    H250784   1.649   1.541   3.476  0.1865  1.7349 -0.3200
 9765TIP3   OH250785   6.092   4.191   3.485  0.0184 -0.3435 -0.1416
 9765TIP3    H150786   6.019   4.141   3.522 -0.3404  0.0007 -0.3742
 9765TIP3    H250787   6.070   4.200   3.392 -0.7424  1.6116  0.1725
 9766TIP3   OH250788   3.511   2.670  14.939 -0.0405 -0.0456 -0.4355
 9766TIP3    H150789   3.523   2.758  14.904 -1.4035 -0.1357 -1.2111
 9766TIP3    H250790   3.570   2.615  14.888 -0.1868  0.2222 -0.9018
 9767TIP3   OH250791   5.390   5.182  11.651  0.0368  0.7687  0.3951
 9767TIP3    H150792   5.337   5.248  11.696 -2.8872 -0.7925 -0.4553
 9767TIP3    H250793   5.378   5.202  11.558 -1.5599 -1.2544  0.0809
 9768TIP3   OH250794   6.637   6.547   4.603 -0.1696 -0.4808  0.0823
 9768TIP3    H150795   6.653   6.543   4.509 -1.3766  1.0957 -0.2467
 9768TIP3    H250796   6.634   6.456   4.631  0.1453 -0.9847 -1.4097
 9769TIP3   OH250797   0.109   2.638   1.853 -0.0506  0.2288 -0.0867
 9769TIP3    H150798   0.141   2.719   1.814  0.0309  1.0379  1.5675
 9769TIP3    H250799   0.134   2.569   1.791  1.0722  1.3234 -0.8843
 9770TIP3   OH250800   6.757   3.994   5.374  0.0434  0.1748  0.2928
 9770TIP3    H150801   6.710   3.916   5.403  0.6285 -0.5427 -0.6418
 9770TIP3    H250802   6.786   3.973   5.285 -0.9478  1.9856 -0.4956
 9771TIP3   OH250803   3.995   0.389  14.143 -0.6233 -0.2658  0.4622
 9771TIP3    H150804   3.928   0.458  14.134  1.6368  1.7898 -2.3119
 9771TIP3    H250805   3.970   0.324  14.078 -1.4613 -0.9849  1.4663
 9772TIP3   OH250806   6.464   3.146  16.073 -0.6688 -0.5966  0.7713
 9772TIP3    H150807   6.474   3.210  16.003  1.6278  0.2285  1.7735
 9772TIP3    H250808   6.513   3.069  16.044 -0.8992 -0.7878  0.8766
 9773TIP3   OH250809   5.464   2.161  11.363 -0.4396 -0.2527  0.3550
 9773TIP3    H150810   5.408   2.094  11.323 -1.8275  0.1548  1.5240
 9773TIP3    H250811   5.484   2.221  11.291 -0.9287 -0.7834 -0.2418
 9774TIP3   OH250812   1.496   2.660  12.774 -0.0272 -0.0378 -0.3019
 9774TIP3    H150813   1.435   2.706  12.716 -0.0500  0.4696  0.1198
 9774TIP3    H250814   1.466   2.680  12.862  1.3394  1.0879 -0.0458
 9775TIP3   OH250815   2.054   0.730  13.217  0.0719  0.0965 -0.1864
 9775TIP3    H150816   2.088   0.746  13.304 -1.2336  1.6654  0.0808
 9775TIP3    H250817   2.095   0.797  13.162 -2.1781  1.8045  0.0806
 9776TIP3   OH250818   3.044   2.970   3.937 -0.0799 -0.0762  0.1926
 9776TIP3    H150819   3.111   2.932   3.994 -0.3657  0.8456  1.1763
 9776TIP3    H250820   3.017   2.897   3.880  2.1066 -0.3411 -0.5990
 9777TIP3   OH250821   1.337   3.146   5.654 -0.0794 -0.8736 -0.1899
 9777TIP3    H150822   1.323   3.229   5.608 -1.2673  0.0324  1.6907
 9777TIP3    H250823   1.260   3.093   5.633 -0.4986 -0.5571  0.5339
 9778TIP3   OH250824   0.274   4.108   1.731  0.5511 -0.1398 -0.3555
 9778TIP3    H150825   0.305   4.130   1.643  0.8844 -1.0706 -0.4757
 9778TIP3    H250826   0.318   4.170   1.788  1.8262 -0.7611 -0.6419
 9779TIP3   OH250827   1.417   5.830   4.821  0.4253 -0.2207 -0.2624
 9779TIP3    H150828   1.364   5.769   4.768 -0.1145  1.8085 -2.2262
 9779TIP3    H250829   1.452   5.891   4.757  4.1417 -0.6744  1.1392
 9780TIP3   OH250830   5.596   0.479   1.333 -0.1133 -0.0921  1.2706
 9780TIP3    H150831   5.518   0.531   1.354 -0.4866  1.5746 -3.1924
 9780TIP3    H250832   5.665   0.543   1.318  0.4246 -1.0514 -0.7712
 9781TIP3   OH250833   4.948   4.317  11.488  0.0579  0.3037  0.3623
 9781TIP3    H150834   4.931   4.222  11.486  0.7774  0.1823 -0.5619
 9781TIP3    H250835   4.954   4.338  11.581 -0.0470 -0.5734  0.5775
 9782TIP3   OH250836   3.247   3.938   4.083 -0.5081 -0.0961 -0.2990
 9782TIP3    H150837   3.291   3.853   4.091 -0.8119 -0.1199  1.4555
 9782TIP3    H250838   3.162   3.925   4.124 -0.1456  1.3429  0.9986
 9783TIP3   OH250839   2.120   2.768   5.670 -0.8122  0.9539 -0.0480
 9783TIP3    H150840   2.115   2.862   5.685 -0.4055  0.9626  0.0448
 9783TIP3    H250841   2.106   2.728   5.756 -4.4100  0.7965 -0.5797
 9784TIP3   OH250842   5.335   2.605   0.177 -0.4445 -0.2687  0.0416
 9784TIP3    H150843   5.355   2.690   0.140  1.0860 -0.5975  0.0707
 9784TIP3    H250844   5.280   2.624   0.253 -2.5794  0.4900 -1.5890
 9785TIP3   OH250845   1.873   4.171  13.785  0.3762 -0.0192  0.4338
 9785TIP3    H150846   1.944   4.131  13.834  1.4311  2.0359  0.7147
 9785TIP3    H250847   1.812   4.100  13.767  3.3229 -2.3268 -1.4248
 9786TIP3   OH250848   5.484   4.367  14.241  0.0427 -0.6377 -0.0864
 9786TIP3    H150849   5.394   4.350  14.271 -0.2763  1.3130  0.2481
 9786TIP3    H250850   5.481   4.458  14.212  1.8308 -0.6888 -0.4951
 9787TIP3   OH250851   4.921   0.625   4.380 -0.6744  0.0886  0.1650
 9787TIP3    H150852   4.936   0.689   4.311 -2.6571 -0.5983 -0.9934
 9787TIP3    H250853   4.893   0.678   4.455  1.4141  0.8338  0.4825
 9788TIP3   OH250854   5.658   6.123  14.834 -0.5577  0.9237  0.0652
 9788TIP3    H150855   5.702   6.201  14.800  0.6736  0.2061 -0.0520
 9788TIP3    H250856   5.729   6.063  14.856 -1.4480  0.1662  0.9862
 9789TIP3   OH250857   0.332   2.943  11.828 -0.2119 -0.2024 -0.3562
 9789TIP3    H150858   0.405   2.933  11.889 -1.5894  1.4556  1.7286
 9789TIP3    H250859   0.371   2.932  11.742  2.2831 -0.4656  0.7169
 9790TIP3   OH250860   5.271   4.400   0.502 -0.3197 -0.2101 -0.4914
 9790TIP3    H150861   5.262   4.453   0.423 -2.1672  0.9034  0.3945
 9790TIP3    H250862   5.187   4.408   0.546 -0.0519 -2.4922  0.5838
 9791TIP3   OH250863   4.620   3.937   0.766  0.0198  0.0301 -1.0755
 9791TIP3    H150864   4.651   3.966   0.680  0.4739 -0.5075 -1.0979
 9791TIP3    H250865   4.688   3.878   0.798 -0.1496  0.2201 -0.3456
 9792TIP3   OH250866   6.555   4.967  13.056  0.1624  0.0770 -0.4975
 9792TIP3    H150867   6.472   5.010  13.079  0.1011 -0.1745 -0.2512
 9792TIP3    H250868   6.622   5.033  13.075 -0.0629  0.7764 -1.9387
 9793TIP3   OH250869   6.460   0.775  17.017 -0.1886  0.1682  0.0222
 9793TIP3    H150870   6.548   0.757  16.985  0.2202  0.7653  0.7975
 9793TIP3    H250871   6.419   0.689  17.023  0.8109 -0.2595  0.9971
 9794TIP3   OH250872   6.759   6.227  14.429  0.1028  0.3037  0.2625
 9794TIP3    H150873   6.678   6.233  14.377  1.3695  1.0357 -1.7426
 9794TIP3    H250874   6.791   6.139  14.412  1.0158  0.8557 -1.0740
 9795TIP3   OH250875   4.110   2.042  17.118  0.6047 -0.2624 -0.5048
 9795TIP3    H150876   4.144   1.982  17.051 -0.5183  0.0227 -1.3619
 9795TIP3    H250877   4.015   2.036  17.109  0.3739 -0.9092  1.6974
 9796TIP3   OH250878   2.646   1.296   4.308  0.1623  0.3590  0.4297
 9796TIP3    H150879   2.567   1.321   4.356 -1.0436 -1.1669 -0.6651
 9796TIP3    H250880   2.623   1.309   4.216  0.2772 -2.3158 -0.0584
 9797TIP3   OH250881   1.443   2.138  11.753 -0.8007 -0.5593  0.2592
 9797TIP3    H150882   1.409   2.086  11.680  0.9388  0.1971 -1.1650
 9797TIP3    H250883   1.522   2.090  11.781 -0.3893  0.1715  0.3667
 9798TIP3   OH250884   6.596   5.388   2.720  0.0474  0.2167 -0.5620
 9798TIP3    H150885   6.628   5.299   2.730 -0.0833  0.2045 -0.2579
 9798TIP3    H250886   6.590   5.423   2.809 -1.6561 -0.0927 -0.5104
 9799TIP3   OH250887   2.993   5.812   3.476  0.6420 -0.2439  0.1659
 9799TIP3    H150888   3.068   5.859   3.440  1.6190 -1.9013 -0.0319
 9799TIP3    H250889   3.031   5.747   3.535 -0.6384 -1.0711  0.1180
 9800TIP3   OH250890   3.719   1.366   5.828 -0.1677  0.0748 -0.6856
 9800TIP3    H150891   3.689   1.277   5.847 -0.6681  0.6242  1.3195
 9800TIP3    H250892   3.814   1.358   5.820  0.2300 -0.2317  2.7619
 9801TIP3   OH250893   0.464   2.531   4.731 -0.2400  0.8825 -0.2077
 9801TIP3    H150894   0.534   2.593   4.751  1.2571 -0.2358 -1.7602
 9801TIP3    H250895   0.457   2.531   4.636 -0.4808 -0.9893 -0.2367
 9802TIP3   OH250896   2.160   3.828  16.558  0.0318 -0.2131 -0.2239
 9802TIP3    H150897   2.118   3.824  16.643 -1.6664 -2.2457 -1.0673
 9802TIP3    H250898   2.093   3.864  16.499  1.3776  1.7638 -0.6606
 9803TIP3   OH250899   6.332   4.966   5.717 -0.3759 -0.2106 -0.0222
 9803TIP3    H150900   6.304   4.878   5.692  1.0585 -1.0352  1.1140
 9803TIP3    H250901   6.426   4.966   5.702 -0.2509  0.8933  0.6541
 9804TIP3   OH250902   1.798   0.131   1.845  0.5134 -0.3367  0.4525
 9804TIP3    H150903   1.884   0.131   1.885  0.5029 -0.7485  0.4759
 9804TIP3    H250904   1.757   0.213   1.875  1.1471  0.1951 -0.1102
 9805TIP3   OH250905   2.966   1.713   0.322  0.4591  0.0783 -0.0779
 9805TIP3    H150906   2.994   1.718   0.413  1.1175 -1.5182 -0.1643
 9805TIP3    H250907   2.885   1.662   0.324 -1.2113  2.5489 -0.1110
 9806TIP3   OH250908   2.516   6.480  16.647 -0.4594 -0.2614  0.6319
 9806TIP3    H150909   2.595   6.435  16.678 -0.9941 -0.9683  1.0059
 9806TIP3    H250910   2.533   6.497  16.554 -0.2147 -1.1751  0.5002
 9807TIP3   OH250911   0.662   6.143  15.506 -0.1119  0.2149 -0.1615
 9807TIP3    H150912   0.619   6.208  15.561 -0.5282 -0.7922  0.7257
 9807TIP3    H250913   0.689   6.192  15.428 -2.7806  0.9436 -0.7416
 9808TIP3   OH250914   4.741   1.996  15.433 -0.2365  0.0004  0.2150
 9808TIP3    H150915   4.807   2.012  15.366  0.2227  0.4926  0.7728
 9808TIP3    H250916   4.658   1.992  15.385  0.2147 -0.8380 -0.5151
 9809TIP3   OH250917   0.357   5.357  15.384 -0.3757  0.2449  0.3770
 9809TIP3    H150918   0.333   5.265  15.376  1.4091 -0.3351  1.2518
 9809TIP3    H250919   0.281   5.404  15.351 -1.6077 -1.5119  0.5701
 9810TIP3   OH250920   4.180   6.624  16.248 -0.2934  0.7380  0.0115
 9810TIP3    H150921   4.216   6.556  16.305  2.1206  1.3283 -0.6950
 9810TIP3    H250922   4.108   6.581  16.201  0.3384 -0.9448  0.5113
 9811TIP3   OH250923   3.250   5.219   3.444 -0.5731  0.6358 -0.1906
 9811TIP3    H150924   3.218   5.308   3.455 -0.9364  0.5745 -0.7317
 9811TIP3    H250925   3.346   5.228   3.444 -0.6143  1.0771 -0.6994
 9812TIP3   OH250926   4.460   0.037   5.317 -0.3057  0.3488 -0.0025
 9812TIP3    H150927   4.511  -0.041   5.294 -0.5236 -0.1389  1.0950
 9812TIP3    H250928   4.474   0.048   5.411 -1.1443  1.0018  0.0560
 9813TIP3   OH250929   2.196   2.622   2.812 -0.3686 -0.1685 -0.3967
 9813TIP3    H150930   2.148   2.561   2.868 -1.8081  0.2346 -1.1716
 9813TIP3    H250931   2.229   2.688   2.873  1.5624 -1.8377  0.5296
 9814TIP3   OH250932   0.729   2.364   3.099  0.4217 -0.1738  0.2674
 9814TIP3    H150933   0.788   2.362   3.024 -0.1134 -0.6419 -0.1509
 9814TIP3    H250934   0.739   2.278   3.141  1.2467  0.3400  1.1613
 9815TIP3   OH250935   1.225   2.561  16.739  0.0829 -0.1279  0.7645
 9815TIP3    H150936   1.216   2.471  16.706 -1.1467  0.3255 -0.1859
 9815TIP3    H250937   1.167   2.564  16.815  1.0266 -0.4654  1.5076
 9816TIP3   OH250938   6.728   4.259   1.763 -0.0423 -0.4075 -0.6979
 9816TIP3    H150939   6.752   4.235   1.853  0.1198  0.8305 -0.3985
 9816TIP3    H250940   6.685   4.181   1.728  0.5411 -1.1568  0.2110
 9817TIP3   OH250941   4.451   4.785   4.536 -0.7087 -0.4517  0.3677
 9817TIP3    H150942   4.405   4.869   4.532 -0.1975 -0.1949 -0.4205
 9817TIP3    H250943   4.490   4.783   4.624 -0.0557  0.5095  0.1211
 9818TIP3   OH250944   1.870   4.974  11.324  0.2398  0.0829  0.3113
 9818TIP3    H150945   1.949   5.022  11.297  0.1678 -0.5619 -1.1428
 9818TIP3    H250946   1.806   4.994  11.256 -0.6907  0.1592  1.1926
 9819TIP3   OH250947   5.641   4.576  11.882 -0.0530  0.6112  0.1095
 9819TIP3    H150948   5.605   4.635  11.815 -2.8628  0.7597  1.6337
 9819TIP3    H250949   5.617   4.616  11.965  0.0268 -1.4970  1.2025
 9820TIP3   OH250950   3.725   3.624   0.372 -0.0219  0.1662 -0.5464
 9820TIP3    H150951   3.811   3.614   0.412  0.1011  2.4249 -0.1428
 9820TIP3    H250952   3.676   3.678   0.434 -1.0115  0.7429 -1.7922
 9821TIP3   OH250953   4.473   3.594   0.372 -0.1389 -0.0953  0.3429
 9821TIP3    H150954   4.562   3.573   0.343 -0.5663 -1.7434  0.1307
 9821TIP3    H250955   4.424   3.605   0.291 -0.4972 -0.8753  0.4550
 9822TIP3   OH250956   4.651   1.823   2.978  0.1272  0.3500  0.4945
 9822TIP3    H150957   4.624   1.807   2.888 -0.0600  0.4487  0.5325
 9822TIP3    H250958   4.739   1.786   2.984  0.1549  0.3798  0.2613
 9823TIP3   OH250959   2.587   2.478  15.414  0.8167  0.2352 -0.2177
 9823TIP3    H150960   2.499   2.468  15.449  1.1290 -0.2283  0.4529
 9823TIP3    H250961   2.584   2.560  15.364 -0.6277 -0.9563 -2.2360
 9824TIP3   OH250962   6.686   1.842  14.135 -0.0193 -0.0902 -0.3009
 9824TIP3    H150963   6.640   1.810  14.213  2.2092  0.7932  1.4762
 9824TIP3    H250964   6.675   1.772  14.071  0.4665 -2.1710  1.7462
 9825TIP3   OH250965   0.460   2.967  13.885 -0.4020  0.1956 -0.3241
 9825TIP3    H150966   0.407   3.012  13.951 -2.1986 -1.1034 -0.8148
 9825TIP3    H250967   0.410   2.977  13.804  1.0736  0.5421 -1.2266
 9826TIP3   OH250968   6.806   5.389   0.299  0.1212  0.1982 -0.0817
 9826TIP3    H150969   6.818   5.388   0.204  0.9602  0.8092  0.0053
 9826TIP3    H250970   6.866   5.457   0.329 -1.9245  1.7932  0.6326
 9827TIP3   OH250971   3.280   5.536  14.900 -0.0129  0.0859 -0.5247
 9827TIP3    H150972   3.288   5.456  14.848 -1.9836  0.2438 -1.1422
 9827TIP3    H250973   3.188   5.538  14.927  0.2145  1.6946  0.2312
 9828TIP3   OH250974   0.995   2.943   6.332 -0.1727 -0.2317 -0.3389
 9828TIP3    H150975   1.043   2.877   6.382 -1.1918  0.2645  1.3865
 9828TIP3    H250976   1.061   3.010   6.313  0.2180 -0.3406  0.5426
 9829TIP3   OH250977   4.137   4.740   2.546 -0.4222 -0.6628  0.7249
 9829TIP3    H150978   4.194   4.813   2.521  0.6355 -1.1105  1.7473
 9829TIP3    H250979   4.127   4.689   2.466  1.6498 -1.2543  0.8105
 9830TIP3   OH250980   1.036   6.281   6.446  0.1748 -0.0670  0.1558
 9830TIP3    H150981   1.044   6.365   6.401  0.2347 -0.4885 -0.6253
 9830TIP3    H250982   0.968   6.234   6.398 -0.4053 -0.1824  1.0511
 9831TIP3   OH250983   6.552   4.937   4.512  0.3685 -0.4366  0.1892
 9831TIP3    H150984   6.598   4.870   4.460  0.5281  0.2363 -0.5559
 9831TIP3    H250985   6.463   4.937   4.477  0.4996  0.0793 -0.1494
 9832TIP3   OH250986   2.777   5.395  16.553 -0.7061 -0.7072  0.1505
 9832TIP3    H150987   2.839   5.384  16.625 -1.0519 -2.8162  0.2025
 9832TIP3    H250988   2.818   5.349  16.479 -1.7207 -1.2192 -0.1129
 9833TIP3   OH250989   5.603   6.105   1.071  0.2238 -0.0321 -0.4601
 9833TIP3    H150990   5.674   6.042   1.083  0.0267 -0.5004 -1.6041
 9833TIP3    H250991   5.524   6.051   1.065 -0.0022  0.3491 -1.0028
 9834TIP3   OH250992   6.391   1.632  14.637  0.8943 -0.6589  0.6851
 9834TIP3    H150993   6.352   1.561  14.688  0.7040 -0.6785  0.5137
 9834TIP3    H250994   6.315   1.681  14.604  1.0179  0.2984  1.7584
 9835TIP3   OH250995   6.652   1.580  12.790  0.0647  0.1155 -0.4728
 9835TIP3    H150996   6.681   1.670  12.797  3.0310 -0.8420  2.2059
 9835TIP3    H250997   6.716   1.538  12.733 -1.0952 -0.3934 -1.4350
 9836TIP3   OH250998   6.382   2.607   4.218  0.8251 -0.1096  0.0712
 9836TIP3    H150999   6.324   2.603   4.294 -0.1672 -1.3314 -0.7117
 9836TIP3    H251000   6.336   2.559   4.149  1.8706  0.6203 -1.2019
 9837TIP3   OH251001   4.584   0.205   4.840  0.2206 -0.0039 -0.2557
 9837TIP3    H151002   4.563   0.266   4.770  0.6409  2.3611  1.5532
 9837TIP3    H251003   4.673   0.228   4.867  0.7606 -2.0609 -0.0720
 9838TIP3   OH251004   0.810   0.742   3.624  0.2410 -0.0760 -0.0611
 9838TIP3    H151005   0.865   0.664   3.617 -0.5565 -0.7697  0.9963
 9838TIP3    H251006   0.728   0.718   3.583 -0.7092 -0.5278  1.9612
 9839TIP3   OH251007   2.542   2.424  14.211  0.0211  0.7711 -0.4148
 9839TIP3    H151008   2.566   2.452  14.123 -1.4765 -1.4950 -1.6469
 9839TIP3    H251009   2.624   2.398  14.252  0.6696  1.3324 -1.3260
 9840TIP3   OH251010   3.880   5.746  15.793 -0.0780  0.4355  0.7053
 9840TIP3    H151011   3.933   5.755  15.714 -0.4931 -1.5474  0.1362
 9840TIP3    H251012   3.802   5.700  15.765 -0.7371  0.6379  2.0910
 9841TIP3   OH251013   3.721   6.651  12.802 -0.0411  0.1524 -0.2186
 9841TIP3    H151014   3.786   6.687  12.742 -0.0471  0.5993  0.0382
 9841TIP3    H251015   3.701   6.564  12.768  0.2400  0.2567 -0.6421
 9842TIP3   OH251016   1.189   5.684  13.098  0.2290  0.1039 -0.2486
 9842TIP3    H151017   1.099   5.654  13.084  0.5950 -2.2606  1.6388
 9842TIP3    H251018   1.183   5.742  13.174  0.3445 -0.5930  0.3062
 9843TIP3   OH251019   4.108   6.042  16.795 -0.5676  0.4481 -0.4962
 9843TIP3    H151020   4.177   5.988  16.755  0.2225  1.6442 -0.7801
 9843TIP3    H251021   4.034   6.032  16.735 -0.4805 -0.3989 -0.4885
 9844TIP3   OH251022   2.982   1.232  14.879  0.3083  1.0439  0.3838
 9844TIP3    H151023   3.009   1.254  14.969  0.8069  1.1794  0.2019
 9844TIP3    H251024   3.013   1.143  14.866  3.4085  2.1738 -0.8627
 9845TIP3   OH251025   4.516   3.368   2.724  0.8628  0.5505 -0.3725
 9845TIP3    H151026   4.501   3.341   2.815 -0.0306 -2.7909 -1.3511
 9845TIP3    H251027   4.446   3.430   2.705 -0.1917 -0.2603  0.6973
 9846TIP3   OH251028   6.682   2.055  11.348  0.1847  0.3115 -0.3376
 9846TIP3    H151029   6.650   1.973  11.310  1.4702  0.3570 -1.5838
 9846TIP3    H251030   6.604   2.109  11.356 -0.1632  0.3264 -3.0497
 9847TIP3   OH251031   2.693   1.611   1.507  0.1215 -0.2803 -0.2821
 9847TIP3    H151032   2.761   1.576   1.450 -0.3018 -1.4699 -0.0812
 9847TIP3    H251033   2.625   1.544   1.507 -0.6144  0.4465  0.3101
 9848TIP3   OH251034   2.921   6.209  16.365 -0.0994 -0.1387 -0.3611
 9848TIP3    H151035   2.831   6.219  16.335 -1.1922  0.7678  2.8674
 9848TIP3    H251036   2.962   6.294  16.347 -0.5373  0.1689  0.0699
 9849TIP3   OH251037   2.662   5.974  15.411  0.2000  0.6683  0.0595
 9849TIP3    H151038   2.633   5.894  15.367  0.0050  0.8500 -0.1380
 9849TIP3    H251039   2.698   5.943  15.495  1.6831  0.1928 -0.7126
 9850TIP3   OH251040   4.714   4.422   6.834  0.0282  0.5266  0.5081
 9850TIP3    H151041   4.726   4.505   6.786  1.8356 -0.2280 -0.4374
 9850TIP3    H251042   4.657   4.370   6.777 -1.4744  1.2353  1.3078
 9851TIP3   OH251043   5.868   1.306   6.048 -0.2371  0.3784  0.2274
 9851TIP3    H151044   5.781   1.298   6.009 -0.4619  0.5699  0.6897
 9851TIP3    H251045   5.904   1.386   6.010 -0.3961  0.4819  0.2935
 9852TIP3   OH251046   3.736   4.320   5.003  0.6920 -0.2703  0.1716
 9852TIP3    H151047   3.730   4.380   5.077 -0.0886  0.2887 -0.3245
 9852TIP3    H251048   3.669   4.253   5.020 -0.5051  0.6481 -0.6905
 9853TIP3   OH251049   6.096   5.589   4.846  0.3257  0.0674 -0.7353
 9853TIP3    H151050   6.041   5.641   4.789 -1.0029  0.5266  0.8849
 9853TIP3    H251051   6.045   5.511   4.866  0.0206  0.6658  1.0820
 9854TIP3   OH251052   3.037   5.961  14.258 -0.3274 -0.0636  0.0726
 9854TIP3    H151053   2.951   5.919  14.259 -0.8205  0.6989 -2.3949
 9854TIP3    H251054   3.019   6.052  14.233  1.1480  0.2403  0.0123
 9855TIP3   OH251055   4.241   5.668   0.883 -0.1071 -0.5221  0.4381
 9855TIP3    H151056   4.238   5.641   0.791  0.4187 -0.4180  0.3855
 9855TIP3    H251057   4.163   5.629   0.922  0.2255 -1.4612  0.1950
 9856TIP3   OH251058   0.792   6.177   0.635 -0.4669  0.1571 -0.4869
 9856TIP3    H151059   0.713   6.214   0.594  0.2034  1.0453 -0.9939
 9856TIP3    H251060   0.857   6.246   0.629  1.0789 -1.3594 -2.2183
 9857TIP3   OH251061   2.542   4.270   3.816 -0.0564 -0.3877 -0.0094
 9857TIP3    H151062   2.624   4.320   3.821 -0.9300  1.0351  1.1725
 9857TIP3    H251063   2.535   4.226   3.900 -0.1342 -1.1328 -0.4005
 9858TIP3   OH251064   5.093   1.761   1.588 -0.3187 -0.4030 -0.0974
 9858TIP3    H151065   5.158   1.692   1.575  0.6622  0.3647  0.5786
 9858TIP3    H251066   5.145   1.839   1.608 -1.3976  0.5793 -0.9959
 9859TIP3   OH251067   4.677   0.385  17.077  0.1294  0.5645  0.4302
 9859TIP3    H151068   4.605   0.329  17.105 -0.9785  2.5948  1.8704
 9859TIP3    H251069   4.748   0.366  17.139 -0.2664  0.8070  0.9589
 9860TIP3   OH251070   0.488   0.879  11.924  0.2507  0.0848  0.9840
 9860TIP3    H151071   0.578   0.886  11.892  0.7042 -0.5483  2.0399
 9860TIP3    H251072   0.451   0.966  11.911 -0.4128 -0.6456 -3.3320
 9861TIP3   OH251073   3.364   4.952   0.527 -0.7893 -0.2113 -0.6637
 9861TIP3    H151074   3.270   4.941   0.541 -1.1398 -0.4885 -2.9039
 9861TIP3    H251075   3.400   4.864   0.536 -0.9538 -0.3288 -1.1285
 9862TIP3   OH251076   5.250   0.576   0.752 -0.2553 -0.2316  0.6045
 9862TIP3    H151077   5.183   0.596   0.818 -1.5485 -2.8482  0.2316
 9862TIP3    H251078   5.328   0.554   0.803 -1.2406 -2.2596  1.3844
 9863TIP3   OH251079   4.317   3.188  16.342 -0.7614  0.2229 -0.3050
 9863TIP3    H151080   4.323   3.261  16.403 -0.6620  0.8467 -1.0494
 9863TIP3    H251081   4.251   3.216  16.278 -0.8550 -0.4170 -0.4948
 9864TIP3   OH251082   5.255   0.392  11.329 -0.1522  0.0892 -0.2773
 9864TIP3    H151083   5.290   0.463  11.277 -0.4227  0.4527  0.0247
 9864TIP3    H251084   5.327   0.365  11.385  0.6687 -1.4554 -2.0011
 9865TIP3   OH251085   3.115   2.204   0.378 -0.3402 -0.2311  0.5791
 9865TIP3    H151086   3.189   2.150   0.351  0.5843  1.8516 -1.4611
 9865TIP3    H251087   3.106   2.188   0.472  2.6048 -0.6930  0.8648
 9866TIP3   OH251088   4.973   5.634  16.386  0.9461  0.2630 -0.2243
 9866TIP3    H151089   4.899   5.618  16.327  1.9181  0.3184 -1.4990
 9866TIP3    H251090   5.047   5.592  16.343  1.6102 -0.0674  1.1926
 9867TIP3   OH251091   1.298   4.150   6.436  0.1257 -0.4341 -0.1332
 9867TIP3    H151092   1.227   4.202   6.398 -0.0101  0.5510  1.3513
 9867TIP3    H251093   1.334   4.207   6.505  1.3360 -1.5275  0.1696
 9868TIP3   OH251094   0.688   3.476   4.695  0.7894  0.0030  0.0440
 9868TIP3    H151095   0.593   3.471   4.691  0.6173  2.7998 -2.8016
 9868TIP3    H251096   0.706   3.502   4.786 -1.0787 -0.7127  0.6814
 9869TIP3   OH251097   1.929   0.684   1.131 -0.3262  0.8874  0.2833
 9869TIP3    H151098   1.916   0.743   1.205 -0.3245  0.1351  0.8910
 9869TIP3    H251099   1.977   0.610   1.167 -0.1688  0.5899 -0.5135
 9870TIP3   OH251100   0.700   2.967   1.058 -0.4949  0.4922  0.5394
 9870TIP3    H151101   0.688   2.994   0.966  3.0220 -0.0332 -0.1855
 9870TIP3    H251102   0.704   2.872   1.055 -1.1747  0.4207  1.4158
 9871TIP3   OH251103   5.984   3.988  16.783 -0.6387  0.2044 -0.6465
 9871TIP3    H151104   6.041   3.912  16.793 -0.6181  0.3398  0.4296
 9871TIP3    H251105   5.903   3.963  16.828 -0.2673  1.1752  0.6151
 9872TIP3   OH251106   2.879   6.253   3.131 -0.4886  0.4493  0.1335
 9872TIP3    H151107   2.856   6.171   3.087 -1.2538  0.7872 -0.1180
 9872TIP3    H251108   2.862   6.237   3.223  0.2775  0.0252  0.2146
 9873TIP3   OH251109   5.633   2.711  17.123  0.0597 -0.1348 -0.3256
 9873TIP3    H151110   5.628   2.638  17.184 -0.9199 -1.8118 -2.2859
 9873TIP3    H251111   5.544   2.719  17.088  0.5162  0.9584 -1.3026
 9874TIP3   OH251112   1.468   0.386   4.143 -0.2626  0.1167  0.0934
 9874TIP3    H151113   1.503   0.364   4.229 -2.0685 -0.5384  0.7067
 9874TIP3    H251114   1.500   0.475   4.126  0.5505  0.0525  1.1825
 9875TIP3   OH251115   2.249   4.608  16.456  0.3316 -0.6124  0.3119
 9875TIP3    H151116   2.343   4.618  16.474  0.5911 -0.7238 -0.9466
 9875TIP3    H251117   2.207   4.656  16.528  1.3557  0.0027  0.5310
 9876TIP3   OH251118   1.599   3.357  12.146 -0.3785  0.3344 -0.6977
 9876TIP3    H151119   1.686   3.393  12.132 -0.5952  1.2162  0.0305
 9876TIP3    H251120   1.540   3.424  12.111 -0.7969  0.7071  0.6549
 9877TIP3   OH251121   5.814   0.669  13.336  0.2174  0.2371  0.6148
 9877TIP3    H151122   5.815   0.732  13.409 -0.8264 -0.0548  0.8938
 9877TIP3    H251123   5.906   0.647  13.323  0.3706 -0.4741  2.5235
 9878TIP3   OH251124   1.245   6.023   5.385  0.1359  0.5506  0.1302
 9878TIP3    H151125   1.283   5.935   5.381 -1.4507 -0.4664  3.7784
 9878TIP3    H251126   1.304   6.072   5.442  0.7511  1.8097 -1.5063
 9879TIP3   OH251127   2.745   1.390  15.257  0.1538 -0.5485 -0.3340
 9879TIP3    H151128   2.735   1.462  15.319  0.1526 -0.8856  0.0674
 9879TIP3    H251129   2.838   1.367  15.261 -0.0923 -1.4700  0.5862
 9880TIP3   OH251130   4.793   6.675   5.379  0.7143  0.9761 -0.0202
 9880TIP3    H151131   4.879   6.657   5.417  0.2720 -0.6236  0.2663
 9880TIP3    H251132   4.777   6.767   5.398  2.3527  1.2994 -0.0677
 9881TIP3   OH251133   1.650   3.694   4.696 -0.3049  0.1524 -0.1834
 9881TIP3    H151134   1.688   3.675   4.782  0.6157 -0.2405 -0.6587
 9881TIP3    H251135   1.714   3.660   4.634 -1.3882 -0.4013 -1.0318
 9882TIP3   OH251136   0.262   1.679   0.896 -0.0072  0.4992  0.7982
 9882TIP3    H151137   0.172   1.696   0.924 -0.6325 -0.1266 -0.7003
 9882TIP3    H251138   0.253   1.618   0.823  1.8022 -1.7947  2.3364
 9883TIP3   OH251139   4.262   3.296  10.960  0.1030 -0.0475 -0.2435
 9883TIP3    H151140   4.216   3.378  10.945  0.3772 -0.0057 -0.8926
 9883TIP3    H251141   4.355   3.320  10.959  0.1805 -0.3452 -0.3207
 9884TIP3   OH251142   6.134   4.414   4.431 -0.5425  0.8219  0.0661
 9884TIP3    H151143   6.104   4.420   4.341  0.2417  0.9810 -0.1880
 9884TIP3    H251144   6.196   4.486   4.441 -0.2116  0.4740  0.5670
 9885TIP3   OH251145   0.803   0.540   6.014 -0.3312  0.0200 -0.0934
 9885TIP3    H151146   0.780   0.621   5.968 -2.4159 -0.7347 -0.5152
 9885TIP3    H251147   0.889   0.557   6.052 -0.9462  2.6282  0.3197
 9886TIP3   OH251148   1.492   0.298  13.950 -0.1670 -0.9048  0.6506
 9886TIP3    H151149   1.443   0.317  14.030 -0.9926 -1.4725  0.3000
 9886TIP3    H251150   1.502   0.203  13.949 -1.4631 -1.0686 -0.6201
 9887TIP3   OH251151   2.303   6.700   4.208  0.1188  0.2671 -0.0533
 9887TIP3    H151152   2.299   6.787   4.247 -1.0829 -0.8204  2.4221
 9887TIP3    H251153   2.237   6.702   4.138 -0.7866  0.9933  0.7901
 9888TIP3   OH251154   3.002   5.174  15.665 -0.8048  0.1902  0.5703
 9888TIP3    H151155   3.078   5.214  15.708  1.1220 -2.0816 -0.4341
 9888TIP3    H251156   2.951   5.136  15.736  0.5998 -0.7210  1.1425
 9889TIP3   OH251157   0.523   4.245  13.386 -0.4361 -0.5883  0.4832
 9889TIP3    H151158   0.447   4.249  13.444 -0.3012 -2.3566  0.8323
 9889TIP3    H251159   0.492   4.200  13.308  0.1752 -1.1368  0.5429
 9890TIP3   OH251160   3.822   5.778   5.692 -0.2555  0.3203  0.5600
 9890TIP3    H151161   3.765   5.702   5.681  3.1183 -2.4474  0.7088
 9890TIP3    H251162   3.761   5.850   5.710 -3.6768 -2.2709  0.4811
 9891TIP3   OH251163   2.000   2.836   3.273 -0.1850 -0.5137  0.2185
 9891TIP3    H151164   2.028   2.840   3.181 -4.0309 -1.6982 -1.1829
 9891TIP3    H251165   2.009   2.927   3.304 -0.5233  0.3113 -1.9267
 9892TIP3   OH251166   5.090   5.181   1.462 -0.5913 -0.1047  0.3108
 9892TIP3    H151167   5.094   5.087   1.447  1.0787 -0.5405  2.8106
 9892TIP3    H251168   5.168   5.216   1.419  0.6544 -0.4248  2.1921
 9893TIP3   OH251169   3.905   6.238   0.818 -0.5285  0.1200  0.1921
 9893TIP3    H151170   3.942   6.260   0.904  2.1001  0.0498 -0.8240
 9893TIP3    H251171   3.856   6.316   0.793  2.3254  1.9901 -0.0518
 9894TIP3   OH251172   2.820   5.146  14.870  1.0189  0.1108 -0.3681
 9894TIP3    H151173   2.829   5.154  14.775 -1.5808 -1.5649 -0.8425
 9894TIP3    H251174   2.820   5.237  14.902  2.3850  0.6824 -1.8727
 9895TIP3   OH251175   5.164   5.439  12.499  0.4113 -0.2956 -0.1282
 9895TIP3    H151176   5.174   5.412  12.408 -0.4917 -0.5690 -0.1498
 9895TIP3    H251177   5.142   5.358  12.545 -1.8453  0.2866 -0.1112
 9896TIP3   OH251178   4.795   2.191   3.397 -0.4243 -0.6167 -0.1333
 9896TIP3    H151179   4.813   2.223   3.486 -2.7364 -0.4344  0.3234
 9896TIP3    H251180   4.712   2.231   3.373  0.8786  0.6083 -3.0701
 9897TIP3   OH251181   2.593   6.445  15.624  0.0005 -0.1296 -0.0478
 9897TIP3    H151182   2.676   6.397  15.618 -0.1558 -0.2588 -1.4264
 9897TIP3    H251183   2.618   6.537  15.617  0.0395 -0.1665 -0.4175
 9898TIP3   OH251184   5.494   3.471  10.893  0.2035 -0.0092 -0.2978
 9898TIP3    H151185   5.440   3.393  10.879  0.5481 -0.1883 -0.6531
 9898TIP3    H251186   5.497   3.513  10.807  1.9843 -0.8840 -0.7106
 9899TIP3   OH251187   2.850   1.223   3.251 -0.4045 -0.3088  1.0327
 9899TIP3    H151188   2.803   1.144   3.275 -0.1866 -0.3667  1.2688
 9899TIP3    H251189   2.781   1.284   3.223 -0.7310 -0.0181  2.4095
 9900TIP3   OH251190   2.047   4.648  15.916 -0.2530  0.4670  0.0497
 9900TIP3    H151191   2.085   4.560  15.928  2.3112  1.2470 -1.5692
 9900TIP3    H251192   1.967   4.646  15.968  0.1685 -2.5325  0.8073
 9901TIP3   OH251193   0.408   3.287  15.594 -0.6341 -0.4966 -0.2806
 9901TIP3    H151194   0.437   3.376  15.610  0.9345 -0.9830 -0.2155
 9901TIP3    H251195   0.351   3.265  15.668  0.0426  0.0003  0.3920
 9902TIP3   OH251196   1.572   1.619   4.409  0.0138  0.0580  0.0909
 9902TIP3    H151197   1.628   1.644   4.335 -1.2600 -0.2659 -1.0212
 9902TIP3    H251198   1.625   1.558   4.460  0.2125 -1.2980 -1.6742
 9903TIP3   OH251199   5.164   4.576   2.699 -0.0574 -0.1092 -0.2367
 9903TIP3    H151200   5.154   4.670   2.716 -0.2547  0.6969 -3.9549
 9903TIP3    H251201   5.075   4.542   2.708 -0.5442  0.6905 -1.6185
 9904TIP3   OH251202   1.275   3.159  15.639  0.3004 -0.0950 -0.1589
 9904TIP3    H151203   1.180   3.160  15.624  0.4986 -0.5449 -1.7056
 9904TIP3    H251204   1.302   3.250  15.632 -0.1629  0.2193  1.6300
 9905TIP3   OH251205   2.377   4.153   1.294 -0.0670 -0.0663 -0.0508
 9905TIP3    H151206   2.406   4.095   1.224  0.9904 -1.2637  1.3357
 9905TIP3    H251207   2.290   4.120   1.318  0.6584 -1.3029  0.9432
 9906TIP3   OH251208   2.405   4.867   4.212 -0.9752  0.1547  0.4307
 9906TIP3    H151209   2.463   4.791   4.203 -0.1718  0.9476 -2.0280
 9906TIP3    H251210   2.317   4.832   4.204 -0.6183 -0.5819 -0.4783
 9907TIP3   OH251211   2.086   3.211  10.973 -1.2008 -0.7253  0.0324
 9907TIP3    H151212   2.149   3.270  10.932 -0.1205 -1.7804  0.1238
 9907TIP3    H251213   2.002   3.253  10.959 -0.5302  0.5224 -0.4551
 9908TIP3   OH251214   2.225   0.557   5.981  0.1559  0.3235  0.1183
 9908TIP3    H151215   2.257   0.567   5.891 -0.2414  1.5445  0.0979
 9908TIP3    H251216   2.139   0.518   5.971 -0.4570  1.6993 -0.1267
 9909TIP3   OH251217   2.075   5.651   0.331 -0.5384 -0.2246 -0.7039
 9909TIP3    H151218   2.139   5.580   0.324 -2.0466 -1.5442 -2.2587
 9909TIP3    H251219   2.038   5.642   0.419 -0.3697 -1.0816 -0.7129
 9910TIP3   OH251220   1.107   4.247  15.852 -0.7165  0.1477  0.0092
 9910TIP3    H151221   1.082   4.335  15.879 -1.3986 -0.1510  0.3687
 9910TIP3    H251222   1.068   4.189  15.917 -3.0421 -0.6572 -1.9449
 9911TIP3   OH251223   0.141   5.334  12.354 -0.5014  0.1131  0.5822
 9911TIP3    H151224   0.130   5.405  12.291  0.7007 -0.0278  0.1815
 9911TIP3    H251225   0.095   5.364  12.432  0.2516  1.4999  0.5331
 9912TIP3   OH251226   0.370   0.170   2.452  0.5642 -0.1437 -0.0087
 9912TIP3    H151227   0.425   0.199   2.525  0.2277  1.3687 -0.3112
 9912TIP3    H251228   0.419   0.195   2.374  0.3611 -0.6269 -0.2940
 9913TIP3   OH251229   2.797   1.209  16.817 -0.7781  0.2221 -0.2690
 9913TIP3    H151230   2.868   1.232  16.876  0.6135 -0.2506 -1.6825
 9913TIP3    H251231   2.838   1.208  16.730 -2.0783 -1.8383 -0.9223
 9914TIP3   OH251232   3.688   4.992  11.690  0.5550 -0.5678  0.1120
 9914TIP3    H151233   3.682   4.985  11.595  1.6120  0.4676 -0.0486
 9914TIP3    H251234   3.774   5.031  11.706  1.0491 -2.0962  1.5620
 9915TIP3   OH251235   6.112   6.819  14.032  0.3242 -0.2078 -0.7084
 9915TIP3    H151236   6.205   6.833  14.048  0.0327 -0.1929  1.0936
 9915TIP3    H251237   6.076   6.908  14.022  0.3316 -0.1661 -0.3722
 9916TIP3   OH251238   1.413   6.603  16.321 -0.0310  0.3080 -0.4946
 9916TIP3    H151239   1.421   6.603  16.225  0.5820 -1.5431 -0.4816
 9916TIP3    H251240   1.501   6.625  16.351  0.2166 -0.7623 -0.3831
 9917TIP3   OH251241   5.131   6.616   5.684 -0.1255 -0.9174 -0.2751
 9917TIP3    H151242   5.149   6.537   5.736  0.6048  0.4029  1.5860
 9917TIP3    H251243   5.179   6.686   5.729 -1.0116  0.6683 -1.6793
 9918TIP3   OH251244   6.489   1.052   3.805 -0.1884  0.1065 -0.2862
 9918TIP3    H151245   6.533   0.971   3.831  2.5335  0.3693 -3.4089
 9918TIP3    H251246   6.497   1.109   3.882  0.1203 -1.7191  1.0964
 9919TIP3   OH251247   5.724   5.892   1.873 -0.1159  0.4646 -0.2668
 9919TIP3    H151248   5.687   5.938   1.948  2.0551  1.3215  0.3377
 9919TIP3    H251249   5.699   5.944   1.797 -2.2553 -0.3634 -0.2060
 9920TIP3   OH251250   2.192   3.584   2.165 -0.3339  0.4719 -0.3350
 9920TIP3    H151251   2.139   3.574   2.244 -0.9727  1.6771 -0.5792
 9920TIP3    H251252   2.264   3.640   2.193  0.5048 -0.6611 -0.1573
 9921TIP3   OH251253   6.319   0.086   4.251  0.1676  0.2302 -0.4426
 9921TIP3    H151254   6.320   0.129   4.337 -0.2023 -0.3038 -0.1646
 9921TIP3    H251255   6.406   0.048   4.242 -0.5784 -1.9258  0.8535
 9922TIP3   OH251256   4.819   2.758   4.352 -0.4482 -0.4937  0.3810
 9922TIP3    H151257   4.888   2.776   4.289  2.9857 -0.6913  3.7603
 9922TIP3    H251258   4.827   2.827   4.418 -1.9954 -1.7703  2.0197
 9923TIP3   OH251259   6.307   6.687  15.443 -0.5526  0.6737  0.2495
 9923TIP3    H151260   6.391   6.664  15.403 -1.6541 -0.2424 -1.6663
 9923TIP3    H251261   6.327   6.763  15.498  1.7518 -0.2893  0.8909
 9924TIP3   OH251262   3.762   5.629   6.543  0.9854 -0.0921  0.4681
 9924TIP3    H151263   3.813   5.704   6.512  1.7541 -0.6892  0.2553
 9924TIP3    H251264   3.793   5.555   6.490  0.2009 -0.5520  0.6325
 9925TIP3   OH251265   3.707   4.606   5.555  0.6941 -0.2646 -0.6674
 9925TIP3    H151266   3.739   4.570   5.638  0.8829  2.3628  0.4934
 9925TIP3    H251267   3.786   4.614   5.500  1.1694  0.9813  0.1403
 9926TIP3   OH251268   6.654   1.403  16.994 -0.4152 -0.4888 -0.0720
 9926TIP3    H151269   6.690   1.462  16.928  1.7454  1.2515  2.4389
 9926TIP3    H251270   6.730   1.358  17.031 -0.8540  1.4428  3.7105
 9927TIP3   OH251271   5.364   5.625  16.620 -0.1577 -0.5515 -0.4134
 9927TIP3    H151272   5.427   5.610  16.690 -0.8097  2.3136  0.9331
 9927TIP3    H251273   5.287   5.660  16.665 -1.1477 -0.0318 -2.4240
 9928TIP3   OH251274   5.862   5.051  13.798  0.1514 -0.2026 -0.7616
 9928TIP3    H151275   5.893   5.130  13.842  0.1825  0.1239 -1.3690
 9928TIP3    H251276   5.775   5.075  13.765 -0.2721 -0.7421 -0.0817
 9929TIP3   OH251277   6.415   6.616   1.182 -0.3992 -0.2910  0.4161
 9929TIP3    H151278   6.336   6.571   1.152 -0.7470  0.3445  0.3640
 9929TIP3    H251279   6.382   6.689   1.236  0.1195  0.4666 -0.2746
 9930TIP3   OH251280   4.572   6.655  13.918 -0.3423  0.1993 -0.6768
 9930TIP3    H151281   4.612   6.724  13.970  1.2284 -1.2143  0.0990
 9930TIP3    H251282   4.624   6.577  13.937 -2.9568 -1.5899 -0.2896
 9931TIP3   OH251283   3.986   5.431  17.043  0.3075 -0.0524  0.6796
 9931TIP3    H151284   4.030   5.476  16.970  2.1112 -1.8420  0.5775
 9931TIP3    H251285   3.989   5.338  17.019 -3.6405 -0.3821  0.6810
 9932TIP3   OH251286   4.011   0.452  13.769  0.5158 -0.3370 -0.3350
 9932TIP3    H151287   4.083   0.482  13.714  1.8723  0.7553  1.9051
 9932TIP3    H251288   4.036   0.363  13.794  1.5452  0.2975  1.0391
 9933TIP3   OH251289   3.716   0.405  12.302  0.0033  0.3780 -0.1187
 9933TIP3    H151290   3.687   0.484  12.347 -0.8181  0.4192 -0.6955
 9933TIP3    H251291   3.809   0.420  12.283  0.4230  0.2871  1.6698
 9934TIP3   OH251292   0.734   3.993  15.448  0.3060 -0.0883  0.2099
 9934TIP3    H151293   0.709   3.910  15.408  2.8858 -0.6203 -0.5196
 9934TIP3    H251294   0.821   3.976  15.484  0.7474  2.2100  0.3534
 9935TIP3   OH251295   0.322   3.399  11.381  0.0728  0.5203  0.7031
 9935TIP3    H151296   0.390   3.416  11.316  1.1084  1.6163  2.0140
 9935TIP3    H251297   0.359   3.332  11.439  0.1056  1.1933  1.4838
 9936TIP3   OH251298   5.375   0.940  14.782  0.1029  0.6378  0.0184
 9936TIP3    H151299   5.305   0.923  14.720  0.4689  0.8469 -0.4567
 9936TIP3    H251300   5.353   1.025  14.820  0.5817  1.1477 -0.8146
 9937TIP3   OH251301   2.920   6.830  16.870  0.1570  0.2490 -0.1223
 9937TIP3    H151302   2.835   6.822  16.826  0.0498 -0.5180  0.2059
 9937TIP3    H251303   2.958   6.911  16.835  0.1614 -0.4210 -1.7709
 9938TIP3   OH251304   6.155   0.308   3.557  0.4779  0.3011  0.4726
 9938TIP3    H151305   6.134   0.337   3.469  2.9689 -0.1998 -0.3513
 9938TIP3    H251306   6.077   0.330   3.609 -1.2552  0.1206 -1.9221
 9939TIP3   OH251307   5.729   6.317   3.146 -0.3436  0.7126 -0.0107
 9939TIP3    H151308   5.689   6.264   3.078 -0.5437  0.9543 -0.0840
 9939TIP3    H251309   5.675   6.397   3.149 -0.3417  0.7017  0.4306
 9940TIP3   OH251310   5.686   1.736  15.537  0.8214 -0.2662 -0.3069
 9940TIP3    H151311   5.759   1.715  15.479  0.7453  0.0914 -0.5362
 9940TIP3    H251312   5.717   1.811  15.588  0.5131  0.0598 -0.5962
 9941TIP3   OH251313   0.850   3.813   3.445  0.0844 -0.3129 -0.5437
 9941TIP3    H151314   0.877   3.868   3.519 -0.7034  0.7848 -1.0544
 9941TIP3    H251315   0.842   3.726   3.483  1.3672 -0.1111  0.2860
 9942TIP3   OH251316   4.710   2.181   5.034 -0.0998 -0.0345  0.1486
 9942TIP3    H151317   4.678   2.146   4.951  1.2206 -2.0496  0.4309
 9942TIP3    H251318   4.731   2.273   5.015 -0.2430 -0.3299 -1.6108
 9943TIP3   OH251319   3.373   1.004   3.181  0.0684 -0.3373 -0.3989
 9943TIP3    H151320   3.393   0.950   3.257 -0.2998 -0.0290 -0.0800
 9943TIP3    H251321   3.316   0.949   3.127 -1.1050  0.0607  0.3849
 9944TIP3   OH251322   0.442   1.060   0.573  0.1242 -0.3253 -0.0331
 9944TIP3    H151323   0.475   0.971   0.588 -1.7538 -1.2358 -1.0070
 9944TIP3    H251324   0.481   1.086   0.489 -0.0152 -0.5752 -0.1764
 9945TIP3   OH251325   1.852   4.657   5.097 -0.1763  0.7096 -0.1207
 9945TIP3    H151326   1.909   4.631   5.170 -0.5332 -1.7403 -0.6434
 9945TIP3    H251327   1.774   4.691   5.140  1.3056  3.5425  0.6060
 9946TIP3   OH251328   0.931   3.191  12.870  0.0091 -0.3080 -0.3548
 9946TIP3    H151329   0.845   3.154  12.889  0.6023 -0.5939  2.1253
 9946TIP3    H251330   0.967   3.214  12.956  1.9400  0.9041 -1.4066
 9947TIP3   OH251331   0.718   1.610   1.468  0.4527  0.1148 -0.0266
 9947TIP3    H151332   0.764   1.686   1.504  0.0974  0.0574  0.5657
 9947TIP3    H251333   0.712   1.628   1.374 -1.1135  1.6547  0.2917
 9948TIP3   OH251334   4.585   3.340  14.392 -0.3621  0.2526  0.7800
 9948TIP3    H151335   4.642   3.341  14.315 -0.6712 -1.0560  0.5153
 9948TIP3    H251336   4.529   3.417  14.380 -0.4877  0.0118 -0.3778
 9949TIP3   OH251337   2.569   1.887  13.282 -0.4826  0.2027 -0.5212
 9949TIP3    H151338   2.496   1.947  13.264  0.3962  1.3972 -0.2142
 9949TIP3    H251339   2.641   1.919  13.229  1.6088  2.6883  3.3374
 9950TIP3   OH251340   2.880   3.077   1.940 -0.5573  0.0594 -0.1051
 9950TIP3    H151341   2.924   3.018   2.001  0.5114 -0.4033 -1.2667
 9950TIP3    H251342   2.808   3.024   1.904  0.7305 -0.8170 -1.5590
 9951TIP3   OH251343   6.095   0.621  13.309  0.0449 -0.3015 -0.5630
 9951TIP3    H151344   6.136   0.576  13.236  0.3643  0.7896 -1.0795
 9951TIP3    H251345   6.154   0.606  13.383 -0.7413 -2.1833 -0.2587
 9952TIP3   OH251346   4.868   3.483  16.717 -0.3794  0.0637 -0.2199
 9952TIP3    H151347   4.822   3.400  16.708 -0.8772  0.2473  0.4815
 9952TIP3    H251348   4.809   3.537  16.770  0.4927  0.4204  0.4179
 9953TIP3   OH251349   3.062   2.237   3.955 -0.3946 -0.1790 -0.4382
 9953TIP3    H151350   2.970   2.219   3.977 -0.3018  0.9752  1.0606
 9953TIP3    H251351   3.108   2.230   4.039  0.4310  1.8366 -0.6781
 9954TIP3   OH251352   5.343   0.274  14.212 -0.6161 -0.2794  0.0449
 9954TIP3    H151353   5.380   0.238  14.131 -0.3929 -0.9463  0.4357
 9954TIP3    H251354   5.361   0.368  14.207 -0.8840 -0.2641 -0.8216
 9955TIP3   OH251355   4.492   2.336   5.342 -0.1328 -0.2755  0.6624
 9955TIP3    H151356   4.444   2.340   5.424  0.0616 -1.5988  0.8645
 9955TIP3    H251357   4.443   2.393   5.282 -1.0481 -0.3756  1.3024
 9956TIP3   OH251358   5.994   1.748   2.161  0.2068 -0.2078  0.2845
 9956TIP3    H151359   5.903   1.750   2.129 -0.1579  1.1722  1.3209
 9956TIP3    H251360   6.028   1.835   2.140  1.4027 -0.7967 -0.3169
 9957TIP3   OH251361   2.592   3.149   1.596 -0.2933 -0.3012 -0.4824
 9957TIP3    H151362   2.677   3.132   1.637  0.1805  1.3305 -0.7136
 9957TIP3    H251363   2.614   3.181   1.508 -1.0396  1.9269  0.0871
 9958TIP3   OH251364   4.753   2.878  15.021  0.1549 -0.0444  0.3268
 9958TIP3    H151365   4.821   2.814  15.041  0.4138  0.7292  2.0988
 9958TIP3    H251366   4.765   2.947  15.085  1.1430  2.8403 -2.6910
 9959TIP3   OH251367   0.460   1.648   6.196 -0.1512  0.4345  0.1827
 9959TIP3    H151368   0.525   1.706   6.236 -0.4862  0.2943  0.9537
 9959TIP3    H251369   0.407   1.617   6.270 -1.3815  0.9041 -0.4708
 9960TIP3   OH251370   2.922   0.097   5.145 -0.2795  0.0445 -0.6794
 9960TIP3    H151371   2.878   0.022   5.185  1.1696 -1.5832 -2.0096
 9960TIP3    H251372   3.009   0.065   5.121  1.8565  3.1433  1.9571
 9961TIP3   OH251373   5.156   3.969  17.185 -0.2201 -0.2471 -0.6981
 9961TIP3    H151374   5.082   4.024  17.161 -0.0207  0.3280 -0.0361
 9961TIP3    H251375   5.230   4.007  17.137 -0.0045  0.3220  0.0705
 9962TIP3   OH251376   1.430   4.822  17.097  0.4651 -0.5509 -0.5259
 9962TIP3    H151377   1.487   4.746  17.111  0.3769 -0.4046  0.6725
 9962TIP3    H251378   1.416   4.824  17.002  0.8396 -1.7584 -0.6166
 9963TIP3   OH251379   3.715   1.677  12.940 -0.4945  0.9505  0.4948
 9963TIP3    H151380   3.743   1.601  12.992 -1.9090 -0.1760 -0.3244
 9963TIP3    H251381   3.787   1.739  12.948  0.8110 -0.5646  1.0337
 9964TIP3   OH251382   3.125   2.122  14.560 -0.1531  0.3128  0.5245
 9964TIP3    H151383   3.215   2.148  14.579  0.4705 -0.9723 -0.5394
 9964TIP3    H251384   3.122   2.111  14.465 -1.2855 -0.2001  0.5948
 9965TIP3   OH251385   2.790   2.310   3.344  0.0858 -0.9317  0.0716
 9965TIP3    H151386   2.754   2.259   3.417  0.6121 -1.8169 -0.2732
 9965TIP3    H251387   2.882   2.325   3.367 -0.0628 -0.1203  0.1702
 9966TIP3   OH251388   1.355   3.360  13.459 -0.2560 -0.0059  0.1219
 9966TIP3    H151389   1.311   3.429  13.410  0.0227  0.8476  1.0437
 9966TIP3    H251390   1.346   3.282  13.405  0.8040  1.0869 -1.7146
 9967TIP3   OH251391   2.941   4.180   5.602  0.3800  0.4611  0.3191
 9967TIP3    H151392   2.970   4.271   5.607  1.6228  0.0400  1.6686
 9967TIP3    H251393   3.012   4.135   5.556 -0.9402  0.3996 -1.7680
 9968TIP3   OH251394   4.463   1.242   4.615 -0.0631  0.5987  0.0667
 9968TIP3    H151395   4.435   1.288   4.694  3.2237  1.5667  0.8228
 9968TIP3    H251396   4.485   1.312   4.553 -0.6358 -0.1139 -0.9658
 9969TIP3   OH251397   5.457   0.060  15.953  0.4535 -0.6067  0.2529
 9969TIP3    H151398   5.366   0.032  15.946  0.2831 -0.0353  0.0777
 9969TIP3    H251399   5.480   0.087  15.864  0.9501 -1.2080  0.1969
 9970TIP3   OH251400   1.522   5.766   3.172  0.7380 -0.9622 -0.3714
 9970TIP3    H151401   1.429   5.752   3.190  0.6297  0.4753  0.3160
 9970TIP3    H251402   1.557   5.801   3.254  1.6026 -0.2849 -1.0127
 9971TIP3   OH251403   2.871   0.193  16.091 -0.5385  0.3153  0.1147
 9971TIP3    H151404   2.887   0.207  16.185  0.3019 -0.0017  0.0289
 9971TIP3    H251405   2.916   0.265  16.048  0.8798 -0.6764 -0.1431
 9972TIP3   OH251406   0.412   1.584  17.095 -0.6849 -0.3342  0.5223
 9972TIP3    H151407   0.397   1.635  17.174  0.6759  0.8285  0.0686
 9972TIP3    H251408   0.432   1.496  17.127  0.2498  0.2139  1.5010
 9973TIP3   OH251409   6.345   0.666   0.166  0.6405  0.0540  0.1688
 9973TIP3    H151410   6.361   0.636   0.256  1.8784  0.9739  0.2882
 9973TIP3    H251411   6.333   0.761   0.175 -1.2055 -0.0876 -0.4281
 9974TIP3   OH251412   3.913   6.565  13.003  0.4147 -0.1225 -0.3538
 9974TIP3    H151413   3.906   6.471  12.987  1.1264  0.0464 -1.8779
 9974TIP3    H251414   3.840   6.603  12.954 -0.3633  0.0803  0.9258
 9975TIP3   OH251415   1.817   2.212   0.316  0.2902 -0.3126 -0.0530
 9975TIP3    H151416   1.886   2.178   0.373 -0.8774 -0.5337  1.2777
 9975TIP3    H251417   1.814   2.151   0.243  1.2676 -0.4897  0.0377
 9976TIP3   OH251418   3.967   6.271  13.003 -0.2412 -0.4783  0.0003
 9976TIP3    H151419   4.048   6.256  13.051 -0.5642  0.4460  0.8798
 9976TIP3    H251420   3.915   6.192  13.019  0.0327 -0.5813  0.3985
 9977TIP3   OH251421   1.483   4.044  11.439  0.1634 -0.7218  0.0944
 9977TIP3    H151422   1.418   4.026  11.507  0.0763  1.7196  0.7418
 9977TIP3    H251423   1.433   4.043  11.357 -0.4723 -0.0470  0.4626
 9978TIP3   OH251424   3.585   6.018  16.151  0.1936 -0.0556  0.4152
 9978TIP3    H151425   3.575   5.969  16.233 -0.1028 -0.8211 -0.0704
 9978TIP3    H251426   3.547   5.961  16.084  2.9108 -0.7294 -0.7091
 9979TIP3   OH251427   2.743   5.423  12.403  0.0749  0.5017  0.1391
 9979TIP3    H151428   2.831   5.450  12.429 -0.1927 -0.1106  1.7764
 9979TIP3    H251429   2.756   5.343  12.352  0.3562 -1.5606  3.1987
 9980TIP3   OH251430   4.748   1.249  14.637  0.1265  0.4947 -0.2211
 9980TIP3    H151431   4.733   1.300  14.558 -1.3608  1.2900  0.5162
 9980TIP3    H251432   4.684   1.177  14.632 -1.1318  1.4654  0.9602
 9981TIP3   OH251433   4.539   4.241  12.552  0.3616 -0.0324 -0.4442
 9981TIP3    H151434   4.543   4.236  12.648 -0.1403  1.6769 -0.2844
 9981TIP3    H251435   4.450   4.272  12.534 -0.8023 -3.6592 -1.7062
 9982TIP3   OH251436   3.104   5.807  12.657  0.1621  0.0268 -0.7366
 9982TIP3    H151437   3.101   5.711  12.651 -1.7863 -0.0523  0.6323
 9982TIP3    H251438   3.188   5.830  12.617  1.4429 -2.3616  0.3263
 9983TIP3   OH251439   4.478   0.009  12.130  0.1575 -0.3203 -0.3035
 9983TIP3    H151440   4.527   0.023  12.211 -1.7684 -2.7016  1.4428
 9983TIP3    H251441   4.518  -0.068  12.090 -0.9973 -1.2625  0.2712
 9984TIP3   OH251442   4.499   4.556  17.142 -0.8413 -0.5858  0.1589
 9984TIP3    H151443   4.496   4.485  17.206 -1.8232 -0.2678  0.4782
 9984TIP3    H251444   4.444   4.625  17.179 -0.1364  0.2347 -0.2842
 9985TIP3   OH251445   3.611   1.124  11.360 -0.5876  0.3740  0.0767
 9985TIP3    H151446   3.640   1.041  11.323 -1.0426  0.8671 -1.4799
 9985TIP3    H251447   3.684   1.154  11.414  0.3148 -0.1705 -0.8072
 9986TIP3   OH251448   5.575   2.852  15.151 -0.3978 -0.3744 -0.1670
 9986TIP3    H151449   5.509   2.865  15.219 -1.2794 -0.8898 -0.9121
 9986TIP3    H251450   5.651   2.900  15.183 -0.9572 -0.1949  0.9488
 9987TIP3   OH251451   4.227   5.843   2.693  0.0160 -0.0503  0.3277
 9987TIP3    H151452   4.304   5.888   2.659 -1.4291  1.1100 -1.6427
 9987TIP3    H251453   4.231   5.755   2.657  2.0417 -1.1296  2.9137
 9988TIP3   OH251454   4.636   2.762  16.932  0.0790 -0.3235 -0.4562
 9988TIP3    H151455   4.682   2.688  16.970 -0.1104 -1.1897 -1.8580
 9988TIP3    H251456   4.681   2.839  16.967  1.3335 -1.1207 -0.2658
 9989TIP3   OH251457   4.385   1.570  15.552 -0.0877  0.0868 -0.3914
 9989TIP3    H151458   4.421   1.482  15.537  0.3150  0.2703 -0.5192
 9989TIP3    H251459   4.296   1.554  15.584 -0.3273 -0.3515 -1.2563
 9990TIP3   OH251460   0.747   2.555  11.356  0.2509  0.5230  0.6298
 9990TIP3    H151461   0.829   2.543  11.403 -0.1733 -0.0041  1.2570
 9990TIP3    H251462   0.682   2.571  11.424 -0.4559 -0.7069  0.2782
 9991TIP3   OH251463   6.294   3.553  12.651  0.4302  0.4057  0.1031
 9991TIP3    H151464   6.298   3.474  12.597 -1.7029  1.2032 -1.3354
 9991TIP3    H251465   6.380   3.594  12.638  0.9424 -0.7831 -0.5142
 9992TIP3   OH251466   2.236   3.711  14.575 -0.1204  0.7501 -0.7036
 9992TIP3    H151467   2.237   3.806  14.563 -1.0396  0.7600 -0.7745
 9992TIP3    H251468   2.301   3.695  14.643  0.1899  1.4046 -0.8321
 9993TIP3   OH251469   3.280   0.053   0.257  0.2583 -0.2295 -0.1329
 9993TIP3    H151470   3.219   0.012   0.195  0.8710 -1.2028 -0.1231
 9993TIP3    H251471   3.327   0.118   0.205  0.8398 -1.1056 -0.7474
 9994TIP3   OH251472   6.770   1.191  12.565  1.0118  0.6902  0.0530
 9994TIP3    H151473   6.713   1.249  12.515 -0.5081  1.2450  2.3105
 9994TIP3    H251474   6.839   1.166  12.503 -0.3430  1.9215 -2.0531
 9995TIP3   OH251475   3.073   5.290  11.427  0.1738  0.6827 -0.3277
 9995TIP3    H151476   3.138   5.328  11.368 -0.9378  1.6368 -0.9880
 9995TIP3    H251477   3.039   5.214  11.380 -0.2699  1.0820 -0.6638
 9996TIP3   OH251478   1.884   6.278  13.726  0.4212  0.0623 -0.2354
 9996TIP3    H151479   1.810   6.216  13.725 -0.2404  0.7044  2.0059
 9996TIP3    H251480   1.962   6.223  13.720 -0.1301 -1.1504  2.2670
 9997TIP3   OH251481   1.614   4.954  15.934 -0.6035  0.3643  0.3020
 9997TIP3    H151482   1.655   4.926  15.852 -0.4577  2.5415 -0.4125
 9997TIP3    H251483   1.676   4.926  16.002 -0.7254 -1.4545 -0.2716
 9998TIP3   OH251484   1.824   3.414  15.994 -0.2274 -0.3423  0.2133
 9998TIP3    H151485   1.736   3.389  16.022 -1.0814  0.1895 -1.8040
 9998TIP3    H251486   1.861   3.458  16.071 -1.0927 -1.9305  1.6291
 9999TIP3   OH251487   1.309   3.437   0.837 -0.4637 -0.3404 -0.2109
 9999TIP3    H151488   1.352   3.357   0.868  0.1604 -0.7564 -2.0502
 9999TIP3    H251489   1.216   3.414   0.833 -0.7942  0.1369  2.4605
10000TIP3   OH251490   3.134   1.433  13.348  0.2205  0.5943  0.2773
10000TIP3    H151491   3.161   1.346  13.316 -1.7879  0.6587 -1.8851
10000TIP3    H251492   3.201   1.457  13.412  0.5796 -2.7641  1.3805
10001TIP3   OH251493   3.999   4.608   3.949  0.1866  0.2635  0.1683
10001TIP3    H151494   3.923   4.613   3.892  0.2230  0.2596  0.1194
10001TIP3    H251495   3.973   4.548   4.020  1.2210 -2.3706 -1.5095
10002TIP3   OH251496   0.123   6.521   2.364  0.8281  0.2008  0.3613
10002TIP3    H151497   0.048   6.495   2.311  1.2277  1.0296 -0.6381
10002TIP3    H251498   0.086   6.539   2.450 -0.1255  0.6199 -0.1156
10003TIP3   OH251499   4.864   6.764  13.192 -0.4073 -0.1360  0.2014
10003TIP3    H151500   4.809   6.815  13.132 -0.4085 -1.2389 -0.7841
10003TIP3    H251501   4.803   6.735  13.260 -0.5094  0.7246  0.4932
10004TIP3   OH251502   2.434   4.686  14.284 -0.0034 -0.3240 -1.0550
10004TIP3    H151503   2.477   4.754  14.335  2.1163 -1.4518 -1.2370
10004TIP3    H251504   2.388   4.632  14.349  3.2198 -2.1546 -0.0729
10005TIP3   OH251505   3.214   5.157  11.723 -0.0367  0.4738 -0.1357
10005TIP3    H151506   3.190   5.247  11.742 -0.1220  0.4512 -0.1329
10005TIP3    H251507   3.254   5.160  11.636 -0.1673  0.4928 -0.1943
10006TIP3   OH251508   1.627   3.346  13.527  0.1152 -0.1698 -0.1303
10006TIP3    H151509   1.546   3.379  13.489  1.7789  2.6437 -1.5478
10006TIP3    H251510   1.639   3.260  13.486 -1.3634  0.0422 -1.0734
10007TIP3   OH251511   3.689   1.421   1.271  0.0174  0.3671 -0.2793
10007TIP3    H151512   3.635   1.370   1.211  0.4825  0.2779 -0.6197
10007TIP3    H251513   3.764   1.449   1.219  0.1143  0.8098  0.0927
10008TIP3   OH251514   3.322   1.759  16.191 -0.4733 -0.4039 -0.5122
10008TIP3    H151515   3.294   1.779  16.280  1.9567  1.9813 -0.1284
10008TIP3    H251516   3.360   1.672  16.196 -0.0347 -0.1571  0.9078
10009TIP3   OH251517   0.925   6.536   5.296  0.7010  0.4152  0.0236
10009TIP3    H151518   0.986   6.472   5.258 -0.5542 -0.8808  0.0893
10009TIP3    H251519   0.915   6.509   5.387 -1.6896 -0.8722 -0.5202
10010TIP3   OH251520   6.352   5.728   1.082 -0.0279  0.2836  0.7270
10010TIP3    H151521   6.390   5.813   1.106  2.4252 -0.7655  0.7866
10010TIP3    H251522   6.259   5.747   1.070  0.5225  3.1222  0.0999
10011TIP3   OH251523   0.412   0.897  11.139  0.4064 -0.0975 -0.5478
10011TIP3    H151524   0.361   0.835  11.192 -0.3768  0.2554 -0.8714
10011TIP3    H251525   0.496   0.903  11.184 -0.3042  0.3342  0.7755
10012TIP3   OH251526   5.635   5.147  16.278 -0.7632  0.4481  0.0696
10012TIP3    H151527   5.670   5.181  16.195  0.2373 -1.1645 -0.2313
10012TIP3    H251528   5.651   5.052  16.272 -0.3669  0.3429  2.2368
10013TIP3   OH251529   6.637   2.035  14.492 -0.4281  0.1259  0.3452
10013TIP3    H151530   6.603   1.960  14.443  0.5275  0.8029 -1.4318
10013TIP3    H251531   6.577   2.045  14.566 -1.5934 -1.2921 -0.3695
10014TIP3   OH251532   2.917   0.670  16.038 -0.1289  0.8210  0.6969
10014TIP3    H151533   2.849   0.731  16.067  1.1797  3.1535 -0.7618
10014TIP3    H251534   2.994   0.726  16.023  0.5305 -0.7806 -2.8872
10015TIP3   OH251535   1.689   0.496   2.698  0.0789  0.1536 -0.2348
10015TIP3    H151536   1.741   0.449   2.763 -0.6904  0.2912  0.4959
10015TIP3    H251537   1.751   0.553   2.654  0.9869 -1.3374 -0.9610
10016TIP3   OH251538   5.190   5.858   0.725 -0.1344  0.5079 -0.0592
10016TIP3    H151539   5.255   5.894   0.664  0.1100  0.2749  0.0598
10016TIP3    H251540   5.219   5.767   0.739 -0.3104  0.4963  0.2344
10017TIP3   OH251541   0.835   5.659   3.266  0.3927  0.5828 -0.0416
10017TIP3    H151542   0.755   5.623   3.226  1.3159 -2.5548  0.6753
10017TIP3    H251543   0.885   5.694   3.192 -0.5370  0.3145 -0.8193
10018TIP3   OH251544   2.487   6.053  12.400  0.1208 -0.0566 -0.3265
10018TIP3    H151545   2.578   6.062  12.431 -0.5120 -1.4224  2.2408
10018TIP3    H251546   2.436   6.109  12.458 -0.8216 -0.2908 -0.9069
10019TIP3   OH251547   4.326   5.373  17.200 -0.2036  0.0952  0.1079
10019TIP3    H151548   4.342   5.464  17.222 -1.8889  0.5779 -0.4835
10019TIP3    H251549   4.246   5.375  17.148  0.1755 -1.6417 -0.6172
10020TIP3   OH251550   3.933   3.154   1.218  0.1990 -0.4198  0.4960
10020TIP3    H151551   4.010   3.097   1.228  0.6005  0.2648  1.4092
10020TIP3    H251552   3.911   3.181   1.307 -2.0098 -1.7356  0.4163
10021TIP3   OH251553   0.505   2.903  15.217  0.5253 -0.1429 -0.1028
10021TIP3    H151554   0.513   2.983  15.165  1.6047 -0.9309 -1.1959
10021TIP3    H251555   0.473   2.838  15.155  2.0122 -1.1501  0.1572
10022TIP3   OH251556   5.332   1.988  15.022  0.1097  0.0118 -0.3139
10022TIP3    H151557   5.325   1.906  15.073  1.2068 -0.2854 -0.6110
10022TIP3    H251558   5.300   2.056  15.082  0.6325 -0.4381  0.5023
10023TIP3   OH251559   5.569   1.389   3.273 -0.4827 -0.3372  0.0453
10023TIP3    H151560   5.571   1.425   3.184 -0.3980 -0.6806 -0.0943
10023TIP3    H251561   5.489   1.337   3.276 -1.3207  0.9322  0.6800
10024TIP3   OH251562   4.874   5.245   4.655 -0.1941  0.1577 -0.4343
10024TIP3    H151563   4.921   5.199   4.725  1.5225 -0.2571 -1.8039
10024TIP3    H251564   4.837   5.322   4.698  0.3246 -0.3784  1.0462
10025TIP3   OH251565   5.787   1.286  12.996 -0.5713  0.1741  0.3932
10025TIP3    H151566   5.878   1.315  12.993  0.2885 -2.3232 -1.6855
10025TIP3    H251567   5.747   1.322  12.917 -0.6220 -0.8229 -0.0551
10026TIP3   OH251568   0.107   1.681   4.423  0.4882 -0.4791  0.5397
10026TIP3    H151569   0.012   1.688   4.410  0.5817 -0.1249  0.0322
10026TIP3    H251570   0.129   1.757   4.476  0.6345 -0.0226 -0.1676
10027TIP3   OH251571   6.047   6.163  12.222 -0.4168 -0.1727  0.0542
10027TIP3    H151572   6.009   6.076  12.235  0.1761 -0.3419  0.6715
10027TIP3    H251573   6.125   6.147  12.170  1.1950 -0.3588  2.3992
10028TIP3   OH251574   3.486   5.606  13.608 -0.1749  0.4892 -0.0809
10028TIP3    H151575   3.513   5.576  13.521  0.6236 -0.5986  0.5137
10028TIP3    H251576   3.567   5.604  13.659 -0.6559  1.0352  0.7216
10029TIP3   OH251577   4.973   5.611   2.301  0.1420  0.5093  0.3270
10029TIP3    H151578   4.884   5.648   2.294  0.1432  0.2833 -1.7833
10029TIP3    H251579   5.024   5.661   2.237  0.6195 -1.7798 -1.1917
10030TIP3   OH251580   0.366   4.492  11.886 -0.4508 -0.1768  1.5494
10030TIP3    H151581   0.439   4.472  11.944 -0.9658 -2.1547  1.5814
10030TIP3    H251582   0.397   4.470  11.799 -0.4403  0.6425  1.3369
10031TIP3   OH251583   1.394   1.439  10.631  0.3207 -0.6433  0.1115
10031TIP3    H151584   1.424   1.526  10.656  0.6368  0.1236 -2.6103
10031TIP3    H251585   1.475   1.389  10.616  0.1841 -0.5554 -0.9605
10032TIP3   OH251586   2.898   0.361  14.303  0.1593 -0.3735 -0.0461
10032TIP3    H151587   2.912   0.344  14.210  1.4402  0.6984 -0.0786
10032TIP3    H251588   2.940   0.287  14.347 -1.2207 -1.3470 -0.3112
10033TIP3   OH251589   1.083   3.934  10.576 -0.1952 -0.0112 -0.0140
10033TIP3    H151590   1.089   3.850  10.530  2.3200  0.5290 -0.8578
10033TIP3    H251591   1.015   3.921  10.642  1.1282 -3.2282  0.8974
10034TIP3   OH251592   3.932   2.531  14.550 -0.0017 -0.8963 -0.0122
10034TIP3    H151593   3.993   2.596  14.516  1.3341 -1.3734  1.3612
10034TIP3    H251594   3.847   2.575  14.549  0.6311  0.3579 -0.4312
10035TIP3   OH251595   4.219   4.777  12.472 -0.4028  0.3448  0.0388
10035TIP3    H151596   4.174   4.813  12.548 -1.1338  1.7260 -1.0182
10035TIP3    H251597   4.291   4.838  12.456 -1.5522  1.3375 -1.6678
10036TIP3   OH251598   1.220   1.611  15.788  0.3761  0.2906  0.1148
10036TIP3    H151599   1.191   1.587  15.700 -0.0136 -0.3306  0.4083
10036TIP3    H251600   1.151   1.579  15.846  0.5719  0.8010  0.6418
10037TIP3   OH251601   1.219   4.478   1.130  1.0207 -0.2761  0.7490
10037TIP3    H151602   1.299   4.459   1.179  2.0190  1.3483 -0.1752
10037TIP3    H251603   1.236   4.562   1.087 -1.4135  0.4276  0.9995
10038TIP3   OH251604   6.479   4.174   0.202  0.3491 -0.1346  0.2099
10038TIP3    H151605   6.395   4.218   0.208  1.2141  1.4455  1.7023
10038TIP3    H251606   6.464   4.087   0.239 -0.4270  0.4692  1.3496
10039TIP3   OH251607   5.027   5.633   0.145 -0.0180  0.9552 -0.5199
10039TIP3    H151608   5.099   5.697   0.138 -0.7212  1.6258 -1.8990
10039TIP3    H251609   5.029   5.606   0.237  2.0659  0.8664 -0.5428
10040TIP3   OH251610   1.200   3.852   0.214 -0.2601 -0.2205  0.7912
10040TIP3    H151611   1.153   3.785   0.264  0.8358 -1.6405  0.0049
10040TIP3    H251612   1.167   3.935   0.247 -3.5180 -1.1085  0.0878
10041TIP3   OH251613   3.907   1.553   4.216 -0.2401  0.4373 -0.1748
10041TIP3    H151614   3.842   1.509   4.272 -0.6313  1.4926  0.2354
10041TIP3    H251615   3.857   1.580   4.139 -0.0081  0.1927 -0.4110
10042TIP3   OH251616   2.005   0.722   3.889 -0.5425 -0.3191 -0.0733
10042TIP3    H151617   2.013   0.765   3.804  0.6415  1.1828  0.7577
10042TIP3    H251618   1.921   0.752   3.924 -0.5508 -0.1238 -0.2643
10043TIP3   OH251619   6.143   2.330  13.195  0.4398  0.3330  0.6386
10043TIP3    H151620   6.217   2.277  13.165  0.3154 -0.0823  1.0369
10043TIP3    H251621   6.177   2.419  13.198  0.2734  0.5003 -1.3017
10044TIP3   OH251622   3.785   4.171   5.656 -0.9642 -0.2967 -0.3710
10044TIP3    H151623   3.821   4.096   5.704 -0.4489 -0.0359 -0.3440
10044TIP3    H251624   3.845   4.243   5.676 -1.8858  0.3282  0.2406
10045TIP3   OH251625   3.706   3.727   1.527  0.6762  0.0859 -0.7566
10045TIP3    H151626   3.731   3.685   1.444  1.4078 -0.5670 -0.2234
10045TIP3    H251627   3.788   3.763   1.560  0.9931 -2.0961  1.0441
10046TIP3   OH251628   5.462   1.047  11.043  0.4924 -0.3074 -0.1448
10046TIP3    H151629   5.505   1.128  11.068 -0.9910  1.3920 -2.6680
10046TIP3    H251630   5.502   1.023  10.959 -1.2230 -0.4126 -0.9782
10047TIP3   OH251631   4.071   6.501   6.643  0.0134  0.4864  0.1921
10047TIP3    H151632   4.089   6.411   6.671 -1.4184 -0.5735 -2.0099
10047TIP3    H251633   3.975   6.506   6.640  0.0682  2.0267 -0.0038
10048TIP3   OH251634   1.138   2.828   3.548 -0.0153 -0.3895 -0.0280
10048TIP3    H151635   1.107   2.850   3.637  1.8653 -0.6209  0.7316
10048TIP3    H251636   1.233   2.839   3.553  0.4988 -3.5424 -1.1023
10049TIP3   OH251637   3.053   5.509  15.075  1.2435  0.2355  0.2618
10049TIP3    H151638   3.049   5.604  15.061  2.7171  0.2925  0.0277
10049TIP3    H251639   3.022   5.497  15.165  0.0334  0.8087 -0.0550
10050TIP3   OH251640   2.081   1.953  12.808 -0.5423 -0.2570 -0.0053
10050TIP3    H151641   2.172   1.984  12.805 -0.7471  0.3985  0.4018
10050TIP3    H251642   2.084   1.867  12.767  0.2814 -0.2826  0.0944
10051TIP3   OH251643   5.663   2.653  12.371  0.2927 -0.5889  0.3215
10051TIP3    H151644   5.735   2.659  12.434 -0.0243  2.2389  0.5490
10051TIP3    H251645   5.698   2.688  12.290 -0.0727 -1.7789 -0.3895
10052TIP3   OH251646   6.121   1.890   2.421  0.0223 -0.6807  0.1990
10052TIP3    H151647   6.162   1.804   2.414  0.5447 -0.4891  0.8487
10052TIP3    H251648   6.187   1.951   2.388  0.4921 -0.3151  1.7459
10053TIP3   OH251649   4.030   4.078   2.248 -0.4527 -0.0656  0.6071
10053TIP3    H151650   4.122   4.060   2.270  0.0486  1.3047 -0.2184
10053TIP3    H251651   3.991   4.108   2.330  0.6192  2.1054  0.4033
10054TIP3   OH251652   6.233   3.377  11.965  0.0158  0.3493 -0.2061
10054TIP3    H151653   6.199   3.299  12.010  1.2844  0.0077  0.2129
10054TIP3    H251654   6.173   3.390  11.892 -1.6288  0.4232  1.0861
10055TIP3   OH251655   5.478   5.203  14.962 -0.5447  0.2720 -0.1683
10055TIP3    H151656   5.488   5.268  15.032 -1.3299  1.6551 -1.2812
10055TIP3    H251657   5.443   5.126  15.007  0.3469  0.6069  1.1836
10056TIP3   OH251658   3.946   5.320   2.093 -0.6256 -0.2849  0.0062
10056TIP3    H151659   3.970   5.409   2.066 -0.5620 -0.3908 -0.2894
10056TIP3    H251660   3.866   5.332   2.144 -0.9879 -0.1203 -0.5805
10057TIP3   OH251661   2.889   2.457   5.663  0.5604 -0.2312  0.2790
10057TIP3    H151662   2.941   2.491   5.736  1.4840  0.5446 -0.7150
10057TIP3    H251663   2.951   2.404   5.613 -0.1511 -1.0228  0.2186
10058TIP3   OH251664   3.992   6.198  14.328 -0.3076 -0.2449 -0.0468
10058TIP3    H151665   4.030   6.245  14.402 -2.2639  0.4676  0.5896
10058TIP3    H251666   3.985   6.264  14.259 -0.2918 -0.3849 -0.1830
10059TIP3   OH251667   3.819   0.348  10.521 -0.2268 -0.1639  0.5846
10059TIP3    H151668   3.892   0.307  10.474  0.4434  0.2185  1.2577
10059TIP3    H251669   3.839   0.442  10.517 -0.5751 -0.0726  0.9627
10060TIP3   OH251670   6.733   3.918  16.043 -0.1396  0.3778  0.3627
10060TIP3    H151671   6.717   3.831  16.081  3.3882 -0.7669 -0.3777
10060TIP3    H251672   6.771   3.899  15.957  1.5419  2.5994  0.5333
10061TIP3   OH251673   5.203   1.996  12.838  0.3086  0.3292  0.1239
10061TIP3    H151674   5.145   2.069  12.815  2.4005  1.9984 -0.1708
10061TIP3    H251675   5.202   1.939  12.761 -0.1254  0.8758 -0.2872
10062TIP3   OH251676   3.391   2.965   1.677  0.3524 -0.3702  0.7356
10062TIP3    H151677   3.430   3.053   1.674 -0.4520 -0.0174  0.4613
10062TIP3    H251678   3.411   2.927   1.591  2.4973 -1.2675  1.5566
10063TIP3   OH251679   6.080   5.527  13.109  0.2163 -0.1735  0.1939
10063TIP3    H151680   6.157   5.485  13.149  0.5494  0.7709  0.5735
10063TIP3    H251681   6.116   5.576  13.035  0.2074  1.4135  1.2044
10064TIP3   OH251682   0.789   6.173  11.760 -0.1749  0.0688 -0.2761
10064TIP3    H151683   0.797   6.077  11.760 -2.1592 -0.1379  0.1428
10064TIP3    H251684   0.723   6.191  11.693  0.3487  1.1917 -0.5199
10065TIP3   OH251685   6.460   3.372  13.016 -0.1293  0.3393 -0.0269
10065TIP3    H151686   6.526   3.315  13.057 -0.9357 -0.2900  0.4229
10065TIP3    H251687   6.489   3.381  12.925 -1.1870 -2.7181 -0.7824
10066TIP3   OH251688   0.389   2.972  16.190 -0.2577 -0.0145  0.0117
10066TIP3    H151689   0.428   2.927  16.115  1.4278  1.1126  0.1796
10066TIP3    H251690   0.302   2.933  16.198  0.8324 -2.7265 -0.3017
10067TIP3   OH251691   0.977   1.139   1.763 -0.2289 -0.1231 -0.2317
10067TIP3    H151692   0.929   1.056   1.753 -0.4933 -0.1436  0.9838
10067TIP3    H251693   1.069   1.115   1.752 -0.0943 -1.0391  2.1473
10068TIP3   OH251694   5.676   2.955  16.872  0.1118  0.1705  0.3635
10068TIP3    H151695   5.748   2.964  16.810 -1.5668  2.0298 -1.4163
10068TIP3    H251696   5.636   2.871  16.850  0.5391  0.0355  0.0844
10069TIP3   OH251697   6.785   0.314   4.638  0.0249 -0.2412 -0.7500
10069TIP3    H151698   6.754   0.247   4.699  0.3596 -1.1458 -1.5348
10069TIP3    H251699   6.784   0.395   4.688 -1.4552 -0.6289 -0.0918
10070TIP3   OH251700   3.083   1.810  14.430  0.0805  0.2745  0.5570
10070TIP3    H151701   3.108   1.828  14.520  0.4565  0.6370  0.3818
10070TIP3    H251702   3.124   1.879  14.379  0.1209 -0.1008  0.0701
10071TIP3   OH251703   6.105   2.073  11.564 -0.0488  0.4190 -0.6081
10071TIP3    H151704   6.134   2.050  11.652  1.3554  0.2585 -1.0904
10071TIP3    H251705   6.175   2.041  11.506 -0.6264  1.1138 -1.7268
10072TIP3   OH251706   3.769   0.773   3.790 -0.5724 -0.4044 -0.0965
10072TIP3    H151707   3.751   0.679   3.793  0.3709 -0.6381 -1.2984
10072TIP3    H251708   3.782   0.798   3.882 -0.6233 -1.4879  0.2114
10073TIP3   OH251709   3.643   5.632   3.208  0.0156 -0.3970 -0.1018
10073TIP3    H151710   3.701   5.583   3.266  0.7655 -1.8902 -2.0027
10073TIP3    H251711   3.669   5.723   3.219  2.0006 -0.9241 -0.1116
10074TIP3   OH251712   0.144   3.101  12.717 -0.2489  0.2516 -0.0299
10074TIP3    H151713   0.158   3.012  12.752  0.4859 -0.3264 -1.6964
10074TIP3    H251714   0.228   3.125  12.678 -0.2623  1.9463  0.8799
10075TIP3   OH251715   6.310   0.773  11.135 -0.2042 -0.1280  0.1698
10075TIP3    H151716   6.340   0.695  11.088  0.6551 -0.2707  0.9152
10075TIP3    H251717   6.216   0.775  11.122 -0.1796 -1.0582 -0.2071
10076TIP3   OH251718   0.205   2.752  16.137 -0.4345 -0.3058  0.0197
10076TIP3    H151719   0.265   2.680  16.116 -0.9924 -0.6719 -0.3671
10076TIP3    H251720   0.134   2.743  16.073 -0.5048  0.6051 -0.0375
10077TIP3   OH251721   3.214   2.162  13.526  0.2894 -0.5014  0.3636
10077TIP3    H151722   3.141   2.222  13.540  0.5418 -0.1472  0.1633
10077TIP3    H251723   3.229   2.164  13.432 -2.6468 -4.3191 -0.4263
10078TIP3   OH251724   0.901   4.847  14.214  0.5079 -0.2761 -0.4293
10078TIP3    H151725   0.823   4.862  14.161  1.1278  2.0479 -0.7614
10078TIP3    H251726   0.967   4.816  14.152  0.6563  0.5314 -0.6885
10079TIP3   OH251727   1.729   3.525  11.879  0.5730  0.0368  0.0142
10079TIP3    H151728   1.719   3.606  11.829 -1.1029  0.3691  0.7940
10079TIP3    H251729   1.756   3.460  11.814  1.0467  1.0177 -0.7969
10080TIP3   OH251730   5.555   6.591  15.644  0.1861 -0.5924 -0.0852
10080TIP3    H151731   5.625   6.555  15.590 -0.0543 -1.1360 -0.0478
10080TIP3    H251732   5.596   6.661  15.695  0.7967 -1.1773  0.2418
10081TIP3   OH251733   3.018   5.439  10.598  0.5249 -0.0870 -0.4787
10081TIP3    H151734   3.023   5.428  10.693 -0.3930  0.2885 -0.3746
10081TIP3    H251735   3.085   5.381  10.563  2.1529  1.1206  0.4829
10082TIP3   OH251736   4.243   2.437   4.801 -0.6280 -0.0179 -0.3231
10082TIP3    H151737   4.212   2.458   4.713  0.1833 -0.6368 -0.7688
10082TIP3    H251738   4.279   2.519   4.834 -2.6906  0.7501  0.2347
10083TIP3   OH251739   3.345   0.151   3.859 -0.5583 -0.3301 -0.2801
10083TIP3    H151740   3.373   0.061   3.875 -0.4527 -0.4744 -1.2025
10083TIP3    H251741   3.396   0.203   3.921 -0.2637 -0.8616 -0.0656
10084TIP3   OH251742   0.869   3.769  15.192 -0.2553 -0.2318 -0.2298
10084TIP3    H151743   0.789   3.817  15.214 -1.1936 -0.0500 -3.5325
10084TIP3    H251744   0.850   3.730  15.107  2.2366 -2.4862  0.1427
10085TIP3   OH251745   2.994   4.246  14.057  0.1626  0.3893  0.2474
10085TIP3    H151746   2.917   4.298  14.081 -1.0390 -0.8347 -0.8142
10085TIP3    H251747   2.959   4.174  14.005  1.8599 -1.1097  1.0877
10086TIP3   OH251748   6.280   4.222   6.733 -0.1108  0.1579  0.5020
10086TIP3    H151749   6.337   4.266   6.796  0.0129  0.5101  0.1407
10086TIP3    H251750   6.311   4.251   6.648  0.1312 -0.8099  0.2464
10087TIP3   OH251751   1.521   3.540  14.082 -0.1583 -0.3865 -0.0134
10087TIP3    H151752   1.520   3.613  14.019 -0.0208 -0.4550 -0.0943
10087TIP3    H251753   1.521   3.583  14.167 -1.6354 -0.2905 -0.0339
10088TIP3   OH251754   0.277   1.745   2.305  0.0897 -0.3359 -0.0010
10088TIP3    H151755   0.280   1.840   2.313  1.6284 -0.2939 -0.7540
10088TIP3    H251756   0.207   1.728   2.242  0.6241  0.3751 -0.8055
10089TIP3   OH251757   2.234   6.436  14.126  0.7094  0.0599 -0.0201
10089TIP3    H151758   2.317   6.483  14.126  0.9120 -0.2693  0.8884
10089TIP3    H251759   2.179   6.482  14.063  0.7704  1.7534  1.1168
10090TIP3   OH251760   6.419   2.584  12.173  0.3090  0.2702  0.4936
10090TIP3    H151761   6.472   2.521  12.123 -0.6820 -1.3985  1.4436
10090TIP3    H251762   6.330   2.573  12.138 -0.0316  0.4942  1.2600
10091TIP3   OH251763   6.590   4.475   3.559  0.0210 -1.0630  0.1876
10091TIP3    H151764   6.602   4.519   3.475  2.5357 -1.2805  0.3328
10091TIP3    H251765   6.609   4.383   3.541  4.3388 -0.6581  1.4683
10092TIP3   OH251766   4.635   4.799   1.156  0.0196  0.4984 -0.1543
10092TIP3    H151767   4.635   4.883   1.202  3.7907 -0.7200  2.5704
10092TIP3    H251768   4.620   4.734   1.224 -0.2510 -1.2057 -1.7527
10093TIP3   OH251769   1.362   5.055   2.565 -0.2095 -0.0867 -0.3163
10093TIP3    H151770   1.404   4.993   2.625 -1.3890 -2.4736 -1.8364
10093TIP3    H251771   1.430   5.075   2.500  0.0640 -0.0728 -0.0276
10094TIP3   OH251772   4.240   6.704  13.977  0.8688 -0.0060  0.1020
10094TIP3    H151773   4.193   6.708  13.894 -0.2837  1.8489  0.7651
10094TIP3    H251774   4.332   6.700  13.953  0.5421  0.3138 -1.2637
10095TIP3   OH251775   1.889   2.264  14.336  0.5146  0.2054  0.1641
10095TIP3    H151776   1.902   2.210  14.413  1.3773 -0.1344 -0.2086
10095TIP3    H251777   1.974   2.305  14.320  0.6580 -0.5481 -1.2022
10096TIP3   OH251778   0.431   4.233   1.970 -0.2150  0.3282 -0.0947
10096TIP3    H151779   0.450   4.282   2.050 -2.5058  0.4798  0.4207
10096TIP3    H251780   0.399   4.299   1.908  1.5423  0.2156 -1.2004
10097TIP3   OH251781   5.082   4.918   5.125 -0.6427  0.0833  0.3572
10097TIP3    H151782   5.025   4.980   5.079 -1.1038  0.1790  1.0480
10097TIP3    H251783   5.044   4.911   5.213 -1.4806 -2.2768 -0.1036
10098TIP3   OH251784   0.312   2.128   1.726  0.3120 -0.0652  1.0437
10098TIP3    H151785   0.265   2.112   1.645  2.3235 -0.5522 -0.1120
10098TIP3    H251786   0.350   2.043   1.749  1.6716  0.5449  1.1779
10099TIP3   OH251787   2.954   5.885   0.043 -0.0769 -0.1491  0.4297
10099TIP3    H151788   2.909   5.921   0.119 -2.8825 -1.3658 -0.5130
10099TIP3    H251789   3.026   5.946   0.026 -0.3464  1.0131  3.0518
10100TIP3   OH251790   1.745   6.392  12.546 -0.0915  0.4586 -0.0062
10100TIP3    H151791   1.720   6.358  12.461 -1.9354  3.0808 -0.6120
10100TIP3    H251792   1.764   6.314  12.598 -1.0495 -1.3023 -2.1383
10101TIP3   OH251793   6.350   3.635  15.550  0.6640 -0.0435  0.5038
10101TIP3    H151794   6.402   3.560  15.521 -2.1366 -1.1944 -2.0548
10101TIP3    H251795   6.308   3.605  15.631 -2.2026 -2.3451 -1.6224
10102TIP3   OH251796   5.048   6.683   3.062 -0.5023  1.0124  0.8259
10102TIP3    H151797   5.034   6.649   3.150 -0.4697 -2.6083 -0.3972
10102TIP3    H251798   5.035   6.778   3.070 -0.1775  0.8740  4.7212
10103TIP3   OH251799   3.595   5.650   2.771  0.1400 -0.0305 -0.1985
10103TIP3    H151800   3.549   5.611   2.696 -0.2206  0.1718 -0.0847
10103TIP3    H251801   3.678   5.602   2.776 -0.2952 -0.7885 -0.0643
10104TIP3   OH251802   4.420   1.955   1.241 -0.5745 -0.1392  0.1565
10104TIP3    H151803   4.416   1.970   1.335 -1.5513 -0.9601  0.2629
10104TIP3    H251804   4.329   1.966   1.211 -0.2044  0.5329 -0.7536
10105TIP3   OH251805   0.983   6.755  13.908  0.4179  0.1818  0.2051
10105TIP3    H151806   0.936   6.837  13.897 -0.0146 -0.1023 -0.0814
10105TIP3    H251807   1.012   6.732  13.820  0.2384 -0.1506  0.2319
10106TIP3   OH251808   0.205   3.153   1.672  0.3041 -0.5190  0.0653
10106TIP3    H151809   0.280   3.197   1.713  0.9456 -1.3371 -0.1925
10106TIP3    H251810   0.129   3.205   1.698  1.1983  2.0061 -1.9373
10107TIP3   OH251811   5.093   2.839  12.068 -0.0695 -0.4130 -0.2034
10107TIP3    H151812   5.071   2.794  11.987 -0.5764 -0.6413  0.0508
10107TIP3    H251813   5.012   2.835  12.120  0.4058 -0.7321  0.5230
10108TIP3   OH251814   3.989   0.522   5.140  0.1320 -0.0024  0.2831
10108TIP3    H151815   4.008   0.453   5.077  0.8615 -1.0725  1.6199
10108TIP3    H251816   3.988   0.477   5.225 -2.4831  1.0670  0.9246
10109TIP3   OH251817   4.953   4.712   2.944  0.3828  0.1156  0.7565
10109TIP3    H151818   4.879   4.669   2.987 -0.4136  1.3443  0.6983
10109TIP3    H251819   4.934   4.806   2.954  1.4221  0.4420 -0.1591
10110TIP3   OH251820   4.168   4.804   3.217  0.2672  0.2959 -0.4449
10110TIP3    H151821   4.205   4.778   3.133  0.4199  3.1473 -1.3750
10110TIP3    H251822   4.073   4.799   3.204  0.2522 -1.5492  0.0680
10111TIP3   OH251823   0.825   3.960  13.011  0.2101 -0.2073 -0.4201
10111TIP3    H151824   0.802   3.916  12.929  0.6485  1.4314 -1.4751
10111TIP3    H251825   0.744   3.959  13.061 -0.1471 -0.9901 -0.9766
10112TIP3   OH251826   4.319   3.733  12.670 -0.0449 -0.3823  0.2339
10112TIP3    H151827   4.402   3.687  12.678 -0.9582 -1.9489  1.0860
10112TIP3    H251828   4.279   3.727  12.757 -1.1729  0.1074 -0.2198
10113TIP3   OH251829   3.338   5.440  11.815  0.1818 -0.1815  0.1310
10113TIP3    H151830   3.378   5.367  11.768 -1.7711 -1.5983  0.5146
10113TIP3    H251831   3.289   5.487  11.748  1.4089  0.7674 -0.1093
10114TIP3   OH251832   1.083   6.348  12.730  0.4994 -0.3497  0.0577
10114TIP3    H151833   1.119   6.382  12.812  1.1325  0.0115 -0.3549
10114TIP3    H251834   1.109   6.256  12.729  1.1037 -0.1815 -0.0601
10115TIP3   OH251835   1.909   4.577  15.525 -0.1903 -0.2887  0.1661
10115TIP3    H151836   1.961   4.527  15.589  0.7077 -1.4246 -1.3785
10115TIP3    H251837   1.887   4.513  15.457 -0.6673  1.0017 -0.9290
10116TIP3   OH251838   1.428   4.359  15.960  0.1536  0.7151 -0.3144
10116TIP3    H151839   1.354   4.394  15.911 -0.1242  0.4441 -0.0916
10116TIP3    H251840   1.475   4.436  15.991 -0.6396  0.9094  0.4562
10117TIP3   OH251841   0.063   0.969  10.757  0.4265 -0.2299 -0.0887
10117TIP3    H151842   0.146   0.942  10.718 -1.2582 -1.5833 -3.1262
10117TIP3    H251843   0.003   0.977  10.682 -2.1907  0.7660  1.9416
10118TIP3   OH251844   1.932   2.584   1.963 -0.9339 -0.0612  1.0787
10118TIP3    H151845   1.882   2.512   1.925  0.2918  0.3251 -1.4998
10118TIP3    H251846   1.979   2.623   1.889 -0.0657  2.2057  2.6850
10119TIP3   OH251847   3.229   2.052   3.800 -0.2265 -0.4129  0.1705
10119TIP3    H151848   3.162   1.985   3.792 -0.0289 -0.6040  0.1058
10119TIP3    H251849   3.192   2.115   3.862  0.0121 -1.1092  1.0488
10120TIP3   OH251850   6.201   4.660  12.769  0.2739 -0.2215 -0.3736
10120TIP3    H151851   6.257   4.683  12.844 -0.9272 -0.2953  0.5724
10120TIP3    H251852   6.260   4.665  12.694  1.4207  0.2723  0.5132
10121TIP3   OH251853   6.236   2.424   4.044  0.0028 -0.1381 -0.0524
10121TIP3    H151854   6.142   2.411   4.030  0.3538 -0.8153 -2.1097
10121TIP3    H251855   6.268   2.454   3.959  1.5868  0.4800  0.7427
10122TIP3   OH251856   3.163   5.016   0.289 -0.1785 -0.1832  0.0788
10122TIP3    H151857   3.213   5.056   0.218 -1.2556  1.5724  0.2658
10122TIP3    H251858   3.157   4.923   0.264  0.6031  0.1345 -1.4218
10123TIP3   OH251859   5.238   1.936  11.895  0.2523  0.2575  0.6785
10123TIP3    H151860   5.147   1.939  11.923  0.2442 -0.0804  0.6912
10123TIP3    H251861   5.255   2.023  11.859 -0.3932 -0.0150 -0.3226
10124TIP3   OH251862   0.125   0.456   4.020 -0.4317  0.0955  0.6443
10124TIP3    H151863   0.201   0.500   3.982 -0.2380 -0.4554  0.3956
10124TIP3    H251864   0.085   0.523   4.076  0.6665  0.1612  1.3834
10125TIP3   OH251865   5.056   1.084  10.307  0.5945 -0.2236  0.2714
10125TIP3    H151866   5.069   1.038  10.224 -0.3738  0.3149 -0.2013
10125TIP3    H251867   5.014   1.020  10.364  1.0792 -0.5326  0.2911
10126TIP3   OH251868   4.580   6.664   5.195 -0.0250 -0.2289  0.4731
10126TIP3    H151869   4.543   6.576   5.200  0.6182 -0.5442 -0.1826
10126TIP3    H251870   4.666   6.657   5.236  0.3637 -0.1058 -0.2936
10127TIP3   OH251871   6.026   4.003  11.985  0.7571  0.1225 -0.5370
10127TIP3    H151872   6.063   3.951  12.056  0.4392  0.9021  0.2264
10127TIP3    H251873   6.019   4.092  12.021 -1.6538  0.0674 -0.6662
10128TIP3   OH251874   5.994   4.780  11.621  0.2773  0.2141  0.1465
10128TIP3    H151875   5.920   4.841  11.613  0.4477  0.6262  1.4659
10128TIP3    H251876   5.956   4.702  11.662  0.7952  0.9263  2.0709
10129TIP3   OH251877   4.902   1.837   5.891 -0.9182 -0.0826  0.2742
10129TIP3    H151878   4.823   1.871   5.932 -1.7348 -2.1851  0.6061
10129TIP3    H251879   4.871   1.767   5.833  0.6726 -0.8787  0.3082
10130TIP3   OH251880   4.812   6.199   3.534 -0.2790 -0.5612 -0.0887
10130TIP3    H151881   4.804   6.228   3.444 -1.7439 -1.5112 -0.2975
10130TIP3    H251882   4.822   6.279   3.585  1.5940 -0.0649 -1.1560
10131TIP3   OH251883   5.892   4.010   3.554 -0.1167  0.7442 -0.4884
10131TIP3    H151884   5.855   3.931   3.594 -1.3474  0.6361 -1.7610
10131TIP3    H251885   5.821   4.075   3.559 -0.0532  0.9374 -1.8039
10132TIP3   OH251886   1.313   5.815  13.734  0.0900  0.3543 -0.2322
10132TIP3    H151887   1.271   5.736  13.769 -2.6050  1.6611 -0.2324
10132TIP3    H251888   1.311   5.877  13.807  0.7700  0.9135 -0.6768
10133TIP3   OH251889   3.959   2.660   2.999 -0.2792  0.2853  0.1682
10133TIP3    H151890   3.883   2.602   2.992 -2.0387  2.2253  1.8007
10133TIP3    H251891   4.019   2.611   3.056 -0.9694 -0.6609  0.1261
10134TIP3   OH251892   0.205   4.870  13.395  0.3602  0.0944  0.4642
10134TIP3    H151893   0.199   4.931  13.469  0.1849  0.1809  0.3774
10134TIP3    H251894   0.196   4.925  13.318  1.0700  0.0773  0.3612
10135TIP3   OH251895   6.145   4.276  15.798  0.1848 -0.6334  0.2273
10135TIP3    H151896   6.147   4.228  15.880 -1.1261 -1.1559 -0.0287
10135TIP3    H251897   6.080   4.345  15.812 -1.8943 -2.2072 -1.1240
10136TIP3   OH251898   1.742   4.189   1.337 -0.7876  0.2928  0.0197
10136TIP3    H151899   1.779   4.229   1.416 -0.3042 -0.5145  0.2111
10136TIP3    H251900   1.683   4.122   1.369 -1.0662  0.3761 -0.3096
10137TIP3   OH251901   3.717   2.811  15.485  0.2968 -0.3141  0.4208
10137TIP3    H151902   3.660   2.741  15.454  0.5801 -1.3155  2.0595
10137TIP3    H251903   3.805   2.782  15.461  0.2199  0.9845 -1.6469
10138TIP3   OH251904   3.426   1.079  13.602  0.4302 -0.4947 -0.1560
10138TIP3    H151905   3.386   1.134  13.669 -1.2842 -1.1865 -0.5506
10138TIP3    H251906   3.426   1.134  13.523  0.8352 -0.2839 -0.0111
10139TIP3   OH251907   0.263   6.777  10.781  0.1386  0.0215 -0.0815
10139TIP3    H151908   0.314   6.698  10.761 -0.3529 -0.9245  2.1270
10139TIP3    H251909   0.178   6.762  10.741  0.8532  0.6501 -1.9297
10140TIP3   OH251910   0.772   3.843  13.775 -0.1422 -0.3064  0.9081
10140TIP3    H151911   0.700   3.789  13.807 -1.2101 -0.7403 -1.9253
10140TIP3    H251912   0.730   3.926  13.750  0.1647 -0.7488 -1.2622
10141TIP3   OH251913   2.745   6.623   5.989 -0.6560 -0.1498  0.2269
10141TIP3    H151914   2.771   6.684   6.057  1.0167 -1.4839  0.8721
10141TIP3    H251915   2.720   6.543   6.036 -1.4611 -0.4352 -0.6424
10142TIP3   OH251916   4.317   5.001  12.936  0.5773  0.3656  1.0599
10142TIP3    H151917   4.233   4.998  12.982  0.8338 -0.7417  1.4722
10142TIP3    H251918   4.382   4.985  13.004  1.4303  4.2644  1.3850
10143TIP3   OH251919   4.926   4.259   0.810  0.3635 -0.0018  0.3002
10143TIP3    H151920   4.903   4.334   0.755 -1.8754 -1.1333 -0.4289
10143TIP3    H251921   4.986   4.295   0.875  1.4890  1.8372 -1.6055
10144TIP3   OH251922   4.530   4.293   4.083 -0.3360  0.0367  0.0212
10144TIP3    H151923   4.622   4.269   4.092 -0.5358 -0.2711  1.4934
10144TIP3    H251924   4.483   4.210   4.084 -0.7713  0.2783  1.4627
10145TIP3   OH251925   2.884   4.121  17.214 -0.3300  0.1454 -0.0624
10145TIP3    H151926   2.804   4.146  17.167 -0.2427 -0.9498 -0.8529
10145TIP3    H251927   2.871   4.152  17.303 -1.2548  0.7714 -0.4031
10146TIP3   OH251928   1.609   4.915   5.979 -0.1005 -0.6544 -1.0069
10146TIP3    H151929   1.642   4.979   5.916  2.2854  0.0852  0.7990
10146TIP3    H251930   1.681   4.853   5.990 -0.2611 -0.5569  1.1469
10147TIP3   OH251931   3.300   5.217  13.386 -0.2674 -0.9534  0.2106
10147TIP3    H151932   3.274   5.303  13.352  0.2129 -0.7963  0.2353
10147TIP3    H251933   3.285   5.157  13.313 -1.3481 -0.9854  0.4361
10148TIP3   OH251934   2.026   3.677   5.866 -0.2821 -0.2258 -0.3865
10148TIP3    H151935   2.063   3.722   5.942 -1.7258 -1.4970  1.1383
10148TIP3    H251936   1.997   3.748   5.808 -1.6505  0.8598  1.5124
10149TIP3   OH251937   3.313   4.621  15.561  0.2467 -0.1041  0.2765
10149TIP3    H151938   3.249   4.580  15.503  0.8777 -0.9430  0.1632
10149TIP3    H251939   3.307   4.571  15.643 -0.2460  0.7191  0.7583
10150TIP3   OH251940   3.351   2.764   0.204  0.3122 -0.1115  0.1646
10150TIP3    H151941   3.427   2.726   0.247 -0.1837 -0.4491  0.7713
10150TIP3    H251942   3.329   2.701   0.135  0.7814  0.1569 -0.2346
10151TIP3   OH251943   6.713   6.032   5.039 -0.1101  0.1984 -0.5677
10151TIP3    H151944   6.702   5.938   5.057  0.9482  0.1764  0.0106
10151TIP3    H251945   6.750   6.035   4.951  3.4842 -0.1753  0.7515
10152TIP3   OH251946   6.286   4.141   1.328  0.0347  0.0678 -0.1097
10152TIP3    H151947   6.289   4.225   1.374 -0.4740 -0.0009  0.0513
10152TIP3    H251948   6.377   4.125   1.301  0.6169 -0.4637  1.9321
10153TIP3   OH251949   5.363   3.360   0.168 -0.7224  0.2152  0.2164
10153TIP3    H151950   5.359   3.264   0.165 -1.9501  0.2442 -3.1644
10153TIP3    H251951   5.450   3.381   0.135 -0.5554  0.2553  0.6875
10154TIP3   OH251952   4.195   6.661   5.218  0.5478 -0.3105 -0.3613
10154TIP3    H151953   4.140   6.594   5.177 -0.6423 -0.3797  1.2603
10154TIP3    H251954   4.255   6.611   5.274  0.3000 -0.0764  0.1148
10155TIP3   OH251955   6.684   2.770   1.735 -0.3153  0.9062  0.1065
10155TIP3    H151956   6.728   2.746   1.817  0.9559 -2.3596 -1.3606
10155TIP3    H251957   6.593   2.782   1.760  0.4898  2.8552  2.4198
10156TIP3   OH251958   2.432   6.064  11.100  0.1477 -0.4111 -0.1702
10156TIP3    H151959   2.513   6.073  11.051  1.3264  2.5925  2.0040
10156TIP3    H251960   2.409   5.971  11.093  1.9000 -0.7590 -3.5593
10157TIP3   OH251961   4.300   3.261  15.050  0.3216 -0.0375 -0.3180
10157TIP3    H151962   4.393   3.255  15.072  0.3218  1.2019  0.1223
10157TIP3    H251963   4.299   3.309  14.966  0.0681  0.4822 -0.0240
10158TIP3   OH251964   5.883   3.862  13.415 -0.1863  1.1267  0.0680
10158TIP3    H151965   5.902   3.809  13.338  0.0148 -0.4070  1.1349
10158TIP3    H251966   5.966   3.903  13.437 -0.1386  1.2016 -0.2444
10159TIP3   OH251967   3.552   0.208  12.163  0.3617 -0.6505 -0.5941
10159TIP3    H151968   3.594   0.254  12.235 -0.1766 -0.1171 -0.6150
10159TIP3    H251969   3.458   0.211  12.183  0.3251 -1.9858 -0.4556
10160TIP3   OH251970   0.429   0.263   3.922  0.5041 -0.1840 -0.2192
10160TIP3    H151971   0.518   0.240   3.947  1.4882  0.5157 -2.7219
10160TIP3    H251972   0.438   0.301   3.834 -2.0256  1.8242  0.2787
10161TIP3   OH251973   6.165   6.097  11.810 -0.4818 -0.4001 -0.0627
10161TIP3    H151974   6.084   6.048  11.819 -1.0648  0.3984 -0.8158
10161TIP3    H251975   6.142   6.173  11.756  0.7581 -0.1574 -0.2916
10162TIP3   OH251976   5.290   4.630  15.483  0.3408  0.3106 -0.5246
10162TIP3    H151977   5.240   4.549  15.472  0.8363 -0.1285  0.3502
10162TIP3    H251978   5.282   4.650  15.577  0.0555  1.3922 -0.7695
10163TIP3   OH251979   0.036   3.205  15.543 -0.4215  0.1559 -0.5090
10163TIP3    H151980   0.048   3.167  15.631 -1.6183  0.2621 -0.2778
10163TIP3    H251981   0.097   3.278  15.540  2.8626 -2.3822 -1.4124
10164TIP3   OH251982   1.343   1.352  16.763  0.0332  0.0771  0.1545
10164TIP3    H151983   1.412   1.334  16.699 -0.1494 -0.3956  0.0903
10164TIP3    H251984   1.378   1.423  16.816  0.4430  0.0491 -0.0752
10165TIP3   OH251985   6.049   0.699   2.800  0.1971 -0.4274  0.1624
10165TIP3    H151986   6.018   0.629   2.742 -0.8578 -0.0334  0.2296
10165TIP3    H251987   5.977   0.761   2.803  0.7069  0.1410  0.9609
10166TIP3   OH251988   0.589   2.720   1.323 -0.0878 -0.3524  0.2742
10166TIP3    H151989   0.499   2.750   1.337 -0.5989 -2.0166  0.8656
10166TIP3    H251990   0.596   2.708   1.228  0.0071  1.1556  0.0681
10167TIP3   OH251991   0.654   6.617  11.962 -0.5150  0.2603 -0.1102
10167TIP3    H151992   0.634   6.534  12.005 -1.3813  0.6358  0.2335
10167TIP3    H251993   0.741   6.604  11.924 -0.2328 -0.4785  0.7537
10168TIP3   OH251994   1.312   4.559  14.866 -0.3366  0.2156  0.2495
10168TIP3    H151995   1.244   4.497  14.842 -1.0435  0.8009  0.6840
10168TIP3    H251996   1.270   4.645  14.857  0.0369  0.5413  1.4594
10169TIP3   OH251997   5.420   0.130   4.635 -0.6730  0.4790 -0.0822
10169TIP3    H151998   5.345   0.075   4.658 -0.1942  0.0353  0.4269
10169TIP3    H251999   5.459   0.087   4.559  0.0963 -0.2800  0.7168
10170TIP3   OH252000   1.452   6.047   5.602  0.0873 -0.0386 -0.1053
10170TIP3    H152001   1.541   6.076   5.624 -0.4185  0.6205  1.1588
10170TIP3    H252002   1.394   6.105   5.651 -1.0419 -0.7655 -0.5255
10171TIP3   OH252003   0.083   4.363   1.136 -0.1088 -0.4398 -0.3980
10171TIP3    H152004   0.092   4.337   1.044 -1.0599  0.0947 -0.6581
10171TIP3    H252005  -0.002   4.330   1.162  0.0476 -0.3654  0.2246
10172TIP3   OH252006   5.334   2.710  11.479  0.5785 -0.0096 -0.5162
10172TIP3    H152007   5.355   2.757  11.560  1.1262 -0.2847 -0.4929
10172TIP3    H252008   5.239   2.704  11.478  0.6164 -1.0678  0.7079
10173TIP3   OH252009   0.211   0.917   1.210  0.4966 -0.0510  0.4799
10173TIP3    H152010   0.248   0.858   1.276  3.2474  0.6113 -0.3454
10173TIP3    H252011   0.209   1.003   1.253  2.6923  0.4637 -0.3678
10174TIP3   OH252012   3.723   5.205  13.007 -0.0148 -0.6126 -0.1830
10174TIP3    H152013   3.788   5.266  13.044  1.1038 -1.7343 -0.2337
10174TIP3    H252014   3.639   5.249  13.021  0.6073  0.2011  1.2751
10175TIP3   OH252015   2.730   3.471   4.698 -0.3242  0.3895 -0.6768
10175TIP3    H152016   2.809   3.520   4.674  0.4080 -0.5261 -0.2187
10175TIP3    H252017   2.707   3.505   4.785  0.0296  0.1199 -0.4735
10176TIP3   OH252018   2.652   1.151   5.024 -0.1128  0.1819 -0.4771
10176TIP3    H152019   2.712   1.123   5.093 -1.7237 -1.6457  0.2683
10176TIP3    H252020   2.707   1.162   4.947  1.6737  1.8894  0.9500
10177TIP3   OH252021   5.315   5.730   4.857 -0.5037 -0.4612  0.3495
10177TIP3    H152022   5.227   5.713   4.824 -1.0857 -0.8428  1.9678
10177TIP3    H252023   5.301   5.788   4.933  0.6137 -0.6721  0.7343
10178TIP3   OH252024   6.457   3.367  15.505  0.4249  0.0147  0.5479
10178TIP3    H152025   6.478   3.337  15.594  1.3286  0.8612  0.6466
10178TIP3    H252026   6.507   3.310  15.448 -0.3481 -0.6890  0.5601
10179TIP3   OH252027   3.906   2.008   4.244  0.0974  0.2056 -0.2953
10179TIP3    H152028   3.935   2.080   4.187 -0.6212 -0.1956 -1.1964
10179TIP3    H252029   3.849   1.955   4.188  1.0768 -1.4024  0.1585
10180TIP3   OH252030   1.659   3.812  10.694  0.2773  0.0197 -0.3343
10180TIP3    H152031   1.716   3.887  10.678  1.0532  0.0499  2.1339
10180TIP3    H252032   1.718   3.737  10.697  0.4386  0.1225  2.8190
10181TIP3   OH252033   2.041   1.889   0.732  0.4359  0.4612 -0.0345
10181TIP3    H152034   2.013   1.937   0.810 -2.2369 -0.7357 -0.1449
10181TIP3    H252035   2.099   1.821   0.766  1.6350  1.7035  0.5057
10182TIP3   OH252036   6.667   3.355   2.280 -0.2332 -0.2575  0.8779
10182TIP3    H152037   6.758   3.383   2.292  0.1155 -0.0270 -1.7366
10182TIP3    H252038   6.629   3.359   2.368  1.3655  2.9201  1.5713
10183TIP3   OH252039   4.855   3.736   1.857  0.1353 -0.1569  0.9179
10183TIP3    H152040   4.906   3.657   1.837  1.7810  1.3129 -1.1836
10183TIP3    H252041   4.768   3.718   1.822  1.0637 -0.3461 -1.5024
10184TIP3   OH252042   5.619   3.870  16.194  0.0162  0.1809  0.3969
10184TIP3    H152043   5.655   3.897  16.109 -0.7934 -2.7050 -1.0094
10184TIP3    H252044   5.528   3.899  16.192 -0.3123 -0.8242 -0.2669
10185TIP3   OH252045   0.899   0.908   4.198 -0.2827 -0.2578  0.3118
10185TIP3    H152046   0.869   0.931   4.286 -0.6105 -1.7639  0.6133
10185TIP3    H252047   0.820   0.885   4.150 -0.3538  2.3284 -1.0117
10186TIP3   OH252048   2.876   4.071   3.811 -0.4102  0.3950 -0.1502
10186TIP3    H152049   2.887   4.146   3.753  0.2127  0.3498 -0.0923
10186TIP3    H252050   2.964   4.040   3.828 -0.7115 -0.9011 -0.8703
10187TIP3   OH252051   2.408   3.435  11.479  0.0342 -0.3499  0.6721
10187TIP3    H152052   2.384   3.521  11.512 -1.4232 -0.9249  1.2219
10187TIP3    H252053   2.456   3.452  11.398  0.3566  0.9835  1.1322
10188TIP3   OH252054   5.383   2.483  13.532 -0.1703  0.2591  0.5743
10188TIP3    H152055   5.437   2.453  13.459 -0.7830  0.3250  0.0824
10188TIP3    H252056   5.440   2.541  13.582  0.0247  0.8114 -0.2768
10189TIP3   OH252057   1.096   6.483  14.209 -0.6761  0.3505  0.9824
10189TIP3    H152058   1.020   6.517  14.162 -0.1434  0.2845  0.0508
10189TIP3    H252059   1.090   6.388  14.198 -1.2905  0.2170  2.2347
10190TIP3   OH252060   4.391   0.347   4.062 -0.1979 -0.4103  0.3815
10190TIP3    H152061   4.476   0.332   4.105 -0.6979  1.0590  2.0111
10190TIP3    H252062   4.409   0.414   3.996 -0.0382 -0.2689  0.5653
10191TIP3   OH252063   4.201   4.227   0.416  0.5813  0.3950  0.3006
10191TIP3    H152064   4.275   4.282   0.389 -1.0918  2.0129 -1.2045
10191TIP3    H252065   4.174   4.265   0.500  0.3042  1.0291 -0.0639
10192TIP3   OH252066   4.821   6.680  14.361  0.1811  0.2987  0.4599
10192TIP3    H152067   4.767   6.640  14.430  0.6558 -0.0332  0.6484
10192TIP3    H252068   4.887   6.613  14.341  1.0987  1.0385  0.9049
10193TIP3   OH252069   3.696   2.229  13.789 -0.2570 -0.0991 -0.1602
10193TIP3    H152070   3.648   2.275  13.720 -1.7619 -0.7770  0.3833
10193TIP3    H252071   3.762   2.291  13.819 -0.2577  0.5713 -1.5007
10194TIP3   OH252072   5.988   0.151   1.670  0.5420 -0.2038 -0.7326
10194TIP3    H152073   6.077   0.131   1.696  0.0172 -2.2272 -0.3044
10194TIP3    H252074   5.993   0.163   1.575  1.3321  0.1842 -0.6484
10195TIP3   OH252075   2.444   1.281   4.894  0.1442  0.4069  0.1324
10195TIP3    H152076   2.475   1.369   4.915  0.6352 -0.0833  1.6272
10195TIP3    H252077   2.508   1.223   4.936 -1.5024 -0.6589  1.2900
10196TIP3   OH252078   1.385   6.660  17.010  0.1770  0.2160 -0.0713
10196TIP3    H152079   1.356   6.743  16.972 -0.3591  0.0504 -0.0396
10196TIP3    H252080   1.462   6.682  17.061 -1.1494  1.0769  1.6556
10197TIP3   OH252081   1.794   3.453   1.254  0.6275  0.2651 -0.5087
10197TIP3    H152082   1.731   3.401   1.205  2.1415 -0.9138 -1.2953
10197TIP3    H252083   1.807   3.532   1.201  2.1240 -0.9211 -2.0051
10198TIP3   OH252084   3.528   4.258   0.406  0.0253  0.1596  0.1492
10198TIP3    H152085   3.562   4.298   0.486 -1.8850 -0.2970  1.2530
10198TIP3    H252086   3.496   4.331   0.353 -0.7869  0.3282  0.8508
10199TIP3   OH252087   5.841   0.604   1.125  0.4650 -0.1035  0.1942
10199TIP3    H152088   5.818   0.542   1.056  0.1332 -0.6152  0.7571
10199TIP3    H252089   5.806   0.688   1.095 -0.8623 -0.5833  0.3631
10200TIP3   OH252090   6.527   6.563   4.958 -0.0637  0.2545  0.1499
10200TIP3    H152091   6.591   6.592   4.892 -0.1973  0.2267  0.0067
10200TIP3    H252092   6.490   6.483   4.921  0.6067 -0.3448  0.7317
10201TIP3   OH252093   0.873   0.991  15.112  0.2353  0.3991 -0.5940
10201TIP3    H152094   0.942   0.932  15.142 -1.2985 -1.2587 -0.1547
10201TIP3    H252095   0.798   0.972  15.168 -1.1906  0.7260 -2.2819
10202TIP3   OH252096   0.055   6.035   1.382  0.1188  0.5765  0.4557
10202TIP3    H152097   0.130   6.021   1.439 -0.6285 -2.6159  0.8664
10202TIP3    H252098  -0.013   6.070   1.439  0.7033  1.6705  0.4959
10203TIP3   OH252099   0.052   3.184  16.794 -0.0884 -0.7650  0.3301
10203TIP3    H152100   0.102   3.104  16.812 -1.7589 -2.1268 -0.7020
10203TIP3    H252101   0.014   3.169  16.707 -1.8325  0.4220  0.8430
10204TIP3   OH252102   1.360   1.480  11.462  0.2314  0.0309 -1.2678
10204TIP3    H152103   1.283   1.424  11.453  1.6419 -2.4603  0.4652
10204TIP3    H252104   1.418   1.453  11.391  0.5585 -0.1193 -0.9531
10205TIP3   OH252105   2.744   0.668   0.292  0.1915 -0.1842  0.2984
10205TIP3    H152106   2.823   0.626   0.326  0.5544  0.3459  0.1162
10205TIP3    H252107   2.672   0.615   0.327  0.4171  1.3668  3.4761
10206TIP3   OH252108   3.147   5.211   2.573 -0.6723  0.3520  0.3393
10206TIP3    H152109   3.233   5.176   2.597 -0.4014  1.3143  0.8106
10206TIP3    H252110   3.163   5.260   2.492 -0.3650  2.1144  1.4139
10207TIP3   OH252111   0.531   5.849   3.535  0.4221 -0.7588 -0.0605
10207TIP3    H152112   0.508   5.840   3.442  1.4965 -0.9290 -0.3232
10207TIP3    H252113   0.471   5.790   3.580  0.4115 -1.2660 -0.7235
10208TIP3   OH252114   0.494   4.665  10.883 -0.0744 -0.4449 -0.3558
10208TIP3    H152115   0.519   4.756  10.903 -0.9556 -0.4255  0.7734
10208TIP3    H252116   0.562   4.634  10.822  0.1416  1.0226 -0.9108
10209TIP3   OH252117   4.514   0.719   2.816  0.3175 -0.2474  0.2628
10209TIP3    H152118   4.542   0.789   2.875 -1.4224  0.5001  0.2579
10209TIP3    H252119   4.546   0.747   2.730 -0.0707  0.3716  0.3160
10210TIP3   OH252120   0.592   3.845  12.371 -0.2009  0.4224  0.7275
10210TIP3    H152121   0.534   3.906  12.416 -0.5946 -0.0246  0.8345
10210TIP3    H252122   0.667   3.836  12.430 -1.0339 -0.7096  1.6554
10211TIP3   OH252123   2.164   0.904   6.131 -1.0276  0.4646  0.1839
10211TIP3    H152124   2.074   0.906   6.099 -1.3116  0.5667  0.9680
10211TIP3    H252125   2.190   0.996   6.134 -0.9630  0.4476  0.1581
10212TIP3   OH252126   3.625   6.749  16.431  0.3981 -0.6819 -0.3008
10212TIP3    H152127   3.617   6.681  16.498  0.9907  0.6151  1.1405
10212TIP3    H252128   3.557   6.813  16.454  1.2864  0.2882 -0.2774
10213TIP3   OH252129   3.625   3.111   4.183  0.3255 -0.2808  0.0678
10213TIP3    H152130   3.557   3.082   4.244  0.3766  1.3405  0.9451
10213TIP3    H252131   3.586   3.099   4.096 -0.7993 -0.0701  0.5256
10214TIP3   OH252132   0.257   5.831   3.656  0.2235  0.4134 -0.4157
10214TIP3    H152133   0.239   5.812   3.564 -0.1003  0.4055 -0.3554
10214TIP3    H252134   0.263   5.926   3.660 -0.5854  0.4727 -0.3129
10215TIP3   OH252135   0.073   2.805   5.301 -0.3132 -0.2332  0.1040
10215TIP3    H152136   0.018   2.883   5.303 -1.2100 -0.8636  0.6503
10215TIP3    H252137   0.156   2.836   5.265 -1.0486  0.7224 -0.8564
10216TIP3   OH252138   3.385   5.192   0.911  0.3302 -0.3954 -0.4227
10216TIP3    H152139   3.382   5.252   0.837 -1.6102  1.2853  0.8778
10216TIP3    H252140   3.449   5.230   0.971 -0.0461 -0.2311 -0.1131
10217TIP3   OH252141   1.596   2.340   1.197 -0.5562 -0.5805 -0.3230
10217TIP3    H152142   1.545   2.381   1.128 -0.6686  0.1183  0.1665
10217TIP3    H252143   1.683   2.380   1.190 -0.6784 -0.2223  0.1873
10218TIP3   OH252144   2.046   6.397  12.630 -0.3697  0.6297  0.3704
10218TIP3    H152145   2.019   6.348  12.552  1.2666  0.0176  0.1546
10218TIP3    H252146   2.101   6.467  12.596  1.5281 -0.4641  1.0141
10219TIP3   OH252147   2.063   5.877   4.372  0.6910  0.1549 -0.4219
10219TIP3    H152148   2.148   5.871   4.327  2.2906  2.0090  2.0408
10219TIP3    H252149   2.038   5.969   4.363 -1.6281 -0.5651 -1.9350
10220TIP3   OH252150   1.006   3.387   2.092 -0.2014 -0.3319  0.2519
10220TIP3    H152151   0.988   3.317   2.030 -0.2602  0.7467 -1.0000
10220TIP3    H252152   0.920   3.423   2.114 -0.0934  0.1863 -0.1426
10221TIP3   OH252153   4.467   0.514   1.314 -0.1462 -0.1885  0.0927
10221TIP3    H152154   4.390   0.510   1.372 -0.3967  1.2015 -0.1216
10221TIP3    H252155   4.507   0.427   1.323 -1.5974 -0.8661  0.3937
10222TIP3   OH252156   6.125   6.498  14.854 -0.1204 -0.7418  0.6085
10222TIP3    H152157   6.121   6.593  14.853 -0.3600 -0.7492 -0.1970
10222TIP3    H252158   6.204   6.476  14.805  0.0213 -0.9553  0.9276
10223TIP3   OH252159   5.310   4.259  12.180  0.2618 -0.2445 -0.2578
10223TIP3    H152160   5.306   4.227  12.090  1.6972  2.3842 -1.3689
10223TIP3    H252161   5.391   4.221  12.216 -0.7391 -1.9693  0.2759
10224TIP3   OH252162   4.879   0.658  12.495 -0.3822 -0.3928 -0.2525
10224TIP3    H152163   4.823   0.736  12.492  0.0538 -0.0559 -3.9578
10224TIP3    H252164   4.948   0.681  12.558 -2.2768  0.6245  1.6102
10225TIP3   OH252165   3.116   2.432   3.739 -0.1253 -0.1025  0.4399
10225TIP3    H152166   3.105   2.376   3.816  1.8011 -1.2982 -0.0983
10225TIP3    H252167   3.162   2.509   3.771 -0.3746 -0.0490  0.6779
10226TIP3   OH252168   6.588   6.634  14.237 -0.2567 -0.3157  0.2360
10226TIP3    H152169   6.637   6.562  14.198 -3.5597 -1.8498 -1.5464
10226TIP3    H252170   6.534   6.592  14.305 -2.4540  0.2723 -1.0264
10227TIP3   OH252171   3.879   2.424   3.456  0.0581  0.0599 -0.9771
10227TIP3    H152172   3.833   2.490   3.404  0.3789  1.4556  0.4354
10227TIP3    H252173   3.812   2.387   3.513 -0.1577 -0.9977 -1.8900
10228TIP3   OH252174   5.843   1.561  14.570 -0.0995  0.0225 -1.0981
10228TIP3    H152175   5.877   1.497  14.508  2.7753  2.7778 -2.6800
10228TIP3    H252176   5.914   1.574  14.633 -0.5896  1.5573 -0.8098
10229TIP3   OH252177   0.147   5.618   2.821 -0.2447  0.0680 -0.2486
10229TIP3    H152178   0.239   5.644   2.815 -0.7202  1.8210 -0.4758
10229TIP3    H252179   0.118   5.612   2.730 -0.2830 -0.7916 -0.1846
10230TIP3   OH252180   0.648   1.319  15.213  0.0203 -0.2300  0.2932
10230TIP3    H152181   0.617   1.337  15.124  0.8213  1.4085  0.3041
10230TIP3    H252182   0.744   1.313  15.204  0.1292  0.2332  1.0769
10231TIP3   OH252183   6.508   2.312  10.991 -0.0669 -0.0717  0.5030
10231TIP3    H152184   6.523   2.352  10.905  1.8697 -0.5831  0.5449
10231TIP3    H252185   6.419   2.279  10.987 -0.9801  2.2961 -0.3053
10232TIP3   OH252186   2.126   0.140  16.310  0.1899  0.1482  0.4338
10232TIP3    H152187   2.192   0.206  16.330  2.1724 -0.4519 -3.3330
10232TIP3    H252188   2.172   0.056  16.316 -0.5174 -0.3803 -1.0568
10233TIP3   OH252189   1.274   6.214  12.349  0.1963  0.5773  0.3941
10233TIP3    H152190   1.343   6.228  12.414 -0.7171  0.8154  1.3482
10233TIP3    H252191   1.274   6.293  12.295 -0.6664  1.5190  1.6948
10234TIP3   OH252192   0.963   1.281   3.894 -0.6889 -0.0474  0.1424
10234TIP3    H152193   0.966   1.198   3.845 -0.3498  0.1685 -0.2103
10234TIP3    H252194   1.042   1.327   3.867  0.4977 -0.6932  2.3001
10235TIP3   OH252195   5.240   2.899  11.678 -0.3629  0.2954  0.1995
10235TIP3    H152196   5.165   2.854  11.717  0.5395 -0.1560  1.4738
10235TIP3    H252197   5.204   2.942  11.600 -1.6236 -1.1651 -0.0859
10236TIP3   OH252198   4.605   2.931  13.210 -0.5062  0.0971 -0.3158
10236TIP3    H152199   4.537   2.931  13.143 -0.8491 -0.8569  0.0207
10236TIP3    H252200   4.649   2.847  13.200  0.8114  0.8121 -0.7039
10237TIP3   OH252201   6.541   3.027  15.572  0.0538  0.0674  0.4224
10237TIP3    H152202   6.458   2.988  15.542 -1.5094  2.2396  1.6646
10237TIP3    H252203   6.585   3.055  15.492 -1.1270  0.2373 -0.1890
10238TIP3   OH252204   0.176   0.762   0.966 -0.9518 -0.3327  0.0125
10238TIP3    H152205   0.174   0.821   1.042 -0.5676  0.4195 -0.5521
10238TIP3    H252206   0.155   0.676   1.003  0.3431 -0.1956  1.1645
10239TIP3   OH252207   4.221   3.315  16.072 -0.7059 -0.5283  0.1538
10239TIP3    H152208   4.247   3.394  16.119  1.0058 -2.6855  3.2400
10239TIP3    H252209   4.252   3.328  15.983  0.5464  1.8065  0.8662
10240TIP3   OH252210   2.769   2.662   2.402  0.4677  0.3101 -0.1118
10240TIP3    H152211   2.729   2.646   2.487  1.9078 -0.1024  0.4973
10240TIP3    H252212   2.695   2.662   2.341 -0.4171 -0.9437  0.9140
10241TIP3   OH252213   3.682   0.805   0.806  0.1305  0.1587 -0.3090
10241TIP3    H152214   3.720   0.823   0.891  1.0822  0.6894 -0.8352
10241TIP3    H252215   3.727   0.864   0.746 -0.2463 -0.4809 -1.2486
10242TIP3   OH252216   0.503   4.420   1.140  0.0505  0.9444 -0.0815
10242TIP3    H152217   0.483   4.513   1.134  1.7107  1.3868  0.5740
10242TIP3    H252218   0.457   4.390   1.219  1.1104  1.7214  0.8819
10243TIP3   OH252219   3.402   4.148   0.139  0.5031 -0.3035  0.2337
10243TIP3    H152220   3.395   4.111   0.226  1.8564  0.1816  0.5821
10243TIP3    H252221   3.328   4.208   0.132 -0.2501 -1.1709  0.6062
10244TIP3   OH252222   5.059   5.509  14.697 -0.2883 -0.5697  0.4401
10244TIP3    H152223   5.075   5.422  14.734 -2.7623 -1.6897 -0.8651
10244TIP3    H252224   4.964   5.513  14.687 -0.1623  1.9973 -0.2676
10245TIP3   OH252225   0.925   2.834  11.019 -0.6468  0.4142  0.3386
10245TIP3    H152226   0.944   2.801  10.931  1.5868  0.3778  0.7947
10245TIP3    H252227   0.831   2.819  11.029 -0.7078 -0.8707 -1.5025
10246TIP3   OH252228   0.083   2.616  15.500 -0.7201 -0.2028 -0.1792
10246TIP3    H152229   0.104   2.531  15.540  0.6231  1.0952  2.1293
10246TIP3    H252230   0.008   2.648  15.550 -2.0941 -0.5310 -1.9263
10247TIP3   OH252231   0.919   1.485  11.365 -0.1065  0.1583  0.0085
10247TIP3    H152232   0.837   1.502  11.319 -0.3591  0.1464  0.4547
10247TIP3    H252233   0.895   1.426  11.436  0.3844 -0.2815 -0.1893
10248TIP3   OH252234   1.710   3.341  16.550  0.2091 -0.1579  0.1480
10248TIP3    H152235   1.762   3.422  16.547 -0.5986  0.3987  0.6112
10248TIP3    H252236   1.664   3.339  16.467 -0.0649  0.0752  0.2887
10249TIP3   OH252237   1.522   3.866   5.101 -0.5155 -0.2025  0.7586
10249TIP3    H152238   1.504   3.782   5.059 -1.2843 -0.0356  0.7380
10249TIP3    H252239   1.499   3.852   5.193 -1.0903  0.1111  0.6689
10250TIP3   OH252240   0.139   2.197  13.996 -0.0595 -0.2411  0.3895
10250TIP3    H152241   0.055   2.242  14.009  0.0642 -0.0173  0.4182
10250TIP3    H252242   0.205   2.262  14.020  0.1090 -0.6061  0.9498
10251TIP3   OH252243   2.230   1.128  16.506  0.0052 -0.0890  0.5044
10251TIP3    H152244   2.267   1.041  16.493  0.5890 -0.2246  2.6644
10251TIP3    H252245   2.286   1.169  16.572 -1.6680  0.9785  1.3575
10252TIP3   OH252246   6.758   6.757  16.517  0.2159 -0.1246  0.7464
10252TIP3    H152247   6.841   6.752  16.470 -0.0150 -0.9782  0.4116
10252TIP3    H252248   6.692   6.752  16.448 -0.1251 -0.9484  1.1295
10253TIP3   OH252249   2.820   4.011   5.153  0.1373 -0.1184  0.6977
10253TIP3    H152250   2.849   3.948   5.087  1.3252  1.4424 -0.3420
10253TIP3    H252251   2.901   4.046   5.191 -0.5095  0.0867  1.9315
10254TIP3   OH252252   3.204   2.918  17.042 -0.0084  0.2676  0.7844
10254TIP3    H152253   3.144   2.852  17.006  0.0245  0.7368 -0.1671
10254TIP3    H252254   3.151   2.998  17.046  0.1927  0.3835  1.1435
10255TIP3   OH252255   1.035   2.547  11.835 -0.2957  0.1276  0.0383
10255TIP3    H152256   1.111   2.573  11.784 -0.1589  1.6817  0.9486
10255TIP3    H252257   0.966   2.533  11.771  0.5998 -0.8153 -0.7571
10256TIP3   OH252258   5.095   2.138  16.225 -0.1299 -0.5795  0.2374
10256TIP3    H152259   5.158   2.066  16.219  1.3925  0.6076  1.1935
10256TIP3    H252260   5.044   2.118  16.303  1.6208  0.3110  1.6882
10257TIP3   OH252261   0.175   2.035  10.483  0.1477  0.4930 -0.0425
10257TIP3    H152262   0.232   2.015  10.409 -1.3228  2.1208 -1.7209
10257TIP3    H252263   0.146   1.950  10.515  0.6487 -0.2428 -1.4771
10258TIP3   OH252264   0.260   2.609   0.638  0.4519 -0.3825 -0.2772
10258TIP3    H152265   0.324   2.546   0.606 -0.5484  0.0599 -3.5309
10258TIP3    H252266   0.311   2.689   0.652  1.3456 -1.2505  1.7736
10259TIP3   OH252267   5.086   1.065  11.961  0.3096 -0.3186 -0.2832
10259TIP3    H152268   5.087   1.148  11.914  0.0733  0.1732  0.5469
10259TIP3    H252269   5.176   1.033  11.958  1.0455  1.3463  1.7286
10260TIP3   OH252270   1.094   6.178   5.199 -0.1527  0.0663  0.0007
10260TIP3    H152271   1.150   6.122   5.253  0.8305  1.0816  0.0746
10260TIP3    H252272   1.042   6.117   5.146  0.8998 -0.9073  0.0640
10261TIP3   OH252273   2.761   6.043   2.960  0.2539 -0.3326  0.5538
10261TIP3    H152274   2.786   5.963   3.006 -0.3997 -0.2658  1.0243
10261TIP3    H252275   2.679   6.071   3.001  0.3539  0.4527  0.2379
10262TIP3   OH252276   1.680   0.243  14.340  0.0345 -0.1663  0.6524
10262TIP3    H152277   1.648   0.331  14.320 -0.0764 -0.1801  0.7617
10262TIP3    H252278   1.773   0.254  14.357 -0.1709  0.1016  1.6811
10263TIP3   OH252279   2.723   2.261   2.871 -0.1771 -0.2897 -0.0674
10263TIP3    H152280   2.675   2.255   2.954  0.4212 -2.0384  0.1938
10263TIP3    H252281   2.694   2.343   2.832 -1.6754 -0.2155  1.1338
10264TIP3   OH252282   1.917   1.547  15.877  0.1737 -0.1637  0.3390
10264TIP3    H152283   1.831   1.508  15.861  0.2879 -0.1047 -0.4935
10264TIP3    H252284   1.979   1.474  15.868  0.1760 -0.3010  1.4183
10265TIP3   OH252285   1.256   4.508   5.145 -0.2382  0.1397 -0.2453
10265TIP3    H152286   1.317   4.497   5.218  0.9990  0.6005 -1.1730
10265TIP3    H252287   1.252   4.422   5.103  0.3052  0.2739 -0.5785
10266TIP3   OH252288   3.618   0.388  11.927  0.4796  0.2794 -0.2271
10266TIP3    H152289   3.653   0.474  11.906 -1.8669  1.1504 -0.8612
10266TIP3    H252290   3.566   0.401  12.006 -0.8623 -0.2509 -0.9863
10267TIP3   OH252291   5.792   2.415  17.005 -0.3145 -0.4701 -0.4714
10267TIP3    H152292   5.816   2.507  16.995  1.4527 -0.9061 -0.6050
10267TIP3    H252293   5.775   2.385  16.916 -0.5963 -0.3441 -0.4600
10268TIP3   OH252294   3.535   4.913  17.201 -0.7320 -0.2699 -0.3244
10268TIP3    H152295   3.551   4.819  17.206 -1.7339 -0.4721 -0.6213
10268TIP3    H252296   3.498   4.937  17.286 -1.6677 -0.4053 -0.6758
10269TIP3   OH252297   1.031   0.282   4.190  0.1984  0.0558  0.3534
10269TIP3    H152298   1.109   0.264   4.241 -0.0230 -1.0015  0.3405
10269TIP3    H252299   1.058   0.351   4.128  1.0417 -0.1224  0.5092
10270TIP3   OH252300   1.930   6.156   1.418 -0.2715  0.1036 -0.0738
10270TIP3    H152301   1.944   6.234   1.365  0.7594  0.6631  0.9896
10270TIP3    H252302   1.836   6.138   1.409 -0.5572  1.5338 -0.2354
10271TIP3   OH252303   5.705   2.873   1.296 -0.4128  0.2924 -0.3513
10271TIP3    H152304   5.729   2.887   1.205 -3.1791  0.9756 -1.0597
10271TIP3    H252305   5.698   2.961   1.333 -1.4186  0.1136 -0.1016
10272TIP3   OH252306   1.676   5.119  11.476  0.1592 -0.3143  0.0205
10272TIP3    H152307   1.658   5.141  11.384  0.6630  2.3987  0.4868
10272TIP3    H252308   1.748   5.176  11.501  0.3022 -1.2839  2.0121
10273TIP3   OH252309   2.154   6.293   5.147  0.2518 -0.5357 -0.4045
10273TIP3    H152310   2.126   6.234   5.077 -2.5361  1.7429 -1.4012
10273TIP3    H252311   2.098   6.272   5.221 -0.4176  0.4264 -0.6084
10274TIP3   OH252312   2.006   3.677  17.027  0.0368  0.1447  0.1109
10274TIP3    H152313   1.951   3.662  16.950  1.0874  1.9398 -1.0643
10274TIP3    H252314   2.048   3.593  17.043 -1.2781 -0.6385 -0.3803
10275TIP3   OH252315   5.753   1.658  16.510 -0.0832  0.1977 -0.1107
10275TIP3    H152316   5.837   1.639  16.469 -0.0453 -1.1295  0.5515
10275TIP3    H252317   5.748   1.600  16.585 -0.2705  2.3658  1.6730
10276TIP3   OH252318   2.854   1.101   5.653  0.5277  0.2124 -0.5937
10276TIP3    H152319   2.775   1.132   5.608 -0.3501 -0.9681  0.0929
10276TIP3    H252320   2.903   1.181   5.673 -2.0454  1.3410  1.8671
10277TIP3   OH252321   2.771   2.748  15.684  0.0615  0.0224  0.4895
10277TIP3    H152322   2.860   2.713  15.687 -0.0947 -0.3113  2.2392
10277TIP3    H252323   2.715   2.675  15.709 -0.8425 -0.0504 -1.5305
10278TIP3   OH252324   6.004   3.696   4.971  0.3846 -0.5237  0.3732
10278TIP3    H152325   6.073   3.727   5.029  0.6814 -1.3362  0.4638
10278TIP3    H252326   6.048   3.684   4.886  0.0039  0.4449  0.0253
10279TIP3   OH252327   3.334   0.994  12.074  0.0665 -0.1463 -0.2651
10279TIP3    H152328   3.296   0.925  12.130 -0.4818  0.3023 -0.0789
10279TIP3    H252329   3.285   0.989  11.993 -0.8172  0.8251  0.1878
10280TIP3   OH252330   3.983   5.803  12.248  0.0118  0.2290  0.4451
10280TIP3    H152331   4.005   5.804  12.341  1.7082 -2.4310  0.1859
10280TIP3    H252332   4.063   5.773  12.205 -1.7106 -1.9444 -1.5117
10281TIP3   OH252333   3.864   0.852  11.881 -0.5151 -0.1629 -0.4132
10281TIP3    H152334   3.959   0.855  11.874 -0.3897  0.6799  1.3160
10281TIP3    H252335   3.834   0.930  11.835 -0.2480  0.4946  0.5001
10282TIP3   OH252336   4.719   0.935   2.274  0.2803 -0.3578 -0.2320
10282TIP3    H152337   4.806   0.972   2.289 -0.0947  0.1619  0.7415
10282TIP3    H252338   4.697   0.892   2.357 -0.1780 -0.9468 -0.6467
10283TIP3   OH252339   6.264   1.717   0.949  0.4990 -0.1212 -0.2284
10283TIP3    H152340   6.171   1.714   0.968  0.2975  2.3239 -0.5687
10283TIP3    H252341   6.297   1.631   0.977 -1.9463 -1.3499 -0.8511
10284TIP3   OH252342   6.635   6.315   2.765  0.2636 -0.5352 -0.1340
10284TIP3    H152343   6.596   6.388   2.814  1.0781  0.4368 -0.8853
10284TIP3    H252344   6.573   6.298   2.694  0.0742 -0.5795  0.0397
10285TIP3   OH252345   4.938   2.239  10.957  0.5383 -0.3752  0.0669
10285TIP3    H152346   4.883   2.299  10.907  0.5496  0.0526  0.5577
10285TIP3    H252347   4.974   2.179  10.892 -0.2473 -0.4534 -0.3003
10286TIP3   OH252348   6.218   5.789  12.072 -0.0535 -0.4337 -0.6593
10286TIP3    H152349   6.274   5.714  12.055  0.5607  0.1152 -1.0727
10286TIP3    H252350   6.144   5.778  12.012  0.4750 -0.2474 -1.3580
10287TIP3   OH252351   5.817   3.726   0.703  0.0741  0.2472 -0.1406
10287TIP3    H152352   5.788   3.636   0.718  2.2191 -0.6161 -0.7093
10287TIP3    H252353   5.819   3.735   0.608  2.4998 -0.1150 -0.1889
10288TIP3   OH252354   5.504   4.236   0.123 -0.2398  0.6128  0.1321
10288TIP3    H152355   5.409   4.236   0.116 -0.1380  1.1348 -1.7326
10288TIP3    H252356   5.535   4.228   0.033  1.5010 -0.7324  0.7992
10289TIP3   OH252357   2.318   5.223   0.539  0.6775  0.8237 -0.0310
10289TIP3    H152358   2.289   5.156   0.601  0.7963 -1.1765 -1.9897
10289TIP3    H252359   2.379   5.278   0.589  1.4084 -1.1941  1.4151
10290TIP3   OH252360   3.897   6.806  16.514  0.1502 -0.0737 -0.4404
10290TIP3    H152361   3.833   6.859  16.561  0.0532 -1.2750  0.8665
10290TIP3    H252362   3.847   6.765  16.443 -0.3574 -0.3546  0.0694
10291TIP3   OH252363   4.411   4.794  13.424 -0.1415 -0.4866 -0.0917
10291TIP3    H152364   4.398   4.785  13.518 -1.0311  2.0284  0.1043
10291TIP3    H252365   4.461   4.874  13.414  1.7336 -1.7684 -1.7314
10292TIP3   OH252366   5.025   3.661   1.056  0.6016 -0.0538  0.2020
10292TIP3    H152367   4.949   3.637   1.003  1.7114  0.6712 -1.8079
10292TIP3    H252368   5.073   3.579   1.069  1.2169  0.0087 -1.4462
10293TIP3   OH252369   5.736   2.942  13.639  0.9446 -0.1977  0.0058
10293TIP3    H152370   5.749   3.030  13.603  0.0828  0.5204  1.3714
10293TIP3    H252371   5.735   2.885  13.562  0.1210  1.1430 -1.0302
10294TIP3   OH252372   0.893   2.939   3.432  0.1801 -0.2887 -0.7208
10294TIP3    H152373   0.973   2.908   3.474  0.5344 -0.7640 -1.7197
10294TIP3    H252374   0.883   3.029   3.463 -0.9411 -1.3441  2.3770
10295TIP3   OH252375   5.109   6.706   1.845 -0.1701  0.1390 -0.3551
10295TIP3    H152376   5.147   6.674   1.927  2.0055  1.5508 -0.7090
10295TIP3    H252377   5.100   6.800   1.857  0.0333  0.3534 -1.6570
10296TIP3   OH252378   0.501   5.811   5.258 -0.8155  0.9194  0.0041
10296TIP3    H152379   0.419   5.808   5.307 -0.0517  2.7861  1.5052
10296TIP3    H252380   0.493   5.739   5.194 -2.8802 -0.0165  1.2057
10297TIP3   OH252381   1.883   0.078  11.631  0.0471 -0.1777  0.1490
10297TIP3    H152382   1.949   0.141  11.661  0.6757 -0.3342 -0.8494
10297TIP3    H252383   1.927  -0.006  11.635 -0.0736 -0.2784 -0.5701
10298TIP3   OH252384   3.361   2.212  14.715  0.4802  0.0512  0.4236
10298TIP3    H152385   3.385   2.145  14.779 -2.3499 -1.8939 -0.3578
10298TIP3    H252386   3.435   2.215  14.655  1.6409 -0.6929  1.7466
10299TIP3   OH252387   1.546   5.054  14.691  0.3239 -0.1542  0.1475
10299TIP3    H152388   1.464   5.099  14.671  0.5002  1.0222  1.8165
10299TIP3    H252389   1.524   4.961  14.687 -0.8557  0.1340 -0.3559
10300TIP3   OH252390   3.698   6.247  12.436  0.2381  0.1385 -0.2806
10300TIP3    H152391   3.794   6.241  12.441  0.1177 -0.3263  2.4670
10300TIP3    H252392   3.682   6.335  12.401  1.6250 -0.5497 -2.9159
10301TIP3   OH252393   0.999   4.117   2.021 -0.6884 -0.4718 -0.3647
10301TIP3    H152394   1.057   4.142   1.949  0.2335  0.0904  0.5493
10301TIP3    H252395   1.057   4.083   2.089 -1.5712 -1.2807  0.0181
10302TIP3   OH252396   5.942   5.840  16.365  0.1153  0.2989 -0.1298
10302TIP3    H152397   5.933   5.747  16.387  1.2072  0.3272  0.5618
10302TIP3    H252398   5.898   5.886  16.437 -0.2784  0.3224 -0.3838
10303TIP3   OH252399   1.715   4.074   5.476  0.3243  0.0862 -0.1025
10303TIP3    H152400   1.675   4.121   5.549  0.1138 -0.7616  0.3415
10303TIP3    H252401   1.648   4.010   5.450  0.1562  0.7638 -1.4331
10304TIP3   OH252402   4.940   0.570  12.916  0.5606  0.4210 -0.6180
10304TIP3    H152403   4.965   0.579  13.008  3.7369  0.6675 -1.3767
10304TIP3    H252404   4.925   0.477  12.904  2.7581 -0.0228 -0.3406
10305TIP3   OH252405   6.486   1.268   1.384  0.3137 -0.5613  0.4100
10305TIP3    H152406   6.524   1.253   1.297  0.4645 -3.4411  0.8445
10305TIP3    H252407   6.428   1.343   1.373  0.4882 -0.7034 -2.1274
10306TIP3   OH252408   0.547   1.696   5.461 -0.4170 -0.0648 -0.6351
10306TIP3    H152409   0.496   1.616   5.471 -0.3409 -0.0449 -0.0565
10306TIP3    H252410   0.628   1.679   5.511 -0.8126  0.7261  0.3088
10307TIP3   OH252411   2.060   2.193   5.766  0.1924 -0.2536 -0.0976
10307TIP3    H152412   2.054   2.283   5.797 -1.2678 -0.6859  0.9918
10307TIP3    H252413   2.088   2.143   5.842 -0.0900 -0.8680 -0.3860
10308TIP3   OH252414   1.571   5.236  15.700 -0.0765  0.3292  0.3279
10308TIP3    H152415   1.556   5.271  15.788  0.6231  1.3872  0.0527
10308TIP3    H252416   1.487   5.243  15.656  0.1231  2.1039  0.1572
10309TIP3   OH252417   6.506   2.046   2.564 -0.5937  0.5507  0.0233
10309TIP3    H152418   6.490   2.128   2.610  2.3970  1.3112 -0.0911
10309TIP3    H252419   6.441   2.045   2.494 -1.1255  2.4886  0.4259
10310TIP3   OH252420   4.315   1.101  14.078  0.3221  0.1579  0.3107
10310TIP3    H152421   4.269   1.171  14.031  0.4438 -0.3803 -0.6394
10310TIP3    H252422   4.348   1.044  14.009  1.1558 -0.2558  1.0375
10311TIP3   OH252423   2.582   1.323   0.906 -0.5727  0.0452 -0.0931
10311TIP3    H152424   2.576   1.387   0.834 -2.1985 -0.5934 -0.5480
10311TIP3    H252425   2.513   1.260   0.888 -1.2264  0.0351  2.2128
10312TIP3   OH252426   2.601   1.231  12.850 -0.7418 -0.4792  0.4941
10312TIP3    H152427   2.695   1.241  12.839 -0.6519  0.4015  1.8631
10312TIP3    H252428   2.584   1.139  12.828  0.6633 -1.0468  1.6556
10313TIP3   OH252429   3.446   5.636   1.105  0.0256 -0.3587 -0.2286
10313TIP3    H152430   3.357   5.670   1.098 -0.2408 -1.1257 -0.7196
10313TIP3    H252431   3.488   5.691   1.171 -0.8853 -0.1414  0.1832
10314TIP3   OH252432   1.715   1.600  14.512  0.4435  0.5806 -0.3012
10314TIP3    H152433   1.692   1.507  14.506  0.0447  0.7290 -1.1521
10314TIP3    H252434   1.641   1.646  14.474  0.4005  1.2889  0.5980
10315TIP3   OH252435   5.576   2.423  13.258  0.0189 -0.2654 -0.4498
10315TIP3    H152436   5.671   2.422  13.253  0.0552  0.8122 -0.3451
10315TIP3    H252437   5.551   2.501  13.208 -0.9494 -1.6857 -2.3279
10316TIP3   OH252438   3.940   1.278  11.953  0.2322  0.1824  0.1909
10316TIP3    H152439   3.923   1.356  11.899 -0.7743  0.7720  1.3130
10316TIP3    H252440   4.031   1.288  11.982  2.3601 -2.1895 -4.5646
10317TIP3   OH252441   6.511   6.418  16.533  0.2599  0.2038  0.5131
10317TIP3    H152442   6.426   6.439  16.572  0.1737  2.0918 -0.5695
10317TIP3    H252443   6.491   6.358  16.461 -0.2169  1.0064 -0.0292
10318TIP3   OH252444   0.013   5.693  16.136 -0.3532  0.4604  0.0088
10318TIP3    H152445  -0.042   5.675  16.060 -0.1568 -0.9757  0.1758
10318TIP3    H252446  -0.032   5.650  16.209  0.6997 -0.2978  0.2364
10319TIP3   OH252447   4.564   1.879  14.777 -0.3495 -0.0243 -0.3648
10319TIP3    H152448   4.512   1.841  14.706 -0.9566 -0.8927  0.5253
10319TIP3    H252449   4.583   1.968  14.747 -2.9918  0.6033 -0.4076
10320TIP3   OH252450   4.233   2.110  12.028 -0.1393 -0.1773 -0.0305
10320TIP3    H152451   4.158   2.131  11.973 -0.2579 -2.0141 -0.6020
10320TIP3    H252452   4.308   2.113  11.969 -0.3713 -3.0221 -0.5698
10321TIP3   OH252453   3.174   5.995   2.160 -0.0639  0.2248  0.1276
10321TIP3    H152454   3.232   5.957   2.227 -0.6263  1.1488  1.1736
10321TIP3    H252455   3.155   6.083   2.193 -2.6999 -0.3257  0.2495
10322TIP3   OH252456   4.253   6.238   3.305 -0.0871  0.3252 -0.1745
10322TIP3    H152457   4.217   6.165   3.255  0.0454  0.8040 -0.9926
10322TIP3    H252458   4.330   6.203   3.349 -0.1610 -0.0787 -0.3671
10323TIP3   OH252459   6.127   0.726  15.533 -0.2936  0.1573  0.0601
10323TIP3    H152460   6.073   0.657  15.572 -3.9033  3.0550  0.6961
10323TIP3    H252461   6.099   0.729  15.441  0.8372 -0.0441 -0.3065
10324TIP3   OH252462   3.331   4.536   0.861  0.1483  0.1208  0.5908
10324TIP3    H152463   3.293   4.578   0.784  0.1093 -1.5210 -0.3364
10324TIP3    H252464   3.424   4.555   0.854  0.1008  0.2710  0.3227
10325TIP3   OH252465   4.488   4.443  15.706  0.2072 -0.0918 -0.7574
10325TIP3    H152466   4.415   4.471  15.762  0.0919 -2.6254  0.5080
10325TIP3    H252467   4.524   4.367  15.751  2.5634  0.0569 -2.2553
10326TIP3   OH252468   5.098   2.122   3.479 -0.2952 -0.0734  0.2155
10326TIP3    H152469   5.146   2.071   3.544 -2.8078 -1.9017  0.8005
10326TIP3    H252470   5.166   2.162   3.425  1.8534 -1.5541  1.6481
10327TIP3   OH252471   3.599   5.723   6.845 -0.4366  0.4015 -0.6206
10327TIP3    H152472   3.623   5.707   6.937 -0.0301  1.4992 -0.5268
10327TIP3    H252473   3.611   5.638   6.803  0.8493  0.2337  0.0275
10328TIP3   OH252474   2.743   5.323  14.457 -0.2204  0.2550 -0.2460
10328TIP3    H152475   2.747   5.413  14.426  3.7337 -0.0602 -1.0974
10328TIP3    H252476   2.809   5.318  14.526  0.1373 -2.1205 -0.6733
10329TIP3   OH252477   2.394   2.563   2.427  0.7443 -0.0268  0.0100
10329TIP3    H152478   2.318   2.622   2.425  1.7527  1.2986 -0.1844
10329TIP3    H252479   2.397   2.531   2.518 -2.3089 -3.2530 -0.7686
10330TIP3   OH252480   3.196   5.963   3.373  0.2743  0.3171  0.2787
10330TIP3    H152481   3.288   5.942   3.392 -0.1282 -0.5734  1.2963
10330TIP3    H252482   3.199   6.053   3.341  1.3882  0.6691  1.3048
10331TIP3   OH252483   6.578   2.172   5.623  0.7617 -0.0856 -0.4579
10331TIP3    H152484   6.581   2.082   5.657 -0.6490 -0.2887 -0.8284
10331TIP3    H252485   6.552   2.162   5.532  1.4249  0.6618 -0.7332
10332TIP3   OH252486   4.795   3.187  16.380 -0.0315 -0.5753  0.6259
10332TIP3    H152487   4.718   3.189  16.323  1.0223 -1.7671 -0.9316
10332TIP3    H252488   4.810   3.094  16.396 -0.1152 -0.2807  2.6711
10333TIP3   OH252489   5.486   1.397  16.094 -0.3006  0.0443 -0.6248
10333TIP3    H152490   5.399   1.417  16.061 -0.7520  1.2056  1.1414
10333TIP3    H252491   5.471   1.350  16.176  0.7808 -2.7943 -1.8837
10334TIP3   OH252492   1.490   4.600  14.399 -0.2630 -0.1968 -0.1864
10334TIP3    H152493   1.572   4.614  14.447 -0.1430 -1.5180  0.0330
10334TIP3    H252494   1.427   4.657  14.444  0.3820  0.3801  0.0229
10335TIP3   OH252495   6.224   3.239  15.938 -0.4771 -0.2949 -0.4933
10335TIP3    H152496   6.249   3.203  16.023 -0.8108 -0.7105 -0.5693
10335TIP3    H252497   6.307   3.258  15.894 -0.2825  0.9404  0.3432
10336TIP3   OH252498   3.295   2.001  14.925 -0.3440 -0.0370 -0.5248
10336TIP3    H152499   3.338   2.053  14.993 -0.2101 -0.9734  0.1162
10336TIP3    H252500   3.238   2.064  14.880 -1.3141  0.3960  1.1876
10337TIP3   OH252501   0.690   4.336   0.220 -0.2756 -0.1130 -0.0843
10337TIP3    H152502   0.713   4.401   0.287 -2.0427  1.5623 -1.0005
10337TIP3    H252503   0.752   4.353   0.149 -1.0654  0.9940 -0.5360
10338TIP3   OH252504   4.579   1.102  10.960 -0.0192  0.0843  0.3572
10338TIP3    H152505   4.627   1.020  10.950  0.5093  0.5106 -0.6661
10338TIP3    H252506   4.646   1.169  10.968 -0.4485  0.5653 -0.0125
10339TIP3   OH252507   0.126   5.897   0.660  0.1103 -0.2560 -0.0620
10339TIP3    H152508   0.087   5.886   0.573 -0.7876  0.3470  0.2428
10339TIP3    H252509   0.146   5.808   0.689 -1.1805 -0.6015 -0.1835
10340TIP3   OH252510   1.707   0.287  12.240 -0.2471 -0.2391 -0.3404
10340TIP3    H152511   1.686   0.229  12.312  1.5105  0.5394  0.8802
10340TIP3    H252512   1.680   0.240  12.161  0.1694 -2.2386  0.6669
10341TIP3   OH252513   6.741   1.035   2.909  0.6241  0.5519  0.0595
10341TIP3    H152514   6.734   1.111   2.851  1.3218  0.0480 -0.7115
10341TIP3    H252515   6.824   0.994   2.885 -0.4927 -1.4145 -0.7395
10342TIP3   OH252516   2.818   5.225   6.400  0.5852  0.7369 -0.5385
10342TIP3    H152517   2.755   5.295   6.419  0.7404  0.7946 -0.2269
10342TIP3    H252518   2.843   5.239   6.309  1.8396  2.0809 -0.0366
10343TIP3   OH252519   5.178   1.506   3.239 -0.2230 -0.4475  0.5151
10343TIP3    H152520   5.175   1.555   3.156 -1.1150 -1.3965 -0.0462
10343TIP3    H252521   5.086   1.483   3.256 -0.1899  0.6083  2.3250
10344TIP3   OH252522   5.079   2.810  14.498  0.2042 -0.4237  0.2971
10344TIP3    H152523   5.063   2.848  14.584 -1.3113  1.8087 -0.8650
10344TIP3    H252524   5.159   2.853  14.467  0.4239 -0.7864  0.3570
10345TIP3   OH252525   1.944   4.046  11.817  0.2359  0.4948 -0.0384
10345TIP3    H152526   2.028   4.062  11.859 -0.4130 -1.2740  2.1398
10345TIP3    H252527   1.901   4.131  11.816  1.8620  1.3551 -0.8667
10346TIP3   OH252528   2.632   4.124   1.952 -0.2438  0.2651 -0.0216
10346TIP3    H152529   2.545   4.083   1.944  0.0623 -0.0971 -2.5740
10346TIP3    H252530   2.615   4.217   1.938 -0.4464  0.5320  1.7641
10347TIP3   OH252531   2.314   5.279  10.480 -0.2619  0.7644  0.1154
10347TIP3    H152532   2.272   5.355  10.440 -0.8528  0.5038  0.2298
10347TIP3    H252533   2.246   5.212  10.481 -0.1586  0.6589  1.2364
10348TIP3   OH252534   2.894   2.904  12.422 -0.6494 -0.6001 -0.4937
10348TIP3    H152535   2.849   2.987  12.410  0.3391 -0.1385 -1.1107
10348TIP3    H252536   2.898   2.866  12.335  0.6276 -0.3754 -0.5477
10349TIP3   OH252537   3.978   6.706   4.802  0.2595 -0.3136 -0.0337
10349TIP3    H152538   4.012   6.627   4.760  0.4959 -0.8199  1.0726
10349TIP3    H252539   4.036   6.776   4.772 -0.8432 -0.2492 -2.2338
10350TIP3   OH252540   2.263   6.117  13.658  0.2051  0.5848  0.3479
10350TIP3    H152541   2.276   6.022  13.654 -1.5430  0.3589 -0.5384
10350TIP3    H252542   2.288   6.141  13.748  0.0511 -0.7971  0.7772
10351TIP3   OH252543   4.303   3.269   1.024 -0.1048  0.3919 -0.1348
10351TIP3    H152544   4.227   3.317   0.990  0.8540  1.9942 -0.1682
10351TIP3    H252545   4.318   3.199   0.961 -0.8647  0.7826 -0.7649
10352TIP3   OH252546   1.298   3.591  16.790  0.0903  0.7936  0.3894
10352TIP3    H152547   1.301   3.610  16.884 -0.9153 -1.7951  1.0436
10352TIP3    H252548   1.367   3.526  16.777  0.0035  0.8923 -0.6044
10353TIP3   OH252549   6.157   5.744  12.805 -0.0549 -0.1581 -0.1215
10353TIP3    H152550   6.228   5.707  12.753 -1.0035 -1.5795 -0.4490
10353TIP3    H252551   6.182   5.723  12.896 -0.7987 -2.1107 -0.3180
10354TIP3   OH252552   3.835   1.963  11.380 -0.3754 -0.3500 -0.1527
10354TIP3    H152553   3.888   1.886  11.401 -0.1218  0.0773  0.8930
10354TIP3    H252554   3.813   1.953  11.288  0.2911 -1.2881 -0.2299
10355TIP3   OH252555   4.130   0.152   2.883 -0.1692 -0.6301  0.3941
10355TIP3    H152556   4.223   0.148   2.907  0.0902  1.3101 -0.0813
10355TIP3    H252557   4.106   0.243   2.897 -2.0251 -1.0974  0.5005
10356TIP3   OH252558   1.378   5.351   5.647  0.3132  0.6435 -0.4775
10356TIP3    H152559   1.341   5.340   5.560  1.4182  3.3464 -1.3811
10356TIP3    H252560   1.458   5.401   5.633  1.4519 -0.3328  1.9498
10357TIP3   OH252561   1.839   5.830   2.883 -0.7044 -0.0985  0.0708
10357TIP3    H152562   1.814   5.862   2.797  0.9809 -1.2038 -0.8932
10357TIP3    H252563   1.874   5.742   2.866 -1.5312 -0.8876  2.0674
10358TIP3   OH252564   0.722   4.303  11.986 -0.0094 -0.1694  0.3811
10358TIP3    H152565   0.682   4.229  12.032  1.0533  0.4720  2.4828
10358TIP3    H252566   0.652   4.368  11.980 -0.8574 -1.1720 -1.1910
10359TIP3   OH252567   6.401   5.077  10.903 -0.2424  0.0774 -0.1207
10359TIP3    H152568   6.331   5.128  10.945 -0.5572 -0.3433 -0.1227
10359TIP3    H252569   6.363   5.047  10.821 -0.2758 -0.6736  0.1637
10360TIP3   OH252570   3.581   5.805  12.594  0.0340 -0.2311  0.3230
10360TIP3    H152571   3.636   5.866  12.546 -0.0662  1.3009  2.0299
10360TIP3    H252572   3.642   5.742  12.632  0.4974  0.5955  0.9918
10361TIP3   OH252573   1.355   6.631   5.253 -0.0424  0.1176  0.2334
10361TIP3    H152574   1.298   6.590   5.319 -0.2432 -0.6479 -0.4064
10361TIP3    H252575   1.439   6.640   5.298  0.0044 -0.9865  0.4065
10362TIP3   OH252576   5.501   3.611  10.209  0.4840 -0.0492 -0.1880
10362TIP3    H152577   5.433   3.669  10.174  0.5072 -0.0002 -0.1531
10362TIP3    H252578   5.457   3.559  10.275  1.0049  1.7543  1.7050
10363TIP3   OH252579   0.435   1.394  14.274 -0.0542 -0.5604  0.7221
10363TIP3    H152580   0.415   1.304  14.246 -1.4960 -0.6823  1.9896
10363TIP3    H252581   0.422   1.393  14.369 -1.6623  1.3225  0.5967
10364TIP3   OH252582   3.086   5.135   2.909  0.1343 -0.3433 -0.2379
10364TIP3    H152583   3.106   5.076   2.982  0.8487 -1.2832 -1.1535
10364TIP3    H252584   3.172   5.168   2.882 -0.3107  1.7870  0.7565
10365TIP3   OH252585   3.352   1.342   6.091  0.3230 -0.3227  0.3871
10365TIP3    H152586   3.348   1.293   6.010 -1.2781 -0.3866  0.4739
10365TIP3    H252587   3.391   1.282   6.154  0.2370 -0.7744  0.0111
10366TIP3   OH252588   4.377   6.771  16.401 -0.3466 -0.0230  0.0044
10366TIP3    H152589   4.303   6.819  16.439 -0.3052  3.1829 -3.3895
10366TIP3    H252590   4.337   6.698  16.354 -1.0284  0.0672  0.4220
10367TIP3   OH252591   5.639   0.201  17.045 -0.3038  0.6872 -0.0646
10367TIP3    H152592   5.561   0.222  16.993 -0.0984  0.9086 -0.2846
10367TIP3    H252593   5.623   0.241  17.130 -0.4681  0.6581 -0.0823
10368TIP3   OH252594   5.580   5.435   1.115 -0.3479 -0.3763 -0.3421
10368TIP3    H152595   5.627   5.440   1.198  1.0271 -2.8132 -0.8664
10368TIP3    H252596   5.505   5.493   1.126  0.8611  0.9016  1.8524
10369TIP3   OH252597   5.077   2.616   2.495  0.1229  0.5767  0.6016
10369TIP3    H152598   5.071   2.707   2.525 -2.3696  0.5378  0.4265
10369TIP3    H252599   5.056   2.564   2.572  1.2611  0.1206  0.6268
10370TIP3   OH252600   1.317   2.535   0.181 -0.2426 -0.1269  0.3980
10370TIP3    H152601   1.359   2.449   0.179 -1.5522 -0.7717 -0.7435
10370TIP3    H252602   1.390   2.597   0.172  0.5122 -1.2001 -1.3262
10371TIP3   OH252603   4.230   0.868  15.012 -0.4731 -0.1135 -0.1994
10371TIP3    H152604   4.207   0.876  15.104 -0.2973 -0.5319 -0.1158
10371TIP3    H252605   4.207   0.777  14.989  0.8324 -0.4753 -0.1730
10372TIP3   OH252606   5.388   4.420   1.601 -0.2828 -0.1686  0.6623
10372TIP3    H152607   5.385   4.452   1.511 -0.2469 -0.4861  0.5473
10372TIP3    H252608   5.426   4.492   1.651  0.8659 -0.4453  0.2149
10373TIP3   OH252609   3.887   0.348  13.268 -0.4168 -0.1128  0.0294
10373TIP3    H152610   3.905   0.433  13.308  0.4647  0.1620 -0.9217
10373TIP3    H252611   3.830   0.304  13.331 -0.1423  0.8188  0.9604
10374TIP3   OH252612   2.706   6.784  11.405  0.0823  0.0020  0.1141
10374TIP3    H152613   2.740   6.721  11.341 -0.0875  0.8711 -0.8675
10374TIP3    H252614   2.761   6.771  11.482  1.2472 -0.0989 -0.6993
10375TIP3   OH252615   1.664   2.595   2.727  0.3524  0.2674 -0.4435
10375TIP3    H152616   1.597   2.566   2.789  0.6418  0.3094 -0.1075
10375TIP3    H252617   1.641   2.685   2.706  0.7993  0.5801  0.3594
10376TIP3   OH252618   5.879   2.413   0.878 -1.2340 -0.0698  0.1015
10376TIP3    H152619   5.786   2.429   0.863 -1.1510  0.0724 -0.2824
10376TIP3    H252620   5.919   2.500   0.868 -1.0513 -0.1463  0.1823
10377TIP3   OH252621   5.535   3.398  16.766 -0.0258 -0.2433 -0.0418
10377TIP3    H152622   5.443   3.386  16.789 -0.6294  0.5944 -1.8166
10377TIP3    H252623   5.583   3.344  16.828 -1.5400  1.1085  2.4850
10378TIP3   OH252624   2.891   3.314  12.160 -0.5183  0.0910  0.2925
10378TIP3    H152625   2.958   3.380  12.142 -0.8838  0.5411  0.5759
10378TIP3    H252626   2.897   3.253  12.087  0.6373 -0.2282  0.6308
10379TIP3   OH252627   6.017   0.193   4.070 -0.2336  0.1281  0.5284
10379TIP3    H152628   6.097   0.199   4.017  0.1205 -0.7194  0.9303
10379TIP3    H252629   6.021   0.269   4.128  0.1174  0.2651  0.3296
10380TIP3   OH252630   1.571   4.667  13.241 -0.0012 -0.9637 -0.4716
10380TIP3    H152631   1.653   4.625  13.265  1.3304  1.6979 -0.0536
10380TIP3    H252632   1.563   4.651  13.147  1.3254 -0.7678 -0.6370
10381TIP3   OH252633   4.065   2.302   3.624 -0.5407  0.0729 -0.2341
10381TIP3    H152634   4.013   2.364   3.573  0.3431  0.5750 -0.5642
10381TIP3    H252635   4.148   2.296   3.576 -0.4096 -0.9590  0.0909
10382TIP3   OH252636   3.073   3.380  16.042 -0.9463  0.0553 -0.1424
10382TIP3    H152637   3.022   3.335  16.109 -1.8148  2.5075  0.9515
10382TIP3    H252638   3.008   3.413  15.980 -0.1754 -2.0647 -2.2502
10383TIP3   OH252639   0.713   1.408   1.651  0.1098  0.3161  0.2736
10383TIP3    H152640   0.724   1.451   1.567 -1.9001 -1.0721 -0.7745
10383TIP3    H252641   0.637   1.451   1.690  0.5962  0.4651  1.0980
10384TIP3   OH252642   5.163   1.532  13.573 -0.1537  0.4974 -0.0021
10384TIP3    H152643   5.083   1.483  13.557  0.4592 -1.6045  2.5651
10384TIP3    H252644   5.226   1.497  13.510 -1.0013  1.7001 -1.5885
10385TIP3   OH252645   5.400   0.736   0.165  0.2343 -0.2663  0.5454
10385TIP3    H152646   5.351   0.675   0.219  1.2997 -0.9763  0.7327
10385TIP3    H252647   5.373   0.716   0.075  0.9029 -1.3408  0.5662
10386TIP3   OH252648   0.946   4.951  11.855  0.2610  0.1050 -0.3789
10386TIP3    H152649   0.933   5.025  11.796 -1.8941 -0.2745 -0.4429
10386TIP3    H252650   0.861   4.937  11.896  0.6656 -2.1964 -0.1916
10387TIP3   OH252651   1.325   6.687  15.839 -1.1699 -0.1250 -0.2990
10387TIP3    H152652   1.319   6.646  15.753 -0.9051  0.8230 -0.7887
10387TIP3    H252653   1.332   6.781  15.820  2.5848 -0.0926  0.5573
10388TIP3   OH252654   0.737   3.872  12.762  0.1417  0.0824  0.4248
10388TIP3    H152655   0.650   3.833  12.751  0.6718 -1.6475  1.8283
10388TIP3    H252656   0.769   3.885  12.673 -0.7892 -1.0927 -0.1074
10389TIP3   OH252657   1.887   4.194   3.195  0.5147 -0.5268  0.1549
10389TIP3    H152658   1.951   4.178   3.265  0.7017 -1.3958 -0.2010
10389TIP3    H252659   1.833   4.115   3.193  1.4757 -1.1928 -1.6822
10390TIP3   OH252660   0.775   5.080  15.755  0.1017  0.1740 -0.4293
10390TIP3    H152661   0.692   5.127  15.753  1.1485  2.1259 -0.4842
10390TIP3    H252662   0.761   5.004  15.698 -1.4913  0.7140 -0.8005
10391TIP3   OH252663   6.601   3.002  11.844 -0.1068  0.5960  0.6733
10391TIP3    H152664   6.538   2.945  11.888  0.9046  0.2349  1.7050
10391TIP3    H252665   6.549   3.072  11.807 -1.3890 -0.9135 -0.5133
10392TIP3   OH252666   2.350   2.471   0.552  0.4803  0.4100 -0.1655
10392TIP3    H152667   2.349   2.405   0.482 -0.2878 -0.2811  0.4758
10392TIP3    H252668   2.434   2.515   0.542  2.1327 -2.2697  0.8231
10393TIP3   OH252669   2.206   2.875   4.166 -0.3210  0.3607  0.3812
10393TIP3    H152670   2.199   2.809   4.096  1.1673 -0.2010  0.7181
10393TIP3    H252671   2.297   2.902   4.164 -0.2184  0.2460  2.1909
10394TIP3   OH252672   0.474   6.673  13.394  0.2879 -0.0412 -0.2175
10394TIP3    H152673   0.429   6.733  13.454 -0.4093  0.4193 -1.1535
10394TIP3    H252674   0.444   6.586  13.419 -0.4734  0.1961 -0.2632
10395TIP3   OH252675   0.301   3.987   3.476 -0.5000  0.1523 -0.0324
10395TIP3    H152676   0.382   3.965   3.430 -0.7281  0.4986 -0.6120
10395TIP3    H252677   0.262   4.057   3.424 -1.5443 -0.5290 -0.1896
10396TIP3   OH252678   5.500   4.620  14.147  1.0991 -0.1674 -0.4319
10396TIP3    H152679   5.525   4.710  14.127 -0.1347  0.6188  1.2736
10396TIP3    H252680   5.421   4.605  14.095 -0.5698  0.9451  1.6000
10397TIP3   OH252681   5.258   6.308  15.592 -0.0690  0.0098 -0.4576
10397TIP3    H152682   5.279   6.402  15.599 -0.9809  0.1188  1.5843
10397TIP3    H252683   5.215   6.287  15.675 -1.4837 -1.8390 -1.5915
10398TIP3   OH252684   2.828   5.123   0.932  0.2249 -0.6511  0.6058
10398TIP3    H152685   2.838   5.119   0.837  1.6715 -1.4358  0.7718
10398TIP3    H252686   2.893   5.063   0.966 -2.7558 -3.4123  1.9914
10399TIP3   OH252687   2.896   0.420   0.690 -0.0204 -0.2880  0.0398
10399TIP3    H152688   2.866   0.334   0.661 -0.0549 -0.0560 -0.6319
10399TIP3    H252689   2.969   0.440   0.632  1.9694 -1.1572  2.1029
10400TIP3   OH252690   3.198   4.144  16.783  0.3538  0.2839  0.4192
10400TIP3    H152691   3.275   4.088  16.785  0.1880  0.0435  0.2300
10400TIP3    H252692   3.125   4.084  16.800  0.0447  0.2165 -1.0491
10401TIP3   OH252693   3.184   4.910  16.804  0.2807  0.1780 -0.2608
10401TIP3    H152694   3.222   4.974  16.865  0.1456  1.5841 -1.5728
10401TIP3    H252695   3.257   4.887  16.747 -0.1318  0.6611 -0.9922
10402TIP3   OH252696   5.788   4.868   5.551  0.3649 -0.0524  0.1171
10402TIP3    H152697   5.823   4.876   5.462  1.6674  0.8372  0.6638
10402TIP3    H252698   5.837   4.795   5.589  0.5633  0.2383  0.4230
10403TIP3   OH252699   1.250   3.258   3.468  0.0352  0.0807 -0.4088
10403TIP3    H152700   1.214   3.198   3.402  0.0281  2.4655 -2.7299
10403TIP3    H252701   1.342   3.234   3.474 -0.4068 -1.5639  0.3932
10404TIP3   OH252702   2.182   1.033   0.182 -0.0015 -0.0123  0.5140
10404TIP3    H152703   2.116   1.075   0.237 -0.1909  0.6355 -0.1950
10404TIP3    H252704   2.228   1.105   0.140 -0.3146 -0.4987 -0.7094
10405TIP3   OH252705   1.829   3.770   5.280  0.0255  0.2295 -0.3940
10405TIP3    H152706   1.745   3.795   5.318 -0.4915 -0.1347 -1.2507
10405TIP3    H252707   1.886   3.754   5.355 -0.8828 -0.2343  0.2142
10406TIP3   OH252708   2.148   4.694   0.529 -0.1753 -0.0053 -0.3799
10406TIP3    H152709   2.068   4.653   0.495 -0.0262 -0.8843  0.2625
10406TIP3    H252710   2.214   4.677   0.463 -0.2992 -0.1459 -0.4692
10407TIP3   OH252711   6.426   6.673  11.295  0.0253 -0.2674  0.0450
10407TIP3    H152712   6.507   6.679  11.244 -0.5791 -0.6181 -0.9998
10407TIP3    H252713   6.385   6.591  11.265  0.7830 -1.7756  2.8349
10408TIP3   OH252714   3.267   2.959  11.976 -0.4301  0.0672  0.6257
10408TIP3    H152715   3.357   2.945  11.947 -0.5315  2.9744 -1.5634
10408TIP3    H252716   3.213   2.933  11.901 -0.9468  3.9040 -0.5489
10409TIP3   OH252717   0.024   3.971  14.154 -0.1031 -0.4000 -0.0499
10409TIP3    H152718  -0.045   4.025  14.192  1.1476  0.3809  1.1713
10409TIP3    H252719   0.104   4.024  14.162  0.7816 -1.5854 -0.7342
10410TIP3   OH252720   4.516   3.143  15.739  0.0316  0.0813  0.4835
10410TIP3    H152721   4.426   3.177  15.734 -0.9210 -1.6798  3.2942
10410TIP3    H252722   4.519   3.073  15.672 -0.5094  0.4798  0.0336
10411TIP3   OH252723   6.610   5.068  14.233  0.1682 -0.2449  0.0614
10411TIP3    H152724   6.631   5.039  14.144 -0.3603  1.4132 -0.6554
10411TIP3    H252725   6.531   5.019  14.256 -1.6140  1.5877 -1.7320
10412TIP3   OH252726   2.353   5.746  14.219  0.7819 -0.4705  0.2360
10412TIP3    H152727   2.397   5.790  14.291 -0.3716 -1.5609  1.6527
10412TIP3    H252728   2.293   5.812  14.184  1.5102  0.1343  0.1043
10413TIP3   OH252729   2.790   1.257   5.432  0.6770 -0.7254 -0.3423
10413TIP3    H152730   2.775   1.176   5.384  1.5117 -0.0263 -1.8605
10413TIP3    H252731   2.884   1.258   5.448  0.5236 -0.5462  0.6140
10414TIP3   OH252732   2.687   6.138   0.883  0.1875 -0.0725 -0.1829
10414TIP3    H152733   2.683   6.074   0.812  0.8846  0.1201 -0.4093
10414TIP3    H252734   2.671   6.222   0.840 -2.8926 -0.2270  0.4236
10415TIP3   OH252735   1.538   2.833   2.996 -0.2842 -0.0960 -0.5448
10415TIP3    H152736   1.632   2.840   2.977 -0.3604  1.4146 -0.4749
10415TIP3    H252737   1.521   2.739   2.996  1.4185 -0.4436  0.3437
10416TIP3   OH252738   3.849   5.431  13.161  0.1744 -0.2119  0.3054
10416TIP3    H152739   3.934   5.405  13.198  0.1649 -0.2394  0.3074
10416TIP3    H252740   3.785   5.405  13.227  0.2839  1.1755  0.9808
10417TIP3   OH252741   6.654   0.376  14.556  0.0497 -0.1424  0.6788
10417TIP3    H152742   6.692   0.290  14.574 -1.3453 -0.9670 -0.1136
10417TIP3    H252743   6.708   0.412  14.486  0.0981 -0.7901  0.3733
10418TIP3   OH252744   4.689   3.812  14.004  0.2525 -0.2078  0.1344
10418TIP3    H152745   4.759   3.749  13.984 -1.2136 -2.7253  2.1843
10418TIP3    H252746   4.641   3.823  13.922  0.9141 -1.3415 -0.4212
10419TIP3   OH252747   5.931   1.478  15.915  0.0435 -0.2972  0.3229
10419TIP3    H152748   5.975   1.563  15.915  2.4726 -1.4356  1.2431
10419TIP3    H252749   5.846   1.494  15.875  0.6332  2.4396 -0.0123
10420TIP3   OH252750   5.661   3.050  12.272  0.5737 -0.9517 -0.8569
10420TIP3    H152751   5.725   3.120  12.260  1.2683 -1.3654  0.2308
10420TIP3    H252752   5.606   3.080  12.344  2.0236 -2.2635  0.8854
10421TIP3   OH252753   5.432   5.835  12.312  0.2802  0.1390  0.1400
10421TIP3    H152754   5.485   5.799  12.241  1.0499  1.6441 -0.0853
10421TIP3    H252755   5.389   5.911  12.274  0.2472  0.6351  1.1247
10422TIP3   OH252756   4.962   1.678   6.367 -0.6604 -0.1497  0.4476
10422TIP3    H152757   5.039   1.649   6.417 -1.7763 -5.8073 -0.4907
10422TIP3    H252758   4.896   1.696   6.434  0.2672  0.9493  1.1195
10423TIP3   OH252759   2.545   4.269  16.136  0.0103 -0.1407  0.3982
10423TIP3    H152760   2.619   4.236  16.085 -0.5721 -0.1006 -0.4795
10423TIP3    H252761   2.479   4.200  16.131 -0.2632  0.1014  0.6456
10424TIP3   OH252762   5.399   6.455  14.906 -0.3776  0.1276  0.2042
10424TIP3    H152763   5.454   6.482  14.979 -0.6695  2.6302 -0.4176
10424TIP3    H252764   5.378   6.536  14.860 -2.8666 -0.9666 -0.7886
10425TIP3   OH252765   3.536   0.026  12.791  0.5935  0.0585 -0.4544
10425TIP3    H152766   3.605  -0.038  12.774 -1.4742 -2.0536 -1.2966
10425TIP3    H252767   3.473  -0.020  12.846  0.2447  2.2558  1.1474
10426TIP3   OH252768   6.603   5.343  12.387  0.2143  0.5808 -0.3129
10426TIP3    H152769   6.573   5.433  12.389 -1.1391  0.1500  1.3729
10426TIP3    H252770   6.660   5.335  12.464  0.3630  0.0080 -0.4759
10427TIP3   OH252771   5.064   2.665  15.007 -0.1338 -0.7172 -0.2514
10427TIP3    H152772   5.043   2.630  15.093 -1.1932  0.8700  0.1760
10427TIP3    H252773   5.098   2.590  14.958  1.3470 -1.4610  1.8007
10428TIP3   OH252774   6.191   1.174  11.256  0.3920 -0.0024 -0.0398
10428TIP3    H152775   6.189   1.134  11.169  0.2328 -1.0350  0.4200
10428TIP3    H252776   6.129   1.247  11.250  0.5254  0.0584 -0.8450
10429TIP3   OH252777   3.654   1.806  12.588  0.0888  0.3749  0.4574
10429TIP3    H152778   3.743   1.839  12.578 -0.0223  0.5490  0.0118
10429TIP3    H252779   3.606   1.846  12.516 -0.8938  2.1134  1.9757
10430TIP3   OH252780   5.558   4.872  17.020  0.4227 -0.2063  0.2093
10430TIP3    H152781   5.645   4.837  17.000 -0.0043 -0.4743 -1.2672
10430TIP3    H252782   5.552   4.867  17.115  1.7898 -0.7514  0.2901
10431TIP3   OH252783   4.996   5.536  11.484  1.0147  0.1781 -0.4031
10431TIP3    H152784   5.001   5.464  11.421 -0.2722  0.1575 -0.4945
10431TIP3    H252785   4.979   5.493  11.568  2.5335  0.2223 -0.0305
10432TIP3   OH252786   5.182   6.472  11.952  0.4775 -0.1591 -0.1445
10432TIP3    H152787   5.243   6.406  11.986 -0.1616 -1.9451 -2.2461
10432TIP3    H252788   5.165   6.445  11.862 -0.9900  2.0848 -0.6179
10433TIP3   OH252789   0.095   2.255  11.728 -0.5036  0.0650 -0.2283
10433TIP3    H152790   0.165   2.225  11.671 -0.1159  1.4286 -0.5054
10433TIP3    H252791   0.095   2.193  11.801  0.3880 -0.4766 -0.6763
10434TIP3   OH252792   2.733   6.709  11.135  0.0590  0.4401 -0.4757
10434TIP3    H152793   2.788   6.693  11.058 -3.6198  3.4371 -4.1751
10434TIP3    H252794   2.673   6.634  11.137 -1.3032  1.4135 -2.1429
10435TIP3   OH252795   4.069   0.902  16.471 -0.7722 -0.6189 -0.1966
10435TIP3    H152796   4.138   0.920  16.408  0.1171 -1.9455  0.3503
10435TIP3    H252797   4.112   0.850  16.540 -1.5648  1.1542  1.7613
10436TIP3   OH252798   0.561   6.768   1.272 -0.7829 -0.9697  0.2920
10436TIP3    H152799   0.590   6.833   1.208  1.1687  0.4957  2.5122
10436TIP3    H252800   0.497   6.814   1.326  0.9966 -0.5787  2.2170
10437TIP3   OH252801   6.255   6.487   3.178 -0.0124 -0.1689 -1.1221
10437TIP3    H152802   6.161   6.475   3.189  0.1330  0.6478  2.0275
10437TIP3    H252803   6.293   6.400   3.187 -0.3031 -0.1136  1.2224
10438TIP3   OH252804   2.910   4.279   0.534  0.3191 -0.0399 -0.1149
10438TIP3    H152805   2.869   4.353   0.489  1.8892  0.9856  0.0678
10438TIP3    H252806   2.898   4.298   0.627  0.9105  0.1101 -0.0647
10439TIP3   OH252807   1.923   6.001   3.408  0.0500  0.5012 -0.0834
10439TIP3    H152808   1.928   6.093   3.433  0.1015  0.5788 -0.3736
10439TIP3    H252809   1.847   5.968   3.456  0.4950  0.4955  0.6331
10440TIP3   OH252810   2.631   5.138  13.128  0.2501 -0.8697  0.4003
10440TIP3    H152811   2.590   5.066  13.175  0.1228 -0.5858  0.7258
10440TIP3    H252812   2.561   5.203  13.117  0.3375 -0.8340  0.0238
10441TIP3   OH252813   5.006   5.074   5.759 -0.5220  0.3146 -0.0624
10441TIP3    H152814   5.047   5.101   5.841 -0.0079  0.3956 -0.3404
10441TIP3    H252815   4.912   5.081   5.775 -0.4136  1.5007  0.1360
10442TIP3   OH252816   1.141   4.814  11.692 -0.1972 -0.0869  0.2466
10442TIP3    H152817   1.212   4.786  11.750  0.2853 -1.9571 -1.1697
10442TIP3    H252818   1.079   4.857  11.751  1.5697  0.6378  1.6907
10443TIP3   OH252819   2.808   2.621  13.906  0.1019 -0.2491 -0.2128
10443TIP3    H152820   2.780   2.711  13.924 -1.6427 -0.7884 -0.0629
10443TIP3    H252821   2.850   2.625  13.820  1.3023  0.9313  0.3939
10444TIP3   OH252822   2.368   5.178   3.295  0.8603 -0.6362 -0.2670
10444TIP3    H152823   2.407   5.244   3.238 -1.4040 -0.5561 -1.8905
10444TIP3    H252824   2.350   5.225   3.377  1.8454 -0.0337 -0.3808
10445TIP3   OH252825   6.350   6.238   2.822  0.2706 -0.3028 -0.3338
10445TIP3    H152826   6.383   6.278   2.742  0.3037 -0.6351 -0.4873
10445TIP3    H252827   6.354   6.308   2.887  0.2533 -0.0335 -0.6181
10446TIP3   OH252828   2.062   4.641   2.550 -0.0702  0.5648  0.3234
10446TIP3    H152829   1.974   4.611   2.531  0.0684 -0.9983  1.8861
10446TIP3    H252830   2.093   4.679   2.468 -1.6598 -0.1932 -0.6706
10447TIP3   OH252831   4.783   1.585   5.122 -0.9167  0.4408  0.1689
10447TIP3    H152832   4.838   1.558   5.196 -0.6334 -0.2659 -0.2886
10447TIP3    H252833   4.756   1.674   5.144 -1.3573  0.0249  1.4339
10448TIP3   OH252834   0.793   3.254   2.344 -0.1274  0.0191  0.0065
10448TIP3    H152835   0.870   3.232   2.292 -0.1021  0.0913  0.0144
10448TIP3    H252836   0.757   3.332   2.304  0.4322  0.6255  0.6651
10449TIP3   OH252837   5.951   4.585  12.677 -0.4245  0.5968 -0.3825
10449TIP3    H152838   6.033   4.622  12.711 -0.0852  0.7768 -1.3717
10449TIP3    H252839   5.913   4.539  12.752  1.1079 -0.3986 -0.1844
10450TIP3   OH252840   2.010   5.526   5.620  0.5846  0.3042  0.6452
10450TIP3    H152841   2.036   5.441   5.657  1.0981  0.8344  1.5388
10450TIP3    H252842   1.987   5.507   5.529  0.5549 -0.8160  0.8732
10451TIP3   OH252843   2.802   6.042   0.247  0.6191  0.2260  0.4080
10451TIP3    H152844   2.874   6.097   0.277 -0.0920  0.2651  2.1464
10451TIP3    H252845   2.788   5.980   0.318  0.0607 -0.9062 -0.6510
10452TIP3   OH252846   5.035   6.749  16.223 -0.3822  0.3104 -0.2124
10452TIP3    H152847   5.100   6.773  16.156 -0.8376  0.0707 -0.7419
10452TIP3    H252848   4.988   6.675  16.185 -1.0836  0.5926  0.1015
10453TIP3   OH252849   2.705   5.282  12.836  0.3554  0.2988  0.2594
10453TIP3    H152850   2.634   5.317  12.782  0.4552  0.7186  0.4009
10453TIP3    H252851   2.666   5.270  12.922  0.2371 -0.2334  0.1377
10454TIP3   OH252852   1.708   0.723   5.663 -0.4845 -0.3303 -0.0815
10454TIP3    H152853   1.766   0.668   5.715  0.7095 -0.1736 -1.1974
10454TIP3    H252854   1.735   0.813   5.685 -1.8004 -0.1748  1.0337
10455TIP3   OH252855   4.880   3.348   1.508  0.2734  0.5615 -0.1540
10455TIP3    H152856   4.899   3.435   1.544  0.0379  0.7319 -0.4293
10455TIP3    H252857   4.853   3.366   1.417  0.7382  0.1496 -0.3716
10456TIP3   OH252858   3.187   0.093  15.945  0.3786  0.2750 -0.1257
10456TIP3    H152859   3.215   0.048  16.024  1.1740 -1.6585 -1.4175
10456TIP3    H252860   3.108   0.141  15.970  0.4572 -0.5158  1.7524
10457TIP3   OH252861   3.291   0.241   0.061  0.0896  0.3194  0.0119
10457TIP3    H152862   3.318   0.333   0.068  0.7174  0.2102 -0.8194
10457TIP3    H252863   3.246   0.236  -0.023  0.4071 -0.2191 -0.1270
10458TIP3   OH252864   2.275   5.321   1.603  0.5488  0.4794 -1.3256
10458TIP3    H152865   2.222   5.242   1.613  0.7571  0.5730  1.1331
10458TIP3    H252866   2.351   5.292   1.553  1.9393 -1.6478  1.7239
10459TIP3   OH252867   5.424   1.103   0.275  0.1344 -0.1715 -0.0476
10459TIP3    H152868   5.492   1.137   0.333  0.4113  0.1129 -0.5345
10459TIP3    H252869   5.370   1.047   0.332 -0.5205  1.3005  0.8600
10460TIP3   OH252870   1.420   5.503  17.082 -0.5228 -0.2002  0.0142
10460TIP3    H152871   1.335   5.472  17.050 -0.5592  0.1826 -0.2552
10460TIP3    H252872   1.420   5.479  17.175 -0.5038 -1.1138 -0.2077
10461TIP3   OH252873   4.859   1.221  15.330 -0.4410  0.2630 -0.5672
10461TIP3    H152874   4.849   1.127  15.346 -0.8906  0.6318  1.6951
10461TIP3    H252875   4.788   1.243  15.269 -0.4426 -0.8199 -0.9763
10462TIP3   OH252876   3.527   5.208   1.544 -0.6649 -0.8862  0.4995
10462TIP3    H152877   3.608   5.173   1.583  0.8390  0.5602 -1.1406
10462TIP3    H252878   3.483   5.254   1.615  1.0349  0.0678  0.9856
10463TIP3   OH252879   0.338   2.891   5.236  0.4802 -0.2656 -0.0832
10463TIP3    H152880   0.364   2.949   5.307 -0.2253  0.0714 -0.0947
10463TIP3    H252881   0.412   2.831   5.226  0.3462 -0.7031  1.3350
10464TIP3   OH252882   5.109   6.445   3.624 -0.0540  0.1086  0.2400
10464TIP3    H152883   5.187   6.389   3.619  0.2075  0.3996  0.9653
10464TIP3    H252884   5.143   6.534   3.610 -0.1463  0.3070  1.1943
10465TIP3   OH252885   3.296   1.170  16.322  0.3190  0.0860  0.7349
10465TIP3    H152886   3.241   1.248  16.321  0.1521 -0.0270 -0.1197
10465TIP3    H252887   3.381   1.201  16.351  0.3219  0.6455  0.1562
10466TIP3   OH252888   1.611   4.286  12.076 -0.0341  0.1211  0.3917
10466TIP3    H152889   1.648   4.238  12.150 -0.0845 -0.6148 -0.0421
10466TIP3    H252890   1.554   4.222  12.033  0.0982  0.4904 -0.3523
10467TIP3   OH252891   2.247   0.023   0.374 -0.3106  0.4179  0.5836
10467TIP3    H152892   2.285   0.065   0.296 -0.7350 -2.5203 -1.3550
10467TIP3    H252893   2.153   0.017   0.355  0.0721 -4.3665 -0.9874
10468TIP3   OH252894   5.380   5.492   4.283 -0.2929  0.9779 -0.3780
10468TIP3    H152895   5.476   5.482   4.281 -0.3499  0.3075 -2.4228
10468TIP3    H252896   5.365   5.571   4.336  1.4424  1.6096 -0.7510
10469TIP3   OH252897   5.707   5.405  14.139 -0.4888 -0.3903  0.3146
10469TIP3    H152898   5.624   5.373  14.173 -0.4704  0.4338  1.1824
10469TIP3    H252899   5.687   5.438  14.052 -0.5387 -2.5681 -0.5575
10470TIP3   OH252900   2.735   0.983   3.255 -0.2419  0.2880  0.0772
10470TIP3    H152901   2.678   1.033   3.313 -0.9399 -1.0247  0.5783
10470TIP3    H252902   2.680   0.911   3.224  1.3632 -1.5804  1.3120
10471TIP3   OH252903   5.675   4.618   0.414 -0.2499  0.3621  0.0476
10471TIP3    H152904   5.642   4.546   0.468  0.2277 -0.4136 -0.6737
10471TIP3    H252905   5.747   4.656   0.465 -0.2096  0.0366  0.2344
10472TIP3   OH252906   2.284   2.150  14.622 -0.2227 -0.2705 -0.0134
10472TIP3    H152907   2.364   2.133  14.573  0.3765 -0.7034  1.0794
10472TIP3    H252908   2.313   2.199  14.699 -1.2404  1.0466 -0.4368
10473TIP3   OH252909   3.286   2.692   1.932  0.5375 -0.5756 -0.4167
10473TIP3    H152910   3.262   2.603   1.905 -2.0524 -1.2814  3.4985
10473TIP3    H252911   3.213   2.747   1.902  0.0809 -0.5285  0.7559
10474TIP3   OH252912   6.282   5.168  14.877 -0.3860  0.5291 -0.0682
10474TIP3    H152913   6.326   5.216  14.807  0.1495  0.5640  0.2803
10474TIP3    H252914   6.280   5.077  14.847 -0.5115  0.6110 -0.3018
10475TIP3   OH252915   3.819   5.219  14.936 -0.6304  0.6918  0.1519
10475TIP3    H152916   3.816   5.170  14.854  0.0020  0.4721  0.2509
10475TIP3    H252917   3.765   5.296  14.920 -0.5131  0.6497 -0.4715
10476TIP3   OH252918   4.662   6.435  11.468 -0.6024  0.9541 -0.0256
10476TIP3    H152919   4.659   6.357  11.524 -0.9792 -0.0531 -1.3912
10476TIP3    H252920   4.747   6.430  11.425 -1.3470  0.2723 -1.4805
10477TIP3   OH252921   4.059   2.150   0.479  0.7772  0.8189 -0.1688
10477TIP3    H152922   4.007   2.229   0.497  1.2344  0.5868  2.4645
10477TIP3    H252923   4.009   2.104   0.411  0.3638  3.2015 -1.5949
10478TIP3   OH252924   6.683   3.941  14.976 -0.2790  0.1096 -0.0482
10478TIP3    H152925   6.667   4.033  14.957  1.2990  0.6376  0.9833
10478TIP3    H252926   6.686   3.899  14.890 -0.3494  1.1415 -0.5716
10479TIP3   OH252927   3.650   2.381   2.289  0.0959 -0.4422 -0.4034
10479TIP3    H152928   3.606   2.328   2.222  1.5979 -1.2227 -0.8132
10479TIP3    H252929   3.635   2.471   2.260 -1.9996 -0.6099 -0.0063
10480TIP3   OH252930   6.508   3.376  11.929 -0.1165  0.3107 -0.5896
10480TIP3    H152931   6.504   3.444  11.861 -0.7879 -1.3189 -2.2567
10480TIP3    H252932   6.417   3.361  11.953 -0.0866 -0.7563 -1.0690
10481TIP3   OH252933   1.034   6.611  13.218 -0.3500 -0.3081 -0.1333
10481TIP3    H152934   0.999   6.694  13.251 -0.5617 -0.0685 -0.9394
10481TIP3    H252935   0.959   6.551  13.221 -0.5843 -0.0737 -0.8840
10482TIP3   OH252936   2.794   5.685   0.940 -0.0740 -0.2500 -0.0579
10482TIP3    H152937   2.835   5.600   0.955 -0.0380 -0.0127  1.2781
10482TIP3    H252938   2.747   5.704   1.021  1.6863  1.9910  0.5504
10483TIP3   OH252939   6.539   0.989  11.410 -0.5695 -0.0576  0.5519
10483TIP3    H152940   6.514   0.897  11.413  0.1245 -0.2672  0.0832
10483TIP3    H252941   6.458   1.037  11.430 -1.0841 -0.7486  0.1587
10484TIP3   OH252942   2.520   5.110  14.729 -0.4590  0.2626  0.1813
10484TIP3    H152943   2.584   5.115  14.657 -1.0650  2.4412 -0.3054
10484TIP3    H252944   2.572   5.129  14.807 -0.2563  0.5937 -0.0282
10485TIP3   OH252945   0.596   4.084  12.104  0.0186 -0.7972  0.5734
10485TIP3    H152946   0.671   4.036  12.139  0.2156  0.4254  1.9217
10485TIP3    H252947   0.524   4.020  12.106  0.9257 -1.8796 -0.4297
10486TIP3   OH252948   5.793   4.514   6.036  0.2405 -0.4694 -0.0765
10486TIP3    H152949   5.829   4.444   5.981  0.3741 -0.6422  0.2294
10486TIP3    H252950   5.766   4.470   6.116  0.4629 -0.1496  0.1784
10487TIP3   OH252951   6.157   2.498   0.523  0.0573  0.2487 -0.4966
10487TIP3    H152952   6.115   2.541   0.598 -1.1988 -0.2979 -0.8652
10487TIP3    H252953   6.102   2.422   0.506  0.5507  0.1602 -1.7374
10488TIP3   OH252954   5.873   0.368  16.204 -0.5378  0.1536  0.0620
10488TIP3    H152955   5.846   0.303  16.139 -1.5000  1.4792 -0.9247
10488TIP3    H252956   5.959   0.338  16.233 -0.9012 -1.4904 -0.4207
10489TIP3   OH252957   1.640   2.375  12.883 -0.2616  0.0459 -1.0102
10489TIP3    H152958   1.574   2.370  12.952 -0.4635  1.3905 -1.0761
10489TIP3    H252959   1.605   2.438  12.820  0.2986 -0.5386 -1.9280
10490TIP3   OH252960   3.292   1.178  17.021 -0.0767  0.6805  0.1148
10490TIP3    H152961   3.376   1.132  17.015  0.1107  1.1120 -0.5187
10490TIP3    H252962   3.295   1.221  17.107  0.0748  0.1693  0.3742
10491TIP3   OH252963   6.585   5.349   1.151  0.3477  0.1971 -0.0653
10491TIP3    H152964   6.535   5.274   1.119  0.1323  0.5717 -0.6331
10491TIP3    H252965   6.518   5.414   1.173  0.5857  0.8773 -1.2662
10492TIP3   OH252966   0.184   5.428   4.646 -0.0428  0.2617 -0.1761
10492TIP3    H152967   0.226   5.344   4.668 -0.0486  0.2574 -0.1806
10492TIP3    H252968   0.091   5.413   4.660 -0.1947 -0.1658 -1.5325
10493TIP3   OH252969   0.404   4.433  13.649 -0.2211 -0.5568 -0.2624
10493TIP3    H152970   0.330   4.396  13.601 -1.0883  0.4714  0.2655
10493TIP3    H252971   0.383   4.525  13.661  0.7999 -0.4079  0.5650
10494TIP3   OH252972   6.433   6.109  17.144  0.4807  0.1526 -0.1016
10494TIP3    H152973   6.474   6.187  17.107  0.8441 -0.0100 -0.0433
10494TIP3    H252974   6.499   6.071  17.201  0.5999 -0.6478 -0.7524
10495TIP3   OH252975   1.371   5.635  12.070  0.1716  0.0141 -0.4297
10495TIP3    H152976   1.444   5.577  12.047  0.6132  0.7000 -0.7765
10495TIP3    H252977   1.410   5.701  12.128  0.0812  1.0095 -1.4630
10496TIP3   OH252978   5.048   0.709   0.379 -0.0015 -0.0263  0.1907
10496TIP3    H152979   5.141   0.708   0.401  0.0608  0.1233 -0.0542
10496TIP3    H252980   5.003   0.693   0.462  0.2824 -2.4790 -0.0589
10497TIP3   OH252981   2.642   2.856  17.042 -0.2040 -0.0525 -0.3194
10497TIP3    H152982   2.620   2.763  17.039  2.8233 -0.8721 -1.0271
10497TIP3    H252983   2.636   2.884  16.951 -1.3717  0.5544 -0.0710
10498TIP3   OH252984   5.972   5.130  15.939 -0.4118 -0.1809  0.0687
10498TIP3    H152985   5.987   5.041  15.971 -0.2677  0.2156  1.1589
10498TIP3    H252986   5.955   5.119  15.845  1.4899 -1.1702 -0.2049
10499TIP3   OH252987   3.312   5.460  11.325  0.5284  0.2460 -0.1100
10499TIP3    H152988   3.380   5.501  11.271  1.4868 -0.6359  0.3957
10499TIP3    H252989   3.345   5.465  11.414 -0.7778  1.1523  0.3418
10500TIP3   OH252990   5.936   4.286   5.226 -0.4930  0.2062  0.3757
10500TIP3    H152991   5.872   4.358   5.227 -2.7491 -1.5076 -2.1695
10500TIP3    H252992   5.993   4.307   5.151 -1.9878 -1.1492 -1.2313
10501TIP3   OH252993   0.678   6.063  13.634 -0.7298  0.5073 -0.0978
10501TIP3    H152994   0.735   6.106  13.570 -0.8841 -0.5581 -0.9815
10501TIP3    H252995   0.738   6.032  13.702  0.2219 -2.8054 -2.2019
10502TIP3   OH252996   1.053   2.917  12.441  0.6917  0.3118  0.2384
10502TIP3    H152997   0.989   2.873  12.385  0.1999  0.3538  0.7555
10502TIP3    H252998   1.062   3.004  12.403  1.7947 -0.2636 -0.8900
10503TIP3   OH252999   1.058   5.977   5.579 -0.2706  0.6149 -0.2861
10503TIP3    H153000   1.121   5.915   5.616 -0.0106  0.5511 -0.8322
10503TIP3    H253001   1.095   6.001   5.494 -0.8434  0.7911 -0.4883
10504TIP3   OH253002   3.751   0.597  11.790  0.3497  0.2414  0.3036
10504TIP3    H153003   3.776   0.550  11.710  2.5143  0.0175  1.0537
10504TIP3    H253004   3.821   0.660  11.803  0.7525 -0.6091  2.7274
10505TIP3   OH253005   5.555   4.174   4.219  0.2124 -0.1434 -0.1017
10505TIP3    H153006   5.490   4.163   4.289 -1.1101 -3.1596 -1.6271
10505TIP3    H253007   5.589   4.086   4.204  0.6628  0.4357 -3.0418
10506TIP3   OH253008   6.159   4.364  15.455 -0.7308  0.5747 -0.4818
10506TIP3    H153009   6.092   4.296  15.461 -0.4722  0.2260 -1.3765
10506TIP3    H253010   6.242   4.319  15.472 -0.6715  0.9366  0.2667
10507TIP3   OH253011   3.975   6.823  11.086  0.8370 -0.1385 -0.0058
10507TIP3    H153012   3.911   6.760  11.051  0.4414 -0.4846  1.2835
10507TIP3    H253013   4.057   6.774  11.089  0.5164 -0.6414  1.0530
10508TIP3   OH253014   0.157   3.190   0.120  0.4939  0.8484 -0.7537
10508TIP3    H153015   0.117   3.148   0.044 -0.7285 -1.4058  1.0098
10508TIP3    H253016   0.239   3.142   0.133  0.7385  1.2839 -0.6875
10509TIP3   OH253017   3.177   5.418   6.030 -0.2971  0.3496  0.4244
10509TIP3    H153018   3.101   5.470   6.054 -1.1659 -0.9708  0.6266
10509TIP3    H253019   3.198   5.369   6.110 -0.3655 -0.6419 -0.1451
10510TIP3   OH253020   6.294   3.016   2.737 -0.2871 -0.3287  0.1189
10510TIP3    H153021   6.331   3.008   2.825  0.6469  0.2126 -0.2170
10510TIP3    H253022   6.358   3.066   2.688 -1.3236  0.3621 -0.5790
10511TIP3   OH253023   5.410   2.142  15.419 -0.1996  0.0447 -0.0524
10511TIP3    H153024   5.484   2.131  15.479 -1.8522 -0.6307  1.9743
10511TIP3    H253025   5.375   2.229  15.438 -0.1046  0.2555 -0.8090
10512TIP3   OH253026   5.105   3.965   0.692 -0.5701 -0.0181  0.4899
10512TIP3    H153027   5.133   4.031   0.628 -2.8728  0.7389  0.1600
10512TIP3    H253028   5.125   4.004   0.777  0.2517  0.0477  0.2723
10513TIP3   OH253029   4.790   2.785  12.571 -0.2130 -0.2924  0.2327
10513TIP3    H153030   4.798   2.704  12.621 -0.2565 -1.4016 -1.4664
10513TIP3    H253031   4.880   2.814  12.559 -0.1370 -0.5544  0.1444
10514TIP3   OH253032   6.042   3.256  10.500 -0.2999 -0.1114  0.3845
10514TIP3    H153033   6.004   3.345  10.498  2.3974  1.1318  0.6682
10514TIP3    H253034   5.971   3.200  10.469 -2.0465  2.1607 -0.0509
10515TIP3   OH253035   1.817   0.712  13.095 -0.0108 -0.6556 -0.0849
10515TIP3    H153036   1.909   0.724  13.118 -0.4514  0.0476  1.4276
10515TIP3    H253037   1.782   0.654  13.163 -1.2328  1.0377  0.8205
10516TIP3   OH253038   3.204   5.516  14.613  0.5751  0.3050 -0.2032
10516TIP3    H153039   3.222   5.573  14.687 -1.7830  0.7079  0.1295
10516TIP3    H253040   3.226   5.428  14.644  2.5057  0.7585 -0.1182
10517TIP3   OH253041   1.593   1.852   0.041 -0.2386  0.6163 -0.2137
10517TIP3    H153042   1.526   1.915   0.066  0.7088  1.2125  0.8973
10517TIP3    H253043   1.547   1.768   0.042 -0.3780  0.5790  3.4349
10518TIP3   OH253044   6.041   0.562  11.320 -0.1213 -0.3633  0.4849
10518TIP3    H153045   5.997   0.576  11.404  0.4069 -0.6654  0.8169
10518TIP3    H253046   6.096   0.485  11.335 -0.2817 -0.6219 -0.2391
10519TIP3   OH253047   5.443   3.522   4.069  0.7066  0.2145 -0.7605
10519TIP3    H153048   5.406   3.559   3.989  0.8920  1.0659 -0.4689
10519TIP3    H253049   5.369   3.514   4.128  1.0066  2.5419  0.0579
10520TIP3   OH253050   4.419   6.061  13.867  0.1569  0.0541  0.3168
10520TIP3    H153051   4.503   6.058  13.821  0.0821  0.9820  0.1043
10520TIP3    H253052   4.441   6.037  13.957  0.6623  0.3024  0.2662
10521TIP3   OH253053   5.085   1.517   2.235  0.4898 -0.4132 -0.4666
10521TIP3    H153054   5.171   1.484   2.260 -0.0672 -0.3706  1.6964
10521TIP3    H253055   5.086   1.609   2.261 -0.7311 -0.8120  1.1259
10522TIP3   OH253056   3.048   3.426  13.525  0.2496 -0.6666  0.2660
10522TIP3    H153057   2.998   3.344  13.522  2.5331 -2.2231  1.6710
10522TIP3    H253058   3.101   3.425  13.446 -1.0344  0.4294 -0.6525
10523TIP3   OH253059   6.288   4.038   0.757  0.6728  0.1432 -0.1359
10523TIP3    H153060   6.362   4.098   0.755  0.8516 -0.0676  0.1450
10523TIP3    H253061   6.211   4.095   0.756  0.8362  0.3637 -0.3323
10524TIP3   OH253062   0.099   2.059   0.284  0.2303  0.1705 -0.0688
10524TIP3    H153063   0.072   2.005   0.358  0.5207 -0.6875 -0.5796
10524TIP3    H253064   0.016   2.086   0.243  0.0810  0.3152  0.3220
10525TIP3   OH253065   2.068   0.626  17.090 -0.0033  0.4338 -0.0005
10525TIP3    H153066   2.158   0.598  17.073  0.5024  2.1082 -0.2730
10525TIP3    H253067   2.016   0.546  17.082  1.4971 -0.6301  0.5204
10526TIP3   OH253068   1.816   6.302  17.009  0.1115 -0.3319 -0.4491
10526TIP3    H153069   1.829   6.395  16.987 -0.6534 -0.1364 -0.1104
10526TIP3    H253070   1.898   6.260  16.985  0.2253  0.3197 -1.2511
10527TIP3   OH253071   1.956   1.772  12.188 -0.0943  0.0711 -0.0270
10527TIP3    H153072   1.870   1.738  12.210 -0.4412  1.1103  0.3010
10527TIP3    H253073   2.016   1.699  12.203 -0.9230 -0.6908 -0.3610
10528TIP3   OH253074   2.087   1.973   4.042 -0.2028  0.4662 -0.4072
10528TIP3    H153075   2.116   2.032   4.111 -2.1429 -1.1613  1.9807
10528TIP3    H253076   2.024   2.024   3.992 -1.9583  0.5203  1.6962
10529TIP3   OH253077   5.564   0.180  13.648  0.3380 -0.3708  0.1435
10529TIP3    H153078   5.532   0.127  13.722 -1.3645  0.9961  0.4529
10529TIP3    H253079   5.546   0.270  13.674  2.5291  0.3510 -0.6745
10530TIP3   OH253080   6.377   5.292  15.377 -0.1852 -0.4626 -0.2977
10530TIP3    H153081   6.292   5.260  15.347  0.1947 -2.1076  0.2631
10530TIP3    H253082   6.383   5.263  15.468  0.7818  0.0647 -0.1771
10531TIP3   OH253083   3.731   6.279   5.621  0.1039  0.5940  0.2185
10531TIP3    H153084   3.725   6.265   5.716 -1.3624 -0.8210 -0.0359
10531TIP3    H253085   3.660   6.339   5.601 -1.5458 -1.4114 -0.3144
10532TIP3   OH253086   1.886   0.885   5.995 -0.4301 -0.0896  0.0507
10532TIP3    H153087   1.812   0.931   5.955 -0.8408 -1.3936 -0.7714
10532TIP3    H253088   1.847   0.804   6.030  0.2653  0.1510  1.4497
10533TIP3   OH253089   2.558   3.181  14.002 -0.3836  0.2564  0.2974
10533TIP3    H153090   2.641   3.153  14.040 -1.2114  0.2586  2.2366
10533TIP3    H253091   2.524   3.103  13.958 -0.0158 -0.1537  0.7319
10534TIP3   OH253092   1.993   5.938  11.728  0.1711  1.0375 -0.0144
10534TIP3    H153093   2.019   6.006  11.666 -1.7930  2.8283  0.9845
10534TIP3    H253094   1.911   5.971  11.766  0.3789 -0.8033  2.2372
10535TIP3   OH253095   3.168   4.521  13.360 -0.1992 -0.2206  0.3525
10535TIP3    H153096   3.182   4.528  13.454  2.0407  0.1907  0.0340
10535TIP3    H253097   3.168   4.611  13.328 -0.1486 -0.3937 -0.1499
10536TIP3   OH253098   3.891   1.804   3.306 -0.1317 -0.4305  0.4011
10536TIP3    H153099   3.810   1.804   3.358  0.2262  1.5301  1.0625
10536TIP3    H253100   3.906   1.712   3.284 -1.8772 -0.9729  1.3097
10537TIP3   OH253101   3.189   1.883  11.115  0.0207  0.5314  0.0363
10537TIP3    H153102   3.173   1.803  11.065  2.6355  0.7953 -1.4495
10537TIP3    H253103   3.114   1.939  11.097 -1.4937 -1.2684  0.5032
10538TIP3   OH253104   3.204   6.390  13.690  0.1880 -0.5635  0.3758
10538TIP3    H153105   3.179   6.375  13.781  0.7852 -1.0934  0.4589
10538TIP3    H253106   3.134   6.445  13.655  0.3613  0.3357  1.3745
10539TIP3   OH253107   4.490   2.539   3.220  0.6000 -0.7461  0.1517
10539TIP3    H153108   4.434   2.578   3.288  2.1791  0.8300  0.6321
10539TIP3    H253109   4.455   2.573   3.138 -0.0117 -0.9337  0.3307
10540TIP3   OH253110   2.501   1.585   4.119 -0.4197 -0.3145  0.5262
10540TIP3    H153111   2.433   1.635   4.164 -1.8801 -0.8895 -0.9283
10540TIP3    H253112   2.473   1.494   4.128 -0.7262 -0.4471 -1.4197
10541TIP3   OH253113   6.336   0.218   0.830 -0.2662 -0.1163 -0.3964
10541TIP3    H153114   6.398   0.150   0.855 -1.1828 -0.5899  0.6562
10541TIP3    H253115   6.339   0.219   0.735  0.4692 -0.9540 -0.3992
10542TIP3   OH253116   3.553   2.066   4.919 -0.5569  0.2441  0.4244
10542TIP3    H153117   3.497   2.041   4.845  1.5339  0.1461 -1.2351
10542TIP3    H253118   3.499   2.124   4.971 -1.9444  0.8503 -1.5570
10543TIP3   OH253119   2.075   4.888  14.896  0.5184 -0.4034 -0.8980
10543TIP3    H153120   2.148   4.895  14.834  0.9428 -3.0536 -0.7897
10543TIP3    H253121   2.113   4.850  14.974 -0.6216  0.0595 -0.0882
10544TIP3   OH253122   4.869   6.761   1.129 -0.0588 -0.1166 -0.0430
10544TIP3    H153123   4.900   6.829   1.070 -0.9689 -1.6426 -2.4272
10544TIP3    H253124   4.857   6.685   1.073 -1.0935 -1.6401  2.1273
10545TIP3   OH253125   2.912   6.078  13.042  0.7228  0.0429  0.8174
10545TIP3    H153126   2.894   6.009  13.105  0.0518 -0.4492  0.1102
10545TIP3    H253127   2.915   6.033  12.957 -2.1361  1.1450  0.0120
10546TIP3   OH253128   4.368   5.355  12.619 -0.4841  0.2161 -0.6834
10546TIP3    H153129   4.435   5.290  12.598  0.4262  1.0279 -0.3643
10546TIP3    H253130   4.295   5.303  12.652 -0.4197 -0.7663 -2.0082
10547TIP3   OH253131   2.761   4.390   3.554  0.3534  0.4546 -0.0733
10547TIP3    H153132   2.847   4.413   3.591  0.3800  1.1653 -0.5588
10547TIP3    H253133   2.773   4.301   3.521  0.9953  0.6611 -0.4127
10548TIP3   OH253134   0.320   5.434   0.921 -0.0046 -0.6194 -0.2264
10548TIP3    H153135   0.365   5.380   0.985 -2.8296 -1.5415  1.1230
10548TIP3    H253136   0.238   5.389   0.905 -1.6671  2.2849 -0.4953
10549TIP3   OH253137   2.658   5.802   1.669  0.2876  0.2343 -0.7720
10549TIP3    H153138   2.598   5.845   1.609  0.3881  1.1410 -0.2449
10549TIP3    H253139   2.620   5.716   1.684 -1.6060  1.2215  0.5443
10550TIP3   OH253140   1.446   5.329  12.346 -0.3350  0.3021 -0.0138
10550TIP3    H153141   1.447   5.421  12.321  0.1489  0.2363 -0.2441
10550TIP3    H253142   1.519   5.320  12.407  1.0798 -0.3973 -1.7326
10551TIP3   OH253143   6.772   3.045   5.311  0.1905 -0.3268  0.3731
10551TIP3    H153144   6.678   3.065   5.315  0.3149  1.0473 -2.0209
10551TIP3    H253145   6.806   3.073   5.396 -1.0452  2.1246  0.1333
10552TIP3   OH253146   2.476   5.677  11.870 -0.0502  0.6407 -0.2666
10552TIP3    H153147   2.415   5.730  11.818 -0.1276  1.6772  0.8460
10552TIP3    H253148   2.422   5.605  11.903 -0.3855  0.8884 -0.2691
10553TIP3   OH253149   6.341   6.715   5.879  0.2465 -0.0162 -0.7754
10553TIP3    H153150   6.415   6.761   5.841  1.1562 -0.1017  0.7894
10553TIP3    H253151   6.369   6.694   5.968 -1.7365  0.1181 -0.0700
10554TIP3   OH253152   5.290   4.836   4.904  0.6501 -0.1121 -0.6432
10554TIP3    H153153   5.300   4.793   4.989 -0.2152 -1.5254 -1.2184
10554TIP3    H253154   5.294   4.930   4.924 -1.1533 -0.3596  1.1807
10555TIP3   OH253155   5.951   1.836  11.768 -0.0606  0.1992 -0.2243
10555TIP3    H153156   6.042   1.864  11.757  0.4883 -0.3706  2.1898
10555TIP3    H253157   5.922   1.812  11.680  1.4184  2.3539 -1.4021
10556TIP3   OH253158   6.527   5.111  16.162  0.2725  0.3303 -0.0122
10556TIP3    H153159   6.581   5.071  16.230  1.8176  0.5682 -1.0593
10556TIP3    H253160   6.534   5.205  16.178  0.6814  0.3893 -0.5145
10557TIP3   OH253161   0.353   0.988  13.000 -0.0760  0.1217 -0.5072
10557TIP3    H153162   0.448   0.976  13.006 -0.1616 -0.1349  0.5250
10557TIP3    H253163   0.329   0.948  12.916  0.4568 -1.8056  0.2069
10558TIP3   OH253164   5.236   1.278  12.393 -0.3768 -0.7965  0.1508
10558TIP3    H153165   5.225   1.372  12.411 -3.2169 -1.0084  0.0875
10558TIP3    H253166   5.330   1.262  12.402  0.2642  2.1330 -0.2583
10559TIP3   OH253167   6.105   3.144   3.602  0.9020 -0.3770  0.2616
10559TIP3    H153168   6.154   3.067   3.631  0.3216 -1.7835 -2.2209
10559TIP3    H253169   6.168   3.195   3.552  0.8607 -0.0419  0.5459
10560TIP3   OH253170   2.251   1.087  15.440  0.0022  0.3937 -0.2159
10560TIP3    H153171   2.342   1.113  15.427 -0.3554  1.2404 -1.1485
10560TIP3    H253172   2.208   1.166  15.473 -0.3131 -0.1344  0.6791
10561TIP3   OH253173   4.027   1.963  15.665  0.5134 -0.0159  0.0908
10561TIP3    H153174   4.120   1.983  15.667  0.6546 -0.5917 -0.2107
10561TIP3    H253175   4.010   1.915  15.746  0.8781 -1.4706 -0.6450
10562TIP3   OH253176   0.311   1.316   5.099 -0.3573  0.2198 -0.1916
10562TIP3    H153177   0.403   1.338   5.116 -0.2891 -0.2870  0.1404
10562TIP3    H253178   0.313   1.269   5.015 -0.0890 -1.1362  0.5340
10563TIP3   OH253179   6.139   4.572   4.841  0.0413 -0.5454  0.0684
10563TIP3    H153180   6.170   4.644   4.786 -1.9630  0.7733  0.5726
10563TIP3    H253181   6.126   4.500   4.780 -1.2174  0.5901 -1.0856
10564TIP3   OH253182   3.217   2.523   6.480  0.1319  0.1927  0.3037
10564TIP3    H153183   3.154   2.451   6.488  0.4362 -0.1176 -0.0174
10564TIP3    H253184   3.176   2.596   6.526 -0.2549 -0.1391  0.5008
10565TIP3   OH253185   5.618   0.582   0.730 -0.1368 -0.3620  0.4275
10565TIP3    H153186   5.622   0.665   0.682 -0.3608 -1.1909 -1.0849
10565TIP3    H253187   5.538   0.589   0.782  0.3296  0.7255  1.0326
10566TIP3   OH253188   0.080   2.110   2.002  0.0424  0.2913 -0.5254
10566TIP3    H153189   0.173   2.087   2.003  0.1498  0.2256 -3.6623
10566TIP3    H253190   0.071   2.176   2.071  2.3725  0.2296 -0.0855
10567TIP3   OH253191   4.359   5.734  12.216 -0.0701  0.3952  0.9372
10567TIP3    H153192   4.340   5.661  12.275  0.9647 -0.6278  0.0705
10567TIP3    H253193   4.453   5.750  12.227 -0.4678  2.3218  1.8675
10568TIP3   OH253194   6.233   5.724  14.731 -0.1918  0.5269 -0.1446
10568TIP3    H153195   6.266   5.707  14.820 -1.1495 -0.0104  0.1254
10568TIP3    H253196   6.274   5.656  14.677 -0.7763 -0.1012  0.1783
10569TIP3   OH253197   4.946   1.361   4.321 -0.4320 -0.0523 -0.7165
10569TIP3    H153198   4.934   1.424   4.392 -2.9446 -1.5900  0.3907
10569TIP3    H253199   5.023   1.392   4.273  1.1553  1.3019  2.4085
10570TIP3   OH253200   2.084   3.244  13.986 -0.2048 -0.1871 -0.2646
10570TIP3    H153201   2.046   3.266  13.901 -0.2844 -0.2934 -0.2575
10570TIP3    H253202   2.118   3.326  14.019 -0.8055 -0.0043 -0.0838
10571TIP3   OH253203   4.219   0.032  12.272  0.0658 -0.1367 -0.1496
10571TIP3    H153204   4.304   0.028  12.228 -0.8421  0.3526 -2.0653
10571TIP3    H253205   4.169  -0.040  12.234  0.0361 -1.3225  1.9978
10572TIP3   OH253206   6.645   6.759   2.703 -0.3026  0.4822 -0.6692
10572TIP3    H153207   6.637   6.849   2.669  1.0935  1.2417  0.8725
10572TIP3    H253208   6.572   6.750   2.764  0.3550  1.1219  0.2487
10573TIP3   OH253209   2.922   0.788   6.032  0.4547 -0.1213  0.2215
10573TIP3    H153210   2.908   0.838   5.952 -1.3116 -0.6342  0.1852
10573TIP3    H253211   2.841   0.798   6.082  1.7834  0.8273  2.3400
10574TIP3   OH253212   0.761   3.134  16.341 -0.3131  0.0561 -0.3178
10574TIP3    H153213   0.749   3.068  16.410  0.4196 -0.1737 -0.4062
10574TIP3    H253214   0.848   3.116  16.306  0.1676  1.4778  0.0848
10575TIP3   OH253215   1.409   3.600  11.829 -0.0128 -0.9082 -0.5192
10575TIP3    H153216   1.485   3.617  11.774  0.3354  0.8582  0.4377
10575TIP3    H253217   1.437   3.626  11.917 -2.1293  1.1894 -0.3722
10576TIP3   OH253218   2.228   3.288  12.006 -0.1260  0.2116 -0.0972
10576TIP3    H153219   2.139   3.274  12.037  0.3632 -1.3664  0.7022
10576TIP3    H253220   2.223   3.275  11.911 -0.5976 -0.7364  0.0493
10577TIP3   OH253221   5.090   0.513  16.208 -0.4040  0.0977  0.5071
10577TIP3    H153222   5.084   0.608  16.220  0.2981  0.2886 -0.5203
10577TIP3    H253223   5.137   0.502  16.126  0.9678 -1.1561  1.4026
10578TIP3   OH253224   2.075   3.258   3.795  0.2138  0.6897 -0.1855
10578TIP3    H153225   2.024   3.208   3.858  3.0489 -1.0713  0.8868
10578TIP3    H253226   2.027   3.249   3.712  0.0799 -3.1264  0.1453
10579TIP3   OH253227   1.748   4.906  12.939  0.0789  0.0360 -0.1240
10579TIP3    H153228   1.704   4.937  13.018 -1.0864  2.2547 -1.5436
10579TIP3    H253229   1.678   4.870  12.885  0.6283 -0.0765 -0.7791
10580TIP3   OH253230   5.529   2.998  13.813 -0.2583  0.0587  0.3960
10580TIP3    H153231   5.594   2.991  13.743 -0.1472  1.3757  0.3336
10580TIP3    H253232   5.535   2.915  13.861  0.9303 -0.1342 -0.0571
10581TIP3   OH253233   5.495   1.457   2.552 -0.3783  0.7209 -0.1577
10581TIP3    H153234   5.576   1.507   2.541  0.1002 -0.0262 -0.1437
10581TIP3    H253235   5.503   1.419   2.640 -0.5913  0.3752 -0.2881
10582TIP3   OH253236   5.420   0.441   2.456  0.1739 -0.4575 -0.4397
10582TIP3    H153237   5.400   0.508   2.390  0.7184 -1.0203 -1.1950
10582TIP3    H253238   5.336   0.402   2.477  0.1462 -1.2531 -1.8891
10583TIP3   OH253239   1.199   3.875   4.425  0.1602  0.3221  0.1659
10583TIP3    H153240   1.134   3.937   4.458 -0.1722 -0.2971  0.6926
10583TIP3    H253241   1.210   3.899   4.333 -1.7470 -0.3119 -0.2789
10584TIP3   OH253242   5.611   2.589   1.685 -0.2425 -0.0848  0.1849
10584TIP3    H153243   5.525   2.589   1.644 -0.0403 -2.6772 -0.4543
10584TIP3    H253244   5.593   2.570   1.777 -0.4367  1.2414  0.4330
10585TIP3   OH253245   4.204   5.726  15.358  0.5591  0.2662 -0.1379
10585TIP3    H153246   4.249   5.645  15.334  1.3313  0.5201  0.4290
10585TIP3    H253247   4.185   5.769  15.274 -1.4226 -1.2977 -0.5637
10586TIP3   OH253248   5.605   2.536   2.229  0.8545  0.2740  0.3753
10586TIP3    H153249   5.574   2.505   2.314 -1.2771  1.9332  0.2866
10586TIP3    H253250   5.700   2.543   2.239  0.8525 -1.3105  1.9894
10587TIP3   OH253251   3.523   0.448  14.882  0.1331 -0.0153 -0.0372
10587TIP3    H153252   3.619   0.447  14.887  0.1218  0.8578  0.6602
10587TIP3    H253253   3.496   0.493  14.963 -0.9074 -1.2326  0.3240
10588TIP3   OH253254   5.132   1.885   2.564  0.0462 -0.8717  0.8622
10588TIP3    H153255   5.196   1.916   2.499 -1.3037 -0.4209 -0.2948
10588TIP3    H253256   5.144   1.790   2.566  1.2745 -0.7309  1.2507
10589TIP3   OH253257   5.685   0.632   2.824 -0.1777  0.2831 -0.2423
10589TIP3    H153258   5.718   0.542   2.829 -1.0568 -0.0019  0.7233
10589TIP3    H253259   5.650   0.639   2.735  0.4988 -0.1088 -0.5444
10590TIP3   OH253260   3.639   4.511  14.940  0.7048 -0.5236 -0.1303
10590TIP3    H153261   3.567   4.449  14.949  0.4648 -0.2508 -0.1596
10590TIP3    H253262   3.600   4.597  14.957  1.0052 -0.3657 -0.2196
10591TIP3   OH253263   0.336   2.790  14.793 -0.0083 -0.4117  0.3731
10591TIP3    H153264   0.282   2.801  14.871 -0.4119  0.4856 -0.0159
10591TIP3    H253265   0.310   2.863  14.736  2.2266  0.5772  0.5146
10592TIP3   OH253266   3.929   1.644  10.672  0.0167 -0.0687 -0.0038
10592TIP3    H153267   3.938   1.722  10.617 -1.9679 -0.6156 -1.1868
10592TIP3    H253268   3.841   1.612  10.654  0.8983 -2.8310  0.1208
10593TIP3   OH253269   5.685   4.145   0.712 -0.0709  0.2884 -0.0263
10593TIP3    H153270   5.687   4.120   0.620  2.5617  1.8746 -0.4972
10593TIP3    H253271   5.670   4.063   0.759  0.1554 -0.8138 -1.7917
10594TIP3   OH253272   4.654   6.170  10.504 -0.5815 -0.2430  0.0825
10594TIP3    H153273   4.699   6.125  10.575  1.2320  1.5286  0.1550
10594TIP3    H253274   4.610   6.245  10.545 -0.4236  0.1839 -0.4990
10595TIP3   OH253275   1.410   1.041   4.536  0.2155 -0.2910  0.0181
10595TIP3    H153276   1.321   1.007   4.528  0.6745 -2.0091  1.6089
10595TIP3    H253277   1.462   0.966   4.563  1.8416  1.0523  0.7812
10596TIP3   OH253278   0.916   4.701   0.539  0.3310 -0.1176 -0.0460
10596TIP3    H153279   0.868   4.750   0.471  2.1597  2.9853  0.6840
10596TIP3    H253280   0.862   4.712   0.618  0.0631 -0.4902 -0.1739
10597TIP3   OH253281   0.757   1.574   5.576 -0.6367  0.0982 -0.1533
10597TIP3    H153282   0.793   1.498   5.623 -1.2626 -0.8166 -1.1151
10597TIP3    H253283   0.808   1.648   5.609 -2.5216 -0.0936  3.7145
10598TIP3   OH253284   5.915   6.218   3.761 -0.2876 -1.2442 -0.2504
10598TIP3    H153285   5.962   6.242   3.681 -2.8915 -0.3303 -1.6192
10598TIP3    H253286   5.935   6.289   3.822  0.8427 -1.3836 -0.4279
10599TIP3   OH253287   1.301   4.822  12.232  0.6306  0.1680  0.0405
10599TIP3    H153288   1.331   4.788  12.316  0.0834  0.5319  0.3995
10599TIP3    H253289   1.380   4.850  12.187  0.9003  0.3292  0.6059
10600TIP3   OH253290   4.811   4.988  15.215 -0.0110 -0.0550  0.2960
10600TIP3    H153291   4.779   4.919  15.273 -0.0008 -0.9427 -0.7163
10600TIP3    H253292   4.871   5.039  15.269  0.2809 -1.0813  0.9727
10601TIP3   OH253293   4.617   1.895  12.389 -0.2474 -0.1491  0.3019
10601TIP3    H153294   4.641   1.808  12.421 -1.5601 -0.7255 -0.1984
10601TIP3    H253295   4.695   1.949  12.402  0.9596 -1.6754 -0.4044
10602TIP3   OH253296   4.870   5.942  11.050 -0.0870  0.0617 -0.1535
10602TIP3    H153297   4.817   5.892  10.988 -0.0047 -0.6557  0.3264
10602TIP3    H253298   4.944   5.974  10.999  1.0282 -2.1729 -0.0727
10603TIP3   OH253299   3.909   4.324  12.839 -0.4887  0.0142  0.2220
10603TIP3    H153300   3.906   4.243  12.890  0.3588  0.3719  0.8690
10603TIP3    H253301   3.817   4.344  12.820 -0.8180 -0.2074  1.4923
10604TIP3   OH253302   4.609   0.128  12.343  0.0221  0.2747  0.0309
10604TIP3    H153303   4.673   0.097  12.407  0.3473 -0.7628 -0.7810
10604TIP3    H253304   4.527   0.132  12.393  0.2800 -0.4699  0.5424
10605TIP3   OH253305   6.606   3.041   2.227  0.8226  0.7752  0.4080
10605TIP3    H153306   6.613   3.131   2.258 -1.0429  1.4271 -0.8991
10605TIP3    H253307   6.548   3.046   2.151  3.5554 -0.9664 -2.0506
10606TIP3   OH253308   0.164   3.636  10.753 -0.2499  0.3682  0.1538
10606TIP3    H153309   0.224   3.562  10.764  2.2727  2.1205 -0.8806
10606TIP3    H253310   0.112   3.637  10.834  2.3494 -0.2020  1.9452
10607TIP3   OH253311   4.729   5.412   6.464 -0.1549  0.8001 -0.3046
10607TIP3    H153312   4.635   5.397   6.473  0.0581 -0.4259  0.0783
10607TIP3    H253313   4.758   5.346   6.401  0.5406  0.8057  0.0005
10608TIP3   OH253314   4.753   6.004   3.766 -0.4299  0.2537 -0.0976
10608TIP3    H153315   4.790   6.091   3.777 -1.4812  0.5502  1.3563
10608TIP3    H253316   4.829   5.946   3.760  0.2836  1.2554 -1.1864
10609TIP3   OH253317   6.483   1.274   1.105 -0.5284 -0.0350 -0.6595
10609TIP3    H153318   6.483   1.315   1.019 -1.9254  0.4370 -0.4709
10609TIP3    H253319   6.506   1.182   1.089 -1.6346 -0.1662 -1.6766
10610TIP3   OH253320   5.806   4.984   2.982  0.1047 -0.2847  0.0801
10610TIP3    H153321   5.827   4.898   2.946 -3.1284 -1.6874  1.2146
10610TIP3    H253322   5.890   5.016   3.017  1.4539 -2.8210 -0.6003
10611TIP3   OH253323   1.213   2.480  12.650  0.3182  0.8939  0.0077
10611TIP3    H153324   1.219   2.537  12.727  1.8218  1.1087 -0.2300
10611TIP3    H253325   1.159   2.406  12.678  0.3876  1.2451  1.0934
10612TIP3   OH253326   3.646   3.933  13.465  0.1087  0.4677  0.0716
10612TIP3    H153327   3.673   3.865  13.403  0.6767  0.9681 -0.2366
10612TIP3    H253328   3.673   3.899  13.551  1.7797  0.9598 -0.2297
10613TIP3   OH253329   0.427   4.713  14.217  0.1417  0.1732  0.1227
10613TIP3    H153330   0.490   4.779  14.245  0.9679 -0.2535 -0.7043
10613TIP3    H253331   0.468   4.630  14.239 -0.2891 -0.1017 -0.1031
10614TIP3   OH253332   1.817   0.424   0.383  0.2028  0.4289 -0.0392
10614TIP3    H153333   1.760   0.374   0.442 -0.6969 -1.0764 -2.0629
10614TIP3    H253334   1.903   0.382   0.391  0.7478  1.7684  1.9122
10615TIP3   OH253335   4.858   6.315  15.042 -0.3085  0.3889  0.2108
10615TIP3    H153336   4.863   6.369  15.121 -0.3130  0.2943  0.2764
10615TIP3    H253337   4.918   6.356  14.980  0.5701 -0.1883  0.6566
10616TIP3   OH253338   3.467   4.682   5.041  0.2522  0.2293  0.1915
10616TIP3    H153339   3.489   4.750   4.977 -0.7692 -0.1965 -0.6231
10616TIP3    H253340   3.498   4.601   5.001  2.9796  0.3069  1.8609
10617TIP3   OH253341   5.945   4.583  17.136  0.4618 -0.2111 -0.6887
10617TIP3    H153342   5.966   4.612  17.225  1.8919  1.2163 -1.4294
10617TIP3    H253343   5.850   4.571  17.137  0.4050  0.0295  0.9548
10618TIP3   OH253344   1.414   1.937  15.361  0.3877 -0.5134  0.0185
10618TIP3    H153345   1.475   1.923  15.289 -0.5241 -0.8487 -0.6998
10618TIP3    H253346   1.431   2.027  15.390 -0.4535  0.2901 -1.8015
10619TIP3   OH253347   0.726   1.606   1.193 -0.1736 -0.3437 -0.3628
10619TIP3    H153348   0.668   1.626   1.120  0.3648  1.4022 -0.3717
10619TIP3    H253349   0.737   1.511   1.191  0.2232 -0.3094 -2.8755
10620TIP3   OH253350   5.042   0.007   2.696 -0.5266  0.0361  0.4573
10620TIP3    H153351   5.133   0.034   2.704 -0.5570  0.3898 -0.2890
10620TIP3    H253352   5.044  -0.066   2.634 -0.8317  0.5828 -0.2157
10621TIP3   OH253353   0.113   6.359  13.568 -0.0864  0.2931  0.3074
10621TIP3    H153354   0.022   6.328  13.563 -0.1277 -0.1796  2.8908
10621TIP3    H253355   0.121   6.396  13.655  2.1349  0.6663 -0.0073
10622TIP3   OH253356   5.020   2.232   2.415 -0.9177 -0.1285 -0.1339
10622TIP3    H153357   5.083   2.302   2.403 -0.0306 -1.0210 -0.8151
10622TIP3    H253358   5.034   2.201   2.505  0.0585 -0.7431 -0.4921
10623TIP3   OH253359   1.908   1.513   3.081 -0.2914  0.1994  0.1833
10623TIP3    H153360   1.893   1.474   3.167  1.0499 -0.6693  0.0617
10623TIP3    H253361   1.846   1.469   3.024  0.4711 -1.0415  0.2610
10624TIP3   OH253362   3.404   1.702  12.353  0.4676  0.0291 -0.0451
10624TIP3    H153363   3.450   1.784  12.334 -1.2751  0.8383 -0.9786
10624TIP3    H253364   3.445   1.637  12.297  0.7212  0.6512 -0.5878
10625TIP3   OH253365   3.385   4.815  11.603 -0.4244 -0.0462  0.1206
10625TIP3    H153366   3.454   4.771  11.553  0.1036 -1.2816  1.8620
10625TIP3    H253367   3.419   4.823  11.692 -1.1608  2.5220  0.2615
10626TIP3   OH253368   5.095   0.902  14.709  0.5886 -0.3536 -0.1006
10626TIP3    H153369   5.081   0.809  14.727 -0.5659  0.0752  1.4453
10626TIP3    H253370   5.007   0.936  14.691  0.9204  0.5537 -0.0545
10627TIP3   OH253371   4.209   2.162   6.369  0.6279  0.7479 -0.3784
10627TIP3    H153372   4.134   2.120   6.328  1.9150 -1.0456 -1.0013
10627TIP3    H253373   4.175   2.195   6.452 -1.3587  2.0311 -1.6180
10628TIP3   OH253374   0.679   1.177  10.449 -0.3890 -0.3504  0.3097
10628TIP3    H153375   0.748   1.173  10.515 -1.8039  0.2645  1.8989
10628TIP3    H253376   0.630   1.096  10.461 -0.5193 -0.3495 -0.1741
10629TIP3   OH253377   3.379   6.058  13.849  0.4169  0.4801  0.0462
10629TIP3    H153378   3.370   6.091  13.938  0.8960  0.2733  0.1783
10629TIP3    H253379   3.372   5.963  13.858 -1.4976  0.5408 -0.3999
10630TIP3   OH253380   6.035   4.014   4.860 -0.1461  0.4029  0.0300
10630TIP3    H153381   6.025   4.049   4.771  0.6646 -0.2428 -0.3304
10630TIP3    H253382   6.044   3.919   4.847 -0.9601  0.1963  0.8806
10631TIP3   OH253383   6.249   1.716   1.952 -0.5138 -0.3306 -0.2817
10631TIP3    H153384   6.264   1.695   1.860  0.6585  0.1876 -0.2260
10631TIP3    H253385   6.215   1.635   1.990  0.0202 -0.8743 -0.9423
10632TIP3   OH253386   4.995   3.322   0.379 -0.0716  0.3141  0.0204
10632TIP3    H153387   5.066   3.261   0.398 -0.5929  0.0982  1.3863
10632TIP3    H253388   5.027   3.375   0.306  2.1642  1.3422  1.6634
10633TIP3   OH253389   2.084   1.699   3.186 -0.3946  0.4350  0.9662
10633TIP3    H153390   2.018   1.658   3.129  0.3612 -0.1182  0.4670
10633TIP3    H253391   2.168   1.669   3.150  0.1461  1.5992  1.2397
10634TIP3   OH253392   1.716   6.460   1.052  0.3125  0.6244  0.6670
10634TIP3    H153393   1.760   6.460   0.967  0.6375  1.0807  0.8241
10634TIP3    H253394   1.711   6.553   1.076  0.5870  0.4846  1.3192
10635TIP3   OH253395   3.220   3.062   0.086 -0.8600 -0.4211 -1.1134
10635TIP3    H153396   3.245   2.971   0.069 -1.3365 -0.8798  0.4553
10635TIP3    H253397   3.278   3.090   0.157 -1.4335  0.1412 -0.8506
10636TIP3   OH253398   5.294   2.381  11.075  0.0443 -0.0026  0.2046
10636TIP3    H153399   5.285   2.285  11.075  0.1152 -0.0211 -0.7556
10636TIP3    H253400   5.262   2.408  11.160 -2.2941 -0.6940 -0.3844
10637TIP3   OH253401   1.722   3.378  15.148  0.4119 -0.0878  0.3348
10637TIP3    H153402   1.739   3.444  15.216 -2.1842 -0.7346  1.7510
10637TIP3    H253403   1.653   3.417  15.095 -0.4859 -1.2409  0.6231
10638TIP3   OH253404   5.765   6.760   6.427 -0.3671  0.5035 -0.1968
10638TIP3    H153405   5.748   6.751   6.333 -0.8555  0.3948 -0.1061
10638TIP3    H253406   5.678   6.754   6.467 -0.1065 -0.0358  0.3049
10639TIP3   OH253407   4.570   0.011  14.343 -0.0338 -0.4060 -0.7463
10639TIP3    H153408   4.593   0.090  14.393  1.1309 -0.3369 -1.3687
10639TIP3    H253409   4.654  -0.026  14.317 -0.5544 -1.9226 -0.3864
10640TIP3   OH253410   5.139   4.929   1.380 -0.8222 -0.0636 -0.0095
10640TIP3    H153411   5.212   4.915   1.319 -0.9574  0.5562 -0.3289
10640TIP3    H253412   5.137   4.850   1.435  1.3440  0.7463  1.3326
10641TIP3   OH253413   0.577   2.353  16.778 -0.0156 -0.1519 -0.0306
10641TIP3    H153414   0.555   2.408  16.853  0.0913 -0.2360  0.0620
10641TIP3    H253415   0.544   2.266  16.800  1.9985 -0.7372  0.9247
10642TIP3   OH253416   5.289   3.550  13.632  0.0321 -0.3433  0.1381
10642TIP3    H153417   5.249   3.473  13.673  0.0161 -0.3292  0.1488
10642TIP3    H253418   5.376   3.520  13.605 -0.1304 -0.4884 -0.2404
10643TIP3   OH253419   6.083   5.799  11.508  0.3997 -0.1687 -0.0856
10643TIP3    H153420   6.087   5.894  11.507  2.3849 -0.2039 -0.2297
10643TIP3    H253421   6.079   5.776  11.601 -2.1583  0.0451 -0.0850
10644TIP3   OH253422   2.334   5.949   4.861  0.2921 -0.2843  0.5488
10644TIP3    H153423   2.357   5.930   4.952  0.5484 -1.7759  0.2115
10644TIP3    H253424   2.418   5.957   4.816  0.1664 -0.3338  0.3017
10645TIP3   OH253425   0.504   3.056   2.871  0.3928  0.1484  0.3223
10645TIP3    H153426   0.467   3.141   2.893 -1.7907 -0.1812 -1.7366
10645TIP3    H253427   0.466   2.996   2.936 -2.3514 -0.0517 -1.3043
10646TIP3   OH253428   6.490   1.410   0.870  0.9040  0.1599  0.4482
10646TIP3    H153429   6.439   1.456   0.804  1.1876  1.4189  1.0767
10646TIP3    H253430   6.515   1.328   0.828 -0.8235 -0.0791 -0.1993
10647TIP3   OH253431   1.486   5.563  11.752 -0.2299 -0.1049  0.0360
10647TIP3    H153432   1.411   5.599  11.704 -0.1207  1.4893  0.9700
10647TIP3    H253433   1.458   5.476  11.780 -0.0479 -1.4545 -3.4465
10648TIP3   OH253434   4.381   1.334   0.768 -0.5496  0.1866  0.0282
10648TIP3    H153435   4.437   1.373   0.834 -0.0285  2.3212 -1.5591
10648TIP3    H253436   4.337   1.408   0.726 -1.4007 -1.1175 -1.5307
10649TIP3   OH253437   5.765   3.237   4.924  0.3144 -0.0536 -0.2702
10649TIP3    H153438   5.823   3.204   4.992 -0.7201 -0.3653  0.4943
10649TIP3    H253439   5.680   3.198   4.944  0.1076 -0.6988 -2.1244
10650TIP3   OH253440   4.555   6.386   0.421 -0.4590  0.0350 -0.7324
10650TIP3    H153441   4.502   6.311   0.445 -1.3003  0.4406 -1.2990
10650TIP3    H253442   4.522   6.414   0.336  0.3182  0.6108 -0.8655
10651TIP3   OH253443   1.235   0.484   0.284  0.0911  0.1830 -0.0601
10651TIP3    H153444   1.320   0.496   0.242  0.2126 -0.8423 -0.1343
10651TIP3    H253445   1.249   0.505   0.376  0.3283  0.3890 -0.1436
10652TIP3   OH253446   1.033   6.056  12.659  0.3700 -0.0250  0.2553
10652TIP3    H153447   1.054   6.062  12.566 -2.4375 -1.3790 -0.5803
10652TIP3    H253448   1.100   5.997  12.695  1.8381  0.9878 -0.7260
10653TIP3   OH253449   1.862   4.737   4.294  0.0537  0.3220  0.5434
10653TIP3    H153450   1.830   4.732   4.204  0.4013 -1.7438  0.4686
10653TIP3    H253451   1.895   4.826   4.303 -0.4887  0.7445 -1.1969
10654TIP3   OH253452   4.875   1.808  10.672 -0.4019 -0.1513  0.0914
10654TIP3    H153453   4.787   1.811  10.635 -0.3237 -0.0148 -0.0843
10654TIP3    H253454   4.925   1.871  10.621 -0.5019  0.6787  0.9783
10655TIP3   OH253455   2.231   0.246   4.101  0.3955  0.1917  0.0933
10655TIP3    H153456   2.192   0.328   4.132 -0.5356 -0.2208  0.0574
10655TIP3    H253457   2.276   0.210   4.178  1.7453  1.2453 -0.1671
10656TIP3   OH253458   5.398   4.825   5.933 -0.0291  0.1843 -0.3818
10656TIP3    H153459   5.454   4.750   5.915  1.2368  0.9285  0.3142
10656TIP3    H253460   5.336   4.827   5.860 -0.2200 -1.6457 -0.3022
10657TIP3   OH253461   5.205   6.577  15.656 -0.0570  0.3995  0.3121
10657TIP3    H153462   5.224   6.640  15.587  0.6769  2.8353  2.5765
10657TIP3    H253463   5.111   6.585  15.670 -0.2605 -0.3240 -0.5633
10658TIP3   OH253464   2.461   5.981  12.826 -0.3278  0.4021  0.1948
10658TIP3    H153465   2.481   6.063  12.782 -0.1803  0.2670  0.0041
10658TIP3    H253466   2.506   5.987  12.910  0.4442  0.1468 -0.1873
10659TIP3   OH253467   2.343   4.579  12.802  0.1769  0.5856 -0.4541
10659TIP3    H153468   2.261   4.623  12.823 -0.6215 -1.1744  0.3246
10659TIP3    H253469   2.344   4.576  12.706 -0.6711  0.6371 -0.4740
10660TIP3   OH253470   1.120   3.989  12.943  0.2790 -0.2676 -0.1969
10660TIP3    H153471   1.036   3.953  12.972  0.4948 -1.2019 -0.6752
10660TIP3    H253472   1.153   4.037  13.018 -0.8317  0.3808 -0.1039
10661TIP3   OH253473   1.137   3.567  14.388  0.0776  0.3996  0.3148
10661TIP3    H153474   1.219   3.527  14.419 -0.0331  0.5087  0.7554
10661TIP3    H253475   1.163   3.655  14.360  0.4066 -0.1059 -1.0808
10662TIP3   OH253476   0.604   0.504   4.387 -0.0488  0.3847 -0.0173
10662TIP3    H153477   0.653   0.453   4.322 -0.2140  1.9508 -1.4253
10662TIP3    H253478   0.522   0.527   4.342  0.5070  2.8481  0.0962
10663TIP3   OH253479   0.604   0.026   1.852 -0.0820 -0.4292  0.4048
10663TIP3    H153480   0.635   0.065   1.934 -0.1597 -1.2248  0.8189
10663TIP3    H253481   0.528  -0.026   1.877 -0.5871 -0.0664 -0.3025
10664TIP3   OH253482   4.984   2.372   2.781 -0.0801 -0.8621 -0.6148
10664TIP3    H153483   4.935   2.361   2.862  0.3929  0.8152 -0.0590
10664TIP3    H253484   4.983   2.286   2.740 -1.7344 -1.3464  0.3636
10665TIP3   OH253485   3.449   6.525   5.922  0.0653 -0.4949 -0.8111
10665TIP3    H153486   3.509   6.495   5.990  2.3912  1.5514 -1.8279
10665TIP3    H253487   3.493   6.505   5.839 -0.5999  1.1490 -1.6043
10666TIP3   OH253488   4.724   3.523  17.042  0.1829  0.0144 -0.3105
10666TIP3    H153489   4.701   3.561  17.127 -0.7599 -0.1908 -0.4659
10666TIP3    H253490   4.769   3.594  16.995  0.1065  0.3410  0.1025
10667TIP3   OH253491   1.796   0.653  15.886 -0.3114  0.2504 -0.1465
10667TIP3    H153492   1.811   0.564  15.916  0.7354  0.2331 -0.7134
10667TIP3    H253493   1.716   0.647  15.833  1.5042 -1.0037 -2.9263
10668TIP3   OH253494   3.060   4.173   2.349 -0.3827  0.0985  0.3143
10668TIP3    H153495   3.091   4.188   2.260  1.6449  0.1099  0.9582
10668TIP3    H253496   2.965   4.165   2.341 -0.1442 -1.2793 -2.0406
10669TIP3   OH253497   4.259   4.554   3.872  0.0948 -0.3332 -0.0019
10669TIP3    H153498   4.262   4.506   3.955  0.8125  1.2110  0.9051
10669TIP3    H253499   4.166   4.578   3.862 -0.0299 -0.7092  0.2371
10670TIP3   OH253500   0.196   4.468  14.047  0.8195 -0.3421 -0.5977
10670TIP3    H153501   0.263   4.489  13.982  0.8410 -0.0005 -0.4617
10670TIP3    H253502   0.129   4.421  13.997  1.1430 -0.6644 -0.7377
10671TIP3   OH253503   2.595   1.285  13.145 -0.2248  0.2257 -0.0172
10671TIP3    H153504   2.573   1.347  13.076 -0.8094  2.4776  2.0591
10671TIP3    H253505   2.675   1.320  13.184  0.2155 -1.1098  0.3418
10672TIP3   OH253506   4.633   1.494   1.390  0.6166 -0.2137  0.0546
10672TIP3    H153507   4.669   1.561   1.333  0.2931 -0.0480  0.0437
10672TIP3    H253508   4.692   1.492   1.466  0.2886  0.5048  0.3340
10673TIP3   OH253509   4.230   2.676  12.269  0.1551 -0.3049 -0.3583
10673TIP3    H153510   4.292   2.733  12.223 -1.7353  2.4950  0.2498
10673TIP3    H253511   4.229   2.710  12.359 -1.5203 -0.8852 -0.1254
10674TIP3   OH253512   3.066   3.655   5.084  0.1693 -0.0119 -0.0925
10674TIP3    H153513   3.036   3.602   5.158  0.7411  0.0138  0.1631
10674TIP3    H253514   2.987   3.701   5.054 -0.0749 -0.0585  0.4701
10675TIP3   OH253515   3.761   3.757   4.870 -0.5059  0.7933 -0.7418
10675TIP3    H153516   3.786   3.803   4.790  1.5517  0.0357 -0.6082
10675TIP3    H253517   3.753   3.665   4.843  0.5490  0.4797 -0.0416
10676TIP3   OH253518   3.590   5.608   5.897  0.3406  0.1620 -0.7816
10676TIP3    H153519   3.597   5.514   5.917  1.3744  0.5693  0.9802
10676TIP3    H253520   3.506   5.634   5.934  0.6724  0.2031 -0.0538
10677TIP3   OH253521   1.422   2.108   4.581 -0.5007  0.4901  0.5242
10677TIP3    H153522   1.327   2.125   4.579 -0.2404  1.9310 -1.6993
10677TIP3    H253523   1.462   2.186   4.543  1.4040 -1.2902 -1.3353
10678TIP3   OH253524   6.808   2.433   0.266 -0.3940  0.4417 -0.2496
10678TIP3    H153525   6.897   2.448   0.297 -0.4759  1.4081 -0.4528
10678TIP3    H253526   6.771   2.371   0.329  0.6673 -0.6121 -0.6249
10679TIP3   OH253527   3.060   0.111  13.091  0.1522  0.4221 -0.4442
10679TIP3    H153528   3.015   0.164  13.025  0.1629  0.5878 -0.3164
10679TIP3    H253529   3.151   0.107  13.061 -0.1009 -0.5970 -1.1475
10680TIP3   OH253530   2.509   3.041  12.891 -0.3434  0.8736 -0.3240
10680TIP3    H153531   2.438   3.075  12.836 -0.1297  2.3682  0.2502
10680TIP3    H253532   2.588   3.080  12.855 -0.0913  1.0700  0.4187
10681TIP3   OH253533   1.252   6.223  11.151 -0.3429 -0.3242 -0.2176
10681TIP3    H153534   1.177   6.228  11.210 -1.6889 -1.1369 -1.7804
10681TIP3    H253535   1.322   6.270  11.197 -2.2043  1.7411  0.6793
10682TIP3   OH253536   1.286   2.069  16.801  0.0593 -0.5157 -0.4590
10682TIP3    H153537   1.318   2.159  16.812  1.4309 -1.2264  1.9754
10682TIP3    H253538   1.194   2.080  16.779  0.0109  1.5103  0.4605
10683TIP3   OH253539   5.112   5.176  13.832 -0.4687  0.2654  0.6082
10683TIP3    H153540   5.026   5.175  13.875 -0.6932 -2.3856  0.2618
10683TIP3    H253541   5.168   5.124  13.890 -0.1958 -1.4700 -1.1018
10684TIP3   OH253542   1.145   2.897   1.399 -0.1585  0.3815 -0.7622
10684TIP3    H153543   1.226   2.847   1.412  0.3832  1.5081  0.4051
10684TIP3    H253544   1.114   2.869   1.313  1.2753 -0.3436 -1.0879
10685TIP3   OH253545   4.029   2.665   0.603 -0.1093 -0.2425 -0.7368
10685TIP3    H153546   4.025   2.587   0.659 -0.6947 -0.7448 -1.4578
10685TIP3    H253547   4.111   2.707   0.627  0.7265 -1.6280 -1.0519
10686TIP3   OH253548   0.050   4.714   3.977 -0.0953  0.4810 -0.2180
10686TIP3    H153549   0.030   4.765   4.056  0.9289  0.5679 -0.0004
10686TIP3    H253550   0.141   4.687   3.989  0.1342  0.6620 -1.4724
10687TIP3   OH253551   1.231   4.513   0.129  0.6946  0.2533 -0.0551
10687TIP3    H153552   1.285   4.434   0.130 -0.7329 -0.8115 -1.1659
10687TIP3    H253553   1.214   4.528   0.036 -2.6925 -0.8161  0.2415
10688TIP3   OH253554   1.526   4.550  12.113 -0.1156 -0.3280 -0.3954
10688TIP3    H153555   1.561   4.615  12.053  3.5370  0.4414  2.2638
10688TIP3    H253556   1.554   4.466  12.076 -0.2098 -0.0746 -1.0712
10689TIP3   OH253557   3.937   5.124  16.722  0.1972 -0.4305  0.2959
10689TIP3    H153558   3.895   5.065  16.785  1.7950 -0.4810  1.3747
10689TIP3    H253559   3.864   5.174  16.684 -1.1224 -2.5629 -0.1453
10690TIP3   OH253560   1.053   5.001  15.249  0.1638 -0.2409 -0.1169
10690TIP3    H153561   1.023   4.914  15.222  0.6234  0.2557 -2.3634
10690TIP3    H253562   1.147   4.990  15.263  0.1675 -0.1613 -0.0779
10691TIP3   OH253563   6.006   3.100  15.461  0.2033  0.3349  0.3044
10691TIP3    H153564   6.066   3.140  15.524  0.5190 -1.1973  1.0266
10691TIP3    H253565   5.970   3.174  15.412  1.2865  1.4292  1.0926
10692TIP3   OH253566   3.512   0.058  11.681  0.3552 -0.0352 -0.2304
10692TIP3    H153567   3.433   0.039  11.631  0.2099  1.1297 -0.4647
10692TIP3    H253568   3.498   0.014  11.765 -0.8148  0.6269 -0.0473
10693TIP3   OH253569   5.145   3.203  17.000  0.2127 -0.6920  0.4770
10693TIP3    H153570   5.081   3.139  17.032 -0.5102  0.8003  2.1937
10693TIP3    H253571   5.093   3.279  16.976  1.0703 -0.6616 -1.4596
10694TIP3   OH253572   5.327   5.312  11.076  0.0115  0.0171  0.0150
10694TIP3    H153573   5.277   5.344  11.002  1.4818 -1.2656 -1.6244
10694TIP3    H253574   5.407   5.364  11.077  0.5705 -0.8093 -0.1222
10695TIP3   OH253575   1.134   1.720   5.298  0.2131  0.1450  0.3971
10695TIP3    H153576   1.134   1.653   5.366 -2.5814 -1.3890 -0.9467
10695TIP3    H253577   1.079   1.790   5.333  0.6359  0.3769  0.6007
10696TIP3   OH253578   5.210   4.609   3.823  0.0680 -0.7462 -0.2304
10696TIP3    H153579   5.173   4.627   3.736 -1.0552 -0.9672  0.1734
10696TIP3    H253580   5.190   4.688   3.873  2.1310  0.0478 -0.5796
10697TIP3   OH253581   4.397   3.719  14.676  0.1575  0.4570  0.3656
10697TIP3    H153582   4.358   3.652  14.620 -0.5067  0.4733  0.8080
10697TIP3    H253583   4.466   3.672  14.724  2.8712  1.0477 -2.6154
10698TIP3   OH253584   2.852   2.083  12.865 -0.3802 -0.1380  0.1607
10698TIP3    H153585   2.808   2.022  12.925  0.0888 -0.8183 -0.1656
10698TIP3    H253586   2.792   2.091  12.791 -0.7175  0.2829  0.4728
10699TIP3   OH253587   3.565   0.005   4.207 -0.3473 -0.3031 -0.0346
10699TIP3    H153588   3.481   0.030   4.246 -0.4275 -0.2360 -0.2481
10699TIP3    H253589   3.558  -0.089   4.194 -0.3690 -0.3061 -0.0013
10700TIP3   OH253590   3.220   0.727  10.775  0.2497  1.3191 -0.2485
10700TIP3    H153591   3.268   0.692  10.699 -0.0367 -1.2227  0.6389
10700TIP3    H253592   3.163   0.794  10.738  1.0987  1.1102 -2.0576
10701TIP3   OH253593   0.247   4.701  16.898  0.0214  0.2645 -0.2104
10701TIP3    H153594   0.160   4.684  16.860 -0.8268 -0.7397  2.0190
10701TIP3    H253595   0.265   4.792  16.875 -1.3555  0.3166 -1.2261
10702TIP3   OH253596   1.234   4.228  10.831 -0.4910  0.0237 -0.4251
10702TIP3    H153597   1.262   4.150  10.879 -1.9826 -0.4244 -0.2264
10702TIP3    H253598   1.286   4.299  10.868  0.0802 -0.6972  0.1894
10703TIP3   OH253599   3.055   3.247  14.825  0.3572 -0.4099  0.4193
10703TIP3    H153600   2.997   3.171  14.833  0.4189 -0.2762  2.5698
10703TIP3    H253601   2.996   3.322  14.821  0.3305 -0.4649 -0.3201
10704TIP3   OH253602   5.274   3.915  11.660  0.1285  0.4773 -0.3117
10704TIP3    H153603   5.298   4.002  11.627  3.8931 -0.9824 -2.0792
10704TIP3    H253604   5.211   3.881  11.596  0.8328  0.8910 -1.2571
10705TIP3   OH253605   3.697   0.062   5.468 -0.8272  0.0261  0.3085
10705TIP3    H153606   3.776   0.018   5.498  1.0153  1.8587 -1.4601
10705TIP3    H253607   3.704   0.062   5.372 -2.9222  0.3684  0.0928
10706TIP3   OH253608   1.287   3.529  16.475  0.2311 -0.1661  0.4712
10706TIP3    H153609   1.236   3.460  16.517 -0.2606 -0.7805 -1.0566
10706TIP3    H253610   1.222   3.587  16.436  0.6613 -0.3144 -0.5103
10707TIP3   OH253611   1.520   6.283  15.880  0.6727  0.1329 -0.6685
10707TIP3    H153612   1.599   6.232  15.897  0.7136 -0.3148 -2.1006
10707TIP3    H253613   1.520   6.350  15.949  1.4718 -0.7964  0.2690
10708TIP3   OH253614   2.524   4.442  15.773 -0.1085  0.2388 -0.0554
10708TIP3    H153615   2.487   4.459  15.686 -0.5518  0.1886  0.1200
10708TIP3    H253616   2.448   4.432  15.830  0.1669 -0.3310  0.2251
10709TIP3   OH253617   0.403   1.867   4.767 -0.0065  0.5351 -0.8201
10709TIP3    H153618   0.461   1.935   4.734  0.5254  1.7846  2.2879
10709TIP3    H253619   0.357   1.909   4.840 -2.9444 -1.2026 -1.5074
10710TIP3   OH253620   2.348   6.200  12.633 -0.6838  0.3634 -0.1800
10710TIP3    H153621   2.420   6.259  12.652 -0.6165 -0.1707  1.3138
10710TIP3    H253622   2.288   6.210  12.707 -0.9999 -0.9168 -0.2377
10711TIP3   OH253623   4.300   1.200   1.138  0.3076 -0.1269 -0.0970
10711TIP3    H153624   4.265   1.288   1.124  1.6247  0.5529  0.6535
10711TIP3    H253625   4.247   1.165   1.209 -0.3995 -0.0602 -0.5758
10712TIP3   OH253626   0.156   1.201  11.658  1.4201  0.4234 -0.6981
10712TIP3    H153627   0.088   1.215  11.592  1.1135 -2.3569 -1.1085
10712TIP3    H253628   0.116   1.230  11.740  0.2680  0.2075 -1.1553
10713TIP3   OH253629   0.322   1.937  13.410  0.2950  0.5254 -0.0794
10713TIP3    H153630   0.347   2.029  13.419  0.8833  0.3002  0.6528
10713TIP3    H253631   0.262   1.921  13.483  0.8223  0.1259  0.2749
10714TIP3   OH253632   0.426   4.801  14.767  0.0876 -0.0786 -0.3529
10714TIP3    H153633   0.409   4.866  14.698  1.6040  1.4436  0.6330
10714TIP3    H253634   0.519   4.782  14.759  0.3361  0.2528  1.3493
10715TIP3   OH253635   2.012   0.241   0.340 -0.5586 -0.6328  0.2806
10715TIP3    H153636   2.021   0.241   0.245  0.4349 -0.6619  0.3573
10715TIP3    H253637   1.974   0.155   0.361  2.1200 -1.9752  0.1050
10716TIP3   OH253638   6.177   3.704   4.308 -0.7049  0.1817 -0.0144
10716TIP3    H153639   6.273   3.707   4.314 -0.7631  0.7949  0.6548
10716TIP3    H253640   6.157   3.611   4.298 -0.0897 -0.0398  0.7360
10717TIP3   OH253641   3.224   1.249  13.694 -0.5496 -0.5205 -0.2059
10717TIP3    H153642   3.261   1.317  13.637 -0.4272  0.2966  0.8268
10717TIP3    H253643   3.202   1.295  13.775  0.3981 -1.8878  0.8662
10718TIP3   OH253644   4.037   1.671  11.979 -0.0789 -0.3325 -0.3726
10718TIP3    H153645   3.979   1.745  11.960 -0.1702 -0.2833  0.0752
10718TIP3    H253646   4.030   1.615  11.902  1.3987  1.0000 -1.5486
10719TIP3   OH253647   1.643   2.943   5.006 -0.1300  0.1374 -0.3066
10719TIP3    H153648   1.579   2.890   4.958 -0.5326  0.4140 -0.0832
10719TIP3    H253649   1.713   2.881   5.028 -0.2908 -0.1570 -0.6078
10720TIP3   OH253650   2.818   6.587  15.515  0.3402 -0.0367 -0.1560
10720TIP3    H153651   2.876   6.524  15.473 -2.7602 -1.0800 -3.3559
10720TIP3    H253652   2.855   6.672  15.491  0.9022 -0.6591 -1.6580
10721TIP3   OH253653   2.052   0.195   2.578 -0.4080  0.0886 -0.1055
10721TIP3    H153654   2.004   0.115   2.597  0.5650 -0.6378 -0.5915
10721TIP3    H253655   2.054   0.200   2.482 -3.0987  2.3635 -0.1684
10722TIP3   OH253656   2.087   1.913   0.088 -0.4986  0.1290  0.0103
10722TIP3    H153657   2.063   1.835   0.139 -1.4145  0.8244  0.6817
10722TIP3    H253658   2.010   1.930   0.033 -0.9549  1.4437  0.9951
10723TIP3   OH253659   3.529   5.360  13.124 -0.1816  0.4512  0.0969
10723TIP3    H153660   3.446   5.337  13.166  0.9641  0.1934  2.3274
10723TIP3    H253661   3.550   5.447  13.159  1.2492 -0.1484  0.7882
10724TIP3   OH253662   0.378   1.907   4.122  0.5147 -0.1534 -0.4837
10724TIP3    H153663   0.304   1.846   4.126 -0.0020  0.5108  0.6138
10724TIP3    H253664   0.447   1.858   4.077  0.0259 -1.4670  0.1423
10725TIP3   OH253665   3.091   5.561   0.036 -0.8286  0.0577 -0.0628
10725TIP3    H153666   3.010   5.532   0.077 -0.4707 -1.3233 -0.3092
10725TIP3    H253667   3.072   5.650   0.006 -2.2463 -0.2415 -0.1086
10726TIP3   OH253668   1.101   5.977  15.107 -0.4582 -0.1520  0.1800
10726TIP3    H153669   1.079   6.043  15.173  1.6368 -0.0243  0.8159
10726TIP3    H253670   1.093   6.022  15.023 -0.2112  0.5637  0.5377
10727TIP3   OH253671   0.544   5.881  11.554  0.2115 -1.0055  0.0364
10727TIP3    H153672   0.511   5.868  11.643  0.6175  0.0617  0.3542
10727TIP3    H253673   0.476   5.934  11.510  1.7888  2.0420  0.9805
10728TIP3   OH253674   3.653   0.866  11.236  0.6945 -0.3182  0.3251
10728TIP3    H153675   3.745   0.844  11.253  1.3865  1.6440 -0.5863
10728TIP3    H253676   3.631   0.817  11.157 -0.0543 -3.1253  2.1029
10729TIP3   OH253677   1.105   0.046   3.203  0.2273  0.4167 -0.1967
10729TIP3    H153678   1.068   0.042   3.115  0.4853 -0.3958 -0.2742
10729TIP3    H253679   1.079   0.133   3.236 -0.5250  0.4256 -0.7798
10730TIP3   OH253680   5.654   4.280  14.444 -0.1928  0.4258 -0.3755
10730TIP3    H153681   5.744   4.293  14.414  0.2617 -1.0021  0.2585
10730TIP3    H253682   5.600   4.310  14.372  0.7842  1.4486 -0.7140
10731TIP3   OH253683   2.050   6.183   4.894 -0.3485 -0.3887 -0.3916
10731TIP3    H153684   2.078   6.094   4.872  1.9052 -0.0919  0.9906
10731TIP3    H253685   2.099   6.239   4.835  0.7723  0.0593  0.9131
10732TIP3   OH253686   5.782   2.913  15.328 -0.2014 -0.4658  0.1229
10732TIP3    H153687   5.777   2.992  15.381 -1.7487 -0.1840 -0.4080
10732TIP3    H253688   5.859   2.926  15.273  0.4191 -0.0056  1.0790
10733TIP3   OH253689   0.106   2.353   5.211  0.2590 -0.5454 -0.0192
10733TIP3    H153690   0.170   2.361   5.282 -0.1174 -2.6738  0.6295
10733TIP3    H253691   0.113   2.262   5.182 -1.6674 -0.5133 -0.7192
10734TIP3   OH253692   2.331   3.187   0.275 -0.4644 -0.0843  0.4079
10734TIP3    H153693   2.283   3.225   0.202  0.9109  0.7685 -0.0766
10734TIP3    H253694   2.377   3.260   0.315 -1.6466 -0.4185  2.5447
10735TIP3   OH253695   2.297   1.877  12.594  0.0726  0.5797 -0.0913
10735TIP3    H153696   2.348   1.831  12.527  0.3419  1.3460 -0.4302
10735TIP3    H253697   2.319   1.970  12.580  0.1378  0.7463  1.0631
10736TIP3   OH253698   3.162   4.631   4.862  0.2529 -0.5200  0.2191
10736TIP3    H153699   3.133   4.631   4.953  0.8154  1.0498  0.4221
10736TIP3    H253700   3.081   4.643   4.812  0.2604  1.9721  0.6962
10737TIP3   OH253701   4.147   4.323  15.272  0.0100 -0.2100  0.0067
10737TIP3    H153702   4.211   4.337  15.202  1.8597 -2.7744  1.0476
10737TIP3    H253703   4.170   4.389  15.338 -0.7415  1.1756 -1.0426
10738TIP3   OH253704   5.823   0.963  11.203  0.3263  0.2076  0.6792
10738TIP3    H153705   5.835   1.047  11.158  0.1755 -1.1219 -2.0009
10738TIP3    H253706   5.784   0.905  11.138  1.3636 -2.2768  2.1026
10739TIP3   OH253707   5.102   4.144   4.335 -0.0628  0.5855 -0.5595
10739TIP3    H153708   5.056   4.168   4.415  1.1780 -1.5971  0.9208
10739TIP3    H253709   5.165   4.215   4.321 -0.6529  1.2484  0.0767
10740TIP3   OH253710   3.538   5.068  15.289 -0.0487  0.1239  0.2881
10740TIP3    H153711   3.483   5.130  15.337  1.6206  1.6739  0.2746
10740TIP3    H253712   3.616   5.118  15.265  0.6192 -1.5307 -1.1949
10741TIP3   OH253713   4.571   6.118   3.931 -0.3646 -0.0979  0.4482
10741TIP3    H153714   4.629   6.045   3.911  2.3207  2.5188 -2.3873
10741TIP3    H253715   4.499   6.108   3.870  0.6347  0.2515 -0.8189
10742TIP3   OH253716   4.982   1.181   6.537 -0.3654 -0.4335  0.2629
10742TIP3    H153717   5.030   1.173   6.620  0.8703 -1.9385 -0.5426
10742TIP3    H253718   4.893   1.205   6.563  0.1885 -0.0869  1.9676
10743TIP3   OH253719   1.960   5.045   4.936  0.6670 -0.4008  0.0802
10743TIP3    H153720   1.977   5.139   4.944  1.4441 -0.4194 -1.0137
10743TIP3    H253721   1.951   5.014   5.026 -1.5269  1.0281  0.4322
10744TIP3   OH253722   2.001   3.691   1.828 -0.6442 -0.5299 -0.5129
10744TIP3    H153723   2.020   3.598   1.819 -0.6905 -0.6155  0.1771
10744TIP3    H253724   1.914   3.694   1.869 -1.0072 -0.1714 -1.2944
10745TIP3   OH253725   0.270   2.221   3.648  0.0646 -0.2631 -0.1644
10745TIP3    H153726   0.283   2.171   3.729  1.1139 -0.1236 -0.2262
10745TIP3    H253727   0.314   2.169   3.580  1.0290  0.6304 -0.2547
10746TIP3   OH253728   4.750   3.431   0.715 -0.5267  0.8685  0.0906
10746TIP3    H153729   4.736   3.469   0.629  1.8190 -0.0240 -0.7432
10746TIP3    H253730   4.844   3.420   0.723 -0.8195 -1.1592  1.8527
10747TIP3   OH253731   5.687   2.180  12.868 -0.0872  0.2458 -0.8693
10747TIP3    H153732   5.652   2.121  12.800  3.8162 -2.0361 -1.1906
10747TIP3    H253733   5.648   2.149  12.949  0.4847 -1.6827 -1.2799
10748TIP3   OH253734   6.307   0.356  11.556  0.5065 -0.1677 -0.2585
10748TIP3    H153735   6.348   0.436  11.522 -0.3440 -0.1055 -1.1613
10748TIP3    H253736   6.257   0.385  11.632 -1.6481  0.6047 -1.8835
10749TIP3   OH253737   2.752   6.836   0.903 -0.2062 -0.2518  0.4437
10749TIP3    H153738   2.775   6.804   0.990  1.6793  1.4229  0.6220
10749TIP3    H253739   2.686   6.904   0.919 -1.4549 -1.4098  0.3563
10750TIP3   OH253740   5.900   0.010  11.317  0.7351  0.4394  0.1341
10750TIP3    H153741   5.888   0.102  11.292 -1.5687  0.5831  1.4946
10750TIP3    H253742   5.814  -0.029  11.304  1.2879 -1.1518  1.0894
10751TIP3   OH253743   3.480   6.774  17.194 -0.3055  0.2092  0.3088
10751TIP3    H153744   3.407   6.716  17.214 -1.2019  1.1282 -0.1670
10751TIP3    H253745   3.528   6.782  17.276 -2.0355  1.3443  1.2654
10752TIP3   OH253746   1.178   2.990  12.083 -0.5297  0.2694 -0.0356
10752TIP3    H153747   1.093   3.029  12.100  0.0135  0.7140  1.9369
10752TIP3    H253748   1.224   3.055  12.030 -0.9375  0.6449  0.0644
10753TIP3   OH253749   4.613   0.842  10.866  0.3910 -0.2530  0.0452
10753TIP3    H153750   4.649   0.853  10.778  0.6093 -0.2224  0.1386
10753TIP3    H253751   4.522   0.816  10.851 -0.1189  1.5544 -0.1780
10754TIP3   OH253752   2.829   4.453   5.863 -0.0294 -0.6360  0.0908
10754TIP3    H153753   2.878   4.435   5.943  0.9748 -0.3652 -0.4491
10754TIP3    H253754   2.808   4.547   5.868 -0.6827 -0.7943  0.4171
10755TIP3   OH253755   4.275   5.739   3.246  0.1883 -0.1089 -0.0418
10755TIP3    H153756   4.242   5.771   3.331  0.6043  1.4533 -0.4285
10755TIP3    H253757   4.196   5.720   3.195 -0.1091  0.9608 -0.0108
10756TIP3   OH253758   3.183   5.281  15.825  0.4217 -0.1873 -0.1286
10756TIP3    H153759   3.188   5.373  15.801 -0.4450  0.4890  2.0163
10756TIP3    H253760   3.159   5.282  15.918 -1.7004 -2.5784 -0.5497
10757TIP3   OH253761   6.034   5.219   6.754 -0.1996 -0.0650 -0.4490
10757TIP3    H153762   6.036   5.171   6.837  0.4677 -0.0178 -0.4298
10757TIP3    H253763   6.125   5.247   6.740 -0.6218  1.4317 -0.3288
10758TIP3   OH253764   4.463   6.472   0.994 -0.7773  0.7519  0.5099
10758TIP3    H153765   4.391   6.419   0.960  0.3307  0.2076 -1.1444
10758TIP3    H253766   4.514   6.411   1.048 -0.4802  0.5732  0.0425
10759TIP3   OH253767   6.764   1.692  16.827 -0.1902  0.0141  0.5217
10759TIP3    H153768   6.841   1.656  16.871  1.1244  1.4650 -0.4571
10759TIP3    H253769   6.754   1.638  16.748 -0.1883 -0.2035  0.6700
10760TIP3   OH253770   5.135   2.144  17.171  0.0522 -0.3689 -0.4298
10760TIP3    H153771   5.198   2.148  17.243 -0.6119  0.4125  0.1292
10760TIP3    H253772   5.168   2.074  17.114  0.3474 -1.3269  0.8663
10761TIP3   OH253773   0.439   1.838   5.827 -0.1708  0.1660  0.1185
10761TIP3    H153774   0.510   1.903   5.821 -1.1990  1.4065  0.9590
10761TIP3    H253775   0.469   1.766   5.771  1.6885  0.7025  0.3333
10762TIP3   OH253776   1.367   6.124   0.260  0.0089 -0.0627  0.5713
10762TIP3    H153777   1.302   6.080   0.206  0.3416 -0.6510  0.6424
10762TIP3    H253778   1.317   6.164   0.331 -0.2391 -0.8851  0.8707
10763TIP3   OH253779   0.273   6.136   3.515  0.3098  0.2620 -0.1899
10763TIP3    H153780   0.268   6.183   3.598  1.3987 -2.9874  1.9164
10763TIP3    H253781   0.349   6.172   3.470  0.1556  1.5406  0.5466
10764TIP3   OH253782   5.739   4.253   3.214  0.0385 -0.0337 -0.1642
10764TIP3    H153783   5.763   4.346   3.209  0.0560 -0.0771 -1.0412
10764TIP3    H253784   5.815   4.207   3.179  0.3715 -0.4391  1.0706
10765TIP3   OH253785   1.609   3.639  12.420 -0.3846  0.6405 -0.2695
10765TIP3    H153786   1.545   3.568  12.424 -0.3883  0.6295 -0.4946
10765TIP3    H253787   1.693   3.597  12.441 -0.3107  0.4665 -0.8744
10766TIP3   OH253788   4.340   3.209   5.283 -0.1784  0.3655 -0.3319
10766TIP3    H153789   4.407   3.204   5.215 -0.4832  1.0877 -0.6921
10766TIP3    H253790   4.277   3.274   5.251 -0.5544  0.3938  0.4354
10767TIP3   OH253791   3.936   1.365  14.940 -0.0891 -0.4571  0.3054
10767TIP3    H153792   3.897   1.286  14.904 -3.1238 -0.2762  2.7672
10767TIP3    H253793   3.875   1.435  14.915  0.8521  0.5774  0.8322
10768TIP3   OH253794   6.802   1.539  11.421 -0.1295 -0.3468 -0.4977
10768TIP3    H153795   6.879   1.584  11.455 -1.1023  0.1714  1.1029
10768TIP3    H253796   6.800   1.562  11.328  0.6163  1.1528 -0.1760
10769TIP3   OH253797   0.920   6.696  12.299 -0.1859  0.3386  0.2499
10769TIP3    H153798   0.924   6.701  12.204 -0.9990 -2.0248  0.0409
10769TIP3    H253799   1.011   6.690  12.328  0.1059  1.7923 -0.2825
10770TIP3   OH253800   4.702   2.375   5.634  0.0190  0.0185  0.0766
10770TIP3    H153801   4.717   2.439   5.564  1.2366 -0.4526 -0.1242
10770TIP3    H253802   4.677   2.295   5.588 -0.1327 -0.0234  0.2334
10771TIP3   OH253803   3.016   0.956   1.586 -0.5318  0.2299  0.0816
10771TIP3    H153804   2.953   0.892   1.619  0.3468  0.1739  1.7406
10771TIP3    H253805   3.002   1.034   1.639  1.0367  0.0759  0.7910
10772TIP3   OH253806   1.715   4.095  14.092 -0.0148  0.3275  0.2331
10772TIP3    H153807   1.720   4.088  13.997 -0.1232 -0.2933  0.2694
10772TIP3    H253808   1.678   4.182  14.108 -2.2656 -0.4570 -0.3498
10773TIP3   OH253809   6.259   1.423   1.350  0.5317 -0.6543 -0.0680
10773TIP3    H153810   6.220   1.406   1.436  0.5163 -0.8440 -0.1111
10773TIP3    H253811   6.202   1.378   1.288 -0.8723  1.4951 -0.4430
10774TIP3   OH253812   4.176   0.158   0.821  0.7047  0.4720  0.4879
10774TIP3    H153813   4.142   0.238   0.861  1.0607  0.8390  0.0563
10774TIP3    H253814   4.226   0.115   0.890 -0.5597 -0.0427  1.1217
10775TIP3   OH253815   5.243   0.044  13.256 -0.4001 -0.0883 -0.0801
10775TIP3    H153816   5.306  -0.025  13.274 -0.8938 -0.4499  0.2700
10775TIP3    H253817   5.291   0.107  13.202  0.5351  0.1017  0.9448
10776TIP3   OH253818   1.359   2.404   3.142 -0.0762  0.4758  0.1246
10776TIP3    H153819   1.382   2.312   3.154 -0.6386  0.1003 -1.4069
10776TIP3    H253820   1.334   2.434   3.229  1.2508 -0.4801  0.8751
10777TIP3   OH253821   2.258   1.938   6.167  0.2046  0.2162 -0.3176
10777TIP3    H153822   2.283   1.884   6.092  1.3492  0.4350 -0.1041
10777TIP3    H253823   2.177   1.981   6.139 -0.0548 -0.6505 -0.9529
10778TIP3   OH253824   5.957   6.312  17.076 -0.2781 -0.1684  0.2265
10778TIP3    H153825   5.942   6.350  16.990 -2.2584 -0.2141  0.5007
10778TIP3    H253826   5.917   6.374  17.137  1.1094 -0.1276  1.1358
10779TIP3   OH253827   5.040   3.525  10.516  0.0076 -0.3475  0.0155
10779TIP3    H153828   5.039   3.607  10.466 -0.6909 -0.3314  0.0487
10779TIP3    H253829   5.092   3.465  10.461 -0.1463 -0.1175 -0.3893
10780TIP3   OH253830   5.508   6.639  12.136 -0.1362  0.0620  0.3876
10780TIP3    H153831   5.519   6.718  12.190 -2.7511  1.2943 -0.7274
10780TIP3    H253832   5.561   6.656  12.058 -1.1756  1.0569 -0.1329
10781TIP3   OH253833   4.790   4.241  12.008  0.0265 -0.1449 -0.3313
10781TIP3    H153834   4.885   4.244  12.010  0.0307 -0.0069 -0.6937
10781TIP3    H253835   4.767   4.161  12.056  0.3108 -0.0451 -0.0263
10782TIP3   OH253836   5.346   5.858   2.742 -0.0787 -0.2344 -0.4805
10782TIP3    H153837   5.349   5.764   2.724 -1.8097 -0.7671  1.5961
10782TIP3    H253838   5.261   5.872   2.783 -1.0604  2.7731 -3.1251
10783TIP3   OH253839   0.489   6.502   3.122  0.0330 -0.0572 -0.5788
10783TIP3    H153840   0.394   6.508   3.125 -0.1264 -1.9961  2.5643
10783TIP3    H253841   0.518   6.532   3.208  2.1805 -0.5241 -1.0710
10784TIP3   OH253842   6.426   4.495  13.473 -0.1564 -0.3062 -0.6520
10784TIP3    H153843   6.406   4.584  13.446  0.8611 -0.0889 -0.7041
10784TIP3    H253844   6.342   4.449  13.467 -0.6568  0.6050 -0.7612
10785TIP3   OH253845   4.475   5.063  16.675  0.0174 -0.2641  0.0673
10785TIP3    H153846   4.466   5.039  16.767  0.3232 -1.9816 -0.3090
10785TIP3    H253847   4.389   5.045  16.637  0.2982 -0.9516 -0.2587
10786TIP3   OH253848   2.639   2.002   4.396  0.2435 -0.1140  0.2582
10786TIP3    H153849   2.577   2.042   4.458 -0.4203  0.5555 -0.8064
10786TIP3    H253850   2.723   2.044   4.416  0.1167 -0.1514  0.9182
10787TIP3   OH253851   1.212   3.234  17.206 -0.1243  0.1199 -0.0841
10787TIP3    H153852   1.227   3.267  17.294  1.2515  1.7979 -0.8635
10787TIP3    H253853   1.295   3.193  17.181 -0.4001 -0.0834 -0.7007
10788TIP3   OH253854   1.465   6.344   5.224  0.5372  0.0985 -0.5392
10788TIP3    H153855   1.474   6.252   5.252  0.1403  0.2497  0.1176
10788TIP3    H253856   1.502   6.394   5.296  0.5106  0.4681 -0.7817
10789TIP3   OH253857   2.252   0.799   4.063 -0.4075 -0.2275 -0.4832
10789TIP3    H153858   2.188   0.798   3.992 -0.1991 -0.7283 -0.6653
10789TIP3    H253859   2.319   0.736   4.037  0.4715  0.7027 -0.5766
10790TIP3   OH253860   1.524   6.230   1.221  0.3130 -0.1608 -0.1229
10790TIP3    H153861   1.604   6.200   1.178  0.1513  0.5124 -0.9188
10790TIP3    H253862   1.547   6.233   1.314  0.9902 -0.6499 -0.2637
10791TIP3   OH253863   0.796   5.909   2.410 -0.3900 -0.0099  1.0076
10791TIP3    H153864   0.790   5.995   2.369  3.1856 -0.4709 -0.8734
10791TIP3    H253865   0.740   5.853   2.357 -0.7826  0.6670  0.6919
10792TIP3   OH253866   6.797   0.763  14.132 -0.5566  0.3157  0.4307
10792TIP3    H153867   6.808   0.669  14.119 -0.9589  0.3874 -0.5276
10792TIP3    H253868   6.842   0.803  14.057 -0.7597  0.8675  0.6004
10793TIP3   OH253869   5.879   1.239  16.593 -0.3787  0.7697 -0.0387
10793TIP3    H153870   5.880   1.180  16.517  1.6656  0.6271  0.0464
10793TIP3    H253871   5.937   1.311  16.568 -0.1234  1.0039  1.1722
10794TIP3   OH253872   3.708   1.228  15.930  0.4336 -0.2611  0.4370
10794TIP3    H153873   3.632   1.201  15.877 -0.3888  1.3911  0.7198
10794TIP3    H253874   3.680   1.216  16.020  0.1685  1.1345  0.5641
10795TIP3   OH253875   3.796   4.645  11.869 -0.0606  0.5470  0.3029
10795TIP3    H153876   3.709   4.610  11.851  0.3657 -0.1371 -0.5095
10795TIP3    H253877   3.825   4.680  11.784  0.4663  0.7460  0.5628
10796TIP3   OH253878   5.594   2.552  12.869 -0.1874  0.0361 -0.3058
10796TIP3    H153879   5.512   2.537  12.822  0.4070  0.3345 -1.4874
10796TIP3    H253880   5.616   2.467  12.906 -0.8449 -0.1326 -0.2871
10797TIP3   OH253881   3.228   2.039   5.721 -0.4527  0.6278 -0.6446
10797TIP3    H153882   3.202   2.128   5.743 -1.7158  0.0271  0.3912
10797TIP3    H253883   3.280   2.010   5.796 -0.9935  0.1097 -0.4690
10798TIP3   OH253884   2.811   0.402  12.451  0.1169  0.8259 -0.1727
10798TIP3    H153885   2.812   0.315  12.411 -0.9198 -1.0217  3.4038
10798TIP3    H253886   2.878   0.451  12.403 -0.0251 -1.5457 -3.0437
10799TIP3   OH253887   5.265   2.558   4.026 -0.9782 -0.1329  0.0274
10799TIP3    H153888   5.235   2.600   4.107 -1.0527  1.2186 -0.6733
10799TIP3    H253889   5.230   2.469   4.031  0.1047 -0.5242  2.0750
10800TIP3   OH253890   1.287   5.151   2.225 -0.1803  0.3248 -0.0706
10800TIP3    H153891   1.196   5.153   2.257  0.2456  1.3455  1.1441
10800TIP3    H253892   1.300   5.061   2.194 -0.7966 -0.5837  2.1505
10801TIP3   OH253893   6.527   3.495  13.715  1.0395  0.0881 -0.5871
10801TIP3    H153894   6.512   3.481  13.809  1.4763 -0.4343 -0.5927
10801TIP3    H253895   6.571   3.580  13.710 -0.7840  1.0851 -0.4811
10802TIP3   OH253896   0.539   0.421  16.446  0.2274  0.5644  0.0432
10802TIP3    H153897   0.619   0.428  16.393  1.1264 -1.6259  1.0137
10802TIP3    H253898   0.471   0.395  16.383  0.6274  0.8351 -0.5129
10803TIP3   OH253899   4.163   2.708  14.714  0.7384 -0.4174 -0.4813
10803TIP3    H153900   4.114   2.730  14.635  0.1735 -0.8232 -0.2477
10803TIP3    H253901   4.191   2.792  14.749  0.2058 -0.1822 -0.6159
10804TIP3   OH253902   1.378   2.400  11.645  0.2265 -0.4362  0.0323
10804TIP3    H153903   1.369   2.311  11.679  0.4129 -0.0165  1.1875
10804TIP3    H253904   1.361   2.391  11.551  2.8979 -2.1475 -0.3942
10805TIP3   OH253905   3.278   1.139  13.206  0.2785 -0.6562  0.0511
10805TIP3    H153906   3.224   1.113  13.281 -1.9050 -0.2314 -1.2998
10805TIP3    H253907   3.319   1.057  13.177  1.7704 -0.7177  2.0768
10806TIP3   OH253908   2.509   5.313  11.341  0.5995 -0.6520 -0.1665
10806TIP3    H153909   2.415   5.327  11.355  0.8254  0.8156  0.0098
10806TIP3    H253910   2.516   5.292  11.247  0.0767 -1.1101 -0.1100
10807TIP3   OH253911   0.617   1.155   3.085 -0.4309  0.1331 -0.0975
10807TIP3    H153912   0.617   1.078   3.142  0.1181  0.2763  0.1044
10807TIP3    H253913   0.707   1.160   3.052  0.1183  1.8084  1.4413
10808TIP3   OH253914   5.391   2.822   1.943  0.5727 -0.3688  0.7045
10808TIP3    H153915   5.327   2.846   2.009  0.3632  0.6458  0.1518
10808TIP3    H253916   5.422   2.735   1.970  0.2360 -0.1304  1.9162
10809TIP3   OH253917   5.590   3.632   5.047  0.3765 -0.1079  0.2704
10809TIP3    H153918   5.598   3.711   5.100  0.4351 -0.3034  0.5556
10809TIP3    H253919   5.501   3.600   5.064 -0.5007  1.1324 -1.5970
10810TIP3   OH253920   5.222   0.819  16.781 -0.6988  0.2355  0.1284
10810TIP3    H153921   5.172   0.742  16.751 -0.5015  0.8757 -2.0366
10810TIP3    H253922   5.311   0.786  16.794  0.0549  0.4641 -3.3626
10811TIP3   OH253923   2.577   4.560  16.167  0.8247 -0.9217  0.0881
10811TIP3    H153924   2.499   4.607  16.140  2.0207  1.2972  0.2856
10811TIP3    H253925   2.552   4.468  16.162 -1.7046 -0.2976 -0.0447
10812TIP3   OH253926   3.739   5.880   2.939 -0.1884 -0.0004 -0.7372
10812TIP3    H153927   3.708   5.832   2.862 -0.6557 -0.7481 -0.0902
10812TIP3    H253928   3.835   5.882   2.929 -0.1574 -1.1091 -0.7565
10813TIP3   OH253929   3.577   0.431   0.080  0.6870  0.0505 -0.0702
10813TIP3    H153930   3.548   0.507   0.031  0.6645  1.0140  1.3598
10813TIP3    H253931   3.662   0.408   0.041  0.7347  0.8613 -0.4682
10814TIP3   OH253932   0.864   3.949   5.591  0.5447  0.2872 -0.9659
10814TIP3    H153933   0.849   3.915   5.503  0.1201 -0.7671 -0.5116
10814TIP3    H253934   0.864   4.044   5.581 -3.8415  0.4369 -1.5276
10815TIP3   OH253935   5.828   0.753   4.331  0.6364  0.0713  0.0861
10815TIP3    H153936   5.836   0.847   4.312  1.9017 -0.1040 -0.2931
10815TIP3    H253937   5.827   0.711   4.244 -1.3534 -0.1967  0.1809
10816TIP3   OH253938   5.539   4.415   0.570 -0.1932  0.4026  0.0244
10816TIP3    H153939   5.455   4.405   0.525 -0.7240  1.8072  0.6564
10816TIP3    H253940   5.524   4.377   0.657  0.5202 -1.3578 -0.5762
10817TIP3   OH253941   4.710   2.987   3.354  0.0108 -0.6321  0.3016
10817TIP3    H153942   4.768   2.970   3.428  0.1161 -1.2393  0.0805
10817TIP3    H253943   4.658   2.908   3.345 -1.9233  0.4389  1.4434
10818TIP3   OH253944   1.052   0.891   3.560 -0.8330  0.5947 -0.4416
10818TIP3    H153945   1.125   0.905   3.621  1.2400 -0.5554 -2.4637
10818TIP3    H253946   1.005   0.816   3.596 -0.1768  0.4755  0.1883
10819TIP3   OH253947   3.841   4.641   0.851  0.4010  0.4410  0.5180
10819TIP3    H153948   3.896   4.690   0.790 -0.0419  0.6320  0.2680
10819TIP3    H253949   3.897   4.569   0.881  0.5972  0.3098 -0.1560
10820TIP3   OH253950   6.199   0.982   3.621 -0.2138 -0.5477  0.1934
10820TIP3    H153951   6.282   1.027   3.606 -1.2677  0.6566 -2.6727
10820TIP3    H253952   6.152   0.990   3.538 -2.2318 -3.3180  0.9322
10821TIP3   OH253953   1.706   4.640   3.051 -0.6183  0.0567 -0.1842
10821TIP3    H153954   1.703   4.544   3.060  0.5062 -0.0536 -0.8661
10821TIP3    H253955   1.761   4.669   3.124 -0.7623  0.1668 -0.1189
10822TIP3   OH253956   2.251   2.214   6.050  0.2073  0.1102  0.0561
10822TIP3    H153957   2.251   2.297   6.098  1.5272 -0.6568  1.4645
10822TIP3    H253958   2.170   2.171   6.077 -0.0234  0.5305  0.0485
10823TIP3   OH253959   1.565   0.458   1.444  0.0833 -0.6022 -0.5485
10823TIP3    H153960   1.472   0.452   1.467  0.4644 -2.9100  0.7205
10823TIP3    H253961   1.566   0.506   1.361 -1.9411  2.1684  0.8660
10824TIP3   OH253962   2.088   4.760  14.067  0.0064 -0.0704 -0.6150
10824TIP3    H153963   2.023   4.765  14.137 -0.6022  0.0702 -1.1808
10824TIP3    H253964   2.148   4.832  14.085  0.6996 -0.8880  0.5724
10825TIP3   OH253965   5.973   1.700  14.966 -0.3613  0.1593  0.1308
10825TIP3    H153966   5.911   1.763  14.929  1.2543  1.4659 -0.5066
10825TIP3    H253967   5.933   1.674  15.049 -1.2547  1.8216  0.2781
10826TIP3   OH253968   4.150   0.157  13.907 -0.2231  0.8236  0.6346
10826TIP3    H153969   4.163   0.107  13.827 -2.7778 -1.1825  1.3490
10826TIP3    H253970   4.234   0.153  13.953  0.0092 -1.8963  0.1091
10827TIP3   OH253971   5.269   4.131  16.677 -0.4663 -0.1937 -0.0781
10827TIP3    H153972   5.362   4.155  16.677 -0.7809  1.1245 -0.0787
10827TIP3    H253973   5.267   4.044  16.638  0.8363 -0.5531  0.5739
10828TIP3   OH253974   5.018   2.411   6.291 -0.2368 -0.2970 -0.0498
10828TIP3    H153975   5.067   2.384   6.368  1.8516 -0.2576 -1.2902
10828TIP3    H253976   5.027   2.337   6.230  0.8886  0.9232 -1.4226
10829TIP3   OH253977   5.964   3.658  13.246  0.4491  0.0492 -0.4012
10829TIP3    H153978   5.985   3.720  13.177 -0.5902  0.8860  0.0057
10829TIP3    H253979   5.912   3.590  13.202  0.8109 -0.0605 -0.6659
10830TIP3   OH253980   6.722   6.504   1.227  0.4504 -0.5509  0.2156
10830TIP3    H153981   6.679   6.590   1.232  0.3602 -0.5621 -0.3013
10830TIP3    H253982   6.810   6.523   1.193  0.4948 -0.6406  0.2820
10831TIP3   OH253983   2.830   6.735  14.543 -0.2294  0.2735  0.0313
10831TIP3    H153984   2.879   6.667  14.589 -0.0151 -0.1332 -0.7764
10831TIP3    H253985   2.750   6.692  14.515  0.2346  0.1278 -1.1296
10832TIP3   OH253986   1.044   3.673  12.552  0.1306 -0.2294  0.6401
10832TIP3    H153987   1.044   3.713  12.639 -1.4713  0.2476  0.4590
10832TIP3    H253988   0.959   3.698  12.515  0.6138 -0.7833 -0.8944
10833TIP3   OH253989   4.534   5.580   5.233  0.1442 -0.4055 -0.2079
10833TIP3    H153990   4.513   5.565   5.141  2.2085  0.0810 -0.8066
10833TIP3    H253991   4.542   5.675   5.240 -2.0529 -0.2460  1.0056
10834TIP3   OH253992   4.784   2.933   2.090  0.4172  0.1000 -0.4380
10834TIP3    H153993   4.842   2.977   2.153  0.4830  1.1697 -1.2254
10834TIP3    H253994   4.704   2.915   2.139  0.2173  1.5191 -0.2141
10835TIP3   OH253995   2.808   0.959   0.101  0.4592  0.1235 -0.0532
10835TIP3    H153996   2.833   1.022   0.168 -2.7201  0.5758  0.8304
10835TIP3    H253997   2.837   0.874   0.136 -1.3426  0.3175  2.0841
10836TIP3   OH253998   4.637   5.763   6.705  0.1741  0.2385  0.1763
10836TIP3    H153999   4.577   5.837   6.717  0.2374  0.1800  0.8653
10836TIP3    H254000   4.711   5.800   6.657  0.2292  0.6314  0.5632
10837TIP3   OH254001   4.147   1.427   2.699  0.2764  0.0102 -0.0772
10837TIP3    H154002   4.184   1.485   2.632 -1.4256  0.8896 -0.3178
10837TIP3    H254003   4.103   1.358   2.649 -0.7576  0.5140  0.1101
10838TIP3   OH254004   3.030   2.193  13.027  0.7852  0.3193  0.0307
10838TIP3    H154005   2.974   2.167  12.954  0.6512  2.8306 -0.8673
10838TIP3    H254006   3.110   2.141  13.016 -0.7143 -2.2210  0.4698
10839TIP3   OH254007   3.750   4.621   4.898  0.5152  0.0107 -0.5064
10839TIP3    H154008   3.775   4.532   4.872  0.2680 -0.3258  0.3699
10839TIP3    H254009   3.779   4.676   4.825  0.2002 -0.8417 -1.3031
10840TIP3   OH254010   2.833   6.204   3.408 -0.7021 -0.2519 -0.2674
10840TIP3    H154011   2.769   6.256   3.456 -1.0577 -1.1992  0.2944
10840TIP3    H254012   2.916   6.221   3.452 -0.6952  0.3218 -0.4833
10841TIP3   OH254013   1.787   1.147  15.496 -0.4480  0.2119  0.3560
10841TIP3    H154014   1.752   1.214  15.437 -0.8890 -0.7500 -0.5094
10841TIP3    H254015   1.709   1.108  15.536 -0.1387  1.1951  2.0048
10842TIP3   OH254016   5.170   4.918   6.114 -0.0393 -0.2664 -0.0766
10842TIP3    H154017   5.090   4.868   6.099 -0.2745  0.6055 -2.1414
10842TIP3    H254018   5.230   4.889   6.045 -0.6379  3.0551 -2.2240
10843TIP3   OH254019   2.487   4.845  13.003  0.2350 -0.3828  0.1760
10843TIP3    H154020   2.529   4.899  12.936 -1.3642  0.9031  0.1513
10843TIP3    H254021   2.542   4.856  13.080 -0.3108  1.7524  0.3222
10844TIP3   OH254022   1.507   5.614  16.366  0.1314  0.3193 -0.4784
10844TIP3    H154023   1.520   5.689  16.423  1.8024 -0.9029  0.8316
10844TIP3    H254024   1.582   5.616  16.306  0.6508 -0.7330  0.1064
10845TIP3   OH254025   3.268   4.604   6.363 -0.0423  0.2055  0.0632
10845TIP3    H154026   3.187   4.555   6.351 -0.1712  0.5315 -0.4651
10845TIP3    H254027   3.262   4.676   6.299  0.3220  0.6673  0.5406
10846TIP3   OH254028   5.527   4.280   3.942  0.4975  0.1375  0.0606
10846TIP3    H154029   5.531   4.207   4.004  1.4642  1.1853  1.2784
10846TIP3    H254030   5.524   4.238   3.856  0.0238 -1.3385  0.7658
10847TIP3   OH254031   0.827   1.358   0.056  0.3369  0.0126  0.0322
10847TIP3    H154032   0.754   1.340   0.116 -0.0659  1.6081  0.0722
10847TIP3    H254033   0.856   1.446   0.079  2.5263 -0.7159  0.2269
10848TIP3   OH254034   3.202   3.572  12.438  0.0119 -0.0031 -0.2448
10848TIP3    H154035   3.145   3.524  12.497  0.6533  1.2976  1.5214
10848TIP3    H254036   3.260   3.506  12.401  1.5948 -0.5723  2.9643
10849TIP3   OH254037   6.379   2.745   0.909  0.3569  0.4074 -0.0484
10849TIP3    H154038   6.337   2.831   0.911  0.3540  0.5591 -2.8606
10849TIP3    H254039   6.444   2.751   0.839  0.3943 -1.8648 -0.2869
10850TIP3   OH254040   0.839   4.411  14.503  0.7824 -0.1418  0.3033
10850TIP3    H154041   0.801   4.369  14.426  0.6298 -0.6275  0.6385
10850TIP3    H254042   0.764   4.438  14.556  0.8847  0.2572  0.2517
10851TIP3   OH254043   4.824   1.064  11.322  0.7587 -0.1422 -0.2814
10851TIP3    H154044   4.747   1.012  11.301  0.8669 -0.6036  0.4404
10851TIP3    H254045   4.799   1.116  11.398  1.4317 -0.9629  0.5292
10852TIP3   OH254046   0.479   4.356   0.874  0.3233 -0.0018  0.0226
10852TIP3    H154047   0.543   4.397   0.932  0.0501 -0.5843  0.7499
10852TIP3    H254048   0.460   4.272   0.914  0.1512 -0.4400 -0.9381
10853TIP3   OH254049   2.709   4.677   3.165 -0.0998  0.4472 -0.0472
10853TIP3    H154050   2.626   4.719   3.187  0.1181  1.3619 -0.8595
10853TIP3    H254051   2.753   4.662   3.249 -0.9276  0.2805  0.3595
10854TIP3   OH254052   5.091   6.037   4.709  0.5616 -0.4921  0.0839
10854TIP3    H154053   5.039   5.959   4.692 -0.5267  0.3339 -0.4520
10854TIP3    H254054   5.122   6.065   4.623  0.2821  0.1144  0.1741
10855TIP3   OH254055   0.708   2.353   0.583 -0.5189  0.1244 -0.2519
10855TIP3    H154056   0.615   2.341   0.604 -0.1708 -1.1701  0.7003
10855TIP3    H254057   0.746   2.266   0.595  0.6273  0.3940 -1.6823
10856TIP3   OH254058   2.172   1.119   3.819 -0.5447 -0.0563 -0.8810
10856TIP3    H154059   2.164   1.196   3.876 -1.8164  0.8949 -2.2783
10856TIP3    H254060   2.249   1.138   3.765  0.3117 -0.6934  0.0748
10857TIP3   OH254061   2.072   6.751   1.667  0.1242  0.2938 -0.7173
10857TIP3    H154062   2.030   6.756   1.753 -0.7182  0.8933 -1.1507
10857TIP3    H254063   2.111   6.837   1.654  1.9013 -0.3751 -0.1466
10858TIP3   OH254064   4.408   0.122  16.129  0.5638 -0.1749  0.4873
10858TIP3    H154065   4.448   0.036  16.119  1.1547  0.2142 -0.7419
10858TIP3    H254066   4.315   0.104  16.139  0.8080 -1.0058  1.3806
10859TIP3   OH254067   3.699   5.868  10.938 -0.4240  0.2341  0.1709
10859TIP3    H154068   3.606   5.889  10.952 -0.9958 -1.2019 -1.2112
10859TIP3    H254069   3.699   5.807  10.865  1.5382 -0.6621  0.8540
10860TIP3   OH254070   1.811   4.052  16.305 -0.7421 -0.1457  0.3461
10860TIP3    H154071   1.787   3.982  16.244  1.5160 -1.2984  0.6816
10860TIP3    H254072   1.879   4.101  16.259 -1.4947  1.1824  0.5855
10861TIP3   OH254073   0.807   3.482  14.065 -0.2225 -0.2337  0.0989
10861TIP3    H154074   0.807   3.521  14.152  2.6075  0.8703 -0.2955
10861TIP3    H254075   0.881   3.523  14.019 -0.9447 -1.5460 -2.4744
10862TIP3   OH254076   5.117   1.183  12.969  0.3070  0.1308 -0.4159
10862TIP3    H154077   5.030   1.168  12.930 -0.3098 -0.7384  1.2092
10862TIP3    H254078   5.099   1.236  13.047  1.2232 -0.1218 -0.0281
10863TIP3   OH254079   0.436   5.283  14.571 -0.3649 -0.3423  0.2831
10863TIP3    H154080   0.340   5.281  14.578 -0.3369  1.7683  3.2156
10863TIP3    H254081   0.455   5.354  14.510 -0.6392 -1.0658 -0.6608
10864TIP3   OH254082   2.851   5.032  13.785 -0.2182 -0.0831  0.1896
10864TIP3    H154083   2.837   4.957  13.727  0.9146 -1.6027  1.7497
10864TIP3    H254084   2.900   5.094  13.732 -3.5174  0.8977 -2.0413
10865TIP3   OH254085   5.835   3.076   2.428  0.7377 -0.0247  0.0499
10865TIP3    H154086   5.808   3.051   2.340  2.4480  0.3828 -0.6332
10865TIP3    H254087   5.860   2.993   2.470  0.2532 -0.1767  0.0450
10866TIP3   OH254088   5.380   1.962  16.746 -0.2404 -0.3416  0.3775
10866TIP3    H154089   5.291   1.937  16.723 -0.1231  1.4608 -2.4540
10866TIP3    H254090   5.369   2.034  16.809 -0.6644 -1.4665  1.6584
10867TIP3   OH254091   3.150   2.942  15.907 -0.1168 -0.3610 -0.2135
10867TIP3    H154092   3.196   3.024  15.928  0.3564 -0.7566  0.3404
10867TIP3    H254093   3.064   2.952  15.947  0.0134 -0.2140  0.0380
10868TIP3   OH254094   1.615   4.705  11.914 -0.0334 -0.5088 -0.1473
10868TIP3    H154095   1.664   4.786  11.931 -1.6474  0.3163  0.9266
10868TIP3    H254096   1.682   4.639  11.896  1.3744  0.8654 -0.1851
10869TIP3   OH254097   6.571   4.190  14.861 -0.3682 -1.2630 -0.5557
10869TIP3    H154098   6.495   4.133  14.845 -0.2441 -1.5547 -0.1328
10869TIP3    H254099   6.534   4.277  14.873 -0.5692 -1.2672 -1.1302
10870TIP3   OH254100   2.576   4.125   0.717  0.3690  0.3752 -0.7636
10870TIP3    H154101   2.541   4.162   0.636  0.4122  0.3501 -0.7935
10870TIP3    H254102   2.646   4.185   0.744 -0.7894  1.3605  0.1942
10871TIP3   OH254103   4.930   3.817  11.084 -0.0086 -0.0816 -0.1768
10871TIP3    H154104   4.933   3.877  11.010 -1.0002  2.3534  1.6435
10871TIP3    H254105   5.021   3.811  11.114  0.1863 -0.0016 -0.7437
10872TIP3   OH254106   5.534   3.438  14.979 -0.2240  0.3729  0.1987
10872TIP3    H154107   5.466   3.436  15.046 -0.4018  1.6795  0.0805
10872TIP3    H254108   5.602   3.379  15.012 -0.9403 -0.1294  0.8206
10873TIP3   OH254109   3.525   2.752   1.503  0.0714  0.0269  0.0484
10873TIP3    H154110   3.464   2.678   1.499  0.1484  0.0017 -0.8160
10873TIP3    H254111   3.611   2.712   1.509  0.3107 -0.0367 -2.7931
10874TIP3   OH254112   3.844   5.174   5.548  0.0545 -0.1156 -0.4535
10874TIP3    H154113   3.855   5.268   5.536 -0.9210  0.1304  0.4201
10874TIP3    H254114   3.920   5.135   5.506  1.3066  1.1446  0.5520
10875TIP3   OH254115   6.450   0.584   2.147 -0.1929  0.2232 -0.2257
10875TIP3    H154116   6.534   0.629   2.157 -0.2739  0.6728 -1.3666
10875TIP3    H254117   6.421   0.608   2.059 -0.5156 -1.6282 -0.6562
10876TIP3   OH254118   2.512   5.813   3.389  0.0511  0.3957  0.1861
10876TIP3    H154119   2.437   5.838   3.336  1.7937  3.1078 -1.2706
10876TIP3    H254120   2.576   5.882   3.373  3.1654 -2.1112  0.7149
10877TIP3   OH254121   4.123   4.082   1.510  0.2547  0.1712 -0.2681
10877TIP3    H154122   4.213   4.053   1.528  0.7484  0.4149 -2.0818
10877TIP3    H254123   4.129   4.125   1.424 -1.4343  1.0098 -0.0003
10878TIP3   OH254124   2.944   1.265   5.088  0.0967 -0.1301  0.3010
10878TIP3    H154125   3.015   1.311   5.043  0.3097 -0.4342  0.3216
10878TIP3    H254126   2.883   1.334   5.115 -0.2555  0.0160 -0.8421
10879TIP3   OH254127   2.399   2.991   3.559 -0.4635  0.1196  0.3350
10879TIP3    H154128   2.374   2.954   3.644 -2.8785 -0.1610 -0.4486
10879TIP3    H254129   2.369   3.082   3.563  0.3882  0.4220  0.1477
10880TIP3   OH254130   4.087   3.391  11.414 -0.0833 -0.1725 -0.0756
10880TIP3    H154131   4.052   3.314  11.368  0.9661 -0.9464  0.3636
10880TIP3    H254132   4.128   3.443  11.345  4.0052 -2.6907  0.0544
10881TIP3   OH254133   6.119   5.693  15.843  0.3962  0.3475  0.7552
10881TIP3    H154134   6.134   5.608  15.801  3.5011  0.8265  0.6697
10881TIP3    H254135   6.097   5.671  15.933  1.2194 -0.6027  0.7511
10882TIP3   OH254136   5.722   2.428  14.159  0.3620 -0.2075 -0.6714
10882TIP3    H154137   5.687   2.424  14.070  0.7536  2.6404 -1.0443
10882TIP3    H254138   5.797   2.488  14.154  1.2275 -0.9944  1.3510
10883TIP3   OH254139   6.051   1.788  12.819  0.2837 -0.6823  0.1863
10883TIP3    H154140   6.115   1.774  12.889  0.6256 -1.2372 -0.2271
10883TIP3    H254141   6.076   1.726  12.751  1.1532  1.2047 -1.2762
10884TIP3   OH254142   1.301   6.679  11.156  0.0338  0.0490  0.0127
10884TIP3    H154143   1.232   6.663  11.091 -0.6730  0.6814  0.5862
10884TIP3    H254144   1.276   6.761  11.198  1.3560  0.4871 -0.0247
10885TIP3   OH254145   6.020   1.107  15.658 -0.3286  0.2639  0.0228
10885TIP3    H154146   6.012   1.138  15.748  1.4688  0.0711  0.2835
10885TIP3    H254147   5.933   1.070  15.638 -1.4997  2.4462  0.8031
10886TIP3   OH254148   6.169   6.289  16.289  0.1108  0.1786  0.9981
10886TIP3    H154149   6.213   6.219  16.337  0.9369  1.2215  1.8179
10886TIP3    H254150   6.129   6.246  16.214  2.2786 -0.8704  0.3779
10887TIP3   OH254151   6.577   1.918   5.717  0.2825  0.1116  0.3669
10887TIP3    H154152   6.501   1.884   5.765 -0.8589  2.3812  0.3000
10887TIP3    H254153   6.576   1.870   5.634 -2.8538  1.9660 -0.8323
10888TIP3   OH254154   1.309   2.697   3.780 -0.0446 -0.2008 -0.3938
10888TIP3    H154155   1.342   2.611   3.755 -1.7644 -0.9077 -0.3214
10888TIP3    H254156   1.356   2.758   3.721  0.9391 -1.1851 -0.6697
10889TIP3   OH254157   5.389   5.938   1.041  0.2946 -0.3667  0.0016
10889TIP3    H154158   5.370   5.860   0.988  0.1441 -0.7630  0.6282
10889TIP3    H254159   5.303   5.967   1.072  0.4323 -0.4734  0.4906
10890TIP3   OH254160   5.243   4.018   4.722  0.0078  0.3557 -0.1790
10890TIP3    H154161   5.301   4.030   4.798  0.5009  2.1352 -0.7829
10890TIP3    H254162   5.292   3.961   4.663 -0.0220 -0.3455  0.4570
10891TIP3   OH254163   1.494   6.609   5.670  0.6326 -0.2649 -0.1884
10891TIP3    H154164   1.400   6.608   5.652  0.9502 -2.5679 -2.2868
10891TIP3    H254165   1.500   6.608   5.766 -1.5379 -2.3729  0.0155
10892TIP3   OH254166   6.620   2.192  15.436  0.0388 -0.0604  0.0083
10892TIP3    H154167   6.623   2.098  15.417 -0.8870  0.0956 -0.9970
10892TIP3    H254168   6.596   2.232  15.353 -0.0050  1.0387  0.5423
10893TIP3   OH254169   2.054   2.565  16.563 -0.1174  0.2497 -0.4776
10893TIP3    H154170   2.119   2.631  16.587  2.3424 -1.5600 -1.7752
10893TIP3    H254171   2.007   2.604  16.489  2.1063  0.1657 -2.0175
10894TIP3   OH254172   2.723   4.617   4.758 -0.4909  0.1206 -0.1696
10894TIP3    H154173   2.707   4.587   4.669  3.1850 -0.4930 -0.7741
10894TIP3    H254174   2.680   4.551   4.813 -0.5955 -0.9458 -1.4721
10895TIP3   OH254175   3.088   5.198  16.526 -0.1377 -0.3343  0.2772
10895TIP3    H154176   3.036   5.143  16.584 -0.3363  0.8293  1.2310
10895TIP3    H254177   3.027   5.228  16.459 -0.5804  0.5287  1.0436
10896TIP3   OH254178   6.434   1.871  15.543 -0.4085 -0.4013  0.5987
10896TIP3    H154179   6.446   1.777  15.537  0.3918 -0.2990  0.3501
10896TIP3    H254180   6.522   1.907  15.527 -1.1141  0.4736 -1.8337
10897TIP3   OH254181   1.997   5.000   3.578 -0.0801 -0.4055 -0.1609
10897TIP3    H154182   1.906   5.026   3.586  0.3375  2.1581 -2.4289
10897TIP3    H254183   2.043   5.053   3.643  0.1252  0.7811 -1.2277
10898TIP3   OH254184   4.366   5.088  16.425  0.5674 -0.4108 -0.1307
10898TIP3    H154185   4.422   5.028  16.376  2.4062 -2.2787  3.8966
10898TIP3    H254186   4.419   5.167  16.436  1.2454 -1.0097  1.0448
10899TIP3   OH254187   4.207   1.898  13.889 -0.1613  0.0740  0.1723
10899TIP3    H154188   4.183   1.827  13.830 -1.7680 -0.8204  1.7659
10899TIP3    H254189   4.156   1.973  13.858 -0.4241 -0.1812 -0.0219
10900TIP3   OH254190   4.538   3.121   1.931 -0.3606 -0.1274 -0.3278
10900TIP3    H154191   4.547   3.033   1.967  0.5876  0.8538  2.0323
10900TIP3    H254192   4.471   3.112   1.863  0.7529 -2.9269 -1.2181
10901TIP3   OH254193   3.050   2.242  13.295 -0.0904 -0.4533 -0.5747
10901TIP3    H154194   2.962   2.276  13.283 -0.4120 -0.4348  1.4908
10901TIP3    H254195   3.067   2.191  13.216 -3.2042 -3.1314  0.2756
10902TIP3   OH254196   5.206   6.200   0.669 -0.0289  0.1039 -0.2353
10902TIP3    H154197   5.290   6.224   0.631  0.7867 -0.3834  1.1905
10902TIP3    H254198   5.171   6.134   0.609  1.2442 -0.6813 -0.1579
10903TIP3   OH254199   6.563   5.909  16.014  0.2382 -0.1138 -0.1969
10903TIP3    H154200   6.481   5.861  16.026  0.4361 -0.6001 -0.7323
10903TIP3    H254201   6.615   5.886  16.091  0.5096 -1.1410 -0.6739
10904TIP3   OH254202   0.767   6.341  13.339  0.1595 -0.1884  0.3546
10904TIP3    H154203   0.745   6.253  13.307  0.5031  0.0465 -0.5584
10904TIP3    H254204   0.791   6.328  13.430 -2.1881 -0.6974  0.9790
10905TIP3   OH254205   2.401   0.604  14.082  0.0187  0.2002  0.8353
10905TIP3    H154206   2.351   0.673  14.039 -1.7181 -1.4052  0.1029
10905TIP3    H254207   2.409   0.632  14.173 -0.4086  1.4738  0.4960
10906TIP3   OH254208   4.148   5.091   4.134  0.0759 -0.0998  0.1323
10906TIP3    H154209   4.164   5.017   4.192  0.2272 -0.5124 -0.4275
10906TIP3    H254210   4.069   5.068   4.086 -0.4547  0.5557  0.6764
10907TIP3   OH254211   1.639   5.135   3.255  0.1006 -0.3585 -0.3653
10907TIP3    H154212   1.571   5.109   3.193 -0.9379 -0.3942  0.7536
10907TIP3    H254213   1.634   5.070   3.325 -0.4536  1.0281  0.9534
10908TIP3   OH254214   5.809   4.302   0.884  0.7832 -0.3211  0.2112
10908TIP3    H154215   5.778   4.267   0.968 -0.7982 -1.1948 -0.6822
10908TIP3    H254216   5.778   4.238   0.819  3.5022 -0.6281 -0.9037
10909TIP3   OH254217   5.095   1.144   1.202 -1.0963 -0.1633 -0.6544
10909TIP3    H154218   5.000   1.135   1.194 -0.9138 -2.1140 -0.9190
10909TIP3    H254219   5.127   1.055   1.211  0.5237  0.5628  1.8307
10910TIP3   OH254220   0.397   1.732  15.490 -0.1712  0.4796 -0.7629
10910TIP3    H154221   0.414   1.658  15.548  1.0008  0.5013 -1.0497
10910TIP3    H254222   0.370   1.803  15.548 -1.5546 -0.2180 -0.5032
10911TIP3   OH254223   5.615   1.955  16.601 -0.0259 -0.7370  0.4878
10911TIP3    H154224   5.641   1.865  16.623 -1.5212 -1.4035 -0.2678
10911TIP3    H254225   5.538   1.971  16.656  0.7675  0.4587  1.2940
10912TIP3   OH254226   5.184   4.356  15.474 -0.2010  0.3760  0.1916
10912TIP3    H154227   5.171   4.313  15.390 -3.0508 -1.6529  1.4797
10912TIP3    H254228   5.213   4.286  15.533  0.0963  1.3556  1.2460
10913TIP3   OH254229   0.036   1.922  11.527  0.3500  0.1043 -0.1836
10913TIP3    H154230  -0.040   1.964  11.487 -0.0487 -1.0493 -0.6717
10913TIP3    H254231   0.110   1.948  11.472  0.2611  0.9409  0.0858
10914TIP3   OH254232   6.242   3.952  15.683 -0.0105 -0.2114 -0.2705
10914TIP3    H154233   6.314   3.901  15.720 -0.0339 -2.4255 -2.9720
10914TIP3    H254234   6.181   3.965  15.757  0.9347 -2.4376  0.9874
10915TIP3   OH254235   5.449   1.978  13.025  0.0732 -0.1485  0.0483
10915TIP3    H154236   5.376   2.008  12.971  0.9240 -0.2733 -1.2235
10915TIP3    H254237   5.464   2.051  13.086 -0.1200  0.5422 -0.7048
10916TIP3   OH254238   3.848   1.733  16.740  0.1674  0.5916  0.5596
10916TIP3    H154239   3.887   1.691  16.817 -0.7201 -0.3020  0.5501
10916TIP3    H254240   3.906   1.806  16.720  2.1054 -0.9494  0.2622
10917TIP3   OH254241   6.342   0.290   3.280 -0.5376  0.4822  0.2306
10917TIP3    H154242   6.394   0.368   3.294 -0.3934  0.1674  1.6676
10917TIP3    H254243   6.253   0.315   3.305 -0.5966  0.3430  0.1634
10918TIP3   OH254244   0.528   5.781  11.255  0.3150 -0.3018  0.3522
10918TIP3    H154245   0.514   5.872  11.230 -0.7724 -0.3477  0.7535
10918TIP3    H254246   0.488   5.773  11.341  0.6552 -1.0916  0.4469
10919TIP3   OH254247   0.211   6.669  13.586 -0.2100 -0.4609  0.6626
10919TIP3    H154248   0.173   6.685  13.499 -3.6862 -0.9471  1.9311
10919TIP3    H254249   0.241   6.578  13.582  1.0042 -0.0405 -0.4214
10920TIP3   OH254250   5.301   2.048   5.288 -0.3259 -0.0011 -0.1784
10920TIP3    H154251   5.253   2.127   5.263 -0.7060 -0.0771  0.3036
10920TIP3    H254252   5.321   2.005   5.205 -0.3278  0.4777 -0.4304
10921TIP3   OH254253   2.308   1.866  15.469 -0.2867  0.3802 -0.4143
10921TIP3    H154254   2.224   1.824  15.485 -0.2582  0.3802 -0.2602
10921TIP3    H254255   2.373   1.800  15.493 -0.2330 -0.0380 -1.6158
10922TIP3   OH254256   0.143   5.226   6.373  0.1044 -0.1759  0.3766
10922TIP3    H154257   0.157   5.218   6.279 -1.5345 -0.1323  0.1142
10922TIP3    H254258   0.051   5.251   6.383  0.5135  0.8843  1.9525
10923TIP3   OH254259   2.895   5.121  13.051  0.2347 -0.6443 -0.0997
10923TIP3    H154260   2.811   5.131  13.096 -0.1909 -0.6627 -0.8612
10923TIP3    H254261   2.918   5.029  13.062  0.9828 -0.3040  1.4963
10924TIP3   OH254262   3.990   0.280  17.040  0.0246  0.4454  0.2356
10924TIP3    H154263   3.924   0.210  17.039 -1.2960  1.6580 -0.8861
10924TIP3    H254264   3.940   0.360  17.051  1.4265  1.3243  0.4398
10925TIP3   OH254265   6.805   3.715  15.546  0.1134 -0.4024  0.2796
10925TIP3    H154266   6.783   3.626  15.519 -1.1365  0.1476 -0.5941
10925TIP3    H254267   6.720   3.759  15.558  0.6926  0.4954  1.3395
10926TIP3   OH254268   6.290   1.997   4.028 -0.3934 -0.1742 -0.3933
10926TIP3    H154269   6.340   1.932   3.980 -1.3475  0.0643 -1.7810
10926TIP3    H254270   6.206   2.002   3.982 -0.9418  0.8719  0.6508
10927TIP3   OH254271   5.078   6.688  14.060  0.5558 -0.1797 -0.3656
10927TIP3    H154272   5.064   6.625  13.990 -0.2769 -1.7338  1.1336
10927TIP3    H254273   5.119   6.638  14.131  1.8579  1.4535  0.1283
10928TIP3   OH254274   1.511   4.116  13.125 -0.3560  0.3621  0.2127
10928TIP3    H154275   1.604   4.137  13.138 -0.0379  0.1453 -1.4757
10928TIP3    H254276   1.467   4.156  13.199  1.1987 -0.4597  1.6535
10929TIP3   OH254277   1.661   0.379   1.950  0.0323 -0.4112 -0.3400
10929TIP3    H154278   1.620   0.431   1.882 -1.2395 -0.6851  0.1796
10929TIP3    H254279   1.635   0.421   2.032  0.3995 -0.8668  0.0217
10930TIP3   OH254280   0.810   1.204  16.763  0.6858 -0.4350 -0.4713
10930TIP3    H154281   0.813   1.200  16.859 -0.1047  0.6424 -0.3916
10930TIP3    H254282   0.857   1.284  16.741  0.4699 -0.4441 -0.9601
10931TIP3   OH254283   3.643   2.527  13.284 -0.0943  0.2543  0.5584
10931TIP3    H154284   3.661   2.444  13.328 -0.0707 -0.2741 -0.4252
10931TIP3    H254285   3.686   2.593  13.339  1.9255 -0.6229  0.1020
10932TIP3   OH254286   1.690   5.495   4.371  0.7700 -0.1979 -0.3347
10932TIP3    H154287   1.626   5.473   4.440 -0.7420 -0.5814 -1.7942
10932TIP3    H254288   1.722   5.581   4.395 -0.2961  0.0047  0.4679
10933TIP3   OH254289   3.795   1.116  11.767  0.4956 -0.0009 -0.2992
10933TIP3    H154290   3.830   1.183  11.826  0.6130  0.1230 -0.5128
10933TIP3    H254291   3.701   1.137  11.761  0.2885 -0.5736  0.5974
10934TIP3   OH254292   0.081   1.854   4.834  0.2401  0.2187  0.3730
10934TIP3    H154293   0.097   1.829   4.743 -1.3781  0.6305 -0.0665
10934TIP3    H254294   0.138   1.930   4.848 -1.3395  1.7887 -1.1721
10935TIP3   OH254295   5.529   3.023   2.052  0.0432 -0.2186 -0.9986
10935TIP3    H154296   5.493   2.985   2.133 -1.0492  1.9057 -0.4026
10935TIP3    H254297   5.489   2.972   1.982 -1.5367 -0.1137 -0.2404
10936TIP3   OH254298   4.731   5.895  13.406 -0.2451 -0.5207  0.2003
10936TIP3    H154299   4.745   5.918  13.314 -1.5073 -0.2969  0.0445
10936TIP3    H254300   4.816   5.910  13.448  0.3984 -0.7848 -0.9493
10937TIP3   OH254301   3.266   1.864   1.289  0.5000 -0.0600  0.0424
10937TIP3    H154302   3.230   1.776   1.287 -0.3648  0.2053  1.7843
10937TIP3    H254303   3.289   1.879   1.381  0.2836  1.6539 -0.1426
10938TIP3   OH254304   6.757   0.186  16.658  0.5876  0.1789 -0.1610
10938TIP3    H154305   6.761   0.114  16.594 -1.9523  0.3097 -0.5585
10938TIP3    H254306   6.683   0.240  16.629 -1.2040 -0.1823  3.2658
10939TIP3   OH254307   5.442   1.819   1.462  0.1978  0.1700 -0.4685
10939TIP3    H154308   5.510   1.882   1.485  1.5368 -1.6909  0.9217
10939TIP3    H254309   5.440   1.757   1.535 -1.5888 -0.9822 -1.4209
10940TIP3   OH254310   0.804   4.832   0.793 -0.1824  0.4860  0.0774
10940TIP3    H154311   0.769   4.912   0.831 -0.1933  0.0257  1.0835
10940TIP3    H254312   0.859   4.795   0.862  0.8924  0.3064 -0.8543
10941TIP3   OH254313   6.605   0.443   3.221  1.6483  0.0850  0.0566
10941TIP3    H154314   6.634   0.535   3.220  1.6484  0.1029  0.7646
10941TIP3    H254315   6.632   0.408   3.136  1.5560  0.7716 -0.2644
10942TIP3   OH254316   3.332   4.195  15.401 -0.0546  0.5701  0.3421
10942TIP3    H154317   3.365   4.281  15.429  0.5494  0.7772 -0.9421
10942TIP3    H254318   3.406   4.155  15.355 -1.1206  0.4197 -1.2997
10943TIP3   OH254319   3.659   5.461   6.741 -0.3491  0.1914 -0.7903
10943TIP3    H154320   3.618   5.390   6.693  1.6039 -1.7645  0.2464
10943TIP3    H254321   3.710   5.508   6.675  1.9195 -2.1701 -0.9078
10944TIP3   OH254322   5.975   0.192  16.429  0.4203  0.3012 -0.0867
10944TIP3    H154323   5.880   0.181  16.432  0.4369  0.1542 -0.1042
10944TIP3    H254324   6.006   0.160  16.514  0.4990 -0.0850 -0.2574
10945TIP3   OH254325   6.506   3.267   4.404 -0.1469 -0.0314  0.7657
10945TIP3    H154326   6.507   3.263   4.309 -0.7297  0.2628  0.7412
10945TIP3    H254327   6.569   3.200   4.432 -1.1437 -1.2344  0.2007
10946TIP3   OH254328   1.313   6.416  15.701 -0.0079  0.1355 -0.1844
10946TIP3    H154329   1.351   6.331  15.724 -0.7774 -0.0101  0.6009
10946TIP3    H254330   1.349   6.435  15.614 -0.1236 -1.1727 -0.5444
10947TIP3   OH254331   6.540   4.975  11.148  0.3849  0.4253 -1.3396
10947TIP3    H154332   6.513   4.983  11.056  0.4670 -0.6599 -1.4655
10947TIP3    H254333   6.464   5.005  11.198 -0.7828 -1.7239 -1.7120
10948TIP3   OH254334   6.076   1.409   1.583  0.1404  0.3040  0.1456
10948TIP3    H154335   6.093   1.318   1.609  0.4775 -0.2621 -1.8951
10948TIP3    H254336   5.991   1.429   1.622 -0.2141 -1.1024  0.1538
10949TIP3   OH254337   5.212   5.629   1.884  0.1934 -0.1561  0.3465
10949TIP3    H154338   5.248   5.547   1.850 -0.3127 -0.1863 -0.1453
10949TIP3    H254339   5.243   5.696   1.823 -1.6356 -0.3526 -0.9050
10950TIP3   OH254340   5.538   2.072   3.988 -0.1626  0.0450  0.0931
10950TIP3    H154341   5.502   2.109   4.068  1.3551  0.2960  0.6890
10950TIP3    H254342   5.565   1.983   4.013  0.1696  0.0687 -0.1723
10951TIP3   OH254343   1.667   5.316  10.939 -0.5107  0.2021 -0.6445
10951TIP3    H154344   1.598   5.340  10.877  0.3878  0.7458 -1.4658
10951TIP3    H254345   1.696   5.230  10.910  0.4576  0.7962 -1.5045
10952TIP3   OH254346   0.361   0.132   4.194  0.3428 -0.0522  0.1934
10952TIP3    H154347   0.365   0.178   4.111  1.5365  0.0500  0.2845
10952TIP3    H254348   0.347   0.200   4.260 -0.6610 -0.1398  0.0798
10953TIP3   OH254349   6.083   1.175   6.123 -0.3511  0.2416  0.1822
10953TIP3    H154350   6.009   1.228   6.093 -0.3902  0.9230  1.4354
10953TIP3    H254351   6.109   1.214   6.206  1.4674  0.0429 -0.2507
10954TIP3   OH254352   5.562   4.657   1.892 -0.1793 -0.7302  0.5955
10954TIP3    H154353   5.580   4.565   1.873 -1.3098 -0.2962 -3.4934
10954TIP3    H254354   5.639   4.704   1.861  0.9770 -0.2023  3.8442
10955TIP3   OH254355   2.571   6.604  14.642  0.0621  0.0606 -0.1172
10955TIP3    H154356   2.557   6.550  14.720 -2.7894  1.0430  0.1616
10955TIP3    H254357   2.529   6.687  14.662  1.4446  1.2367 -1.8037
10956TIP3   OH254358   4.233   2.053  15.245  0.2828  0.5943  0.2978
10956TIP3    H154359   4.208   2.001  15.322  3.1084 -2.2530 -0.4856
10956TIP3    H254360   4.206   2.000  15.170  1.3424  1.2719 -0.6058
10957TIP3   OH254361   6.165   3.497  10.946  0.2362 -0.0004  0.3031
10957TIP3    H154362   6.148   3.532  11.033 -3.2526 -2.2870  0.7255
10957TIP3    H254363   6.118   3.555  10.887 -1.8987 -1.3689  0.5718
10958TIP3   OH254364   1.007   0.559  11.349 -0.0337  0.1222 -0.4047
10958TIP3    H154365   0.934   0.539  11.290  0.2782 -0.4727 -0.5891
10958TIP3    H254366   0.971   0.544  11.437 -0.1873  0.0035 -0.4874
10959TIP3   OH254367   3.576   1.030   1.852  0.4164  0.5326 -0.1648
10959TIP3    H154368   3.559   1.116   1.891  0.5916  0.6683 -0.3895
10959TIP3    H254369   3.515   0.972   1.897 -0.8978  1.0716 -1.1793
10960TIP3   OH254370   3.828   4.096  12.518 -0.0376  0.0893 -0.0630
10960TIP3    H154371   3.852   4.027  12.456 -1.2004  0.1755 -0.6328
10960TIP3    H254372   3.849   4.178  12.472 -0.6322  0.1472 -0.2442
10961TIP3   OH254373   4.683   4.148   1.660  0.0394 -0.5017  0.2315
10961TIP3    H154374   4.718   4.230   1.696 -0.1338 -0.1090 -0.4623
10961TIP3    H254375   4.729   4.079   1.708 -1.0567 -0.0322  2.0600
10962TIP3   OH254376   1.961   0.837   4.422  0.6824  0.8321  0.3842
10962TIP3    H154377   2.048   0.853   4.385  0.7554 -0.8847 -0.3296
10962TIP3    H254378   1.977   0.782   4.499  0.1936 -1.2694 -0.9165
10963TIP3   OH254379   3.677   5.778  16.817  0.5911  0.2260 -0.0430
10963TIP3    H154380   3.758   5.774  16.868  2.1181 -1.0347 -2.3677
10963TIP3    H254381   3.641   5.690  16.821 -0.0115  0.4692 -0.0262
10964TIP3   OH254382   5.786   3.534   5.643 -0.3449  0.5663  0.4401
10964TIP3    H154383   5.696   3.552   5.670  0.1999  2.5313  1.1018
10964TIP3    H254384   5.793   3.574   5.556  0.0510  0.9654  0.6531
10965TIP3   OH254385   2.648   4.567  13.251  0.3849  0.1510 -0.1522
10965TIP3    H154386   2.596   4.510  13.194  1.0750  0.6127 -1.2824
10965TIP3    H254387   2.726   4.516  13.272 -0.1067 -0.2129  0.8199
10966TIP3   OH254388   2.685   0.930  12.103 -0.0403 -0.4584  0.4462
10966TIP3    H154389   2.638   0.901  12.181  0.5485 -0.6413  0.7405
10966TIP3    H254390   2.769   0.884  12.107 -0.5277 -1.5494 -1.0331
10967TIP3   OH254391   3.010   5.242  12.392 -0.4315 -0.2163  0.0845
10967TIP3    H154392   3.074   5.313  12.396 -0.3135 -0.2726 -0.7295
10967TIP3    H254393   2.974   5.246  12.304 -2.2072  0.3709  0.7755
10968TIP3   OH254394   5.179   5.473  14.369  0.1810 -0.6339 -0.5022
10968TIP3    H154395   5.244   5.480  14.299  0.5638  1.0881 -0.0216
10968TIP3    H254396   5.226   5.437  14.444  0.8863  1.5044  0.1430
10969TIP3   OH254397   3.142   6.802   1.790  0.2383  0.1170  0.2127
10969TIP3    H154398   3.206   6.843   1.847  1.2643  0.9258 -1.4393
10969TIP3    H254399   3.166   6.709   1.789  1.3006  0.3883 -0.2612
10970TIP3   OH254400   1.108   0.201  16.095 -0.7183 -0.1921 -0.2667
10970TIP3    H154401   1.101   0.107  16.076  1.3803 -0.9637  2.2180
10970TIP3    H254402   1.075   0.210  16.184  0.3190  1.2111  0.0032
10971TIP3   OH254403   4.599   0.303   2.662 -0.3746  0.4813 -0.4649
10971TIP3    H154404   4.589   0.209   2.647 -1.3106  0.2383  1.3663
10971TIP3    H254405   4.614   0.340   2.575  1.5316 -1.5052 -1.0702
10972TIP3   OH254406   1.476   5.594   1.233  0.3923  0.5034  0.0682
10972TIP3    H154407   1.477   5.554   1.147 -0.5931  0.2912  0.1417
10972TIP3    H254408   1.520   5.678   1.221 -1.1775  1.2198 -1.0427
10973TIP3   OH254409   4.190   3.143   2.961 -0.1651  0.0946 -0.0581
10973TIP3    H154410   4.144   3.225   2.942 -0.8319  0.0423  1.1902
10973TIP3    H254411   4.123   3.086   2.999  0.3944 -0.8694 -0.4853
10974TIP3   OH254412   0.934   2.057   4.839 -0.6016 -0.1068  0.2144
10974TIP3    H154413   0.891   1.982   4.799 -2.7104  0.7360  0.7910
10974TIP3    H254414   0.863   2.109   4.876  1.0062  0.8523  2.1180
10975TIP3   OH254415   1.284   6.627  13.324  0.0741 -0.2997 -0.6783
10975TIP3    H154416   1.243   6.594  13.404  1.4791 -0.5845 -0.0368
10975TIP3    H254417   1.214   6.629  13.259 -1.3725  0.9849  0.8372
10976TIP3   OH254418   5.694   4.441  12.554  0.4188  0.4114  0.3662
10976TIP3    H154419   5.779   4.484  12.563  0.7163 -0.0327 -0.2495
10976TIP3    H254420   5.713   4.360  12.508 -0.2397 -0.0405  0.8725
10977TIP3   OH254421   0.625   0.073   0.079 -0.4796 -0.0000  0.1508
10977TIP3    H154422   0.622   0.080  -0.016 -0.2453  0.2573  0.1619
10977TIP3    H254423   0.712   0.107   0.103 -0.6115  0.1158  0.4683
10978TIP3   OH254424   5.892   1.547   0.398 -0.1879  0.1773 -0.4649
10978TIP3    H154425   5.906   1.641   0.410 -0.5414  0.1815 -0.0513
10978TIP3    H254426   5.798   1.535   0.409 -0.4711  0.0585 -2.6180
10979TIP3   OH254427   1.501   5.888  16.453  0.7885 -0.5193  0.2993
10979TIP3    H154428   1.459   5.901  16.538  0.8435 -1.4348  0.4814
10979TIP3    H254429   1.589   5.924  16.464  0.6765 -0.3069  0.5116
10980TIP3   OH254430   4.200   2.825   0.047 -0.5169  0.7956  0.0025
10980TIP3    H154431   4.162   2.749   0.091 -1.1437  0.1615 -1.5770
10980TIP3    H254432   4.290   2.800   0.029 -1.0521 -0.1236 -1.6211
10981TIP3   OH254433   0.940   1.904  15.818 -0.0842  0.2485 -0.2007
10981TIP3    H154434   0.881   1.888  15.745 -0.6454 -0.8005  0.4545
10981TIP3    H254435   0.923   1.832  15.879  0.4836  1.0090  0.8914
10982TIP3   OH254436   6.797   4.857  12.158 -0.6429 -0.6812  0.5749
10982TIP3    H154437   6.792   4.786  12.222  0.2715 -0.5172  0.8396
10982TIP3    H254438   6.834   4.931  12.206  0.4323 -0.6762 -0.2300
10983TIP3   OH254439   4.761   1.614  13.603  0.2676  0.1917  0.1650
10983TIP3    H154440   4.824   1.547  13.580  0.3631  0.5870 -0.7767
10983TIP3    H254441   4.804   1.665  13.672  0.7145  0.0656 -0.0162
10984TIP3   OH254442   5.965   1.398   4.214  0.0940 -0.2241  0.3060
10984TIP3    H154443   6.030   1.452   4.168 -1.1053  0.2573 -0.8841
10984TIP3    H254444   5.947   1.326   4.153 -0.1920 -0.5684  0.7960
10985TIP3   OH254445   3.740   6.434  16.265 -0.1218 -0.1544 -0.0055
10985TIP3    H154446   3.715   6.394  16.182  0.5398  1.8587 -1.2475
10985TIP3    H254447   3.835   6.444  16.260  0.3692 -2.5563  2.2532
10986TIP3   OH254448   0.547   0.370  11.223 -0.6523 -0.0685 -0.5174
10986TIP3    H154449   0.497   0.348  11.145 -1.2791  0.1346 -0.1770
10986TIP3    H254450   0.482   0.378  11.292 -0.1351  0.0584 -0.0361
10987TIP3   OH254451   6.537   6.512  14.496  0.4823 -0.1781  0.5341
10987TIP3    H154452   6.497   6.594  14.524  0.2449  0.4075 -1.3544
10987TIP3    H254453   6.484   6.443  14.537 -0.5292  0.6052  0.5675
10988TIP3   OH254454   4.080   2.758  11.215  0.2809 -0.0497 -0.1732
10988TIP3    H154455   4.159   2.706  11.231  0.7059  0.1409 -1.4569
10988TIP3    H254456   4.112   2.848  11.209 -0.4194  0.3622  1.8096
10989TIP3   OH254457   6.668   5.606  16.546 -0.2445 -0.4364  0.4711
10989TIP3    H154458   6.669   5.516  16.577 -2.5316 -0.6996 -0.0346
10989TIP3    H254459   6.680   5.599  16.451 -0.4903 -0.2192  0.4225
10990TIP3   OH254460   2.814   1.732  13.110 -0.1415  0.1123  0.0034
10990TIP3    H154461   2.824   1.827  13.123 -0.0610  0.1863 -0.5780
10990TIP3    H254462   2.727   1.722  13.071 -1.1995 -0.2747  2.2849
10991TIP3   OH254463   5.845   6.056  14.531 -0.0634 -0.0109  0.2047
10991TIP3    H154464   5.908   6.001  14.577 -1.8893 -0.7063  2.0216
10991TIP3    H254465   5.800   5.997  14.471 -0.5875 -0.0715  0.6434
10992TIP3   OH254466   5.200   0.337  16.756  0.3130  0.5389 -0.0162
10992TIP3    H154467   5.279   0.340  16.702  1.5478  0.7862  1.7231
10992TIP3    H254468   5.156   0.420  16.739  0.2366  0.2839 -1.2068
10993TIP3   OH254469   0.408   3.979   4.910 -0.3635  0.2622 -0.2476
10993TIP3    H154470   0.423   3.997   5.003 -2.7267  0.7544  0.0990
10993TIP3    H254471   0.360   4.055   4.878  1.2154  0.5218 -2.1309
10994TIP3   OH254472   5.864   0.188   3.475  0.9929  0.1090  0.4654
10994TIP3    H154473   5.818   0.122   3.528 -0.1046  0.9948  0.6299
10994TIP3    H254474   5.882   0.259   3.536  0.1608  0.9274 -0.2168
10995TIP3   OH254475   5.009   6.647   5.081 -0.3973  0.2772  0.1256
10995TIP3    H154476   5.089   6.681   5.040 -0.4128 -0.4661 -0.5538
10995TIP3    H254477   5.041   6.577   5.139 -0.5348  0.0822 -0.0322
10996TIP3   OH254478   4.278   4.716   2.987  0.2208  0.4614  0.6522
10996TIP3    H154479   4.285   4.637   3.040 -1.0034  0.0259  0.1893
10996TIP3    H254480   4.344   4.705   2.919  1.7464  0.9864  1.9685
10997TIP3   OH254481   6.004   1.185  15.401  0.2580  0.4146 -0.3397
10997TIP3    H154482   5.940   1.252  15.421 -0.1663 -0.4768  1.4351
10997TIP3    H254483   6.042   1.161  15.485  0.0399 -1.9193 -0.8315
10998TIP3   OH254484   3.718   2.739  15.149 -0.4768  0.2599  0.2043
10998TIP3    H154485   3.637   2.722  15.101 -0.2167 -0.1348 -0.1003
10998TIP3    H254486   3.699   2.712  15.238 -0.8227  0.5826  0.2316
10999TIP3   OH254487   5.246   1.167   1.898 -0.1251  0.2663  0.3424
10999TIP3    H154488   5.151   1.154   1.896 -0.1227  0.2609  0.2425
10999TIP3    H254489   5.266   1.207   1.813 -0.0604  0.4259  0.4342
11000TIP3   OH254490   1.741   0.834  16.583  0.6296 -0.5402  0.1012
11000TIP3    H154491   1.796   0.857  16.509  0.6089  0.7093  0.4590
11000TIP3    H254492   1.699   0.751  16.557  2.3188 -1.2987 -0.3482
11001TIP3   OH254493   4.350   6.358   3.886  0.0791  0.0291  0.3326
11001TIP3    H154494   4.420   6.387   3.945 -0.1700 -0.3541  0.8194
11001TIP3    H254495   4.363   6.410   3.807  0.6092  0.3235  0.6062
11002TIP3   OH254496   5.966   1.066  14.917  0.6676  0.0772  0.1069
11002TIP3    H154497   6.006   0.981  14.901 -0.7906 -0.5468 -0.4205
11002TIP3    H254498   6.026   1.129  14.878  1.5999 -0.7380  0.2007
11003TIP3   OH254499   0.783   6.232  15.025 -0.0435 -0.3204  0.3938
11003TIP3    H154500   0.848   6.222  15.095  1.1663 -0.1905 -0.6732
11003TIP3    H254501   0.820   6.299  14.967 -0.6369 -0.9708 -0.7783
11004TIP3   OH254502   2.452   3.528  16.118  0.0631  0.2348 -0.3910
11004TIP3    H154503   2.401   3.448  16.107  0.3512  0.0678 -0.5217
11004TIP3    H254504   2.511   3.529  16.043  0.0762  0.5606 -0.3785
11005TIP3   OH254505   5.634   1.483   5.172 -0.2131  0.3284  0.1663
11005TIP3    H154506   5.552   1.517   5.207  0.7592  1.8386  1.0738
11005TIP3    H254507   5.674   1.558   5.128  1.3714  0.0194  1.0209
11006TIP3   OH254508   1.189   2.808  13.854 -0.1972  0.3436  0.1128
11006TIP3    H154509   1.232   2.879  13.806  1.9915  0.5117  2.1169
11006TIP3    H254510   1.210   2.825  13.946 -0.4911 -2.3345  0.7673
11007TIP3   OH254511   4.343   0.626  11.648 -0.0012 -0.0098  0.4133
11007TIP3    H154512   4.280   0.554  11.660  1.9608 -1.6633  1.4895
11007TIP3    H254513   4.409   0.611  11.716  1.4127  1.8247 -0.4732
11008TIP3   OH254514   0.406   5.092  11.983 -0.0175  0.1382  0.2511
11008TIP3    H154515   0.389   5.170  11.931  0.3191 -0.7705 -1.2962
11008TIP3    H254516   0.361   5.108  12.066 -0.7503  1.5571 -0.3856
11009TIP3   OH254517   1.233   3.978   5.117 -0.4202 -0.4110  0.3075
11009TIP3    H154518   1.314   3.934   5.091 -0.1994  1.7344 -3.2673
11009TIP3    H254519   1.164   3.916   5.095  0.0058 -0.0297 -2.4004
11010TIP3   OH254520   1.107   4.671   1.300 -0.4569  0.1263  0.6671
11010TIP3    H154521   1.092   4.593   1.246 -0.2563  0.9425 -0.6125
11010TIP3    H254522   1.189   4.652   1.347 -0.7653 -0.7007  0.8852
11011TIP3   OH254523   6.412   4.932   3.854 -0.1282 -0.4427  0.1069
11011TIP3    H154524   6.413   4.985   3.774  1.3122 -3.0981 -1.7829
11011TIP3    H254525   6.390   4.844   3.824  3.3217 -2.1900  2.1492
11012TIP3   OH254526   0.264   1.377  15.772 -0.3627 -0.2136 -0.2955
11012TIP3    H154527   0.193   1.328  15.811  1.2636 -0.6738  2.3239
11012TIP3    H254528   0.321   1.310  15.734 -0.2490 -0.0164 -0.4753
11013TIP3   OH254529   2.274   6.479   2.607  0.2514 -0.4417  0.4798
11013TIP3    H154530   2.249   6.413   2.671  0.9417 -0.4671  0.7392
11013TIP3    H254531   2.364   6.456   2.583  0.2917  0.0562  0.1282
11014TIP3   OH254532   6.728   0.637   3.818  0.2959  0.0060 -0.3910
11014TIP3    H154533   6.765   0.550   3.804  0.1959  0.0379 -0.8632
11014TIP3    H254534   6.702   0.667   3.731  0.9999  0.8094 -0.3340
11015TIP3   OH254535   1.648   1.867   4.541 -0.1762 -0.2278 -0.2973
11015TIP3    H154536   1.614   1.957   4.536  3.1247  1.1409 -0.7153
11015TIP3    H254537   1.640   1.834   4.451 -0.7101 -0.1039 -0.3030
11016TIP3   OH254538   2.739   3.376  11.269 -0.2857 -0.6678  0.0578
11016TIP3    H154539   2.702   3.297  11.309 -2.6832  2.0958  4.0464
11016TIP3    H254540   2.664   3.435  11.259  1.8295  2.4905  1.1511
11017TIP3   OH254541   5.067   4.213  11.919  0.4175 -0.3479 -0.0376
11017TIP3    H154542   5.046   4.148  11.852 -0.2248 -1.8856  1.5708
11017TIP3    H254543   5.064   4.297  11.873 -0.6012 -1.2875 -1.7866
11018TIP3   OH254544   3.771   6.510  15.064 -0.5033  0.2320 -0.0820
11018TIP3    H154545   3.800   6.579  15.004  0.2351 -0.9368 -1.1214
11018TIP3    H254546   3.753   6.436  15.007 -2.5254 -0.0617  0.8911
11019TIP3   OH254547   6.441   3.428  14.864  0.7218 -0.0162  0.1292
11019TIP3    H154548   6.437   3.492  14.936  2.1509 -1.1802  1.2884
11019TIP3    H254549   6.493   3.472  14.797 -2.0805  1.7958 -1.0492
11020TIP3   OH254550   5.616   4.969   7.037  0.0753  0.4415 -0.6553
11020TIP3    H154551   5.566   4.953   7.117 -2.0303  1.6567 -1.6169
11020TIP3    H254552   5.614   4.886   6.990  0.4583  0.0002  0.1100
11021TIP3   OH254553   6.458   4.815  14.293  0.3180 -0.0638  0.3186
11021TIP3    H154554   6.551   4.819  14.271  0.0050 -0.9035 -1.2591
11021TIP3    H254555   6.425   4.738  14.247 -1.6224  1.4316 -0.9711
11022TIP3   OH254556   4.983   0.395  14.861  0.5996  0.3796 -0.4181
11022TIP3    H154557   5.071   0.386  14.826  0.2490 -0.6609 -1.0956
11022TIP3    H254558   4.939   0.313  14.838 -0.7863  1.1874 -0.8153
11023TIP3   OH254559   1.558   5.473   0.663 -0.1074 -0.2759  0.0869
11023TIP3    H154560   1.632   5.433   0.617 -0.7175 -2.0189  0.5242
11023TIP3    H254561   1.570   5.448   0.755 -1.0658 -0.3703  0.2056
11024TIP3   OH254562   6.617   3.061  12.358 -0.0434 -0.3728  0.1694
11024TIP3    H154563   6.679   3.000  12.319  0.2361 -2.2882  3.2373
11024TIP3    H254564   6.654   3.080  12.444 -1.9178  1.3499  0.6648
11025TIP3   OH254565   6.107   1.401   2.895 -0.3080  0.7109  0.7361
11025TIP3    H154566   6.164   1.469   2.859 -1.7797  1.5148 -0.1524
11025TIP3    H254567   6.143   1.319   2.862 -0.3242  1.2823 -0.7801
11026TIP3   OH254568   5.021   1.148  16.063 -0.1451 -0.2313 -0.1531
11026TIP3    H154569   5.089   1.144  15.995 -1.3081  1.0905 -1.4744
11026TIP3    H254570   4.939   1.135  16.015 -1.0555  1.6001  0.8325
11027TIP3   OH254571   6.655   5.143   2.882  0.2735  0.0623  0.0207
11027TIP3    H154572   6.714   5.163   2.955 -0.0523  1.4622 -0.0682
11027TIP3    H254573   6.707   5.088   2.824  0.9291 -0.1091  0.7465
11028TIP3   OH254574   0.461   1.151   2.070 -0.7695  0.5715  0.2666
11028TIP3    H154575   0.485   1.241   2.092  0.6313  0.5432 -0.9676
11028TIP3    H254576   0.456   1.150   1.974 -0.9892 -0.6125  0.2764
11029TIP3   OH254577   5.867   0.657   6.209  0.9302  0.1948  0.2739
11029TIP3    H154578   5.804   0.713   6.163  0.4509  0.0066  0.6921
11029TIP3    H254579   5.819   0.576   6.226  1.1337  0.2200  1.0072
11030TIP3   OH254580   1.190   2.465   4.985  0.2408 -0.0891  0.2736
11030TIP3    H154581   1.177   2.399   4.916  0.1998 -0.8820  1.0158
11030TIP3    H254582   1.266   2.433   5.034  0.5939  0.7441  0.2864
11031TIP3   OH254583   4.236   0.848   0.117 -0.3607  0.3264  0.4952
11031TIP3    H154584   4.213   0.809   0.201 -0.2044 -1.1086 -0.0968
11031TIP3    H254585   4.247   0.941   0.136 -1.4177  0.2118  1.8334
11032TIP3   OH254586   1.839   5.956  11.475 -0.4443 -0.1109 -0.1795
11032TIP3    H154587   1.785   5.878  11.488 -1.2239  0.4617  0.0894
11032TIP3    H254588   1.816   6.013  11.548  0.7713  0.0189  0.1187
11033TIP3   OH254589   4.309   3.396   4.841 -0.4010  0.2887 -0.7435
11033TIP3    H154590   4.247   3.392   4.768  0.9742  1.0057 -2.0037
11033TIP3    H254591   4.374   3.328   4.822 -0.4235 -0.0369  0.2390
11034TIP3   OH254592   6.111   6.287  14.561  0.9978  0.8763  0.2709
11034TIP3    H154593   6.039   6.267  14.501  1.2777  0.7431 -0.0204
11034TIP3    H254594   6.088   6.241  14.641  0.9187  0.5709  0.0742
11035TIP3   OH254595   5.185   2.654  15.717  0.4166  0.0885  0.3306
11035TIP3    H154596   5.138   2.665  15.799  0.3200  1.5746  0.1160
11035TIP3    H254597   5.263   2.603  15.740  1.3392  2.0140  1.7504
11036TIP3   OH254598   1.045   4.461   5.558 -0.6328  0.2632  0.6252
11036TIP3    H154599   1.038   4.493   5.648  0.0507  2.6886 -0.0999
11036TIP3    H254600   1.067   4.539   5.507  0.4385 -1.3029 -1.4527
11037TIP3   OH254601   1.761   4.954   0.813  0.2087 -0.1133  0.3057
11037TIP3    H154602   1.803   4.941   0.728 -0.4524 -0.3914  0.0174
11037TIP3    H254603   1.791   5.041   0.841  0.0327  0.1928 -0.4421
11038TIP3   OH254604   2.149   2.994  13.694  0.1878  0.1917 -0.1092
11038TIP3    H154605   2.068   3.044  13.703  1.2430  1.7187  1.5355
11038TIP3    H254606   2.138   2.919  13.752  0.8550  1.7365  2.1528
11039TIP3   OH254607   1.639   5.173  14.192 -0.1319  0.1923 -0.4195
11039TIP3    H154608   1.648   5.266  14.170  1.8130 -0.0329 -0.7960
11039TIP3    H254609   1.728   5.139  14.187 -0.7437 -1.6093  0.1696
11040TIP3   OH254610   1.661   5.803   2.675  0.3931 -0.3503  0.6242
11040TIP3    H154611   1.575   5.802   2.717 -0.1856  1.7293 -0.3722
11040TIP3    H254612   1.682   5.710   2.660 -2.6459 -0.9115 -0.9800
11041TIP3   OH254613   4.554   4.231   5.090 -0.1521 -0.9226 -0.1400
11041TIP3    H154614   4.609   4.249   5.013 -0.4163 -0.8477 -0.3157
11041TIP3    H254615   4.515   4.146   5.071 -3.3245  0.7458 -1.9932
11042TIP3   OH254616   4.812   1.371  12.436  0.1334  0.0645 -0.7218
11042TIP3    H154617   4.768   1.446  12.396 -0.5174 -0.8558 -1.8130
11042TIP3    H254618   4.812   1.390  12.530  0.0048  1.4205 -0.9715
11043TIP3   OH254619   0.574   1.222   1.329 -0.7209 -0.1453 -0.2856
11043TIP3    H154620   0.526   1.287   1.379 -0.5235  0.3203 -0.6882
11043TIP3    H254621   0.646   1.195   1.387  1.4819  2.7620 -1.3997
11044TIP3   OH254622   1.658   5.754   4.509  0.0189  0.8983 -0.5039
11044TIP3    H154623   1.676   5.838   4.553 -1.3106  0.7524  0.3823
11044TIP3    H254624   1.602   5.707   4.571  1.1033 -0.8456 -0.7919
11045TIP3   OH254625   0.258   0.231   6.508 -0.0585  0.3112  0.2471
11045TIP3    H154626   0.204   0.308   6.488 -0.2159 -0.1100 -1.0431
11045TIP3    H254627   0.347   0.259   6.486 -0.0650  0.2622  0.1562
11046TIP3   OH254628   3.747   0.306  15.233 -0.2407  0.1164  0.6768
11046TIP3    H154629   3.835   0.320  15.197  0.1490 -3.1479  0.0939
11046TIP3    H254630   3.762   0.273  15.321 -0.8831 -0.5859  0.5305
11047TIP3   OH254631   1.806   1.572  11.379 -0.4053  0.4167 -0.5163
11047TIP3    H154632   1.752   1.631  11.432  1.1020  0.7720  0.6831
11047TIP3    H254633   1.895   1.584  11.412  0.4142 -0.2621 -2.3372
11048TIP3   OH254634   3.819   2.102  14.074  0.7292 -0.3595  0.4727
11048TIP3    H154635   3.842   2.181  14.025 -0.9065 -0.5873 -0.7301
11048TIP3    H254636   3.849   2.120  14.163  3.4362  0.2324 -0.4546
11049TIP3   OH254637   0.791   6.432   0.401  0.4326  0.2612 -0.1845
11049TIP3    H154638   0.843   6.489   0.344  1.3673 -1.3220 -1.0133
11049TIP3    H254639   0.703   6.469   0.399  1.5926  3.4981  1.8943
11050TIP3   OH254640   4.376   4.454   5.851  0.1841  0.1583  0.5848
11050TIP3    H154641   4.419   4.368   5.858 -0.1357  0.0473  1.2173
11050TIP3    H254642   4.396   4.483   5.762  0.5740 -0.4239  0.4750
11051TIP3   OH254643   4.523   1.923  15.289  0.3285 -0.2851 -1.0556
11051TIP3    H154644   4.515   1.839  15.244 -1.2179 -0.7886  0.0396
11051TIP3    H254645   4.489   1.987  15.226 -0.2003 -0.7375 -1.2425
11052TIP3   OH254646   2.005   1.481   5.450  0.1789 -0.1334 -0.2329
11052TIP3    H154647   2.035   1.570   5.428 -2.2196  0.5111 -1.2650
11052TIP3    H254648   1.972   1.489   5.539 -0.1792  0.0754 -0.3799
11053TIP3   OH254649   5.324   2.815  16.797  0.7395 -0.0922 -0.1954
11053TIP3    H154650   5.348   2.907  16.785 -0.9379  0.4491  0.4706
11053TIP3    H254651   5.272   2.794  16.719  0.1795 -0.1399  0.1868
11054TIP3   OH254652   0.249   2.575   4.902 -0.0903 -0.6466 -0.2686
11054TIP3    H154653   0.324   2.562   4.844  0.4396 -0.0313  0.2591
11054TIP3    H254654   0.287   2.589   4.989 -0.5882  2.4634 -0.4143
11055TIP3   OH254655   1.342   3.607  16.103  0.3798  0.2457  0.2117
11055TIP3    H154656   1.300   3.663  16.169 -4.1089 -1.5183 -0.7973
11055TIP3    H254657   1.345   3.662  16.024  0.2065  0.4949  0.3747
11056TIP3   OH254658   1.311   3.715  15.354 -0.2554 -0.3331 -0.1882
11056TIP3    H154659   1.272   3.750  15.435 -0.6200 -1.7367  0.2839
11056TIP3    H254660   1.240   3.665  15.314  0.0257  0.0776 -1.2201
11057TIP3   OH254661   4.723   0.652   1.312  0.3135  0.1104  0.1151
11057TIP3    H154662   4.671   0.731   1.330  1.5128  0.8140  0.5894
11057TIP3    H254663   4.659   0.580   1.317 -1.2247  1.1775 -2.3078
11058TIP3   OH254664   5.462   2.042   4.693  0.2856 -0.0844 -0.2343
11058TIP3    H154665   5.367   2.029   4.687  0.1491  1.0879 -0.7278
11058TIP3    H254666   5.475   2.096   4.771  0.5888 -0.5074  0.0176
11059TIP3   OH254667   6.652   5.054  16.402  0.3083  0.6206 -0.0267
11059TIP3    H154668   6.614   5.027  16.486 -0.6633  0.6731 -0.4321
11059TIP3    H254669   6.649   5.149  16.405 -1.8887  0.6372 -1.0286
11060TIP3   OH254670   6.135   1.619  11.410  0.1142 -0.1334  0.2812
11060TIP3    H154671   6.057   1.659  11.448  0.4236  0.4162  0.3455
11060TIP3    H254672   6.103   1.575  11.331 -0.2767  0.0163  0.3543
11061TIP3   OH254673   5.724   5.200  13.071  0.2527 -0.0536  0.3543
11061TIP3    H154674   5.802   5.207  13.016 -0.7076  0.2893 -1.0177
11061TIP3    H254675   5.666   5.141  13.024 -0.8971  0.8205  0.6194
11062TIP3   OH254676   0.942   3.116  11.952  0.0466  0.1957  0.4463
11062TIP3    H154677   0.895   3.197  11.969  1.4967  0.8143  1.8433
11062TIP3    H254678   1.024   3.144  11.912 -0.0485 -0.7233 -0.4298
11063TIP3   OH254679   0.427   3.731   1.965  0.0376 -0.1479 -0.1637
11063TIP3    H154680   0.373   3.676   1.908 -0.5333  0.9809 -0.7420
11063TIP3    H254681   0.410   3.699   2.053 -0.6955 -0.5476 -0.4471
11064TIP3   OH254682   2.791   1.318  10.794  0.3820 -0.5300 -0.2265
11064TIP3    H154683   2.717   1.262  10.818 -0.8016 -0.2566 -2.8876
11064TIP3    H254684   2.852   1.259  10.748  0.4448 -0.2039 -0.5713
11065TIP3   OH254685   2.920   5.385  14.664 -0.3085 -0.2337 -0.6282
11065TIP3    H154686   2.907   5.406  14.757 -0.5270  0.8428 -0.8846
11065TIP3    H254687   2.999   5.433  14.640 -0.7422  0.2001 -1.2091
11066TIP3   OH254688   3.394   3.824  13.576  0.4923  0.1165  0.2136
11066TIP3    H154689   3.448   3.878  13.519  0.0414  1.5275  1.0536
11066TIP3    H254690   3.304   3.842  13.548  0.3271 -0.0860  0.6023
11067TIP3   OH254691   3.672   6.514   0.194  0.1258 -0.3963 -0.5731
11067TIP3    H154692   3.610   6.553   0.255  0.8183 -0.6793  0.3282
11067TIP3    H254693   3.681   6.424   0.223 -0.6883 -0.9910 -2.0293
11068TIP3   OH254694   3.518   4.133   3.533 -0.1341  0.5678 -0.1396
11068TIP3    H154695   3.543   4.206   3.591 -0.8600 -0.1861  1.1818
11068TIP3    H254696   3.422   4.133   3.535 -0.1914 -1.7134  1.6811
11069TIP3   OH254697   1.348   3.064   4.651  0.3389 -0.3631  0.2645
11069TIP3    H154698   1.322   2.985   4.603 -2.4163  0.8052 -0.4170
11069TIP3    H254699   1.402   3.113   4.589 -0.6471 -0.2785 -0.5604
11070TIP3   OH254700   3.134   4.931  15.156  0.3863  0.1505  0.0775
11070TIP3    H154701   3.183   4.878  15.218 -1.9191 -0.0925  1.8159
11070TIP3    H254702   3.105   5.008  15.206 -0.4697  0.5848 -1.0269
11071TIP3   OH254703   3.640   2.503   1.133  0.1844  0.0966 -0.3171
11071TIP3    H154704   3.672   2.428   1.083 -0.7971 -0.3141 -0.3520
11071TIP3    H254705   3.719   2.549   1.161  0.8399 -1.4708  0.5200
11072TIP3   OH254706   5.757   4.247   3.520 -0.5133 -0.5410 -0.2975
11072TIP3    H154707   5.740   4.229   3.428  0.6124  1.0264 -0.8552
11072TIP3    H254708   5.722   4.334   3.535 -0.4645 -0.6793  0.6957
11073TIP3   OH254709   2.005   5.856  16.726 -0.1619  0.1521 -0.4173
11073TIP3    H154710   2.087   5.810  16.711 -0.3792 -0.0727 -0.9457
11073TIP3    H254711   2.024   5.948  16.707  0.5702  0.4989  1.7281
11074TIP3   OH254712   3.694   0.264  15.568  0.1633  0.2568 -0.0698
11074TIP3    H154713   3.621   0.230  15.517  0.7035 -0.2947 -0.4879
11074TIP3    H254714   3.654   0.330  15.625 -0.9843 -1.2755  0.9922
11075TIP3   OH254715   2.167   1.863   2.463 -0.1058 -0.9319 -0.1714
11075TIP3    H154716   2.087   1.832   2.506 -0.6204 -0.4084 -0.7427
11075TIP3    H254717   2.233   1.798   2.488 -1.1097 -2.4317 -1.1755
11076TIP3   OH254718   1.162   2.352   2.372  0.7375 -0.3937 -0.0185
11076TIP3    H154719   1.174   2.446   2.388 -1.1235  0.2713 -2.0202
11076TIP3    H254720   1.247   2.314   2.391  1.6451  1.7520  0.5626
11077TIP3   OH254721   3.743   4.760   1.105  0.3143  0.4196 -0.0643
11077TIP3    H154722   3.796   4.778   1.027 -1.7283 -1.2346 -1.9490
11077TIP3    H254723   3.766   4.670   1.128 -1.7978 -0.4520 -1.1210
11078TIP3   OH254724   0.545   4.568   6.114  0.4898 -0.6305 -0.1342
11078TIP3    H154725   0.585   4.492   6.072 -0.9036 -1.4882  0.0579
11078TIP3    H254726   0.617   4.609   6.162  1.4281 -1.3707 -0.8717
11079TIP3   OH254727   1.692   0.273  15.766  0.2031  0.3867 -0.3344
11079TIP3    H154728   1.691   0.300  15.858  1.1944  0.7218 -0.4073
11079TIP3    H254729   1.783   0.249  15.750  0.0223  0.2836 -1.2222
11080TIP3   OH254730   1.899   5.595  13.322  0.8374  0.1302  0.7302
11080TIP3    H154731   1.903   5.674  13.269 -1.1175 -0.7109 -0.8045
11080TIP3    H254732   1.990   5.569  13.335  1.4155  0.1592 -2.5943
11081TIP3   OH254733   6.007   3.313   3.811  0.0112  0.3459 -0.4063
11081TIP3    H154734   6.054   3.281   3.889  0.0929  2.2868  0.4141
11081TIP3    H254735   6.035   3.255   3.740  0.6664 -0.9007  0.8199
11082TIP3   OH254736   5.454   0.984   3.090 -0.4815 -0.2165 -0.3629
11082TIP3    H154737   5.389   1.047   3.120 -0.6582 -0.4048 -0.3546
11082TIP3    H254738   5.448   0.986   2.995 -0.3259 -0.0510 -0.3707
11083TIP3   OH254739   1.999   1.103   2.634 -0.3971  0.6380  0.2564
11083TIP3    H154740   2.039   1.023   2.598 -0.8356  0.5686 -0.0955
11083TIP3    H254741   1.954   1.073   2.713 -1.4072  0.3280 -0.4119
11084TIP3   OH254742   6.509   3.650   6.199 -0.1967  0.8922 -0.0848
11084TIP3    H154743   6.433   3.665   6.142 -0.2484  0.2280 -0.2085
11084TIP3    H254744   6.471   3.634   6.285 -0.3189 -0.8339 -0.4146
11085TIP3   OH254745   1.084   2.230   0.701 -0.4698 -0.0536 -0.1293
11085TIP3    H154746   1.148   2.181   0.650 -1.4654  0.1824 -1.6718
11085TIP3    H254747   1.111   2.321   0.693  0.6665 -0.1779  1.7079
11086TIP3   OH254748   4.697   2.029   1.148  0.5938 -0.8726 -0.1152
11086TIP3    H154749   4.661   2.054   1.063  1.3841 -0.3069 -0.2913
11086TIP3    H254750   4.623   1.991   1.195  0.2028 -1.4015 -1.1395
11087TIP3   OH254751   5.336   2.979  15.074  0.4324 -0.1978  0.0522
11087TIP3    H154752   5.334   2.948  15.165  1.2647  1.9101  0.8673
11087TIP3    H254753   5.430   2.987  15.054  0.2765 -1.3997 -1.3131
11088TIP3   OH254754   1.993   3.833   2.152  0.1836 -0.1394  0.0312
11088TIP3    H154755   1.946   3.771   2.095  0.2509 -1.5327  1.4281
11088TIP3    H254756   2.047   3.885   2.092 -0.6607 -0.7374 -1.2815
11089TIP3   OH254757   0.916   6.456  14.878  0.5381  0.5622  0.1080
11089TIP3    H154758   0.884   6.409  14.801 -1.0774  0.1628  0.9778
11089TIP3    H254759   1.011   6.460  14.866  0.4115 -0.3094 -1.4360
11090TIP3   OH254760   5.539   2.889  14.858 -0.6036  0.0823  0.7096
11090TIP3    H154761   5.632   2.885  14.839 -0.8008 -2.8003 -0.0797
11090TIP3    H254762   5.528   2.836  14.938 -1.6690 -0.5284  0.1889
11091TIP3   OH254763   6.382   3.481  11.146  0.3302 -0.4615 -0.1782
11091TIP3    H154764   6.477   3.486  11.132  0.3900 -0.0557  0.3169
11091TIP3    H254765   6.366   3.543  11.217 -0.2196 -0.9983  0.1758
11092TIP3   OH254766   0.583   2.146  14.619  0.5003 -0.1289  0.2445
11092TIP3    H154767   0.491   2.171  14.624  0.7413  0.4863  2.8181
11092TIP3    H254768   0.630   2.228  14.605  0.7594 -0.2974  0.1093
11093TIP3   OH254769   6.640   3.160  13.157  0.0656  0.3134  0.0520
11093TIP3    H154770   6.642   3.088  13.093  1.1709  0.5873 -0.2358
11093TIP3    H254771   6.730   3.166  13.190 -0.2107  1.0044  0.7108
11094TIP3   OH254772   3.071   0.084  12.487  0.3961 -0.4133  1.0565
11094TIP3    H154773   3.114   0.163  12.454 -0.7071 -0.8372 -1.6786
11094TIP3    H254774   3.132   0.013  12.469 -0.5092 -0.7472 -0.9705
11095TIP3   OH254775   0.158   5.261  14.497 -0.3248  0.2584 -0.0009
11095TIP3    H154776   0.088   5.198  14.485  0.0296 -0.7572  2.5708
11095TIP3    H254777   0.127   5.341  14.454 -2.3561 -0.6246 -0.2574
11096TIP3   OH254778   5.375   0.596  13.248  0.2322  0.5781  0.4329
11096TIP3    H154779   5.357   0.685  13.220  2.2966  1.9861  3.1508
11096TIP3    H254780   5.424   0.556  13.176  0.0959  1.9388 -0.4321
11097TIP3   OH254781   5.347   2.830   5.379 -0.2901  0.5073 -0.5705
11097TIP3    H154782   5.267   2.868   5.418  1.0773  3.2599 -0.1884
11097TIP3    H254783   5.394   2.905   5.343  0.6965 -1.3997 -3.6398
11098TIP3   OH254784   0.413   0.598  12.013 -0.4489 -0.1326 -0.2374
11098TIP3    H154785   0.325   0.565  11.994 -0.5560 -0.6401  1.0063
11098TIP3    H254786   0.419   0.680  11.964 -2.1384  0.6089  0.6936
11099TIP3   OH254787   6.478   2.068   4.246  0.4120 -0.0401  0.5534
11099TIP3    H154788   6.408   2.015   4.207  0.4940  0.4155 -0.2599
11099TIP3    H254789   6.482   2.145   4.189  1.2575  0.1601  0.8781
11100TIP3   OH254790   5.000   4.018   5.680  0.3754 -0.6510  0.2042
11100TIP3    H154791   4.946   4.086   5.720 -0.0580 -0.6951 -0.2944
11100TIP3    H254792   4.943   3.941   5.678  0.9801 -1.1336  1.0890
11101TIP3   OH254793   4.995   4.974  12.621 -0.0514  0.2469  0.0593
11101TIP3    H154794   4.951   4.933  12.546  1.2043  1.3740 -1.3750
11101TIP3    H254795   5.008   4.903  12.683 -0.6086 -0.8635 -1.0473
11102TIP3   OH254796   5.911   2.212  16.128  0.2728 -0.2343 -0.6338
11102TIP3    H154797   5.995   2.172  16.104  0.1364 -1.9368  1.4648
11102TIP3    H254798   5.847   2.143  16.114 -0.5248  0.4392 -0.3666
11103TIP3   OH254799   1.106   1.679  13.326  0.4239  0.4610  0.4369
11103TIP3    H154800   1.073   1.750  13.381  1.3873  0.9998  0.3570
11103TIP3    H254801   1.132   1.722  13.245  1.3139  0.0761  0.5045
11104TIP3   OH254802   4.546   6.237   3.315  0.3663 -0.1292  0.0691
11104TIP3    H154803   4.563   6.329   3.331  0.0091  0.2203 -1.3787
11104TIP3    H254804   4.539   6.198   3.402 -0.3898  1.3756  0.7160
11105TIP3   OH254805   2.473   5.248   2.210  0.3027  0.5739 -0.0848
11105TIP3    H154806   2.441   5.336   2.231 -1.0581 -0.1842  1.2471
11105TIP3    H254807   2.395   5.200   2.184  0.4934 -1.0171  2.0563
11106TIP3   OH254808   3.486   2.938  14.273 -0.0889  0.3372  0.2178
11106TIP3    H154809   3.503   2.956  14.181 -0.4961 -0.7375 -0.0913
11106TIP3    H254810   3.540   3.001  14.321  1.0060  0.1774 -0.7501
11107TIP3   OH254811   0.379   0.538  12.360  0.7625  0.1033  0.3744
11107TIP3    H154812   0.392   0.501  12.448  1.0342  0.3196  0.4261
11107TIP3    H254813   0.333   0.469  12.312  1.9479 -0.6249  0.2317
11108TIP3   OH254814   3.779   4.318  11.824 -0.3418 -0.5515 -0.1579
11108TIP3    H154815   3.740   4.405  11.812  0.4650 -0.0621  0.5501
11108TIP3    H254816   3.767   4.299  11.917 -0.1338 -1.0105 -0.2218
11109TIP3   OH254817   2.306   6.747  15.415 -0.3153 -0.0237  0.8203
11109TIP3    H154818   2.254   6.666  15.409 -0.9419  0.3732  0.7993
11109TIP3    H254819   2.394   6.720  15.390 -0.5389 -0.6821  0.7005
11110TIP3   OH254820   0.569   2.244  11.873  0.2244 -0.4525 -0.4572
11110TIP3    H154821   0.489   2.235  11.821  0.6463 -2.2764 -0.8785
11110TIP3    H254822   0.635   2.276  11.811  0.2393 -0.6556 -0.5466
11111TIP3   OH254823   4.661   0.666  14.777  0.1013 -0.4434 -0.9931
11111TIP3    H154824   4.578   0.710  14.759 -0.6606 -2.5740 -3.4991
11111TIP3    H254825   4.670   0.668  14.872 -1.5320  2.0170 -0.8113
11112TIP3   OH254826   3.250   4.725   3.709 -0.0186  0.1192  0.1010
11112TIP3    H154827   3.239   4.658   3.776 -0.1678 -0.0283 -0.0677
11112TIP3    H254828   3.330   4.700   3.663 -1.3047 -1.3050 -1.4859
11113TIP3   OH254829   3.802   1.880   5.560 -0.4522  0.2160  0.5533
11113TIP3    H154830   3.817   1.792   5.593 -0.5985 -1.0089 -2.3042
11113TIP3    H254831   3.718   1.906   5.598 -1.0926 -1.4773  0.3789
11114TIP3   OH254832   6.020   5.571   0.881  0.1684 -0.4140  0.4996
11114TIP3    H154833   6.068   5.491   0.857 -1.4326 -0.9252 -1.1993
11114TIP3    H254834   5.928   5.550   0.867 -0.4142  1.2927  1.4265
11115TIP3   OH254835   5.085   0.002  14.686 -0.3061 -0.2914  0.2877
11115TIP3    H154836   5.031  -0.074  14.660 -2.0158  0.8326  0.3967
11115TIP3    H254837   5.127   0.030  14.605 -0.2125 -0.9129  0.1124
11116TIP3   OH254838   3.265   1.684   0.751 -0.5302 -0.5350 -0.2396
11116TIP3    H154839   3.260   1.723   0.838 -0.4066 -0.8415 -0.0955
11116TIP3    H254840   3.321   1.608   0.762  1.2605  0.5965 -1.0045
11117TIP3   OH254841   0.851   4.370  16.734 -0.4393  0.7869 -0.3602
11117TIP3    H154842   0.768   4.412  16.711 -1.8925 -2.1206 -0.8471
11117TIP3    H254843   0.898   4.362  16.651 -1.2147 -0.6136 -0.6856
11118TIP3   OH254844   6.443   2.002   3.313 -0.1006 -0.5667 -0.0598
11118TIP3    H154845   6.470   2.066   3.248 -0.3128 -0.6868 -0.2674
11118TIP3    H254846   6.353   1.979   3.289 -0.9024  0.8036  1.3691
11119TIP3   OH254847   4.941   5.615  13.335  0.5431 -0.2225  0.3281
11119TIP3    H154848   4.949   5.636  13.242  1.1856  2.4294  0.9108
11119TIP3    H254849   4.847   5.611  13.350  0.3707 -2.9454 -0.8035
11120TIP3   OH254850   0.403   3.503   4.623  0.0451  0.2749 -0.3648
11120TIP3    H154851   0.334   3.474   4.563 -0.1360 -0.5405  0.2200
11120TIP3    H254852   0.435   3.584   4.585 -2.1014  1.3575  0.0195
11121TIP3   OH254853   6.671   2.476  14.847 -0.3098  0.1370 -0.3378
11121TIP3    H154854   6.721   2.557  14.863  0.3818 -0.0778 -1.2897
11121TIP3    H254855   6.600   2.479  14.911 -0.8411  1.9497 -0.9522
11122TIP3   OH254856   2.309   4.428  11.454  0.1791  0.0758 -0.4660
11122TIP3    H154857   2.323   4.347  11.502 -1.4343 -0.1414 -0.3189
11122TIP3    H254858   2.378   4.429  11.388  1.7657 -0.1527  1.1216
11123TIP3   OH254859   3.219   5.716   5.679  0.0335  0.0468  0.3230
11123TIP3    H154860   3.189   5.783   5.618  0.0472  0.0670  0.3385
11123TIP3    H254861   3.177   5.738   5.762 -0.1924 -0.1289  0.2583
11124TIP3   OH254862   0.236   0.663   3.693  0.1847 -0.1746  0.3929
11124TIP3    H154863   0.186   0.582   3.703  0.1804 -0.7485 -3.0757
11124TIP3    H254864   0.195   0.724   3.755 -1.7433 -1.9402  0.9805
11125TIP3   OH254865   1.929   1.407  16.690  0.0375 -0.2277 -0.2087
11125TIP3    H154866   1.856   1.375  16.743 -0.3872  0.0872 -0.5887
11125TIP3    H254867   1.982   1.459  16.750 -0.2435 -0.1672 -0.0119
11126TIP3   OH254868   1.871   0.391  11.872 -0.6730 -0.4693 -0.5768
11126TIP3    H154869   1.906   0.350  11.794  2.7267  2.4084 -0.7968
11126TIP3    H254870   1.932   0.366  11.942 -0.6282  1.1180  0.0019
11127TIP3   OH254871   0.101   4.195   3.695  0.1834 -0.2955  0.3144
11127TIP3    H154872   0.139   4.153   3.772  1.8847 -0.1577 -0.3981
11127TIP3    H254873   0.165   4.262   3.670 -1.1646  0.8613 -0.2086
11128TIP3   OH254874   2.826   3.335   3.268  0.5138 -0.8833 -0.7814
11128TIP3    H154875   2.905   3.373   3.230  0.4690  0.4646  0.3911
11128TIP3    H254876   2.848   3.317   3.359 -0.2775 -1.3033 -0.6546
11129TIP3   OH254877   1.585   2.432   2.077 -0.3636  0.0493 -0.7264
11129TIP3    H154878   1.492   2.421   2.061 -0.4869 -0.2831  0.1552
11129TIP3    H254879   1.589   2.483   2.158  0.1812 -1.8878  0.5564
11130TIP3   OH254880   1.931   0.721  11.533 -0.0609 -0.3332  0.0641
11130TIP3    H154881   2.022   0.696  11.542  0.3269  0.7539 -0.6058
11130TIP3    H254882   1.911   0.708  11.440 -0.8500 -1.3528  0.3550
11131TIP3   OH254883   5.271   0.490  12.953 -0.4836  0.3251 -0.0555
11131TIP3    H154884   5.287   0.580  12.923 -0.5873  0.2858 -0.2370
11131TIP3    H254885   5.222   0.500  13.034  1.9153  0.4825  1.4789
11132TIP3   OH254886   1.644   4.407  15.281  0.5952  0.1455  0.5786
11132TIP3    H154887   1.687   4.344  15.222 -0.6569 -0.7978  0.6428
11132TIP3    H254888   1.581   4.452  15.225 -1.1125 -1.2501  1.2724
11133TIP3   OH254889   1.844   5.811   0.168 -0.1910 -0.5057  0.0360
11133TIP3    H154890   1.889   5.847   0.244 -0.9750 -1.1795  0.8414
11133TIP3    H254891   1.805   5.887   0.125 -1.0953 -0.2642  1.2314
11134TIP3   OH254892   3.837   5.906  15.249  0.3422  0.2470  0.0946
11134TIP3    H154893   3.858   5.994  15.277  1.1307 -0.5789  2.2778
11134TIP3    H254894   3.746   5.893  15.276 -0.0083  0.5931 -0.8609
11135TIP3   OH254895   2.936   4.904  12.659 -0.3535 -0.5481 -0.1731
11135TIP3    H154896   3.018   4.927  12.702  0.8648 -0.9937 -2.1170
11135TIP3    H254897   2.908   4.984  12.615  1.0055 -1.2015 -2.4361
11136TIP3   OH254898   2.835   3.918  12.070 -1.0052  0.0328  0.2507
11136TIP3    H154899   2.808   3.989  12.128 -1.8434 -0.3882  0.3858
11136TIP3    H254900   2.811   3.838  12.116 -0.4237 -0.3376 -0.0749
11137TIP3   OH254901   6.243   0.551  14.765 -0.6313 -0.6615 -0.1182
11137TIP3    H154902   6.162   0.576  14.810 -1.9688 -2.8266 -1.1607
11137TIP3    H254903   6.220   0.546  14.673  1.6953  2.2261 -0.9964
11138TIP3   OH254904   1.797   2.356   1.924  0.0712 -0.1792 -0.0778
11138TIP3    H154905   1.805   2.261   1.930  0.3158 -0.0998  1.5236
11138TIP3    H254906   1.728   2.379   1.987  0.4398  0.7342  0.0215
11139TIP3   OH254907   5.248   3.775   4.246  0.4569  0.3669  0.1984
11139TIP3    H154908   5.234   3.842   4.180 -1.0034  0.1197  0.2374
11139TIP3    H254909   5.290   3.703   4.198 -1.1367 -0.0581 -0.6325
11140TIP3   OH254910   3.685   1.391  10.436 -0.1862  0.5110 -0.2170
11140TIP3    H154911   3.765   1.342  10.454  0.5146  1.2532 -1.1968
11140TIP3    H254912   3.637   1.391  10.519  0.8756  0.1314  0.4108
11141TIP3   OH254913   4.590   3.200   0.061  0.3344  0.1942 -0.7515
11141TIP3    H154914   4.536   3.177  -0.014 -0.1610  1.1797 -0.7246
11141TIP3    H254915   4.679   3.208   0.026  0.0172  1.2188 -1.3708
11142TIP3   OH254916   4.646   1.493  14.945 -0.3261  0.6159  0.0065
11142TIP3    H154917   4.579   1.511  15.010 -0.0867  0.2559  0.3569
11142TIP3    H254918   4.604   1.514  14.861 -0.5966  1.1793  0.2808
11143TIP3   OH254919   5.645   4.018  11.863 -0.0461 -0.7651  0.1592
11143TIP3    H154920   5.636   3.956  11.790 -1.6930 -0.8087  0.3686
11143TIP3    H254921   5.739   4.022  11.879  0.7981  1.4916 -3.8876
11144TIP3   OH254922   4.554   4.526  16.006 -0.2955  0.1967 -0.6421
11144TIP3    H154923   4.519   4.441  15.980  1.1733 -0.1635 -1.6232
11144TIP3    H254924   4.572   4.517  16.100 -2.5149  0.3391 -0.1470
11145TIP3   OH254925   4.038   0.545  12.732 -0.2432 -0.4435 -0.8447
11145TIP3    H154926   4.005   0.461  12.762 -0.9902 -0.2500 -1.0851
11145TIP3    H254927   4.018   0.606  12.804  0.8171 -0.5697 -0.4253
11146TIP3   OH254928   2.611   6.326   1.212  0.6056  0.0011 -0.0211
11146TIP3    H154929   2.687   6.268   1.199 -0.2993 -0.8759 -1.7185
11146TIP3    H254930   2.559   6.314   1.133 -0.8922  1.2379  0.7453
11147TIP3   OH254931   0.481   2.668   4.036 -0.2249 -0.4343 -0.3000
11147TIP3    H154932   0.463   2.605   4.106  0.8096 -1.4960 -0.9484
11147TIP3    H254933   0.408   2.659   3.976  0.7613 -2.3893 -1.3068
11148TIP3   OH254934   2.497   2.928  14.493  0.2302  0.1156 -0.4951
11148TIP3    H154935   2.550   3.006  14.479 -1.9283  1.4752 -1.4708
11148TIP3    H254936   2.413   2.961  14.525  0.0274 -1.9942  1.4381
11149TIP3   OH254937   3.213   5.456   1.525  0.5525  0.2791 -0.0567
11149TIP3    H154938   3.129   5.417   1.549  0.9553 -0.6363 -0.1111
11149TIP3    H254939   3.279   5.391   1.552  1.0797 -0.5182 -2.9791
11150TIP3   OH254940   2.884   4.147   5.891 -0.0662 -0.1467  0.1154
11150TIP3    H154941   2.927   4.111   5.813 -1.1941 -0.9337 -0.1707
11150TIP3    H254942   2.887   4.242   5.878  2.5207 -0.0907  0.6445
11151TIP3   OH254943   5.672   4.892  16.194 -0.7725 -0.9514 -0.3244
11151TIP3    H154944   5.766   4.902  16.178 -0.7692  1.3916  0.7098
11151TIP3    H254945   5.664   4.811  16.244  0.4783 -2.0617 -1.8503
11152TIP3   OH254946   3.377   6.307  12.208 -0.2999 -0.2846 -0.5441
11152TIP3    H154947   3.338   6.221  12.193 -0.4750 -0.2044 -0.5558
11152TIP3    H254948   3.431   6.323  12.131 -0.7670 -0.1077 -0.8363
11153TIP3   OH254949   3.714   5.337   2.223 -0.2545 -0.5133  0.2541
11153TIP3    H154950   3.687   5.409   2.279  0.5019  0.6775 -0.8579
11153TIP3    H254951   3.657   5.343   2.146  0.5666 -0.3520 -0.3664
11154TIP3   OH254952   5.853   0.458   5.317  0.0412 -0.0844 -0.4201
11154TIP3    H154953   5.826   0.535   5.268  0.1874  0.8726  0.9492
11154TIP3    H254954   5.828   0.477   5.408  1.8147 -0.8084  0.2610
11155TIP3   OH254955   6.003   0.108   4.347  0.4128  0.3891 -0.5937
11155TIP3    H154956   5.996   0.117   4.251  0.5822 -0.0682 -0.6499
11155TIP3    H254957   6.078   0.051   4.360  1.5206  1.8967 -0.1142
11156TIP3   OH254958   2.518   2.792  13.829  0.1362 -0.1975  0.1719
11156TIP3    H154959   2.583   2.825  13.891  0.5757 -1.2559  0.3067
11156TIP3    H254960   2.471   2.724  13.878  1.4772 -2.1088 -1.0553
11157TIP3   OH254961   5.558   3.162   1.257  0.2650  0.1967  0.2991
11157TIP3    H154962   5.549   3.162   1.353  0.3968 -0.6337  0.3132
11157TIP3    H254963   5.499   3.093   1.227  0.3783  0.3190 -0.2112
11158TIP3   OH254964   1.672   2.456  10.421  0.1841 -0.1027  0.5812
11158TIP3    H154965   1.737   2.492  10.361 -2.0748  0.3678 -1.7623
11158TIP3    H254966   1.695   2.493  10.507  2.5613  0.5394 -0.2580
11159TIP3   OH254967   2.056   0.560  10.685  0.2793 -0.7970 -0.0846
11159TIP3    H154968   2.056   0.488  10.621  2.2750 -0.7280 -0.2445
11159TIP3    H254969   2.147   0.565  10.715  0.0668  1.2731  0.3736
11160TIP3   OH254970   6.177   5.753  12.339 -0.4822 -0.0817  0.2005
11160TIP3    H154971   6.207   5.756  12.249  0.1714 -2.3802  0.2833
11160TIP3    H254972   6.209   5.835  12.378  2.6583 -0.7559 -0.6654
11161TIP3   OH254973   1.848   6.580  12.333  0.3065  0.3626 -0.4275
11161TIP3    H154974   1.938   6.547  12.332 -0.1936 -1.1285 -2.3996
11161TIP3    H254975   1.803   6.527  12.399 -0.1019 -2.0547 -2.4804
11162TIP3   OH254976   4.476   6.410  16.220  0.0407  0.1821 -0.5204
11162TIP3    H154977   4.409   6.342  16.215 -0.2417 -0.0342  3.1988
11162TIP3    H254978   4.452   6.461  16.298  3.3213  1.0233  0.0885
11163TIP3   OH254979   1.873   2.217  12.845 -0.0795  0.1323 -0.2170
11163TIP3    H154980   1.877   2.144  12.906 -0.6988 -0.6439 -1.0798
11163TIP3    H254981   1.785   2.254  12.855 -1.2923 -1.8367 -2.6431
11164TIP3   OH254982   4.588   5.558   0.812  0.3036 -0.7239  0.0619
11164TIP3    H154983   4.590   5.650   0.787  0.7242 -0.4247  1.1611
11164TIP3    H254984   4.503   5.526   0.782  0.7957 -0.4117 -1.7728
11165TIP3   OH254985   5.827   6.709  15.648 -0.3548  0.3728  0.2439
11165TIP3    H154986   5.820   6.804  15.648  2.0931  0.6211 -0.4140
11165TIP3    H254987   5.892   6.689  15.716 -1.4736 -0.9170  0.9876
11166TIP3   OH254988   2.124   6.040   1.599  0.0829 -0.2880  0.2408
11166TIP3    H154989   2.079   6.056   1.517 -0.1562  0.4748  0.5169
11166TIP3    H254990   2.055   6.014   1.660  0.2106 -0.4977  0.2995
11167TIP3   OH254991   6.737   0.663   2.595  0.2993  0.0845  0.0403
11167TIP3    H154992   6.830   0.681   2.608 -0.0052  1.5276  0.4301
11167TIP3    H254993   6.700   0.747   2.568 -0.9912 -0.3269  0.4472
11168TIP3   OH254994   2.855   2.223  13.567  0.1078 -0.3933 -0.2940
11168TIP3    H154995   2.913   2.148  13.562  0.4489 -0.2057  0.6613
11168TIP3    H254996   2.768   2.187  13.549  0.1612 -1.1669  0.8723
11169TIP3   OH254997   4.277   2.519   2.330  0.5966  0.4627  0.1629
11169TIP3    H154998   4.208   2.510   2.395  1.7358 -2.4099  1.1567
11169TIP3    H254999   4.357   2.530   2.382  1.2226  0.8109 -0.8528
11170TIP3   OH255000   5.748   3.450   1.912 -0.3613 -0.7106  0.2971
11170TIP3    H155001   5.749   3.418   1.822  1.0446  0.5034 -0.1631
11170TIP3    H255002   5.664   3.495   1.921 -0.3971 -0.6028 -0.5169
11171TIP3   OH255003   0.918   2.448   5.008 -0.1927 -0.1931  0.1155
11171TIP3    H155004   0.882   2.496   4.933  0.4780  0.7584  0.3757
11171TIP3    H255005   1.013   2.451   4.995 -0.1222 -1.1322  0.3507
11172TIP3   OH255006   2.205   5.754  11.221 -0.8191  0.4212 -0.5378
11172TIP3    H155007   2.155   5.724  11.297  0.5776  0.2431  0.3460
11172TIP3    H255008   2.140   5.758  11.150 -2.3067  1.2360  0.7950
11173TIP3   OH255009   5.142   3.927  12.983  0.1988  0.8607  0.3854
11173TIP3    H155010   5.071   3.863  12.974  0.8796 -0.3959  2.8909
11173TIP3    H255011   5.098   4.008  13.007 -0.6129  1.1811 -1.9423
11174TIP3   OH255012   5.244   5.495   3.060  0.0503  0.0906 -0.5172
11174TIP3    H155013   5.166   5.513   3.111 -0.4758  0.2088 -1.3489
11174TIP3    H255014   5.304   5.566   3.082 -0.2901  0.3163 -0.3125
11175TIP3   OH255015   5.544   2.834   5.097 -0.0647 -0.1397  1.0154
11175TIP3    H155016   5.529   2.917   5.141 -0.4362 -0.1820  0.9686
11175TIP3    H255017   5.457   2.795   5.089 -0.1232  0.2892 -0.6025
11176TIP3   OH255018   2.508   6.552  13.927  0.0345 -0.4861 -0.2825
11176TIP3    H155019   2.555   6.537  13.845 -0.7823  0.5337 -0.9579
11176TIP3    H255020   2.473   6.640  13.919 -1.1995 -0.8720  0.6035
11177TIP3   OH255021   2.912   1.246   2.942  0.3263  0.2159  0.1884
11177TIP3    H155022   2.876   1.329   2.911  0.8352  0.4699  0.2737
11177TIP3    H255023   2.984   1.271   2.999 -1.2049 -0.1924  2.4560
11178TIP3   OH255024   5.574   2.447   4.783  0.4483 -0.7367  0.6506
11178TIP3    H155025   5.508   2.441   4.714  1.0055  0.3711 -0.0170
11178TIP3    H255026   5.549   2.525   4.833  1.2602 -0.2736  0.3585
11179TIP3   OH255027   5.451   0.562  14.201 -0.0993 -0.4213  0.1680
11179TIP3    H155028   5.542   0.590  14.201  0.0325 -0.6953  2.1706
11179TIP3    H255029   5.415   0.594  14.284 -1.8727 -0.2271 -0.6195
11180TIP3   OH255030   0.425   0.639  16.117 -0.0950 -0.1084 -0.2181
11180TIP3    H155031   0.433   0.563  16.174 -2.4272 -0.0497  0.2716
11180TIP3    H255032   0.404   0.712  16.175 -0.4761  0.3661 -0.9283
11181TIP3   OH255033   0.433   4.354  16.418 -0.0220 -0.2460 -0.0143
11181TIP3    H155034   0.426   4.443  16.384  0.5314  0.4087  1.4717
11181TIP3    H255035   0.351   4.340  16.466 -0.1554 -0.5819 -0.3358
11182TIP3   OH255036   4.493   6.723   4.906 -0.0157  0.0164 -0.1123
11182TIP3    H155037   4.454   6.810   4.903  1.2501  0.5993 -0.4050
11182TIP3    H255038   4.507   6.706   5.000 -2.0259 -0.7303  0.1056
11183TIP3   OH255039   3.203   6.418  14.040 -0.1458  0.1741  0.3112
11183TIP3    H155040   3.206   6.495  14.096  0.2239  0.8134 -0.5514
11183TIP3    H255041   3.141   6.359  14.082  0.3551  0.4921  1.5430
11184TIP3   OH255042   3.524   4.206  16.998 -0.3807 -0.0511  0.6720
11184TIP3    H155043   3.557   4.164  17.077 -1.2056  0.3117  1.2165
11184TIP3    H255044   3.589   4.274  16.978  0.3724 -0.8233  0.4239
11185TIP3   OH255045   4.271   6.649  12.720 -0.0501 -0.2828  0.2486
11185TIP3    H155046   4.216   6.677  12.647  1.4954 -0.0293 -0.8686
11185TIP3    H255047   4.212   6.649  12.796 -0.8642  3.0248 -0.2428
11186TIP3   OH255048   4.464   0.081   3.572  0.1779 -0.2050 -0.1636
11186TIP3    H155049   4.436   0.088   3.481  0.8646  1.8213 -0.2780
11186TIP3    H255050   4.383   0.074   3.622 -0.1834 -2.1188 -0.9239
11187TIP3   OH255051   3.898   2.330  13.296 -0.6564 -0.1847 -0.0121
11187TIP3    H155052   3.903   2.307  13.389 -0.5463  1.4519  0.4188
11187TIP3    H255053   3.955   2.267  13.253 -0.0863 -0.4867  1.1284
11188TIP3   OH255054   4.175   5.556  16.882 -0.1703 -0.1358  0.5387
11188TIP3    H155055   4.180   5.471  16.838 -1.4357  1.2693 -2.6489
11188TIP3    H255056   4.265   5.589  16.880 -0.2951  0.2659 -2.0692
11189TIP3   OH255057   1.318   1.191   1.087  0.3660 -0.8505 -0.2679
11189TIP3    H155058   1.300   1.283   1.106 -1.1476 -0.9830 -0.9328
11189TIP3    H255059   1.407   1.190   1.054  0.6148  0.2886  0.3164
11190TIP3   OH255060   6.427   2.582   5.422  0.0264  0.5867 -0.3383
11190TIP3    H155061   6.459   2.551   5.337  0.4296 -0.2243  0.0967
11190TIP3    H255062   6.486   2.543   5.486 -1.5433 -0.5735  0.4715
11191TIP3   OH255063   4.694   1.185   0.286  0.0700 -0.0380  0.8827
11191TIP3    H155064   4.779   1.201   0.246  0.1560  0.9113  1.4060
11191TIP3    H255065   4.710   1.192   0.380 -0.6565  0.5740  0.9715
11192TIP3   OH255066   4.066   5.208  12.642  0.2211  0.3237  0.0623
11192TIP3    H155067   4.030   5.161  12.717  2.9841 -0.4828  1.0193
11192TIP3    H255068   4.065   5.144  12.571 -1.8144  0.8945 -0.4995
11193TIP3   OH255069   4.469   6.049   6.133 -0.1217 -0.2299  0.5889
11193TIP3    H155070   4.509   6.085   6.213  0.2053  1.0743 -0.1338
11193TIP3    H255071   4.381   6.023   6.160 -0.7990  2.1578  0.9477
11194TIP3   OH255072   1.525   3.730   2.645 -0.4010  0.0553  0.0523
11194TIP3    H155073   1.533   3.760   2.555  2.4915 -1.7685 -0.4254
11194TIP3    H255074   1.597   3.774   2.691 -0.5712 -0.6098  0.9770
11195TIP3   OH255075   4.960   2.571  15.250 -0.3305 -0.1429  0.3322
11195TIP3    H155076   4.891   2.615  15.300 -0.2084 -1.5163  1.8019
11195TIP3    H255077   5.037   2.576  15.307  0.2263 -0.4744 -0.3775
11196TIP3   OH255078   3.931   0.070   3.151  0.0540  0.2624 -0.2474
11196TIP3    H155079   3.874   0.002   3.116 -0.5856  0.5717  0.1682
11196TIP3    H255080   3.989   0.093   3.079 -1.6449  1.3521 -1.3384
11197TIP3   OH255081   0.225   1.525   3.944 -0.2856 -0.2274 -0.3645
11197TIP3    H155082   0.306   1.475   3.942 -0.0164  0.2219 -0.9112
11197TIP3    H255083   0.170   1.486   3.877 -0.5372 -0.5521  0.0276
11198TIP3   OH255084   2.135   0.293  13.394 -0.0282 -0.1112 -0.1961
11198TIP3    H155085   2.173   0.242  13.466  1.9116  0.0941 -1.0237
11198TIP3    H255086   2.082   0.360  13.438  1.8010  0.5644  1.1413
11199TIP3   OH255087   3.025   5.050   5.613  0.2581 -0.3634 -0.6604
11199TIP3    H155088   3.020   4.990   5.687 -0.1450 -1.2405 -1.3809
11199TIP3    H255089   3.117   5.045   5.584  0.1459 -0.9038 -0.9313
11200TIP3   OH255090   3.184   4.223   4.316 -0.0761  0.6879  0.0817
11200TIP3    H155091   3.201   4.269   4.398 -1.0590  0.6816  0.3043
11200TIP3    H255092   3.120   4.155   4.339  2.6087 -2.0426  0.1650
11201TIP3   OH255093   6.174   4.542   3.500  0.2840 -0.3435 -0.0606
11201TIP3    H155094   6.187   4.628   3.460 -0.9829  0.2454  0.7475
11201TIP3    H255095   6.177   4.481   3.426 -0.1289  0.5285 -0.8216
11202TIP3   OH255096   5.150   6.136   4.980  0.0582  0.4206 -0.4535
11202TIP3    H155097   5.159   6.114   4.887  0.0189  2.5421 -1.0101
11202TIP3    H255098   5.072   6.192   4.984  0.4570  0.9272  0.7421
11203TIP3   OH255099   3.595   0.428  15.758 -0.3159  0.1149 -0.2954
11203TIP3    H155100   3.633   0.465  15.838 -0.0337 -1.0081  0.1072
11203TIP3    H255101   3.508   0.400  15.785 -0.8754  1.2804 -0.8293
11204TIP3   OH255102   4.373   6.215   1.071  0.8200 -0.2120 -0.2178
11204TIP3    H155103   4.445   6.164   1.107  1.0832  0.1699 -0.1947
11204TIP3    H255104   4.323   6.244   1.147  1.3952  0.6233 -0.1346
11205TIP3   OH255105   0.086   5.116   0.949  0.3515  0.1709  0.4503
11205TIP3    H155106   0.079   5.202   0.908  1.1688 -0.9084 -2.1145
11205TIP3    H255107   0.012   5.112   1.010 -0.5677  2.0909 -0.4632
11206TIP3   OH255108   6.280   2.287  17.145  0.0186 -0.3292 -0.3037
11206TIP3    H155109   6.274   2.208  17.092 -0.3050  0.4956 -1.5324
11206TIP3    H255110   6.250   2.357  17.088  1.6526  0.9185  0.2856
11207TIP3   OH255111   3.313   0.153   3.576  0.0265  0.1639  0.3006
11207TIP3    H155112   3.328   0.239   3.536  4.3179 -0.5325 -0.0377
11207TIP3    H255113   3.335   0.166   3.668 -0.1178 -0.4105  0.4171
11208TIP3   OH255114   6.797   5.911   5.587 -0.1943  0.6462  0.4608
11208TIP3    H155115   6.753   5.857   5.522  1.4218  0.7192 -0.7468
11208TIP3    H255116   6.885   5.873   5.594 -0.1072  1.0703  2.1015
11209TIP3   OH255117   2.079   6.555  13.940 -0.1638  0.0179 -0.1225
11209TIP3    H155118   2.002   6.609  13.918  0.4097  0.9858  0.1588
11209TIP3    H255119   2.120   6.536  13.856 -0.2945  0.1523 -0.2191
11210TIP3   OH255120   0.760   1.317   1.160  0.1841  0.2634 -0.1182
11210TIP3    H155121   0.829   1.257   1.187 -0.0719  0.0630  0.0854
11210TIP3    H255122   0.682   1.287   1.206  0.8053  3.0894  3.2160
11211TIP3   OH255123   6.753   4.880   2.909  0.2505 -0.1509 -0.4544
11211TIP3    H155124   6.664   4.870   2.876  0.2487 -1.0887 -0.2041
11211TIP3    H255125   6.744   4.874   3.005  0.4425  0.9590 -0.3591
11212TIP3   OH255126   1.822   5.572  14.311  0.5209  0.4586 -0.3952
11212TIP3    H155127   1.846   5.654  14.267 -0.8768  0.0401 -2.0087
11212TIP3    H255128   1.745   5.596  14.364 -0.6247 -0.0228 -1.7839
11213TIP3   OH255129   2.579   6.315   4.226 -0.4087  0.1572 -0.0937
11213TIP3    H155130   2.674   6.317   4.237 -0.2789 -1.6938 -0.5440
11213TIP3    H255131   2.559   6.391   4.170  0.6935  0.9549  0.5662
11214TIP3   OH255132   0.811   5.365   3.309 -0.4003 -0.2735  0.7397
11214TIP3    H155133   0.833   5.453   3.280 -1.7024  0.3061  1.4616
11214TIP3    H255134   0.879   5.342   3.372  0.3679 -0.1085 -0.0043
11215TIP3   OH255135   0.644   2.745  13.326  0.0238 -0.4653 -0.2428
11215TIP3    H155136   0.709   2.677  13.343  0.8018  0.5933  1.2870
11215TIP3    H255137   0.652   2.805  13.400 -1.5466  0.5994 -0.8771
11216TIP3   OH255138   0.111   4.961  15.448  0.5901  0.0039 -0.1162
11216TIP3    H155139   0.132   4.975  15.541  1.1024 -0.6475 -0.1224
11216TIP3    H255140   0.050   5.031  15.427 -1.8537 -1.4930  1.4820
11217TIP3   OH255141   1.652   5.697   4.033  0.8793 -0.2641  0.3775
11217TIP3    H155142   1.693   5.783   4.022 -0.7205  0.6649  1.2996
11217TIP3    H255143   1.566   5.716   4.070 -0.4268 -2.1084 -1.4525
11218TIP3   OH255144   6.711   4.170   2.496 -0.3242 -0.2950 -0.1500
11218TIP3    H155145   6.711   4.225   2.418  1.8839  0.7067  0.4903
11218TIP3    H255146   6.801   4.141   2.506 -0.1134  0.9929  2.9381
11219TIP3   OH255147   0.711   2.001  11.392  0.6958 -0.8419  0.5541
11219TIP3    H155148   0.639   1.958  11.346  0.2773  0.4076 -0.0184
11219TIP3    H255149   0.765   1.929  11.425  0.5338 -1.7979 -1.1481
11220TIP3   OH255150   6.782   6.098  16.341 -0.0356  0.1719  0.0447
11220TIP3    H155151   6.850   6.031  16.344 -0.5067 -0.4219 -1.6012
11220TIP3    H255152   6.818   6.170  16.392  1.1406 -0.7257  0.5540
11221TIP3   OH255153   5.291   4.652  11.873 -0.3014 -0.1650  0.4602
11221TIP3    H155154   5.289   4.747  11.881 -0.5349 -0.1514  0.2545
11221TIP3    H255155   5.232   4.621  11.942  1.4611 -0.2621  1.9955
11222TIP3   OH255156   4.252   5.761  16.188  0.3914 -0.5985  0.1025
11222TIP3    H155157   4.257   5.691  16.124  1.2751 -0.5128  0.0680
11222TIP3    H255158   4.294   5.836  16.146  2.5998 -1.0348  1.3928
11223TIP3   OH255159   2.727   0.302   1.617 -0.2172 -0.0120  0.3324
11223TIP3    H155160   2.648   0.333   1.574  0.5580 -0.4483 -1.5038
11223TIP3    H255161   2.717   0.207   1.621  1.1043 -0.3498 -2.0217
11224TIP3   OH255162   5.974   1.052   5.098  0.3489  0.7716 -0.1175
11224TIP3    H155163   6.055   1.044   5.049 -0.1314  0.7424 -0.9191
11224TIP3    H255164   5.957   1.147   5.102  1.7133  1.0139  2.2406
11225TIP3   OH255165   5.365   1.665   3.402 -0.2864  0.6634  0.0250
11225TIP3    H155166   5.294   1.702   3.455 -0.8720  0.6903 -0.7506
11225TIP3    H255167   5.323   1.598   3.348  0.7432 -1.0829  1.3005
11226TIP3   OH255168   5.279   4.847   2.632  0.4308  0.4920  0.0276
11226TIP3    H155169   5.345   4.914   2.614  0.4599  0.5552  0.3723
11226TIP3    H255170   5.203   4.895   2.662  0.7368  0.3165  1.1090
11227TIP3   OH255171   1.467   0.932   4.091  0.2754  0.0690 -0.4686
11227TIP3    H155172   1.374   0.955   4.085  0.2355 -0.2605 -1.1500
11227TIP3    H255173   1.505   1.002   4.144 -0.9308 -1.4328  2.6574
11228TIP3   OH255174   3.605   1.286  15.139  0.8026  0.7543 -0.5224
11228TIP3    H155175   3.675   1.290  15.205 -0.3252  0.8322  0.6959
11228TIP3    H255176   3.602   1.374  15.101  1.2002  0.8152 -0.4185
11229TIP3   OH255177   0.190   6.061   1.091 -0.5983 -0.1428  0.1896
11229TIP3    H155178   0.157   5.973   1.107 -3.0055  0.8824  1.2594
11229TIP3    H255179   0.260   6.048   1.026 -1.7753 -2.6716 -0.7209
11230TIP3   OH255180   0.225   4.942   2.978  0.0937  0.1099 -0.2855
11230TIP3    H155181   0.140   4.984   2.991  0.7281  1.0500  1.0040
11230TIP3    H255182   0.213   4.852   3.007 -0.1899  0.5181  0.8933
11231TIP3   OH255183   6.276   1.713  13.430 -0.1541  0.7189  0.1378
11231TIP3    H155184   6.265   1.745  13.519  1.3892  4.0564 -0.7043
11231TIP3    H255185   6.351   1.654  13.434 -1.0865 -0.4368  1.2465
11232TIP3   OH255186   4.037   0.952   0.856  0.1625  0.8336  0.1884
11232TIP3    H155187   4.099   1.003   0.805  0.4602  0.1138 -0.1911
11232TIP3    H255188   3.958   0.950   0.803  0.6828 -0.4742 -0.6010
11233TIP3   OH255189   4.560   6.382  12.349  0.3194  0.3697  0.0164
11233TIP3    H155190   4.627   6.442  12.380  2.0729 -1.3633 -0.2267
11233TIP3    H255191   4.590   6.295  12.377 -0.8849 -0.6553 -1.6786
11234TIP3   OH255192   1.714   2.517   1.702  0.2389 -0.3023 -0.2794
11234TIP3    H155193   1.789   2.492   1.647  1.3716  3.2164 -0.5968
11234TIP3    H255194   1.719   2.458   1.777  2.1564 -1.4396 -1.2018
11235TIP3   OH255195   4.926   4.153   5.134 -0.3126 -0.0129  0.0510
11235TIP3    H155196   4.916   4.220   5.202  0.3631  0.0077  0.1391
11235TIP3    H255197   4.907   4.071   5.178  1.2439 -0.1176  0.5726
11236TIP3   OH255198   6.267   0.332  14.964 -0.7938  0.5621 -0.2770
11236TIP3    H155199   6.353   0.357  14.999 -1.8875  2.9361  0.8964
11236TIP3    H255200   6.288   0.288  14.882  1.6564 -1.3639  1.2067
11237TIP3   OH255201   4.119   1.417  13.346 -0.3815 -0.0416 -0.0549
11237TIP3    H155202   4.183   1.346  13.357  0.1061  0.4933  0.7598
11237TIP3    H255203   4.049   1.379  13.294  0.0191 -1.0274  0.1001
11238TIP3   OH255204   5.667   0.712   0.424 -0.3028  0.3357 -0.1273
11238TIP3    H155205   5.636   0.782   0.483 -0.9873 -0.6507  0.7353
11238TIP3    H255206   5.748   0.746   0.386 -0.9655  1.8567 -0.2414
11239TIP3   OH255207   1.819   5.708  17.002 -0.0955 -0.4097  0.7286
11239TIP3    H155208   1.908   5.744  17.008  0.3512 -1.2488 -0.5976
11239TIP3    H255209   1.774   5.765  16.940 -0.1109 -0.7157  0.4561
11240TIP3   OH255210   5.338   1.860   0.265 -0.2520  0.2373 -0.1701
11240TIP3    H155211   5.291   1.776   0.270  0.1936  0.0107  0.3186
11240TIP3    H255212   5.280   1.922   0.309  1.0998 -0.6069  3.1164
11241TIP3   OH255213   2.622   4.229  13.746  0.1063  0.3288 -0.6307
11241TIP3    H155214   2.624   4.170  13.671  0.2826 -1.7990  0.9544
11241TIP3    H255215   2.534   4.217  13.784 -0.1729  1.7641 -0.7448
11242TIP3   OH255216   0.931   4.381  13.568 -0.3458 -0.5336 -0.3903
11242TIP3    H155217   0.956   4.299  13.525  3.5965  0.2194  0.0011
11242TIP3    H255218   0.950   4.366  13.661  3.9448  1.6186 -0.6644
11243TIP3   OH255219   1.571   5.107   1.069 -0.0293  0.1968  0.3279
11243TIP3    H155220   1.535   5.052   1.000  0.0219 -1.2336  1.4036
11243TIP3    H255221   1.583   5.048   1.144 -1.1247  1.8974  1.9463
11244TIP3   OH255222   6.562   5.807   4.372 -0.3433 -1.0152 -0.2078
11244TIP3    H155223   6.535   5.818   4.281  1.7987  1.3750 -0.6564
11244TIP3    H255224   6.498   5.857   4.423  0.2804  0.4011 -0.7661
11245TIP3   OH255225   6.178   2.594   0.276 -0.1533 -0.0870 -0.1612
11245TIP3    H155226   6.138   2.585   0.362  0.8964 -0.2403  0.3269
11245TIP3    H255227   6.107   2.576   0.214 -0.6001 -1.3231  0.6793
11246TIP3   OH255228   3.983   4.822   0.676 -0.0921  0.7733  0.3110
11246TIP3    H155229   4.070   4.858   0.658  1.3193 -2.8292 -0.9263
11246TIP3    H255230   3.932   4.844   0.598  1.2319 -1.0409 -1.1840
11247TIP3   OH255231   0.401   5.793  12.666 -0.5350 -0.0857 -0.4735
11247TIP3    H155232   0.416   5.883  12.695 -0.7498  0.2378 -1.3410
11247TIP3    H255233   0.446   5.787  12.582 -0.7765 -0.7007 -0.5666
11248TIP3   OH255234   6.121   2.135   0.417  0.0335  0.8608  0.3829
11248TIP3    H155235   6.038   2.180   0.435  0.7102  1.9438  0.9146
11248TIP3    H255236   6.121   2.122   0.322 -1.4436 -0.5888  0.5500
11249TIP3   OH255237   2.907   2.664  14.351 -0.5018  0.9799  0.3651
11249TIP3    H155238   3.001   2.653  14.345 -0.7939 -1.3995 -0.6822
11249TIP3    H255239   2.893   2.705  14.437  1.3401 -0.6206  1.5019
11250TIP3   OH255240   3.980   5.857  14.027 -0.5508 -0.6311 -0.0920
11250TIP3    H155241   3.942   5.781  14.071 -0.9476 -0.0001  0.6877
11250TIP3    H255242   4.027   5.904  14.096 -0.4196 -0.0963 -0.5335
11251TIP3   OH255243   5.757   2.773  12.861  0.2561 -0.0693  0.2918
11251TIP3    H155244   5.687   2.715  12.830  0.2707 -0.6850  1.3546
11251TIP3    H255245   5.768   2.837  12.791 -0.8115 -0.4520 -0.2504
11252TIP3   OH255246   1.123   3.632   2.025  0.2386  0.0064 -0.0764
11252TIP3    H155247   1.212   3.608   2.051 -0.6642 -2.1221  1.3535
11252TIP3    H255248   1.086   3.552   1.988 -1.1560  0.7733 -0.4428
11253TIP3   OH255249   4.629   1.761   4.526  0.0231 -0.1377 -0.3206
11253TIP3    H155250   4.596   1.739   4.613 -0.1844 -1.3776 -0.7038
11253TIP3    H255251   4.555   1.802   4.482  0.0363  0.2094 -0.0268
11254TIP3   OH255252   6.369   5.095   0.712  0.0539  0.4568 -0.4252
11254TIP3    H155253   6.341   5.052   0.793 -2.5950  0.6266 -1.1583
11254TIP3    H255254   6.373   5.024   0.648  0.3646  0.5986 -0.5644
11255TIP3   OH255255   4.045   0.367  11.404 -0.2143 -0.4301 -0.3585
11255TIP3    H155256   4.064   0.290  11.351 -0.0245 -0.7334  0.1414
11255TIP3    H255257   4.003   0.332  11.483  1.2073 -0.1784  0.5456
11256TIP3   OH255258   2.008   1.039  16.081  0.2815 -0.4484 -0.4415
11256TIP3    H155259   2.053   1.122  16.099 -1.1622  0.2219  0.1654
11256TIP3    H255260   1.951   1.058  16.006 -0.3214 -0.7953 -0.0725
11257TIP3   OH255261   2.863   6.076  11.501 -0.0397  0.0986  0.3569
11257TIP3    H155262   2.780   6.080  11.453  0.2634  1.0195 -0.1074
11257TIP3    H255263   2.896   6.165  11.500  1.0057 -0.2724  0.4540
11258TIP3   OH255264   6.387   1.218  15.341 -0.0599 -0.0360 -0.1266
11258TIP3    H155265   6.395   1.288  15.276 -1.1821  0.4101  0.1982
11258TIP3    H255266   6.477   1.186  15.353  0.2067  0.0587 -1.6781
11259TIP3   OH255267   5.885   6.065  12.793 -0.0833 -0.0922  0.2972
11259TIP3    H155268   5.821   6.135  12.798 -0.1586 -0.1215 -0.1902
11259TIP3    H255269   5.935   6.072  12.874 -0.3430  0.2779  0.4275
11260TIP3   OH255270   4.618   1.606  11.697 -0.2253 -0.0649 -0.0968
11260TIP3    H155271   4.598   1.619  11.789 -2.9486 -0.6924 -0.5014
11260TIP3    H255272   4.711   1.627  11.689 -0.0299  0.4930  2.6633
11261TIP3   OH255273   1.081   4.261   2.531 -1.0492  0.3924 -0.7352
11261TIP3    H155274   1.144   4.315   2.484 -0.3812  0.4068  0.1632
11261TIP3    H255275   1.044   4.320   2.597 -2.2801  0.4893 -1.4748
11262TIP3   OH255276   0.273   4.105  15.663 -0.2524  0.9672 -0.1050
11262TIP3    H155277   0.258   4.016  15.631 -0.8934  0.6616  0.9729
11262TIP3    H255278   0.290   4.094  15.757  0.3761  1.9221 -0.0903
11263TIP3   OH255279   2.220   4.221   2.049  0.1640  0.6679 -0.1842
11263TIP3    H155280   2.299   4.238   2.100 -0.1260  0.0839  0.4851
11263TIP3    H255281   2.151   4.212   2.115  0.0678 -1.7849 -0.5390
11264TIP3   OH255282   6.066   3.567  11.212  0.0351  0.0806  0.1802
11264TIP3    H155283   6.132   3.603  11.271 -1.5312  0.7025  1.6525
11264TIP3    H255284   5.990   3.626  11.223 -0.8444 -0.7214 -1.2718
11265TIP3   OH255285   2.546   3.897  16.023 -0.0177 -0.2978 -0.3294
11265TIP3    H155286   2.582   3.973  15.978 -1.3774  0.0226 -0.9432
11265TIP3    H255287   2.480   3.934  16.083  0.3723 -0.8806  0.4768
11266TIP3   OH255288   4.295   3.345  13.321 -0.0826 -0.1521 -0.0869
11266TIP3    H155289   4.306   3.250  13.318  1.1847 -0.0154 -0.0414
11266TIP3    H255290   4.375   3.380  13.283  0.3445  0.9391  1.7076
11267TIP3   OH255291   6.038   1.150   3.410 -0.0872 -0.1322 -0.0697
11267TIP3    H155292   6.056   1.230   3.459  3.1257  0.4942 -1.9941
11267TIP3    H255293   5.955   1.169   3.365 -1.0619  0.7748  1.9477
11268TIP3   OH255294   0.672   5.637  10.322  0.4477 -0.3074  0.2574
11268TIP3    H155295   0.713   5.563  10.278  1.8359  0.6894 -0.2015
11268TIP3    H255296   0.737   5.707  10.318 -1.2682  1.3470 -0.4095
11269TIP3   OH255297   2.723   4.615  15.917 -0.2561  0.3894 -0.1897
11269TIP3    H155298   2.675   4.552  15.864  1.2014 -1.6895  0.7990
11269TIP3    H255299   2.696   4.597  16.007  0.0104  1.3492  0.0932
11270TIP3   OH255300   1.908   2.492  15.611  0.0362 -0.1382  0.1887
11270TIP3    H155301   2.000   2.509  15.592 -0.2083  1.2710  0.2037
11270TIP3    H255302   1.909   2.408  15.658  1.3673  0.1569  0.7310
11271TIP3   OH255303   4.539   5.777   1.663  0.2560  0.1348 -1.2516
11271TIP3    H155304   4.459   5.725   1.662 -0.2564  0.8988 -1.9839
11271TIP3    H255305   4.513   5.860   1.623  0.8919  1.2065  0.4911
11272TIP3   OH255306   5.014   6.515   2.109 -0.4014  0.6297  0.0465
11272TIP3    H155307   5.097   6.484   2.072 -0.5513  0.1819  0.0859
11272TIP3    H255308   5.034   6.532   2.201 -0.2493  0.9119 -0.0390
11273TIP3   OH255309   0.047   2.784   3.894 -0.1238 -0.5744  0.0922
11273TIP3    H155310  -0.019   2.755   3.957  0.2436  0.0406  0.7887
11273TIP3    H255311   0.059   2.877   3.915  0.5389 -0.5434 -0.4086
11274TIP3   OH255312   3.457   1.366   1.124 -0.3770  0.2130 -0.4723
11274TIP3    H155313   3.432   1.341   1.213  0.9056  0.1231 -0.1153
11274TIP3    H255314   3.429   1.293   1.070  0.0204 -0.3460  0.0573
11275TIP3   OH255315   4.379   0.986   3.536 -0.0385 -0.6283 -0.2741
11275TIP3    H155316   4.319   1.060   3.532 -0.7248 -0.9843  1.7538
11275TIP3    H255317   4.421   0.983   3.451 -1.8783  0.5084 -1.2815
11276TIP3   OH255318   5.214   4.766   3.017  0.3196  0.2051  0.0053
11276TIP3    H155319   5.260   4.683   2.999  0.2013 -0.2994  1.7549
11276TIP3    H255320   5.125   4.752   2.985  0.3285 -0.3254  0.1965
11277TIP3   OH255321   1.499   4.396   0.768  0.2237  0.0282 -0.0963
11277TIP3    H155322   1.421   4.360   0.726 -1.5614  2.3956  0.9543
11277TIP3    H255323   1.502   4.354   0.854 -1.3131  1.5296  0.7601
11278TIP3   OH255324   0.251   4.035   3.911 -0.1839 -0.4998 -0.1313
11278TIP3    H155325   0.170   4.015   3.957 -0.5643  0.2651 -0.4639
11278TIP3    H255326   0.256   3.971   3.840 -0.0137 -1.1471  0.4479
11279TIP3   OH255327   1.216   4.837  14.834 -0.5405  0.0490  0.0188
11279TIP3    H155328   1.195   4.898  14.763  0.2611 -1.3250 -1.4631
11279TIP3    H255329   1.287   4.880  14.882 -1.4836  1.2539  0.3901
11280TIP3   OH255330   6.102   6.381   4.512  0.0266 -0.1487 -0.1851
11280TIP3    H155331   6.032   6.340   4.563  2.0225 -2.3606  0.9706
11280TIP3    H255332   6.117   6.465   4.555 -0.7173 -0.4445  0.6848
11281TIP3   OH255333   2.081   1.737  15.533 -0.2410  0.3274  0.3744
11281TIP3    H155334   2.047   1.662  15.485 -1.1933  0.2239  1.1725
11281TIP3    H255335   2.008   1.764  15.590  0.4193  1.2362  0.8153
11282TIP3   OH255336   2.123   4.123  14.313 -0.3936 -0.4033  0.1023
11282TIP3    H155337   2.056   4.170  14.364 -0.5210 -0.6532  0.1659
11282TIP3    H255338   2.186   4.191  14.289  0.8715 -0.6337  2.4740
11283TIP3   OH255339   6.197   1.900  13.249  0.2695 -0.1708  0.2123
11283TIP3    H155340   6.162   1.966  13.309 -3.3957 -0.6838 -1.0915
11283TIP3    H255341   6.216   1.824  13.305 -2.0960 -0.2918  0.9392
11284TIP3   OH255342   1.841   5.793  14.689  0.3183 -0.3304 -0.2401
11284TIP3    H155343   1.786   5.839  14.625  2.3166 -0.7226 -2.3986
11284TIP3    H255344   1.779   5.757  14.752 -1.7024  0.9860 -1.3479
11285TIP3   OH255345   0.684   0.406  13.509  0.2022  0.6288  0.1290
11285TIP3    H155346   0.676   0.373  13.598 -1.8738  1.6292  0.3831
11285TIP3    H255347   0.607   0.373  13.463 -0.0656  2.1198 -0.5839
11286TIP3   OH255348   3.302   6.373   3.828 -0.7752  0.3803  0.1153
11286TIP3    H155349   3.287   6.331   3.913 -0.5228 -0.8396 -0.4194
11286TIP3    H255350   3.397   6.379   3.820 -0.8014  2.6131  0.8938
11287TIP3   OH255351   3.562   4.202  13.078 -0.0900 -0.1631 -0.3306
11287TIP3    H155352   3.496   4.266  13.103 -0.6088 -1.1049  0.7551
11287TIP3    H255353   3.528   4.161  12.999  1.3314  2.4794 -2.4892
11288TIP3   OH255354   3.517   3.280   4.493 -1.0920  0.6967  0.1754
11288TIP3    H155355   3.589   3.329   4.531 -0.2972 -1.0742  1.0504
11288TIP3    H255356   3.452   3.274   4.563 -0.2053 -1.3845  0.9184
11289TIP3   OH255357   0.667   2.823   0.574 -0.0312 -0.2723  0.4956
11289TIP3    H155358   0.674   2.834   0.669  1.0882  0.5525  0.3417
11289TIP3    H255359   0.739   2.763   0.552  1.4374  1.6096 -0.1153
11290TIP3   OH255360   6.288   2.932  16.492 -0.1953 -0.2034  0.2736
11290TIP3    H155361   6.371   2.899  16.456  0.1880  0.4002  0.5800
11290TIP3    H255362   6.309   3.020  16.523 -1.4483  0.8439 -1.6265
11291TIP3   OH255363   1.597   4.309  14.486  0.3713  0.1084  0.1107
11291TIP3    H155364   1.548   4.385  14.454  0.6174  0.6629  0.9831
11291TIP3    H255365   1.564   4.296  14.575 -0.0304 -1.1410 -0.2013
11292TIP3   OH255366   1.972   6.095  14.016 -0.0631 -0.1147  0.1678
11292TIP3    H155367   2.044   6.037  14.042 -0.1188 -0.4971 -0.5091
11292TIP3    H255368   1.994   6.179  14.056  1.9370  0.3946 -1.7993
11293TIP3   OH255369   4.727   4.531  15.166 -0.1698  0.1172 -0.0424
11293TIP3    H155370   4.636   4.509  15.151 -0.3677  0.5880  0.4452
11293TIP3    H255371   4.769   4.520  15.080 -1.1982  2.3790 -0.9175
11294TIP3   OH255372   5.889   6.799   0.234 -0.6921 -0.6763  0.1913
11294TIP3    H155373   5.966   6.804   0.290 -1.1895  0.1404  0.8164
11294TIP3    H255374   5.854   6.711   0.250 -0.6334 -0.5762  0.9062
11295TIP3   OH255375   5.441   3.914   0.571  0.0566  0.2542 -0.0033
11295TIP3    H155376   5.534   3.930   0.557  0.1262  0.3559  0.5797
11295TIP3    H255377   5.435   3.821   0.591 -0.1530 -0.1126 -1.6255
11296TIP3   OH255378   0.639   5.703   0.833  0.2244 -0.6198  0.3571
11296TIP3    H155379   0.639   5.797   0.816 -0.8967 -0.9813 -2.0474
11296TIP3    H255380   0.722   5.687   0.879  0.9035  1.3902 -0.0759
11297TIP3   OH255381   4.234   1.828  16.397 -0.0735 -0.1064  0.8994
11297TIP3    H155382   4.283   1.766  16.342 -4.1486 -1.4751 -1.6352
11297TIP3    H255383   4.215   1.902  16.340 -1.3968  0.1075  1.5705
11298TIP3   OH255384   6.590   5.477   5.070  0.2537 -0.2718 -0.5364
11298TIP3    H155385   6.514   5.420   5.082 -0.1271  0.2325 -0.5275
11298TIP3    H255386   6.627   5.451   4.986 -0.6698  0.3203 -1.1405
11299TIP3   OH255387   0.490   2.274   4.542 -0.2018  0.2963 -0.1784
11299TIP3    H155388   0.560   2.306   4.486 -0.4789 -0.4916 -1.0163
11299TIP3    H255389   0.415   2.265   4.483 -0.7155  0.1387  0.4818
11300TIP3   OH255390   3.486   2.355  15.819 -0.1667  0.4972  0.2932
11300TIP3    H155391   3.481   2.385  15.910  1.5206 -1.8817  1.2698
11300TIP3    H255392   3.530   2.427  15.773 -0.2149  1.3644  1.5550
11301TIP3   OH255393   2.625   6.221   3.602 -0.3532 -0.6088 -0.0318
11301TIP3    H155394   2.673   6.148   3.642  0.7117  0.5128  0.7796
11301TIP3    H255395   2.611   6.283   3.673 -0.0475  0.6023 -1.0043
11302TIP3   OH255396   5.549   4.347   2.893 -0.1019  0.0676 -0.3325
11302TIP3    H155397   5.570   4.256   2.870  1.6684  0.7497 -1.6650
11302TIP3    H255398   5.480   4.372   2.832 -1.1300 -0.5844  0.5346
11303TIP3   OH255399   0.411   2.379  15.504  0.0263  0.1198 -0.1870
11303TIP3    H155400   0.453   2.300  15.471  0.7123  1.1305 -1.8734
11303TIP3    H255401   0.448   2.450  15.452  0.1529  1.7076  1.9140
11304TIP3   OH255402   0.037   2.746  12.646 -0.0841  0.1124  0.1526
11304TIP3    H155403   0.037   2.718  12.737  1.4254  0.6894  0.3635
11304TIP3    H255404   0.112   2.701  12.607 -0.1904  0.5489 -0.5776
11305TIP3   OH255405   3.868   2.064   0.270  0.2873 -0.0657  0.1370
11305TIP3    H155406   3.931   2.105   0.210 -0.1784 -0.4290 -0.6037
11305TIP3    H255407   3.784   2.101   0.246  0.3106  1.1912  1.7949
11306TIP3   OH255408   1.998   1.647   1.484  0.0151  0.3092  0.0385
11306TIP3    H155409   2.019   1.569   1.433 -0.9262  0.2490 -0.2826
11306TIP3    H255410   2.016   1.622   1.574 -1.7873 -0.8638  0.1378
11307TIP3   OH255411   4.106   2.491   3.275 -0.4628  0.5452 -0.0976
11307TIP3    H155412   4.126   2.397   3.270 -1.0271  0.4632 -1.1611
11307TIP3    H255413   4.015   2.495   3.304 -0.6856  0.7232 -0.7881
11308TIP3   OH255414   4.243   4.846   1.915  0.0380  0.4646  0.0559
11308TIP3    H155415   4.270   4.917   1.972 -0.8084  0.0228  1.0378
11308TIP3    H255416   4.318   4.832   1.857  1.8603 -0.5685  2.4844
11309TIP3   OH255417   3.892   5.319   0.325  0.7283  0.2950  0.1007
11309TIP3    H155418   3.941   5.237   0.316 -0.0649 -0.6549  3.1865
11309TIP3    H255419   3.805   5.300   0.290  1.0953  0.4371 -0.9051
11310TIP3   OH255420   3.694   6.072   0.698 -0.1946  0.3073  0.7145
11310TIP3    H155421   3.642   6.152   0.690  0.0682  0.4473  0.3871
11310TIP3    H255422   3.760   6.094   0.764 -0.1357  0.3544  0.6404
11311TIP3   OH255423   6.583   5.956  15.731 -0.1078  0.2153 -0.2557
11311TIP3    H155424   6.497   5.929  15.701 -0.2799  0.9988 -0.4974
11311TIP3    H255425   6.586   5.931  15.823 -0.4722 -0.0812 -0.3221
11312TIP3   OH255426   3.308   6.037   3.801  0.2985  0.4564  0.2597
11312TIP3    H155427   3.341   6.037   3.891  0.8800 -1.5304  0.1034
11312TIP3    H255428   3.358   5.968   3.758  0.0062  1.3613 -1.6011
11313TIP3   OH255429   0.218   0.832  16.507 -0.4334  0.4922  0.0662
11313TIP3    H155430   0.313   0.838  16.504 -0.5134  1.4277 -0.9601
11313TIP3    H255431   0.200   0.783  16.588  0.8360  2.1167  1.4107
11314TIP3   OH255432   5.830   0.387   0.485  0.3676 -0.1245  0.7892
11314TIP3    H155433   5.790   0.460   0.532 -0.2446 -0.6320  1.0766
11314TIP3    H255434   5.899   0.427   0.432  0.4361  0.5807  1.3952
11315TIP3   OH255435   1.648   1.708  14.006  0.0784  0.5817  0.3652
11315TIP3    H155436   1.701   1.679  13.932  1.8432 -1.8474  2.3796
11315TIP3    H255437   1.567   1.658  13.998 -0.1546  1.0644 -0.4108
11316TIP3   OH255438   6.587   3.850  14.724 -1.0061  0.3202 -0.0386
11316TIP3    H155439   6.656   3.901  14.683 -0.8493  0.9794  0.9914
11316TIP3    H255440   6.506   3.894  14.698 -1.0176 -0.1112 -0.7736
11317TIP3   OH255441   4.116   4.575   5.647 -0.3907  0.3957  0.0609
11317TIP3    H155442   4.094   4.668   5.640 -0.4903  0.2139 -3.8837
11317TIP3    H255443   4.197   4.566   5.598  0.4404 -1.4440  1.6520
11318TIP3   OH255444   3.962   6.100  16.057  0.2499  0.1118  0.5329
11318TIP3    H155445   4.040   6.104  16.001 -0.4750  0.4394 -0.5018
11318TIP3    H255446   3.962   6.012  16.092 -1.3285 -1.6059 -3.1746
11319TIP3   OH255447   3.555   6.790   2.137  0.8064 -0.2633  0.1448
11319TIP3    H155448   3.516   6.813   2.052 -0.4268  2.1023  1.2585
11319TIP3    H255449   3.643   6.761   2.115  0.4407  0.0381 -1.9676
11320TIP3   OH255450   2.553   1.727   2.856 -0.7973 -0.4293  0.4195
11320TIP3    H155451   2.607   1.806   2.859 -0.4676 -0.6735  0.7919
11320TIP3    H255452   2.580   1.683   2.775 -0.0049 -0.8646  0.9187
11321TIP3   OH255453   1.558   5.843  14.208 -0.0562  0.3277 -0.0231
11321TIP3    H155454   1.474   5.847  14.253  0.6051  2.7492  1.1746
11321TIP3    H255455   1.544   5.781  14.136 -2.1821 -0.9999  1.4055
11322TIP3   OH255456   3.629   4.403   3.765 -0.1082  0.0039 -0.0355
11322TIP3    H155457   3.592   4.441   3.844 -0.7037 -1.1280  0.2614
11322TIP3    H255458   3.610   4.466   3.696  0.0175  0.7975  0.6418
11323TIP3   OH255459   4.127   4.202   4.528  0.6264  0.2133 -0.0715
11323TIP3    H155460   4.084   4.136   4.583  1.4753  0.6395  1.1553
11323TIP3    H255461   4.062   4.272   4.519 -0.0315 -0.4672 -0.8207
11324TIP3   OH255462   0.331   2.533  14.402 -0.0125 -0.6702 -0.4737
11324TIP3    H155463   0.317   2.619  14.362  0.3317 -0.7976 -0.8745
11324TIP3    H255464   0.244   2.508  14.434 -0.6143 -1.1904 -2.3969
11325TIP3   OH255465   3.556   1.927   5.715 -0.1986 -0.5265 -0.1589
11325TIP3    H155466   3.507   1.927   5.798  2.2844 -0.0150  1.4324
11325TIP3    H255467   3.572   2.019   5.696 -0.5641 -0.6498 -1.1102
11326TIP3   OH255468   2.935   5.938  10.941  0.3569 -0.3955  0.3538
11326TIP3    H155469   3.022   5.978  10.941  0.4975 -0.6349  1.6195
11326TIP3    H255470   2.908   5.937  10.850  2.3022 -1.6463 -0.2690
11327TIP3   OH255471   1.788   1.297  16.451 -0.2881  0.5208  0.1794
11327TIP3    H155472   1.838   1.299  16.370  0.4418 -2.3916  0.4332
11327TIP3    H255473   1.853   1.316  16.519 -0.6538  1.7856  0.1978
11328TIP3   OH255474   5.820   2.434  12.215 -0.0829  0.1268  0.1951
11328TIP3    H155475   5.761   2.448  12.289 -0.9260  2.1636 -0.7832
11328TIP3    H255476   5.825   2.339  12.205 -2.6403 -0.1211  0.7587
11329TIP3   OH255477   3.673   4.131   6.020 -0.1371 -0.2688 -0.1744
11329TIP3    H155478   3.619   4.125   5.941 -1.1325  0.9387  0.3621
11329TIP3    H255479   3.622   4.086   6.087 -0.3004  0.4917  0.2321
11330TIP3   OH255480   4.593   4.149   0.259  0.4018 -0.1315 -0.2620
11330TIP3    H155481   4.512   4.110   0.293 -0.4672  1.9756  0.2132
11330TIP3    H255482   4.651   4.154   0.335  0.9867 -1.5462 -0.5813
11331TIP3   OH255483   3.442   2.133  12.882  0.2992  0.4986  0.1532
11331TIP3    H155484   3.388   2.124  12.961 -1.1965  0.6696 -0.8052
11331TIP3    H255485   3.495   2.053  12.880  1.8063  1.3494  2.3271
11332TIP3   OH255486   4.511   3.380  10.858 -0.3372 -0.6136  0.4020
11332TIP3    H155487   4.490   3.474  10.858  1.8769  0.0324  2.7966
11332TIP3    H255488   4.573   3.370  10.785  1.6703  0.5323  1.8256
11333TIP3   OH255489   0.911   3.353  16.266 -0.2590 -0.3382 -0.1316
11333TIP3    H155490   0.932   3.345  16.172 -2.1371 -2.4250 -0.4712
11333TIP3    H255491   0.838   3.293  16.279 -0.3050  0.1860  2.6357
11334TIP3   OH255492   5.028   1.861   4.781  0.1352 -0.2833  0.3939
11334TIP3    H155493   5.001   1.772   4.756  0.9122 -0.9252  1.7135
11334TIP3    H255494   5.002   1.869   4.873  0.1209  0.8403  0.3026
11335TIP3   OH255495   6.018   2.320  11.540 -0.2790 -0.1971 -0.5187
11335TIP3    H155496   6.038   2.227  11.548 -2.6217 -0.5910  3.6722
11335TIP3    H255497   6.093   2.365  11.579  0.1927 -0.3734 -1.2010
11336TIP3   OH255498   3.663   3.147   0.431  0.0895  0.8533  0.3616
11336TIP3    H155499   3.698   3.174   0.516 -0.6200  3.2745 -0.0503
11336TIP3    H255500   3.740   3.128   0.378  0.7304  2.9602  0.4563
11337TIP3   OH255501   3.589   2.342  12.012  0.2861  0.4359 -0.8005
11337TIP3    H155502   3.557   2.363  11.924  3.1967  1.9542 -1.6228
11337TIP3    H255503   3.642   2.264  11.999  0.3431  0.3921 -0.2939
11338TIP3   OH255504   2.409   1.681  13.203  0.6161  0.2921  0.1987
11338TIP3    H155505   2.451   1.757  13.242  0.1280 -0.0601  1.4433
11338TIP3    H255506   2.390   1.623  13.277  0.0337 -0.5764 -0.6053
11339TIP3   OH255507   5.170   3.425  12.122 -0.4888 -0.1010  0.3716
11339TIP3    H155508   5.250   3.373  12.112  0.1429  1.2324 -2.7771
11339TIP3    H255509   5.188   3.483  12.196  1.5134  0.1836 -0.2772
11340TIP3   OH255510   2.942   1.532   1.055 -0.0700  0.1440 -0.5214
11340TIP3    H155511   2.860   1.517   1.103  0.0615  2.1145  0.4364
11340TIP3    H255512   2.914   1.550   0.965 -0.5817 -0.5174 -0.4981
11341TIP3   OH255513   1.292   6.473  14.516  0.1450  0.0827 -0.3929
11341TIP3    H155514   1.351   6.399  14.531  0.1977  0.5047  1.8496
11341TIP3    H255515   1.329   6.518  14.440  2.8073  0.3581  0.9448
11342TIP3   OH255516   2.425   6.235  15.453  0.5208 -0.6734  0.6353
11342TIP3    H155517   2.445   6.257  15.362 -0.6354 -2.0903  0.0016
11342TIP3    H255518   2.498   6.271  15.503  0.0937  2.1112 -0.5646
11343TIP3   OH255519   4.153   6.082  13.680 -0.3085  0.0929  0.7722
11343TIP3    H155520   4.088   6.136  13.725  0.5992  0.3195  1.8480
11343TIP3    H255521   4.190   6.026  13.748 -1.2628 -1.9724 -0.3231
11344TIP3   OH255522   4.437   5.147   6.287 -0.6631  0.2167 -0.3398
11344TIP3    H155523   4.459   5.222   6.343 -0.2430 -0.2061  0.0763
11344TIP3    H255524   4.401   5.082   6.348 -1.4865  0.2601 -0.7708
11345TIP3   OH255525   3.751   3.391   3.034  0.1074  0.3475 -0.1653
11345TIP3    H155526   3.765   3.439   3.115  1.4758  0.4947 -0.4620
11345TIP3    H255527   3.700   3.451   2.979  1.2872  1.2436 -0.3103
11346TIP3   OH255528   3.869   2.129   3.501  0.0424  0.2131 -0.3317
11346TIP3    H155529   3.935   2.181   3.546  0.0727  0.1009 -0.2461
11346TIP3    H255530   3.915   2.049   3.475 -0.0154  0.2096 -0.4244
11347TIP3   OH255531   2.460   4.755  13.594 -0.6432  0.2478 -0.1710
11347TIP3    H155532   2.396   4.697  13.635  0.5305 -0.7435  0.3268
11347TIP3    H255533   2.540   4.702  13.587  0.3856  1.7003  0.0257
11348TIP3   OH255534   1.939   2.243  13.842 -0.2815  0.3659  0.9701
11348TIP3    H155535   1.987   2.276  13.766 -1.0791 -2.7699 -1.0989
11348TIP3    H255536   1.941   2.315  13.905  1.5380  2.6730 -1.4910
11349TIP3   OH255537   0.120   1.149  12.366  0.0237 -0.4101  0.1839
11349TIP3    H155538   0.120   1.233  12.319  0.1557 -0.7517 -0.4452
11349TIP3    H255539   0.195   1.101  12.329 -0.2990 -0.9643  0.2324
11350TIP3   OH255540   1.621   1.404   4.725 -0.1320 -0.0808 -0.0415
11350TIP3    H155541   1.538   1.451   4.725 -0.7507 -1.0890  1.3255
11350TIP3    H255542   1.659   1.422   4.639 -1.1595  1.4325 -0.2147
11351TIP3   OH255543   4.018   5.760  13.259  0.1523 -0.5925  0.0647
11351TIP3    H155544   3.996   5.715  13.177 -1.0290 -0.8783  0.5164
11351TIP3    H255545   4.109   5.734  13.277  1.2819  1.3162 -2.3329
11352TIP3   OH255546   4.249   6.498   3.165 -0.3016  0.2485 -0.2072
11352TIP3    H155547   4.265   6.408   3.193  1.2725  0.1617 -1.2343
11352TIP3    H255548   4.173   6.526   3.215  0.5735 -0.8787  1.8558
11353TIP3   OH255549   5.922   0.542   2.292  0.4309  0.1737  0.2143
11353TIP3    H155550   5.981   0.618   2.289  1.6000 -0.6346  1.4178
11353TIP3    H255551   5.979   0.470   2.319 -0.8723 -0.9133  0.1133
11354TIP3   OH255552   2.829   0.915   3.569 -0.3871 -0.0621  0.0796
11354TIP3    H155553   2.824   0.851   3.499 -1.5557  1.2301 -1.0824
11354TIP3    H255554   2.738   0.926   3.598 -0.0706  0.2943  0.9776
11355TIP3   OH255555   6.804   3.420   4.900 -0.6097 -0.0873 -0.0475
11355TIP3    H155556   6.893   3.390   4.914 -0.3983  1.0461  1.1396
11355TIP3    H255557   6.788   3.403   4.807  1.1623  0.5302 -0.5086
11356TIP3   OH255558   4.781   0.262  16.689  0.0769  0.7675 -0.8398
11356TIP3    H155559   4.847   0.214  16.740 -2.3338 -1.4287  0.4309
11356TIP3    H255560   4.799   0.238  16.598  0.5172 -0.4857 -0.4395
11357TIP3   OH255561   1.023   6.591   4.165 -0.4607  0.1189  0.4018
11357TIP3    H155562   1.057   6.592   4.255 -0.8839  1.4969  0.5662
11357TIP3    H255563   1.021   6.683   4.139 -2.7779 -0.0198 -0.0963
11358TIP3   OH255564   5.021   3.787  13.498  0.4384 -0.4953 -0.6158
11358TIP3    H155565   5.025   3.857  13.563 -1.1017 -2.3821  1.6800
11358TIP3    H255566   4.933   3.750  13.508  0.2158 -1.0098 -3.6964
11359TIP3   OH255567   1.867   1.904  14.029 -0.3748 -0.4215 -0.0247
11359TIP3    H155568   1.864   1.911  14.125 -0.9541 -0.4914 -0.0339
11359TIP3    H255569   1.803   1.837  14.008 -0.0639 -0.5866 -0.4486
11360TIP3   OH255570   5.486   6.339   1.104  0.3243 -0.3454  0.4479
11360TIP3    H155571   5.541   6.263   1.087 -0.3504 -0.5114 -1.1574
11360TIP3    H255572   5.401   6.303   1.130 -0.1787 -0.2009 -0.8920
11361TIP3   OH255573   4.985   3.996  15.299  0.2859  0.0001 -0.1662
11361TIP3    H155574   4.909   3.985  15.356  0.0732  2.2845  0.0821
11361TIP3    H255575   4.951   3.977  15.211 -0.2510 -0.2398  0.0866
11362TIP3   OH255576   1.729   2.489  12.352  0.0815 -0.2358 -0.2609
11362TIP3    H155577   1.659   2.554  12.360  0.6318  0.5332 -1.3479
11362TIP3    H255578   1.786   2.524  12.283  2.0353 -0.3748  1.1833
11363TIP3   OH255579   1.846   0.926   5.459 -0.6819  0.0281  0.4401
11363TIP3    H155580   1.887   0.996   5.409 -1.9896  1.0789  0.7726
11363TIP3    H255581   1.782   0.970   5.514 -2.1073 -1.4898  0.1037
11364TIP3   OH255582   0.896   2.789  14.509  0.1686  0.1299  0.1854
11364TIP3    H155583   0.978   2.783  14.558 -0.4757  1.5891  1.5248
11364TIP3    H255584   0.877   2.882  14.505 -1.6035 -0.1921  0.2215
11365TIP3   OH255585   5.577   1.921   5.624 -0.7757  0.1105 -0.0705
11365TIP3    H155586   5.577   1.829   5.649 -0.0834  0.0522 -0.2691
11365TIP3    H255587   5.663   1.935   5.583 -1.4696  0.4429 -1.4808
11366TIP3   OH255588   3.915   6.689  13.898 -0.0706 -0.1296 -0.4234
11366TIP3    H155589   3.845   6.628  13.923 -1.2543  1.1554 -0.4953
11366TIP3    H255590   3.938   6.664  13.809  0.7911 -1.6493  0.1871
11367TIP3   OH255591   5.800   5.025   0.330 -0.1788  0.6052 -1.0860
11367TIP3    H155592   5.889   5.047   0.304  0.6941 -0.1363  1.0507
11367TIP3    H255593   5.782   4.943   0.285  1.7502 -1.2978  1.3136
11368TIP3   OH255594   3.933   5.934   3.592  0.0096  0.5283  0.1255
11368TIP3    H155595   3.865   5.944   3.524 -0.0937 -2.6029 -0.3476
11368TIP3    H255596   3.886   5.898   3.667  0.8734 -0.1255  0.3553
11369TIP3   OH255597   3.603   4.349   1.435 -0.1395 -0.0104  0.1640
11369TIP3    H155598   3.548   4.312   1.366  0.1428  0.0558 -0.1010
11369TIP3    H255599   3.594   4.288   1.508 -1.9031  0.8854  0.7493
11370TIP3   OH255600   2.241   6.487  15.447  0.0004 -0.4741  0.6850
11370TIP3    H155601   2.296   6.409  15.440  2.3810  1.2139 -0.4573
11370TIP3    H255602   2.266   6.527  15.531  1.4580  0.9141 -0.3649
11371TIP3   OH255603   3.269   2.157  13.829  0.2102 -0.1875 -0.0091
11371TIP3    H155604   3.331   2.202  13.773 -0.1035 -0.3656 -0.5096
11371TIP3    H255605   3.207   2.225  13.857 -0.2917 -0.3044 -0.8029
11372TIP3   OH255606   2.204   0.143   3.025 -0.5760  0.1377  0.2130
11372TIP3    H155607   2.212   0.237   3.037 -1.1292  0.0972  0.9707
11372TIP3    H255608   2.285   0.107   3.061 -0.8254  0.2552  0.9082
11373TIP3   OH255609   3.564   4.676  10.300 -0.1575  0.1794 -0.1506
11373TIP3    H155610   3.594   4.645  10.215 -2.0844  0.3848 -0.9343
11373TIP3    H255611   3.585   4.603  10.360  0.8779 -0.1116 -0.8262
11374TIP3   OH255612   0.746   4.441   1.005  0.0168 -0.3450  0.4338
11374TIP3    H155613   0.783   4.354   0.988  1.8921  0.5780 -0.5561
11374TIP3    H255614   0.670   4.425   1.060  1.0846 -2.5152  1.3817
11375TIP3   OH255615   2.096   6.757   1.335  0.5523  0.1991  0.2960
11375TIP3    H155616   2.133   6.668   1.334 -0.9204 -0.4454 -0.9011
11375TIP3    H255617   2.022   6.750   1.396  1.1953  0.9778  1.1999
11376TIP3   OH255618   4.419   0.284   0.753  0.1338  0.5961 -0.2996
11376TIP3    H155619   4.431   0.305   0.661 -0.2235  0.2853 -0.4208
11376TIP3    H255620   4.332   0.244   0.757  0.1587  0.5857  0.1668
11377TIP3   OH255621   3.225   0.767  13.705 -0.6414  0.2705 -0.0772
11377TIP3    H155622   3.151   0.707  13.702  0.2114 -0.8402  0.5485
11377TIP3    H255623   3.185   0.853  13.722 -1.7406 -0.4181  1.0294
11378TIP3   OH255624   1.302   3.195   5.311  0.4591 -0.2066  0.1897
11378TIP3    H155625   1.395   3.189   5.332  0.5385 -0.4385 -0.2325
11378TIP3    H255626   1.284   3.289   5.311  0.4188 -0.1982  1.4520
11379TIP3   OH255627   3.261   2.287   2.493  0.1008  0.0608  0.0010
11379TIP3    H155628   3.206   2.363   2.509 -0.3964  0.1494 -1.9242
11379TIP3    H255629   3.327   2.290   2.562 -1.0077  1.1695  1.0514
11380TIP3   OH255630   1.984   1.348  16.288 -0.3377 -0.6563 -0.0116
11380TIP3    H155631   2.023   1.407  16.352 -2.0651  1.1020 -0.5116
11380TIP3    H255632   2.056   1.328  16.227  0.2947  0.9522  0.1605
11381TIP3   OH255633   1.402   6.195   4.064  0.4756 -0.2844  0.2977
11381TIP3    H155634   1.418   6.172   4.156  0.1474 -0.7623  0.2420
11381TIP3    H255635   1.327   6.255   4.067 -0.5424 -1.5015  0.2475
11382TIP3   OH255636   1.129   0.432  14.018 -0.7186  0.0693 -0.4438
11382TIP3    H155637   1.073   0.402  14.090 -0.7309 -1.0919 -0.9138
11382TIP3    H255638   1.218   0.409  14.047 -0.6927 -0.0850 -0.6480
11383TIP3   OH255639   2.544   0.628  14.370 -0.0604  0.0622 -0.0900
11383TIP3    H155640   2.452   0.655  14.370 -0.2379 -0.5003 -1.3784
11383TIP3    H255641   2.543   0.536  14.397 -0.2049 -0.8503 -2.9497
11384TIP3   OH255642   3.651   3.411  13.318  0.2298 -0.2846 -0.0845
11384TIP3    H155643   3.639   3.476  13.387  0.7323  0.7546 -0.9358
11384TIP3    H255644   3.674   3.330  13.364 -0.8641  0.0121  1.0250
11385TIP3   OH255645   1.311   0.280  15.639 -0.1711  0.7739  0.3862
11385TIP3    H155646   1.281   0.189  15.635 -1.4752  1.2117  0.1055
11385TIP3    H255647   1.332   0.293  15.732 -0.9620  0.4896  0.6137
11386TIP3   OH255648   0.323   4.912   6.752 -0.3134 -0.4557  0.1104
11386TIP3    H155649   0.370   4.913   6.669 -0.3881 -1.0375  0.0529
11386TIP3    H255650   0.391   4.916   6.819 -0.2624  0.1934  0.0237
11387TIP3   OH255651   6.758   1.593   3.834  0.0380 -0.3086  0.0299
11387TIP3    H155652   6.728   1.573   3.922  2.3902  0.3790  1.0809
11387TIP3    H255653   6.749   1.688   3.827 -2.4543 -0.5583 -1.4838
11388TIP3   OH255654   6.592   6.637   0.976 -1.0028  0.3403 -0.6351
11388TIP3    H155655   6.572   6.728   0.954  1.9444  2.0345  2.6481
11388TIP3    H255656   6.535   6.617   1.049 -0.7359  0.0109 -0.5151
11389TIP3   OH255657   2.443   4.762   3.086  0.1322 -0.4497 -0.9738
11389TIP3    H155658   2.478   4.696   3.026  0.1685 -0.8746 -0.4851
11389TIP3    H255659   2.351   4.738   3.097 -0.0084 -0.0624 -1.2698
11390TIP3   OH255660   1.459   1.142  14.949  0.2087 -0.2080 -0.5976
11390TIP3    H155661   1.367   1.165  14.965  0.7682  1.5862  0.3273
11390TIP3    H255662   1.455   1.070  14.887 -1.7969  0.5003 -1.3769
11391TIP3   OH255663   5.585   2.758  15.485 -0.3748 -0.1709 -0.3647
11391TIP3    H155664   5.563   2.812  15.562  0.7728  0.1457 -0.2278
11391TIP3    H255665   5.662   2.801  15.448  0.7843 -1.9000 -0.0550
11392TIP3   OH255666   6.734   5.183  15.219  0.5057  0.1767  0.6629
11392TIP3    H155667   6.647   5.171  15.258 -0.2317  1.0943 -0.6630
11392TIP3    H255668   6.766   5.266  15.255 -0.0050  0.8225 -0.3614
11393TIP3   OH255669   5.600   0.900  15.948  0.3676 -0.0442  0.6406
11393TIP3    H155670   5.662   0.970  15.927  2.2472 -1.8397 -0.0929
11393TIP3    H255671   5.515   0.944  15.951  1.6033  2.4641  1.4339
11394TIP3   OH255672   6.244   5.638   3.208 -0.4015  0.0416 -0.2026
11394TIP3    H155673   6.209   5.549   3.206  0.6368 -0.3760 -0.6140
11394TIP3    H255674   6.273   5.654   3.118  0.2841  0.4288  0.0743
11395TIP3   OH255675   0.486   5.637   2.576  0.1115  0.2235 -0.5183
11395TIP3    H155676   0.413   5.588   2.540  0.2683 -1.3999  1.1933
11395TIP3    H255677   0.445   5.704   2.631 -0.1112 -0.3681  0.0478
11396TIP3   OH255678   5.811   4.559   5.353  0.4028 -0.2797  0.0671
11396TIP3    H155679   5.726   4.580   5.317 -0.5110  3.0731  3.4788
11396TIP3    H255680   5.873   4.581   5.284 -1.3411  1.7234 -0.9684
11397TIP3   OH255681   4.263   1.485   4.588 -0.1228  0.1555 -0.0829
11397TIP3    H155682   4.289   1.478   4.680  0.8314  1.1266 -0.2604
11397TIP3    H255683   4.198   1.555   4.587 -1.3106 -0.9153  0.0624
11398TIP3   OH255684   0.309   4.113   1.455 -0.8606 -0.2943  0.0156
11398TIP3    H155685   0.322   4.203   1.426  0.4151 -0.4338  0.0947
11398TIP3    H255686   0.395   4.072   1.445 -1.1792 -1.2235  0.9549
11399TIP3   OH255687   5.523   1.116  15.692  0.4071 -0.1504  0.5808
11399TIP3    H155688   5.483   1.112  15.779 -0.4887 -0.3515  0.1773
11399TIP3    H255689   5.450   1.134  15.633  1.1188  0.7566 -0.0549
11400TIP3   OH255690   3.773   4.731  12.120  0.9149  0.5750  0.3577
11400TIP3    H155691   3.678   4.729  12.131  0.9363  0.3361  0.5120
11400TIP3    H255692   3.788   4.702  12.030  0.8346  0.7324  0.2942
11401TIP3   OH255693   0.548   3.713   0.978 -0.3768 -0.1855 -0.0117
11401TIP3    H155694   0.524   3.757   1.060 -0.4038  1.6230 -0.9558
11401TIP3    H255695   0.470   3.720   0.923 -0.4489 -1.6188 -0.1269
11402TIP3   OH255696   4.852   4.457   1.452  0.1403 -0.4130  0.2368
11402TIP3    H155697   4.943   4.431   1.436 -0.5425 -1.9320 -1.5781
11402TIP3    H255698   4.801   4.377   1.437 -1.5915  0.6348  0.2263
11403TIP3   OH255699   0.355   1.397  16.586  0.7489  0.4609  0.4143
11403TIP3    H155700   0.377   1.327  16.649 -1.3200 -0.2425  0.4354
11403TIP3    H255701   0.269   1.428  16.614 -1.2800 -1.2676 -3.1242
11404TIP3   OH255702   3.148   5.822   1.035  0.3301 -0.3113  0.0529
11404TIP3    H155703   3.066   5.868   1.014  1.4448  0.9012 -1.9461
11404TIP3    H255704   3.168   5.849   1.125 -0.9338  0.1827  0.2041
11405TIP3   OH255705   6.808   3.913  15.293  0.1349  0.2420  0.0983
11405TIP3    H155706   6.867   3.899  15.219 -0.0253 -0.6805  0.1261
11405TIP3    H255707   6.828   4.001  15.324  0.5638  0.4440 -0.7206
11406TIP3   OH255708   2.265   5.347   2.568 -0.4875 -0.2381 -0.5899
11406TIP3    H155709   2.221   5.296   2.500 -0.8862 -0.3829 -0.2278
11406TIP3    H255710   2.351   5.305   2.577 -0.1144  0.2940 -1.5746
11407TIP3   OH255711   1.867   2.481  13.184  0.1001 -0.2885  0.7708
11407TIP3    H155712   1.773   2.494  13.197  0.1130 -0.2467  0.8254
11407TIP3    H255713   1.875   2.388  13.162 -0.2442  0.2682 -1.9944
11408TIP3   OH255714   1.762   6.307   3.332  0.0680 -0.2929 -0.2131
11408TIP3    H155715   1.804   6.250   3.268 -0.5052 -1.2089  0.2020
11408TIP3    H255716   1.704   6.363   3.281 -0.1591 -0.8124 -0.5363
11409TIP3   OH255717   2.373   3.769   6.243  0.1552  0.1360  0.1415
11409TIP3    H155718   2.327   3.686   6.236 -2.1044  1.4429 -1.6420
11409TIP3    H255719   2.325   3.818   6.310 -0.0772  0.9240 -0.5875
11410TIP3   OH255720   0.694   1.507  13.449  0.3015 -0.0732 -0.2311
11410TIP3    H155721   0.634   1.555  13.506 -1.4843 -1.0399 -1.2025
11410TIP3    H255722   0.668   1.415  13.460  1.5072 -0.4960 -0.8069
11411TIP3   OH255723   6.279   3.201   1.779 -0.3909  0.2676  0.3227
11411TIP3    H155724   6.299   3.294   1.767 -0.7340  0.3045  0.0456
11411TIP3    H255725   6.338   3.157   1.717  0.1915  0.2620  0.8708
11412TIP3   OH255726   0.257   5.559  15.870 -0.2187  0.1961 -0.6681
11412TIP3    H155727   0.183   5.620  15.869 -0.4354 -0.0657 -0.6970
11412TIP3    H255728   0.300   5.573  15.785  1.0333  1.8752  0.1811
11413TIP3   OH255729   5.474   0.551   3.405  0.0438 -0.1013  0.1189
11413TIP3    H155730   5.428   0.635   3.407 -0.0838 -0.1306 -0.8684
11413TIP3    H255731   5.563   0.573   3.376  0.3821 -0.1607  1.0889
11414TIP3   OH255732   5.064   0.157   1.071  0.4122 -0.0353 -0.7636
11414TIP3    H155733   5.131   0.123   1.012  1.3163  1.1634 -0.4620
11414TIP3    H255734   5.093   0.246   1.092 -0.7478  0.1462  0.1826
11415TIP3   OH255735   2.878   5.170  16.776  0.5604 -0.1871 -0.2648
11415TIP3    H155736   2.810   5.130  16.721  0.9116 -1.1501 -0.0106
11415TIP3    H255737   2.901   5.102  16.839  0.3913  0.7986  0.8976
11416TIP3   OH255738   6.538   2.085  13.999  0.7512 -0.0298  0.5363
11416TIP3    H155739   6.564   2.148  14.066 -0.2623 -0.4737  1.3856
11416TIP3    H255740   6.556   2.000  14.039 -0.3534 -0.3072  0.4656
11417TIP3   OH255741   5.350   2.594  15.952  0.1177 -0.5308 -0.2348
11417TIP3    H155742   5.376   2.682  15.980 -0.0099 -0.8194  0.8225
11417TIP3    H255743   5.414   2.537  15.994 -0.8510 -1.0770  0.5141
11418TIP3   OH255744   5.382   3.678  10.694  0.0094  0.4999 -0.0913
11418TIP3    H155745   5.393   3.723  10.778 -1.8059  3.0905 -1.1141
11418TIP3    H255746   5.416   3.739  10.629  0.3538 -0.9857 -1.3769
11419TIP3   OH255747   2.306   3.932  14.899 -0.2614 -0.6069  0.4391
11419TIP3    H155748   2.221   3.888  14.893 -2.1676  2.3792  2.5936
11419TIP3    H255749   2.324   3.934  14.993  0.9390  0.9917  0.2040
11420TIP3   OH255750   4.947   1.505   0.594 -0.2414 -0.4969  0.2070
11420TIP3    H155751   4.978   1.463   0.514 -1.2348 -1.2524  0.1992
11420TIP3    H255752   4.980   1.449   0.665 -0.1798 -0.3702  0.2786
11421TIP3   OH255753   3.587   2.644   0.271 -0.1920 -0.4202 -0.1533
11421TIP3    H155754   3.631   2.593   0.203  1.7104  1.7191 -0.6600
11421TIP3    H255755   3.611   2.601   0.353 -0.1040 -1.3294 -0.6439
11422TIP3   OH255756   3.406   0.342  16.127  0.7803 -0.4192  0.3628
11422TIP3    H155757   3.481   0.289  16.157  1.4756  0.0806 -0.4469
11422TIP3    H255758   3.400   0.323  16.034 -0.6702 -1.1178  0.5790
11423TIP3   OH255759   1.025   2.705  13.171 -0.6800 -0.1702 -0.2340
11423TIP3    H155760   0.980   2.653  13.105 -2.4113  0.2942  0.5187
11423TIP3    H255761   1.015   2.796  13.142  2.8022 -0.1095 -1.8416
11424TIP3   OH255762   2.034   1.105   5.085 -0.4358  0.4982 -0.5627
11424TIP3    H155763   1.977   1.178   5.060  0.1081  0.8331 -0.8339
11424TIP3    H255764   2.001   1.030   5.036  0.2736  1.0194 -1.8774
11425TIP3   OH255765   1.154   5.021   0.995 -0.5777 -0.4990 -0.1322
11425TIP3    H155766   1.224   5.049   0.937 -1.5990  1.9704 -0.3081
11425TIP3    H255767   1.077   5.013   0.938 -0.8121 -1.6920  0.3094
11426TIP3   OH255768   3.698   3.824   1.780 -0.5235  0.0220 -0.2452
11426TIP3    H155769   3.686   3.784   1.694 -0.7317 -1.8213  0.5996
11426TIP3    H255770   3.610   3.837   1.814 -0.4830  1.7051 -0.6853
11427TIP3   OH255771   4.948   5.805  17.051 -0.0548 -0.0275 -0.5478
11427TIP3    H155772   5.039   5.790  17.027 -0.5231 -1.6233 -1.4147
11427TIP3    H255773   4.901   5.811  16.968 -0.6199  1.8935 -0.1473
11428TIP3   OH255774   1.820   0.461  15.130  0.5531  0.3983  0.3729
11428TIP3    H155775   1.739   0.471  15.181 -0.3718  1.7046 -1.2351
11428TIP3    H255776   1.883   0.517  15.175  0.8348 -1.2043  2.0781
11429TIP3   OH255777   0.122   3.139  11.366 -0.2212  0.2671 -0.5428
11429TIP3    H155778   0.199   3.135  11.422 -0.6406  1.5279  0.1955
11429TIP3    H255779   0.156   3.149  11.277  0.4521 -0.6101 -0.3952
11430TIP3   OH255780   0.704   4.561  15.754  0.5829  0.0083  0.3606
11430TIP3    H155781   0.651   4.637  15.731  0.8654 -0.2647 -1.3784
11430TIP3    H255782   0.657   4.518  15.826 -1.3697 -0.0176 -0.8643
11431TIP3   OH255783   3.847   2.462  16.985 -0.0066 -0.4661 -0.1378
11431TIP3    H155784   3.858   2.541  16.932 -3.4559 -0.5149 -1.1553
11431TIP3    H255785   3.887   2.484  17.069 -1.3805  2.6340 -0.1539
11432TIP3   OH255786   5.062   0.913   2.733 -0.3904 -0.0010  0.4157
11432TIP3    H155787   5.127   0.861   2.780  0.8986  1.3236  0.1419
11432TIP3    H255788   4.996   0.934   2.800 -1.7679 -3.1389  0.2303
11433TIP3   OH255789   2.441   3.954  16.665  0.3316  0.4909  0.2320
11433TIP3    H155790   2.495   4.012  16.611  0.6807 -0.9365 -1.0184
11433TIP3    H255791   2.476   3.867  16.648 -1.3977 -0.3064  0.6038
11434TIP3   OH255792   5.854   5.754  15.755  0.6664 -0.3399 -0.1809
11434TIP3    H155793   5.946   5.750  15.780  0.8633 -1.3221 -1.0044
11434TIP3    H255794   5.808   5.707  15.825  0.7412  0.3555  0.3548
11435TIP3   OH255795   6.762   2.475   4.698  0.3388  0.4439 -0.6676
11435TIP3    H155796   6.839   2.421   4.719 -0.8388  0.3419  5.3978
11435TIP3    H255797   6.782   2.560   4.738 -2.3984  0.5233  0.7811
11436TIP3   OH255798   3.541   5.903  15.813  0.0861  0.6829 -0.1420
11436TIP3    H155799   3.530   5.992  15.780 -0.5625  1.2454  1.4616
11436TIP3    H255800   3.482   5.850  15.759  0.5155  1.2020 -1.1457
11437TIP3   OH255801   3.943   6.576  11.772 -0.3327  0.1052 -0.1161
11437TIP3    H155802   3.885   6.647  11.744 -0.5388  0.2563  0.6661
11437TIP3    H255803   3.990   6.612  11.847 -0.7308 -0.7185  0.5456
11438TIP3   OH255804   3.660   4.385  14.663 -0.8603 -0.0233 -0.6752
11438TIP3    H155805   3.656   4.464  14.717 -0.7836 -0.3088 -0.2425
11438TIP3    H255806   3.740   4.396  14.611 -0.6095 -0.0108 -0.2973
11439TIP3   OH255807   4.054   5.067   5.395 -0.3624  0.2670 -0.6151
11439TIP3    H155808   4.033   5.089   5.305  0.8969 -2.0179 -1.5724
11439TIP3    H255809   4.135   5.016   5.389  0.0100  0.4124  1.8637
11440TIP3   OH255810   6.062   2.209   0.905  0.6940 -0.5039 -0.1108
11440TIP3    H155811   6.099   2.235   0.990  1.1316  0.4324 -0.5680
11440TIP3    H255812   5.999   2.278   0.885 -0.2437 -1.3180 -0.0311
11441TIP3   OH255813   2.960   6.179  14.106  0.7927  0.3458 -0.2439
11441TIP3    H155814   2.908   6.197  14.027 -0.2915 -2.0839 -0.1575
11441TIP3    H255815   2.928   6.243  14.170  1.4465  2.1254 -1.6015
11442TIP3   OH255816   1.609   4.042  13.800 -0.0672 -0.0676 -0.7922
11442TIP3    H155817   1.609   3.947  13.789 -0.4458 -0.5557  2.5189
11442TIP3    H255818   1.517   4.066  13.807  0.0695  0.0492  1.2560
11443TIP3   OH255819   0.794   3.152  15.458  0.3228  0.3498 -0.0023
11443TIP3    H155820   0.802   3.067  15.415  1.2775  0.5923 -0.3332
11443TIP3    H255821   0.705   3.181  15.438 -0.7765 -1.4701  1.8452
11444TIP3   OH255822   6.316   1.338  15.994  0.3265  0.1639 -0.1355
11444TIP3    H155823   6.298   1.359  15.902 -0.8420 -2.1883 -0.5337
11444TIP3    H255824   6.411   1.323  15.997  0.3256 -0.0844 -1.0499
11445TIP3   OH255825   0.664   0.310  12.362  0.2024  0.0643 -0.1836
11445TIP3    H155826   0.647   0.370  12.290  0.3528 -0.3070 -0.5341
11445TIP3    H255827   0.587   0.254  12.366 -0.0924  0.5015  0.3707
11446TIP3   OH255828   2.817   5.174  12.603 -0.0603  0.7325  0.2379
11446TIP3    H155829   2.808   5.203  12.694  1.0335  1.3538  0.1590
11446TIP3    H255830   2.842   5.253  12.555 -1.2987  0.5590 -0.7345
11447TIP3   OH255831   1.649   0.999   4.327  0.0765  0.1976 -0.7767
11447TIP3    H155832   1.623   0.948   4.403 -1.1649  1.7667 -0.0903
11447TIP3    H255833   1.704   0.940   4.276  0.4452 -1.0962  1.0180
11448TIP3   OH255834   4.420   2.858  13.427  0.6026 -0.4506 -0.2868
11448TIP3    H155835   4.357   2.787  13.420 -0.3787  0.1506  1.6047
11448TIP3    H255836   4.478   2.832  13.499  0.6224  0.3538  0.0096
11449TIP3   OH255837   4.372   1.613   5.659 -0.0264 -0.0536 -0.2506
11449TIP3    H155838   4.361   1.630   5.566  1.6298 -2.6052 -1.0071
11449TIP3    H255839   4.390   1.519   5.665  3.6701  0.6127  2.2433
11450TIP3   OH255840   3.936   4.148   4.939 -0.5735  0.1990 -0.0376
11450TIP3    H155841   3.865   4.210   4.925  0.1733  1.0332 -0.2452
11450TIP3    H255842   3.920   4.112   5.026 -0.5058  1.4087  0.5003
11451TIP3   OH255843   5.848   3.292   4.200 -0.0793  0.4059  0.4040
11451TIP3    H155844   5.800   3.349   4.140  0.9841  1.0342  0.1087
11451TIP3    H255845   5.784   3.267   4.267 -0.7251  1.4898  0.2169
11452TIP3   OH255846   0.678   5.171   1.446 -0.1089  0.1723  0.1779
11452TIP3    H155847   0.772   5.189   1.435 -0.0547 -0.1312  0.1485
11452TIP3    H255848   0.661   5.187   1.538  0.0397 -0.0871  0.2511
11453TIP3   OH255849   5.284   0.640   1.667 -0.4172 -0.4710 -0.1811
11453TIP3    H155850   5.264   0.562   1.720  2.3261 -2.0852 -1.2917
11453TIP3    H255851   5.376   0.658   1.685 -0.6929  1.8492 -0.8596
11454TIP3   OH255852   3.252   5.463  13.222 -0.5920 -0.3852 -0.2059
11454TIP3    H155853   3.249   5.559  13.231  1.1543 -0.1970 -1.1776
11454TIP3    H255854   3.253   5.449  13.127  0.0819 -1.3145 -0.0708
11455TIP3   OH255855   4.840   4.092   3.278  0.2136  0.0856 -0.4751
11455TIP3    H155856   4.899   4.023   3.249 -0.1736 -0.5424  0.1867
11455TIP3    H255857   4.752   4.053   3.270  0.0797 -0.1377  1.4730
11456TIP3   OH255858   3.058   3.822  14.119  0.6985  0.1728 -0.2857
11456TIP3    H155859   2.972   3.841  14.156 -0.7031 -0.8813 -2.7370
11456TIP3    H255860   3.118   3.831  14.193 -1.5264  0.6058  1.6112
11457TIP3   OH255861   6.203   0.434   5.826  0.2579  0.0353  0.1654
11457TIP3    H155862   6.181   0.383   5.748  1.3719  0.2359 -0.3086
11457TIP3    H255863   6.136   0.412   5.889 -1.3672  0.7513 -1.2377
11458TIP3   OH255864   5.496   4.549  13.849  0.3248  0.2441 -0.2329
11458TIP3    H155865   5.526   4.459  13.834  0.5931  0.5608 -1.6771
11458TIP3    H255866   5.402   4.539  13.867  0.7594 -0.5190  1.9963
11459TIP3   OH255867   2.993   3.617   4.661 -0.4964 -0.0682 -0.7968
11459TIP3    H155868   3.023   3.680   4.595 -0.9564  0.1714 -0.7834
11459TIP3    H255869   3.050   3.632   4.736  0.8900 -1.2148 -1.5533
11460TIP3   OH255870   3.309   0.049  14.431  0.3374 -0.2470 -0.8748
11460TIP3    H155871   3.339  -0.042  14.436 -0.6146 -0.5340 -0.1776
11460TIP3    H255872   3.339   0.078  14.345 -1.7410 -2.1271 -2.3647
11461TIP3   OH255873   3.304   3.414   4.391  0.6558  0.2324  0.1595
11461TIP3    H155874   3.385   3.364   4.403  1.4232  1.1382 -1.0204
11461TIP3    H255875   3.280   3.442   4.480  1.1122 -0.8248  0.6360
11462TIP3   OH255876   2.099   3.099   3.367  0.2669 -0.0135 -0.3690
11462TIP3    H155877   2.087   3.154   3.289  2.1332  0.6671 -0.2338
11462TIP3    H255878   2.191   3.074   3.364 -0.2110 -1.9979  0.3433
11463TIP3   OH255879   5.978   6.124   4.451 -0.2090 -0.5415 -0.0682
11463TIP3    H155880   6.007   6.048   4.400  0.0209  1.1660 -2.6487
11463TIP3    H255881   6.055   6.149   4.502  0.1169 -1.2465 -0.1974
11464TIP3   OH255882   0.004   2.339  12.107 -0.1190  0.0150  0.0533
11464TIP3    H155883  -0.041   2.381  12.034  0.8927  1.4501  0.2090
11464TIP3    H255884  -0.052   2.266  12.131 -0.9236  0.0564 -1.5692
11465TIP3   OH255885   2.489   0.328   5.713 -0.7006 -0.4932 -0.2965
11465TIP3    H155886   2.537   0.247   5.727 -0.8386 -0.6936 -0.9634
11465TIP3    H255887   2.544   0.395   5.754 -0.1728 -0.8055 -0.4775
11466TIP3   OH255888   5.806   5.529   0.172  0.1938  0.5198  0.1396
11466TIP3    H155889   5.768   5.581   0.243 -0.3779 -0.4053  0.5312
11466TIP3    H255890   5.851   5.458   0.217  2.7836  1.7814 -0.2903
11467TIP3   OH255891   2.120   0.831  11.730 -0.1904  0.0081 -0.3649
11467TIP3    H155892   2.041   0.809  11.680 -1.8520  0.7778  1.7699
11467TIP3    H255893   2.112   0.780  11.811  0.4961  1.5392  0.7132
11468TIP3   OH255894   6.061   0.729  15.273 -0.1677  0.5922  0.2505
11468TIP3    H155895   6.051   0.792  15.202 -2.0863  0.9530  0.7734
11468TIP3    H255896   5.981   0.677  15.271 -1.2832  1.9497  3.3529
11469TIP3   OH255897   2.521   2.942   4.670  0.0197  0.2719  0.2057
11469TIP3    H155898   2.499   2.942   4.577 -0.9073  0.9498  0.4114
11469TIP3    H255899   2.489   3.026   4.703 -1.6525 -0.8385  1.5874
11470TIP3   OH255900   2.602   3.397   3.462  0.1920 -0.3031 -0.5036
11470TIP3    H155901   2.632   3.406   3.372  0.5369 -2.7783 -0.6913
11470TIP3    H255902   2.526   3.455   3.468  1.7077  1.9629 -1.5618
11471TIP3   OH255903   4.346   3.791  11.601  0.5493  0.3112  0.6733
11471TIP3    H155904   4.263   3.832  11.575 -0.4572 -0.4630  2.5169
11471TIP3    H255905   4.351   3.713  11.546 -0.1539  0.1546  0.8187
11472TIP3   OH255906   5.289   4.891  14.897  0.6776 -0.4212  0.1999
11472TIP3    H155907   5.276   4.891  14.802  1.2084  0.0993  0.1202
11472TIP3    H255908   5.371   4.844  14.910  0.5933 -0.5138  0.4124
11473TIP3   OH255909   2.661   1.693  11.903  0.2541 -0.0848  0.4443
11473TIP3    H155910   2.742   1.734  11.874  0.5769 -0.9000  0.1483
11473TIP3    H255911   2.598   1.764  11.907  0.5967  0.3160 -0.8063
11474TIP3   OH255912   1.830   2.647   4.845 -0.3018 -0.4782  0.4503
11474TIP3    H155913   1.810   2.727   4.796  2.6541  0.6223  0.8388
11474TIP3    H255914   1.842   2.677   4.936  1.4225 -1.2007  0.4983
11475TIP3   OH255915   6.660   5.377   3.267 -0.6838 -0.2463  0.3845
11475TIP3    H155916   6.702   5.291   3.261 -0.1591  0.0469 -0.3199
11475TIP3    H255917   6.567   5.358   3.276 -0.9161 -0.9102 -2.3894
11476TIP3   OH255918   1.404   2.627  14.369  0.1229 -0.0345  0.2088
11476TIP3    H155919   1.328   2.675  14.402  0.0586 -0.1004  0.1560
11476TIP3    H255920   1.399   2.542  14.413 -0.8645 -0.7295 -1.1864
11477TIP3   OH255921   1.203   2.702   6.048 -0.0995 -0.1016  0.2316
11477TIP3    H155922   1.144   2.778   6.050  2.9035  2.7487 -3.3252
11477TIP3    H255923   1.187   2.662   5.963  0.8765 -1.1950  0.5403
11478TIP3   OH255924   5.265   5.056  17.054  0.2256  0.4429  0.0316
11478TIP3    H155925   5.303   4.993  17.115 -0.0881 -0.0499 -0.2755
11478TIP3    H255926   5.170   5.050  17.070  0.1686  0.5712 -0.2551
11479TIP3   OH255927   0.189   2.725   0.329  0.6722 -0.5903  0.2383
11479TIP3    H155928   0.108   2.771   0.349  0.7688  0.3240 -1.3142
11479TIP3    H255929   0.254   2.763   0.388  0.4666  0.3465 -0.1235
11480TIP3   OH255930   5.649   3.974  12.760 -0.2692  0.0742 -0.3052
11480TIP3    H155931   5.711   3.903  12.743 -0.0810 -0.2857  1.6553
11480TIP3    H255932   5.568   3.930  12.785 -0.5691  0.5529 -0.4143
11481TIP3   OH255933   5.649   1.010   2.693 -0.8111  0.2188  0.3365
11481TIP3    H155934   5.705   1.077   2.653  0.2059 -0.1015  1.1714
11481TIP3    H255935   5.641   0.942   2.627  1.0658 -0.4302  0.7297
11482TIP3   OH255936   0.660   5.229  14.332 -0.0630 -0.4637 -0.4808
11482TIP3    H155937   0.593   5.177  14.288  0.9085 -1.0081 -1.3806
11482TIP3    H255938   0.712   5.266  14.260  1.2276 -0.9290  0.1756
11483TIP3   OH255939   4.057   4.894  12.268  0.5192 -0.4841  0.2587
11483TIP3    H155940   4.087   4.843  12.343  0.5725 -2.0134 -0.7538
11483TIP3    H255941   4.117   4.870  12.197  0.2752  0.6726 -0.3553
11484TIP3   OH255942   5.467   4.447  13.046  0.1843  0.0617 -0.5121
11484TIP3    H155943   5.462   4.497  13.127  0.4251 -0.3717 -0.2240
11484TIP3    H255944   5.447   4.510  12.977  0.0599  0.4509 -0.1211
11485TIP3   OH255945   1.910   1.547  15.108 -0.1748 -0.4079 -0.4317
11485TIP3    H155946   1.840   1.549  15.173  1.5076  0.0345  1.4352
11485TIP3    H255947   1.946   1.635  15.108  1.9846 -1.2148  0.5154
11486TIP3   OH255948   4.656   4.481  11.992  0.0621 -0.2138 -0.1490
11486TIP3    H155949   4.690   4.392  12.005  0.3295 -0.0367  0.3962
11486TIP3    H255950   4.574   4.483  12.041  1.8095  0.9174  3.0019
11487TIP3   OH255951   4.420   3.690  13.018  0.2196 -0.2568 -0.2119
11487TIP3    H155952   4.418   3.786  13.009  0.0308 -0.0366  1.6990
11487TIP3    H255953   4.328   3.664  13.016 -0.1878  0.2080  3.7786
11488TIP3   OH255954   6.593   2.204   0.783  0.4591 -0.4886  0.4956
11488TIP3    H155955   6.614   2.111   0.785 -0.0329 -0.7279 -1.9571
11488TIP3    H255956   6.498   2.207   0.786  0.4795  0.1885  3.9531
11489TIP3   OH255957   2.486   1.075  11.882 -0.8511 -0.2721 -0.6933
11489TIP3    H155958   2.527   1.118  11.957  1.4026 -0.8496 -1.5219
11489TIP3    H255959   2.419   1.018  11.921  0.6003 -0.9396  0.9572
11490TIP3   OH255960   3.417   4.374  14.963 -0.8564  0.2438 -0.2946
11490TIP3    H155961   3.410   4.328  14.880  2.8973  1.5699 -1.5661
11490TIP3    H255962   3.434   4.305  15.028 -0.1158 -0.5628 -1.3210
11491TIP3   OH255963   2.334   5.156  16.853 -0.3025  1.1239  0.1776
11491TIP3    H155964   2.270   5.125  16.917 -0.7003 -0.6535 -0.9983
11491TIP3    H255965   2.282   5.208  16.791 -0.2922  1.1067  0.1561
11492TIP3   OH255966   2.716   3.982  11.244 -0.0041  0.1420 -0.2978
11492TIP3    H155967   2.732   3.984  11.338  1.8465 -0.0547 -0.5789
11492TIP3    H255968   2.796   4.017  11.204 -0.5270 -0.2926 -1.8142
11493TIP3   OH255969   3.311   4.854   3.201 -0.3020  0.2670 -0.4029
11493TIP3    H155970   3.261   4.873   3.280  0.4626 -0.6481  0.3388
11493TIP3    H255971   3.332   4.939   3.163 -0.2614  0.7425  0.6661
11494TIP3   OH255972   5.959   3.893  13.121 -0.1744  0.3025 -0.1375
11494TIP3    H155973   5.999   3.976  13.147 -0.1330  0.0818  0.5393
11494TIP3    H255974   5.879   3.918  13.076 -0.2778  0.7075  0.2653
11495TIP3   OH255975   1.098   1.202  13.735  0.7411  0.4085  0.5619
11495TIP3    H155976   1.060   1.214  13.649  1.7825 -0.4381 -0.0415
11495TIP3    H255977   1.040   1.141  13.780  0.7760  0.0067  0.0611
11496TIP3   OH255978   1.373   6.718  11.874 -0.4652  0.2565  0.0544
11496TIP3    H155979   1.392   6.802  11.831 -0.2419  0.4571  0.5318
11496TIP3    H255980   1.416   6.725  11.960  2.0773 -1.4621 -0.9646
11497TIP3   OH255981   4.146   6.799  17.069  0.0013  0.1141 -0.2631
11497TIP3    H155982   4.193   6.874  17.034  0.3135  0.2271  0.3815
11497TIP3    H255983   4.186   6.723  17.025  0.2687  0.2639 -0.2818
11498TIP3   OH255984   4.751   0.175  12.084  0.1347  0.6136 -0.3857
11498TIP3    H155985   4.679   0.140  12.136 -0.5548 -0.0246 -1.7213
11498TIP3    H255986   4.826   0.120  12.108  0.3735  1.6412  1.4301
11499TIP3   OH255987   5.694   2.309  16.264  0.5301  0.2769 -0.2065
11499TIP3    H155988   5.730   2.263  16.340  0.6066  1.4885  0.5310
11499TIP3    H255989   5.764   2.306  16.199  1.3700  1.1559  0.6096
11500TIP3   OH255990   4.629   6.246   6.285 -0.3425  0.0808  0.0351
11500TIP3    H155991   4.605   6.335   6.257 -0.9052 -0.4033 -1.0805
11500TIP3    H255992   4.603   6.242   6.377 -2.5344  0.3065 -0.5306
11501TIP3   OH255993   0.604   0.444   5.448  0.3496 -0.4008 -0.1854
11501TIP3    H155994   0.582   0.384   5.519  0.0855 -0.0283  0.0560
11501TIP3    H255995   0.612   0.389   5.371 -0.1642 -0.7109 -0.0232
11502TIP3   OH255996   3.584   4.923   2.665  0.4455 -0.5131 -0.1686
11502TIP3    H155997   3.662   4.978   2.651 -0.1702  0.0470 -1.5845
11502TIP3    H255998   3.608   4.838   2.627 -0.0040 -0.0065 -1.6461
11503TIP3   OH255999   3.574   6.809   4.551 -0.1097  0.7413 -0.3506
11503TIP3    H156000   3.606   6.768   4.631 -0.6258 -0.6243 -0.8089
11503TIP3    H256001   3.645   6.867   4.523 -0.3129  2.0199  1.6094
11504TIP3   OH256002   4.187   4.284  17.196  0.2263 -0.0841 -0.1590
11504TIP3    H156003   4.164   4.359  17.251 -0.6442 -0.2178 -0.3340
11504TIP3    H256004   4.104   4.239  17.180  0.6359 -0.6837 -0.6488
11505TIP3   OH256005   6.017   4.197  11.730 -0.1741  0.1261  0.0033
11505TIP3    H156006   6.016   4.213  11.825 -1.4579  1.9896 -0.2630
11505TIP3    H256007   6.107   4.173  11.711 -0.1649 -1.6187  1.8709
11506TIP3   OH256008   2.053   4.366  13.109  0.4188  0.4046  0.1047
11506TIP3    H156009   2.076   4.457  13.130 -1.1909  0.5311  1.5104
11506TIP3    H256010   2.105   4.314  13.170  0.7755  0.4040 -0.1934
11507TIP3   OH256011   5.540   3.451   1.229 -0.1706  0.2045  0.6792
11507TIP3    H156012   5.621   3.450   1.280 -0.1369 -1.1793  0.6336
11507TIP3    H256013   5.528   3.360   1.202 -0.2859  0.8546 -1.6303
11508TIP3   OH256014   0.629   3.734   3.823  0.5403  1.2019 -0.0071
11508TIP3    H156015   0.535   3.718   3.829  0.6537  0.5241 -0.0115
11508TIP3    H256016   0.654   3.698   3.738  0.4532  3.1938 -0.9243
11509TIP3   OH256017   2.389   1.582  17.185  0.1028 -0.3745 -0.3945
11509TIP3    H156018   2.365   1.640  17.112  1.8491 -0.4428 -1.0673
11509TIP3    H256019   2.430   1.640  17.249 -0.5377 -0.4774  0.1221
11510TIP3   OH256020   4.084   4.032   3.091  0.3515 -0.1155 -0.2914
11510TIP3    H156021   4.034   4.007   3.168 -0.4535 -1.1290 -1.1149
11510TIP3    H256022   4.172   3.999   3.107  0.2667 -0.0431  0.3252
11511TIP3   OH256023   1.113   6.098   2.132 -0.5390  0.2632  0.2861
11511TIP3    H156024   1.173   6.171   2.118  2.7421 -2.3363 -0.4507
11511TIP3    H256025   1.046   6.109   2.064 -1.1343  3.3088  1.1865
11512TIP3   OH256026   3.764   1.720  11.682 -0.3655 -0.0437 -0.2067
11512TIP3    H156027   3.719   1.734  11.599  0.5516  0.5780 -0.6042
11512TIP3    H256028   3.770   1.807  11.722  1.6667  0.1055 -0.7818
11513TIP3   OH256029   5.453   6.604   1.125  0.3956 -0.3634 -0.3305
11513TIP3    H156030   5.367   6.598   1.166  1.3894 -1.8995  1.7352
11513TIP3    H256031   5.486   6.514   1.125  1.8605  0.1306 -1.4128
11514TIP3   OH256032   4.578   4.758  12.604  0.0191 -0.3166  0.0251
11514TIP3    H156033   4.647   4.733  12.543 -0.5752 -1.0635 -0.3621
11514TIP3    H256034   4.624   4.780  12.684  0.8617  1.2323 -0.8451
11515TIP3   OH256035   1.314   5.460  16.479  0.0607 -0.0240 -0.1275
11515TIP3    H156036   1.343   5.370  16.468  0.6703  0.0977  0.4141
11515TIP3    H256037   1.387   5.513  16.448 -0.2699  0.2847 -0.3857
11516TIP3   OH256038   4.794   5.261   2.527 -1.1816 -0.0226 -0.0896
11516TIP3    H156039   4.756   5.173   2.530 -2.5661  0.4848 -1.4676
11516TIP3    H256040   4.778   5.297   2.614 -2.2566 -0.4863 -0.0750
11517TIP3   OH256041   4.830   0.241  12.659 -0.4599  0.0282 -0.5335
11517TIP3    H156042   4.777   0.310  12.697 -0.0576  0.4424 -0.7188
11517TIP3    H256043   4.777   0.162  12.669 -0.1507  0.0006  1.4139
11518TIP3   OH256044   2.797   6.026  16.975 -0.4319 -0.0899 -0.0149
11518TIP3    H156045   2.889   6.039  17.000 -0.4380 -2.3862  1.4648
11518TIP3    H256046   2.801   5.973  16.896 -0.5158  2.1859 -1.6371
11519TIP3   OH256047   4.849   2.166  14.158 -0.3919 -0.4296  0.1022
11519TIP3    H156048   4.877   2.237  14.216 -0.4186  0.1131 -0.5371
11519TIP3    H256049   4.763   2.140  14.192 -0.5583  0.1085  0.1080
11520TIP3   OH256050   5.756   1.472   0.090  0.2194 -0.1265 -0.5634
11520TIP3    H156051   5.797   1.530   0.025  0.4079 -1.1307 -1.3703
11520TIP3    H256052   5.824   1.410   0.114 -0.0549 -0.1810  0.0898
11521TIP3   OH256053   1.301   3.941  12.143 -0.2467  0.8373  0.0044
11521TIP3    H156054   1.259   3.995  12.210 -3.4117 -0.3719 -0.8375
11521TIP3    H256055   1.361   3.885  12.191 -2.0692  0.3374  1.8245
11522TIP3   OH256056   0.935   0.762  12.759 -0.7435  0.6104  0.1791
11522TIP3    H156057   0.957   0.687  12.704  0.7466  0.9608  0.2415
11522TIP3    H256058   0.841   0.774  12.748 -0.5344  0.5148 -2.0750
11523TIP3   OH256059   2.739   4.839  15.304 -0.7944  0.1987  0.2702
11523TIP3    H156060   2.826   4.799  15.310 -0.3900  1.2360  1.9471
11523TIP3    H256061   2.738   4.881  15.218  1.4671  2.4905  1.2467
11524TIP3   OH256062   3.819   0.297   5.923 -0.1106 -0.0794  0.6243
11524TIP3    H156063   3.805   0.283   5.829 -1.9195 -0.6476  0.9330
11524TIP3    H256064   3.904   0.258   5.941  1.1446  1.6708 -1.0855
11525TIP3   OH256065   4.162   2.541   3.775 -0.3677 -0.4425  0.4141
11525TIP3    H156066   4.204   2.604   3.716  0.1473 -0.1221  1.1134
11525TIP3    H256067   4.161   2.585   3.860 -0.4817 -1.1747  0.7975
11526TIP3   OH256068   4.177   0.791  11.316  0.0453  0.5632 -0.5048
11526TIP3    H156069   4.231   0.829  11.386  0.9113  0.3560 -1.0405
11526TIP3    H256070   4.226   0.809  11.236 -1.7514  2.3538 -1.3136
11527TIP3   OH256071   6.641   4.102   0.873  0.3586  0.1320  0.4832
11527TIP3    H156072   6.665   4.192   0.851  0.3313  0.6216  2.2787
11527TIP3    H256073   6.580   4.111   0.946 -0.5313 -1.3195 -0.0384
11528TIP3   OH256074   0.227   3.925  17.070  0.1531  0.2474 -0.6003
11528TIP3    H156075   0.313   3.926  17.112  0.4670  1.0147 -1.2384
11528TIP3    H256076   0.166   3.906  17.142  0.3046  4.8034  1.0867
11529TIP3   OH256077   5.125   2.436  17.099  0.2952  0.4593 -0.1858
11529TIP3    H156078   5.125   2.350  17.141  0.4667  0.4610 -0.1822
11529TIP3    H256079   5.058   2.429  17.031 -0.3647  0.6283  0.4318
11530TIP3   OH256080   5.228   6.456   3.249  0.1916 -0.1641 -0.4173
11530TIP3    H156081   5.161   6.517   3.280  0.8415  0.4479 -0.2094
11530TIP3    H256082   5.306   6.509   3.238  0.5093 -0.7727 -1.1804
11531TIP3   OH256083   4.283   0.883  11.564  0.7770 -0.2663  0.5756
11531TIP3    H156084   4.355   0.904  11.504  0.2300  0.6371  0.1993
11531TIP3    H256085   4.298   0.792  11.589  0.2712 -1.1726 -2.0535
11532TIP3   OH256086   1.698   2.304   5.333  0.1304 -0.2861  0.1005
11532TIP3    H156087   1.714   2.393   5.366 -1.4833 -0.4911  1.5784
11532TIP3    H256088   1.659   2.258   5.407 -1.8594 -1.3562 -1.5260
11533TIP3   OH256089   1.456   5.156  16.994  0.7282 -0.0043 -0.0634
11533TIP3    H156090   1.392   5.096  16.954 -0.1331 -0.9807  2.5872
11533TIP3    H256091   1.405   5.209  17.055  1.9778  1.4629 -0.2240
11534TIP3   OH256092   6.137   3.428   2.673 -0.0264  0.6426 -0.1975
11534TIP3    H156093   6.093   3.478   2.605 -2.4592  0.7082  1.3091
11534TIP3    H256094   6.230   3.441   2.656 -0.5391  1.1691 -3.0819
11535TIP3   OH256095   2.289   0.737  14.371  0.1849 -0.2682 -0.1429
11535TIP3    H156096   2.267   0.739  14.464 -0.0432  0.7975 -0.1988
11535TIP3    H256097   2.206   0.758  14.327  0.1709 -1.2595 -0.6223
11536TIP3   OH256098   0.467   0.409   0.024 -0.7401  0.4805  0.0298
11536TIP3    H156099   0.551   0.433   0.062 -1.6103  1.0111  1.6794
11536TIP3    H256100   0.458   0.315   0.041  0.4497 -0.0968 -2.0984
11537TIP3   OH256101   2.710   3.178  11.047 -0.2100 -0.5437 -0.1222
11537TIP3    H156102   2.626   3.189  11.003 -0.1238 -1.9018 -0.6663
11537TIP3    H256103   2.709   3.243  11.118 -1.5289 -0.2621 -0.3841
11538TIP3   OH256104   0.308   4.522  15.058  0.4755  0.8108 -0.3618
11538TIP3    H156105   0.248   4.447  15.048 -0.4570  1.3507  0.9998
11538TIP3    H256106   0.291   4.576  14.981  2.4794 -1.2001 -2.3879
11539TIP3   OH256107   1.216   6.644  11.543 -0.4808  0.2376 -0.0005
11539TIP3    H156108   1.188   6.679  11.628  1.3046 -0.3735  0.8957
11539TIP3    H256109   1.170   6.697  11.479 -1.2991  1.2218  1.3404
11540TIP3   OH256110   2.195   6.731  15.881  0.1685 -0.5136  0.0629
11540TIP3    H156111   2.121   6.785  15.908  0.7031  0.2466  0.0302
11540TIP3    H256112   2.213   6.675  15.956  0.9957  0.8778  0.9436
11541TIP3   OH256113   5.948   6.579   1.609 -0.4990  0.3920  0.4236
11541TIP3    H156114   5.913   6.492   1.586 -1.4748  0.3635  1.8775
11541TIP3    H256115   5.922   6.635   1.536  0.1560 -0.5179 -0.5449
11542TIP3   OH256116   6.168   1.899  15.154 -0.4884 -0.5448  0.0714
11542TIP3    H156117   6.180   1.928  15.245  1.1769 -1.1120  0.0703
11542TIP3    H256118   6.074   1.884  15.146 -0.6789 -0.3873  1.6781
11543TIP3   OH256119   5.605   4.723   2.707 -0.4009  0.2695 -0.4455
11543TIP3    H156120   5.537   4.706   2.642  0.5209  0.1451 -1.4275
11543TIP3    H256121   5.640   4.809   2.682  1.0184 -0.4704 -1.1115
11544TIP3   OH256122   2.606   3.261   2.466  0.2955  0.1512 -0.0665
11544TIP3    H156123   2.597   3.316   2.388  0.7278  2.4437  1.3989
11544TIP3    H256124   2.620   3.173   2.432 -0.5688  0.8934 -2.5470
11545TIP3   OH256125   3.859   2.416  12.808  0.6544 -0.3515 -0.0985
11545TIP3    H156126   3.777   2.373  12.786  0.4920 -0.1170  0.0372
11545TIP3    H256127   3.861   2.416  12.904  1.3093 -1.2829 -0.0956
11546TIP3   OH256128   1.045   5.340   4.779  0.3286 -0.3300  0.0015
11546TIP3    H156129   0.977   5.284   4.743 -0.0442 -0.2673  0.5860
11546TIP3    H256130   1.028   5.341   4.873 -0.5051  1.8303 -0.1070
11547TIP3   OH256131   4.767   5.204  16.256 -0.2487  0.5244  0.2367
11547TIP3    H156132   4.789   5.155  16.335  0.4093  0.4904  0.0430
11547TIP3    H256133   4.849   5.245  16.230 -0.5080  0.7058 -0.3127
11548TIP3   OH256134   2.670   1.809  10.686 -0.9535 -0.1188  0.1644
11548TIP3    H156135   2.756   1.808  10.645 -0.0711  0.5639  1.9027
11548TIP3    H256136   2.685   1.844  10.774 -3.1132  0.6083  0.3051
11549TIP3   OH256137   3.576   3.225   6.473  0.4047 -0.6080 -0.0388
11549TIP3    H156138   3.518   3.301   6.476 -1.0279 -1.4607 -2.5673
11549TIP3    H256139   3.645   3.250   6.411 -0.9470 -1.7758 -2.1696
11550TIP3   OH256140   0.468   5.434  16.063 -0.3886  0.6012  0.4888
11550TIP3    H156141   0.436   5.344  16.053  0.3945  0.3691  0.0178
11550TIP3    H256142   0.528   5.447  15.990 -0.4575  1.4997  0.5765
11551TIP3   OH256143   3.458   3.405  12.428 -0.0584  0.3362  0.5926
11551TIP3    H156144   3.442   3.409  12.522 -0.0487  0.8110  0.5786
11551TIP3    H256145   3.497   3.319  12.413 -0.4144  0.1081  0.9681
11552TIP3   OH256146   6.576   4.540   2.268 -0.1153 -0.3724 -0.0530
11552TIP3    H156147   6.521   4.617   2.284  0.1828 -0.3954  1.1611
11552TIP3    H256148   6.518   4.466   2.284  0.7765 -0.4510  3.6700
11553TIP3   OH256149   2.431   4.663  14.008  0.1691 -0.0767 -0.1857
11553TIP3    H156150   2.434   4.750  13.969 -0.1276 -0.6439 -1.5338
11553TIP3    H256151   2.409   4.678  14.100  0.9332  1.3040 -0.2070
11554TIP3   OH256152   1.907   5.093  13.921  0.1374  0.2386  0.1064
11554TIP3    H156153   1.959   5.050  13.853 -0.6676  2.1943 -1.8674
11554TIP3    H256154   1.877   5.175  13.880 -2.1607  0.5098  2.1210
11555TIP3   OH256155   6.711   3.384  16.806 -0.3811 -0.5840 -0.0313
11555TIP3    H156156   6.769   3.308  16.806  0.0850 -0.2661 -1.5782
11555TIP3    H256157   6.633   3.354  16.757 -0.2322 -0.1144 -0.5692
11556TIP3   OH256158   1.096   2.816  11.567 -0.0651  0.2638  0.1427
11556TIP3    H156159   1.107   2.803  11.473  0.5192  0.5235  0.1669
11556TIP3    H256160   1.174   2.776  11.606 -0.8876 -0.9306  0.6138
11557TIP3   OH256161   5.525   3.521   3.600 -0.1726  0.0549  0.9916
11557TIP3    H156162   5.504   3.449   3.540 -0.2937  0.3460  0.6766
11557TIP3    H256163   5.538   3.596   3.542 -0.9051  0.4860  1.3801
11558TIP3   OH256164   1.306   6.826   5.026  0.2275  1.0156  0.6088
11558TIP3    H156165   1.336   6.795   5.112  0.5199 -0.3306  0.0355
11558TIP3    H256166   1.216   6.794   5.019  1.5356 -2.7963 -1.3512
11559TIP3   OH256167   1.151   2.480   3.971 -0.6189  0.6478 -0.0009
11559TIP3    H156168   1.137   2.421   3.897 -0.0699  0.1777  0.2722
11559TIP3    H256169   1.086   2.550   3.958 -0.2310  0.8088 -1.1765
11560TIP3   OH256170   1.677   6.513  12.092  0.3525  0.4681 -0.4561
11560TIP3    H156171   1.753   6.518  12.150  1.6880 -2.5922 -1.7205
11560TIP3    H256172   1.714   6.494  12.006 -1.7618 -3.7624 -0.7052
11561TIP3   OH256173   2.660   2.126   6.644 -0.5958  0.1723 -0.3290
11561TIP3    H156174   2.739   2.091   6.685 -1.2689 -0.9541  0.0621
11561TIP3    H256175   2.656   2.083   6.558  1.0922  2.9145 -1.9141
11562TIP3   OH256176   6.034   1.274   1.292  0.9584  0.0855  0.0516
11562TIP3    H156177   5.991   1.358   1.276 -0.6303 -0.6060  0.5106
11562TIP3    H256178   6.025   1.261   1.386  0.7007 -0.8537 -0.0992
11563TIP3   OH256179   1.267   5.978   1.052 -0.2709 -0.2713  0.1310
11563TIP3    H156180   1.311   5.982   0.967 -1.3073  1.4318 -0.3731
11563TIP3    H256181   1.294   6.058   1.097 -0.4868 -0.6894  1.0307
11564TIP3   OH256182   0.886   1.720  15.281 -0.3489  0.4127 -0.2104
11564TIP3    H156183   0.840   1.657  15.336  0.6891 -0.5276 -0.3753
11564TIP3    H256184   0.842   1.717  15.197  0.7181 -1.3650 -0.7404
11565TIP3   OH256185   0.054   0.046  13.002 -0.7422  0.0220 -0.4988
11565TIP3    H156186   0.018   0.103  13.069 -0.2263 -0.0480 -0.1508
11565TIP3    H256187   0.129   0.094  12.967 -0.0853 -0.5710  0.0439
11566TIP3   OH256188   2.299   4.094   5.053  0.1811 -0.1591 -0.3308
11566TIP3    H156189   2.357   4.130   5.120  0.0696  0.4576 -0.5622
11566TIP3    H256190   2.353   4.090   4.974 -0.0812  0.3835 -0.5380
11567TIP3   OH256191   1.099   0.493  16.857  0.4129  0.5646  0.0664
11567TIP3    H156192   1.093   0.491  16.761 -1.5957  1.0364  0.1417
11567TIP3    H256193   1.047   0.569  16.883 -2.4814 -1.7771  1.6863
11568TIP3   OH256194   3.035   3.949   3.565  0.1302 -0.1723  0.3379
11568TIP3    H156195   3.018   3.855   3.559  2.0794 -0.4806 -0.9311
11568TIP3    H256196   3.068   3.962   3.654  2.2808 -1.1685 -0.2534
11569TIP3   OH256197   3.927   0.814   1.513  0.3566  0.4088  0.9195
11569TIP3    H156198   4.002   0.798   1.456  1.3151  0.5119  2.1240
11569TIP3    H256199   3.917   0.909   1.514  1.9873  0.6297  2.9121
11570TIP3   OH256200   1.119   5.476  11.851  0.2786  0.0256 -0.4332
11570TIP3    H156201   1.208   5.441  11.846  0.1468 -0.2990 -0.5487
11570TIP3    H256202   1.071   5.412  11.904  0.8698  1.7837  2.4180
11571TIP3   OH256203   2.219   0.145   1.614  0.3998 -0.0001  0.0779
11571TIP3    H156204   2.182   0.206   1.678 -1.8795  0.9426 -2.0145
11571TIP3    H256205   2.312   0.170   1.608 -0.0231  1.9021  0.7620
11572TIP3   OH256206   0.607   2.118  16.183  0.8835 -0.5927  0.0284
11572TIP3    H156207   0.573   2.122  16.272  0.1388 -0.9134 -0.2382
11572TIP3    H256208   0.613   2.025  16.163  0.3564 -0.5196 -0.5099
11573TIP3   OH256209   2.126   4.772  12.854 -0.0599 -0.0795 -0.1199
11573TIP3    H156210   2.116   4.841  12.789  0.5786  0.0925 -0.0397
11573TIP3    H256211   2.153   4.817  12.934  0.5622 -0.4355 -0.1239
11574TIP3   OH256212   2.645   3.919  16.977 -0.0612 -0.3230 -0.1831
11574TIP3    H156213   2.728   3.871  16.971 -1.5976 -3.2669  0.4210
11574TIP3    H256214   2.580   3.858  16.943 -2.2943  0.9809  1.5278
11575TIP3   OH256215   1.299   1.338  13.225  0.0424  0.1522  0.4549
11575TIP3    H156216   1.288   1.340  13.130  0.1665  2.0218  0.4455
11575TIP3    H256217   1.353   1.414  13.244  0.2245 -0.3397  2.0122
11576TIP3   OH256218   2.704   1.482  14.644  0.1454 -0.2601 -0.4612
11576TIP3    H156219   2.663   1.397  14.634 -0.2435  0.0068 -1.1356
11576TIP3    H256220   2.795   1.462  14.664 -0.1181 -0.8409  0.2053
11577TIP3   OH256221   3.820   3.152   0.144  0.1856 -0.1866  0.5737
11577TIP3    H156222   3.819   3.154   0.049 -0.7240 -1.0515  0.5425
11577TIP3    H256223   3.877   3.078   0.166 -0.7020 -0.8835  0.6406
11578TIP3   OH256224   4.389   5.484  12.119 -0.2366 -0.0527 -0.4948
11578TIP3    H156225   4.307   5.467  12.164  0.4992 -0.2605  0.8314
11578TIP3    H256226   4.451   5.421  12.157  0.5676  0.1816 -1.3670
11579TIP3   OH256227   1.067   5.999   3.398 -0.0918  0.0420 -0.1167
11579TIP3    H156228   1.105   6.012   3.311 -0.2269  2.5652  0.1204
11579TIP3    H256229   1.094   6.076   3.448 -2.4639  0.1606  1.1490
11580TIP3   OH256230   6.667   6.444  15.579  0.0138  0.0002 -0.3678
11580TIP3    H156231   6.737   6.428  15.515 -1.0076 -0.1204 -1.5026
11580TIP3    H256232   6.681   6.377  15.647  0.7155 -0.3298 -0.8236
11581TIP3   OH256233   3.239   1.477   3.778  0.4714  0.0573 -0.4337
11581TIP3    H156234   3.238   1.410   3.847 -1.1454  1.5448  1.0918
11581TIP3    H256235   3.220   1.428   3.698 -0.6667 -1.3599  0.6227
11582TIP3   OH256236   3.299   4.208   3.775  0.3949 -0.9750 -0.1532
11582TIP3    H156237   3.302   4.285   3.718 -2.8573  0.5766  1.4871
11582TIP3    H256238   3.374   4.218   3.833  1.3741 -0.3771 -1.4574
11583TIP3   OH256239   5.120   5.615  15.696  0.3355 -0.1442 -0.0015
11583TIP3    H156240   5.133   5.710  15.692  1.2896 -0.2227  0.8924
11583TIP3    H256241   5.198   5.582  15.741  0.1912 -1.3923 -0.6204
11584TIP3   OH256242   1.129   3.194   2.516 -0.1071  0.4831 -0.4934
11584TIP3    H156243   1.110   3.229   2.603 -0.5770 -0.1908 -0.3149
11584TIP3    H256244   1.219   3.162   2.523  0.0305  0.8806 -0.4086
11585TIP3   OH256245   3.884   6.542   3.664  0.2017  0.0163  0.6253
11585TIP3    H156246   3.850   6.476   3.603  1.9924  0.2095 -0.6662
11585TIP3    H256247   3.970   6.564   3.629  0.3388  1.8257  1.9826
11586TIP3   OH256248   6.679   6.841  11.716 -0.4005 -0.2703  0.1037
11586TIP3    H156249   6.664   6.784  11.791 -2.3690 -0.8943 -0.7171
11586TIP3    H256250   6.599   6.894  11.709 -0.0984  0.0390 -1.3323
11587TIP3   OH256251   4.140   3.605  12.947 -0.0374  0.6426 -0.3175
11587TIP3    H156252   4.054   3.604  12.904  1.0081  1.8722 -2.6176
11587TIP3    H256253   4.120   3.620  13.039 -2.3861 -1.4747 -0.3559
11588TIP3   OH256254   6.186   2.032  13.011  0.0896  0.3284  0.1760
11588TIP3    H156255   6.268   2.081  13.009  0.1917  0.1386 -1.5776
11588TIP3    H256256   6.188   1.986  13.095  1.0425  1.5276  0.8451
11589TIP3   OH256257   0.469   2.016  13.104 -0.2788  0.8050  0.0730
11589TIP3    H156258   0.531   1.979  13.042  0.3770  0.8328  0.7067
11589TIP3    H256259   0.476   1.961  13.181  0.3125  1.9077  0.8267
11590TIP3   OH256260   2.230   4.898  13.094  0.4370 -0.1307  0.2155
11590TIP3    H156261   2.223   4.988  13.124  0.1885  0.7931 -2.4005
11590TIP3    H256262   2.318   4.891  13.058  0.5023 -0.9852  0.5062
11591TIP3   OH256263   0.609   1.169  16.572 -0.7313 -0.0840 -0.0340
11591TIP3    H156264   0.675   1.164  16.641 -1.8372 -2.6785  0.9638
11591TIP3    H256265   0.529   1.193  16.618 -1.3817 -1.3850 -0.4364
11592TIP3   OH256266   2.717   4.523  12.023  0.1083 -0.5319  0.4217
11592TIP3    H156267   2.672   4.565  12.095  0.2346  0.0318  0.1719
11592TIP3    H256268   2.699   4.578  11.947 -0.3791 -1.3496 -0.0703
11593TIP3   OH256269   3.666   5.217   4.274 -0.3405 -0.0994 -0.8751
11593TIP3    H156270   3.742   5.165   4.300 -0.9725 -0.0909  1.1784
11593TIP3    H256271   3.681   5.303   4.315 -1.1880  0.0623 -0.8838
11594TIP3   OH256272   3.922   4.761  11.264 -0.4442  0.1668 -0.4849
11594TIP3    H156273   3.995   4.712  11.226 -1.0211 -0.8829 -0.2838
11594TIP3    H256274   3.883   4.701  11.328  0.9479  2.1040  2.3822
11595TIP3   OH256275   2.844   4.166  14.661 -0.7499  0.0965 -0.4392
11595TIP3    H156276   2.904   4.151  14.734 -0.0535  0.5088 -0.9068
11595TIP3    H256277   2.876   4.108  14.592  0.3351  1.7179 -1.3521
11596TIP3   OH256278   6.039   4.927   4.108  0.1769 -0.1983  0.1599
11596TIP3    H156279   6.057   4.919   4.202 -1.5954  1.2505  0.6668
11596TIP3    H256280   5.947   4.904   4.099  0.3192 -0.2921 -1.2322
11597TIP3   OH256281   4.141   4.500   6.004 -0.1815 -0.1013  0.6138
11597TIP3    H156282   4.119   4.592   5.988 -0.3856 -0.4584 -1.4133
11597TIP3    H256283   4.208   4.480   5.938  1.7192 -0.7706  2.6258
11598TIP3   OH256284   1.883   2.243  12.022 -0.0926 -0.2844  0.5217
11598TIP3    H156285   1.917   2.274  11.938 -2.2528 -1.3125 -0.8376
11598TIP3    H256286   1.899   2.148  12.020  2.6055  0.0081  2.7260
11599TIP3   OH256287   1.106   6.630  16.375 -0.3662 -0.5861  0.7203
11599TIP3    H156288   1.201   6.617  16.369 -0.3508 -0.3473  0.4160
11599TIP3    H256289   1.074   6.602  16.289 -0.5086 -0.1196  0.6236
11600TIP3   OH256290   5.410   3.633  14.003 -0.2703 -0.3050 -0.0018
11600TIP3    H156291   5.354   3.665  14.073  0.7488 -1.0185  1.1750
11600TIP3    H256292   5.474   3.702  13.989  0.3149 -0.6924  0.6946
11601TIP3   OH256293   6.167   2.179  16.858  0.7375 -0.2435 -0.0377
11601TIP3    H156294   6.149   2.234  16.782 -1.1309 -0.4933  0.1658
11601TIP3    H256295   6.262   2.178  16.866  0.9124  0.7415 -1.6581
11602TIP3   OH256296   4.926   5.577   2.938 -0.1213 -0.2731  0.2346
11602TIP3    H156297   4.835   5.605   2.931 -1.0349 -2.4921  1.8314
11602TIP3    H256298   4.938   5.514   2.867 -0.1780 -0.7506  0.6403
11603TIP3   OH256299   3.628   1.400  10.721 -0.7600 -0.7075  0.1621
11603TIP3    H156300   3.675   1.325  10.756  0.6644 -0.7718 -1.7122
11603TIP3    H256301   3.537   1.387  10.748 -0.1548 -1.9052  1.7554
11604TIP3   OH256302   3.280   6.586   2.177  0.4549  0.1920 -0.1369
11604TIP3    H156303   3.199   6.619   2.217  0.2857  1.8303 -1.6978
11604TIP3    H256304   3.350   6.634   2.220  0.2820  1.8545 -1.6278
11605TIP3   OH256305   3.226   2.447  14.701  0.3773  0.5859  0.0545
11605TIP3    H156306   3.185   2.441  14.787  4.0507  0.1945  2.0189
11605TIP3    H256307   3.285   2.372  14.698  0.7838  0.9126 -2.6062
11606TIP3   OH256308   1.894   2.437   0.195  0.5960  0.3269 -0.3508
11606TIP3    H156309   1.903   2.506   0.261  0.1883 -0.5989  0.7138
11606TIP3    H256310   1.873   2.358   0.246 -1.8152 -0.0134 -1.7085
11607TIP3   OH256311   5.599   5.994   0.563  0.6081  0.1348  0.0545
11607TIP3    H156312   5.548   6.067   0.528  0.3293  1.2598  2.6040
11607TIP3    H256313   5.685   6.003   0.522  0.5551  1.8938  0.2418
11608TIP3   OH256314   2.628   0.122  11.114  0.5139 -0.0909 -0.2926
11608TIP3    H156315   2.682   0.044  11.128 -0.2697 -0.8596 -1.3212
11608TIP3    H256316   2.538   0.090  11.120  0.1781  0.7418 -0.6915
11609TIP3   OH256317   4.138   1.970   3.371 -0.1011  0.4956  0.7578
11609TIP3    H156318   4.197   1.901   3.402 -1.7237 -0.5594  1.6411
11609TIP3    H256319   4.071   1.923   3.322 -1.5439  1.3708  1.8318
11610TIP3   OH256320   0.007   2.100  13.494 -0.2683 -0.2036 -0.1225
11610TIP3    H156321   0.066   2.026  13.510  2.5487  1.8235 -0.3326
11610TIP3    H256322  -0.065   2.063  13.443  0.8298 -2.8345  0.0802
11611TIP3   OH256323   6.446   4.944  17.199 -0.6872  0.0939  0.3333
11611TIP3    H156324   6.473   4.979  17.284  1.2926  2.2022 -1.0160
11611TIP3    H256325   6.483   4.856  17.196 -0.2391  0.2334  1.4210
11612TIP3   OH256326   5.873   0.748   5.361 -0.7691 -0.3415  0.0574
11612TIP3    H156327   5.898   0.772   5.451  1.1100 -0.4020 -0.4053
11612TIP3    H256328   5.811   0.815   5.334 -0.5293  0.2922  1.0296
11613TIP3   OH256329   1.073   0.940  11.278  0.4275  0.4715 -0.4530
11613TIP3    H156330   1.105   0.992  11.351 -0.4832  0.7716 -0.2580
11613TIP3    H256331   1.150   0.924  11.224  1.1471  0.1123  0.6438
11614TIP3   OH256332   6.230   3.173  16.242  0.0832 -0.1330 -0.2031
11614TIP3    H156333   6.293   3.223  16.191  0.2930 -1.3224 -1.1664
11614TIP3    H256334   6.283   3.123  16.304  0.1387 -1.1162 -0.9976
11615TIP3   OH256335   5.450   1.633   3.837 -0.7726 -0.2294 -0.1556
11615TIP3    H156336   5.533   1.612   3.795 -0.6710  0.9024 -0.5272
11615TIP3    H256337   5.473   1.684   3.914 -1.0767 -0.7748  0.3136
11616TIP3   OH256338   5.463   0.592  12.401 -0.4131  0.6024  0.8860
11616TIP3    H156339   5.526   0.563  12.335  2.5044  3.0204  2.4031
11616TIP3    H256340   5.395   0.524  12.399  0.5056 -0.4916 -3.0985
11617TIP3   OH256341   6.746   6.573  11.467  0.2350 -0.3385 -0.8978
11617TIP3    H156342   6.682   6.525  11.414 -0.8210 -0.6673  0.6124
11617TIP3    H256343   6.814   6.509  11.485 -0.3999 -0.8352 -0.1979
11618TIP3   OH256344   4.043   5.676   3.079  0.2652  0.1636  0.4743
11618TIP3    H156345   4.017   5.766   3.056  2.4187  0.7384  0.0279
11618TIP3    H256346   4.041   5.628   2.996 -0.0754  0.0225  0.5645
11619TIP3   OH256347   3.704   3.167  16.094 -0.4138  0.8400 -0.2015
11619TIP3    H156348   3.666   3.133  16.013 -0.2377  0.9679 -0.3375
11619TIP3    H256349   3.798   3.163  16.080 -0.3914  2.1291 -0.5292
11620TIP3   OH256350   5.975   6.617   3.695  0.1801 -0.2241  0.4347
11620TIP3    H156351   5.953   6.606   3.602  0.0226 -1.2831  0.5861
11620TIP3    H256352   6.023   6.700   3.698 -0.2576  0.0853 -0.5121
11621TIP3   OH256353   4.706   3.435   0.288  0.2425 -0.5134  0.0897
11621TIP3    H156354   4.781   3.412   0.344  1.5008  0.9855 -0.9166
11621TIP3    H256355   4.743   3.448   0.201 -0.5766  3.2781  0.1254
11622TIP3   OH256356   2.624   5.338   2.909 -0.0997  0.2797 -0.2223
11622TIP3    H156357   2.697   5.319   2.969 -0.1013  0.5968 -0.1215
11622TIP3    H256358   2.634   5.273   2.840 -0.5879 -0.6386  0.5386
11623TIP3   OH256359   2.457   2.589  17.083 -0.3267  0.4568 -0.1874
11623TIP3    H156360   2.505   2.507  17.093  0.1359  0.7479 -0.0002
11623TIP3    H256361   2.375   2.563  17.041 -0.1705 -0.0958 -0.1642
11624TIP3   OH256362   1.896   4.134   5.236  0.0341  0.4501  0.6410
11624TIP3    H156363   1.854   4.137   5.150  0.1970 -0.0522  0.5381
11624TIP3    H256364   1.828   4.101   5.295  0.3752 -0.6834  0.4123
11625TIP3   OH256365   5.579   2.267  17.127 -0.0839  0.1043 -0.2270
11625TIP3    H156366   5.664   2.301  17.101 -0.4803  1.8813  0.6563
11625TIP3    H256367   5.516   2.318  17.077 -0.7053  0.9747  1.3645
11626TIP3   OH256368   1.991   3.652   6.853 -0.6302  0.3668  0.0608
11626TIP3    H156369   1.977   3.557   6.843  0.8323 -0.3232  3.1928
11626TIP3    H256370   2.005   3.684   6.764  1.5113 -2.8472 -0.9274
11627TIP3   OH256371   4.434   3.984   5.059  0.2734  0.2275  0.9328
11627TIP3    H156372   4.442   3.889   5.059 -1.1999  0.0387 -0.6488
11627TIP3    H256373   4.372   4.003   5.130  0.6513  0.0265  1.3191
11628TIP3   OH256374   4.154   5.547   0.308  0.2671 -0.1929  0.2828
11628TIP3    H156375   4.108   5.465   0.325  0.1495 -0.4745 -1.2753
11628TIP3    H256376   4.217   5.525   0.239  1.2578  0.6868  0.8890
11629TIP3   OH256377   3.922   0.867  15.393 -0.7279 -0.3174  0.2574
11629TIP3    H156378   3.871   0.943  15.365 -1.3947  0.0480  2.3262
11629TIP3    H256379   3.928   0.812  15.314  0.9950  2.4634 -1.7491
11630TIP3   OH256380   5.183   1.284   2.413 -0.3263  0.0693  0.1839
11630TIP3    H156381   5.181   1.270   2.508  3.5409  0.0332  0.4428
11630TIP3    H256382   5.196   1.197   2.376  2.3768  0.4341  0.0709
11631TIP3   OH256383   1.534   1.296  16.567 -0.3215  0.0917  0.3466
11631TIP3    H156384   1.618   1.306  16.523  0.9619  1.8391  2.9092
11631TIP3    H256385   1.527   1.202  16.585  0.7071 -0.1727 -0.5752
11632TIP3   OH256386   1.424   1.725   5.441 -0.4628  0.0779 -0.0606
11632TIP3    H156387   1.358   1.794   5.453 -1.8190 -1.2633  0.5767
11632TIP3    H256388   1.465   1.745   5.357  0.8849  2.9774  1.1694
11633TIP3   OH256389   1.676   6.767   2.407  0.7927  0.4552 -0.8883
11633TIP3    H156390   1.620   6.751   2.484  1.1086  0.5153 -0.6452
11633TIP3    H256391   1.704   6.858   2.417 -1.1137  1.2866 -2.3312
11634TIP3   OH256392   5.306   3.347  13.297  0.5060  0.0873 -0.1259
11634TIP3    H156393   5.320   3.437  13.266  3.1593 -0.3038 -0.3004
11634TIP3    H256394   5.338   3.292  13.226  1.6468 -0.9246  1.1313
11635TIP3   OH256395   4.241   6.275   5.231 -0.2137 -0.1309  0.5852
11635TIP3    H156396   4.300   6.236   5.166 -0.3179 -1.2612  1.1368
11635TIP3    H256397   4.203   6.351   5.187  0.0573 -0.6180 -0.5247
11636TIP3   OH256398   6.801   0.781   1.618  0.2086  0.5352 -0.0906
11636TIP3    H156399   6.828   0.860   1.665 -0.9018  0.6841  0.3377
11636TIP3    H256400   6.861   0.713   1.649  0.5347  0.9912  0.2987
11637TIP3   OH256401   6.657   1.612   5.845  0.2231  0.2167  0.2450
11637TIP3    H156402   6.565   1.616   5.817  0.0808  0.0865  0.6896
11637TIP3    H256403   6.706   1.646   5.770  0.0024 -1.7778 -0.9016
11638TIP3   OH256404   2.638   3.683   3.657  0.2165 -0.0609 -0.4636
11638TIP3    H156405   2.555   3.668   3.701  0.3458  0.1123 -0.1587
11638TIP3    H256406   2.614   3.697   3.565 -0.1741  0.7639 -0.2535
11639TIP3   OH256407   5.806   2.232  15.123 -0.3026  0.5195 -0.3196
11639TIP3    H156408   5.729   2.186  15.088 -1.1504  1.1909  0.6052
11639TIP3    H256409   5.770   2.295  15.185  1.0717  0.1695  0.8886
11640TIP3   OH256410   3.346   5.328  16.252  0.0954  0.2947 -0.2787
11640TIP3    H156411   3.422   5.270  16.248  0.8181  1.2033 -0.3818
11640TIP3    H256412   3.335   5.347  16.345 -0.7742 -0.7915 -0.1515
11641TIP3   OH256413   2.259   6.534  15.115 -0.0120 -0.7848 -0.2375
11641TIP3    H156414   2.171   6.561  15.141 -0.4572 -0.0295 -2.3778
11641TIP3    H256415   2.303   6.616  15.091  0.4379 -1.3928 -1.5826
11642TIP3   OH256416   3.420   6.529  11.716  0.2857 -0.3012 -0.4593
11642TIP3    H156417   3.352   6.587  11.681  0.4437 -0.6765 -1.4238
11642TIP3    H256418   3.386   6.441  11.703 -0.0740 -0.4575  1.2475
11643TIP3   OH256419   6.024   3.960  15.877 -0.2723  0.1368 -0.4671
11643TIP3    H156420   6.048   4.041  15.924  2.5522 -0.5174 -0.5907
11643TIP3    H256421   6.004   3.898  15.947  0.7650  0.0629 -0.2197
11644TIP3   OH256422   0.010   4.705  16.709  0.0107  0.0850  0.7607
11644TIP3    H156423  -0.071   4.667  16.743  0.2302  0.9089  2.2629
11644TIP3    H256424   0.016   4.670  16.620 -1.6669 -0.4892  0.8207
11645TIP3   OH256425   5.178   2.723   6.014 -0.0076 -0.7015 -0.3511
11645TIP3    H156426   5.199   2.665   6.087  0.9023 -1.0403 -0.8654
11645TIP3    H256427   5.165   2.664   5.940  1.3154 -0.2501 -0.9741
11646TIP3   OH256428   5.918   4.662   2.836 -0.1780 -0.0873  0.1063
11646TIP3    H156429   5.915   4.704   2.749 -0.3422 -0.8016 -0.2353
11646TIP3    H256430   5.993   4.702   2.878  1.2115 -1.2329 -1.1582
11647TIP3   OH256431   3.000   1.753  16.307 -0.3438  0.3414 -0.0109
11647TIP3    H156432   2.961   1.834  16.342  0.5907  0.9638 -0.3609
11647TIP3    H256433   3.039   1.711  16.384  3.8398  2.8962 -0.4018
11648TIP3   OH256434   1.342   1.555   5.792  0.1009 -0.6753  0.1981
11648TIP3    H156435   1.403   1.498   5.839  0.2644  0.0529  0.8770
11648TIP3    H256436   1.274   1.496   5.759 -1.5301 -0.9277  3.6492
11649TIP3   OH256437   0.700   4.156   0.485 -0.5851  0.3325 -0.3648
11649TIP3    H156438   0.704   4.176   0.392  1.3858 -1.7766 -0.8286
11649TIP3    H256439   0.769   4.210   0.524 -1.4039  1.2083 -0.0868
11650TIP3   OH256440   0.425   3.009  10.244 -0.1139 -0.0891 -0.3467
11650TIP3    H156441   0.490   2.939  10.236  0.6564  0.6696 -0.9343
11650TIP3    H256442   0.341   2.964  10.249  0.5394 -1.1968  2.1696
11651TIP3   OH256443   3.951   0.478  12.203 -0.5102 -0.3160  0.3240
11651TIP3    H156444   4.019   0.482  12.271 -0.9227 -1.6406  0.8381
11651TIP3    H256445   3.918   0.567  12.197 -0.2964 -0.1225  1.7004
11652TIP3   OH256446   0.514   0.981   4.736 -0.2442 -0.3610 -0.2558
11652TIP3    H156447   0.470   0.899   4.714 -0.3440 -0.2010 -0.6529
11652TIP3    H256448   0.446   1.033   4.780 -0.3000 -0.3265 -0.3820
11653TIP3   OH256449   6.577   4.621   5.356 -0.0891 -0.0867  0.1294
11653TIP3    H156450   6.576   4.576   5.271  1.8889  0.4891 -0.2574
11653TIP3    H256451   6.548   4.555   5.419  3.0806 -2.1248 -0.3500
11654TIP3   OH256452   4.190   2.410  13.174 -0.2909 -0.5863 -0.0063
11654TIP3    H156453   4.172   2.318  13.155  1.2601 -1.2046  1.3134
11654TIP3    H256454   4.109   2.442  13.214 -0.5837 -1.5819  0.2276
11655TIP3   OH256455   5.972   6.567   3.418 -0.2107 -0.1546  0.3416
11655TIP3    H156456   6.061   6.601   3.426  0.2828 -1.6854  2.6381
11655TIP3    H256457   5.984   6.480   3.380 -0.7620 -0.2224  0.3211
11656TIP3   OH256458   0.266   2.340   2.441  0.7347  0.0968  0.9254
11656TIP3    H156459   0.353   2.300   2.442 -0.1930 -2.1041  1.0279
11656TIP3    H256460   0.272   2.412   2.504  2.8064  0.8531 -0.0455
11657TIP3   OH256461   2.501   4.997  12.777 -0.2674 -0.8708  0.1916
11657TIP3    H156462   2.407   5.000  12.794 -0.7403 -1.6713 -2.0111
11657TIP3    H256463   2.520   5.077  12.729  0.3116 -0.4691  1.0512
11658TIP3   OH256464   6.277   0.828  11.673  0.4075 -0.7372 -0.0661
11658TIP3    H156465   6.217   0.903  11.678  2.1139  0.7795 -0.9857
11658TIP3    H256466   6.280   0.807  11.579  2.3724  0.1649 -0.2400
11659TIP3   OH256467   6.229   2.302  14.966  0.3558 -0.1391 -0.3632
11659TIP3    H156468   6.294   2.237  14.940  1.2315  1.2667 -1.8576
11659TIP3    H256469   6.189   2.265  15.045  4.1273 -0.3124  1.7180
11660TIP3   OH256470   2.018   6.121  15.807  0.3151 -0.8786  0.6465
11660TIP3    H156471   1.927   6.093  15.799 -0.8728  2.7295 -0.2332
11660TIP3    H256472   2.051   6.121  15.717  1.0447 -1.6066  0.9001
11661TIP3   OH256473   5.198   5.554   3.674  0.1855 -0.0292 -0.3501
11661TIP3    H156474   5.263   5.525   3.738  0.3419 -0.0103 -0.4971
11661TIP3    H256475   5.250   5.573   3.595 -0.3283 -3.3274 -1.6241
11662TIP3   OH256476   1.856   6.127  15.313 -0.9654 -0.0379 -0.2726
11662TIP3    H156477   1.928   6.183  15.342 -1.3657  0.8851 -1.0178
11662TIP3    H256478   1.825   6.167  15.232  1.6228 -3.7872 -3.4860
11663TIP3   OH256479   1.976   3.329  11.821  0.6428  0.2460 -0.3266
11663TIP3    H156480   1.923   3.333  11.742 -0.4204  1.0541  0.3915
11663TIP3    H256481   1.917   3.295  11.888  1.3041  0.2696  0.2812
11664TIP3   OH256482   0.334   1.303   0.533  0.4396  0.0344 -0.0898
11664TIP3    H156483   0.385   1.232   0.572  0.6902 -1.7735 -3.3055
11664TIP3    H256484   0.255   1.260   0.500 -0.6986  1.8063  0.1941
11665TIP3   OH256485   6.574   4.419   4.722 -0.0297  0.4589 -0.1492
11665TIP3    H156486   6.502   4.388   4.667  0.9761 -0.5077 -0.9773
11665TIP3    H256487   6.533   4.481   4.783 -1.6094 -0.3057 -0.3763
11666TIP3   OH256488   2.699   5.135   4.895 -0.0432  0.0556  0.8576
11666TIP3    H156489   2.715   5.190   4.819  0.3563 -1.3895 -0.1593
11666TIP3    H256490   2.749   5.055   4.877 -1.9160 -1.3217  1.4340
11667TIP3   OH256491   3.791   2.630   1.549 -0.1324 -0.2216  0.3971
11667TIP3    H156492   3.822   2.624   1.458 -0.3704 -0.0990  0.3060
11667TIP3    H256493   3.835   2.558   1.594 -0.4416 -0.6350  0.0555
11668TIP3   OH256494   2.027   4.316  12.820  0.3290  0.5152  0.0469
11668TIP3    H156495   1.975   4.236  12.825 -1.4060  1.5095 -0.9939
11668TIP3    H256496   2.023   4.352  12.909 -0.0035  0.1197  0.1952
11669TIP3   OH256497   6.165   0.687   5.723 -0.0907 -0.1938  0.5240
11669TIP3    H156498   6.130   0.677   5.635 -2.0307  0.9279  1.0884
11669TIP3    H256499   6.163   0.599   5.760 -0.4212 -0.4773 -0.1565
11670TIP3   OH256500   6.813   4.048   3.075  0.1567  0.3011  0.1329
11670TIP3    H156501   6.838   4.132   3.111 -0.1459  0.8298 -0.8525
11670TIP3    H256502   6.831   4.055   2.981  0.7790 -0.9766  0.1276
11671TIP3   OH256503   4.316   0.086  14.348  0.2160 -0.1265  0.3746
11671TIP3    H156504   4.315   0.172  14.305  1.6257 -0.9853 -1.4770
11671TIP3    H256505   4.407   0.057  14.343 -0.0183 -1.2708  1.9908
11672TIP3   OH256506   1.366   1.808   0.508 -0.5000  0.2546 -0.3060
11672TIP3    H156507   1.371   1.791   0.602 -2.6365  0.5036 -0.0910
11672TIP3    H256508   1.373   1.903   0.500  1.6266  0.1122 -0.6162
11673TIP3   OH256509   6.615   2.461   5.624 -0.5572 -0.3893  0.0850
11673TIP3    H156510   6.700   2.447   5.665  0.7587  0.3416 -2.2056
11673TIP3    H256511   6.577   2.373   5.617  1.8297 -1.3567 -2.3947
11674TIP3   OH256512   0.948   4.917   4.991  0.0980 -0.3732 -0.4183
11674TIP3    H156513   1.012   4.967   4.939 -0.2856 -1.7094 -2.3127
11674TIP3    H256514   0.883   4.981   5.017  1.5368  0.7890  0.4965
11675TIP3   OH256515   5.756   1.243  13.777  0.2644  0.2815 -0.0669
11675TIP3    H156516   5.772   1.308  13.709  0.5852 -0.2494 -0.5099
11675TIP3    H256517   5.802   1.164  13.746 -2.1438 -0.9545 -0.8035
11676TIP3   OH256518   2.328   6.073  16.685 -0.3070 -0.2059  0.1217
11676TIP3    H156519   2.279   6.127  16.747 -0.5065  0.0108 -0.2192
11676TIP3    H256520   2.416   6.067  16.723 -0.1721  0.6801 -0.0214
11677TIP3   OH256521   3.607   4.706   1.717 -0.1302  0.6416  0.1463
11677TIP3    H156522   3.676   4.642   1.735 -0.9360 -0.4938 -0.6792
11677TIP3    H256523   3.639   4.756   1.642 -0.3764 -0.1852 -0.5248
11678TIP3   OH256524   0.186   4.762   3.619 -0.1786 -0.5181 -0.2374
11678TIP3    H156525   0.176   4.703   3.694 -0.3292  0.1415  0.2745
11678TIP3    H256526   0.191   4.849   3.658  1.8348 -0.3173 -0.8552
11679TIP3   OH256527   1.127   5.556  16.702  0.0215  0.1483 -0.5807
11679TIP3    H156528   1.161   5.618  16.638  0.3169 -1.1884 -1.7665
11679TIP3    H256529   1.139   5.470  16.661 -4.4064 -0.5216 -0.9435
11680TIP3   OH256530   3.007   2.823   4.535 -0.4455  0.2591  0.0732
11680TIP3    H156531   2.949   2.898   4.549 -0.3003  0.2089  1.0892
11680TIP3    H256532   2.996   2.770   4.615  0.2623 -0.2436 -0.1564
11681TIP3   OH256533   5.704   0.758  15.107 -0.0513  0.1084  0.0626
11681TIP3    H156534   5.729   0.850  15.119 -1.5999  0.4003  1.6298
11681TIP3    H256535   5.770   0.709  15.155  0.2687  0.4769  0.0060
11682TIP3   OH256536   1.749   2.057   0.102  0.5149 -0.6211  0.7045
11682TIP3    H156537   1.756   2.113   0.025  0.0702 -1.4165  0.0649
11682TIP3    H256538   1.685   1.990   0.076  2.4655 -2.5831  0.7191
11683TIP3   OH256539   5.676   0.965   1.272  0.8602 -0.4873  0.0170
11683TIP3    H156540   5.684   0.947   1.366 -1.6989 -0.8200  0.2571
11683TIP3    H256541   5.644   1.056   1.268 -1.4521 -1.2382 -0.3157
11684TIP3   OH256542   1.561   1.150  13.875  0.0781  0.5365  0.4708
11684TIP3    H156543   1.491   1.099  13.834  0.3131  1.7568 -1.5799
11684TIP3    H256544   1.517   1.226  13.913 -0.0377 -0.2017  1.8908
11685TIP3   OH256545   3.693   5.462  16.828 -0.0156  0.5728  0.5322
11685TIP3    H156546   3.684   5.422  16.915 -0.1406  0.7804  0.6139
11685TIP3    H256547   3.635   5.409  16.773  1.2278 -0.5373  0.2399
11686TIP3   OH256548   5.008   0.803  12.262 -0.0620 -0.2706  0.4402
11686TIP3    H156549   4.926   0.824  12.305 -0.9427 -0.7254 -0.9616
11686TIP3    H256550   4.993   0.822  12.169  2.0970  1.6632  0.3903
11687TIP3   OH256551   0.841   2.223  11.781 -0.1431 -0.2955 -0.3223
11687TIP3    H156552   0.903   2.151  11.776 -1.2574 -1.2254 -1.6372
11687TIP3    H256553   0.892   2.297  11.814  1.0777 -1.6115  0.8415
11688TIP3   OH256554   6.037   1.214  15.910 -0.2038 -0.2671 -0.6265
11688TIP3    H156555   6.017   1.307  15.921 -0.5860 -0.5526  1.5290
11688TIP3    H256556   6.133   1.211  15.906 -0.2116  0.2817 -1.7818
11689TIP3   OH256557   3.144   2.935  12.916 -0.4007  0.0971  0.0931
11689TIP3    H156558   3.187   2.924  12.831  1.6144 -0.3792  1.0976
11689TIP3    H256559   3.078   2.866  12.919  0.9761 -1.2860 -0.2508
11690TIP3   OH256560   2.870   0.693   3.400 -0.1029  0.1128 -0.5104
11690TIP3    H156561   2.935   0.626   3.381  0.1373 -0.2039  1.2673
11690TIP3    H256562   2.789   0.658   3.362  0.2398 -0.6982 -0.5314
11691TIP3   OH256563   5.074   0.865  12.922 -0.1950 -0.4508  0.5046
11691TIP3    H156564   5.125   0.809  12.864  1.4932 -0.5138  1.9576
11691TIP3    H256565   5.085   0.953  12.885 -1.3238 -0.8004 -0.7275
11692TIP3   OH256566   1.982   0.412  13.597  0.0175 -0.8476  0.0304
11692TIP3    H156567   1.954   0.503  13.593  1.9706 -0.2102 -0.3561
11692TIP3    H256568   1.902   0.363  13.614 -1.2716  0.8285 -0.8602
11693TIP3   OH256569   5.466   3.415  14.179  0.1688 -0.5150  0.0949
11693TIP3    H156570   5.459   3.493  14.124  0.7635  1.1357  2.2372
11693TIP3    H256571   5.556   3.416  14.211 -0.6355 -0.3236  2.5559
11694TIP3   OH256572   3.655   2.016   2.688  0.3800  0.3496 -0.0326
11694TIP3    H156573   3.624   1.926   2.691  1.5300 -0.0485  0.8283
11694TIP3    H256574   3.577   2.069   2.700 -0.1630 -0.5692  0.5889
11695TIP3   OH256575   1.280   4.323   5.501 -0.1852  0.0032 -0.2530
11695TIP3    H156576   1.221   4.361   5.566 -0.1548  2.1775 -1.3755
11695TIP3    H256577   1.272   4.229   5.512 -2.5911  0.2646  0.7379
11696TIP3   OH256578   1.034   0.707   0.087  0.9429  0.1794  0.0112
11696TIP3    H156579   0.974   0.673   0.020 -0.1768  0.1259  1.0167
11696TIP3    H256580   0.977   0.746   0.153  2.0571  0.7568  0.6571
11697TIP3   OH256581   1.338   0.330  14.152  0.0879 -0.8627  0.0754
11697TIP3    H156582   1.356   0.252  14.204 -1.6395 -1.3804 -0.0538
11697TIP3    H256583   1.352   0.403  14.213  4.3361 -0.9552 -0.4580
11698TIP3   OH256584   5.016   4.761  12.778  0.0049  0.4138 -0.4608
11698TIP3    H156585   5.066   4.687  12.743  0.0148 -0.4527  1.3179
11698TIP3    H256586   4.982   4.730  12.862 -2.4704  1.4233 -0.9975
11699TIP3   OH256587   0.713   3.689   6.226 -0.1495 -0.1297 -0.2474
11699TIP3    H156588   0.640   3.628   6.210 -1.2302  0.9866  0.2186
11699TIP3    H256589   0.744   3.666   6.314 -0.2527 -0.2986 -0.2543
11700TIP3   OH256590   3.951   6.250  11.516  0.1795  0.0686 -0.2252
11700TIP3    H156591   3.934   6.321  11.577 -1.1403 -0.9495  0.6780
11700TIP3    H256592   3.912   6.280  11.433 -0.9753  0.1485  0.3229
11701TIP3   OH256593   5.899   2.217  17.140  0.7818 -0.5080  0.7025
11701TIP3    H156594   5.878   2.298  17.093 -2.2209 -1.4588  0.1843
11701TIP3    H256595   5.936   2.159  17.073  1.1799 -0.1908  0.6481
11702TIP3   OH256596   3.937   4.718  15.386 -0.2931  0.1179  0.2705
11702TIP3    H156597   3.940   4.707  15.481  2.1325 -0.1011  0.2329
11702TIP3    H256598   4.025   4.747  15.363 -0.7178 -0.2101 -1.9649
11703TIP3   OH256599   5.527   0.542  10.598 -0.2574  0.1947 -0.0671
11703TIP3    H156600   5.563   0.455  10.616  0.3060  0.7788  1.8265
11703TIP3    H256601   5.432   0.529  10.602 -0.1813 -0.3474  0.2044
11704TIP3   OH256602   0.051   2.063  14.619  0.2849  0.1182 -0.2080
11704TIP3    H156603   0.033   2.032  14.708  0.6858  0.8531  0.1400
11704TIP3    H256604  -0.035   2.069  14.577  0.0384  0.3379  0.3247
11705TIP3   OH256605   4.537   0.733  12.255 -0.4852 -0.2264 -0.7751
11705TIP3    H156606   4.526   0.792  12.329 -1.0639  0.3653 -1.3200
11705TIP3    H256607   4.502   0.649  12.286 -1.6382  0.2654 -0.6872
11706TIP3   OH256608   6.113   2.539   1.976 -0.2117  0.0190 -0.5825
11706TIP3    H156609   6.169   2.532   2.054  0.4610 -1.1052 -1.1405
11706TIP3    H256610   6.125   2.456   1.930 -1.9110 -0.0286 -1.0295
11707TIP3   OH256611   5.131   0.488   1.114 -0.4727  0.1422  0.2306
11707TIP3    H156612   5.113   0.568   1.164  1.1809  0.0593  1.0240
11707TIP3    H256613   5.212   0.454   1.151 -0.0999 -0.8702 -1.3980
11708TIP3   OH256614   0.644   5.635   4.348 -0.9820  0.5967  0.8327
11708TIP3    H156615   0.573   5.584   4.388 -1.4974  0.1588 -0.5844
11708TIP3    H256616   0.600   5.697   4.291 -0.2383  0.1089 -0.3170
11709TIP3   OH256617   3.046   0.133   1.081 -0.2952  0.3082  0.6373
11709TIP3    H156618   3.009   0.195   1.017 -0.7629 -0.7247 -0.1140
11709TIP3    H256619   3.125   0.177   1.113 -1.2201  1.7996  0.9805
11710TIP3   OH256620   0.121   3.453  11.905 -0.3832  0.4536  0.0177
11710TIP3    H156621   0.108   3.536  11.860 -0.2469  1.1550  1.2026
11710TIP3    H256622   0.168   3.398  11.843 -3.3500  0.0481 -2.0527
11711TIP3   OH256623   5.655   3.210   4.388  0.1493  0.2312 -0.4447
11711TIP3    H156624   5.580   3.157   4.414 -0.3186  1.7584  1.6038
11711TIP3    H256625   5.710   3.213   4.467  0.8302  1.6500 -0.9381
11712TIP3   OH256626   6.453   0.928   0.442 -0.0120  0.0016 -0.1745
11712TIP3    H156627   6.424   1.006   0.490 -0.3836 -0.7679  0.8879
11712TIP3    H256628   6.382   0.864   0.456  0.1035 -0.4067 -1.3530
11713TIP3   OH256629   2.589   5.717  15.290  0.5036 -0.4826 -0.6183
11713TIP3    H156630   2.617   5.633  15.254  0.9801 -0.3845 -0.4701
11713TIP3    H256631   2.549   5.695  15.374  0.8525 -0.5345 -0.4663
11714TIP3   OH256632   3.355   0.295  15.854 -0.0236  0.7466 -0.6084
11714TIP3    H156633   3.267   0.326  15.832 -0.4488 -0.7662 -1.1717
11714TIP3    H256634   3.344   0.202  15.873  1.1938  0.9050  1.0806
11715TIP3   OH256635   5.586   1.789   3.497  0.6837  0.0264 -0.5753
11715TIP3    H156636   5.505   1.766   3.452 -0.6841  0.6185  1.4516
11715TIP3    H256637   5.594   1.884   3.486  0.6279  0.0949 -0.0413
11716TIP3   OH256638   3.303   6.463  15.519  0.3017  0.0246 -0.3808
11716TIP3    H156639   3.393   6.492  15.536 -0.5335  3.5165 -1.0370
11716TIP3    H256640   3.266   6.448  15.606  0.3904  2.7546  0.2130
11717TIP3   OH256641   1.751   2.628  12.664 -0.2827 -0.2865  0.3334
11717TIP3    H156642   1.721   2.615  12.574  2.0664 -0.5073 -0.4844
11717TIP3    H256643   1.672   2.651  12.713 -1.2115  2.8347 -2.3266
11718TIP3   OH256644   5.690   3.234  13.606 -0.0878  0.4210 -0.0662
11718TIP3    H156645   5.710   3.325  13.583 -1.1312  0.6990  0.0680
11718TIP3    H256646   5.605   3.218  13.566  0.1300 -0.5393 -0.1673
11719TIP3   OH256647   4.938   2.210  16.968 -0.5734  0.2914  0.1923
11719TIP3    H156648   5.008   2.145  16.968 -0.6965  0.1382 -0.6914
11719TIP3    H256649   4.909   2.214  17.059 -1.2121 -1.5852  0.1085
11720TIP3   OH256650   4.506   0.143  15.544 -0.8195 -0.4619  0.2874
11720TIP3    H156651   4.530   0.234  15.561  1.9514 -1.0646  0.0708
11720TIP3    H256652   4.547   0.123  15.459  1.7726 -2.8681  1.9270
11721TIP3   OH256653   2.525   4.135  14.075  0.0611  0.0015 -0.2285
11721TIP3    H156654   2.470   4.162  14.002 -0.3313 -2.2062 -0.8260
11721TIP3    H256655   2.603   4.098  14.034  0.8845  0.8202  0.5538
11722TIP3   OH256656   3.880   0.360  14.467  0.5283  0.4495  0.2560
11722TIP3    H156657   3.795   0.345  14.427  0.0905  0.7327  1.0634
11722TIP3    H256658   3.938   0.296  14.426 -0.1839 -0.0676  0.0547
11723TIP3   OH256659   1.418   3.001  14.458 -0.4280 -0.0743  0.0338
11723TIP3    H156660   1.401   2.961  14.543  2.5323  1.6683  1.6053
11723TIP3    H256661   1.340   3.054  14.441 -1.2382 -0.7501  1.4874
11724TIP3   OH256662   2.876   6.296  16.033 -0.3206  0.1273 -0.0507
11724TIP3    H156663   2.953   6.240  16.044  0.4540  0.7471 -2.0697
11724TIP3    H256664   2.873   6.316  15.940 -3.8948 -1.2140 -0.3886
11725TIP3   OH256665   1.175   3.068   3.758  0.4013 -0.1325 -0.5540
11725TIP3    H156666   1.209   3.123   3.688  0.5071 -2.6092 -2.5593
11725TIP3    H256667   1.083   3.055   3.736  0.3940 -0.8196 -0.1303
11726TIP3   OH256668   4.061   0.576   1.323  0.5578  0.2309  0.4454
11726TIP3    H156669   4.072   0.656   1.273  2.4089  0.1746  0.6930
11726TIP3    H256670   4.120   0.586   1.398 -0.6339 -0.5490  1.5302
11727TIP3   OH256671   0.758   5.431  11.999  0.2674 -0.0256  0.3426
11727TIP3    H156672   0.840   5.382  11.996 -0.1379 -0.6887 -0.2282
11727TIP3    H256673   0.702   5.382  12.059 -0.6603 -1.1406 -1.3490
11728TIP3   OH256674   0.301   3.253   5.223  0.4847 -0.4505 -0.4658
11728TIP3    H156675   0.216   3.215   5.201 -0.0235  0.1907  0.3084
11728TIP3    H256676   0.356   3.236   5.147 -1.0516  1.2351 -2.0531
11729TIP3   OH256677   2.789   0.461   3.639 -0.0422  0.1142  0.0279
11729TIP3    H156678   2.745   0.546   3.648 -0.6329 -0.3491  1.9595
11729TIP3    H256679   2.881   0.480   3.653 -0.3182  0.2923  1.9198
11730TIP3   OH256680   6.378   3.057   2.050  0.5160  0.1564 -0.5228
11730TIP3    H156681   6.294   3.045   2.094  1.1254  0.2008  0.6768
11730TIP3    H256682   6.354   3.085   1.961 -0.7259  2.2429  0.3917
11731TIP3   OH256683   4.192   0.443   0.908 -0.2526 -0.0921  0.5075
11731TIP3    H156684   4.143   0.466   0.829 -0.2078  1.1151  0.8156
11731TIP3    H256685   4.270   0.497   0.905  1.0128 -1.8691  0.1165
11732TIP3   OH256686   0.745   3.145   3.652  0.0981  1.1183  0.1466
11732TIP3    H156687   0.839   3.154   3.641  0.3386 -0.8208  0.3528
11732TIP3    H256688   0.708   3.184   3.572  1.1338  0.6649 -0.5729
11733TIP3   OH256689   2.793   6.271  14.305  0.3777 -0.0419 -0.0565
11733TIP3    H156690   2.730   6.205  14.331 -1.3497  1.6430  0.2088
11733TIP3    H256691   2.741   6.350  14.288  1.8333  0.3295 -4.0319
11734TIP3   OH256692   5.853   6.690   3.187  0.6061 -0.0192  0.1307
11734TIP3    H156693   5.921   6.710   3.122  0.9769  2.0972  1.0916
11734TIP3    H256694   5.901   6.667   3.266  0.1790 -0.3487  0.2968
11735TIP3   OH256695   4.711   5.063  16.518 -0.6750  0.2229 -0.0645
11735TIP3    H156696   4.633   5.067  16.573  0.1182  0.4022  1.0805
11735TIP3    H256697   4.766   4.996  16.559 -0.7275 -0.7676 -1.5497
11736TIP3   OH256698   3.498   3.232   1.664 -0.4509 -0.3859  0.2388
11736TIP3    H156699   3.583   3.274   1.658 -1.1787  0.9579 -1.4113
11736TIP3    H256700   3.446   3.290   1.719 -0.6968 -0.4794  0.1083
11737TIP3   OH256701   2.758   1.296  14.415  0.2151 -0.1597  0.3656
11737TIP3    H156702   2.828   1.246  14.457  0.6355 -0.0092 -0.1535
11737TIP3    H256703   2.678   1.252  14.444  0.6081 -2.6512 -1.8671
11738TIP3   OH256704   1.392   1.852   3.839  0.1954  0.0467  0.2475
11738TIP3    H156705   1.325   1.874   3.775  0.8647  0.9883 -0.1692
11738TIP3    H256706   1.422   1.937   3.872  2.0603 -0.2469 -0.5283
11739TIP3   OH256707   1.880   4.899   1.059 -0.0216 -0.2790  0.0084
11739TIP3    H156708   1.925   4.815   1.050  0.5037  0.0981 -0.9968
11739TIP3    H256709   1.856   4.923   0.970  1.2371  1.4006  0.0926
11740TIP3   OH256710   2.729   1.337  13.825 -0.0671  0.2672 -0.0325
11740TIP3    H156711   2.646   1.369  13.859  0.0099  0.4861 -0.0437
11740TIP3    H256712   2.738   1.248  13.859 -0.3297  0.2245 -0.0779
11741TIP3   OH256713   0.777   3.444   0.106 -0.1385 -0.2020 -0.3726
11741TIP3    H156714   0.769   3.466   0.199 -0.0255  1.3910 -0.7161
11741TIP3    H256715   0.871   3.448   0.088 -0.1680 -0.4181 -0.5783
11742TIP3   OH256716   3.877   4.153  14.086  0.0937  0.2878 -0.0556
11742TIP3    H156717   3.876   4.123  14.177  2.3264  0.2146  0.0045
11742TIP3    H256718   3.897   4.075  14.035  0.3107  0.6025 -0.4567
11743TIP3   OH256719   1.522   5.134  11.703 -0.4191 -0.7043  0.5994
11743TIP3    H156720   1.566   5.130  11.618 -0.1351 -0.3731  0.7267
11743TIP3    H256721   1.431   5.153  11.683 -0.1495  0.5123  0.4094
11744TIP3   OH256722   3.656   3.617   2.875 -0.4061  0.1923  0.4777
11744TIP3    H156723   3.615   3.591   2.792 -1.8269  0.2999  1.1148
11744TIP3    H256724   3.634   3.710   2.884  0.6313  0.4442  0.4886
11745TIP3   OH256725   3.800   3.385   5.453 -0.2555  0.3660 -0.2804
11745TIP3    H156726   3.777   3.465   5.405 -0.5496  0.8256  0.5976
11745TIP3    H256727   3.757   3.315   5.404  1.0863  0.5610 -1.8236
11746TIP3   OH256728   1.246   3.460   2.232 -0.7712  0.8460  0.1053
11746TIP3    H156729   1.159   3.455   2.192 -1.4927 -0.7877  1.7444
11746TIP3    H256730   1.237   3.528   2.299 -0.3328  1.7039 -0.6853
11747TIP3   OH256731   4.577   1.302   3.402  0.1142 -0.5257  0.7523
11747TIP3    H156732   4.622   1.356   3.466 -0.8308 -0.1231  1.0990
11747TIP3    H256733   4.556   1.221   3.449  1.4298 -1.1839  0.2667
11748TIP3   OH256734   2.237   5.216  13.006 -0.2018 -0.0966  0.1747
11748TIP3    H156735   2.311   5.274  13.026 -0.4573 -0.2499  1.7104
11748TIP3    H256736   2.163   5.276  12.993 -1.0682  0.0409  4.2553
11749TIP3   OH256737   2.815   3.545   5.427  0.2813  0.2312 -0.3256
11749TIP3    H156738   2.764   3.520   5.350  0.9507 -0.3193 -0.6004
11749TIP3    H256739   2.892   3.590   5.392  1.0511 -0.8308 -0.0412
11750TIP3   OH256740   1.330   0.678   5.846  0.3721  0.1333 -0.0549
11750TIP3    H156741   1.330   0.677   5.942  1.8453 -0.7113 -0.0375
11750TIP3    H256742   1.240   0.700   5.822  0.3242  1.9414  1.5178
11751TIP3   OH256743   2.560   0.755   3.584  0.4636  0.0071 -0.2662
11751TIP3    H156744   2.476   0.795   3.562 -1.0215 -2.2972  0.8227
11751TIP3    H256745   2.540   0.662   3.595  2.7912 -0.3501  1.8748
11752TIP3   OH256746   5.704   5.598   0.472 -0.8240 -0.8597 -0.2028
11752TIP3    H156747   5.714   5.506   0.445  0.9488 -0.6741 -0.3378
11752TIP3    H256748   5.793   5.625   0.495 -1.5782  0.3271  1.5192
11753TIP3   OH256749   6.262   6.133  14.760 -0.7414  0.5036 -0.2446
11753TIP3    H156750   6.258   6.097  14.671 -0.0661 -1.6705  0.5561
11753TIP3    H256751   6.233   6.062  14.816  0.3720  1.3034  1.4192
11754TIP3   OH256752   5.728   0.551  15.471  0.0557  0.0550  0.1427
11754TIP3    H156753   5.754   0.619  15.533 -0.6719  0.7866 -0.3205
11754TIP3    H256754   5.765   0.579  15.387 -0.2192 -0.1324 -0.0457
11755TIP3   OH256755   2.109   0.142  16.803  0.2708  0.2360 -0.3252
11755TIP3    H156756   2.014   0.152  16.810  0.3429  0.0259  1.2373
11755TIP3    H256757   2.144   0.222  16.842  0.7577  0.8295 -1.9016
11756TIP3   OH256758   0.637   1.256   5.335 -0.0541  0.2371 -0.3378
11756TIP3    H156759   0.557   1.204   5.334 -1.6744  2.5534 -1.9998
11756TIP3    H256760   0.664   1.256   5.427 -1.4732 -1.3056  0.1185
11757TIP3   OH256761   0.087   6.720  12.472  0.0952  0.0103  0.4746
11757TIP3    H156762   0.055   6.673  12.395 -0.1194  0.0835  0.5197
11757TIP3    H256763   0.080   6.656  12.543 -2.2873  0.7832  0.9917
11758TIP3   OH256764   4.198   1.755   4.158 -0.0041 -1.1282  0.4409
11758TIP3    H156765   4.112   1.727   4.188  0.8061 -2.4847  1.5986
11758TIP3    H256766   4.260   1.704   4.210  1.6400  2.5747  2.5197
11759TIP3   OH256767   4.890   1.018   4.058  0.5463  0.0328 -0.1205
11759TIP3    H156768   4.928   1.010   4.145 -0.1317 -0.1024  0.1724
11759TIP3    H256769   4.939   1.088   4.016  0.0128  1.0131  0.8470
11760TIP3   OH256770   1.706   6.068   1.100  0.0191  0.1888  0.2131
11760TIP3    H156771   1.697   5.997   1.164 -0.1731  0.1090  0.0985
11760TIP3    H256772   1.799   6.071   1.081  0.2916  1.1329  1.5416
11761TIP3   OH256773   2.624   2.736   5.230  0.3479 -0.0986  0.2156
11761TIP3    H156774   2.710   2.708   5.197  0.2243 -1.3651  0.9098
11761TIP3    H256775   2.580   2.772   5.153  1.1388 -0.3543 -0.3726
11762TIP3   OH256776   5.658   1.448  12.504 -0.4322 -0.5290 -0.2741
11762TIP3    H156777   5.583   1.406  12.462 -1.1804  0.9680 -0.4821
11762TIP3    H256778   5.656   1.538  12.473  0.5582 -0.0686  0.9308
11763TIP3   OH256779   1.808   1.090  12.986  0.4563  0.5075  0.3311
11763TIP3    H156780   1.808   1.073  13.080  1.5376 -0.5663  0.1554
11763TIP3    H256781   1.767   1.013  12.947 -1.4144  1.6143 -0.0049
11764TIP3   OH256782   1.720   6.241  11.617  0.0885  0.2010 -0.1893
11764TIP3    H156783   1.633   6.214  11.587  0.3426 -0.7441 -0.0776
11764TIP3    H256784   1.740   6.182  11.689  0.3958  1.0872  0.4637
11765TIP3   OH256785   5.283   3.556   0.870 -0.2851  0.3906 -0.2646
11765TIP3    H156786   5.249   3.541   0.958  1.6562  1.6921  0.8064
11765TIP3    H256787   5.304   3.469   0.837  1.5510 -0.0176  1.7285
11766TIP3   OH256788   4.845   0.655   2.735  0.0022 -0.0737 -0.4011
11766TIP3    H156789   4.861   0.687   2.824 -0.0274 -0.7833 -0.1312
11766TIP3    H256790   4.779   0.715   2.700  1.7541  1.7039 -0.8338
11767TIP3   OH256791   2.793   3.290   2.092  0.2668  0.3465  0.1093
11767TIP3    H156792   2.839   3.254   2.167 -0.8976 -1.3679  0.0562
11767TIP3    H256793   2.817   3.232   2.019 -0.7944  0.3062 -0.2270
11768TIP3   OH256794   4.131   1.989   4.008  0.2772  0.1787  0.2905
11768TIP3    H156795   4.156   1.933   4.082 -0.0249 -1.2001 -0.6329
11768TIP3    H256796   4.189   1.963   3.937 -0.9777 -0.1303 -0.6418
11769TIP3   OH256797   4.741   1.782   1.972  0.2907  0.3491  0.3419
11769TIP3    H156798   4.806   1.851   1.974 -1.4563  2.0692  0.8691
11769TIP3    H256799   4.657   1.828   1.966 -0.8707 -1.7676 -1.3430
11770TIP3   OH256800   5.569   5.296   2.296 -0.2401  0.4663 -0.1379
11770TIP3    H156801   5.644   5.354   2.308  0.1846 -0.2286  0.6801
11770TIP3    H256802   5.535   5.281   2.384  1.5856 -2.9596  0.1607
11771TIP3   OH256803   6.775   5.141  12.272  0.2481 -0.4063  0.3353
11771TIP3    H156804   6.702   5.195  12.301 -0.0051 -0.8468  0.5316
11771TIP3    H256805   6.853   5.194  12.290 -0.0597  0.3999 -0.6125
11772TIP3   OH256806   4.602   2.520  16.564 -0.1419 -0.4831  0.0964
11772TIP3    H156807   4.618   2.451  16.628 -1.1358 -0.2663  0.5963
11772TIP3    H256808   4.615   2.602  16.613 -1.7851 -0.3126  0.2769
11773TIP3   OH256809   5.022   1.190  11.563 -0.3442 -0.2192  0.1772
11773TIP3    H156810   5.019   1.268  11.508  0.9722  0.9947  1.6972
11773TIP3    H256811   5.082   1.130  11.519 -0.1481  0.2816 -0.2362
11774TIP3   OH256812   5.433   0.849   3.345 -0.3875 -0.4521  0.3654
11774TIP3    H156813   5.466   0.896   3.269 -0.3340  0.4035  0.8999
11774TIP3    H256814   5.502   0.859   3.411 -1.5031  1.0050  1.3592
11775TIP3   OH256815   2.511   3.616  16.885 -0.0697 -0.0213 -0.1757
11775TIP3    H156816   2.493   3.637  16.976  1.6200 -0.0935  0.2069
11775TIP3    H256817   2.466   3.533  16.870 -1.2049  0.4968  0.2800
11776TIP3   OH256818   6.198   1.746   1.307 -0.1258 -0.0909  0.1558
11776TIP3    H156819   6.217   1.768   1.398 -1.4807  1.3327  0.1426
11776TIP3    H256820   6.174   1.829   1.267 -1.6105 -1.0126 -0.9719
11777TIP3   OH256821   1.208   4.773  16.601 -0.1065  0.1144  0.2067
11777TIP3    H156822   1.206   4.738  16.512 -0.0024  0.9606 -0.1449
11777TIP3    H256823   1.116   4.778  16.627 -0.0669 -2.8198  1.2826
11778TIP3   OH256824   0.851   5.842   1.630  0.1528 -0.1664 -0.5784
11778TIP3    H156825   0.830   5.821   1.539  1.1896 -0.4604 -0.7632
11778TIP3    H256826   0.868   5.757   1.671 -1.8768 -0.1921  0.3266
11779TIP3   OH256827   5.386   4.249  16.014 -0.8232  0.0323 -1.0816
11779TIP3    H156828   5.303   4.297  16.021 -0.6887  0.1041  0.3068
11779TIP3    H256829   5.427   4.283  15.935 -1.4331  1.0883 -0.9601
11780TIP3   OH256830   4.969   0.932  16.877 -0.1905 -0.2597 -0.6859
11780TIP3    H156831   5.063   0.914  16.874  0.2083  1.6890 -1.5234
11780TIP3    H256832   4.950   0.947  16.970  0.1683 -1.3074 -0.4336
11781TIP3   OH256833   0.381   3.500  16.195 -0.3770 -0.1281 -0.0069
11781TIP3    H156834   0.476   3.505  16.185 -0.1596 -1.8522  0.7804
11781TIP3    H256835   0.365   3.409  16.222 -2.1314  0.4782  1.1458
11782TIP3   OH256836   6.690   6.257  13.530 -0.4303  0.0899  0.3270
11782TIP3    H156837   6.687   6.162  13.534  1.2345 -0.0672 -1.0826
11782TIP3    H256838   6.622   6.281  13.467 -2.9047  0.1323  2.8057
11783TIP3   OH256839   1.306   1.375   4.227  0.0419 -0.3975 -0.5478
11783TIP3    H156840   1.382   1.335   4.269  2.3211  1.9328 -2.1288
11783TIP3    H256841   1.263   1.304   4.181  0.2186 -2.1081  1.7619
11784TIP3   OH256842   2.735   4.659   6.714  0.5204 -0.3647  0.0964
11784TIP3    H156843   2.813   4.714   6.715 -0.5407  1.2351  0.7380
11784TIP3    H256844   2.754   4.588   6.774  1.3140  0.2748  0.6188
11785TIP3   OH256845   5.719   0.078   2.483 -0.3646  0.3763  0.1229
11785TIP3    H156846   5.663   0.025   2.541  0.5543  0.2343  0.9194
11785TIP3    H256847   5.678   0.164   2.482 -1.2844 -0.0467 -0.3244
11786TIP3   OH256848   0.712   3.127   2.571  0.2655  0.4944 -0.1252
11786TIP3    H156849   0.618   3.111   2.569  0.0686  1.4152  0.8436
11786TIP3    H256850   0.735   3.153   2.482 -0.2615 -0.3950 -0.5310
11787TIP3   OH256851   3.554   6.307   2.590  0.3232 -0.5056 -0.1736
11787TIP3    H156852   3.570   6.362   2.667  1.1374  0.4226 -0.9877
11787TIP3    H256853   3.460   6.287   2.594 -0.2349  1.8434 -0.4271
11788TIP3   OH256854   2.741   6.116  14.625  0.5750  0.1082  0.2283
11788TIP3    H156855   2.674   6.102  14.558  0.2089 -0.5681  0.7333
11788TIP3    H256856   2.779   6.030  14.640  0.3460  0.1703  1.2158
11789TIP3   OH256857   3.740   3.138  13.883  0.0236  0.0243  0.0700
11789TIP3    H156858   3.800   3.122  13.956  0.9498  3.4728  0.2242
11789TIP3    H256859   3.794   3.180  13.816 -1.7393  1.2759 -0.6511
11790TIP3   OH256860   5.463   2.805   2.836  0.3298  0.4090 -0.0503
11790TIP3    H156861   5.512   2.884   2.860  0.5595 -0.3569  2.2292
11790TIP3    H256862   5.392   2.801   2.900 -1.2122  0.0998 -1.7182
11791TIP3   OH256863   6.840   1.641   5.375 -0.4621 -0.2147  0.4117
11791TIP3    H156864   6.925   1.605   5.347 -0.4309 -0.4139  0.7566
11791TIP3    H256865   6.799   1.670   5.294  0.5020  1.1325  0.3597
11792TIP3   OH256866   6.707   0.236   4.925  0.3896 -0.1111 -0.0540
11792TIP3    H156867   6.785   0.234   4.980  0.1322 -0.1740  0.3195
11792TIP3    H256868   6.650   0.300   4.967 -0.1772 -0.8134  0.2752
11793TIP3   OH256869   3.286   2.259  11.299  0.9496 -0.0567  0.1342
11793TIP3    H156870   3.355   2.304  11.348  3.1754 -1.9877 -1.0436
11793TIP3    H256871   3.311   2.167  11.301 -0.9013 -0.6606 -1.4389
11794TIP3   OH256872   1.575   4.023  15.444 -0.5063 -0.1598  0.3482
11794TIP3    H156873   1.533   4.060  15.522  0.1778  0.5149  0.4148
11794TIP3    H256874   1.523   4.057  15.371  1.2455  2.6939  0.2695
11795TIP3   OH256875   5.410   6.037   1.425  0.2063 -0.1839  0.4832
11795TIP3    H156876   5.482   5.988   1.385  0.1254  0.7688 -0.8970
11795TIP3    H256877   5.448   6.122   1.446 -0.3354  0.0872  0.3801
11796TIP3   OH256878   3.561   4.685   0.778  0.3574  0.4538  0.0096
11796TIP3    H156879   3.650   4.670   0.809  0.4607  0.8954 -0.0633
11796TIP3    H256880   3.539   4.773   0.810  0.3034  0.7332 -0.7732
11797TIP3   OH256881   0.243   5.180  11.520  0.1223  0.2776  0.0651
11797TIP3    H156882   0.148   5.166  11.529 -0.0515  1.7260  0.8457
11797TIP3    H256883   0.250   5.251  11.456  0.7369 -0.2890 -0.5190
11798TIP3   OH256884   6.147   4.453  14.312 -0.0917  0.3242 -0.1337
11798TIP3    H156885   6.115   4.415  14.230 -2.1556 -1.4624  1.3902
11798TIP3    H256886   6.240   4.432  14.313 -0.7897 -3.3194 -0.2050
11799TIP3   OH256887   6.629   2.431   1.247 -0.2887 -0.1544 -0.4458
11799TIP3    H156888   6.635   2.437   1.152 -1.1766  0.4044 -0.4756
11799TIP3    H256889   6.594   2.515   1.274  0.0825 -0.2601  0.3947
11800TIP3   OH256890   2.460   0.209   1.758  0.6791 -0.2730 -0.2718
11800TIP3    H156891   2.474   0.261   1.679  0.6265  0.6822  0.3277
11800TIP3    H256892   2.428   0.272   1.822  0.9042 -0.9932  0.5657
11801TIP3   OH256893   2.297   0.523   5.705  0.2994  0.4474 -0.0264
11801TIP3    H156894   2.309   0.563   5.619 -0.9604  0.7049 -0.1107
11801TIP3    H256895   2.345   0.440   5.700 -0.6720 -0.0725 -1.3819
11802TIP3   OH256896   6.179   4.815   1.965  0.3448 -0.5907  0.0045
11802TIP3    H156897   6.234   4.890   1.942 -2.2895  2.3095  2.1969
11802TIP3    H256898   6.134   4.792   1.884 -1.1424  2.4841 -0.2091
11803TIP3   OH256899   2.932   1.845   1.224  0.1564  0.3444 -0.0961
11803TIP3    H156900   2.930   1.861   1.318 -2.0986 -2.3205  0.4261
11803TIP3    H256901   3.006   1.786   1.211  2.3027  2.8955 -0.5844
11804TIP3   OH256902   2.035   4.779  15.400  0.2025 -0.1115  0.8983
11804TIP3    H156903   1.989   4.705  15.440  0.2936 -0.1438  0.9434
11804TIP3    H256904   1.999   4.785  15.312  1.6216 -1.4685  0.1896
11805TIP3   OH256905   0.892   1.858  17.211 -0.1282  0.7509  0.1573
11805TIP3    H156906   0.849   1.825  17.132 -0.8284  2.1643 -0.0808
11805TIP3    H256907   0.936   1.938  17.182  1.8274 -0.1000  0.6364
11806TIP3   OH256908   0.884   5.182  11.377 -0.3908  0.0504  0.4202
11806TIP3    H156909   0.849   5.271  11.364 -1.3252 -0.0374  2.1010
11806TIP3    H256910   0.807   5.126  11.382 -0.0799 -0.2859  3.2321
11807TIP3   OH256911   0.999   1.459  11.967 -0.2203  0.5020  0.2011
11807TIP3    H156912   1.052   1.474  12.046  0.9701  0.8369 -0.6256
11807TIP3    H256913   1.004   1.365  11.952  0.5263  0.5806 -0.1084
11808TIP3   OH256914   0.821   1.391  11.595 -0.0640  0.1882  0.1273
11808TIP3    H156915   0.732   1.404  11.562  0.7191 -1.2818 -2.9199
11808TIP3    H256916   0.830   1.296  11.603  0.8753  0.3652  1.6941
11809TIP3   OH256917   6.316   2.325  14.010  0.3999 -0.2032  0.3821
11809TIP3    H156918   6.411   2.320  13.998  0.3372 -0.9178  0.0813
11809TIP3    H256919   6.290   2.235  14.029 -0.1819  0.0396  0.7518
11810TIP3   OH256920   1.612   0.521  13.559 -0.0854 -0.6137  0.3910
11810TIP3    H156921   1.525   0.539  13.523 -0.1592  0.6397  1.1258
11810TIP3    H256922   1.600   0.523  13.654  0.8987  0.5288  0.5209
11811TIP3   OH256923   2.656   0.010  11.862 -0.1317  0.0428 -0.0922
11811TIP3    H156924   2.684   0.047  11.778  0.1530  0.2196  0.0791
11811TIP3    H256925   2.594  -0.059  11.838 -0.2755  0.2889 -0.4365
11812TIP3   OH256926   4.343   3.503  15.628 -0.1845 -0.4572  0.4306
11812TIP3    H156927   4.352   3.573  15.562 -0.0831 -2.5065 -1.8660
11812TIP3    H256928   4.309   3.548  15.705 -0.0513  2.1500 -0.9035
11813TIP3   OH256929   2.093   4.295   1.354 -0.1051 -0.4377 -0.1579
11813TIP3    H156930   2.113   4.325   1.265  1.0487 -1.4818 -0.2818
11813TIP3    H256931   2.149   4.348   1.410 -0.8114  0.2006 -0.0460
11814TIP3   OH256932   4.774   5.641   4.185 -0.4138 -0.2685 -0.3479
11814TIP3    H156933   4.722   5.603   4.115 -0.2964  0.1190 -0.6491
11814TIP3    H256934   4.793   5.730   4.155 -0.2448 -0.1466  0.1122
11815TIP3   OH256935   1.648   4.768   5.258 -0.1986  0.0854  0.0727
11815TIP3    H156936   1.553   4.769   5.252 -0.1422 -0.4006 -1.1201
11815TIP3    H256937   1.667   4.808   5.344 -1.3738  2.2562 -0.6005
11816TIP3   OH256938   5.313   1.454  11.750  0.3859  0.0176  0.4108
11816TIP3    H156939   5.336   1.469  11.658 -0.3908 -3.1755 -0.4430
11816TIP3    H256940   5.338   1.534  11.795  0.4667  1.8458 -2.6382
11817TIP3   OH256941   5.101   1.382  15.112 -1.0753 -0.2572  0.2003
11817TIP3    H156942   5.074   1.473  15.097 -1.5469 -0.5608 -0.9072
11817TIP3    H256943   5.108   1.344  15.024 -4.5119 -2.2980  0.6045
11818TIP3   OH256944   0.874   5.788   3.538 -0.2647 -0.3620  0.1119
11818TIP3    H156945   0.856   5.749   3.453  0.4732 -1.6803  0.5363
11818TIP3    H256946   0.956   5.837   3.526 -0.2925 -0.3413  0.0111
11819TIP3   OH256947   0.597   5.777  17.032 -0.2280  0.4606  0.0222
11819TIP3    H156948   0.601   5.783  17.128  0.4327 -0.1885  0.0400
11819TIP3    H256949   0.551   5.694  17.016  0.0750  0.3414 -0.2258
11820TIP3   OH256950   3.173   1.814   2.291 -0.4314 -0.0790 -0.0442
11820TIP3    H156951   3.222   1.871   2.350 -1.2074  0.0826  0.4553
11820TIP3    H256952   3.083   1.848   2.292 -0.8878 -1.2240  0.1788
11821TIP3   OH256953   4.772   1.813  16.640 -0.3371  0.5391 -0.3386
11821TIP3    H156954   4.730   1.838  16.722 -0.4466 -0.1707 -0.1731
11821TIP3    H256955   4.864   1.833  16.654 -0.1348 -0.8548  0.4787
11822TIP3   OH256956   0.614   4.310   6.336  0.3571  0.1561 -0.4128
11822TIP3    H156957   0.694   4.336   6.290  0.0428  1.6849 -0.1478
11822TIP3    H256958   0.618   4.358   6.419  0.3921 -1.7224  0.7514
11823TIP3   OH256959   0.811   2.772  12.290  0.4030  0.0689 -0.0648
11823TIP3    H156960   0.870   2.751  12.218 -1.4344  0.3371 -1.7627
11823TIP3    H256961   0.788   2.864  12.276 -1.4221 -0.3861 -0.2762
11824TIP3   OH256962   0.713   1.445  12.387  0.1270  0.1977  0.7839
11824TIP3    H156963   0.662   1.453  12.306 -0.7425  0.8058  1.3784
11824TIP3    H256964   0.720   1.534  12.420  1.6152  0.1263  0.7146
11825TIP3   OH256965   5.583   1.283  16.990  0.1358 -0.6261  0.1094
11825TIP3    H156966   5.665   1.328  17.007 -0.3958  0.7858 -0.8903
11825TIP3    H256967   5.584   1.264  16.897 -0.0672 -1.8997  0.3399
11826TIP3   OH256968   1.956   5.192  13.498  0.1943  0.1923  0.4671
11826TIP3    H156969   1.891   5.133  13.536 -1.7970  1.7737 -0.3138
11826TIP3    H256970   1.969   5.159  13.409 -0.3015  0.4470  0.2977
11827TIP3   OH256971   6.371   0.800  13.133 -0.2952 -0.4319 -0.4495
11827TIP3    H156972   6.384   0.800  13.039  0.0450  2.1015 -0.4714
11827TIP3    H256973   6.340   0.889  13.153  1.9279 -0.1088  2.0970
11828TIP3   OH256974   1.623   6.181   1.478 -0.1689 -0.8585 -0.0614
11828TIP3    H156975   1.589   6.096   1.503  0.7563 -1.4892 -0.8924
11828TIP3    H256976   1.614   6.235   1.557  0.1023 -1.9878  0.7534
11829TIP3   OH256977   3.402   6.787   2.370 -0.0290 -0.3539  0.3180
11829TIP3    H156978   3.450   6.777   2.288  0.4645 -0.1506  0.5742
11829TIP3    H256979   3.451   6.855   2.417  1.6352 -2.6537  2.1522
11830TIP3   OH256980   1.914   2.542   3.892  0.2325 -0.3264 -0.4732
11830TIP3    H156981   1.828   2.500   3.898 -0.1498  0.6314  2.5099
11830TIP3    H256982   1.975   2.479   3.930  0.1499  0.5256  1.1454
11831TIP3   OH256983   2.437   4.433  13.444  0.0666  0.0400  0.1437
11831TIP3    H156984   2.410   4.516  13.406 -0.5182  0.8191  2.1249
11831TIP3    H256985   2.518   4.453  13.490  0.3541 -0.6879 -0.0218
11832TIP3   OH256986   4.997   5.483   1.949  0.5952  0.2763  0.0308
11832TIP3    H156987   4.935   5.547   1.984  1.5039  0.6014  1.1166
11832TIP3    H256988   5.074   5.535   1.925  0.3685 -0.0783 -1.5871
11833TIP3   OH256989   3.889   4.072  14.352 -0.2508  0.1047  0.4229
11833TIP3    H156990   3.891   3.983  14.388  3.4578 -1.4323 -2.8446
11833TIP3    H256991   3.955   4.120  14.402  0.1409 -0.0146  0.0239
11834TIP3   OH256992   4.856   2.842   3.534 -0.0152 -0.6604  0.4721
11834TIP3    H156993   4.876   2.849   3.627 -0.2966 -0.7294  0.5399
11834TIP3    H256994   4.936   2.807   3.494 -0.3260 -1.8917  0.8825
11835TIP3   OH256995   2.534   1.300   5.263 -0.0753 -0.4075  0.6829
11835TIP3    H156996   2.613   1.298   5.316 -0.7724  0.6482  1.8140
11835TIP3    H256997   2.551   1.238   5.192  3.1825  2.2203 -1.1328
11836TIP3   OH256998   1.296   0.833  11.076 -0.4141 -0.0202  0.2919
11836TIP3    H156999   1.296   0.740  11.097 -1.2227  0.5730  3.3423
11836TIP3    H257000   1.389   0.857  11.074 -0.2418 -0.6010  0.9641
11837TIP3   OH257001   1.007   6.747  11.304  0.4072 -0.0514 -0.3224
11837TIP3    H157002   1.075   6.815  11.311 -0.4955  1.0916 -1.9894
11837TIP3    H257003   0.929   6.795  11.275 -0.6908 -1.5904 -0.0154
11838TIP3   OH257004   4.010   5.509   3.529  0.4872  0.3993  0.1593
11838TIP3    H157005   4.100   5.525   3.557  0.6047  0.9403 -0.4778
11838TIP3    H257006   4.017   5.496   3.434 -0.0444 -0.0508  0.1810
11839TIP3   OH257007   0.823   2.552   4.202 -0.3354  0.0512 -0.1595
11839TIP3    H157008   0.855   2.628   4.154 -0.5092  0.7463  0.7895
11839TIP3    H257009   0.735   2.537   4.169  0.1076 -0.4487 -1.1512
11840TIP3   OH257010   4.621   3.308   1.389  0.2853 -0.2630  0.5978
11840TIP3    H157011   4.593   3.292   1.299 -0.2000  0.1789  0.6617
11840TIP3    H257012   4.694   3.249   1.403 -1.6403 -2.7254  0.9525
11841TIP3   OH257013   5.568   2.130  15.052  0.3661  0.1075 -0.5131
11841TIP3    H157014   5.505   2.067  15.017 -0.0429  0.2559 -0.0490
11841TIP3    H257015   5.526   2.166  15.130 -0.2064  2.2495 -1.7142
11842TIP3   OH257016   3.708   1.507   3.691 -0.7464  0.3822 -0.3190
11842TIP3    H157017   3.665   1.537   3.771  0.7750  0.3802  0.5343
11842TIP3    H257018   3.776   1.571   3.674 -0.9457  0.3019 -1.5537
11843TIP3   OH257019   3.199   1.792   5.573  0.5165 -0.1808  0.0235
11843TIP3    H157020   3.169   1.727   5.637 -2.0282  1.0605  0.2297
11843TIP3    H257021   3.235   1.863   5.626 -0.1323  0.1499  0.0430
11844TIP3   OH257022   2.870   3.640  13.007 -0.0217  0.3816  0.0473
11844TIP3    H157023   2.801   3.612  13.066 -0.3419 -0.7008 -0.7893
11844TIP3    H257024   2.934   3.684  13.062 -0.9294  0.5528  0.9765
11845TIP3   OH257025   0.386   5.539   2.227  0.6310 -0.3292 -0.3348
11845TIP3    H157026   0.312   5.489   2.262 -0.7915  0.8938 -1.4700
11845TIP3    H257027   0.379   5.529   2.132  1.7236  0.0903 -0.4681
11846TIP3   OH257028   0.723   1.278   3.405 -0.4950  0.3664 -0.2955
11846TIP3    H157029   0.673   1.279   3.324 -0.7260 -1.8006 -0.2386
11846TIP3    H257030   0.809   1.244   3.379  0.1563  1.6896  0.0381
11847TIP3   OH257031   3.837   6.671   3.022 -0.3110  0.2947 -0.1158
11847TIP3    H157032   3.808   6.596   2.970  2.1255 -1.1653  0.4737
11847TIP3    H257033   3.759   6.700   3.069 -1.5327 -1.2181 -1.1207
11848TIP3   OH257034   5.878   3.799   0.421 -0.6038  0.6892 -0.6612
11848TIP3    H157035   5.971   3.780   0.408 -1.0151 -0.1861 -2.8022
11848TIP3    H257036   5.836   3.763   0.343 -2.5533  2.5948 -0.5717
11849TIP3   OH257037   3.328   6.185   0.826  0.2058 -0.0209 -0.0847
11849TIP3    H157038   3.361   6.254   0.768 -0.6195 -0.1941 -0.7913
11849TIP3    H257039   3.340   6.220   0.914  1.7932  0.1179 -0.3199
11850TIP3   OH257040   1.586   3.156   5.799  0.3825 -0.3918  0.1073
11850TIP3    H157041   1.641   3.221   5.755  1.0686 -0.2702  1.1225
11850TIP3    H257042   1.498   3.173   5.766  0.6866  0.5080 -0.2676
11851TIP3   OH257043   0.938   5.619   4.702  0.7187  0.0461 -0.6200
11851TIP3    H157044   0.935   5.526   4.680 -0.3540 -0.1225  0.1984
11851TIP3    H257045   0.983   5.622   4.787  1.2186  0.3333 -0.8883
11852TIP3   OH257046   0.047   4.886   0.784 -0.1768 -0.3831 -0.1433
11852TIP3    H157047   0.077   4.953   0.846 -2.6288  1.1235 -0.4439
11852TIP3    H257048   0.120   4.875   0.723  0.5545  1.5778  0.3041
11853TIP3   OH257049   6.029   6.010  15.151 -0.0001  0.2460  0.2350
11853TIP3    H157050   6.028   5.917  15.173 -3.5156  0.1451  0.2318
11853TIP3    H257051   6.037   6.055  15.235  1.7666 -0.0127  0.2317
11854TIP3   OH257052   3.878   4.873   5.055 -0.4710  0.5199 -0.4692
11854TIP3    H157053   3.833   4.853   4.973 -0.4006 -0.4219 -0.2852
11854TIP3    H257054   3.840   4.813   5.119 -1.4383  2.1065  0.4990
11855TIP3   OH257055   1.465   6.771  13.184 -0.2601  0.5198 -0.8876
11855TIP3    H157056   1.407   6.847  13.176 -0.2513  0.6689  0.2205
11855TIP3    H257057   1.414   6.708  13.236  0.4781  0.5581 -0.0977
11856TIP3   OH257058   6.696   0.268   4.376  0.4970  0.1970  0.0277
11856TIP3    H157059   6.737   0.193   4.333 -0.5630  0.2038 -1.0852
11856TIP3    H257060   6.734   0.271   4.463  1.4918 -0.8628 -0.3535
11857TIP3   OH257061   2.716   5.954  15.919 -0.1040 -0.2664 -0.2414
11857TIP3    H157062   2.704   5.940  15.825 -2.6175 -2.6813  0.2997
11857TIP3    H257063   2.653   6.022  15.942 -2.2222 -2.2300  0.1587
11858TIP3   OH257064   0.491   4.701  12.702  0.4267 -0.5534  0.1349
11858TIP3    H157065   0.398   4.716  12.718  0.2478 -0.6699 -0.7616
11858TIP3    H257066   0.528   4.685  12.789 -0.8788 -3.2079  0.2880
11859TIP3   OH257067   5.806   5.563  13.413  0.2743  0.3199 -0.4834
11859TIP3    H157068   5.725   5.596  13.452 -0.1640  0.0245 -1.1414
11859TIP3    H257069   5.788   5.472  13.392  0.6703  0.3394 -0.9399
11860TIP3   OH257070   1.271   5.367   3.253  0.0300 -0.1370  0.3645
11860TIP3    H157071   1.196   5.344   3.308 -0.4619  1.1260  0.2607
11860TIP3    H257072   1.264   5.309   3.177 -1.7808  0.9770 -0.4003
11861TIP3   OH257073   1.836   0.183  15.324 -0.7187  0.3044  0.0111
11861TIP3    H157074   1.801   0.130  15.395 -0.1026 -0.1935 -0.0487
11861TIP3    H257075   1.760   0.230  15.289 -0.9853  0.7404  1.1511
11862TIP3   OH257076   3.145   1.268  13.975 -0.2477 -0.5239 -0.2127
11862TIP3    H157077   3.149   1.341  14.037  0.7924 -0.6312 -0.1275
11862TIP3    H257078   3.129   1.191  14.030 -0.5986 -0.4567 -0.2199
11863TIP3   OH257079   6.258   0.585   4.501 -1.0496 -0.4161 -0.1249
11863TIP3    H157080   6.168   0.591   4.468 -1.1135  1.0875  0.2302
11863TIP3    H257081   6.313   0.609   4.426 -1.0407  0.1777  0.0649
11864TIP3   OH257082   4.954   0.162  16.294  0.1372  0.0385  0.3852
11864TIP3    H157083   4.961   0.219  16.217 -0.1787  1.5569  1.4380
11864TIP3    H257084   4.955   0.073  16.258  1.2516  0.6631 -1.2727
11865TIP3   OH257085   4.348   6.286  16.705  0.2594 -0.3548 -0.0007
11865TIP3    H157086   4.421   6.339  16.672  1.6291 -1.0183  1.7668
11865TIP3    H257087   4.391   6.216  16.755 -1.5919 -0.8248  1.0089
11866TIP3   OH257088   4.497   3.796  16.185  0.3910 -0.4996 -0.3036
11866TIP3    H157089   4.462   3.809  16.273  0.0728 -0.9161 -0.3634
11866TIP3    H257090   4.520   3.703  16.181  0.6659 -0.4238 -0.5649
11867TIP3   OH257091   4.166   3.776   2.028 -0.4318  0.2105  0.2040
11867TIP3    H157092   4.180   3.714   2.099 -3.4212 -0.6574  0.1558
11867TIP3    H257093   4.187   3.727   1.949 -0.1170  0.1697  0.3126
11868TIP3   OH257094   3.189   6.161  12.467  0.2945  0.3598  1.0093
11868TIP3    H157095   3.210   6.083  12.415  1.6801  0.7861  0.8830
11868TIP3    H257096   3.269   6.213  12.465  0.2485  0.6307  3.1527
11869TIP3   OH257097   5.695   4.579   1.045 -0.1107 -0.7178 -0.3555
11869TIP3    H157098   5.661   4.491   1.056  2.5641 -1.7693  0.3323
11869TIP3    H257099   5.783   4.566   1.011  0.1525  1.7274 -0.7627
11870TIP3   OH257100   0.280   0.791  12.791 -0.5138  0.3391 -0.1992
11870TIP3    H157101   0.300   0.746  12.874 -0.0633  1.0961  0.1137
11870TIP3    H257102   0.343   0.755  12.729  0.3702  1.0867  0.2417
11871TIP3   OH257103   2.757   4.848  13.536 -0.0134 -0.3748  0.0566
11871TIP3    H157104   2.851   4.854  13.557  0.0581  1.1578 -0.5257
11871TIP3    H257105   2.727   4.771  13.583  1.0018  0.5407  2.3875
11872TIP3   OH257106   2.629   4.583   1.787 -0.0674 -0.0343  0.4762
11872TIP3    H157107   2.695   4.623   1.731 -0.8383  0.1722 -0.3152
11872TIP3    H257108   2.638   4.628   1.871  0.9232 -0.1561  0.4508
11873TIP3   OH257109   2.693   4.090  11.538 -0.0281  0.1535 -0.2173
11873TIP3    H157110   2.614   4.045  11.569  0.5940 -0.1890  0.9225
11873TIP3    H257111   2.762   4.061  11.598  0.8776  0.7805 -0.9376
11874TIP3   OH257112   4.921   0.083   3.461 -0.6708  0.7165 -0.7368
11874TIP3    H157113   4.893   0.157   3.406 -1.4808  1.0619  0.1224
11874TIP3    H257114   4.870   0.091   3.541  0.5454  0.2641  0.1225
11875TIP3   OH257115   1.080   0.134   0.722  0.6309 -0.2143 -0.1768
11875TIP3    H157116   1.141   0.203   0.698 -1.3600  0.9726 -2.2470
11875TIP3    H257117   1.115   0.055   0.679  0.9415  0.3538 -0.9895
11876TIP3   OH257118   5.440   6.811  16.980  0.1421 -0.3059 -0.2956
11876TIP3    H157119   5.449   6.835  16.888 -0.8631 -0.5900 -0.4854
11876TIP3    H257120   5.421   6.893  17.025  0.7949 -0.1414 -0.3128
11877TIP3   OH257121   0.011   0.065   4.211 -0.1214 -0.3370  0.1686
11877TIP3    H157122   0.056  -0.014   4.183 -1.5756 -1.2786  0.3408
11877TIP3    H257123   0.011   0.121   4.134  0.7867 -0.5624 -0.0044
11878TIP3   OH257124   0.322   1.956  15.170 -0.0450  0.0857 -0.3539
11878TIP3    H157125   0.413   1.955  15.198  0.6693  0.6483 -2.5013
11878TIP3    H257126   0.316   2.026  15.105 -1.8246 -0.4107 -0.8073
11879TIP3   OH257127   0.002   3.064  16.033  0.2543  0.5780 -0.1204
11879TIP3    H157128   0.020   3.038  16.124 -0.9020  0.3500  0.0655
11879TIP3    H257129  -0.028   2.984  15.991  1.9318  0.4030 -1.0582
11880TIP3   OH257130   3.781   0.098  10.309  0.9990 -0.3773 -0.8572
11880TIP3    H157131   3.876   0.108  10.314  0.9127 -0.1117  1.5536
11880TIP3    H257132   3.760   0.031  10.374 -0.5364  0.2805 -0.6243
11881TIP3   OH257133   0.043   1.662  15.216  0.6750 -0.0383  0.4946
11881TIP3    H157134   0.050   1.691  15.125  0.8277  0.0968  0.5480
11881TIP3    H257135   0.032   1.743  15.266 -1.7993 -0.2398  0.3860
11882TIP3   OH257136   3.641   6.092   0.113  0.4536 -0.2042 -0.1226
11882TIP3    H157137   3.579   6.109   0.042  1.8894  1.1826 -1.1286
11882TIP3    H257138   3.646   5.997   0.119  0.7663 -0.3862 -2.3607
11883TIP3   OH257139   1.100   1.550   1.911  0.2182 -0.6724  0.3491
11883TIP3    H157140   1.138   1.583   1.992  1.2635  0.1970 -0.4606
11883TIP3    H257141   1.033   1.615   1.888  0.1048 -0.7781  0.3805
11884TIP3   OH257142   2.902   5.680   4.681 -0.3183 -1.1628  0.4680
11884TIP3    H157143   2.814   5.653   4.708 -0.1926 -2.8412 -0.6303
11884TIP3    H257144   2.955   5.601   4.689  2.0070  0.5230  4.3797
11885TIP3   OH257145   6.502   6.126   3.416 -0.0968 -0.2763 -0.1085
11885TIP3    H157146   6.562   6.065   3.373 -0.6955 -1.0774  0.1818
11885TIP3    H257147   6.424   6.074   3.434 -0.2420  0.3176  1.0236
11886TIP3   OH257148   6.157   0.441  14.228  0.1329  0.0340 -0.8396
11886TIP3    H157149   6.133   0.366  14.173  0.9499 -0.3215 -0.7276
11886TIP3    H257150   6.076   0.465  14.273  0.4661 -2.8627  1.6386
11887TIP3   OH257151   5.533   5.822   4.456  0.0445  0.0661 -0.2150
11887TIP3    H157152   5.574   5.909   4.460 -0.7675  0.4211  1.0225
11887TIP3    H257153   5.487   5.821   4.372 -0.1116  0.9353 -0.1534
11888TIP3   OH257154   4.531   3.045  13.791  0.3466  0.0226  0.1365
11888TIP3    H157155   4.549   2.979  13.859 -0.9238  1.8563  2.4131
11888TIP3    H257156   4.611   3.046  13.738  1.5984 -1.2507  1.8440
11889TIP3   OH257157   4.682   2.298  12.014  0.4038  0.0040  0.1834
11889TIP3    H157158   4.735   2.219  12.025 -0.9245 -0.7774  1.2700
11889TIP3    H257159   4.592   2.266  12.012 -0.1001  1.3998 -0.5110
11890TIP3   OH257160   1.318   5.254   0.836  0.6174 -0.4747 -0.4326
11890TIP3    H157161   1.231   5.293   0.825  0.7743  0.0763  0.2111
11890TIP3    H257162   1.340   5.221   0.749  0.4421  0.8042 -0.9920
11891TIP3   OH257163   5.830   2.127   4.064 -0.0528 -0.3741  0.0619
11891TIP3    H157164   5.768   2.198   4.046  0.0070  0.2407  2.0840
11891TIP3    H257165   5.809   2.098   4.153  1.9791 -0.7486  0.4723
11892TIP3   OH257166   3.846   0.294   2.242 -1.0937  0.1289 -0.1570
11892TIP3    H157167   3.800   0.279   2.160  0.6634 -0.8657 -1.0064
11892TIP3    H257168   3.924   0.238   2.237 -0.1152  1.2575  1.4879
11893TIP3   OH257169   4.383   6.424  10.450  0.0147 -0.3291 -0.3752
11893TIP3    H157170   4.459   6.405  10.505 -0.7270 -1.3138  0.3490
11893TIP3    H257171   4.383   6.519  10.439 -0.0439 -0.0530  1.6697
11894TIP3   OH257172   5.491   5.964   3.589  0.2044  0.2869 -0.3125
11894TIP3    H157173   5.581   5.994   3.577  0.3693 -0.0543  0.0431
11894TIP3    H257174   5.454   6.024   3.653 -0.0220  0.8097 -0.9152
11895TIP3   OH257175   1.825   3.942   3.811 -0.6397 -0.4895  0.0986
11895TIP3    H157176   1.827   4.035   3.788  0.1099 -0.7811 -1.0980
11895TIP3    H257177   1.910   3.925   3.851 -0.4831 -0.8168 -0.3638
11896TIP3   OH257178   2.715   5.854   3.883  0.8050 -1.1878 -0.6813
11896TIP3    H157179   2.734   5.908   3.961 -0.7308 -2.0168  0.3018
11896TIP3    H257180   2.763   5.898   3.813  1.1093  0.3956  0.4425
11897TIP3   OH257181   6.374   5.173   2.866  0.2338 -0.5776 -0.5383
11897TIP3    H157182   6.342   5.110   2.802 -1.3219 -0.2739 -0.0947
11897TIP3    H257183   6.465   5.146   2.882  0.6226 -0.7427 -2.7204
11898TIP3   OH257184   1.186   1.099  14.332 -0.1655  0.2892 -0.0860
11898TIP3    H157185   1.167   1.148  14.252  0.6324 -1.0153 -1.1232
11898TIP3    H257186   1.208   1.011  14.301 -2.5285 -1.0643  1.7391
11899TIP3   OH257187   2.106   4.883  14.487  0.1280  0.2160  0.1374
11899TIP3    H157188   2.049   4.859  14.415  0.7080 -0.8699  0.0240
11899TIP3    H257189   2.193   4.889  14.448  0.3078  0.5243  0.5712
11900TIP3   OH257190   2.237   1.652  14.940  0.0990  0.4355  0.2443
11900TIP3    H157191   2.217   1.708  15.016 -0.4719 -0.3151  0.6535
11900TIP3    H257192   2.333   1.652  14.936  0.1387  0.5067  0.9506
11901TIP3   OH257193   2.931   1.945   2.175  0.0664 -0.1708  0.1861
11901TIP3    H157194   2.917   2.038   2.193  0.5259  0.0377 -0.4948
11901TIP3    H257195   2.918   1.936   2.080  1.2869 -0.5585  0.0402
11902TIP3   OH257196   6.464   0.453   2.666  0.5604  0.0936  0.0389
11902TIP3    H157197   6.543   0.426   2.619 -0.0036  0.4600 -1.1579
11902TIP3    H257198   6.407   0.377   2.662 -0.2877  0.7786 -1.6883
11903TIP3   OH257199   1.778   6.821   3.590 -0.5949 -0.2583  0.1644
11903TIP3    H157200   1.699   6.798   3.639 -1.1499 -0.0099 -0.5918
11903TIP3    H257201   1.788   6.750   3.526 -0.8411  0.2650 -0.4639
11904TIP3   OH257202   4.587   5.954  15.814  0.1340 -0.4667 -0.2612
11904TIP3    H157203   4.608   5.864  15.789  1.6990 -0.0223 -0.6487
11904TIP3    H257204   4.610   6.007  15.737  0.1925  0.3778  0.3158
11905TIP3   OH257205   5.188   3.490   4.153  0.1071  0.0940  0.1961
11905TIP3    H157206   5.124   3.561   4.145  0.5240  0.4904  0.2582
11905TIP3    H257207   5.142   3.412   4.125 -0.3856  0.3834  0.1881
11906TIP3   OH257208   4.166   5.568   2.575  0.2817  0.0790 -0.1185
11906TIP3    H157209   4.232   5.512   2.533 -1.5053 -0.6948 -2.0612
11906TIP3    H257210   4.109   5.596   2.503  0.6026  3.8130  0.8868
11907TIP3   OH257211   0.754   2.099   0.610 -0.1703  0.5177 -0.3247
11907TIP3    H157212   0.846   2.110   0.587  0.3121  0.2665  1.3724
11907TIP3    H257213   0.713   2.068   0.529  1.1598  0.9171 -1.1913
11908TIP3   OH257214   0.763   5.022  14.618 -0.4543 -0.4608 -0.0401
11908TIP3    H157215   0.721   5.104  14.591 -2.1266 -1.7526 -1.7111
11908TIP3    H257216   0.818   4.998  14.543  1.2622 -0.1354  1.0648
11909TIP3   OH257217   4.290   4.547   3.508 -0.1639  0.0568 -0.0017
11909TIP3    H157218   4.231   4.620   3.489 -0.2011  0.0557  0.1065
11909TIP3    H257219   4.352   4.583   3.571  0.0821  0.1200 -0.2797
11910TIP3   OH257220   6.442   5.225  13.938  0.1239  0.2756 -0.3116
11910TIP3    H157221   6.427   5.256  13.849 -1.7058 -1.0442 -0.5190
11910TIP3    H257222   6.372   5.162  13.953  2.8574 -2.7979  0.5361
11911TIP3   OH257223   0.488   5.899  16.323 -0.1482  0.6152  0.1823
11911TIP3    H157224   0.484   5.813  16.281  3.2186  0.3081  0.2264
11911TIP3    H257225   0.537   5.885  16.404  4.0553  3.0016 -1.6211
11912TIP3   OH257226   0.026   0.994   0.776 -0.2178  0.6309 -0.1015
11912TIP3    H157227   0.022   0.974   0.683 -1.8785 -0.2018  0.1049
11912TIP3    H257228   0.060   0.914   0.816  0.7851  1.0941 -0.0056
11913TIP3   OH257229   4.250   1.627  15.241  0.2253 -0.1816  0.0365
11913TIP3    H157230   4.234   1.551  15.297  0.0699 -1.0137 -1.1154
11913TIP3    H257231   4.225   1.598  15.153  2.6491  0.3262 -0.9005
11914TIP3   OH257232   5.994   0.771  14.510  0.4687  0.4503  0.0848
11914TIP3    H157233   5.986   0.798  14.418 -0.4533  1.3597  0.4170
11914TIP3    H257234   5.917   0.809  14.553  0.1757 -1.0920  0.9738
11915TIP3   OH257235   6.177   4.921  11.827 -0.0689  0.7734 -0.2602
11915TIP3    H157236   6.126   4.888  11.901 -0.2362  1.4747 -0.0589
11915TIP3    H257237   6.129   4.892  11.749  0.6065 -0.7819 -0.1329
11916TIP3   OH257238   3.591   3.832   5.084 -0.3523  0.9210  0.5711
11916TIP3    H157239   3.623   3.821   4.995  2.9021 -2.9319  1.8867
11916TIP3    H257240   3.506   3.789   5.085 -0.8885  1.8939 -0.8363
11917TIP3   OH257241   5.824   0.474   5.593  0.6930  0.1096 -0.5851
11917TIP3    H157242   5.838   0.410   5.663 -2.9080  0.1521  0.3469
11917TIP3    H257243   5.864   0.554   5.626  2.2239 -0.7471 -0.2455
11918TIP3   OH257244   0.273   0.102  12.851 -0.0232  0.2300  0.8125
11918TIP3    H157245   0.319   0.186  12.860 -2.5999  1.8749 -0.4170
11918TIP3    H257246   0.328   0.051  12.791  0.5658  1.8539 -0.0894
11919TIP3   OH257247   0.538   4.472  14.320 -0.2173  0.0299 -0.6400
11919TIP3    H157248   0.474   4.404  14.338 -0.2365  0.1673 -0.1582
11919TIP3    H257249   0.621   4.425  14.309  0.0270 -0.0040  1.0026
11920TIP3   OH257250   6.282   5.975   1.497  0.3426 -0.2969 -0.1387
11920TIP3    H157251   6.199   5.944   1.459 -0.8899  0.7403  1.6048
11920TIP3    H257252   6.349   5.933   1.442 -1.2980 -1.1195 -1.6525
11921TIP3   OH257253   5.741   3.796  13.626 -0.2465 -0.4400  0.0312
11921TIP3    H157254   5.795   3.826  13.554 -0.6904  1.3188  0.3671
11921TIP3    H257255   5.656   3.778  13.586 -0.1673 -0.5911 -0.0696
11922TIP3   OH257256   6.810   1.051  12.121 -0.2279 -0.3472 -0.0893
11922TIP3    H157257   6.870   1.052  12.195 -0.3932  1.3009  0.0656
11922TIP3    H257258   6.827   0.968  12.077  1.5392 -0.3168  0.4585
11923TIP3   OH257259   0.476   1.411   3.904  0.3468 -0.0284 -0.2324
11923TIP3    H157260   0.513   1.419   3.992 -1.4601  1.8125  0.4258
11923TIP3    H257261   0.521   1.335   3.866  0.7830 -1.2156  2.4559
11924TIP3   OH257262   4.179   0.667  15.567 -0.4852 -0.0790  0.7666
11924TIP3    H157263   4.169   0.731  15.637 -0.8420  0.2743  0.3985
11924TIP3    H257264   4.256   0.695  15.518 -0.4153 -0.1507  0.8366
11925TIP3   OH257265   3.764   5.468   1.206  0.0316  0.1017 -0.2134
11925TIP3    H157266   3.856   5.464   1.180  0.2033  0.2821  0.3613
11925TIP3    H257267   3.765   5.509   1.293 -0.6592  0.8691 -0.5584
11926TIP3   OH257268   5.627   0.612   2.537  0.5593 -0.7440 -0.3548
11926TIP3    H157269   5.590   0.691   2.496 -1.3025 -1.4493 -0.1382
11926TIP3    H257270   5.561   0.544   2.521  1.7260 -2.0566  0.2145
11927TIP3   OH257271   4.317   2.641   3.392  0.3786  0.6724  0.1120
11927TIP3    H157272   4.293   2.645   3.485 -0.1914  1.6142 -0.0570
11927TIP3    H257273   4.249   2.587   3.352 -0.0195  1.2121  0.0566
11928TIP3   OH257274   2.107   5.225  14.297 -0.0688 -0.1918  0.5115
11928TIP3    H157275   2.141   5.259  14.215 -0.9342 -0.4997  0.0162
11928TIP3    H257276   2.025   5.183  14.274 -2.4357  3.1081  2.0221
11929TIP3   OH257277   6.452   0.153   3.743  0.4456  0.0029  0.6643
11929TIP3    H157278   6.364   0.115   3.745  0.1613  0.6338  0.1795
11929TIP3    H257279   6.509   0.080   3.769 -0.2620 -0.2608  1.5323
11930TIP3   OH257280   1.577   5.981   3.017 -0.2245 -0.0746  0.2274
11930TIP3    H157281   1.613   5.920   2.953 -1.0530 -0.4020  0.0570
11930TIP3    H257282   1.548   5.926   3.089  1.4825  0.3665  1.2956
11931TIP3   OH257283   3.719   6.188  14.606  0.0665  0.0335 -0.3397
11931TIP3    H157284   3.740   6.270  14.562 -0.8890  0.6539  0.3416
11931TIP3    H257285   3.759   6.120  14.551 -0.6648  0.8175 -1.8874
11932TIP3   OH257286   5.840   5.294  16.116 -0.3337  0.1059  0.3275
11932TIP3    H157287   5.874   5.383  16.108 -0.4542  0.0735 -0.6379
11932TIP3    H257288   5.888   5.244  16.050 -1.1542 -0.2718  0.0109
11933TIP3   OH257289   1.769   3.767  12.973 -0.0079 -0.7006 -0.1980
11933TIP3    H157290   1.799   3.752  12.883 -0.6182 -1.4445 -0.2890
11933TIP3    H257291   1.848   3.760  13.026  0.2371 -1.0063 -0.5948
11934TIP3   OH257292   4.474   5.870   4.970  0.1379  0.3840  0.8245
11934TIP3    H157293   4.503   5.901   4.884 -0.4166  0.8538  0.8070
11934TIP3    H257294   4.536   5.909   5.031 -0.1408  0.9665  0.7384
11935TIP3   OH257295   2.932   1.267  11.595 -0.6928 -0.3961 -0.4792
11935TIP3    H157296   2.934   1.341  11.534 -0.1628  0.3012  0.3647
11935TIP3    H257297   2.888   1.197  11.546 -2.0143  0.7433 -0.9973
11936TIP3   OH257298   3.971   4.029   6.862  0.4546  0.0576 -0.0867
11936TIP3    H157299   4.019   3.951   6.833 -0.0682  0.0081 -0.8491
11936TIP3    H257300   3.996   4.097   6.799 -1.5166 -0.3252 -1.3770
11937TIP3   OH257301   5.651   3.879   0.025 -0.2293 -0.1002 -0.2540
11937TIP3    H157302   5.687   3.958   0.067  0.6115 -0.3383 -0.5000
11937TIP3    H257303   5.645   3.902  -0.067  0.5298 -0.4875 -0.4124
11938TIP3   OH257304   3.257   2.308   0.789  0.3054 -0.2189 -0.2454
11938TIP3    H157305   3.312   2.386   0.783  0.6957 -0.4297  0.4389
11938TIP3    H257306   3.179   2.337   0.835  0.9124 -0.4472  0.9840
11939TIP3   OH257307   3.448   4.024  16.790  0.6981 -0.2608  0.2567
11939TIP3    H157308   3.491   4.086  16.849  1.5095 -2.0177  1.5954
11939TIP3    H257309   3.520   3.975  16.751  0.0366 -1.7532  0.8438
11940TIP3   OH257310   5.948   1.668  16.768  0.0480  0.0912  0.3492
11940TIP3    H157311   5.862   1.629  16.787 -0.3645 -0.0561 -1.5721
11940TIP3    H257312   6.011   1.606  16.803 -0.6217 -0.8594 -0.0974
11941TIP3   OH257313   0.204   6.267   1.995 -0.2412 -0.6371  0.3165
11941TIP3    H157314   0.123   6.307   2.026 -0.3806  2.2406 -3.1155
11941TIP3    H257315   0.177   6.187   1.950 -1.2735  0.4286 -1.0156
11942TIP3   OH257316   4.932   4.164  14.290 -0.2293  0.3710  0.1303
11942TIP3    H157317   4.953   4.101  14.220  0.3250 -0.6380  1.1639
11942TIP3    H257318   4.850   4.131  14.328 -0.7432  1.1433 -0.2962
11943TIP3   OH257319   5.072   6.296   1.521 -0.8873 -0.0441  0.2034
11943TIP3    H157320   5.098   6.204   1.519  0.8001  0.3998 -0.0678
11943TIP3    H257321   4.988   6.299   1.475 -0.7431 -1.3768 -0.1801
11944TIP3   OH257322   0.256   1.808   6.329  0.0323  0.5981  0.2028
11944TIP3    H157323   0.168   1.839   6.352  0.4727  0.9228  1.5476
11944TIP3    H257324   0.269   1.837   6.238 -1.6664 -0.4477 -0.4290
11945TIP3   OH257325   3.355   5.828  14.507  0.2015 -0.6475 -0.1611
11945TIP3    H157326   3.409   5.772  14.562 -0.9107 -0.2588  1.3926
11945TIP3    H257327   3.418   5.882  14.458  1.2172 -0.7984  0.9509
11946TIP3   OH257328   4.310   4.039  14.904  0.2419 -0.5997 -0.1483
11946TIP3    H157329   4.239   4.102  14.896  1.8901  1.2254 -1.2311
11946TIP3    H257330   4.362   4.071  14.978  0.5276 -1.2966 -0.0405
11947TIP3   OH257331   3.191   1.738   4.680 -0.1325 -0.0159  0.1047
11947TIP3    H157332   3.113   1.708   4.633  0.0413  1.4011 -1.1642
11947TIP3    H257333   3.255   1.667   4.667 -0.6330 -0.3898 -0.3632
11948TIP3   OH257334   4.019   4.357   2.225 -0.4601  0.5711  0.1902
11948TIP3    H157335   3.940   4.309   2.247  0.3955 -0.8675  0.2187
11948TIP3    H257336   4.077   4.292   2.186  0.4726  1.7285 -0.4270
11949TIP3   OH257337   0.785   2.481  11.760 -0.4758 -0.9803 -0.7143
11949TIP3    H157338   0.771   2.404  11.705 -2.3007 -1.0534 -0.2143
11949TIP3    H257339   0.749   2.554  11.708  1.2089 -0.4256 -1.1738
11950TIP3   OH257340   5.846   5.578   4.040  0.2920  0.2784  0.0072
11950TIP3    H157341   5.890   5.564   3.956 -1.9958 -1.3621 -1.0316
11950TIP3    H257342   5.916   5.574   4.105  1.8730 -0.4496 -1.6596
11951TIP3   OH257343   6.279   2.779   1.561 -0.0366  0.1884 -0.0180
11951TIP3    H157344   6.353   2.719   1.577  0.3649  0.7989  0.4737
11951TIP3    H257345   6.229   2.777   1.642 -0.7687 -0.4889 -0.4742
11952TIP3   OH257346   0.994   6.419   5.546 -0.4057  0.4735  0.1302
11952TIP3    H157347   0.963   6.474   5.618  0.2998  0.4092  0.4936
11952TIP3    H257348   1.005   6.333   5.585  0.9601  0.6654  0.2184
11953TIP3   OH257349   4.301   5.144  16.931  0.0963 -0.7856  0.1206
11953TIP3    H157350   4.297   5.206  16.859 -0.2578 -0.2472  0.5880
11953TIP3    H257351   4.218   5.157  16.978  0.9078 -0.1309  1.4221
11954TIP3   OH257352   5.764   2.169  10.543  0.3981 -0.0345  0.1230
11954TIP3    H157353   5.853   2.138  10.561  0.2575 -0.6514 -0.2076
11954TIP3    H257354   5.727   2.186  10.629  1.5703  2.4279  0.2381
11955TIP3   OH257355   4.913   3.111  11.182 -0.5249  0.0065 -0.1500
11955TIP3    H157356   4.826   3.131  11.148 -1.2802 -1.1115  1.0152
11955TIP3    H257357   4.972   3.124  11.107 -1.8036 -0.0722 -1.2094
11956TIP3   OH257358   3.839   2.101  16.026  0.1216  0.0551  0.0355
11956TIP3    H157359   3.895   2.155  16.081  0.1998 -0.3101  0.3161
11956TIP3    H257360   3.761   2.155  16.010  1.1962  1.1985 -1.6576
11957TIP3   OH257361   3.444   0.545  14.461 -0.3869 -0.6276  0.0719
11957TIP3    H157362   3.457   0.498  14.543 -0.7881 -1.6195 -0.4251
11957TIP3    H257363   3.497   0.498  14.397 -0.2619  0.0003 -0.2974
11958TIP3   OH257364   4.765   0.762  12.811  0.0135 -0.6512 -0.3811
11958TIP3    H157365   4.677   0.724  12.813 -0.7350  0.9496  1.8839
11958TIP3    H257366   4.823   0.690  12.837 -0.6258 -1.6741 -1.6914
11959TIP3   OH257367   4.757   2.128  13.462 -0.2853  0.2426  0.0250
11959TIP3    H157368   4.716   2.125  13.375 -0.1655  0.8583 -0.0514
11959TIP3    H257369   4.784   2.037  13.478  1.0373  0.3773 -1.2267
11960TIP3   OH257370   3.606   0.737   6.589 -1.0154  0.0421 -0.0497
11960TIP3    H157371   3.533   0.696   6.634  1.3367 -3.4665  0.9663
11960TIP3    H257372   3.608   0.697   6.502 -0.3337  0.0979 -0.0719
11961TIP3   OH257373   2.972   2.665  13.679 -0.4895  0.4641  0.2624
11961TIP3    H157374   3.036   2.714  13.731  0.4062  0.6054 -0.9476
11961TIP3    H257375   2.968   2.711  13.595 -1.0195 -0.4567 -0.2323
11962TIP3   OH257376   3.792   4.864  16.611  0.1819  0.0872 -0.3432
11962TIP3    H157377   3.822   4.783  16.569 -0.3077 -0.7042  0.7837
11962TIP3    H257378   3.863   4.926  16.596  1.2276 -0.9789 -0.0178
11963TIP3   OH257379   5.326   4.169  11.338  0.0665  0.7863  0.1917
11963TIP3    H157380   5.317   4.167  11.433 -1.5801  0.1702  0.0582
11963TIP3    H257381   5.311   4.261  11.314  0.0974  0.8708  0.4942
11964TIP3   OH257382   2.598   6.467   5.400 -0.4225 -0.4500  0.3252
11964TIP3    H157383   2.584   6.496   5.490  0.7350 -1.1797  0.7695
11964TIP3    H257384   2.512   6.438   5.370 -0.7317 -0.6547  1.3682
11965TIP3   OH257385   4.075   3.177   0.592 -0.4207  0.2909  0.0758
11965TIP3    H157386   4.072   3.143   0.503  0.3599 -0.5337  0.3491
11965TIP3    H257387   4.032   3.110   0.645  2.4432 -1.1086  0.8401
11966TIP3   OH257388   1.434   2.176   3.486 -0.1119 -0.3571 -0.6785
11966TIP3    H157389   1.498   2.145   3.422  0.9714 -0.7249  0.5539
11966TIP3    H257390   1.356   2.124   3.468  0.5613 -1.3164 -0.9286
11967TIP3   OH257391   4.712   0.455  16.408  0.4874 -0.0384  0.5146
11967TIP3    H157392   4.656   0.387  16.446  1.0808 -1.0214 -0.2989
11967TIP3    H257393   4.687   0.458  16.316 -0.4152  1.7815  0.7819
11968TIP3   OH257394   4.702   2.108  13.194  0.2302 -0.1120  0.8933
11968TIP3    H157395   4.711   2.186  13.140  2.9466  0.2904  1.8071
11968TIP3    H257396   4.755   2.042  13.151 -1.2471 -1.2108  0.6678
11969TIP3   OH257397   6.446   5.572   5.670 -0.0628  0.3784  0.1193
11969TIP3    H157398   6.457   5.568   5.575  0.5941 -1.6374  0.2325
11969TIP3    H257399   6.463   5.663   5.692 -1.1110  1.0851 -1.7738
11970TIP3   OH257400   2.274   1.205  10.985 -0.5454  0.2274  0.2595
11970TIP3    H157401   2.286   1.178  10.894  0.4718  0.8382  0.2010
11970TIP3    H257402   2.310   1.133  11.037 -1.0703 -0.0939  0.1852
11971TIP3   OH257403   1.165   4.462  13.423  0.5450 -0.3534 -0.4025
11971TIP3    H157404   1.091   4.433  13.475  1.3878 -0.5881  0.6923
11971TIP3    H257405   1.172   4.556  13.440  0.6864 -0.3888 -0.2620
11972TIP3   OH257406   1.931   5.171  11.886  0.2765  0.0842 -0.5651
11972TIP3    H157407   1.990   5.129  11.824  1.5706  0.1062  0.6061
11972TIP3    H257408   1.926   5.262  11.857  2.0983  0.4642  0.2038
11973TIP3   OH257409   2.502   6.632   2.208 -0.1055 -0.1657  0.5697
11973TIP3    H157410   2.586   6.588   2.198  0.1637 -0.0633  2.2220
11973TIP3    H257411   2.446   6.590   2.142  0.9558 -0.8965  0.1008
11974TIP3   OH257412   5.185   5.769  14.980 -0.7650 -0.4372 -0.1460
11974TIP3    H157413   5.209   5.765  14.888  0.1484  1.7919 -0.0793
11974TIP3    H257414   5.262   5.807  15.023 -2.2386  1.4583  1.0198
11975TIP3   OH257415   5.092   0.672  12.720  0.7298 -0.4611  0.0495
11975TIP3    H157416   5.052   0.632  12.797  0.4360  0.5258  0.4306
11975TIP3    H257417   5.155   0.607  12.688  1.2981 -0.6496  1.4850
11976TIP3   OH257418   4.154   3.381  10.512 -0.2627 -0.0208  0.8067
11976TIP3    H157419   4.244   3.356  10.534 -0.2988 -0.4867  0.4475
11976TIP3    H257420   4.102   3.304  10.537 -0.1171 -1.3326 -2.4414
11977TIP3   OH257421   4.360   0.672   0.824  0.6534  0.0451 -0.1031
11977TIP3    H157422   4.422   0.681   0.896  0.2482  2.4381  0.0348
11977TIP3    H257423   4.390   0.734   0.758 -0.1970 -0.5519 -1.0954
11978TIP3   OH257424   0.927   1.681  16.255  0.0094 -0.2617 -0.0637
11978TIP3    H157425   0.941   1.590  16.283 -0.6328 -1.1232 -2.3041
11978TIP3    H257426   0.831   1.690  16.252  0.0648  0.6779  0.6579
11979TIP3   OH257427   6.446   4.368   0.658 -0.7152  0.3947  0.1087
11979TIP3    H157428   6.392   4.377   0.736  0.5098 -0.9745  1.1706
11979TIP3    H257429   6.536   4.368   0.691 -0.2146 -2.0966 -1.0534
11980TIP3   OH257430   2.493   4.258   2.176  0.0747 -0.1981 -0.0661
11980TIP3    H157431   2.550   4.186   2.202  0.2883 -0.5292 -1.3880
11980TIP3    H257432   2.524   4.284   2.089  1.0222  2.5379  0.9756
11981TIP3   OH257433   4.345   0.723  11.094 -0.3947  0.1063 -0.5986
11981TIP3    H157434   4.354   0.628  11.102 -1.8112  0.0133  0.2464
11981TIP3    H257435   4.360   0.742  11.001  0.0547 -0.9132 -0.7430
11982TIP3   OH257436   0.528   4.764   3.018  0.2293  0.8600  0.1323
11982TIP3    H157437   0.534   4.856   3.042 -0.5568  0.6410  1.2727
11982TIP3    H257438   0.462   4.728   3.077  1.3423 -0.6916  0.5063
11983TIP3   OH257439   0.907   2.193  14.761 -0.5249  0.2930 -0.3474
11983TIP3    H157440   0.847   2.128  14.798  2.4952 -1.4307  1.9984
11983TIP3    H257441   0.863   2.277  14.775 -2.3732 -0.8605  1.2430
11984TIP3   OH257442   0.374   1.135  11.832  0.4846  0.3986  0.6075
11984TIP3    H157443   0.387   1.229  11.844 -1.2227  0.6113  1.0035
11984TIP3    H257444   0.311   1.129  11.760 -1.8346 -0.2713  2.5757
11985TIP3   OH257445   4.168   5.103   0.987  0.4478 -0.1779 -0.4174
11985TIP3    H157446   4.176   5.183   0.935 -1.9394 -0.0775 -0.7421
11985TIP3    H257447   4.093   5.118   1.044  1.7847 -1.0731  1.7040
11986TIP3   OH257448   3.040   0.173  15.117 -0.5497 -0.6942 -0.4162
11986TIP3    H157449   2.991   0.123  15.052  0.9237 -0.5885 -1.6834
11986TIP3    H257450   3.033   0.264  15.089 -0.7509 -0.5268  0.1655
11987TIP3   OH257451   5.006   4.726  14.884 -0.0715  0.4387 -0.3202
11987TIP3    H157452   5.029   4.729  14.977  0.6559  1.2868 -0.5116
11987TIP3    H257453   5.086   4.694  14.840 -0.0737  1.0001 -0.7458
11988TIP3   OH257454   5.812   4.175  12.483  0.3738 -0.2326  0.0668
11988TIP3    H157455   5.888   4.117  12.479 -0.7424 -1.7672  0.0798
11988TIP3    H257456   5.736   4.116  12.479 -0.8303  1.2627 -0.2866
11989TIP3   OH257457   1.553   1.586  12.732  0.2413 -0.2524  0.0022
11989TIP3    H157458   1.530   1.673  12.700  3.2996  1.1527  1.1784
11989TIP3    H257459   1.479   1.560  12.787 -0.1759  2.3096  0.7767
11990TIP3   OH257460   3.788   5.975  13.662 -0.0570 -0.4798 -0.2377
11990TIP3    H157461   3.848   6.028  13.714  2.3491 -2.0702 -1.2520
11990TIP3    H257462   3.748   5.915  13.725  0.5238 -0.3779  0.2336
11991TIP3   OH257463   2.742   5.174  14.189  0.3274 -0.1267 -0.0028
11991TIP3    H157464   2.702   5.258  14.168 -0.8271 -0.5140  0.5952
11991TIP3    H257465   2.709   5.151  14.275  0.0672 -1.5144 -0.4341
11992TIP3   OH257466   0.562   5.010  15.269 -0.0186 -0.3588  0.5420
11992TIP3    H157467   0.648   5.013  15.310  0.0608 -0.3997  0.3805
11992TIP3    H257468   0.570   4.943  15.201 -0.0460 -0.0480  0.2293
11993TIP3   OH257469   3.544   0.796  14.200 -0.1100  0.0572 -0.0081
11993TIP3    H157470   3.583   0.785  14.287 -2.3863 -1.0076  0.9682
11993TIP3    H257471   3.598   0.863  14.158  2.2264 -0.7800  1.4693
11994TIP3   OH257472   3.018   5.322   4.009  0.3666 -0.3370 -0.1060
11994TIP3    H157473   2.970   5.240   4.001 -2.2769  1.2264 -1.9378
11994TIP3    H257474   3.023   5.356   3.920 -0.6681  2.5065  0.7847
11995TIP3   OH257475   0.427   5.595   5.596  0.0984 -0.4524 -0.1530
11995TIP3    H157476   0.461   5.650   5.667  0.4637  1.0831 -1.4643
11995TIP3    H257477   0.337   5.576   5.622  0.3186 -0.1931  0.8704
11996TIP3   OH257478   2.901   0.771  12.040  0.9076  0.1123  0.6467
11996TIP3    H157479   2.972   0.828  12.012  1.3661 -1.0498 -0.6756
11996TIP3    H257480   2.857   0.746  11.958 -0.5318  0.1535  1.3644
11997TIP3   OH257481   2.607   1.873  13.802 -0.0498 -0.7810  0.5319
11997TIP3    H157482   2.698   1.886  13.828  0.0305 -0.4584  0.0929
11997TIP3    H257483   2.564   1.955  13.824  0.4596  0.3206 -2.2417
11998TIP3   OH257484   3.943   1.548   0.453  0.3161  0.1885  0.5672
11998TIP3    H157485   3.867   1.549   0.510 -0.1789  1.5197 -0.0720
11998TIP3    H257486   3.938   1.630   0.404  1.3090 -0.4064 -0.6110
11999TIP3   OH257487   0.487   0.657  15.233 -0.7078  0.0744 -0.0822
11999TIP3    H157488   0.394   0.672  15.254 -0.9958  0.2690 -1.3990
11999TIP3    H257489   0.528   0.743  15.244 -0.4598 -0.1987  1.4235
12000TIP3   OH257490   5.380   3.311  16.499 -0.0202 -0.1537 -0.4380
12000TIP3    H157491   5.332   3.349  16.573  1.2178  0.6178 -0.0059
12000TIP3    H257492   5.471   3.333  16.515  0.3728 -0.6649 -1.7997
12001TIP3   OH257493   5.400   0.296  16.541  0.3406  0.3526 -0.5580
12001TIP3    H157494   5.330   0.267  16.483 -1.4591  1.0093  1.1595
12001TIP3    H257495   5.435   0.375  16.500  1.3313 -0.9352 -2.3134
12002TIP3   OH257496   2.012   4.185  16.150  0.2647 -0.0964 -0.0656
12002TIP3    H157497   2.078   4.211  16.086  1.0513  0.0711  0.8119
12002TIP3    H257498   2.025   4.243  16.224 -2.0535  1.1797 -0.5575
12003TIP3   OH257499   4.331   3.321   5.551 -0.3704  0.2389 -0.6470
12003TIP3    H157500   4.346   3.266   5.474 -0.0805 -1.7648  0.7631
12003TIP3    H257501   4.255   3.375   5.528 -0.9706 -1.0999 -1.9523
12004TIP3   OH257502   0.198   0.206   4.587  0.2329  0.0069  0.7319
12004TIP3    H157503   0.276   0.257   4.562  0.4160 -0.3038  0.6723
12004TIP3    H257504   0.139   0.271   4.624  0.6373  0.1990  1.0487
12005TIP3   OH257505   6.768   2.208  15.666  0.4535 -0.2454 -0.5406
12005TIP3    H157506   6.840   2.271  15.655  2.1040 -2.1551 -1.3071
12005TIP3    H257507   6.724   2.206  15.581  1.3256 -1.1539 -0.9902
12006TIP3   OH257508   6.008   4.901  16.118  0.2237 -0.5008 -0.3143
12006TIP3    H157509   5.992   4.840  16.190  0.5887 -0.0258  0.1712
12006TIP3    H257510   6.086   4.868  16.075  0.6006 -0.2122  0.1375
12007TIP3   OH257511   6.691   1.956   4.397 -0.2266 -0.1821  0.7498
12007TIP3    H157512   6.620   1.998   4.349 -0.5263 -0.7142  0.7152
12007TIP3    H257513   6.668   1.968   4.490 -0.8717 -1.1769  0.7361
12008TIP3   OH257514   3.309   4.913  16.287  0.1415  0.4267 -0.4575
12008TIP3    H157515   3.355   4.913  16.204  0.6533  0.0324 -0.1792
12008TIP3    H257516   3.357   4.977  16.341 -0.4937  1.0579 -0.6262
12009TIP3   OH257517   2.411   1.243   1.625 -0.2814  0.1990  0.3990
12009TIP3    H157518   2.395   1.149   1.618 -1.5916  0.4529 -0.4446
12009TIP3    H257519   2.379   1.266   1.712  1.8195 -0.4185  1.3985
12010TIP3   OH257520   0.115   3.952  12.750 -0.0592 -0.1819 -0.1434
12010TIP3    H157521   0.096   3.858  12.751 -0.3278 -0.1490 -0.9165
12010TIP3    H257522   0.036   3.993  12.784 -0.1144 -0.2136 -0.2340
12011TIP3   OH257523   5.399   0.797   4.818 -0.6584 -0.1864  0.1876
12011TIP3    H157524   5.358   0.829   4.899  0.2768  1.8126 -0.0578
12011TIP3    H257525   5.334   0.739   4.779 -1.1449 -1.1892  2.3419
12012TIP3   OH257526   4.033   4.223   6.003  0.2290  0.4306  0.0689
12012TIP3    H157527   3.973   4.220   6.077  0.0441 -0.8402 -0.1140
12012TIP3    H257528   4.064   4.314   6.001  1.1996  0.2218  2.4852
12013TIP3   OH257529   0.804   1.170  12.237 -0.3934 -0.4988  0.4474
12013TIP3    H157530   0.781   1.262  12.254 -1.6886 -0.8434  0.6506
12013TIP3    H257531   0.882   1.155  12.291  2.7123  1.7003 -2.9387
12014TIP3   OH257532   6.142   2.062  14.525 -0.1484  0.4023  0.4356
12014TIP3    H157533   6.184   2.141  14.559 -3.3344  1.5308  2.1360
12014TIP3    H257534   6.075   2.094  14.465  1.8057 -1.3667 -3.0094
12015TIP3   OH257535   2.221   2.783   1.945 -0.0007  0.2162 -0.3591
12015TIP3    H157536   2.165   2.779   1.867 -0.5529  1.2357 -0.0398
12015TIP3    H257537   2.229   2.692   1.973 -1.7533  0.0504 -0.2656
12016TIP3   OH257538   1.286   5.819  14.247  0.1680  0.5756  0.4676
12016TIP3    H157539   1.250   5.828  14.159 -2.6369 -3.3135  0.9342
12016TIP3    H257540   1.226   5.868  14.303 -0.2254  0.0482  0.5208
12017TIP3   OH257541   1.259   1.868   1.732 -1.1565 -0.0617 -0.1767
12017TIP3    H157542   1.244   1.927   1.806 -1.1718 -0.0289 -0.2060
12017TIP3    H257543   1.185   1.884   1.673 -0.2652  1.1455 -1.0140
12018TIP3   OH257544   0.763   2.121  17.134  0.4877 -0.2067  0.6511
12018TIP3    H157545   0.710   2.041  17.143 -1.8010  0.9527 -1.3022
12018TIP3    H257546   0.704   2.191  17.162  1.0877  1.1047 -1.1601
12019TIP3   OH257547   5.012   0.933   2.065  0.2445 -0.8511 -0.1514
12019TIP3    H157548   5.007   0.837   2.072  0.3053 -0.8588 -0.2065
12019TIP3    H257549   4.995   0.950   1.972 -1.4840 -0.6909  0.1710
12020TIP3   OH257550   6.247   4.571  15.614  0.0044  0.1218 -0.0049
12020TIP3    H157551   6.281   4.619  15.538 -0.4462 -0.9316 -0.8879
12020TIP3    H257552   6.201   4.496  15.577 -0.4927 -0.2475  1.3052
12021TIP3   OH257553   3.459   1.136  12.912 -0.0349 -0.3144 -0.5722
12021TIP3    H157554   3.387   1.083  12.878  0.0377 -1.3252  0.8087
12021TIP3    H257555   3.514   1.075  12.960  1.7225  0.4546 -1.5040
12022TIP3   OH257556   6.827   5.197   5.275  0.3534  0.5213 -0.3077
12022TIP3    H157557   6.845   5.211   5.182 -2.1867  2.6290 -0.6010
12022TIP3    H257558   6.855   5.277   5.318  1.2890 -0.3394  0.7603
12023TIP3   OH257559   2.456   2.934   5.730 -0.5309  0.1308 -0.1338
12023TIP3    H157560   2.499   2.850   5.744 -1.7783 -0.8502 -1.8119
12023TIP3    H257561   2.528   2.995   5.715  0.3575 -1.1293 -1.2639
12024TIP3   OH257562   1.791   1.768   4.766  0.2212 -0.1000  0.3051
12024TIP3    H157563   1.811   1.679   4.738 -1.0722 -0.3157 -0.0186
12024TIP3    H257564   1.726   1.799   4.703  1.9616  1.7592 -0.6902
12025TIP3   OH257565   1.375   3.534  13.675 -0.1409 -0.1642  0.3824
12025TIP3    H157566   1.298   3.585  13.649  1.3165  1.2243 -1.4343
12025TIP3    H257567   1.388   3.472  13.604  0.6447 -0.1124  0.4711
12026TIP3   OH257568   4.567   2.715  14.939 -0.5330 -0.0872 -0.4029
12026TIP3    H157569   4.630   2.768  14.988 -1.6876 -0.1923  1.2820
12026TIP3    H257570   4.485   2.763  14.947 -0.5054  0.8282 -3.7737
12027TIP3   OH257571   6.391   6.235  12.727 -0.4748 -0.2381  0.1589
12027TIP3    H157572   6.341   6.158  12.755 -0.3151 -0.8785 -1.2129
12027TIP3    H257573   6.341   6.270  12.653  0.9502 -0.7911 -1.1261
12028TIP3   OH257574   3.835   4.237   2.917 -0.4913  0.6284 -0.8031
12028TIP3    H157575   3.829   4.256   3.010 -1.3881  0.2623 -0.7724
12028TIP3    H257576   3.915   4.186   2.907 -1.3343 -0.9307  0.0694
12029TIP3   OH257577   4.871   4.075  16.526 -0.1442  0.2266  0.6487
12029TIP3    H157578   4.810   4.111  16.590 -0.8242 -2.7616  1.8503
12029TIP3    H257579   4.868   3.980  16.540  0.8914 -0.4617 -2.7637
12030TIP3   OH257580   6.759   4.643  12.313 -0.0706  0.6433 -0.3797
12030TIP3    H157581   6.750   4.578  12.383  2.2591  0.2443 -0.3784
12030TIP3    H257582   6.729   4.598  12.234  0.2246  0.0312 -0.1459
12031TIP3   OH257583   0.174   1.911  14.402  0.5412  0.3140  0.3226
12031TIP3    H157584   0.258   1.899  14.448  0.9398 -1.1595 -0.7179
12031TIP3    H257585   0.128   1.976  14.454  2.4528  1.3957  0.7695
12032TIP3   OH257586   1.857   2.103   3.227  0.6616 -0.0949 -0.2562
12032TIP3    H157587   1.839   2.196   3.228  0.9977 -0.0271 -0.1688
12032TIP3    H257588   1.950   2.096   3.252  0.5654 -0.4663  0.0120
12033TIP3   OH257589   3.888   6.702  15.798  0.4548  0.3674 -0.3409
12033TIP3    H157590   3.907   6.796  15.790  0.4154  0.3625 -0.5039
12033TIP3    H257591   3.878   6.672  15.707  1.5883 -0.0313 -0.3516
12034TIP3   OH257592   0.732   2.513  16.435  0.4696 -0.3327 -0.4530
12034TIP3    H157593   0.806   2.459  16.462  0.6225 -0.2583 -0.7236
12034TIP3    H257594   0.748   2.531  16.342  1.1805  1.3605 -0.0455
12035TIP3   OH257595   4.076   1.032   5.911  0.0770  0.2764  0.4070
12035TIP3    H157596   4.010   1.092   5.944 -1.3859 -0.9736 -0.1587
12035TIP3    H257597   4.159   1.080   5.921 -0.9676  2.1615  0.4638
12036TIP3   OH257598   4.042   1.859  14.084  0.4919  0.3095 -0.2364
12036TIP3    H157599   4.100   1.886  14.012  1.2506  1.1246  0.6574
12036TIP3    H257600   4.027   1.939  14.134  0.6942 -0.4043  1.0150
12037TIP3   OH257601   1.561   5.856  11.126 -0.0553 -0.0770  0.3048
12037TIP3    H157602   1.502   5.908  11.180  0.0756  1.2193 -0.7656
12037TIP3    H257603   1.649   5.882  11.152  0.0311 -0.5320  0.4865
12038TIP3   OH257604   6.003   1.545   1.238  0.4219 -0.0017  0.2878
12038TIP3    H157605   6.086   1.576   1.274  0.5399 -0.0486  0.0631
12038TIP3    H257606   5.948   1.623   1.234  0.7077  0.1828 -0.2479
12039TIP3   OH257607   2.938   6.678  12.133 -0.2228  0.3873  0.2357
12039TIP3    H157608   2.885   6.609  12.173 -0.2270  0.7026  0.7938
12039TIP3    H257609   2.876   6.750  12.118 -0.0377  0.6009  0.4971
12040TIP3   OH257610   1.746   2.905  13.868  0.1225 -0.0601  0.3436
12040TIP3    H157611   1.745   2.852  13.789 -0.2965  1.3006 -0.6014
12040TIP3    H257612   1.732   2.994  13.837  1.7092  0.7430  1.7919
12041TIP3   OH257613   6.533   3.202   4.127  0.4445 -0.1962  0.4422
12041TIP3    H157614   6.517   3.236   4.039 -0.6635 -0.7521  0.4157
12041TIP3    H257615   6.623   3.229   4.147 -0.2253  2.3750  0.2737
12042TIP3   OH257616   1.794   4.224  13.097 -0.0811  0.2787 -0.1328
12042TIP3    H157617   1.774   4.224  13.190 -2.4554  1.0834 -0.5619
12042TIP3    H257618   1.886   4.250  13.092  0.4498 -1.0015  1.9980
12043TIP3   OH257619   5.867   5.303   6.361 -0.4678 -0.5451 -0.2366
12043TIP3    H157620   5.896   5.214   6.338  1.1854  0.2890 -1.6161
12043TIP3    H257621   5.771   5.296   6.364 -0.4045 -2.2742 -0.7726
12044TIP3   OH257622   2.811   5.220   6.102 -0.4267  0.6096  0.0675
12044TIP3    H157623   2.896   5.185   6.074 -0.0844 -0.2643  2.0293
12044TIP3    H257624   2.819   5.315   6.090  0.9764  0.5759  0.5429
12045TIP3   OH257625   6.532   0.486   6.145  0.1404  0.1107 -0.3046
12045TIP3    H157626   6.617   0.445   6.166  0.8429  1.0458 -1.2110
12045TIP3    H257627   6.511   0.538   6.223 -0.0119 -0.7353  0.2426
12046TIP3   OH257628   3.004   2.217  11.293  0.3257 -0.3783  0.4939
12046TIP3    H157629   2.985   2.148  11.356  1.5217  1.2980  2.8480
12046TIP3    H257630   3.097   2.207  11.272 -0.1963 -1.3269 -1.6381
12047TIP3   OH257631   2.134   1.655  13.285 -0.6628  0.5856 -0.1202
12047TIP3    H157632   2.163   1.739  13.319 -3.6660  2.7491 -2.3395
12047TIP3    H257633   2.196   1.634  13.215  0.9291  0.1247  1.3606
12048TIP3   OH257634   2.911   1.243   1.477  0.2753  0.3335 -0.1760
12048TIP3    H157635   2.888   1.330   1.445  0.5494  0.5241  0.1481
12048TIP3    H257636   2.852   1.228   1.550  1.7153  1.1788  1.2182
12049TIP3   OH257637   3.861   4.266  13.430  0.0770 -0.2220  0.1038
12049TIP3    H157638   3.786   4.243  13.485  0.1180  1.6448  1.0275
12049TIP3    H257639   3.869   4.193  13.369 -0.9340 -1.6406  1.5765
12050TIP3   OH257640   4.648   5.796  16.133 -0.1755  0.4258  0.4308
12050TIP3    H157641   4.739   5.824  16.142  0.2323 -0.1451 -1.5010
12050TIP3    H257642   4.638   5.776  16.040 -2.1126 -0.1043  0.7125
12051TIP3   OH257643   2.479   3.794   4.648  0.2777  0.2117 -0.2699
12051TIP3    H157644   2.385   3.782   4.634  0.4278 -0.3397 -0.8611
12051TIP3    H257645   2.520   3.727   4.593  1.0026  0.1298  0.3640
12052TIP3   OH257646   0.636   2.923   5.752 -0.0057 -0.4392 -0.2595
12052TIP3    H157647   0.619   2.830   5.765 -0.1194 -0.5644 -1.2409
12052TIP3    H257648   0.680   2.951   5.832 -0.0615 -1.3155  0.0833
12053TIP3   OH257649   4.306   3.341  16.931  0.3089 -0.4483 -0.1169
12053TIP3    H157650   4.356   3.418  16.902  0.8888 -0.7111  0.1837
12053TIP3    H257651   4.285   3.359  17.022 -0.5318 -0.1418 -0.3606
12054TIP3   OH257652   2.223   3.261  11.344 -0.7241  0.2407 -0.0126
12054TIP3    H157653   2.223   3.230  11.434  1.6974 -0.3652 -0.1551
12054TIP3    H257654   2.251   3.352  11.350  1.3536 -0.3464 -0.2454
12055TIP3   OH257655   4.050   0.856   4.845  0.1463 -0.1334  0.2911
12055TIP3    H157656   4.138   0.871   4.881 -0.2530  2.1987  0.4342
12055TIP3    H257657   4.042   0.919   4.774 -2.0464  0.9847  1.4350
12056TIP3   OH257658   2.017   6.170  11.231  0.3761 -0.0800  0.1646
12056TIP3    H157659   2.111   6.158  11.243  1.0004  1.7798 -2.1694
12056TIP3    H257660   1.987   6.208  11.313  1.5603 -0.9963  1.0577
12057TIP3   OH257661   5.742   0.955  17.046  0.2069  0.4179 -0.3485
12057TIP3    H157662   5.824   0.940  17.000  0.7257  0.3333  0.5654
12057TIP3    H257663   5.731   1.050  17.045  0.0023  0.3914 -0.9861
12058TIP3   OH257664   6.408   4.452  13.849  0.0177 -0.1372  0.7661
12058TIP3    H157665   6.318   4.464  13.819  0.3505  1.2960  0.2820
12058TIP3    H257666   6.456   4.525  13.811  1.5713 -1.3365  0.3446
12059TIP3   OH257667   1.516   0.784   1.642 -0.2267  0.2287 -0.2179
12059TIP3    H157668   1.433   0.771   1.595 -0.2668  0.6401 -0.2650
12059TIP3    H257669   1.577   0.813   1.575 -0.6181  2.0960  0.1925
12060TIP3   OH257670   1.435   0.711  15.518 -0.0828 -0.5644 -0.2020
12060TIP3    H157671   1.487   0.682  15.444  0.5673 -0.3499  0.1635
12060TIP3    H257672   1.484   0.682  15.595 -0.6303 -0.5832  0.1464
12061TIP3   OH257673   2.959   3.184   1.251  0.0182  0.1614 -0.2101
12061TIP3    H157674   3.001   3.239   1.185  2.1296  0.6430  1.4433
12061TIP3    H257675   3.007   3.201   1.332 -1.2624 -1.8126  1.0707
12062TIP3   OH257676   5.084   5.133  14.938  0.2704  0.0784 -0.2741
12062TIP3    H157677   5.113   5.108  15.026  1.5848  0.7690 -0.4854
12062TIP3    H257678   5.119   5.064  14.881  1.0062  0.5804 -0.4520
12063TIP3   OH257679   1.709   1.607   5.480 -0.0198  0.3622  0.1843
12063TIP3    H157680   1.697   1.613   5.386  0.2306  0.5807  0.1658
12063TIP3    H257681   1.775   1.538   5.492 -1.2332 -0.8331  0.2861
12064TIP3   OH257682   2.246   5.421  11.393 -0.2158 -0.0558  0.0225
12064TIP3    H157683   2.152   5.419  11.372 -0.7484 -0.8812  2.2005
12064TIP3    H257684   2.264   5.512  11.416  0.0614  0.5636 -2.3962
12065TIP3   OH257685   0.531   4.786   0.462  0.5384  0.4313  0.0669
12065TIP3    H157686   0.560   4.773   0.552 -1.1762  2.1663  0.9528
12065TIP3    H257687   0.462   4.720   0.449 -0.2969  1.1707  0.6093
12066TIP3   OH257688   5.734   2.240  15.527  0.2894  0.4189  0.4176
12066TIP3    H157689   5.778   2.298  15.589 -0.4712  2.1926 -0.5950
12066TIP3    H257690   5.722   2.294  15.449 -1.8727 -0.6016 -0.0493
12067TIP3   OH257691   3.352   4.068   3.264 -0.0866 -0.3271 -0.2931
12067TIP3    H157692   3.293   4.106   3.329 -1.9228  0.3602 -2.2208
12067TIP3    H257693   3.323   4.106   3.181  3.3316  0.2844 -1.3559
12068TIP3   OH257694   4.673   3.565  11.263 -0.2233  0.6408 -0.4650
12068TIP3    H157695   4.735   3.575  11.335  3.0930  0.9700 -3.0900
12068TIP3    H257696   4.648   3.655  11.240 -2.4127  0.4850  1.0366
12069TIP3   OH257697   2.457   3.846   1.650  0.4142 -0.0644 -0.1900
12069TIP3    H157698   2.371   3.890   1.651 -0.1939 -1.1804  1.4878
12069TIP3    H257699   2.485   3.850   1.559  0.1934  3.3517 -0.2402
12070TIP3   OH257700   6.149   3.413   3.111  0.2629 -0.3116  0.0362
12070TIP3    H157701   6.094   3.456   3.176 -0.6711  0.1018 -1.0082
12070TIP3    H257702   6.225   3.470   3.101 -0.9826  1.1725 -1.3711
12071TIP3   OH257703   5.542   3.553  14.724 -0.4611 -0.1821 -0.5266
12071TIP3    H157704   5.548   3.515  14.812 -0.2964 -0.4108 -0.6361
12071TIP3    H257705   5.542   3.478  14.665 -1.1470 -0.0581 -0.6969
12072TIP3   OH257706   4.415   4.020   6.101  0.5350 -0.4868 -0.0119
12072TIP3    H157707   4.426   4.039   6.008  0.5721 -0.3613  0.0192
12072TIP3    H257708   4.332   3.972   6.105  1.0008 -1.3431 -0.2291
12073TIP3   OH257709   4.467   2.551   2.495  0.5523  0.5520 -0.1621
12073TIP3    H157710   4.562   2.559   2.501  0.8512 -2.7246  1.5314
12073TIP3    H257711   4.434   2.594   2.574  0.7311  0.3686  0.0117
12074TIP3   OH257712   4.678   4.219  13.933  0.1614 -0.2475 -0.0582
12074TIP3    H157713   4.692   4.139  13.984  2.1914 -1.1031 -1.8065
12074TIP3    H257714   4.605   4.198  13.874  0.7080 -0.8658 -0.5325
12075TIP3   OH257715   0.041   5.765  15.734  0.1378  0.6200  0.0655
12075TIP3    H157716   0.073   5.850  15.764  0.4165  0.2580  0.8161
12075TIP3    H257717  -0.045   5.783  15.697  0.3490  1.2852 -0.1183
12076TIP3   OH257718   5.152   2.753  13.626  0.2889 -1.1095 -0.2693
12076TIP3    H157719   5.101   2.678  13.595  0.8220 -1.4145 -0.4335
12076TIP3    H257720   5.241   2.718  13.635  0.2091 -0.9351  1.2884
12077TIP3   OH257721   1.809   5.963  11.193 -0.6055  0.2669  0.2081
12077TIP3    H157722   1.838   6.050  11.166 -2.0130  0.6131 -0.2346
12077TIP3    H257723   1.830   5.958  11.286 -0.0268  0.8617  0.1146
12078TIP3   OH257724   4.610   5.592  14.262  0.2345 -0.1642 -0.3191
12078TIP3    H157725   4.517   5.606  14.276 -0.3146 -2.5737 -1.0084
12078TIP3    H257726   4.652   5.673  14.291 -2.2637  2.1545 -2.6819
12079TIP3   OH257727   1.910   5.654   4.941 -0.1067  0.2153 -0.1026
12079TIP3    H157728   1.989   5.607   4.967 -0.3348  0.2753  0.7597
12079TIP3    H257729   1.850   5.587   4.910 -0.4884 -0.1201  1.2680
12080TIP3   OH257730   2.932   5.798  11.992  0.2564 -0.2036  0.0864
12080TIP3    H157731   2.939   5.719  12.045 -1.3328 -0.7464 -0.4509
12080TIP3    H257732   2.839   5.804  11.970  0.4580  1.4316 -0.4757
12081TIP3   OH257733   6.519   6.264   1.995  0.2863 -0.8550  0.1054
12081TIP3    H157734   6.610   6.284   1.972 -0.3906  0.5685 -1.5911
12081TIP3    H257735   6.479   6.236   1.913 -0.5443 -2.6715  1.0812
12082TIP3   OH257736   4.375   3.996  13.464  0.6629  0.2499 -0.1388
12082TIP3    H157737   4.297   4.019  13.413 -0.4364 -1.5550  0.6376
12082TIP3    H257738   4.445   3.990  13.399 -0.1972  0.2777 -1.1052
12083TIP3   OH257739   6.720   3.528   2.731 -0.6755  0.6834 -0.3007
12083TIP3    H157740   6.793   3.474   2.762 -1.2822 -1.6002 -2.4550
12083TIP3    H257741   6.757   3.615   2.720  1.1099  0.1045  0.7975
12084TIP3   OH257742   2.431   2.817  16.423 -0.2493 -0.1843  0.1516
12084TIP3    H157743   2.496   2.887  16.415  1.0883 -1.5266 -1.1844
12084TIP3    H257744   2.382   2.840  16.503 -0.2963  2.5873 -0.5436
12085TIP3   OH257745   4.978   5.336  11.296 -0.2412  0.2736  0.3819
12085TIP3    H157746   5.002   5.296  11.212  0.3984  1.8407 -0.2295
12085TIP3    H257747   4.943   5.264  11.348  0.0010 -0.8767 -0.9786
12086TIP3   OH257748   1.881   0.700  13.801  0.3605 -0.0543  0.2452
12086TIP3    H157749   1.795   0.742  13.811  0.8047  0.4792  2.0149
12086TIP3    H257750   1.934   0.765  13.755 -0.1406 -0.3531 -0.7814
12087TIP3   OH257751   1.770   2.906  12.547 -0.1745  0.2970  0.1170
12087TIP3    H157752   1.770   2.990  12.592 -1.1069  0.1052  0.4790
12087TIP3    H257753   1.814   2.847  12.608 -1.1075  0.1218  0.6325
12088TIP3   OH257754   4.037   2.489   2.471  0.4675  0.0378 -0.4754
12088TIP3    H157755   4.088   2.420   2.514  1.7856  0.2140 -1.6560
12088TIP3    H257756   4.018   2.552   2.540  1.2673 -0.3828  0.1428
12089TIP3   OH257757   6.444   1.402  12.851 -0.7543 -0.2558  0.4297
12089TIP3    H157758   6.531   1.441  12.843 -0.7883 -0.4596 -1.3227
12089TIP3    H257759   6.454   1.313  12.815 -1.2986 -0.9243  1.8479
12090TIP3   OH257760   2.429   1.892   1.037 -0.0907  0.7465  0.0392
12090TIP3    H157761   2.515   1.892   0.995 -0.5295  1.2618 -0.8995
12090TIP3    H257762   2.401   1.983   1.034 -0.8177  0.5299  0.0234
12091TIP3   OH257763   1.610   4.045   0.109 -0.3880  0.2388  0.3890
12091TIP3    H157764   1.676   4.068   0.173 -1.4999  1.2115  1.2327
12091TIP3    H257765   1.529   4.084   0.143 -1.0779  0.4845 -1.4143
12092TIP3   OH257766   0.395   3.150  11.473 -0.1232  0.1296 -0.7996
12092TIP3    H157767   0.429   3.066  11.504  0.6955  0.8300  0.2703
12092TIP3    H257768   0.388   3.139  11.378  0.7840 -0.8629 -0.7734
12093TIP3   OH257769   3.117   0.319  13.794 -0.2135 -0.5325  0.6158
12093TIP3    H157770   3.030   0.347  13.766 -1.3905 -1.8769  2.6188
12093TIP3    H257771   3.178   0.372  13.743 -2.1916  0.1695 -1.1372
12094TIP3   OH257772   2.754   5.675   3.445 -0.1620  0.1765  0.2980
12094TIP3    H157773   2.679   5.731   3.428  0.3314  0.8900  0.4072
12094TIP3    H257774   2.830   5.733   3.435  0.4002 -0.6340 -0.2605
12095TIP3   OH257775   3.601   4.535  10.552 -0.1052 -0.0051  0.9284
12095TIP3    H157776   3.545   4.522  10.629 -0.7680 -0.5486  0.3762
12095TIP3    H257777   3.684   4.495  10.577 -0.4453 -0.5564  1.2241
12096TIP3   OH257778   4.634   2.441   0.727  0.3498 -0.3220  0.1352
12096TIP3    H157779   4.710   2.405   0.680  2.0653  0.4305  2.1768
12096TIP3    H257780   4.574   2.367   0.733  1.2448 -1.1810 -0.8536
12097TIP3   OH257781   1.149   5.531   5.224  0.2167  0.3905  0.8031
12097TIP3    H157782   1.100   5.596   5.276  1.2563  1.3792  0.5945
12097TIP3    H257783   1.214   5.583   5.177  0.2117 -0.6657 -0.4191
12098TIP3   OH257784   3.832   1.036   1.718  0.1060  0.3779 -0.5774
12098TIP3    H157785   3.744   1.036   1.756  0.0549 -0.1289 -0.6848
12098TIP3    H257786   3.828   1.102   1.649  0.5239  2.1191  0.9928
12099TIP3   OH257787   6.217   4.120  11.518  0.2944  0.7335  0.5250
12099TIP3    H157788   6.229   4.193  11.457 -2.0625  1.0334  0.3299
12099TIP3    H257789   6.150   4.066  11.478  1.8885 -1.5489  0.7413
12100TIP3   OH257790   2.415   2.732  15.595  0.4199  0.1553 -0.1780
12100TIP3    H157791   2.489   2.718  15.654  0.9569  1.0439 -0.6228
12100TIP3    H257792   2.455   2.754  15.511 -0.3434  0.9775 -0.3437
12101TIP3   OH257793   0.802   5.809   4.089  0.3520  0.1868 -0.8153
12101TIP3    H157794   0.811   5.898   4.056 -0.4976  1.0338  1.0446
12101TIP3    H257795   0.856   5.807   4.168  0.0259 -0.8153 -0.5992
12102TIP3   OH257796   3.569   0.859   5.466  0.1371  0.2751  0.6785
12102TIP3    H157797   3.514   0.930   5.433 -0.7736 -0.3327  0.8417
12102TIP3    H257798   3.582   0.803   5.389  0.9414  0.6628  0.5245
12103TIP3   OH257799   3.538   2.507   1.665 -0.2848  0.9511  0.1145
12103TIP3    H157800   3.598   2.460   1.608 -0.2052  3.1587 -1.7335
12103TIP3    H257801   3.453   2.501   1.621 -1.3208 -1.1935  2.1469
12104TIP3   OH257802   4.204   5.110   0.067 -0.4377 -0.8797 -0.1755
12104TIP3    H157803   4.159   5.181   0.022 -1.0653 -0.7694  0.5904
12104TIP3    H257804   4.296   5.134   0.065 -0.6464 -0.0234  0.1039
12105TIP3   OH257805   5.235   3.311  12.897  0.6305 -0.3531 -0.3896
12105TIP3    H157806   5.190   3.387  12.936 -0.1112 -1.6047  1.3164
12105TIP3    H257807   5.263   3.342  12.811 -0.4816  1.5661 -0.1281
12106TIP3   OH257808   4.906   5.814   2.527 -0.3236  0.0727 -0.3680
12106TIP3    H157809   4.954   5.883   2.574  3.0875 -2.1374 -0.2809
12106TIP3    H257810   4.918   5.835   2.435 -0.7020  0.4409 -0.3376
12107TIP3   OH257811   4.631   6.171   5.561 -0.3285 -0.0079  0.2326
12107TIP3    H157812   4.552   6.138   5.518 -0.8655  1.7374 -0.1769
12107TIP3    H257813   4.703   6.128   5.515 -0.9726  0.1828 -0.9848
12108TIP3   OH257814   0.164   4.830   1.743  0.1896 -0.5552 -0.5570
12108TIP3    H157815   0.137   4.889   1.672 -0.7103  0.8500  0.8998
12108TIP3    H257816   0.107   4.851   1.816  0.1168 -2.9923  0.1841
12109TIP3   OH257817   6.266   2.066   6.572 -0.5026 -0.7247  0.0798
12109TIP3    H157818   6.303   2.012   6.642 -0.6966 -1.5983 -0.4901
12109TIP3    H257819   6.322   2.050   6.496 -0.2661  0.2548  0.0233
12110TIP3   OH257820   6.143   5.331  14.259 -0.3865  0.2162  0.3017
12110TIP3    H157821   6.056   5.307  14.227  0.5566 -1.4224 -1.2289
12110TIP3    H257822   6.176   5.252  14.301  0.7761  0.4513 -0.1276
12111TIP3   OH257823   1.522   6.329  11.220 -0.0482  0.1892 -0.1469
12111TIP3    H157824   1.481   6.410  11.252  1.9308  2.0906 -2.0445
12111TIP3    H257825   1.561   6.290  11.298 -2.1935  0.2520  1.0563
12112TIP3   OH257826   3.155   0.056   3.320 -0.1549 -0.1714  0.0157
12112TIP3    H157827   3.165   0.080   3.412  1.2580  2.2789 -0.6694
12112TIP3    H257828   3.234   0.007   3.299 -0.1331 -0.1175 -0.0328
12113TIP3   OH257829   2.612   5.863   4.936 -0.0995 -0.0247  0.2530
12113TIP3    H157830   2.590   5.775   4.967 -0.9837 -0.0459 -0.4058
12113TIP3    H257831   2.559   5.922   4.991 -0.3871  0.0288 -0.0793
12114TIP3   OH257832   4.598   0.124   3.911 -0.1129 -0.4369  0.4362
12114TIP3    H157833   4.623   0.209   3.948  0.9560 -0.1935 -0.7999
12114TIP3    H257834   4.502   0.124   3.915 -0.2132  1.4011 -0.7616
12115TIP3   OH257835   1.810   3.684  14.800  0.0525  0.0179 -0.5148
12115TIP3    H157836   1.832   3.765  14.756  0.1524  0.1147 -0.2902
12115TIP3    H257837   1.714   3.679  14.796  0.0383  0.2105 -0.4192
12116TIP3   OH257838   0.740   5.655   1.439  0.0221  0.0750  0.4099
12116TIP3    H157839   0.743   5.692   1.351 -0.6709 -0.8164 -0.0033
12116TIP3    H257840   0.806   5.587   1.439 -1.1036 -1.0614  0.0191
12117TIP3   OH257841   0.898   3.268  15.164 -0.0586 -0.1302 -0.0889
12117TIP3    H157842   0.805   3.269  15.183  0.3650 -0.9881  2.3149
12117TIP3    H257843   0.907   3.318  15.083 -2.5055  0.5338 -0.0005
12118TIP3   OH257844   3.862   6.346  11.288 -0.0590 -0.2729 -0.5068
12118TIP3    H157845   3.877   6.433  11.324  0.7873  0.0500 -1.5818
12118TIP3    H257846   3.817   6.362  11.205 -0.0112 -0.8606 -0.6487
12119TIP3   OH257847   4.812   5.917   1.275  0.4855  0.0545  0.3194
12119TIP3    H157848   4.782   5.860   1.346 -0.4897  0.0291 -0.1008
12119TIP3    H257849   4.785   5.872   1.195 -0.5601  1.2251 -0.0166
12120TIP3   OH257850   0.577   0.788   2.463 -0.0148 -0.2873 -0.1153
12120TIP3    H157851   0.532   0.704   2.452  1.0412 -0.9316  0.3576
12120TIP3    H257852   0.550   0.839   2.386 -1.7053 -0.5506  0.2568
12121TIP3   OH257853   3.272   2.313  15.506  0.9029 -0.0396  0.3540
12121TIP3    H157854   3.222   2.383  15.549  0.6519  0.4106 -0.6374
12121TIP3    H257855   3.213   2.237  15.508  0.0290  0.5464 -1.0070
12122TIP3   OH257856   0.086   2.346  14.515 -0.4705 -0.2634 -0.0644
12122TIP3    H157857   0.009   2.331  14.570  1.2405 -1.1585  2.2418
12122TIP3    H257858   0.074   2.286  14.441 -0.9091 -2.1831  1.4619
12123TIP3   OH257859   0.723   2.737  14.125 -0.5854 -0.2165  0.2917
12123TIP3    H157860   0.652   2.725  14.061  0.0438  0.0895 -0.4781
12123TIP3    H257861   0.715   2.828  14.152  1.3475  0.7874 -2.1084
12124TIP3   OH257862   0.136   0.779   2.332 -0.6997  0.5571 -0.3852
12124TIP3    H157863   0.195   0.748   2.263 -0.5337  0.7161 -0.3162
12124TIP3    H257864   0.115   0.869   2.306  1.3065  1.4965  1.0244
12125TIP3   OH257865   5.203   0.398   1.766 -0.7026 -0.3007  0.5980
12125TIP3    H157866   5.277   0.339   1.756 -0.6212 -0.4176  1.7977
12125TIP3    H257867   5.132   0.356   1.719 -0.0152 -0.1722 -0.5966
12126TIP3   OH257868   0.084   2.115   4.395  0.3046  0.6044  0.3843
12126TIP3    H157869   0.031   2.056   4.448  0.8723 -0.8997 -0.6547
12126TIP3    H257870   0.028   2.191   4.380 -0.7006  0.0408  1.2098
12127TIP3   OH257871   0.215   1.791   3.726 -0.8631  0.3075  0.1611
12127TIP3    H157872   0.210   1.772   3.820  2.2010 -0.3074  0.3078
12127TIP3    H257873   0.256   1.878   3.722  1.9252 -0.9424 -0.5144
12128TIP3   OH257874   4.842   1.966   4.529  0.0796 -0.0844  0.3044
12128TIP3    H157875   4.804   1.885   4.493 -0.9203  0.2013  0.6904
12128TIP3    H257876   4.892   1.937   4.605  2.8494 -0.8036 -1.6128
12129TIP3   OH257877   2.321   0.580   0.523 -0.1155  0.0876 -0.0047
12129TIP3    H157878   2.300   0.565   0.615 -2.9178  3.5446  0.1457
12129TIP3    H257879   2.413   0.606   0.523  0.2673 -1.1252  1.6058
12130TIP3   OH257880   6.756   1.577  15.418 -0.1655  0.4366 -0.0410
12130TIP3    H157881   6.812   1.622  15.356  0.7247 -0.7695 -0.1585
12130TIP3    H257882   6.686   1.538  15.365 -0.3261  0.7570 -0.0681
12131TIP3   OH257883   2.748   3.184   4.783  0.0132  0.9498  0.1497
12131TIP3    H157884   2.654   3.180   4.798  0.0135  1.5379  0.3569
12131TIP3    H257885   2.763   3.274   4.752  0.3892  0.6054 -0.7096
12132TIP3   OH257886   1.753   3.048  16.521 -0.2116 -0.0199 -0.3958
12132TIP3    H157887   1.670   3.092  16.541  0.4346  0.8617  0.4185
12132TIP3    H257888   1.759   2.979  16.586  0.0848  0.4498  0.0825
12133TIP3   OH257889   3.895   0.789   5.073 -0.5216 -0.2210 -0.1032
12133TIP3    H157890   3.925   0.699   5.087 -0.3272 -0.4712 -1.9103
12133TIP3    H257891   3.948   0.821   5.000 -0.4476  1.4463  0.6397
12134TIP3   OH257892   1.125   0.567   2.060 -0.1563  0.7820 -0.4043
12134TIP3    H157893   1.175   0.640   2.023  0.0154 -0.0373 -1.8774
12134TIP3    H257894   1.036   0.601   2.068  0.1907  1.5771  0.2400
12135TIP3   OH257895   1.218   5.034  14.451  0.3356  0.4627  0.1312
12135TIP3    H157896   1.300   5.049  14.404  1.4618 -1.6609  1.2651
12135TIP3    H257897   1.225   5.087  14.530  0.9135 -0.1340  0.4953
12136TIP3   OH257898   4.932   0.253  14.103 -0.2424  0.1054  0.0874
12136TIP3    H157899   5.005   0.282  14.048 -1.7249  0.4129 -1.8453
12136TIP3    H257900   4.936   0.158  14.101 -0.1823  0.1165 -0.4443
12137TIP3   OH257901   0.061   1.992   0.932  0.9293  0.0314 -0.3823
12137TIP3    H157902   0.003   1.926   0.970  1.5086 -0.7008 -0.7472
12137TIP3    H257903   0.071   1.965   0.841  1.0291  0.7349 -0.5852
12138TIP3   OH257904   3.086   5.439   3.761 -0.1305 -0.5049 -0.4155
12138TIP3    H157905   3.133   5.410   3.682 -1.3607 -0.4738 -1.1773
12138TIP3    H257906   3.008   5.484   3.728 -0.1510  0.4219  0.8122
12139TIP3   OH257907   4.283   4.273  12.929  0.0730  0.2745  0.1104
12139TIP3    H157908   4.307   4.352  12.880 -0.9524 -0.3545 -1.4580
12139TIP3    H257909   4.255   4.306  13.015  1.0886  1.4675  0.0123
12140TIP3   OH257910   0.422   2.550  11.206 -0.0754 -0.1959 -0.2916
12140TIP3    H157911   0.379   2.466  11.191  0.7347 -0.3560 -1.8500
12140TIP3    H257912   0.409   2.567  11.300  1.0820 -2.8355  0.4474
12141TIP3   OH257913   2.925   4.325  11.926  0.1008 -0.1703 -0.0727
12141TIP3    H157914   2.857   4.373  11.974  1.3447 -0.0923  1.6963
12141TIP3    H257915   2.895   4.327  11.835 -1.3648  1.3913  0.3827
12142TIP3   OH257916   0.093   0.926   4.102  0.4103 -0.5232 -1.2315
12142TIP3    H157917   0.074   1.016   4.078 -0.7506 -0.9114 -1.8245
12142TIP3    H257918   0.048   0.913   4.185  0.8142 -0.4792 -1.0023
12143TIP3   OH257919   3.512   4.056  12.253 -0.1028 -0.0512  0.8620
12143TIP3    H157920   3.439   4.026  12.198  1.7653 -1.1193 -1.2150
12143TIP3    H257921   3.539   3.977  12.300 -0.1411  0.2862  1.4496
12144TIP3   OH257922   5.931   4.644   5.107  0.0923  0.0640 -0.0876
12144TIP3    H157923   5.900   4.585   5.039  1.1047 -0.7313  0.1160
12144TIP3    H257924   5.972   4.716   5.060  2.0795 -1.1675 -0.3889
12145TIP3   OH257925   1.278   6.110   0.715  0.0275 -0.8886  0.2762
12145TIP3    H157926   1.200   6.099   0.770  0.3870  0.0895  1.0152
12145TIP3    H257927   1.275   6.036   0.654 -0.6681 -1.7065  1.2614
12146TIP3   OH257928   6.720   4.309   0.254  0.0179 -0.0058 -0.0929
12146TIP3    H157929   6.643   4.267   0.215  0.2061  0.0348 -0.5214
12146TIP3    H257930   6.686   4.355   0.330 -0.2064 -0.8818  0.3532
12147TIP3   OH257931   1.294   0.816  11.607  0.5220  0.2018  0.3590
12147TIP3    H157932   1.334   0.843  11.525 -0.2756  0.6937  0.1233
12147TIP3    H257933   1.301   0.720  11.607  0.6284  0.2097 -0.2268
12148TIP3   OH257934   1.348   4.847   3.608  0.1801 -0.0218  0.5590
12148TIP3    H157935   1.268   4.886   3.573  0.3618  0.5791  0.8142
12148TIP3    H257936   1.381   4.793   3.536  0.0896  0.5326  0.0924
12149TIP3   OH257937   3.148   5.100  13.181 -0.1287  0.0289  0.2847
12149TIP3    H157938   3.059   5.116  13.148  0.4193  0.5455 -1.0391
12149TIP3    H257939   3.171   5.015  13.144  0.3656  0.4509 -0.3959
12150TIP3   OH257940   6.233   1.818   3.683 -0.2063  0.3120 -0.5893
12150TIP3    H157941   6.308   1.785   3.732 -0.8786 -2.3444 -1.2324
12150TIP3    H257942   6.158   1.774   3.723 -1.0770  0.4787 -2.0101
12151TIP3   OH257943   3.578   4.136   2.349 -0.3372 -0.3696  0.4028
12151TIP3    H157944   3.562   4.229   2.335 -2.6140 -0.7979 -0.3039
12151TIP3    H257945   3.553   4.121   2.441 -0.9895 -0.4441  0.2212
12152TIP3   OH257946   2.209   5.250  13.342  0.2723 -0.4050 -0.2974
12152TIP3    H157947   2.231   5.212  13.427  1.7090 -0.9787 -0.8957
12152TIP3    H257948   2.153   5.183  13.300 -0.0098 -0.3487 -0.0127
12153TIP3   OH257949   3.226   6.816  15.669  0.4546 -0.2988  0.1433
12153TIP3    H157950   3.298   6.753  15.666 -0.7336 -1.7185  0.6884
12153TIP3    H257951   3.220   6.842  15.761 -0.9875 -1.7218  0.4861
12154TIP3   OH257952   0.126   6.554  16.818  0.1269  0.9346  0.4465
12154TIP3    H157953   0.119   6.460  16.801 -0.7015  1.0546  0.0453
12154TIP3    H257954   0.199   6.583  16.764 -0.6350  0.7898 -0.7119
12155TIP3   OH257955   3.393   4.363   2.766 -0.3872 -0.3957 -0.4832
12155TIP3    H157956   3.352   4.277   2.761  2.0989 -1.6589 -1.0513
12155TIP3    H257957   3.460   4.353   2.834 -0.4372  1.2706 -0.1581
12156TIP3   OH257958   3.455   6.395   2.127  0.1919 -0.0713  0.3010
12156TIP3    H157959   3.385   6.456   2.148  0.4803  0.8528 -1.2103
12156TIP3    H257960   3.536   6.442   2.148  0.4763  0.7437 -2.1900
12157TIP3   OH257961   3.301   2.765  11.220  0.1674 -0.3793  0.5508
12157TIP3    H157962   3.330   2.676  11.198 -1.3322 -0.5223 -1.0942
12157TIP3    H257963   3.278   2.804  11.135  1.4366  1.8433  1.1538
12158TIP3   OH257964   3.462   3.843   6.379  0.0854 -0.0659 -0.3018
12158TIP3    H157965   3.484   3.821   6.469 -1.1075  1.2175  0.3376
12158TIP3    H257966   3.381   3.796   6.362  0.0550  0.0687 -0.5379
12159TIP3   OH257967   0.544   5.034   4.826 -0.3035  0.0259 -0.3347
12159TIP3    H157968   0.579   4.978   4.896  0.2396  1.5280  0.6459
12159TIP3    H257969   0.607   5.025   4.755 -1.5624 -2.5962 -1.2621
12160TIP3   OH257970   2.563   3.074  16.467  0.4396  0.3997  0.2987
12160TIP3    H157971   2.644   3.087  16.516  0.9636 -0.7889 -0.2131
12160TIP3    H257972   2.496   3.060  16.533  0.6096  1.5541  0.7299
12161TIP3   OH257973   1.068   0.359   1.350  0.0269  0.2353 -0.6920
12161TIP3    H157974   0.986   0.363   1.300 -0.5397  2.0042  0.2769
12161TIP3    H257975   1.126   0.420   1.305  0.2602  0.1954 -0.4446
12162TIP3   OH257976   5.071   0.631  15.676 -0.6309  0.8240  0.8008
12162TIP3    H157977   5.123   0.570  15.727 -2.4060 -0.9996  0.5528
12162TIP3    H257978   4.981   0.615  15.703 -1.5012  0.8040 -1.8261
12163TIP3   OH257979   1.127   0.393   0.567  1.0072 -0.4426  0.2696
12163TIP3    H157980   1.095   0.449   0.496  2.0371  0.2437  0.3232
12163TIP3    H257981   1.129   0.450   0.644  0.0354 -1.1433  0.8308
12164TIP3   OH257982   3.830   5.952  14.477  0.3141 -0.1761 -0.1771
12164TIP3    H157983   3.814   5.886  14.544 -0.4646  1.0045  0.8480
12164TIP3    H257984   3.919   5.982  14.494  0.7784 -1.1479 -0.8347
12165TIP3   OH257985   6.461   3.529   3.557 -0.6533  0.4031  0.7932
12165TIP3    H157986   6.466   3.434   3.571 -1.5234  0.4453  1.4724
12165TIP3    H257987   6.465   3.539   3.462 -2.2185 -0.4558  0.6010
12166TIP3   OH257988   5.534   5.576  15.582  0.3454 -0.6267  0.0470
12166TIP3    H157989   5.608   5.522  15.610  0.8101 -0.7153 -1.3083
12166TIP3    H257990   5.551   5.662  15.620  0.7479 -0.8436  0.3659
12167TIP3   OH257991   2.655   1.982   2.832 -0.0778  0.2414 -0.0603
12167TIP3    H157992   2.648   2.077   2.834 -0.5362  0.2001  1.3876
12167TIP3    H257993   2.729   1.965   2.774 -0.1109  1.4677 -0.4885
12168TIP3   OH257994   4.629   1.382   0.522 -0.2447  0.1006 -0.4188
12168TIP3    H157995   4.681   1.460   0.501 -0.2988 -0.3588 -2.4975
12168TIP3    H257996   4.672   1.344   0.599 -1.0232  2.8531  1.4911
12169TIP3   OH257997   2.787   0.104   6.431 -0.1845 -0.1832  0.2680
12169TIP3    H157998   2.696   0.096   6.460 -0.0513  0.3799  0.8503
12169TIP3    H257999   2.838   0.093   6.511  0.2757 -0.7292 -0.0936
12170TIP3   OH258000   4.709   5.869  14.549 -0.2587  0.5484  0.4006
12170TIP3    H158001   4.751   5.783  14.553 -0.6276  0.2650 -1.0786
12170TIP3    H258002   4.768   5.927  14.598  1.3196 -0.0459 -0.7026
12171TIP3   OH258003   2.643   5.367   3.320 -0.0553 -0.1678  0.5976
12171TIP3    H158004   2.738   5.382   3.314 -0.3102  1.2036 -0.6333
12171TIP3    H258005   2.615   5.420   3.394  0.0116  0.1262  0.4122
12172TIP3   OH258006   6.628   5.881   3.211 -0.3987 -0.3857 -1.3444
12172TIP3    H158007   6.615   5.960   3.159  0.7115  0.5324 -0.2602
12172TIP3    H258008   6.723   5.871   3.216 -0.2855  1.0962  2.7254
12173TIP3   OH258009   0.980   2.382  16.253 -0.2134  0.2298 -0.1117
12173TIP3    H158010   1.071   2.401  16.276 -0.0578 -0.3994 -0.1724
12173TIP3    H258011   0.956   2.308  16.309 -0.2155 -0.5354 -1.0811
12174TIP3   OH258012   1.377   4.515   3.118  0.9443 -0.0951  0.7841
12174TIP3    H158013   1.313   4.446   3.135  2.4992 -1.3014  2.0914
12174TIP3    H258014   1.448   4.470   3.072  0.5739  1.3820 -1.4037
12175TIP3   OH258015   1.887   2.503   0.877  0.4234 -0.1548 -0.2186
12175TIP3    H158016   1.893   2.414   0.842  3.0435 -0.3433  0.4809
12175TIP3    H258017   1.862   2.492   0.968 -1.4944  0.0223 -0.6853
12176TIP3   OH258018   2.764   2.182  14.478 -0.4962 -0.3603  0.4284
12176TIP3    H158019   2.786   2.093  14.504 -1.2776 -1.1141 -1.3024
12176TIP3    H258020   2.837   2.235  14.509  0.5573 -1.7779  0.4709
12177TIP3   OH258021   1.849   3.839  16.128  0.4809 -0.3140  0.1665
12177TIP3    H158022   1.940   3.848  16.099  0.1006  0.8941 -0.7130
12177TIP3    H258023   1.836   3.744  16.135  1.5738 -0.5343 -0.4459
12178TIP3   OH258024   4.201   4.724   1.093 -0.7234 -0.1222 -0.1274
12178TIP3    H158025   4.283   4.704   1.048  0.0583 -0.7410  1.4624
12178TIP3    H258026   4.132   4.690   1.036  0.0955  0.6264 -1.6065
12179TIP3   OH258027   5.193   0.825   5.042  0.3435 -0.5981 -0.4632
12179TIP3    H158028   5.102   0.835   5.015 -0.0400  0.4405  1.1161
12179TIP3    H258029   5.194   0.745   5.094  0.5663 -1.1849 -1.3468
12180TIP3   OH258030   3.457   2.511  13.088 -0.0742 -0.7964 -0.0623
12180TIP3    H158031   3.517   2.505  13.162  0.6587  1.6462 -0.3794
12180TIP3    H258032   3.511   2.545  13.016 -1.0124 -2.0810 -1.4372
12181TIP3   OH258033   5.207   2.114  11.127  0.0394  0.2490  0.0595
12181TIP3    H158034   5.114   2.125  11.150 -1.3832 -0.4712 -4.2935
12181TIP3    H258035   5.230   2.028  11.162 -0.5597  0.8669  2.0844
12182TIP3   OH258036   1.116   6.770  16.018 -0.2998 -0.1819  0.2024
12182TIP3    H158037   1.097   6.696  16.076  1.4853  0.0308  1.1265
12182TIP3    H258038   1.179   6.735  15.954  1.1550  0.6630  1.1030
12183TIP3   OH258039   3.567   2.019   4.359 -0.0798 -0.7766  0.0882
12183TIP3    H158040   3.630   2.030   4.431 -0.1755  1.3290 -0.0849
12183TIP3    H258041   3.609   1.956   4.300  1.2899 -0.4087  0.6305
12184TIP3   OH258042   0.920   4.244  16.157 -0.2629 -0.3341  0.1369
12184TIP3    H158043   0.842   4.207  16.198  0.2750 -0.7007  0.8570
12184TIP3    H258044   0.931   4.329  16.200 -0.6157 -0.0113 -0.4077
12185TIP3   OH258045   0.820   5.075  11.055  0.5482  0.1181 -0.1111
12185TIP3    H158046   0.738   5.047  11.097  0.5057  0.7413  0.2374
12185TIP3    H258047   0.806   5.167  11.035  1.1002  0.1840 -0.2082
12186TIP3   OH258048   0.860   5.613  16.746  0.0292 -0.2632 -0.1108
12186TIP3    H158049   0.800   5.569  16.687 -1.6164  2.2821 -0.5309
12186TIP3    H258050   0.947   5.586  16.718 -0.8314 -2.9190 -0.4545
12187TIP3   OH258051   2.536   4.264   0.474  0.0899 -0.4190  0.7335
12187TIP3    H158052   2.591   4.340   0.453 -0.3319 -0.2837  0.0669
12187TIP3    H258053   2.508   4.231   0.388 -1.8599  0.2723  1.0369
12188TIP3   OH258054   5.085   3.577  11.085  0.6486  0.3502 -0.1265
12188TIP3    H158055   5.008   3.531  11.118  1.6305 -0.7432  0.7024
12188TIP3    H258056   5.059   3.607  10.998 -0.4710 -0.6532 -0.1661
12189TIP3   OH258057   2.669   0.799  14.522  0.2285 -0.5188 -0.3109
12189TIP3    H158058   2.699   0.735  14.586 -0.4092  0.2066  0.7357
12189TIP3    H258059   2.633   0.746  14.451  1.0016 -1.3340 -0.1210
12190TIP3   OH258060   1.775   2.546  15.213 -0.0106 -0.3608 -0.2442
12190TIP3    H158061   1.833   2.563  15.287 -1.1961 -1.3834  0.9819
12190TIP3    H258062   1.701   2.498  15.251 -1.6815  0.8884 -1.7027
12191TIP3   OH258063   2.971   6.193   3.957  0.3491  0.6480 -0.2009
12191TIP3    H158064   3.008   6.280   3.942  0.1885  0.9549  1.0605
12191TIP3    H258065   2.876   6.207   3.953  0.3090  0.6691  0.6190
12192TIP3   OH258066   5.227   3.458   4.424  0.2824  0.1150  0.5656
12192TIP3    H158067   5.223   3.474   4.330 -0.7380  2.5751  0.9556
12192TIP3    H258068   5.135   3.449   4.451  0.4696  1.0000  1.5528
12193TIP3   OH258069   0.979   2.614  13.869 -0.1614  0.4154  0.3260
12193TIP3    H158070   1.042   2.685  13.853 -0.0792  0.2609 -0.0556
12193TIP3    H258071   1.020   2.537  13.830 -0.8489  0.4299 -0.4472
12194TIP3   OH258072   1.436   6.331  17.208 -0.2826  0.5699  0.4284
12194TIP3    H158073   1.406   6.248  17.245 -0.3968  0.3128 -0.2294
12194TIP3    H258074   1.359   6.370  17.168  0.0978  0.2158 -0.6949
12195TIP3   OH258075   0.720   4.100   4.546 -0.5640  0.5655 -0.1650
12195TIP3    H158076   0.674   4.063   4.470 -2.2292  0.0512  1.0416
12195TIP3    H258077   0.666   4.175   4.573  0.2149  0.9746  0.2771
12196TIP3   OH258078   4.962   4.684  15.419 -0.2431  0.1256 -0.2542
12196TIP3    H158079   4.868   4.697  15.407 -0.5270 -0.9098  0.7037
12196TIP3    H258080   4.972   4.658  15.510  1.2023  2.0961  0.2311
12197TIP3   OH258081   1.455   0.011  13.794 -0.2516  0.0978  0.4358
12197TIP3    H158082   1.476  -0.078  13.765 -0.4029  0.5258 -1.0433
12197TIP3    H258083   1.408   0.050  13.721 -2.2191  0.6753  1.8984
12198TIP3   OH258084   4.524   2.047   3.301 -0.2193 -0.0647 -0.0658
12198TIP3    H158085   4.581   2.105   3.351  0.4476 -1.3351  0.6975
12198TIP3    H258086   4.459   2.017   3.364 -1.0070  0.4038 -0.6376
12199TIP3   OH258087   3.137   4.962  15.489  0.1378 -0.4010 -0.0253
12199TIP3    H158088   3.209   4.950  15.551 -2.2306 -0.4210  2.9634
12199TIP3    H258089   3.104   5.050  15.508 -0.9411 -0.5766 -0.9727
12200TIP3   OH258090   6.028   4.612  16.658  0.5019 -0.1142 -0.1367
12200TIP3    H158091   6.029   4.708  16.666  1.7504 -0.1825  0.9171
12200TIP3    H258092   6.120   4.588  16.648  0.2733 -1.2398  0.3334
12201TIP3   OH258093   1.532   5.159   5.461 -0.6221  0.0100  0.8646
12201TIP3    H158094   1.602   5.223   5.450 -2.2606  2.5287  3.6771
12201TIP3    H258095   1.496   5.147   5.373 -0.1539  2.9194  0.1807
12202TIP3   OH258096   0.576   3.279   5.399  1.1882  0.2031 -0.0783
12202TIP3    H158097   0.502   3.256   5.342  2.4010 -1.3271 -1.1389
12202TIP3    H258098   0.554   3.240   5.483 -0.2555  1.7869  0.3270
12203TIP3   OH258099   2.627   1.975   2.008 -0.4751  0.0691  0.3721
12203TIP3    H158100   2.615   1.965   1.914  0.8069 -1.9411  0.3827
12203TIP3    H258101   2.622   1.887   2.043  0.9688  0.5556  1.9472
12204TIP3   OH258102   6.031   5.315   4.916 -0.0251 -0.6641  0.2549
12204TIP3    H158103   6.023   5.230   4.960 -2.3602 -1.6919 -1.9443
12204TIP3    H258104   6.069   5.294   4.831  0.3828  0.6824  0.0879
12205TIP3   OH258105   0.357   6.371   2.460  0.1159  0.3459  0.2116
12205TIP3    H158106   0.388   6.373   2.369 -1.7558 -2.4004 -0.6174
12205TIP3    H258107   0.299   6.447   2.467  0.7673  0.9498 -0.6724
12206TIP3   OH258108   6.555   2.018  16.158 -0.4521 -0.1787 -0.1311
12206TIP3    H158109   6.631   2.060  16.199  2.8747 -2.0559 -3.6358
12206TIP3    H258110   6.511   2.089  16.112  0.3619  0.6927  0.3868
12207TIP3   OH258111   5.796   6.481  12.651  0.1682 -0.4705 -0.6189
12207TIP3    H158112   5.866   6.431  12.608 -0.3724 -1.1884 -0.6762
12207TIP3    H258113   5.789   6.442  12.738  0.1686 -0.0756 -0.4405
12208TIP3   OH258114   3.823   3.538  11.127  1.2804  0.4191 -0.1828
12208TIP3    H158115   3.816   3.543  11.032  0.9271  1.1452 -0.1255
12208TIP3    H258116   3.884   3.466  11.143  0.4708 -0.4647 -0.9341
12209TIP3   OH258117   1.971   3.232  12.128 -0.0291  0.0767  0.1845
12209TIP3    H158118   1.912   3.308  12.130 -0.2143 -0.0769  0.7347
12209TIP3    H258119   1.952   3.185  12.209 -0.2009 -0.7755 -0.3369
12210TIP3   OH258120   1.172   3.460   3.308  0.2933 -0.3113  0.3093
12210TIP3    H158121   1.207   3.378   3.345  4.5966  1.7502  1.3981
12210TIP3    H258122   1.168   3.519   3.383 -2.3029  0.7036 -0.5441
12211TIP3   OH258123   5.112   0.827   4.032 -0.2150  0.2529 -0.2060
12211TIP3    H158124   5.021   0.809   4.057 -0.5022 -1.1759 -2.1054
12211TIP3    H258125   5.106   0.862   3.943  1.0413  1.3616  0.1084
12212TIP3   OH258126   4.864   4.038  11.449  0.1614 -0.1768 -0.4011
12212TIP3    H158127   4.774   4.047  11.480  0.3331  0.5000 -0.0853
12212TIP3    H258128   4.865   4.077  11.362  0.5763  1.6196  0.3793
12213TIP3   OH258129   3.617   5.664  11.661 -0.7247 -0.3768 -0.3722
12213TIP3    H158130   3.696   5.691  11.614 -1.1125 -1.9380 -2.0107
12213TIP3    H258131   3.629   5.699  11.749  2.6475 -2.0947 -0.0026
12214TIP3   OH258132   6.348   3.254   0.358 -0.1753 -0.1305 -0.5114
12214TIP3    H158133   6.424   3.310   0.342 -1.2603  1.3396 -0.8189
12214TIP3    H258134   6.284   3.313   0.399 -0.8401 -1.5448  0.5529
12215TIP3   OH258135   4.180   1.027   1.640 -0.2957 -0.3108 -0.4929
12215TIP3    H158136   4.120   0.961   1.674 -1.1792  0.5985 -0.2590
12215TIP3    H258137   4.187   1.093   1.709  2.6731 -1.3969  0.4138
12216TIP3   OH258138   1.680   0.135  16.537 -0.0214 -0.5269 -0.2345
12216TIP3    H158139   1.758   0.087  16.511  0.9612  0.7463  0.2439
12216TIP3    H258140   1.713   0.212  16.584 -1.4182  1.3633 -2.1200
12217TIP3   OH258141   3.038   0.629  14.770  0.3926 -0.1901 -0.4294
12217TIP3    H158142   3.094   0.601  14.697 -0.5945 -2.6163 -0.3498
12217TIP3    H258143   3.100   0.650  14.841  1.2804 -0.9368 -0.9577
12218TIP3   OH258144   1.126   0.336  12.250  0.3742  0.5712  0.7421
12218TIP3    H158145   1.092   0.378  12.171 -0.0444 -3.5317 -1.5229
12218TIP3    H258146   1.049   0.301  12.295  0.8608 -0.6840  0.6572
12219TIP3   OH258147   0.046   5.328   3.814  0.1355 -0.3951 -0.8250
12219TIP3    H158148   0.055   5.234   3.831  2.1864  0.0642  1.1237
12219TIP3    H258149  -0.048   5.344   3.817 -0.2259 -2.3143 -0.7229
12220TIP3   OH258150   5.149   6.661   6.020 -0.0092  0.1762 -0.0862
12220TIP3    H158151   5.187   6.717   5.952  0.7736 -0.9083 -0.5730
12220TIP3    H258152   5.060   6.642   5.989  1.0060 -2.0447 -1.9794
12221TIP3   OH258153   2.703   4.100  15.955  0.4274  0.0458 -0.0456
12221TIP3    H158154   2.698   4.105  15.860 -0.0045 -0.2824 -0.0438
12221TIP3    H258155   2.796   4.105  15.975  0.8251 -2.8985 -0.6810
12222TIP3   OH258156   3.956   5.195  15.589  0.3383  0.0308 -0.0010
12222TIP3    H158157   3.907   5.277  15.592 -0.3236 -0.3652  0.0275
12222TIP3    H258158   3.911   5.142  15.524 -0.9872 -1.4078  2.0045
12223TIP3   OH258159   4.638   3.160  13.391  0.1478  0.1327 -0.6824
12223TIP3    H158160   4.620   3.079  13.343 -2.2033  1.0095 -1.3822
12223TIP3    H258161   4.715   3.139  13.444  0.8609 -1.8875 -2.3802
12224TIP3   OH258162   1.139   3.434   6.157  0.4138 -0.1663  0.1677
12224TIP3    H158163   1.192   3.486   6.217 -0.1346  0.0257  0.4985
12224TIP3    H258164   1.159   3.469   6.070 -0.3359  0.9773  0.4240
12225TIP3   OH258165   2.243   3.639   0.868 -0.4901 -0.1592 -0.7292
12225TIP3    H158166   2.318   3.672   0.817 -0.7414 -1.0670 -1.7228
12225TIP3    H258167   2.166   3.670   0.819 -0.8477  1.7945  0.9243
12226TIP3   OH258168   1.937   4.194   1.583  0.2800 -0.0599  0.5851
12226TIP3    H158169   1.979   4.251   1.517 -1.6944  2.4513  1.3339
12226TIP3    H258170   1.990   4.207   1.661  0.0506  0.4992  0.6544
12227TIP3   OH258171   1.672   4.409   1.683  0.1465 -0.2488 -0.2853
12227TIP3    H158172   1.603   4.450   1.735 -0.4907 -1.4261 -0.1696
12227TIP3    H258173   1.694   4.474   1.617  1.6448  1.6937  1.9484
12228TIP3   OH258174   0.936   1.079  12.972 -0.3209  0.3061  0.3151
12228TIP3    H158175   1.014   1.044  12.929 -0.1710 -0.1670  0.9584
12228TIP3    H258176   0.876   1.099  12.900  0.1469  0.0765 -0.1461
12229TIP3   OH258177   4.934   5.369  12.003 -0.8558  0.3638 -0.0935
12229TIP3    H158178   4.894   5.453  12.028 -2.0288 -0.1187 -0.2974
12229TIP3    H258179   4.942   5.321  12.085 -0.9264  0.3610 -0.0883
12230TIP3   OH258180   4.640   4.968  14.975 -0.2698 -0.2428 -0.5000
12230TIP3    H158181   4.725   4.978  15.017 -0.0347 -2.5472 -0.2637
12230TIP3    H258182   4.648   4.887  14.924 -2.8963 -1.6998  1.1773
12231TIP3   OH258183   5.020   1.341  13.262 -0.2848 -0.4257 -0.6091
12231TIP3    H158184   4.996   1.431  13.241 -0.8051 -0.5155 -0.4371
12231TIP3    H258185   5.111   1.333  13.236 -0.4982 -0.1223 -1.4798
12232TIP3   OH258186   3.333   0.652  11.493 -0.0449  0.0038 -0.2433
12232TIP3    H158187   3.310   0.745  11.505  0.4633  0.1338 -0.2503
12232TIP3    H258188   3.405   0.638  11.554  1.5051  0.2447 -1.9487
12233TIP3   OH258189   6.132   1.792  14.623 -0.5102  0.2566  0.8707
12233TIP3    H158190   6.121   1.866  14.563 -0.2285  0.8395  1.5203
12233TIP3    H258191   6.203   1.820  14.682  0.1672 -0.8697  0.6133
12234TIP3   OH258192   2.570   1.213   4.576  0.4020  0.0185  0.2338
12234TIP3    H158193   2.521   1.267   4.639 -0.3680  0.5570 -0.7999
12234TIP3    H258194   2.645   1.267   4.552 -0.3444  0.6478 -0.7662
12235TIP3   OH258195   1.443   4.541   1.315  1.1334 -0.2939  0.2855
12235TIP3    H158196   1.416   4.609   1.377  1.8843 -0.0862  0.3899
12235TIP3    H258197   1.537   4.553   1.305  0.6396  2.3206 -3.9589
12236TIP3   OH258198   4.404   4.301  13.399  0.1542  0.2343  0.2376
12236TIP3    H158199   4.349   4.225  13.418 -0.2029  0.2591 -0.6855
12236TIP3    H258200   4.493   4.270  13.417 -0.1167  0.0953  1.4034
12237TIP3   OH258201   1.202   1.829  10.603  0.0022 -0.5526 -0.1891
12237TIP3    H158202   1.178   1.918  10.629  1.3156 -0.1643 -0.2479
12237TIP3    H258203   1.195   1.829  10.508 -0.2198 -0.5753 -0.1717
12238TIP3   OH258204   4.044   3.312  16.840  0.5019  0.3214 -0.4707
12238TIP3    H158205   4.133   3.347  16.843  0.6961 -0.1501 -0.6028
12238TIP3    H258206   4.032   3.267  16.924  0.1450  0.9601 -0.1753
12239TIP3   OH258207   6.795   3.041  12.018 -0.1912 -0.3210 -0.2815
12239TIP3    H158208   6.727   3.004  11.962  0.6566 -2.1284 -0.2018
12239TIP3    H258209   6.767   3.131  12.034 -1.7678 -0.5545 -1.4763
12240TIP3   OH258210   6.134   0.147  14.318 -0.4870  0.1816 -0.3222
12240TIP3    H158211   6.187   0.106  14.387 -1.2700  0.4253  0.4376
12240TIP3    H258212   6.178   0.121  14.237 -1.5357 -3.1465  0.0236
12241TIP3   OH258213   6.361   3.797   1.657  0.4535  0.2063 -0.2264
12241TIP3    H158214   6.317   3.878   1.684  0.2883 -0.0350  0.2514
12241TIP3    H258215   6.452   3.810   1.683  0.5286  0.4322 -0.5938
12242TIP3   OH258216   3.095   3.008   3.014 -0.0203 -0.2240 -0.0956
12242TIP3    H158217   3.156   2.981   2.946  0.1392  0.2299 -0.1339
12242TIP3    H258218   3.100   3.103   3.014 -0.9625 -0.1636 -0.3250
12243TIP3   OH258219   5.869   5.211   3.691  0.4717  0.2615 -0.1950
12243TIP3    H158220   5.863   5.117   3.676  0.5704  0.3300 -0.6979
12243TIP3    H258221   5.787   5.235   3.734  0.8829 -0.2241  0.8756
12244TIP3   OH258222   5.183   3.341  15.483 -0.5147  0.7886  0.1037
12244TIP3    H158223   5.093   3.338  15.513 -0.6015 -2.1370 -0.1557
12244TIP3    H258224   5.233   3.376  15.557 -1.5101 -0.3007  1.3260
12245TIP3   OH258225   6.169   1.007  13.486  0.0388  0.3199 -0.9047
12245TIP3    H158226   6.149   0.980  13.396  0.6630  0.2587 -1.0289
12245TIP3    H258227   6.167   0.926  13.537  0.5911  0.2256 -1.0325
12246TIP3   OH258228   5.094   0.603  16.684 -0.0300 -0.7751 -0.0968
12246TIP3    H158229   5.128   0.580  16.597 -0.6200  1.5182 -0.9924
12246TIP3    H258230   5.002   0.625  16.669  0.1240  0.6558  0.9144
12247TIP3   OH258231   5.996   4.806  12.035  0.8721 -0.7492 -0.2773
12247TIP3    H158232   5.939   4.880  12.054  0.0097 -1.4805  0.0768
12247TIP3    H258233   5.981   4.746  12.108  0.2806 -2.0004 -1.3822
12248TIP3   OH258234   2.336   4.292   5.242  0.1501  0.3949  0.1594
12248TIP3    H158235   2.242   4.309   5.247  0.0938  0.2695 -0.4581
12248TIP3    H258236   2.373   4.372   5.206  0.4259  0.8789  1.4676
12249TIP3   OH258237   3.795   5.646  12.684 -0.3729 -0.0747  0.2565
12249TIP3    H158238   3.802   5.552  12.694 -0.7549 -0.0620  0.6809
12249TIP3    H258239   3.885   5.678  12.685 -0.2780 -0.3551  0.9337
12250TIP3   OH258240   5.695   3.893   0.860  0.0780  0.8041 -0.1733
12250TIP3    H158241   5.750   3.849   0.795  1.8512 -0.1837  1.8878
12250TIP3    H258242   5.617   3.837   0.866 -0.0940  0.8794 -1.3654
12251TIP3   OH258243   3.751   1.871   1.772 -0.0564 -0.2534 -0.1638
12251TIP3    H158244   3.683   1.830   1.825 -0.0712 -0.2716 -0.1972
12251TIP3    H258245   3.774   1.950   1.821  1.3059 -1.2518  0.8888
12252TIP3   OH258246   6.630   5.881   2.858 -0.0865  0.4791  0.3172
12252TIP3    H158247   6.569   5.930   2.914  1.5994  1.6194  1.2326
12252TIP3    H258248   6.696   5.847   2.919  1.4763  1.2525 -0.9069
12253TIP3   OH258249   4.226   5.062   4.638  0.1173  0.5682 -0.2793
12253TIP3    H158250   4.180   5.145   4.640  0.4107  0.7376  2.1521
12253TIP3    H258251   4.187   5.011   4.709  0.1359 -1.2989 -1.5355
12254TIP3   OH258252   2.115   2.703  11.210 -0.1796  0.2699 -0.4809
12254TIP3    H158253   2.068   2.729  11.289  0.2500  1.3946 -0.5740
12254TIP3    H258254   2.081   2.761  11.142  1.4299  1.2417 -0.5142
12255TIP3   OH258255   3.880   0.356  16.691  0.0303 -0.2240 -0.4428
12255TIP3    H158256   3.860   0.449  16.681  0.3680 -0.1602 -0.5252
12255TIP3    H258257   3.944   0.352  16.762  0.5287 -0.3299 -0.8911
12256TIP3   OH258258   4.768   6.769   4.938 -0.4927 -0.8388  0.6378
12256TIP3    H158259   4.750   6.854   4.976 -0.4349  0.0697 -1.2460
12256TIP3    H258260   4.848   6.739   4.982 -1.6597 -0.9499  2.8261
12257TIP3   OH258261   2.045   5.235  12.566  0.4478 -0.0966 -0.5561
12257TIP3    H158262   1.977   5.293  12.532  0.1218 -0.3020 -0.2607
12257TIP3    H258263   2.014   5.147  12.546  0.5448 -0.1978 -0.2633
12258TIP3   OH258264   6.728   3.985   1.554  0.2987 -0.1498 -0.4713
12258TIP3    H158265   6.690   3.901   1.577  2.3096 -0.6705  1.2904
12258TIP3    H258266   6.773   3.969   1.471  0.0652 -0.6233 -0.5097
12259TIP3   OH258267   5.781   2.930   0.957  0.3444 -0.0829 -0.3219
12259TIP3    H158268   5.866   2.955   0.991 -0.1871  0.5847  0.5615
12259TIP3    H258269   5.751   3.007   0.907 -0.3297  0.2217  0.5340
12260TIP3   OH258270   6.657   2.681  14.416 -0.2682  0.5012 -0.4698
12260TIP3    H158271   6.740   2.681  14.463 -1.1773 -0.4438  1.2372
12260TIP3    H258272   6.606   2.752  14.457 -1.2008 -0.5610  0.2845
12261TIP3   OH258273   4.903   5.977   2.303  0.1250 -0.3711 -0.2382
12261TIP3    H158274   4.849   6.010   2.232 -0.0844 -0.7948 -0.2834
12261TIP3    H258275   4.985   5.951   2.261  0.7616  1.1825 -0.0217
12262TIP3   OH258276   5.532   4.625   5.566 -0.1485  0.7047 -0.5883
12262TIP3    H158277   5.625   4.629   5.589  0.4687 -1.2313 -2.4392
12262TIP3    H258278   5.487   4.626   5.651  1.5974  0.8120  0.3856
12263TIP3   OH258279   4.483   3.983  15.972 -0.5360 -0.4990 -0.2384
12263TIP3    H158280   4.439   3.934  16.042 -0.7156 -0.1818 -0.1236
12263TIP3    H258281   4.573   3.993  16.003 -0.3939 -1.0910 -0.4408
12264TIP3   OH258282   3.464   6.723  16.896 -0.4006 -0.1336 -0.1798
12264TIP3    H158283   3.475   6.742  16.989  0.1800 -2.0504  0.1867
12264TIP3    H258284   3.542   6.760  16.855 -0.3490  0.1707  0.1882
12265TIP3   OH258285   5.608   3.134   1.627 -0.0222  0.2343  0.0738
12265TIP3    H158286   5.564   3.062   1.672 -1.3575  0.0579 -1.4038
12265TIP3    H258287   5.540   3.201   1.617  0.7999  1.1029  0.1346
12266TIP3   OH258288   4.672   0.629  10.525  0.5656  0.3478  0.0863
12266TIP3    H158289   4.742   0.573  10.559 -0.3247  0.1554  1.7010
12266TIP3    H258290   4.685   0.713  10.569 -0.8455 -0.0185  1.2698
12267TIP3   OH258291   1.840   2.199  13.220 -0.0427  0.2378 -0.0613
12267TIP3    H158292   1.754   2.177  13.256  0.0453  0.4538  0.2902
12267TIP3    H258293   1.858   2.130  13.156 -0.6812  0.4514 -0.4744
12268TIP3   OH258294   6.245   1.025  14.902 -0.6175 -0.4821 -0.4302
12268TIP3    H158295   6.219   1.061  14.987  0.1255  0.9978 -0.7919
12268TIP3    H258296   6.241   0.930  14.913 -1.7310 -0.3068  0.8704
12269TIP3   OH258297   5.328   1.492  15.700 -0.4005  0.1108  0.3010
12269TIP3    H158298   5.375   1.469  15.620  1.3435  0.2212  1.2439
12269TIP3    H258299   5.287   1.576  15.681 -0.3674 -0.0691 -0.5951
12270TIP3   OH258300   3.286   5.634  16.655  0.6895 -0.4543  0.2034
12270TIP3    H158301   3.350   5.701  16.631  0.7729 -0.5401  0.1879
12270TIP3    H258302   3.283   5.638  16.751  1.9630 -1.5966  0.3222
12271TIP3   OH258303   0.935   6.203  15.501  0.0570 -0.1166  0.1050
12271TIP3    H158304   0.981   6.284  15.525  0.1363 -0.2478  0.3944
12271TIP3    H258305   0.852   6.208  15.547  1.2562 -1.6090  2.6255
12272TIP3   OH258306   6.274   1.897   0.167 -0.5656  0.0316  0.1276
12272TIP3    H158307   6.311   1.985   0.164 -0.6312  0.1709  2.2827
12272TIP3    H258308   6.195   1.903   0.113 -1.0758  1.5718  0.9858
12273TIP3   OH258309   4.800   1.767  13.853 -0.2430  0.2092 -0.1232
12273TIP3    H158310   4.817   1.849  13.900  0.1527  0.2021 -0.2459
12273TIP3    H258311   4.746   1.716  13.912  1.1279 -0.2425  0.8028
12274TIP3   OH258312   0.827   0.585   5.611 -0.2475  0.1786  0.2334
12274TIP3    H158313   0.739   0.582   5.574 -0.3516  1.0103  0.3806
12274TIP3    H258314   0.831   0.511   5.670 -0.3548 -0.7088 -0.8313
12275TIP3   OH258315   4.825   6.764  14.101  0.3041  0.8648  0.1581
12275TIP3    H158316   4.907   6.725  14.070  1.4496  1.9432  1.6989
12275TIP3    H258317   4.812   6.726  14.188 -1.6090 -0.3283 -0.5698
12276TIP3   OH258318   0.647   2.689   1.039  0.2001 -0.1321  0.3127
12276TIP3    H158319   0.606   2.626   0.980 -1.9980  2.4638 -1.2031
12276TIP3    H258320   0.731   2.710   0.997 -0.0979 -0.3794 -0.4269
12277TIP3   OH258321   3.169   2.854  14.325 -0.2588 -0.3396  0.3708
12277TIP3    H158322   3.166   2.824  14.416  1.4025 -1.3180  0.1457
12277TIP3    H258323   3.160   2.949  14.330 -1.5611 -0.4875  1.4221
12278TIP3   OH258324   0.916   2.842   5.180  0.7476  0.1218  0.4881
12278TIP3    H158325   0.932   2.748   5.173 -1.4340 -0.2568 -0.2011
12278TIP3    H258326   0.862   2.852   5.259  1.1177  0.8226  0.6626
12279TIP3   OH258327   6.462   3.081  14.321  0.3352 -0.1622  0.1286
12279TIP3    H158328   6.492   3.123  14.240  0.8433 -1.9143 -0.6329
12279TIP3    H258329   6.440   2.992  14.296 -0.8507 -0.3523  1.6714
12280TIP3   OH258330   4.528   1.170  14.233  0.4031 -0.2316 -0.0703
12280TIP3    H158331   4.450   1.133  14.191 -0.5226  0.9186  0.5596
12280TIP3    H258332   4.569   1.095  14.277 -1.0633 -0.6549  0.6535
12281TIP3   OH258333   4.566   2.113  15.709  0.4250 -0.0292  0.4040
12281TIP3    H158334   4.638   2.153  15.660 -0.5097 -0.0395 -1.0323
12281TIP3    H258335   4.531   2.183  15.764  0.3568  0.4654 -0.2661
12282TIP3   OH258336   1.891   5.713   4.238  0.4746 -0.3618  0.3238
12282TIP3    H158337   1.891   5.748   4.149  0.2715 -0.3396  0.3331
12282TIP3    H258338   1.962   5.760   4.281 -1.3100  1.8544  1.0466
12283TIP3   OH258339   2.976   6.055   5.811  0.0093 -0.5819  0.3049
12283TIP3    H158340   3.057   6.005   5.813 -0.4788 -1.4673 -0.9010
12283TIP3    H258341   2.988   6.117   5.738  0.2471  0.4585  1.1994
12284TIP3   OH258342   3.626   4.168  14.362  0.4575  0.5534 -0.3542
12284TIP3    H158343   3.717   4.152  14.389  0.5308  0.6119 -0.5709
12284TIP3    H258344   3.578   4.092  14.395  0.6190  0.4235 -0.4170
12285TIP3   OH258345   2.736   1.179  15.509 -0.5005 -0.1514 -0.5771
12285TIP3    H158346   2.762   1.251  15.452  0.1142 -0.3865 -0.6074
12285TIP3    H258347   2.660   1.211  15.556 -3.1841 -1.1066 -3.8999
12286TIP3   OH258348   4.938   5.876  16.478  0.1525 -0.0221  0.2796
12286TIP3    H158349   4.951   5.782  16.464 -0.1015 -0.2712  1.5561
12286TIP3    H258350   4.846   5.891  16.454 -0.6835 -0.7093  2.7084
12287TIP3   OH258351   6.046   0.732   4.941 -0.0921 -0.0943  0.4476
12287TIP3    H158352   5.991   0.754   4.866  2.9686  3.4475 -1.0458
12287TIP3    H258353   6.120   0.684   4.903 -0.2170 -1.4303  1.8101
12288TIP3   OH258354   5.502   1.758  13.539  0.0463  0.2814  0.3143
12288TIP3    H158355   5.527   1.724  13.453 -2.2626  0.9571 -0.6782
12288TIP3    H258356   5.511   1.853  13.530 -0.9267  0.4016  0.5574
12289TIP3   OH258357   5.594   1.751  11.370 -0.0191  1.0041 -0.7356
12289TIP3    H158358   5.556   1.720  11.288 -1.6607  0.9664  0.0089
12289TIP3    H258359   5.549   1.833  11.388 -1.3647 -0.0979  1.2663
12290TIP3   OH258360   6.225   1.825  16.760 -0.2588  0.2014 -0.0227
12290TIP3    H158361   6.290   1.848  16.826 -1.4906 -1.3760  1.8603
12290TIP3    H258362   6.150   1.881  16.780 -0.1700  0.6921 -0.9961
12291TIP3   OH258363   4.429   4.995  12.217  0.3075 -0.3752 -0.0639
12291TIP3    H158364   4.414   4.980  12.310 -0.8039  2.5906  0.3504
12291TIP3    H258365   4.359   4.948  12.173 -0.8314  0.4130  0.8427
12292TIP3   OH258366   3.405   1.946   3.357 -0.3247 -0.3610  0.4709
12292TIP3    H158367   3.482   2.003   3.365 -1.3434  1.1145  0.1091
12292TIP3    H258368   3.441   1.858   3.347  1.3334  0.3638 -0.2568
12293TIP3   OH258369   1.053   3.581  14.033  0.2124 -0.4330 -0.1126
12293TIP3    H158370   1.091   3.660  13.994  0.0453 -0.3624 -0.1320
12293TIP3    H258371   1.124   3.545  14.086  0.6984 -0.9691 -1.1029
12294TIP3   OH258372   6.118   5.369   3.240  0.1820 -0.5107 -0.2307
12294TIP3    H158373   6.048   5.357   3.304 -0.4153 -0.6771 -0.9077
12294TIP3    H258374   6.144   5.280   3.215  1.3431 -0.4788  0.7540
12295TIP3   OH258375   6.520   3.847   5.860  0.2410  0.0099  0.6169
12295TIP3    H158376   6.484   3.783   5.922 -0.2512 -2.1228 -1.7284
12295TIP3    H258377   6.608   3.815   5.841 -0.6877 -1.1844 -2.0335
12296TIP3   OH258378   0.556   6.464  14.258 -0.1855  0.4486 -0.0084
12296TIP3    H158379   0.535   6.538  14.201  0.9558  0.3865 -0.5310
12296TIP3    H258380   0.514   6.388  14.217  0.1014  0.5146 -0.4199
12297TIP3   OH258381   3.382   2.156   3.129  0.1777  0.4844  0.6484
12297TIP3    H158382   3.335   2.109   3.198 -1.5773  0.2760 -0.6068
12297TIP3    H258383   3.360   2.109   3.049  0.2132  2.0997 -0.3592
12298TIP3   OH258384   3.295   6.414   5.385 -0.3049 -0.2389 -0.2836
12298TIP3    H158385   3.239   6.491   5.377  0.4341  0.1719 -1.6527
12298TIP3    H258386   3.237   6.341   5.360 -0.7459 -0.0427  0.1364
12299TIP3   OH258387   2.503   3.167   3.218  0.1472  0.1748  0.2124
12299TIP3    H158388   2.441   3.104   3.254  1.7890 -1.4911  0.2765
12299TIP3    H258389   2.495   3.157   3.123 -0.1006  0.4285  0.2023
12300TIP3   OH258390   6.056   5.571   4.219  0.8328  0.5348  0.3447
12300TIP3    H158391   6.082   5.627   4.292  2.9557 -0.7686  0.6799
12300TIP3    H258392   6.042   5.485   4.259 -1.3142  0.5130 -0.3201
12301TIP3   OH258393   1.678   5.015  15.245 -0.1834 -0.1521  0.1375
12301TIP3    H158394   1.621   5.091  15.260 -0.0474 -0.1841  0.8420
12301TIP3    H258395   1.723   5.035  15.163  1.4329  1.5570  1.3235
12302TIP3   OH258396   0.091   1.515   3.179 -0.4205  0.2963 -0.3182
12302TIP3    H158397   0.033   1.463   3.236 -0.2050  0.2942 -0.0951
12302TIP3    H258398   0.115   1.455   3.108 -0.5241  0.2297 -0.2968
12303TIP3   OH258399   5.962   2.213   2.314 -0.2882 -0.3161  0.1116
12303TIP3    H158400   5.898   2.143   2.298  0.8538 -1.3761  0.0447
12303TIP3    H258401   6.045   2.176   2.286  0.6364  0.4202  1.7148
12304TIP3   OH258402   5.513   5.403  14.809  0.5495 -0.8754 -0.9736
12304TIP3    H158403   5.485   5.467  14.874  2.0698 -0.0550 -1.0716
12304TIP3    H258404   5.489   5.319  14.847 -0.3947 -0.3142 -0.2777
12305TIP3   OH258405   4.141   3.526   5.509 -0.0095  0.6495 -0.0784
12305TIP3    H158406   4.164   3.584   5.436  1.8236  1.1041  0.7970
12305TIP3    H258407   4.121   3.586   5.581  1.8226  0.2622  0.8155
12306TIP3   OH258408   3.318   2.848  12.699  0.0724  0.1749  0.0972
12306TIP3    H158409   3.246   2.842  12.636  0.9659  1.3884 -1.0794
12306TIP3    H258410   3.328   2.758  12.732  0.3097 -0.7533 -2.3334
12307TIP3   OH258411   4.729   6.398   1.630 -0.1448 -0.2830  0.4213
12307TIP3    H158412   4.810   6.445   1.649 -0.9401  1.6403 -0.6622
12307TIP3    H258413   4.758   6.316   1.590  1.2789  0.7713 -0.8436
12308TIP3   OH258414   3.967   5.112  12.398 -0.4449  0.3691  0.4484
12308TIP3    H158415   3.987   5.030  12.352  0.2288 -0.6572  2.4325
12308TIP3    H258416   3.871   5.113  12.404 -0.4198 -1.4011  2.1887
12309TIP3   OH258417   4.239   4.818   0.341  0.0307  0.3525  0.3847
12309TIP3    H158418   4.248   4.806   0.246  2.1440  1.1332  0.4192
12309TIP3    H258419   4.189   4.899   0.351  0.1262  0.4711 -0.0743
12310TIP3   OH258420   5.856   6.740   5.395  0.0367  0.3725  0.5393
12310TIP3    H158421   5.855   6.829   5.429 -0.6264  0.3584  0.5667
12310TIP3    H258422   5.888   6.749   5.305  1.1028  0.4916  0.9247
12311TIP3   OH258423   2.920   5.602  12.190 -0.7126 -0.1804  0.6430
12311TIP3    H158424   2.996   5.591  12.247 -0.1587  2.3727  0.5598
12311TIP3    H258425   2.857   5.650  12.244 -0.4313  1.7048 -0.6041
12312TIP3   OH258426   5.572   3.865   2.644 -0.3139  0.1296 -0.3769
12312TIP3    H158427   5.607   3.776   2.637 -0.6035 -0.0014 -0.1816
12312TIP3    H258428   5.482   3.858   2.613 -0.1667  0.4745 -0.9216
12313TIP3   OH258429   1.291   1.113   3.175  0.2411 -0.3340  0.2083
12313TIP3    H158430   1.293   1.205   3.149 -1.3716 -0.5246 -0.7124
12313TIP3    H258431   1.199   1.087   3.164  0.4992 -1.8196  1.2969
12314TIP3   OH258432   1.353   1.714  14.431 -0.1050  0.1341  0.0121
12314TIP3    H158433   1.435   1.728  14.384  1.1923 -2.4127  1.2878
12314TIP3    H258434   1.303   1.655  14.373  0.2338 -0.6208  0.4679
12315TIP3   OH258435   0.668   3.985   0.714 -0.1062  0.1418  0.1008
12315TIP3    H158436   0.716   4.040   0.652  3.0029 -1.7642  0.5926
12315TIP3    H258437   0.629   3.916   0.660  1.0208 -0.4510  0.0024
12316TIP3   OH258438   1.422   2.154   3.190  0.0879 -0.1867  0.4553
12316TIP3    H158439   1.348   2.143   3.130  1.6550  0.2277 -1.6342
12316TIP3    H258440   1.420   2.075   3.245 -1.1748 -0.7566 -0.3685
12317TIP3   OH258441   5.137   6.138  14.253 -0.3093 -0.3115 -0.0721
12317TIP3    H158442   5.101   6.079  14.319 -0.2777 -0.0029  0.2234
12317TIP3    H258443   5.067   6.200  14.235 -0.1613 -0.1168  0.0130
12318TIP3   OH258444   2.719   0.935  14.286  0.2096  0.1754  0.3394
12318TIP3    H158445   2.757   0.880  14.354 -0.9314 -1.5082 -0.3346
12318TIP3    H258446   2.625   0.917  14.290  0.0447  0.4790 -1.2861
12319TIP3   OH258447   4.947   2.544  16.787 -0.4992 -0.6349  0.2670
12319TIP3    H158448   4.869   2.492  16.766 -0.1192 -1.1367  0.0750
12319TIP3    H258449   5.020   2.492  16.754 -0.2116  0.9062 -1.7034
12320TIP3   OH258450   5.843   5.981   0.439 -0.1213 -0.0128 -0.5717
12320TIP3    H158451   5.900   6.042   0.485 -0.8427  0.7677 -0.6856
12320TIP3    H258452   5.903   5.923   0.392  0.6083 -0.1867  0.5237
12321TIP3   OH258453   5.287   4.219  14.028  0.5210 -0.7018 -0.1396
12321TIP3    H158454   5.230   4.243  13.955 -0.7856 -0.3289  0.9682
12321TIP3    H258455   5.351   4.158  13.990  0.6969  0.4884 -1.8720
12322TIP3   OH258456   3.574   0.230  11.303  0.3293 -0.3086  0.3153
12322TIP3    H158457   3.558   0.300  11.365  1.0173  1.2053 -1.1397
12322TIP3    H258458   3.663   0.246  11.270 -1.0431  0.8719 -3.2971
12323TIP3   OH258459   3.409   2.378   5.205  0.3040  0.1079 -0.3156
12323TIP3    H158460   3.373   2.404   5.290 -1.1358 -2.2684 -0.0920
12323TIP3    H258461   3.497   2.347   5.224  0.2367  0.2183  0.1920
12324TIP3   OH258462   0.657   2.981  14.279  0.0822 -0.1593  0.5887
12324TIP3    H158463   0.582   3.039  14.266  1.6131  2.1597  1.5026
12324TIP3    H258464   0.717   3.031  14.334  2.0602 -2.1711  0.4068
12325TIP3   OH258465   0.563   3.860   1.750  0.7729  0.8066 -0.4165
12325TIP3    H158466   0.565   3.955   1.766 -1.5166  0.8244 -0.0058
12325TIP3    H258467   0.508   3.825   1.819 -0.5033 -0.4946 -2.0098
12326TIP3   OH258468   6.004   5.473   2.458 -0.2726 -0.1750 -0.5393
12326TIP3    H158469   5.984   5.484   2.365  2.1480  0.5529 -1.0544
12326TIP3    H258470   6.087   5.519   2.470 -0.7851  0.2156  2.1247
12327TIP3   OH258471   5.227   0.452  12.626 -0.1708  0.4210 -0.2702
12327TIP3    H158472   5.145   0.436  12.580 -0.1091  1.5031 -0.8058
12327TIP3    H258473   5.279   0.374  12.610 -0.2025  0.7010 -1.9773
12328TIP3   OH258474   1.475   0.588   5.621  0.4522  0.0275  0.5302
12328TIP3    H158475   1.424   0.617   5.697  2.2947 -2.5512  2.9657
12328TIP3    H258476   1.556   0.638   5.627  0.6211 -0.2143  0.2863
12329TIP3   OH258477   4.023   5.913   4.310 -0.1132  0.1564  0.1061
12329TIP3    H158478   4.033   5.964   4.230 -1.0961  1.2901  0.6870
12329TIP3    H258479   3.934   5.879   4.306  0.5678 -1.7646 -0.3738
12330TIP3   OH258480   1.446   2.641  11.916  0.4171  0.5204 -0.1080
12330TIP3    H158481   1.514   2.583  11.883  2.6355  2.6442  0.4017
12330TIP3    H258482   1.489   2.726  11.924 -2.4777  2.1394 -0.2702
12331TIP3   OH258483   2.381   1.522  15.280 -0.1843  0.0966  0.2655
12331TIP3    H158484   2.457   1.566  15.242 -0.5835  1.1986  0.7079
12331TIP3    H258485   2.385   1.433  15.245 -0.4370  0.9802 -2.2375
12332TIP3   OH258486   0.605   6.482   2.301 -0.3436 -0.0407  0.2468
12332TIP3    H158487   0.604   6.573   2.271  1.9828 -0.3356 -0.9512
12332TIP3    H258488   0.529   6.441   2.258 -1.7916  1.4029  1.2917
12333TIP3   OH258489   6.251   1.848  11.274 -0.6294  0.3208  0.2319
12333TIP3    H158490   6.319   1.820  11.213  0.0640  0.4535  0.9151
12333TIP3    H258491   6.226   1.769  11.322  1.9402  0.8553  2.7589
12334TIP3   OH258492   2.218   4.287   0.237  0.2804  0.0420  0.0472
12334TIP3    H158493   2.155   4.334   0.183 -0.2093 -0.3020  0.3072
12334TIP3    H258494   2.302   4.331   0.221 -0.3328  1.6446  1.0433
12335TIP3   OH258495   4.135   3.686   3.104 -0.1154  0.1456 -0.1341
12335TIP3    H158496   4.109   3.617   3.165 -0.8211  1.2201  0.8189
12335TIP3    H258497   4.059   3.698   3.047  0.4181 -0.6222 -1.0378
12336TIP3   OH258498   3.939   3.963   3.310 -0.1149  0.0012  0.2386
12336TIP3    H158499   3.850   3.984   3.281 -0.4575 -1.2163  0.3535
12336TIP3    H258500   3.930   3.945   3.404 -0.1073 -1.8572 -0.0687
12337TIP3   OH258501   6.689   5.023   2.092  0.1868 -0.1428  0.0595
12337TIP3    H158502   6.622   4.962   2.124  0.1359  0.7883  1.8120
12337TIP3    H258503   6.670   5.031   1.998 -1.5853 -0.5986  0.3379
12338TIP3   OH258504   0.764   1.905   3.199  0.1896 -0.4137 -0.5905
12338TIP3    H158505   0.684   1.859   3.177 -1.7249  1.7779  1.1974
12338TIP3    H258506   0.793   1.946   3.117 -0.7947 -0.8493 -1.1657
12339TIP3   OH258507   4.822   4.085  13.244 -0.8386 -0.1292  0.6260
12339TIP3    H158508   4.751   4.025  13.219 -0.2095  0.1351 -2.0368
12339TIP3    H258509   4.899   4.028  13.253 -1.1603 -0.3125  2.8102
12340TIP3   OH258510   6.010   0.879   1.872 -0.5051  0.0701  0.1306
12340TIP3    H158511   5.922   0.858   1.839 -1.0717  0.1742  1.5088
12340TIP3    H258512   6.069   0.829   1.815 -1.5865 -2.0431  0.7448
12341TIP3   OH258513   3.119   1.087   4.175  0.0262 -0.3821  0.3309
12341TIP3    H158514   3.038   1.089   4.225  0.8648  2.0559  1.7865
12341TIP3    H258515   3.115   1.006   4.124 -3.6161  0.0094 -0.2478
12342TIP3   OH258516   5.302   1.764   4.855  0.1333 -0.0915 -0.0853
12342TIP3    H158517   5.208   1.753   4.841  0.3368  0.6414 -2.6578
12342TIP3    H258518   5.340   1.681   4.825  0.2802 -1.0504  2.5178
12343TIP3   OH258519   2.538   4.099   2.976 -0.1261 -0.2901  0.2878
12343TIP3    H158520   2.516   4.058   3.060  1.0955  0.2607  0.9026
12343TIP3    H258521   2.614   4.153   2.995  0.1495 -0.1201 -1.1795
12344TIP3   OH258522   1.891   0.439  12.875 -0.2932 -0.0210  0.3440
12344TIP3    H158523   1.847   0.363  12.911  0.6880 -2.3358 -2.8772
12344TIP3    H258524   1.979   0.436  12.912 -0.7737  0.6535  1.5910
12345TIP3   OH258525   2.120   2.478  12.681  0.2772  0.5998  0.1157
12345TIP3    H158526   2.040   2.477  12.734 -0.3094  1.0908 -0.7376
12345TIP3    H258527   2.126   2.389  12.646 -0.0986  0.6602 -0.1103
12346TIP3   OH258528   5.523   5.030  15.518  0.1181 -0.5903  0.1780
12346TIP3    H158529   5.599   5.069  15.474 -0.0497  0.4281  0.7622
12346TIP3    H258530   5.558   4.949  15.556  0.6815 -0.6118 -0.3671
12347TIP3   OH258531   3.865   1.539   3.198  0.0560 -0.1974  0.0110
12347TIP3    H158532   3.957   1.514   3.186  0.0275 -0.2470 -0.1056
12347TIP3    H258533   3.826   1.465   3.243  0.2671  0.1801  0.8378
12348TIP3   OH258534   0.825   2.110   5.163 -0.6154  0.6767  0.0490
12348TIP3    H158535   0.906   2.072   5.197 -0.3176  1.1573 -0.1194
12348TIP3    H258536   0.854   2.169   5.094 -1.1633  0.2119 -0.5986
12349TIP3   OH258537   0.303   4.189  13.169 -0.1408 -0.3766 -0.0977
12349TIP3    H158538   0.266   4.275  13.187  1.9965  0.4030  0.8852
12349TIP3    H258539   0.252   4.156  13.095 -2.3599  0.8230  0.7911
12350TIP3   OH258540   6.718   5.780  17.042  0.4938 -0.4037 -0.2246
12350TIP3    H158541   6.697   5.847  17.107  1.3787  0.0336 -0.3709
12350TIP3    H258542   6.642   5.777  16.985  0.0754 -0.1607  0.3128
12351TIP3   OH258543   3.292   0.907  12.883 -0.4756 -0.9288  0.6253
12351TIP3    H158544   3.200   0.881  12.893 -0.2905 -1.0536  2.5009
12351TIP3    H258545   3.340   0.824  12.880 -0.2400 -0.9044  2.3843
12352TIP3   OH258546   1.381   3.130  12.495  0.4494 -0.2653 -0.2017
12352TIP3    H158547   1.452   3.161  12.439  1.9349  0.3411  1.9439
12352TIP3    H258548   1.346   3.209  12.536  0.0508 -0.8079  0.5145
12353TIP3   OH258549   6.109   5.082   1.826  0.1080 -0.6898  0.3266
12353TIP3    H158550   6.015   5.068   1.835 -0.0511 -0.1066 -0.3144
12353TIP3    H258551   6.117   5.172   1.793  0.9957  0.1158  2.5503
12354TIP3   OH258552   1.447   5.951   4.295 -0.5511  0.2796  0.5891
12354TIP3    H158553   1.426   5.889   4.225 -1.4057  1.3209 -0.1060
12354TIP3    H258554   1.542   5.958   4.293 -0.4683 -0.6970  0.4283
12355TIP3   OH258555   3.501   0.297   1.997 -0.9532  0.1379 -0.4582
12355TIP3    H158556   3.481   0.390   2.004  0.7962  0.4696  0.9976
12355TIP3    H258557   3.597   0.294   1.992 -0.8319 -1.6266  1.5310
12356TIP3   OH258558   4.374   1.039   3.220 -0.4319 -0.0570  0.5768
12356TIP3    H158559   4.402   0.982   3.148 -1.3508  0.2570 -0.0392
12356TIP3    H258560   4.290   1.074   3.192 -1.3911 -0.8426  2.2998
12357TIP3   OH258561   6.097   5.897   4.653  0.2223 -0.3854  0.7307
12357TIP3    H158562   6.189   5.900   4.680  0.8455 -0.4596 -1.2758
12357TIP3    H258563   6.051   5.949   4.719  1.8115  0.3454  1.2977
12358TIP3   OH258564   1.328   1.239   5.180  0.1952  0.3925  0.1361
12358TIP3    H158565   1.263   1.187   5.228  1.8742  1.6123  4.2199
12358TIP3    H258566   1.285   1.323   5.164  0.5297  1.0874  2.5402
12359TIP3   OH258567   5.522   1.294  12.335 -0.6985 -0.4547  0.3357
12359TIP3    H158568   5.520   1.199  12.322 -0.5640 -0.3615 -0.3636
12359TIP3    H258569   5.468   1.330  12.265 -0.9580 -0.0267  0.7489
12360TIP3   OH258570   3.002   5.087   1.975 -0.7058 -0.2555 -0.3455
12360TIP3    H158571   3.076   5.029   1.958  0.9501  1.3964  0.7593
12360TIP3    H258572   2.965   5.057   2.058 -0.3513 -0.1973 -0.1675
12361TIP3   OH258573   3.206   0.360   4.364  0.3307  0.5080 -0.2997
12361TIP3    H158574   3.216   0.269   4.392  0.6386  0.6114 -0.0667
12361TIP3    H258575   3.189   0.408   4.445 -3.0602  0.2455 -0.6860
12362TIP3   OH258576   6.234   1.400   5.696 -0.0079 -0.0979 -0.6388
12362TIP3    H158577   6.247   1.489   5.664 -0.4139  0.0587 -0.3790
12362TIP3    H258578   6.322   1.365   5.708  0.1503  0.2055 -0.9168
12363TIP3   OH258579   2.673   2.703   1.967  0.2610 -0.0681 -0.1391
12363TIP3    H158580   2.660   2.684   2.060  0.3524  0.7091  0.0419
12363TIP3    H258581   2.622   2.636   1.921 -1.0987  0.4962  0.5003
12364TIP3   OH258582   0.436   5.352  12.612  0.1267  0.1174 -0.4668
12364TIP3    H158583   0.412   5.259  12.619 -0.0626  0.0999 -1.2872
12364TIP3    H258584   0.529   5.351  12.590  0.1835  0.1309 -0.2317
12365TIP3   OH258585   0.387   5.960  12.075 -0.0374  0.1572 -0.1970
12365TIP3    H158586   0.365   6.043  12.119  0.7399 -0.1914  0.9053
12365TIP3    H258587   0.471   5.935  12.113 -0.7182 -1.6294  0.2194
12366TIP3   OH258588   5.580   0.144   4.044  0.2217 -0.0433 -0.5516
12366TIP3    H158589   5.556   0.054   4.066 -2.9761 -0.1343 -3.4833
12366TIP3    H258590   5.596   0.141   3.950  0.5156  2.4061 -0.6259
12367TIP3   OH258591   1.294   4.848   2.290 -0.2038  0.6521 -0.4797
12367TIP3    H158592   1.216   4.810   2.249  0.9609 -0.9837 -1.2687
12367TIP3    H258593   1.367   4.817   2.238  1.2219 -0.1774  1.8492
12368TIP3   OH258594   1.050   1.065  15.894 -0.4624  0.5512  0.6099
12368TIP3    H158595   0.956   1.062  15.914 -0.4639  0.2920  0.5599
12368TIP3    H258596   1.085   0.985  15.932  0.1019  1.6325  2.4923
12369TIP3   OH258597   3.943   0.984   0.098  0.2496 -0.1471 -0.0723
12369TIP3    H158598   3.890   0.922   0.050 -0.2433  0.2703 -0.0737
12369TIP3    H258599   3.979   1.042   0.031  0.0540  0.0620  0.0019
12370TIP3   OH258600   4.450   2.471  14.338 -0.0770  0.0840  0.7987
12370TIP3    H158601   4.425   2.497  14.249 -1.5040  0.0602  1.1715
12370TIP3    H258602   4.430   2.547  14.392 -0.3561 -0.3304  1.2840
12371TIP3   OH258603   6.691   5.566  11.357  0.1428 -0.3689 -0.1148
12371TIP3    H158604   6.596   5.551  11.355  0.1637 -0.9545  1.7484
12371TIP3    H258605   6.729   5.478  11.350  0.5274 -0.2162  0.0589
12372TIP3   OH258606   6.047   0.810  14.234  0.1650  0.0569  0.0884
12372TIP3    H158607   6.008   0.723  14.244  1.5264 -0.7671 -1.2551
12372TIP3    H258608   6.039   0.829  14.140 -2.2573  2.4941  0.6540
12373TIP3   OH258609   0.636   2.534   2.582  0.3086 -0.1752  0.2683
12373TIP3    H158610   0.578   2.471   2.624 -1.5243  1.6780  0.7152
12373TIP3    H258611   0.600   2.544   2.493  1.0584 -0.3370 -0.0605
12374TIP3   OH258612   4.911   4.884  13.437 -0.4251 -0.6237  0.4426
12374TIP3    H158613   4.862   4.964  13.422  1.5496  0.3451 -1.2769
12374TIP3    H258614   4.949   4.895  13.525 -2.3558 -0.9413  1.3538
12375TIP3   OH258615   4.291   6.012  12.381 -0.4133  0.3220 -0.2182
12375TIP3    H158616   4.332   5.937  12.339 -0.1083  0.1560  0.3714
12375TIP3    H258617   4.364   6.067  12.410 -0.6082  0.2871  0.3602
12376TIP3   OH258618   1.363   3.027   2.430 -0.4148 -0.3831  0.0630
12376TIP3    H158619   1.421   2.993   2.362 -2.1357  0.1033 -1.7519
12376TIP3    H258620   1.363   2.960   2.498  2.4272 -0.2801  0.2768
12377TIP3   OH258621   3.392   2.100  15.360  0.5127 -0.0276  0.3964
12377TIP3    H158622   3.426   2.023  15.314 -0.0040 -0.5785  0.9082
12377TIP3    H258623   3.300   2.104  15.335  0.3945  0.0719  0.8395
12378TIP3   OH258624   4.958   5.872  14.793 -0.0190 -0.2814  0.6694
12378TIP3    H158625   5.035   5.838  14.747 -1.1441  0.6468 -2.1026
12378TIP3    H258626   4.991   5.945  14.845  1.0720 -0.3406  0.0826
12379TIP3   OH258627   3.599   1.743   2.713 -0.9785  0.1472  0.1605
12379TIP3    H158628   3.673   1.705   2.664  0.5700 -1.0612  3.1749
12379TIP3    H258629   3.524   1.691   2.686 -0.4732  0.3395 -1.7859
12380TIP3   OH258630   2.405   3.921  14.221 -0.1538  0.3130  0.0274
12380TIP3    H158631   2.438   3.992  14.167  0.7411 -0.5731 -0.6241
12380TIP3    H258632   2.331   3.959  14.269  0.0051  1.5292 -0.6665
12381TIP3   OH258633   0.520   1.732   4.463  0.8873  0.1259 -0.3320
12381TIP3    H158634   0.486   1.757   4.377 -0.9561  0.5874  0.4676
12381TIP3    H258635   0.584   1.799   4.485  0.0062  1.0655 -0.5664
12382TIP3   OH258636   2.335   2.891  10.960  0.0300 -0.1236 -0.4038
12382TIP3    H158637   2.261   2.925  11.011  0.3165  1.7575 -1.1602
12382TIP3    H258638   2.296   2.826  10.902 -0.4323 -1.6959  1.5543
12383TIP3   OH258639   1.339   2.663  15.198 -0.0958  0.1792  0.2898
12383TIP3    H158640   1.362   2.706  15.281 -0.7898  0.3031  0.4177
12383TIP3    H258641   1.388   2.712  15.132  2.5098 -1.4518  0.8307
12384TIP3   OH258642   3.078   2.825  14.818  0.4830 -0.0254 -0.7202
12384TIP3    H158643   3.173   2.824  14.835  0.8499  0.1178 -2.5221
12384TIP3    H258644   3.049   2.910  14.850  0.9669 -0.0317 -0.2381
12385TIP3   OH258645   1.461   3.867   4.542  0.1508  0.3661  0.0195
12385TIP3    H158646   1.482   3.805   4.612 -0.7548  0.2050  0.1597
12385TIP3    H258647   1.366   3.862   4.533  0.0929  1.5189 -0.1714
12386TIP3   OH258648   5.350   4.926   5.168  0.2881 -0.0331  0.8542
12386TIP3    H158649   5.255   4.919   5.179  0.3893 -1.8618  1.0045
12386TIP3    H258650   5.383   4.944   5.257  0.1366 -0.6308  1.0425
12387TIP3   OH258651   6.010   5.387   4.502 -0.0932 -0.1901 -0.3589
12387TIP3    H158652   5.989   5.295   4.514  0.2612 -0.5050 -1.9578
12387TIP3    H258653   5.924   5.431   4.497 -0.2606 -0.3485  0.7488
12388TIP3   OH258654   4.251   5.322   3.805 -0.3866 -0.4383  0.1132
12388TIP3    H158655   4.156   5.325   3.796 -0.3734  1.0695  0.1759
12388TIP3    H258656   4.269   5.363   3.890  0.3284 -0.3293 -0.0773
12389TIP3   OH258657   2.178   1.153  10.155  0.4587  0.3653 -0.1960
12389TIP3    H158658   2.252   1.162  10.095 -1.0655  0.5554 -2.1620
12389TIP3    H258659   2.209   1.190  10.237  2.8828 -0.5528 -0.6118
12390TIP3   OH258660   6.790   1.026  14.972 -0.0315  0.0351 -0.0829
12390TIP3    H158661   6.776   1.050  14.880  0.8118  0.3273 -0.1368
12390TIP3    H258662   6.703   0.997  15.002  0.0649 -1.8781 -1.4901
12391TIP3   OH258663   2.950   0.849  15.450 -0.4414 -0.3562  0.5678
12391TIP3    H158664   2.876   0.863  15.391  0.7542  1.1531 -0.6626
12391TIP3    H258665   3.001   0.780  15.408  0.3720  0.6676 -0.1684
12392TIP3   OH258666   5.380   2.224   1.827  0.4550 -0.1089  0.4176
12392TIP3    H158667   5.460   2.209   1.777  0.0452  0.8776 -0.5828
12392TIP3    H258668   5.312   2.237   1.761 -0.0354  1.6102  1.1971
12393TIP3   OH258669   2.770   0.868  15.684  0.4768 -0.1826  0.1921
12393TIP3    H158670   2.818   0.792  15.651  1.1709 -1.0125  2.8556
12393TIP3    H258671   2.709   0.890  15.614  2.7039 -0.9118 -2.1271
12394TIP3   OH258672   0.927   4.485  10.631  0.2466  0.5696  0.1919
12394TIP3    H158673   0.962   4.398  10.612  0.4007  0.7431 -0.3571
12394TIP3    H258674   0.975   4.514  10.709  0.2005  0.1648  0.3693
12395TIP3   OH258675   4.712   5.265   3.595  0.2471 -0.5133 -0.4076
12395TIP3    H158676   4.790   5.246   3.646 -1.1142 -0.1194  2.0037
12395TIP3    H258677   4.728   5.351   3.558  0.1183  0.6360  2.0050
12396TIP3   OH258678   2.922   0.192  16.347 -0.4553 -0.5392 -0.3451
12396TIP3    H158679   3.017   0.200  16.348 -0.4065 -0.2612 -2.6721
12396TIP3    H258680   2.892   0.269  16.396  0.4838 -0.7333  0.5832
12397TIP3   OH258681   1.964   1.167  12.435 -0.2156 -0.8735 -0.0547
12397TIP3    H158682   1.889   1.157  12.493 -0.2617  0.9956  0.2771
12397TIP3    H258683   2.004   1.251  12.461  0.0617 -0.2182 -2.3622
12398TIP3   OH258684   0.213   5.755  12.079 -0.5641  0.2574 -0.2468
12398TIP3    H158685   0.259   5.831  12.116  1.9962 -0.5321 -1.5731
12398TIP3    H258686   0.281   5.706  12.032 -1.5944 -3.9370  2.0832
12399TIP3   OH258687   1.092   1.520   5.486  0.6263  0.1701  0.0110
12399TIP3    H158688   1.118   1.490   5.573 -0.4034  0.6987  0.5121
12399TIP3    H258689   1.034   1.451   5.454  1.3460 -0.2374 -0.4571
12400TIP3   OH258690   1.699   0.846   2.510  0.1766 -0.1843 -0.2514
12400TIP3    H158691   1.759   0.852   2.585  0.5040 -0.9808 -0.4343
12400TIP3    H258692   1.714   0.927   2.461  0.7261 -0.1331 -0.0104
12401TIP3   OH258693   4.739   4.146  11.228 -0.3169 -0.3304  0.4048
12401TIP3    H158694   4.679   4.155  11.154 -0.3812  1.2196  0.6147
12401TIP3    H258695   4.682   4.130  11.303 -0.4708  0.9750  0.5767
12402TIP3   OH258696   1.105   3.390   0.542 -0.4605  0.5431  0.1281
12402TIP3    H158697   1.105   3.452   0.615 -0.8183  0.1004  0.5124
12402TIP3    H258698   1.178   3.332   0.561 -2.0041 -1.0811  1.4676
12403TIP3   OH258699   1.340   2.279  16.254 -0.5829 -0.0909  0.3601
12403TIP3    H158700   1.306   2.366  16.274  3.3407  1.5811  0.6913
12403TIP3    H258701   1.347   2.276  16.159 -0.4826  0.0749  0.3623
12404TIP3   OH258702   3.508   1.502  11.650  0.0212 -0.4698  0.0338
12404TIP3    H158703   3.425   1.548  11.668 -0.1539 -0.1992 -1.3653
12404TIP3    H258704   3.560   1.566  11.600 -0.2506 -1.7818 -2.0232
12405TIP3   OH258705   1.626   2.841  11.876  0.0508  0.1703 -0.0150
12405TIP3    H158706   1.716   2.809  11.881  1.5627  3.9617  0.4575
12405TIP3    H258707   1.606   2.840  11.782  1.8186  1.9629 -0.5068
12406TIP3   OH258708   4.854   4.837  16.618  0.1444 -0.0296 -0.0592
12406TIP3    H158709   4.921   4.894  16.654 -1.5250  2.5310 -0.7375
12406TIP3    H258710   4.805   4.806  16.694  2.2345 -2.3481  0.4968
12407TIP3   OH258711   2.993   1.712   1.487  0.2928  0.3431  0.0920
12407TIP3    H158712   3.078   1.677   1.461  0.0560  0.0029 -0.2282
12407TIP3    H258713   3.005   1.807   1.489  0.0977  0.4463 -2.0709
12408TIP3   OH258714   1.911   3.780  11.915 -0.5176  0.3456  0.5815
12408TIP3    H158715   1.981   3.718  11.892 -3.1980 -2.0291 -1.9465
12408TIP3    H258716   1.927   3.856  11.859  0.8822  0.5188  1.1809
12409TIP3   OH258717   1.606   5.936  14.623 -0.1063 -0.3355 -0.5742
12409TIP3    H158718   1.617   5.997  14.550 -0.7918  1.2590  0.5983
12409TIP3    H258719   1.580   5.991  14.697  0.9452 -1.8334  0.9992
12410TIP3   OH258720   2.138   3.888  13.676  0.7454 -0.1697  0.0364
12410TIP3    H158721   2.113   3.831  13.603  0.7583 -1.5614  1.0741
12410TIP3    H258722   2.081   3.964  13.669 -0.3301 -1.0109 -0.5223
12411TIP3   OH258723   4.272   1.237   3.532  0.4506  0.2279  0.3409
12411TIP3    H158724   4.236   1.293   3.463  0.0996 -1.7707 -1.2173
12411TIP3    H258725   4.347   1.286   3.566 -0.1738  1.8666 -0.5303
12412TIP3   OH258726   0.977   1.193   3.556  0.1934  0.0937 -0.3897
12412TIP3    H158727   0.967   1.105   3.593  0.5344  0.2538  0.0979
12412TIP3    H258728   0.974   1.180   3.461 -1.7283 -0.2049 -0.3363
12413TIP3   OH258729   1.903   3.204   0.087 -0.1517  0.1531  0.2714
12413TIP3    H158730   1.816   3.211   0.048  0.6115  1.0719 -1.3486
12413TIP3    H258731   1.890   3.150   0.166 -2.0423 -0.3028 -0.3141
12414TIP3   OH258732   2.687   5.164  11.512 -0.3477 -0.1739  0.1750
12414TIP3    H158733   2.728   5.242  11.548  0.2188 -1.0316  1.4719
12414TIP3    H258734   2.611   5.196  11.464  0.0426  1.1879  0.4388
12415TIP3   OH258735   2.339   3.508  15.803  0.2152 -0.1380  0.0385
12415TIP3    H158736   2.387   3.553  15.872  0.1374  0.9501 -0.5782
12415TIP3    H258737   2.310   3.426  15.842  0.7776  0.1405  1.0626
12416TIP3   OH258738   5.118   5.094   0.412  0.5924  0.1082  0.0700
12416TIP3    H158739   5.092   5.014   0.458 -0.3359  1.1951  1.4883
12416TIP3    H258740   5.046   5.110   0.351  0.9462 -0.3104 -0.4693
12417TIP3   OH258741   3.204   4.622   3.965 -0.2551  0.2768 -0.4366
12417TIP3    H158742   3.253   4.676   4.027 -0.5944  0.6568 -0.4927
12417TIP3    H258743   3.204   4.535   4.004  0.6600  0.2237 -0.5546
12418TIP3   OH258744   4.443   2.128  10.220  0.2871 -0.2774  0.6891
12418TIP3    H158745   4.413   2.093  10.305 -0.9930 -0.3983  0.2191
12418TIP3    H258746   4.489   2.055  10.179  0.9261 -0.2128  1.2833
12419TIP3   OH258747   3.577   2.973   5.992  0.0908 -1.0107  0.4297
12419TIP3    H158748   3.640   2.992   5.922 -0.6320 -1.8942 -0.4908
12419TIP3    H258749   3.515   2.912   5.952 -2.6618  1.4517  0.5737
12420TIP3   OH258750   2.466   5.838   3.734  0.8818  0.0974  0.5445
12420TIP3    H158751   2.488   5.865   3.645 -0.7011 -0.2229  0.0184
12420TIP3    H258752   2.535   5.876   3.789  0.8505  1.8810 -0.5960
12421TIP3   OH258753   0.698   3.403   1.347 -0.1207  0.6946  0.1891
12421TIP3    H158754   0.743   3.383   1.265 -0.3476  0.6605  0.0745
12421TIP3    H258755   0.725   3.334   1.407  0.1852  0.8183  0.1968
12422TIP3   OH258756   4.345   5.171   5.310 -0.3849  0.3777 -0.1603
12422TIP3    H158757   4.290   5.192   5.235 -1.9428  1.2596  1.1483
12422TIP3    H258758   4.359   5.256   5.354  0.9789 -0.0256  0.2299
12423TIP3   OH258759   3.286   3.581   2.995  0.1623  0.3980  0.0874
12423TIP3    H158760   3.298   3.515   2.926  1.8753  1.0365 -0.2889
12423TIP3    H258761   3.247   3.656   2.950 -2.0605 -0.3963  0.5731
12424TIP3   OH258762   5.813   2.076  14.453  0.3439  0.4599 -0.0897
12424TIP3    H158763   5.794   2.108  14.365  3.1637 -0.7675 -1.2536
12424TIP3    H258764   5.784   1.984  14.452  0.0126  0.5534  0.4304
12425TIP3   OH258765   3.027   5.912  16.406  0.3331 -0.3565  0.1693
12425TIP3    H158766   2.973   5.953  16.339  0.7461  0.6671  0.4472
12425TIP3    H258767   3.027   5.974  16.479  0.4804 -1.1275  0.8434
12426TIP3   OH258768   3.045   1.975   5.417  0.5149 -0.3268 -0.4723
12426TIP3    H158769   3.086   1.924   5.487 -1.0696  1.2444  1.7675
12426TIP3    H258770   3.118   2.016   5.371  1.8242  3.5372  4.2282
12427TIP3   OH258771   5.914   3.379   0.514  0.8499 -0.1969  0.1355
12427TIP3    H158772   5.854   3.324   0.464  0.4627 -1.0011  1.4368
12427TIP3    H258773   5.868   3.399   0.595  1.4878  1.0234  0.2295
12428TIP3   OH258774   3.907   6.372  13.511 -0.3572 -0.0186 -0.6219
12428TIP3    H158775   3.900   6.434  13.439 -0.2324  0.4424 -0.2436
12428TIP3    H258776   3.827   6.386  13.563  0.7846  1.5616  0.8104
12429TIP3   OH258777   4.446   2.527  13.203  0.2418 -0.2067 -0.2525
12429TIP3    H158778   4.399   2.581  13.140 -0.6174 -0.1978  0.3643
12429TIP3    H258779   4.392   2.448  13.211  0.8661 -0.6411 -0.2710
12430TIP3   OH258780   1.300   5.036  12.948  0.0206 -0.5587  0.2457
12430TIP3    H158781   1.307   5.026  13.043 -0.0718 -1.0633  0.2056
12430TIP3    H258782   1.206   5.032  12.931  0.0451 -0.5958  0.1196
12431TIP3   OH258783   6.586   5.357   4.442 -0.0844 -0.0578  0.0788
12431TIP3    H158784   6.650   5.300   4.484  1.8446  1.2483 -0.9295
12431TIP3    H258785   6.533   5.297   4.388  0.2395 -1.1799  0.9706
12432TIP3   OH258786   1.293   3.188   0.585 -0.1982  0.6693 -0.3742
12432TIP3    H158787   1.366   3.181   0.523 -0.0869  0.7699 -0.2542
12432TIP3    H258788   1.331   3.169   0.670 -0.4716 -0.0358 -0.4054
12433TIP3   OH258789   3.507   1.747   4.861 -0.3017  0.0915  0.4879
12433TIP3    H158790   3.450   1.700   4.801  0.5657 -0.7026  0.2525
12433TIP3    H258791   3.565   1.799   4.804 -0.9328  1.0919  0.7296
12434TIP3   OH258792   5.002   6.813   0.301  0.0866 -0.1243  0.2616
12434TIP3    H158793   5.049   6.762   0.367 -3.1488 -2.0338  1.3398
12434TIP3    H258794   4.984   6.897   0.344 -1.5933 -1.1791  1.7849
12435TIP3   OH258795   4.016   1.472   2.953  0.0531 -0.6526  0.3835
12435TIP3    H158796   4.039   1.465   2.861  2.6536  0.6848  0.8406
12435TIP3    H258797   3.920   1.477   2.954 -0.0239 -0.5594 -2.2246
12436TIP3   OH258798   1.301   6.103  13.134 -1.0270 -0.3214 -0.4977
12436TIP3    H158799   1.384   6.075  13.096  0.2394  0.0312  1.8008
12436TIP3    H258800   1.259   6.155  13.065  1.6772  1.3356 -1.0164
12437TIP3   OH258801   3.531   1.534   0.835 -0.1472  0.3596  0.4674
12437TIP3    H158802   3.601   1.536   0.770 -2.8526  0.2081 -2.7935
12437TIP3    H258803   3.522   1.441   0.858 -0.2469  0.1654 -0.3174
12438TIP3   OH258804   5.779   4.809   1.795  0.4865 -0.1220  0.1598
12438TIP3    H158805   5.844   4.847   1.854  0.5541 -2.1660  1.4799
12438TIP3    H258806   5.828   4.744   1.745 -0.2611 -0.7321  0.2149
12439TIP3   OH258807   3.491   4.171  15.171  0.4277  0.4639 -0.2661
12439TIP3    H158808   3.568   4.201  15.218 -0.2060  0.2155  0.9803
12439TIP3    H258809   3.518   4.089  15.130  0.4214 -0.4515  1.4674
12440TIP3   OH258810   2.081   1.209  17.043 -0.3921 -0.1314  0.4449
12440TIP3    H158811   2.008   1.253  16.999  0.0027 -0.7526 -0.8722
12440TIP3    H258812   2.055   1.117  17.046  1.4240 -0.8725 -2.5274
12441TIP3   OH258813   4.402   5.507  15.160  0.0672  0.4167 -0.0045
12441TIP3    H158814   4.311   5.512  15.132 -0.3047 -1.0994  0.8294
12441TIP3    H258815   4.434   5.425  15.123  0.7723  0.4080  0.6077
12442TIP3   OH258816   0.300   2.121   5.543 -0.2753 -0.0050  0.0220
12442TIP3    H158817   0.234   2.112   5.611 -1.4638  0.8533 -0.9610
12442TIP3    H258818   0.297   2.038   5.495 -0.4859 -0.0517  0.1159
12443TIP3   OH258819   1.067   3.441   1.822  0.8170 -0.4403 -0.1844
12443TIP3    H158820   1.006   3.370   1.842  1.0934 -1.5315 -2.7522
12443TIP3    H258821   1.153   3.403   1.837  0.9285  0.1173  0.6023
12444TIP3   OH258822   4.398   0.789   2.002 -0.4523 -0.3381 -0.6204
12444TIP3    H158823   4.491   0.769   2.012  0.0151  1.0864 -1.7970
12444TIP3    H258824   4.373   0.748   1.919 -0.0615  1.8379 -1.8706
12445TIP3   OH258825   3.124   4.127  17.090  0.3673 -0.0003  0.6594
12445TIP3    H158826   3.032   4.127  17.116 -0.1926  0.3257 -1.1883
12445TIP3    H258827   3.132   4.054  17.029  1.7958 -1.1950  2.1980
12446TIP3   OH258828   2.536   4.406  16.588 -0.1720  0.1113  0.1887
12446TIP3    H158829   2.518   4.403  16.682  1.9379 -1.2722  0.6254
12446TIP3    H258830   2.481   4.336  16.551 -0.0189 -0.2395  0.6108
12447TIP3   OH258831   4.399   4.122  15.153  0.5126  0.0064  0.0455
12447TIP3    H158832   4.335   4.077  15.208 -1.7864 -0.1767 -2.5780
12447TIP3    H258833   4.413   4.206  15.197 -0.0751 -0.6771  1.6312
12448TIP3   OH258834   1.978   3.532  14.637  0.1481  0.0336  0.2101
12448TIP3    H158835   2.012   3.590  14.569  0.1958  0.3566  0.5107
12448TIP3    H258836   1.932   3.590  14.698  2.3976  0.1338  1.9197
12449TIP3   OH258837   3.123   0.327  12.361 -0.4192  0.2085 -0.9360
12449TIP3    H158838   3.098   0.320  12.268  0.3251  1.6088 -1.2683
12449TIP3    H258839   3.216   0.347  12.359  0.4560 -3.1149  0.2396
12450TIP3   OH258840   1.242   0.042  11.316  0.6090 -0.0660 -0.8660
12450TIP3    H158841   1.235   0.137  11.320  1.5779  0.0254 -1.0086
12450TIP3    H258842   1.336   0.025  11.311  0.5898 -1.1042  1.1444
12451TIP3   OH258843   2.616   5.239  11.000 -0.4369  0.1346 -0.2389
12451TIP3    H158844   2.549   5.220  10.935 -0.1050  0.2148 -0.6124
12451TIP3    H258845   2.618   5.335  11.005  1.1575  0.2364 -1.8637
12452TIP3   OH258846   2.587   3.839   2.893 -0.2320  0.4795  0.1766
12452TIP3    H158847   2.580   3.929   2.925 -0.2095  0.4772  0.1880
12452TIP3    H258848   2.518   3.832   2.827  0.8106  0.9949 -0.9923
12453TIP3   OH258849   1.496   3.163   0.231 -0.4744  0.0559 -0.0119
12453TIP3    H158850   1.551   3.182   0.155 -1.3161  1.3792 -0.3146
12453TIP3    H258851   1.544   3.202   0.305  0.7565 -1.9426  0.3214
12454TIP3   OH258852   1.350   3.487   4.448 -0.1795  0.1462 -0.5832
12454TIP3    H158853   1.262   3.458   4.472 -0.4353  0.7044 -0.8336
12454TIP3    H258854   1.341   3.523   4.360  0.2472  0.4583 -0.5037
12455TIP3   OH258855   3.301   5.381  16.529 -0.3496 -0.0084  0.0019
12455TIP3    H158856   3.269   5.454  16.581 -1.0764  1.2537 -2.1097
12455TIP3    H258857   3.231   5.316  16.533  0.9114 -1.3945  3.1418
12456TIP3   OH258858   3.839   0.868   0.345 -0.0828  0.0561 -0.2131
12456TIP3    H158859   3.862   0.892   0.255  0.6145  2.1876  0.4692
12456TIP3    H258860   3.913   0.898   0.398  0.3620 -2.8012  0.9335
12457TIP3   OH258861   4.362   1.459   0.465 -0.2563  0.5530  0.2571
12457TIP3    H158862   4.444   1.421   0.495  0.7459  0.0021 -2.8038
12457TIP3    H258863   4.374   1.554   0.474  1.0273  0.5129 -0.7203
12458TIP3   OH258864   4.248   3.863   4.020 -0.0473 -0.4585  0.6208
12458TIP3    H158865   4.196   3.783   4.029 -1.4452  0.6153  2.9720
12458TIP3    H258866   4.183   3.933   4.015  1.0945  0.5599 -2.7266
12459TIP3   OH258867   0.819   4.239  11.430  0.7720 -0.2414  0.3941
12459TIP3    H158868   0.753   4.269  11.492  0.2836 -0.5554  0.0369
12459TIP3    H258869   0.888   4.201  11.485  0.5753 -0.0707  0.7620
12460TIP3   OH258870   5.483   0.568  12.682 -0.5740  0.1676  0.3164
12460TIP3    H158871   5.396   0.537  12.658  0.3953 -1.5515 -1.2666
12460TIP3    H258872   5.498   0.644  12.626  0.0048 -1.2952 -1.6699
12461TIP3   OH258873   0.847   2.425  13.297 -0.0127  0.7602  0.1915
12461TIP3    H158874   0.928   2.375  13.303 -0.9208 -0.6671  1.3996
12461TIP3    H258875   0.778   2.360  13.312 -1.2894  2.2468  1.1195
12462TIP3   OH258876   4.053   2.450  11.033  0.1370 -0.6352  0.2802
12462TIP3    H158877   3.994   2.449  11.108 -0.5144  0.0833 -0.1906
12462TIP3    H258878   3.995   2.435  10.958  0.3015  1.4321 -0.3209
12463TIP3   OH258879   4.118   5.132  16.219  0.0901 -0.5654 -0.0123
12463TIP3    H158880   4.092   5.088  16.138 -1.8226 -0.5186  0.5216
12463TIP3    H258881   4.111   5.225  16.199  0.6598 -0.5352 -0.0916
12464TIP3   OH258882   4.453   2.704   6.603 -0.3414 -0.2399 -0.5781
12464TIP3    H158883   4.490   2.789   6.627 -1.2197 -0.0882  0.3217
12464TIP3    H258884   4.391   2.724   6.533 -0.8532 -0.0627 -0.0848
12465TIP3   OH258885   2.539   6.741   5.546 -0.4468  0.0576 -0.1136
12465TIP3    H158886   2.477   6.742   5.473 -2.0507 -0.2328  1.1622
12465TIP3    H258887   2.510   6.667   5.600  1.7870 -0.8353 -0.0512
12466TIP3   OH258888   4.987   5.630  13.832 -0.2890 -0.7654 -0.4654
12466TIP3    H158889   5.012   5.664  13.746  1.5081  1.3063  0.7829
12466TIP3    H258890   4.946   5.705  13.876 -1.9224 -2.0119  0.2581
12467TIP3   OH258891   0.722   0.684  15.997 -0.3670  0.5306  0.6583
12467TIP3    H158892   0.722   0.711  15.906 -0.0953 -0.5180  0.3398
12467TIP3    H258893   0.630   0.664  16.016 -0.0449 -2.4656 -0.4016
12468TIP3   OH258894   2.422   6.008   0.244 -0.1311  0.2984 -0.7921
12468TIP3    H158895   2.351   5.998   0.182 -0.2940  1.2845 -0.7902
12468TIP3    H258896   2.501   6.010   0.190 -0.2306  0.6197 -0.9323
12469TIP3   OH258897   6.829   1.392  13.663  1.0514 -0.2256 -0.5003
12469TIP3    H158898   6.863   1.480  13.680  1.5773 -0.3721 -0.7837
12469TIP3    H258899   6.779   1.370  13.742  0.9989  0.2845 -0.3884
12470TIP3   OH258900   5.676   2.785   3.476  0.0003  0.1348 -1.0393
12470TIP3    H158901   5.648   2.867   3.435 -0.7593  1.7392  2.3493
12470TIP3    H258902   5.766   2.772   3.445  0.2340  2.4020 -1.4714
12471TIP3   OH258903   4.434   0.857  15.217 -0.4846  0.3766  0.2510
12471TIP3    H158904   4.354   0.905  15.238 -0.5468  0.6141 -0.4883
12471TIP3    H258905   4.505   0.919  15.236 -0.4201 -0.0519  1.5217
12472TIP3   OH258906   0.628   5.751  13.632 -0.3830 -0.4592 -0.2224
12472TIP3    H158907   0.621   5.847  13.631 -1.9228 -0.5450 -0.9321
12472TIP3    H258908   0.703   5.731  13.577 -0.3797  0.3328 -0.5154
12473TIP3   OH258909   5.894   1.908  12.474 -0.3650  0.1856  0.1926
12473TIP3    H158910   5.827   1.972  12.453 -0.1427 -0.0449 -1.2827
12473TIP3    H258911   5.954   1.954  12.533 -0.9646  0.8713  0.2735
12474TIP3   OH258912   2.188   5.927  14.072 -0.0643 -0.7023  0.7378
12474TIP3    H158913   2.230   6.009  14.097 -0.2275 -0.3633 -0.0584
12474TIP3    H258914   2.231   5.903  13.989  0.5378 -1.8397  1.3619
12475TIP3   OH258915   1.140   2.460  10.835 -0.1171 -0.2709 -0.2284
12475TIP3    H158916   1.068   2.402  10.858  2.3679 -2.3558  3.1980
12475TIP3    H258917   1.199   2.407  10.782 -1.0603  1.5435 -3.3945
12476TIP3   OH258918   6.068   4.872   2.253 -0.1197  0.4488  0.3779
12476TIP3    H158919   6.072   4.826   2.169 -0.8983 -0.3299  0.7548
12476TIP3    H258920   6.001   4.826   2.303  1.9720 -0.6939  2.3734
12477TIP3   OH258921   0.210   2.851   1.690  0.4468  0.1582 -0.2471
12477TIP3    H158922   0.199   2.946   1.688 -2.0409 -0.0426  0.8465
12477TIP3    H258923   0.163   2.820   1.612  0.4195 -0.2318 -0.0759
12478TIP3   OH258924   1.672   0.635   0.734  0.1300 -0.3352 -1.4005
12478TIP3    H158925   1.740   0.628   0.802 -0.1675  0.1272 -1.0469
12478TIP3    H258926   1.627   0.550   0.737  0.2912 -0.4159 -1.2066
12479TIP3   OH258927   3.393   3.542  15.888  0.3038 -0.3926  0.0039
12479TIP3    H158928   3.319   3.492  15.854  0.7004 -0.9288 -0.0850
12479TIP3    H258929   3.370   3.559  15.979  0.8555 -2.1658  0.5342
12480TIP3   OH258930   3.493   0.083  15.499 -0.0104 -0.4242  0.4183
12480TIP3    H158931   3.448   0.054  15.419  2.2452 -2.4567 -0.2378
12480TIP3    H258932   3.455   0.030  15.569 -1.1210  0.4823  0.5377
12481TIP3   OH258933   5.142   3.923   2.356  0.2522  0.2303 -0.1155
12481TIP3    H158934   5.069   3.983   2.343  0.0241  0.3727  1.5550
12481TIP3    H258935   5.172   3.901   2.268 -1.2488  0.8430 -0.8070
12482TIP3   OH258936   4.393   4.416   0.347  0.0187 -0.6519  0.1921
12482TIP3    H158937   4.423   4.409   0.256 -0.2683  1.3765 -0.1231
12482TIP3    H258938   4.468   4.453   0.394 -0.6102  0.6700  0.2204
12483TIP3   OH258939   5.066   4.659   1.242  0.1144 -0.0786 -0.4689
12483TIP3    H158940   5.077   4.741   1.194 -2.2696  1.0898  0.7885
12483TIP3    H258941   5.029   4.685   1.327 -2.6014 -2.4809 -0.7348
12484TIP3   OH258942   2.168   3.406   2.920  0.2787 -0.7686  0.0537
12484TIP3    H158943   2.171   3.499   2.941 -0.2388 -0.9015  0.7596
12484TIP3    H258944   2.210   3.399   2.834  0.5396  0.0785  0.1075
12485TIP3   OH258945   3.430   1.863   0.585 -0.6710 -0.1081  0.1280
12485TIP3    H158946   3.497   1.867   0.654 -1.3107  0.8895  0.7147
12485TIP3    H258947   3.355   1.820   0.627 -0.3761 -1.3499 -0.5659
12486TIP3   OH258948   4.333   6.088  10.218  0.1922 -0.1207  0.5512
12486TIP3    H158949   4.271   6.158  10.196  1.0853  0.5974  0.2410
12486TIP3    H258950   4.417   6.133  10.227  0.4661 -0.8911  2.1669
12487TIP3   OH258951   6.381   0.331   2.282 -0.0071 -0.4261 -0.1495
12487TIP3    H158952   6.465   0.293   2.260  0.2843 -0.2331  0.6140
12487TIP3    H258953   6.390   0.424   2.260  0.4616 -0.1247  1.1954
12488TIP3   OH258954   6.374   2.379  11.715  0.1767  0.3340 -0.1204
12488TIP3    H158955   6.294   2.432  11.708  1.5834  2.6513  0.2846
12488TIP3    H258956   6.348   2.304  11.768 -1.3044  2.0313  1.7153
12489TIP3   OH258957   5.732   0.851  16.620 -0.2377 -0.3013 -0.1427
12489TIP3    H158958   5.820   0.854  16.657 -0.6521 -0.2835  0.8614
12489TIP3    H258959   5.725   0.764  16.581  0.3246 -0.1938 -0.4827
12490TIP3   OH258960   4.339   5.499  13.606 -0.0637 -0.0999 -0.8933
12490TIP3    H158961   4.375   5.427  13.554  0.1314 -1.3443  0.8841
12490TIP3    H258962   4.346   5.470  13.696 -1.4251  1.5269 -0.1986
12491TIP3   OH258963   2.323   4.405  15.099  0.0836  0.0500  0.4055
12491TIP3    H158964   2.237   4.379  15.066  0.3014  1.1008 -1.0724
12491TIP3    H258965   2.309   4.493  15.135  0.5295  0.2280  0.1470
12492TIP3   OH258966   3.604   1.965  14.008 -0.0140  0.7434  0.2544
12492TIP3    H158967   3.596   1.951  13.914 -2.0302  1.5032  0.2546
12492TIP3    H258968   3.681   2.022  14.017  0.5197  0.2284 -0.8639
12493TIP3   OH258969   5.826   5.612  13.863 -0.0751  0.4045  0.5945
12493TIP3    H158970   5.756   5.676  13.852 -2.2098 -1.9907 -1.0114
12493TIP3    H258971   5.795   5.534  13.816  1.4078 -2.5313  4.0141
12494TIP3   OH258972   0.303   0.131  15.049 -0.0625  0.3735 -0.7641
12494TIP3    H158973   0.318   0.214  15.094  1.8965  0.3156 -1.1979
12494TIP3    H258974   0.269   0.072  15.117  1.3401  0.7278  0.3088
12495TIP3   OH258975   5.422   4.441   2.690  0.2008  0.1887  0.0919
12495TIP3    H158976   5.406   4.398   2.606 -2.6637 -0.1894  0.7069
12495TIP3    H258977   5.353   4.508   2.695  1.7303  1.7457  1.1657
12496TIP3   OH258978   6.292   4.711   4.674 -0.7200  0.3930 -0.2151
12496TIP3    H158979   6.362   4.744   4.731 -0.2963 -1.3001  0.3199
12496TIP3    H258980   6.337   4.654   4.612 -1.6712 -1.4376  0.6891
12497TIP3   OH258981   4.805   2.365  14.934  0.4162 -0.1047 -0.9260
12497TIP3    H158982   4.863   2.380  14.859  1.7153  1.2499  0.2782
12497TIP3    H258983   4.800   2.270  14.942  1.2634 -0.2616 -1.9680
12498TIP3   OH258984   1.070   0.552   4.868 -0.5488  0.3680 -0.0204
12498TIP3    H158985   1.033   0.475   4.824 -1.4479  0.5351  0.4334
12498TIP3    H258986   1.068   0.531   4.961 -1.6794  1.2928  0.1910
12499TIP3   OH258987   2.069   5.114   3.811  0.1837 -0.2575 -0.1434
12499TIP3    H158988   2.162   5.107   3.788  0.1966 -1.7462  0.2592
12499TIP3    H258989   2.064   5.190   3.870  1.3616 -0.9061  0.8260
12500TIP3   OH258990   2.876   4.451  13.388  0.0373  0.4043  0.4324
12500TIP3    H158991   2.960   4.489  13.415  0.4113 -0.6869  0.8742
12500TIP3    H258992   2.901   4.370  13.344 -0.8544 -0.8170  2.0968
12501TIP3   OH258993   3.732   3.890   5.435 -0.2934 -0.1418  0.5038
12501TIP3    H158994   3.810   3.920   5.482  0.3213 -1.4056  0.3530
12501TIP3    H258995   3.693   3.969   5.399  2.0540  0.3784 -1.1015
12502TIP3   OH258996   2.551   6.209   0.625  0.1095  0.4605  0.5635
12502TIP3    H158997   2.504   6.127   0.635  0.6588  0.1533  0.6826
12502TIP3    H258998   2.503   6.257   0.558 -0.4112  0.1886  0.7430
12503TIP3   OH258999   4.826   6.280  16.820  0.1877 -0.3584 -0.2812
12503TIP3    H159000   4.906   6.232  16.840 -0.0084 -0.1149  1.1469
12503TIP3    H259001   4.856   6.362  16.781  0.6208 -0.4386 -0.1234
12504TIP3   OH259002   1.884   2.712   0.646 -0.1735 -0.1057  0.1342
12504TIP3    H159003   1.947   2.672   0.706 -0.0140  1.7383  1.2882
12504TIP3    H259004   1.815   2.646   0.636 -0.1321 -0.5592  2.2832
12505TIP3   OH259005   0.132   6.016   0.238  0.4023 -0.0730 -0.4052
12505TIP3    H159006   0.100   5.947   0.297 -0.9000  0.6315 -0.2501
12505TIP3    H259007   0.210   5.978   0.197  1.2922 -0.6326  1.6669
12506TIP3   OH259008   0.144   4.945  16.704  0.3795  0.5048 -0.2749
12506TIP3    H159009   0.067   4.888  16.699  0.5355  0.1955  0.7417
12506TIP3    H259010   0.198   4.918  16.629 -0.1839  0.2698 -0.6092
12507TIP3   OH259011   5.425   5.569  12.693  0.0499  0.3691  0.5838
12507TIP3    H159012   5.480   5.503  12.736 -0.8033 -0.6653  0.1255
12507TIP3    H259013   5.483   5.609  12.628  0.9339  0.9593  1.6915
12508TIP3   OH259014   2.972   4.517  17.161  0.5695  0.3988  0.3844
12508TIP3    H159015   2.929   4.460  17.098  0.3924  0.1725  0.7046
12508TIP3    H259016   3.034   4.569  17.109  0.0086  0.6353 -0.0570
12509TIP3   OH259017   5.533   5.391   3.630 -0.3325  0.1119 -0.2723
12509TIP3    H159018   5.507   5.446   3.704 -1.2674  1.1612 -1.3609
12509TIP3    H259019   5.544   5.304   3.669  2.9490  1.2609  1.8841
12510TIP3   OH259020   3.443   6.606  14.299 -0.6294 -0.0293 -0.1006
12510TIP3    H159021   3.375   6.545  14.273 -0.2445 -0.4912 -0.0386
12510TIP3    H259022   3.461   6.585  14.391 -0.1142 -0.1832 -0.2364
12511TIP3   OH259023   5.057   6.677   4.482 -0.0386  0.3844  0.4715
12511TIP3    H159024   5.047   6.632   4.398 -0.3565 -0.0063  0.7145
12511TIP3    H259025   5.135   6.731   4.471  0.3037 -0.1622  0.1449
12512TIP3   OH259026   1.395   5.863   1.398 -1.0481 -0.2430  0.9407
12512TIP3    H159027   1.344   5.802   1.451 -1.7124  0.1385  0.7582
12512TIP3    H259028   1.341   5.942   1.395 -0.4025  0.1971  0.8055
12513TIP3   OH259029   5.602   4.565   0.150  0.2272  0.0181  0.6442
12513TIP3    H159030   5.596   4.473   0.124  3.0613 -0.0914  0.1390
12513TIP3    H259031   5.616   4.562   0.244 -1.6413  0.0863  0.9737
12514TIP3   OH259032   3.898   0.160  13.986 -0.0279  0.1386  0.2669
12514TIP3    H159033   3.857   0.100  13.924 -0.1291  1.0488 -0.5638
12514TIP3    H259034   3.986   0.175  13.951  0.2608 -0.0928  0.8702
12515TIP3   OH259035   6.005   6.454  11.505  0.3661 -0.2807  0.2419
12515TIP3    H159036   6.045   6.535  11.537  0.2168  0.0032 -0.2704
12515TIP3    H259037   5.935   6.484  11.447  0.0509 -0.7781  0.3627
12516TIP3   OH259038   1.467   3.774   2.392  1.1139  0.0398 -0.4203
12516TIP3    H159039   1.472   3.844   2.326  0.8330 -1.9942 -2.7767
12516TIP3    H259040   1.375   3.749   2.393  0.9609  0.5899  1.4400
12517TIP3   OH259041   0.839   4.429   5.749 -0.0282 -0.7009  0.2216
12517TIP3    H159042   0.852   4.335   5.732  0.9527 -0.9741  2.1652
12517TIP3    H259043   0.884   4.444   5.832  1.2246  1.8630 -0.8217
12518TIP3   OH259044   2.976   0.912  14.562  0.1952  0.3218  0.6151
12518TIP3    H159045   2.972   0.865  14.479 -1.1640  1.5338 -0.0505
12518TIP3    H259046   3.065   0.896  14.595  0.7080 -0.2973 -0.9897
12519TIP3   OH259047   6.619   2.744   0.790 -0.2702  0.1312  0.8215
12519TIP3    H159048   6.685   2.680   0.763 -2.1313 -1.2992 -0.5587
12519TIP3    H259049   6.632   2.819   0.731 -0.2024 -0.3653  0.1973
12520TIP3   OH259050   2.545   4.795   0.542 -0.1833  0.5107 -0.3552
12520TIP3    H159051   2.543   4.777   0.448 -0.8831 -1.5679 -0.0065
12520TIP3    H259052   2.453   4.814   0.564  0.1365  2.0089 -0.2403
12521TIP3   OH259053   1.333   0.346  15.178 -0.3558  0.2271  0.5381
12521TIP3    H159054   1.263   0.349  15.244 -1.8794  0.9835 -1.0556
12521TIP3    H259055   1.315   0.420  15.120  1.2431 -0.1208 -0.4635
12522TIP3   OH259056   6.260   4.989   2.396  0.1654 -0.6912 -0.2060
12522TIP3    H159057   6.324   5.014   2.329  1.5179  1.3830  1.7009
12522TIP3    H259058   6.185   4.957   2.347  1.8550 -1.2105 -2.6161
12523TIP3   OH259059   4.161   3.497  11.672  0.3411 -0.5294  0.5539
12523TIP3    H159060   4.069   3.502  11.698  0.6501 -1.6101  1.9628
12523TIP3    H259061   4.159   3.463  11.583 -0.6042 -1.3434  0.8750
12524TIP3   OH259062   6.563   2.448  13.932  0.4824 -0.1953  1.0241
12524TIP3    H159063   6.515   2.524  13.900 -0.6055 -0.6195  1.5768
12524TIP3    H259064   6.594   2.404  13.853 -2.1911 -1.2413  0.4236
12525TIP3   OH259065   1.064   4.495   3.895 -0.0410  0.3186  0.0576
12525TIP3    H159066   1.154   4.469   3.913 -0.0162  0.3999  0.0488
12525TIP3    H259067   1.013   4.456   3.967 -0.0245  0.1116 -0.0407
12526TIP3   OH259068   0.406   2.353   0.659 -0.4020  0.0560  0.1779
12526TIP3    H159069   0.340   2.319   0.598  1.0274 -1.2160 -0.7599
12526TIP3    H259070   0.431   2.277   0.711 -0.8729  0.9162  1.6977
12527TIP3   OH259071   6.142   4.744   1.210  0.4558  0.0938  0.3414
12527TIP3    H159072   6.087   4.733   1.287  0.8438  1.7333  0.9062
12527TIP3    H259073   6.148   4.839   1.198  0.1462 -0.1038 -1.9130
12528TIP3   OH259074   3.068   0.235   2.785  0.3900 -0.1434  0.3075
12528TIP3    H159075   3.105   0.151   2.756  2.1506  0.4971  0.5674
12528TIP3    H259076   3.081   0.236   2.879  0.9651  0.6500  0.2391
12529TIP3   OH259077   5.839   5.839   0.768  0.4654  0.3611 -0.5429
12529TIP3    H159078   5.769   5.774   0.761  0.5503  0.3675 -1.6717
12529TIP3    H259079   5.799   5.913   0.813 -0.1061  0.1611 -0.7102
12530TIP3   OH259080   2.641   1.186   2.960  0.2812 -0.0097 -0.1970
12530TIP3    H159081   2.642   1.152   2.870  0.0288  1.1621 -0.6556
12530TIP3    H259082   2.728   1.167   2.994 -0.4980 -3.1820  0.3949
12531TIP3   OH259083   5.531   5.820   5.099  0.5953 -0.0663 -0.2045
12531TIP3    H159084   5.446   5.863   5.104  0.0125 -0.9057 -2.0317
12531TIP3    H259085   5.567   5.829   5.187 -1.9776 -0.8829  1.0431
12532TIP3   OH259086   0.692   1.514  10.418 -0.0762 -0.1160 -0.4137
12532TIP3    H159087   0.667   1.427  10.389  1.0362 -1.0746  1.2934
12532TIP3    H259088   0.788   1.515  10.412  0.0471  0.3763  1.1083
12533TIP3   OH259089   4.436   1.700  16.307 -0.0081 -0.5636 -0.1117
12533TIP3    H159090   4.449   1.709  16.213 -0.9704 -0.2115 -0.2223
12533TIP3    H259091   4.500   1.759  16.346  0.0330 -0.3038 -0.5637
12534TIP3   OH259092   5.256   1.824   4.388 -0.1155  0.4158  0.3493
12534TIP3    H159093   5.232   1.815   4.296 -1.4757  0.1843  0.7074
12534TIP3    H259094   5.320   1.754   4.403 -0.4893 -0.0548 -0.2206
12535TIP3   OH259095   1.817   4.195  16.713  0.2352  0.3714  0.1816
12535TIP3    H159096   1.794   4.113  16.757  0.5371  0.2781  0.1699
12535TIP3    H259097   1.823   4.259  16.784  0.3649  0.3006  0.2348
12536TIP3   OH259098   3.984   5.036   3.513 -0.6872  0.0205 -0.4599
12536TIP3    H159099   3.991   5.019   3.607  1.7518  0.4938 -0.4869
12536TIP3    H259100   3.905   5.088   3.504 -1.1774 -0.3486  1.2749
12537TIP3   OH259101   6.625   6.781   1.285  0.0645 -0.3731 -0.1424
12537TIP3    H159102   6.534   6.794   1.312  0.0980 -0.9384  0.2769
12537TIP3    H259103   6.643   6.852   1.224 -0.2345  0.5674  0.8205
12538TIP3   OH259104   5.487   6.424  16.375 -0.2579 -0.0820  0.3811
12538TIP3    H159105   5.550   6.401  16.444 -2.7677 -1.1231  2.5202
12538TIP3    H259106   5.471   6.342  16.328  0.9265  0.4770 -1.0678
12539TIP3   OH259107   2.476   1.562  12.185  0.7760  0.1437  0.3508
12539TIP3    H159108   2.449   1.646  12.147  1.1603 -0.3359 -1.0642
12539TIP3    H259109   2.549   1.584  12.242  1.3893  0.6973 -0.6146
12540TIP3   OH259110   4.324   2.008  10.453 -0.2744 -0.2436  0.2405
12540TIP3    H159111   4.257   2.035  10.517 -0.2226  0.1101  0.1470
12540TIP3    H259112   4.350   1.920  10.481  0.4212  0.2667  1.2602
12541TIP3   OH259113   0.865   4.318  17.007  0.3677 -0.1765  0.0933
12541TIP3    H159114   0.824   4.383  17.064  1.7783  1.0204 -0.2049
12541TIP3    H259115   0.859   4.355  16.919 -0.3907 -1.2848 -0.3443
12542TIP3   OH259116   6.568   6.100  11.168 -0.2983 -0.4886  0.3188
12542TIP3    H159117   6.593   6.010  11.187  0.5862 -0.3811 -0.2801
12542TIP3    H259118   6.644   6.153  11.192  0.1367 -0.1624 -1.6281
12543TIP3   OH259119   6.528   1.911   1.431  0.0048 -0.7572  0.2671
12543TIP3    H159120   6.580   1.950   1.361 -0.2541  0.8065  0.9139
12543TIP3    H259121   6.592   1.882   1.496  0.1572 -0.4553  0.2535
12544TIP3   OH259122   5.236   5.363  16.006  0.0315  0.2252 -0.0371
12544TIP3    H159123   5.150   5.405  16.007  0.0891  0.3383  0.5125
12544TIP3    H259124   5.257   5.354  15.914 -1.6708 -2.0715 -0.2768
12545TIP3   OH259125   2.382   4.254  13.868  0.1748 -0.2568 -0.3338
12545TIP3    H159126   2.345   4.204  13.795  1.4318 -2.7901  0.6350
12545TIP3    H259127   2.335   4.337  13.867 -1.7982 -1.3049 -2.2766
12546TIP3   OH259128   0.354   4.042  11.838 -0.6063 -0.3698  0.3018
12546TIP3    H159129   0.386   3.965  11.790  1.1017  0.4162  0.1029
12546TIP3    H259130   0.316   4.097  11.770 -0.8982 -0.5861  0.2900
12547TIP3   OH259131   6.431   1.058   3.364 -0.6051 -0.4073  0.3049
12547TIP3    H159132   6.513   1.075   3.317 -0.0174 -1.0465  1.0535
12547TIP3    H259133   6.367   1.041   3.295 -0.4135  1.3205 -0.3336
12548TIP3   OH259134   0.933   0.251  12.416  0.0540  0.8009 -0.0823
12548TIP3    H159135   0.839   0.256  12.430  0.2109 -0.0067  1.4010
12548TIP3    H259136   0.968   0.327  12.463  0.5424 -1.6933  4.0601
12549TIP3   OH259137   0.961   3.877  14.589 -0.3655 -0.5291 -0.6059
12549TIP3    H159138   0.880   3.830  14.570 -1.1181  0.9001 -1.0757
12549TIP3    H259139   0.939   3.969  14.575  1.2726 -0.0910 -0.4723
12550TIP3   OH259140   4.601   0.568   3.141 -0.2189  0.2166  0.1416
12550TIP3    H159141   4.593   0.544   3.049 -0.9852 -2.8440  0.8600
12550TIP3    H259142   4.695   0.569   3.158 -0.0673  1.0950 -0.7266
12551TIP3   OH259143   2.616   2.463   5.318 -0.4811  0.0295 -0.2822
12551TIP3    H159144   2.610   2.555   5.344  1.6916  0.3692 -0.7855
12551TIP3    H259145   2.615   2.414   5.401  1.0051  0.7236  0.1747
12552TIP3   OH259146   0.219   5.967  15.160  0.3754 -0.1685 -0.3403
12552TIP3    H159147   0.288   6.027  15.188 -0.4146  0.2889  0.6755
12552TIP3    H259148   0.143   5.991  15.213 -0.6454 -0.5014 -1.6029
12553TIP3   OH259149   1.499   2.315   4.383  0.1159 -0.2632  0.3469
12553TIP3    H159150   1.529   2.274   4.302  0.0074  0.0513  0.1455
12553TIP3    H259151   1.508   2.409   4.367  0.3385 -0.2094  0.7955
12554TIP3   OH259152   1.390   0.220  14.722 -0.2390  0.1893  0.1215
12554TIP3    H159153   1.336   0.245  14.647  1.9827 -0.1395 -1.6815
12554TIP3    H259154   1.452   0.292  14.732  2.4015 -1.7300 -1.3411
12555TIP3   OH259155   4.498   3.181   6.103  0.0887 -0.5642  0.0349
12555TIP3    H159156   4.441   3.258   6.103 -0.4190 -0.9314 -0.6190
12555TIP3    H259157   4.569   3.204   6.164 -1.8015 -0.8940  2.5543
12556TIP3   OH259158   3.298   1.241  14.401  0.0446 -0.0179 -0.0489
12556TIP3    H159159   3.337   1.234  14.488 -1.5402 -0.7085  0.6408
12556TIP3    H259160   3.279   1.335  14.391 -1.5964 -0.1812  1.2210
12557TIP3   OH259161   6.776   1.905   1.668 -0.2274 -0.5123 -0.2127
12557TIP3    H159162   6.711   1.912   1.737  0.6456  0.0365  0.5891
12557TIP3    H259163   6.748   1.830   1.615 -1.6346 -0.1147 -0.0571
12558TIP3   OH259164   1.716   2.869   4.686  0.4012 -0.4843 -0.2645
12558TIP3    H159165   1.694   2.956   4.718 -0.3228  0.0601 -2.1094
12558TIP3    H259166   1.717   2.878   4.591  1.7160 -2.1775 -0.4586
12559TIP3   OH259167   3.377   6.734   3.559 -0.3302  0.3602 -0.1653
12559TIP3    H159168   3.330   6.817   3.553 -0.7471  0.0467 -1.8867
12559TIP3    H259169   3.469   6.758   3.565 -0.5709  0.9567  2.0642
12560TIP3   OH259170   5.870   0.988  15.236 -0.6967  0.4242 -0.4050
12560TIP3    H159171   5.895   1.040  15.313 -1.2413  2.8969 -1.8116
12560TIP3    H259172   5.927   1.020  15.166  0.6882 -2.6541 -0.8746
12561TIP3   OH259173   5.054   3.483  12.996  0.1096  0.1208  0.5224
12561TIP3    H159174   4.989   3.425  12.955  0.8571  0.3718 -1.0956
12561TIP3    H259175   5.005   3.530  13.063 -0.6747 -1.8638  1.4092
12562TIP3   OH259176   6.195   1.199  16.435 -0.5410 -0.1173 -0.5748
12562TIP3    H159177   6.170   1.291  16.442 -1.3727 -0.3218 -0.7319
12562TIP3    H259178   6.269   1.199  16.374 -0.1217  0.5125 -0.0728
12563TIP3   OH259179   4.690   5.841  15.562 -0.2972 -0.1060 -0.5345
12563TIP3    H159180   4.646   5.758  15.542 -0.5410 -0.0788 -0.1226
12563TIP3    H259181   4.626   5.908  15.537 -0.6351 -0.0730  0.3808
12564TIP3   OH259182   0.993   5.150  15.010  0.0262  0.1487 -0.0544
12564TIP3    H159183   0.898   5.159  15.006 -0.3575 -2.3476  1.1441
12564TIP3    H259184   1.010   5.117  15.098  1.9131 -0.2487 -0.5198
12565TIP3   OH259185   5.982   3.150   5.153 -0.1800  0.0881  0.1940
12565TIP3    H159186   6.029   3.075   5.189  0.7977  0.6616  0.1434
12565TIP3    H259187   6.022   3.163   5.067 -1.1615 -0.0611 -0.3013
12566TIP3   OH259188   0.867   1.131   5.217  0.4932 -0.1548  0.4606
12566TIP3    H159189   0.781   1.148   5.256  1.0908  2.4253  0.8507
12566TIP3    H259190   0.862   1.169   5.129  0.8912 -0.9935  0.0641
12567TIP3   OH259191   3.517   2.852   1.895 -0.0061 -0.4618 -0.3170
12567TIP3    H159192   3.446   2.804   1.939 -0.2138 -0.1772 -0.3372
12567TIP3    H259193   3.472   2.908   1.831  0.0287  1.4828  1.2701
12568TIP3   OH259194   4.459   1.387  12.054  0.2833 -0.0625  0.2780
12568TIP3    H159195   4.496   1.312  12.009 -0.1956  0.3022 -0.7640
12568TIP3    H259196   4.508   1.462  12.019 -1.9267  0.5427 -1.8439
12569TIP3   OH259197   2.990   6.147  16.619 -0.2710 -0.7219 -0.2837
12569TIP3    H159198   3.069   6.179  16.663 -0.8334 -0.4045  0.5224
12569TIP3    H259199   2.979   6.206  16.544 -0.0432 -0.4397 -0.0971
12570TIP3   OH259200   1.157   5.847   4.659  0.1410  1.2061  0.1487
12570TIP3    H159201   1.111   5.774   4.702 -0.0169  2.0503  1.4702
12570TIP3    H259202   1.169   5.817   4.569 -1.3097  0.1800  0.2490
12571TIP3   OH259203   1.726   2.478  16.968  0.5861 -0.3152  0.0639
12571TIP3    H159204   1.790   2.468  16.898  1.7205  2.5715  0.5874
12571TIP3    H259205   1.664   2.543  16.935  0.8132  0.6585  1.4719
12572TIP3   OH259206   4.563   5.692  15.333  0.6101  0.0239 -0.4787
12572TIP3    H159207   4.573   5.765  15.271 -1.6454  1.2650  0.4805
12572TIP3    H259208   4.523   5.622  15.282 -1.0345  0.9645 -0.5510
12573TIP3   OH259209   5.225   4.228   0.097 -0.5344  0.0084 -0.3835
12573TIP3    H159210   5.217   4.235   0.002  2.6169  0.7205 -0.6986
12573TIP3    H259211   5.141   4.260   0.130 -1.1894  1.1847 -2.9013
12574TIP3   OH259212   5.567   5.758  14.706  0.1472 -0.6465  0.6269
12574TIP3    H159213   5.531   5.708  14.780  0.2240 -0.6757  0.6443
12574TIP3    H259214   5.653   5.720  14.691  0.1772 -0.5655  0.5941
12575TIP3   OH259215   1.476   2.774  13.210  0.0585 -0.2953 -0.6118
12575TIP3    H159216   1.521   2.771  13.126 -1.0676 -0.7619 -1.2239
12575TIP3    H259217   1.451   2.866  13.221  0.3676 -0.2022 -0.6954
12576TIP3   OH259218   0.720   3.340  11.280  0.5911 -0.2489  0.0159
12576TIP3    H159219   0.737   3.308  11.369  0.4564 -1.0385 -0.2357
12576TIP3    H259220   0.630   3.314  11.262  0.0396  1.3626  0.2532
12577TIP3   OH259221   1.739   5.552   2.599  0.1506  0.0312  0.1529
12577TIP3    H159222   1.680   5.476   2.606 -0.8573  0.9043  1.8476
12577TIP3    H259223   1.814   5.519   2.550  0.1991 -2.3868  1.6508
12578TIP3   OH259224   1.531   2.297   1.735 -0.6859  0.1606 -0.4988
12578TIP3    H159225   1.472   2.309   1.661 -2.3070 -0.7336  0.5744
12578TIP3    H259226   1.564   2.385   1.754  2.5848  0.0479 -4.3465
12579TIP3   OH259227   0.442   6.177  13.636 -0.1361  0.4662 -0.4381
12579TIP3    H159228   0.435   6.191  13.542  0.7480  0.9873 -0.4387
12579TIP3    H259229   0.528   6.139  13.648 -0.1636  0.5862  0.1775
12580TIP3   OH259230   3.120   4.781  11.541  0.1900  0.2697  0.2942
12580TIP3    H159231   3.076   4.842  11.601 -0.2955 -0.1743  0.4007
12580TIP3    H259232   3.208   4.773  11.577 -0.0704  0.0713  0.9090
12581TIP3   OH259233   0.837   5.771   4.973 -0.0372  0.0548  0.3384
12581TIP3    H159234   0.793   5.735   5.050  1.6313 -0.2963  1.1869
12581TIP3    H259235   0.862   5.860   4.999  1.1598 -0.3104  0.4929
12582TIP3   OH259236   3.712   5.365   3.132 -0.1870  0.6633 -0.0617
12582TIP3    H159237   3.648   5.435   3.146 -0.5596  0.0893  1.2338
12582TIP3    H259238   3.671   5.309   3.066 -1.2130  0.1057  1.0145
12583TIP3   OH259239   6.242   4.362   0.905 -0.5268  0.6625 -0.3708
12583TIP3    H159240   6.196   4.301   0.962 -0.1684  1.0824  0.3847
12583TIP3    H259241   6.317   4.391   0.956  0.5825 -0.0012 -1.5785
12584TIP3   OH259242   5.820   1.641  11.953 -0.8175  0.2304 -0.0686
12584TIP3    H159243   5.826   1.735  11.934  0.3472  0.4157  1.0753
12584TIP3    H259244   5.909   1.615  11.976 -1.3565 -0.8540  0.9300
12585TIP3   OH259245   6.729   2.376   1.992 -0.3461  0.1080 -0.4637
12585TIP3    H159246   6.759   2.292   1.957 -1.7847 -0.1370 -1.2111
12585TIP3    H259247   6.736   2.366   2.087  2.5820  0.3740 -0.5790
12586TIP3   OH259248   1.764   5.515   3.728  0.1164 -0.1049 -0.5953
12586TIP3    H159249   1.854   5.508   3.696 -0.3001 -0.8081 -1.6324
12586TIP3    H259250   1.769   5.488   3.820  0.9677 -0.0737 -0.6273
12587TIP3   OH259251   5.089   2.861  14.765 -0.2783  0.1489  0.8410
12587TIP3    H159252   5.067   2.915  14.841 -0.6794  0.0496  0.7984
12587TIP3    H259253   5.021   2.794  14.763 -0.8978  0.7792 -0.2339
12588TIP3   OH259254   3.366   1.982   0.344  0.9146 -0.2949  0.3330
12588TIP3    H159255   3.306   1.913   0.315 -1.9143  1.4737  1.4691
12588TIP3    H259256   3.404   1.948   0.425 -1.6440 -0.0954  1.7535
12589TIP3   OH259257   2.657   4.945   3.731 -0.1461  0.4077  0.0407
12589TIP3    H159258   2.617   5.016   3.680  0.2971  0.9101  0.3775
12589TIP3    H259259   2.655   4.869   3.673 -1.3442  0.4890 -0.0445
12590TIP3   OH259260   2.034   4.043  14.006 -0.1959  0.6065 -0.3456
12590TIP3    H159261   2.128   4.057  14.012 -0.4101  2.0838 -0.0278
12590TIP3    H259262   1.999   4.072  14.091 -1.0016  0.7958 -0.7253
12591TIP3   OH259263   2.328   2.507  13.119 -0.1328 -0.0163 -0.3528
12591TIP3    H159264   2.285   2.465  13.193  1.3649  0.1786  0.6570
12591TIP3    H259265   2.256   2.543  13.067 -1.1775  0.8691  1.6214
12592TIP3   OH259266   0.761   4.489   2.487 -0.2227 -0.1833 -1.3055
12592TIP3    H159267   0.736   4.526   2.572 -0.1467  2.3606 -2.3015
12592TIP3    H259268   0.827   4.423   2.508  1.3363  1.8124  0.5326
12593TIP3   OH259269   6.078   3.741  11.559 -0.1738  0.2455 -0.0406
12593TIP3    H159270   6.039   3.799  11.625  0.0315  0.6261 -0.2468
12593TIP3    H259271   6.165   3.779  11.544 -0.1528  0.0530 -0.3941
12594TIP3   OH259272   4.079   6.823   2.500  0.1919 -0.0158 -0.9486
12594TIP3    H159273   4.166   6.844   2.535  0.4397 -0.6539 -1.1715
12594TIP3    H259274   4.023   6.894   2.532  0.1378 -1.1553  1.7373
12595TIP3   OH259275   0.177   4.452   4.768 -0.0876 -0.3683 -0.6336
12595TIP3    H159276   0.227   4.526   4.734  1.0548 -2.1323 -3.0739
12595TIP3    H259277   0.138   4.485   4.849  2.2752  2.1408 -0.3639
12596TIP3   OH259278   2.250   0.494   0.970  0.0443  0.0673  0.2593
12596TIP3    H159279   2.207   0.494   1.056  0.2362  1.0543  0.3634
12596TIP3    H259280   2.329   0.547   0.983  0.6155 -0.6320 -0.2692
12597TIP3   OH259281   4.119   1.372   0.335 -0.0272  0.2825  0.1336
12597TIP3    H159282   4.202   1.410   0.364  0.2188  0.0580 -0.2709
12597TIP3    H259283   4.052   1.423   0.381  0.2496  1.8093 -1.0395
12598TIP3   OH259284   1.729   4.715   2.489 -0.2602 -0.0145  0.7999
12598TIP3    H159285   1.768   4.675   2.411  1.7717  0.3670  1.5642
12598TIP3    H259286   1.647   4.668   2.502 -0.5590 -0.2252 -1.4310
12599TIP3   OH259287   5.003   4.573   6.577 -0.0329  0.0705 -0.3575
12599TIP3    H159288   5.049   4.541   6.654  0.7503  0.8518 -0.4827
12599TIP3    H259289   5.072   4.611   6.522 -0.6769  0.1885 -1.0982
12600TIP3   OH259290   2.315   3.491   6.258 -0.0953  0.5480  0.8101
12600TIP3    H159291   2.404   3.458   6.244 -0.4873 -0.1905 -0.0069
12600TIP3    H259292   2.285   3.445   6.337 -0.6134 -1.0684 -0.2823
12601TIP3   OH259293   1.524   0.434   2.437  0.4220  0.1253 -0.3013
12601TIP3    H159294   1.458   0.415   2.504  1.0345  0.7518  0.4956
12601TIP3    H259295   1.601   0.461   2.486  0.7615  0.9776 -1.2649
12602TIP3   OH259296   2.160   1.529   5.751  0.0976  0.0699  0.1613
12602TIP3    H159297   2.077   1.500   5.714  1.7537 -4.6707 -0.4947
12602TIP3    H259298   2.180   1.466   5.819  1.7429  3.0049  2.6636
12603TIP3   OH259299   3.625   2.618   3.065  0.2955 -0.2912  0.0016
12603TIP3    H159300   3.562   2.548   3.046  0.2673 -0.3562  0.3152
12603TIP3    H259301   3.656   2.647   2.980 -0.2482 -0.1784 -0.1624
12604TIP3   OH259302   4.935   4.463  16.896  0.4690  0.2582  0.0684
12604TIP3    H159303   4.967   4.385  16.850  0.1653 -0.4315  1.0035
12604TIP3    H259304   4.910   4.523  16.826  0.4844 -0.5788 -0.6703
12605TIP3   OH259305   4.758   5.735   2.187 -0.2115 -0.1447 -1.3071
12605TIP3    H159306   4.739   5.828   2.176  0.8248  0.1751 -0.5610
12605TIP3    H259307   4.701   5.691   2.124  0.1081  1.0677 -2.4894
12606TIP3   OH259308   4.645   6.465  13.135  0.4705 -0.3982 -0.4623
12606TIP3    H159309   4.564   6.501  13.172  1.0180  0.6967 -0.2700
12606TIP3    H259310   4.621   6.378  13.104 -0.7609 -0.1155 -0.3537
12607TIP3   OH259311   3.055   6.765  10.295 -0.4987  0.4572 -0.3741
12607TIP3    H159312   3.002   6.699  10.250  1.4719 -1.7144  0.2239
12607TIP3    H259313   3.015   6.772  10.382 -1.7504  1.4233 -0.9940
12608TIP3   OH259314   2.716   2.784   0.575 -0.4056 -0.1053 -0.0186
12608TIP3    H159315   2.725   2.877   0.594 -1.4959 -0.1014  0.5253
12608TIP3    H259316   2.685   2.781   0.484 -0.6634  0.0769  0.0634
12609TIP3   OH259317   4.022   6.413  14.944 -0.6739 -0.0879  0.2360
12609TIP3    H159318   4.021   6.370  15.029 -2.8984 -0.4443  0.0880
12609TIP3    H259319   4.046   6.504  14.962  0.9561 -0.6217  0.9343
12610TIP3   OH259320   0.869   5.802  10.306 -0.1841 -0.3554  0.3398
12610TIP3    H159321   0.852   5.895  10.318  1.6777  0.1927 -0.8782
12610TIP3    H259322   0.944   5.798  10.248 -1.5322 -2.6641 -1.4362
12611TIP3   OH259323   3.878   3.501  14.990 -0.1438 -0.3583 -0.4198
12611TIP3    H159324   3.840   3.584  14.960  1.4717  0.5639 -0.0372
12611TIP3    H259325   3.817   3.470  15.057 -0.8241  0.4826 -0.6271
12612TIP3   OH259326   1.300   2.488  15.572 -0.1225 -0.3473 -0.3259
12612TIP3    H159327   1.327   2.505  15.662  1.9282 -0.3949 -0.8803
12612TIP3    H259328   1.280   2.574  15.536  1.2953 -0.0383 -0.4516
12613TIP3   OH259329   4.253   1.111  12.942  0.2177  0.4938  0.3857
12613TIP3    H159330   4.173   1.144  12.984  1.7406  1.1069  3.0914
12613TIP3    H259331   4.310   1.089  13.015  1.8875 -1.6548 -1.4384
12614TIP3   OH259332   5.031   3.330  16.303  0.3312  0.6102  0.0575
12614TIP3    H159333   5.014   3.415  16.262  1.0252 -0.3049 -2.3178
12614TIP3    H259334   4.946   3.286  16.304  0.4690  0.2498 -1.4717
12615TIP3   OH259335   5.951   0.186   2.747 -0.8087  0.0256 -0.5375
12615TIP3    H159336   5.954   0.165   2.841 -1.0942  0.9358 -0.3204
12615TIP3    H259337   5.955   0.100   2.704 -0.4607 -0.3914  0.2976
12616TIP3   OH259338   1.291   3.721   6.045 -0.0976  0.1788  0.0522
12616TIP3    H159339   1.270   3.812   6.025 -3.4586 -0.1894  1.2588
12616TIP3    H259340   1.322   3.724   6.136 -1.0560  0.0702  0.3955
12617TIP3   OH259341   3.577   6.374  15.783  0.1703  0.5948  0.0061
12617TIP3    H159342   3.613   6.338  15.865  0.2648 -0.7850 -0.6162
12617TIP3    H259343   3.594   6.468  15.789  0.2866  0.4991  1.5188
12618TIP3   OH259344   2.533   1.433  11.535  0.2662 -0.1159  0.1769
12618TIP3    H159345   2.482   1.508  11.504 -1.3936 -1.0603  0.5132
12618TIP3    H259346   2.494   1.358  11.491  3.6301 -0.6393 -2.3112
12619TIP3   OH259347   3.151   2.088   1.060 -0.2850  0.7346 -0.3665
12619TIP3    H159348   3.071   2.050   1.023 -0.5915  0.8661  0.1604
12619TIP3    H259349   3.127   2.178   1.080 -0.0669  0.7089  0.0022
12620TIP3   OH259350   3.277   4.992   4.865  0.3005 -0.0476  0.6325
12620TIP3    H159351   3.275   5.085   4.886 -0.0067 -0.1520  1.0798
12620TIP3    H259352   3.310   4.950   4.945  0.9701 -0.2749  0.2481
12621TIP3   OH259353   2.251   3.707   3.281 -0.4518 -0.6280 -0.0721
12621TIP3    H159354   2.296   3.626   3.258  1.3447  0.4002 -0.3484
12621TIP3    H259355   2.214   3.739   3.199  1.2203  0.2151 -0.5331
12622TIP3   OH259356   2.397   0.605  13.034 -0.5497  0.3137  0.3127
12622TIP3    H159357   2.482   0.643  13.057 -0.7930 -0.2543  2.2565
12622TIP3    H259358   2.371   0.653  12.955  2.3019 -0.6213 -1.3529
12623TIP3   OH259359   2.504   5.239   1.463  0.6759  0.3338 -0.6820
12623TIP3    H159360   2.490   5.293   1.386  0.0652 -0.9915 -1.5398
12623TIP3    H259361   2.583   5.188   1.443 -0.0734 -0.7783 -0.9189
12624TIP3   OH259362   5.403   1.588  13.829  0.8020  0.1141 -0.6558
12624TIP3    H159363   5.444   1.579  13.915  0.5992  0.4944 -0.5154
12624TIP3    H259364   5.381   1.498  13.803  0.8522 -0.0016 -0.3047
12625TIP3   OH259365   4.827   4.342  13.677  0.4933  0.2722 -0.1918
12625TIP3    H159366   4.843   4.392  13.757  1.0353  1.1968 -0.8545
12625TIP3    H259367   4.854   4.253  13.698 -0.2404  0.2994  0.9356
12626TIP3   OH259368   6.499   1.260   1.676  0.7450 -0.3899  0.1488
12626TIP3    H159369   6.593   1.272   1.692  0.5245  0.2432  1.0396
12626TIP3    H259370   6.492   1.249   1.582  1.8202 -1.3991  0.1582
12627TIP3   OH259371   4.948   6.595   0.579  0.4474 -0.7483  0.4531
12627TIP3    H159372   4.892   6.621   0.506  2.2380 -0.2589 -0.8138
12627TIP3    H259373   4.943   6.669   0.640 -0.5432 -0.8734  0.5366
12628TIP3   OH259374   0.359   6.019  14.346 -0.4904  0.0578 -0.1975
12628TIP3    H159375   0.339   6.004  14.438  0.3641 -1.3842 -0.2071
12628TIP3    H259376   0.296   6.085  14.318 -1.9901 -0.8049  0.9633
12629TIP3   OH259377   1.887   0.750   0.875  0.1977  0.1046 -0.2022
12629TIP3    H159378   1.961   0.710   0.830  0.0117  1.0427 -1.3792
12629TIP3    H259379   1.906   0.737   0.968  0.6995 -1.6736 -0.5112
12630TIP3   OH259380   5.184   1.992   1.868  0.6284  0.1163 -0.4240
12630TIP3    H159381   5.155   1.907   1.902 -0.1780  0.7096  0.4254
12630TIP3    H259382   5.236   1.970   1.791  1.1382 -1.2032  0.2499
12631TIP3   OH259383   5.386   0.656  15.309 -0.8131 -0.0789  0.2621
12631TIP3    H159384   5.371   0.582  15.250 -1.0546  0.5808 -0.5226
12631TIP3    H259385   5.373   0.734  15.254 -0.8387  0.5524  1.1364
12632TIP3   OH259386   0.884   6.095   4.040  0.0248 -0.0841  0.7406
12632TIP3    H159387   0.853   6.184   4.022  1.2949  0.0836 -0.8041
12632TIP3    H259388   0.887   6.090   4.136 -1.1414  1.1384  0.8696
12633TIP3   OH259389   3.009   0.134   6.647  0.1876  0.1871  0.9447
12633TIP3    H159390   3.070   0.100   6.581 -0.2346  0.9301  0.1552
12633TIP3    H259391   3.025   0.228   6.647 -1.2958  0.4586  0.3694
12634TIP3   OH259392   1.957   4.898  16.886  0.0319  0.3909  0.2207
12634TIP3    H159393   1.864   4.890  16.865  0.6161 -0.7425 -2.3084
12634TIP3    H259394   1.982   4.810  16.914  0.6706  0.2694 -0.7009
12635TIP3   OH259395   2.431   5.753  15.941 -0.1679  0.2107 -0.3516
12635TIP3    H159396   2.521   5.763  15.910 -0.0209  0.3581  0.1117
12635TIP3    H259397   2.381   5.728  15.863 -0.2282  2.7616 -1.2326
12636TIP3   OH259398   6.766   6.005   4.784  0.3352 -0.4116 -0.7870
12636TIP3    H159399   6.851   6.044   4.764  1.0940 -1.3121  0.5108
12636TIP3    H259400   6.755   5.935   4.719 -0.3345  0.9167 -2.1650
12637TIP3   OH259401   5.488   2.720   4.815 -0.1682  0.6141  0.3370
12637TIP3    H159402   5.434   2.798   4.803 -0.1862  0.3667 -1.6171
12637TIP3    H259403   5.576   2.753   4.830 -0.1390  1.0365 -0.6764
12638TIP3   OH259404   4.459   6.252  13.144 -0.0586  0.5286 -0.3290
12638TIP3    H159405   4.374   6.270  13.106 -0.9718 -0.7115  1.0246
12638TIP3    H259406   4.475   6.159  13.126 -0.1942  0.0832  1.5744
12639TIP3   OH259407   5.681   3.622   2.705  0.3269  0.3385  0.0064
12639TIP3    H159408   5.750   3.556   2.715  1.8976  1.9031  0.0341
12639TIP3    H259409   5.665   3.654   2.794 -0.3098  0.1318 -0.0263
12640TIP3   OH259410   4.998   3.295   3.834  0.3110 -0.6074 -0.4785
12640TIP3    H159411   5.037   3.343   3.761  2.5741 -0.8550  0.4835
12640TIP3    H259412   4.910   3.272   3.803  0.4063  1.1065 -2.2858
12641TIP3   OH259413   0.569   3.161   5.643 -0.3130  0.3420  0.5293
12641TIP3    H159414   0.483   3.149   5.684 -1.0894 -0.1658 -1.1279
12641TIP3    H259415   0.605   3.073   5.636 -0.5233  0.3162 -0.4771
12642TIP3   OH259416   6.293   2.896  14.592 -0.3506  0.3281 -0.5424
12642TIP3    H159417   6.257   2.829  14.534  1.1037 -1.1851  0.2235
12642TIP3    H259418   6.254   2.978  14.561 -1.8965 -0.8017 -1.7450
12643TIP3   OH259419   3.411   5.470  15.161 -0.6767  0.3506 -0.7330
12643TIP3    H159420   3.367   5.499  15.080 -1.4637 -0.2409 -0.5345
12643TIP3    H259421   3.440   5.381  15.142 -1.0373  0.1364 -0.3083
12644TIP3   OH259422   6.573   1.135  12.206 -0.0728 -0.5345 -0.3389
12644TIP3    H159423   6.668   1.128  12.209  0.2039  1.8459  3.4787
12644TIP3    H259424   6.554   1.184  12.126  2.1195  0.7857 -0.0952
12645TIP3   OH259425   6.634   0.860   0.197 -0.0168 -0.2258  0.4937
12645TIP3    H159426   6.570   0.814   0.143 -0.0810 -0.1983  0.5469
12645TIP3    H259427   6.582   0.915   0.255  0.0847  0.8363 -0.3838
12646TIP3   OH259428   3.736   5.109  12.518 -0.2930  0.2805  0.5063
12646TIP3    H159429   3.641   5.097  12.510 -0.0403 -0.8274 -1.6453
12646TIP3    H259430   3.751   5.123  12.611 -2.5720  0.5833  0.8878
12647TIP3   OH259431   5.583   2.300  12.550 -0.5342 -0.7599  0.1204
12647TIP3    H159432   5.582   2.281  12.644 -0.0989  0.0815  0.3004
12647TIP3    H259433   5.598   2.215  12.509 -0.4746 -1.0964  0.8240
12648TIP3   OH259434   1.610   3.557  12.792 -0.1803  0.2836 -0.3926
12648TIP3    H159435   1.558   3.628  12.754 -0.4172  0.2022 -0.2269
12648TIP3    H259436   1.555   3.479  12.780 -1.8455  0.7093  3.0841
12649TIP3   OH259437   0.308   2.196  14.644  0.5631  0.0084 -0.2717
12649TIP3    H159438   0.237   2.141  14.679  0.6457 -0.2287 -0.4757
12649TIP3    H259439   0.278   2.223  14.558  1.6677 -1.9726 -1.3556
12650TIP3   OH259440   4.121   1.729   0.819 -0.3297 -0.8162  0.8285
12650TIP3    H159441   4.079   1.804   0.777  0.0921  0.2318  2.2174
12650TIP3    H259442   4.213   1.754   0.828  0.0863 -2.0221  0.2051
12651TIP3   OH259443   2.107   6.172  14.850  0.0897 -0.0071  0.1021
12651TIP3    H159444   2.104   6.174  14.946  0.9051  3.7476  0.1784
12651TIP3    H259445   2.015   6.167  14.824 -0.2234  0.3896  1.0812
12652TIP3   OH259446   4.110   0.759   5.853  0.4638 -0.9985 -0.7876
12652TIP3    H159447   4.097   0.794   5.764  0.2780 -1.3127 -0.8838
12652TIP3    H259448   4.069   0.824   5.910  1.4464 -0.2941 -0.8554
12653TIP3   OH259449   5.313   2.605   0.755  0.6477 -0.1750  1.1137
12653TIP3    H159450   5.291   2.567   0.670  2.4167  1.8497 -0.3414
12653TIP3    H259451   5.245   2.672   0.769  0.4332 -0.4184  1.2590
12654TIP3   OH259452   3.156   0.352  14.614 -0.0462  0.5261  0.1741
12654TIP3    H159453   3.249   0.348  14.638 -0.4562 -0.9436  1.7170
12654TIP3    H259454   3.139   0.270  14.569 -0.9731 -0.0921  1.5640
12655TIP3   OH259455   4.906   1.814   2.904  0.3847 -0.0145  0.2564
12655TIP3    H159456   4.956   1.733   2.892  0.8516  0.3592 -0.3508
12655TIP3    H259457   4.972   1.880   2.927  0.0062  0.2006  0.7606
12656TIP3   OH259458   2.355   2.329   1.568  0.1881 -0.2137 -0.0147
12656TIP3    H159459   2.442   2.291   1.554  1.3734  2.7869 -1.6764
12656TIP3    H259460   2.295   2.255   1.560  2.3669 -1.9311 -1.8945
12657TIP3   OH259461   2.133   4.283   1.785 -0.0879 -0.0315 -0.0739
12657TIP3    H159462   2.052   4.328   1.809  0.9067  1.1778  1.2064
12657TIP3    H259463   2.157   4.233   1.863  1.3557  1.1120  0.2456
12658TIP3   OH259464   5.833   6.810   1.478 -0.3792  0.7903 -0.9487
12658TIP3    H159465   5.872   6.825   1.564  0.4133  0.1819 -1.1947
12658TIP3    H259466   5.742   6.838   1.488 -0.4020  0.3616  0.2125
12659TIP3   OH259467   4.414   0.342   3.645  0.3296 -0.2168 -0.6957
12659TIP3    H159468   4.324   0.325   3.618  0.4636 -0.7256 -0.8265
12659TIP3    H259469   4.456   0.256   3.645  0.4197 -0.1960  0.8320
12660TIP3   OH259470   1.765   1.175  12.638  0.0645  0.5424 -0.1534
12660TIP3    H159471   1.759   1.195  12.731 -1.1881  1.3505 -0.3893
12660TIP3    H259472   1.733   1.086  12.630  0.0310  0.5235  0.1709
12661TIP3   OH259473   4.525   6.777   1.868 -0.2058  0.4917 -0.0159
12661TIP3    H159474   4.615   6.754   1.892 -0.9727 -1.7033  1.0846
12661TIP3    H259475   4.532   6.808   1.778  1.5060 -0.9577 -0.4516
12662TIP3   OH259476   5.155   5.347   6.165  0.0287  0.4003  0.0257
12662TIP3    H159477   5.087   5.413   6.182  0.4911  0.7252  0.6663
12662TIP3    H259478   5.234   5.385   6.202  0.3847 -0.3478  0.0436
12663TIP3   OH259479   1.734   3.800  13.749 -0.2904  0.1159  0.0584
12663TIP3    H159480   1.761   3.788  13.658 -1.5072 -2.0503 -0.0876
12663TIP3    H259481   1.814   3.788  13.800  0.0066 -1.0019 -0.6216
12664TIP3   OH259482   3.358   2.779   2.871  0.3162 -0.2650  0.8263
12664TIP3    H159483   3.277   2.736   2.899  0.9088 -0.9357  1.5491
12664TIP3    H259484   3.334   2.824   2.790 -0.8547 -0.2072  1.1811
12665TIP3   OH259485   0.981   4.176  11.675  0.9871  0.5637 -0.2500
12665TIP3    H159486   1.068   4.137  11.676  0.4578 -0.6593  0.4570
12665TIP3    H259487   0.924   4.110  11.715 -0.2813  1.3059 -0.7551
12666TIP3   OH259488   4.902   0.438   2.454  0.2956 -0.4609 -0.2605
12666TIP3    H159489   4.888   0.488   2.373  1.9948 -0.8166 -0.8047
12666TIP3    H259490   4.817   0.440   2.498 -0.5265  0.1879 -1.8029
12667TIP3   OH259491   1.713   5.612   0.332  0.4210 -0.6221 -0.0930
12667TIP3    H159492   1.739   5.692   0.288  2.2112 -1.5091 -0.7599
12667TIP3    H259493   1.732   5.628   0.425  0.0490 -0.0365 -0.1109
12668TIP3   OH259494   5.643   4.332   1.526 -0.4085  0.3854 -0.6056
12668TIP3    H159495   5.549   4.323   1.545 -0.0654 -2.1263  0.2601
12668TIP3    H259496   5.661   4.263   1.463  0.9396  0.5595 -0.4307
12669TIP3   OH259497   2.635   1.836  15.231 -0.4906  0.2721 -0.1391
12669TIP3    H159498   2.660   1.885  15.309  1.5905  0.9254 -1.1459
12669TIP3    H259499   2.639   1.899  15.160 -0.6301 -0.6990 -1.0357
12670TIP3   OH259500   2.541   3.085  14.817 -0.1931 -0.0353 -0.4641
12670TIP3    H159501   2.505   3.096  14.905 -0.5497 -0.3855 -0.5616
12670TIP3    H259502   2.500   3.004  14.784  0.0494  0.0126 -0.8935
12671TIP3   OH259503   5.864   0.097   3.887 -0.1579  0.3461  0.1397
12671TIP3    H159504   5.829   0.011   3.912 -2.5753  1.4734  0.9367
12671TIP3    H259505   5.907   0.129   3.966  2.5775 -0.9027 -0.7458
12672TIP3   OH259506   2.894   6.736   5.452 -0.3549  0.0083 -0.6675
12672TIP3    H159507   2.854   6.694   5.377  0.4199 -2.6442  0.3086
12672TIP3    H259508   2.835   6.717   5.525  0.6141 -0.4662  0.0213
12673TIP3   OH259509   6.478   1.101  14.767  0.4582 -0.2190  0.7279
12673TIP3    H159510   6.538   1.085  14.840  0.4453 -0.9162  0.5934
12673TIP3    H259511   6.395   1.062  14.795  0.2831  0.0456  0.5858
12674TIP3   OH259512   1.132   4.962  15.539  0.3791 -0.1751  0.3957
12674TIP3    H159513   1.044   4.925  15.540  0.4577 -0.3990 -0.2972
12674TIP3    H259514   1.188   4.891  15.508  0.4293  0.6979 -1.7052
12675TIP3   OH259515   3.574   4.088  11.296 -0.8995  0.0235  0.0458
12675TIP3    H159516   3.557   4.152  11.227  0.6490 -1.0481 -1.4012
12675TIP3    H259517   3.655   4.118  11.337 -2.1050  0.9803  1.8819
12676TIP3   OH259518   4.403   6.643  14.241 -0.8354 -0.2055  0.1323
12676TIP3    H159519   4.326   6.673  14.194 -0.3926  0.0261 -0.4543
12676TIP3    H259520   4.445   6.723  14.273 -0.1911 -0.2412 -0.5877
12677TIP3   OH259521   4.946   0.486   4.066 -0.0680 -0.4371  0.1423
12677TIP3    H159522   4.928   0.563   4.120  1.0197 -1.0553  1.4499
12677TIP3    H259523   4.998   0.521   3.993 -2.3042  0.5529 -1.0979
12678TIP3   OH259524   6.167   1.965  12.310  0.1221  0.7978  0.1759
12678TIP3    H159525   6.099   1.930  12.368  0.4681  1.8630  1.2690
12678TIP3    H259526   6.125   2.039  12.266  0.2446  0.7810  0.0291
12679TIP3   OH259527   2.187   2.502   1.425  0.0233 -0.3631  0.3006
12679TIP3    H159528   2.243   2.426   1.443  2.1543  0.6770 -1.4771
12679TIP3    H259529   2.228   2.574   1.474 -0.4767  0.1816 -0.0709
12680TIP3   OH259530   3.596   2.381  16.913  0.2844 -0.1746  0.1651
12680TIP3    H159531   3.684   2.417  16.907 -0.2210  0.8117 -3.0963
12680TIP3    H259532   3.566   2.406  17.000  0.8856  5.3000 -0.8648
12681TIP3   OH259533   1.448   0.950   4.862 -0.1918  0.7238  0.3170
12681TIP3    H159534   1.531   0.992   4.886  0.9033 -0.5684 -1.0604
12681TIP3    H259535   1.450   0.865   4.906 -0.2377  0.2222 -0.6114
12682TIP3   OH259536   6.817   1.979   3.008  0.5630  0.2324 -0.1105
12682TIP3    H159537   6.910   2.001   3.003  1.1734 -1.7423  1.3329
12682TIP3    H259538   6.805   1.944   3.096 -1.5056  0.1290 -0.3723
12683TIP3   OH259539   2.211   5.039  12.700 -0.0674 -0.0912  0.1344
12683TIP3    H159540   2.174   4.995  12.623 -2.1240  0.4937  0.7127
12683TIP3    H259541   2.174   5.127  12.697 -1.0439 -0.3659  2.3234
12684TIP3   OH259542   0.474   6.632  15.876  0.0624 -0.6602  0.0159
12684TIP3    H159543   0.555   6.646  15.827  0.1420 -1.7982 -0.2141
12684TIP3    H259544   0.503   6.590  15.957 -0.2749 -0.9628 -0.0158
12685TIP3   OH259545   2.785   3.420  13.314 -0.3313  0.2591  0.3176
12685TIP3    H159546   2.758   3.506  13.283 -1.4294  0.0429  0.6027
12685TIP3    H259547   2.704   3.369  13.316  0.3970 -0.9844 -0.4707
12686TIP3   OH259548   6.152   0.867  16.104  0.4044 -0.8295  0.3756
12686TIP3    H159549   6.122   0.873  16.013  0.1139 -1.4657  0.4173
12686TIP3    H259550   6.206   0.945  16.117 -0.6131 -0.0535  0.0575
12687TIP3   OH259551   1.389   3.346  11.924 -0.2025  0.2324  0.1241
12687TIP3    H159552   1.385   3.431  11.882 -1.6325  0.1836  0.1095
12687TIP3    H259553   1.479   3.316  11.909  0.4772  1.9268  0.5459
12688TIP3   OH259554   2.694   5.073  16.597 -0.5967  0.2763  0.1973
12688TIP3    H159555   2.618   5.124  16.570 -0.7292 -0.0856 -0.1082
12688TIP3    H259556   2.690   4.993  16.546 -0.5575 -0.1844  0.8932
12689TIP3   OH259557   2.248   1.189  12.080  0.5288 -0.0312 -0.0335
12689TIP3    H159558   2.309   1.196  12.153  1.4338 -1.9646 -0.5211
12689TIP3    H259559   2.305   1.181  12.003 -0.3311 -1.1036 -0.5839
12690TIP3   OH259560   0.655   5.436  16.640  0.0864  0.2532 -0.3561
12690TIP3    H159561   0.612   5.366  16.689 -0.7153  0.6024 -0.5409
12690TIP3    H259562   0.640   5.414  16.548  0.8582  0.0444 -0.4381
12691TIP3   OH259563   1.074   6.792   2.262  0.0061  0.7638  0.5125
12691TIP3    H159564   1.050   6.769   2.352  1.6606  1.9196  1.2964
12691TIP3    H259565   1.143   6.858   2.271 -0.1426  1.2942 -1.6171
12692TIP3   OH259566   6.006   6.041   1.811 -0.1711  0.2898 -0.0228
12692TIP3    H159567   5.933   6.101   1.829  0.4526  0.5818  1.7750
12692TIP3    H259568   5.964   5.957   1.793 -0.9733  0.3956  1.1975
12693TIP3   OH259569   5.918   5.575  16.421 -0.4160  0.4470 -0.1803
12693TIP3    H159570   5.909   5.569  16.516 -2.5719 -1.2343 -0.4045
12693TIP3    H259571   5.853   5.513  16.387  0.4108  0.8735 -2.7587
12694TIP3   OH259572   3.742   6.251  14.872 -0.1188  0.2895  0.0464
12694TIP3    H159573   3.757   6.249  14.777  2.3191 -5.1943  0.1694
12694TIP3    H259574   3.653   6.217  14.883 -0.0224 -0.0977 -0.3255
12695TIP3   OH259575   4.784   4.419   5.519 -0.2450 -0.3464 -0.6678
12695TIP3    H159576   4.741   4.462   5.445 -1.3738 -1.2676 -0.5592
12695TIP3    H259577   4.799   4.489   5.582 -0.0637  0.2852 -1.3941
12696TIP3   OH259578   4.718   5.973   4.194 -0.3073 -0.2699 -0.2134
12696TIP3    H159579   4.643   5.957   4.137 -0.6671  1.4881 -0.3067
12696TIP3    H259580   4.680   5.980   4.282 -0.2960  0.7379 -0.2752
12697TIP3   OH259581   0.948   6.466   3.821  0.7228 -0.0287 -0.2624
12697TIP3    H159582   0.959   6.524   3.746  0.2521 -0.2601 -0.5136
12697TIP3    H259583   0.861   6.486   3.855  0.6015 -0.5046 -0.2830
12698TIP3   OH259584   1.726   1.267  16.840  0.6829  0.5781  0.0217
12698TIP3    H159585   1.742   1.175  16.862 -0.8288 -0.0514 -1.2974
12698TIP3    H259586   1.631   1.275  16.842  0.8119  2.5899  1.7737
12699TIP3   OH259587   0.241   6.127  12.218 -0.4889  0.8265  0.0511
12699TIP3    H159588   0.268   6.210  12.259  0.6714  0.3227  0.3263
12699TIP3    H259589   0.145   6.127  12.226 -0.3699  1.1632  1.9747
12700TIP3   OH259590   4.579   3.206  16.199 -0.1661 -0.3391 -0.1620
12700TIP3    H159591   4.506   3.186  16.258  0.7736 -0.8944  0.8645
12700TIP3    H259592   4.582   3.131  16.139  1.2024 -1.7174  1.5103
12701TIP3   OH259593   2.785   3.938  16.645  0.2675  0.1902  0.0494
12701TIP3    H159594   2.753   4.012  16.594 -0.3335 -1.1105 -1.5307
12701TIP3    H259595   2.714   3.874  16.642  1.4026 -1.1065  0.0088
12702TIP3   OH259596   4.065   0.029   0.577 -0.1084 -0.2785  0.5250
12702TIP3    H159597   4.116   0.077   0.642  0.1290 -1.7082  1.4514
12702TIP3    H259598   4.130  -0.009   0.518 -0.2688  0.1778  0.0459
12703TIP3   OH259599   3.459   4.736  13.618  0.0043  0.4371  0.8583
12703TIP3    H159600   3.507   4.806  13.664 -0.8305  1.1271  0.6917
12703TIP3    H259601   3.470   4.659  13.675  0.8647  0.7136  1.0835
12704TIP3   OH259602   4.510   4.987   1.684  0.9422 -0.3868  0.0064
12704TIP3    H159603   4.577   4.941   1.635  0.4222 -0.0162 -1.0857
12704TIP3    H259604   4.508   4.944   1.769  2.1070 -0.8111 -0.1747
12705TIP3   OH259605   4.736   2.601   4.866  0.5103 -0.6969  0.1332
12705TIP3    H159606   4.770   2.663   4.801 -0.0205  0.8601  1.2668
12705TIP3    H259607   4.814   2.571   4.914  0.8552 -1.5313 -0.9166
12706TIP3   OH259608   1.394   4.316  13.486  0.2799  0.4630 -0.2146
12706TIP3    H159609   1.316   4.366  13.466  1.3915  3.2585  1.6854
12706TIP3    H259610   1.459   4.345  13.422  0.7688  1.0067  0.5167
12707TIP3   OH259611   2.524   5.510   2.238  0.6331  0.1038  0.2366
12707TIP3    H159612   2.579   5.467   2.303  0.2702 -1.4208 -0.4185
12707TIP3    H259613   2.511   5.598   2.272  4.2567  0.8850 -0.0456
12708TIP3   OH259614   0.230   6.637  15.469  0.1490 -0.0531 -0.0741
12708TIP3    H159615   0.172   6.561  15.478  0.3640 -0.1405  0.6439
12708TIP3    H259616   0.249   6.663  15.559  2.5269 -1.0064 -0.2289
12709TIP3   OH259617   6.776   5.362  11.681 -0.0808  0.8171 -0.8694
12709TIP3    H159618   6.710   5.401  11.738 -0.1904  2.1693 -1.8746
12709TIP3    H259619   6.834   5.314  11.741 -2.7315 -1.7070 -0.0676
12710TIP3   OH259620   0.080   5.172   2.140  0.1741  0.6934 -0.2401
12710TIP3    H159621   0.002   5.160   2.087  0.2429  1.1241 -0.4439
12710TIP3    H259622   0.060   5.128   2.222 -0.4319  1.1251 -0.1474
12711TIP3   OH259623   0.637   1.604   3.412  0.0244 -0.1671 -0.2574
12711TIP3    H159624   0.730   1.590   3.428 -0.0532 -1.4407 -0.8310
12711TIP3    H259625   0.621   1.694   3.441  1.0836 -0.4599  1.3799
12712TIP3   OH259626   2.848   1.840  15.786 -0.3257  0.4531  0.6048
12712TIP3    H159627   2.867   1.773  15.721 -0.8189 -0.1988  1.1205
12712TIP3    H259628   2.905   1.820  15.860 -1.0741  0.0777  1.0976
12713TIP3   OH259629   5.907   4.962   1.984 -0.2960  0.4583 -0.0358
12713TIP3    H159630   5.974   4.989   2.047  0.2687 -0.0600 -0.4041
12713TIP3    H259631   5.824   4.987   2.025  0.1009  0.8352  0.5599
12714TIP3   OH259632   5.442   1.520  16.881  0.4204 -0.3953  0.3278
12714TIP3    H159633   5.426   1.508  16.975 -0.3198  0.7904  0.3599
12714TIP3    H259634   5.531   1.555  16.877  0.2600  0.0517  0.6237
12715TIP3   OH259635   4.340   0.184  13.030  0.5645  0.6835  0.1372
12715TIP3    H159636   4.247   0.185  13.052  0.2261 -0.3279 -1.1004
12715TIP3    H259637   4.363   0.091  13.029  1.3875  0.8838 -0.3224
12716TIP3   OH259638   5.592   0.457  16.716  0.5010  0.2768  0.2542
12716TIP3    H159639   5.683   0.484  16.702  0.3836  0.4336 -0.2510
12716TIP3    H259640   5.584   0.376  16.665  0.4840  0.0031  0.6845
12717TIP3   OH259641   2.295   3.734   0.483  0.1063 -0.1602  0.7176
12717TIP3    H159642   2.233   3.697   0.546 -0.2779 -2.0122 -0.6569
12717TIP3    H259643   2.377   3.740   0.531 -0.0563 -1.9982  1.3153
12718TIP3   OH259644   4.746   5.931   3.095 -0.0595  0.1562  0.1977
12718TIP3    H159645   4.668   5.909   3.146 -0.0039  0.5299  0.4430
12718TIP3    H259646   4.753   5.860   3.031 -0.6345  0.1511  0.1364
12719TIP3   OH259647   5.247   3.612   5.028 -0.9992  0.6853 -0.2005
12719TIP3    H159648   5.242   3.624   4.933  0.0772  0.9095 -0.2358
12719TIP3    H259649   5.213   3.524   5.043  0.4035 -0.0235 -0.9845
12720TIP3   OH259650   1.588   1.767  15.543  0.0103  0.0294 -0.1408
12720TIP3    H159651   1.553   1.692  15.496  0.0479  0.8467 -1.5243
12720TIP3    H259652   1.552   1.843  15.498  1.5215  0.8666 -0.0186
12721TIP3   OH259653   0.942   3.102   5.066 -0.6263 -0.4021 -0.0112
12721TIP3    H159654   0.928   3.159   5.141 -1.0834 -0.8186  0.2240
12721TIP3    H259655   0.918   3.015   5.097 -2.3016 -0.3636 -1.0644
12722TIP3   OH259656   2.912   3.630  11.259 -0.3600 -0.0366 -0.1109
12722TIP3    H159657   2.859   3.666  11.330 -0.4930 -0.0514 -0.2019
12722TIP3    H259658   2.885   3.538  11.253 -0.5148  0.0234 -0.3324
12723TIP3   OH259659   2.237   0.262  13.128  0.0521  0.0196  0.0372
12723TIP3    H159660   2.165   0.316  13.094  0.7479  0.4482 -0.7957
12723TIP3    H259661   2.246   0.288  13.220  2.0751  3.3327 -0.9226
12724TIP3   OH259662   5.863   3.432  13.135 -0.0995 -0.6110 -0.3358
12724TIP3    H159663   5.890   3.360  13.191  1.3567  0.6381  0.6607
12724TIP3    H259664   5.910   3.418  13.053 -2.5366 -2.6594 -1.5123
12725TIP3   OH259665   0.404   2.126   3.436  0.1503 -0.5953  0.6880
12725TIP3    H159666   0.498   2.136   3.450  0.2009  2.1724 -0.9004
12725TIP3    H259667   0.394   2.131   3.341 -1.4711 -3.1142  0.6239
12726TIP3   OH259668   5.427   4.208  11.933  0.1067 -0.0428  0.8338
12726TIP3    H159669   5.510   4.161  11.933 -0.4343 -1.0898 -1.1334
12726TIP3    H259670   5.451   4.298  11.910  0.5894 -0.7330 -1.7541
12727TIP3   OH259671   6.726   1.604  10.808  0.3057  0.9907  0.4434
12727TIP3    H159672   6.739   1.685  10.856  0.3993  0.8114  0.7228
12727TIP3    H259673   6.815   1.574  10.788  0.3390 -0.0236  1.9945
12728TIP3   OH259674   0.384   3.999   2.734  0.6231 -0.4469  0.3027
12728TIP3    H159675   0.417   3.929   2.791 -3.2469 -1.8330  1.1607
12728TIP3    H259676   0.395   3.965   2.645 -0.3719 -1.7887  0.6711
12729TIP3   OH259677   3.863   1.520  12.163 -0.3386 -0.0129 -0.2043
12729TIP3    H159678   3.876   1.461  12.089  0.7647 -2.1159  1.5737
12729TIP3    H259679   3.781   1.491  12.202  0.3325 -0.5592  0.8254
12730TIP3   OH259680   5.847   4.971  12.356  0.4266  0.3616  0.1356
12730TIP3    H159681   5.880   5.059  12.375 -0.2617  0.7284 -0.3028
12730TIP3    H259682   5.804   4.980  12.271  0.9824 -0.5766 -0.2660
12731TIP3   OH259683   5.656   0.525  11.666 -0.2971 -0.3748 -0.1819
12731TIP3    H159684   5.672   0.494  11.755  1.5037  0.2602 -0.2512
12731TIP3    H259685   5.620   0.613  11.677 -2.2719 -1.1480 -0.0661
12732TIP3   OH259686   4.243   2.804   3.113 -0.6229  0.0190  0.2047
12732TIP3    H159687   4.302   2.762   3.050  0.8774  2.2424  0.0053
12732TIP3    H259688   4.182   2.853   3.058 -2.5654 -2.0144  0.4232
12733TIP3   OH259689   1.243   2.612   2.866  0.3248  0.0931 -0.2446
12733TIP3    H159690   1.338   2.610   2.870  0.3614  1.6573  0.4643
12733TIP3    H259691   1.221   2.705   2.868 -1.2257 -0.2494 -0.0243
12734TIP3   OH259692   3.982   3.928   5.541 -0.4614 -0.6984  0.4772
12734TIP3    H159693   4.046   3.994   5.569 -0.3653 -0.4266 -0.3656
12734TIP3    H259694   3.961   3.880   5.621 -0.3144  0.1679  1.0498
12735TIP3   OH259695   2.005   5.858  16.329  0.1101 -0.6496  0.2287
12735TIP3    H159696   1.932   5.912  16.298  1.1478  0.4622 -0.3740
12735TIP3    H259697   2.073   5.921  16.353  1.5383 -1.6871 -0.9304
12736TIP3   OH259698   1.651   1.670   5.182  0.0441  0.0724  0.1438
12736TIP3    H159699   1.637   1.575   5.173 -0.0546  0.1988 -1.2648
12736TIP3    H259700   1.573   1.709   5.142 -0.4652  0.7711  1.7399
12737TIP3   OH259701   3.094   0.161   3.051 -1.0147 -0.3944 -0.3037
12737TIP3    H159702   3.017   0.105   3.046 -1.2025 -0.5908  2.7286
12737TIP3    H259703   3.138   0.134   3.132  1.6681  0.4617 -1.3539
12738TIP3   OH259704   4.837   3.717   1.277  0.3801  0.7173 -0.1962
12738TIP3    H159705   4.763   3.731   1.218  0.0251  0.0777  0.0895
12738TIP3    H259706   4.894   3.656   1.229 -0.4602 -0.7120  0.5680
12739TIP3   OH259707   3.064   4.640  10.426  0.0903 -0.5407 -0.3068
12739TIP3    H159708   3.125   4.574  10.458 -1.0765 -1.4797  0.0486
12739TIP3    H259709   2.992   4.640  10.490  0.1804  1.2669 -0.1448
12740TIP3   OH259710   4.070   4.759   2.135  0.1555  0.2193  0.0896
12740TIP3    H159711   4.086   4.743   2.042 -3.0793 -0.9938 -0.4047
12740TIP3    H259712   4.043   4.851   2.138 -4.1278 -0.7336 -1.1480
12741TIP3   OH259713   1.118   1.739  11.794 -0.2349  0.6030  0.7163
12741TIP3    H159714   1.202   1.762  11.755 -0.2420 -0.1864  0.2010
12741TIP3    H259715   1.102   1.649  11.764 -1.6423  1.0188  0.1289
12742TIP3   OH259716   5.624   6.456  16.071  0.4185 -0.0097 -0.2596
12742TIP3    H159717   5.584   6.435  15.986  1.6926  0.0182 -0.8925
12742TIP3    H259718   5.626   6.551  16.074  1.0727 -0.0110 -0.5490
12743TIP3   OH259719   0.680   1.482   6.144 -0.3849  0.2819  0.1485
12743TIP3    H159720   0.624   1.407   6.124 -0.5459  0.4589 -0.0694
12743TIP3    H259721   0.620   1.555   6.155 -0.3186  0.1557  1.4966
12744TIP3   OH259722   2.304   4.898  14.743  0.3982  0.3416  0.0395
12744TIP3    H159723   2.371   4.966  14.736  0.4276  0.1840 -1.5044
12744TIP3    H259724   2.299   4.860  14.656 -1.1701 -0.1837  0.3317
12745TIP3   OH259725   2.550   2.330  12.402 -0.1059 -0.0192  0.2161
12745TIP3    H159726   2.619   2.271  12.433  0.8054  1.3553  0.9471
12745TIP3    H259727   2.598   2.403  12.363 -0.9715  2.1893  2.9579
12746TIP3   OH259728   5.080   1.739  16.497  0.3106  0.2752 -0.1944
12746TIP3    H159729   5.034   1.731  16.413 -0.6566  0.3583  0.3134
12746TIP3    H259730   5.112   1.651  16.515 -2.1230 -0.4931  0.7976
12747TIP3   OH259731   3.493   6.433  16.992  0.3240 -0.5331 -0.0388
12747TIP3    H159732   3.575   6.444  16.945  1.1104 -1.5010  1.0426
12747TIP3    H259733   3.485   6.513  17.045  1.7866 -1.3949  1.5868
12748TIP3   OH259734   0.485   2.649   3.188 -1.0386 -0.5187 -0.0419
12748TIP3    H159735   0.519   2.561   3.169  1.2688  0.5734 -1.3969
12748TIP3    H259736   0.506   2.663   3.281 -0.1381 -0.8862 -0.1783
12749TIP3   OH259737   1.471   0.971   2.212  0.3960  0.0233 -0.2510
12749TIP3    H159738   1.535   0.938   2.149  0.0811 -1.4971  0.1773
12749TIP3    H259739   1.467   0.903   2.280 -1.1396  0.4221  0.0944
12750TIP3   OH259740   5.407   2.857  15.959  0.2139  0.0031  0.0031
12750TIP3    H159741   5.321   2.888  15.986 -0.9057 -1.6426 -1.4966
12750TIP3    H259742   5.466   2.887  16.028 -1.5563  1.1263  1.0865
12751TIP3   OH259743   0.089   2.643   2.914  0.6682  0.3202 -0.3581
12751TIP3    H159744   0.013   2.609   2.868  0.6850 -1.1570  0.6491
12751TIP3    H259745   0.054   2.675   2.998  0.8695  1.5654 -0.7211
12752TIP3   OH259746   3.135   0.264  11.093 -0.5372  0.0271 -0.0219
12752TIP3    H159747   3.182   0.328  11.039 -2.3052  0.5040 -1.0891
12752TIP3    H259748   3.170   0.277  11.181  2.8777 -1.1620 -1.0265
12753TIP3   OH259749   1.801   0.920   3.905  0.0272  0.1233 -0.2173
12753TIP3    H159750   1.775   0.848   3.847 -0.1088  0.5767 -0.7303
12753TIP3    H259751   1.732   0.985   3.893 -0.2052  0.0668  0.7548
12754TIP3   OH259752   1.013   5.188  13.933 -0.9202  0.0988  0.2975
12754TIP3    H159753   1.107   5.207  13.940 -0.8654 -0.5233  1.4668
12754TIP3    H259754   0.991   5.143  14.015 -1.7252 -1.9339 -0.9434
12755TIP3   OH259755   5.981   1.717   3.437  0.2741 -0.3765 -0.1749
12755TIP3    H159756   5.928   1.659   3.384 -1.3609 -0.3097  1.3156
12755TIP3    H259757   6.060   1.667   3.456 -0.4826 -1.5701 -0.0899
12756TIP3   OH259758   4.602   2.836   2.633  0.3077 -0.2054 -0.4520
12756TIP3    H159759   4.581   2.912   2.579  1.1440 -1.4390 -2.6606
12756TIP3    H259760   4.517   2.797   2.652 -0.0617  0.7294 -0.1068
12757TIP3   OH259761   0.829   2.590  12.057 -0.0218  0.3557  0.1771
12757TIP3    H159762   0.869   2.552  11.979  0.2120 -1.4828  1.1174
12757TIP3    H259763   0.903   2.606  12.116 -0.1987  1.6691  0.0595
12758TIP3   OH259764   3.359   6.817  13.015 -0.4355  0.1622 -0.2462
12758TIP3    H159765   3.319   6.815  13.102 -1.9473 -0.5024 -0.9171
12758TIP3    H259766   3.350   6.727  12.982  2.2833 -0.2051 -0.1943
12759TIP3   OH259767   2.657   4.580   1.355  0.5375 -0.2219 -0.0628
12759TIP3    H159768   2.624   4.595   1.266  0.9703  1.5072  0.0379
12759TIP3    H259769   2.605   4.506   1.387 -0.8909  0.2890 -1.0962
12760TIP3   OH259770   0.334   4.811   3.982  0.0520 -0.0748  0.2899
12760TIP3    H159771   0.417   4.772   3.953 -0.8611 -2.0570  0.1534
12760TIP3    H259772   0.339   4.808   4.077 -0.2931 -1.2530  0.2866
12761TIP3   OH259773   2.439   2.660   3.387  0.3524  0.2405  0.0132
12761TIP3    H159774   2.378   2.641   3.459 -1.2010 -1.7704 -1.6718
12761TIP3    H259775   2.506   2.592   3.393  0.6924  0.5776  0.0567
12762TIP3   OH259776   0.255   1.900  11.359  0.3845  1.1070 -0.2078
12762TIP3    H159777   0.246   1.896  11.263 -0.7778  0.2756 -0.0786
12762TIP3    H259778   0.343   1.936  11.372  0.7993  0.7083 -1.5953
12763TIP3   OH259779   3.432   2.377   0.417  0.0442 -0.5955  0.1227
12763TIP3    H159780   3.478   2.301   0.382  0.0328 -1.3033  1.5697
12763TIP3    H259781   3.368   2.399   0.349  0.9125 -1.0652 -0.8764
12764TIP3   OH259782   0.884   4.338   5.162 -0.2058  0.2878  0.1408
12764TIP3    H159783   0.808   4.371   5.113 -2.1202  1.1538  3.3880
12764TIP3    H259784   0.865   4.245   5.175 -1.3966  0.7093  1.8532
12765TIP3   OH259785   2.230   0.172  14.409 -0.7284  0.3159 -0.1294
12765TIP3    H159786   2.237   0.267  14.397 -1.2181  0.3812  0.0703
12765TIP3    H259787   2.174   0.162  14.487  2.9038 -0.0427  2.7156
12766TIP3   OH259788   2.374   0.483  15.669 -0.1495  0.3712 -0.2646
12766TIP3    H159789   2.393   0.548  15.736  2.5093 -0.1824 -0.3833
12766TIP3    H259790   2.327   0.531  15.601 -0.4443  1.5548  0.7447
12767TIP3   OH259791   3.813   5.952   0.300  0.1290 -0.3076  0.1338
12767TIP3    H159792   3.757   5.901   0.242 -0.9453  0.2985  0.6155
12767TIP3    H259793   3.785   5.929   0.388  0.1363  0.5384  0.3699
12768TIP3   OH259794   2.041   6.405  12.247 -0.4443 -0.1983 -0.1827
12768TIP3    H159795   2.128   6.430  12.216 -0.3223 -0.7125 -0.2582
12768TIP3    H259796   2.054   6.322  12.292 -0.5107  0.8349  1.8444
12769TIP3   OH259797   1.761   2.610   3.634 -0.4219  0.0343 -0.5880
12769TIP3    H159798   1.752   2.531   3.686 -1.0691  0.2234 -0.3954
12769TIP3    H259799   1.676   2.620   3.590 -0.0190  0.0975 -1.3603
12770TIP3   OH259800   3.527   3.459   5.914 -0.2498 -0.1381  0.9379
12770TIP3    H159801   3.601   3.488   5.862  0.8508 -0.3420  2.3319
12770TIP3    H259802   3.498   3.378   5.872 -1.2836  1.1688 -1.0515
12771TIP3   OH259803   4.654   2.576   2.806 -0.1840 -0.4157 -0.0814
12771TIP3    H159804   4.670   2.498   2.860  1.3132 -1.0999 -1.4217
12771TIP3    H259805   4.716   2.641   2.839  0.0281 -0.5034 -0.2989
12772TIP3   OH259806   3.797   2.243  11.192  0.1419  0.2789  0.2978
12772TIP3    H159807   3.767   2.331  11.170 -0.4948  0.1380  0.5848
12772TIP3    H259808   3.731   2.185  11.154 -0.1002 -0.0215  1.1618
12773TIP3   OH259809   3.937   4.508  13.320  0.1974  0.3531  1.1422
12773TIP3    H159810   3.893   4.429  13.352 -1.0960 -0.2362 -1.8098
12773TIP3    H259811   3.869   4.576  13.323 -0.3543 -0.0189 -1.3398
12774TIP3   OH259812   4.162   1.812  11.160  0.3510  0.3836  0.5574
12774TIP3    H159813   4.205   1.786  11.079 -1.0342  1.4376 -0.5447
12774TIP3    H259814   4.095   1.745  11.173 -0.3112  0.9494  0.0953
12775TIP3   OH259815   6.034   3.087   1.722 -0.0970  0.6335  0.4247
12775TIP3    H159816   6.002   3.150   1.657  1.1742 -0.1653 -1.0426
12775TIP3    H259817   6.127   3.105   1.730  0.1425 -0.5686  0.5299
12776TIP3   OH259818   1.297   2.125   4.268 -0.4278 -0.7877 -0.0073
12776TIP3    H159819   1.341   2.196   4.314 -0.6255 -1.2069  0.8562
12776TIP3    H259820   1.325   2.133   4.178 -2.1096  1.7219 -0.4126
12777TIP3   OH259821   3.694   0.418   2.670  0.0649  0.3139  0.0600
12777TIP3    H159822   3.651   0.411   2.584  1.5127  1.2663 -0.7742
12777TIP3    H259823   3.622   0.432   2.731 -1.4295 -3.7645 -0.4142
12778TIP3   OH259824   0.703   4.052  13.309  0.2739 -0.4163 -0.0961
12778TIP3    H159825   0.633   4.004  13.353  0.9955 -1.3657  0.0483
12778TIP3    H259826   0.686   4.144  13.330 -0.1182 -0.7519  1.1279
12779TIP3   OH259827   5.594   5.690  14.093  0.2286  0.0836 -0.1665
12779TIP3    H159828   5.597   5.628  14.166 -0.0850  0.2974  0.0252
12779TIP3    H259829   5.519   5.745  14.111  3.0247  3.5800  2.1666
12780TIP3   OH259830   1.407   5.392  13.291 -0.0515 -0.3580  0.2416
12780TIP3    H159831   1.466   5.466  13.275  1.4252 -0.9467  2.5274
12780TIP3    H259832   1.459   5.314  13.275 -0.8022 -0.9131  0.4087
12781TIP3   OH259833   2.133   1.677   3.856  0.3086  0.2729 -0.5413
12781TIP3    H159834   2.196   1.696   3.926  0.1059  2.1154 -0.8216
12781TIP3    H259835   2.175   1.710   3.776 -0.5741  0.5987 -0.8867
12782TIP3   OH259836   6.807   0.172  13.228  0.5663  0.0591  0.7397
12782TIP3    H159837   6.721   0.136  13.248 -0.1148  1.1765 -0.0373
12782TIP3    H259838   6.800   0.264  13.252  0.6357  0.8061 -1.7612
12783TIP3   OH259839   0.495   6.196   3.028  0.0944 -0.4348  0.1458
12783TIP3    H159840   0.523   6.280   3.063 -0.0017  0.7306 -2.3183
12783TIP3    H259841   0.553   6.131   3.068  0.9008  0.9343  1.2519
12784TIP3   OH259842   2.296   6.069  12.158 -0.0894  0.8712 -0.3032
12784TIP3    H159843   2.375   6.059  12.212  0.1146  3.7190  0.0749
12784TIP3    H259844   2.224   6.052  12.218  0.1838  0.0438 -0.1924
12785TIP3   OH259845   3.294   2.842   3.639  0.3433 -0.2676  0.5080
12785TIP3    H159846   3.293   2.938   3.640 -1.6355 -0.2196 -0.9851
12785TIP3    H259847   3.386   2.819   3.651  0.6824  1.7435  2.5617
12786TIP3   OH259848   1.505   6.751   1.178 -0.1956  0.7011 -0.2032
12786TIP3    H159849   1.593   6.733   1.213 -0.8644  0.5829  1.5052
12786TIP3    H259850   1.484   6.674   1.126  0.2086  0.1436  0.4410
12787TIP3   OH259851   2.054   1.228  15.640  0.0376 -0.2147 -0.1491
12787TIP3    H159852   2.072   1.142  15.679  1.9102 -0.3119 -1.1452
12787TIP3    H259853   1.970   1.217  15.596 -0.2932 -1.1882  0.6790
12788TIP3   OH259854   0.273   3.843  12.351  0.1324 -0.6359 -0.2060
12788TIP3    H159855   0.314   3.759  12.330  1.9457 -0.0315  0.6900
12788TIP3    H259856   0.298   3.900  12.278 -2.8950 -1.3183 -1.9561
12789TIP3   OH259857   0.548   4.288   4.626 -0.2424 -0.8196  0.4324
12789TIP3    H159858   0.515   4.271   4.714  0.3244  0.2043  0.8537
12789TIP3    H259859   0.555   4.383   4.620 -2.0826 -0.7015 -1.3888
12790TIP3   OH259860   6.682   6.117   2.154 -0.8999  0.0108  0.1865
12790TIP3    H159861   6.666   6.052   2.223  0.0424 -0.7404 -0.2847
12790TIP3    H259862   6.596   6.157   2.139 -1.3798 -0.7192  0.8917
12791TIP3   OH259863   5.786   2.333   5.252  0.0734  0.5993 -0.4566
12791TIP3    H159864   5.704   2.382   5.251 -1.2959 -1.4687  1.3052
12791TIP3    H259865   5.800   2.308   5.161 -0.7827  1.6999 -0.9180
12792TIP3   OH259866   4.136   6.687  15.417  0.1315  0.5559 -0.2213
12792TIP3    H159867   4.224   6.722  15.429 -0.1515  1.1348  0.2322
12792TIP3    H259868   4.082   6.764  15.400 -0.5783  0.4023  1.1907
12793TIP3   OH259869   4.726   5.889   1.855 -0.3327 -0.3620 -0.5032
12793TIP3    H159870   4.652   5.912   1.799  0.7260 -0.6719 -2.1082
12793TIP3    H259871   4.726   5.793   1.855 -0.0695 -0.3611 -0.3246
12794TIP3   OH259872   2.611   5.649  16.144  0.3256  0.2377  0.3949
12794TIP3    H159873   2.607   5.554  16.130 -0.5911  0.1537  1.0548
12794TIP3    H259874   2.541   5.684  16.089  1.1315  0.6143 -0.3987
12795TIP3   OH259875   2.281   4.030  15.193  0.0485  0.5128  0.4702
12795TIP3    H159876   2.354   4.076  15.234  0.1099  0.2862  0.6127
12795TIP3    H259877   2.275   3.947  15.239  1.3510 -0.5822 -1.2483
12796TIP3   OH259878   5.219   3.067  15.768  0.0151 -0.2891 -0.3250
12796TIP3    H159879   5.195   2.991  15.714 -0.8949  0.1320 -0.5318
12796TIP3    H259880   5.135   3.102  15.798  0.4883 -0.4411  1.2928
12797TIP3   OH259881   2.855   4.529  14.152  0.2355  0.0549 -0.5165
12797TIP3    H159882   2.834   4.464  14.218 -1.2320  0.6451 -0.3462
12797TIP3    H259883   2.939   4.566  14.179 -0.4558  0.4706  1.2022
12798TIP3   OH259884   4.763   5.604  16.702  0.5710 -0.0854 -0.0136
12798TIP3    H159885   4.680   5.575  16.741 -0.2719 -0.4765 -1.9371
12798TIP3    H259886   4.764   5.561  16.616  1.6671  1.7371 -0.9599
12799TIP3   OH259887   2.165   5.535   5.058 -0.0354 -0.4572  0.1798
12799TIP3    H159888   2.246   5.488   5.075  1.8972  2.3540 -0.5495
12799TIP3    H259889   2.151   5.590   5.136 -1.1346 -0.7481  0.2084
12800TIP3   OH259890   1.058   2.021  11.803  0.2418  0.2605  0.1856
12800TIP3    H159891   1.115   2.080  11.853  2.9781 -1.3271 -0.8497
12800TIP3    H259892   1.086   1.933  11.829 -1.5183 -0.5943 -0.6662
12801TIP3   OH259893   1.784   2.296   3.542 -0.1998  0.2222 -0.0004
12801TIP3    H159894   1.748   2.209   3.558 -0.4187  0.2597 -0.2694
12801TIP3    H259895   1.717   2.340   3.489 -0.6707  0.9876  1.1890
12802TIP3   OH259896   3.974   5.725  13.668 -0.3124 -0.3068  0.0954
12802TIP3    H159897   3.928   5.807  13.654 -1.4392 -0.2874  3.2089
12802TIP3    H259898   4.044   5.746  13.729  0.1709 -1.4431 -0.0348
12803TIP3   OH259899   3.380   0.725   0.655  0.1977 -0.1722 -0.6798
12803TIP3    H159900   3.462   0.711   0.608  0.7920 -1.7769  0.7040
12803TIP3    H259901   3.390   0.811   0.696  0.5245  0.3262 -1.7739
12804TIP3   OH259902   0.548   2.886  12.038 -0.1619 -0.3954 -0.2455
12804TIP3    H159903   0.546   2.799  12.079  0.2340  0.3309  1.3965
12804TIP3    H259904   0.633   2.890  11.995  0.1647 -0.5320  0.3711
12805TIP3   OH259905   2.020   5.464  14.084 -0.1213 -0.3207 -0.1859
12805TIP3    H159906   2.015   5.483  14.177 -2.2579  0.1329 -0.3469
12805TIP3    H259907   2.016   5.550  14.041 -1.0173 -0.6128 -0.7185
12806TIP3   OH259908   0.695   3.861   2.564 -0.2710 -0.1682  0.1967
12806TIP3    H159909   0.722   3.940   2.610  2.8123 -0.0378 -1.5309
12806TIP3    H259910   0.680   3.889   2.474  0.3083 -1.4112 -0.3158
12807TIP3   OH259911   1.539   4.185  12.605 -0.6741 -0.2735 -0.5702
12807TIP3    H159912   1.553   4.094  12.630 -1.6485  0.0906  1.5252
12807TIP3    H259913   1.448   4.204  12.631 -0.8243  1.0141 -1.8925
12808TIP3   OH259914   2.768   3.083   1.099 -0.4191 -0.1326  0.1468
12808TIP3    H159915   2.836   3.101   1.164 -0.8501 -0.8651  0.8195
12808TIP3    H259916   2.746   3.168   1.062 -0.3913  0.3372  1.1902
12809TIP3   OH259917   2.117   2.852   3.024 -0.1650 -0.0851  0.1389
12809TIP3    H159918   2.207   2.831   3.048 -0.0491 -0.0116 -0.2379
12809TIP3    H259919   2.123   2.935   2.977 -0.4609  0.0696  0.3681
12810TIP3   OH259920   6.105   4.188  12.702  0.5202 -0.3697 -0.5519
12810TIP3    H159921   6.141   4.210  12.788  2.4725  0.7089 -1.5748
12810TIP3    H259922   6.037   4.122  12.720  1.2829 -0.6108  1.7334
12811TIP3   OH259923   3.469   4.559  14.052 -0.3811  0.0139 -0.2318
12811TIP3    H159924   3.438   4.468  14.059 -1.5420  0.4407  0.3319
12811TIP3    H259925   3.391   4.612  14.061  0.1070  1.0744 -1.8420
12812TIP3   OH259926   1.014   4.005   3.259  0.2527 -0.1071  0.2711
12812TIP3    H159927   1.067   4.027   3.335 -0.2928 -0.5557  0.7884
12812TIP3    H259928   1.004   3.910   3.263  0.4437 -0.1700 -0.5126
12813TIP3   OH259929   5.307   6.585   1.643 -0.2201 -0.1341  0.2120
12813TIP3    H159930   5.303   6.491   1.660  0.9571 -0.3432 -0.5404
12813TIP3    H259931   5.280   6.625   1.725  0.8692 -1.1262  1.1029
12814TIP3   OH259932   0.343   4.707  16.193  0.1219 -0.1325  0.5207
12814TIP3    H159933   0.277   4.640  16.176  1.1050 -1.0600  0.2527
12814TIP3    H259934   0.297   4.790  16.179 -1.1861 -0.7250  1.1103
12815TIP3   OH259935   1.510   1.997  16.615 -0.2357  0.2308  0.1527
12815TIP3    H159936   1.516   2.089  16.590 -2.1609  0.9100  1.9166
12815TIP3    H259937   1.435   1.964  16.566 -0.5933  0.0769  0.7941
12816TIP3   OH259938   4.973   5.963   5.173  0.0555 -0.0735 -0.2604
12816TIP3    H159939   4.953   5.947   5.081  0.7120 -0.2367 -0.3748
12816TIP3    H259940   5.013   5.882   5.204  2.2595  0.8639 -0.5249
12817TIP3   OH259941   3.500   4.847   1.921 -0.5852  0.2973  0.6417
12817TIP3    H159942   3.512   4.804   2.006  0.9818 -1.2191 -0.2686
12817TIP3    H259943   3.551   4.794   1.860 -2.5951  0.6593 -1.4998
12818TIP3   OH259944   2.241   3.860  13.905  0.9814  0.2415 -0.0226
12818TIP3    H159945   2.200   3.874  13.819 -0.0635  0.2525  0.4593
12818TIP3    H259946   2.169   3.870  13.967  1.6262 -0.2725  0.8232
12819TIP3   OH259947   5.217   5.545   4.053  0.3207  0.8470 -0.4687
12819TIP3    H159948   5.264   5.537   4.136 -0.1016  0.1695 -0.2925
12819TIP3    H259949   5.233   5.635   4.026 -1.0986  1.6953  1.2999
12820TIP3   OH259950   4.714   5.852  17.212  0.1796  0.1397  0.2591
12820TIP3    H159951   4.756   5.787  17.156 -0.8176  0.8099 -1.3805
12820TIP3    H259952   4.719   5.933  17.161 -4.0215  0.0462 -0.6799
12821TIP3   OH259953   3.326   6.496  16.754 -0.0198 -0.3415  0.0637
12821TIP3    H159954   3.360   6.578  16.792  1.8349 -0.8814 -0.3363
12821TIP3    H259955   3.357   6.428  16.814  1.0030 -0.9952 -1.1586
12822TIP3   OH259956   0.624   1.928   1.155  0.3879 -0.7697  0.1119
12822TIP3    H159957   0.708   1.963   1.126  0.1960 -1.2476 -1.0998
12822TIP3    H259958   0.598   1.867   1.085 -0.9432 -0.6463  0.4672
12823TIP3   OH259959   3.044   3.507   6.370  0.0876  0.1551  0.0836
12823TIP3    H159960   3.035   3.565   6.294 -1.9473  1.8872  1.5209
12823TIP3    H259961   2.959   3.464   6.377  0.2623 -0.0336  1.3217
12824TIP3   OH259962   1.398   5.681  15.079 -0.2706  0.1975 -0.2844
12824TIP3    H159963   1.375   5.634  15.159 -1.0981  1.9503  0.5463
12824TIP3    H259964   1.334   5.651  15.015  2.1631 -3.5490 -1.3531
12825TIP3   OH259965   5.275   4.890  16.161  0.2709 -0.6121 -0.2246
12825TIP3    H159966   5.301   4.960  16.221 -0.2399 -1.1586  0.6550
12825TIP3    H259967   5.211   4.930  16.103 -0.8493 -0.6115  0.9791
12826TIP3   OH259968   0.489   1.216  15.659 -0.4959 -0.0625 -0.2241
12826TIP3    H159969   0.478   1.194  15.567 -0.3389 -3.0043  0.3321
12826TIP3    H259970   0.580   1.245  15.667 -0.0455 -1.2381 -0.8141
12827TIP3   OH259971   6.234   6.158   6.284 -0.2385 -0.0717  0.0840
12827TIP3    H159972   6.177   6.108   6.342 -0.0893 -1.6839 -1.0626
12827TIP3    H259973   6.299   6.094   6.254  3.7527  2.1081  3.1257
12828TIP3   OH259974   0.995   4.601  11.589 -0.5222  0.1310 -0.0650
12828TIP3    H159975   0.978   4.546  11.665 -1.8207  0.7290  0.1082
12828TIP3    H259976   1.012   4.688  11.625  2.3702 -0.2561 -0.2782
12829TIP3   OH259977   5.171   4.618   2.164 -0.0942  0.7842  0.6490
12829TIP3    H159978   5.106   4.561   2.205  1.1338 -1.2501 -0.1074
12829TIP3    H259979   5.144   4.623   2.073  1.5209 -1.2993 -0.0201
12830TIP3   OH259980   0.774   5.652  11.124 -0.0896  0.2629 -0.8094
12830TIP3    H159981   0.789   5.626  11.033 -1.1764  2.4878 -1.6852
12830TIP3    H259982   0.860   5.680  11.155  0.1768  0.0685 -1.3576
12831TIP3   OH259983   3.365   2.073  16.881 -1.1053 -0.4072  0.6357
12831TIP3    H159984   3.428   2.006  16.909 -1.3367 -0.9700 -0.1350
12831TIP3    H259985   3.280   2.040  16.911 -1.1545 -0.1848  0.7399
12832TIP3   OH259986   4.657   6.362  13.745  0.2171 -0.0332 -0.1080
12832TIP3    H159987   4.656   6.267  13.737 -1.1673  0.0017 -0.5556
12832TIP3    H259988   4.682   6.394  13.659 -2.3586  0.0419 -0.9105
12833TIP3   OH259989   0.719   3.060   1.982 -0.0748 -0.1119 -0.3391
12833TIP3    H159990   0.754   2.972   1.965  1.4776  0.3199  0.4241
12833TIP3    H259991   0.628   3.044   2.009  0.2296 -1.5052 -0.0335
12834TIP3   OH259992   2.135   2.978   6.422  0.0382  0.2596  0.2203
12834TIP3    H159993   2.182   3.043   6.371 -0.9700  1.9979  1.3891
12834TIP3    H259994   2.042   3.000   6.411 -0.2933 -0.5584  1.1592
12835TIP3   OH259995   0.801   2.512  14.728  0.3557  0.1847 -0.0441
12835TIP3    H159996   0.776   2.556  14.809  1.5214 -2.1200  1.7067
12835TIP3    H259997   0.889   2.544  14.709 -0.1490  1.1768 -0.7838
12836TIP3   OH259998   3.022   1.663  15.590 -0.8010 -0.0586  0.7135
12836TIP3    H159999   3.026   1.576  15.630 -1.6016 -0.3474  0.1919
12836TIP3    H260000   3.113   1.692  15.588 -0.6825 -0.2710  2.1991
12837TIP3   OH260001   1.878   3.879   2.509 -0.2545  0.5291 -0.1303
12837TIP3    H160002   1.957   3.927   2.533  1.2972 -1.4789 -0.9081
12837TIP3    H260003   1.855   3.912   2.422  2.5924 -2.0248 -2.0444
12838TIP3   OH260004   4.157   1.393  12.116  0.0326  0.9483 -0.0978
12838TIP3    H160005   4.152   1.303  12.147 -0.6406  1.2811  0.7711
12838TIP3    H260006   4.244   1.400  12.076  0.6908  0.3412  1.1913
12839TIP3   OH260007   6.158   5.881   0.480 -0.1337  0.1210  0.2559
12839TIP3    H160008   6.170   5.842   0.394  1.3178  0.9931  0.0341
12839TIP3    H260009   6.244   5.914   0.504 -0.7898  1.0316  1.4837
12840TIP3   OH260010   4.643   1.237   3.065 -0.2572 -0.2602 -0.5705
12840TIP3    H160011   4.556   1.273   3.077 -0.3415 -0.3093 -1.0175
12840TIP3    H260012   4.629   1.153   3.021  0.0022 -0.3510 -0.4848
12841TIP3   OH260013   6.771   0.858  15.298  0.0819  0.0191  0.4734
12841TIP3    H160014   6.728   0.777  15.325 -0.2236 -0.2487 -0.7604
12841TIP3    H260015   6.827   0.832  15.225 -0.7111  1.0599 -0.5359
12842TIP3   OH260016   1.019   4.761  13.966 -0.1952  0.4673  0.4266
12842TIP3    H160017   1.100   4.809  13.984  0.0757  0.2503 -0.1998
12842TIP3    H260018   1.012   4.761  13.871 -0.1630 -0.7671  0.4084
12843TIP3   OH260019   2.460   0.477   5.430  0.6899  1.3224  0.2031
12843TIP3    H160020   2.384   0.536   5.435  0.3300  1.1840 -2.2762
12843TIP3    H260021   2.472   0.461   5.337  1.2163 -2.0306  0.7251
12844TIP3   OH260022   5.711   1.462  16.690 -0.6548 -0.2769 -0.0221
12844TIP3    H160023   5.780   1.396  16.691 -0.0871  0.2669  2.2416
12844TIP3    H260024   5.630   1.412  16.696 -0.3188 -0.8418 -0.0859
12845TIP3   OH260025   3.115   3.947   1.510  0.2856 -0.0376 -0.3108
12845TIP3    H160026   3.102   4.031   1.466  0.7619 -0.0392 -0.4632
12845TIP3    H260027   3.112   3.882   1.439  3.8654  0.1699 -0.8629
12846TIP3   OH260028   6.234   3.802   5.164  0.1212 -0.2532 -0.0506
12846TIP3    H160029   6.182   3.882   5.174 -0.1740 -0.4667  0.1202
12846TIP3    H260030   6.325   3.834   5.159 -0.0479  0.1391 -0.6724
12847TIP3   OH260031   1.389   4.129   0.981 -0.4336  0.1628  0.2131
12847TIP3    H160032   1.392   4.196   1.049 -0.7359 -1.6907  2.1258
12847TIP3    H260033   1.296   4.125   0.956 -0.2507  1.1737 -0.6967
12848TIP3   OH260034   3.946   6.575  10.878  0.0523  0.2559 -0.7336
12848TIP3    H160035   3.905   6.592  10.793  0.1097  1.9424 -0.4651
12848TIP3    H260036   4.000   6.498  10.863 -2.2867 -1.3532 -1.4028
12849TIP3   OH260037   4.634   3.904  12.331 -0.1181  0.4478 -0.3083
12849TIP3    H160038   4.586   3.974  12.287 -0.6847 -0.1225 -0.6127
12849TIP3    H260039   4.600   3.903  12.421  0.4954  1.1118 -0.0624
12850TIP3   OH260040   3.015   3.914   6.021  0.2356 -0.1888  0.1254
12850TIP3    H160041   2.965   3.945   6.096  0.8387  1.5934 -0.1597
12850TIP3    H260042   2.968   3.948   5.945 -0.0039 -1.4130 -0.2974
12851TIP3   OH260043   0.076   6.326   1.556 -0.9139  0.6336  0.0874
12851TIP3    H160044   0.073   6.327   1.460 -0.6209  1.1844  0.0816
12851TIP3    H260045   0.159   6.284   1.577 -0.6597  1.1455  0.0962
12852TIP3   OH260046   6.696   3.953   6.572  0.1076 -0.2577  0.1896
12852TIP3    H160047   6.713   3.963   6.666 -2.7056 -2.4464  1.0920
12852TIP3    H260048   6.758   3.886   6.544  0.6495  0.0675  0.5874
12853TIP3   OH260049   1.981   2.622   0.390 -0.2289 -0.5002  0.6222
12853TIP3    H160050   1.952   2.686   0.455  1.7124 -1.2808  2.3897
12853TIP3    H260051   1.987   2.539   0.439  0.9173 -1.2073 -0.6435
12854TIP3   OH260052   5.641   1.577  15.753 -0.2073  0.2383 -0.4107
12854TIP3    H160053   5.665   1.603  15.664  0.6952  0.8156 -0.0189
12854TIP3    H260054   5.578   1.506  15.741  2.5135 -2.2039 -1.5593
12855TIP3   OH260055   3.285   0.663  14.883  0.3533 -0.5453  0.0308
12855TIP3    H160056   3.330   0.590  14.840 -0.1520 -1.6304  1.2500
12855TIP3    H260057   3.334   0.678  14.964  0.2973  0.2940 -0.0855
12856TIP3   OH260058   2.174   2.279  14.370  0.4304  0.2566  0.4319
12856TIP3    H160059   2.239   2.350  14.369  1.5613 -0.7282  0.7918
12856TIP3    H260060   2.179   2.244  14.459 -0.7239  0.2550  0.5032
12857TIP3   OH260061   0.043   2.817   0.119  0.4507  0.0857  0.1155
12857TIP3    H160062  -0.028   2.756   0.139  1.6763 -0.6555  2.5435
12857TIP3    H260063   0.092   2.825   0.200  2.3067  1.7405 -1.0686
12858TIP3   OH260064   5.645   3.069  11.598 -0.0423  0.1006  0.4803
12858TIP3    H160065   5.588   3.026  11.535 -0.6944  0.8130  0.5496
12858TIP3    H260066   5.688   3.139  11.549 -1.0740  1.1023  0.9331
12859TIP3   OH260067   3.069   0.231  12.118  0.2727 -0.1812 -0.1158
12859TIP3    H160068   3.003   0.228  12.048 -1.1972 -2.0222  1.2290
12859TIP3    H260069   3.143   0.182  12.083 -1.0903 -2.5597  0.1331
12860TIP3   OH260070   6.423   2.839  12.031  0.1793 -0.3633  0.2732
12860TIP3    H160071   6.446   2.808  12.118 -2.2530 -2.7889  0.1803
12860TIP3    H260072   6.442   2.765  11.973 -0.9305  0.1299 -0.7742
12861TIP3   OH260073   1.111   1.273  16.588 -0.2729  0.6614 -0.1370
12861TIP3    H160074   1.202   1.244  16.589 -0.5360 -0.1520  0.3009
12861TIP3    H260075   1.099   1.319  16.671 -1.8105 -4.1880  2.7096
12862TIP3   OH260076   4.600   5.816   4.392  0.0709 -0.1532 -0.3859
12862TIP3    H160077   4.586   5.812   4.297  0.3204  0.5383 -0.4580
12862TIP3    H260078   4.689   5.786   4.404  0.3050  0.4931 -0.4541
12863TIP3   OH260079   6.426   4.107  16.121 -0.2572  0.6658 -0.2312
12863TIP3    H160080   6.375   4.029  16.145 -0.7278  1.1721  0.4728
12863TIP3    H260081   6.517   4.077  16.122 -0.3938  0.2325  0.5275
12864TIP3   OH260082   1.141   5.249  16.370 -0.1135 -0.0131 -0.4772
12864TIP3    H160083   1.052   5.281  16.358  0.0148  0.8369  0.6638
12864TIP3    H260084   1.141   5.211  16.458  0.4636 -0.7205 -0.7682
12865TIP3   OH260085   5.315   4.093   2.880 -0.4163 -0.4804 -0.1760
12865TIP3    H160086   5.222   4.096   2.902 -0.0980  1.1267  1.1415
12865TIP3    H260087   5.358   4.140   2.951  1.1657  0.9048 -1.9355
12866TIP3   OH260088   2.820   4.300   0.828 -0.2130  0.2137 -0.6090
12866TIP3    H160089   2.826   4.255   0.913  1.6043 -1.7365 -1.6481
12866TIP3    H260090   2.833   4.392   0.849 -0.0336 -0.1893  1.2617
12867TIP3   OH260091   1.777   0.738   3.387 -0.0461  0.2394  0.0697
12867TIP3    H160092   1.750   0.672   3.451 -2.6614 -0.5280 -1.6839
12867TIP3    H260093   1.785   0.819   3.438 -1.6547 -0.4190  1.4706
12868TIP3   OH260094   1.881   4.775  14.268 -0.2840  0.3275  0.0953
12868TIP3    H160095   1.895   4.713  14.341 -0.1154  1.7764  1.3463
12868TIP3    H260096   1.814   4.734  14.214 -0.3691 -0.8290  1.0360
12869TIP3   OH260097   4.135   3.747  13.862  0.1928  0.2366  0.0260
12869TIP3    H160098   4.201   3.804  13.823  1.0809 -1.2619 -0.7269
12869TIP3    H260099   4.154   3.660  13.827 -0.0396 -0.8734  2.4427
12870TIP3   OH260100   5.588   6.444  11.491 -0.2798 -0.6442 -0.9326
12870TIP3    H160101   5.611   6.515  11.552 -0.1856 -1.6511  0.2436
12870TIP3    H260102   5.669   6.425  11.444  0.8403 -2.6071  1.5543
12871TIP3   OH260103   3.041   5.064   6.022  0.4081  0.0689 -0.6515
12871TIP3    H160104   3.129   5.087   5.993 -0.0113  3.3249  0.3135
12871TIP3    H260105   3.048   5.056   6.117 -0.5439  1.8007 -0.3977
12872TIP3   OH260106   4.518   4.717   3.356 -0.4715  0.4791 -0.8249
12872TIP3    H160107   4.426   4.733   3.377 -0.0769  1.8956 -0.0492
12872TIP3    H260108   4.526   4.621   3.357 -1.7188  0.3579  0.0989
12873TIP3   OH260109   5.167   0.346   1.462 -0.0999 -0.1165  0.1829
12873TIP3    H160110   5.092   0.392   1.424  0.0813 -0.9061 -1.1933
12873TIP3    H260111   5.239   0.409   1.459 -0.6113  0.5597  1.2766
12874TIP3   OH260112   6.508   4.179  11.508 -0.0326  0.4968 -0.4274
12874TIP3    H160113   6.425   4.224  11.492 -0.3517  0.0471 -0.1073
12874TIP3    H260114   6.554   4.180  11.424 -0.6302  0.2298 -0.7646
12875TIP3   OH260115   6.807   4.587  16.482  0.3742 -0.4077 -0.1221
12875TIP3    H160116   6.804   4.492  16.492  2.0746 -0.4358  0.4618
12875TIP3    H260117   6.716   4.612  16.464 -0.6808 -1.8443  2.5090
12876TIP3   OH260118   1.207   5.872  12.840 -0.2430  0.3434  0.1334
12876TIP3    H160119   1.266   5.799  12.820  1.1124  1.1398  1.0416
12876TIP3    H260120   1.165   5.846  12.922  0.1267  0.5056  0.3776
12877TIP3   OH260121   5.825   0.262   2.065  0.8689 -0.3968 -0.8975
12877TIP3    H160122   5.748   0.298   2.109  1.6423  1.4192 -0.9454
12877TIP3    H260123   5.855   0.193   2.123 -0.2496 -0.5088 -0.4176
12878TIP3   OH260124   5.942   6.782   2.593  0.3861  0.4046 -0.3696
12878TIP3    H160125   5.897   6.849   2.541 -1.9478  0.2351  1.3088
12878TIP3    H260126   5.897   6.700   2.571  0.2892  0.1147  0.8580
12879TIP3   OH260127   6.402   5.510   0.902 -0.0175 -0.0590 -0.2789
12879TIP3    H160128   6.384   5.535   0.992 -0.2424  1.7049 -0.7729
12879TIP3    H260129   6.321   5.467   0.872 -0.7277  1.1821 -0.2316
12880TIP3   OH260130   6.810   6.585   2.569 -0.1256 -0.4689 -0.1143
12880TIP3    H160131   6.793   6.678   2.556  1.2590 -0.3687 -1.5541
12880TIP3    H260132   6.724   6.546   2.585 -0.6548  1.1261  1.0554
12881TIP3   OH260133   6.097   1.876   6.120 -0.0590  0.0033  0.1798
12881TIP3    H160134   6.123   1.847   6.033 -0.7184 -1.1745  0.3628
12881TIP3    H260135   6.167   1.845   6.178  0.4696  0.9381  0.0744
12882TIP3   OH260136   1.510   4.575   2.489 -0.5576  0.0355 -0.5626
12882TIP3    H160137   1.509   4.557   2.583 -0.5564  0.3072 -0.5101
12882TIP3    H260138   1.429   4.622   2.473 -0.0168  1.0089 -0.4935
12883TIP3   OH260139   2.443   2.898  14.115  0.0939  0.1891  0.6238
12883TIP3    H160140   2.356   2.935  14.125 -0.4750 -1.0578  0.4950
12883TIP3    H260141   2.445   2.823  14.174  0.5305 -0.6878 -0.4480
12884TIP3   OH260142   2.602   3.589   4.492 -0.2752  0.2841  0.0653
12884TIP3    H160143   2.600   3.548   4.405 -2.0781  0.8231 -0.1841
12884TIP3    H260144   2.642   3.522   4.548  1.6622  0.2220 -1.2745
12885TIP3   OH260145   2.999   4.664  15.914 -0.1523  0.5469 -0.3016
12885TIP3    H160146   3.003   4.753  15.948  0.6259 -0.2924  1.9716
12885TIP3    H260147   2.906   4.641  15.917 -0.1393  0.6170  1.0147
12886TIP3   OH260148   2.186   2.574  16.942 -0.3117 -0.5733 -0.2715
12886TIP3    H160149   2.116   2.529  16.895 -1.3509 -0.7689  1.4027
12886TIP3    H260150   2.163   2.566  17.034  2.1068 -0.9519  0.3804
12887TIP3   OH260151   2.888   4.940  14.121  0.3407  0.1351 -0.5969
12887TIP3    H160152   2.857   4.901  14.040 -1.5927  0.3050  0.0077
12887TIP3    H260153   2.824   5.008  14.141  2.6471  2.4851 -0.7036
12888TIP3   OH260154   6.840   6.150   3.840 -0.7007 -0.4646 -0.1621
12888TIP3    H160155   6.785   6.083   3.801 -0.7851 -1.0973  1.0176
12888TIP3    H260156   6.807   6.160   3.929  0.8388 -0.5863  0.4503
12889TIP3   OH260157   1.982   5.302  15.627  0.6345 -0.2963  0.1887
12889TIP3    H160158   2.022   5.386  15.605 -1.7311  1.3077  1.5474
12889TIP3    H260159   1.994   5.249  15.548  4.0483  0.4919  0.0357
12890TIP3   OH260160   0.591   3.993  14.584  0.6342  0.0293 -0.5857
12890TIP3    H160161   0.548   4.000  14.669  1.1657  0.0268 -0.3164
12890TIP3    H260162   0.557   4.068  14.534  1.2971  0.7843  0.0671
12891TIP3   OH260163   2.048   6.344  15.338  0.1480  0.7381  0.2975
12891TIP3    H160164   2.120   6.400  15.366 -0.3362  1.3356  0.3523
12891TIP3    H260165   1.969   6.384  15.375 -0.2124  0.0603  0.2880
12892TIP3   OH260166   2.017   2.356  13.586  0.7020 -0.6850 -0.3416
12892TIP3    H160167   2.045   2.426  13.645  0.3054 -0.2800 -0.6185
12892TIP3    H260168   2.035   2.390  13.499 -2.2925  0.4265 -0.6589
12893TIP3   OH260169   3.792   2.905   2.212 -0.0758 -0.1863  0.0183
12893TIP3    H160170   3.811   2.846   2.139  1.5475 -0.7457  0.8283
12893TIP3    H260171   3.868   2.964   2.216  0.3643 -0.7996  1.8155
12894TIP3   OH260172   0.948   1.260  15.149 -0.6190  0.0377  0.1886
12894TIP3    H160173   0.937   1.182  15.094 -1.8909  0.0298  0.4315
12894TIP3    H260174   0.986   1.228  15.230 -0.0383 -0.1521 -0.1535
12895TIP3   OH260175   0.496   2.013  15.683  0.6066  0.3477  0.5353
12895TIP3    H160176   0.448   2.045  15.607  1.2126  2.7048  1.0789
12895TIP3    H260177   0.429   1.977  15.741 -0.4425  2.5006  0.7557
12896TIP3   OH260178   0.736   5.539   0.602 -0.3424 -0.0762  0.1339
12896TIP3    H160179   0.733   5.532   0.698 -0.3604 -0.1545  0.1280
12896TIP3    H260180   0.814   5.590   0.584 -0.0947 -0.4348  0.1724
12897TIP3   OH260181   5.392   6.468   5.015 -0.2627  0.1948  0.0345
12897TIP3    H160182   5.427   6.379   5.007 -1.3675 -0.2383 -0.1667
12897TIP3    H260183   5.335   6.479   4.939 -0.8895  0.7151  0.5654
12898TIP3   OH260184   1.704   3.721  16.377  0.8581  0.2826 -0.0864
12898TIP3    H160185   1.763   3.749  16.447  0.5473 -1.2920  0.8462
12898TIP3    H260186   1.626   3.690  16.423  0.4587 -0.3227 -1.1480
12899TIP3   OH260187   4.745   3.429   3.024  0.5849  0.6958 -0.0774
12899TIP3    H160188   4.665   3.432   2.972 -0.9000 -3.3975  1.5296
12899TIP3    H260189   4.804   3.373   2.975  1.1644  0.9582  0.3110
12900TIP3   OH260190   5.738   6.698  15.275 -0.1018 -0.4282 -0.7848
12900TIP3    H160191   5.822   6.736  15.250  0.1515 -1.8458 -2.2348
12900TIP3    H260192   5.758   6.646  15.353 -0.2946  1.6444  0.7235
12901TIP3   OH260193   2.314   2.469  12.350 -0.1166 -0.4007  0.4717
12901TIP3    H160194   2.401   2.434  12.368  0.5279 -0.8199 -2.8607
12901TIP3    H260195   2.257   2.392  12.351 -0.5737 -0.0984  2.8725
12902TIP3   OH260196   1.513   1.521   2.041  0.1089 -0.4828 -0.7666
12902TIP3    H160197   1.553   1.582   1.979 -1.0274 -0.4318 -1.4816
12902TIP3    H260198   1.456   1.467   1.987  1.3531 -2.4656 -0.2218
12903TIP3   OH260199   0.014   4.006  11.861  0.4531 -0.3855  0.6647
12903TIP3    H160200   0.038   4.061  11.936 -0.9025  0.5853  0.4293
12903TIP3    H260201  -0.037   4.064  11.804 -2.0865 -2.1521  0.9730
12904TIP3   OH260202   6.707   1.173  12.850  0.2967  0.3095  0.7045
12904TIP3    H160203   6.707   1.122  12.769  1.0404  1.0312  0.2223
12904TIP3    H260204   6.800   1.192  12.866  0.2025 -0.1691  1.9649
12905TIP3   OH260205   1.235   3.367  16.213 -0.2771 -0.1222  0.0489
12905TIP3    H160206   1.233   3.403  16.302  1.8967 -1.4483  0.7275
12905TIP3    H260207   1.249   3.443  16.157  1.6453  0.4429  1.1961
12906TIP3   OH260208   4.783   2.917  13.735 -0.2410  0.4150  0.6758
12906TIP3    H160209   4.874   2.929  13.706 -0.4718 -1.4136 -0.9839
12906TIP3    H260210   4.787   2.842  13.795 -0.8222 -0.4911 -0.4058
12907TIP3   OH260211   1.311   0.671   6.130  0.2499 -0.1888  0.4865
12907TIP3    H160212   1.396   0.631   6.149  0.8406  1.0486  0.5390
12907TIP3    H260213   1.299   0.736   6.199 -0.6451 -0.2039  0.3574
12908TIP3   OH260214   5.559   1.616   4.809 -0.0323  0.1842 -0.3805
12908TIP3    H160215   5.640   1.636   4.857  0.8796 -0.4983 -1.5976
12908TIP3    H260216   5.534   1.529   4.840  0.8794 -0.5065 -1.5440
12909TIP3   OH260217   3.728   6.119   2.090 -0.0516 -0.4060  0.1546
12909TIP3    H160218   3.696   6.206   2.066 -0.8364 -0.1962  1.8283
12909TIP3    H260219   3.659   6.060   2.059  1.3059 -0.6916 -2.6404
12910TIP3   OH260220   0.573   4.527  12.071  0.5729 -0.3265 -0.6185
12910TIP3    H160221   0.645   4.552  12.128  0.9581  0.0491 -1.2593
12910TIP3    H260222   0.544   4.441  12.104  1.3285 -0.4917 -0.3813
12911TIP3   OH260223   1.398   3.193   0.958 -0.0252  0.0399 -0.2838
12911TIP3    H160224   1.466   3.153   0.903  0.6653  1.1890 -0.2863
12911TIP3    H260225   1.442   3.215   1.039 -0.5003  0.4170 -0.1214
12912TIP3   OH260226   4.735   5.056  14.701 -0.4485  0.5381 -0.6375
12912TIP3    H160227   4.646   5.043  14.669 -0.9145  2.3799 -0.2075
12912TIP3    H260228   4.726   5.057  14.797 -0.1352  1.6881 -0.6082
12913TIP3   OH260229   1.225   5.352  14.366 -0.1675 -0.5410 -0.3430
12913TIP3    H160230   1.295   5.400  14.411 -0.6517 -0.1994  0.0570
12913TIP3    H260231   1.237   5.374  14.274 -0.4313  0.4265 -0.1582
12914TIP3   OH260232   0.125   0.861  15.119 -0.0990 -0.4641  0.2877
12914TIP3    H160233   0.060   0.897  15.060  0.8892  0.5392 -0.2117
12914TIP3    H260234   0.208   0.866  15.071  0.3664 -1.7511  0.8889
12915TIP3   OH260235   0.677   1.981  12.926  0.2323 -0.3244  0.2726
12915TIP3    H160236   0.721   1.985  12.841  0.0426  1.5775  0.2314
12915TIP3    H260237   0.741   2.016  12.988 -0.1602 -0.3327  0.6885
12916TIP3   OH260238   2.567   6.741   3.859 -0.1095  0.2278 -0.2640
12916TIP3    H160239   2.509   6.751   3.783  1.4980 -0.8343 -1.7022
12916TIP3    H260240   2.587   6.830   3.886  0.4558  0.6904 -2.0554
12917TIP3   OH260241   2.320   5.339   3.512  0.1163  0.6624 -0.0362
12917TIP3    H160242   2.319   5.277   3.584  0.0277 -0.5813 -1.0706
12917TIP3    H260243   2.392   5.399   3.533  1.3244 -0.7934  0.1985
12918TIP3   OH260244   4.114   0.891  12.840 -0.4024  0.7693 -0.3171
12918TIP3    H160245   4.101   0.851  12.926  1.4321  1.0246  0.1171
12918TIP3    H260246   4.152   0.976  12.859 -2.2197  1.8752 -1.3235
12919TIP3   OH260247   4.081   6.025   0.073 -0.0149  0.0876  0.4782
12919TIP3    H160248   4.070   5.940   0.114 -0.5117 -0.6068 -1.0290
12919TIP3    H260249   4.163   6.058   0.108  0.6322 -1.4020  0.4359
12920TIP3   OH260250   5.593   1.931   2.817 -0.2228  0.0299  0.3734
12920TIP3    H160251   5.566   2.020   2.842 -0.6039  0.5594 -1.7620
12920TIP3    H260252   5.565   1.922   2.726  0.3410 -2.0857  0.3644
12921TIP3   OH260253   0.492   3.537   5.358  0.0037  0.0817 -0.1597
12921TIP3    H160254   0.545   3.458   5.357 -0.4841 -0.3752  2.5874
12921TIP3    H260255   0.529   3.591   5.428 -0.4739  1.7349 -1.1112
12922TIP3   OH260256   1.348   5.605  14.418 -1.3709 -0.3201 -0.1546
12922TIP3    H160257   1.286   5.617  14.491 -0.0819  1.8259  0.6971
12922TIP3    H260258   1.318   5.666  14.351 -0.1725  0.8074  0.3059
12923TIP3   OH260259   0.657   6.212  13.913  0.0335  0.4290 -0.6400
12923TIP3    H160260   0.733   6.160  13.890  0.8751  2.2635 -2.2992
12923TIP3    H260261   0.682   6.302  13.893 -1.3298  1.5426  2.1343
12924TIP3   OH260262   5.436   5.005   2.402 -0.0528  0.4514  0.0072
12924TIP3    H160263   5.377   4.936   2.372 -0.8233  0.3811  1.5645
12924TIP3    H260264   5.436   5.070   2.332 -3.2995  1.2371  0.5653
12925TIP3   OH260265   5.916   2.276  14.805  0.1260 -0.6224 -0.3956
12925TIP3    H160266   5.922   2.327  14.723  0.1868  1.7945  1.0042
12925TIP3    H260267   5.826   2.244  14.807  0.0625 -0.5479 -1.2936
12926TIP3   OH260268   5.715   2.225  13.504  0.3816 -0.4714  0.3207
12926TIP3    H160269   5.702   2.318  13.489  1.8576 -0.2635  0.2186
12926TIP3    H260270   5.752   2.192  13.422  0.1339 -1.0926  0.4542
12927TIP3   OH260271   0.094   5.088  15.680  0.2080 -0.4592  0.5509
12927TIP3    H160272   0.139   5.162  15.722 -0.4130  0.6776 -0.7369
12927TIP3    H260273   0.001   5.107  15.691  0.0326 -0.1533 -1.2678
12928TIP3   OH260274   0.155   3.803   5.720 -0.1791  0.5449 -0.3441
12928TIP3    H160275   0.230   3.792   5.778 -0.6330  0.5501  0.2477
12928TIP3    H260276   0.194   3.825   5.635  0.4608  1.6913  0.2229
12929TIP3   OH260277   2.249   4.032  11.154  0.3715  0.1403 -0.7028
12929TIP3    H160278   2.234   4.100  11.220 -3.1655 -1.8152  0.7732
12929TIP3    H260279   2.227   4.074  11.071 -2.3210  0.8141  0.2272
12930TIP3   OH260280   3.378   6.134  10.992 -0.3857  0.2789  0.6092
12930TIP3    H160281   3.377   6.042  10.967  1.7266  0.8518 -2.0638
12930TIP3    H260282   3.439   6.138  11.065  0.2476 -0.3208  0.1229
12931TIP3   OH260283   4.320   1.030  11.054  0.4868  0.0104 -0.3534
12931TIP3    H160284   4.343   1.005  11.143 -0.5456  0.8308  0.1703
12931TIP3    H260285   4.400   1.066  11.017  1.3675 -1.8405 -0.3356
12932TIP3   OH260286   4.007   1.299  16.454  0.0667  0.0180 -0.0458
12932TIP3    H160287   4.040   1.326  16.539  2.4021 -1.0084 -0.5433
12932TIP3    H260288   4.065   1.227  16.427 -1.2564 -0.3983 -2.0316
12933TIP3   OH260289   0.510   6.137   6.058 -0.6936 -0.0130  0.1291
12933TIP3    H160290   0.421   6.133   6.095 -0.5033  0.5690  0.6772
12933TIP3    H260291   0.562   6.083   6.118 -0.8524 -1.1929 -0.7628
12934TIP3   OH260292   4.010   1.928  13.017  0.1488  0.6403 -0.4915
12934TIP3    H160293   4.085   1.916  12.959  0.4071  0.8656 -0.2043
12934TIP3    H260294   3.942   1.965  12.961  1.3040  3.6439 -0.0590
12935TIP3   OH260295   3.126   6.638   5.360 -0.0202 -0.0408  0.3651
12935TIP3    H160296   3.102   6.624   5.268 -0.6639  1.1662  0.3365
12935TIP3    H260297   3.044   6.662   5.403  0.0993 -1.4791  1.4628
12936TIP3   OH260298   2.248   6.744   2.594 -0.4481  0.9087  0.2867
12936TIP3    H160299   2.242   6.652   2.620  0.4814  1.2987  2.1100
12936TIP3    H260300   2.240   6.743   2.499 -2.2701 -0.8604  0.3861
12937TIP3   OH260301   3.816   5.879   5.283  0.7406 -0.3560 -0.1322
12937TIP3    H160302   3.820   5.787   5.259 -0.8587 -0.7431  0.9224
12937TIP3    H260303   3.901   5.897   5.324  1.5760 -0.9841 -1.5329
12938TIP3   OH260304   6.050   5.728   6.554 -0.2011  0.0484  0.3634
12938TIP3    H160305   5.979   5.693   6.608 -0.6137  0.0954 -0.1426
12938TIP3    H260306   6.127   5.677   6.580 -0.1455  0.8177  1.7929
12939TIP3   OH260307   4.345   1.674  12.127  0.6251 -0.4188  0.4142
12939TIP3    H160308   4.286   1.675  12.052  0.2385 -0.2918  0.7182
12939TIP3    H260309   4.432   1.661  12.089  0.5622  0.6750 -0.1446
12940TIP3   OH260310   4.445   2.694   2.978 -0.2081  0.1657 -0.0586
12940TIP3    H160311   4.488   2.612   2.957  0.5790  0.9020 -1.4634
12940TIP3    H260312   4.474   2.755   2.910 -3.0765  0.8581 -0.8010
12941TIP3   OH260313   0.211   2.413   0.985  0.1813 -0.0180  0.3591
12941TIP3    H160314   0.275   2.348   1.015  1.2130  0.5382 -0.5625
12941TIP3    H260315   0.134   2.361   0.959  0.5546 -0.7667  0.7182
12942TIP3   OH260316   3.490   0.827   3.680  0.0649 -0.2823 -0.1369
12942TIP3    H160317   3.571   0.857   3.720  2.0458 -2.3204 -2.2615
12942TIP3    H260318   3.462   0.753   3.734  1.4799 -1.5934 -1.1022
12943TIP3   OH260319   1.008   1.486  15.896 -0.2595  0.3310 -0.3583
12943TIP3    H160320   0.985   1.433  15.820 -0.8261  1.9523 -1.3718
12943TIP3    H260321   1.056   1.426  15.953 -3.3278 -2.0666 -0.0453
12944TIP3   OH260322   6.508   0.023   5.707  0.1484  0.5230 -0.2681
12944TIP3    H160323   6.496   0.008   5.613 -0.8354  1.1425 -0.2564
12944TIP3    H260324   6.468   0.109   5.722  0.9944  0.7806  0.5846
12945TIP3   OH260325   5.369   0.287  16.958  0.0871 -0.1795 -0.5599
12945TIP3    H160326   5.319   0.292  16.877  0.9304 -0.4172 -1.1126
12945TIP3    H260327   5.353   0.371  17.002 -1.0235 -0.3749 -0.5655
12946TIP3   OH260328   0.871   6.412  11.837  0.3938 -0.4233  0.4928
12946TIP3    H160329   0.853   6.319  11.825  1.5561 -0.6908  0.7515
12946TIP3    H260330   0.857   6.427  11.930 -3.9021  0.6202 -0.0895
12947TIP3   OH260331   4.486   0.131  11.860  0.2820  0.2483  0.4259
12947TIP3    H160332   4.492   0.102  11.951  4.0448  1.2900  0.6857
12947TIP3    H260333   4.443   0.059  11.814 -2.2172 -0.0903  3.0396
12948TIP3   OH260334   3.597   3.366  15.757  0.5134  0.3175  0.2350
12948TIP3    H160335   3.685   3.400  15.746  0.8749 -0.9181 -0.8809
12948TIP3    H260336   3.540   3.442  15.742  1.3435  0.9148  0.0453
12949TIP3   OH260337   6.680   5.335  16.641 -0.4032  0.2299 -0.1519
12949TIP3    H160338   6.727   5.361  16.720  1.3089 -1.0991 -0.6608
12949TIP3    H260339   6.635   5.254  16.666 -0.4170  0.1801 -0.3356
12950TIP3   OH260340   5.559   5.697  12.937  0.3584  0.0032 -0.2584
12950TIP3    H160341   5.596   5.683  13.024  0.1383  0.5070 -0.0750
12950TIP3    H260342   5.558   5.611  12.896 -0.6140 -0.4468  0.6642
12951TIP3   OH260343   1.805   6.103  12.128  0.5181 -0.5891  0.5047
12951TIP3    H160344   1.850   6.025  12.096 -0.8596 -1.7903  1.3703
12951TIP3    H260345   1.732   6.115  12.068  3.0447  2.7453 -2.3532
12952TIP3   OH260346   5.637   4.496   4.746 -0.4147 -0.5794  0.0106
12952TIP3    H160347   5.651   4.588   4.766  0.1891 -0.7991  0.6260
12952TIP3    H260348   5.649   4.490   4.652 -1.2894  0.1138 -0.1646
12953TIP3   OH260349   1.546   3.978   1.430  0.0709 -0.3843  0.0667
12953TIP3    H160350   1.624   3.937   1.465 -0.1178 -0.9369 -0.1496
12953TIP3    H260351   1.481   3.971   1.500 -0.5534 -2.2061 -0.6295
12954TIP3   OH260352   3.962   0.835   4.087 -0.1153  0.1725  0.3788
12954TIP3    H160353   3.917   0.752   4.103  1.0252 -0.6935 -0.6799
12954TIP3    H260354   3.924   0.896   4.151 -2.5343 -0.5634 -0.2612
12955TIP3   OH260355   4.808   6.742   1.907  0.0042  0.2783  0.2867
12955TIP3    H160356   4.794   6.673   1.971 -0.8378 -0.3571 -0.5424
12955TIP3    H260357   4.797   6.699   1.822  0.3838  1.2399 -0.2719
12956TIP3   OH260358   0.453   2.671   4.438  0.3639  0.3839 -0.5158
12956TIP3    H160359   0.539   2.707   4.457 -0.3713  2.1366 -0.3569
12956TIP3    H260360   0.400   2.693   4.515 -0.3377 -0.3453 -0.7720
12957TIP3   OH260361   4.661   2.148   5.446  0.1985 -1.0172  0.4167
12957TIP3    H160362   4.644   2.110   5.533  1.6538  1.2083  1.7756
12957TIP3    H260363   4.584   2.203   5.430 -0.5483 -2.1947 -0.2339
12958TIP3   OH260364   2.071   5.305  13.718 -0.0018  0.3527 -0.1064
12958TIP3    H160365   2.154   5.337  13.682  0.7162 -1.2988 -0.0356
12958TIP3    H260366   2.024   5.270  13.643  0.2717 -0.5551  0.1338
12959TIP3   OH260367   2.486   2.862   0.821 -0.5074 -0.0378  0.1604
12959TIP3    H160368   2.411   2.846   0.878 -1.3360  0.5600 -0.7166
12959TIP3    H260369   2.507   2.776   0.784 -0.9109 -0.1717  0.2395
12960TIP3   OH260370   4.273   0.815  13.669  0.6870 -0.2900  0.2553
12960TIP3    H160371   4.355   0.860  13.685 -0.1680  0.6958  2.1578
12960TIP3    H260372   4.227   0.818  13.752 -1.5418 -0.2816 -0.8908
12961TIP3   OH260373   0.446   1.086   5.257 -0.2379  0.4667  0.3478
12961TIP3    H160374   0.468   1.035   5.336  0.1935  4.2766  2.9317
12961TIP3    H260375   0.365   1.046   5.225 -0.1658 -1.5436  2.4220
12962TIP3   OH260376   0.231   2.673  11.974 -0.2619 -0.1223  0.1537
12962TIP3    H160377   0.160   2.708  11.921 -1.3703  0.1052  1.7369
12962TIP3    H260378   0.259   2.746  12.030 -0.9594 -1.0473  1.7743
12963TIP3   OH260379   1.236   0.294  12.705  0.1228 -0.3103 -0.0821
12963TIP3    H160380   1.156   0.297  12.758 -0.8820 -1.2715 -1.4500
12963TIP3    H260381   1.307   0.311  12.767 -1.0104 -0.9987  1.4812
12964TIP3   OH260382   5.143   5.763   2.918 -0.1628 -0.0578  0.7843
12964TIP3    H160383   5.085   5.686   2.919 -1.2714  0.6171 -2.1927
12964TIP3    H260384   5.187   5.760   3.003  0.5633 -4.5115  0.4959
12965TIP3   OH260385   4.193   2.123   5.480 -0.0697 -0.2810  0.0285
12965TIP3    H160386   4.133   2.079   5.541  0.4168 -0.1840  0.5898
12965TIP3    H260387   4.261   2.059   5.463  0.0082 -0.1637 -0.0932
12966TIP3   OH260388   4.387   3.596  11.397 -0.0965  0.2614 -0.2253
12966TIP3    H160389   4.344   3.664  11.344  0.7650  1.3770  0.4519
12966TIP3    H260390   4.471   3.582  11.352 -0.5671 -0.9083 -0.7707
12967TIP3   OH260391   0.781   5.892  11.783 -0.4196 -0.7822 -0.8095
12967TIP3    H160392   0.689   5.909  11.762 -0.6444 -2.5114 -1.3241
12967TIP3    H260393   0.778   5.833  11.858  0.1791 -2.9734 -2.4305
12968TIP3   OH260394   4.949   0.830  15.013 -0.6092 -0.2686 -0.1481
12968TIP3    H160395   4.930   0.776  15.090 -1.5947  1.0433  0.5726
12968TIP3    H260396   4.964   0.768  14.942 -0.0475 -1.5053  1.0157
12969TIP3   OH260397   6.219   5.442   2.798  0.4580  0.3455 -0.5004
12969TIP3    H160398   6.282   5.371   2.783 -1.4293 -1.7522  0.9217
12969TIP3    H260399   6.254   5.516   2.748  1.5448 -2.1280 -3.7342
12970TIP3   OH260400   0.547   4.653   2.768  0.0956  0.2220  0.2972
12970TIP3    H160401   0.556   4.690   2.856 -0.2750  0.3711  0.2742
12970TIP3    H260402   0.456   4.671   2.744  0.1348 -0.0147 -0.0279
12971TIP3   OH260403   5.340   2.728  13.906  0.3272 -0.3861  0.6814
12971TIP3    H160404   5.306   2.815  13.927  0.5361  0.2902 -1.4707
12971TIP3    H260405   5.263   2.671  13.907 -0.3395  0.4199 -0.6016
12972TIP3   OH260406   4.591   4.248  11.022  0.1250 -0.0402  0.7329
12972TIP3    H160407   4.619   4.338  11.008 -0.0726  0.3199  2.4880
12972TIP3    H260408   4.583   4.212  10.933 -0.4731  1.8499 -0.0375
12973TIP3   OH260409   1.596   4.894   5.493 -0.4546 -0.7846  0.1628
12973TIP3    H160410   1.517   4.864   5.538 -0.4866 -1.7231 -0.5027
12973TIP3    H260411   1.587   4.990   5.490 -0.0113 -0.5750  2.9375
12974TIP3   OH260412   0.191   3.490  12.574 -0.1652 -0.4353  0.3728
12974TIP3    H160413   0.103   3.484  12.538  0.5330 -2.0242 -1.2313
12974TIP3    H260414   0.243   3.530  12.505  0.6099 -0.6436  0.8144
12975TIP3   OH260415   2.221   0.147   4.872 -0.4055  0.0744  0.0705
12975TIP3    H160416   2.216   0.074   4.811 -2.1284  0.1708  0.0497
12975TIP3    H260417   2.160   0.123   4.942  0.4747  0.6154  1.0504
12976TIP3   OH260418   0.969   5.401   0.261  0.0892 -0.3840  0.4009
12976TIP3    H160419   0.894   5.367   0.310  0.5437 -1.7557  0.1758
12976TIP3    H260420   0.937   5.405   0.170  0.0381 -0.2066  0.4263
12977TIP3   OH260421   3.546   0.168  12.540 -0.4899  0.3236  0.2471
12977TIP3    H160422   3.536   0.099  12.474 -0.1422  0.2069  0.3164
12977TIP3    H260423   3.501   0.133  12.617  0.1111 -0.0421  0.4396
12978TIP3   OH260424   3.371   0.822   4.432 -0.2305  0.2714 -0.5236
12978TIP3    H160425   3.277   0.813   4.416 -0.4439  0.2983  0.6439
12978TIP3    H260426   3.378   0.894   4.495  0.7206  1.4938 -1.9419
12979TIP3   OH260427   0.018   0.094  14.994 -0.2241  0.3637  0.1462
12979TIP3    H160428   0.048   0.178  15.029 -0.3028  0.0226  1.0374
12979TIP3    H260429   0.097   0.054  14.958  0.2310 -0.0822  1.5785
12980TIP3   OH260430   6.440   5.140  12.333  0.1583  0.1461 -0.3592
12980TIP3    H160431   6.386   5.149  12.411 -2.3230  0.8155 -2.0146
12980TIP3    H260432   6.499   5.214  12.336 -2.4018  2.3777 -0.8317
12981TIP3   OH260433   0.782   5.122   4.979 -0.4260  0.6782  0.1205
12981TIP3    H160434   0.768   5.059   4.909  2.3450 -2.0051  1.7251
12981TIP3    H260435   0.718   5.097   5.046 -0.8454  1.0833 -0.1231
12982TIP3   OH260436   0.501   5.598  13.325 -0.7940 -0.0454  0.0807
12982TIP3    H160437   0.536   5.525  13.275  0.2879 -0.4772  1.4174
12982TIP3    H260438   0.479   5.664  13.259  0.4597 -0.6449 -0.9693
12983TIP3   OH260439   3.656   6.316   5.904 -0.5751 -0.6052 -0.3566
12983TIP3    H160440   3.709   6.396   5.902  0.2148 -1.1120 -0.1749
12983TIP3    H260441   3.597   6.329   5.978  0.3460 -0.6599  0.4180
12984TIP3   OH260442   0.215   1.607   4.992  0.5859  0.1240 -0.6426
12984TIP3    H160443   0.205   1.699   4.967 -0.7205 -0.0979 -1.0189
12984TIP3    H260444   0.288   1.576   4.939  0.8615  0.8716 -0.7176
12985TIP3   OH260445   5.855   3.900   3.211  0.5550  0.1210 -0.2374
12985TIP3    H160446   5.827   3.870   3.298  2.7681  0.8685  0.8231
12985TIP3    H260447   5.889   3.821   3.169  1.3154  0.1007  0.3867
12986TIP3   OH260448   4.904   1.771   1.313 -0.1770  0.3323  0.1708
12986TIP3    H160449   4.820   1.793   1.352  0.3375  2.9756 -0.0784
12986TIP3    H260450   4.962   1.755   1.388 -0.5099 -0.0352  0.3559
12987TIP3   OH260451   4.680   0.791   3.494  0.0476  0.4657  0.0052
12987TIP3    H160452   4.739   0.863   3.517  2.3924 -1.4717  0.5225
12987TIP3    H260453   4.666   0.745   3.577 -0.2140 -0.4865 -0.5602
12988TIP3   OH260454   3.867   0.031  11.391 -0.3395 -0.3131  0.0977
12988TIP3    H160455   3.950   0.053  11.433  0.1851 -1.1688 -0.4480
12988TIP3    H260456   3.852   0.103  11.329  2.0226 -1.9232 -2.6270
12989TIP3   OH260457   2.428   4.599   5.603 -0.0211 -0.2453 -0.6587
12989TIP3    H160458   2.502   4.538   5.599  0.5713  0.3445  0.5700
12989TIP3    H260459   2.434   4.650   5.522  1.5862  0.4921 -0.1327
12990TIP3   OH260460   0.791   6.121  14.382  0.5331  0.2679 -0.3873
12990TIP3    H160461   0.815   6.213  14.373  0.3455  0.2962 -0.6176
12990TIP3    H260462   0.789   6.088  14.292 -0.9159  0.4216 -0.4372
12991TIP3   OH260463   2.028   1.331  14.437  0.4174 -0.1595 -0.5480
12991TIP3    H160464   2.071   1.415  14.447 -1.3388  0.6356  1.0708
12991TIP3    H260465   1.939   1.352  14.410  0.3770 -1.6004 -1.6758
12992TIP3   OH260466   1.006   5.705  12.328  0.6139  0.1362 -0.5506
12992TIP3    H160467   1.091   5.700  12.371  0.1425 -4.6610  0.2903
12992TIP3    H260468   1.024   5.680  12.237  0.1950 -0.4274 -0.4837
12993TIP3   OH260469   6.528   0.209  16.025 -0.1332  0.1613 -0.0100
12993TIP3    H160470   6.587   0.174  16.091 -1.1497 -1.9894 -0.1369
12993TIP3    H260471   6.585   0.241  15.955  0.8980  0.4152  0.9269
12994TIP3   OH260472   0.188   2.274  16.700 -0.6118 -0.0112  0.2153
12994TIP3    H160473   0.203   2.287  16.794 -1.7307 -0.4957  0.4814
12994TIP3    H260474   0.271   2.240  16.667 -0.9546 -2.4735  1.5832
12995TIP3   OH260475   0.674   4.775   3.566 -0.0681 -0.1337  0.0505
12995TIP3    H160476   0.759   4.772   3.611  0.7827 -1.6434 -1.5459
12995TIP3    H260477   0.640   4.686   3.573  0.5993 -0.7735 -3.0254
12996TIP3   OH260478   0.705   5.051   0.929  0.1799  0.3973  0.5004
12996TIP3    H160479   0.671   5.113   0.863 -0.8249  0.2103  0.8146
12996TIP3    H260480   0.748   5.106   0.994 -1.5066  0.8912  1.2556
12997TIP3   OH260481   5.367   2.714  17.038  0.0442 -0.3405 -0.1035
12997TIP3    H160482   5.280   2.732  17.073 -0.0494 -0.5887 -0.2061
12997TIP3    H260483   5.368   2.762  16.955  0.5948  1.0048  0.6432
12998TIP3   OH260484   2.575   5.482   3.541  0.4208  0.1768 -0.2231
12998TIP3    H160485   2.573   5.473   3.636 -0.2363 -0.0985 -0.2543
12998TIP3    H260486   2.627   5.560   3.525 -1.2968  1.5172  0.4670
12999TIP3   OH260487   5.742   4.280   6.497  0.1107 -0.0399  0.1116
12999TIP3    H160488   5.664   4.290   6.442 -0.1547  2.2499  0.8021
12999TIP3    H260489   5.815   4.298   6.439 -0.0773  0.7799  0.1153
13000TIP3   OH260490   1.441   6.229  14.535  0.1876  0.6351 -0.1339
13000TIP3    H160491   1.530   6.213  14.504 -0.5016 -3.4694 -0.5572
13000TIP3    H260492   1.385   6.199  14.464 -1.4522 -0.1888  1.4077
13001TIP3   OH260493   0.122   6.799  10.432  0.8396 -0.1278 -0.5326
13001TIP3    H160494   0.074   6.719  10.452 -0.1254  0.1942 -1.5155
13001TIP3    H260495   0.095   6.860  10.501  1.6088 -0.6305  0.2428
13002TIP3   OH260496   5.586   1.227   1.344 -0.9223 -0.1059  0.2269
13002TIP3    H160497   5.524   1.200   1.411 -1.0912  1.0993  0.5870
13002TIP3    H260498   5.576   1.322   1.338  0.5610  0.0735 -0.0253
13003TIP3   OH260499   3.041   4.590   3.581 -0.0054 -0.4775  0.9719
13003TIP3    H160500   3.097   4.584   3.503 -0.1244  0.7153  0.7795
13003TIP3    H260501   3.093   4.640   3.643 -0.8703  0.6986  0.7688
13004TIP3   OH260502   3.017   4.253  12.809 -0.2765  0.0933 -0.1812
13004TIP3    H160503   2.988   4.162  12.798 -0.9388 -0.0237  2.0456
13004TIP3    H260504   2.943   4.305  12.777 -0.3810 -0.1561 -0.3526
13005TIP3   OH260505   6.407   3.150  15.083  0.2810 -0.2991  0.3612
13005TIP3    H160506   6.430   3.237  15.116  1.2140 -0.9566  1.5314
13005TIP3    H260507   6.432   3.090  15.153 -2.3704 -1.3736  0.5181
13006TIP3   OH260508   1.550   3.711  14.299 -0.2958  0.3381 -0.2963
13006TIP3    H160509   1.645   3.721  14.305 -0.1240  0.6311 -2.6106
13006TIP3    H260510   1.520   3.795  14.265 -1.2172 -0.2627 -0.9822
13007TIP3   OH260511   2.180   6.452  11.571  0.0276 -0.6049  0.1798
13007TIP3    H160512   2.138   6.498  11.644  0.7971  1.9393 -0.8627
13007TIP3    H260513   2.110   6.400  11.531 -1.3838  1.0551  0.3915
13008TIP3   OH260514   6.459   1.046  12.725  0.1136 -0.1658 -0.3920
13008TIP3    H160515   6.379   1.070  12.679 -0.5605  2.1602  1.7759
13008TIP3    H260516   6.429   0.998  12.802  1.0881 -2.2669 -1.2471
13009TIP3   OH260517   6.207   6.696   4.114  0.6720 -0.6237 -0.0865
13009TIP3    H160518   6.113   6.701   4.094  0.5436 -0.2306  0.5741
13009TIP3    H260519   6.226   6.778   4.161  1.7794  0.2428 -1.9201
13010TIP3   OH260520   4.792   0.681  16.200  0.5208  0.4933  0.2093
13010TIP3    H160521   4.841   0.634  16.267  0.5439 -0.3464 -0.3859
13010TIP3    H260522   4.858   0.704  16.134  0.2857  0.2423 -0.1139
13011TIP3   OH260523   3.109   3.391  10.935 -0.4446 -0.3430 -0.5205
13011TIP3    H160524   3.059   3.310  10.948 -0.9877 -0.0661 -0.8385
13011TIP3    H260525   3.068   3.432  10.859 -0.4438  0.4328 -0.1084
13012TIP3   OH260526   6.091   6.173   5.883 -0.1884 -0.6441  0.6170
13012TIP3    H160527   6.159   6.115   5.917 -0.0580 -0.1740  1.1687
13012TIP3    H260528   6.132   6.215   5.807  0.1719 -0.2966  1.0009
13013TIP3   OH260529   5.586   2.524  14.893  0.2529  0.2276  0.0354
13013TIP3    H160530   5.667   2.571  14.915  0.7006 -0.2718 -0.4903
13013TIP3    H260531   5.520   2.560  14.952  1.6635 -2.0170  3.1971
13014TIP3   OH260532   2.063   2.841   4.386  1.1623 -0.1023 -0.5382
13014TIP3    H160533   2.086   2.912   4.447 -1.8741  0.0988  0.5495
13014TIP3    H260534   2.097   2.870   4.302  1.6000  1.7670  0.2287
13015TIP3   OH260535   4.044   6.053   1.901 -0.1988  0.1056 -0.4883
13015TIP3    H160536   3.987   6.113   1.855 -0.5067 -0.8105 -1.3349
13015TIP3    H260537   4.092   6.007   1.832  0.3960 -0.2669  0.1542
13016TIP3   OH260538   0.481   3.122   3.263 -0.1863 -0.2215  0.0180
13016TIP3    H160539   0.408   3.074   3.303  0.5233 -0.4812  1.0543
13016TIP3    H260540   0.539   3.054   3.229 -0.0763 -0.0463 -0.1483
13017TIP3   OH260541   1.170   2.308   1.025 -0.1869 -0.3110  0.0905
13017TIP3    H160542   1.108   2.358   1.078 -1.9435 -2.2828  0.0160
13017TIP3    H260543   1.170   2.221   1.063  1.8511 -0.6446 -0.5390
13018TIP3   OH260544   4.644   0.006  14.712 -0.5754  0.2147  0.0758
13018TIP3    H160545   4.621   0.082  14.764  0.4201  1.1494 -0.8043
13018TIP3    H260546   4.639   0.036  14.622  0.4976 -0.5543 -0.2572
13019TIP3   OH260547   4.306   2.715  13.081  0.8099  0.1821 -0.3790
13019TIP3    H160548   4.293   2.806  13.106 -0.3589 -0.0045 -0.2606
13019TIP3    H260549   4.218   2.677  13.081  1.2922 -0.9804 -0.2754
13020TIP3   OH260550   2.341   5.226   6.104 -0.5419 -0.0496  0.5437
13020TIP3    H160551   2.280   5.292   6.137 -2.9593 -0.9938 -1.6496
13020TIP3    H260552   2.307   5.143   6.138  0.9026 -0.4401  1.1074
13021TIP3   OH260553   3.044   5.347   4.449  0.3011 -0.0474 -0.2121
13021TIP3    H160554   3.118   5.366   4.506  1.0772 -0.0499 -1.1900
13021TIP3    H260555   3.064   5.261   4.412 -0.6497 -0.4661  0.2179
13022TIP3   OH260556   2.479   0.958  14.071  0.1276  0.3634  0.1369
13022TIP3    H160557   2.490   0.904  13.993  0.3038  0.2951  0.2069
13022TIP3    H260558   2.385   0.971  14.079 -0.0458 -1.1202  0.9126
13023TIP3   OH260559   2.955   3.259   2.518 -0.3392 -0.5477 -0.0058
13023TIP3    H160560   2.894   3.305   2.575  1.4586  1.5538  0.3580
13023TIP3    H260561   2.941   3.297   2.431  1.3778  1.0587  0.3572
13024TIP3   OH260562   3.472   4.692  11.164  0.2013 -0.0976  0.2033
13024TIP3    H160563   3.405   4.651  11.109  0.6396 -1.3348  0.5759
13024TIP3    H260564   3.552   4.688  11.112 -0.0785  1.9170 -0.4925
13025TIP3   OH260565   3.713   2.979  12.308 -0.1267 -0.7715  0.0088
13025TIP3    H160566   3.772   2.943  12.242 -0.6187 -1.9176  0.1507
13025TIP3    H260567   3.656   2.905  12.330 -0.3718 -0.2266  1.2581
13026TIP3   OH260568   2.276   6.318   2.324  0.6010  0.0939 -0.4739
13026TIP3    H160569   2.332   6.378   2.373  0.1782  1.4243 -1.5739
13026TIP3    H260570   2.337   6.272   2.266  0.7253  0.5726 -0.7238
13027TIP3   OH260571   5.922   0.886   3.399 -0.5539 -0.3219  0.4281
13027TIP3    H160572   5.833   0.917   3.385 -1.1068 -2.1485 -0.4986
13027TIP3    H260573   5.978   0.959   3.373 -1.7734  0.2655 -0.6483
13028TIP3   OH260574   6.502   5.942  15.103 -0.2347  0.0693  0.1732
13028TIP3    H160575   6.485   6.031  15.133 -0.0586  0.0822  0.2317
13028TIP3    H260576   6.574   5.950  15.042 -1.7313  0.2983 -1.6581
13029TIP3   OH260577   1.419   2.882   0.171 -0.0727 -0.1786 -0.7599
13029TIP3    H160578   1.467   2.828   0.108 -1.1279 -1.7692 -0.2597
13029TIP3    H260579   1.481   2.949   0.198  2.6266 -3.2899  1.4112
13030TIP3   OH260580   1.354   1.859   4.296  0.1668 -0.0693 -0.6470
13030TIP3    H160581   1.309   1.943   4.308 -0.1873 -0.1847 -1.1636
13030TIP3    H260582   1.445   1.883   4.276  0.2150  0.1745 -0.1585
13031TIP3   OH260583   0.243   4.054  16.239  0.6526  0.0015  0.0143
13031TIP3    H160584   0.211   3.968  16.265  1.9000 -0.6664 -0.5801
13031TIP3    H260585   0.170   4.113  16.257 -0.9637 -1.4561 -1.3863
13032TIP3   OH260586   5.985   4.094   2.738  0.2138  0.3135 -0.4170
13032TIP3    H160587   5.965   4.068   2.648 -0.7148 -0.1306 -0.0969
13032TIP3    H260588   5.959   4.186   2.742 -1.5974 -0.1754 -0.0896
13033TIP3   OH260589   2.802   3.519  11.868 -0.3862  0.3307 -0.0432
13033TIP3    H160590   2.718   3.474  11.867 -1.7859  2.7459  0.9985
13033TIP3    H260591   2.808   3.561  11.783  0.2605 -0.6065 -0.4809
13034TIP3   OH260592   4.725   2.727  11.695  0.7462 -0.0225 -0.4024
13034TIP3    H160593   4.658   2.783  11.732 -1.7952 -4.2585  2.2949
13034TIP3    H260594   4.702   2.718  11.603 -0.8301  0.6208 -0.0941
13035TIP3   OH260595   3.450   6.673  14.818  0.0757 -0.6914  0.0152
13035TIP3    H160596   3.429   6.762  14.789 -1.8482 -1.4054 -0.9602
13035TIP3    H260597   3.544   6.675  14.834  0.4450  1.0284 -1.8557
13036TIP3   OH260598   5.436   1.704   2.832 -0.4105 -0.5053  0.2336
13036TIP3    H160599   5.474   1.624   2.870  0.8092 -0.9613 -1.7726
13036TIP3    H260600   5.501   1.772   2.849 -0.1081 -0.5948 -0.5302
13037TIP3   OH260601   6.748   4.249   1.448  0.0788 -0.1056  0.5879
13037TIP3    H160602   6.701   4.290   1.520 -1.6083 -1.3108  0.2652
13037TIP3    H260603   6.786   4.169   1.486 -0.9551 -0.8308  0.1658
13038TIP3   OH260604   3.232   4.615  12.254  1.0264  0.2779  0.2133
13038TIP3    H160605   3.227   4.522  12.276  1.0667  0.4357  0.9058
13038TIP3    H260606   3.148   4.651  12.283  0.0518  0.0441 -2.1128
13039TIP3   OH260607   3.358   1.823   4.125 -0.1079  0.1839 -0.2403
13039TIP3    H160608   3.298   1.792   4.193  0.8652  0.5448  0.8002
13039TIP3    H260609   3.320   1.790   4.043 -2.1314  1.0529  0.3004
13040TIP3   OH260610   2.964   1.840  10.712  0.4781  0.4593 -0.2175
13040TIP3    H160611   2.978   1.746  10.726  1.6880  0.4559 -1.2196
13040TIP3    H260612   3.052   1.877  10.714  0.1513  1.3362 -1.3858
13041TIP3   OH260613   2.531   2.624   0.691  0.1386  0.2709  0.0523
13041TIP3    H160614   2.574   2.539   0.705  0.3435  0.3600 -0.0238
13041TIP3    H260615   2.597   2.676   0.643  1.0444  1.3542  2.3430
13042TIP3   OH260616   1.284   3.622   2.714  0.6185 -0.1071  0.0840
13042TIP3    H160617   1.370   3.646   2.681 -0.2145 -1.0350 -3.1278
13042TIP3    H260618   1.234   3.704   2.714  1.3566  0.3947  1.7682
13043TIP3   OH260619   1.383   6.480  14.211  0.9302 -0.4498  0.2788
13043TIP3    H160620   1.290   6.486  14.191  0.7698 -0.8442  0.8773
13043TIP3    H260621   1.425   6.540  14.149  0.2972 -0.3947 -0.1007
13044TIP3   OH260622   6.564   2.916  14.518  0.3326 -0.8512  0.3651
13044TIP3    H160623   6.555   2.991  14.460  0.8641 -0.5416  0.6800
13044TIP3    H260624   6.476   2.904  14.555  0.0224 -0.9664 -0.3802
13045TIP3   OH260625   1.550   0.586   5.072  0.3734  0.4612 -0.4079
13045TIP3    H160626   1.476   0.638   5.040 -0.6646 -1.2724 -0.9584
13045TIP3    H260627   1.536   0.580   5.166 -0.2966  0.0015 -0.5305
13046TIP3   OH260628   2.395   2.127  12.569 -0.1787 -0.6494 -0.3994
13046TIP3    H160629   2.435   2.201  12.524  1.8084 -0.1949  1.9473
13046TIP3    H260630   2.468   2.081  12.611 -1.7293 -1.9933  0.9870
13047TIP3   OH260631   0.873   5.300  16.254  0.2181  0.9089  0.5322
13047TIP3    H160632   0.818   5.231  16.216 -1.9971  1.7470  2.0295
13047TIP3    H260633   0.881   5.365  16.184 -1.4021  1.1186  0.5039
13048TIP3   OH260634   1.723   4.585   1.473  0.0069  0.0922 -0.0218
13048TIP3    H160635   1.795   4.581   1.410 -0.7334 -0.0364 -0.8854
13048TIP3    H260636   1.751   4.650   1.537  1.1225 -0.3493 -0.0273
13049TIP3   OH260637   2.037   2.827  10.917 -0.1124  0.1954 -0.0936
13049TIP3    H160638   2.019   2.918  10.940  0.6751  0.5257 -0.7523
13049TIP3    H260639   1.956   2.796  10.877 -1.1571 -0.0749  2.0666
13050TIP3   OH260640   2.113   6.516  16.656  1.3611 -0.2985 -0.1833
13050TIP3    H160641   2.195   6.470  16.674  0.6308 -1.2684  0.8309
13050TIP3    H260642   2.051   6.479  16.719  0.5727  1.6648  0.2450
13051TIP3   OH260643   1.076   4.248  11.219  0.1075  0.4757 -0.1355
13051TIP3    H160644   1.065   4.153  11.226  0.7949  0.4533  0.7968
13051TIP3    H260645   1.060   4.280  11.307 -0.8124  1.3103 -0.5977
13052TIP3   OH260646   4.898   5.424  13.694  0.4788  0.7153 -0.0881
13052TIP3    H160647   4.969   5.397  13.635 -0.3692 -0.3810 -0.6385
13052TIP3    H260648   4.927   5.509  13.727  2.5211 -0.1367  0.5055
13053TIP3   OH260649   2.777   0.996   0.628 -0.4831 -0.5912  0.3232
13053TIP3    H160650   2.869   0.971   0.613 -0.0600  0.1607  1.4984
13053TIP3    H260651   2.732   0.972   0.547  0.5386 -1.9743  0.1338
13054TIP3   OH260652   3.209   5.988  12.880  0.1702 -0.5690 -0.1350
13054TIP3    H160653   3.298   5.958  12.863  0.2898 -1.1715  1.3585
13054TIP3    H260654   3.153   5.923  12.838  0.4501 -1.3686  0.6843
13055TIP3   OH260655   6.482   5.754  16.921 -0.2008  0.1625  0.7605
13055TIP3    H160656   6.426   5.683  16.889  0.6735 -0.9527  1.6356
13055TIP3    H260657   6.423   5.812  16.969 -1.4190  1.4770 -2.0573
13056TIP3   OH260658   0.104   4.011  13.589  0.3758  0.2037  0.1377
13056TIP3    H160659   0.010   4.019  13.605 -0.0075  0.2851 -1.9031
13056TIP3    H260660   0.111   3.939  13.526  1.8953 -1.2457  1.8608
13057TIP3   OH260661   0.206   3.436  15.194  0.2408 -0.0894 -0.1935
13057TIP3    H160662   0.211   3.427  15.099 -1.3246 -0.0321 -0.3208
13057TIP3    H260663   0.276   3.381  15.228  0.4638 -0.5537 -1.3714
13058TIP3   OH260664   0.816   6.303  14.694 -0.3872  0.1458  0.4541
13058TIP3    H160665   0.821   6.349  14.611  0.4247  1.6552  1.2948
13058TIP3    H260666   0.729   6.264  14.695  0.0217 -0.9159 -1.5917
13059TIP3   OH260667   6.264   4.323  12.266  0.2223  0.3611 -0.1526
13059TIP3    H160668   6.357   4.302  12.266  0.4205  1.1975 -0.4463
13059TIP3    H260669   6.260   4.416  12.290 -0.5996  0.0714  0.9203
13060TIP3   OH260670   5.681   3.645   5.351  0.2146  0.1293 -0.0056
13060TIP3    H160671   5.608   3.588   5.375 -0.2074  0.8406  0.4335
13060TIP3    H260672   5.715   3.608   5.269 -0.7412 -0.1045 -0.3015
13061TIP3   OH260673   3.232   6.003   0.039  0.0688 -0.0343  0.4524
13061TIP3    H160674   3.251   5.962   0.123 -0.6807  0.3100  0.7925
13061TIP3    H260675   3.319   6.018   0.000  0.4573  0.4270  1.4556
13062TIP3   OH260676   0.303   1.529  16.111  0.6097 -0.0900  0.0329
13062TIP3    H160677   0.302   1.595  16.181  0.0761 -0.4315  0.3540
13062TIP3    H260678   0.283   1.447  16.155  2.2333 -0.6481 -0.1926
13063TIP3   OH260679   5.274   3.259  12.410 -0.1638 -0.3807 -0.0558
13063TIP3    H160680   5.315   3.272  12.324  1.9706 -0.4327  0.8924
13063TIP3    H260681   5.337   3.207  12.459 -0.2378  1.5847  2.3079
13064TIP3   OH260682   5.116   0.274  12.253 -0.5490  0.3276  0.0064
13064TIP3    H160683   5.086   0.305  12.168 -1.5084 -2.3266 -0.7327
13064TIP3    H260684   5.041   0.285  12.311 -1.1828 -1.2337 -0.4653
13065TIP3   OH260685   2.218   2.519   0.245  0.1615 -0.5878 -0.5703
13065TIP3    H160686   2.139   2.561   0.279 -0.7076 -1.9059 -0.8880
13065TIP3    H260687   2.278   2.592   0.229 -0.6567  0.3678  0.4985
13066TIP3   OH260688   6.648   4.039  12.806 -0.6513 -0.7413 -0.3827
13066TIP3    H160689   6.557   4.036  12.835 -0.1333 -0.0019  1.4842
13066TIP3    H260690   6.657   3.965  12.746 -1.7418 -2.7223  1.7432
13067TIP3   OH260691   0.715   1.774  10.425  0.1713  0.7636 -0.2561
13067TIP3    H160692   0.695   1.681  10.420 -2.4103  1.2338 -0.4015
13067TIP3    H260693   0.780   1.789  10.356 -0.8761 -0.6155 -1.6129
13068TIP3   OH260694   3.576   3.948  15.058 -0.6070 -0.4163 -0.2620
13068TIP3    H160695   3.573   3.859  15.024  1.1978 -0.1355 -1.2439
13068TIP3    H260696   3.666   3.960  15.089 -0.3786  1.5128 -1.4740
13069TIP3   OH260697   3.466   6.444  13.587  0.6629  0.0689 -0.3464
13069TIP3    H160698   3.375   6.445  13.617 -0.1676  0.8233 -2.6304
13069TIP3    H260699   3.483   6.352  13.566  0.5310 -0.1230  0.3808
13070TIP3   OH260700   6.362   0.423  16.138 -0.1293  0.1703  0.0114
13070TIP3    H160701   6.321   0.354  16.190  1.4990 -0.9877 -0.1710
13070TIP3    H260702   6.454   0.398  16.132  0.6437  2.6170  0.3510
13071TIP3   OH260703   2.564   6.178   6.489 -0.0991  0.2161 -0.0688
13071TIP3    H160704   2.647   6.137   6.512 -0.1484 -0.3563 -0.8699
13071TIP3    H260705   2.557   6.167   6.394 -0.6126  1.1604 -0.1547
13072TIP3   OH260706   3.810   5.367  11.684 -0.4057  0.0831  0.8964
13072TIP3    H160707   3.822   5.293  11.624 -0.1705  0.3349  0.6282
13072TIP3    H260708   3.831   5.444  11.631  1.0056  0.2349  1.6160
13073TIP3   OH260709   3.710   2.657  14.443  0.1683  0.2959  0.2472
13073TIP3    H160710   3.616   2.641  14.451  0.1850  0.4109  0.6621
13073TIP3    H260711   3.719   2.697  14.356 -0.0651 -0.4407 -0.1310
13074TIP3   OH260712   2.601   2.718   6.160  0.0326 -0.3746  0.1715
13074TIP3    H160713   2.629   2.809   6.154  1.1377 -0.8375 -3.1820
13074TIP3    H260714   2.594   2.702   6.255 -0.4112  3.1801  0.8940
13075TIP3   OH260715   0.906   2.062   5.924  0.3124  0.3437 -0.6989
13075TIP3    H160716   0.813   2.043   5.933  0.4426  0.1757  0.3968
13075TIP3    H260717   0.914   2.155   5.948  0.4404  0.3395 -0.7250
13076TIP3   OH260718   6.622   0.910  13.013 -0.9438  0.8743  0.5192
13076TIP3    H160719   6.674   0.990  13.015 -1.1849  1.0480 -0.0824
13076TIP3    H260720   6.587   0.902  13.102 -1.0363  1.5107  0.5441
13077TIP3   OH260721   2.427   5.841  15.561  0.0694  0.1642 -0.1869
13077TIP3    H160722   2.504   5.893  15.586 -0.2196  1.5356 -1.9335
13077TIP3    H260723   2.380   5.896  15.498 -1.1563 -1.5693 -0.8751
13078TIP3   OH260724   4.256   2.774   3.646 -0.2965 -0.2663 -0.3335
13078TIP3    H160725   4.217   2.828   3.715 -1.4247 -1.2509 -0.1678
13078TIP3    H260726   4.334   2.822   3.619 -0.4876  0.7235  0.8025
13079TIP3   OH260727   5.590   4.378   2.381  0.0371 -0.4873 -0.2681
13079TIP3    H160728   5.495   4.387   2.385 -0.0012 -1.0089 -0.0038
13079TIP3    H260729   5.611   4.395   2.289 -0.2450  0.2100 -0.2100
13080TIP3   OH260730   4.436   5.249   1.633  0.0387  0.0059 -0.6238
13080TIP3    H160731   4.363   5.208   1.586 -2.6575 -1.3312  3.9871
13080TIP3    H260732   4.495   5.177   1.653 -1.1081 -0.4387  1.5086
13081TIP3   OH260733   1.361   3.193  14.075 -0.0350  0.2243 -0.4540
13081TIP3    H160734   1.391   3.204  13.985 -0.7512  0.1207 -0.7056
13081TIP3    H260735   1.305   3.116  14.073 -1.4727  1.2355 -0.2664
13082TIP3   OH260736   6.441   4.752  12.912  0.1444 -0.1021 -0.8200
13082TIP3    H160737   6.481   4.823  12.862 -2.5230  1.1516 -1.4095
13082TIP3    H260738   6.489   4.750  12.995  0.2777  2.4917 -0.7621
13083TIP3   OH260739   5.289   4.068  15.003 -0.2300 -0.2806  0.0125
13083TIP3    H160740   5.285   3.978  14.969  2.0430 -0.7848  0.9379
13083TIP3    H260741   5.372   4.103  14.971  1.0809 -0.0905  3.2198
13084TIP3   OH260742   3.657   3.157  16.360 -0.7864  0.5140 -1.1339
13084TIP3    H160743   3.738   3.198  16.390  0.0219 -1.4951 -0.3991
13084TIP3    H260744   3.677   3.126  16.272 -0.5409 -0.4656 -0.7482
13085TIP3   OH260745   2.679   0.054  13.871 -0.3321 -0.0163 -0.1854
13085TIP3    H160746   2.653   0.036  13.962 -3.3587 -1.5252 -1.2104
13085TIP3    H260747   2.641   0.140  13.852 -0.7862 -0.2611 -0.3885
13086TIP3   OH260748   6.025   6.469   5.936  0.8044  0.0428  0.7706
13086TIP3    H160749   6.033   6.466   6.031 -2.4945  2.1366  1.2404
13086TIP3    H260750   6.010   6.378   5.910  0.5272 -0.3845  2.3706
13087TIP3   OH260751   2.921   5.989  16.151  0.7272 -0.6174  0.3821
13087TIP3    H160752   2.852   6.028  16.098 -0.1733  1.0423  2.6149
13087TIP3    H260753   2.994   6.051  16.146  0.3436 -0.0446  1.6756
13088TIP3   OH260754   5.729   5.097  14.845 -0.4251  0.4496 -0.2417
13088TIP3    H160755   5.676   5.174  14.865  1.4598  1.8031 -0.2028
13088TIP3    H260756   5.727   5.045  14.926 -0.9758  0.8964  0.0388
13089TIP3   OH260757   6.281   1.029  17.134 -0.3931 -0.6577  0.0760
13089TIP3    H160758   6.344   1.061  17.199 -0.7374  1.3792 -0.5128
13089TIP3    H260759   6.335   0.992  17.065  0.2385  1.0621 -0.4179
13090TIP3   OH260760   2.930   2.332  15.771  0.6638  0.2420 -0.1522
13090TIP3    H160761   2.836   2.317  15.766  0.3425  2.3679 -1.7952
13090TIP3    H260762   2.952   2.319  15.863 -1.8794  2.9410  0.9661
13091TIP3   OH260763   0.508   0.282   5.648  0.0499  0.3463 -0.2337
13091TIP3    H160764   0.576   0.331   5.695 -0.0826  1.2942 -0.9890
13091TIP3    H260765   0.480   0.214   5.709  1.1813  0.3827  0.3534
13092TIP3   OH260766   0.707   2.813   3.585 -0.1380  0.8778  0.1813
13092TIP3    H160767   0.728   2.856   3.502 -1.8129  0.2311 -0.6439
13092TIP3    H260768   0.618   2.778   3.571  0.5540 -1.5431  1.2891
13093TIP3   OH260769   4.666   1.374  15.907  0.3303 -0.4298  0.0263
13093TIP3    H160770   4.669   1.446  15.843 -1.2810 -1.5888 -1.4610
13093TIP3    H260771   4.746   1.384  15.959  0.9701  1.4356 -1.2165
13094TIP3   OH260772   3.335   3.740   0.164 -0.1895  0.1662  0.6019
13094TIP3    H160773   3.278   3.678   0.119  0.2913  0.1945 -0.0557
13094TIP3    H260774   3.275   3.804   0.202 -0.8515 -1.6671  2.8954
13095TIP3   OH260775   0.481   0.605  16.634  0.8398  0.3956 -0.4625
13095TIP3    H160776   0.398   0.620  16.679  1.3198  0.1887  0.5252
13095TIP3    H260777   0.467   0.525  16.583  0.8319 -0.3928  0.7419
13096TIP3   OH260778   3.091   0.700   1.184  0.3825  0.1353 -0.7201
13096TIP3    H160779   3.031   0.725   1.114 -0.5547  0.3574  0.1342
13096TIP3    H260780   3.082   0.770   1.249 -1.0374 -1.5171  0.9777
13097TIP3   OH260781   0.753   5.670   5.202 -0.0754  0.2198 -0.2628
13097TIP3    H160782   0.754   5.751   5.254 -1.2124  0.1679 -0.1228
13097TIP3    H260783   0.670   5.628   5.226 -0.6436  0.1966 -2.1253
13098TIP3   OH260784   1.419   3.458   5.541 -0.5005 -0.0637 -1.1382
13098TIP3    H160785   1.505   3.433   5.508 -0.2241 -1.0786  0.2514
13098TIP3    H260786   1.434   3.480   5.633 -1.9173 -1.5861 -0.4905
13099TIP3   OH260787   6.385   1.392   2.746  0.5206  0.4087 -0.1350
13099TIP3    H160788   6.372   1.467   2.805 -0.8987  1.7883 -2.0363
13099TIP3    H260789   6.369   1.315   2.800 -2.7723  1.6544  0.9072
13100TIP3   OH260790   3.540   0.093   0.451 -0.0138  0.1353 -0.5295
13100TIP3    H160791   3.517   0.018   0.397 -2.0828 -0.7915  1.4624
13100TIP3    H260792   3.633   0.080   0.472  0.7900  0.3995 -3.4784
13101TIP3   OH260793   4.258   2.871  12.463 -0.0944 -0.0493 -0.1515
13101TIP3    H160794   4.179   2.913  12.429 -0.0637  0.2363  0.1317
13101TIP3    H260795   4.269   2.907  12.550 -0.3184 -0.9791  0.2767
13102TIP3   OH260796   0.976   3.853  13.561 -0.5242 -0.2349  0.2877
13102TIP3    H160797   0.951   3.934  13.517  1.0278  0.2376  0.1847
13102TIP3    H260798   0.902   3.832  13.618 -0.7203  1.6011  0.7738
13103TIP3   OH260799   0.527   0.978   1.250  0.4739 -0.4567 -0.4638
13103TIP3    H160800   0.461   0.962   1.183  0.4881 -0.2043 -0.5364
13103TIP3    H260801   0.505   1.065   1.285 -0.0645 -0.9424  0.4602
13104TIP3   OH260802   5.942   4.071   4.184 -0.2427 -0.2855  0.1243
13104TIP3    H160803   5.950   4.165   4.197 -1.5830 -0.1029 -0.1922
13104TIP3    H260804   5.928   4.060   4.090 -3.1081 -0.4991  0.4939
13105TIP3   OH260805   2.042   1.358  11.460  0.2260  0.6867  0.1881
13105TIP3    H160806   2.027   1.366  11.366  1.3680  3.4217  0.1586
13105TIP3    H260807   1.956   1.336  11.496 -0.0570 -1.2720 -1.5089
13106TIP3   OH260808   6.242   2.000   1.154 -0.6187 -0.5531 -0.2281
13106TIP3    H160809   6.288   2.084   1.158 -0.4265 -0.6533 -0.2972
13106TIP3    H260810   6.300   1.944   1.103 -0.6538 -0.7855 -0.0145
13107TIP3   OH260811   0.177   3.281   5.811 -0.3562 -0.9240 -0.0470
13107TIP3    H160812   0.226   3.200   5.791  0.3618 -0.8010  1.1226
13107TIP3    H260813   0.234   3.351   5.779  0.0901 -0.7989  0.9677
13108TIP3   OH260814   3.740   2.599   3.314  0.2889 -1.0057  0.6134
13108TIP3    H160815   3.724   2.640   3.229 -2.0550 -0.2200  1.3622
13108TIP3    H260816   3.811   2.650   3.353  1.5950 -1.5530 -0.9390
13109TIP3   OH260817   3.265   6.400   4.951  0.3484  0.4124  0.6297
13109TIP3    H160818   3.174   6.388   4.977  0.0178  2.9231  0.8721
13109TIP3    H260819   3.313   6.398   5.034  0.5852 -1.0379  0.4919
13110TIP3   OH260820   3.418   5.123  15.867  0.3684  0.4169  0.5036
13110TIP3    H160821   3.479   5.180  15.913  0.1306  2.2112 -1.2425
13110TIP3    H260822   3.336   5.173  15.864 -0.7707 -1.2784  1.4494
13111TIP3   OH260823   1.992   5.400   3.052  0.0975  0.3025 -0.3189
13111TIP3    H160824   1.949   5.364   2.974 -0.0988 -0.6284  0.2039
13111TIP3    H260825   2.083   5.410   3.027 -0.0589  0.4787 -0.8296
13112TIP3   OH260826   4.863   4.935  17.039 -0.5411  0.7994  0.4621
13112TIP3    H160827   4.901   4.919  17.125 -0.5089 -0.1481  0.2904
13112TIP3    H260828   4.817   4.854  17.018 -0.4416  0.9680 -0.4634
13113TIP3   OH260829   3.728   6.177   5.374  0.3070  0.2806 -0.0940
13113TIP3    H160830   3.822   6.163   5.358  0.5335  0.7507  0.7820
13113TIP3    H260831   3.723   6.200   5.466 -0.7157 -0.0495 -0.0597
13114TIP3   OH260832   1.202   6.184  11.601 -0.3459 -0.0437  0.0876
13114TIP3    H160833   1.148   6.252  11.560  1.8463  1.1722 -0.9608
13114TIP3    H260834   1.195   6.202  11.695 -0.8733  0.7754 -0.0937
13115TIP3   OH260835   3.577   5.347  14.149  0.1683  1.1611 -0.2431
13115TIP3    H160836   3.514   5.388  14.209 -0.0870  0.6703 -0.1745
13115TIP3    H260837   3.659   5.345  14.200 -0.0711  0.6580  0.1283
13116TIP3   OH260838   2.644   0.137  14.296  0.3608  0.8095 -0.6646
13116TIP3    H160839   2.626   0.182  14.379  2.6913  0.0291  0.3598
13116TIP3    H260840   2.581   0.064  14.294  0.2978  0.8132  0.4695
13117TIP3   OH260841   5.875   1.933   3.327  0.9706  0.4527  0.8676
13117TIP3    H160842   5.933   1.879   3.381  1.2940  1.0969  1.1820
13117TIP3    H260843   5.841   1.874   3.260  3.1244  0.3614 -0.2197
13118TIP3   OH260844   1.225   4.877   2.927 -0.2512 -0.0291  0.0876
13118TIP3    H160845   1.148   4.922   2.894 -1.1707 -1.1928  0.5718
13118TIP3    H260846   1.252   4.820   2.855  0.1949  0.4152 -0.1002
13119TIP3   OH260847   3.901   0.615   0.406  0.4927  0.1424  0.1152
13119TIP3    H160848   3.875   0.690   0.354 -1.1535 -1.0408 -0.8513
13119TIP3    H260849   3.997   0.621   0.411  0.4679  1.7188 -0.7952
13120TIP3   OH260850   4.631   6.387   2.473  0.1590  0.5989 -0.2100
13120TIP3    H160851   4.565   6.425   2.531 -0.4096  0.2566 -0.6121
13120TIP3    H260852   4.692   6.343   2.532  0.0208  0.9127  0.1723
13121TIP3   OH260853   5.875   4.837  16.992 -0.1875 -0.4516 -0.3643
13121TIP3    H160854   5.922   4.852  16.909 -2.1119  0.5738 -1.3456
13121TIP3    H260855   5.892   4.745  17.013  1.9869 -0.2038 -0.7921
13122TIP3   OH260856   4.326   6.421   0.184 -0.1323  0.1850 -0.4330
13122TIP3    H160857   4.394   6.486   0.166  2.7143 -2.1102  1.1765
13122TIP3    H260858   4.293   6.395   0.098  0.3950  1.9549 -1.2093
13123TIP3   OH260859   5.655   4.292  12.933 -0.2723 -0.7978 -0.4433
13123TIP3    H160860   5.600   4.350  12.986  1.2776 -0.4914  0.9311
13123TIP3    H260861   5.619   4.300  12.845 -0.7805  1.4643 -0.1118
13124TIP3   OH260862   2.733   1.566  15.459 -0.6802 -0.6826  0.1365
13124TIP3    H160863   2.753   1.656  15.483 -1.5874  0.4066 -2.7660
13124TIP3    H260864   2.705   1.525  15.541  0.6528  1.3536  1.7272
13125TIP3   OH260865   1.660   3.548   0.466  0.0839  0.3734 -0.2297
13125TIP3    H160866   1.737   3.601   0.450  0.0325  0.0645 -1.6889
13125TIP3    H260867   1.600   3.571   0.395 -0.8757  0.0885  0.4700
13126TIP3   OH260868   1.171   4.277  16.986  0.5299  0.0958 -0.1210
13126TIP3    H160869   1.085   4.238  17.002  0.5830 -0.0449 -0.1741
13126TIP3    H260870   1.164   4.365  17.022  0.8260 -0.4126  1.2417
13127TIP3   OH260871   4.212   3.950  16.578 -0.4657 -0.4360 -0.3142
13127TIP3    H160872   4.283   3.977  16.637 -0.0444 -0.6606 -0.7061
13127TIP3    H260873   4.135   3.996  16.610 -0.3899 -1.0805  0.8055
13128TIP3   OH260874   6.734   0.193   1.529  0.3597 -0.0323  0.0155
13128TIP3    H160875   6.718   0.279   1.568  0.4203 -0.2636  0.5455
13128TIP3    H260876   6.695   0.200   1.441  0.8563  0.7172 -0.1556
13129TIP3   OH260877   0.796   2.909  15.300  0.2076  0.2883  0.5138
13129TIP3    H160878   0.841   2.879  15.221  2.1264  1.0191  1.2607
13129TIP3    H260879   0.714   2.945  15.269  0.6237 -0.0724 -1.0747
13130TIP3   OH260880   3.633   0.483   6.000 -0.4360 -0.3083  0.9418
13130TIP3    H160881   3.699   0.434   5.952 -0.7528  0.6526 -0.5563
13130TIP3    H260882   3.571   0.417   6.032 -1.2889 -0.9119 -1.6738
13131TIP3   OH260883   0.730   2.232  10.693 -0.0460  0.3223 -0.0618
13131TIP3    H160884   0.797   2.258  10.756  1.8596 -1.2473 -1.3558
13131TIP3    H260885   0.732   2.136  10.693 -2.8895  0.1762  0.4322
13132TIP3   OH260886   2.871   2.578  14.737 -0.2008  0.1078 -0.1115
13132TIP3    H160887   2.921   2.659  14.751  1.9607 -1.1738  0.0297
13132TIP3    H260888   2.890   2.525  14.814 -1.9549 -0.3869  0.0077
13133TIP3   OH260889   5.888   0.422  12.832  0.2835  0.3152 -0.4086
13133TIP3    H160890   5.794   0.432  12.846 -0.0001  0.9039 -2.4175
13133TIP3    H260891   5.896   0.340  12.784  0.5504  1.2938 -2.1044
13134TIP3   OH260892   6.169   3.998  16.305  0.0610  0.0590  0.3628
13134TIP3    H160893   6.087   4.047  16.312  0.6340  0.9637  1.0966
13134TIP3    H260894   6.226   4.039  16.370  0.8856 -0.9797  0.3225
13135TIP3   OH260895   1.627   5.489  12.033  0.0893 -0.0372  0.0509
13135TIP3    H160896   1.676   5.466  12.111 -1.1334 -1.0197  0.5733
13135TIP3    H260897   1.635   5.413  11.975 -1.2699 -0.4936  0.4071
13136TIP3   OH260898   5.792   2.950   6.341  0.6395 -0.1112 -0.2567
13136TIP3    H160899   5.714   2.964   6.394  1.6268  0.1237  1.1858
13136TIP3    H260900   5.820   3.038   6.315  1.0635 -0.1008  0.2104
13137TIP3   OH260901   4.104   3.000  14.339 -0.2125 -0.0541  0.0157
13137TIP3    H160902   4.171   2.984  14.274  1.1746 -1.9499  1.7791
13137TIP3    H260903   4.076   3.090  14.324  0.8964 -0.0559 -2.3660
13138TIP3   OH260904   0.560   3.833   3.405 -0.1325 -0.1080 -0.1793
13138TIP3    H160905   0.519   3.835   3.318  1.7978 -2.3184 -1.2176
13138TIP3    H260906   0.612   3.913   3.409  0.0226 -0.1514 -1.1983
13139TIP3   OH260907   6.754   3.166   3.802 -0.6973 -0.3239 -0.2555
13139TIP3    H160908   6.733   3.073   3.800  3.1539 -1.3519 -1.2869
13139TIP3    H260909   6.756   3.192   3.710 -0.3860  0.3729 -0.0602
13140TIP3   OH260910   4.599   4.336   0.684  0.0034 -0.1198  1.3243
13140TIP3    H160911   4.636   4.309   0.767 -2.5095 -2.6741  1.7780
13140TIP3    H260912   4.510   4.364   0.705 -0.4000  0.0226 -0.3973
13141TIP3   OH260913   3.749   4.014   2.686 -0.0256 -0.1030  0.4934
13141TIP3    H160914   3.693   4.070   2.739 -0.1734 -1.7919  2.1985
13141TIP3    H260915   3.829   4.003   2.738 -0.0863 -1.6454  0.3093
13142TIP3   OH260916   4.588   5.187  12.563 -0.2338 -0.0438  0.2160
13142TIP3    H160917   4.659   5.170  12.500 -0.2603  0.5635  0.0147
13142TIP3    H260918   4.622   5.156  12.646  0.0574 -0.2592  0.0197
13143TIP3   OH260919   0.544   6.102  12.945  0.0550 -0.4159  0.0785
13143TIP3    H160920   0.531   6.034  13.011  0.2859  0.0435  0.6155
13143TIP3    H260921   0.570   6.179  12.996 -0.7169  0.2179 -0.4646
13144TIP3   OH260922   1.746   1.208   3.826  0.1073 -0.0902  0.7871
13144TIP3    H160923   1.718   1.297   3.805 -1.0164 -0.2209  1.6231
13144TIP3    H260924   1.831   1.198   3.784  0.1491  1.3088  0.5206
13145TIP3   OH260925   4.335   0.105   4.947  0.5243 -0.1814 -0.7177
13145TIP3    H160926   4.314   0.141   5.034 -0.6268 -1.5775 -0.3768
13145TIP3    H260927   4.427   0.128   4.933  0.3827  1.1351  0.3239
13146TIP3   OH260928   6.734   4.873  15.657 -0.1642  0.2478  0.2804
13146TIP3    H160929   6.783   4.887  15.575  1.2190 -0.4030  0.9530
13146TIP3    H260930   6.740   4.779  15.672  0.5219  0.4801  1.6498
13147TIP3   OH260931   4.509   2.991   1.465  0.1057  0.5346 -0.3051
13147TIP3    H160932   4.461   2.933   1.524  0.3261  1.9659  1.3502
13147TIP3    H260933   4.443   3.051   1.430  0.3695  1.3228  0.5227
13148TIP3   OH260934   2.234   4.259  13.278 -0.6095  0.3224  0.2063
13148TIP3    H160935   2.275   4.175  13.258  0.9062  1.0119  0.2539
13148TIP3    H260936   2.236   4.264  13.374 -0.9673  0.2912  0.2166
13149TIP3   OH260937   0.292   2.115   5.202 -0.2379  0.3435  0.2971
13149TIP3    H160938   0.384   2.133   5.181 -0.1622 -0.7845 -0.3892
13149TIP3    H260939   0.289   2.119   5.298  0.3957  0.9288  0.3062
13150TIP3   OH260940   6.747   5.158  17.077  0.4062 -0.0035  0.4375
13150TIP3    H160941   6.719   5.176  17.167  0.2259  0.1085  0.3608
13150TIP3    H260942   6.755   5.063  17.073 -2.0100 -0.2338 -0.1287
13151TIP3   OH260943   5.302   6.524   5.274 -0.3144 -0.0618  0.0617
13151TIP3    H160944   5.322   6.476   5.193 -2.8224 -1.2452  0.0414
13151TIP3    H260945   5.382   6.518   5.326  0.1108 -2.6572 -0.7587
13152TIP3   OH260946   6.617   2.962  16.746 -0.2776 -0.4784 -0.3772
13152TIP3    H160947   6.585   3.050  16.723  0.2622 -0.3791 -0.7767
13152TIP3    H260948   6.657   2.973  16.832  0.1752 -0.2364 -0.6172
13153TIP3   OH260949   1.388   5.065   5.250  0.8194  0.1382 -0.2116
13153TIP3    H160950   1.470   5.041   5.208  0.5933 -0.4645 -0.3135
13153TIP3    H260951   1.353   4.983   5.284  0.4405  0.4464  0.1578
13154TIP3   OH260952   1.253   5.161  11.654 -0.6984 -0.2319  0.0700
13154TIP3    H160953   1.251   5.073  11.619 -0.2770  0.3822 -1.5649
13154TIP3    H260954   1.261   5.218  11.578  0.4973  1.1570  1.1551
13155TIP3   OH260955   2.480   3.740  14.745 -0.2366 -0.5724  0.2231
13155TIP3    H160956   2.469   3.820  14.796  0.1177 -1.1522  1.2462
13155TIP3    H260957   2.566   3.748  14.705 -0.7480  0.1376 -0.7576
13156TIP3   OH260958   6.318   2.903  11.276  0.3154 -0.0468  0.0072
13156TIP3    H160959   6.230   2.935  11.253  0.8334  0.2197 -1.7864
13156TIP3    H260960   6.350   2.965  11.341 -0.5937  0.1971  0.2427
13157TIP3   OH260961   5.196   2.440  13.248  0.1593 -0.7061 -0.4068
13157TIP3    H160962   5.120   2.462  13.302  0.8516 -0.5124  0.5149
13157TIP3    H260963   5.224   2.355  13.280 -0.0552 -1.0790 -1.1921
13158TIP3   OH260964   5.821   6.371  16.233 -0.8995  0.1851  0.2560
13158TIP3    H160965   5.854   6.281  16.229  1.1387  0.9340 -2.4151
13158TIP3    H260966   5.740   6.369  16.184 -0.2249  0.0012 -0.8770
13159TIP3   OH260967   1.561   1.834  11.316  0.4790 -0.4753 -0.5192
13159TIP3    H160968   1.556   1.900  11.246  0.6645  1.1405  0.9143
13159TIP3    H260969   1.483   1.780  11.303 -0.6654  1.1416 -0.6980
13160TIP3   OH260970   6.420   1.261  13.956  0.1221  0.7527 -0.4332
13160TIP3    H160971   6.369   1.287  13.879  1.7416 -0.3377 -1.9576
13160TIP3    H260972   6.391   1.172  13.974 -1.9395  1.7436  1.7888
13161TIP3   OH260973   0.887   0.579   3.879  0.0311 -0.0961 -0.9174
13161TIP3    H160974   0.892   0.511   3.812 -1.6416 -0.1101 -1.0883
13161TIP3    H260975   0.793   0.588   3.896  0.3648  0.4872  0.8327
13162TIP3   OH260976   5.248   4.858  13.712  0.3166 -0.1585  0.3994
13162TIP3    H160977   5.257   4.936  13.657  0.9500  0.3736  1.2400
13162TIP3    H260978   5.212   4.791  13.653  1.2464  0.3094 -0.7345
13163TIP3   OH260979   6.434   1.960  10.981 -0.4172  0.2605  0.1105
13163TIP3    H160980   6.443   1.889  11.045 -1.4697 -0.2501 -0.2891
13163TIP3    H260981   6.340   1.970  10.969 -0.2378 -0.3112 -2.0833
13164TIP3   OH260982   6.776   3.751   4.025 -0.1513  0.3055 -0.1279
13164TIP3    H160983   6.695   3.780   3.983 -0.6619 -0.0121  0.6014
13164TIP3    H260984   6.810   3.829   4.069 -1.0928  0.0304  1.1560
13165TIP3   OH260985   5.537   4.890   0.384  0.0435  0.3474  0.0259
13165TIP3    H160986   5.619   4.840   0.378  0.0974  0.4974 -0.5765
13165TIP3    H260987   5.525   4.905   0.477  0.2749 -0.3845  0.1857
13166TIP3   OH260988   0.491   3.169  12.101  0.1774  0.3103 -0.3217
13166TIP3    H160989   0.511   3.076  12.111 -3.4552 -0.7511 -1.2989
13166TIP3    H260990   0.518   3.189  12.012 -0.5875 -0.3084 -0.7038
13167TIP3   OH260991   6.316   3.009  10.598 -0.1555 -0.1033  0.0864
13167TIP3    H160992   6.320   2.983  10.506  0.9938 -3.1763  0.8763
13167TIP3    H260993   6.262   2.941  10.640 -1.2520  1.6169  1.5879
13168TIP3   OH260994   0.828   2.384   0.852  0.4175  0.0816  0.3082
13168TIP3    H160995   0.785   2.421   0.775 -0.5122  1.7368  1.5612
13168TIP3    H260996   0.921   2.382   0.828  0.1444  0.4553 -0.8770
13169TIP3   OH260997   2.241   4.021   1.641 -0.2036  0.0476  0.4575
13169TIP3    H160998   2.255   4.115   1.655  0.2253 -0.2457  2.2641
13169TIP3    H260999   2.200   4.016   1.555 -1.3260  1.9864  0.8156
13170TIP3   OH261000   0.220   6.574   3.044  0.3109 -0.1301 -0.3918
13170TIP3    H161001   0.200   6.482   3.024 -1.1275 -0.2695  1.3925
13170TIP3    H261002   0.137   6.619   3.028  0.2983  0.4166  1.1029
13171TIP3   OH261003   1.776   5.524   3.390 -0.0450  0.0843 -0.3699
13171TIP3    H161004   1.699   5.466   3.392 -1.0175  1.3454 -0.4859
13171TIP3    H261005   1.782   5.558   3.479  0.6797 -0.3564 -0.2385
13172TIP3   OH261006   0.841   5.335  14.158 -0.1836  0.6364 -0.1313
13172TIP3    H161007   0.905   5.275  14.197 -1.8245 -0.2329  1.3755
13172TIP3    H261008   0.880   5.422  14.169  0.7897  0.1255  0.6829
13173TIP3   OH261009   1.431   4.038   3.608 -0.2367  0.0006 -0.0133
13173TIP3    H161010   1.348   4.036   3.560 -0.1529  0.2248 -0.1643
13173TIP3    H261011   1.497   4.019   3.542 -0.1874 -0.4226  0.1525
13174TIP3   OH261012   2.021   1.140  16.709 -0.5766  0.1135 -0.0866
13174TIP3    H161013   2.115   1.139  16.694 -0.2888  0.0545  1.5206
13174TIP3    H261014   1.995   1.230  16.688 -0.6252 -0.4508 -2.8067
13175TIP3   OH261015   4.139   0.961  13.205 -0.2764 -0.0635  0.3326
13175TIP3    H161016   4.186   0.878  13.215  0.0027  0.2236  1.6237
13175TIP3    H261017   4.196   1.026  13.248 -1.1269  0.5545  0.5613
13176TIP3   OH261018   1.168   1.901   3.688  0.0784 -0.0889 -0.5799
13176TIP3    H161019   1.113   1.823   3.693  0.7667 -0.8223 -2.8506
13176TIP3    H261020   1.116   1.970   3.727 -0.8990 -1.5082  0.7431
13177TIP3   OH261021   3.953   6.422  14.667 -0.2776  0.2052 -0.3903
13177TIP3    H161022   3.952   6.406  14.761  0.9068  1.0312 -0.2148
13177TIP3    H261023   4.010   6.498  14.656 -0.2703  0.0301 -1.7873
13178TIP3   OH261024   1.227   2.870  10.827  0.0214  0.6027  0.1186
13178TIP3    H161025   1.138   2.850  10.798  0.2316  1.3739 -1.1397
13178TIP3    H261026   1.216   2.910  10.914 -0.7281 -0.6135  0.6060
13179TIP3   OH261027   2.963   0.021   0.233 -0.3350 -0.1270  0.6852
13179TIP3    H161028   2.966  -0.045   0.301 -1.4038 -1.1803 -0.2333
13179TIP3    H261029   3.013  -0.016   0.160 -2.9622 -1.1563 -0.7631
13180TIP3   OH261030   5.196   5.365  13.225 -0.0639  0.0618  0.3422
13180TIP3    H161031   5.245   5.447  13.228 -0.4183  0.3684 -1.2908
13180TIP3    H261032   5.261   5.298  13.246  0.5532  0.6527  0.3684
13181TIP3   OH261033   6.518   2.793   2.605  0.3161  0.1862 -0.1443
13181TIP3    H161034   6.560   2.718   2.647  0.3096  0.1458 -0.2091
13181TIP3    H261035   6.590   2.841   2.564  0.3081  0.1569 -0.1932
13182TIP3   OH261036   6.555   1.315  14.271  0.5774  0.0085  0.3930
13182TIP3    H161037   6.471   1.290  14.232  1.0937 -0.7148 -0.2634
13182TIP3    H261038   6.538   1.315  14.365 -0.5813  1.4051  0.2302
13183TIP3   OH261039   5.087   6.117  12.144  0.2827  0.2431  0.6759
13183TIP3    H161040   5.132   6.117  12.229 -0.3450  0.4614  1.0142
13183TIP3    H261041   5.014   6.177  12.156  0.2636  0.3756 -0.0663
13184TIP3   OH261042   2.164   2.775  13.477  0.1718 -0.1417 -0.0024
13184TIP3    H161043   2.189   2.821  13.558 -0.4703 -0.9317  0.6638
13184TIP3    H261044   2.241   2.782  13.421  0.7380  0.1737  0.7934
13185TIP3   OH261045   5.699   4.345  12.015  0.0019 -0.3083 -0.5347
13185TIP3    H161046   5.790   4.336  12.042 -0.0863 -0.2207 -0.1983
13185TIP3    H261047   5.692   4.436  11.985 -0.4053  0.2657  1.1644
13186TIP3   OH261048   2.230   6.037  16.435 -0.0620  0.3262 -0.2358
13186TIP3    H161049   2.268   6.050  16.522  1.7889  1.0891 -1.1016
13186TIP3    H261050   2.291   5.977  16.392 -0.0420  1.2858 -1.5670
13187TIP3   OH261051   6.255   0.624   4.786 -0.1322  0.0667  0.1806
13187TIP3    H161052   6.254   0.530   4.804 -0.5698  0.0652  0.1545
13187TIP3    H261053   6.271   0.630   4.692 -1.5327 -0.0271 -0.0838
13188TIP3   OH261054   1.884   5.847  12.021 -0.1183  0.5955 -0.2939
13188TIP3    H161055   1.851   5.791  11.951  1.0761  0.2195 -0.5796
13188TIP3    H261056   1.916   5.786  12.088 -0.6741  0.9509  0.3166
13189TIP3   OH261057   1.856   1.254  14.742  0.6108 -0.0650 -0.3172
13189TIP3    H161058   1.912   1.317  14.788 -2.1509  1.6674  0.9170
13189TIP3    H261059   1.885   1.168  14.773  0.7195  0.9250  2.5589
13190TIP3   OH261060   3.306   3.680  13.803  0.2131 -0.0027 -0.0453
13190TIP3    H161061   3.277   3.598  13.764 -1.5484  0.5446 -0.0027
13190TIP3    H261062   3.337   3.733  13.729 -0.4647 -0.0106 -0.3445
13191TIP3   OH261063   5.733   0.532   1.963  0.0613  0.3147  0.7320
13191TIP3    H161064   5.653   0.544   2.014 -0.9384 -1.0215 -0.4522
13191TIP3    H261065   5.785   0.469   2.013 -0.1152  0.3629  0.9738
13192TIP3   OH261066   1.553   0.369  15.556 -0.0611 -0.0388  0.1945
13192TIP3    H161067   1.604   0.346  15.634  2.6925 -1.9904 -1.9785
13192TIP3    H261068   1.463   0.345  15.578  0.7143 -1.0817  2.5501
13193TIP3   OH261069   1.147   6.546   6.403 -0.2028 -0.0339 -0.4721
13193TIP3    H161070   1.102   6.624   6.435  0.2440  0.2029 -0.4163
13193TIP3    H261071   1.211   6.525   6.471 -0.6325 -0.7226 -0.2692
13194TIP3   OH261072   0.922   1.923  12.263 -0.4364  0.3988  0.0032
13194TIP3    H161073   0.955   1.865  12.194 -1.7282  0.0123 -0.3198
13194TIP3    H261074   0.887   1.999  12.216 -1.6045 -0.0046  0.1915
13195TIP3   OH261075   4.391   4.085  10.525 -0.1679 -0.3276 -0.1020
13195TIP3    H161076   4.461   4.130  10.478 -0.0374 -0.1321  0.2786
13195TIP3    H261077   4.425   3.996  10.539 -0.1312 -0.3304 -0.2033
13196TIP3   OH261078   1.893   4.782   4.813 -0.6580  0.4566 -0.2275
13196TIP3    H161079   1.915   4.857   4.867  0.1940  1.2321 -1.5902
13196TIP3    H261080   1.798   4.780   4.812 -0.7026  0.4117  1.2691
13197TIP3   OH261081   2.168   0.454  14.400  0.2371 -0.0949  0.3054
13197TIP3    H161082   2.227   0.515  14.444  0.9008 -0.5954  0.1193
13197TIP3    H261083   2.081   0.477  14.434  0.6654 -0.1302  1.4922
13198TIP3   OH261084   4.537   3.115   5.124  0.4250 -0.7749  0.2775
13198TIP3    H161085   4.505   3.135   5.036  0.9437 -1.3850 -0.0557
13198TIP3    H261086   4.563   3.023   5.119  3.2677 -0.0429  0.2244
13199TIP3   OH261087   1.917   4.388  15.320  0.0718 -0.1703 -0.2163
13199TIP3    H161088   1.968   4.329  15.265  0.5600  0.7843 -0.8255
13199TIP3    H261089   1.840   4.337  15.345 -0.9462 -0.2120 -3.0298
13200TIP3   OH261090   2.893   6.011   5.028  0.5842  0.1656 -0.0545
13200TIP3    H161091   2.838   6.032   5.104  0.1693 -0.0767 -0.2870
13200TIP3    H261092   2.894   6.091   4.976  0.9479  0.3644  0.2478
13201TIP3   OH261093   4.930   3.607   2.788 -0.1391  0.2935 -0.3574
13201TIP3    H161094   4.856   3.567   2.742  0.9097 -3.1168  0.5789
13201TIP3    H261095   5.007   3.559   2.757  1.1374  0.9099  1.6234
13202TIP3   OH261096   5.138   6.707   1.310 -0.3442 -0.9352 -0.3186
13202TIP3    H161097   5.220   6.729   1.355 -1.0709 -0.0721  0.6208
13202TIP3    H261098   5.156   6.623   1.268  1.4194 -0.2031 -1.1572
13203TIP3   OH261099   0.946   1.909   5.377 -0.0128 -0.2269 -0.1195
13203TIP3    H161100   0.854   1.928   5.363  0.4969  2.2779 -0.5802
13203TIP3    H261101   0.950   1.870   5.465 -1.3855  0.6791  0.3654
13204TIP3   OH261102   0.931   2.247  16.936  0.1461  0.1166  0.1096
13204TIP3    H161103   0.911   2.200  17.017 -0.0374 -0.4710 -0.2714
13204TIP3    H261104   1.011   2.296  16.956 -0.2166  0.4226  0.8193
13205TIP3   OH261105   1.664   2.687   4.383 -0.3416  0.3927  0.6029
13205TIP3    H161106   1.576   2.653   4.371 -0.2408  0.9049 -2.3886
13205TIP3    H261107   1.653   2.782   4.382  0.2162  0.4612  0.5768
13206TIP3   OH261108   5.537   6.572   0.416  0.0793 -0.6159  0.1230
13206TIP3    H161109   5.494   6.489   0.438 -2.8942  0.5248 -0.9473
13206TIP3    H261110   5.557   6.565   0.323  1.1834 -0.6360  0.3420
13207TIP3   OH261111   6.208   3.994   4.200  0.4075 -0.3600  0.1000
13207TIP3    H161112   6.215   3.898   4.196 -1.5583 -0.6690  2.0129
13207TIP3    H261113   6.118   4.010   4.228  0.9127  2.0402  0.5548
13208TIP3   OH261114   2.169   6.775   4.483 -0.4413  0.0991  0.1471
13208TIP3    H161115   2.133   6.776   4.571 -1.4704 -1.9431 -0.1913
13208TIP3    H261116   2.110   6.719   4.433  1.3874 -0.6845 -1.2581
13209TIP3   OH261117   5.670   0.599  14.407  0.0471 -0.1250  0.2265
13209TIP3    H161118   5.627   0.525  14.449  1.5480  0.5025  3.1507
13209TIP3    H261119   5.619   0.675  14.435 -0.1008  0.1561 -0.7947
13210TIP3   OH261120   3.751   6.001  13.398  0.2802 -0.6167 -0.6539
13210TIP3    H161121   3.690   5.927  13.389 -0.1819 -0.3847  0.4238
13210TIP3    H261122   3.777   5.999  13.490 -0.1267  0.8737 -0.4888
13211TIP3   OH261123   0.974   0.136   2.573 -0.4107  0.2116  0.1517
13211TIP3    H161124   1.002   0.183   2.652  1.8952 -0.2908 -0.3058
13211TIP3    H261125   1.028   0.173   2.503 -0.6263 -1.1168 -0.7356
13212TIP3   OH261126   5.382   2.620  15.083 -0.0520 -0.5529 -0.0322
13212TIP3    H161127   5.329   2.541  15.068 -0.9250  0.5290 -3.8030
13212TIP3    H261128   5.335   2.690  15.038  1.2318  1.9954  2.2687
13213TIP3   OH261129   3.332   4.209  13.581 -0.2656  0.3209 -0.1930
13213TIP3    H161130   3.351   4.286  13.527 -0.5243  0.4922 -0.0409
13213TIP3    H261131   3.283   4.151  13.523 -0.2085  0.3387 -0.2596
13214TIP3   OH261132   3.151   6.815   6.070  0.2285 -0.6876 -0.1079
13214TIP3    H161133   3.228   6.855   6.111 -0.5647  1.0794 -0.2232
13214TIP3    H261134   3.184   6.776   5.990  0.8141  1.3920 -0.9423
13215TIP3   OH261135   4.008   0.794   3.178  0.3957  0.0487  0.2579
13215TIP3    H161136   3.914   0.778   3.173  0.3447  0.6379 -0.9016
13215TIP3    H261137   4.048   0.708   3.166  0.0309 -0.0200 -0.4804
13216TIP3   OH261138   2.842   6.774  13.066  0.2945 -0.2753  0.1875
13216TIP3    H161139   2.812   6.735  13.148  0.9549  1.2426  1.2021
13216TIP3    H261140   2.935   6.750  13.062 -0.2419 -2.3922 -1.4000
13217TIP3   OH261141   5.290   5.317  16.589 -0.1350 -0.1722 -0.3478
13217TIP3    H161142   5.381   5.337  16.571  0.8486 -0.6109  3.3396
13217TIP3    H261143   5.244   5.401  16.580  0.4881 -0.0021 -2.4688
13218TIP3   OH261144   5.122   2.075  13.146 -0.3573 -0.2712  0.0494
13218TIP3    H161145   5.052   2.124  13.190 -0.9940 -1.1848  0.0898
13218TIP3    H261146   5.122   2.108  13.056 -1.2810 -0.6960 -0.1223
13219TIP3   OH261147   5.917   2.369   0.404 -0.1391  0.1982  0.0879
13219TIP3    H161148   5.926   2.370   0.309  1.1494  0.4805  0.1939
13219TIP3    H261149   5.868   2.289   0.423 -1.6724  0.8650 -0.8885
13220TIP3   OH261150   2.305   1.809   4.068 -0.0770  0.0175 -0.3851
13220TIP3    H161151   2.324   1.831   4.159 -0.3378 -0.6631 -0.1570
13220TIP3    H261152   2.231   1.866   4.045 -0.5063 -0.3464  0.0756
13221TIP3   OH261153   1.841   4.176  12.570 -0.1273  0.7884 -0.1498
13221TIP3    H161154   1.868   4.153  12.659  0.4926  0.6935 -0.3623
13221TIP3    H261155   1.745   4.178  12.574 -0.1087  0.5672  0.4659
13222TIP3   OH261156   2.839   2.014  11.340 -0.5104  0.1883 -0.3205
13222TIP3    H161157   2.852   1.933  11.389 -0.1205 -0.8946 -2.1356
13222TIP3    H261158   2.771   1.994  11.277 -1.2497  1.6590 -0.0292
13223TIP3   OH261159   2.012   0.788  14.214 -0.1138  0.5688 -0.2378
13223TIP3    H161160   1.963   0.869  14.215 -0.3929  0.4221 -1.0501
13223TIP3    H261161   1.946   0.719  14.212  0.1150  0.2968  0.8324
13224TIP3   OH261162   3.750   4.344   1.998  0.2919  0.6920  0.0584
13224TIP3    H161163   3.827   4.305   1.956 -0.5407 -0.1317 -0.7511
13224TIP3    H261164   3.683   4.275   1.994 -0.6009  1.5181  0.4173
13225TIP3   OH261165   5.915   4.226   4.461  0.4747 -0.4742  0.0443
13225TIP3    H161166   5.926   4.144   4.412  0.1239 -0.7656  0.4449
13225TIP3    H261167   6.003   4.263   4.466  0.4501 -0.1986 -1.2103
13226TIP3   OH261168   6.591   4.421   5.167  0.2056  0.1558  0.2402
13226TIP3    H161169   6.563   4.341   5.123  0.9613  0.5866 -1.0516
13226TIP3    H261170   6.671   4.396   5.214  1.1898  0.4246 -1.2212
13227TIP3   OH261171   0.761   6.207   0.253  0.3737 -0.0886  0.3503
13227TIP3    H161172   0.764   6.228   0.160  0.8282  1.8601  0.7732
13227TIP3    H261173   0.772   6.291   0.298 -0.7396 -0.8502  2.1778
13228TIP3   OH261174   3.664   2.066   0.868 -0.1044  0.7486  0.1570
13228TIP3    H161175   3.654   2.078   0.774 -2.1388  0.9579  0.3424
13228TIP3    H261176   3.629   1.978   0.885  2.2748 -0.1940  0.4786
13229TIP3   OH261177   1.881   5.453   1.943  0.3907  0.1386  0.3981
13229TIP3    H161178   1.940   5.484   1.875  0.8523  0.1073  0.7730
13229TIP3    H261179   1.804   5.509   1.937  0.8938  0.8543  0.5747
13230TIP3   OH261180   4.709   6.427   4.873 -0.4018  0.0736 -0.0407
13230TIP3    H161181   4.748   6.431   4.960 -4.9195 -0.0155  2.2640
13230TIP3    H261182   4.666   6.342   4.870 -0.8970  0.3434 -2.1344
13231TIP3   OH261183   5.817   1.211   4.018  0.0763 -0.0458 -0.4086
13231TIP3    H161184   5.735   1.165   4.000 -0.8125  2.1165 -2.4620
13231TIP3    H261185   5.878   1.179   3.953 -0.1513  0.6818 -0.9931
13232TIP3   OH261186   6.028   4.034   6.008 -0.0840  0.4028  0.2736
13232TIP3    H161187   6.068   3.955   6.044 -0.4130  0.0169 -0.1887
13232TIP3    H261188   5.966   4.001   5.943  0.6864  1.0885 -0.8333
13233TIP3   OH261189   6.121   3.848  12.891 -0.5529 -0.2922 -0.3276
13233TIP3    H161190   6.057   3.863  12.961  0.8481  1.7608  0.6217
13233TIP3    H261191   6.137   3.754  12.892  0.3295 -0.2060  2.9958
13234TIP3   OH261192   4.257   6.149  11.471 -0.2784 -0.4067 -0.4453
13234TIP3    H161193   4.173   6.147  11.425  0.1655 -1.2963 -1.2542
13234TIP3    H261194   4.312   6.087  11.422  1.2911  1.1729 -0.7796
13235TIP3   OH261195   0.511   3.754  12.690  0.5676 -0.2981 -0.2236
13235TIP3    H161196   0.469   3.675  12.725  1.0703 -0.1743  0.6857
13235TIP3    H261197   0.441   3.799  12.643  0.1457 -1.0274 -0.3117
13236TIP3   OH261198   1.671   1.311  12.884 -0.4015  0.6006 -0.5020
13236TIP3    H161199   1.706   1.394  12.915  1.1868 -0.8843  1.9935
13236TIP3    H261200   1.713   1.245  12.939 -3.3717 -1.7102 -0.7620
13237TIP3   OH261201   3.902   3.540  16.733  0.0967  0.2093  0.0128
13237TIP3    H161202   3.851   3.606  16.780 -2.7455 -1.5639 -0.3573
13237TIP3    H261203   3.937   3.482  16.801 -0.9042 -0.2487  0.1441
13238TIP3   OH261204   6.805   6.515  11.880 -0.0715  0.7309  0.3496
13238TIP3    H161205   6.744   6.476  11.817  0.4135  0.0311  0.2948
13238TIP3    H261206   6.854   6.580  11.828 -0.9965  1.5517  0.4809
13239TIP3   OH261207   6.478   4.343  12.756  0.4471  0.0827 -0.4819
13239TIP3    H161208   6.473   4.249  12.737  0.2440 -0.1479  0.6723
13239TIP3    H261209   6.424   4.383  12.688 -0.6816 -0.7581 -0.1106
13240TIP3   OH261210   4.067   6.630   1.003  0.0735  0.1435 -0.2608
13240TIP3    H161211   4.043   6.593   1.088  0.9838  0.6633  0.2428
13240TIP3    H261212   4.099   6.555   0.952 -1.5764 -0.3753 -0.5892
13241TIP3   OH261213   1.296   0.694   1.471  0.0438 -0.2695  0.4817
13241TIP3    H161214   1.299   0.599   1.456  0.8162 -0.1342 -0.3477
13241TIP3    H261215   1.232   0.726   1.408  0.6786 -0.1136 -0.1030
13242TIP3   OH261216   0.225   1.519   5.266 -0.5626 -0.2027  0.2864
13242TIP3    H161217   0.212   1.583   5.196  0.8735  1.1326  1.1684
13242TIP3    H261218   0.256   1.441   5.221  1.3087  0.9377 -0.5422
13243TIP3   OH261219   2.638   6.293  11.887 -0.5866 -0.1487  0.0684
13243TIP3    H161220   2.729   6.307  11.914 -0.9227  0.7994  0.7847
13243TIP3    H261221   2.625   6.199  11.894 -0.3273 -0.0842  2.3411
13244TIP3   OH261222   3.551   5.329  16.009 -0.1225  0.2450 -0.1208
13244TIP3    H161223   3.544   5.410  15.959  1.7612 -0.9675 -2.5730
13244TIP3    H261224   3.643   5.326  16.036 -0.6372 -0.1585  1.6960
13245TIP3   OH261225   2.618   4.551   6.495 -0.3100  0.3706  0.4531
13245TIP3    H161226   2.710   4.534   6.474 -0.4305  0.9922 -0.6591
13245TIP3    H261227   2.621   4.603   6.575  0.6081  4.2364 -1.8141
13246TIP3   OH261228   2.794   5.544  13.339  0.4478 -0.0650 -0.3380
13246TIP3    H161229   2.721   5.490  13.308 -0.0036  0.6949 -0.6020
13246TIP3    H261230   2.866   5.481  13.351 -0.3841 -0.9161  0.4169
13247TIP3   OH261231   6.834   4.865   5.551 -0.2060  0.5977 -0.7096
13247TIP3    H161232   6.763   4.930   5.553 -0.9470 -0.1568 -1.7914
13247TIP3    H261233   6.859   4.860   5.459 -1.6237 -2.1664 -1.0505
13248TIP3   OH261234   3.610   2.967  13.369  0.3794 -0.3151 -0.1104
13248TIP3    H161235   3.672   2.897  13.392  0.4019  0.4557  2.4096
13248TIP3    H261236   3.524   2.928  13.381  0.3812 -0.3384 -0.1700
13249TIP3   OH261237   4.931   4.948   1.074  0.2509 -0.5953  0.0285
13249TIP3    H161238   4.961   4.901   0.996 -0.3419  0.1969 -0.6963
13249TIP3    H261239   4.852   4.994   1.046  1.1495  1.3634  0.4936
13250TIP3   OH261240   4.658   0.044   2.592  0.3566 -0.7271  0.1743
13250TIP3    H161241   4.736   0.086   2.558  0.6313 -1.6345 -0.3620
13250TIP3    H261242   4.672   0.038   2.687 -0.6886  2.4012  0.6352
13251TIP3   OH261243   3.780   1.527  13.731  0.2568 -0.1170 -0.4132
13251TIP3    H161244   3.726   1.453  13.702  1.5715 -1.6272  0.8001
13251TIP3    H261245   3.717   1.596  13.750 -1.1117 -1.2296 -0.7057
13252TIP3   OH261246   0.966   2.029   2.022  0.3607  0.3180  0.0114
13252TIP3    H161247   0.949   2.082   2.100 -1.3987 -0.9823  0.5910
13252TIP3    H261248   1.061   2.013   2.024  0.4234  0.6905  1.6547
13253TIP3   OH261249   2.586   5.490   1.597 -0.3376  0.2175  0.2991
13253TIP3    H161250   2.589   5.428   1.670 -0.3460 -0.8679 -0.6078
13253TIP3    H261251   2.616   5.440   1.521  0.5531  1.5879 -0.2792
13254TIP3   OH261252   4.480   4.860  15.189 -0.1001  0.0317 -0.2839
13254TIP3    H161253   4.550   4.845  15.253 -0.8152 -0.8979  0.3166
13254TIP3    H261254   4.520   4.914  15.121  0.3318  2.2070  1.5929
13255TIP3   OH261255   0.927   1.229  17.018 -0.8298  0.2133 -0.0500
13255TIP3    H161256   1.022   1.242  17.025 -0.5634 -1.4648 -0.2176
13255TIP3    H261257   0.895   1.236  17.108  0.0260 -2.9330  0.6169
13256TIP3   OH261258   4.409   2.790   4.478  0.2342 -0.0218 -0.5371
13256TIP3    H161259   4.474   2.858   4.496 -0.7684  1.3984 -1.9311
13256TIP3    H261260   4.453   2.708   4.497  1.4760  1.0120  1.2810
13257TIP3   OH261261   5.015   3.652  15.970  0.4523  0.3384 -0.1196
13257TIP3    H161262   4.968   3.621  15.893 -1.0050  1.9406  0.0621
13257TIP3    H261263   5.070   3.578  15.996 -3.3993 -2.4866  0.8429
13258TIP3   OH261264   2.455   0.565  11.632 -0.0956  0.0928  0.6602
13258TIP3    H161265   2.490   0.568  11.721 -1.7466 -0.2815  1.3591
13258TIP3    H261266   2.442   0.472  11.614 -2.6393  0.2548  1.2643
13259TIP3   OH261267   5.095   4.844   3.938 -0.0051  0.1301  0.1613
13259TIP3    H161268   5.086   4.933   3.904 -0.5607 -0.0710 -0.2209
13259TIP3    H261269   5.007   4.807   3.933  0.5299 -1.0558 -1.4002
13260TIP3   OH261270   6.427   0.588   1.210 -0.3379 -0.0601 -0.2478
13260TIP3    H161271   6.404   0.496   1.213  1.3911 -0.5413 -0.3313
13260TIP3    H261272   6.446   0.606   1.118  0.2236  0.1133 -0.1088
13261TIP3   OH261273   3.031   4.109   4.922  0.3204  0.6704  0.2049
13261TIP3    H161274   3.106   4.054   4.898  0.3502  1.2932 -1.2105
13261TIP3    H261275   2.959   4.077   4.869 -0.6619 -0.3830  2.0664
13262TIP3   OH261276   0.793   5.934   5.369  0.4379  0.4653  0.1694
13262TIP3    H161277   0.713   5.947   5.421 -0.4742  0.5618 -1.2150
13262TIP3    H261278   0.833   6.021   5.365  0.3333  0.5264  0.4229
13263TIP3   OH261279   5.684   0.079   4.338  0.3186  0.2171 -0.0337
13263TIP3    H161280   5.776   0.066   4.317  0.5199  0.4998  0.6507
13263TIP3    H261281   5.639   0.075   4.254  0.9971  0.4530 -0.4085
13264TIP3   OH261282   1.402   5.677   1.708  1.0288 -0.3390 -0.0790
13264TIP3    H161283   1.312   5.703   1.692  0.7624 -1.1348  0.0594
13264TIP3    H261284   1.398   5.624   1.788  1.8319  0.8068  0.7585
13265TIP3   OH261285   2.115   2.646   1.744  0.1876  0.2027 -0.0480
13265TIP3    H161286   2.188   2.599   1.703  1.2690  2.8609 -1.4059
13265TIP3    H261287   2.051   2.655   1.675 -0.7779 -0.7018  0.6952
13266TIP3   OH261288   5.864   4.117  12.848  0.3798  0.0010 -0.1561
13266TIP3    H161289   5.826   4.158  12.925  1.7333  0.0134  0.5414
13266TIP3    H261290   5.790   4.078  12.802 -0.7791  2.1024 -0.1806
13267TIP3   OH261291   5.670   1.065  12.761 -0.3263  0.0481 -0.1200
13267TIP3    H161292   5.678   1.152  12.800  0.6134  0.3798 -0.9943
13267TIP3    H261293   5.723   1.009  12.817  0.8639  0.4857 -0.7624
13268TIP3   OH261294   1.703   3.780  15.386  0.2587 -0.0233 -0.9846
13268TIP3    H161295   1.652   3.853  15.422  0.6846 -0.9426  1.7556
13268TIP3    H261296   1.652   3.702  15.405  1.5153 -0.7450 -0.4012
13269TIP3   OH261297   4.249   6.302   0.632 -1.2897  0.3568 -0.1868
13269TIP3    H161298   4.170   6.310   0.579 -1.3096  0.2341 -0.1750
13269TIP3    H261299   4.301   6.379   0.609 -1.6979  0.7781  0.2803
13270TIP3   OH261300   5.733   4.953  11.838  0.6122  0.6956 -0.6726
13270TIP3    H161301   5.685   4.875  11.810 -0.2329  0.8911  0.2011
13270TIP3    H261302   5.768   4.989  11.756  0.2930 -0.1154 -1.1839
13271TIP3   OH261303   5.785   5.454   0.920 -0.3432 -0.4678 -0.6536
13271TIP3    H161304   5.731   5.464   0.998  0.4251 -0.0570 -0.1625
13271TIP3    H261305   5.812   5.362   0.920 -0.3272 -0.4625 -0.4237
13272TIP3   OH261306   4.658   3.784   3.964  0.5150  0.5635  0.0041
13272TIP3    H161307   4.607   3.798   3.884  2.5097 -1.2188 -1.6967
13272TIP3    H261308   4.606   3.721   4.014 -0.4835  1.2771 -0.0877
13273TIP3   OH261309   1.954   0.193  15.095  0.4968 -0.3662 -0.0112
13273TIP3    H161310   1.910   0.164  15.175  0.6810 -0.7072 -0.0303
13273TIP3    H261311   1.929   0.285  15.086 -0.0086 -0.4832  0.1181
13274TIP3   OH261312   1.884   5.479  14.541  0.0835 -0.6523  0.0723
13274TIP3    H161313   1.885   5.498  14.447  2.5808 -2.0881 -0.2713
13274TIP3    H261314   1.976   5.480  14.567 -0.6064  2.8536  3.2653
13275TIP3   OH261315   1.275   4.245  14.992 -0.0725 -0.2239 -0.1374
13275TIP3    H161316   1.264   4.223  14.899 -0.2518  2.1209 -0.7325
13275TIP3    H261317   1.185   4.254  15.025 -0.1033  2.3149 -0.6848
13276TIP3   OH261318   1.474   3.502  15.381 -0.8068 -0.4202  0.1637
13276TIP3    H161319   1.483   3.488  15.287  0.3891  0.2202  0.1551
13276TIP3    H261320   1.414   3.575  15.389  2.2565  2.3917 -0.3656
13277TIP3   OH261321   2.421   5.129  15.936 -0.1281  0.2279 -0.5523
13277TIP3    H161322   2.440   5.216  15.970 -1.0713 -0.0933  0.8748
13277TIP3    H261323   2.332   5.110  15.967 -0.8100 -0.3715 -2.6699
13278TIP3   OH261324   6.812   1.776   0.402 -0.1293  0.5939 -0.3759
13278TIP3    H161325   6.740   1.838   0.409 -2.1338 -1.6063 -0.5962
13278TIP3    H261326   6.810   1.746   0.311  0.7301  0.1166 -0.2541
13279TIP3   OH261327   3.832   3.209   1.486 -0.6753 -0.5123 -0.0855
13279TIP3    H161328   3.788   3.293   1.498 -0.5017 -0.4339  0.0161
13279TIP3    H261329   3.765   3.143   1.504 -0.5827 -0.3980  0.7203
13280TIP3   OH261330   0.434   1.149   2.720 -0.4098 -0.0483 -0.4757
13280TIP3    H161331   0.463   1.215   2.782 -1.1826 -0.5201  0.4220
13280TIP3    H261332   0.488   1.163   2.642  1.4988 -0.2687  0.7452
13281TIP3   OH261333   6.450   5.328  17.091  0.0254 -0.3861 -0.3223
13281TIP3    H161334   6.544   5.323  17.074 -0.3990 -0.0605 -3.2084
13281TIP3    H261335   6.424   5.414  17.058 -1.2075 -0.1510  1.1293
13282TIP3   OH261336   3.371   5.761  15.614 -0.6375 -0.0757  0.5300
13282TIP3    H161337   3.334   5.710  15.543  0.5814 -0.7189  0.3413
13282TIP3    H261338   3.335   5.849  15.602  0.6127  0.1795 -1.6968
13283TIP3   OH261339   2.210   3.569   2.516 -0.0551 -0.2277 -0.4230
13283TIP3    H161340   2.132   3.606   2.475  1.9551  3.7972 -1.1562
13283TIP3    H261341   2.226   3.488   2.468 -1.3536  1.0853 -3.3450
13284TIP3   OH261342   3.888   4.270  16.818 -0.0502  0.0833  0.0099
13284TIP3    H161343   3.920   4.307  16.900 -1.5002  0.8649  0.2535
13284TIP3    H261344   3.863   4.345  16.765  0.1228 -0.4414 -0.8374
13285TIP3   OH261345   4.826   4.736  12.085 -0.0366  0.5280  0.4854
13285TIP3    H161346   4.751   4.790  12.060 -0.0144  0.3666  0.0551
13285TIP3    H261347   4.812   4.653  12.040 -0.4730 -0.1248  1.7637
13286TIP3   OH261348   2.186   0.388  15.218  0.3777  0.1198 -0.0523
13286TIP3    H161349   2.197   0.375  15.124  1.2702  0.6160 -0.0308
13286TIP3    H261350   2.246   0.323  15.257  0.5772  0.4290  0.1559
13287TIP3   OH261351   1.698   3.573  16.968 -0.2938  0.2485  0.0238
13287TIP3    H161352   1.609   3.604  16.981 -0.2664 -0.3575  2.0029
13287TIP3    H261353   1.692   3.478  16.980  0.4595  0.0759 -0.8460
13288TIP3   OH261354   0.750   2.345   6.001  0.6203  0.5931 -0.4305
13288TIP3    H161355   0.794   2.429   6.014  1.4032  0.1189  0.0966
13288TIP3    H261356   0.657   2.367   5.993  0.9092  1.5952 -1.2651
13289TIP3   OH261357   1.939   6.680   1.904  0.7883 -0.3415  0.2900
13289TIP3    H161358   1.968   6.694   1.994 -0.5605  0.4982  0.6286
13289TIP3    H261359   1.847   6.706   1.904  1.1414  1.2487 -1.6779
13290TIP3   OH261360   3.315   2.648   4.414  0.3233  0.0689 -0.1620
13290TIP3    H161361   3.230   2.643   4.369 -0.1206  0.7562  0.5650
13290TIP3    H261362   3.319   2.739   4.446  1.2684 -0.0036 -0.0574
13291TIP3   OH261363   6.111   1.850   6.472 -0.1096 -0.3347  0.4338
13291TIP3    H161364   6.150   1.905   6.541  1.0423 -1.0432  0.3739
13291TIP3    H261365   6.186   1.806   6.432 -0.4997  1.5371 -2.6533
13292TIP3   OH261366   5.881   0.265  11.238  0.6126 -0.4794 -0.0918
13292TIP3    H161367   5.948   0.322  11.201 -0.4703  1.4199  0.7382
13292TIP3    H261368   5.807   0.271  11.177  1.0881 -2.5093 -0.9706
13293TIP3   OH261369   3.217   3.975  13.178 -0.6037  0.1012  0.4965
13293TIP3    H161370   3.165   4.049  13.147  0.5516  0.6988 -0.0915
13293TIP3    H261371   3.260   4.008  13.258 -1.2510 -0.4516  1.0906
13294TIP3   OH261372   0.805   0.583  11.792 -0.5734 -0.2917  0.5837
13294TIP3    H161373   0.792   0.564  11.885 -3.2790 -0.1072  0.3113
13294TIP3    H261374   0.796   0.678  11.786 -0.9224 -0.3553  0.0647
13295TIP3   OH261375   4.675   3.174   4.343  0.2371 -0.0602 -0.1115
13295TIP3    H161376   4.686   3.106   4.277 -1.5298  0.5995 -1.1665
13295TIP3    H261377   4.735   3.243   4.317 -0.7813  0.3939 -1.3627
13296TIP3   OH261378   0.474   0.651  13.641  0.8364 -0.8973 -0.1404
13296TIP3    H161379   0.562   0.668  13.675  0.7690 -2.3781  0.8608
13296TIP3    H261380   0.462   0.556  13.651 -0.9504 -0.6962 -0.0593
13297TIP3   OH261381   2.429   4.924   2.033 -0.2808 -0.3132 -0.3298
13297TIP3    H161382   2.393   4.984   1.967  0.6491  0.4901 -0.1387
13297TIP3    H261383   2.361   4.919   2.100 -0.9293 -0.5518 -0.9935
13298TIP3   OH261384   2.877   5.590   3.664 -0.4458  0.7742 -0.3334
13298TIP3    H161385   2.835   5.583   3.749  0.3762  0.9284  0.0937
13298TIP3    H261386   2.813   5.634   3.608 -1.5116 -0.5067 -0.1598
13299TIP3   OH261387   4.398   5.832   1.067  0.1581  0.1993  0.0859
13299TIP3    H161388   4.361   5.775   1.135  0.1168  0.4405  0.2670
13299TIP3    H261389   4.376   5.789   0.985  0.4475 -0.2379  0.2372
13300TIP3   OH261390   5.158   6.283  16.384  0.0958  0.2978 -0.0355
13300TIP3    H161391   5.176   6.230  16.306 -1.7896 -0.6022  0.0811
13300TIP3    H261392   5.202   6.236  16.455  0.7737  0.4390 -0.3491
13301TIP3   OH261393   6.322   1.207  15.609 -0.8307  0.1753  0.0864
13301TIP3    H161394   6.342   1.214  15.515 -0.9909  0.6461  0.0857
13301TIP3    H261395   6.227   1.202  15.614 -1.0356  2.8801  0.3556
13302TIP3   OH261396   5.398   6.145  15.439  0.0147  0.1326 -0.1260
13302TIP3    H161397   5.334   6.199  15.485  0.1981 -0.0627  0.3655
13302TIP3    H261398   5.380   6.160  15.346 -1.6994 -1.0194 -0.0291
13303TIP3   OH261399   2.256   1.126  12.598 -0.0970 -0.0555 -0.2901
13303TIP3    H161400   2.217   1.041  12.575  0.4828 -0.5211  0.4206
13303TIP3    H261401   2.339   1.104  12.640 -0.7243  0.7820  1.5001
13304TIP3   OH261402   0.223   3.257   2.201 -0.2453  0.3351  0.1526
13304TIP3    H161403   0.318   3.268   2.198 -0.3837  1.9251  0.2923
13304TIP3    H261404   0.209   3.163   2.198  1.2772  0.1089 -1.5610
13305TIP3   OH261405   2.224   6.523  15.718  0.2375  0.5720  0.4433
13305TIP3    H161406   2.209   6.595  15.778 -1.4699 -1.0758  2.1383
13305TIP3    H261407   2.173   6.450  15.754  0.0061 -0.8424 -2.4249
13306TIP3   OH261408   1.741   1.492   1.094  0.8048 -0.4585  0.1030
13306TIP3    H161409   1.766   1.410   1.136 -0.4936 -1.8678 -1.7223
13306TIP3    H261410   1.805   1.504   1.024 -1.0728 -1.9743 -2.0192
13307TIP3   OH261411   3.498   2.106   5.182  0.0234 -0.1541  0.2253
13307TIP3    H161412   3.467   2.020   5.210  0.3995 -0.3210  0.1272
13307TIP3    H261413   3.591   2.094   5.163  0.4384  0.6072  1.6291
13308TIP3   OH261414   2.219   1.798  11.537  0.3650  0.2723  0.1815
13308TIP3    H161415   2.132   1.833  11.558  0.2015 -0.9874  1.7438
13308TIP3    H261416   2.280   1.868  11.563 -0.1511  1.2332 -1.0848
13309TIP3   OH261417   5.909   5.250   1.152 -0.7000 -0.3355  0.3006
13309TIP3    H161418   5.995   5.219   1.181 -0.2185  0.4284 -0.2740
13309TIP3    H261419   5.911   5.345   1.166 -1.4259 -0.2967  0.2085
13310TIP3   OH261420   5.989   1.374  11.276 -0.6708  0.3402 -0.0861
13310TIP3    H161421   5.895   1.356  11.277 -0.8684  1.3019  1.0275
13310TIP3    H261422   5.999   1.444  11.211 -0.7549  0.3893 -0.0457
13311TIP3   OH261423   3.062   6.302   5.100  0.3732  0.1269 -0.0276
13311TIP3    H161424   3.058   6.325   5.193  0.3229  1.8373 -0.4242
13311TIP3    H261425   2.972   6.309   5.069  0.1927 -1.6099  0.0324
13312TIP3   OH261426   5.294   5.765   5.988 -0.2498  0.0519 -0.5567
13312TIP3    H161427   5.310   5.832   6.054 -0.1303  1.1245 -1.6409
13312TIP3    H261428   5.261   5.813   5.912 -3.2939 -1.4572 -0.3367
13313TIP3   OH261429   3.048   3.499   3.220 -0.3144  0.4285  0.0759
13313TIP3    H161430   3.053   3.563   3.149  0.5876 -0.5190 -0.7369
13313TIP3    H261431   3.016   3.550   3.295 -1.6471  1.3678 -1.0691
13314TIP3   OH261432   4.678   0.588   0.171 -0.3019  0.5555 -0.4370
13314TIP3    H161433   4.694   0.676   0.136 -1.8861  0.6249 -1.0948
13314TIP3    H261434   4.765   0.552   0.186  0.3952  1.8367 -1.1872
13315TIP3   OH261435   3.929   4.054  13.235  0.0441  0.3192 -0.2538
13315TIP3    H161436   3.891   3.974  13.272  1.5211  0.5151  1.8534
13315TIP3    H261437   3.869   4.077  13.163 -2.7316 -0.4103  1.6434
13316TIP3   OH261438   6.613   4.560   2.654  0.7311  0.1653 -0.3916
13316TIP3    H161439   6.594   4.544   2.562  1.4971 -0.2181 -0.4942
13316TIP3    H261440   6.708   4.554   2.660  0.5839 -1.4981  0.7310
13317TIP3   OH261441   1.717   2.106   2.023 -0.1226  0.1567 -0.4147
13317TIP3    H161442   1.633   2.138   1.990 -0.0899  1.3016  0.5311
13317TIP3    H261443   1.722   2.016   1.993 -0.9489  0.5574 -1.8607
13318TIP3   OH261444   4.808   2.074  15.051  0.4745 -0.1113 -0.7464
13318TIP3    H161445   4.788   1.987  15.016 -0.4393  0.2408 -1.1454
13318TIP3    H261446   4.723   2.119  15.053  0.9357  0.7794 -0.5786
13319TIP3   OH261447   1.899   3.910  11.291  0.2613  0.3042  0.2085
13319TIP3    H161448   1.948   3.870  11.219  0.2510  0.0708  0.3305
13319TIP3    H261449   1.871   3.995  11.257  0.6698  0.3993  0.1058
13320TIP3   OH261450   1.099   4.197  15.332 -0.6593  0.2460  0.2514
13320TIP3    H161451   1.120   4.147  15.410 -1.9561  1.7451  1.6427
13320TIP3    H261452   1.177   4.249  15.314 -0.2624 -0.3023  0.3888
13321TIP3   OH261453   6.077   6.502   0.715 -0.0791  0.3613 -0.0700
13321TIP3    H161454   5.997   6.463   0.750 -1.2171  0.3402 -2.4389
13321TIP3    H261455   6.055   6.594   0.702  1.1611  0.9264  1.5165
13322TIP3   OH261456   5.784   6.655   0.596 -0.5244 -0.5416 -0.1677
13322TIP3    H161457   5.743   6.622   0.516  0.2197  0.7551 -1.1263
13322TIP3    H261458   5.710   6.678   0.652 -1.0728 -0.9457 -0.7068
13323TIP3   OH261459   6.420   2.184  13.760 -0.1526  0.3241  0.1818
13323TIP3    H161460   6.480   2.255  13.740  1.0989 -0.6280  0.4370
13323TIP3    H261461   6.469   2.127  13.819 -0.9513 -0.9851 -0.3721
13324TIP3   OH261462   3.208   1.454  16.371 -0.2178 -0.1402 -0.1226
13324TIP3    H161463   3.159   1.523  16.415  1.2843  0.5550  0.5323
13324TIP3    H261464   3.296   1.461  16.407  0.1352 -1.9853 -0.5361
13325TIP3   OH261465   4.835   4.515  15.882 -0.2144  0.1168 -0.0727
13325TIP3    H161466   4.857   4.587  15.941  2.3157 -1.2001  0.7520
13325TIP3    H261467   4.751   4.482  15.914 -0.1044  1.0094  1.1957
13326TIP3   OH261468   2.888   1.498   1.356 -0.2965  0.5052 -0.3019
13326TIP3    H161469   2.955   1.564   1.377  1.7058 -1.3205 -0.6621
13326TIP3    H261470   2.820   1.547   1.309  1.5250  2.1629 -1.3316
13327TIP3   OH261471   3.515   2.097  11.849 -0.1314  0.1923  0.4795
13327TIP3    H161472   3.555   2.011  11.836 -1.8783 -0.7053  0.7512
13327TIP3    H261473   3.468   2.114  11.767  0.2842  0.9516  0.3869
13328TIP3   OH261474   3.431   5.596  17.149  0.1940 -0.3486 -0.1299
13328TIP3    H161475   3.376   5.640  17.085 -0.6568  0.9178  1.3947
13328TIP3    H261476   3.503   5.559  17.098 -1.8172 -1.7620 -2.1603
13329TIP3   OH261477   4.782   6.507  10.314 -0.0906  0.5102 -0.0581
13329TIP3    H161478   4.795   6.523  10.408 -0.1740 -1.4156  0.3155
13329TIP3    H261479   4.794   6.413  10.304  2.5471  0.9754 -2.4210
13330TIP3   OH261480   5.607   6.713   4.875 -0.4176  0.7128 -0.0934
13330TIP3    H161481   5.530   6.747   4.921 -1.3271 -0.8992 -0.3311
13330TIP3    H261482   5.592   6.619   4.871  1.4603  0.3998 -0.4004
13331TIP3   OH261483   5.917   0.905  16.282 -0.3089  0.0768 -0.1725
13331TIP3    H161484   6.000   0.879  16.240  0.1608  2.8454 -1.2004
13331TIP3    H261485   5.940   0.921  16.373  0.1760  0.2400 -0.3182
13332TIP3   OH261486   1.958   0.208  15.693 -0.4195 -0.3329 -0.4300
13332TIP3    H161487   2.017   0.170  15.628  0.4837 -1.7181  1.1033
13332TIP3    H261488   1.997   0.293  15.714 -0.2240 -0.2664 -1.0328
13333TIP3   OH261489   1.122   5.932  15.894 -0.2135  0.4480  0.3120
13333TIP3    H161490   1.098   5.973  15.811 -0.0805 -0.5642 -0.2381
13333TIP3    H261491   1.130   6.005  15.955  0.7809  1.3219 -0.8278
13334TIP3   OH261492   1.798   4.106   0.291 -0.4299 -0.1896 -0.0290
13334TIP3    H161493   1.750   4.042   0.344 -0.1402 -0.9218 -0.6237
13334TIP3    H261494   1.884   4.065   0.277 -0.2982  0.2564 -0.5560
13335TIP3   OH261495   4.116   5.484  12.843 -0.1905  0.0965  0.0169
13335TIP3    H161496   4.175   5.522  12.778  1.5235  0.1543  1.5160
13335TIP3    H261497   4.163   5.494  12.926 -0.4066 -3.6424  0.7674
13336TIP3   OH261498   3.179   4.362   4.999 -0.8270 -0.3130  0.4038
13336TIP3    H161499   3.142   4.419   4.932 -0.9518 -1.4410 -0.5233
13336TIP3    H261500   3.133   4.278   4.987  1.3627 -1.5046 -0.2148
13337TIP3   OH261501   6.148   4.338  13.853  0.1448 -0.5194 -0.0798
13337TIP3    H161502   6.084   4.400  13.889  1.0356  0.7754 -0.6276
13337TIP3    H261503   6.171   4.281  13.926  0.4529  0.7963  0.8952
13338TIP3   OH261504   1.271   0.335   0.935  0.4111  0.6461 -0.5151
13338TIP3    H161505   1.245   0.327   1.027 -0.0643 -1.5632 -0.7879
13338TIP3    H261506   1.220   0.410   0.903  0.8134  1.6512  1.0579
13339TIP3   OH261507   4.952   5.904  15.522 -0.5168  0.4274 -0.5890
13339TIP3    H161508   4.858   5.888  15.533 -0.4817  0.3015 -0.4548
13339TIP3    H261509   4.962   5.932  15.431 -0.8360  1.6348 -0.2594
13340TIP3   OH261510   4.032   4.803   4.543  0.1931  0.1137  0.1267
13340TIP3    H161511   4.084   4.724   4.559 -1.4328 -0.8035  1.1551
13340TIP3    H261512   4.028   4.847   4.628 -1.0535 -0.0694  0.1781
13341TIP3   OH261513   3.222   2.516  16.930 -0.1846 -0.1875  0.6010
13341TIP3    H161514   3.155   2.447  16.930  0.1757 -0.5666  1.9118
13341TIP3    H261515   3.281   2.492  16.858 -0.2182 -1.1070  0.8660
13342TIP3   OH261516   6.476   2.604  14.153 -0.1808 -0.5000  0.3538
13342TIP3    H161517   6.566   2.572  14.149 -0.2823 -0.7145 -1.0737
13342TIP3    H261518   6.426   2.530  14.186  0.2571 -0.0971  2.0004
13343TIP3   OH261519   4.854   5.716  10.697  0.2434  0.4337 -0.4750
13343TIP3    H161520   4.759   5.717  10.682 -0.4649  0.8433  3.1315
13343TIP3    H261521   4.868   5.643  10.756  1.5970  2.3897  1.7913
13344TIP3   OH261522   0.673   2.828  11.145 -0.3630  0.4928  0.5903
13344TIP3    H161523   0.748   2.818  11.203 -0.2563 -1.8782  0.1454
13344TIP3    H261524   0.600   2.852  11.203  0.0331 -0.5110  1.5399
13345TIP3   OH261525   1.987   3.285  13.178  0.5895  0.7488  0.4471
13345TIP3    H161526   1.908   3.339  13.185 -0.0737 -0.3197  1.6359
13345TIP3    H261527   2.050   3.328  13.235 -0.1528 -0.0655  1.9182
13346TIP3   OH261528   1.469   5.794   5.759 -0.3519 -0.0101  0.3132
13346TIP3    H161529   1.418   5.713   5.753  0.5253 -0.5473 -0.0622
13346TIP3    H261530   1.435   5.849   5.688 -1.0250 -0.0001  0.6373
13347TIP3   OH261531   1.233   2.680   0.525  0.4982  0.3004 -0.5382
13347TIP3    H161532   1.322   2.660   0.557  1.1361 -0.3481 -2.5815
13347TIP3    H261533   1.239   2.770   0.493  1.1125 -0.4397 -2.7114
13348TIP3   OH261534   0.905   0.166   0.079 -0.4319  1.1438  0.2416
13348TIP3    H161535   0.942   0.243   0.122  0.7667  0.5710  0.2867
13348TIP3    H261536   0.942   0.169  -0.010  0.5281  0.0491  0.5791
13349TIP3   OH261537   4.663   2.917  12.763 -0.0982 -0.4730  0.0312
13349TIP3    H161538   4.718   2.871  12.700 -1.8763 -2.9597  0.1024
13349TIP3    H261539   4.696   2.889  12.849 -0.2053 -0.3728  0.1053
13350TIP3   OH261540   2.508   1.005  12.718  0.1023 -0.1249  0.0646
13350TIP3    H161541   2.579   1.047  12.669  0.1161 -0.8630 -0.5744
13350TIP3    H261542   2.490   0.924  12.669 -0.9259 -0.1286  0.4226
13351TIP3   OH261543   3.975   6.375  14.121  0.1754  0.2910  0.1845
13351TIP3    H161544   4.049   6.404  14.067  1.0566 -1.2141  0.5314
13351TIP3    H261545   3.908   6.442  14.107  0.5812  0.2805 -2.3342
13352TIP3   OH261546   4.802   5.030   5.227  0.4502  0.0766 -0.0877
13352TIP3    H161547   4.729   5.092   5.229  0.4178  0.0355  0.0333
13352TIP3    H261548   4.862   5.062   5.295  0.8769  0.5133 -0.6629
13353TIP3   OH261549   3.636   2.948   5.047 -0.3348  0.5715 -0.3274
13353TIP3    H161550   3.699   2.890   5.089 -2.3627 -0.9047  0.8531
13353TIP3    H261551   3.681   3.033   5.043  1.2617 -0.1027  1.5440
13354TIP3   OH261552   1.715   2.958  12.227 -0.4239 -0.4615 -0.2116
13354TIP3    H161553   1.627   2.937  12.196 -0.6090 -0.6823  0.4346
13354TIP3    H261554   1.754   2.872  12.244  0.0051 -0.3716 -0.7209
13355TIP3   OH261555   1.672   1.248  13.644  0.3724  0.8220 -0.6590
13355TIP3    H161556   1.632   1.190  13.709 -0.3264  1.0937 -0.8318
13355TIP3    H261557   1.739   1.296  13.692 -0.4332  1.3412 -0.0084
13356TIP3   OH261558   4.590   1.779   2.672 -0.4945  1.2511  0.2036
13356TIP3    H161559   4.675   1.816   2.650  0.1368  0.1979  0.7772
13356TIP3    H261560   4.576   1.710   2.607 -0.4237  0.7295  0.7350
13357TIP3   OH261561   3.344   3.940   2.166 -0.0383  0.5385 -0.1643
13357TIP3    H161562   3.400   3.943   2.244 -0.2527  1.2433 -0.0356
13357TIP3    H261563   3.304   4.027   2.162  0.3088  0.6557 -1.3035
13358TIP3   OH261564   2.979   2.794   2.087  0.5377  0.0045 -0.0604
13358TIP3    H161565   3.004   2.714   2.133  0.3509  0.3130  0.5793
13358TIP3    H261566   3.010   2.780   1.997 -0.9244 -1.4754 -0.3839
13359TIP3   OH261567   1.492   6.582  16.016  0.4958 -0.3244  0.5344
13359TIP3    H161568   1.550   6.658  16.016  1.3094 -0.9259  1.0812
13359TIP3    H261569   1.428   6.601  15.947  0.5512  0.9393  0.8076
13360TIP3   OH261570   4.937   1.314   1.393 -0.0266 -0.1191 -0.3048
13360TIP3    H161571   4.920   1.384   1.456 -0.5606 -2.7603  2.7319
13360TIP3    H261572   5.032   1.304   1.394 -0.0547 -0.3779  0.3901
13361TIP3   OH261573   0.499   3.274  11.140  0.2931 -0.2142 -0.0444
13361TIP3    H161574   0.433   3.327  11.095  0.7187  0.0658 -0.3459
13361TIP3    H261575   0.449   3.203  11.181 -0.6044  1.6370  2.2931
13362TIP3   OH261576   5.229   3.206  10.661 -0.2244 -0.1441 -0.1952
13362TIP3    H161577   5.252   3.130  10.714  0.4077 -0.5425 -1.0041
13362TIP3    H261578   5.208   3.275  10.724 -1.3694 -1.1391  0.5517
13363TIP3   OH261579   5.052   0.476  11.500 -0.3082  0.2014  0.3216
13363TIP3    H161580   5.091   0.418  11.435 -0.8368 -0.5860  0.6925
13363TIP3    H261581   4.985   0.423  11.543 -1.8786  1.5235 -0.3492
13364TIP3   OH261582   1.550   0.054  14.195 -1.0263  0.4867  0.1152
13364TIP3    H161583   1.470   0.048  14.247 -0.3622 -2.5004  1.0027
13364TIP3    H261584   1.603   0.119  14.239 -2.1928  1.1338  0.6161
13365TIP3   OH261585   3.509   3.561   4.952  0.4955  0.4586  0.8087
13365TIP3    H161586   3.522   3.471   4.984 -1.4628 -0.1339  0.1022
13365TIP3    H261587   3.459   3.550   4.871 -0.7849  2.2298  1.3052
13366TIP3   OH261588   2.127   4.713  16.673 -0.1927  0.1729 -0.1941
13366TIP3    H161589   2.188   4.785  16.692  0.5961 -0.8625  1.5193
13366TIP3    H261590   2.052   4.731  16.729  0.2565 -0.5903  0.6943
13367TIP3   OH261591   2.658   3.128   5.208 -0.4971 -0.2252 -0.5785
13367TIP3    H161592   2.629   3.070   5.278 -0.1225 -0.7675 -0.8637
13367TIP3    H261593   2.632   3.083   5.128 -2.4762  1.1974 -0.8008
13368TIP3   OH261594   2.883   6.748   0.666 -0.3348  0.6793 -0.1984
13368TIP3    H161595   2.942   6.685   0.708 -0.8730 -0.3419 -0.9356
13368TIP3    H261596   2.852   6.803   0.738 -1.5396 -1.2721  0.8708
13369TIP3   OH261597   1.972   6.606   0.105  0.9506  0.1247 -0.0831
13369TIP3    H161598   2.014   6.587   0.022  0.2458 -0.7895 -0.2401
13369TIP3    H261599   1.897   6.546   0.109 -0.0289  1.3375  0.4278
13370TIP3   OH261600   1.279   5.686  12.426 -0.4589  0.5021 -0.1546
13370TIP3    H161601   1.265   5.617  12.490 -2.0739  1.0962  0.1903
13370TIP3    H261602   1.360   5.662  12.381  0.7146  0.0728  2.0702
13371TIP3   OH261603   2.470   4.400  15.425 -0.2011 -0.0587 -0.5261
13371TIP3    H161604   2.399   4.450  15.384 -0.4671 -0.9286 -1.1551
13371TIP3    H261605   2.549   4.430  15.381 -0.1010  1.1903  0.4364
13372TIP3   OH261606   0.051   3.699  12.805 -0.0949 -0.2333 -0.0833
13372TIP3    H161607   0.027   3.659  12.888 -0.5755  2.0368  0.9301
13372TIP3    H261608  -0.024   3.684  12.748 -0.3560 -0.5793  0.3487
13373TIP3   OH261609   3.887   5.261  12.015  0.0897  0.0673 -0.0676
13373TIP3    H161610   3.864   5.168  12.008  0.0224  0.0310  0.6459
13373TIP3    H261611   3.814   5.306  11.972 -0.0413 -0.1889 -0.1163
13374TIP3   OH261612   4.049   5.577  12.042  0.0439  0.0861  0.3925
13374TIP3    H161613   3.985   5.572  11.971  1.1847 -0.2099 -0.6308
13374TIP3    H261614   4.019   5.511  12.105 -1.6913  1.2260  0.8226
13375TIP3   OH261615   0.568   5.637  16.242 -0.2712 -0.6110  0.4560
13375TIP3    H161616   0.641   5.622  16.302  0.0023  1.5804  0.7513
13375TIP3    H261617   0.540   5.549  16.216  2.0645 -1.5322  0.7946
13376TIP3   OH261618   6.510   5.585   4.782 -0.1342  0.4435 -0.7842
13376TIP3    H161619   6.440   5.619   4.726  0.5226  3.8908  0.2281
13376TIP3    H261620   6.481   5.605   4.871  1.3814  0.3706 -0.2499
13377TIP3   OH261621   5.719   3.512  13.587  0.3443  0.4981 -0.1421
13377TIP3    H161622   5.712   3.606  13.573 -0.2300  0.6172  0.8282
13377TIP3    H261623   5.661   3.495  13.661  1.0948 -0.4865  0.2353
13378TIP3   OH261624   4.978   5.032  16.765 -0.0163 -0.7171 -0.1562
13378TIP3    H161625   4.969   4.980  16.845  0.4716  0.5276  0.7200
13378TIP3    H261626   4.912   5.100  16.773 -1.8355 -2.1014 -2.0899
13379TIP3   OH261627   4.424   4.579  12.433 -0.0811 -0.5654  0.0046
13379TIP3    H161628   4.400   4.648  12.495 -3.1098 -1.5936  0.1463
13379TIP3    H261629   4.450   4.626  12.354  2.3081  0.7313  1.4481
13380TIP3   OH261630   3.607   0.956  12.701 -0.0802  0.2782  0.0012
13380TIP3    H161631   3.547   0.946  12.627 -0.6057 -0.2999  0.4957
13380TIP3    H261632   3.618   0.867  12.735  0.7621  0.4322  0.1555
13381TIP3   OH261633   0.839   1.286   5.001 -0.0914  0.0898 -0.5922
13381TIP3    H161634   0.757   1.307   4.955  1.0237 -0.8246 -3.1669
13381TIP3    H261635   0.893   1.243   4.935  2.6713  1.0628  0.8814
13382TIP3   OH261636   2.561   1.340  16.414 -0.0564  0.3702  0.4183
13382TIP3    H161637   2.539   1.248  16.426 -0.4097  0.7297  3.0396
13382TIP3    H261638   2.502   1.387  16.472  0.4400  2.2341 -0.4994
13383TIP3   OH261639   1.681   6.132  12.897  0.4131 -0.2025  0.1747
13383TIP3    H161640   1.666   6.087  12.814 -0.9420  0.2195  0.1730
13383TIP3    H261641   1.773   6.157  12.894 -0.0519  1.5416 -2.0683
13384TIP3   OH261642   0.670   4.774  14.643  0.3447  0.1399 -0.7442
13384TIP3    H161643   0.676   4.867  14.663 -1.2363  0.0327  0.3875
13384TIP3    H261644   0.736   4.760  14.575 -0.7555  2.4871 -2.4255
13385TIP3   OH261645   2.224   5.451  13.551 -0.8169  0.1907 -0.1214
13385TIP3    H161646   2.201   5.544  13.551  0.5181  0.5307 -0.3623
13385TIP3    H261647   2.193   5.419  13.467  0.1350  0.7942 -0.7232
13386TIP3   OH261648   5.581   2.474  16.046  0.9359 -0.5621 -0.2088
13386TIP3    H161649   5.636   2.552  16.039 -0.9579  0.9053  0.5662
13386TIP3    H261650   5.592   2.445  16.137 -0.5246  0.5146  0.3387
13387TIP3   OH261651   3.520   5.092   2.264 -0.0525 -0.3587 -0.0110
13387TIP3    H161652   3.608   5.131   2.259 -0.4945  0.6472 -0.3606
13387TIP3    H261653   3.529   5.020   2.326  0.6902  0.6417  1.0950
13388TIP3   OH261654   4.955   3.211   5.984  0.0483 -0.5211 -0.2052
13388TIP3    H161655   4.917   3.292   6.018  1.2016 -0.2794  0.5731
13388TIP3    H261656   4.879   3.158   5.958 -0.8063  0.0457  1.0315
13389TIP3   OH261657   5.934   0.414   1.767 -0.5044  0.0966 -0.5738
13389TIP3    H161658   5.960   0.324   1.748  2.8292  0.9998 -0.8754
13389TIP3    H261659   5.903   0.411   1.858 -1.6037 -1.5173 -0.9643
13390TIP3   OH261660   1.634   1.685  14.954  0.4141 -0.1101  0.1401
13390TIP3    H161661   1.655   1.635  14.875 -1.3164  1.1034 -1.1706
13390TIP3    H261662   1.539   1.679  14.961  0.3968  1.0474  1.2547
13391TIP3   OH261663   2.023   0.894  12.357 -0.0504  0.4310  0.0265
13391TIP3    H161664   2.031   0.821  12.419 -1.0337 -0.6500 -1.0820
13391TIP3    H261665   2.026   0.972  12.413  0.5419 -0.4451  1.2898
13392TIP3   OH261666   1.067   4.945   1.269 -0.2170  0.2197  0.6690
13392TIP3    H161667   1.092   4.858   1.237  2.9535  0.6659  1.6522
13392TIP3    H261668   1.061   4.998   1.189  2.6475  0.1591  0.3239
13393TIP3   OH261669   0.138   4.247   4.218 -0.4819 -1.0251  0.2829
13393TIP3    H161670   0.231   4.231   4.233 -0.6933 -0.4668  2.6293
13393TIP3    H261671   0.109   4.296   4.296 -3.0196 -2.3048  0.2496
13394TIP3   OH261672   5.091   0.688   5.996 -0.2115  0.3115 -0.0591
13394TIP3    H161673   5.054   0.599   5.992  1.3793 -0.3774 -0.2327
13394TIP3    H261674   5.015   0.745   6.010 -1.2552 -1.0842  0.1962
13395TIP3   OH261675   2.024   4.821  12.028 -0.0742 -0.0519 -0.0614
13395TIP3    H161676   1.991   4.884  12.093  2.0072  0.1809  0.8362
13395TIP3    H261677   1.958   4.752  12.027 -1.5539  1.2999  0.2083
13396TIP3   OH261678   1.697   4.387   3.151  0.1642  0.5492 -0.1563
13396TIP3    H161679   1.780   4.339   3.149  0.8704  1.7168  0.3492
13396TIP3    H261680   1.643   4.338   3.214  0.4575 -0.2067 -0.4736
13397TIP3   OH261681   0.236   6.693   1.587  0.0887 -0.2036 -0.1633
13397TIP3    H161682   0.172   6.631   1.553  1.5967 -2.4184  0.7754
13397TIP3    H261683   0.186   6.750   1.645 -0.9819 -2.3889  1.1993
13398TIP3   OH261684   3.823   6.566   1.592  0.4265 -0.3010  0.3889
13398TIP3    H161685   3.891   6.628   1.566 -0.0115 -0.7470 -1.9871
13398TIP3    H261686   3.863   6.480   1.578  0.3621 -0.5912  1.8281
13399TIP3   OH261687   1.532   0.491  12.211  0.4242 -0.1768  0.5297
13399TIP3    H161688   1.598   0.428  12.240  0.5037 -0.4237 -0.1775
13399TIP3    H261689   1.455   0.438  12.191  0.5256 -0.0688 -0.1746
13400TIP3   OH261690   6.371   1.676  11.840  0.2828  0.6276 -0.3282
13400TIP3    H161691   6.317   1.729  11.782 -1.2453 -1.0731 -0.5745
13400TIP3    H261692   6.437   1.637  11.783  1.5899  2.3944 -0.0970
13401TIP3   OH261693   2.094   4.386  15.706  0.5936  0.0857 -0.3433
13401TIP3    H161694   2.125   4.341  15.628  1.7325 -1.4121  0.9167
13401TIP3    H261695   2.137   4.472  15.702 -0.5936  0.6533 -2.1112
13402TIP3   OH261696   0.107   6.306   2.624 -0.0794  0.0333 -0.3997
13402TIP3    H161697   0.095   6.398   2.599 -1.5059  0.3510  1.2368
13402TIP3    H261698   0.043   6.292   2.694  1.7312 -1.5489  1.0469
13403TIP3   OH261699   0.588   2.844  14.688 -0.5253 -0.9072  0.9748
13403TIP3    H161700   0.586   2.777  14.619  1.7638 -0.8318  0.7775
13403TIP3    H261701   0.512   2.824  14.743 -0.1512 -3.4226  0.6876
13404TIP3   OH261702   3.555   5.135  16.297  0.9596 -0.0730 -0.0993
13404TIP3    H161703   3.624   5.199  16.277  0.7983 -0.0010 -0.4223
13404TIP3    H261704   3.567   5.065  16.233  1.1065 -0.3483  0.2268
13405TIP3   OH261705   3.732   1.809   1.125 -0.6918  0.1429 -0.3465
13405TIP3    H161706   3.768   1.782   1.041 -0.1836  0.9330 -0.3903
13405TIP3    H261707   3.683   1.733   1.155  0.3523 -0.6801 -0.6634
13406TIP3   OH261708   3.745   2.095  14.542  0.5243  0.4100  0.2896
13406TIP3    H161709   3.710   2.138  14.464 -1.5943 -1.5757  0.0323
13406TIP3    H261710   3.800   2.024  14.507  0.0342 -0.1246  0.5963
13407TIP3   OH261711   3.111   6.419   0.534  0.1155  0.1452 -0.1802
13407TIP3    H161712   3.078   6.455   0.616  0.0011 -0.0509 -0.1387
13407TIP3    H261713   3.062   6.338   0.522  0.5508 -0.1311 -0.1377
13408TIP3   OH261714   4.769   1.312   1.733  0.0372 -0.0338  0.0006
13408TIP3    H161715   4.746   1.219   1.724  0.3945 -0.1222 -0.0135
13408TIP3    H261716   4.688   1.354   1.761 -0.1233 -0.3541  0.0226
13409TIP3   OH261717   3.753   6.115   6.154 -0.8212  0.1841  0.1571
13409TIP3    H161718   3.700   6.042   6.186  1.6649 -0.9630  2.0717
13409TIP3    H261719   3.716   6.192   6.197 -0.4405 -0.7114  2.2371
13410TIP3   OH261720   1.447   5.972  13.981 -0.0445  0.2760 -0.0962
13410TIP3    H161721   1.529   6.022  13.985 -0.2494  0.5341  1.7068
13410TIP3    H261722   1.393   6.009  14.051 -1.4855 -0.2921 -0.8653
13411TIP3   OH261723   2.034   6.403   2.251 -0.4683  0.4302 -0.3254
13411TIP3    H161724   2.010   6.455   2.328 -0.9811 -1.3836  0.8273
13411TIP3    H261725   2.122   6.371   2.271 -1.3897 -1.7429  0.5509
13412TIP3   OH261726   4.062   6.472   1.224 -0.9109 -0.4705  0.2144
13412TIP3    H161727   4.032   6.382   1.211 -0.9206 -0.4324 -0.0196
13412TIP3    H261728   4.056   6.485   1.319 -0.3743 -0.9075  0.3155
13413TIP3   OH261729   1.132   1.295  16.059  0.1732  0.2018 -0.3238
13413TIP3    H161730   1.207   1.272  16.114  0.3604  0.4836 -0.4639
13413TIP3    H261731   1.078   1.216  16.059  0.5853 -0.0805 -0.4149
13414TIP3   OH261732   4.241   1.755  16.672 -0.1318 -0.2114 -0.2700
13414TIP3    H161733   4.236   1.661  16.685  0.5309 -0.2564 -0.3239
13414TIP3    H261734   4.232   1.766  16.577  3.7008 -0.5509 -0.8313
13415TIP3   OH261735   2.340   2.455   4.992 -0.1227  0.3432 -0.4171
13415TIP3    H161736   2.428   2.475   4.961  0.4529 -1.3976 -0.0360
13415TIP3    H261737   2.333   2.360   4.984 -1.5348  0.3201  0.6956
13416TIP3   OH261738   1.473   1.611  17.216  0.1268 -0.3383  0.2429
13416TIP3    H161739   1.527   1.533  17.205  0.1068 -0.5585  1.5740
13416TIP3    H261740   1.424   1.596  17.297  0.9064  1.4729  1.1158
13417TIP3   OH261741   0.287   6.262  16.469 -0.4448  0.2272 -0.3298
13417TIP3    H161742   0.295   6.235  16.561 -0.4704 -0.2526 -0.4715
13417TIP3    H261743   0.244   6.189  16.426 -1.3312  0.8504 -0.5303
13418TIP3   OH261744   5.997   4.742  13.583 -0.4635 -0.1101 -0.1615
13418TIP3    H161745   6.005   4.648  13.566 -2.6540 -0.3941  0.1100
13418TIP3    H261746   6.009   4.751  13.678  0.8543  0.0761 -0.3162
13419TIP3   OH261747   4.397   3.238   0.479 -0.4084  0.3308  0.2423
13419TIP3    H161748   4.404   3.226   0.384 -1.8524 -0.5826  0.2183
13419TIP3    H261749   4.407   3.150   0.515 -1.3248  0.4458  0.8163
13420TIP3   OH261750   4.598   1.908  11.185  0.9911 -0.3470  0.1673
13420TIP3    H161751   4.594   2.003  11.193  1.3330 -0.1171 -1.8178
13420TIP3    H261752   4.519   1.878  11.230  1.4147  0.7731  1.7386
13421TIP3   OH261753   3.948   4.140   2.510 -0.9086 -0.5206 -0.5848
13421TIP3    H161754   3.949   4.047   2.535 -0.6243 -0.4139 -0.1808
13421TIP3    H261755   3.884   4.180   2.569 -0.0155 -0.2110  0.2138
13422TIP3   OH261756   4.366   6.688  10.773 -0.5691  0.2822  0.0650
13422TIP3    H161757   4.439   6.682  10.712 -0.9210 -0.0837 -0.3278
13422TIP3    H261758   4.295   6.638  10.731 -1.1484  0.8983  0.2811
13423TIP3   OH261759   4.342   5.738  14.662 -0.3268 -0.0274  0.2446
13423TIP3    H161760   4.281   5.787  14.718  2.9765  1.6905  2.6641
13423TIP3    H261761   4.378   5.804  14.602  0.2610 -0.6709 -0.1264
13424TIP3   OH261762   2.990   1.153   3.635 -0.0669 -0.8965  0.0865
13424TIP3    H161763   3.085   1.138   3.637  0.1335  0.0816 -1.1633
13424TIP3    H261764   2.952   1.067   3.619  0.5356 -1.4670  1.5507
13425TIP3   OH261765   4.258   3.553  10.738  0.0394  0.3875 -0.4811
13425TIP3    H161766   4.337   3.601  10.715 -0.0794  0.2595 -1.1753
13425TIP3    H261767   4.243   3.494  10.664  0.0397 -0.5381  0.2345
13426TIP3   OH261768   5.271   4.177  11.615  0.4921  0.0416 -0.6136
13426TIP3    H161769   5.320   4.176  11.697 -0.0487 -0.0468 -0.2842
13426TIP3    H261770   5.245   4.269  11.604  0.0087 -0.0538 -0.3370
13427TIP3   OH261771   3.281   0.683   3.286 -0.5645  0.7553  0.0264
13427TIP3    H161772   3.200   0.730   3.265  0.2900  2.7766  0.9267
13427TIP3    H261773   3.306   0.641   3.204 -2.9169 -0.6192 -0.0602
13428TIP3   OH261774   2.679   5.581  14.719 -0.4752  0.1314 -0.0240
13428TIP3    H161775   2.748   5.523  14.686 -1.0182 -0.6880  0.2574
13428TIP3    H261776   2.725   5.641  14.778  0.0038 -0.4124  0.1649
13429TIP3   OH261777   3.751   6.137  16.465 -0.0567  0.5019  0.1216
13429TIP3    H161778   3.768   6.162  16.556  2.4355 -0.8740  0.1159
13429TIP3    H261779   3.790   6.207  16.413 -0.5620  0.7659  0.0907
13430TIP3   OH261780   6.006   1.083  17.173  0.2459 -0.2613 -0.2197
13430TIP3    H161781   6.100   1.067  17.159  0.2681  0.3624 -0.8390
13430TIP3    H261782   5.967   1.072  17.086 -0.0614  0.7719 -0.2270
13431TIP3   OH261783   1.339   0.234   0.445 -0.5010 -0.6245  0.2695
13431TIP3    H161784   1.360   0.165   0.507  2.5426  1.6454  2.0204
13431TIP3    H261785   1.279   0.292   0.492 -0.5048 -0.4091  0.0051
13432TIP3   OH261786   0.281   5.841  13.673  0.2265  0.1206  0.2906
13432TIP3    H161787   0.236   5.907  13.621 -0.4006 -1.5710 -1.4564
13432TIP3    H261788   0.348   5.889  13.722 -0.1968  2.0128 -0.9089
13433TIP3   OH261789   0.102   3.737   2.914 -0.0202 -0.0708  0.0948
13433TIP3    H161790   0.088   3.817   2.863 -0.2158 -0.4574 -0.4691
13433TIP3    H261791   0.045   3.747   2.991 -2.8675 -1.2082 -1.6975
13434TIP3   OH261792   5.100   5.611   1.285  0.3370 -0.5373  0.0970
13434TIP3    H161793   5.091   5.520   1.314 -0.1168 -0.2199  0.9732
13434TIP3    H261794   5.195   5.626   1.284  0.3825  0.0289  3.3777
13435TIP3   OH261795   5.932   5.805  12.007 -0.0075 -0.4402 -0.2398
13435TIP3    H161796   5.936   5.877  11.944  0.6439  1.3801  1.7334
13435TIP3    H261797   5.901   5.846  12.088 -3.0445 -3.1013  0.1559
13436TIP3   OH261798   1.364   4.337   2.062  0.4014 -0.1076  0.1038
13436TIP3    H161799   1.296   4.308   2.123  0.2842  0.0366  0.0409
13436TIP3    H261800   1.424   4.263   2.058  0.1365 -0.3203 -0.0022
13437TIP3   OH261801   5.862   3.886  13.863  0.3627  0.0279  0.2955
13437TIP3    H161802   5.802   3.875  13.790 -1.3526  0.6945  1.5222
13437TIP3    H261803   5.879   3.797  13.895  0.5833 -0.2123 -0.4805
13438TIP3   OH261804   3.329   2.625   3.184  0.3332  0.3552 -0.0711
13438TIP3    H161805   3.325   2.709   3.140  1.4743  0.3083 -0.2938
13438TIP3    H261806   3.294   2.642   3.272 -0.1763  0.8720 -0.3713
13439TIP3   OH261807   4.184   6.573  14.664 -0.2698  0.6856 -0.2640
13439TIP3    H161808   4.278   6.582  14.682 -0.3225  1.5614 -0.3930
13439TIP3    H261809   4.167   6.636  14.594 -1.3351  1.9515  1.0671
13440TIP3   OH261810   2.340   4.425  11.145  0.6936 -0.2938  0.4991
13440TIP3    H161811   2.323   4.505  11.096  1.3429  0.8087  2.0002
13440TIP3    H261812   2.373   4.363  11.080 -0.9812  0.2191 -0.9139
13441TIP3   OH261813   3.748   1.386  13.379 -0.3406  0.5396 -0.1156
13441TIP3    H161814   3.658   1.359  13.363 -0.4226  0.7169  0.0489
13441TIP3    H261815   3.797   1.304  13.381 -0.5019  0.4412 -0.1765
13442TIP3   OH261816   1.418   4.078  11.955 -0.5411  0.0546 -0.0565
13442TIP3    H161817   1.428   4.010  11.889  1.3494 -0.4156  0.6548
13442TIP3    H261818   1.379   4.033  12.030 -0.0425 -0.0587  0.1342
13443TIP3   OH261819   4.272   2.896   1.603 -0.4022 -0.0547  0.0195
13443TIP3    H161820   4.219   2.844   1.663 -1.2373  0.1222 -0.5580
13443TIP3    H261821   4.229   2.887   1.518  2.3539 -2.7428 -1.2858
13444TIP3   OH261822   6.523   6.822   5.431  0.0609 -0.6718  0.1810
13444TIP3    H161823   6.577   6.743   5.431  0.6137 -0.3833 -2.3406
13444TIP3    H261824   6.577   6.889   5.390 -1.1753  0.4273  0.2574
13445TIP3   OH261825   5.046   4.602  12.405  0.1353  0.9993 -0.3369
13445TIP3    H161826   5.044   4.532  12.340  1.8342  0.1563  0.4428
13445TIP3    H261827   5.094   4.564  12.479  0.0069  2.5913  0.6050
13446TIP3   OH261828   6.492   5.558  14.413 -0.4299  0.6696  0.0056
13446TIP3    H161829   6.544   5.623  14.367  0.8336  0.6714  1.3473
13446TIP3    H261830   6.495   5.480  14.358  0.4531  0.8862 -0.2581
13447TIP3   OH261831   4.346   2.521   1.724 -0.3230 -0.0898  0.3728
13447TIP3    H161832   4.352   2.428   1.706 -1.5678  0.1813 -1.6629
13447TIP3    H261833   4.328   2.562   1.640 -2.7891  1.6879  1.6368
13448TIP3   OH261834   2.905   3.141   0.164  0.3395  0.0787 -0.1630
13448TIP3    H161835   2.958   3.085   0.108 -0.3121 -0.0889 -0.6312
13448TIP3    H261836   2.815   3.126   0.134  0.0803  0.7602  0.2495
13449TIP3   OH261837   2.810   3.519  15.526 -0.1791 -0.3686  0.5381
13449TIP3    H161838   2.743   3.471  15.575 -0.8091  0.6510  0.7027
13449TIP3    H261839   2.833   3.460  15.454 -1.1621 -0.7883  0.5479
13450TIP3   OH261840   1.950   2.880  15.811  0.0452 -0.1001 -0.2133
13450TIP3    H161841   1.937   2.930  15.891  0.1154 -1.7654  0.8898
13450TIP3    H261842   1.892   2.804  15.820 -0.0984 -0.2136 -1.8436
13451TIP3   OH261843   2.609   3.213  14.454 -0.1813  0.0026 -0.2736
13451TIP3    H161844   2.571   3.252  14.533 -0.0760  0.3416 -0.3910
13451TIP3    H261845   2.554   3.245  14.382  1.0392  1.5048 -0.5884
13452TIP3   OH261846   5.597   2.484   3.026  0.3906  0.0756  0.1603
13452TIP3    H161847   5.598   2.579   3.041 -0.2623  0.4505 -1.8282
13452TIP3    H261848   5.679   2.466   2.981  0.8600 -0.4549  1.1998
13453TIP3   OH261849   2.808   3.604  16.815 -0.4829  0.4477  0.4539
13453TIP3    H161850   2.713   3.600  16.819 -0.5293  0.3473 -0.6084
13453TIP3    H261851   2.829   3.607  16.722  0.5171  1.4395  0.6824
13454TIP3   OH261852   0.416   6.663  16.265  0.0506 -0.6481  0.2534
13454TIP3    H161853   0.445   6.605  16.194  1.2466  0.0550  0.1445
13454TIP3    H261854   0.495   6.681  16.315 -0.7197 -0.8602  1.5958
13455TIP3   OH261855   3.578   4.011  15.479 -0.5312  0.4830  0.1316
13455TIP3    H161856   3.559   3.992  15.571  2.2919 -3.0611  0.2021
13455TIP3    H261857   3.648   4.078  15.483  0.4150 -0.5044  0.6820
13456TIP3   OH261858   2.665   1.491   1.168  0.0313  0.0570  0.2111
13456TIP3    H161859   2.609   1.446   1.104 -1.2467  2.2990 -0.3529
13456TIP3    H261860   2.648   1.446   1.250  0.0368 -1.4787 -0.5780
13457TIP3   OH261861   5.187   2.883  15.562 -0.0179 -0.7508 -0.0492
13457TIP3    H161862   5.092   2.883  15.545  0.1346 -0.2987 -1.0043
13457TIP3    H261863   5.204   2.801  15.607 -0.6799 -1.4517 -1.0408
13458TIP3   OH261864   5.216   5.296   2.021  0.0668  0.1740  0.1326
13458TIP3    H161865   5.167   5.362   1.972 -1.0132  0.3658  1.4301
13458TIP3    H261866   5.161   5.275   2.096  0.9269 -1.3475  0.3830
13459TIP3   OH261867   6.476   4.088   3.123  0.1643  0.3107  0.5768
13459TIP3    H161868   6.529   4.048   3.192  0.6499 -0.6243 -0.3122
13459TIP3    H261869   6.390   4.047   3.132  1.0274 -2.1866 -1.2399
13460TIP3   OH261870   5.984   4.326   4.171 -0.3830  0.1031  0.2913
13460TIP3    H161871   6.034   4.370   4.101 -1.2509  2.3730  1.0132
13460TIP3    H261872   5.900   4.371   4.172 -1.7132 -2.2736  0.4849
13461TIP3   OH261873   0.267   2.467   4.105  0.3481 -0.3606 -1.2090
13461TIP3    H161874   0.228   2.380   4.106 -1.1861  0.2767  0.4302
13461TIP3    H261875   0.249   2.501   4.018 -2.0871 -0.4376 -0.8084
13462TIP3   OH261876   3.435   2.523   0.749 -0.5323 -0.5380  0.0918
13462TIP3    H161877   3.444   2.489   0.660  0.7314  0.5632 -0.2267
13462TIP3    H261878   3.500   2.474   0.800  0.2038  0.2679 -0.0463
13463TIP3   OH261879   2.451   1.079   3.098 -0.3477 -0.5284  0.1035
13463TIP3    H161880   2.527   1.126   3.063  1.4161 -3.3479 -0.1123
13463TIP3    H261881   2.418   1.136   3.167  0.5167  1.8219 -1.2952
13464TIP3   OH261882   2.052   3.978   0.313  0.3905  0.1888 -0.0837
13464TIP3    H161883   2.141   3.963   0.281  0.3398  0.0954 -0.1804
13464TIP3    H261884   2.061   3.984   0.408  0.6418  1.1390 -0.1570
13465TIP3   OH261885   5.804   3.727   5.978  0.0657  0.2439  0.5063
13465TIP3    H161886   5.773   3.817   5.992 -1.6421 -0.4566  1.4540
13465TIP3    H261887   5.767   3.701   5.894 -0.5708 -0.0445  0.8779
13466TIP3   OH261888   4.899   5.654   5.670 -0.0150 -0.0116  0.0158
13466TIP3    H161889   4.850   5.735   5.685  0.6894  0.5440 -0.5964
13466TIP3    H261890   4.971   5.658   5.733 -0.9051 -0.9662  1.1144
13467TIP3   OH261891   5.966   1.195  14.518  0.6451  0.1807  0.2169
13467TIP3    H161892   5.915   1.234  14.588 -0.0109 -0.2999  0.0170
13467TIP3    H261893   6.054   1.232  14.528  0.1515  1.3689  0.2778
13468TIP3   OH261894   3.647   0.740   5.217 -0.1856  0.4963  0.2626
13468TIP3    H161895   3.620   0.674   5.152  1.0629 -0.4113  0.6293
13468TIP3    H261896   3.727   0.778   5.181 -1.5501  2.8017 -0.5672
13469TIP3   OH261897   1.486   5.236   4.840  0.3119  0.5795 -0.4640
13469TIP3    H161898   1.519   5.217   4.752  2.7169  1.0874  0.2461
13469TIP3    H261899   1.538   5.179   4.898 -0.9107  0.5742  0.6675
13470TIP3   OH261900   4.307   4.752   1.517  0.0204 -0.6989  0.4783
13470TIP3    H161901   4.263   4.698   1.451 -0.2890 -1.2443  1.1245
13470TIP3    H261902   4.349   4.689   1.576  0.9013 -0.2024  0.4046
13471TIP3   OH261903   5.059   2.293  13.925  0.2812  0.4507  0.4113
13471TIP3    H161904   4.969   2.263  13.920  0.2414  0.4279  1.0896
13471TIP3    H261905   5.097   2.271  13.840  0.3401 -1.7965  0.9460
13472TIP3   OH261906   6.201   5.568   6.147 -0.1562  1.0458 -0.0228
13472TIP3    H161907   6.197   5.535   6.058 -0.6649  1.3855 -0.1291
13472TIP3    H261908   6.168   5.497   6.202  1.2502  0.3889  0.0298
13473TIP3   OH261909   2.894   6.838  14.228 -0.5396 -0.6007  0.1620
13473TIP3    H161910   2.905   6.743  14.230 -3.3591 -1.0383 -0.8634
13473TIP3    H261911   2.814   6.854  14.278 -1.7202  0.9045 -2.0789
13474TIP3   OH261912   3.835   0.213  11.184 -0.1524 -0.5177 -0.3180
13474TIP3    H161913   3.863   0.285  11.127  2.9327 -1.0285  0.3496
13474TIP3    H261914   3.868   0.134  11.141 -0.5139 -1.2077  0.6338
13475TIP3   OH261915   5.581   1.414   4.168  0.5006  0.2731 -0.5915
13475TIP3    H161916   5.610   1.473   4.099  2.4973  1.6894  1.3324
13475TIP3    H261917   5.645   1.426   4.238 -0.5226 -2.2792  0.9019
13476TIP3   OH261918   4.382   5.060  11.663  0.1019 -0.1501 -0.0253
13476TIP3    H161919   4.333   5.136  11.629 -0.4179  0.1572  1.3241
13476TIP3    H261920   4.321   4.987  11.653  1.1160 -0.7334 -2.6421
13477TIP3   OH261921   1.959   2.154  14.557  0.0377 -0.0481  0.2036
13477TIP3    H161922   1.872   2.142  14.596 -0.3132  0.4986 -0.4051
13477TIP3    H261923   2.019   2.147  14.632 -0.6326  1.1257  0.8850
13478TIP3   OH261924   6.630   0.239   6.428  0.1218 -0.8548  0.0064
13478TIP3    H161925   6.707   0.221   6.481  0.4753  2.2419  0.7350
13478TIP3    H261926   6.665   0.260   6.341  0.2494  1.2695  0.5229
13479TIP3   OH261927   1.988   6.059   3.809  0.4446  0.1748 -0.5632
13479TIP3    H161928   2.041   6.134   3.838 -1.1515  1.3945 -0.6237
13479TIP3    H261929   2.049   6.003   3.762  1.8529  1.0730  0.1153
13480TIP3   OH261930   3.963   0.971   5.597  0.2286  0.0413 -0.4050
13480TIP3    H161931   3.889   0.995   5.653  0.3353  1.0468 -0.6752
13480TIP3    H261932   4.020   1.049   5.597  0.5559 -0.1775 -1.3677
13481TIP3   OH261933   0.055   6.792   4.926  0.2111 -0.6959 -0.0308
13481TIP3    H161934  -0.005   6.800   5.000  0.9266 -1.9822  0.7275
13481TIP3    H261935  -0.002   6.786   4.849 -0.5816 -0.5961  0.5330
13482TIP3   OH261936   5.328   1.916  15.645  0.2487  0.0485 -0.0901
13482TIP3    H161937   5.419   1.894  15.667  0.3086 -0.2907 -0.6721
13482TIP3    H261938   5.302   1.978  15.713  0.5620 -0.6822  0.7091
13483TIP3   OH261939   1.585   2.834  11.590  0.3059 -0.5062  0.3143
13483TIP3    H161940   1.530   2.883  11.529  0.0180  0.1691  1.1049
13483TIP3    H261941   1.672   2.873  11.580  0.5852 -1.3577 -0.6993
13484TIP3   OH261942   1.582   1.401   5.591  0.0843 -0.1703  0.1118
13484TIP3    H161943   1.638   1.352   5.652  0.9614  0.1939 -0.3735
13484TIP3    H261944   1.586   1.350   5.510  0.4007  0.2965 -0.1728
13485TIP3   OH261945   0.388   3.106  17.072  0.3214 -0.3610  0.3528
13485TIP3    H161946   0.404   3.109  17.166 -1.0694 -0.7566  0.6297
13485TIP3    H261947   0.475   3.103  17.032  0.9806  1.2742  1.5481
13486TIP3   OH261948   5.735   6.499  12.330 -0.0307  0.1036 -0.3606
13486TIP3    H161949   5.728   6.579  12.380  0.7721  0.4398 -0.7567
13486TIP3    H261950   5.766   6.527  12.244 -0.4144 -0.5600 -0.7288
13487TIP3   OH261951   0.010   2.180   1.761 -0.4457  0.2887  0.1078
13487TIP3    H161952   0.017   2.132   1.844 -2.0765  2.0360  1.3182
13487TIP3    H261953  -0.029   2.117   1.700  0.0353 -0.7751  0.8760
13488TIP3   OH261954   6.710   0.133  10.987  0.7063 -0.0345  0.2113
13488TIP3    H161955   6.651   0.073  10.941  0.0660  0.8995 -0.2114
13488TIP3    H261956   6.687   0.220  10.953  1.0485  0.5423  1.4207
13489TIP3   OH261957   4.041   3.004   2.186  0.7391 -0.1029 -0.4529
13489TIP3    H161958   4.121   2.958   2.213 -0.4541 -2.4644 -0.6655
13489TIP3    H261959   4.049   3.011   2.091  1.4340  1.2370 -0.3205
13490TIP3   OH261960   3.218   6.495   3.601 -0.2017 -0.4611  0.0601
13490TIP3    H161961   3.245   6.446   3.679  2.0620 -1.2829 -1.1610
13490TIP3    H261962   3.261   6.580   3.610 -0.7349 -0.1931  0.1487
13491TIP3   OH261963   6.099   1.460  16.908  0.1340 -0.3250  0.0457
13491TIP3    H161964   6.179   1.439  16.859 -0.2516  2.4445 -2.0267
13491TIP3    H261965   6.130   1.503  16.988  0.7353 -0.3932 -0.1476
13492TIP3   OH261966   2.213   4.316   0.508 -0.0257 -0.3729  0.7005
13492TIP3    H161967   2.206   4.318   0.413  1.2389 -1.8529  0.5271
13492TIP3    H261968   2.277   4.384   0.529  1.3092 -1.4232  0.2441
13493TIP3   OH261969   0.518   2.533  11.576 -0.2236  0.3832 -0.3832
13493TIP3    H161970   0.427   2.558  11.590  0.4985  3.0298  0.0141
13493TIP3    H261971   0.523   2.443  11.609 -2.8407 -0.1406 -1.2041
13494TIP3   OH261972   0.963   3.683  13.281  0.1310  0.1038  0.0333
13494TIP3    H161973   0.995   3.773  13.270  2.2928 -0.5044  0.7546
13494TIP3    H261974   0.885   3.692  13.335 -0.3596  1.6189 -0.8610
13495TIP3   OH261975   6.020   1.388   0.048 -0.1557 -0.1213  0.4242
13495TIP3    H161976   6.066   1.464   0.013 -2.0393  1.6544  1.5220
13495TIP3    H261977   6.001   1.333  -0.028  0.9845  0.6496 -0.4442
13496TIP3   OH261978   0.626   5.287  12.196  0.5334 -0.1401  0.6591
13496TIP3    H161979   0.655   5.302  12.286 -0.0117 -0.8371  0.9665
13496TIP3    H261980   0.544   5.239  12.205  0.8221 -0.8302 -0.2189
13497TIP3   OH261981   4.474   0.437  11.221  0.0978  0.4067  1.0230
13497TIP3    H161982   4.387   0.463  11.251 -0.5333 -0.4672  0.0180
13497TIP3    H261983   4.532   0.504  11.256 -1.2666  2.3481 -0.2568
13498TIP3   OH261984   4.612   4.490   4.544  0.5336 -0.0262 -0.3376
13498TIP3    H161985   4.617   4.514   4.636  0.5385 -0.1824 -0.2987
13498TIP3    H261986   4.599   4.396   4.543 -1.4896  0.1998 -0.4434
13499TIP3   OH261987   5.260   4.441  14.576  0.1667  0.4148  0.3977
13499TIP3    H161988   5.243   4.530  14.544 -0.9938 -0.0097 -0.2140
13499TIP3    H261989   5.200   4.386  14.526 -0.5626 -0.4857  2.1855
13500TIP3   OH261990   3.132   1.782  12.363  0.2200 -0.4236 -0.3932
13500TIP3    H161991   3.225   1.760  12.356  0.3297 -0.2335  0.3824
13500TIP3    H261992   3.097   1.768  12.275  1.0468 -0.1964 -0.7597
13501TIP3   OH261993   2.777   0.737  11.783 -0.1195  0.2008 -0.8800
13501TIP3    H161994   2.712   0.744  11.853 -0.5153 -1.1352 -1.1016
13501TIP3    H261995   2.772   0.821  11.738  0.7953  1.4842  1.2358
13502TIP3   OH261996   5.236   3.870   3.064 -0.0628  0.3205  0.1097
13502TIP3    H161997   5.327   3.881   3.091 -0.1144 -1.0783  0.9177
13502TIP3    H261998   5.241   3.821   2.983 -0.0774  1.0291 -0.3300
13503TIP3   OH261999   5.043   3.488  16.919  0.3441 -0.2073  0.5178
13503TIP3    H162000   5.112   3.554  16.923  1.8762 -1.5566 -1.4131
13503TIP3    H262001   4.989   3.514  16.844 -0.5665  0.1872  1.2922
13504TIP3   OH262002   5.969   3.800   3.917 -0.1610 -0.5141 -0.6941
13504TIP3    H162003   6.059   3.833   3.917 -0.7982  1.4478 -2.4822
13504TIP3    H262004   5.976   3.709   3.947  2.4052 -0.4217 -0.8529
13505TIP3   OH262005   2.422   4.701   2.398 -0.6843 -0.2107  0.5860
13505TIP3    H162006   2.374   4.664   2.324 -0.6934  0.4878  0.2376
13505TIP3    H262007   2.367   4.773   2.429 -0.2877  0.0292  0.7389
13506TIP3   OH262008   2.101   4.751   4.048 -0.0060  0.6534 -0.2326
13506TIP3    H162009   2.026   4.714   4.094 -1.5032  2.3306 -1.1925
13506TIP3    H262010   2.169   4.684   4.055 -1.5891 -0.9448  0.6556
13507TIP3   OH262011   4.331   1.871   4.577  0.2303  0.1400  0.0667
13507TIP3    H162012   4.382   1.880   4.657  1.7159  1.6678 -0.9802
13507TIP3    H262013   4.259   1.933   4.588  0.5333  0.4806  0.1430
13508TIP3   OH262014   5.532   6.098   2.004  0.0232  0.1552  0.8264
13508TIP3    H162015   5.559   6.106   1.912 -2.9897 -1.9069 -0.4032
13508TIP3    H262016   5.530   6.187   2.037  2.2464  0.8595 -0.7288
13509TIP3   OH262017   2.758   1.585  10.849  0.0072 -0.4530 -0.4534
13509TIP3    H162018   2.791   1.606  10.761  0.2484 -0.8163 -0.4527
13509TIP3    H262019   2.757   1.489  10.852  0.2143 -0.4416  0.0207
13510TIP3   OH262020   0.959   0.203  11.495  0.6998  0.6412 -0.3351
13510TIP3    H162021   0.927   0.131  11.550  2.6208 -0.4103 -0.4849
13510TIP3    H262022   0.960   0.279  11.553  0.1780  0.1759  0.3023
13511TIP3   OH262023   6.496   0.215  13.286  0.4969 -0.0456  0.1360
13511TIP3    H162024   6.566   0.198  13.350  0.3926  0.7177  0.4606
13511TIP3    H262025   6.416   0.189  13.331  0.2993  1.5207  0.7601
13512TIP3   OH262026   1.361   3.765   3.363  0.1214 -0.5303 -0.3363
13512TIP3    H162027   1.361   3.692   3.300  0.1220  1.5173 -2.8714
13512TIP3    H262028   1.445   3.809   3.349 -0.9679  1.5096 -0.8755
13513TIP3   OH262029   2.256   3.844  16.927 -0.0692  0.2546 -0.3176
13513TIP3    H162030   2.315   3.801  16.866  0.7297  1.5858 -0.5316
13513TIP3    H262031   2.213   3.773  16.974  0.2180 -0.7696 -1.5676
13514TIP3   OH262032   0.438   1.160   1.787 -0.5531  0.5015  0.1039
13514TIP3    H162033   0.371   1.226   1.775 -0.2804  0.6431 -0.7092
13514TIP3    H262034   0.416   1.091   1.725  1.4347  1.6827 -2.0940
13515TIP3   OH262035   5.727   3.348  11.068  0.1481 -0.1087 -0.1383
13515TIP3    H162036   5.731   3.314  10.978  0.2998  0.7902 -0.4871
13515TIP3    H262037   5.798   3.303  11.114  0.9276  0.3736 -0.8249
13516TIP3   OH262038   6.711   6.161   5.476  0.0257 -0.1055 -0.4802
13516TIP3    H162039   6.622   6.183   5.502  0.1706 -0.8858  0.7853
13516TIP3    H262040   6.719   6.068   5.496  1.7729  0.3881  1.5293
13517TIP3   OH262041   6.045   2.409  10.946 -0.1519  0.4621 -0.9298
13517TIP3    H162042   6.123   2.354  10.949 -0.0584  0.6254  0.4185
13517TIP3    H262043   6.079   2.498  10.944 -0.1816  0.6809  2.3407
13518TIP3   OH262044   4.823   6.571   4.598 -0.3360  0.0608  0.2144
13518TIP3    H162045   4.816   6.501   4.533 -0.7753  0.8210 -0.5864
13518TIP3    H262046   4.897   6.624   4.569  0.8257 -0.7594  1.5359
13519TIP3   OH262047   4.708   4.758  15.335 -0.3526 -0.4935  0.1771
13519TIP3    H162048   4.723   4.694  15.265  0.2327  0.9976 -1.1174
13519TIP3    H262049   4.669   4.707  15.406  2.4745 -2.8500  0.2456
13520TIP3   OH262050   3.103   4.475  11.197 -0.0505 -0.4176  0.2559
13520TIP3    H162051   3.091   4.558  11.150 -1.5810  0.7719  2.5946
13520TIP3    H262052   3.154   4.421  11.136 -0.5688  1.5557 -2.0977
13521TIP3   OH262053   6.275   0.122  15.988  0.3233 -0.1073  0.2526
13521TIP3    H162054   6.368   0.143  16.001 -0.1705  0.7062  3.0304
13521TIP3    H262055   6.228   0.192  16.032 -1.6503 -0.6055 -0.9469
13522TIP3   OH262056   4.210   3.098  17.204  0.6842 -0.4469  0.0075
13522TIP3    H162057   4.195   3.006  17.226 -0.0897 -0.3538 -0.0904
13522TIP3    H262058   4.211   3.143  17.288 -2.3484 -0.0804 -0.0481
13523TIP3   OH262059   0.236   4.971  15.110  0.1947  0.1491 -0.1511
13523TIP3    H162060   0.279   5.007  15.187 -1.7781 -0.8798  1.5236
13523TIP3    H262061   0.146   4.954  15.138 -0.0166 -2.3602 -1.9767
13524TIP3   OH262062   6.301   1.112   0.667  0.5376  0.3637  0.4103
13524TIP3    H162063   6.252   1.091   0.588  0.2818 -0.8623  0.8861
13524TIP3    H262064   6.235   1.124   0.735  0.8732 -2.5833  1.3606
13525TIP3   OH262065   0.195   0.385  16.764 -0.0858  0.3781  0.5606
13525TIP3    H162066   0.196   0.480  16.779  1.4573  0.6218 -0.8406
13525TIP3    H262067   0.113   0.370  16.716  0.7150  1.4081 -1.2531
13526TIP3   OH262068   3.273   3.868   1.749 -0.2963 -0.0962 -0.1380
13526TIP3    H162069   3.320   3.800   1.700  0.2384 -0.3661  0.7285
13526TIP3    H262070   3.222   3.914   1.682 -1.5938 -2.0788 -0.6152
13527TIP3   OH262071   0.348   1.707  14.719 -0.5230 -0.2035  0.4990
13527TIP3    H162072   0.310   1.647  14.656 -2.4799  0.0257  1.3984
13527TIP3    H262073   0.391   1.774  14.665  0.7740 -1.7683 -0.5093
13528TIP3   OH262074   5.335   2.741  14.747 -0.3644  0.4498 -0.2720
13528TIP3    H162075   5.247   2.779  14.755 -1.4630 -2.1635  1.2658
13528TIP3    H262076   5.393   2.808  14.783 -2.1919  0.7587  2.4141
13529TIP3   OH262077   5.432   3.643  16.415  0.7596 -0.7609 -0.1030
13529TIP3    H162078   5.526   3.623  16.411  0.8154 -0.4441 -0.4192
13529TIP3    H262079   5.395   3.594  16.341  0.9463  0.5479 -1.0940
13530TIP3   OH262080   3.370   2.634  14.212  0.1920 -0.2442  0.3813
13530TIP3    H162081   3.379   2.560  14.272  1.0282 -0.5739 -0.1280
13530TIP3    H262082   3.306   2.691  14.254 -1.6681 -1.9664  0.0715
13531TIP3   OH262083   5.156   3.013  11.435 -0.1653 -0.3976  0.4738
13531TIP3    H162084   5.140   3.095  11.389 -1.8297 -1.4215 -0.8667
13531TIP3    H262085   5.078   2.959  11.418  0.5536 -2.0038  1.8953
13532TIP3   OH262086   0.295   0.629   2.168 -0.4132 -0.4215  0.4793
13532TIP3    H162087   0.306   0.676   2.086  2.0011 -1.4945  0.1030
13532TIP3    H262088   0.264   0.543   2.143  3.8704 -2.0854  0.1491
13533TIP3   OH262089   4.127   5.271  16.474 -0.2515 -0.2412  0.2306
13533TIP3    H162090   4.135   5.185  16.432 -1.8345 -0.1362 -0.3580
13533TIP3    H262091   4.132   5.334  16.403 -1.0454  0.0315  0.3977
13534TIP3   OH262092   6.476   4.126  15.277  0.3437  0.3791  0.9318
13534TIP3    H162093   6.552   4.165  15.234  0.7284 -3.5508 -2.5586
13534TIP3    H262094   6.402   4.149  15.220  0.1969 -1.7191  0.1965
13535TIP3   OH262095   3.390   2.219   1.228  0.5226 -0.4302 -0.0574
13535TIP3    H162096   3.329   2.225   1.155  0.2200  0.6550  0.2750
13535TIP3    H262097   3.459   2.159   1.197 -0.6517 -1.6119 -0.4556
13536TIP3   OH262098   0.549   4.825  12.154  0.2165 -0.0034 -0.0685
13536TIP3    H162099   0.550   4.730  12.140 -0.9716 -0.0494  0.0390
13536TIP3    H262100   0.510   4.860  12.074 -0.4278  0.2894  0.3640
13537TIP3   OH262101   4.960   2.522   5.631 -0.0930 -0.0891 -0.2819
13537TIP3    H162102   4.955   2.548   5.539 -1.6099  0.6837 -0.0163
13537TIP3    H262103   4.868   2.516   5.659  0.2760 -2.0024  0.7291
13538TIP3   OH262104   5.139   0.987   3.752 -0.0009 -0.3325  0.0103
13538TIP3    H162105   5.066   0.925   3.752 -0.3174 -0.0143 -1.6113
13538TIP3    H262106   5.121   1.045   3.678  0.4607  1.5082  1.2558
13539TIP3   OH262107   4.093   0.433   2.865  0.1127 -1.0186  0.1779
13539TIP3    H162108   4.031   0.478   2.809  0.6382 -0.6442 -0.1103
13539TIP3    H262109   4.172   0.487   2.862 -0.1878 -0.3854  2.1410
13540TIP3   OH262110   1.195   0.175   2.374 -0.3807 -0.1474 -0.2148
13540TIP3    H162111   1.198   0.269   2.355 -1.3236  0.1669  1.0316
13540TIP3    H262112   1.261   0.162   2.442 -1.3806 -0.0779  0.7774
13541TIP3   OH262113   2.282   3.149  12.793  0.3724  0.3215 -0.3239
13541TIP3    H162114   2.209   3.111  12.842  0.4082  0.8169  0.1192
13541TIP3    H262115   2.245   3.171  12.708  0.0884  0.2692 -0.2139
13542TIP3   OH262116   6.321   3.783   0.680 -0.1690 -0.2904  0.4646
13542TIP3    H162117   6.298   3.873   0.700  1.5405  0.3560 -0.2322
13542TIP3    H262118   6.317   3.777   0.585  1.4332 -0.4008  0.3713
13543TIP3   OH262119   0.095   2.746  13.215  0.0562 -0.0019 -0.1563
13543TIP3    H162120   0.115   2.837  13.236 -2.3200  0.6224 -0.3248
13543TIP3    H262121   0.150   2.695  13.275  1.2738  1.5258  0.0753
13544TIP3   OH262122   2.678   0.381   2.881 -0.4530  0.8364  0.1684
13544TIP3    H162123   2.638   0.310   2.831  0.0264  0.4415  0.3353
13544TIP3    H262124   2.607   0.419   2.932 -1.1752  1.8730 -1.5060
13545TIP3   OH262125   3.491   6.049  14.708  0.2438 -0.1234  0.0254
13545TIP3    H162126   3.464   6.013  14.623  0.9534  1.4328 -0.8994
13545TIP3    H262127   3.558   6.114  14.686 -0.6864  1.4524  1.6521
13546TIP3   OH262128   6.139   0.770  10.305  0.0721 -0.6532 -0.1733
13546TIP3    H162129   6.191   0.699  10.268  1.5378  1.0279 -1.5334
13546TIP3    H262130   6.203   0.826  10.348 -1.0877 -0.2771  1.1193
13547TIP3   OH262131   0.142   0.415   3.273 -0.2908 -0.3079 -0.3599
13547TIP3    H162132   0.164   0.500   3.309  2.2112 -0.7512 -0.6733
13547TIP3    H262133   0.152   0.425   3.178  0.3475 -1.0043 -0.3791
13548TIP3   OH262134   6.402   1.111   6.000  0.1469  0.1154 -0.6079
13548TIP3    H162135   6.484   1.118   6.048 -0.9566 -0.0064  1.4030
13548TIP3    H262136   6.427   1.120   5.908  2.4260 -0.2051 -0.0774
13549TIP3   OH262137   5.880   1.018   3.071  0.3233  0.4964 -0.1623
13549TIP3    H162138   5.873   0.938   3.019 -1.7663  0.5280 -0.0219
13549TIP3    H262139   5.851   1.088   3.012  2.4261  1.2472 -0.3842
13550TIP3   OH262140   2.369   2.751   0.226 -0.1111  0.0724 -0.2705
13550TIP3    H162141   2.337   2.816   0.289  0.1522  0.2938 -0.3640
13550TIP3    H262142   2.349   2.789   0.140 -1.8742 -0.9012 -0.3534
13551TIP3   OH262143   3.281   4.227   1.887  0.2846 -0.2879 -0.5732
13551TIP3    H162144   3.306   4.227   1.794 -1.5787  0.9217 -1.1264
13551TIP3    H262145   3.205   4.170   1.892  1.7240 -2.2049  0.6917
13552TIP3   OH262146   4.516   3.688   5.990  0.2675 -0.6306 -0.4276
13552TIP3    H162147   4.484   3.675   5.901 -0.1436 -0.2635 -0.3350
13552TIP3    H262148   4.436   3.687   6.044  0.5021 -0.7127 -0.0806
13553TIP3   OH262149   1.880   3.035   2.733 -0.2132 -0.2925  0.3776
13553TIP3    H162150   1.799   3.081   2.710  0.1177  0.3176  0.3964
13553TIP3    H262151   1.928   3.098   2.788  0.5355 -0.4210 -0.1154
13554TIP3   OH262152   2.660   4.104  15.685  0.4191  0.1218 -0.0445
13554TIP3    H162153   2.709   4.171  15.637 -1.7306  1.6669 -0.1878
13554TIP3    H262154   2.636   4.040  15.617 -1.6834  1.7498 -0.9272
13555TIP3   OH262155   4.816   1.152  11.742 -0.5263 -0.3204  0.1314
13555TIP3    H162156   4.885   1.159  11.676 -0.0905 -2.1034  0.3391
13555TIP3    H262157   4.841   1.217  11.809  1.7562 -1.7748  0.8324
13556TIP3   OH262158   6.457   1.010  11.088 -0.1920 -0.2095 -0.4707
13556TIP3    H162159   6.410   1.070  11.031 -0.4616  0.1913  0.1614
13556TIP3    H262160   6.401   0.933  11.093  0.2629 -0.6253 -1.4687
13557TIP3   OH262161   3.132   4.357   0.965  0.2967 -0.1505  0.5309
13557TIP3    H162162   3.060   4.412   0.935 -0.2778 -1.1841 -0.0178
13557TIP3    H262163   3.211   4.403   0.936 -0.1878  0.0658 -0.4720
13558TIP3   OH262164   4.485   6.303  12.065 -0.1194 -0.0393 -0.5905
13558TIP3    H162165   4.491   6.345  12.150  1.6422  1.3062 -1.3129
13558TIP3    H262166   4.399   6.329  12.032  0.0537  1.2401 -0.0999
13559TIP3   OH262167   6.253   1.319  12.244 -0.1122 -0.2670 -0.2158
13559TIP3    H162168   6.191   1.356  12.182 -2.0211 -0.1819  1.6563
13559TIP3    H262169   6.238   1.224  12.240  1.0887 -0.4489 -1.1812
13560TIP3   OH262170   5.602   2.238  14.524 -0.0277 -0.5455 -0.3060
13560TIP3    H162171   5.686   2.201  14.497  0.6717 -0.3353  1.4296
13560TIP3    H262172   5.598   2.222  14.619 -1.2732  0.7416 -0.1057
13561TIP3   OH262173   5.016   1.879   3.713  0.4582  0.7613  0.2576
13561TIP3    H162174   4.987   1.939   3.781  1.0934  1.3208  0.0420
13561TIP3    H262175   4.954   1.892   3.641  1.1427  1.8596 -0.1549
13562TIP3   OH262176   1.700   1.442  16.112 -0.7873 -0.1375  0.2205
13562TIP3    H162177   1.773   1.495  16.143 -1.9132  1.8075 -0.2702
13562TIP3    H262178   1.647   1.425  16.190  0.0516 -1.4511  0.5564
13563TIP3   OH262179   0.689   1.948   5.477 -0.4175  0.4918 -0.0035
13563TIP3    H162180   0.621   1.880   5.474 -1.4194  1.3717  1.6256
13563TIP3    H262181   0.649   2.024   5.435 -0.3590  0.9334  0.7265
13564TIP3   OH262182   0.918   2.678  16.626 -0.0128 -0.3602  0.0791
13564TIP3    H162183   0.878   2.591  16.639  0.0975 -0.3790  0.2973
13564TIP3    H262184   0.966   2.694  16.707  1.8378 -1.0729 -0.8200
13565TIP3   OH262185   4.294   3.137  11.656 -0.1026 -0.2209 -0.4862
13565TIP3    H162186   4.338   3.152  11.739 -0.1673  1.7687 -0.7597
13565TIP3    H262187   4.338   3.197  11.595 -0.5332 -1.1198 -1.7202
13566TIP3   OH262188   1.467   3.129   6.400  0.1959  0.3635  0.2227
13566TIP3    H162189   1.505   3.050   6.438  0.3686  0.7129  0.7928
13566TIP3    H262190   1.539   3.168   6.350 -0.5043 -1.0242 -2.0120
13567TIP3   OH262191   3.862   4.604  16.956  0.5075  0.6979 -0.4311
13567TIP3    H162192   3.953   4.586  16.932  0.3253  0.0707 -0.6784
13567TIP3    H262193   3.834   4.526  17.004  0.2422  1.0870  0.0457
13568TIP3   OH262194   6.083   0.905   3.858 -0.4460  0.0006 -0.1284
13568TIP3    H162195   6.132   0.909   3.776 -0.1305 -3.5133 -0.2772
13568TIP3    H262196   5.992   0.921   3.831 -0.4824 -1.9843 -1.4175
13569TIP3   OH262197   6.476   4.321   1.587  0.0613  0.5188  0.3991
13569TIP3    H162198   6.533   4.394   1.561  1.1337 -1.0370 -1.9582
13569TIP3    H262199   6.388   4.349   1.561  0.5333  0.7998 -0.9725
13570TIP3   OH262200   2.017   0.113   3.224  0.1866  0.7026 -0.1437
13570TIP3    H162201   2.074   0.119   3.300 -1.6482  0.4288  1.3248
13570TIP3    H262202   2.076   0.117   3.149  2.2805 -1.2829  1.2794
13571TIP3   OH262203   3.787   5.201  15.218 -0.0134 -0.1899  0.7304
13571TIP3    H162204   3.799   5.208  15.123 -0.4616  0.1147  0.6952
13571TIP3    H262205   3.775   5.291  15.247 -0.0068 -0.2956  1.0630
13572TIP3   OH262206   4.321   5.546   6.612 -0.1963 -0.2847 -0.0800
13572TIP3    H162207   4.287   5.626   6.653  0.1848 -0.0105 -0.2863
13572TIP3    H262208   4.244   5.498   6.583 -0.5936 -1.2179  2.2732
13573TIP3   OH262209   6.579   2.982   3.609 -0.0214  0.8949  0.0117
13573TIP3    H162210   6.537   2.941   3.685  1.6404 -0.0747  0.4727
13573TIP3    H262211   6.553   2.928   3.535  0.8361 -0.0789  0.3863
13574TIP3   OH262212   3.493   6.413  14.510 -0.0218 -0.2350  0.4332
13574TIP3    H162213   3.498   6.329  14.466  1.0926 -0.0648  0.1992
13574TIP3    H262214   3.581   6.449  14.502 -0.3501  0.7200  0.9864
13575TIP3   OH262215   6.187   5.551   0.128 -0.5642 -0.4754  0.3254
13575TIP3    H162216   6.244   5.616   0.169  0.5094 -0.7259 -0.7115
13575TIP3    H262217   6.166   5.589   0.043 -2.0358 -0.3628  0.7131
13576TIP3   OH262218   3.672   6.225   1.183 -0.2278 -0.0592 -0.4867
13576TIP3    H162219   3.629   6.238   1.267 -0.1218  0.9853 -0.5915
13576TIP3    H262220   3.611   6.171   1.133 -1.2118  1.0188 -0.4701
13577TIP3   OH262221   2.744   0.758   1.375 -0.4033  0.4457 -0.3923
13577TIP3    H162222   2.763   0.754   1.281  0.9424 -1.6660 -0.0871
13577TIP3    H262223   2.700   0.843   1.387 -0.8748  0.6369 -2.9554
13578TIP3   OH262224   4.047   6.240  15.776 -0.6747 -0.4091 -0.2351
13578TIP3    H162225   4.138   6.212  15.788 -0.3240  0.9305  0.5065
13578TIP3    H262226   4.040   6.320  15.828 -2.1406 -0.2012 -0.7064
13579TIP3   OH262227   3.336   2.302   0.055  0.2115 -1.5005  0.2045
13579TIP3    H162228   3.292   2.356  -0.011  0.2962 -2.0973 -0.3534
13579TIP3    H262229   3.297   2.328   0.138  0.5350 -0.2924 -0.0007
13580TIP3   OH262230   3.864   2.525  16.248  0.2517 -0.2671 -0.3778
13580TIP3    H162231   3.846   2.441  16.289 -0.7703  0.7557  1.3905
13580TIP3    H262232   3.834   2.515  16.158 -0.9768 -1.4167  0.1313
13581TIP3   OH262233   2.128   2.578  14.455 -0.2043  0.2096  0.4729
13581TIP3    H162234   2.086   2.525  14.523  0.4006 -0.2233  0.5148
13581TIP3    H262235   2.219   2.549  14.455  0.2391  1.5303  0.7739
13582TIP3   OH262236   3.079   6.461  11.056 -0.3742 -0.5960  0.0780
13582TIP3    H162237   3.017   6.388  11.067 -0.4696 -0.3308  1.5343
13582TIP3    H262238   3.086   6.500  11.143 -0.4689  1.2788 -0.7133
13583TIP3   OH262239   0.729   4.557   3.008 -0.2719 -0.4599 -0.1862
13583TIP3    H162240   0.810   4.579   2.963 -0.2084  2.0281  0.9518
13583TIP3    H262241   0.682   4.641   3.013 -1.8705 -1.3866  1.1846
13584TIP3   OH262242   4.918   5.457  11.729 -0.7520 -0.2718 -0.1746
13584TIP3    H162243   4.937   5.394  11.799  1.1439  1.4970  1.0188
13584TIP3    H262244   4.940   5.542  11.767  3.2756  0.6155 -3.6816
13585TIP3   OH262245   4.454   6.791   2.172 -0.4576 -0.8670 -0.1015
13585TIP3    H162246   4.482   6.764   2.084  0.3913 -2.5313  0.6400
13585TIP3    H262247   4.531   6.832   2.210 -0.3059 -1.6260  0.4311
13586TIP3   OH262248   3.442   4.878   1.172  0.3142 -0.8967 -0.0736
13586TIP3    H162249   3.444   4.965   1.213  0.5702 -1.4728  1.2135
13586TIP3    H262250   3.532   4.846   1.182  0.3514 -1.0925 -1.0235
13587TIP3   OH262251   5.688   2.966   0.007 -0.2163  0.1026 -0.2111
13587TIP3    H162252   5.669   2.893  -0.052 -0.3710  0.4907 -0.6485
13587TIP3    H262253   5.682   2.929   0.095 -0.6088 -0.3347 -0.4211
13588TIP3   OH262254   4.318   1.307  12.726 -0.1424  0.5251  0.7746
13588TIP3    H162255   4.335   1.354  12.808 -0.0974  0.7815  0.6186
13588TIP3    H262256   4.327   1.215  12.749  0.3336  0.6132  0.9544
13589TIP3   OH262257   0.716   3.663   1.205  0.4359 -0.2673 -0.1785
13589TIP3    H162258   0.721   3.611   1.285 -0.6551 -0.6683 -0.3526
13589TIP3    H262259   0.630   3.642   1.168 -0.4762  2.3928  0.2388
13590TIP3   OH262260   0.880   5.169   5.621 -0.5527  0.5877  0.1755
13590TIP3    H162261   0.936   5.246   5.632  0.0091  0.0816  0.9212
13590TIP3    H262262   0.808   5.199   5.565 -0.4844  1.7267  0.6853
13591TIP3   OH262263   0.627   5.794  15.345 -0.2817 -0.3923  0.0229
13591TIP3    H162264   0.678   5.729  15.298  0.7810 -0.9644  1.8554
13591TIP3    H262265   0.543   5.797  15.299  0.2209 -1.8838 -1.0615
13592TIP3   OH262266   3.506   4.043  10.268  0.1180  0.3811 -0.2020
13592TIP3    H162267   3.417   4.057  10.300  1.2152  1.8565  2.5150
13592TIP3    H262268   3.519   4.113  10.204 -0.3475  0.7374  0.0862
13593TIP3   OH262269   5.558   2.363   3.290  0.3235 -0.0503 -0.0432
13593TIP3    H162270   5.623   2.392   3.226  0.6496 -1.5828 -0.4520
13593TIP3    H262271   5.557   2.431   3.357  2.7105 -0.2088  0.2229
13594TIP3   OH262272   6.740   5.621   4.171 -0.6816 -0.2332 -0.4533
13594TIP3    H162273   6.821   5.672   4.166  0.0165 -1.2322  0.1785
13594TIP3    H262274   6.699   5.650   4.253  0.7130 -2.0249  0.9708
13595TIP3   OH262275   1.612   1.179   3.377 -0.3048  0.1526  0.0670
13595TIP3    H162276   1.572   1.105   3.331 -0.9069 -0.6773  1.8358
13595TIP3    H262277   1.706   1.167   3.363 -0.4872  0.3419 -1.5187
13596TIP3   OH262278   4.718   6.838  17.194  0.1820  0.3796 -0.3383
13596TIP3    H162279   4.759   6.757  17.163  2.5074  1.7480 -1.1227
13596TIP3    H262280   4.692   6.818  17.285  1.5424 -0.9708 -0.1985
13597TIP3   OH262281   1.399   4.155   0.297 -0.1821 -0.6936 -0.1762
13597TIP3    H162282   1.410   4.250   0.300  0.5850 -0.7844  0.2067
13597TIP3    H262283   1.317   4.142   0.250  0.9047  0.0820 -2.4404
13598TIP3   OH262284   2.770   4.560   2.919 -0.5317 -0.4541 -0.2323
13598TIP3    H162285   2.727   4.561   3.005  0.2298 -1.3823  0.1698
13598TIP3    H262286   2.837   4.628   2.924 -0.9053 -0.0739 -0.3209
13599TIP3   OH262287   4.951   0.752  15.985  0.0508 -0.3147 -0.3213
13599TIP3    H162288   4.934   0.698  15.908 -0.5343  0.0519 -0.4567
13599TIP3    H262289   5.046   0.751  15.995  0.0613 -1.2829 -0.3787
13600TIP3   OH262290   5.925   0.135   0.032  0.3931 -0.1214  0.0235
13600TIP3    H162291   5.922   0.215   0.085 -1.4730 -0.7945  1.0371
13600TIP3    H262292   5.910   0.064   0.095  0.5496 -1.1513 -1.0655
13601TIP3   OH262293   1.747   4.423   4.643 -0.0618  0.1909  0.7437
13601TIP3    H162294   1.824   4.447   4.592  0.6252  0.0191  1.6809
13601TIP3    H262295   1.674   4.435   4.582  0.7983 -0.7672 -0.5363
13602TIP3   OH262296   3.521   2.225   2.092  0.1097 -0.0539  0.4622
13602TIP3    H162297   3.529   2.279   2.014  0.6878  1.1902  1.3393
13602TIP3    H262298   3.462   2.154   2.067  1.1530 -0.3204 -1.4122
13603TIP3   OH262299   3.762   0.589   4.773  0.5022 -0.2859  0.1278
13603TIP3    H162300   3.782   0.670   4.727 -2.9662  1.7067  1.7374
13603TIP3    H262301   3.741   0.527   4.703  1.3032  0.7716 -1.1012
13604TIP3   OH262302   5.064   5.747  13.585  0.3497  0.4118 -0.3385
13604TIP3    H162303   5.038   5.705  13.502 -2.3717  0.7654  0.2330
13604TIP3    H262304   5.031   5.836  13.578  2.4267  1.2625  0.1258
13605TIP3   OH262305   5.926   3.208  15.758 -0.3239  0.4779 -0.0227
13605TIP3    H162306   5.874   3.129  15.775 -1.7493  1.5863  1.1186
13605TIP3    H262307   5.880   3.251  15.686 -0.2576  0.8565  0.1620
13606TIP3   OH262308   3.505   3.820   5.773  0.2035 -0.7450 -0.9819
13606TIP3    H162309   3.513   3.751   5.707  2.7582 -0.6869 -0.8209
13606TIP3    H262310   3.416   3.809   5.807 -0.2883 -2.4245 -2.6045
13607TIP3   OH262311   6.484   5.185   3.956  0.2177 -0.2245  0.1072
13607TIP3    H162312   6.465   5.093   3.941  0.0438 -0.3094  0.8214
13607TIP3    H262313   6.447   5.230   3.880 -0.4217 -0.6576  0.1578
13608TIP3   OH262314   3.788   2.119   1.911  0.7777 -0.2151 -0.1862
13608TIP3    H162315   3.846   2.094   1.982  0.0223 -0.0145  0.5199
13608TIP3    H262316   3.817   2.207   1.887  0.9386 -0.2211 -0.0179
13609TIP3   OH262317   3.014   4.740   4.643 -0.6892  0.0117  0.0508
13609TIP3    H162318   3.089   4.775   4.595 -0.3893 -1.1718 -0.3694
13609TIP3    H262319   2.974   4.817   4.684  0.6957  0.6745  0.2061
13610TIP3   OH262320   4.225   2.956   2.744  0.2958 -0.5716  0.1386
13610TIP3    H162321   4.241   3.027   2.806  0.0490 -0.2673 -0.1400
13610TIP3    H262322   4.163   2.993   2.681  0.5004 -0.8947 -0.2557
13611TIP3   OH262323   3.826   5.532   2.506 -0.1996 -0.4406  0.2800
13611TIP3    H162324   3.814   5.623   2.530  0.2950 -0.4838  0.7157
13611TIP3    H262325   3.777   5.522   2.425  1.0185  0.6314 -0.6400
13612TIP3   OH262326   5.353   0.811   2.482 -0.1350 -0.8061  0.7654
13612TIP3    H162327   5.317   0.731   2.519  0.3606 -2.3968 -1.9385
13612TIP3    H262328   5.295   0.833   2.409  1.2201 -0.2367 -0.1811
13613TIP3   OH262329   2.212   0.111   5.687 -0.3363  0.1055 -0.0495
13613TIP3    H162330   2.266   0.113   5.608 -0.2615 -1.1986 -0.0518
13613TIP3    H262331   2.228   0.024   5.724 -1.6768  0.0671  0.4788
13614TIP3   OH262332   2.772   6.714   5.726  0.5070  0.1260  0.6688
13614TIP3    H162333   2.787   6.667   5.808  1.8187 -0.5326  0.0811
13614TIP3    H262334   2.683   6.748   5.734  0.6515  0.1929  2.4104
13615TIP3   OH262335   6.090   1.646  16.307 -0.1101 -0.0377  0.0245
13615TIP3    H162336   6.087   1.735  16.341  0.9198 -0.6068  1.7712
13615TIP3    H262337   6.169   1.642  16.255  0.1509 -0.0654  0.4167
13616TIP3   OH262338   6.841   5.949  12.780  0.2545  0.1770 -0.1774
13616TIP3    H162339   6.859   5.858  12.759 -1.7596 -0.6961  1.5621
13616TIP3    H262340   6.891   5.999  12.715 -0.0480 -2.1598 -2.3448
13617TIP3   OH262341   3.835   3.774   6.000 -0.6078 -0.2053 -0.1344
13617TIP3    H162342   3.884   3.696   6.025 -0.0017  0.8360  2.2873
13617TIP3    H262343   3.743   3.751   6.016 -0.5354 -0.7606 -0.4879
13618TIP3   OH262344   6.449   5.091  12.677 -0.2962 -0.2435  0.8148
13618TIP3    H162345   6.499   5.011  12.660  0.0453  0.2655 -0.7092
13618TIP3    H262346   6.510   5.146  12.726  0.2921 -0.0195 -0.1570
13619TIP3   OH262347   0.096   5.031   6.871 -0.2053 -0.2855  0.3014
13619TIP3    H162348   0.111   5.118   6.834  0.5118 -0.8528 -0.7918
13619TIP3    H262349   0.172   4.980   6.843 -1.2244 -1.5994 -0.1539
13620TIP3   OH262350   5.464   3.543   2.424  0.0577 -0.4320  0.1525
13620TIP3    H162351   5.374   3.551   2.391 -0.5593 -0.9738  1.6431
13620TIP3    H262352   5.511   3.615   2.382 -1.6883  1.4693  1.2833
13621TIP3   OH262353   0.334   2.850   2.978 -0.3948 -0.4479  0.0721
13621TIP3    H162354   0.312   2.832   2.887  0.9074  0.6524 -0.4848
13621TIP3    H262355   0.344   2.763   3.017 -0.3685 -0.9361 -0.9819
13622TIP3   OH262356   5.759   1.010   0.137  0.2714  0.5204  0.2903
13622TIP3    H162357   5.812   1.000   0.058  1.2142 -1.8800  1.1179
13622TIP3    H262358   5.669   1.015   0.105  0.7591  1.6029 -1.0003
13623TIP3   OH262359   0.595   1.780   3.967  0.1181 -0.3851 -0.1112
13623TIP3    H162360   0.678   1.734   3.956 -0.2750 -1.0314 -0.5017
13623TIP3    H262361   0.536   1.738   3.904 -0.6360 -0.2590  0.4912
13624TIP3   OH262362   2.287   6.341   0.613 -0.5574 -0.0533  0.3687
13624TIP3    H162363   2.306   6.272   0.550  0.4336  0.9158 -0.4082
13624TIP3    H262364   2.302   6.423   0.566  0.5278  0.7008  1.9282
13625TIP3   OH262365   2.322   5.132   1.877 -1.0176  0.5201 -0.4145
13625TIP3    H162366   2.392   5.194   1.855  0.1249 -0.5324  0.1185
13625TIP3    H262367   2.264   5.133   1.801 -0.9159  2.0708 -0.5013
13626TIP3   OH262368   2.876   0.019   3.334  0.4608  0.1142  0.6998
13626TIP3    H162369   2.851  -0.042   3.265  1.4438  1.4999 -0.9611
13626TIP3    H262370   2.968   0.037   3.319  0.5249  1.0023  1.9610
13627TIP3   OH262371   5.833   2.730   5.453 -0.0476 -0.2602 -0.0405
13627TIP3    H162372   5.916   2.752   5.495 -1.5883  3.1469  1.6309
13627TIP3    H262373   5.789   2.671   5.515 -0.2107  0.6538  0.7400
13628TIP3   OH262374   4.489   5.072   3.559  0.2680  0.4562  0.5528
13628TIP3    H162375   4.439   5.087   3.479 -0.1913  0.7587  0.8876
13628TIP3    H262376   4.570   5.122   3.547  1.0943 -1.0689 -0.5338
13629TIP3   OH262377   3.669   4.537  14.258  0.2411 -0.3247 -0.1308
13629TIP3    H162378   3.590   4.524  14.205  0.6766 -0.0771 -0.8620
13629TIP3    H262379   3.656   4.481  14.335 -1.0482  0.4078  0.2134
13630TIP3   OH262380   4.459   3.286   2.977 -0.1203 -0.5514  0.2594
13630TIP3    H162381   4.508   3.259   3.054  0.0039 -0.0596  0.3522
13630TIP3    H262382   4.369   3.257   2.994  0.1784 -1.7156 -0.0404
13631TIP3   OH262383   0.061   5.625   1.996  0.1862  0.8302 -0.1159
13631TIP3    H162384   0.004   5.598   2.067  1.9629  0.2242  1.1649
13631TIP3    H262385   0.014   5.696   1.952 -0.9787  1.2014  1.6430
13632TIP3   OH262386   2.765   5.505   0.673  0.5571  0.2411 -0.6687
13632TIP3    H162387   2.741   5.550   0.754  1.4115  0.6906 -0.6419
13632TIP3    H262388   2.853   5.471   0.690 -0.0864 -1.5017 -0.6796
13633TIP3   OH262389   1.257   6.013  12.163  0.7336  0.4716  0.2299
13633TIP3    H162390   1.265   6.098  12.207 -1.7623  1.0943 -0.3612
13633TIP3    H262391   1.175   5.977  12.196  0.4665 -0.5339 -1.4538
13634TIP3   OH262392   0.944   1.563  10.678  0.1965 -0.7377 -0.1157
13634TIP3    H162393   0.999   1.487  10.661  0.3056 -0.3454 -1.6338
13634TIP3    H262394   0.983   1.634  10.626 -2.3924 -0.7515 -2.3037
13635TIP3   OH262395   2.850   4.016   4.728 -0.7708 -0.2952 -0.2153
13635TIP3    H162396   2.821   3.993   4.639 -0.3613  0.6675 -0.6052
13635TIP3    H262397   2.780   4.070   4.763 -0.5703 -0.0084 -0.2524
13636TIP3   OH262398   3.161   5.718  13.644 -0.2244  0.3985 -0.0520
13636TIP3    H162399   3.115   5.788  13.597  0.0513  0.9433  0.4745
13636TIP3    H262400   3.176   5.651  13.577 -0.8341  0.6692 -0.4751
13637TIP3   OH262401   3.377   4.403  16.818 -0.7372  0.1030  0.0071
13637TIP3    H162402   3.360   4.409  16.912 -2.0048  0.5643 -0.2223
13637TIP3    H262403   3.318   4.333  16.788  1.9056 -2.2860  0.0030
13638TIP3   OH262404   1.159   0.056  17.111  0.0598 -0.2029  0.8374
13638TIP3    H162405   1.186   0.054  17.203  0.7599  0.5545  0.6648
13638TIP3    H262406   1.241   0.066  17.063 -0.3970  0.5138  0.1978
13639TIP3   OH262407   2.415   3.824   2.154  0.3697  0.3428  0.0360
13639TIP3    H162408   2.424   3.900   2.097 -1.0804  1.5036  1.2910
13639TIP3    H262409   2.411   3.860   2.242  2.5794 -1.4063  0.9412
13640TIP3   OH262410   6.743   5.424  15.344  0.2766 -0.3232  0.5399
13640TIP3    H162411   6.658   5.436  15.303 -0.8407 -0.9181  2.5463
13640TIP3    H262412   6.744   5.488  15.416  1.5595 -0.2557  0.4800
13641TIP3   OH262413   6.160   3.361  11.374 -0.5517  0.2992 -0.6893
13641TIP3    H162414   6.227   3.304  11.335 -0.3540  0.0591 -0.0152
13641TIP3    H262415   6.129   3.414  11.301 -0.3035 -0.2513 -1.2093
13642TIP3   OH262416   3.162   2.214  10.699 -0.4304  0.5819 -0.2602
13642TIP3    H162417   3.167   2.183  10.609  0.9949 -0.2876  0.0744
13642TIP3    H262418   3.212   2.296  10.699  1.1462 -0.3224  0.0438
13643TIP3   OH262419   5.141   6.016   1.489 -0.4755  0.0455 -0.0140
13643TIP3    H162420   5.113   5.925   1.477 -2.1571  0.8837 -4.9509
13643TIP3    H262421   5.234   6.015   1.463  0.1425 -0.4924  2.0627
13644TIP3   OH262422   2.613   1.577   3.491  0.6283 -0.2980  0.2759
13644TIP3    H162423   2.653   1.641   3.551  0.8666 -0.4176  0.2481
13644TIP3    H262424   2.662   1.496   3.506 -0.6670 -0.9060  1.4208
13645TIP3   OH262425   2.547   0.192   3.523  0.0682 -0.2440  0.4720
13645TIP3    H162426   2.496   0.138   3.584 -0.9628  1.2078  0.9505
13645TIP3    H262427   2.632   0.201   3.566 -0.2331 -0.2736  1.0952
13646TIP3   OH262428   2.344   3.784   2.629  0.2767 -0.2220  0.0043
13646TIP3    H162429   2.439   3.780   2.621  0.4495  1.6242  0.4880
13646TIP3    H262430   2.313   3.699   2.597  1.9763 -0.2997 -1.6386
13647TIP3   OH262431   5.086   0.169  15.412  0.0911  0.6238 -0.0524
13647TIP3    H162432   5.033   0.248  15.421  1.2957  1.5829 -1.1014
13647TIP3    H262433   5.163   0.185  15.467  0.7084  0.5178 -0.8684
13648TIP3   OH262434   1.437   1.291  12.712  0.4518 -0.2880 -1.1096
13648TIP3    H162435   1.397   1.218  12.759  4.0836 -2.6425 -1.3056
13648TIP3    H262436   1.499   1.329  12.775 -0.6065  2.0384 -1.3644
13649TIP3   OH262437   3.370   3.412   3.628 -0.3026  0.9307  0.1369
13649TIP3    H162438   3.316   3.450   3.698  0.6422  1.3446  0.6646
13649TIP3    H262439   3.359   3.472   3.554 -1.0036  0.7022  0.0539
13650TIP3   OH262440   0.438   1.998   2.737 -0.0513  0.1806  0.6896
13650TIP3    H162441   0.502   1.968   2.672 -0.3600  1.2980 -0.1828
13650TIP3    H262442   0.398   1.919   2.771 -1.1367 -0.4181 -1.8003
13651TIP3   OH262443   3.591   0.610   4.987  0.0677 -0.0238 -0.1136
13651TIP3    H162444   3.516   0.634   4.933 -1.3335 -2.5603  0.5354
13651TIP3    H262445   3.665   0.611   4.927 -0.5209  2.0363 -0.8949
13652TIP3   OH262446   2.466   0.998   4.021  0.6071  0.1302  0.1424
13652TIP3    H162447   2.371   0.995   4.027  0.6406 -0.0391  0.6196
13652TIP3    H262448   2.496   0.946   4.096  1.0853  0.8973  0.4902
13653TIP3   OH262449   5.754   6.028   6.402  0.2336 -0.8066  0.1658
13653TIP3    H162450   5.817   6.048   6.472  1.6881 -1.5941 -0.8688
13653TIP3    H262451   5.717   5.943   6.426  1.2365 -1.4053 -0.3214
13654TIP3   OH262452   4.993   3.502   0.171  0.2284 -0.0689 -0.3595
13654TIP3    H162453   4.927   3.566   0.199 -0.8418 -1.1438 -0.3548
13654TIP3    H262454   5.062   3.555   0.130 -0.1262  1.1751  0.5799
13655TIP3   OH262455   1.189   2.166  14.846  0.2646  0.2777 -0.1667
13655TIP3    H162456   1.207   2.076  14.817 -0.1878 -0.5314  1.9545
13655TIP3    H262457   1.106   2.189  14.804 -2.5538 -2.3766  3.3415
13656TIP3   OH262458   6.198   5.932  13.092 -0.0392 -0.2340  0.3330
13656TIP3    H162459   6.254   5.956  13.166 -0.0976 -2.5430  1.1799
13656TIP3    H262460   6.146   5.858  13.122 -0.8455 -0.5706 -1.6775
13657TIP3   OH262461   1.342   0.392   3.893 -0.1224  0.3600  0.6469
13657TIP3    H162462   1.327   0.487   3.899 -0.4867  0.2823  1.0544
13657TIP3    H262463   1.402   0.373   3.965 -1.4190  0.0215  1.6781
13658TIP3   OH262464   4.526   3.843  15.056 -0.1317 -0.6953 -0.0753
13658TIP3    H162465   4.565   3.825  14.971 -0.8345  1.0986 -0.8142
13658TIP3    H262466   4.473   3.765  15.074  2.0694 -2.2753  0.0175
13659TIP3   OH262467   2.970   0.385   3.315  0.1583  0.2116  0.6924
13659TIP3    H162468   2.892   0.407   3.265  0.2710  0.5726  0.6736
13659TIP3    H262469   3.020   0.326   3.258 -0.6452 -0.9585  1.1585
13660TIP3   OH262470   6.555   4.531   6.212 -0.2106  0.1153 -0.2970
13660TIP3    H162471   6.466   4.509   6.239 -0.2801  0.0672 -0.5661
13660TIP3    H262472   6.609   4.463   6.252 -0.3707 -0.2595 -0.7096
13661TIP3   OH262473   0.874   6.221   5.358  0.0588  0.3882 -0.2814
13661TIP3    H162474   0.913   6.277   5.426  1.6415 -0.5780 -0.3353
13661TIP3    H262475   0.944   6.210   5.294 -0.5860 -0.7502 -0.8223
13662TIP3   OH262476   3.156   3.951   0.239 -0.1594  0.2807  0.8285
13662TIP3    H162477   3.075   3.900   0.244  1.0482 -1.7780  0.6921
13662TIP3    H262478   3.139   4.016   0.170 -1.8372  0.2373  1.1507
13663TIP3   OH262479   3.068   1.524   3.334  0.0077 -0.1909 -0.7752
13663TIP3    H162480   3.027   1.441   3.359  3.1986 -2.1424 -1.4191
13663TIP3    H262481   3.058   1.580   3.411 -0.7647 -1.7548  0.3071
13664TIP3   OH262482   6.601   1.293  15.021 -0.3812  0.5057 -0.6058
13664TIP3    H162483   6.624   1.200  15.011  2.7785  0.9272  1.3069
13664TIP3    H262484   6.661   1.339  14.963 -2.3538  1.4115 -2.0286
13665TIP3   OH262485   6.152   2.984  15.802  0.4021  0.1496  0.3321
13665TIP3    H162486   6.077   2.925  15.802  0.3870  0.1681  0.7175
13665TIP3    H262487   6.113   3.072  15.804  0.3888  0.2298 -1.6303
13666TIP3   OH262488   4.225   2.335   1.366 -0.5821  0.0907  0.1588
13666TIP3    H162489   4.153   2.394   1.344  0.2507  1.6251  1.3706
13666TIP3    H262490   4.195   2.290   1.445 -0.1873  0.8074  0.7246
13667TIP3   OH262491   1.525   0.906   5.473  0.0075  0.0069  0.2730
13667TIP3    H162492   1.595   0.972   5.467 -1.5557  1.7978  0.9280
13667TIP3    H262493   1.569   0.828   5.509  2.6711 -0.5740 -3.5254
13668TIP3   OH262494   3.993   3.185  10.956 -0.1507  0.0902 -0.8155
13668TIP3    H162495   3.901   3.200  10.933 -0.7084 -0.2404  1.0665
13668TIP3    H262496   4.035   3.271  10.944 -0.3004 -0.1054 -3.2348
13669TIP3   OH262497   2.379   6.408   3.756 -0.5089 -0.1755 -0.0123
13669TIP3    H162498   2.342   6.494   3.775  0.3198 -0.0493  1.1459
13669TIP3    H262499   2.461   6.405   3.806  0.1858 -1.0957 -1.1503
13670TIP3   OH262500   0.910   5.746  11.591  0.7061 -0.0048 -0.8798
13670TIP3    H162501   0.869   5.785  11.668  1.0866 -0.0051 -0.6769
13670TIP3    H262502   0.968   5.678  11.626  1.2497  0.3222 -1.1276
13671TIP3   OH262503   5.968   3.727   2.812  0.0785 -0.0837 -0.7665
13671TIP3    H162504   6.037   3.770   2.862  0.2204 -0.2050 -0.8575
13671TIP3    H262505   6.014   3.661   2.759 -0.4698 -3.0173  2.1183
13672TIP3   OH262506   5.250   2.123   0.413  0.0459  0.5047 -0.3702
13672TIP3    H162507   5.172   2.073   0.439 -0.3393  0.5755 -1.3330
13672TIP3    H262508   5.226   2.214   0.427 -0.1064  0.5343 -0.8001
13673TIP3   OH262509   4.555   4.261  15.356 -0.3237 -0.3936 -0.1718
13673TIP3    H162510   4.523   4.340  15.311  0.7683 -0.1105 -0.4772
13673TIP3    H262511   4.641   4.286  15.391 -0.4382 -1.1200  0.6750
13674TIP3   OH262512   4.977   6.717  11.095  0.0079 -0.5222 -0.9524
13674TIP3    H162513   5.045   6.659  11.130 -1.6545 -0.8448  2.1356
13674TIP3    H262514   4.977   6.792  11.155 -0.5006  0.8408 -2.5830
13675TIP3   OH262515   4.046   4.762   3.489  0.1875  0.3992 -0.2994
13675TIP3    H162516   3.968   4.810   3.515 -0.0334 -0.1070 -0.0025
13675TIP3    H262517   4.103   4.827   3.449  0.8729  1.3863  2.1323
13676TIP3   OH262518   1.542   4.585   5.726  0.1459  0.6316  0.7803
13676TIP3    H162519   1.598   4.661   5.735 -0.5282  1.0678  1.4542
13676TIP3    H262520   1.599   4.517   5.690  1.3586  0.7730  2.3482
13677TIP3   OH262521   1.765   6.109   2.325  0.4521  0.4363  0.2057
13677TIP3    H162522   1.766   6.076   2.415  0.5149  2.6118  1.0522
13677TIP3    H262523   1.739   6.200   2.333 -2.0154  0.0746 -2.2407
13678TIP3   OH262524   5.370   4.792   2.225  0.9059  0.0197 -0.7414
13678TIP3    H162525   5.305   4.724   2.206  0.8634 -0.3965  0.7618
13678TIP3    H262526   5.386   4.835   2.140  0.2883 -1.2840 -1.5438
13679TIP3   OH262527   1.669   1.197   4.893 -0.2127  0.5908  0.3203
13679TIP3    H162528   1.635   1.281   4.862 -1.0983  0.1808  0.1569
13679TIP3    H262529   1.710   1.158   4.816 -3.5814 -1.0275 -0.8293
13680TIP3   OH262530   2.501   4.364   1.394  0.0951 -0.8295 -0.5033
13680TIP3    H162531   2.452   4.289   1.361 -1.3415 -0.7514  1.3040
13680TIP3    H262532   2.530   4.336   1.481 -0.2321  0.6131  0.0841
13681TIP3   OH262533   4.022   1.811  15.392 -0.2011  0.4275 -0.2896
13681TIP3    H162534   4.021   1.849  15.480 -0.9929  1.0836 -0.5674
13681TIP3    H262535   4.115   1.798  15.372  0.0026  0.7355  0.4423
13682TIP3   OH262536   3.675   4.636  15.332  0.3201 -0.0288 -0.4988
13682TIP3    H162537   3.766   4.654  15.354  0.1606  0.8443 -0.5216
13682TIP3    H262538   3.658   4.550  15.370  0.7300  0.4289  0.7800
13683TIP3   OH262539   0.959   6.509  11.181 -0.3167 -0.1704 -0.2373
13683TIP3    H162540   0.984   6.589  11.228 -0.1041  0.1491 -0.8846
13683TIP3    H262541   0.952   6.443  11.250  1.4800 -0.0764  0.0988
13684TIP3   OH262542   1.016   5.115   2.249 -0.2156 -0.4759 -0.1812
13684TIP3    H162543   0.966   5.033   2.245 -1.4284  0.1897  0.8279
13684TIP3    H262544   0.968   5.170   2.310 -1.0241  2.0499 -2.8650
13685TIP3   OH262545   0.306   2.654  12.563 -0.1608  0.2682 -0.1924
13685TIP3    H162546   0.363   2.701  12.502 -0.2193  0.4468 -0.1086
13685TIP3    H262547   0.330   2.562  12.551 -1.0371  0.1588 -1.4128
13686TIP3   OH262548   5.402   1.136   2.111 -0.1673  0.1679  0.3625
13686TIP3    H162549   5.323   1.133   2.164 -1.7292 -1.1052 -1.8972
13686TIP3    H262550   5.371   1.157   2.023  2.0812  0.1889 -0.4894
13687TIP3   OH262551   5.285   2.462   2.773 -0.1419  0.1314  0.3049
13687TIP3    H162552   5.279   2.417   2.858 -1.2804 -0.4357 -0.0533
13687TIP3    H262553   5.202   2.508   2.764 -0.4120 -0.5361 -0.8844
13688TIP3   OH262554   0.286   6.515   0.864  0.1793  0.4930  0.1943
13688TIP3    H162555   0.347   6.545   0.796  0.3950  1.7960  0.9328
13688TIP3    H262556   0.216   6.581   0.865 -0.6737 -0.3810  0.1393
13689TIP3   OH262557   0.225   6.584  11.736  0.1056  0.5417  0.4853
13689TIP3    H162558   0.278   6.517  11.694 -0.1418 -0.3147  1.5092
13689TIP3    H262559   0.244   6.664  11.687  0.1683 -0.3236 -0.9503
13690TIP3   OH262560   4.159   4.732   5.089 -0.5917  0.2019 -0.6463
13690TIP3    H162561   4.096   4.783   5.140 -0.7276 -0.2772 -0.3291
13690TIP3    H262562   4.131   4.641   5.100  0.3903 -0.0559 -0.1694
13691TIP3   OH262563   1.546   2.113  17.112 -0.2020 -0.6291 -0.5197
13691TIP3    H162564   1.460   2.072  17.126 -1.9573  2.2669 -1.8858
13691TIP3    H262565   1.573   2.082  17.026 -0.9051  0.0161 -0.9880
13692TIP3   OH262566   5.781   0.855   5.078 -0.0298 -0.1422 -0.2153
13692TIP3    H162567   5.768   0.856   4.983  0.5451  0.7628 -0.2993
13692TIP3    H262568   5.854   0.916   5.092  0.6945 -1.1698  0.6908
13693TIP3   OH262569   3.884   2.838   3.666  0.0845  0.0415 -0.5732
13693TIP3    H162570   3.817   2.787   3.712 -1.2165  1.4928 -0.7480
13693TIP3    H262571   3.957   2.844   3.728 -0.8469  0.2784  0.5363
13694TIP3   OH262572   0.329   4.650   1.880 -0.2923 -0.2084  0.4458
13694TIP3    H162573   0.269   4.692   1.818  0.7941 -1.1367 -1.3175
13694TIP3    H262574   0.383   4.721   1.914  0.3392  0.1116 -1.1394
13695TIP3   OH262575   1.205   5.922  11.520 -0.2656  0.6353  0.1104
13695TIP3    H162576   1.165   5.871  11.590  0.4182  0.7462  0.5937
13695TIP3    H262577   1.210   6.011  11.554  1.6320  0.3776  0.6256
13696TIP3   OH262578   2.044   3.641   5.041 -0.1963 -0.5020 -0.6695
13696TIP3    H162579   1.953   3.628   5.012 -0.7613 -3.3871  1.8027
13696TIP3    H262580   2.041   3.721   5.093 -1.3437 -0.5715 -0.5888
13697TIP3   OH262581   6.284   2.593  13.261  0.3158 -0.2994  0.0154
13697TIP3    H162582   6.251   2.622  13.176 -2.5460  0.2400  1.1962
13697TIP3    H262583   6.325   2.671  13.298 -0.1605  0.0067 -0.0963
13698TIP3   OH262584   4.317   4.309  14.469 -0.1612  0.4347  0.5137
13698TIP3    H162585   4.322   4.357  14.387  1.0168  4.3622  2.6035
13698TIP3    H262586   4.408   4.291  14.491  0.1075  3.7511  2.9792
13699TIP3   OH262587   2.834   2.128   1.060 -0.1739 -0.5233 -0.2479
13699TIP3    H162588   2.839   2.124   1.156 -0.8087  0.3892 -0.1633
13699TIP3    H262589   2.792   2.212   1.042  0.4132 -0.4438 -1.3466
13700TIP3   OH262590   1.941   5.457  15.259 -0.7876 -0.3179 -0.3709
13700TIP3    H162591   1.963   5.454  15.166  0.4152  0.5525 -0.1362
13700TIP3    H262592   1.856   5.502  15.262 -1.1152 -0.8706 -1.0770
13701TIP3   OH262593   4.499   2.348   0.054 -0.2684  0.4171 -0.1860
13701TIP3    H162594   4.513   2.303  -0.029  1.1856  1.4263 -0.5278
13701TIP3    H262595   4.435   2.417   0.034 -0.8320 -0.0868 -0.1637
13702TIP3   OH262596   5.869   6.062   5.314  0.1198 -0.2760 -0.0927
13702TIP3    H162597   5.906   5.979   5.345  2.8894  0.3566 -1.4374
13702TIP3    H262598   5.885   6.124   5.386 -0.4058 -0.4963  0.2230
13703TIP3   OH262599   3.772   2.689   5.827 -0.0315  1.1402  0.0452
13703TIP3    H162600   3.703   2.710   5.891 -0.8567  1.2747 -0.8634
13703TIP3    H262601   3.764   2.594   5.814 -0.3599  1.2261 -0.4027
13704TIP3   OH262602   1.104   2.657   0.043  0.3064  0.6429 -0.3503
13704TIP3    H162603   1.123   2.748   0.023  1.5828  0.3788 -0.4404
13704TIP3    H262604   1.176   2.629   0.100 -0.6471 -0.0013  0.5818
13705TIP3   OH262605   2.238   0.083  13.615 -0.1171  0.2066  1.0100
13705TIP3    H162606   2.150   0.060  13.643 -0.7462  0.1635 -0.8257
13705TIP3    H262607   2.245   0.177  13.632 -0.7123  0.3040  0.7602
13706TIP3   OH262608   5.104   3.226  15.243  0.4623 -0.1981  0.1575
13706TIP3    H162609   5.142   3.249  15.328  0.0865 -0.0663  0.2901
13706TIP3    H262610   5.010   3.240  15.254  0.3742 -0.5259 -0.1686
13707TIP3   OH262611   3.980   1.024  14.032 -0.7757 -0.5169  0.4537
13707TIP3    H162612   4.064   1.067  14.049 -1.2094 -0.3615  2.4867
13707TIP3    H262613   3.914   1.091  14.050 -1.3801 -0.5277 -1.4773
13708TIP3   OH262614   5.599   4.175   6.192 -0.0295  0.5304 -0.2111
13708TIP3    H162615   5.671   4.118   6.166  0.6122  1.3742 -0.2891
13708TIP3    H262616   5.611   4.255   6.141 -0.6213  0.9438  0.2793
13709TIP3   OH262617   2.682   1.753   1.120  0.0855 -0.2253  1.0815
13709TIP3    H162618   2.774   1.751   1.148 -0.3948 -0.0681  2.7948
13709TIP3    H262619   2.645   1.671   1.153 -0.4456 -0.1743  0.6170
13710TIP3   OH262620   2.479   1.848  13.557 -0.0878  0.5207  0.1091
13710TIP3    H162621   2.515   1.842  13.645 -1.8670 -2.1819  0.7688
13710TIP3    H262622   2.552   1.823  13.500  0.6023  0.6202  0.9188
13711TIP3   OH262623   4.686   3.103  11.927 -0.1784 -0.0887  0.5060
13711TIP3    H162624   4.636   3.025  11.903 -0.8490  0.2440  0.7897
13711TIP3    H262625   4.729   3.080  12.009 -0.0892 -0.2799  0.4068
13712TIP3   OH262626   0.503   4.407  11.648  0.5983 -0.4940  0.3248
13712TIP3    H162627   0.466   4.347  11.584 -0.2827 -1.0411  1.3172
13712TIP3    H262628   0.582   4.363  11.679  1.4158  0.0869 -0.8530
13713TIP3   OH262629   1.931   6.606   0.465  0.3479  0.3581  0.6700
13713TIP3    H162630   1.839   6.616   0.443  0.1565 -0.8904  0.8490
13713TIP3    H262631   1.950   6.514   0.449  1.5129  0.5560  0.8295
13714TIP3   OH262632   5.241   6.712   0.528  0.0310 -0.9408  0.2988
13714TIP3    H162633   5.325   6.743   0.563  0.3852 -2.0778  0.5159
13714TIP3    H262634   5.207   6.655   0.597 -1.6255  0.6224  0.8270
13715TIP3   OH262635   0.733   4.070   2.748  0.0906  0.3841  0.1455
13715TIP3    H162636   0.755   4.139   2.811 -0.4253  0.5350  0.1599
13715TIP3    H262637   0.681   4.114   2.681  1.1539  0.3693 -0.7319
13716TIP3   OH262638   4.379   6.776  11.679 -0.2972 -1.0238  0.0140
13716TIP3    H162639   4.309   6.716  11.653 -0.7613 -1.6652  2.5046
13716TIP3    H262640   4.450   6.757  11.618 -1.3966 -2.1849 -0.9716
13717TIP3   OH262641   2.831   5.141  16.105  0.1335  0.0864 -0.2252
13717TIP3    H162642   2.824   5.162  16.012  1.6269  2.2724  0.0977
13717TIP3    H262643   2.842   5.046  16.107 -2.3388 -0.3339 -2.0794
13718TIP3   OH262644   2.205   4.526  15.332  0.4516 -0.3593 -0.2156
13718TIP3    H162645   2.153   4.446  15.330  0.8738 -0.6231 -1.4551
13718TIP3    H262646   2.170   4.575  15.407 -1.7204 -0.4400 -1.0758
13719TIP3   OH262647   0.361   6.823  14.651 -0.0568  0.5406  0.5334
13719TIP3    H162648   0.390   6.911  14.627 -0.1826  0.4705  0.1172
13719TIP3    H262649   0.382   6.769  14.574  0.8327  0.0301  1.1179
13720TIP3   OH262650   5.514   5.827   3.362  0.1071  0.2220 -0.1239
13720TIP3    H162651   5.519   5.883   3.440 -1.2976  1.2857 -0.7663
13720TIP3    H262652   5.523   5.888   3.289 -1.4257 -0.3825 -0.8349
13721TIP3   OH262653   0.338   5.704   3.410 -0.1564  0.3426 -0.3874
13721TIP3    H162654   0.334   5.705   3.315  1.6395 -0.4981 -0.5077
13721TIP3    H262655   0.332   5.611   3.434 -1.7713  0.6178  0.4117
13722TIP3   OH262656   4.324   5.646  16.558  0.0204  0.0299  0.0812
13722TIP3    H162657   4.233   5.623  16.537 -0.3363  0.6986  0.8595
13722TIP3    H262658   4.372   5.629  16.476 -0.8909  0.1886 -0.5038
13723TIP3   OH262659   5.456   5.804   2.344  0.3760  0.0364  0.0905
13723TIP3    H162660   5.541   5.773   2.376  0.3110  0.5032  0.7350
13723TIP3    H262661   5.392   5.752   2.392  0.2896  0.1286  0.0763
13724TIP3   OH262662   0.787   4.965  12.240  0.5158  0.4803  0.4483
13724TIP3    H162663   0.714   4.903  12.237  0.9101  0.0511 -0.5718
13724TIP3    H262664   0.860   4.918  12.200  0.6492  1.8223 -1.0013
13725TIP3   OH262665   4.649   3.870  13.681  0.3108 -0.4386 -0.2319
13725TIP3    H162666   4.702   3.949  13.673  1.5563 -1.1309  0.7461
13725TIP3    H262667   4.689   3.808  13.621  0.6297 -0.9696  0.5151
13726TIP3   OH262668   6.331   3.473  13.234  0.0307 -0.6969 -0.1614
13726TIP3    H162669   6.354   3.443  13.146 -0.0380 -0.4109 -0.2788
13726TIP3    H262670   6.393   3.428  13.292  0.8517  0.0166 -0.4679
13727TIP3   OH262671   5.851   5.696   4.741 -0.3923  0.0012 -0.2079
13727TIP3    H162672   5.795   5.708   4.664 -1.7619  0.4156  0.8045
13727TIP3    H262673   5.790   5.688   4.814  0.8552  2.6360  1.2655
13728TIP3   OH262674   5.488   2.032  13.458 -0.7524 -0.4846  0.7734
13728TIP3    H162675   5.411   2.077  13.424  0.2778  0.1126 -0.8940
13728TIP3    H262676   5.530   2.095  13.516 -0.1175  0.2070 -0.3985
13729TIP3   OH262677   2.848   5.702   4.284 -0.7036  0.0789  0.2321
13729TIP3    H162678   2.915   5.633   4.280 -0.3973  0.3687  0.3050
13729TIP3    H262679   2.876   5.758   4.356  1.0794  2.3438 -2.0282
13730TIP3   OH262680   4.676   6.357  16.025 -0.4781  1.1368  0.1433
13730TIP3    H162681   4.609   6.361  16.093 -0.8215  0.9865 -0.1842
13730TIP3    H262682   4.632   6.316  15.950 -0.3549  2.0986 -0.4690
13731TIP3   OH262683   0.497   3.566  10.714  0.3997 -0.1324  0.2826
13731TIP3    H162684   0.553   3.530  10.645  1.8286 -0.0894  1.3600
13731TIP3    H262685   0.478   3.655  10.685  1.6809  0.1677  0.3214
13732TIP3   OH262686   1.793   3.362  11.639 -0.2648  0.0638 -0.1984
13732TIP3    H162687   1.848   3.402  11.573  0.0468  1.8410  1.0755
13732TIP3    H262688   1.708   3.350  11.596  0.6404 -1.3865 -1.7233
13733TIP3   OH262689   2.558   3.280  13.365 -0.1196 -0.1435 -0.8878
13733TIP3    H162690   2.549   3.218  13.437 -1.7168  0.1920 -0.7625
13733TIP3    H262691   2.558   3.226  13.286  0.4764 -0.4276 -0.6984
13734TIP3   OH262692   2.158   5.240   4.726 -0.3462 -0.1916  0.0638
13734TIP3    H162693   2.218   5.165   4.729 -1.4471 -1.1212 -0.2374
13734TIP3    H262694   2.173   5.279   4.640  1.2719  0.8514  0.7813
13735TIP3   OH262695   5.656   5.341   3.330 -0.4316 -0.5744  0.0632
13735TIP3    H162696   5.675   5.285   3.254  0.0813  2.6713 -2.4143
13735TIP3    H262697   5.741   5.352   3.372 -0.4471 -1.2265  0.2839
13736TIP3   OH262698   5.145   3.191  13.474  0.4779  0.6426  0.7032
13736TIP3    H162699   5.157   3.226  13.386  3.3972  1.3229  1.2372
13736TIP3    H262700   5.128   3.269  13.528  0.5915  0.4679  0.9941
13737TIP3   OH262701   4.995   3.697   4.055 -0.0646 -0.0605 -0.1969
13737TIP3    H162702   5.006   3.777   4.106  0.7299 -0.1130 -0.2660
13737TIP3    H262703   4.901   3.688   4.043 -0.4011 -0.7137  2.3134
13738TIP3   OH262704   6.211   1.632  12.653  0.0143 -0.1351  0.1577
13738TIP3    H162705   6.194   1.538  12.652 -0.3233 -0.0674 -1.0273
13738TIP3    H262706   6.277   1.643  12.722 -0.3754 -1.1498  0.7207
13739TIP3   OH262707   4.626   3.424   1.979  0.0311  0.6165  0.5051
13739TIP3    H162708   4.586   3.351   1.930 -1.4287  0.6967  1.5107
13739TIP3    H262709   4.688   3.381   2.038  0.9070  0.4161 -0.5228
13740TIP3   OH262710   2.987   3.137  10.924 -0.1741  0.3987  0.4304
13740TIP3    H162711   2.896   3.130  10.953 -0.0075  0.6094  1.0310
13740TIP3    H262712   3.023   3.049  10.935 -0.3434  0.2810  0.0536
13741TIP3   OH262713   4.615   4.394   2.910 -0.0926  0.5843  0.1600
13741TIP3    H162714   4.662   4.373   2.830  1.6474  2.7157  0.5531
13741TIP3    H262715   4.541   4.333   2.911  1.4257 -1.4254 -1.5831
13742TIP3   OH262716   0.304   0.794  13.755 -0.0052 -0.2789  0.1587
13742TIP3    H162717   0.240   0.737  13.713  0.2645 -1.0871  0.8043
13742TIP3    H262718   0.387   0.771  13.714  0.0767 -0.2164  0.2890
13743TIP3   OH262719   2.592   6.524  16.381  0.0488  0.3739 -0.2975
13743TIP3    H162720   2.674   6.549  16.338 -0.3042  0.5584 -0.8736
13743TIP3    H262721   2.524   6.568  16.330 -0.5668 -1.2976 -1.0079
13744TIP3   OH262722   5.827   3.089  15.023  0.1991 -0.1681  0.3964
13744TIP3    H162723   5.905   3.085  15.078  0.5621  1.6343  0.0692
13744TIP3    H262724   5.860   3.087  14.933 -0.0427  1.1159  0.2500
13745TIP3   OH262725   5.525   6.206  15.099 -0.2249  0.3511  0.0845
13745TIP3    H162726   5.565   6.169  15.020 -0.5983 -0.4852  0.2678
13745TIP3    H262727   5.589   6.188  15.169 -0.0788  0.7179  0.0449
13746TIP3   OH262728   5.278   6.601  16.912  0.2048 -0.3686  0.1983
13746TIP3    H162729   5.201   6.658  16.911  1.0035  0.7908  1.1410
13746TIP3    H262730   5.348   6.657  16.947  1.5306 -1.3269 -0.8236
13747TIP3   OH262731   3.005   3.409   4.394 -0.2561  0.4582  0.2819
13747TIP3    H162732   2.982   3.493   4.435 -0.6162  1.0759 -1.1226
13747TIP3    H262733   3.100   3.416   4.379 -0.1205  0.2226  1.0086
13748TIP3   OH262734   1.587   2.713  12.462  0.1893  0.2445  0.1256
13748TIP3    H162735   1.640   2.790  12.481  0.7932  0.3251 -1.6932
13748TIP3    H262736   1.506   2.749  12.423 -0.7688  0.0663  1.8549
13749TIP3   OH262737   3.193   3.568   1.144  0.1461  0.0775  0.3169
13749TIP3    H162738   3.243   3.521   1.211  0.1709 -0.5071 -0.1041
13749TIP3    H262739   3.179   3.503   1.075  0.4097  0.7695 -0.4006
13750TIP3   OH262740   3.526   5.215  11.725  0.1597 -1.1393 -1.0511
13750TIP3    H162741   3.559   5.125  11.716 -0.2568 -1.2179 -1.9517
13750TIP3    H262742   3.605   5.267  11.742  0.5089 -1.5725 -1.3097
13751TIP3   OH262743   2.005   0.367   0.640 -0.3841 -0.1448 -0.6309
13751TIP3    H162744   2.060   0.289   0.640 -1.0295 -0.6145 -1.3929
13751TIP3    H262745   1.918   0.335   0.666 -0.2123  0.6653  1.0545
13752TIP3   OH262746   6.715   6.711   3.532 -0.2349  0.5460  0.0207
13752TIP3    H162747   6.805   6.691   3.556 -0.3202  0.9950  0.7217
13752TIP3    H262748   6.674   6.742   3.613 -1.3413 -0.7716  0.0069
13753TIP3   OH262749   4.429   5.052  13.518  0.3605  0.0151 -0.2075
13753TIP3    H162750   4.480   5.026  13.596 -0.9170  0.3265  0.7605
13753TIP3    H262751   4.358   4.989  13.514  1.8495 -1.6943 -2.7479
13754TIP3   OH262752   0.075   5.436   1.766 -0.3699 -0.2040  0.7799
13754TIP3    H162753   0.004   5.492   1.735 -1.0858 -0.5795  1.7017
13754TIP3    H262754   0.091   5.464   1.856  1.9504  1.1367  0.0338
13755TIP3   OH262755   6.452   5.271   5.438  0.0016 -0.0647 -0.2969
13755TIP3    H162756   6.480   5.360   5.418  1.4728 -0.3919  0.2114
13755TIP3    H262757   6.454   5.266   5.533  1.2141 -1.0204 -0.3569
13756TIP3   OH262758   4.780   3.974   1.366  0.0944 -0.0599  0.1983
13756TIP3    H162759   4.836   4.032   1.315  0.4705  0.1271  0.8054
13756TIP3    H262760   4.812   3.886   1.347 -2.3389 -0.4395 -3.0559
13757TIP3   OH262761   1.827   2.533  13.988  0.2624 -0.3885 -0.6399
13757TIP3    H162762   1.740   2.543  13.949 -0.6900 -0.0200  1.4175
13757TIP3    H262763   1.844   2.616  14.032  1.3618 -0.6925 -0.4498
13758TIP3   OH262764   6.663   5.043   6.392 -0.6960 -0.1881  0.3417
13758TIP3    H162765   6.691   5.134   6.403 -0.5937 -0.1687 -0.0549
13758TIP3    H262766   6.569   5.048   6.378 -0.4427  0.0273 -1.5508
13759TIP3   OH262767   5.638   2.264  14.809  0.4849 -0.0662 -0.2481
13759TIP3    H162768   5.582   2.230  14.879 -2.0296  0.1524 -2.0253
13759TIP3    H262769   5.653   2.355  14.833  0.3965 -0.2326  0.4619
13760TIP3   OH262770   5.247   6.186  17.144 -0.6113 -0.7851 -0.4133
13760TIP3    H162771   5.337   6.157  17.157  0.1308  0.7630 -1.6165
13760TIP3    H262772   5.254   6.281  17.136 -2.7306 -0.3057  2.1481
13761TIP3   OH262773   4.954   2.784   3.267  0.3418 -0.4096 -0.0449
13761TIP3    H162774   5.019   2.747   3.208 -0.9018 -4.2992  0.7827
13761TIP3    H262775   4.879   2.805   3.211  0.4192 -0.8056 -0.2963
13762TIP3   OH262776   4.581   0.821   1.652 -0.3984  0.3953 -0.0604
13762TIP3    H162777   4.503   0.801   1.601  1.5589 -1.4142 -2.6041
13762TIP3    H262778   4.627   0.738   1.660  0.9159  1.2265  2.1071
13763TIP3   OH262779   2.155   4.727   2.280  0.4951 -0.3550 -0.0922
13763TIP3    H162780   2.187   4.670   2.211 -1.2622  0.0154 -1.2774
13763TIP3    H262781   2.190   4.814   2.258  0.5346 -0.3717 -0.0940
13764TIP3   OH262782   2.115   2.074  14.002 -0.5282  0.2480  0.7479
13764TIP3    H162783   2.036   2.020  14.010 -1.6728  1.7862  0.4570
13764TIP3    H262784   2.081   2.163  13.987  1.2835  0.5357 -2.4411
13765TIP3   OH262785   0.420   5.724   4.865  0.3832  0.3757 -0.1021
13765TIP3    H162786   0.500   5.757   4.822  0.6982 -1.1123 -0.7010
13765TIP3    H262787   0.350   5.744   4.802 -0.2795  4.2228  1.5661
13766TIP3   OH262788   2.649   0.918   1.695 -0.1431 -0.4481 -0.4550
13766TIP3    H162789   2.620   0.928   1.604 -1.8083  0.2847  0.1165
13766TIP3    H262790   2.690   1.002   1.716  0.2789 -0.6325 -0.5157
13767TIP3   OH262791   4.456   4.319   0.088 -0.8080  0.1213 -0.5263
13767TIP3    H162792   4.379   4.277   0.050 -0.0826 -0.3440 -1.5312
13767TIP3    H262793   4.512   4.246   0.116 -0.9230  0.4541  0.6273
13768TIP3   OH262794   6.674   6.266   4.252  0.2666  0.8904  0.1922
13768TIP3    H162795   6.733   6.300   4.185  1.0034  0.9304  0.8497
13768TIP3    H262796   6.587   6.291   4.222  0.6762  1.9164 -0.1683
13769TIP3   OH262797   2.224   2.053  13.750  0.1263 -0.3242 -0.7170
13769TIP3    H162798   2.218   1.962  13.722 -1.8647 -0.0581 -1.3134
13769TIP3    H262799   2.203   2.051  13.843  0.5625 -0.5239 -0.6231
13770TIP3   OH262800   5.641   6.458   2.585  0.1176 -0.4154  0.5206
13770TIP3    H162801   5.588   6.391   2.543  0.7580 -0.6371  0.0540
13770TIP3    H262802   5.579   6.527   2.608 -0.2415 -0.2388 -0.8850
13771TIP3   OH262803   4.201   2.262  13.869 -0.6045  0.2597 -0.2320
13771TIP3    H162804   4.290   2.240  13.895 -0.0524 -0.2289 -2.3413
13771TIP3    H262805   4.162   2.178  13.842 -1.3957  0.5936 -0.1712
13772TIP3   OH262806   3.581   5.526  12.863 -0.1271 -0.1097  0.4502
13772TIP3    H162807   3.580   5.454  12.926 -0.6899 -2.4489 -2.0316
13772TIP3    H262808   3.665   5.518  12.819  0.3089  1.5654  0.8821
13773TIP3   OH262809   0.721   3.787   1.964 -0.2338  0.7724  0.3363
13773TIP3    H162810   0.626   3.778   1.974 -0.3015  1.5337  0.4890
13773TIP3    H262811   0.732   3.871   1.919  0.4163  1.5572  1.8797
13774TIP3   OH262812   4.233   1.279   4.393  0.4075 -0.4706  0.1061
13774TIP3    H162813   4.231   1.342   4.465 -0.6116 -0.4328  0.0482
13774TIP3    H262814   4.266   1.330   4.318  1.2911 -0.4655  0.4824
13775TIP3   OH262815   1.351   2.709   1.485  0.0686  0.3929 -0.8217
13775TIP3    H162816   1.374   2.710   1.578  0.6860  0.0349 -0.9679
13775TIP3    H262817   1.434   2.698   1.439 -0.3623 -0.7031 -1.3771
13776TIP3   OH262818   2.702   2.251   1.289  0.2638 -0.4888  0.1297
13776TIP3    H162819   2.669   2.333   1.251 -0.1192 -0.4122  0.6210
13776TIP3    H262820   2.769   2.278   1.352 -0.3826 -0.5030  0.8334
13777TIP3   OH262821   1.237   3.369  12.152 -0.2641 -0.4238  0.6630
13777TIP3    H162822   1.290   3.351  12.074 -1.4518  0.3862 -0.3644
13777TIP3    H262823   1.170   3.430  12.122 -1.3671 -0.8805  2.0874
13778TIP3   OH262824   4.730   2.475  12.260  0.5550  0.0107  0.1957
13778TIP3    H162825   4.740   2.409  12.329  0.9417 -0.5639 -0.4014
13778TIP3    H262826   4.682   2.429  12.190 -0.0616  0.6635  0.1837
13779TIP3   OH262827   1.813   5.090   4.444  0.4999  0.4387  0.1480
13779TIP3    H162828   1.788   5.004   4.477 -1.7036  0.6046 -0.8888
13779TIP3    H262829   1.862   5.072   4.364 -0.9094  0.1234 -0.6725
13780TIP3   OH262830   1.903   6.311   6.339  0.5391 -0.6744 -0.0110
13780TIP3    H162831   1.991   6.347   6.331  0.8543 -1.6691 -1.7174
13780TIP3    H262832   1.916   6.216   6.330 -0.5000 -1.0468  1.9181
13781TIP3   OH262833   4.016   0.583  14.544  0.5570  0.4025  0.4343
13781TIP3    H162834   3.970   0.505  14.513  0.5920  0.5540 -0.0036
13781TIP3    H262835   3.951   0.631  14.595  0.8608 -0.5120  1.7505
13782TIP3   OH262836   1.234   1.874  15.842 -0.2065 -0.2555 -0.2912
13782TIP3    H162837   1.182   1.796  15.822  1.0269 -1.2854  0.3981
13782TIP3    H262838   1.221   1.931  15.766 -2.5063 -0.3604 -0.0341
13783TIP3   OH262839   0.994   4.419  13.197 -0.0331 -0.0412 -0.2248
13783TIP3    H162840   1.038   4.404  13.113  0.6490  3.0240 -0.5058
13783TIP3    H262841   1.064   4.420  13.262  0.0619  2.2745 -0.3134
13784TIP3   OH262842   1.195   5.349  11.463  0.2160 -0.3421 -0.1400
13784TIP3    H162843   1.116   5.404  11.460 -0.3953 -1.2330 -0.9016
13784TIP3    H262844   1.267   5.411  11.448 -0.0872  0.8574  2.7190
13785TIP3   OH262845   3.802   2.893  14.618  0.0027 -0.2947 -0.6585
13785TIP3    H162846   3.820   2.800  14.609  2.3436  0.1027 -0.8386
13785TIP3    H262847   3.889   2.934  14.619 -0.8995  1.7721  0.6648
13786TIP3   OH262848   1.059   3.788  12.808  0.1775 -0.4174 -0.1299
13786TIP3    H162849   1.101   3.870  12.836 -0.7797  0.3168 -0.7994
13786TIP3    H262850   1.068   3.730  12.884 -0.7101  0.9129  1.0296
13787TIP3   OH262851   4.854   2.176  15.617 -0.0338  0.4194  0.6907
13787TIP3    H162852   4.827   2.114  15.549  1.2363 -0.3108  0.8152
13787TIP3    H262853   4.887   2.121  15.688 -1.4436  1.1740  1.9628
13788TIP3   OH262854   6.314   4.939   4.368 -0.3347 -0.2862  0.6714
13788TIP3    H162855   6.224   4.910   4.381 -0.1913  0.0709  2.7288
13788TIP3    H262856   6.328   4.932   4.273 -2.2450 -1.1090  0.4103
13789TIP3   OH262857   2.650   6.011   0.023 -1.6152 -0.0095 -0.0612
13789TIP3    H162858   2.711   6.007  -0.051 -1.7163  1.6630 -0.2693
13789TIP3    H262859   2.706   6.010   0.100 -1.3971  0.1803 -0.2159
13790TIP3   OH262860   2.106   2.543  13.791 -0.5201 -0.1837  0.1580
13790TIP3    H162861   2.166   2.540  13.865  2.1729  0.1481 -1.8721
13790TIP3    H262862   2.072   2.633  13.791 -1.5313 -0.5206  1.6153
13791TIP3   OH262863   2.063   5.485   1.747 -0.1712  0.0125 -0.6860
13791TIP3    H162864   2.102   5.440   1.672 -2.1505 -1.3551 -0.9843
13791TIP3    H262865   2.111   5.568   1.753  2.1301 -1.1835 -1.4899
13792TIP3   OH262866   1.842   0.701   1.854  0.0940  0.2405  0.2341
13792TIP3    H162867   1.930   0.728   1.883 -0.2623  1.0729  0.5632
13792TIP3    H262868   1.850   0.606   1.841  0.1697 -0.3331  3.5810
13793TIP3   OH262869   1.439   2.828   0.731  0.5882  0.2389  0.9235
13793TIP3    H162870   1.450   2.873   0.648  1.0398 -1.0651  0.2435
13793TIP3    H262871   1.482   2.884   0.796 -1.4114  2.2204  0.6323
13794TIP3   OH262872   5.235   4.217  14.294  0.4151 -0.0980  0.1308
13794TIP3    H162873   5.237   4.220  14.199 -1.0748 -0.0571  0.0818
13794TIP3    H262874   5.275   4.134  14.317  0.1004 -0.4511 -0.5712
13795TIP3   OH262875   0.131   0.127  10.957  0.1363  0.3350  0.0338
13795TIP3    H162876   0.040   0.151  10.972 -0.3175 -0.8959 -0.6020
13795TIP3    H262877   0.131   0.081  10.873  1.3471  0.3586 -0.0020
13796TIP3   OH262878   3.603   2.314   4.091  0.2452  0.0569 -0.3241
13796TIP3    H162879   3.558   2.241   4.048  1.3935 -1.6052  1.1336
13796TIP3    H262880   3.655   2.355   4.022 -1.0285  0.0201 -1.3433
13797TIP3   OH262881   5.640   0.401  15.071 -0.2950 -0.0534  0.3125
13797TIP3    H162882   5.691   0.320  15.064 -1.0713 -0.5052 -0.1544
13797TIP3    H262883   5.644   0.440  14.984 -3.1651 -1.5828 -0.6172
13798TIP3   OH262884   4.648   0.047  12.681 -0.2187 -0.0465 -0.1852
13798TIP3    H162885   4.567   0.089  12.654 -0.2070 -0.1453 -0.3780
13798TIP3    H262886   4.623  -0.042  12.705  0.0464 -0.5533 -1.6757
13799TIP3   OH262887   3.023   4.147  13.749 -0.1516  0.1410  0.2866
13799TIP3    H162888   2.991   4.057  13.754 -2.0172  0.8088  1.8212
13799TIP3    H262889   3.068   4.152  13.665 -1.4649 -1.7759 -0.6186
13800TIP3   OH262890   1.090   2.006   5.148  0.0788 -0.1123  0.2832
13800TIP3    H162891   1.185   1.993   5.156  0.2431 -0.1182 -1.4010
13800TIP3    H262892   1.055   1.974   5.231  1.4832 -0.8867  0.6121
13801TIP3   OH262893   6.684   2.393  11.897  0.2397 -0.4000  0.2993
13801TIP3    H162894   6.609   2.348  11.935  0.2745 -1.3425 -0.7096
13801TIP3    H262895   6.671   2.386  11.802  0.9057  0.6089  0.1212
13802TIP3   OH262896   3.018   3.654  15.224  0.7839 -0.3369  0.2745
13802TIP3    H162897   3.082   3.716  15.259 -0.3459  0.9696  0.1186
13802TIP3    H262898   3.060   3.569  15.233  1.8915  0.3070  1.6745
13803TIP3   OH262899   5.072   4.770   4.579  0.1501 -0.3907  0.0407
13803TIP3    H162900   5.040   4.716   4.651 -0.0958  0.4018  0.5394
13803TIP3    H262901   4.997   4.824   4.554 -0.6951 -2.6503 -2.8000
13804TIP3   OH262902   4.404   4.599   0.952  0.3113 -0.3741 -0.8696
13804TIP3    H162903   4.359   4.533   0.899  0.2024 -0.6631 -0.4244
13804TIP3    H262904   4.456   4.649   0.889 -0.9534  0.2461 -1.4591
13805TIP3   OH262905   1.388   3.276   4.838 -0.4122  0.3388 -0.6071
13805TIP3    H162906   1.324   3.284   4.908 -0.3429  1.8810 -0.6916
13805TIP3    H262907   1.367   3.192   4.796 -1.4993  0.1784  0.2117
13806TIP3   OH262908   1.662   2.903   5.586 -1.0116  0.1301  0.3533
13806TIP3    H162909   1.658   2.811   5.558  0.0605  0.0333  0.4691
13806TIP3    H262910   1.661   2.898   5.682 -0.1770  0.1831  0.3712
13807TIP3   OH262911   2.128   1.825  16.572 -0.0328  0.1316  0.5568
13807TIP3    H162912   2.067   1.825  16.646  0.6153  0.2106  1.0903
13807TIP3    H262913   2.164   1.913  16.570 -2.3464  1.1746 -1.7896
13808TIP3   OH262914   1.637   0.230  11.605  0.0505 -0.0565  0.3277
13808TIP3    H162915   1.663   0.320  11.625  0.0389 -0.4491  2.3295
13808TIP3    H262916   1.715   0.178  11.624 -0.7846 -0.7527  2.0294
13809TIP3   OH262917   4.245   3.423  16.522  0.8920  0.1674 -0.2095
13809TIP3    H162918   4.252   3.519  16.524  0.5564  0.2728 -1.9326
13809TIP3    H262919   4.151   3.407  16.517  0.9391 -0.2622  0.3240
13810TIP3   OH262920   5.255   0.955   5.370  0.8419 -0.4237 -0.0708
13810TIP3    H162921   5.168   0.929   5.338 -0.1006  2.0705  0.2058
13810TIP3    H262922   5.288   1.015   5.303 -0.0127  2.7882  2.1633
13811TIP3   OH262923   1.309   1.420  14.557  0.2904  0.1345  0.4134
13811TIP3    H162924   1.230   1.368  14.567  1.5538 -1.6475  1.7767
13811TIP3    H262925   1.373   1.358  14.520  0.7699  1.8369 -1.8280
13812TIP3   OH262926   6.063   6.709   5.836 -0.2029  0.8961 -0.0947
13812TIP3    H162927   6.158   6.716   5.849 -0.4813  1.7296  1.9475
13812TIP3    H262928   6.040   6.624   5.874 -0.3382  0.9124 -0.1383
13813TIP3   OH262929   0.267   1.327  14.746  1.0536 -0.0929 -0.1845
13813TIP3    H162930   0.188   1.368  14.710  1.5180  1.3964  0.4300
13813TIP3    H262931   0.271   1.358  14.836  1.8915 -0.8598  0.0552
13814TIP3   OH262932   6.357   1.582  16.176 -0.0865  0.4345  0.5826
13814TIP3    H162933   6.360   1.584  16.081  0.5488 -2.9799  0.4269
13814TIP3    H262934   6.434   1.632  16.203  0.9356 -0.3278 -0.7888
13815TIP3   OH262935   6.195   1.522   3.486 -0.3703 -0.3283  0.3359
13815TIP3    H162936   6.259   1.584   3.453  0.6240 -0.8321  1.2564
13815TIP3    H262937   6.172   1.467   3.411  0.7195 -0.5120  0.1277
13816TIP3   OH262938   3.697   3.715   6.359  0.4635 -0.0586 -0.3026
13816TIP3    H162939   3.614   3.755   6.386  1.1325  0.3713  1.2230
13816TIP3    H262940   3.672   3.654   6.289 -1.1652 -0.0341  0.2068
13817TIP3   OH262941   0.020   3.603   5.520 -0.4425 -0.2271  0.6306
13817TIP3    H162942   0.065   3.568   5.443  1.7268  3.5274 -0.0424
13817TIP3    H262943   0.090   3.633   5.577 -1.9923  2.7484  1.1576
13818TIP3   OH262944   6.273   2.364  15.311 -0.6372 -0.1185 -0.4556
13818TIP3    H162945   6.261   2.457  15.294 -1.0514 -0.3723 -1.5969
13818TIP3    H262946   6.194   2.323  15.277 -0.0960 -0.9796 -0.7044
13819TIP3   OH262947   5.977   1.412  12.412 -0.0497 -0.0029 -0.3289
13819TIP3    H162948   5.969   1.507  12.422  0.0302 -0.1529  1.6650
13819TIP3    H262949   6.061   1.391  12.453 -0.7909 -1.0773  0.7252
13820TIP3   OH262950   5.640   2.300   5.747  0.0471 -0.4324  0.2770
13820TIP3    H162951   5.623   2.269   5.836 -2.5219 -1.0193 -0.3425
13820TIP3    H262952   5.553   2.306   5.707  1.1491 -0.4158 -2.2742
13821TIP3   OH262953   4.732   5.092  12.768 -0.4429  0.0749 -0.3478
13821TIP3    H162954   4.824   5.084  12.745 -0.6320 -0.7902 -0.8846
13821TIP3    H262955   4.714   5.015  12.822 -0.3786  1.2963  1.4808
13822TIP3   OH262956   2.310   0.873  16.113 -0.0352  0.5799  0.4051
13822TIP3    H162957   2.244   0.862  16.045 -0.3373 -0.0441  0.7866
13822TIP3    H262958   2.277   0.946  16.167 -0.3859  0.3136  0.5556
13823TIP3   OH262959   3.678   0.135   3.417  0.4054 -0.1045  0.6339
13823TIP3    H162960   3.646   0.052   3.452 -1.2414  0.7415  1.2658
13823TIP3    H262961   3.752   0.111   3.362  1.3758 -1.7750  2.5239
13824TIP3   OH262962   3.468   3.413   1.003  0.4121 -0.0896  0.1333
13824TIP3    H162963   3.432   3.500   0.988  2.9259  1.2010  1.0583
13824TIP3    H262964   3.493   3.382   0.916  0.2208  0.4556 -0.1201
13825TIP3   OH262965   5.100   4.886   4.240 -0.5187 -0.4911 -0.0213
13825TIP3    H162966   5.095   4.903   4.146 -2.0833 -0.7984 -0.0263
13825TIP3    H262967   5.012   4.855   4.263 -0.1320 -0.5108  1.5241
13826TIP3   OH262968   4.223   2.758  13.672  0.5007  0.4866  0.1910
13826TIP3    H162969   4.201   2.691  13.736  0.4932  0.7664  0.4883
13826TIP3    H262970   4.250   2.710  13.594  0.4179  0.1418  0.3750
13827TIP3   OH262971   1.412   6.445   1.077  0.3336 -0.4069  0.1057
13827TIP3    H162972   1.348   6.377   1.100 -0.3771  0.4371  0.7095
13827TIP3    H262973   1.496   6.407   1.102 -0.0783 -0.9588  0.7198
13828TIP3   OH262974   4.971   2.004   5.624  0.2405  0.0859  0.2173
13828TIP3    H162975   4.949   2.095   5.648 -2.0038 -0.1091 -0.8699
13828TIP3    H262976   4.906   1.951   5.669  0.1230 -0.8010 -0.9622
13829TIP3   OH262977   2.710   6.296   5.867  0.0808 -0.4615  0.3140
13829TIP3    H162978   2.665   6.214   5.846  1.6014 -1.5053  0.9603
13829TIP3    H262979   2.758   6.278   5.947  1.7946  0.5253 -0.4329
13830TIP3   OH262980   6.215   4.342  17.084 -0.4390  0.0445  0.2547
13830TIP3    H162981   6.123   4.318  17.095 -0.9191  1.6361 -0.0842
13830TIP3    H262982   6.226   4.418  17.140  0.9207 -0.6317  0.9558
13831TIP3   OH262983   6.224   3.644  16.241 -0.1343  0.7046  0.1403
13831TIP3    H162984   6.168   3.692  16.302  0.4264  1.5178  0.0315
13831TIP3    H262985   6.174   3.565  16.220 -0.3542  0.4136  1.6202
13832TIP3   OH262986   4.500   6.231   4.479  0.2348 -0.5119 -0.0025
13832TIP3    H162987   4.446   6.304   4.447  0.2091  0.2514  1.7011
13832TIP3    H262988   4.589   6.254   4.452 -0.0578 -1.0520 -1.5343
13833TIP3   OH262989   5.986   6.092  15.409  0.3270  0.0736  0.1446
13833TIP3    H162990   5.920   6.024  15.406  1.8963 -1.6886  2.4032
13833TIP3    H262991   5.967   6.142  15.488  1.1966  0.0395  0.3914
13834TIP3   OH262992   1.501   0.820  11.366 -0.5647 -0.1131 -0.0991
13834TIP3    H162993   1.515   0.726  11.379 -0.4788  0.1210  1.9052
13834TIP3    H262994   1.571   0.862  11.417 -1.4528  1.0297  0.2322
13835TIP3   OH262995   4.256   4.721  10.680 -0.5770 -0.2299  0.0977
13835TIP3    H162996   4.278   4.660  10.609  0.6542  0.7319 -0.3925
13835TIP3    H262997   4.318   4.699  10.750 -2.7897 -2.2096  1.5565
13836TIP3   OH262998   1.932   0.127   2.885  0.8739 -0.2436 -0.0033
13836TIP3    H162999   2.002   0.065   2.901  1.5861  0.7172  0.6874
13836TIP3    H263000   1.910   0.115   2.793  3.5608  1.0266 -0.9154
13837TIP3   OH263001   1.048   5.685  11.232  0.2641  0.4182  0.1669
13837TIP3    H163002   1.114   5.670  11.165  0.6035 -2.0385  0.9315
13837TIP3    H263003   1.067   5.772  11.266  1.6250  0.6913 -1.2120
13838TIP3   OH263004   2.116   5.039   2.062  0.0168 -0.4818  0.1279
13838TIP3    H163005   2.161   5.122   2.047 -0.0136 -0.5707 -0.4839
13838TIP3    H263006   2.049   5.060   2.127  1.3375 -0.4847  1.5526
13839TIP3   OH263007   5.109   5.315   1.141 -0.3065  0.2022  0.4723
13839TIP3    H163008   5.025   5.324   1.186 -0.5557  0.3623 -0.0282
13839TIP3    H263009   5.172   5.302   1.212 -0.7817 -0.1420  0.8379
13840TIP3   OH263010   1.339   4.957  15.319  0.1451  0.1209 -0.1385
13840TIP3    H163011   1.399   4.962  15.393  1.6323 -1.6213 -1.1421
13840TIP3    H263012   1.283   4.882  15.338 -0.2550  0.3953 -0.2303
13841TIP3   OH263013   5.187   4.118   3.922  0.1169  0.7453 -0.1942
13841TIP3    H163014   5.197   4.148   3.832  1.2602 -0.5168 -0.5205
13841TIP3    H263015   5.218   4.192   3.975 -0.4980  1.4686 -0.8157
13842TIP3   OH263016   1.793   2.069  15.702 -0.5281 -0.4910 -0.0851
13842TIP3    H163017   1.803   1.975  15.715  0.7507 -0.2604  0.8887
13842TIP3    H263018   1.702   2.081  15.674 -0.6468 -2.0193 -0.4149
13843TIP3   OH263019   0.644   6.519   4.759 -0.2009 -0.4991  0.3404
13843TIP3    H163020   0.670   6.468   4.835  0.6066 -0.1248  0.3343
13843TIP3    H263021   0.550   6.506   4.751 -0.1885 -1.0361  1.0326
13844TIP3   OH263022   0.685   5.766   4.743  0.1805 -0.1852  0.1580
13844TIP3    H163023   0.737   5.801   4.671  0.7855 -2.1303 -0.3976
13844TIP3    H263024   0.747   5.757   4.815 -0.0446  0.1636  0.3993
13845TIP3   OH263025   2.758   0.875   4.329 -0.0257 -0.3927  0.5001
13845TIP3    H163026   2.773   0.798   4.273  0.1503  1.0295 -1.5301
13845TIP3    H263027   2.770   0.842   4.418 -1.9542 -3.1660 -0.1215
13846TIP3   OH263028   5.690   3.740   2.944  0.2414 -0.0157 -0.1828
13846TIP3    H163029   5.711   3.738   3.037 -0.4832  1.4893  0.0444
13846TIP3    H263030   5.774   3.752   2.900  0.8074 -2.2921  0.1149
13847TIP3   OH263031   5.252   0.156  15.057 -0.1346 -0.8083 -0.0822
13847TIP3    H163032   5.269   0.067  15.087 -0.5128 -1.6610 -2.1548
13847TIP3    H263033   5.168   0.149  15.011  0.2911  0.3814 -1.1053
13848TIP3   OH263034   2.019   3.705   0.232  0.4771  0.3167 -0.5796
13848TIP3    H163035   1.955   3.677   0.297  1.9722  1.0525  1.2768
13848TIP3    H263036   2.058   3.784   0.268  1.2511  0.8558 -2.4645
13849TIP3   OH263037   2.165   4.932  16.285 -0.0129  0.1518 -0.3435
13849TIP3    H163038   2.090   4.937  16.346  0.3672 -1.2725  0.2902
13849TIP3    H263039   2.240   4.911  16.341  0.3278 -1.3091 -1.2884
13850TIP3   OH263040   2.656   2.967   6.068 -0.4559 -0.1730  0.2022
13850TIP3    H163041   2.697   3.047   6.103 -3.4878  1.8040 -0.3525
13850TIP3    H263042   2.642   2.986   5.975 -0.6390 -1.6551 -0.0950
13851TIP3   OH263043   1.127   5.975  11.247 -0.4668  0.3653 -0.6317
13851TIP3    H163044   1.076   6.055  11.261  1.0804  1.0606  1.6975
13851TIP3    H263045   1.159   5.952  11.334  1.8009 -0.9801 -1.7440
13852TIP3   OH263046   1.068   2.261  13.302  0.2017  0.6187 -0.0829
13852TIP3    H163047   1.077   2.211  13.383  0.5424  1.4570  0.4137
13852TIP3    H263048   1.148   2.313  13.297 -1.1596  2.9588  0.7262
13853TIP3   OH263049   1.850   3.532  13.555  0.0358  0.3204  0.7604
13853TIP3    H163050   1.800   3.450  13.554  3.0850 -1.8177 -3.3524
13853TIP3    H263051   1.925   3.514  13.612 -0.5322  1.2905  1.8749
13854TIP3   OH263052   2.423   3.335  13.747  0.4193  0.5654 -0.6997
13854TIP3    H163053   2.405   3.390  13.824 -1.0768 -0.6225 -0.1614
13854TIP3    H263054   2.416   3.245  13.779  0.6204  0.0450 -2.0537
13855TIP3   OH263055   0.795   2.541  15.643 -0.6608  0.3663 -0.4603
13855TIP3    H163056   0.712   2.546  15.597  0.5111  0.5598 -2.7032
13855TIP3    H263057   0.858   2.512  15.576  0.8226 -1.2532  1.5042
13856TIP3   OH263058   3.234   5.484  13.910  0.0207 -0.3925 -0.1256
13856TIP3    H163059   3.210   5.577  13.912  2.7976  0.4090 -0.2382
13856TIP3    H263060   3.329   5.483  13.923 -0.0444 -3.3071  0.9807
13857TIP3   OH263061   4.881   3.605  14.581  0.8336  0.5068 -0.2647
13857TIP3    H163062   4.910   3.612  14.672  0.4035 -0.4733 -0.0352
13857TIP3    H263063   4.909   3.518  14.553 -1.4520 -0.3363 -0.1546
13858TIP3   OH263064   2.369   4.665  10.989 -0.0712  0.0399  0.1632
13858TIP3    H163065   2.433   4.607  10.948 -1.1237 -0.5178 -0.7425
13858TIP3    H263066   2.409   4.752  10.983 -0.7206  0.2374 -3.4216
13859TIP3   OH263067   3.772   1.095  12.133  0.2519 -0.4034 -0.0809
13859TIP3    H163068   3.831   1.134  12.069  0.0433  0.1091  0.0300
13859TIP3    H263069   3.696   1.154  12.135  0.4098 -0.2117  0.8892
13860TIP3   OH263070   2.453   5.383   3.133 -0.4560  0.2732 -0.2847
13860TIP3    H163071   2.503   5.358   3.056  0.2074  2.2207 -0.5383
13860TIP3    H263072   2.516   5.377   3.205 -0.3607  0.8994 -0.3092
13861TIP3   OH263073   1.390   6.119   2.839  0.0353  0.5220 -0.8984
13861TIP3    H163074   1.300   6.089   2.847  0.3427 -0.8826 -2.2856
13861TIP3    H263075   1.434   6.085   2.917  0.0748 -1.7129 -1.8070
13862TIP3   OH263076   0.435   3.126   2.616  0.0512  0.3232 -0.2007
13862TIP3    H163077   0.365   3.190   2.630 -1.6942 -1.0348 -2.0733
13862TIP3    H263078   0.460   3.098   2.704 -1.1370  1.4692  0.5492
13863TIP3   OH263079   6.182   2.104   6.255 -0.4033  0.3616  0.6014
13863TIP3    H163080   6.140   2.070   6.176 -0.2440  1.4326  0.0282
13863TIP3    H263081   6.262   2.051   6.265 -1.6463 -1.4389  1.4889
13864TIP3   OH263082   6.686   5.774   5.370 -0.5195  0.3538 -0.5276
13864TIP3    H163083   6.631   5.705   5.407  0.7382 -0.4305 -0.0487
13864TIP3    H263084   6.652   5.786   5.281 -0.7419 -0.9203 -0.6400
13865TIP3   OH263085   1.110   3.788   5.568 -0.2550 -0.1585  0.1066
13865TIP3    H163086   1.071   3.702   5.585  1.9086 -1.1111  0.5662
13865TIP3    H263087   1.037   3.850   5.578 -2.1388 -1.9908 -1.4518
13866TIP3   OH263088   6.387   2.159   4.900 -0.2162 -0.0609  0.8566
13866TIP3    H163089   6.472   2.199   4.880 -0.5008  0.7526  1.2149
13866TIP3    H263090   6.359   2.204   4.980 -0.4005 -1.2239  1.4551
13867TIP3   OH263091   5.367   0.231   3.217 -0.7850  0.2844  0.0630
13867TIP3    H163092   5.292   0.286   3.239 -0.4061 -0.1093  2.5410
13867TIP3    H263093   5.443   0.275   3.255 -0.2479 -1.0938  0.6543
13868TIP3   OH263094   3.971   2.644  15.476  0.0653 -0.6849 -0.2787
13868TIP3    H163095   3.985   2.653  15.570 -0.1372  1.8596 -0.4395
13868TIP3    H263096   3.936   2.555  15.466 -3.3621  0.1200  2.4847
13869TIP3   OH263097   0.075   2.893  14.447 -1.1075  0.1213  0.0874
13869TIP3    H163098   0.133   2.927  14.515  0.9138 -0.5264 -1.2551
13869TIP3    H263099   0.063   2.800  14.470  1.3360 -0.6832 -1.4862
13870TIP3   OH263100   0.573   1.076   0.862 -0.5416 -0.3416  0.3315
13870TIP3    H163101   0.516   1.086   0.939 -2.1359 -1.9690 -0.5661
13870TIP3    H263102   0.514   1.051   0.791  1.3007 -2.6145 -0.5495
13871TIP3   OH263103   4.951   2.835   0.148  0.1211 -0.0828 -0.2507
13871TIP3    H163104   5.016   2.814   0.215 -0.6551 -0.9023  0.2696
13871TIP3    H263105   4.917   2.921   0.173 -1.4619 -1.1465  1.5003
13872TIP3   OH263106   1.604   3.123  11.734  0.5677 -0.2951 -0.1743
13872TIP3    H163107   1.637   3.160  11.816  1.2888 -0.3147 -0.4481
13872TIP3    H263108   1.676   3.068  11.701  0.6404  0.4125 -1.2608
13873TIP3   OH263109   0.743   1.431   3.790 -0.3602 -0.3855 -0.5386
13873TIP3    H163110   0.715   1.384   3.711  1.2746 -0.7547 -0.9375
13873TIP3    H263111   0.806   1.372   3.832  1.4547  1.2229 -0.8428
13874TIP3   OH263112   1.698   5.875  15.296 -0.0399  0.1723 -0.5624
13874TIP3    H163113   1.704   5.819  15.374 -1.7166  0.4876 -0.1650
13874TIP3    H263114   1.744   5.956  15.321  1.4167 -0.5717 -0.7431
13875TIP3   OH263115   5.534   4.509  15.573  0.5245 -0.4092 -1.0165
13875TIP3    H163116   5.557   4.465  15.492 -4.2238 -0.2425 -2.7557
13875TIP3    H263117   5.479   4.583  15.546  0.9239  1.3074  2.2760
13876TIP3   OH263118   1.559   4.786  13.923  0.3160  0.0566  0.1510
13876TIP3    H163119   1.581   4.871  13.885 -2.2585  0.8046  0.1328
13876TIP3    H263120   1.580   4.723  13.854 -3.6611  1.3158 -2.6186
13877TIP3   OH263121   0.415   1.609   1.392  0.1228  0.0085 -0.3167
13877TIP3    H163122   0.404   1.703   1.382 -1.3246 -0.3680 -3.5418
13877TIP3    H263123   0.508   1.594   1.375  0.4994  0.8755  0.8822
13878TIP3   OH263124   0.409   1.071   3.475  0.3492 -0.1234  0.6448
13878TIP3    H163125   0.356   1.014   3.530  0.8499 -0.7905  0.4447
13878TIP3    H263126   0.360   1.153   3.471 -1.5725 -1.2676 -1.0003
13879TIP3   OH263127   5.612   6.124  12.605 -0.9387 -0.1340  0.0448
13879TIP3    H163128   5.548   6.055  12.621 -3.1427  1.2299 -2.1573
13879TIP3    H263129   5.595   6.189  12.673 -1.1737 -0.2566  0.1021
13880TIP3   OH263130   4.525   3.320  12.812  0.5875 -0.0629 -0.4012
13880TIP3    H163131   4.430   3.328  12.819  0.6554 -0.3793  1.3307
13880TIP3    H263132   4.540   3.282  12.725 -0.7271  1.7936 -1.5058
13881TIP3   OH263133   4.361   1.403  14.152 -0.5637 -0.1765 -0.5334
13881TIP3    H163134   4.283   1.368  14.197  0.3644 -1.5470  0.0808
13881TIP3    H263135   4.433   1.350  14.186  1.0537  2.6177  0.7605
13882TIP3   OH263136   3.902   0.265  11.651 -0.0748 -0.0661 -0.1961
13882TIP3    H163137   3.909   0.295  11.742  0.7373  0.3939 -0.3934
13882TIP3    H263138   3.886   0.171  11.658  1.6627 -0.3539  0.4371
13883TIP3   OH263139   4.604   3.072  16.848 -0.2281 -0.5829  0.2589
13883TIP3    H163140   4.583   3.016  16.923 -0.2599 -0.8407  0.0576
13883TIP3    H263141   4.534   3.055  16.785  0.1788 -0.8917 -0.1129
13884TIP3   OH263142   3.950   3.281  13.988  0.2927  0.1926 -0.2551
13884TIP3    H163143   3.933   3.367  14.026 -1.6911 -0.3596  0.2355
13884TIP3    H263144   3.925   3.219  14.056 -2.1938 -0.8100 -1.9399
13885TIP3   OH263145   1.590   3.100  16.791 -0.2398 -0.3083 -0.1389
13885TIP3    H163146   1.539   3.109  16.872 -1.1060  0.6019 -0.7664
13885TIP3    H263147   1.662   3.042  16.815 -2.2901 -2.8128  0.4636
13886TIP3   OH263148   4.600   1.742   1.684  0.4357 -0.1939  0.2091
13886TIP3    H163149   4.686   1.773   1.656  0.0609  0.8446  0.1787
13886TIP3    H263150   4.615   1.702   1.769  1.2328 -1.5549 -0.5384
13887TIP3   OH263151   4.298   4.061   6.572  0.0982  0.5797  0.4281
13887TIP3    H163152   4.247   3.987   6.540  0.0402  0.1664  1.4289
13887TIP3    H263153   4.235   4.114   6.621  0.7474 -0.3548  2.3693
13888TIP3   OH263154   4.553   5.968  14.074 -0.3304  0.1784 -0.1014
13888TIP3    H163155   4.632   6.012  14.041 -0.4937  0.8883  0.4398
13888TIP3    H263156   4.581   5.929  14.157  0.1728 -1.8912 -1.1918
13889TIP3   OH263157   4.149   3.608   1.564 -0.0147  0.1705  0.5171
13889TIP3    H163158   4.180   3.633   1.477  1.8089 -0.1336  1.0412
13889TIP3    H263159   4.125   3.515   1.554 -1.9111  0.6899 -0.1614
13890TIP3   OH263160   5.298   1.557   1.865 -0.4084  0.0899  0.1748
13890TIP3    H163161   5.338   1.483   1.910 -1.0551 -0.1348  0.3852
13890TIP3    H263162   5.221   1.520   1.820  0.7394  0.0984 -1.9436
13891TIP3   OH263163   5.993   2.745   0.814 -0.0404 -0.2955  0.8097
13891TIP3    H163164   5.926   2.778   0.754  0.2603 -0.8476  0.1593
13891TIP3    H263165   5.988   2.804   0.889  2.6125  3.3517 -1.5510
13892TIP3   OH263166   5.782   4.697  13.275 -0.2336  0.0393 -0.6513
13892TIP3    H163167   5.829   4.651  13.205  0.5974  0.7673 -0.5844
13892TIP3    H263168   5.845   4.761  13.308 -0.5042 -0.4910  0.9680
13893TIP3   OH263169   4.830   0.380   2.814  0.3657 -0.3298 -0.1026
13893TIP3    H163170   4.745   0.360   2.774  0.0933  0.8155 -0.1334
13893TIP3    H263171   4.857   0.462   2.772  0.0170  0.9904  2.0669
13894TIP3   OH263172   1.515   4.151   5.638  0.0667  0.2832  0.1705
13894TIP3    H163173   1.422   4.140   5.617 -0.2856  0.4783  1.5200
13894TIP3    H263174   1.537   4.238   5.605  0.0507 -0.1447 -1.0295
13895TIP3   OH263175   5.227   1.841   4.072  0.6609 -0.4746  0.2354
13895TIP3    H163176   5.206   1.935   4.072  0.1130 -0.6006  0.4302
13895TIP3    H263177   5.159   1.801   4.020  1.0068 -0.7474 -0.0123
13896TIP3   OH263178   1.725   2.402  16.330 -0.0096  0.0926  0.2902
13896TIP3    H163179   1.671   2.455  16.270  0.4093  0.8012  0.5222
13896TIP3    H263180   1.807   2.389  16.282  0.1358  0.2274  0.5012
13897TIP3   OH263181   0.242   2.381   4.590 -0.3562 -0.0568  0.6140
13897TIP3    H163182   0.199   2.296   4.579 -0.9667  0.2705  0.3993
13897TIP3    H263183   0.330   2.360   4.620 -0.1993 -0.7979 -0.3327
13898TIP3   OH263184   6.614   5.050   4.737 -0.6517  0.0976 -0.0512
13898TIP3    H163185   6.599   5.000   4.656  0.6350  0.3510 -0.4809
13898TIP3    H263186   6.582   4.994   4.807 -0.6693 -0.6550 -0.6506
13899TIP3   OH263187   1.366   1.839  12.829 -0.0338 -0.3836  0.0126
13899TIP3    H163188   1.328   1.926  12.839  1.7714  0.2220  2.9753
13899TIP3    H263189   1.341   1.811  12.741 -1.2854  2.8000 -0.7639
13900TIP3   OH263190   3.829   1.273  14.133 -0.3604 -0.3165 -0.0549
13900TIP3    H163191   3.901   1.324  14.170  0.1137 -0.8817 -0.1767
13900TIP3    H263192   3.777   1.336  14.083  0.7440 -0.1227 -0.9894
13901TIP3   OH263193   5.589   6.720  16.424  0.3832  1.1228  0.0130
13901TIP3    H163194   5.599   6.638  16.374 -0.9968  0.0733  1.3888
13901TIP3    H263195   5.500   6.748  16.406  1.1012  2.8389 -1.1121
13902TIP3   OH263196   3.331   3.563  17.147 -0.2852 -0.0259  0.0911
13902TIP3    H163197   3.423   3.583  17.164 -0.3112  0.0120  0.1932
13902TIP3    H263198   3.312   3.489  17.205  0.3415 -1.6690 -1.6841
13903TIP3   OH263199   4.247   6.546   2.427  0.2974  0.1370 -0.8438
13903TIP3    H163200   4.341   6.559   2.417  0.1484  0.2395 -2.3176
13903TIP3    H263201   4.207   6.619   2.380 -0.5764  1.7267  2.1075
13904TIP3   OH263202   0.653   5.110   4.200  0.6446 -0.4923  0.4260
13904TIP3    H163203   0.707   5.178   4.160  0.7461 -1.5534 -1.3769
13904TIP3    H263204   0.569   5.118   4.155  0.1905 -0.6313  1.2380
13905TIP3   OH263205   1.708   5.946   4.254 -0.0424 -0.1271 -0.3040
13905TIP3    H163206   1.700   5.858   4.292  2.6307 -0.1140  0.5182
13905TIP3    H263207   1.762   5.933   4.176 -0.9902  0.6044 -1.1075
13906TIP3   OH263208   2.594   3.321  14.697 -0.1360  0.2199 -0.0288
13906TIP3    H163209   2.552   3.391  14.747  0.2027  0.1119  0.4208
13906TIP3    H263210   2.574   3.241  14.746  1.7461  0.3171  1.0239
13907TIP3   OH263211   2.554   1.037   3.769 -0.2503  0.0721 -0.2349
13907TIP3    H163212   2.512   1.017   3.853 -0.0150  0.1380 -0.1012
13907TIP3    H263213   2.627   1.094   3.792  0.2111 -0.4367 -0.4138
13908TIP3   OH263214   1.973   0.590  15.313  0.0731 -0.4965  0.1751
13908TIP3    H163215   1.985   0.506  15.356  0.9629 -0.6335 -0.3158
13908TIP3    H263216   1.892   0.625  15.349  0.1833 -1.1447  1.0683
13909TIP3   OH263217   6.134   5.516  17.072  0.2545  0.5701  0.1535
13909TIP3    H163218   6.043   5.495  17.094  0.2502  0.3139 -0.0964
13909TIP3    H263219   6.134   5.524  16.976  0.2241  1.8742  0.2362
13910TIP3   OH263220   0.882   2.513   2.699  0.0856  0.2376  0.0408
13910TIP3    H163221   0.804   2.554   2.662 -0.6397 -0.6908  0.4898
13910TIP3    H263222   0.955   2.557   2.656 -0.6479  1.9459  0.4774
13911TIP3   OH263223   2.059   4.936   2.851 -0.0927 -0.4577  0.0744
13911TIP3    H163224   1.991   4.969   2.910 -0.3704  0.6907 -0.8539
13911TIP3    H263225   2.129   5.002   2.857  0.1059 -0.6157 -0.4493
13912TIP3   OH263226   1.888   0.264  13.272  0.0821  0.0308 -0.2374
13912TIP3    H163227   1.848   0.178  13.286  0.2144  0.2669  1.9445
13912TIP3    H263228   1.978   0.254  13.305  0.9450  0.3370 -2.3397
13913TIP3   OH263229   1.554   4.523   2.772 -0.2630  0.0485 -0.4023
13913TIP3    H163230   1.633   4.543   2.823 -0.9045 -0.7899  0.9740
13913TIP3    H263231   1.512   4.452   2.820 -1.5723  0.0951 -1.4269
13914TIP3   OH263232   3.319   4.649  13.121  0.6851  0.3012  0.5431
13914TIP3    H163233   3.346   4.592  13.050 -0.5126  0.0821  0.2494
13914TIP3    H263234   3.385   4.635  13.190  1.0406 -0.5520  0.0356
13915TIP3   OH263235   5.604   6.167  16.458  0.1648 -0.0182 -0.4631
13915TIP3    H163236   5.584   6.131  16.545  0.1922 -0.7149 -0.7355
13915TIP3    H263237   5.699   6.166  16.454  0.1520 -0.4892 -0.7014
13916TIP3   OH263238   2.346   2.245   4.264 -0.0017 -0.1410 -0.4605
13916TIP3    H163239   2.304   2.329   4.245  0.1488 -0.2155 -1.1552
13916TIP3    H263240   2.303   2.214   4.343  0.9491  1.2710  0.6479
13917TIP3   OH263241   5.882   6.248  12.007  0.8814 -0.1547  0.0660
13917TIP3    H163242   5.926   6.326  11.975  0.4700  0.5538  1.1664
13917TIP3    H263243   5.932   6.222  12.084  0.4788 -0.4466  0.2301
13918TIP3   OH263244   1.791   1.740   0.860 -0.4758 -0.0074 -0.3205
13918TIP3    H163245   1.787   1.722   0.766 -0.8752 -1.0634 -0.1242
13918TIP3    H263246   1.705   1.776   0.882  0.7207  3.6084 -0.9357
13919TIP3   OH263247   3.890   1.883  14.460 -0.1820  0.1577 -0.4426
13919TIP3    H163248   3.867   1.791  14.449  0.2983 -0.3783  2.2807
13919TIP3    H263249   3.985   1.882  14.478 -0.1429  1.1940 -0.5260
13920TIP3   OH263250   1.081   6.756   1.852 -0.3721 -0.1520  0.2236
13920TIP3    H163251   1.057   6.664   1.865  4.7881 -2.1254 -1.3327
13920TIP3    H263252   1.091   6.765   1.757 -0.1729  1.8462  0.3925
13921TIP3   OH263253   6.010   2.926   1.302  0.6296  0.3484 -0.3311
13921TIP3    H163254   5.972   2.904   1.387 -0.9605  1.4253 -0.7199
13921TIP3    H263255   6.040   2.842   1.267 -0.0771 -0.3329  0.6441
13922TIP3   OH263256   0.811   4.916   2.517  0.3905 -0.0193 -0.4453
13922TIP3    H163257   0.770   4.958   2.592 -0.3594 -2.7939  0.8269
13922TIP3    H263258   0.753   4.935   2.443 -0.6875 -0.0516  0.3792
13923TIP3   OH263259   6.582   4.102  15.548  0.4097  0.3385  0.3035
13923TIP3    H163260   6.639   4.039  15.502 -1.7850 -2.1684  0.7552
13923TIP3    H263261   6.511   4.119  15.486 -0.3155  0.3902  1.1423
13924TIP3   OH263262   6.168   5.970  16.292 -0.5986 -0.4536  0.4101
13924TIP3    H163263   6.092   5.931  16.335 -0.7904 -0.4129  0.1107
13924TIP3    H263264   6.223   6.002  16.364 -1.3266  0.3973  0.6026
13925TIP3   OH263265   1.894   1.969   0.969  0.1094  0.0072 -0.1780
13925TIP3    H163266   1.892   1.874   0.957 -1.5391 -0.3295  2.0525
13925TIP3    H263267   1.806   1.991   1.000  1.3636  1.7630  2.5067
13926TIP3   OH263268   1.115   3.177  14.482 -0.3954  0.2980  0.4166
13926TIP3    H163269   1.195   3.226  14.500 -0.9360  1.2646  0.2704
13926TIP3    H263270   1.099   3.192  14.388 -0.2475 -0.6611  0.2279
13927TIP3   OH263271   2.499   6.481   0.989  0.1038 -0.1145 -0.1723
13927TIP3    H163272   2.426   6.439   0.943  0.5220  0.7075 -1.6794
13927TIP3    H263273   2.460   6.514   1.070 -0.3977 -2.6303  0.6736
13928TIP3   OH263274   1.437   2.314   0.942 -0.2081  0.0652 -0.3511
13928TIP3    H163275   1.466   2.224   0.955  0.1092  0.3391  0.9735
13928TIP3    H263276   1.343   2.312   0.962 -0.1460  0.0696 -0.0482
13929TIP3   OH263277   4.347   6.129   5.406  0.2135 -0.1646  0.0413
13929TIP3    H163278   4.346   6.050   5.353  2.5644 -0.5562  0.4548
13929TIP3    H263279   4.325   6.199   5.345 -0.8576 -1.0163 -0.5675
13930TIP3   OH263280   6.098   0.427   3.319  0.0899  0.0152 -0.3141
13930TIP3    H163281   6.070   0.377   3.242  0.6143  0.0212 -0.5141
13930TIP3    H263282   6.069   0.516   3.301 -2.3650 -0.4962  0.8052
13931TIP3   OH263283   2.442   6.347  10.467 -0.3025  0.4155 -0.4035
13931TIP3    H163284   2.397   6.430  10.452  0.2721  0.7925 -0.0693
13931TIP3    H263285   2.512   6.346  10.402 -0.8063 -0.1852 -0.9449
13932TIP3   OH263286   4.014   5.984   0.993 -0.4433  0.5491 -0.3619
13932TIP3    H163287   4.065   5.978   0.912  2.2022 -0.9200  1.2512
13932TIP3    H263288   4.001   5.893   1.019 -1.9849  0.9828  0.4653
13933TIP3   OH263289   2.429   3.847   4.276 -0.5457  0.1578 -0.1311
13933TIP3    H163290   2.397   3.816   4.191  0.4107 -0.2920 -0.3400
13933TIP3    H263291   2.439   3.942   4.266  0.1734  0.0214 -0.7290
13934TIP3   OH263292   3.698   5.648  15.615  0.1150  0.0778 -0.7717
13934TIP3    H163293   3.695   5.739  15.587  0.2368  0.2412 -0.2662
13934TIP3    H263294   3.609   5.615  15.602 -0.6895  1.0769  1.6634
13935TIP3   OH263295   1.832   4.534  11.884  0.5527  0.4020  0.4770
13935TIP3    H163296   1.820   4.440  11.870 -1.5841  0.9604 -2.3536
13935TIP3    H263297   1.901   4.559  11.823  0.0830  0.8753  0.1261
13936TIP3   OH263298   2.501   0.471   4.271  0.0316  0.0032 -0.0805
13936TIP3    H163299   2.487   0.550   4.322 -0.2652 -0.7529  1.0502
13936TIP3    H263300   2.596   0.455   4.276  0.2191  0.7318 -1.0231
13937TIP3   OH263301   5.583   4.984   2.623 -0.2178 -0.0331  0.4356
13937TIP3    H163302   5.640   5.060   2.624  0.5444 -0.5906  0.7297
13937TIP3    H263303   5.540   4.986   2.537  1.1365 -0.2429 -0.2722
13938TIP3   OH263304   0.253   3.643  10.481 -0.2356 -0.2261 -0.4756
13938TIP3    H163305   0.194   3.609  10.549 -0.3489  0.6593 -0.1135
13938TIP3    H263306   0.227   3.735  10.471  0.9453  0.1178 -0.4696
13939TIP3   OH263307   1.745   6.470  14.674  0.0757 -0.1810  0.7453
13939TIP3    H163308   1.793   6.553  14.683 -1.0332  0.3648  2.0540
13939TIP3    H263309   1.714   6.471  14.583  2.0705 -0.3284  0.0082
13940TIP3   OH263310   2.528   1.834  16.477 -0.4836  0.2712  0.5392
13940TIP3    H163311   2.571   1.882  16.407  0.3644  1.9769  2.1274
13940TIP3    H263312   2.495   1.902  16.536 -1.2349 -1.0824  1.7571
13941TIP3   OH263313   1.989   5.730  11.385  0.4109  0.2770  0.3803
13941TIP3    H163314   1.949   5.698  11.304  2.3468  0.9567 -0.9145
13941TIP3    H263315   1.949   5.816  11.399 -1.2115 -0.5514  1.1787
13942TIP3   OH263316   6.325   0.559  15.337  0.7853  0.2592  0.1010
13942TIP3    H163317   6.253   0.596  15.285  0.7709 -0.4072 -0.3583
13942TIP3    H263318   6.286   0.541  15.423  0.0540 -1.2738 -0.5228
13943TIP3   OH263319   1.458   3.189   1.258  0.3259 -0.2839  1.0068
13943TIP3    H163320   1.514   3.117   1.287 -0.7743 -1.2350  0.8552
13943TIP3    H263321   1.439   3.239   1.338  0.6138 -0.5070  1.2156
13944TIP3   OH263322   0.398   6.774  16.563  0.1734 -0.7731 -0.3747
13944TIP3    H163323   0.472   6.834  16.559  0.6340 -1.2698  0.4456
13944TIP3    H263324   0.434   6.694  16.602 -0.7986 -1.0159  0.0570
13945TIP3   OH263325   0.116   4.183  14.788 -0.1062  0.2512 -0.2921
13945TIP3    H163326   0.089   4.091  14.784 -2.8819  1.0017 -1.9046
13945TIP3    H263327   0.201   4.185  14.744  0.1459 -1.5531  0.0213
13946TIP3   OH263328   5.198   1.875   6.253  0.0155 -0.0594 -0.5549
13946TIP3    H163329   5.270   1.817   6.278 -0.4226 -0.3418  0.0644
13946TIP3    H263330   5.119   1.829   6.279 -0.3898  0.3578 -1.0111
13947TIP3   OH263331   4.258   2.971  13.829  0.0712 -0.2717 -0.2079
13947TIP3    H163332   4.241   2.887  13.785 -1.5804  0.2243 -0.5944
13947TIP3    H263333   4.348   2.991  13.807  0.4481 -1.8655 -0.2478
13948TIP3   OH263334   1.704   1.970   4.257  0.3546 -0.4391 -0.5560
13948TIP3    H163335   1.660   1.938   4.178 -0.8028 -1.0372  0.3007
13948TIP3    H263336   1.711   2.064   4.243  0.2766 -0.5513 -1.4281
13949TIP3   OH263337   1.499   1.245   4.366  0.6285  0.1732  0.5228
13949TIP3    H163338   1.471   1.185   4.435 -2.7955 -0.0546 -0.8826
13949TIP3    H263339   1.529   1.188   4.295 -1.0844  0.1209 -0.1964
13950TIP3   OH263340   5.646   1.263   5.699 -0.4139  0.7774 -0.2730
13950TIP3    H163341   5.594   1.292   5.623 -1.4950 -2.0439 -0.7422
13950TIP3    H263342   5.736   1.262   5.668 -0.5714  1.7614 -0.7959
13951TIP3   OH263343   1.334   2.037   5.256 -0.3496 -0.4666  0.1528
13951TIP3    H163344   1.381   2.115   5.286 -0.8531 -0.6150  1.3783
13951TIP3    H263345   1.298   1.999   5.336 -1.1011 -1.3059 -0.5702
13952TIP3   OH263346   1.917   3.385   2.588  0.0246 -0.3485 -0.3290
13952TIP3    H163347   1.940   3.408   2.498  0.5326  2.4368  0.4072
13952TIP3    H263348   1.822   3.392   2.590  0.1084  1.1982 -0.3236
13953TIP3   OH263349   4.861   5.455  14.899  1.0969 -0.6470 -0.7533
13953TIP3    H163350   4.890   5.403  14.824  0.4040 -2.9373  0.4571
13953TIP3    H263351   4.839   5.390  14.966 -1.1956  1.1800  0.4173
13954TIP3   OH263352   5.397   1.784  14.273 -0.3401 -0.1002 -0.4673
13954TIP3    H163353   5.451   1.744  14.205 -1.0302 -1.5546 -0.2170
13954TIP3    H263354   5.376   1.711  14.332 -3.3672  0.1806 -1.0759
13955TIP3   OH263355   0.634   3.900   6.443  0.5056  0.0562  0.3640
13955TIP3    H163356   0.692   3.954   6.497  0.1189 -0.6045  1.4732
13955TIP3    H263357   0.632   3.815   6.488 -1.7378  0.2125  0.6896
13956TIP3   OH263358   2.243   0.399   0.349  0.1168  0.5140  0.0591
13956TIP3    H163359   2.165   0.350   0.375  0.9902  0.2065  2.2970
13956TIP3    H263360   2.248   0.471   0.412  1.9324  0.1975  0.3245
13957TIP3   OH263361   6.155   5.174   5.704  0.0035 -0.0941 -0.2047
13957TIP3    H163362   6.178   5.266   5.694  0.5538 -0.3359 -1.3400
13957TIP3    H263363   6.239   5.127   5.699 -0.2124 -0.6280  0.8953
13958TIP3   OH263364   2.007   6.783   0.683 -0.0405  0.2828  0.1671
13958TIP3    H163365   1.987   6.725   0.609 -2.1567 -0.4195  1.2235
13958TIP3    H263366   2.082   6.835   0.652 -0.0599 -0.8351 -1.9890
13959TIP3   OH263367   5.245   4.359  17.059  0.0590 -0.3573  0.3106
13959TIP3    H163368   5.159   4.390  17.086  0.1779  0.0703  0.2016
13959TIP3    H263369   5.297   4.438  17.049  0.5515 -0.6349  0.6629
13960TIP3   OH263370   2.417   0.563   4.006 -0.5709 -0.6195  0.1467
13960TIP3    H163371   2.406   0.477   3.964 -1.6543 -0.3587 -0.1379
13960TIP3    H263372   2.428   0.543   4.099 -0.6005 -1.0781  0.0545
13961TIP3   OH263373   5.520   5.958  16.284  0.0362  0.2303  0.1145
13961TIP3    H163374   5.531   5.863  16.287 -1.8577 -0.0083  0.5019
13961TIP3    H263375   5.569   5.991  16.359 -1.3829 -0.7017  1.5034
13962TIP3   OH263376   3.501   4.407  14.434 -0.3892  0.4987 -0.2105
13962TIP3    H163377   3.532   4.401  14.524 -2.5680  1.3561  0.6727
13962TIP3    H263378   3.539   4.330  14.390  0.7260  0.0690  1.4104
13963TIP3   OH263379   4.754   3.331  11.783 -0.4394 -0.0033 -0.5819
13963TIP3    H163380   4.742   3.244  11.821 -0.6119 -0.1822 -1.0272
13963TIP3    H263381   4.832   3.323  11.728 -1.8171 -0.6120 -2.6011
13964TIP3   OH263382   0.869   4.380  12.470  0.1437  0.5771 -0.3117
13964TIP3    H163383   0.823   4.354  12.549  0.0008 -2.2756 -1.1936
13964TIP3    H263384   0.952   4.416  12.501  0.0837 -0.4542  1.1465
13965TIP3   OH263385   6.753   2.990  14.715  0.2237  0.6518  0.7436
13965TIP3    H163386   6.697   3.046  14.769  0.8489  0.8794  1.1655
13965TIP3    H263387   6.698   2.968  14.639 -1.2874 -1.1133  2.2735
13966TIP3   OH263388   6.168   2.406  13.749  0.6360 -0.2692  0.1535
13966TIP3    H163389   6.215   2.382  13.829  0.2474 -1.7414 -0.0391
13966TIP3    H263390   6.238   2.417  13.684  0.8786  0.0069  0.4507
13967TIP3   OH263391   1.784   0.861  15.520 -0.4103  0.0258 -0.3395
13967TIP3    H163392   1.860   0.915  15.498 -0.7606  0.8460  0.3823
13967TIP3    H263393   1.795   0.781  15.469  0.4978  0.4867 -0.8866
13968TIP3   OH263394   1.943   3.650   4.381  0.3288  0.5281 -0.2410
13968TIP3    H163395   1.910   3.731   4.419 -0.1436  0.2661 -0.0817
13968TIP3    H263396   2.025   3.633   4.427  1.2159  1.6915 -1.3002
13969TIP3   OH263397   6.504   0.947  16.277  0.7197  0.0288  0.5111
13969TIP3    H163398   6.414   0.945  16.245  0.9542  0.2265 -0.1708
13969TIP3    H263399   6.524   0.855  16.297  0.4602 -0.0521  0.4014
13970TIP3   OH263400   0.850   6.638   0.597 -0.0924  0.1743  0.0562
13970TIP3    H163401   0.793   6.593   0.535  0.7240  0.3911 -0.8754
13970TIP3    H263402   0.793   6.699   0.643 -0.7791 -0.2645 -0.2060
13971TIP3   OH263403   5.807   6.451   5.559  0.4363  0.2400 -0.2156
13971TIP3    H163404   5.778   6.445   5.650  0.3575 -0.0079 -0.2560
13971TIP3    H263405   5.796   6.544   5.536  0.9284  0.3969  0.1811
13972TIP3   OH263406   1.377   2.929  14.720  0.2947 -0.3376  0.2712
13972TIP3    H163407   1.411   2.856  14.772  1.1586  0.0885  0.3235
13972TIP3    H263408   1.419   3.007  14.758 -0.1603  0.1242 -0.1617
13973TIP3   OH263409   1.508   2.131   3.741 -0.2125 -0.5782  0.3146
13973TIP3    H163410   1.597   2.098   3.730  0.0336  0.1644  0.0095
13973TIP3    H263411   1.480   2.154   3.653  0.0679  1.1144  0.6228
13974TIP3   OH263412   0.624   1.650  12.821  0.1318 -0.0648  1.0053
13974TIP3    H163413   0.663   1.720  12.874 -0.2012 -0.3860  1.6865
13974TIP3    H263414   0.669   1.570  12.849 -1.7495 -0.6402  2.6672
13975TIP3   OH263415   3.035   6.686   4.675 -0.6519  0.1223 -0.1485
13975TIP3    H163416   3.085   6.766   4.688  0.3281 -0.6624  1.2486
13975TIP3    H263417   3.074   6.647   4.596  0.1596  0.1090  0.2449
13976TIP3   OH263418   5.747   0.273  11.606  0.1537  0.5938  0.2084
13976TIP3    H163419   5.840   0.288  11.592  0.4306 -0.8231  0.4535
13976TIP3    H263420   5.712   0.360  11.628  1.5940  0.9598  1.1757
13977TIP3   OH263421   3.957   2.797  15.772  0.4978 -0.5316 -0.5388
13977TIP3    H163422   4.008   2.862  15.724  1.1609 -0.7405 -0.1345
13977TIP3    H263423   4.023   2.745  15.818 -0.0565 -1.1494 -0.4343
13978TIP3   OH263424   4.825   5.284   1.887 -0.5994 -0.0788  0.0118
13978TIP3    H163425   4.913   5.310   1.916  0.3988 -1.1661 -1.8412
13978TIP3    H263426   4.827   5.296   1.792 -2.2400 -0.7796 -0.1447
13979TIP3   OH263427   3.888   4.422  14.444 -0.6251 -0.7680 -0.4820
13979TIP3    H163428   3.947   4.347  14.449 -1.7141 -1.5614  1.9969
13979TIP3    H263429   3.944   4.498  14.460  0.0682 -1.3060 -0.3062
13980TIP3   OH263430   1.387   0.717   2.839  0.1317  0.1003 -0.0321
13980TIP3    H163431   1.374   0.625   2.862 -1.7257 -0.1791 -1.8441
13980TIP3    H263432   1.480   0.733   2.855  0.9625 -2.6554 -1.3950
13981TIP3   OH263433   6.173   2.695   5.355  0.4676  0.0284  0.3651
13981TIP3    H163434   6.255   2.665   5.316  1.1796 -0.3027  2.0405
13981TIP3    H263435   6.184   2.679   5.449 -0.6786  1.9330  0.8695
13982TIP3   OH263436   1.515   5.404   1.445 -0.1297 -0.0361  0.3350
13982TIP3    H163437   1.432   5.359   1.426  0.0243 -0.7005  1.1395
13982TIP3    H263438   1.516   5.478   1.385  0.6306 -2.2952 -2.7108
13983TIP3   OH263439   6.752   6.340   1.902 -0.1164  0.1848 -0.3494
13983TIP3    H163440   6.780   6.266   1.849 -1.5738 -0.2393 -0.5656
13983TIP3    H263441   6.766   6.416   1.846 -2.0347 -0.3007 -1.5540
13984TIP3   OH263442   4.118   3.878   6.458 -0.3178  0.2721  0.0039
13984TIP3    H163443   4.142   3.790   6.428  0.0023  0.4766 -0.3560
13984TIP3    H263444   4.038   3.898   6.410  1.0046  1.2026 -1.9330
13985TIP3   OH263445   2.169   1.299  13.439  0.0796 -0.0133  0.2538
13985TIP3    H163446   2.080   1.294  13.404  0.0389 -1.3655  0.4950
13985TIP3    H263447   2.224   1.263  13.369 -0.0549 -3.2219  1.6148
13986TIP3   OH263448   1.785   3.062  14.087 -0.5337 -0.3022  0.3253
13986TIP3    H163449   1.778   3.039  13.994 -0.9188 -0.8002  0.4707
13986TIP3    H263450   1.794   3.157  14.088 -0.0747 -0.3341 -0.2434
13987TIP3   OH263451   0.702   3.317  14.537 -0.1673  0.1438  0.2518
13987TIP3    H163452   0.701   3.329  14.442 -2.7449  0.3458  0.2211
13987TIP3    H263453   0.754   3.390  14.571  1.9002 -0.6736 -1.0401
13988TIP3   OH263454   0.590   6.371  13.005 -0.5880  0.6648  0.1118
13988TIP3    H163455   0.683   6.384  12.984 -0.1753 -2.3580 -0.4049
13988TIP3    H263456   0.568   6.445  13.062  2.3301  1.1491  0.7999
13989TIP3   OH263457   4.070   0.448  12.467  0.1347 -0.2830 -0.1433
13989TIP3    H163458   4.060   0.504  12.545 -0.0014 -1.9336  1.0744
13989TIP3    H263459   4.017   0.371  12.486 -1.1945 -0.0823 -2.5753
13990TIP3   OH263460   6.560   4.557   4.019 -0.9603 -0.1322 -0.2770
13990TIP3    H163461   6.543   4.621   4.088  1.8709 -0.0494  0.4638
13990TIP3    H263462   6.547   4.472   4.061 -0.1222 -0.0690  0.1284
13991TIP3   OH263463   5.010   0.103   1.350  0.0241  0.0840  0.0564
13991TIP3    H163464   4.966   0.108   1.265 -0.6128  0.1108  0.3819
13991TIP3    H263465   5.065   0.025   1.343  1.7628  1.3536 -1.1912
13992TIP3   OH263466   0.154   3.497   4.396 -0.6057  0.6025 -0.2472
13992TIP3    H163467   0.137   3.586   4.364 -0.4004  0.9475  0.5869
13992TIP3    H263468   0.092   3.443   4.348 -0.5815  1.1602 -0.9362
13993TIP3   OH263469   0.441   6.795   3.046  0.0078 -0.3222 -0.3643
13993TIP3    H163470   0.428   6.804   2.951 -0.2471  3.3143 -0.0986
13993TIP3    H263471   0.370   6.737   3.074 -1.9535  1.1246 -2.0265
13994TIP3   OH263472   5.168   2.912  12.340  0.0524  0.0742 -0.5056
13994TIP3    H163473   5.164   2.927  12.245 -1.4325  2.4814 -0.1356
13994TIP3    H263474   5.244   2.854  12.352 -0.5782 -1.5182 -3.2666
13995TIP3   OH263475   3.684   4.683  11.003 -0.1102  0.1984 -0.3490
13995TIP3    H163476   3.677   4.604  10.949  0.3210 -0.0104 -0.1097
13995TIP3    H263477   3.679   4.755  10.941 -2.9553  0.1062 -0.3797
13996TIP3   OH263478   5.236   5.055  16.646  0.9781 -0.3043 -0.8545
13996TIP3    H163479   5.150   5.064  16.687  0.7749  0.6015 -1.4402
13996TIP3    H263480   5.264   5.145  16.629  2.5881 -0.5379  0.4032
13997TIP3   OH263481   4.560   2.854   2.207  0.3154  0.5159  0.1064
13997TIP3    H163482   4.537   2.892   2.292 -0.5097  1.5318 -0.5518
13997TIP3    H263483   4.486   2.875   2.150  1.8242  1.8173 -1.4651
13998TIP3   OH263484   2.644   4.400   2.727 -0.4517 -0.0491  0.2517
13998TIP3    H163485   2.674   4.310   2.734 -0.3532 -0.1398 -1.0878
13998TIP3    H263486   2.696   4.448   2.792  0.0635 -0.8092  0.4140
13999TIP3   OH263487   2.202   5.501  13.258  0.3639 -0.4828  0.1072
13999TIP3    H163488   2.199   5.502  13.162 -2.0317  0.0206  0.1232
13999TIP3    H263489   2.172   5.413  13.281 -0.4485 -0.1417  0.3838
14000TIP3   OH263490   6.837   2.325   0.832  0.3032 -0.0330 -0.3461
14000TIP3    H163491   6.744   2.300   0.826  0.0613  0.8302 -0.2444
14000TIP3    H263492   6.878   2.278   0.759  0.1473 -1.9469  0.7190
14001TIP3   OH263493   4.912   4.780   1.764  0.2333  0.7091  0.1470
14001TIP3    H163494   4.911   4.751   1.856  0.0714  1.7405  0.4821
14001TIP3    H263495   4.839   4.841   1.757  1.3813  2.1165 -0.1635
14002TIP3   OH263496   1.400   5.015  13.472 -0.2095  0.0323 -0.0856
14002TIP3    H163497   1.329   4.987  13.415  0.7071  0.2756 -1.3876
14002TIP3    H263498   1.384   5.108  13.488 -0.6318 -0.1056  0.3181
14003TIP3   OH263499   6.481   6.329  12.382 -0.2152  0.1956 -0.4626
14003TIP3    H163500   6.518   6.416  12.396 -1.3955  0.3746  2.1868
14003TIP3    H263501   6.387   6.342  12.396 -0.5877 -1.2558 -1.4921
14004TIP3   OH263502   1.982   6.713  11.455  0.4348  0.1177 -0.4300
14004TIP3    H163503   2.001   6.668  11.373 -0.0869  0.2520 -0.6272
14004TIP3    H263504   1.887   6.722  11.456  0.4200 -0.0891  0.3031
14005TIP3   OH263505   3.361   1.155   4.315 -0.2028 -0.4818  0.0556
14005TIP3    H163506   3.338   1.141   4.406  0.8551 -0.6259  0.3081
14005TIP3    H263507   3.277   1.156   4.269 -0.8799  1.0492  1.2137
14006TIP3   OH263508   5.350   0.393  15.160 -0.5490 -0.4879 -0.0012
14006TIP3    H163509   5.310   0.309  15.140  0.1773 -0.6033 -1.0228
14006TIP3    H263510   5.441   0.384  15.135  0.1234 -0.1571  2.1102
14007TIP3   OH263511   4.331   6.587   1.775  0.0771 -0.5971  0.0895
14007TIP3    H163512   4.359   6.496   1.786  2.2856 -0.1207 -1.0140
14007TIP3    H263513   4.404   6.639   1.809  1.5940  0.7665 -4.4832
14008TIP3   OH263514   5.751   4.103  13.143 -0.5819 -0.1310 -0.6587
14008TIP3    H163515   5.715   4.019  13.170 -0.7048  0.4814  1.2732
14008TIP3    H263516   5.684   4.141  13.087 -1.2952 -0.6114 -0.1561
14009TIP3   OH263517   5.022   2.194  13.456 -0.3049 -0.2894  0.5802
14009TIP3    H163518   4.937   2.221  13.419 -0.6411  0.1356  1.6434
14009TIP3    H263519   5.009   2.102  13.478  0.3689 -0.9950 -1.6599
14010TIP3   OH263520   2.876   0.873  13.836 -0.5597 -0.1996 -0.0434
14010TIP3    H163521   2.953   0.928  13.819  0.6292 -0.4767  3.6064
14010TIP3    H263522   2.835   0.912  13.913 -2.8708 -1.3335 -0.6082
14011TIP3   OH263523   5.378   5.438  15.766  0.7591  0.5950  0.5219
14011TIP3    H163524   5.428   5.360  15.787  1.8978  1.6615  1.9856
14011TIP3    H263525   5.424   5.478  15.692  1.2744  0.8544  0.9802
14012TIP3   OH263526   2.702   3.263  16.168 -0.8281  0.4959 -0.1854
14012TIP3    H163527   2.713   3.290  16.077 -0.6783 -1.5619 -0.8506
14012TIP3    H263528   2.636   3.193  16.163  0.5587 -0.9703  0.9796
14013TIP3   OH263529   1.763   5.657   1.377  0.6939  0.5574  0.4263
14013TIP3    H163530   1.761   5.566   1.408  0.8834  0.0192 -1.0398
14013TIP3    H263531   1.849   5.689   1.405  0.3240  0.5471  1.6180
14014TIP3   OH263532   0.934   2.555   5.994  0.6579  0.2246 -0.4038
14014TIP3    H163533   1.001   2.557   5.925  1.7175 -0.2078  0.5822
14014TIP3    H263534   0.934   2.644   6.029  0.6874  0.2400 -0.4421
14015TIP3   OH263535   1.740   3.592   5.520 -0.1442 -0.1565 -0.1941
14015TIP3    H163536   1.832   3.617   5.526 -0.2593  0.7028 -1.4907
14015TIP3    H263537   1.705   3.608   5.607  0.1696  2.8532 -0.5119
14016TIP3   OH263538   4.206   0.098   5.403  0.0397  0.1730  0.4543
14016TIP3    H163539   4.258   0.036   5.352  2.2796  0.4327  2.2260
14016TIP3    H263540   4.227   0.184   5.367 -0.4832  0.1667  0.1208
14017TIP3   OH263541   3.871   2.350   0.461 -0.7900  0.2403  0.6019
14017TIP3    H163542   3.803   2.403   0.503  0.2871  0.2774  2.3845
14017TIP3    H263543   3.924   2.414   0.412 -0.4902  0.5988  1.3767
14018TIP3   OH263544   5.928   4.130  16.216  0.2965 -0.4680  0.1740
14018TIP3    H163545   5.862   4.165  16.155  0.7971  0.0374 -0.0882
14018TIP3    H263546   5.878   4.108  16.295 -0.1029  0.5585  0.2335
14019TIP3   OH263547   4.609   1.452   4.402  0.3758  0.2546  0.1230
14019TIP3    H163548   4.643   1.489   4.484 -1.4293  0.3687  0.8667
14019TIP3    H263549   4.686   1.445   4.346  1.4696  1.2957  1.4012
14020TIP3   OH263550   4.966   6.308  11.855 -0.4076  0.4290 -0.2257
14020TIP3    H163551   4.998   6.347  11.773 -1.0403 -0.6284 -1.0048
14020TIP3    H263552   4.881   6.349  11.870  0.3639  1.7405  0.7478
14021TIP3   OH263553   4.310   5.451   5.386 -0.0787  0.0985 -0.1761
14021TIP3    H163554   4.376   5.505   5.342 -1.1709 -0.0274 -2.0775
14021TIP3    H263555   4.233   5.456   5.328 -1.9155  0.6140  2.1669
14022TIP3   OH263556   3.952   1.232   2.644 -0.2707 -0.1930  0.1123
14022TIP3    H163557   3.904   1.204   2.565  2.5949 -1.7669 -1.2263
14022TIP3    H263558   3.936   1.162   2.708 -0.1011 -0.5098 -0.1879
14023TIP3   OH263559   1.583   5.874  15.846  0.4903  0.3965  0.3301
14023TIP3    H163560   1.603   5.916  15.930 -0.9064  0.2571  0.7628
14023TIP3    H263561   1.644   5.801  15.840  0.5907  0.3966  1.2480
14024TIP3   OH263562   1.085   6.711  16.665  0.8486 -0.4162 -0.6434
14024TIP3    H163563   1.169   6.748  16.693  0.0802  3.7928 -3.1283
14024TIP3    H263564   1.095   6.697  16.571 -0.2842 -3.0498 -0.4571
14025TIP3   OH263565   5.854   0.554  15.203 -0.2927  0.1375  0.6362
14025TIP3    H163566   5.906   0.494  15.149  0.3109  2.1472 -1.1666
14025TIP3    H263567   5.767   0.553  15.163  0.2093  1.7837 -0.5863
14026TIP3   OH263568   5.086   3.089  11.969  0.1275  0.7519 -0.7133
14026TIP3    H163569   5.097   3.001  12.006  2.9356  1.0788 -0.5163
14026TIP3    H263570   5.035   3.136  12.035 -0.0223 -0.2867 -0.0526
14027TIP3   OH263571   3.392   3.668   0.876  0.1359  0.4366 -0.3711
14027TIP3    H163572   3.433   3.654   0.791  1.0126  1.6082 -0.1543
14027TIP3    H263573   3.303   3.696   0.855  0.5259  1.2972 -0.9259
14028TIP3   OH263574   4.410   5.012   4.100  0.1174 -0.1204 -0.1114
14028TIP3    H163575   4.433   4.984   4.011 -1.0888 -0.9333 -0.1927
14028TIP3    H263576   4.323   5.051   4.091 -0.6726 -1.5482  0.9161
14029TIP3   OH263577   1.260   2.114  11.958  0.3673 -0.1755  0.7702
14029TIP3    H163578   1.269   2.023  11.986 -0.9406 -1.2920 -2.0158
14029TIP3    H263579   1.331   2.127  11.896 -0.7163 -0.0591 -0.4918
14030TIP3   OH263580   4.903   5.595   5.396 -0.2453  0.2513  0.0028
14030TIP3    H163581   4.857   5.520   5.360  2.6645 -1.6365 -0.1616
14030TIP3    H263582   4.871   5.603   5.486 -2.2889  0.3829 -0.6892
14031TIP3   OH263583   1.592   4.928   1.577  0.1749  0.0993 -0.2482
14031TIP3    H163584   1.678   4.968   1.573  1.8012 -3.1342 -0.8834
14031TIP3    H263585   1.589   4.882   1.661 -0.1120 -1.3712 -1.0199
14032TIP3   OH263586   6.565   0.660   2.877  0.0441 -0.2933  0.4173
14032TIP3    H163587   6.636   0.664   2.813 -0.4548  0.9468 -0.0740
14032TIP3    H263588   6.514   0.583   2.850  1.2083 -1.2382  0.8138
14033TIP3   OH263589   6.478   5.596   3.967  0.2661  0.2341  0.4183
14033TIP3    H163590   6.386   5.621   3.974 -0.1286 -1.3215  1.5359
14033TIP3    H263591   6.497   5.550   4.050  0.9147 -2.8225 -1.2666
14034TIP3   OH263592   1.798   2.457   4.513 -0.5463 -0.7328 -0.0312
14034TIP3    H163593   1.884   2.439   4.475 -1.5958 -2.1009 -1.9590
14034TIP3    H263594   1.766   2.533   4.465  0.3352  1.1444  2.1317
14035TIP3   OH263595   4.062   6.392  12.735  0.0562  0.1617  0.7777
14035TIP3    H163596   4.088   6.336  12.661 -0.8919  0.5576  0.1196
14035TIP3    H263597   4.043   6.331  12.806 -0.2083 -0.3045  0.3117
14036TIP3   OH263598   3.780   4.197  15.213  0.6706  0.3259  0.0224
14036TIP3    H163599   3.860   4.158  15.250  0.7840  0.0260 -0.5140
14036TIP3    H263600   3.808   4.233  15.129  0.0205 -0.7825 -0.6943
14037TIP3   OH263601   4.376   5.454   0.676 -0.1072 -0.3878  0.0657
14037TIP3    H163602   4.297   5.490   0.635 -2.5750 -3.9899  1.1221
14037TIP3    H263603   4.417   5.403   0.607  1.0834  1.0059 -0.3132
14038TIP3   OH263604   3.132   0.582  16.323  0.1034  0.8548 -0.1125
14038TIP3    H163605   3.181   0.624  16.252 -1.9600  0.2857 -1.9870
14038TIP3    H263606   3.057   0.640  16.339 -0.5592 -0.0410  0.1351
14039TIP3   OH263607   2.640   3.295   0.425  0.0443 -0.4106 -0.5780
14039TIP3    H163608   2.650   3.371   0.368  0.2794 -0.0559 -0.0691
14039TIP3    H263609   2.678   3.322   0.508  0.1041 -1.0742 -0.3807
14040TIP3   OH263610   1.042   0.360  16.361  0.2780  0.6070  0.5851
14040TIP3    H163611   1.039   0.451  16.393 -1.5301 -0.1499  2.8833
14040TIP3    H263612   1.088   0.312  16.430 -1.8871 -0.7655  1.1659
14041TIP3   OH263613   4.327   0.144  16.986  0.2780  0.0987  0.0898
14041TIP3    H163614   4.319   0.081  16.915  1.0592 -0.6821  0.6713
14041TIP3    H263615   4.350   0.226  16.942  0.2357 -0.2512 -0.6042
14042TIP3   OH263616   3.688   3.158   5.332 -0.1954 -0.4640 -0.4482
14042TIP3    H163617   3.751   3.096   5.294  0.5050  0.0835 -0.2226
14042TIP3    H263618   3.678   3.129   5.423 -0.7677 -0.9333 -0.6619
14043TIP3   OH263619   0.499   6.588   5.898 -0.3776  0.2249 -0.1793
14043TIP3    H163620   0.562   6.635   5.843 -1.4957  0.8053 -0.9999
14043TIP3    H263621   0.504   6.632   5.983  0.6454 -0.0312 -0.1012
14044TIP3   OH263622   5.138   4.281  13.808  0.8723  0.4912  0.0778
14044TIP3    H163623   5.174   4.352  13.756  4.3242 -0.8021  0.4542
14044TIP3    H263624   5.099   4.221  13.744  0.5172  1.3057 -0.4798
14045TIP3   OH263625   5.894   4.613   5.612 -0.5633  0.4365  0.5711
14045TIP3    H163626   5.920   4.528   5.647  0.5198  0.5353  0.0526
14045TIP3    H263627   5.859   4.593   5.526  0.5814  0.5898  0.0508
14046TIP3   OH263628   3.546   5.565  15.852  0.2466  0.4592  0.8006
14046TIP3    H163629   3.499   5.647  15.871 -1.1492  0.3566 -1.7750
14046TIP3    H263630   3.587   5.581  15.767 -1.8075 -2.1517 -0.8114
14047TIP3   OH263631   3.124   4.377   4.100  1.0929  0.2688  0.7485
14047TIP3    H163632   3.039   4.396   4.139  1.1664  0.2257  0.9311
14047TIP3    H263633   3.169   4.323   4.165  2.2045  2.2548  1.7197
14048TIP3   OH263634   4.429   2.418  16.355 -0.4246  0.5551 -0.7583
14048TIP3    H163635   4.487   2.413  16.431 -0.1080  0.4246 -1.0034
14048TIP3    H263636   4.448   2.338  16.305 -1.9642 -0.3099 -0.0390
14049TIP3   OH263637   3.271   1.161   1.043 -0.3135  0.2628 -0.4258
14049TIP3    H163638   3.182   1.158   1.078 -0.4237  0.2685 -0.7004
14049TIP3    H263639   3.265   1.221   0.968 -0.0824  0.2523 -0.4531
14050TIP3   OH263640   6.333   2.643   3.342  0.5758  0.2132 -0.5849
14050TIP3    H163641   6.314   2.561   3.386 -3.2531  0.4672 -1.4249
14050TIP3    H263642   6.346   2.619   3.250 -3.5570  0.5535 -1.4607
14051TIP3   OH263643   0.492   5.267   1.091 -0.3664  0.0368 -0.4525
14051TIP3    H163644   0.574   5.312   1.073 -0.0217 -0.7278 -0.8344
14051TIP3    H263645   0.471   5.290   1.182  1.3768 -1.4079  0.3850
14052TIP3   OH263646   6.206   2.382   6.596  0.1248 -0.2562  0.3524
14052TIP3    H163647   6.276   2.324   6.564  0.0189  1.0535 -2.6635
14052TIP3    H263648   6.125   2.337   6.574  0.0532  0.4724 -1.0045
14053TIP3   OH263649   4.199   4.136   3.662  0.4749  0.7415  0.6804
14053TIP3    H163650   4.219   4.143   3.569  1.8355 -1.0651  0.7666
14053TIP3    H263651   4.153   4.216   3.683  1.1460  1.7163 -1.2986
14054TIP3   OH263652   4.589   1.485   1.872  0.0265  0.0338  0.0984
14054TIP3    H163653   4.519   1.541   1.839  0.9150  1.6415  0.8180
14054TIP3    H263654   4.622   1.530   1.950  0.8948 -1.4229  0.6322
14055TIP3   OH263655   5.917   5.438   6.644 -0.5590  0.1784  0.3662
14055TIP3    H163656   5.939   5.357   6.690 -1.0586 -0.7086 -0.8962
14055TIP3    H263657   5.877   5.409   6.562  2.8821  1.5721 -2.0275
14056TIP3   OH263658   6.445   0.678   4.327 -0.0565  0.1053 -0.1530
14056TIP3    H163659   6.446   0.759   4.276  0.3494 -1.1705 -2.2682
14056TIP3    H263660   6.511   0.622   4.285 -0.8072 -1.5813  0.8157
14057TIP3   OH263661   0.047   1.400  14.609  0.3041 -0.4418 -0.3011
14057TIP3    H163662   0.042   1.494  14.592 -3.1006 -0.2832  0.7713
14057TIP3    H263663   0.066   1.361  14.524  0.2366  1.1613 -1.0799
14058TIP3   OH263664   3.555   0.124   2.535 -0.7321 -0.2977  0.2682
14058TIP3    H163665   3.469   0.166   2.541 -0.5589  0.1734 -0.4654
14058TIP3    H263666   3.577   0.102   2.626 -1.7731 -0.7264  0.4245
14059TIP3   OH263667   3.391   5.403   3.092 -0.3556 -0.2876 -0.4185
14059TIP3    H163668   3.388   5.319   3.046  0.0312 -0.2345 -0.5446
14059TIP3    H263669   3.409   5.468   3.023  0.5611 -0.2460 -0.1551
14060TIP3   OH263670   0.058   2.245   5.714 -0.3005  0.2313 -0.2988
14060TIP3    H163671   0.121   2.317   5.711 -0.4299  0.3321 -0.7046
14060TIP3    H263672  -0.022   2.284   5.747 -0.5703  0.4345 -1.1643
14061TIP3   OH263673   0.670   3.102   4.391 -0.2622 -0.3357  0.6198
14061TIP3    H163674   0.696   3.013   4.414 -0.0959 -0.2225  0.8817
14061TIP3    H263675   0.617   3.093   4.312 -1.6080 -0.8351  1.5367
14062TIP3   OH263676   1.995   4.637   1.047  0.2330  0.1302 -0.0503
14062TIP3    H163677   1.983   4.665   0.957  0.2010 -0.8558 -0.3710
14062TIP3    H263678   2.034   4.550   1.039  0.5156  0.1632  0.8919
14063TIP3   OH263679   0.998   3.190  13.126  0.4291 -0.3064 -0.2544
14063TIP3    H163680   0.997   3.106  13.171  2.5100 -0.1030  0.3109
14063TIP3    H263681   0.980   3.254  13.194  2.0676 -0.1088  0.0383
14064TIP3   OH263682   0.732   6.046  16.038 -0.0144  0.3742 -0.2116
14064TIP3    H163683   0.657   6.079  16.088  0.5520 -0.0630  0.9493
14064TIP3    H263684   0.734   5.952  16.056  0.9191  0.4072 -0.0603
14065TIP3   OH263685   1.546   0.738  15.150 -0.3419 -0.4800 -0.1552
14065TIP3    H163686   1.505   0.748  15.064  0.7023 -1.0470 -0.7336
14065TIP3    H263687   1.508   0.659  15.186 -0.0921 -0.7706 -0.5129
14066TIP3   OH263688   6.774   4.789   5.029 -0.0083  0.3272 -0.2949
14066TIP3    H163689   6.679   4.798   5.033  0.0544  0.7960  0.1003
14066TIP3    H263690   6.792   4.779   4.935 -0.5128 -0.5692 -0.3139
14067TIP3   OH263691   6.554   1.866  15.084  0.0561 -0.4650 -0.0093
14067TIP3    H163692   6.585   1.816  15.008 -0.1793 -0.1054 -0.3460
14067TIP3    H263693   6.496   1.806  15.131  2.5781 -1.8171  1.6380
14068TIP3   OH263694   0.966   4.786  16.710  0.0238  0.2365  0.2376
14068TIP3    H163695   0.944   4.874  16.741 -0.7625 -0.3018  1.2652
14068TIP3    H263696   0.883   4.750  16.680  0.3214 -0.2080 -0.0550
14069TIP3   OH263697   0.684   3.297  12.272 -0.2531  0.3947  0.0684
14069TIP3    H163698   0.632   3.251  12.206  1.5043 -1.1234 -0.3528
14069TIP3    H263699   0.680   3.389  12.246 -2.2445  0.2688 -0.2369
14070TIP3   OH263700   4.693   2.709  11.421  0.2197  0.4772 -0.1803
14070TIP3    H163701   4.686   2.646  11.349 -0.0101  0.0552  0.2055
14070TIP3    H263702   4.743   2.782  11.385 -0.5307  0.6008 -0.9898
14071TIP3   OH263703   6.563   6.671  15.676 -0.0808 -0.0172 -0.2696
14071TIP3    H163704   6.593   6.588  15.639  2.2204  1.0496 -0.9675
14071TIP3    H263705   6.629   6.735  15.650 -1.5739  1.9906  0.5726
14072TIP3   OH263706   1.623   6.330  13.175 -0.2120  0.1133  0.3583
14072TIP3    H163707   1.668   6.304  13.256 -0.5919  2.1120  1.2856
14072TIP3    H263708   1.561   6.260  13.158 -1.1322  0.2661  2.6484
14073TIP3   OH263709   4.675   3.173   5.556 -0.4985 -0.2717 -0.1668
14073TIP3    H163710   4.686   3.181   5.650 -0.7484  0.8287 -0.2224
14073TIP3    H263711   4.581   3.164   5.542 -0.6105  1.1578 -0.4077
14074TIP3   OH263712   6.836   0.580  13.726 -0.2152 -0.0767 -0.7245
14074TIP3    H163713   6.846   0.487  13.703  0.8246  0.0269 -0.7408
14074TIP3    H263714   6.875   0.628  13.654  2.0108  0.2745  0.6091
14075TIP3   OH263715   3.040   5.905  12.374 -0.2187  0.5350  0.5308
14075TIP3    H163716   3.096   5.840  12.416 -0.8490  0.5865  1.4629
14075TIP3    H263717   2.963   5.912  12.430 -1.2068  0.4259 -0.7610
14076TIP3   OH263718   2.819   1.786  11.596  0.0054 -0.4037  0.3858
14076TIP3    H163719   2.806   1.727  11.669  0.1549 -2.5613 -1.2292
14076TIP3    H263720   2.815   1.730  11.518 -0.6102  1.8270 -1.3179
14077TIP3   OH263721   2.819   2.544   6.038  0.4758  0.2486  0.2784
14077TIP3    H163722   2.774   2.459   6.038  0.5990  0.1197 -2.0780
14077TIP3    H263723   2.751   2.607   6.064 -0.1094 -0.3538  0.2327
14078TIP3   OH263724   0.891   5.187  15.987 -0.2823  0.2153  0.0971
14078TIP3    H163725   0.866   5.170  15.896 -0.0607 -3.1901  0.5245
14078TIP3    H263726   0.948   5.263  15.983  0.0937 -0.1072 -2.6636
14079TIP3   OH263727   6.802   1.372   3.667 -0.2681 -0.3128  0.1128
14079TIP3    H163728   6.766   1.448   3.714  1.9101  1.1260 -0.3800
14079TIP3    H263729   6.884   1.404   3.631  0.7327 -2.9545 -0.1261
14080TIP3   OH263730   4.110   0.475   5.997 -0.6648  0.3360  0.3384
14080TIP3    H163731   4.143   0.446   5.912 -1.0150  0.5651  0.1232
14080TIP3    H263732   4.092   0.568   5.985 -2.0273  0.0784  0.2480
14081TIP3   OH263733   2.309   6.299   4.346 -0.1753 -0.5338 -0.2272
14081TIP3    H163734   2.398   6.295   4.310  0.1165 -0.4510  0.4691
14081TIP3    H263735   2.258   6.343   4.278  0.7172  1.1126  0.1076
14082TIP3   OH263736   4.898   4.402   1.127 -0.2899  0.2140 -0.3322
14082TIP3    H163737   4.980   4.386   1.174 -0.6932 -0.0551  0.2843
14082TIP3    H263738   4.902   4.495   1.104  0.1545  0.2198 -0.2377
14083TIP3   OH263739   3.583   4.147   2.871 -0.0297 -0.6580 -0.0627
14083TIP3    H163740   3.666   4.191   2.887  0.2064 -0.5833 -1.3936
14083TIP3    H263741   3.564   4.101   2.953 -0.9868  2.9640  1.9914
14084TIP3   OH263742   2.897   3.372   0.015 -0.1141 -0.0335  0.1077
14084TIP3    H163743   2.895   3.292   0.068  1.6060  0.0406  0.3541
14084TIP3    H263744   2.817   3.419   0.039 -0.9856 -1.5044  0.2077
14085TIP3   OH263745   0.039   6.603   1.441 -0.5840  0.4314  0.0964
14085TIP3    H163746  -0.033   6.540   1.437 -1.0582  0.9207  0.7469
14085TIP3    H263747   0.056   6.624   1.349 -0.2202 -0.8502 -0.1507
14086TIP3   OH263748   2.118   0.409   4.756  0.5961  0.1717 -0.5173
14086TIP3    H163749   2.110   0.403   4.661  0.3947 -0.6924 -0.4543
14086TIP3    H263750   2.211   0.390   4.773  0.4219 -0.6641 -0.4753
14087TIP3   OH263751   3.701   5.106   6.442  0.0701  0.4113 -0.0231
14087TIP3    H163752   3.656   5.074   6.365  0.7542 -1.9101  0.4569
14087TIP3    H263753   3.778   5.152   6.408 -0.0081  0.0285 -0.7273
14088TIP3   OH263754   3.353   0.776   1.318  0.6701 -0.4000  0.2042
14088TIP3    H163755   3.432   0.831   1.318  1.2008 -1.1405  0.4669
14088TIP3    H263756   3.330   0.768   1.226 -0.4055  1.6216  0.2528
14089TIP3   OH263757   3.252   3.684   6.475  0.1879  0.0519 -0.3798
14089TIP3    H163758   3.194   3.759   6.490  0.8990  0.6835 -0.7261
14089TIP3    H263759   3.196   3.618   6.434 -0.7731 -0.1199  1.1363
14090TIP3   OH263760   3.215   4.854   5.722  0.6876  0.4825 -0.3197
14090TIP3    H163761   3.212   4.842   5.817  0.3138 -0.2146 -0.4151
14090TIP3    H263762   3.302   4.823   5.697  0.5876  0.1588 -0.2709
14091TIP3   OH263763   0.361   2.852   2.691  0.7206  0.4442 -0.1452
14091TIP3    H163764   0.452   2.831   2.713  0.6016  1.8196  1.8997
14091TIP3    H263765   0.361   2.946   2.676 -0.0542  0.1897 -2.1616
14092TIP3   OH263766   0.933   1.567  12.239 -0.6287 -0.2075 -0.5355
14092TIP3    H163767   0.870   1.598  12.305 -0.5182 -0.6463 -0.2160
14092TIP3    H263768   0.984   1.501  12.285  0.2467  0.3350 -0.7144
14093TIP3   OH263769   6.738   5.546   0.015 -0.0363 -0.2215 -0.2301
14093TIP3    H163770   6.735   5.622  -0.043  0.5488 -1.2146 -1.6005
14093TIP3    H263771   6.830   5.535   0.037  0.0118 -1.1243 -0.8503
14094TIP3   OH263772   0.994   6.149  12.363  0.6009 -0.1318  0.2925
14094TIP3    H163773   1.084   6.117  12.356  0.9094  1.1137 -3.7933
14094TIP3    H263774   1.004   6.240  12.391  1.0965  1.1273 -3.4168
14095TIP3   OH263775   4.019   3.414   2.942 -0.2838 -0.3524 -0.1476
14095TIP3    H163776   3.950   3.366   2.896 -1.1315  0.6836 -0.0159
14095TIP3    H263777   3.981   3.435   3.027  1.4227 -2.6256  1.2720
14096TIP3   OH263778   2.297   1.775  15.189  0.6705  0.3167 -0.6276
14096TIP3    H163779   2.309   1.683  15.212  1.4870 -0.0885 -2.4927
14096TIP3    H263780   2.309   1.822  15.272  1.2090 -1.1826  0.1841
14097TIP3   OH263781   5.133   1.739  11.450  0.6516 -0.4445  0.2881
14097TIP3    H163782   5.193   1.690  11.505  0.2277 -0.9468  0.3093
14097TIP3    H263783   5.130   1.689  11.368  1.2449  0.2701 -0.1906
14098TIP3   OH263784   3.177   2.407  11.819  0.0217 -0.2290  0.6122
14098TIP3    H163785   3.228   2.481  11.852  1.3434 -0.9744  0.3147
14098TIP3    H263786   3.119   2.445  11.754  0.8353  0.5368  0.3077
14099TIP3   OH263787   0.805   2.013   2.650 -0.3391  0.7922  0.1685
14099TIP3    H163788   0.882   2.037   2.700  0.3291  0.7474 -0.8127
14099TIP3    H263789   0.830   2.027   2.559 -0.9705 -0.6098 -0.2600
14100TIP3   OH263790   3.364   3.025  15.654 -0.1189  0.1119 -0.0621
14100TIP3    H163791   3.426   3.015  15.726 -0.3917  0.2330  0.1909
14100TIP3    H263792   3.411   2.993  15.577  0.3941  0.5744  0.0614
14101TIP3   OH263793   6.737   5.149   4.156  0.5031  1.0902 -0.1987
14101TIP3    H163794   6.648   5.132   4.190  0.6625 -0.0104 -0.3166
14101TIP3    H263795   6.726   5.224   4.097 -0.3758  0.8725 -0.3244
14102TIP3   OH263796   2.787   0.605  14.225  0.4724  0.2120 -0.0510
14102TIP3    H163797   2.801   0.518  14.262  1.2694  0.2900 -0.1531
14102TIP3    H263798   2.706   0.636  14.265  1.8364  0.7259  2.4703
14103TIP3   OH263799   5.984   3.125  13.932 -0.5141 -0.0217 -0.5533
14103TIP3    H163800   5.920   3.065  13.970 -0.6019  0.3753 -0.0637
14103TIP3    H263801   6.065   3.105  13.978 -0.4475 -0.0390 -0.6778
14104TIP3   OH263802   0.116   6.370  12.504 -0.0653 -0.2639  0.4764
14104TIP3    H163803   0.181   6.365  12.435  0.1094 -0.6265  0.6667
14104TIP3    H263804   0.146   6.442  12.560  0.2170 -0.4852  0.6106
14105TIP3   OH263805   3.579   0.748   1.780 -0.1812  0.2291  0.0364
14105TIP3    H163806   3.570   0.842   1.766 -0.0722  0.4543  1.2894
14105TIP3    H263807   3.514   0.728   1.849  1.6268 -0.0832  1.7293
14106TIP3   OH263808   4.014   1.537   5.463  0.0189 -0.3796 -0.2594
14106TIP3    H163809   3.987   1.515   5.374 -0.3935  0.3596 -0.3239
14106TIP3    H263810   4.007   1.632   5.467 -2.5225 -0.5320  1.3557
14107TIP3   OH263811   4.603   5.663  15.885 -0.0395 -0.4977 -0.5339
14107TIP3    H163812   4.546   5.651  15.809  1.6498  1.9163 -2.3287
14107TIP3    H263813   4.683   5.616  15.863  0.0869 -0.6502  0.2345
14108TIP3   OH263814   4.550   5.407   4.224 -0.0101  0.2237 -0.0572
14108TIP3    H163815   4.578   5.425   4.314 -1.2996 -1.9679  0.8557
14108TIP3    H263816   4.583   5.319   4.205 -0.4228  0.3398 -1.4571
14109TIP3   OH263817   2.528   5.279  11.868 -0.2012  0.2285  0.6185
14109TIP3    H163818   2.490   5.343  11.808 -1.5396 -0.9889  0.1217
14109TIP3    H263819   2.550   5.204  11.814 -0.0434 -0.3160  1.4124
14110TIP3   OH263820   0.060   4.766   2.626  0.2159  0.2025  0.5244
14110TIP3    H163821   0.037   4.753   2.534  2.2403 -1.7388  0.2142
14110TIP3    H263822   0.025   4.853   2.647 -2.1646 -0.1572 -1.4187
14111TIP3   OH263823   6.823   3.528  13.024 -0.7529  0.1910 -0.4373
14111TIP3    H163824   6.858   3.489  13.104 -2.0303 -0.8301 -0.3442
14111TIP3    H263825   6.810   3.454  12.965 -0.4625  0.8506 -1.3437
14112TIP3   OH263826   3.691   4.379   6.134  0.1117  0.4672 -0.0241
14112TIP3    H163827   3.619   4.385   6.197 -0.7337  0.5876 -0.9932
14112TIP3    H263828   3.683   4.291   6.097 -0.2211  0.8833 -0.9455
14113TIP3   OH263829   2.300   4.541   4.844  0.3391  0.0816  0.1659
14113TIP3    H163830   2.234   4.548   4.913 -1.4080  1.3775 -1.5225
14113TIP3    H263831   2.270   4.602   4.776  1.6909 -1.4912 -1.9606
14114TIP3   OH263832   5.859   6.583  17.166 -0.5721 -0.3996  0.0929
14114TIP3    H163833   5.828   6.662  17.121 -3.5326 -1.0220  0.7979
14114TIP3    H263834   5.922   6.615  17.230 -1.3933  1.3605  0.0960
14115TIP3   OH263835   3.027   4.136  13.054  0.4210 -0.1248  0.1521
14115TIP3    H163836   3.039   4.180  12.970  1.5228  1.6184  1.1595
14115TIP3    H263837   2.953   4.181  13.095 -0.6921 -1.5477 -0.1909
14116TIP3   OH263838   6.158   2.573  11.986  0.1023  0.2239 -0.1834
14116TIP3    H163839   6.072   2.563  12.027  1.7191 -0.6471  3.4881
14116TIP3    H263840   6.160   2.506  11.918 -1.8831 -0.2184  0.1281
14117TIP3   OH263841   3.368   5.441   0.173  0.0968  0.2791  0.1848
14117TIP3    H163842   3.282   5.402   0.185  0.4345 -0.1534  1.2652
14117TIP3    H263843   3.365   5.479   0.085 -0.7380 -0.9092 -0.3193
14118TIP3   OH263844   5.217   1.334  16.224 -0.3668 -0.2884 -0.4020
14118TIP3    H163845   5.188   1.289  16.303  0.1127 -0.3595 -0.2643
14118TIP3    H263846   5.173   1.287  16.152 -0.8090 -0.2183 -0.1833
14119TIP3   OH263847   2.743   3.394   5.191 -0.8253 -0.2025 -1.0251
14119TIP3    H163848   2.684   3.324   5.163 -0.8926  0.7948 -3.6673
14119TIP3    H263849   2.831   3.360   5.173 -0.6090 -0.9929  1.2360
14120TIP3   OH263850   2.803   0.731   5.262 -0.2541 -0.4333 -0.4924
14120TIP3    H163851   2.719   0.744   5.304 -0.4910 -0.5708 -0.9182
14120TIP3    H263852   2.859   0.693   5.330 -0.4972 -0.2217 -0.1748
14121TIP3   OH263853   6.778   6.665  12.198 -0.3085 -0.2759  0.3832
14121TIP3    H163854   6.811   6.744  12.155 -0.9594 -0.2994 -0.1640
14121TIP3    H263855   6.791   6.595  12.134 -3.5128  0.0786 -0.8465
14122TIP3   OH263856   5.042   3.796  16.294 -0.4928 -0.6204 -0.3330
14122TIP3    H163857   5.122   3.828  16.335 -1.7334 -0.4817  2.2084
14122TIP3    H263858   5.001   3.741  16.361 -3.3260  0.6646 -0.8556
14123TIP3   OH263859   1.779   5.608  13.867  0.2806  0.2834  0.1190
14123TIP3    H163860   1.864   5.637  13.901  0.0316  0.2439  0.7940
14123TIP3    H263861   1.789   5.611  13.772  0.3099  2.5675  0.1192
14124TIP3   OH263862   4.282   3.818   2.377 -0.4030  0.3550  0.3371
14124TIP3    H163863   4.329   3.782   2.452 -0.8559  0.2737  0.5848
14124TIP3    H263864   4.294   3.753   2.308  0.0684  0.4593  0.3120
14125TIP3   OH263865   2.729   2.923  12.077 -0.4053  0.1149  0.2945
14125TIP3    H163866   2.707   3.002  12.028  1.6353  0.2924 -0.4698
14125TIP3    H263867   2.780   2.870  12.015  0.3048 -0.6950  1.5185
14126TIP3   OH263868   1.494   0.136   6.318  0.5397  0.7376 -0.0462
14126TIP3    H163869   1.564   0.079   6.286  1.1335  3.0000 -3.2796
14126TIP3    H263870   1.415   0.099   6.280  0.5135  0.4254  0.3071
14127TIP3   OH263871   1.422   5.562   2.279  0.4482  0.5286  0.2149
14127TIP3    H163872   1.397   5.634   2.220  1.5203  2.0804  1.5588
14127TIP3    H263873   1.483   5.602   2.341  0.5910 -1.4214  1.4186
14128TIP3   OH263874   5.547   5.647   5.501  0.5030 -0.4836 -0.6625
14128TIP3    H163875   5.518   5.589   5.430 -2.3555 -0.3072  0.2559
14128TIP3    H263876   5.503   5.613   5.579  3.8337 -0.8980  1.2272
14129TIP3   OH263877   5.625   6.225  17.168 -0.2341  1.0569 -0.0758
14129TIP3    H163878   5.717   6.228  17.194  0.0037  2.0265 -0.9389
14129TIP3    H263879   5.581   6.179  17.239  1.0571 -0.2746 -0.0884
14130TIP3   OH263880   0.967   5.688   5.385  0.1694 -0.0548  0.2324
14130TIP3    H163881   0.908   5.631   5.335  0.7733 -1.5059  1.1324
14130TIP3    H263882   0.915   5.767   5.402 -0.3228  0.1680 -1.9678
14131TIP3   OH263883   2.977   1.210  16.548  0.2466  0.7722 -0.8156
14131TIP3    H163884   2.931   1.273  16.493  0.2734  1.5569  0.0248
14131TIP3    H263885   3.057   1.257  16.576  0.3954  0.2770 -0.3937
14132TIP3   OH263886   4.665   1.569  16.718 -0.3189 -0.0049  0.0157
14132TIP3    H163887   4.705   1.649  16.685  0.1077  0.1683  0.9420
14132TIP3    H263888   4.727   1.534  16.781 -0.6050 -0.9511 -0.1936
14133TIP3   OH263889   6.056   0.293   5.177  0.0058 -0.1951 -0.0746
14133TIP3    H163890   6.100   0.261   5.256  0.2597  1.2695  0.4050
14133TIP3    H263891   5.974   0.332   5.208  0.3689  0.9107 -0.4420
14134TIP3   OH263892   3.157   5.412   1.213 -0.2448 -0.1059  0.0766
14134TIP3    H163893   3.140   5.319   1.194  0.9944 -0.0906 -1.2466
14134TIP3    H263894   3.206   5.410   1.295  2.3639 -0.9172 -1.3640
14135TIP3   OH263895   2.242   5.511   2.970 -0.0758  0.4544 -0.6212
14135TIP3    H163896   2.242   5.576   3.040 -1.9580  0.4489 -0.5611
14135TIP3    H263897   2.314   5.451   2.991  0.1141  1.1175  0.6599
14136TIP3   OH263898   2.281   5.855   4.226  0.3711  0.2546  0.0342
14136TIP3    H163899   2.311   5.813   4.145  0.3752 -0.3238  0.3298
14136TIP3    H263900   2.349   5.834   4.290  0.7911  1.4122 -0.0009
14137TIP3   OH263901   4.198   0.619  16.718 -0.1180 -0.0891  0.0923
14137TIP3    H163902   4.281   0.666  16.704  0.4126 -1.3406 -1.1790
14137TIP3    H263903   4.196   0.602  16.812  0.5559  0.8558  0.2988
14138TIP3   OH263904   0.734   3.006  13.827 -0.0931 -0.2787 -0.5537
14138TIP3    H163905   0.647   3.002  13.866 -0.4088  0.7641 -1.0902
14138TIP3    H263906   0.780   3.072  13.879 -0.2310  0.4821 -1.3784
14139TIP3   OH263907   5.322   6.060   1.784 -0.0446 -0.1951 -0.4522
14139TIP3    H163908   5.405   6.057   1.737 -0.0716 -3.5916 -0.5649
14139TIP3    H263909   5.346   6.037   1.874 -0.3709  3.4061  0.7068
14140TIP3   OH263910   5.391   6.760  11.287 -0.6490  0.2171  0.6712
14140TIP3    H163911   5.374   6.850  11.258  0.4255  0.0402 -0.6054
14140TIP3    H263912   5.317   6.739  11.344 -1.6640  1.4046 -0.1521
14141TIP3   OH263913   2.926   6.440  13.488  0.2273  0.0745 -0.3881
14141TIP3    H163914   2.852   6.380  13.479 -1.7357  2.3787 -0.6703
14141TIP3    H263915   2.994   6.404  13.431  0.5776 -3.7187  2.0865
14142TIP3   OH263916   5.646   5.235   3.841 -0.2396  0.9037  0.4623
14142TIP3    H163917   5.683   5.188   3.915  0.1972  1.1800  0.4244
14142TIP3    H263918   5.596   5.307   3.881 -0.3916  0.7755  0.5022
14143TIP3   OH263919   1.648   3.022   3.679 -0.0132 -0.1613 -0.0476
14143TIP3    H163920   1.727   3.019   3.626 -1.7577 -1.9300 -2.7465
14143TIP3    H263921   1.665   2.961   3.751  0.6576 -1.5101 -1.2929
14144TIP3   OH263922   0.699   6.536   1.219 -0.0341 -0.1691 -0.5178
14144TIP3    H163923   0.714   6.523   1.126  0.5723  0.2485 -0.4814
14144TIP3    H263924   0.673   6.628   1.227  1.6215  0.2834 -0.0819
14145TIP3   OH263925   2.283   2.750   1.462 -0.8144 -0.0308  0.0091
14145TIP3    H163926   2.269   2.819   1.397 -0.0769 -0.5147 -0.6747
14145TIP3    H263927   2.344   2.788   1.525  0.9081 -0.5817 -1.2541
14146TIP3   OH263928   6.328   3.820   4.776  0.0534  0.0628 -0.4891
14146TIP3    H163929   6.379   3.780   4.846 -1.4902 -0.9246  0.1325
14146TIP3    H263930   6.393   3.862   4.719  1.3630  0.6652  1.3657
14147TIP3   OH263931   1.234   2.793  12.692  0.3503  0.1251  0.1905
14147TIP3    H163932   1.162   2.737  12.720  0.3352  0.7663  1.5151
14147TIP3    H263933   1.241   2.777  12.598 -0.2602 -1.3721  0.3673
14148TIP3   OH263934   4.552   5.449  16.110 -1.0490  0.4843 -0.8441
14148TIP3    H163935   4.558   5.362  16.070 -1.6877  0.3004 -0.5621
14148TIP3    H263936   4.551   5.510  16.036  1.4501  0.4228 -1.0082
14149TIP3   OH263937   5.548   1.009   1.705 -0.4411 -0.1873  0.0825
14149TIP3    H163938   5.477   0.980   1.763 -0.0234 -0.0260  0.6839
14149TIP3    H263939   5.620   0.949   1.724 -0.4703 -0.4706 -0.6624
14150TIP3   OH263940   6.129   4.427   3.218 -0.5904 -0.4227  0.4699
14150TIP3    H163941   6.142   4.351   3.162 -0.8156 -0.1741  0.0784
14150TIP3    H263942   6.035   4.444   3.216 -0.3325  1.1080 -1.1105
14151TIP3   OH263943   5.908   6.114  16.163  0.9244  0.1861  0.0299
14151TIP3    H163944   5.950   6.028  16.167  0.7959  0.1238  0.0349
14151TIP3    H263945   5.906   6.136  16.070 -1.1135 -0.8370 -0.2110
14152TIP3   OH263946   5.435   0.231  14.882  0.5462  0.4677  0.3409
14152TIP3    H163947   5.381   0.206  14.958  0.8641  2.1725  1.1895
14152TIP3    H263948   5.525   0.222  14.913  0.6920  0.5136 -0.0698
14153TIP3   OH263949   2.950   3.058  17.108 -0.7119  0.2013  0.1005
14153TIP3    H163950   2.857   3.069  17.129 -1.0050 -0.5612 -0.7542
14153TIP3    H263951   2.982   3.147  17.095 -0.3768  0.8703  4.1487
14154TIP3   OH263952   5.407   3.868  16.998  0.0715 -0.6449  0.3693
14154TIP3    H163953   5.503   3.874  16.991  0.2392 -1.4394  1.6924
14154TIP3    H263954   5.377   3.958  16.989  0.8133 -0.5379 -1.5161
14155TIP3   OH263955   4.618   3.218   0.630  0.3058  0.3806 -0.1886
14155TIP3    H163956   4.646   3.303   0.665  0.6375  1.4963 -2.9368
14155TIP3    H263957   4.550   3.240   0.566 -0.7201 -1.6058  0.1435
14156TIP3   OH263958   3.840   3.602  13.495 -0.3143  0.0706  0.1261
14156TIP3    H163959   3.931   3.629  13.491  0.4616 -2.1654  0.9379
14156TIP3    H263960   3.826   3.580  13.588 -0.5906 -2.8468 -0.5172
14157TIP3   OH263961   3.019   6.361   5.379  0.0987  0.0466  0.5549
14157TIP3    H163962   3.024   6.287   5.440  1.4309 -0.1696  0.2095
14157TIP3    H263963   2.928   6.360   5.348 -0.2125 -0.7111  1.4516
14158TIP3   OH263964   0.710   4.498   5.001 -0.0206 -0.3836  0.3168
14158TIP3    H163965   0.784   4.559   5.002 -1.4322  1.4273  1.1180
14158TIP3    H263966   0.637   4.551   4.970 -1.3889 -1.5816  1.3871
14159TIP3   OH263967   4.865   5.931   3.493 -0.2224 -0.0927 -0.2441
14159TIP3    H163968   4.909   5.966   3.415  4.0669  0.7156  2.2415
14159TIP3    H263969   4.846   6.008   3.547 -0.6125 -0.8141  0.6677
14160TIP3   OH263970   2.707   3.442   1.750 -0.0672  0.1243 -0.3001
14160TIP3    H163971   2.752   3.358   1.750 -1.4309 -0.6387 -1.1375
14160TIP3    H263972   2.723   3.478   1.663  1.1894  1.1415  0.3185
14161TIP3   OH263973   5.820   5.499  15.125 -0.8709 -0.4090 -0.4533
14161TIP3    H163974   5.769   5.573  15.093 -0.8785 -0.2133  0.0077
14161TIP3    H263975   5.773   5.422  15.094 -1.4669 -0.2301 -0.0056
14162TIP3   OH263976   2.191   1.782  13.841  0.0232 -0.7322 -0.4658
14162TIP3    H163977   2.150   1.821  13.917 -1.8319 -0.4387 -1.5606
14162TIP3    H263978   2.200   1.689  13.863  0.9986 -0.3815  0.6945
14163TIP3   OH263979   0.151   2.510  13.087 -0.2144 -0.6106  0.4868
14163TIP3    H163980   0.243   2.520  13.064  0.2320 -2.0076  1.4928
14163TIP3    H263981   0.124   2.595  13.121  0.6423 -0.1317 -0.0340
14164TIP3   OH263982   4.566   0.849   5.847  0.2281 -0.4527  0.0343
14164TIP3    H163983   4.640   0.877   5.793  0.5288 -0.5872  0.3772
14164TIP3    H263984   4.569   0.753   5.845  1.9508 -0.5437  2.5657
14165TIP3   OH263985   4.046   2.482  14.137 -0.1087  0.1478  0.6104
14165TIP3    H163986   4.031   2.411  14.200 -2.7996  1.0228  1.0623
14165TIP3    H263987   4.004   2.558  14.176  1.4934  1.6897 -0.5380
14166TIP3   OH263988   1.393   2.136  15.098  0.2441 -0.0075  0.2923
14166TIP3    H163989   1.432   2.132  15.011 -0.2349 -1.9564  0.1026
14166TIP3    H263990   1.372   2.228  15.111  3.9068  1.0262  0.0139
14167TIP3   OH263991   6.674   3.297   1.575  0.6198 -0.6453 -0.5869
14167TIP3    H163992   6.588   3.266   1.605 -0.5048  2.3957 -0.3617
14167TIP3    H263993   6.686   3.253   1.490 -1.6979 -0.3129 -1.1656
14168TIP3   OH263994   0.967   2.260   2.555  0.2256  0.3646 -0.0364
14168TIP3    H163995   0.944   2.328   2.618 -0.2371  0.4086 -0.2485
14168TIP3    H263996   1.030   2.302   2.496 -0.7237  0.8947 -0.7038
14169TIP3   OH263997   5.972   1.993   5.865 -0.0127  0.4619  0.8063
14169TIP3    H163998   5.894   1.979   5.918 -0.0068  0.4470  0.8111
14169TIP3    H263999   5.954   2.073   5.816 -1.2664 -1.0724 -1.4184
14170TIP3   OH264000   3.609   2.552   2.709  0.7197  0.2074  0.0795
14170TIP3    H164001   3.535   2.494   2.731 -0.2971  0.8296 -1.5354
14170TIP3    H264002   3.665   2.498   2.653  0.3576  0.4004 -0.4807
14171TIP3   OH264003   5.354   1.059   1.522 -0.2402 -0.0022 -0.1661
14171TIP3    H164004   5.295   0.984   1.516  1.5081 -1.5253  0.5533
14171TIP3    H264005   5.432   1.024   1.565  0.6960  2.2241  0.0655
14172TIP3   OH264006   5.985   6.113  13.039 -0.2935  0.3436  0.5353
14172TIP3    H164007   6.020   6.202  13.041 -0.5022  0.4397  0.0779
14172TIP3    H264008   6.051   6.061  13.085  0.1503  0.6279  0.2404
14173TIP3   OH264009   1.113   2.151  13.053  0.6815  0.3135 -0.0123
14173TIP3    H164010   1.056   2.084  13.015  0.6243  0.7427 -0.6965
14173TIP3    H264011   1.072   2.173  13.136  1.3047 -1.3109  0.7814
14174TIP3   OH264012   6.552   1.685  12.077  0.2814  0.1120 -0.0446
14174TIP3    H164013   6.557   1.743  12.000  1.2750  0.9249  0.5995
14174TIP3    H264014   6.491   1.617  12.052 -0.9751  1.4649 -0.8373
14175TIP3   OH264015   4.166   5.889  14.827  0.3314  0.5682  0.0443
14175TIP3    H164016   4.117   5.955  14.875  0.4446  0.3962  0.4009
14175TIP3    H264017   4.132   5.894  14.738 -0.5629  0.2268  0.3546
14176TIP3   OH264018   1.050   2.342  12.013  0.1929 -0.3313  0.6933
14176TIP3    H164019   1.083   2.413  11.958 -0.7177 -1.1702 -1.0485
14176TIP3    H264020   1.055   2.375  12.102 -1.9194  2.6816 -0.1546
14177TIP3   OH264021   2.301   4.683  12.016  0.2299  0.0663 -0.2146
14177TIP3    H164022   2.228   4.744  12.021  0.5412  0.4997 -0.7982
14177TIP3    H264023   2.351   4.712  11.940  1.4209  0.2330  0.6124
14178TIP3   OH264024   1.754   2.146   4.501 -0.8399  0.3259  0.2951
14178TIP3    H164025   1.699   2.225   4.500 -1.1971  0.1211 -1.9653
14178TIP3    H264026   1.833   2.171   4.453  0.3469  0.1003  2.0406
14179TIP3   OH264027   0.062   3.722  14.629  0.2953  0.1986  0.6418
14179TIP3    H164028   0.029   3.795  14.576 -0.0656 -0.3620  0.0831
14179TIP3    H264029   0.058   3.646  14.571 -2.2204 -0.9086  2.1153
14180TIP3   OH264030   1.131   2.915  14.617  0.1097 -0.7309 -0.1097
14180TIP3    H164031   1.102   3.006  14.612 -0.7530 -1.0233 -0.8140
14180TIP3    H264032   1.218   2.919  14.657 -0.0309  0.3727  0.1170
14181TIP3   OH264033   0.394   2.872  13.437 -0.2824  0.3626  0.0283
14181TIP3    H164034   0.338   2.795  13.435 -0.0969  0.2403 -1.1688
14181TIP3    H264035   0.472   2.843  13.485  0.0192 -0.3842 -0.8682
14182TIP3   OH264036   5.438   2.777  13.446  0.5640 -0.4465 -0.2710
14182TIP3    H164037   5.424   2.867  13.414  0.5928 -0.5453 -0.5721
14182TIP3    H264038   5.494   2.737  13.379  0.4796 -0.7152 -0.1804
14183TIP3   OH264039   2.427   0.984   1.882  0.1967  0.0593 -0.1606
14183TIP3    H164040   2.483   0.945   1.815 -0.3845  3.5747 -3.0368
14183TIP3    H264041   2.352   1.018   1.833 -1.2470  1.1977  2.6068
14184TIP3   OH264042   4.288   2.772   0.603  0.1940 -0.2746 -0.2967
14184TIP3    H164043   4.273   2.715   0.528  0.7326  0.5283 -1.0258
14184TIP3    H264044   4.354   2.725   0.655  0.5244 -0.3897 -0.8137
14185TIP3   OH264045   2.880   0.655  13.175  0.5759 -0.1211 -0.4566
14185TIP3    H164046   2.863   0.619  13.262 -0.7979  1.4261 -0.0559
14185TIP3    H264047   2.886   0.578  13.119  0.8661 -1.1182  0.8762
14186TIP3   OH264048   6.400   4.753  13.401  0.2485 -0.0189  0.1896
14186TIP3    H164049   6.487   4.794  13.405  0.0451  0.3240  1.7667
14186TIP3    H264050   6.341   4.819  13.438 -1.0953  0.6737 -2.8825
14187TIP3   OH264051   3.610   6.250  13.797  0.3442 -0.3236 -0.0498
14187TIP3    H164052   3.653   6.202  13.726  0.4688  0.3736 -0.4562
14187TIP3    H264053   3.526   6.205  13.809 -0.0000 -0.0057 -1.1465
14188TIP3   OH264054   0.305   6.016   2.941 -0.3198  0.3659 -0.9110
14188TIP3    H164055   0.220   6.025   2.984 -1.1691  1.7341 -2.7523
14188TIP3    H264056   0.365   6.066   2.997  0.1941 -3.3161  2.3182
14189TIP3   OH264057   2.275   3.802  15.342 -0.3459  0.0608  0.1075
14189TIP3    H164058   2.192   3.754  15.341 -0.6331  0.5429 -1.1627
14189TIP3    H264059   2.342   3.735  15.333 -0.7531 -0.1369 -1.8817
14190TIP3   OH264060   1.898   5.849   3.991 -0.1823  0.1910 -0.0021
14190TIP3    H164061   1.922   5.932   3.950  0.3625  0.4635  0.8316
14190TIP3    H264062   1.939   5.782   3.937  0.1816  0.5165 -0.1336
14191TIP3   OH264063   1.956   0.041  13.661  0.0386 -0.1385 -0.4384
14191TIP3    H164064   1.931  -0.015  13.734  0.8463  0.4851  0.3426
14191TIP3    H264065   1.898   0.117  13.668  1.3784  0.8223  0.7477
14192TIP3   OH264066   6.734   5.095   1.135  0.1908 -0.0616 -0.2635
14192TIP3    H164067   6.714   5.189   1.131 -0.4238 -0.1950 -0.4563
14192TIP3    H264068   6.743   5.078   1.229  2.6876  0.6501 -0.2981
14193TIP3   OH264069   5.542   3.388  12.894 -0.1929  0.5234  0.1187
14193TIP3    H164070   5.628   3.428  12.880 -0.1804  0.2017 -0.7748
14193TIP3    H264071   5.481   3.461  12.895  0.0530  0.7279  0.4760
14194TIP3   OH264072   0.382   0.949   1.601  0.4769 -0.6582 -0.0903
14194TIP3    H164073   0.344   0.861   1.603  0.7788 -0.7799  0.2658
14194TIP3    H264074   0.351   0.986   1.518  0.4386 -1.1380 -0.2930
14195TIP3   OH264075   2.790   6.245  15.643 -0.1287 -0.2633 -0.2015
14195TIP3    H164076   2.863   6.293  15.683 -0.3436  2.6506 -2.9006
14195TIP3    H264077   2.820   6.154  15.638  0.7793 -0.3964  4.1535
14196TIP3   OH264078   2.655   2.712   4.822  0.5039  0.0513  0.1068
14196TIP3    H164079   2.687   2.790   4.777 -0.4147  0.9877  1.0186
14196TIP3    H264080   2.591   2.675   4.761  2.7346 -1.4930 -1.4537
14197TIP3   OH264081   0.448   3.920  13.286  0.5549  0.4604  0.0790
14197TIP3    H164082   0.422   3.828  13.287  1.7718  0.0954  0.0719
14197TIP3    H264083   0.375   3.965  13.245  0.2602 -0.6183 -0.6269
14198TIP3   OH264084   1.329   2.429  14.811  0.2538 -0.2603  0.1460
14198TIP3    H164085   1.312   2.348  14.764  1.0977  0.7523 -2.0435
14198TIP3    H264086   1.275   2.494  14.768  0.6100  0.6222  0.9854
14199TIP3   OH264087   4.749   3.816  11.269  0.3886 -0.0010  0.0927
14199TIP3    H164088   4.814   3.818  11.198  1.8633  0.6611  1.3894
14199TIP3    H264089   4.789   3.868  11.339 -1.6151  0.5281  0.9236
14200TIP3   OH264090   2.658   4.039  13.567  0.1539 -0.0585 -0.2490
14200TIP3    H164091   2.712   3.970  13.605 -0.1340 -0.2838 -0.2408
14200TIP3    H264092   2.569   4.004  13.569  0.1999 -0.3393 -1.6841
14201TIP3   OH264093   3.272   1.417  15.057 -0.4010 -0.2129  0.1504
14201TIP3    H164094   3.212   1.436  14.985 -0.0579 -1.2314 -0.4391
14201TIP3    H264095   3.236   1.339  15.099 -1.2286  1.0221  1.8546
14202TIP3   OH264096   2.863   6.342   1.578 -0.4033 -0.4161 -0.3507
14202TIP3    H164097   2.873   6.436   1.592 -1.1929 -0.2185 -1.0134
14202TIP3    H264098   2.844   6.334   1.485  0.3964 -1.3023 -0.4511
14203TIP3   OH264099   1.855   0.692  11.268 -0.4121  0.0325 -0.0057
14203TIP3    H164100   1.766   0.700  11.233 -0.2153  1.5237 -0.2411
14203TIP3    H264101   1.901   0.640  11.203 -1.1367 -0.8593  0.1777
14204TIP3   OH264102   3.386   4.468  12.911  0.0795  0.1299 -0.2803
14204TIP3    H164103   3.367   4.406  12.981  1.8275  1.1349  1.1824
14204TIP3    H264104   3.378   4.417  12.830 -1.2052 -1.2688  0.6806
14205TIP3   OH264105   6.173   6.571  16.286 -0.4805  0.1027  0.3142
14205TIP3    H164106   6.176   6.561  16.381 -0.2896  1.5590  0.4818
14205TIP3    H264107   6.190   6.483  16.252  0.2781 -0.2790  1.6229
14206TIP3   OH264108   5.105   0.062  17.204  0.0726  0.3597  0.1167
14206TIP3    H164109   5.093  -0.025  17.244  0.3340  0.1137 -0.3314
14206TIP3    H264110   5.179   0.100  17.252 -0.4545  0.6044  0.7532
14207TIP3   OH264111   3.123   6.462   5.673 -0.0342 -0.1197  0.4863
14207TIP3    H164112   3.178   6.408   5.617  0.1465  1.0023 -0.4633
14207TIP3    H264113   3.033   6.443   5.644  0.1048  1.2730 -1.0185
14208TIP3   OH264114   0.918   1.543  13.907 -0.2969  0.1952 -0.0193
14208TIP3    H164115   1.008   1.551  13.874 -0.7110  0.9421 -1.0082
14208TIP3    H264116   0.928   1.528  14.001  0.8308  1.5913  0.1113
14209TIP3   OH264117   6.442   4.944   4.122 -0.3617  0.3053  0.0413
14209TIP3    H164118   6.464   5.037   4.125  0.8212  0.0532 -0.2419
14209TIP3    H264119   6.413   4.930   4.031  0.1234  0.2602 -0.1083
14210TIP3   OH264120   5.302   1.969   5.547  0.0561  0.5464  0.4636
14210TIP3    H164121   5.292   2.010   5.461 -1.8197 -0.3588  0.1928
14210TIP3    H264122   5.395   1.948   5.552 -0.0585 -1.2463 -2.2794
14211TIP3   OH264123   2.873   2.005  16.421  0.5942 -0.0812 -0.2077
14211TIP3    H164124   2.794   2.017  16.369 -0.4953  0.9472  1.5483
14211TIP3    H264125   2.911   2.093  16.428  1.4601 -0.4309 -0.3811
14212TIP3   OH264126   4.885   5.219   0.691 -0.2708 -0.0455 -0.5558
14212TIP3    H164127   4.854   5.308   0.677 -0.3845  0.0373  0.1804
14212TIP3    H264128   4.971   5.230   0.733 -0.8346 -0.2719  0.6952
14213TIP3   OH264129   0.138   3.794  16.220  0.3168 -0.0498  0.0760
14213TIP3    H164130   0.174   3.773  16.134  0.2971  0.7529 -0.1318
14213TIP3    H264131   0.209   3.775  16.281  0.6186  0.1781 -0.1991
14214TIP3   OH264132   2.839   4.234   4.196 -0.9190  0.2220 -0.2136
14214TIP3    H164133   2.864   4.324   4.175 -0.6605  0.6473  1.7570
14214TIP3    H264134   2.817   4.236   4.289  0.2049 -1.9938  0.1638
14215TIP3   OH264135   4.313   6.273   2.905 -0.4255 -0.0466 -0.2736
14215TIP3    H164136   4.315   6.241   2.996  0.4205 -0.5413 -0.4531
14215TIP3    H264137   4.342   6.364   2.911  2.3804 -0.8287 -0.3047
14216TIP3   OH264138   1.559   0.769  12.220  0.8652  0.3513 -0.4221
14216TIP3    H164139   1.651   0.787  12.200  0.4368  0.9060 -2.0679
14216TIP3    H264140   1.553   0.673  12.224  1.5548  0.3215 -0.1210
14217TIP3   OH264141   0.053   3.306   4.024 -0.4146 -0.6464  0.1867
14217TIP3    H164142  -0.008   3.281   3.954  0.7426 -0.5627 -0.8967
14217TIP3    H264143   0.039   3.240   4.092  0.2129 -2.3244 -1.2201
14218TIP3   OH264144   2.454   0.091   2.507  0.0812 -0.1598 -0.1501
14218TIP3    H164145   2.478   0.082   2.415 -0.7077  0.3158 -0.4086
14218TIP3    H264146   2.394   0.018   2.523 -0.6516  0.3970 -0.3163
14219TIP3   OH264147   3.863   5.225   4.040 -0.1419 -0.1356 -0.7641
14219TIP3    H164148   3.792   5.264   3.989  0.6373  1.4412 -0.7041
14219TIP3    H264149   3.832   5.228   4.130 -0.2862 -0.0993 -0.8137
14220TIP3   OH264150   5.390   2.436   4.577  0.2253  0.0776  0.3679
14220TIP3    H164151   5.324   2.373   4.549  1.5578 -1.3738  0.3198
14220TIP3    H264152   5.344   2.519   4.583 -1.2753 -0.6181 -0.9700
14221TIP3   OH264153   5.476   2.449   0.391  0.0118  0.0043 -0.7244
14221TIP3    H164154   5.401   2.441   0.450  0.4257  2.4032  0.1991
14221TIP3    H264155   5.442   2.499   0.317  0.5284  0.4608 -0.6478
14222TIP3   OH264156   5.993   0.479   2.627 -0.2508 -0.6373  0.0168
14222TIP3    H164157   6.068   0.444   2.578 -0.8603 -0.5226 -1.0399
14222TIP3    H264158   5.955   0.403   2.669 -0.8173 -1.0795 -1.2381
14223TIP3   OH264159   4.062   0.947   3.771  0.2197 -0.8232  0.6249
14223TIP3    H164160   4.114   0.931   3.693  0.6609 -0.9984  0.9525
14223TIP3    H264161   4.000   0.874   3.774 -1.8023  0.6985 -1.1731
14224TIP3   OH264162   6.238   6.577   1.538 -0.4656 -0.0991 -0.0863
14224TIP3    H164163   6.156   6.594   1.583 -1.8245 -1.6669 -1.8038
14224TIP3    H264164   6.212   6.535   1.456  1.9435  1.1443 -1.6117
14225TIP3   OH264165   3.025   0.557  10.804  0.0998 -0.1603 -0.1202
14225TIP3    H164166   3.084   0.632  10.798  1.1248 -0.7774  1.6619
14225TIP3    H264167   3.078   0.482  10.775 -0.0073 -0.6112  0.8172
14226TIP3   OH264168   1.010   4.277  15.085  0.6389  0.2479 -0.1584
14226TIP3    H164169   0.942   4.340  15.109 -1.3872 -1.8008 -0.1756
14226TIP3    H264170   1.027   4.229  15.166  0.9208 -0.2617 -0.5115
14227TIP3   OH264171   1.477   3.403   1.996  0.4726  0.0680 -0.0374
14227TIP3    H164172   1.549   3.344   1.971 -0.0751 -0.8282  0.4532
14227TIP3    H264173   1.432   3.421   1.914  1.1224  0.4599 -0.3177
14228TIP3   OH264174   6.791   4.876  15.972 -0.0967 -0.2540 -0.3482
14228TIP3    H164175   6.797   4.783  15.993  0.5653 -0.3707 -1.0295
14228TIP3    H264176   6.778   4.879  15.877  2.9039  0.3907 -0.8215
14229TIP3   OH264177   2.679   0.764  14.923  0.1858  0.1973  0.4380
14229TIP3    H164178   2.671   0.677  14.885  2.0721  0.0272  0.3504
14229TIP3    H264179   2.661   0.751  15.017 -1.7423  0.1502  0.1138
14230TIP3   OH264180   2.119   1.029   1.284  0.4130  0.2978  0.6263
14230TIP3    H164181   2.053   0.990   1.227  0.3185  1.5060 -0.1514
14230TIP3    H264182   2.192   0.967   1.282 -0.9321 -1.4317  2.1161
14231TIP3   OH264183   5.032   1.931  12.086 -0.5537 -0.2216 -0.5477
14231TIP3    H164184   5.001   1.841  12.099  0.2031 -0.3356  0.6961
14231TIP3    H264185   4.957   1.986  12.108 -0.8943 -0.5341 -0.9117
14232TIP3   OH264186   2.740   1.555  16.696  0.4923  0.2721 -0.2384
14232TIP3    H164187   2.743   1.625  16.761 -2.1264  0.8678 -0.6720
14232TIP3    H264188   2.668   1.499  16.722 -1.0754  0.8732 -2.8559
14233TIP3   OH264189   1.892   2.724  12.305 -0.0891 -0.0423 -0.2554
14233TIP3    H164190   1.986   2.722  12.290  0.1717  1.6794  0.7984
14233TIP3    H264191   1.877   2.658  12.374  0.7610  1.3172  1.2956
14234TIP3   OH264192   6.262   3.146  11.012  0.0268  0.1846  0.2098
14234TIP3    H164193   6.255   3.054  10.985  0.3150  0.5565 -1.2377
14234TIP3    H264194   6.172   3.174  11.029  0.0570 -0.8139  2.4183
14235TIP3   OH264195   5.844   5.963  16.933 -0.0611 -0.1562 -0.3289
14235TIP3    H164196   5.766   5.918  16.901 -0.6683  1.1607 -0.7775
14235TIP3    H264197   5.855   6.037  16.874  0.2194  0.9573  1.0710
14236TIP3   OH264198   5.517   4.964  11.523 -0.4217 -0.4111 -0.5616
14236TIP3    H164199   5.497   5.046  11.567  0.1600 -0.3730 -0.3630
14236TIP3    H264200   5.573   4.990  11.449  2.5225 -0.9138  1.3408
14237TIP3   OH264201   6.377   5.969  11.709  0.5273  0.6278 -0.7495
14237TIP3    H164202   6.306   6.028  11.734  0.6110  1.5179 -2.4702
14237TIP3    H264203   6.336   5.903  11.654  0.7340  0.0301 -0.2061
14238TIP3   OH264204   4.333   5.357   4.072  0.1436 -0.6666 -0.1254
14238TIP3    H164205   4.281   5.282   4.102  0.7573 -1.7004 -1.5208
14238TIP3    H264206   4.396   5.372   4.143  1.3795 -2.8604 -0.6586
14239TIP3   OH264207   4.007   2.259   3.005  0.2417 -0.6196  0.0879
14239TIP3    H164208   4.101   2.273   2.993  0.1861 -0.1078  0.2359
14239TIP3    H264209   3.989   2.285   3.095  0.0763 -1.3714  0.2797
14240TIP3   OH264210   1.415   5.508  11.388  0.1429 -0.1445  0.2745
14240TIP3    H164211   1.439   5.527  11.298  0.3001 -0.4582  0.2469
14240TIP3    H264212   1.386   5.592  11.424  1.2998  0.2509  0.3120
14241TIP3   OH264213   3.699   4.532  15.638 -0.0766 -0.2557 -0.1313
14241TIP3    H164214   3.779   4.574  15.668  0.2307 -0.1846 -1.0108
14241TIP3    H264215   3.658   4.598  15.581 -1.1079 -0.0280  0.8354
14242TIP3   OH264216   1.765   1.135   0.804  0.2786  0.0101 -0.0401
14242TIP3    H164217   1.695   1.080   0.838  0.2311 -1.2308 -1.9766
14242TIP3    H264218   1.829   1.073   0.769  1.1672  1.1647 -0.5261
14243TIP3   OH264219   3.630   2.555   6.192 -0.1926 -0.1635 -0.2919
14243TIP3    H164220   3.590   2.469   6.178 -0.4622  0.2665 -2.4051
14243TIP3    H264221   3.588   2.588   6.272 -1.7805 -1.0433 -0.7258
14244TIP3   OH264222   1.871   3.116   4.308  0.0491 -0.5944  0.8244
14244TIP3    H164223   1.962   3.119   4.277 -0.1220 -0.8351  0.2892
14244TIP3    H264224   1.844   3.207   4.309 -1.2107 -0.6817 -3.6311
14245TIP3   OH264225   0.691   3.096  13.027  0.5101 -0.5240 -0.3299
14245TIP3    H164226   0.654   3.009  13.010  1.0070 -0.7678 -0.1794
14245TIP3    H264227   0.693   3.103  13.123 -0.3769  0.0262 -0.3365
14246TIP3   OH264228   1.536   5.379   0.954 -0.1443 -0.4670  0.0521
14246TIP3    H164229   1.569   5.307   1.008 -0.8309  0.2196  1.4683
14246TIP3    H264230   1.446   5.354   0.934 -0.7014  0.3547  1.3360
14247TIP3   OH264231   0.129   4.239   0.160  0.1355  0.4001 -0.3062
14247TIP3    H164232   0.059   4.301   0.141 -2.1411 -1.4901  1.3142
14247TIP3    H264233   0.191   4.289   0.214 -1.2439  1.4740  0.3531
14248TIP3   OH264234   3.505   5.600   5.162  0.1446  0.6254  0.0299
14248TIP3    H164235   3.488   5.569   5.251 -0.2423 -0.0216 -0.2614
14248TIP3    H264236   3.418   5.605   5.122  0.3683  0.3001 -0.5068
14249TIP3   OH264237   2.341   4.478  14.798 -0.7706  0.1685 -0.0597
14249TIP3    H164238   2.404   4.415  14.764 -1.7105 -0.7170 -0.2355
14249TIP3    H264239   2.337   4.462  14.892 -0.9968 -0.0325 -0.1018
14250TIP3   OH264240   1.151   6.590  10.809 -0.5089  0.3043 -0.1175
14250TIP3    H164241   1.231   6.636  10.783 -0.8896  1.7811  1.2137
14250TIP3    H264242   1.112   6.561  10.726  0.6579  0.8296 -0.8657
14251TIP3   OH264243   3.602   6.693  13.098  0.0848 -0.0627 -0.0007
14251TIP3    H164244   3.525   6.741  13.066  1.4951  1.4427 -1.3286
14251TIP3    H264245   3.634   6.646  13.021  1.5873  0.8874  0.0120
14252TIP3   OH264246   0.017   2.000   5.575  0.2310  0.1625  0.1528
14252TIP3    H164247  -0.071   1.989   5.537  1.0878  0.7808 -2.1796
14252TIP3    H264248   0.021   2.093   5.598  0.7681  0.5159 -1.2372
14253TIP3   OH264249   1.916   2.505  12.115 -0.3286 -0.0322 -0.0176
14253TIP3    H164250   1.919   2.413  12.090 -1.1879 -0.4491  1.3142
14253TIP3    H264251   2.007   2.527  12.137  0.0661 -0.2404 -1.3606
14254TIP3   OH264252   1.934   6.204   2.919  0.1054 -0.0603  0.5572
14254TIP3    H164253   1.960   6.295   2.903  0.5954 -0.1838  0.6413
14254TIP3    H264254   1.912   6.169   2.832 -1.0393  0.4175  0.6304
14255TIP3   OH264255   1.724   2.584   5.616 -0.4859 -0.8972 -0.1234
14255TIP3    H164256   1.773   2.568   5.536 -0.1968 -1.5053  0.1775
14255TIP3    H264257   1.790   2.609   5.681 -0.6455 -1.0593  0.1034
14256TIP3   OH264258   3.879   1.897  11.908  0.3066  0.1802 -0.2402
14256TIP3    H164259   3.870   1.926  11.999  1.2157 -1.2048  0.3146
14256TIP3    H264260   3.907   1.976  11.861 -1.0463  1.1356  0.4839
14257TIP3   OH264261   5.979   5.150  14.736 -0.4161  0.0652 -0.3338
14257TIP3    H164262   5.981   5.218  14.669  1.3047  0.1049 -0.2900
14257TIP3    H264263   5.897   5.164  14.783 -1.2590  0.5541 -1.8844
14258TIP3   OH264264   6.469   4.290   2.331 -0.3349 -0.1098  0.0645
14258TIP3    H164265   6.494   4.201   2.307 -1.1983 -0.6233  1.0131
14258TIP3    H264266   6.388   4.280   2.380 -0.0161  1.1279  0.8937
14259TIP3   OH264267   2.606   5.446   4.994 -0.3340  0.0543 -0.1729
14259TIP3    H164268   2.652   5.508   4.938 -1.1358  0.1597 -0.7245
14259TIP3    H264269   2.528   5.422   4.945 -0.5596 -0.5999  0.4828
14260TIP3   OH264270   5.760   2.979   4.078 -0.4000 -0.3189  0.0040
14260TIP3    H164271   5.762   3.058   4.132 -1.4977 -1.7415  2.2656
14260TIP3    H264272   5.681   2.990   4.024  0.0823  0.5899 -0.5653
14261TIP3   OH264273   3.075   0.186   1.501 -0.2001 -0.1733  0.0953
14261TIP3    H164274   2.996   0.230   1.468  0.0339 -0.1582 -0.4579
14261TIP3    H264275   3.089   0.223   1.588 -1.8894 -1.5425  1.0121
14262TIP3   OH264276   1.841   5.482   3.993  0.2614 -0.4934 -0.0116
14262TIP3    H164277   1.791   5.407   4.025 -0.6017 -1.0095 -2.3723
14262TIP3    H264278   1.806   5.557   4.041  0.1064 -1.3863  1.3056
14263TIP3   OH264279   4.744   6.010   0.916 -0.1392 -0.5293 -0.4694
14263TIP3    H164280   4.743   5.920   0.950  3.8892 -0.2686  0.8838
14263TIP3    H264281   4.764   6.000   0.823 -2.1359 -1.0186 -0.8875
14264TIP3   OH264282   4.693   3.287   1.068  0.1843 -0.0355  0.7358
14264TIP3    H164283   4.633   3.212   1.067 -0.1016  0.1108 -1.7769
14264TIP3    H264284   4.646   3.355   1.019  2.6992 -0.2563 -2.2936
14265TIP3   OH264285   0.711   1.538  11.912  0.0710 -0.2462  0.2784
14265TIP3    H164286   0.800   1.553  11.880 -0.4557 -0.5003 -1.3927
14265TIP3    H264287   0.678   1.626  11.931  0.6712 -0.1491  0.9005
14266TIP3   OH264288   1.609   6.394   5.520 -0.3578 -0.1911 -0.5285
14266TIP3    H164289   1.625   6.329   5.589  0.2704  0.0009 -0.4875
14266TIP3    H264290   1.583   6.473   5.567  0.1869 -0.0255 -0.5027
14267TIP3   OH264291   1.059   1.865  16.423 -0.0003  0.0807  0.4318
14267TIP3    H164292   1.002   1.804  16.376  0.4389 -0.3182  0.4047
14267TIP3    H264293   1.054   1.838  16.514  0.2198 -0.0217  0.4158
14268TIP3   OH264294   4.798   3.565   2.334  0.0886  0.1789  0.4703
14268TIP3    H164295   4.765   3.500   2.272  1.6870  0.9010 -1.2532
14268TIP3    H264296   4.854   3.621   2.281  0.6095  1.5517  2.3833
14269TIP3   OH264297   4.164   5.327   2.331 -0.5635 -0.4805  0.2752
14269TIP3    H164298   4.081   5.337   2.286 -0.8874 -1.3722  0.6603
14269TIP3    H264299   4.224   5.294   2.265 -0.4175  0.4538 -0.0816
14270TIP3   OH264300   6.319   3.243  10.369 -0.8088  0.0192 -0.4009
14270TIP3    H164301   6.396   3.188  10.354  0.1566  0.3358  2.7306
14270TIP3    H264302   6.245   3.182  10.362 -0.1334 -0.7491 -1.2129
14271TIP3   OH264303   3.709   1.547   4.819 -0.2198 -0.1603  0.2079
14271TIP3    H164304   3.762   1.499   4.884  0.5984  1.9177  1.1612
14271TIP3    H264305   3.632   1.575   4.868 -0.4725 -0.1033 -0.2188
14272TIP3   OH264306   2.402   3.954   2.397  0.2303 -0.4322  0.1776
14272TIP3    H164307   2.372   3.887   2.458 -1.4858 -0.3466 -0.5053
14272TIP3    H264308   2.396   4.036   2.446 -2.1053 -0.2315 -0.3289
14273TIP3   OH264309   4.218   1.497  11.548  0.3541  0.6486  0.3347
14273TIP3    H164310   4.184   1.465  11.464  0.6142  2.7200 -0.6323
14273TIP3    H264311   4.226   1.419  11.602  1.8407 -1.0514 -2.1211
14274TIP3   OH264312   6.483   6.366  15.059  0.5457 -0.2244  0.0944
14274TIP3    H164313   6.570   6.393  15.086 -0.6324  0.8432  3.2343
14274TIP3    H264314   6.463   6.289  15.112 -0.6453 -0.0941 -0.1269
14275TIP3   OH264315   1.014   3.527  15.543  0.3714  0.3269 -0.8670
14275TIP3    H164316   1.103   3.540  15.576  0.3048 -1.3268  0.0758
14275TIP3    H264317   0.982   3.449  15.589 -1.6685  1.0243 -1.0010
14276TIP3   OH264318   0.157   3.319   1.260  0.4472 -0.5641 -0.0355
14276TIP3    H164319   0.111   3.323   1.344 -1.4775 -1.1158 -1.0011
14276TIP3    H264320   0.244   3.356   1.278 -1.0065  2.4750  1.4561
14277TIP3   OH264321   6.442   1.954   2.269  0.3965  1.0384  0.0969
14277TIP3    H164322   6.497   1.931   2.194 -0.3055  3.1831 -1.1651
14277TIP3    H264323   6.408   1.870   2.300  0.0689  0.1016 -2.5130
14278TIP3   OH264324   4.954   3.127   0.685  0.2673  0.3003 -0.2801
14278TIP3    H164325   4.953   3.218   0.656  0.3046 -0.3195 -2.3631
14278TIP3    H264326   4.924   3.077   0.609  2.5027 -1.6436  0.0108
14279TIP3   OH264327   5.182   2.585   6.630  0.0393  0.2823 -0.3699
14279TIP3    H164328   5.248   2.599   6.698 -0.7515  1.5259  0.1920
14279TIP3    H264329   5.194   2.494   6.603  1.1607  0.1164  0.5892
14280TIP3   OH264330   6.742   6.760  14.790  0.2303  0.2007  0.1582
14280TIP3    H164331   6.753   6.765  14.695 -0.5844 -0.6438  0.0072
14280TIP3    H264332   6.832   6.758  14.824  0.5522  1.8357 -0.4870
14281TIP3   OH264333   0.603   4.762   0.188 -0.2389  0.6231 -0.1580
14281TIP3    H164334   0.694   4.793   0.191 -0.1944  0.4523  0.3893
14281TIP3    H264335   0.572   4.770   0.278  0.4461 -2.8755  0.5113
14282TIP3   OH264336   3.594   3.701  15.754  0.1256  0.0195  0.0848
14282TIP3    H164337   3.527   3.662  15.810  0.4379 -1.1606 -0.3331
14282TIP3    H264338   3.582   3.660  15.669  0.5833  0.7289 -0.3405
14283TIP3   OH264339   0.865   1.717  15.987 -0.2104  0.0767  0.1114
14283TIP3    H164340   0.906   1.725  16.073  1.6215 -0.2390 -0.6875
14283TIP3    H264341   0.891   1.630  15.956 -3.7086 -1.3552  0.6029
14284TIP3   OH264342   5.343   2.968   1.318 -0.0174 -0.0462 -0.9473
14284TIP3    H164343   5.259   2.924   1.328 -0.4092  1.0955  1.2608
14284TIP3    H264344   5.388   2.954   1.401  1.7924 -0.2005 -1.9048
14285TIP3   OH264345   0.163   2.785  11.561 -0.9814 -0.8524 -0.5989
14285TIP3    H164346   0.255   2.806  11.546 -1.1902 -0.0946 -0.8515
14285TIP3    H264347   0.123   2.794  11.474 -1.1826 -1.7822 -0.6110
14286TIP3   OH264348   5.873   6.451   6.439 -1.3475  0.1564 -0.1246
14286TIP3    H164349   5.949   6.438   6.496  0.4288  0.1280 -2.3715
14286TIP3    H264350   5.813   6.503   6.491  1.2329  2.2727  0.9685
14287TIP3   OH264351   5.422   1.302   1.668  0.3596 -0.2575  0.7015
14287TIP3    H164352   5.456   1.339   1.750 -1.3770  0.1994  1.2593
14287TIP3    H264353   5.444   1.209   1.674 -0.7843 -0.4820  2.3120
14288TIP3   OH264354   4.347   3.046  16.756 -0.1166  0.0078  0.2615
14288TIP3    H164355   4.293   3.057  16.678  0.0482  0.6695  0.2340
14288TIP3    H264356   4.338   3.129  16.803 -0.0853 -0.3264  0.8649
14289TIP3   OH264357   1.656   5.427  15.978  0.3240  0.0904 -0.3254
14289TIP3    H164358   1.579   5.417  15.922  0.9898 -0.0285 -1.2472
14289TIP3    H264359   1.644   5.362  16.047 -1.2153  1.1997  0.5254
14290TIP3   OH264360   5.173   1.428   4.173 -0.5456 -0.7264  0.0995
14290TIP3    H164361   5.249   1.381   4.138  0.0505 -1.1236  1.8294
14290TIP3    H264362   5.210   1.504   4.217 -1.0983 -1.0504  1.1767
14291TIP3   OH264363   2.997   1.781   0.577 -0.0527 -0.5439  0.1585
14291TIP3    H164364   2.925   1.839   0.600  0.7468 -0.2581  2.2152
14291TIP3    H264365   3.072   1.816   0.624  0.8002 -2.3769  0.2691
14292TIP3   OH264366   3.281   5.960  11.257  0.0971 -0.1668  0.1080
14292TIP3    H164367   3.346   5.917  11.313  0.7854  0.2793 -0.3303
14292TIP3    H264368   3.296   6.053  11.270 -0.8770 -0.0468  0.4624
14293TIP3   OH264369   0.848   5.237   4.054  0.0631  0.2602 -0.0316
14293TIP3    H164370   0.811   5.209   3.971 -3.8797  1.9976  0.8870
14293TIP3    H264371   0.824   5.330   4.061  1.4026  0.5150  2.5050
14294TIP3   OH264372   6.304   0.023   2.375  0.0576  0.1376  0.0573
14294TIP3    H164373   6.230   0.069   2.336  0.6545  1.2779  0.2345
14294TIP3    H264374   6.382   0.069   2.343  0.6878 -0.8669  0.0920
14295TIP3   OH264375   6.349   5.149  12.032 -0.9344  0.2031 -0.1684
14295TIP3    H164376   6.276   5.092  12.007  1.0810 -2.9054  0.5020
14295TIP3    H264377   6.347   5.150  12.127 -1.3743  2.0189 -0.1485
14296TIP3   OH264378   0.797   4.457  15.114  0.0208 -0.0946 -0.5620
14296TIP3    H164379   0.785   4.517  15.041 -0.8377 -0.6845 -0.9170
14296TIP3    H264380   0.708   4.440  15.146  0.4196  0.7195  1.0813
14297TIP3   OH264381   4.347   3.712  17.084 -0.5350  0.2012 -0.3393
14297TIP3    H164382   4.278   3.764  17.041 -1.4239 -1.4636 -1.0440
14297TIP3    H264383   4.403   3.683  17.013 -0.5699 -0.5288 -0.0779
14298TIP3   OH264384   3.138   4.224   0.122  0.8755  0.4315 -0.0361
14298TIP3    H164385   3.057   4.267   0.151  0.3061 -0.7416  0.1899
14298TIP3    H264386   3.126   4.213   0.028  1.4533  1.6377 -0.2575
14299TIP3   OH264387   1.700   5.542   5.666  0.4705 -0.1437  0.2192
14299TIP3    H164388   1.742   5.613   5.619  1.0678  0.1506  1.1797
14299TIP3    H264389   1.674   5.580   5.749 -0.4504 -0.6959  0.1986
14300TIP3   OH264390   5.719   1.715   2.146 -0.2598  0.2246 -0.1344
14300TIP3    H164391   5.654   1.752   2.086 -0.5051  0.7806  0.4587
14300TIP3    H264392   5.708   1.621   2.139  0.5918  0.2071 -1.9403
14301TIP3   OH264393   2.613   6.558  11.862 -0.2006  0.0586  0.0690
14301TIP3    H164394   2.578   6.591  11.779  0.6784  0.1037 -0.2949
14301TIP3    H264395   2.615   6.463  11.851 -2.3003 -0.1242  0.9449
14302TIP3   OH264396   0.957   2.041   4.369  0.2778 -0.2797  0.7931
14302TIP3    H164397   1.038   1.991   4.375  1.3882  1.5753  2.0735
14302TIP3    H264398   0.977   2.112   4.307  0.0583  0.8843  2.0093
14303TIP3   OH264399   5.703   5.085   4.070 -0.3294 -0.0573  0.3513
14303TIP3    H164400   5.705   4.993   4.099  0.2506  0.5408  2.3840
14303TIP3    H264401   5.637   5.126   4.125  1.3248  1.2935  1.4492
14304TIP3   OH264402   2.206   6.555   5.076 -0.2112  0.2601  0.2521
14304TIP3    H164403   2.219   6.572   5.170 -1.3272 -0.3860  0.5372
14304TIP3    H264404   2.168   6.467   5.073 -0.4069  0.3757 -0.7959
14305TIP3   OH264405   5.255   4.213  15.238 -0.0704 -0.3916  0.5738
14305TIP3    H164406   5.269   4.149  15.307 -1.5849 -0.0617  1.2223
14305TIP3    H264407   5.245   4.161  15.158  1.8033 -0.7671  0.5418
14306TIP3   OH264408   2.473   6.267  13.361 -0.7146  0.2476  0.1455
14306TIP3    H164409   2.417   6.191  13.371 -0.7390  0.3166  0.5556
14306TIP3    H264410   2.469   6.289  13.268 -0.7372 -0.2277  0.0354
14307TIP3   OH264411   4.954   3.792  12.057  0.5069  0.6325 -0.2167
14307TIP3    H164412   5.031   3.846  12.075  0.5400  0.3237  0.5973
14307TIP3    H264413   4.989   3.716  12.010  0.7044  0.5071  0.1243
14308TIP3   OH264414   1.836   3.498  12.125  0.5189  0.2959 -0.4387
14308TIP3    H164415   1.842   3.517  12.031  0.8674 -0.9569 -0.6877
14308TIP3    H264416   1.794   3.575  12.162  0.4541  0.8518 -1.6127
14309TIP3   OH264417   6.817   6.759   5.286 -0.6059 -0.7009 -0.2139
14309TIP3    H164418   6.830   6.665   5.275  0.6043 -0.5828  0.0937
14309TIP3    H264419   6.771   6.787   5.206 -0.5095 -1.4601 -0.5374
14310TIP3   OH264420   3.358   3.205  13.420  0.1818 -0.3127 -0.0931
14310TIP3    H164421   3.372   3.265  13.494  0.0474 -0.1478 -0.2023
14310TIP3    H264422   3.445   3.168  13.403  0.1486 -0.6160  0.3731
14311TIP3   OH264423   4.619   3.888  13.226  0.3318  0.4636 -0.5349
14311TIP3    H164424   4.533   3.896  13.186  0.0095  1.8676  0.3599
14311TIP3    H264425   4.615   3.807  13.276  0.0675 -0.2605 -1.6872
14312TIP3   OH264426   0.196   1.053  15.998  0.3387 -0.8430 -0.2020
14312TIP3    H164427   0.155   0.974  15.962 -1.5797 -0.5894  1.2933
14312TIP3    H264428   0.282   1.056  15.957 -0.5620 -2.2355 -2.3601
14313TIP3   OH264429   2.198   6.561   0.271  0.1945 -0.2187  0.2671
14313TIP3    H164430   2.121   6.592   0.223 -1.8530  0.2074  3.5575
14313TIP3    H264431   2.272   6.585   0.215 -1.9299  0.6289 -2.4048
14314TIP3   OH264432   2.384   0.347  13.971 -0.5041  0.2192 -0.1754
14314TIP3    H164433   2.373   0.437  14.001  0.9264 -0.4534  2.7371
14314TIP3    H264434   2.477   0.329  13.984 -0.7854 -1.7351 -0.5906
14315TIP3   OH264435   6.693   2.514   5.256  0.4706  0.1566  0.0645
14315TIP3    H164436   6.780   2.475   5.243  1.5975  2.4988  0.1185
14315TIP3    H264437   6.686   2.580   5.188 -1.7730 -0.6707 -0.6075
14316TIP3   OH264438   6.840   6.606   2.903  0.0983  0.0700 -0.0479
14316TIP3    H164439   6.796   6.621   2.819  0.4044  0.0292 -0.2184
14316TIP3    H264440   6.793   6.661   2.966 -1.8651 -1.8671  0.3077
14317TIP3   OH264441   0.418   5.261   4.620  0.1267  1.2737 -0.2589
14317TIP3    H164442   0.424   5.249   4.526 -1.5360  0.8438 -0.3355
14317TIP3    H264443   0.507   5.286   4.647  0.6781  1.1513 -1.8825
14318TIP3   OH264444   6.555   3.414   0.335  0.4792 -0.0699  0.0137
14318TIP3    H164445   6.644   3.389   0.312  0.5029 -0.5167  0.5761
14318TIP3    H264446   6.565   3.484   0.399  0.4787 -1.7644  1.9508
14319TIP3   OH264447   4.261   3.391  12.815  0.5624 -0.5858  0.1765
14319TIP3    H164448   4.260   3.446  12.893  1.2946 -0.5408  0.1682
14319TIP3    H264449   4.219   3.444  12.748  2.7684  0.7319 -0.2859
14320TIP3   OH264450   5.320   1.654  11.997  0.2364  0.0027 -0.0951
14320TIP3    H164451   5.228   1.628  12.010  0.4397 -1.1735 -0.8472
14320TIP3    H264452   5.314   1.742  11.960 -0.5391  0.4229  0.9593
14321TIP3   OH264453   2.733   1.022  14.025 -0.4829 -0.6637 -0.2937
14321TIP3    H164454   2.757   1.026  14.118 -2.3662  0.7591  0.1858
14321TIP3    H264455   2.641   0.995  14.025  0.2680 -3.7643 -1.9451
14322TIP3   OH264456   2.280   6.403   5.378  0.2492 -0.1055 -0.0717
14322TIP3    H164457   2.226   6.416   5.455 -0.8314 -0.7308 -0.6939
14322TIP3    H264458   2.241   6.327   5.333  1.5630 -0.4995 -0.6148
14323TIP3   OH264459   2.910   4.111  13.402  0.0912 -0.2070  0.3759
14323TIP3    H164460   2.845   4.155  13.346  0.3485 -0.1855  0.0889
14323TIP3    H264461   2.860   4.047  13.451 -0.3912  0.7685  1.2025
14324TIP3   OH264462   3.749   6.031  11.341 -0.7897  0.0548 -0.3229
14324TIP3    H164463   3.711   5.952  11.301 -1.9156 -0.3995  1.5437
14324TIP3    H264464   3.785   6.080  11.267 -0.1944 -2.1155 -1.5773
14325TIP3   OH264465   1.258   0.128   0.144 -0.7369  0.0712 -0.0948
14325TIP3    H164466   1.275   0.158   0.234 -0.7720 -0.6051  0.1405
14325TIP3    H264467   1.287   0.201   0.089  2.2127 -0.6990  0.2965
14326TIP3   OH264468   5.048   1.772  16.765  0.4826  0.1138 -0.1598
14326TIP3    H164469   5.044   1.751  16.672 -2.2464 -1.6541  0.2291
14326TIP3    H264470   5.091   1.696  16.805 -0.3443 -0.1654  0.2218
14327TIP3   OH264471   5.427   1.130  15.974 -0.0160  0.0014  0.0198
14327TIP3    H164472   5.347   1.144  15.922  0.0001 -0.2880 -0.0873
14327TIP3    H264473   5.439   1.211  16.022 -0.3315  0.0787 -0.0288
14328TIP3   OH264474   2.665   1.335   6.316  0.4524 -0.1363 -0.3858
14328TIP3    H164475   2.575   1.304   6.304  0.8748 -1.6830  0.1335
14328TIP3    H264476   2.675   1.406   6.254 -1.8820  1.7418  1.2274
14329TIP3   OH264477   4.733   3.265  17.014 -0.5525 -0.0430  0.4743
14329TIP3    H164478   4.739   3.359  17.028 -1.3188  0.3450 -1.5287
14329TIP3    H264479   4.670   3.254  16.943  1.8839 -1.8301 -1.6310
14330TIP3   OH264480   6.176   0.773  16.863  0.2436 -0.3269 -0.2898
14330TIP3    H164481   6.151   0.718  16.789  0.0158 -1.8109  0.8545
14330TIP3    H264482   6.133   0.734  16.938 -0.8386  2.0706  0.4493
14331TIP3   OH264483   1.292   3.879  16.938  0.0870  0.0119  0.5582
14331TIP3    H164484   1.370   3.924  16.969  0.7830 -0.7924  0.0024
14331TIP3    H264485   1.305   3.787  16.964  0.1394 -0.4568 -1.0138
14332TIP3   OH264486   4.613   3.678   5.010  0.0697 -0.4557  0.0653
14332TIP3    H164487   4.649   3.718   5.089 -0.5287 -0.3841  0.3024
14332TIP3    H264488   4.555   3.609   5.042 -0.5194 -0.1359 -0.2975
14333TIP3   OH264489   6.041   4.924   4.378 -0.0949 -0.2447  0.7753
14333TIP3    H164490   6.023   4.834   4.404  1.9953 -0.0377  3.2831
14333TIP3    H264491   6.045   4.973   4.460 -0.8100  2.1110 -0.4882
14334TIP3   OH264492   6.540   6.234   0.711  0.1716 -0.1757 -0.0322
14334TIP3    H164493   6.571   6.244   0.801  1.8232  2.3836 -0.7733
14334TIP3    H264494   6.582   6.154   0.679  1.4230  0.1367  0.7773
14335TIP3   OH264495   6.383   1.878  17.015 -0.2609 -0.3549  0.6781
14335TIP3    H164496   6.428   1.960  17.038 -1.0675 -0.5938  3.4455
14335TIP3    H264497   6.443   1.809  17.044  0.0707 -0.7947 -0.9411
14336TIP3   OH264498   1.421   6.193  16.916  0.1690  0.7811 -0.2411
14336TIP3    H164499   1.354   6.154  16.860  2.0995 -1.5217 -1.1430
14336TIP3    H264500   1.407   6.153  17.002  0.1559  0.5793 -0.3362
14337TIP3   OH264501   0.922   0.226  13.671  0.0345  0.9115  0.3507
14337TIP3    H164502   0.899   0.206  13.761  0.2252 -1.6166 -0.1041
14337TIP3    H264503   0.840   0.216  13.622  0.6607 -1.8437 -0.3078
14338TIP3   OH264504   0.242   3.313   2.636 -0.0287  0.2684 -0.0940
14338TIP3    H164505   0.222   3.333   2.727  1.1879  0.8866  0.0508
14338TIP3    H264506   0.266   3.398   2.598 -0.9801  0.1044 -1.1287
14339TIP3   OH264507   6.490   5.885   2.636 -0.0485  0.2250 -0.1228
14339TIP3    H164508   6.495   5.797   2.597 -1.3384  0.5237 -1.0468
14339TIP3    H264509   6.527   5.874   2.724  0.7838 -1.0001 -0.5973
14340TIP3   OH264510   4.474   3.617  16.397 -0.6736 -0.3794  0.4623
14340TIP3    H164511   4.513   3.558  16.461 -2.3543 -0.1918  1.7455
14340TIP3    H264512   4.398   3.655  16.443  1.4491  4.4990  0.5762
14341TIP3   OH264513   2.411   2.566  15.983 -0.4090  0.0758  0.2003
14341TIP3    H164514   2.331   2.611  15.955 -1.5603 -0.7067  2.0473
14341TIP3    H264515   2.412   2.577  16.078  1.2591 -0.6447  0.2941
14342TIP3   OH264516   6.681   1.959  16.836  0.1720  0.4363  0.1638
14342TIP3    H164517   6.699   1.867  16.853 -0.5908  0.0426 -1.0198
14342TIP3    H264518   6.603   1.958  16.780  0.5541  1.7582 -0.4398
14343TIP3   OH264519   1.854   5.677  11.158  0.3911 -0.2565  0.0347
14343TIP3    H164520   1.816   5.646  11.075 -0.7622 -1.9387  1.1219
14343TIP3    H264521   1.831   5.770  11.162  0.1248 -0.2441 -1.3449
14344TIP3   OH264522   3.852   1.730   0.892 -0.0785 -0.7174 -0.0695
14344TIP3    H164523   3.844   1.755   0.800 -0.2319 -0.3020  0.0558
14344TIP3    H264524   3.946   1.724   0.907 -0.0258  0.2156  0.0122
14345TIP3   OH264525   3.580   2.983  11.456  0.2859  0.4031  0.3587
14345TIP3    H164526   3.566   3.051  11.391  2.6779  0.5992 -0.0515
14345TIP3    H264527   3.654   2.932  11.422 -0.0726 -1.0991  1.6865
14346TIP3   OH264528   2.690   2.937   5.410  0.1442 -0.4432  0.5433
14346TIP3    H164529   2.705   2.881   5.486  0.0875 -0.9110  0.2098
14346TIP3    H264530   2.701   2.880   5.334 -1.7519 -0.4703  0.2385
14347TIP3   OH264531   3.529   0.745  15.841 -0.3797  0.2395  0.2588
14347TIP3    H164532   3.579   0.683  15.895  1.3222  1.3573  0.0415
14347TIP3    H264533   3.551   0.722  15.751  0.1517  1.0335  0.1726
14348TIP3   OH264534   5.177   0.031   3.363 -0.5077  0.1130  0.1803
14348TIP3    H164535   5.099   0.023   3.417  0.4060  1.4450  1.7891
14348TIP3    H264536   5.155   0.096   3.297 -1.5628 -1.3721 -1.0063
14349TIP3   OH264537   3.663   4.469   3.391  0.0221 -0.3129 -0.4374
14349TIP3    H164538   3.635   4.530   3.460 -2.7081 -0.0745 -1.6314
14349TIP3    H264539   3.724   4.410   3.435 -0.4858  0.7277  1.8116
14350TIP3   OH264540   4.086   5.614   5.042 -0.3396 -0.3105 -0.2529
14350TIP3    H164541   4.045   5.635   4.959  1.3600  1.6217 -0.6889
14350TIP3    H264542   4.123   5.698   5.072  0.4389 -1.2844  1.6581
14351TIP3   OH264543   1.721   6.410   0.026  0.1637  0.2071  0.2478
14351TIP3    H164544   1.628   6.392   0.043 -0.1419  0.9142 -0.5721
14351TIP3    H264545   1.747   6.344  -0.038  0.3198 -0.2060  0.7368
14352TIP3   OH264546   6.121   1.245  14.015 -0.3601 -0.0903 -0.1714
14352TIP3    H164547   6.108   1.279  13.926 -3.9694  1.4657  0.7675
14352TIP3    H264548   6.115   1.150  14.005 -1.5965  0.0939 -1.5383
14353TIP3   OH264549   5.985   1.598  11.100  0.4392 -0.0446  0.4286
14353TIP3    H164550   5.899   1.596  11.058 -0.7554  1.4853  2.6175
14353TIP3    H264551   6.043   1.638  11.034 -0.1225 -2.2704 -1.5664
14354TIP3   OH264552   0.940   0.842  16.641 -0.1506 -0.2692 -0.4968
14354TIP3    H164553   0.933   0.829  16.736  1.3196 -0.6627 -0.4216
14354TIP3    H264554   0.864   0.796  16.605 -1.6728  1.2651  0.5629
14355TIP3   OH264555   6.643   6.114   1.455  0.3853  0.1183 -0.8734
14355TIP3    H164556   6.609   6.120   1.544  0.1955 -0.7575 -0.8769
14355TIP3    H264557   6.597   6.183   1.407  0.6072  0.6968 -0.2628
14356TIP3   OH264558   2.676   0.140   5.845  0.0019 -0.3011  0.2007
14356TIP3    H164559   2.731   0.170   5.773  0.0995 -0.8487  0.0392
14356TIP3    H264560   2.733   0.084   5.897  0.1653  0.7586  1.1734
14357TIP3   OH264561   3.995   3.631   4.370  0.6176 -0.2413  0.0575
14357TIP3    H164562   3.973   3.576   4.295  0.2713  0.1273 -0.1123
14357TIP3    H264563   4.087   3.611   4.387  0.5525 -0.7234 -0.1261
14358TIP3   OH264564   3.988   2.665  12.609  0.3036 -0.4726 -0.3023
14358TIP3    H164565   3.948   2.597  12.662  0.8284 -1.4733 -1.1419
14358TIP3    H264566   4.080   2.666  12.635  0.3993 -0.4224 -0.6279
14359TIP3   OH264567   4.600   3.775   5.298 -0.1912 -0.3184 -0.3739
14359TIP3    H164568   4.549   3.854   5.318 -0.9511 -0.7232 -0.6759
14359TIP3    H264569   4.598   3.724   5.379  1.2264  0.4490  0.1793
14360TIP3   OH264570   1.213   3.157  11.296  0.1214  0.2749  0.6577
14360TIP3    H164571   1.196   3.237  11.246 -0.5986 -1.4669 -2.1441
14360TIP3    H264572   1.129   3.134  11.335 -0.6643 -0.9227 -1.5519
14361TIP3   OH264573   4.615   6.324   5.784  0.1052  0.0040  1.1050
14361TIP3    H164574   4.610   6.265   5.709  0.2482  2.3727 -0.9240
14361TIP3    H264575   4.709   6.330   5.804  0.2459  0.6072  0.3387
14362TIP3   OH264576   6.719   6.095  11.960  0.5304  0.2710  1.0302
14362TIP3    H164577   6.806   6.061  11.945  1.4016  2.6960  0.0242
14362TIP3    H264578   6.719   6.119  12.053  1.3347  1.1803  0.8146
14363TIP3   OH264579   4.148   5.359  14.051 -0.5721 -0.3575  0.0882
14363TIP3    H164580   4.147   5.420  13.977  0.6719 -0.4121 -0.0020
14363TIP3    H264581   4.106   5.407  14.122 -0.6971  0.1491 -0.3191
14364TIP3   OH264582   3.421   5.558   4.633  0.0700 -0.0629  0.1143
14364TIP3    H164583   3.347   5.586   4.579 -0.7279 -1.1693  0.5771
14364TIP3    H264584   3.489   5.622   4.616 -1.1469  1.2525 -0.0015
14365TIP3   OH264585   0.570   3.865   4.351 -0.2434  0.3074 -0.1638
14365TIP3    H164586   0.607   3.934   4.297  1.3000 -0.7395 -0.5060
14365TIP3    H264587   0.539   3.799   4.289  0.0739 -0.1785  0.1869
14366TIP3   OH264588   4.819   6.047   2.065 -0.2506 -0.2469 -0.2924
14366TIP3    H164589   4.816   6.129   2.016 -0.9190 -0.3668 -0.4742
14366TIP3    H264590   4.767   5.986   2.011  0.2190 -0.7773 -0.1478
14367TIP3   OH264591   3.816   0.494   3.012  0.3694 -0.8241  0.1169
14367TIP3    H164592   3.861   0.420   2.971  1.5405 -0.2845  0.3785
14367TIP3    H264593   3.767   0.455   3.085  0.5535 -1.4074 -0.0629
14368TIP3   OH264594   3.607   1.823  16.635 -0.0781 -0.0242 -0.0388
14368TIP3    H164595   3.619   1.899  16.579  1.2615 -0.2934 -0.1450
14368TIP3    H264596   3.687   1.771  16.623 -0.4986 -0.9120  0.8457
14369TIP3   OH264597   2.990   4.039  10.510 -0.1002  0.5523  0.3716
14369TIP3    H164598   3.031   4.123  10.532  0.4903  0.3527  0.0443
14369TIP3    H264599   2.995   3.988  10.591 -1.2970  1.1452  0.8554
14370TIP3   OH264600   0.387   5.119   5.859 -0.0733 -0.4037 -0.2250
14370TIP3    H164601   0.351   5.056   5.797 -2.3450 -0.7777  1.3703
14370TIP3    H264602   0.418   5.066   5.932  0.3237  0.1792  0.0415
14371TIP3   OH264603   1.141   0.955   4.532 -0.3907 -0.0966 -0.2101
14371TIP3    H164604   1.143   0.906   4.450  0.5444 -0.8750  0.2534
14371TIP3    H264605   1.110   0.891   4.597  1.9991 -0.4825  0.6365
14372TIP3   OH264606   3.396   6.788   5.328  0.2525  0.6264  0.1004
14372TIP3    H164607   3.319   6.744   5.362 -1.3155  2.6339 -0.6611
14372TIP3    H264608   3.397   6.768   5.235  0.8060  0.4129  0.1463
14373TIP3   OH264609   0.076   5.378   1.402  0.3895  0.4224  0.1017
14373TIP3    H164610   0.024   5.434   1.459  1.0812  0.4846  0.7009
14373TIP3    H264611   0.118   5.438   1.340  0.3372  0.4537  0.0963
14374TIP3   OH264612   1.051   2.732  16.198 -0.5894  0.2258  0.2153
14374TIP3    H164613   1.086   2.797  16.137  1.6388 -1.3439 -0.3207
14374TIP3    H264614   0.958   2.727  16.177 -0.2559  1.1454 -1.7298
14375TIP3   OH264615   4.095   1.592  12.416  0.0505 -0.9393 -0.1119
14375TIP3    H164616   4.172   1.592  12.472 -0.3736 -0.7471  0.4726
14375TIP3    H264617   4.030   1.542  12.465 -0.8069  0.4858  0.2389
14376TIP3   OH264618   6.389   1.784   2.611  0.2466 -0.1623  0.2867
14376TIP3    H164619   6.458   1.848   2.626  0.5086 -0.2099 -0.6517
14376TIP3    H264620   6.311   1.824   2.648  0.6557  0.1567  0.8115
14377TIP3   OH264621   2.561   6.788  16.955 -0.3569 -0.0493 -0.0665
14377TIP3    H164622   2.622   6.724  16.991 -0.4197 -0.9523 -1.5097
14377TIP3    H264623   2.587   6.798  16.863 -2.7446 -0.9804 -0.9369
14378TIP3   OH264624   2.781   1.149   6.172 -0.0791  0.0828  0.2291
14378TIP3    H164625   2.754   1.060   6.193 -1.1807  0.3127 -0.1704
14378TIP3    H264626   2.714   1.205   6.213  0.7192  0.7438  0.6747
14379TIP3   OH264627   6.194   4.219  14.094 -0.1154 -0.2433  0.1104
14379TIP3    H164628   6.272   4.220  14.149  0.1412  0.5448 -0.2468
14379TIP3    H264629   6.159   4.130  14.103 -1.3999  0.4450  3.3296
14380TIP3   OH264630   2.074   3.468  10.678  0.3111 -0.0955  0.2033
14380TIP3    H164631   2.115   3.498  10.597 -0.5615  0.5654 -0.0068
14380TIP3    H264632   2.142   3.416  10.721  1.7008  1.6870  0.3032
14381TIP3   OH264633   3.875   1.822  10.947 -0.1121 -0.3114 -0.1238
14381TIP3    H164634   3.959   1.857  10.917 -0.1733  0.8244  0.9356
14381TIP3    H264635   3.826   1.805  10.866  0.6314  0.3112 -0.7224
14382TIP3   OH264636   6.372   0.884   2.152  0.3742  0.3234 -0.5921
14382TIP3    H164637   6.378   0.944   2.227 -1.2462  1.3650 -1.2222
14382TIP3    H264638   6.319   0.811   2.184 -0.2560  0.7331 -0.6840
14383TIP3   OH264639   0.023   1.648  14.470  0.3460 -0.3384 -0.3269
14383TIP3    H164640  -0.033   1.629  14.395  0.4059 -0.3665 -0.3647
14383TIP3    H264641   0.061   1.734  14.451  0.2827 -0.3002 -0.2813
14384TIP3   OH264642   2.494   3.426   0.642  0.3526 -0.1626  0.4208
14384TIP3    H164643   2.501   3.516   0.674  0.5929 -0.1353  0.2975
14384TIP3    H264644   2.580   3.388   0.659 -0.2927 -0.9376  2.1487
14385TIP3   OH264645   6.143   6.175  14.178  0.3891  0.0443  0.7832
14385TIP3    H164646   6.230   6.193  14.214  0.9729  0.7402 -0.8527
14385TIP3    H264647   6.137   6.080  14.175  1.6785 -0.0260 -0.3499
14386TIP3   OH264648   1.676   0.870   2.004 -0.4803 -0.0081  0.4392
14386TIP3    H164649   1.743   0.818   1.959 -0.4379 -0.1246  0.6395
14386TIP3    H264650   1.713   0.959   2.006 -1.4348  0.5257 -1.7959
14387TIP3   OH264651   2.346   3.302  16.328  0.0532  0.0097  0.6587
14387TIP3    H164652   2.357   3.212  16.359 -1.2908 -0.6475 -0.6452
14387TIP3    H264653   2.351   3.295  16.233 -1.6661  1.0509  0.4591
14388TIP3   OH264654   5.049   1.282  14.583  0.2316 -0.0907  0.3152
14388TIP3    H164655   5.068   1.246  14.496 -0.5509 -1.3685  0.6424
14388TIP3    H264656   4.965   1.244  14.607  1.0406 -0.8659  2.1771
14389TIP3   OH264657   0.109   5.779  12.580 -0.1869  0.0176  0.0666
14389TIP3    H164658   0.133   5.804  12.491 -0.5325 -0.7989 -0.2630
14389TIP3    H264659   0.192   5.770  12.626  0.1163 -1.4436 -0.6934
14390TIP3   OH264660   5.849   2.886   2.969  0.3719  0.1648 -0.5774
14390TIP3    H164661   5.893   2.819   2.917  1.3552 -0.4574  0.9955
14390TIP3    H264662   5.920   2.929   3.017 -0.5898 -0.0394  1.0991
14391TIP3   OH264663   5.436   5.282  11.399  0.6833  0.1400 -0.0199
14391TIP3    H164664   5.524   5.244  11.405  1.0704  0.6760 -1.8952
14391TIP3    H264665   5.450   5.374  11.379 -0.3035  0.1748 -0.6256
14392TIP3   OH264666   2.362   3.543  16.491  0.2173  0.0752 -0.3966
14392TIP3    H164667   2.396   3.464  16.450 -0.0760  0.1465 -0.7795
14392TIP3    H264668   2.285   3.513  16.539  0.7959 -0.0840  0.4603
14393TIP3   OH264669   4.277   5.886  16.641 -0.5296 -0.0861 -0.3427
14393TIP3    H164670   4.357   5.888  16.694 -0.1627  0.9510 -0.9021
14393TIP3    H264671   4.275   5.797  16.605  1.1494  0.2490 -1.4230
14394TIP3   OH264672   2.465   5.585  12.885 -0.1766 -0.2848 -0.1204
14394TIP3    H164673   2.375   5.580  12.854 -0.4365  1.2267  0.3308
14394TIP3    H264674   2.514   5.615  12.808 -0.2514  0.0727 -0.0277
14395TIP3   OH264675   5.715   0.809   6.049  0.2959 -0.1817  0.0133
14395TIP3    H164676   5.783   0.874   6.029 -0.0225 -0.3372 -1.7535
14395TIP3    H264677   5.632   0.855   6.034  0.0232 -1.4233 -3.4002
14396TIP3   OH264678   3.493   5.679   0.282 -0.3359  0.2764 -0.5306
14396TIP3    H164679   3.564   5.656   0.341 -0.7500  0.3897  0.0177
14396TIP3    H264680   3.462   5.595   0.247  1.3162  0.3211 -2.2881
14397TIP3   OH264681   4.530   5.230  14.534 -0.0311 -0.5865 -0.1671
14397TIP3    H164682   4.612   5.229  14.485 -0.9159 -1.2606 -1.7077
14397TIP3    H264683   4.507   5.323  14.539  1.4374 -0.2713  1.4090
14398TIP3   OH264684   4.820   2.826  14.451  0.2656  0.0225  0.3850
14398TIP3    H164685   4.798   2.744  14.406 -0.1772  0.4368 -0.1690
14398TIP3    H264686   4.915   2.828  14.452  0.2996 -0.8299  1.0280
14399TIP3   OH264687   3.685   5.798   0.126  0.0023 -0.6995  0.2189
14399TIP3    H164688   3.725   5.719   0.091  1.5571  0.4858 -0.7847
14399TIP3    H264689   3.600   5.768   0.160  0.3321 -2.6923 -0.5492
14400TIP3   OH264690   6.762   3.840  12.320 -0.7384 -0.3871  0.3443
14400TIP3    H164691   6.832   3.827  12.384  1.4112  1.4814 -1.4156
14400TIP3    H264692   6.771   3.767  12.259 -1.0086 -0.7121  0.6947
14401TIP3   OH264693   6.065   1.516  12.106 -0.1582 -0.2844 -0.0784
14401TIP3    H164694   6.022   1.468  12.177 -0.8678 -2.1012 -1.6490
14401TIP3    H264695   6.134   1.566  12.149 -1.9340  0.3799  2.1446
14402TIP3   OH264696   3.091   6.473   3.967  0.1369 -0.3485  0.6927
14402TIP3    H164697   3.153   6.470   3.894 -0.7521 -0.9745 -0.0535
14402TIP3    H264698   3.144   6.451   4.044  1.7566  3.1511  0.7781
14403TIP3   OH264699   2.390   2.755  11.236  0.1459  0.2676 -0.4106
14403TIP3    H164700   2.380   2.705  11.317  1.2868 -3.1851 -2.2032
14403TIP3    H264701   2.301   2.773  11.207 -0.3740 -1.7718 -0.2133
14404TIP3   OH264702   2.123   4.200   3.676  0.5550 -0.6736 -0.0523
14404TIP3    H164703   2.116   4.115   3.720  0.8764 -0.7083 -0.0613
14404TIP3    H264704   2.216   4.224   3.685  0.3608 -0.0815  0.3968
14405TIP3   OH264705   1.892   6.546   4.811  0.2756 -0.0481 -0.0008
14405TIP3    H164706   1.838   6.551   4.890  0.6697 -1.5368  0.4032
14405TIP3    H264707   1.975   6.510   4.841  1.2075  1.4100 -0.7592
14406TIP3   OH264708   0.320   5.101  15.326 -0.1768  0.1206 -0.0096
14406TIP3    H164709   0.412   5.079  15.311 -0.1542 -0.3842  0.8118
14406TIP3    H264710   0.287   5.030  15.381 -1.0261  0.3718 -0.1802
14407TIP3   OH264711   1.856   2.750  14.174 -0.0814 -0.1364  0.5171
14407TIP3    H164712   1.772   2.785  14.146  0.5091  1.2960  0.4734
14407TIP3    H264713   1.862   2.771  14.267  0.8415  1.0861  0.2038
14408TIP3   OH264714   2.850   0.181   3.561  0.3095  0.0429  0.6887
14408TIP3    H164715   2.880   0.126   3.489  1.6316 -0.5898  1.6841
14408TIP3    H264716   2.858   0.270   3.527  0.3924 -0.2631 -0.1359
14409TIP3   OH264717   3.246   0.688  12.671 -0.2047 -0.5487 -0.1092
14409TIP3    H164718   3.173   0.644  12.629 -0.5834  1.1257 -1.3076
14409TIP3    H264719   3.276   0.627  12.739 -0.9633 -2.4113 -1.3817
14410TIP3   OH264720   3.914   0.481   5.582 -0.5656 -0.8869 -0.2081
14410TIP3    H164721   3.871   0.566   5.573  0.4730 -0.1119  1.6122
14410TIP3    H264722   3.847   0.425   5.621 -2.2186 -1.8542 -3.9308
14411TIP3   OH264723   6.568   3.235  11.026  0.0246  0.7044  0.0019
14411TIP3    H164724   6.632   3.251  11.096 -0.1925  0.4176  0.2708
14411TIP3    H264725   6.539   3.145  11.041  0.8879  0.2106 -1.2120
14412TIP3   OH264726   1.825   2.301  16.591 -0.2678  0.2987  0.7916
14412TIP3    H164727   1.822   2.321  16.497  1.7002  0.8902  0.8033
14412TIP3    H264728   1.836   2.206  16.594  0.5995  0.3760  0.3735
14413TIP3   OH264729   5.148   2.371   3.716 -0.2390 -0.0467  0.1177
14413TIP3    H164730   5.161   2.332   3.803  0.0141 -1.2510 -0.4364
14413TIP3    H264731   5.231   2.415   3.697 -0.1357 -0.1609  0.3015
14414TIP3   OH264732   5.789   1.282   5.052 -0.0881  0.5433  0.0507
14414TIP3    H164733   5.743   1.261   4.971 -2.0744 -1.9789  1.6701
14414TIP3    H264734   5.749   1.364   5.082  1.0767  1.8223 -1.7067
14415TIP3   OH264735   0.698   2.189  12.650 -0.0777  0.6852 -0.5167
14415TIP3    H164736   0.743   2.106  12.635  0.7582  1.0530 -0.0750
14415TIP3    H264737   0.660   2.211  12.565  1.1761  0.7327 -1.0868
14416TIP3   OH264738   3.854   3.894   0.211  0.1622  0.2135 -1.0490
14416TIP3    H164739   3.773   3.936   0.240 -0.3587  0.0552 -2.2007
14416TIP3    H264740   3.923   3.955   0.233 -0.1517 -0.0781  0.8545
14417TIP3   OH264741   2.853   3.706   4.406  0.4267  0.1185 -0.7297
14417TIP3    H164742   2.812   3.771   4.462  1.3538  0.5106 -0.4838
14417TIP3    H264743   2.781   3.665   4.359 -0.2264  0.8310 -0.3593
14418TIP3   OH264744   6.561   4.889   0.643  0.1524  0.0881  0.2425
14418TIP3    H164745   6.477   4.845   0.631 -0.0518  0.3791  0.5791
14418TIP3    H264746   6.580   4.880   0.736  0.3308  0.3096  0.2290
14419TIP3   OH264747   3.311   2.547  15.292 -0.0733 -0.3365  0.0406
14419TIP3    H164748   3.322   2.474  15.353 -1.2529 -0.2017  0.4275
14419TIP3    H264749   3.226   2.585  15.314  0.6474  1.3643  0.0551
14420TIP3   OH264750   1.647   4.375   5.524  0.2710  0.3300 -0.1640
14420TIP3    H164751   1.651   4.354   5.431 -1.5915  1.8022 -0.6417
14420TIP3    H264752   1.738   4.392   5.549  1.0573 -1.8751 -1.2022
14421TIP3   OH264753   6.664   0.024   5.107 -0.3253  0.0768 -0.0045
14421TIP3    H164754   6.653   0.096   5.170 -1.8177 -1.2627  1.3419
14421TIP3    H264755   6.630   0.059   5.025 -2.2755  0.5230  0.9466
14422TIP3   OH264756   1.788   5.292   0.600  0.1866  0.6611 -0.5903
14422TIP3    H164757   1.846   5.241   0.543 -0.0469  1.2368 -1.3707
14422TIP3    H264758   1.815   5.269   0.689 -0.2449 -1.1853 -0.8947
14423TIP3   OH264759   5.499   5.280  13.985 -0.1878 -0.2458  0.1753
14423TIP3    H164760   5.438   5.326  13.928  0.6255  0.7858  0.1215
14423TIP3    H264761   5.537   5.212  13.929  0.5548  0.7149 -0.5007
14424TIP3   OH264762   5.809   2.522   4.663 -0.1794 -0.0792 -0.1282
14424TIP3    H164763   5.793   2.484   4.577 -2.5260 -0.4894  0.4097
14424TIP3    H264764   5.723   2.522   4.705  0.6002  1.6326  1.6068
14425TIP3   OH264765   3.396   3.669  14.087  0.8522  0.2279  0.5342
14425TIP3    H164766   3.363   3.696  14.002 -1.0173 -0.6597  0.9442
14425TIP3    H264767   3.469   3.729  14.104  0.6705  1.0116 -1.2580
14426TIP3   OH264768   0.621   5.724   3.058  0.0225 -0.4037  0.1263
14426TIP3    H164769   0.596   5.642   3.014 -0.5056  0.4863 -1.3077
14426TIP3    H264770   0.698   5.755   3.009 -0.4315  0.4912 -0.0397
14427TIP3   OH264771   5.987   1.095   1.068 -0.0772  0.6237 -0.1741
14427TIP3    H164772   6.067   1.044   1.056  0.1046  0.3756  1.6800
14427TIP3    H264773   6.014   1.168   1.125 -0.4855  2.4280 -2.1559
14428TIP3   OH264774   6.742   1.934   3.286  0.6001 -0.4479 -0.2054
14428TIP3    H164775   6.687   2.009   3.307  0.8240 -0.0947 -0.8403
14428TIP3    H264776   6.683   1.859   3.290  0.0784 -0.0829 -0.7950
14429TIP3   OH264777   5.005   5.024  12.973  0.2511  0.0097 -0.2971
14429TIP3    H164778   5.089   5.066  12.993 -0.0358  1.9839 -2.6992
14429TIP3    H264779   5.026   4.961  12.903  0.0269 -1.0813  0.5825
14430TIP3   OH264780   1.610   0.865  15.724 -0.1842 -0.1024 -0.1455
14430TIP3    H164781   1.682   0.864  15.660 -0.8680 -2.0335 -0.9570
14430TIP3    H264782   1.546   0.924  15.686 -0.2023 -0.5440 -0.8311
14431TIP3   OH264783   0.658   6.221   2.707  0.0666  0.3306 -0.4658
14431TIP3    H164784   0.564   6.217   2.725  0.1396  0.5834  0.0110
14431TIP3    H264785   0.679   6.315   2.706 -0.0739  0.3899 -2.7789
14432TIP3   OH264786   2.949   4.861   3.207  0.0024  0.1718  0.0306
14432TIP3    H164787   2.984   4.802   3.273  1.2421  0.2642 -0.5072
14432TIP3    H264788   2.856   4.871   3.230 -0.0156 -1.2255  0.6692
14433TIP3   OH264789   0.406   4.598  13.951 -0.2528  0.1221 -0.2988
14433TIP3    H164790   0.411   4.645  14.035 -1.0319 -0.7703  0.2629
14433TIP3    H264791   0.497   4.593  13.922 -0.1836  2.5168 -0.7111
14434TIP3   OH264792   4.197   4.837  14.015  0.1917  0.2051 -0.1312
14434TIP3    H164793   4.109   4.814  13.985 -0.4802  3.4995 -0.9750
14434TIP3    H264794   4.255   4.785  13.960 -1.1377 -1.8743  0.2972
14435TIP3   OH264795   2.166   3.084   5.164 -0.1897  0.7152  0.1221
14435TIP3    H164796   2.171   3.025   5.239  1.5192 -0.6294 -0.9682
14435TIP3    H264797   2.075   3.113   5.162 -0.6449 -0.4794  1.7712
14436TIP3   OH264798   0.171   6.109  11.877 -0.0674  0.2372  0.7792
14436TIP3    H164799   0.161   6.200  11.906  1.5168  0.7485 -0.1720
14436TIP3    H264800   0.257   6.083  11.909  0.3286 -0.2598 -0.6280
14437TIP3   OH264801   6.554   2.081   3.869 -0.1131 -0.2702  0.1384
14437TIP3    H164802   6.487   2.120   3.926 -0.7366 -0.6323 -0.3282
14437TIP3    H264803   6.513   2.079   3.783 -0.3041 -2.3830  0.2332
14438TIP3   OH264804   5.082   5.602  15.428  0.1504  0.4007  0.0514
14438TIP3    H164805   5.097   5.608  15.522  1.4796 -0.9863 -0.0454
14438TIP3    H264806   4.992   5.634  15.416 -0.1362  0.3232  1.8087
14439TIP3   OH264807   3.573   4.527   4.617 -0.4433 -0.4841 -0.3147
14439TIP3    H164808   3.509   4.571   4.672 -3.1756 -1.6215 -2.3497
14439TIP3    H264809   3.560   4.434   4.635  0.2245 -0.7636 -1.1987
14440TIP3   OH264810   6.731   1.417   5.528  0.0233 -0.3176  0.1114
14440TIP3    H164811   6.774   1.364   5.460 -1.9403 -1.3555 -0.4201
14440TIP3    H264812   6.763   1.506   5.513  0.3681 -0.6873 -1.6122
14441TIP3   OH264813   0.093   0.571   0.582  0.6819 -0.3461 -0.6920
14441TIP3    H164814   0.149   0.501   0.615  1.4696  1.1767  1.4381
14441TIP3    H264815   0.018   0.525   0.544  1.0096 -2.3561  0.8682
14442TIP3   OH264816   0.616   6.410  17.208 -0.3335 -0.3186  0.7118
14442TIP3    H164817   0.550   6.457  17.260 -0.7655  0.1595 -0.2508
14442TIP3    H264818   0.670   6.479  17.169  1.5720 -0.7053  2.4688
14443TIP3   OH264819   5.369   6.761  11.822  0.3818  0.0546  0.2955
14443TIP3    H164820   5.280   6.745  11.852  0.2419  1.1320  0.4810
14443TIP3    H264821   5.403   6.828  11.881  1.7290 -1.1569  0.9541
14444TIP3   OH264822   6.203   2.570  14.015  0.2427  0.1101  0.0341
14444TIP3    H164823   6.274   2.606  13.962 -0.6274  0.1679 -1.1518
14444TIP3    H264824   6.229   2.479  14.030  0.2424 -0.0813 -1.0225
14445TIP3   OH264825   6.222   0.642  12.357  0.1001 -0.0786 -0.3649
14445TIP3    H164826   6.244   0.558  12.397  2.8106  1.5306  1.9175
14445TIP3    H264827   6.283   0.650  12.283 -0.5935 -0.3505 -0.9809
14446TIP3   OH264828   2.101   3.090  14.963 -0.4543 -0.7606  0.3378
14446TIP3    H164829   2.049   3.009  14.961 -0.1479 -0.9910  1.4054
14446TIP3    H264830   2.037   3.160  14.947 -0.7386 -1.1908 -0.4843
14447TIP3   OH264831   5.845   2.682  16.967  0.2135  0.0006 -0.5542
14447TIP3    H164832   5.907   2.755  16.972  0.1840  0.1789 -2.2703
14447TIP3    H264833   5.772   2.708  17.022 -0.3726  1.8744 -2.1196
14448TIP3   OH264834   6.811   6.221   5.195  0.0143 -0.3685 -0.0837
14448TIP3    H164835   6.768   6.163   5.132 -0.5693  0.7240 -0.7271
14448TIP3    H264836   6.789   6.185   5.281 -1.1827 -0.5072 -0.4392
14449TIP3   OH264837   3.490   2.834  16.224 -0.2889  0.4608 -0.0026
14449TIP3    H164838   3.398   2.823  16.202 -0.3294  1.9213 -0.6810
14449TIP3    H264839   3.490   2.873  16.311 -0.3490  1.3558 -0.3994
14450TIP3   OH264840   2.829   0.380   3.915 -0.2747 -0.4403  0.2868
14450TIP3    H164841   2.851   0.288   3.902  0.5040 -0.4339  1.4849
14450TIP3    H264842   2.808   0.412   3.827  0.4633 -1.5020 -0.2932
14451TIP3   OH264843   1.627   1.490   3.700 -0.1821  0.8235  0.4026
14451TIP3    H164844   1.540   1.516   3.732  0.3941  2.0638  1.0256
14451TIP3    H264845   1.687   1.553   3.739  0.9660  0.2523 -0.3741
14452TIP3   OH264846   4.269   5.666   1.223 -0.0665  0.1371  0.0303
14452TIP3    H164847   4.210   5.729   1.265 -1.3979  0.6168 -2.3734
14452TIP3    H264848   4.212   5.594   1.196  0.5114  0.2780 -1.7226
14453TIP3   OH264849   1.617   4.749   0.927  0.2469  0.2582 -0.0138
14453TIP3    H164850   1.546   4.747   0.863  0.9802  2.0962 -0.9462
14453TIP3    H264851   1.675   4.819   0.897  0.7857  0.9777  2.5029
14454TIP3   OH264852   3.996   5.186   3.818 -0.3547 -0.7957 -0.1534
14454TIP3    H164853   3.924   5.173   3.756 -0.6173 -0.0843  0.0016
14454TIP3    H264854   3.955   5.189   3.904 -0.2140  0.1565 -0.1057
14455TIP3   OH264855   5.001   3.745  17.209  0.2162  0.6728 -0.2554
14455TIP3    H164856   5.035   3.834  17.202  1.2626  0.4064  0.9589
14455TIP3    H264857   5.078   3.689  17.201 -0.3557 -0.1009 -0.4837
14456TIP3   OH264858   5.161   6.446   0.431 -0.1944  0.0632 -0.1313
14456TIP3    H164859   5.169   6.537   0.403 -0.0231 -0.7078 -2.7905
14456TIP3    H264860   5.251   6.421   0.455 -0.4732  0.9711  2.2403
14457TIP3   OH264861   1.001   4.205   4.494  0.1852 -0.3615 -0.0928
14457TIP3    H164862   1.043   4.233   4.575 -1.1255  0.5266  0.3099
14457TIP3    H264863   0.936   4.140   4.522 -0.3332  0.0144 -0.3946
14458TIP3   OH264864   6.548   1.906  13.461  0.0078 -0.5082 -0.2812
14458TIP3    H164865   6.588   1.942  13.382  0.5193 -0.6046 -0.0713
14458TIP3    H264866   6.473   1.963  13.478  0.0073 -0.3700 -0.7231
14459TIP3   OH264867   1.094   5.284   4.193  0.3245  0.5042 -0.0906
14459TIP3    H164868   1.004   5.285   4.161  0.3016 -0.7338 -0.1216
14459TIP3    H264869   1.146   5.317   4.120  0.0175  0.0152 -0.5417
14460TIP3   OH264870   4.994   6.085  14.949 -0.1119 -0.3856 -0.4503
14460TIP3    H164871   5.081   6.122  14.964  0.2564 -1.4448  0.0805
14460TIP3    H264872   4.933   6.151  14.982  0.4578  0.6086 -1.3315
14461TIP3   OH264873   5.287   4.909  15.414 -0.7806 -0.7806 -0.3676
14461TIP3    H164874   5.238   4.851  15.472  0.9526 -1.7019  0.2404
14461TIP3    H264875   5.369   4.925  15.460 -0.9644  1.7120 -0.8049
14462TIP3   OH264876   3.262   3.268   5.365  0.5658 -0.2658  0.2030
14462TIP3    H164877   3.329   3.227   5.310  1.0802 -0.3920  0.9114
14462TIP3    H264878   3.215   3.193   5.404 -0.5827 -0.1989 -0.9604
14463TIP3   OH264879   3.077   1.029   4.899  0.1438  0.2528 -0.1531
14463TIP3    H164880   3.066   1.036   4.993  0.5667 -1.3127  0.0411
14463TIP3    H264881   3.004   1.078   4.862 -1.0689 -0.6122  1.0049
14464TIP3   OH264882   2.923   5.293   5.274  0.2941  0.1444  0.0123
14464TIP3    H164883   2.957   5.206   5.254 -2.1195 -1.4669  2.1929
14464TIP3    H264884   2.944   5.307   5.366  0.6816  1.9574 -0.3043
14465TIP3   OH264885   5.256   0.793   5.758  0.1163  0.4490  0.3855
14465TIP3    H164886   5.319   0.755   5.820  1.9651 -1.6362 -2.5360
14465TIP3    H264887   5.172   0.756   5.784  0.6235  0.4358  2.1832
14466TIP3   OH264888   2.728   2.618  16.787 -0.3440  0.0326  0.3357
14466TIP3    H164889   2.678   2.694  16.758  0.5483  0.0117 -1.3748
14466TIP3    H264890   2.662   2.554  16.814 -1.1654  0.7628  0.0781
14467TIP3   OH264891   2.782   3.854   5.549  0.0730  0.0226  0.7724
14467TIP3    H164892   2.783   3.861   5.453  0.2683  0.8198  0.8180
14467TIP3    H264893   2.726   3.926   5.577 -0.8305 -0.8396  1.2282
14468TIP3   OH264894   1.987   0.427   3.242 -0.4695 -0.6462 -0.1947
14468TIP3    H164895   2.031   0.442   3.158 -0.7465 -1.0033 -0.4093
14468TIP3    H264896   2.058   0.413   3.304 -0.2501  0.1765 -0.2593
14469TIP3   OH264897   1.800   1.662  10.904  0.1527  0.3317 -0.0605
14469TIP3    H164898   1.795   1.641  10.810 -0.9172 -0.2086  0.1054
14469TIP3    H264899   1.716   1.702  10.924 -0.6023 -1.6966  1.1602
14470TIP3   OH264900   0.647   5.719  12.800 -0.3305 -0.2345  0.7158
14470TIP3    H164901   0.564   5.761  12.778 -0.2802  0.5640  1.9604
14470TIP3    H264902   0.642   5.633  12.758 -0.8471  0.6061 -1.0731
14471TIP3   OH264903   4.570   2.181   1.931  0.3581  0.0586 -0.4830
14471TIP3    H164904   4.578   2.204   2.024 -0.7028 -0.5036 -0.2366
14471TIP3    H264905   4.660   2.185   1.898  0.6684  0.9418  0.3974
14472TIP3   OH264906   0.412   1.485   0.320  0.2024  0.3171 -0.3634
14472TIP3    H164907   0.407   1.406   0.374 -1.1292 -0.8495 -2.0765
14472TIP3    H264908   0.321   1.508   0.302  0.5668  0.2757 -2.5850
14473TIP3   OH264909   0.542   5.386   1.377 -0.1063  0.1372  0.5547
14473TIP3    H164910   0.482   5.405   1.449 -0.2360 -0.0747  0.5015
14473TIP3    H264911   0.582   5.302   1.400 -0.2954 -0.0276  0.2825
14474TIP3   OH264912   6.348   5.211   1.452  0.2209 -0.5752  0.4909
14474TIP3    H164913   6.426   5.180   1.498  0.3215  0.8286  1.3125
14474TIP3    H264914   6.367   5.196   1.360  0.4726 -2.4108  0.8182
14475TIP3   OH264915   4.451   4.449  15.174 -0.5577  0.0762  0.5852
14475TIP3    H164916   4.388   4.444  15.101 -0.0955  0.3190  0.1651
14475TIP3    H264917   4.413   4.512  15.234 -0.8572  0.0088  0.4697
14476TIP3   OH264918   4.460   5.634  16.806 -0.1218 -0.1083 -0.2173
14476TIP3    H164919   4.502   5.720  16.813 -0.0098  0.0899 -2.5050
14476TIP3    H264920   4.422   5.633  16.718  0.0289 -2.4679 -0.3161
14477TIP3   OH264921   3.941   2.547  11.897 -0.1275  0.4384 -0.2953
14477TIP3    H164922   3.911   2.527  11.985  1.9334 -2.3397 -0.0963
14477TIP3    H264923   3.896   2.485  11.840  0.6564  0.2996 -0.7851
14478TIP3   OH264924   3.082   1.169  13.000  0.0383  0.1733  0.6639
14478TIP3    H164925   3.061   1.078  13.022 -0.1668  0.1656  0.4423
14478TIP3    H264926   3.172   1.181  13.030 -0.9538  0.8847  3.8037
14479TIP3   OH264927   0.555   0.681   0.611 -0.5274 -0.2591  0.1705
14479TIP3    H164928   0.462   0.681   0.635 -0.5961 -1.5617 -0.0135
14479TIP3    H264929   0.594   0.612   0.665 -0.0802 -1.1173 -1.2008
14480TIP3   OH264930   3.319   6.595  15.117 -0.2611  0.0112 -0.1662
14480TIP3    H164931   3.303   6.506  15.146 -3.3323 -0.4474 -2.7378
14480TIP3    H264932   3.239   6.643  15.139  0.4340  1.5624 -0.8541
14481TIP3   OH264933   5.940   0.541  11.897 -0.5250  0.9010  0.9048
14481TIP3    H164934   5.943   0.527  11.991  0.0804 -3.1505  0.4826
14481TIP3    H264935   5.997   0.616  11.882 -0.2029  1.3219  3.6909
14482TIP3   OH264936   3.600   0.143   3.015  0.4711  0.4980 -0.4581
14482TIP3    H164937   3.589   0.075   2.949  3.1275 -0.3092 -0.1960
14482TIP3    H264938   3.674   0.195   2.983  0.0171  1.8225  0.5420
14483TIP3   OH264939   4.830   1.053  12.037  0.5725  0.1998  0.1223
14483TIP3    H164940   4.801   1.144  12.047  0.9205  0.2660  0.5617
14483TIP3    H264941   4.918   1.060  12.000 -0.8003 -0.0407 -3.5872
14484TIP3   OH264942   0.681   2.077   2.930  0.1551  0.3990  0.4376
14484TIP3    H164943   0.759   2.124   2.901  0.3649 -1.0846 -1.5975
14484TIP3    H264944   0.610   2.115   2.878  0.3349 -1.4359 -1.2675
14485TIP3   OH264945   2.227   4.999  14.164 -0.4586  0.2230  0.5577
14485TIP3    H164946   2.313   4.976  14.200 -0.9624 -0.3382  1.4397
14485TIP3    H264947   2.232   5.093  14.149  1.0233 -0.1048 -1.3977
14486TIP3   OH264948   6.240   2.991   0.890 -0.3340 -0.4006 -0.5511
14486TIP3    H164949   6.331   3.020   0.887 -0.2797 -0.2230  1.2972
14486TIP3    H264950   6.203   3.016   0.805  1.0490  0.4982 -0.9141
14487TIP3   OH264951   2.866   0.337  15.568  0.7765 -0.2906 -1.0868
14487TIP3    H164952   2.784   0.309  15.528  0.9683  0.9046 -2.3691
14487TIP3    H264953   2.922   0.361  15.495  1.5775  0.8141 -0.1480
14488TIP3   OH264954   1.235   2.905  12.983  0.0134 -0.3152  0.4872
14488TIP3    H164955   1.140   2.909  12.973  0.1704 -0.5071 -1.3225
14488TIP3    H264956   1.256   2.812  12.974  0.5928 -0.0129 -1.6912
14489TIP3   OH264957   3.529   4.671  16.742 -0.0175  0.8795  0.0667
14489TIP3    H164958   3.478   4.727  16.683  0.4238  0.3015 -0.8826
14489TIP3    H264959   3.480   4.588  16.745  0.0803  0.8303  0.3481
14490TIP3   OH264960   5.973   6.228  15.647 -0.0439  0.0340  0.2756
14490TIP3    H164961   6.054   6.203  15.693 -0.6622 -1.3830  0.6590
14490TIP3    H264962   5.905   6.224  15.715 -0.6348 -0.0021 -0.3093
14491TIP3   OH264963   5.744   4.546   2.527  0.4650  0.2856  0.7906
14491TIP3    H164964   5.662   4.505   2.499  0.4051  0.6470  0.4081
14491TIP3    H264965   5.723   4.586   2.611 -0.2680  1.8472 -0.0720
14492TIP3   OH264966   0.886   0.940  15.593 -0.4800  0.3202 -0.5427
14492TIP3    H164967   0.878   0.956  15.687 -1.5215 -0.0435 -0.5442
14492TIP3    H264968   0.873   0.845  15.584 -0.5436  0.3714 -1.0604
14493TIP3   OH264969   6.770   0.524  13.987  0.7241  0.3213  0.4060
14493TIP3    H164970   6.785   0.429  13.989 -1.0086 -0.0155 -0.3246
14493TIP3    H264971   6.802   0.551  13.901 -1.4617 -0.1873 -0.6545
14494TIP3   OH264972   5.883   6.240   2.181  0.0388 -0.3750  0.0785
14494TIP3    H164973   5.974   6.259   2.204 -0.1854 -1.7795  2.5069
14494TIP3    H264974   5.887   6.153   2.141 -0.1463  0.0429 -0.8812
14495TIP3   OH264975   4.460   0.675  16.261  0.4240 -0.0489  0.0358
14495TIP3    H164976   4.525   0.744  16.274  0.6683 -0.5601  1.7725
14495TIP3    H264977   4.478   0.612  16.330 -1.5764 -0.4800  0.2164
14496TIP3   OH264978   2.204   1.899  14.510 -0.3319  0.4173 -0.3621
14496TIP3    H164979   2.178   1.943  14.429 -1.6022  0.3956  0.0163
14496TIP3    H264980   2.224   1.971  14.570 -1.3413  0.4924 -0.0890
14497TIP3   OH264981   5.487   2.048   4.399 -0.2368  0.0686 -0.7657
14497TIP3    H164982   5.511   2.059   4.491 -0.7903  0.9691 -0.7122
14497TIP3    H264983   5.421   1.979   4.399 -1.7454  1.4561 -0.2118
14498TIP3   OH264984   0.116   1.269  13.037  0.0856  0.3122  0.1947
14498TIP3    H164985   0.043   1.260  13.099 -1.0666 -0.1456 -1.1952
14498TIP3    H264986   0.150   1.180  13.027  1.0106  0.5484  0.9832
14499TIP3   OH264987   4.890   2.050   1.989  0.6376  0.6166  0.1049
14499TIP3    H164988   4.886   2.144   2.006 -2.1802  0.6204 -0.1761
14499TIP3    H264989   4.941   2.042   1.908  1.7878  1.7664  0.6753
14500TIP3   OH264990   5.346   1.451   4.944 -0.4452 -0.5298  0.1370
14500TIP3    H164991   5.382   1.488   5.025 -0.6785  3.6962 -1.4118
14500TIP3    H264992   5.251   1.449   4.960 -0.4631 -0.0391  0.1093
14501TIP3   OH264993   1.388   1.589   3.765 -0.1347 -0.0179 -0.5738
14501TIP3    H164994   1.375   1.677   3.802 -2.1919 -0.5200  0.0310
14501TIP3    H264995   1.414   1.605   3.674 -0.6349  1.2340 -0.5255
14502TIP3   OH264996   6.567   2.344   5.011  0.0782  0.2459 -0.0871
14502TIP3    H164997   6.502   2.403   4.972  1.3799  0.8326 -1.4521
14502TIP3    H264998   6.567   2.367   5.104 -2.6116 -0.7164  0.2366
14503TIP3   OH264999   3.475   2.730   4.914 -0.0578 -0.0165 -0.8025
14503TIP3    H165000   3.495   2.791   4.985  0.4109 -0.6916 -0.3466
14503TIP3    H265001   3.548   2.669   4.914 -0.8986 -1.0537 -0.7346
14504TIP3   OH265002   5.609   2.569  13.654 -0.4023 -0.4846 -0.3857
14504TIP3    H165003   5.680   2.523  13.608  0.5954  1.0971 -0.5212
14504TIP3    H265004   5.609   2.657  13.615 -0.4398  0.4738  1.6696
14505TIP3   OH265005   0.978   1.768   5.982 -0.0232 -0.1384  0.0588
14505TIP3    H165006   1.013   1.769   5.893 -0.3255 -1.3348 -0.0911
14505TIP3    H265007   0.941   1.856   5.994 -1.1158 -0.3439 -1.4660
14506TIP3   OH265008   0.830   4.839  11.599 -0.4693 -1.2493  0.2416
14506TIP3    H165009   0.772   4.897  11.549 -0.7328 -1.1607  0.6490
14506TIP3    H265010   0.798   4.845  11.689 -0.5986 -2.1352  0.2666
14507TIP3   OH265011   6.744   3.161   5.811 -0.4208 -0.2533  0.1354
14507TIP3    H165012   6.826   3.128   5.773 -1.4134 -1.5921 -0.9599
14507TIP3    H265013   6.720   3.235   5.755  0.8023  1.1976  1.4188
14508TIP3   OH265014   4.602   0.508  10.788  0.2476 -0.5414 -0.6085
14508TIP3    H165015   4.561   0.533  10.705  2.2200  1.9279 -0.9542
14508TIP3    H265016   4.695   0.503  10.769  0.5702 -1.9946  1.0414
14509TIP3   OH265017   1.658   6.752   2.092 -0.7117  0.4058 -0.1488
14509TIP3    H165018   1.673   6.750   2.186 -2.6208  0.3672  0.1824
14509TIP3    H265019   1.568   6.721   2.080  0.2002 -1.7984 -2.1732
14510TIP3   OH265020   3.176   0.825   3.010 -0.2497 -0.4361  0.4953
14510TIP3    H165021   3.143   0.736   2.997 -0.6339 -0.1087 -1.0313
14510TIP3    H265022   3.097   0.880   3.007  0.1085  0.0623  0.1647
14511TIP3   OH265023   5.388   0.206   3.524  0.5357 -0.5533  0.4718
14511TIP3    H165024   5.369   0.124   3.478  0.3426 -1.0664  1.4151
14511TIP3    H265025   5.445   0.179   3.597  0.8915  0.2362  0.4928
14512TIP3   OH265026   2.680   0.814  13.375  0.6464  0.1917 -0.1635
14512TIP3    H165027   2.586   0.828  13.362  0.7923  2.2330  0.5635
14512TIP3    H265028   2.716   0.802  13.287 -0.2050  0.0361 -0.4939
14513TIP3   OH265029   1.766   6.513   5.070  0.1493  0.3398  0.6419
14513TIP3    H165030   1.783   6.466   5.152 -0.4786 -0.2262  0.4584
14513TIP3    H265031   1.671   6.510   5.061  0.1818  0.8385  0.1477
14514TIP3   OH265032   5.471   0.959  16.746 -0.3132 -0.1335 -0.0620
14514TIP3    H165033   5.438   0.937  16.833  0.5254  2.5371  1.0041
14514TIP3    H265034   5.537   0.892  16.728 -0.2918 -0.5574  1.4820
14515TIP3   OH265035   4.403   0.662   4.338  0.5700 -0.6941 -0.4334
14515TIP3    H165036   4.465   0.657   4.265 -0.4695  2.7142 -1.7523
14515TIP3    H265037   4.317   0.665   4.295 -0.0877  1.0362  0.9224
14516TIP3   OH265038   0.904   1.863   1.319 -0.3888 -0.5330 -0.2240
14516TIP3    H165039   0.896   1.954   1.292 -0.0875 -0.4520 -0.0509
14516TIP3    H265040   0.822   1.843   1.364  0.5913  0.4801  2.1748
14517TIP3   OH265041   2.655   5.914  16.583 -0.1589  0.6075 -0.1396
14517TIP3    H165042   2.742   5.943  16.611  0.3676 -0.2267 -0.8691
14517TIP3    H265043   2.596   5.947  16.651  0.6607  1.5785  0.1363
14518TIP3   OH265044   0.206   6.037  14.884 -0.0283  0.0257 -0.1864
14518TIP3    H165045   0.301   6.051  14.883 -0.2241  1.5956 -0.7228
14518TIP3    H265046   0.186   6.012  14.974  1.0268 -1.5515 -0.3514
14519TIP3   OH265047   2.267   3.107   2.208 -0.2590 -0.1597 -0.4562
14519TIP3    H165048   2.213   3.159   2.149 -0.1230 -0.3275 -0.7305
14519TIP3    H265049   2.207   3.043   2.246 -0.1932 -0.5752 -1.0269
14520TIP3   OH265050   4.139   3.383  11.932 -0.2845  0.2545 -0.0405
14520TIP3    H165051   4.124   3.339  12.016  0.8953 -0.8485 -0.3609
14520TIP3    H265052   4.052   3.400  11.897 -0.7820 -0.3655  0.8597
14521TIP3   OH265053   0.778   2.676   3.236  0.1282  0.5583  0.4249
14521TIP3    H165054   0.764   2.770   3.248  2.1707  0.7869  1.3399
14521TIP3    H265055   0.798   2.667   3.142  1.6307  1.3223  0.6406
14522TIP3   OH265056   5.716   1.661  13.668  0.2463  0.4862  0.2798
14522TIP3    H165057   5.743   1.753  13.664 -0.5736  0.7356  0.3463
14522TIP3    H265058   5.622   1.664  13.687  0.6754 -0.3798  2.9694
14523TIP3   OH265059   5.360   2.896  15.348 -0.6630 -0.0241  0.3438
14523TIP3    H165060   5.423   2.839  15.393 -1.0552 -0.0821  0.8343
14523TIP3    H265061   5.292   2.912  15.413 -0.7016  0.7809  0.1237
14524TIP3   OH265062   0.284   4.382   1.335  0.1727  0.0217  0.2167
14524TIP3    H165063   0.212   4.382   1.272 -0.2811  0.0464  0.7342
14524TIP3    H265064   0.252   4.433   1.409  1.0873  0.8624  0.0456
14525TIP3   OH265065   6.239   2.653  15.491  0.1322 -0.0814 -0.2126
14525TIP3    H165066   6.205   2.630  15.405  1.2249  0.8264 -0.9177
14525TIP3    H265067   6.232   2.749  15.494  0.3144 -0.0874  0.6106
14526TIP3   OH265068   4.380   5.585   1.912  0.0320 -0.5726 -0.0320
14526TIP3    H165069   4.356   5.654   1.974  0.3437 -0.3566 -0.1514
14526TIP3    H265070   4.328   5.509   1.939  1.6679 -1.1310  1.7779
14527TIP3   OH265071   3.222   5.395  17.033  0.0501 -0.3614  0.1723
14527TIP3    H165072   3.188   5.460  17.094  0.0589 -0.8411  0.7023
14527TIP3    H265073   3.169   5.405  16.954 -0.9059 -0.6781  0.7629
14528TIP3   OH265074   4.486   2.966  12.992 -0.1197 -0.6334  0.2052
14528TIP3    H165075   4.505   2.948  12.900  1.2947  0.8228  0.1773
14528TIP3    H265076   4.424   3.038  12.990 -2.0670 -2.2115  0.4014
14529TIP3   OH265077   1.935   1.743  14.255 -0.2917 -0.1783  0.1244
14529TIP3    H165078   1.912   1.789  14.336  0.6538  1.0088 -0.2537
14529TIP3    H265079   2.029   1.728  14.262 -0.4989 -1.6254 -0.0042
14530TIP3   OH265080   5.521   0.843  11.258  0.1106 -0.1402  0.1156
14530TIP3    H165081   5.542   0.886  11.175 -0.4404  1.5634  0.7992
14530TIP3    H265082   5.605   0.814  11.293  0.9304  2.7669  0.8279
14531TIP3   OH265083   2.837   5.416  14.959  0.2406 -0.0128 -0.4153
14531TIP3    H165084   2.760   5.428  15.014 -0.0383  0.6863 -0.9458
14531TIP3    H265085   2.910   5.446  15.014  0.1314 -0.5920  0.0534
14532TIP3   OH265086   2.996   1.227   6.023  0.4998  0.1116 -0.6906
14532TIP3    H165087   3.046   1.213   6.103 -0.7988  2.9281  0.7634
14532TIP3    H265088   2.907   1.199   6.045  0.3407 -0.1086 -1.5546
14533TIP3   OH265089   5.790   6.476   2.197  0.1869  0.1637 -0.1554
14533TIP3    H165090   5.803   6.381   2.192 -1.1518  0.0207 -1.8637
14533TIP3    H265091   5.843   6.503   2.272  0.2103 -1.9903  0.6867
14534TIP3   OH265092   2.961   6.553  14.709  0.6417 -0.3602 -0.7128
14534TIP3    H165093   2.977   6.458  14.704  1.7797 -0.2385  0.1980
14534TIP3    H265094   3.044   6.589  14.739 -0.1040  0.8198 -0.0190
14535TIP3   OH265095   4.881   1.293   2.428 -0.5322  0.0252  0.5810
14535TIP3    H165096   4.954   1.231   2.419 -0.4055  0.2943 -0.3916
14535TIP3    H265097   4.815   1.262   2.366  0.1536  1.7018 -1.0719
14536TIP3   OH265098   3.093   3.026   1.619 -0.2426  0.9152  0.1432
14536TIP3    H165099   3.158   2.966   1.581  0.6943 -0.0814  3.0948
14536TIP3    H265100   3.122   3.113   1.591  1.3938  0.3623 -0.0192
14537TIP3   OH265101   1.905   4.199  15.830  0.5707 -0.6263 -0.2344
14537TIP3    H165102   1.912   4.238  15.744  1.8162 -3.2966 -1.4685
14537TIP3    H265103   1.978   4.237  15.880 -1.8507  3.1712  0.7854
14538TIP3   OH265104   5.942   4.109  15.450  0.1270 -0.0727 -0.2205
14538TIP3    H165105   5.993   4.034  15.420 -0.6745 -0.3434 -0.9523
14538TIP3    H265106   5.876   4.122  15.382 -1.3092 -0.2565  1.0670
14539TIP3   OH265107   3.051   0.449   1.344 -0.3000 -0.3594  0.1242
14539TIP3    H165108   3.064   0.513   1.275 -1.6723 -0.0433  0.1381
14539TIP3    H265109   3.021   0.500   1.419  0.1321 -0.8321  0.6310
14540TIP3   OH265110   0.152   1.627  16.999 -0.3426  0.0892 -0.0597
14540TIP3    H165111   0.194   1.705  16.963  1.6281 -1.0998 -0.5154
14540TIP3    H265112   0.211   1.598  17.069 -1.5183 -0.4847  0.7391
14541TIP3   OH265113   0.593   2.913  15.660  0.5345 -0.0723 -0.3269
14541TIP3    H165114   0.590   3.006  15.683 -1.1417 -0.7295  2.6487
14541TIP3    H265115   0.670   2.879  15.706  0.4222 -0.3690 -0.3552
14542TIP3   OH265116   6.364   3.982  12.902 -0.0409  0.2168 -0.0912
14542TIP3    H165117   6.278   3.941  12.898 -1.0627  2.2494 -0.4062
14542TIP3    H265118   6.355   4.052  12.966  1.8645 -0.4849  1.0477
14543TIP3   OH265119   6.372   2.051  15.009 -0.0962 -0.6830 -0.3169
14543TIP3    H165120   6.448   1.996  15.028  0.1901 -0.3846 -0.5845
14543TIP3    H265121   6.299   2.005  15.049  0.1871 -1.1007 -0.2731
14544TIP3   OH265122   6.370   4.381  14.656  0.1217  0.0758 -0.4320
14544TIP3    H165123   6.297   4.440  14.635  0.5253 -0.0082 -2.2001
14544TIP3    H265124   6.391   4.402  14.747 -0.7147  1.6111 -0.5488
14545TIP3   OH265125   2.560   1.055  16.389  0.1692 -0.4556 -0.1646
14545TIP3    H165126   2.643   1.044  16.436  0.1270 -0.4882 -0.0972
14545TIP3    H265127   2.499   0.998  16.435 -0.6645  1.7408  1.6795
14546TIP3   OH265128   3.044   2.307   3.444  0.1176 -0.3117 -0.2805
14546TIP3    H165129   3.106   2.239   3.419  0.0947 -0.2424 -0.5282
14546TIP3    H265130   3.037   2.299   3.539 -1.4617 -2.0442 -0.4780
14547TIP3   OH265131   0.557   5.977   5.538 -0.4874  0.7823  0.3450
14547TIP3    H165132   0.478   5.964   5.485  0.1313 -0.3123 -0.3361
14547TIP3    H265133   0.552   5.911   5.606  0.4339 -0.1087 -0.4309
14548TIP3   OH265134   5.845   1.739  10.313 -0.2410 -0.4283  0.0874
14548TIP3    H165135   5.932   1.708  10.289 -0.5372 -0.4998 -0.9272
14548TIP3    H265136   5.845   1.739  10.409  1.3189  0.7877  0.1305
14549TIP3   OH265137   0.620   4.184   3.558 -0.3930 -0.4061  0.0891
14549TIP3    H165138   0.570   4.249   3.509  1.7608  1.7888  0.6220
14549TIP3    H265139   0.681   4.148   3.494 -0.9856 -1.3111  0.0114
14550TIP3   OH265140   5.755   6.248   5.175 -0.6666  0.2014  0.1123
14550TIP3    H165141   5.828   6.308   5.185  0.0810 -0.6153 -0.2394
14550TIP3    H265142   5.780   6.170   5.225 -0.1980 -1.0120 -1.8797
14551TIP3   OH265143   2.807   6.428  15.187  0.1531  0.5261 -0.4379
14551TIP3    H165144   2.759   6.350  15.214  1.3100 -0.3323 -0.7611
14551TIP3    H265145   2.804   6.426  15.091 -1.6600  2.0953 -0.4546
14552TIP3   OH265146   3.515   2.138   1.826 -0.5036 -0.3070 -0.3707
14552TIP3    H165147   3.599   2.109   1.860 -0.6491 -1.5639 -1.0310
14552TIP3    H265148   3.537   2.198   1.755 -0.1925  0.7726  0.6165
14553TIP3   OH265149   2.863   2.792  15.406 -0.5747  0.3408  0.0308
14553TIP3    H165150   2.802   2.769  15.475 -1.6032  1.1210 -0.5801
14553TIP3    H265151   2.859   2.888  15.401 -0.4395  0.3044 -1.0314
14554TIP3   OH265152   0.737   0.632   4.596 -0.0235 -0.6696 -0.0469
14554TIP3    H165153   0.688   0.603   4.519  1.5954 -0.6256 -1.1341
14554TIP3    H265154   0.693   0.589   4.669 -1.1417 -1.3269 -1.0584
14555TIP3   OH265155   5.377   1.968   5.039  0.2200  0.2398 -0.3870
14555TIP3    H165156   5.381   1.894   4.978 -0.4742  0.2315 -0.4323
14555TIP3    H265157   5.393   2.045   4.985  1.1148  0.1212 -0.3117
14556TIP3   OH265158   2.098   2.781  17.145 -0.0436  0.4417  0.0761
14556TIP3    H165159   2.183   2.811  17.177  1.3796 -0.3545 -2.6714
14556TIP3    H265160   2.084   2.697  17.190 -0.7172  1.7427  2.4820
14557TIP3   OH265161   0.335   6.488  11.980 -0.1342  0.0694  0.0667
14557TIP3    H165162   0.273   6.533  11.923 -0.0804 -3.0500 -2.7879
14557TIP3    H265163   0.280   6.429  12.032  0.1995 -0.6498 -0.3909
14558TIP3   OH265164   5.497   3.272   2.418  0.8022  0.6696 -0.0318
14558TIP3    H165165   5.484   3.261   2.324  0.2847 -1.1878  0.2086
14558TIP3    H265166   5.506   3.366   2.431  2.1483  0.8849 -2.0918
14559TIP3   OH265167   0.875   2.107   3.546  0.1685  0.2387 -0.4845
14559TIP3    H165168   0.942   2.141   3.488  0.9399 -1.6138 -0.7679
14559TIP3    H265169   0.881   2.012   3.535 -0.8656 -0.0703  1.3026
14560TIP3   OH265170   0.505   6.217   3.351 -0.1816 -0.0018  0.0988
14560TIP3    H165171   0.506   6.135   3.301  0.1393  0.3954 -0.5653
14560TIP3    H265172   0.597   6.230   3.377 -0.0443  0.6709 -0.6913
14561TIP3   OH265173   5.160   0.498   3.112 -0.1877 -0.3565 -0.0275
14561TIP3    H165174   5.236   0.555   3.098 -1.0692  1.1742  1.1610
14561TIP3    H265175   5.089   0.557   3.135 -1.8418 -1.7412 -1.3351
14562TIP3   OH265176   3.667   2.484  11.179  0.2627  0.5892  0.3178
14562TIP3    H165177   3.598   2.521  11.233 -0.9354 -0.1530 -0.6403
14562TIP3    H265178   3.625   2.470  11.094  1.8010  0.7873 -0.5059
14563TIP3   OH265179   5.079   3.115  10.956  0.0590  0.0375  0.1343
14563TIP3    H165180   5.094   3.199  10.913  1.3136  0.0514  0.5679
14563TIP3    H265181   5.136   3.054  10.910  0.0988 -0.3136  0.6424
14564TIP3   OH265182   2.165   0.335   2.775  0.0020  0.2530 -0.5288
14564TIP3    H165183   2.235   0.278   2.806 -1.3174  0.1797  2.6238
14564TIP3    H265184   2.132   0.291   2.696  1.1366 -1.5895 -0.0403
14565TIP3   OH265185   0.870   2.932   2.312  0.4913 -0.5017  0.5179
14565TIP3    H165186   0.934   2.996   2.281 -0.6609 -0.0671 -1.1217
14565TIP3    H265187   0.897   2.850   2.270 -2.3734  0.5040 -4.0696
14566TIP3   OH265188   5.301   0.138  11.990 -0.6335  0.2637  0.0216
14566TIP3    H165189   5.262   0.203  12.048  1.3117  0.3121  1.3638
14566TIP3    H265190   5.350   0.189  11.926  1.6090  0.2053  1.5888
14567TIP3   OH265191   4.352   5.322   0.298 -0.1502 -0.0777  0.0908
14567TIP3    H165192   4.399   5.311   0.381  0.4383  3.2671  0.3440
14567TIP3    H265193   4.419   5.345   0.235 -0.8877  0.0069 -0.6806
14568TIP3   OH265194   5.313   0.522  17.123 -0.5875 -0.2903 -0.2203
14568TIP3    H165195   5.352   0.574  17.052 -0.3019  0.5601  0.5379
14568TIP3    H265196   5.224   0.503  17.093 -0.8352  0.9968 -0.3562
14569TIP3   OH265197   4.644   4.040  12.843  0.5065  0.5369 -0.0998
14569TIP3    H165198   4.576   4.023  12.778  1.9347  0.6460 -1.6899
14569TIP3    H265199   4.642   4.135  12.856  0.4514  0.5555 -0.2428
14570TIP3   OH265200   4.868   0.302  11.594  0.2645  0.0697  0.3519
14570TIP3    H165201   4.900   0.224  11.639 -0.4047 -0.6524 -0.4120
14570TIP3    H265202   4.778   0.312  11.624  0.8188  1.5070  1.6947
14571TIP3   OH265203   5.989   4.800  15.686  0.0783 -0.4517 -0.6894
14571TIP3    H165204   6.062   4.853  15.655  0.5495 -0.9835 -0.5010
14571TIP3    H265205   5.951   4.762  15.606  0.7257 -1.0940 -0.7021
14572TIP3   OH265206   0.416   2.310  14.044 -0.0325  0.3477 -0.2164
14572TIP3    H165207   0.503   2.311  14.004  0.6754 -0.9167  1.1833
14572TIP3    H265208   0.432   2.286  14.136 -1.9360 -1.0829 -0.1833
14573TIP3   OH265209   1.706   4.045   1.780  0.0738 -0.4896 -0.5379
14573TIP3    H165210   1.788   4.091   1.760 -0.2797  0.0822 -0.7081
14573TIP3    H265211   1.690   4.065   1.873 -0.8581  1.0151 -0.9879
14574TIP3   OH265212   4.511   0.462   2.887  0.4107  1.0433 -0.9788
14574TIP3    H165213   4.498   0.551   2.855 -0.2990  0.3697 -2.7096
14574TIP3    H265214   4.541   0.413   2.810 -1.1603 -0.6230 -0.6119
14575TIP3   OH265215   1.553   6.091   1.881 -0.8667  0.4077 -1.1026
14575TIP3    H165216   1.585   6.069   1.794  0.9873 -0.9239 -0.1592
14575TIP3    H265217   1.577   6.015   1.935 -1.4986  1.4132  0.6660
14576TIP3   OH265218   4.790   5.892   5.833 -0.4395 -0.4538 -0.5814
14576TIP3    H165219   4.838   5.897   5.915  0.2991 -0.1362 -1.0315
14576TIP3    H265220   4.700   5.913   5.857 -0.0182  0.7895 -0.0398
14577TIP3   OH265221   1.400   1.931  13.282  0.0204 -0.4075  0.0805
14577TIP3    H165222   1.387   1.852  13.334 -0.9282  0.1799  0.7658
14577TIP3    H265223   1.323   1.936  13.226  0.2463 -0.1527 -0.2151
14578TIP3   OH265224   4.557   4.318  16.411  0.3250 -0.3697 -0.4574
14578TIP3    H165225   4.640   4.309  16.365 -0.3646 -0.3037 -1.7592
14578TIP3    H265226   4.523   4.403  16.382 -0.2775 -0.4663 -0.0553
14579TIP3   OH265227   6.489   2.088  14.741 -0.1356 -0.7522  0.3791
14579TIP3    H165228   6.403   2.125  14.720  0.0837 -0.7151 -0.4771
14579TIP3    H265229   6.488   2.078  14.836 -1.8042 -2.4807  0.2362
14580TIP3   OH265230   6.237   0.902  14.653  0.1904  0.5865  0.9939
14580TIP3    H165231   6.152   0.861  14.637  0.0360  1.1349  0.3694
14580TIP3    H265232   6.218   0.973  14.714 -0.1539  1.9423 -0.6200
14581TIP3   OH265233   1.635   0.018   4.958  0.0270 -0.1913  0.0128
14581TIP3    H165234   1.608   0.093   4.905  0.7960 -0.7477 -1.1949
14581TIP3    H265235   1.574  -0.052   4.935  0.1157 -0.3212  0.1657
14582TIP3   OH265236   4.153   2.322  15.925 -0.0567 -0.2704  0.6377
14582TIP3    H165237   4.244   2.315  15.953 -0.2832 -0.2442  1.4033
14582TIP3    H265238   4.102   2.293  16.001 -0.6866 -0.3303  0.2020
14583TIP3   OH265239   4.553   5.434  16.987 -0.6467  0.3381  0.6895
14583TIP3    H165240   4.494   5.499  16.950  0.6034  0.5880 -0.9999
14583TIP3    H265241   4.564   5.369  16.917  0.1600 -0.3125  1.3954
14584TIP3   OH265242   3.383   3.169  11.530  0.2559 -0.3699  0.9531
14584TIP3    H165243   3.442   3.244  11.522  0.0221 -0.2588  0.0994
14584TIP3    H265244   3.441   3.093  11.524  0.6235 -0.2915  2.8891
14585TIP3   OH265245   5.394   2.187  11.638  0.2082  0.2764  0.3364
14585TIP3    H165246   5.378   2.281  11.642  0.6996  0.4900 -1.6852
14585TIP3    H265247   5.415   2.170  11.546  2.7841 -1.3599  1.1104
14586TIP3   OH265248   3.611   6.286   4.111  0.0764  0.0458  0.4753
14586TIP3    H165249   3.647   6.273   4.199 -1.0493  1.8231  1.2395
14586TIP3    H265250   3.518   6.264   4.120  0.5155 -3.1242 -1.1532
14587TIP3   OH265251   5.872   0.415  13.864 -0.6331 -0.3990 -0.1719
14587TIP3    H165252   5.878   0.479  13.793  0.0721  1.4551  1.4638
14587TIP3    H265253   5.786   0.429  13.902  0.6063  1.8294  2.0905
14588TIP3   OH265254   5.868   1.927  14.847  0.2331  0.1164 -1.1033
14588TIP3    H165255   5.942   1.979  14.816  0.5917 -0.0756 -0.5841
14588TIP3    H265256   5.828   1.980  14.916  0.1400  0.0381 -1.0971
14589TIP3   OH265257   2.727   5.086   2.761  0.0488  0.1707  0.0525
14589TIP3    H165258   2.706   5.003   2.805 -1.6393  0.4898 -0.1141
14589TIP3    H265259   2.769   5.059   2.679  2.3209 -0.4411  1.3249
14590TIP3   OH265260   3.774   0.108  14.707  0.1649  0.3253  0.1929
14590TIP3    H165261   3.767   0.112  14.612 -1.6477 -0.3541  0.2562
14590TIP3    H265262   3.844   0.046  14.724  1.9848  2.0449 -0.6601
14591TIP3   OH265263   3.105   1.735   3.526  0.0940  0.5388  0.2559
14591TIP3    H165264   3.184   1.764   3.571 -0.3729 -0.2829  1.6585
14591TIP3    H265265   3.093   1.798   3.455  1.9451  0.7280  0.0745
14592TIP3   OH265266   4.925   5.703   0.481  0.1618  0.3450  0.3459
14592TIP3    H165267   4.935   5.765   0.553  0.0042  0.3109  0.3961
14592TIP3    H265268   4.902   5.758   0.405  1.9926  0.5926 -0.0877
14593TIP3   OH265269   2.477   3.497  13.016  0.1700  1.0694 -0.0751
14593TIP3    H165270   2.508   3.421  12.967 -0.3435  1.0018 -0.3004
14593TIP3    H265271   2.387   3.476  13.040  0.3484  1.1754  0.7480
14594TIP3   OH265272   5.117   1.441  13.975 -0.1026 -0.2817  0.5667
14594TIP3    H165273   5.184   1.373  13.972  0.6256  0.4400  0.1174
14594TIP3    H265274   5.041   1.401  13.933 -0.6803 -1.8401  2.9061
14595TIP3   OH265275   3.186   1.271   3.977 -0.1322 -0.1774  0.1610
14595TIP3    H165276   3.161   1.188   4.017 -0.9376  0.6623  1.4991
14595TIP3    H265277   3.140   1.337   4.029 -0.4822  1.0436 -1.6123
14596TIP3   OH265278   3.187   1.821  11.836 -0.0867 -0.4848  0.5803
14596TIP3    H165279   3.220   1.887  11.775  1.2626 -1.4288  0.2423
14596TIP3    H265280   3.242   1.830  11.913 -0.1538 -0.9495  0.6840
14597TIP3   OH265281   0.906   4.158   5.856  0.2332  0.1036  0.1317
14597TIP3    H165282   0.999   4.140   5.871  0.1802  0.1452  0.5115
14597TIP3    H265283   0.897   4.160   5.761  0.6188  0.0849  0.0949
14598TIP3   OH265284   6.019   3.276  11.059 -0.1731 -0.4076  0.1122
14598TIP3    H165285   6.063   3.358  11.034  0.4849 -0.3536  1.3613
14598TIP3    H265286   5.962   3.256  10.985 -0.6336  1.3779 -0.0597
14599TIP3   OH265287   2.741   3.262   6.611  0.1769  0.0793  0.0202
14599TIP3    H165288   2.748   3.311   6.529 -0.9484  1.9920  1.0146
14599TIP3    H265289   2.832   3.248   6.638  0.5457  1.5792 -0.3442
14600TIP3   OH265290   6.128   3.020   2.202  0.7975  0.2497 -0.8085
14600TIP3    H165291   6.104   2.966   2.277  0.3437  0.5082 -0.7673
14600TIP3    H265292   6.073   2.987   2.131 -0.6560  1.6754 -0.4118
14601TIP3   OH265293   1.366   6.502  11.366 -0.3300 -0.2561 -0.0676
14601TIP3    H165294   1.316   6.536  11.440 -1.7592 -3.0991  0.4026
14601TIP3    H265295   1.338   6.555  11.292 -2.4400 -0.3556  0.5960
14602TIP3   OH265296   2.501   0.828   3.189  0.2666 -0.1549  0.6803
14602TIP3    H165297   2.498   0.921   3.166 -0.3380 -0.3593 -0.1274
14602TIP3    H265298   2.424   0.791   3.146  0.0999 -0.9054  1.5922
14603TIP3   OH265299   6.729   3.854   5.157  0.1293 -0.3135 -0.2636
14603TIP3    H165300   6.755   3.841   5.065  0.3786 -1.6470 -0.0259
14603TIP3    H265301   6.733   3.766   5.195 -0.6197  0.1268  0.8636
14604TIP3   OH265302   1.374   6.097  12.789 -0.0892 -0.4758  0.0707
14604TIP3    H165303   1.323   6.016  12.785 -0.4124 -0.4903  2.8075
14604TIP3    H265304   1.456   6.076  12.745 -1.1854 -1.4169 -1.6319
14605TIP3   OH265305   5.329   0.301   2.930 -0.8677  0.0309 -0.0223
14605TIP3    H165306   5.266   0.372   2.947  0.4736  1.2349  0.0755
14605TIP3    H265307   5.321   0.244   3.007 -2.5485 -0.4079 -0.4758
14606TIP3   OH265308   3.154   3.918   3.121 -0.0989  0.1625 -0.0840
14606TIP3    H165309   3.197   3.865   3.054 -1.1035 -1.2945  0.3785
14606TIP3    H265310   3.213   3.913   3.196 -0.1179 -0.2049 -0.0894
14607TIP3   OH265311   1.790   1.392   2.142 -0.6255  0.0032 -0.1800
14607TIP3    H165312   1.699   1.379   2.168 -1.1854 -2.1064 -2.7179
14607TIP3    H265313   1.838   1.399   2.225 -2.9804  0.6029  1.2224
14608TIP3   OH265314   3.293   1.401  12.468  0.4480  0.4560  0.4799
14608TIP3    H165315   3.321   1.373  12.380 -0.0916  1.7933 -0.1468
14608TIP3    H265316   3.330   1.335  12.527  0.1391 -0.9213 -0.8150
14609TIP3   OH265317   4.659   0.766   2.075  0.3665 -0.0833  0.0035
14609TIP3    H165318   4.736   0.809   2.039 -0.8039  2.0202 -0.1352
14609TIP3    H265319   4.644   0.810   2.159 -0.4766 -0.6972  0.1836
14610TIP3   OH265320   4.460   4.153  13.822  0.4001 -0.1767  0.3154
14610TIP3    H165321   4.415   4.221  13.774  0.3081 -0.8221 -0.5286
14610TIP3    H265322   4.397   4.081  13.828  0.9028 -0.6390  0.1465
14611TIP3   OH265323   4.683   0.690   5.372  0.0996 -0.1494  0.5471
14611TIP3    H165324   4.595   0.697   5.333  0.2229 -1.7373 -0.0951
14611TIP3    H265325   4.739   0.665   5.299  1.0980  0.7987  0.9727
14612TIP3   OH265326   4.616   0.511   1.990 -0.4126  0.0936  0.1145
14612TIP3    H165327   4.630   0.601   2.019 -2.5414  0.6560 -0.4324
14612TIP3    H265328   4.670   0.502   1.911  0.4662  0.5840  0.6461
14613TIP3   OH265329   5.780   6.527   1.078 -0.6345 -0.2588 -0.0254
14613TIP3    H165330   5.801   6.461   1.012  0.8226  0.0442  0.1043
14613TIP3    H265331   5.757   6.476   1.156  0.3841 -0.6266  0.0455
14614TIP3   OH265332   5.352   2.645   1.625 -0.0179  0.1949  0.0500
14614TIP3    H165333   5.273   2.668   1.675 -0.5673  0.2201 -0.8119
14614TIP3    H265334   5.320   2.623   1.538  0.8626 -0.4507 -0.1325
14615TIP3   OH265335   3.817   0.774  13.272  0.3476  0.1797 -0.4230
14615TIP3    H165336   3.781   0.836  13.335  0.8493 -1.0928  1.1700
14615TIP3    H265337   3.827   0.825  13.191 -2.6009  1.2485 -0.2596
14616TIP3   OH265338   6.019   3.050   1.047 -0.1832 -0.1074 -0.4008
14616TIP3    H165339   6.111   3.033   1.026  0.3173  1.2152  0.5833
14616TIP3    H265340   6.012   3.033   1.141 -0.7022  0.7410 -0.2751
14617TIP3   OH265341   3.568   5.833  16.357  0.2561  0.1447 -0.2142
14617TIP3    H165342   3.562   5.741  16.331  0.0281  0.0105  0.2921
14617TIP3    H265343   3.660   5.845  16.379  0.9748  0.8599 -3.1621
14618TIP3   OH265344   0.803   5.552  16.371 -0.1690  0.0865 -0.2449
14618TIP3    H165345   0.840   5.463  16.370 -1.2960 -0.4070  0.0374
14618TIP3    H265346   0.876   5.609  16.347  0.3692 -0.9921 -1.2526
14619TIP3   OH265347   4.032   5.885   2.909  0.4146  0.3641 -0.4337
14619TIP3    H165348   4.081   5.968   2.903  0.0545  0.6377  0.2777
14619TIP3    H265349   4.041   5.846   2.823  2.1994  0.2314 -0.2150
14620TIP3   OH265350   4.268   2.494   2.818  0.3960  0.5759  0.3879
14620TIP3    H165351   4.231   2.482   2.906 -0.2455 -0.5049 -0.0173
14620TIP3    H265352   4.357   2.527   2.835  0.2679  0.4325  1.4425
14621TIP3   OH265353   5.184   2.314   5.586  0.5469  1.5928 -0.0976
14621TIP3    H165354   5.095   2.318   5.552  0.9450  1.1888 -1.2510
14621TIP3    H265355   5.217   2.403   5.575  0.4438  1.6283 -0.1211
14622TIP3   OH265356   2.465   6.437   4.723 -0.2720 -0.2209  0.0633
14622TIP3    H165357   2.441   6.509   4.664  0.7555 -0.2505 -0.4130
14622TIP3    H265358   2.530   6.386   4.673 -2.8397 -3.0284 -0.6773
14623TIP3   OH265359   1.589   2.368  15.312 -0.1766  0.5431  0.1298
14623TIP3    H165360   1.514   2.385  15.369  0.0986 -0.0080  0.6642
14623TIP3    H265361   1.550   2.340  15.229 -0.5836 -1.5768  0.9652
14624TIP3   OH265362   1.474   0.413  16.771  0.0877  0.6012  0.2268
14624TIP3    H165363   1.421   0.434  16.694  1.3978  0.1466 -0.8259
14624TIP3    H265364   1.559   0.388  16.736  0.0534 -1.8858  1.6506
14625TIP3   OH265365   3.682   3.145   1.122  0.2299 -0.3146 -0.5468
14625TIP3    H165366   3.768   3.155   1.162  0.4131  0.5493 -1.1353
14625TIP3    H265367   3.627   3.210   1.166 -0.2838 -1.2701  0.2489
14626TIP3   OH265368   1.592   5.610  13.245 -0.2141 -0.3659  0.6160
14626TIP3    H165369   1.555   5.644  13.163 -0.5616 -0.3588  0.7723
14626TIP3    H265370   1.683   5.591  13.224 -0.6164 -1.5896 -0.1527
14627TIP3   OH265371   0.481   3.250   2.125 -0.9071  0.0646 -0.1374
14627TIP3    H165372   0.500   3.159   2.148 -1.4488 -0.1413 -0.4886
14627TIP3    H265373   0.566   3.294   2.130 -0.8530 -0.1552  1.3821
14628TIP3   OH265374   1.833   4.441   2.856 -0.3622  0.1553  0.2688
14628TIP3    H165375   1.912   4.388   2.853  0.0574  0.7923 -2.2146
14628TIP3    H265376   1.865   4.531   2.861 -0.8942  0.4297 -0.9637
14629TIP3   OH265377   3.844   2.955  13.131 -0.1168  0.2142  0.1490
14629TIP3    H165378   3.898   3.029  13.160  0.0083 -0.5136  1.9582
14629TIP3    H265379   3.762   2.994  13.103  0.2119  1.1003  0.3798
14630TIP3   OH265380   3.721   3.460   1.564 -1.2067 -0.1829  0.3657
14630TIP3    H165381   3.737   3.433   1.654 -0.0042  1.3816  0.6688
14630TIP3    H265382   3.692   3.551   1.571 -2.4366 -0.4565 -0.7594
14631TIP3   OH265383   0.909   1.652   0.191  0.3109 -0.0118  0.0863
14631TIP3    H165384   0.817   1.626   0.181 -0.3583  1.8557  0.9054
14631TIP3    H265385   0.923   1.717   0.122  0.4418  1.0423  1.0706
14632TIP3   OH265386   3.556   1.209   6.233  0.2988 -0.1365 -0.3054
14632TIP3    H165387   3.583   1.171   6.149  1.5671 -0.6101  0.2902
14632TIP3    H265388   3.596   1.152   6.299  0.4875  1.0269  0.6149
14633TIP3   OH265389   2.205   0.683   2.357 -1.0100 -0.0380 -0.3577
14633TIP3    H165390   2.112   0.708   2.358 -0.9905  0.1243 -1.5127
14633TIP3    H265391   2.210   0.609   2.418 -1.1716  2.3188  2.7287
14634TIP3   OH265392   2.068   1.868   6.649  0.6683  0.1156  0.3477
14634TIP3    H165393   2.059   1.823   6.565  0.0116  2.5385 -0.9773
14634TIP3    H265394   2.162   1.864   6.668  0.6410 -1.6596  0.2484
14635TIP3   OH265395   1.276   1.830   2.265  0.5285  0.0189  0.0448
14635TIP3    H165396   1.270   1.913   2.312  0.5956  0.2909 -0.4240
14635TIP3    H265397   1.348   1.784   2.308 -0.4933 -0.4428  1.2956
14636TIP3   OH265398   1.090   4.740   2.121  0.0425 -0.6722 -0.1878
14636TIP3    H165399   1.077   4.674   2.054 -1.4430 -0.7209  0.1201
14636TIP3    H265400   1.045   4.706   2.198 -0.4415  0.5191  0.0819
14637TIP3   OH265401   0.648   2.878  16.783 -0.0833 -0.7045  0.3690
14637TIP3    H165402   0.684   2.806  16.732  1.8275  1.3027 -1.2848
14637TIP3    H265403   0.681   2.864  16.872  2.8090 -0.3107 -0.5653
14638TIP3   OH265404   0.437   4.223   6.127 -0.6119  0.6181 -0.0080
14638TIP3    H165405   0.487   4.271   6.061 -0.4290  1.3003  0.6143
14638TIP3    H265406   0.459   4.266   6.210  0.5406 -1.2773  0.7584
14639TIP3   OH265407   4.534   6.274  15.825 -0.2487 -0.1374  0.7473
14639TIP3    H165408   4.454   6.324  15.809 -1.5712 -2.0280  1.1111
14639TIP3    H265409   4.514   6.187  15.792  1.6944 -0.6644  0.8653
14640TIP3   OH265410   3.772   0.093  17.061 -0.0715  0.6618 -0.3145
14640TIP3    H165411   3.681   0.115  17.079 -0.1713  1.1137 -1.3303
14640TIP3    H265412   3.784   0.006  17.100 -0.5795  1.1188  0.8943
14641TIP3   OH265413   5.579   4.735  14.969  0.0194  0.0205  0.2813
14641TIP3    H165414   5.593   4.703  15.058 -0.5662 -1.6416 -0.1894
14641TIP3    H265415   5.666   4.733  14.928 -0.2084 -2.9306 -0.3063
14642TIP3   OH265416   0.664   2.287  11.593  0.0869  0.1954 -0.3833
14642TIP3    H165417   0.643   2.252  11.506  0.7814  0.0327 -0.4914
14642TIP3    H265418   0.731   2.227  11.627 -0.2488  0.2032  0.3042
14643TIP3   OH265419   3.921   1.328   0.788  0.0784 -0.4370 -0.1720
14643TIP3    H165420   3.984   1.255   0.788  1.6771  0.8300  1.8287
14643TIP3    H265421   3.970   1.402   0.754 -1.2831 -0.0634 -1.4006
14644TIP3   OH265422   4.872   3.328  13.215  0.2523 -0.2412 -0.2595
14644TIP3    H165423   4.806   3.277  13.168  1.5667  0.3005 -2.8420
14644TIP3    H265424   4.956   3.294  13.183  1.3861 -1.4344  3.4760
14645TIP3   OH265425   1.799   1.037   3.214  0.1279  0.3299  0.1734
14645TIP3    H165426   1.855   1.078   3.148  0.0660  0.9079  0.4746
14645TIP3    H265427   1.711   1.036   3.175  0.4289 -1.1201 -0.5442
14646TIP3   OH265428   2.379   6.384  14.579 -0.4085  0.0303  0.2077
14646TIP3    H165429   2.308   6.421  14.526 -1.3915 -0.3280  1.2396
14646TIP3    H265430   2.457   6.432  14.552 -1.1496  0.8514 -0.5249
14647TIP3   OH265431   2.345   0.197  15.318 -0.3489 -0.1127 -0.5987
14647TIP3    H165432   2.419   0.169  15.373 -0.5846 -0.7385 -0.5891
14647TIP3    H265433   2.334   0.126  15.255  0.3163  0.8866 -1.8722
14648TIP3   OH265434   4.799   6.024  10.713 -0.2374 -0.0082  0.3340
14648TIP3    H165435   4.802   5.929  10.713 -2.4849 -0.2003  2.5321
14648TIP3    H265436   4.864   6.050  10.778 -0.5047 -0.1343  0.6544
14649TIP3   OH265437   4.346   1.865  12.328 -0.2592  0.0336  0.3507
14649TIP3    H165438   4.440   1.848  12.336 -0.6888 -2.1221  1.4638
14649TIP3    H265439   4.321   1.822  12.247 -0.7348 -1.8263  1.4378
14650TIP3   OH265440   2.373   0.307   4.531 -0.4096  0.3942 -0.8477
14650TIP3    H165441   2.390   0.378   4.593  1.2231  1.3803 -2.3259
14650TIP3    H265442   2.431   0.236   4.559 -0.7115  0.2974 -0.4472
14651TIP3   OH265443   5.354   2.285   5.803 -0.0392  0.4513  0.0350
14651TIP3    H165444   5.303   2.276   5.723  0.0600  0.1782 -0.0002
14651TIP3    H265445   5.325   2.368   5.841  0.5592  1.0374 -0.7467
14652TIP3   OH265446   5.229   4.616  12.625 -0.1980  0.1999 -0.8629
14652TIP3    H165447   5.306   4.671  12.641 -0.5139  0.5539 -0.5424
14652TIP3    H265448   5.256   4.528  12.652  0.0622  0.3379 -0.6725
14653TIP3   OH265449   2.275   5.928  15.773  0.1407  0.3504  0.4773
14653TIP3    H165450   2.354   5.901  15.727 -1.3144  1.0670 -2.7656
14653TIP3    H265451   2.225   5.977  15.708 -3.1325 -0.3197  2.2515
14654TIP3   OH265452   5.922   4.362  12.278  0.2696  0.5998  0.0213
14654TIP3    H165453   5.985   4.392  12.344 -0.8447  0.4006  1.2138
14654TIP3    H265454   5.873   4.293  12.322 -0.4186  0.3653 -1.0823
14655TIP3   OH265455   3.725   4.791  14.772 -0.3274  0.2741 -0.2299
14655TIP3    H165456   3.685   4.758  14.852  0.3095 -0.2649 -0.1235
14655TIP3    H265457   3.802   4.736  14.759 -0.5674  0.1843 -1.3639
14656TIP3   OH265458   4.165   5.830  13.828 -0.1711 -0.1495  0.9274
14656TIP3    H165459   4.097   5.843  13.894 -0.3953  1.1043  0.4870
14656TIP3    H265460   4.237   5.789  13.875 -1.6049 -2.5865  1.1712
14657TIP3   OH265461   6.672   1.213   0.511  0.1705 -0.0117 -0.8293
14657TIP3    H165462   6.671   1.139   0.572  1.5390 -0.0486 -0.8167
14657TIP3    H265463   6.581   1.222   0.483 -0.3780 -0.4460  0.6748
14658TIP3   OH265464   6.119   6.747   3.027 -0.1524 -0.0013 -0.3394
14658TIP3    H165465   6.183   6.782   3.089  1.3497  1.1813 -2.4002
14658TIP3    H265466   6.096   6.822   2.972 -0.8363 -1.1372 -1.6629
14659TIP3   OH265467   3.591   2.543  10.592  0.6926  0.4507 -0.0891
14659TIP3    H165468   3.630   2.583  10.515 -0.5968  0.6412 -0.6610
14659TIP3    H265469   3.574   2.452  10.567 -1.2557  0.9159 -0.6594
14660TIP3   OH265470   1.818   2.674  16.667 -0.3577  0.3345 -0.2375
14660TIP3    H165471   1.875   2.605  16.701  2.0930  2.0719 -0.5667
14660TIP3    H265472   1.836   2.676  16.573  0.1990  1.8919 -0.1234
14661TIP3   OH265473   0.476   3.548  15.646  0.1375 -0.5290  0.1560
14661TIP3    H165474   0.492   3.580  15.557  0.7974 -0.6304  0.2371
14661TIP3    H265475   0.454   3.627  15.696 -0.1674 -0.4621 -0.0797
14662TIP3   OH265476   5.117   2.569  12.872  0.2555 -0.1134  0.2902
14662TIP3    H165477   5.089   2.659  12.851  0.8605 -0.1890 -0.9415
14662TIP3    H265478   5.185   2.580  12.938 -0.6054  0.2470  1.1292
14663TIP3   OH265479   1.455   4.637  13.556 -0.1264 -0.2279 -0.0689
14663TIP3    H165480   1.393   4.591  13.612  1.0497 -0.9737  0.6851
14663TIP3    H265481   1.401   4.693  13.500 -1.3719  0.2504  1.5311
14664TIP3   OH265482   1.057   3.916   0.500 -0.2617  0.3796  0.1424
14664TIP3    H165483   0.987   3.852   0.493 -0.3140  0.5715 -1.5121
14664TIP3    H265484   1.012   4.000   0.511 -0.2132  0.2704  1.3276
14665TIP3   OH265485   1.125   2.734   4.856  0.0432  0.0754  0.0112
14665TIP3    H165486   1.184   2.808   4.870  0.2837  0.0232 -0.6690
14665TIP3    H265487   1.155   2.668   4.918 -0.6401  0.8017  1.1408
14666TIP3   OH265488   2.839   2.001  13.843  0.5909 -0.1579 -0.0391
14666TIP3    H165489   2.824   2.095  13.854  0.0310 -0.2560  0.0544
14666TIP3    H265490   2.932   1.989  13.861  0.8012  0.4691 -0.6583
14667TIP3   OH265491   3.443   3.917  16.454 -0.1891  0.3175 -0.3848
14667TIP3    H165492   3.471   3.865  16.530 -0.0096  1.1544  0.1358
14667TIP3    H265493   3.350   3.934  16.470  0.0271  1.1391  0.0432
14668TIP3   OH265494   0.779   3.022   2.877  0.4995  0.0930  1.0163
14668TIP3    H165495   0.703   3.009   2.820  0.1812  2.3708  0.8374
14668TIP3    H265496   0.849   2.973   2.834 -0.4013 -0.5303  0.1890
14669TIP3   OH265497   6.479   4.522  13.161  0.0381  0.3951  0.0003
14669TIP3    H165498   6.526   4.464  13.102  0.2738  0.7634 -0.1772
14669TIP3    H265499   6.459   4.468  13.237  0.4160  0.1294 -0.0872
14670TIP3   OH265500   5.923   6.649  14.421  0.4084  0.3024  0.2295
14670TIP3    H165501   6.010   6.622  14.393  1.1766  2.3321  0.4715
14670TIP3    H265502   5.907   6.599  14.501  1.1805 -0.3486 -0.0039
14671TIP3   OH265503   2.408   1.654  16.150 -0.8199  0.6621 -0.1920
14671TIP3    H165504   2.453   1.586  16.200 -0.6514  0.0295 -1.1645
14671TIP3    H265505   2.322   1.663  16.192 -0.1121  1.3000  1.1795
14672TIP3   OH265506   1.540   2.236   0.329 -0.0518 -0.6067 -0.8612
14672TIP3    H165507   1.529   2.272   0.241 -0.6264  2.1541  0.2381
14672TIP3    H265508   1.634   2.240   0.345 -0.2182  2.5763 -0.0388
14673TIP3   OH265509   5.907   0.555  16.424 -0.3665 -0.0363 -0.0037
14673TIP3    H165510   5.812   0.543  16.434 -0.2245 -1.6179 -0.2591
14673TIP3    H265511   5.927   0.515  16.339  0.4613  0.7936 -0.2162
14674TIP3   OH265512   3.763   3.722  12.043  0.7340 -0.7066 -0.0016
14674TIP3    H165513   3.815   3.781  11.989 -1.4760 -0.7074 -2.3238
14674TIP3    H265514   3.780   3.750  12.133  2.0266  1.5004 -0.8525
14675TIP3   OH265515   1.128   0.657  14.594  0.6406  0.2027  0.1222
14675TIP3    H165516   1.062   0.726  14.603  1.6541  0.9187  3.3464
14675TIP3    H265517   1.178   0.682  14.516 -2.8539 -0.5012 -2.5983
14676TIP3   OH265518   6.603   5.773   5.760  0.3214  0.3124 -0.4536
14676TIP3    H165519   6.557   5.855   5.779 -1.1931 -0.4414 -0.7724
14676TIP3    H265520   6.696   5.795   5.771 -0.1460  1.5417  1.4192
14677TIP3   OH265521   3.602   4.801  14.520 -0.0884 -0.3386  0.0505
14677TIP3    H165522   3.639   4.808  14.608  0.5083 -0.8649 -0.1445
14677TIP3    H265523   3.507   4.806  14.533  0.0377  1.7026  0.4931
14678TIP3   OH265524   1.800   6.568   3.427  0.6490  0.0555  0.1263
14678TIP3    H165525   1.805   6.618   3.346  0.8240  1.0212  0.7161
14678TIP3    H265526   1.769   6.481   3.400  0.5096  0.4226 -0.9369
14679TIP3   OH265527   0.235   0.341  15.742 -0.1626 -0.5877  0.1523
14679TIP3    H165528   0.230   0.411  15.807  0.5555 -1.2010  0.8930
14679TIP3    H265529   0.309   0.366  15.686 -0.7816 -0.0589 -0.4318
14680TIP3   OH265530   0.632   2.051  14.173  0.0696  0.0330 -0.0238
14680TIP3    H165531   0.695   2.037  14.244 -0.1278 -1.0503 -0.0348
14680TIP3    H265532   0.576   2.122  14.204 -0.7023 -1.1277  1.4457
14681TIP3   OH265533   3.825   4.194  16.179 -0.0771 -0.2347 -0.3723
14681TIP3    H165534   3.916   4.220  16.165  0.2402 -0.8204  0.5235
14681TIP3    H265535   3.821   4.172  16.272 -0.8881 -1.1644 -0.6187
14682TIP3   OH265536   0.980   1.683   4.556 -0.0994  0.1289 -0.1629
14682TIP3    H165537   0.983   1.599   4.510  0.9456  0.0546  0.0145
14682TIP3    H265538   0.978   1.660   4.649 -2.3277  0.2744 -0.1097
14683TIP3   OH265539   4.474   6.494   4.657 -0.5603  0.3692  0.3263
14683TIP3    H165540   4.448   6.479   4.566  0.2663 -0.4075  0.1950
14683TIP3    H265541   4.484   6.406   4.693 -2.3514  0.6492  1.6283
14684TIP3   OH265542   2.430   6.788  13.776  0.4098 -0.1806  0.1720
14684TIP3    H165543   2.516   6.830  13.765 -0.0172  1.1348  1.5494
14684TIP3    H265544   2.383   6.810  13.696  0.9624  0.0726 -0.0943
14685TIP3   OH265545   6.267   6.046  12.408  0.6377 -0.1106 -0.0772
14685TIP3    H165546   6.175   6.064  12.423  0.4497 -0.0678 -1.2121
14685TIP3    H265547   6.281   6.068  12.315  1.3643 -1.8263 -0.4014
14686TIP3   OH265548   1.161   5.826  14.736 -0.2558  0.2608 -0.7308
14686TIP3    H165549   1.103   5.777  14.677 -0.3280 -1.2086  0.4873
14686TIP3    H265550   1.118   5.910  14.746 -2.3665 -0.8607  0.2960
14687TIP3   OH265551   0.775   1.276  12.593  0.4595 -0.3698 -0.1230
14687TIP3    H165552   0.784   1.320  12.509 -0.9678 -0.3699 -0.2992
14687TIP3    H265553   0.748   1.345  12.653 -0.0710 -0.6587 -0.0204
14688TIP3   OH265554   3.197   5.728  13.212 -0.1158 -0.3382  0.4299
14688TIP3    H165555   3.123   5.790  13.209  1.2773  1.4770  1.3970
14688TIP3    H265556   3.275   5.784  13.212  1.2471 -2.1525  0.6495
14689TIP3   OH265557   2.145   1.512   0.697 -0.3070 -0.9024 -0.3373
14689TIP3    H165558   2.161   1.418   0.689 -1.5966 -1.1482 -0.2319
14689TIP3    H265559   2.185   1.549   0.618 -2.6143 -1.9493 -2.1221
14690TIP3   OH265560   5.312   3.481   0.402 -0.2636  0.2327 -0.0851
14690TIP3    H165561   5.315   3.440   0.316 -0.1218  0.7071 -0.3092
14690TIP3    H265562   5.289   3.572   0.385 -0.3263  0.3117  0.3880
14691TIP3   OH265563   4.623   6.581  16.822 -0.2342  0.7199  0.4089
14691TIP3    H165564   4.718   6.578  16.833 -0.2672  0.6469  0.6852
14691TIP3    H265565   4.606   6.662  16.774  0.0623  0.1949 -0.5998
14692TIP3   OH265566   4.532   1.627  15.157 -0.5953  0.5186 -0.0425
14692TIP3    H165567   4.586   1.594  15.229  0.0323  1.0358 -0.2689
14692TIP3    H265568   4.442   1.615  15.188 -0.4042 -1.3206 -0.0876
14693TIP3   OH265569   0.104   6.179  14.107 -0.3163 -0.1628  0.1364
14693TIP3    H165570   0.113   6.223  14.191 -0.2336  0.1442 -0.0319
14693TIP3    H265571   0.072   6.091  14.129  0.2539 -0.2746  0.5267
14694TIP3   OH265572   5.401   6.628  13.735  0.0561 -0.3994 -0.8548
14694TIP3    H165573   5.421   6.712  13.776 -0.3441 -0.8110  0.2236
14694TIP3    H265574   5.472   6.615  13.671  2.7135 -1.2786  2.0122
14695TIP3   OH265575   0.615   6.251  15.802 -0.1677 -0.0237  0.0144
14695TIP3    H165576   0.537   6.195  15.807 -0.8049  0.6858 -1.4095
14695TIP3    H265577   0.673   6.217  15.871 -1.2239 -1.3429  0.3060
14696TIP3   OH265578   4.899   0.905   6.011 -0.6286 -0.0386  0.0820
14696TIP3    H165579   4.824   0.928   6.066 -0.8652  1.2792 -0.7363
14696TIP3    H265580   4.968   0.966   6.039  0.3524 -1.6217  1.2325
14697TIP3   OH265581   0.103   0.186  15.311 -0.6530  0.1050 -0.0961
14697TIP3    H165582   0.026   0.187  15.368 -0.3597 -1.7584  0.3935
14697TIP3    H265583   0.081   0.247  15.241 -2.0526  0.5543  0.6796
14698TIP3   OH265584   2.376   4.353   3.617  0.0213  0.0993  0.1014
14698TIP3    H165585   2.429   4.413   3.566  0.0685  0.0179  0.0555
14698TIP3    H265586   2.434   4.323   3.687 -0.1718  0.5475  0.4635
14699TIP3   OH265587   4.963   0.545   1.640  0.0461 -0.3627  0.2166
14699TIP3    H165588   4.928   0.532   1.552 -0.4847 -1.6841  0.6055
14699TIP3    H265589   5.057   0.554   1.628  0.0780 -1.4266 -0.4206
14700TIP3   OH265590   5.149   5.493   5.512 -0.0902  0.4395  0.5229
14700TIP3    H165591   5.194   5.454   5.437  0.2961  2.0681 -0.1249
14700TIP3    H265592   5.060   5.508   5.482 -0.2279  0.1150  0.7601
14701TIP3   OH265593   4.604   0.942  16.959  0.6182 -0.0988 -0.0927
14701TIP3    H165594   4.668   0.984  17.016  1.3634 -2.9065  1.2850
14701TIP3    H265595   4.655   0.909  16.885  1.0571 -3.0175  1.3793
14702TIP3   OH265596   5.640   5.828   1.005 -0.8645  0.6072 -0.1520
14702TIP3    H165597   5.547   5.850   1.008 -1.5364 -1.8915 -0.2805
14702TIP3    H265598   5.651   5.779   0.923  0.8075  1.6982 -0.6339
14703TIP3   OH265599   2.938   2.376  14.576  0.4386 -0.2569  0.0610
14703TIP3    H165600   2.952   2.312  14.646  2.2737  0.0026 -0.0162
14703TIP3    H265601   2.899   2.451  14.620 -0.5116 -0.9087  0.3798
14704TIP3   OH265602   5.614   2.431   6.086  0.0297  0.2592 -0.3380
14704TIP3    H165603   5.520   2.441   6.070 -0.8742 -2.8934  1.9328
14704TIP3    H265604   5.630   2.337   6.079  2.7534  0.5468  0.6567
14705TIP3   OH265605   0.169   5.301  13.065  0.0830 -0.3736  0.4806
14705TIP3    H165606   0.223   5.377  13.086  0.5686 -0.0152 -1.7667
14705TIP3    H265607   0.082   5.323  13.098  0.9166 -0.2935  2.7732
14706TIP3   OH265608   6.355   4.244   5.371  0.6451 -0.2214 -0.0874
14706TIP3    H165609   6.289   4.215   5.434 -0.2220  0.7563 -0.5064
14706TIP3    H265610   6.411   4.304   5.421  0.7527 -0.4674  0.0850
14707TIP3   OH265611   1.885   2.562   5.396 -0.0917 -0.0733  0.8210
14707TIP3    H165612   1.885   2.629   5.327 -1.1646 -0.7885  0.0904
14707TIP3    H265613   1.975   2.531   5.399  0.0009  0.0655 -0.1830
14708TIP3   OH265614   6.012   1.682   3.811 -0.9568 -0.2480 -0.3088
14708TIP3    H165615   5.958   1.730   3.874 -1.6084  0.9974 -1.7617
14708TIP3    H265616   6.075   1.635   3.866 -2.6580 -0.7060  1.3574
14709TIP3   OH265617   2.383   4.127  12.715  0.3318 -0.3002  0.4462
14709TIP3    H165618   2.428   4.155  12.636 -1.2613 -1.1844 -0.8393
14709TIP3    H265619   2.297   4.170  12.711  0.5564  0.3902  2.1971
14710TIP3   OH265620   1.483   6.253  15.068 -0.1056  1.0248 -0.5588
14710TIP3    H165621   1.480   6.162  15.098 -0.0949  1.8666  2.2188
14710TIP3    H265622   1.569   6.285  15.096 -0.0521  1.8759 -1.6175
14711TIP3   OH265623   5.576   0.451   1.695  0.3127  0.3957  0.3468
14711TIP3    H165624   5.641   0.521   1.698  0.4205  0.4451 -1.6427
14711TIP3    H265625   5.627   0.371   1.702  0.3308  0.4740  1.1935
14712TIP3   OH265626   0.594   4.834   5.039 -0.6638  0.4423 -0.0614
14712TIP3    H165627   0.522   4.785   5.080 -0.9115  1.3939  0.6780
14712TIP3    H265628   0.596   4.917   5.087  1.9594 -0.1581  1.0187
14713TIP3   OH265629   3.393   1.222  14.680 -0.0179  0.1158 -0.2891
14713TIP3    H165630   3.383   1.162  14.754 -2.5923 -1.3607 -1.6861
14713TIP3    H265631   3.400   1.308  14.720  1.2711 -0.8293  1.7128
14714TIP3   OH265632   6.562   1.625  13.131  0.3397  0.6554  0.9859
14714TIP3    H165633   6.541   1.717  13.115  0.4426  0.5243  0.0566
14714TIP3    H265634   6.634   1.606  13.071 -0.0020 -0.1586  0.8218
14715TIP3   OH265635   6.201   1.796   4.984 -0.0399  0.1140 -0.1188
14715TIP3    H165636   6.182   1.709   4.946  0.1811  0.6816 -1.6049
14715TIP3    H265637   6.272   1.830   4.930 -0.2423  1.2916  0.3479
14716TIP3   OH265638   3.929   4.564   5.388  0.2871 -0.0972  0.6867
14716TIP3    H165639   4.007   4.560   5.444  1.8431 -0.3790 -1.3946
14716TIP3    H265640   3.961   4.598   5.305 -1.7869 -0.4763 -0.3193
14717TIP3   OH265641   5.452   2.923  15.683 -0.5808 -0.6043 -0.6416
14717TIP3    H165642   5.371   2.939  15.635 -1.0019 -1.7355 -0.3340
14717TIP3    H265643   5.424   2.905  15.773 -0.0140 -1.1988 -0.5739
14718TIP3   OH265644   2.953   4.302   2.624 -0.2053  0.2007  0.3052
14718TIP3    H165645   2.989   4.382   2.584 -1.1151  0.0028 -0.9461
14718TIP3    H265646   3.009   4.232   2.590 -0.1684  0.1736  0.4229
14719TIP3   OH265647   3.153   2.391  13.893  0.1954  0.6406  0.2280
14719TIP3    H165648   3.202   2.466  13.925  0.2720  0.8829 -0.4437
14719TIP3    H265649   3.144   2.407  13.799  2.0034 -1.2042 -0.3207
14720TIP3   OH265650   2.197   4.967   6.059  0.4639  0.0749 -0.2203
14720TIP3    H165651   2.264   4.899   6.062  0.7153  0.3397  0.1787
14720TIP3    H265652   2.116   4.921   6.081  0.9539  0.2955  2.2869
14721TIP3   OH265653   2.650   3.492   0.071 -0.5423  0.7489  0.4161
14721TIP3    H165654   2.590   3.447   0.011 -1.0125 -0.3002  1.6351
14721TIP3    H265655   2.653   3.582   0.038  0.3273 -0.0832 -2.0237
14722TIP3   OH265656   4.767   5.825  14.251 -0.2676  0.1349 -0.8011
14722TIP3    H165657   4.839   5.764  14.235  0.1445  0.7078 -1.1536
14722TIP3    H265658   4.786   5.862  14.337 -1.6552 -1.7884  0.4195
14723TIP3   OH265659   5.820   4.252   6.753 -0.6357  0.7049  0.1697
14723TIP3    H165660   5.804   4.255   6.659 -0.5268  0.7960  0.1548
14723TIP3    H265661   5.906   4.290   6.765  0.3120 -1.2784  0.0790
14724TIP3   OH265662   2.357   6.312  14.838 -0.5737  0.4391 -0.2446
14724TIP3    H165663   2.269   6.277  14.844  0.2086 -1.5694  0.3578
14724TIP3    H265664   2.374   6.319  14.744 -0.5525 -1.4492 -0.4117
14725TIP3   OH265665   2.159   2.651  12.217 -0.0486  0.2027  0.3144
14725TIP3    H165666   2.213   2.594  12.271 -1.3861 -2.2888 -0.8488
14725TIP3    H265667   2.211   2.666  12.138 -0.1407 -0.3056  0.1591
14726TIP3   OH265668   2.450   4.380  10.538 -0.0605  0.4170 -0.1569
14726TIP3    H165669   2.457   4.309  10.603 -2.4108  0.3391  0.1240
14726TIP3    H265670   2.528   4.433  10.551 -0.4384  0.4327  2.8230
14727TIP3   OH265671   6.525   3.153  14.844 -0.0857 -0.1366  0.2161
14727TIP3    H165672   6.520   3.149  14.939  0.5372  0.3569  0.2779
14727TIP3    H265673   6.467   3.226  14.820 -0.0340 -0.0876  0.2392
14728TIP3   OH265674   4.057   1.957  16.664 -0.1808  0.2838  0.7194
14728TIP3    H165675   4.114   1.883  16.686 -1.6758 -1.4021 -0.7398
14728TIP3    H265676   4.107   2.034  16.691  2.5673 -1.0992 -0.0068
14729TIP3   OH265677   2.068   5.891  10.942  0.1587 -0.1405 -0.3485
14729TIP3    H165678   2.030   5.932  10.864 -2.1752 -0.6157  0.4572
14729TIP3    H265679   2.058   5.957  11.010 -0.0228 -0.6112  0.0837
14730TIP3   OH265680   4.328   4.063  11.295  0.3678  0.2626 -0.7276
14730TIP3    H165681   4.267   4.127  11.331  1.9247  1.3416  0.0999
14730TIP3    H265682   4.302   4.053  11.204 -1.2825  0.3570 -0.3016
14731TIP3   OH265683   0.057   3.571   5.987 -0.1195  0.0296  0.4795
14731TIP3    H165684   0.117   3.605   6.054  0.8352 -0.1180 -0.2747
14731TIP3    H265685   0.102   3.494   5.951 -0.9825 -0.3667  0.2222
14732TIP3   OH265686   2.975   2.813  16.566  0.2089  0.2890 -0.4112
14732TIP3    H165687   3.034   2.738  16.574  0.7715  0.6521 -1.0311
14732TIP3    H265688   2.906   2.783  16.507  0.9799  0.5784 -1.4787
14733TIP3   OH265689   3.566   2.108  15.566  0.0779  0.5285  0.0623
14733TIP3    H165690   3.497   2.122  15.631  0.2958  0.8030  0.2425
14733TIP3    H265691   3.520   2.095  15.484 -0.1920  0.6222  0.1962
14734TIP3   OH265692   1.579   0.901   0.039  0.0520  0.2519  0.1355
14734TIP3    H165693   1.612   0.932   0.123  0.2447  2.6007 -0.7459
14734TIP3    H265694   1.649   0.920  -0.024 -0.9309  0.5356 -0.9107
14735TIP3   OH265695   1.232   3.313   4.116 -0.0656 -0.0380  0.2205
14735TIP3    H165696   1.204   3.222   4.122  0.3416 -0.3172 -1.6319
14735TIP3    H265697   1.162   3.362   4.160 -1.1613 -1.0908 -0.2791
14736TIP3   OH265698   3.834   0.728   5.502 -0.3377 -0.3802 -0.1150
14736TIP3    H165699   3.823   0.812   5.547  1.7914 -1.4874  2.7651
14736TIP3    H265700   3.754   0.717   5.451 -1.7630  2.2359  1.3666
14737TIP3   OH265701   0.546   6.048   3.779  0.4913 -0.1125 -0.1726
14737TIP3    H165702   0.506   6.055   3.866  1.3187 -0.9795  0.2928
14737TIP3    H265703   0.553   6.138   3.749  1.3374  0.3152  1.1959
14738TIP3   OH265704   2.286   2.719  16.706 -0.0934  0.1715  0.3590
14738TIP3    H165705   2.257   2.696  16.794 -1.0248  0.6597  0.1965
14738TIP3    H265706   2.254   2.808  16.692 -1.0653 -0.3254 -0.9028
14739TIP3   OH265707   3.800   4.722   2.867 -0.1383  0.8535 -0.1684
14739TIP3    H165708   3.797   4.630   2.842 -2.2429  0.6887  0.4998
14739TIP3    H265709   3.831   4.767   2.788 -2.0672 -0.1316 -1.5931
14740TIP3   OH265710   0.028   6.138   0.579  0.1576 -0.5946  0.7463
14740TIP3    H165711   0.089   6.071   0.608  1.6080  0.9957  1.5367
14740TIP3    H265712   0.021   6.198   0.653  0.7838  1.3838 -0.7154
14741TIP3   OH265713   4.660   1.953   6.401  0.1491  0.7978 -0.0335
14741TIP3    H165714   4.682   1.861   6.417  2.8920  1.9562  4.2993
14741TIP3    H265715   4.583   1.969   6.457 -0.6084  1.1029 -1.1287
14742TIP3   OH265716   2.071   3.278   0.997  0.2409 -0.4443 -0.3799
14742TIP3    H165717   2.101   3.239   1.080 -1.3762 -2.2262 -0.5474
14742TIP3    H265718   2.149   3.280   0.942  0.6283 -2.7099 -0.0272
14743TIP3   OH265719   5.365   3.277   1.574  0.3240 -0.2023 -0.4033
14743TIP3    H165720   5.283   3.230   1.581  0.8745 -0.9997  1.4791
14743TIP3    H265721   5.351   3.341   1.504 -1.8798 -0.3163 -0.1377
14744TIP3   OH265722   6.034   0.602   4.376  0.6838 -0.0724  0.2238
14744TIP3    H165723   6.035   0.574   4.285  2.0597  1.8502 -0.4059
14744TIP3    H265724   5.957   0.657   4.384  0.1380 -0.8486  0.4523
14745TIP3   OH265725   1.999   6.814  16.047  0.2996  0.5680  0.1031
14745TIP3    H165726   1.917   6.776  16.079 -1.0954  2.6587 -0.8341
14745TIP3    H265727   2.032   6.865  16.122  0.2026  0.5761  0.1407
14746TIP3   OH265728   3.991   0.281   4.435 -0.3531  0.6251  0.5531
14746TIP3    H165729   3.996   0.295   4.530 -0.2393  2.0511  0.3513
14746TIP3    H265730   4.045   0.351   4.398  0.5559 -0.6002 -0.5313
14747TIP3   OH265731   4.127   0.899  11.791  0.2703  0.1666  0.2069
14747TIP3    H165732   4.156   0.988  11.810  0.2727 -0.1996  2.0548
14747TIP3    H265733   4.162   0.881  11.703  1.9946  1.2602  0.6276
14748TIP3   OH265734   6.215   1.672   4.234 -0.6162  0.5838 -0.0944
14748TIP3    H165735   6.168   1.597   4.197 -2.7588  0.4271  2.5824
14748TIP3    H265736   6.162   1.748   4.212  1.0531  1.3000 -1.9798
14749TIP3   OH265737   0.501   3.883   1.242  0.2806 -0.6545  0.0896
14749TIP3    H165738   0.406   3.881   1.228  0.4123  0.2616 -1.1489
14749TIP3    H265739   0.512   3.859   1.334 -1.2108  0.0797  0.4967
14750TIP3   OH265740   4.662   5.203   0.277 -0.3968 -0.1178 -0.0167
14750TIP3    H165741   4.747   5.247   0.283 -0.8498  1.1768 -2.1685
14750TIP3    H265742   4.679   5.127   0.222 -0.2929 -0.9239  1.0825
14751TIP3   OH265743   3.468   4.265   4.306  0.9013  0.1022 -0.6463
14751TIP3    H165744   3.415   4.293   4.380 -0.5147 -2.3035 -0.6790
14751TIP3    H265745   3.408   4.265   4.232  0.5904 -3.2965 -0.5597
14752TIP3   OH265746   2.283   1.596   2.499 -0.3651  0.3376 -0.4655
14752TIP3    H165747   2.324   1.538   2.436  0.2974 -0.6404  0.8404
14752TIP3    H265748   2.229   1.539   2.554 -0.4317  1.0681  0.2568
14753TIP3   OH265749   6.613   6.578   4.335  0.2885 -0.3275  0.4726
14753TIP3    H165750   6.518   6.571   4.324  0.6212 -2.5975 -2.0097
14753TIP3    H265751   6.649   6.530   4.261  3.4010 -0.1868  1.7501
14754TIP3   OH265752   6.726   3.160   2.817 -0.2664 -0.0092  0.5062
14754TIP3    H165753   6.761   3.073   2.836  0.1748  0.2639  0.9757
14754TIP3    H265754   6.771   3.187   2.737  0.3048  0.1718  0.8818
14755TIP3   OH265755   3.336   3.155   2.420 -0.3883  0.6817 -0.2434
14755TIP3    H165756   3.358   3.248   2.424  0.5708  0.5224 -1.1761
14755TIP3    H265757   3.413   3.115   2.378 -0.5125 -0.6237  0.7257
14756TIP3   OH265758   5.190   5.848   4.063  0.7017 -0.2405 -0.0378
14756TIP3    H165759   5.245   5.834   3.987  1.3364 -0.2245  0.4105
14756TIP3    H265760   5.101   5.832   4.032  0.8760  0.5657 -0.9699
14757TIP3   OH265761   0.539   6.397  16.379 -0.5332  0.1052  0.2921
14757TIP3    H165762   0.600   6.411  16.452 -0.2286  1.5204 -0.1939
14757TIP3    H265763   0.452   6.403  16.418 -0.3780  1.4075  0.4768
14758TIP3   OH265764   5.498   4.968  15.158 -0.5053  0.1634 -0.0463
14758TIP3    H165765   5.447   4.942  15.235  0.0112 -0.5637  0.0681
14758TIP3    H265766   5.480   4.899  15.093 -1.0281  0.8307 -0.6252
14759TIP3   OH265767   4.952   5.516  16.924 -0.5323  0.5322  0.7942
14759TIP3    H165768   4.914   5.541  16.840 -0.0350 -3.1634 -0.6946
14759TIP3    H265769   5.019   5.451  16.902  1.1619  1.0092  3.9267
14760TIP3   OH265770   3.352   1.008   4.885 -0.5044  0.2888 -0.0317
14760TIP3    H165771   3.258   1.016   4.903 -0.4149 -0.3824  0.8296
14760TIP3    H265772   3.394   1.063   4.951 -0.2584 -0.3194  0.3311
14761TIP3   OH265773   4.143   4.461   5.201 -0.5842  0.2940  0.6551
14761TIP3    H165774   4.112   4.410   5.125  1.5414 -0.7607  0.4318
14761TIP3    H265775   4.141   4.399   5.274  0.8166  0.2034  0.6498
14762TIP3   OH265776   1.487   5.005   0.086  0.5586 -0.2834 -0.4254
14762TIP3    H165777   1.457   5.091   0.055 -0.2908  0.0431  1.2170
14762TIP3    H265778   1.452   4.943   0.022 -0.2531  0.4563 -0.7214
14763TIP3   OH265779   4.556   6.779  16.635  0.6129 -0.2672 -0.2218
14763TIP3    H165780   4.636   6.759  16.586  0.4850 -1.3109 -0.0289
14763TIP3    H265781   4.487   6.778  16.569  0.3407 -2.3449  0.0383
14764TIP3   OH265782   6.573   1.795  11.389 -0.4363  0.0049  0.3506
14764TIP3    H165783   6.535   1.749  11.314  0.2829 -0.2442  0.1320
14764TIP3    H265784   6.642   1.736  11.421  0.1304  0.6798  0.4076
14765TIP3   OH265785   4.721   5.635   4.728 -0.8306  0.1722 -0.2375
14765TIP3    H165786   4.648   5.674   4.777  1.7750  2.0052  2.5722
14765TIP3    H265787   4.740   5.554   4.775 -1.5753 -0.7583 -1.5102
14766TIP3   OH265788   3.215   6.281   1.396  0.2067  0.0596  0.2330
14766TIP3    H165789   3.260   6.281   1.481  0.9427 -0.8418 -0.1417
14766TIP3    H265790   3.130   6.242   1.415  0.9278 -1.5662  0.3063
14767TIP3   OH265791   2.026   6.133   4.327 -0.2153  0.3466  0.4046
14767TIP3    H165792   2.055   6.214   4.285 -0.9008  1.5989  2.2232
14767TIP3    H265793   1.948   6.158   4.376 -1.8439 -1.9570 -0.8193
14768TIP3   OH265794   6.566   0.978  13.284 -0.3095  0.5777  0.2329
14768TIP3    H165795   6.477   0.968  13.252 -0.7298  0.7256  1.3295
14768TIP3    H265796   6.571   0.922  13.361  0.3002  1.1813  0.6496
14769TIP3   OH265797   6.635   4.924   0.919  0.4067 -0.3601 -0.1028
14769TIP3    H165798   6.658   4.942   1.010  0.9087  0.8279 -0.4541
14769TIP3    H265799   6.719   4.912   0.875  0.1483 -1.8540 -0.2596
14770TIP3   OH265800   3.812   3.463  11.505  0.2526  0.1677 -0.0060
14770TIP3    H165801   3.826   3.558  11.504 -1.0397  0.3816 -0.4077
14770TIP3    H265802   3.898   3.426  11.486  0.3826  1.3391 -2.1022
14771TIP3   OH265803   2.300   6.577   2.020 -0.4620  0.2384 -0.0861
14771TIP3    H165804   2.316   6.534   1.936  1.3014  0.2229  0.2107
14771TIP3    H265805   2.292   6.669   1.998 -1.9595  0.0435 -0.4644
14772TIP3   OH265806   5.440   6.453  15.838  0.3731 -0.0673  0.0190
14772TIP3    H165807   5.449   6.514  15.765  1.0340 -1.8560 -1.4847
14772TIP3    H265808   5.346   6.455  15.859 -0.1467 -0.7263 -2.0375
14773TIP3   OH265809   3.572   1.332  13.940 -0.2292  0.2382 -0.3690
14773TIP3    H165810   3.536   1.360  13.856  1.2015  0.0850 -1.0702
14773TIP3    H265811   3.654   1.381  13.948  1.8035 -2.7665 -1.0995
14774TIP3   OH265812   4.340   4.375  13.693  0.4617  0.2365  0.2160
14774TIP3    H165813   4.275   4.394  13.626  1.9485  1.3896 -0.9889
14774TIP3    H265814   4.419   4.421  13.663  1.7510 -0.8794  1.7422
14775TIP3   OH265815   3.544   6.004  15.306 -0.0218  0.0626  0.6668
14775TIP3    H165816   3.545   6.043  15.218  0.9335  2.2915  1.5864
14775TIP3    H265817   3.452   6.000  15.330 -0.1850  1.1718  0.2658
14776TIP3   OH265818   6.397   6.707  16.784  0.0418 -0.1086 -0.0975
14776TIP3    H165819   6.399   6.795  16.823 -1.3074 -0.1412  0.1109
14776TIP3    H265820   6.489   6.686  16.767  0.6279  0.1992  2.4034
14777TIP3   OH265821   4.140   0.189   1.557  0.3458  0.0941  0.0254
14777TIP3    H165822   4.178   0.125   1.618 -1.2548 -2.3269 -1.3648
14777TIP3    H265823   4.046   0.187   1.576  0.0616  0.7321 -1.2348
14778TIP3   OH265824   4.197   1.110   0.737  0.1122  0.2249  0.2395
14778TIP3    H165825   4.270   1.050   0.719  0.2157  0.4444 -0.0841
14778TIP3    H265826   4.238   1.196   0.742 -0.0793  0.3066  0.4037
14779TIP3   OH265827   3.593   4.782   6.796  0.1006  0.1477 -0.1781
14779TIP3    H165828   3.662   4.836   6.835  0.7307  0.5820 -1.8499
14779TIP3    H265829   3.553   4.738   6.871  1.7595  0.3826  0.8879
14780TIP3   OH265830   2.266   4.504   2.719  0.2773  1.7336  0.3480
14780TIP3    H165831   2.203   4.545   2.660 -1.0003  1.1071  1.2350
14780TIP3    H265832   2.319   4.448   2.661 -0.9479  1.1242 -0.2397
14781TIP3   OH265833   2.532   0.093   2.190 -0.0909  0.0606 -0.3417
14781TIP3    H165834   2.561   0.091   2.099  1.6927 -0.4636  0.1807
14781TIP3    H265835   2.493   0.007   2.205 -0.3606  0.1379 -0.6085
14782TIP3   OH265836   6.223   5.767   1.715  0.0740 -0.3387  0.3410
14782TIP3    H165837   6.244   5.861   1.717  0.4871 -0.4379  0.8821
14782TIP3    H265838   6.128   5.763   1.711  0.0855  0.1193 -0.9583
14783TIP3   OH265839   3.074   3.479   0.410  0.0433  0.0514 -0.7919
14783TIP3    H165840   3.006   3.536   0.445  0.0970 -0.8829  0.8997
14783TIP3    H265841   3.156   3.521   0.435  0.0983  0.3949 -1.5255
14784TIP3   OH265842   3.250   1.303   6.426 -0.0408 -0.1994  0.0473
14784TIP3    H165843   3.200   1.338   6.500 -0.7621 -2.8421  0.8919
14784TIP3    H265844   3.338   1.340   6.438  0.1514 -1.3027  2.8632
14785TIP3   OH265845   0.463   2.307  12.120 -0.3257  0.1802 -0.0108
14785TIP3    H165846   0.490   2.295  12.029  0.7590 -0.1600  0.3435
14785TIP3    H265847   0.544   2.323  12.168 -0.7152 -0.9230  1.0969
14786TIP3   OH265848   1.327   0.044  14.328 -0.1877  0.0356  0.8904
14786TIP3    H165849   1.270   0.033  14.252 -0.6296 -2.6330  1.4777
14786TIP3    H265850   1.277   0.098  14.389 -0.2041  1.4290 -0.3122
14787TIP3   OH265851   1.289   6.145  14.138  0.5190 -0.1948  0.0378
14787TIP3    H165852   1.211   6.117  14.091  0.2272 -1.2241  1.0897
14787TIP3    H265853   1.257   6.173  14.224  1.3082 -0.8360  0.5591
14788TIP3   OH265854   6.012   1.351   2.429  0.3768  0.1265  0.2221
14788TIP3    H165855   6.051   1.293   2.494 -2.3583 -0.2712  1.6327
14788TIP3    H265856   6.004   1.298   2.350 -1.1250 -1.1479  1.1851
14789TIP3   OH265857   3.869   2.366   1.831 -0.2370  0.1516 -0.6770
14789TIP3    H165858   3.931   2.438   1.834 -0.1630  0.1192 -1.3266
14789TIP3    H265859   3.872   2.335   1.740  0.0246 -0.9178 -0.3246
14790TIP3   OH265860   0.704   4.136  15.908 -0.0863 -0.4339  0.0737
14790TIP3    H165861   0.635   4.197  15.882  1.5498  2.9556  2.8353
14790TIP3    H265862   0.685   4.115  16.000  1.3668 -1.2071  0.2355
14791TIP3   OH265863   6.116   5.097   3.231 -0.4941  0.4974 -0.2524
14791TIP3    H165864   6.161   5.013   3.237  0.6888  1.0627 -0.8707
14791TIP3    H265865   6.023   5.075   3.233 -0.2638 -0.6057  2.6288
14792TIP3   OH265866   6.375   6.822   4.954 -0.1123 -0.2619  0.8644
14792TIP3    H165867   6.315   6.817   5.028 -0.0351 -2.1208  0.8254
14792TIP3    H265868   6.405   6.733   4.940  0.6733  0.2145 -0.7709
14793TIP3   OH265869   4.404   0.187   1.036  0.7808 -0.0191 -0.3408
14793TIP3    H165870   4.345   0.245   1.084  1.5111  2.0136 -1.7569
14793TIP3    H265871   4.411   0.227   0.949 -0.4549 -3.4884 -2.2198
14794TIP3   OH265872   6.538   4.769  15.447  0.6804 -0.6500 -0.0140
14794TIP3    H165873   6.482   4.697  15.418 -1.6591  1.4465 -1.0484
14794TIP3    H265874   6.494   4.803  15.525  1.6056 -0.1771  0.3129
14795TIP3   OH265875   0.424   3.332  14.869 -0.3896 -0.0716  0.4159
14795TIP3    H165876   0.390   3.407  14.916 -0.3251  0.2343 -0.0220
14795TIP3    H265877   0.419   3.357  14.776  1.0497  0.0007  0.3389
14796TIP3   OH265878   0.631   1.608  16.183 -0.4000  0.5429 -0.4569
14796TIP3    H165879   0.587   1.673  16.237  2.0850  0.9921  1.2076
14796TIP3    H265880   0.587   1.525  16.204 -2.0091  1.2835 -0.7647
14797TIP3   OH265881   4.913   3.287  10.609  0.4218 -0.5288  0.2855
14797TIP3    H165882   4.948   3.375  10.616  2.3386 -1.3226  1.4007
14797TIP3    H265883   4.983   3.236  10.568 -0.5361 -1.6088 -0.0825
14798TIP3   OH265884   1.873   5.065   1.282  0.1535 -0.3252  0.3739
14798TIP3    H165885   1.852   5.004   1.211  0.3614  0.5035 -0.4244
14798TIP3    H265886   1.954   5.108   1.253 -0.3655  0.8305  0.5753
14799TIP3   OH265887   5.920   3.239  12.612  0.1409  0.2371 -0.4361
14799TIP3    H165888   5.998   3.197  12.648  0.6047 -2.8129 -4.3209
14799TIP3    H265889   5.946   3.268  12.525 -2.7686  0.1275 -1.4552
14800TIP3   OH265890   2.375   0.605  15.014 -0.8294 -0.1868 -0.2683
14800TIP3    H165891   2.362   0.638  15.102 -1.3745  1.0229 -0.7830
14800TIP3    H265892   2.301   0.640  14.964 -0.4141 -0.6764 -1.2566
14801TIP3   OH265893   1.886   3.713   0.789 -0.5379  0.2739  0.0654
14801TIP3    H165894   1.855   3.678   0.873 -1.4398  0.0929 -0.3305
14801TIP3    H265895   1.828   3.787   0.771 -0.6339  0.0366 -0.6176
14802TIP3   OH265896   3.801   5.409  15.564  0.9500 -0.1833  0.1227
14802TIP3    H165897   3.810   5.451  15.478  0.7768 -2.2901 -0.9808
14802TIP3    H265898   3.759   5.476  15.618 -2.7965 -0.0630 -2.5326
14803TIP3   OH265899   0.814   1.755  14.564  0.1276 -0.1721 -0.1650
14803TIP3    H165900   0.879   1.825  14.558  0.7888 -0.7720 -0.2644
14803TIP3    H265901   0.810   1.734  14.658  0.6177 -0.6074 -0.2316
14804TIP3   OH265902   5.858   4.727  15.469  0.2986  0.2810  0.2391
14804TIP3    H165903   5.812   4.648  15.443  0.2928  0.1524  0.6323
14804TIP3    H265904   5.818   4.797  15.418  0.6804 -0.0491 -0.5216
14805TIP3   OH265905   1.794   5.824  12.844  0.3680 -0.2183 -0.5595
14805TIP3    H165906   1.737   5.867  12.780 -0.6840  1.2092  1.2384
14805TIP3    H265907   1.870   5.881  12.849 -0.8006  1.2755  1.4498
14806TIP3   OH265908   0.232   6.390   6.286  0.0324 -0.5373 -0.1968
14806TIP3    H165909   0.241   6.477   6.248  1.7775 -0.0010  1.3080
14806TIP3    H265910   0.140   6.368   6.273 -0.5866  1.7557 -0.1209
14807TIP3   OH265911   2.420   1.675   5.470 -0.0040 -0.1964 -0.0398
14807TIP3    H165912   2.410   1.633   5.385 -2.1088 -0.0817  0.0941
14807TIP3    H265913   2.355   1.745   5.470 -0.0494 -0.1966  1.6625
14808TIP3   OH265914   3.571   5.897   6.222  0.1689  0.2906  0.1769
14808TIP3    H165915   3.570   5.815   6.173 -0.7384  0.1847  0.3587
14808TIP3    H265916   3.494   5.945   6.190 -1.2616 -0.3423  2.4363
14809TIP3   OH265917   3.838   0.910   2.432 -0.3501  0.5968  0.0250
14809TIP3    H165918   3.933   0.901   2.421 -0.6137 -0.5630 -1.5687
14809TIP3    H265919   3.828   0.944   2.521  1.5072 -0.3788  0.6616
14810TIP3   OH265920   1.159   4.998   3.490  0.0322 -0.4355  0.1973
14810TIP3    H165921   1.078   4.965   3.529 -0.0544  1.0302  1.3714
14810TIP3    H265922   1.146   5.093   3.484  1.2419 -0.2952 -0.6282
14811TIP3   OH265923   1.847   3.602  10.745 -0.4262 -0.5183  0.0694
14811TIP3    H165924   1.850   3.594  10.840  0.8634  3.4375  0.5744
14811TIP3    H265925   1.916   3.543  10.714 -1.0324 -2.0594  1.5146
14812TIP3   OH265926   0.644   6.757   5.714 -0.4429  0.1333  0.0782
14812TIP3    H165927   0.649   6.820   5.642  0.1718 -0.0797 -0.0731
14812TIP3    H265928   0.687   6.801   5.788  0.2007 -0.1908 -0.0953
14813TIP3   OH265929   4.238   1.675  13.325  0.3969 -0.5644  0.3281
14813TIP3    H165930   4.191   1.719  13.254  0.7624 -0.2726  0.2634
14813TIP3    H265931   4.204   1.585  13.325  2.2106 -1.3698 -1.9533
14814TIP3   OH265932   1.239   4.050   2.541 -0.4031  0.2795 -0.8600
14814TIP3    H165933   1.175   4.116   2.568 -0.6929 -0.5635  0.6053
14814TIP3    H265934   1.187   3.974   2.516 -0.0313 -1.2253  2.4942
14815TIP3   OH265935   2.917   0.870   5.762 -0.3054 -0.0618 -0.5567
14815TIP3    H165936   3.008   0.884   5.786 -0.1439 -0.6740 -0.7795
14815TIP3    H265937   2.889   0.951   5.720  0.8166 -0.6350 -2.5468
14816TIP3   OH265938   1.215   0.533  15.521 -0.2890  0.3200 -0.3274
14816TIP3    H165939   1.294   0.589  15.521  0.4969 -0.7367 -1.3829
14816TIP3    H265940   1.232   0.468  15.589  1.2727 -1.8472 -2.5997
14817TIP3   OH265941   5.300   2.887   4.410 -0.0112 -0.2737  0.5139
14817TIP3    H165942   5.392   2.904   4.392 -0.8135  2.2426 -1.9539
14817TIP3    H265943   5.273   2.959   4.468 -0.5700 -0.6720  0.7592
14818TIP3   OH265944   0.697   6.125   5.779 -0.3760  0.2498  0.4743
14818TIP3    H165945   0.689   6.070   5.701  1.6188  0.3040  0.1991
14818TIP3    H265946   0.637   6.085   5.842  0.0154 -1.4553 -0.1790
14819TIP3   OH265947   2.964   2.470  11.645  0.3011 -0.0663 -0.1756
14819TIP3    H165948   2.903   2.527  11.692 -0.5882  0.4272 -1.8588
14819TIP3    H265949   2.915   2.390  11.629 -0.2706  0.6388 -2.2649
14820TIP3   OH265950   2.272   2.987   4.924  0.1025  0.4630 -0.3871
14820TIP3    H165951   2.236   3.021   5.006  1.5925 -0.4552  0.7105
14820TIP3    H265952   2.314   3.063   4.883 -0.9694  1.0081 -0.4998
14821TIP3   OH265953   6.323   1.719   2.376  0.4241 -0.6375 -0.5047
14821TIP3    H165954   6.304   1.627   2.355 -0.7781 -1.1437  2.4143
14821TIP3    H265955   6.355   1.717   2.466  0.8649  1.7756 -0.5527
14822TIP3   OH265956   4.142   6.029  14.576  0.6880 -0.3761  0.6453
14822TIP3    H165957   4.230   5.994  14.563  1.9066  2.4711  0.4776
14822TIP3    H265958   4.153   6.124  14.571 -2.2545  0.1185  1.6332
14823TIP3   OH265959   1.866   3.630   3.275 -0.8440 -0.0303  0.0564
14823TIP3    H165960   1.775   3.625   3.302 -1.3791 -2.6240 -1.9221
14823TIP3    H265961   1.865   3.616   3.180  1.5495  0.7661 -0.1643
14824TIP3   OH265962   5.109   5.187  11.843  0.1686  0.4706  0.0100
14824TIP3    H165963   5.066   5.239  11.912  0.9755  1.3106 -0.1095
14824TIP3    H265964   5.174   5.246  11.806  1.4122 -0.7749  0.1611
14825TIP3   OH265965   5.070   2.756   0.771 -0.5160  1.0847  0.2486
14825TIP3    H165966   5.097   2.815   0.700 -0.0169 -0.7629 -1.1887
14825TIP3    H265967   4.980   2.731   0.748 -0.8801  1.5810  1.0834
14826TIP3   OH265968   6.019   2.311  14.320  0.1649  0.3282  0.5011
14826TIP3    H165969   5.974   2.234  14.285 -2.0531  1.5074  0.6151
14826TIP3    H265970   5.983   2.385  14.271  1.8575  1.3798  0.7583
14827TIP3   OH265971   1.058   0.737  13.592  0.0850 -0.2770  0.0463
14827TIP3    H165972   0.993   0.798  13.627 -0.6122  0.1605 -1.9141
14827TIP3    H265973   1.026   0.651  13.616 -1.0093 -0.0389 -0.5145
14828TIP3   OH265974   1.712   0.176  12.507  0.7088  0.0193  0.3294
14828TIP3    H165975   1.764   0.256  12.515  0.0424  0.4055  0.9383
14828TIP3    H265976   1.656   0.177  12.585 -1.7581  0.7468 -1.3609
14829TIP3   OH265977   4.406   4.324   4.771 -0.0942 -0.6204  0.4793
14829TIP3    H165978   4.337   4.372   4.726  1.5332  1.6241  0.1762
14829TIP3    H265979   4.444   4.267   4.704  1.7503  2.0693 -0.9902
14830TIP3   OH265980   2.421   2.555   6.052 -0.5733 -0.2225 -0.2649
14830TIP3    H165981   2.465   2.623   6.103  0.1529 -0.4436 -0.5821
14830TIP3    H265982   2.399   2.487   6.115 -2.0992  0.6708  0.2166
14831TIP3   OH265983   0.235   3.178  10.450 -0.7112 -0.0939 -0.8259
14831TIP3    H165984   0.295   3.225  10.507 -0.3278 -0.2310 -1.1099
14831TIP3    H265985   0.212   3.098  10.499  0.2134 -0.5839 -1.1700
14832TIP3   OH265986   2.951   4.572  14.764  0.5528  0.1552  0.6182
14832TIP3    H165987   2.855   4.581  14.760  0.6885  1.6620 -0.0166
14832TIP3    H265988   2.977   4.623  14.840  0.9495  0.8253  0.0427
14833TIP3   OH265989   3.273   3.961   4.979 -0.6656  0.3904  0.1126
14833TIP3    H165990   3.297   3.879   5.021 -1.2926 -0.8384 -1.7840
14833TIP3    H265991   3.305   3.952   4.889 -0.6619  2.2871 -0.1244
14834TIP3   OH265992   5.319   5.955   5.435 -0.3312  0.1601  0.1228
14834TIP3    H165993   5.302   6.002   5.354 -0.8670  0.8144  0.5995
14834TIP3    H265994   5.361   6.020   5.492  2.9497 -1.0911 -0.6415
14835TIP3   OH265995   5.762   2.150  16.468  0.2639 -0.4855  0.0919
14835TIP3    H165996   5.704   2.090  16.515  0.2449 -1.1628 -0.7699
14835TIP3    H265997   5.840   2.098  16.450  0.7132  0.1041  0.3330
14836TIP3   OH265998   4.227   6.241   4.637 -0.6721 -0.3697 -0.0555
14836TIP3    H165999   4.272   6.288   4.567  1.4833 -0.8239  0.9279
14836TIP3    H266000   4.201   6.158   4.598 -0.9563  0.0281 -0.7337
14837TIP3   OH266001   5.083   4.705   3.611 -0.3820  0.1521  0.0508
14837TIP3    H166002   5.051   4.789   3.643  0.6505 -0.0014  1.5716
14837TIP3    H266003   5.164   4.726   3.564 -0.1250  0.0124  0.4283
14838TIP3   OH266004   6.499   5.564   5.340 -0.1718  0.5712 -0.2218
14838TIP3    H166005   6.431   5.630   5.354 -0.2270  0.8250 -1.5050
14838TIP3    H266006   6.482   5.532   5.251  0.9369  0.1095 -0.2785
14839TIP3   OH266007   0.276   2.497  12.242 -0.0863 -0.0586  0.0016
14839TIP3    H166008   0.347   2.550  12.278  0.3242  0.3830 -1.3712
14839TIP3    H266009   0.202   2.514  12.299  1.0974 -1.2050  2.0034
14840TIP3   OH266010   4.622   4.605   1.396  0.1170 -0.0591  0.1684
14840TIP3    H166011   4.697   4.560   1.435  0.4166  1.4667  1.4808
14840TIP3    H266012   4.578   4.538   1.345  0.5876 -1.8136  1.9136
14841TIP3   OH266013   1.575   3.951   4.162  0.2663  0.3864  0.0086
14841TIP3    H166014   1.630   3.885   4.119 -0.1742 -0.1370  0.2297
14841TIP3    H266015   1.636   4.018   4.193  0.8711 -0.5826  0.9636
14842TIP3   OH266016   3.707   5.054   0.765  0.4086 -0.2609  0.2010
14842TIP3    H166017   3.643   4.999   0.811  1.2288 -1.1982  0.2684
14842TIP3    H266018   3.702   5.025   0.674  0.6909 -0.2846  0.1938
14843TIP3   OH266019   6.701   2.209  12.953 -0.2653  0.7486  0.4523
14843TIP3    H166020   6.762   2.250  13.015 -0.8033  0.7970  0.9554
14843TIP3    H266021   6.720   2.116  12.958  0.4183  0.8467 -0.1054
14844TIP3   OH266022   3.917   1.947   2.652  0.0573 -0.2167  0.2350
14844TIP3    H166023   3.821   1.951   2.655  0.0157 -1.1639  0.3429
14844TIP3    H266024   3.943   1.945   2.744  0.0414 -2.4545  0.2471
14845TIP3   OH266025   5.860   5.438  11.759 -0.5389  1.0132 -0.0883
14845TIP3    H166026   5.912   5.491  11.698  0.8970  1.4256  1.4162
14845TIP3    H266027   5.797   5.393  11.703 -1.2227  3.5566 -1.5757
14846TIP3   OH266028   0.563   1.439  12.115  0.1961  0.2391 -0.0085
14846TIP3    H166029   0.497   1.508  12.106  0.9399  0.8661 -0.8693
14846TIP3    H266030   0.617   1.447  12.037  1.1009 -0.4705  0.5185
14847TIP3   OH266031   2.362   4.542  12.512 -0.0499 -0.2312 -0.0373
14847TIP3    H166032   2.354   4.450  12.537 -2.4612  0.2132  1.1769
14847TIP3    H266033   2.285   4.559  12.457  0.5420  0.9668 -0.5370
14848TIP3   OH266034   3.099   6.200  15.044 -0.0634  0.0097  0.0531
14848TIP3    H166035   3.047   6.152  14.980 -0.5932 -2.1623  1.9713
14848TIP3    H266036   3.093   6.291  15.017 -2.0605 -0.5669 -1.6992
14849TIP3   OH266037   3.376   1.146   3.825  0.4539  0.1542 -0.3074
14849TIP3    H166038   3.327   1.201   3.886  0.9428  1.4614 -1.0300
14849TIP3    H266039   3.388   1.063   3.871 -2.9138 -0.4626 -0.3479
14850TIP3   OH266040   6.196   5.684   0.687  0.1546 -0.1569  0.0439
14850TIP3    H166041   6.147   5.666   0.767  0.0037  0.4836  0.1001
14850TIP3    H266042   6.156   5.763   0.651 -0.1703 -0.7808 -0.9922
14851TIP3   OH266043   6.075   6.221   1.072 -0.1125 -0.3452 -0.0898
14851TIP3    H166044   6.037   6.164   1.139 -0.2642 -0.4072 -0.2299
14851TIP3    H266045   6.070   6.170   0.991  1.6863 -1.0042  0.1573
14852TIP3   OH266046   4.751   3.991   2.841 -0.5367 -0.2118 -0.6906
14852TIP3    H166047   4.834   4.008   2.797 -0.1917 -2.0496 -0.8513
14852TIP3    H266048   4.742   4.063   2.904  1.0280  0.1910 -0.8771
14853TIP3   OH266049   2.649   4.628   3.699 -0.1454  0.0566  0.1035
14853TIP3    H166050   2.643   4.561   3.632 -1.6503 -1.4554  1.6433
14853TIP3    H266051   2.718   4.598   3.758  0.8612  1.1447 -0.4866
14854TIP3   OH266052   2.600   6.659   0.642 -0.0306  0.1684  0.0283
14854TIP3    H166053   2.603   6.719   0.567  1.0613 -0.7137 -0.6559
14854TIP3    H266054   2.688   6.662   0.679 -0.3804  0.0972  0.8904
14855TIP3   OH266055   6.621   5.455  16.902  0.3864  0.2022  0.1995
14855TIP3    H166056   6.714   5.469  16.921  0.5494 -1.0953  0.4469
14855TIP3    H266057   6.610   5.359  16.902 -0.8084  0.3107 -0.5052
14856TIP3   OH266058   0.188   2.091  12.029 -0.5689 -0.1541 -0.0850
14856TIP3    H166059   0.206   2.018  12.089  0.2832 -0.1478 -0.3191
14856TIP3    H266060   0.160   2.050  11.948 -2.2576 -0.1500  0.4641
14857TIP3   OH266061   5.502   0.433   5.776 -0.2411 -0.0503 -0.3900
14857TIP3    H166062   5.581   0.445   5.828 -0.4783  0.1757 -0.0708
14857TIP3    H266063   5.508   0.499   5.707  0.1131 -0.4036 -0.6956
14858TIP3   OH266064   3.637   0.359   5.417 -0.1246 -0.0060  0.3560
14858TIP3    H166065   3.674   0.372   5.330 -1.9946  0.9006 -0.3621
14858TIP3    H266066   3.579   0.283   5.407  1.5833 -1.5745  1.5229
14859TIP3   OH266067   2.238   4.148   5.466 -0.2968  0.3633  0.2814
14859TIP3    H166068   2.173   4.098   5.515  1.5565 -1.2593  1.2410
14859TIP3    H266069   2.187   4.211   5.415 -2.6118 -1.1051  0.6390
14860TIP3   OH266070   1.762   2.890   4.130  0.0568 -0.0133  0.1421
14860TIP3    H166071   1.846   2.936   4.132 -0.7473  1.5752 -0.6374
14860TIP3    H266072   1.697   2.959   4.113 -1.3255 -1.3136 -0.1038
14861TIP3   OH266073   0.313   3.670  13.327 -0.3505 -0.3888 -0.2214
14861TIP3    H166074   0.332   3.585  13.289 -0.2502 -0.6247  0.3422
14861TIP3    H266075   0.357   3.669  13.412  0.1523  0.4573 -0.4574
14862TIP3   OH266076   2.914   2.274   2.202 -0.0014 -0.5097 -0.2353
14862TIP3    H166077   2.827   2.301   2.229  0.4875  0.0648  0.8309
14862TIP3    H266078   2.938   2.337   2.134  0.4735  0.8055  1.0884
14863TIP3   OH266079   6.658   6.227   4.517 -0.2539 -0.2410  0.0950
14863TIP3    H166080   6.649   6.229   4.422 -0.5721 -1.0012  0.1024
14863TIP3    H266081   6.572   6.254   4.550  0.1298  0.9419  0.1809
14864TIP3   OH266082   4.909   4.766  13.899  0.7659 -0.2840 -0.3580
14864TIP3    H166083   4.818   4.790  13.917  0.6094 -1.5197  0.6498
14864TIP3    H266084   4.957   4.789  13.978  1.3089  0.2320 -0.8332
14865TIP3   OH266085   2.111   0.703   3.311  0.1866  0.1608 -0.5038
14865TIP3    H166086   2.052   0.774   3.336  0.1450 -0.3919  1.0350
14865TIP3    H266087   2.092   0.632   3.372  0.6252 -0.9907 -1.6477
14866TIP3   OH266088   3.421   6.444   1.262  0.2032 -0.1400  0.3509
14866TIP3    H166089   3.379   6.367   1.301 -0.0524  0.0688  0.4868
14866TIP3    H266090   3.492   6.465   1.323  0.0332 -0.0362  0.5152
14867TIP3   OH266091   4.853   0.585   5.163  0.2351 -0.2939  0.2651
14867TIP3    H166092   4.927   0.534   5.129  0.6497  0.4332  0.0618
14867TIP3    H266093   4.813   0.625   5.086 -1.1408 -1.6510  0.2220
14868TIP3   OH266094   0.220   3.118   3.669 -0.1302 -0.0607 -0.2636
14868TIP3    H166095   0.252   3.205   3.694 -0.6061  0.1356 -0.3116
14868TIP3    H266096   0.128   3.133   3.645 -0.4109 -0.7047  0.3919
14869TIP3   OH266097   1.094   5.360  14.598 -0.3235 -0.1032  0.4802
14869TIP3    H166098   1.117   5.360  14.505 -1.4966  1.3514  0.1471
14869TIP3    H266099   1.039   5.283  14.610  0.6300 -0.8414  0.2012
14870TIP3   OH266100   6.786   3.998  11.564  0.2039  0.1621  0.0459
14870TIP3    H166101   6.701   4.023  11.598  0.4905  0.5048  0.5249
14870TIP3    H266102   6.808   4.066  11.501 -0.7296 -0.9443 -1.5498
14871TIP3   OH266103   2.434   5.777   0.932 -0.3761 -0.1322 -0.3574
14871TIP3    H166104   2.474   5.846   0.985 -0.0492  0.6306 -1.5504
14871TIP3    H266105   2.385   5.724   0.995  0.8601  0.0965  0.8460
14872TIP3   OH266106   4.487   5.006   0.131 -0.3172  0.2977  0.1399
14872TIP3    H166107   4.512   4.973   0.218  2.0840 -2.0011 -1.2764
14872TIP3    H266108   4.440   4.933   0.091 -0.8929  1.1210 -0.7057
14873TIP3   OH266109   5.200   0.560   3.930  0.4967 -0.3096  0.0042
14873TIP3    H166110   5.208   0.644   3.975  2.3339  0.5940 -1.8524
14873TIP3    H266111   5.283   0.516   3.948  0.2214 -1.0148 -0.4308
14874TIP3   OH266112   2.739   3.264   0.691 -0.2649 -0.2713  0.2672
14874TIP3    H166113   2.691   3.185   0.668  1.0034 -0.3221 -2.6264
14874TIP3    H266114   2.828   3.233   0.710 -0.4126  0.2186  1.9923
14875TIP3   OH266115   2.264   3.064   5.887  0.2347  0.3554 -0.1127
14875TIP3    H166116   2.318   3.006   5.834  0.9459  0.7299  0.1985
14875TIP3    H266117   2.244   3.013   5.966  0.6190  0.4335  0.0338
14876TIP3   OH266118   1.156   5.047  15.803 -0.1769 -0.6831  0.3379
14876TIP3    H166119   1.144   4.991  15.726  0.4667 -3.4180  2.0777
14876TIP3    H266120   1.109   5.127  15.782 -0.4528 -1.5210 -2.6778
14877TIP3   OH266121   0.069   4.171  12.973  0.1562 -0.5320 -0.4526
14877TIP3    H166122   0.030   4.209  13.052 -1.2324 -0.8190 -0.9717
14877TIP3    H266123   0.031   4.221  12.901  2.0346  0.2812 -0.9576
14878TIP3   OH266124   5.067   4.959  12.077 -0.4094 -0.0535  0.1046
14878TIP3    H166125   5.104   4.886  12.127 -0.6250  0.7011  1.4327
14878TIP3    H266126   4.987   4.924  12.037  0.6424 -1.1379 -1.1359
14879TIP3   OH266127   1.890   0.350  16.384 -0.7181  0.4251  0.7033
14879TIP3    H166128   1.855   0.373  16.470 -1.4397  2.6520 -0.1046
14879TIP3    H266129   1.976   0.390  16.381 -1.4602  2.0683 -0.2520
14880TIP3   OH266130   2.453   2.953   4.099 -0.4776  0.6657  0.1290
14880TIP3    H166131   2.499   2.890   4.043  1.2517  1.1756  0.9199
14880TIP3    H266132   2.495   3.037   4.080 -2.1452  1.4639 -0.2436
14881TIP3   OH266133   4.397   3.578   0.854  0.4380 -0.0901 -0.6659
14881TIP3    H166134   4.451   3.624   0.790  0.6285  1.4269  0.5003
14881TIP3    H266135   4.390   3.489   0.821  2.4805  0.0298 -1.5750
14882TIP3   OH266136   0.504   2.316  15.160 -0.1884 -0.4742  0.1128
14882TIP3    H166137   0.423   2.306  15.109  0.5143 -1.2354 -0.8975
14882TIP3    H266138   0.572   2.329  15.094  0.6131 -0.5053  0.9206
14883TIP3   OH266139   2.089   4.630   1.757 -0.1396  0.0698 -0.0916
14883TIP3    H166140   2.181   4.607   1.743 -0.0003 -0.3152  1.2645
14883TIP3    H266141   2.092   4.717   1.799 -0.4983  0.8835 -1.6650
14884TIP3   OH266142   6.256   1.976  11.774  0.0695  0.3642  0.5179
14884TIP3    H166143   6.336   1.977  11.722 -0.6355 -0.5363 -0.6472
14884TIP3    H266144   6.285   1.959  11.863  1.2977  1.7410  0.4160
14885TIP3   OH266145   4.518   3.681  10.788  0.1547 -0.2728 -0.2481
14885TIP3    H166146   4.604   3.680  10.830  0.2288 -0.9842 -0.4015
14885TIP3    H266147   4.509   3.770  10.753  1.1939 -0.4287 -0.9711
14886TIP3   OH266148   6.089   6.078  17.058  0.6486 -0.1745  0.1265
14886TIP3    H166149   6.021   6.016  17.031  0.3365 -0.3622  1.3050
14886TIP3    H266150   6.043   6.162  17.064  0.6855 -0.1623  0.2298
14887TIP3   OH266151   4.548   4.126  11.439  0.1582  0.0799  0.5468
14887TIP3    H166152   4.533   4.175  11.520 -0.0006  3.7356 -1.4589
14887TIP3    H266153   4.465   4.133  11.392  0.7631 -0.5060 -0.6340
14888TIP3   OH266154   6.430   0.461  14.147 -0.0245  0.0488  0.4523
14888TIP3    H166155   6.346   0.437  14.187  1.1270  0.8369  3.5799
14888TIP3    H266156   6.407   0.532  14.086 -1.6175  0.5567  1.5528
14889TIP3   OH266157   1.547   4.994   4.067 -0.2221  0.2794  0.2009
14889TIP3    H166158   1.475   4.990   4.130 -0.2643  1.0950  0.2261
14889TIP3    H266159   1.505   5.019   3.985  0.0433  0.9617  0.2623
14890TIP3   OH266160   2.140   2.201  12.660 -0.0864  0.3239  0.0030
14890TIP3    H166161   2.171   2.203  12.750 -0.9064 -0.9900  0.3391
14890TIP3    H266162   2.212   2.162  12.610  0.2741  0.8283  0.1295
14891TIP3   OH266163   5.495   0.362  11.450 -0.0240 -0.2540  0.4563
14891TIP3    H166164   5.517   0.450  11.420 -1.1320  0.2927  1.1636
14891TIP3    H266165   5.579   0.319  11.466  0.5371  0.3751 -0.7092
14892TIP3   OH266166   3.872   2.519   4.598  0.2260 -0.0848  0.0043
14892TIP3    H166167   3.825   2.490   4.520  0.6894 -0.1023 -0.2741
14892TIP3    H266168   3.964   2.523   4.571  0.3473  0.2635  0.4456
14893TIP3   OH266169   0.107   4.984  14.676  0.2764  0.2692  0.0268
14893TIP3    H166170   0.138   5.075  14.674  0.0156  0.4575  1.9689
14893TIP3    H266171   0.111   4.960  14.769 -0.5147 -1.4112 -0.3379
14894TIP3   OH266172   1.641   2.601  15.561  0.5629 -0.2839 -0.4665
14894TIP3    H166173   1.729   2.564  15.568  1.5163  2.1214  2.8121
14894TIP3    H266174   1.586   2.545  15.616  0.4837 -0.5473 -0.8058
14895TIP3   OH266175   0.049   3.254   1.886 -0.0720  0.0508  0.0714
14895TIP3    H166176   0.008   3.171   1.911 -0.0115  0.1731  0.5892
14895TIP3    H266177   0.096   3.282   1.965  0.6693  0.1156 -0.3862
14896TIP3   OH266178   0.018   2.692  15.926 -0.4145  0.1285  0.0784
14896TIP3    H166179   0.004   2.765  15.866  1.9226  0.8537  0.2813
14896TIP3    H266180   0.081   2.636  15.881  0.6858  0.2153  1.4231
14897TIP3   OH266181   1.155   6.185   3.602 -0.2336  0.0029 -0.1623
14897TIP3    H166182   1.154   6.218   3.692  1.1690 -1.0173  0.2676
14897TIP3    H266183   1.161   6.264   3.548 -0.8867  0.6173  0.6418
14898TIP3   OH266184   0.695   3.129  13.317 -0.5249 -0.5088 -0.0152
14898TIP3    H166185   0.599   3.126  13.322 -0.4753  0.0832  2.1641
14898TIP3    H266186   0.718   3.217  13.347  0.7441 -0.8819  0.1660
14899TIP3   OH266187   5.197   4.740   1.786  0.0840 -0.1901 -0.4461
14899TIP3    H166188   5.112   4.777   1.763 -0.5034 -1.4745 -0.4263
14899TIP3    H266189   5.243   4.729   1.703 -0.2986 -0.7153 -0.5925
14900TIP3   OH266190   1.427   2.013   0.182 -0.9828  0.6959 -0.0076
14900TIP3    H166191   1.465   2.049   0.263 -0.7743 -0.5114  0.4542
14900TIP3    H266192   1.339   2.050   0.178 -1.1728  0.3852  1.0382
14901TIP3   OH266193   4.578   2.099   5.724  0.0675  0.2839  0.0409
14901TIP3    H166194   4.500   2.146   5.754 -1.0484 -0.9824 -0.7992
14901TIP3    H266195   4.562   2.008   5.745  1.8619  0.1251  0.9221
14902TIP3   OH266196   5.100   6.619  13.195  0.0618  0.3798 -0.0155
14902TIP3    H166197   5.036   6.689  13.201 -0.8155 -0.2190 -1.8294
14902TIP3    H266198   5.051   6.544  13.162  1.8696  0.2654 -2.7852
14903TIP3   OH266199   0.620   1.051  13.024  0.3886  0.1317 -0.4433
14903TIP3    H166200   0.656   0.964  13.040  0.7688  0.5785  1.2903
14903TIP3    H266201   0.653   1.075  12.937  0.0042 -1.5569 -1.0917
14904TIP3   OH266202   0.252   0.063  16.208  0.3779  0.1397  0.0314
14904TIP3    H166203   0.208   0.085  16.125  0.0090 -2.8578 -0.7124
14904TIP3    H266204   0.324   0.005  16.182 -1.6487 -3.5689  1.8332
14905TIP3   OH266205   4.321   0.365  13.462 -0.2557 -0.1215 -0.3455
14905TIP3    H166206   4.253   0.303  13.437 -2.9678  2.6504 -0.4580
14905TIP3    H266207   4.282   0.416  13.533  1.5894  1.7634 -0.5770
14906TIP3   OH266208   5.020   0.675   3.258 -0.4183 -0.3779  0.4306
14906TIP3    H166209   5.055   0.727   3.330 -0.2648  0.1043  0.0178
14906TIP3    H266210   5.023   0.734   3.182 -0.2749 -0.9765 -0.0411
14907TIP3   OH266211   3.962   0.018   0.251 -0.0715 -0.5971  0.1504
14907TIP3    H166212   3.889   0.080   0.249  0.0856 -0.2770  2.2363
14907TIP3    H266213   3.926  -0.061   0.293  0.6860 -0.5318  0.9552
14908TIP3   OH266214   5.390   5.782  14.453  0.3560 -0.1475  0.2970
14908TIP3    H166215   5.463   5.818  14.504  1.7729 -0.5631 -1.3578
14908TIP3    H266216   5.422   5.698  14.421 -1.1162 -0.6489  0.0714
14909TIP3   OH266217   6.666   3.710  13.440  0.9852 -0.1829  0.1289
14909TIP3    H166218   6.621   3.727  13.522  0.0461  0.7699 -0.5509
14909TIP3    H266219   6.739   3.772  13.439  0.7229  0.1293  0.0473
14910TIP3   OH266220   0.335   0.301  11.429  0.1143  0.7848 -0.0983
14910TIP3    H166221   0.269   0.371  11.426  0.0291  0.8265  1.5857
14910TIP3    H266222   0.292   0.225  11.390 -0.5542  1.1007  0.0036
14911TIP3   OH266223   2.924   1.436   2.593 -0.0471  0.1927 -0.1506
14911TIP3    H166224   2.950   1.344   2.584 -1.7985 -0.2830 -0.7433
14911TIP3    H266225   2.996   1.476   2.642  1.6491 -1.0518 -1.4831
14912TIP3   OH266226   6.678   3.655  11.426  0.1608 -0.0691  0.1620
14912TIP3    H166227   6.686   3.674  11.519 -0.7818  0.7565  0.0876
14912TIP3    H266228   6.642   3.735  11.387  2.0500  0.2006 -1.1874
14913TIP3   OH266229   4.977   5.331   2.279 -0.3107  0.1257  0.2229
14913TIP3    H166230   4.978   5.427   2.277  2.7421  0.2049  0.3027
14913TIP3    H266231   4.990   5.309   2.371  0.7307 -0.2896 -0.0086
14914TIP3   OH266232   5.334   3.130   2.726 -0.1115  0.0301  0.1239
14914TIP3    H166233   5.326   3.171   2.812  1.5992  0.7107 -0.0124
14914TIP3    H266234   5.421   3.089   2.727  0.3912  0.9536 -1.6368
14915TIP3   OH266235   0.138   0.662  16.268  0.1585  0.3015 -0.1745
14915TIP3    H166236   0.058   0.614  16.290 -0.0606  0.7808  0.0988
14915TIP3    H266237   0.174   0.687  16.353  2.8089 -3.3675  0.0072
14916TIP3   OH266238   4.058   3.464   4.671 -0.0408 -0.2768 -0.5252
14916TIP3    H166239   3.985   3.476   4.732 -0.7468 -0.6001 -1.2794
14916TIP3    H266240   4.106   3.547   4.674  2.4563 -1.5747  3.5668
14917TIP3   OH266241   5.384   1.298   4.033 -0.7084  0.0963 -0.0083
14917TIP3    H166242   5.353   1.229   4.092  0.7888 -1.0332 -0.4754
14917TIP3    H266243   5.473   1.316   4.063  0.6822 -1.5840 -2.7424
14918TIP3   OH266244   1.151   5.832   1.568 -0.0202 -0.4658  0.7130
14918TIP3    H166245   1.193   5.915   1.589 -0.6052  0.4326 -1.3902
14918TIP3    H266246   1.060   5.843   1.593 -0.5277  0.2911 -1.3210
14919TIP3   OH266247   4.747   1.033   1.692  0.1705  0.2671  0.5024
14919TIP3    H166248   4.740   1.034   1.596  1.9664  0.4750  0.3394
14919TIP3    H266249   4.706   0.950   1.718  1.5317 -0.8424 -0.6608
14920TIP3   OH266250   1.410   0.917   3.421  0.0580 -0.3864  0.0093
14920TIP3    H166251   1.456   0.859   3.360 -2.4907 -1.3902 -1.1247
14920TIP3    H266252   1.365   0.980   3.365  0.1034  0.6312  1.0643
14921TIP3   OH266253   3.590   3.781   6.627  0.0476  0.0228  0.2014
14921TIP3    H166254   3.619   3.869   6.653  0.3969  0.1512 -0.5751
14921TIP3    H266255   3.651   3.722   6.670 -0.1257  0.1702  0.6477
14922TIP3   OH266256   6.235   3.760   2.302  0.3701 -0.3933 -0.0059
14922TIP3    H166257   6.314   3.745   2.250 -0.4879 -1.1896 -1.1419
14922TIP3    H266258   6.164   3.759   2.238 -0.4810  1.4741  0.8150
14923TIP3   OH266259   1.695   4.934   3.429  0.0243  0.0871 -0.2038
14923TIP3    H166260   1.745   4.879   3.369  0.7926  0.0296  0.4614
14923TIP3    H266261   1.678   4.878   3.505  0.0065  0.4776  0.0857
14924TIP3   OH266262   6.798   0.713  14.951 -0.6411  0.3015 -0.8059
14924TIP3    H166263   6.893   0.714  14.959 -0.5813  1.9237 -1.3453
14924TIP3    H266264   6.770   0.636  15.000  0.8086  0.8371  0.9468
14925TIP3   OH266265   1.758   3.659   0.077 -0.1460 -0.4838  0.1372
14925TIP3    H166266   1.778   3.745   0.113 -0.3354 -0.4522  0.1725
14925TIP3    H266267   1.842   3.623   0.049 -0.0639 -0.3005  0.1521
14926TIP3   OH266268   5.283   5.923   5.115  0.2299 -0.3923 -0.4269
14926TIP3    H166269   5.233   5.995   5.076 -0.6808  1.2043  3.2309
14926TIP3    H266270   5.220   5.878   5.172  1.6719 -1.7691  0.1521
14927TIP3   OH266271   5.856   3.373  15.365 -0.2109 -0.3003 -0.2368
14927TIP3    H166272   5.941   3.411  15.386 -0.6043  1.2890 -1.3011
14927TIP3    H266273   5.801   3.394  15.440 -0.1758  0.4893 -0.4178
14928TIP3   OH266274   0.236   5.565   1.237  0.1976  0.2252 -0.7682
14928TIP3    H166275   0.167   5.611   1.189 -0.9862 -0.7490 -0.0817
14928TIP3    H266276   0.293   5.635   1.270 -1.6306  1.2613  0.3903
14929TIP3   OH266277   1.537   3.248  15.402 -0.1644 -0.1342 -0.5276
14929TIP3    H166278   1.517   3.341  15.397  1.5833  0.3370  0.3864
14929TIP3    H266279   1.507   3.212  15.319  0.9323  1.6195 -1.7551
14930TIP3   OH266280   1.176   5.040   4.864  0.0052 -0.1913  0.4299
14930TIP3    H166281   1.190   5.011   4.774  0.5946  0.3018  0.3550
14930TIP3    H266282   1.200   5.133   4.863 -0.0629 -0.1605  1.0811
14931TIP3   OH266283   2.204   2.259   4.706  0.0373 -0.5993 -0.0947
14931TIP3    H166284   2.134   2.236   4.767 -0.0299 -0.9179 -0.2929
14931TIP3    H266285   2.260   2.319   4.756 -0.6754  0.0970 -0.1191
14932TIP3   OH266286   3.424   5.966   5.938 -0.3508 -0.5888  0.2110
14932TIP3    H166287   3.519   5.962   5.923 -0.0705  1.7962  0.9841
14932TIP3    H266288   3.411   6.048   5.985 -3.1376  0.5781 -2.3205
14933TIP3   OH266289   0.957   6.592   5.767  0.4429 -0.1749  0.1667
14933TIP3    H166290   0.963   6.680   5.729  0.0106  0.0217  0.5538
14933TIP3    H266291   0.964   6.606   5.861 -0.7230 -0.4435  0.3014
14934TIP3   OH266292   2.147   6.063   2.226 -0.8931  0.1460 -0.0103
14934TIP3    H166293   2.235   6.096   2.207 -0.7743 -0.1303  0.0546
14934TIP3    H266294   2.094   6.093   2.153 -0.6712  0.0234 -0.2239
14935TIP3   OH266295   1.691   4.538   1.976  0.2762  1.0286  0.0847
14935TIP3    H166296   1.709   4.445   1.961 -0.2435  0.6747  1.5027
14935TIP3    H266297   1.776   4.581   1.972  0.5559  0.4453 -0.2918
14936TIP3   OH266298   2.457   3.629  13.940 -0.2903  0.5061 -0.3125
14936TIP3    H166299   2.387   3.689  13.963  0.6279  0.8309  1.9022
14936TIP3    H266300   2.434   3.547  13.984  0.0926  0.2409 -0.5974
14937TIP3   OH266301   3.810   4.100  12.990  0.3655  0.3050 -0.1894
14937TIP3    H166302   3.727   4.146  13.005 -0.9886 -1.6193 -1.3814
14937TIP3    H266303   3.797   4.052  12.908  2.9993  0.6234 -0.8896
14938TIP3   OH266304   4.314   2.359  12.341 -0.2122  0.2370  0.3029
14938TIP3    H166305   4.367   2.282  12.318  0.0653  0.9907 -1.8169
14938TIP3    H266306   4.377   2.431  12.340 -0.9213  0.8574 -0.3815
14939TIP3   OH266307   6.215   6.499  13.550 -0.3495  0.1460 -0.2204
14939TIP3    H166308   6.192   6.406  13.548 -0.2069  0.1210 -0.6631
14939TIP3    H266309   6.267   6.508  13.630  0.0887 -0.2601 -0.4541
14940TIP3   OH266310   5.765   4.981  12.105 -0.0425  0.3514 -0.4817
14940TIP3    H166311   5.755   4.993  12.011 -3.2744 -0.1844 -0.3316
14940TIP3    H266312   5.679   4.948  12.134  1.2329 -0.7260  2.4545
14941TIP3   OH266313   3.992   1.030  14.963  0.1512 -0.6111 -0.5018
14941TIP3    H166314   3.935   0.999  14.892 -1.7247 -0.1443  0.7281
14941TIP3    H266315   4.066   0.970  14.962 -0.5472 -1.5124 -1.8980
14942TIP3   OH266316   1.277   1.548  16.399 -0.1946  0.1263  0.3211
14942TIP3    H166317   1.278   1.517  16.490  2.2277  0.2818  0.3890
14942TIP3    H266318   1.200   1.505  16.361 -1.0952 -0.1754  2.3418
14943TIP3   OH266319   0.001   1.308  15.884 -0.0022  0.0078 -0.7043
14943TIP3    H166320  -0.009   1.220  15.921 -1.7327 -0.9277 -3.1835
14943TIP3    H266321  -0.049   1.364  15.943  1.2588 -0.5650  1.0044
14944TIP3   OH266322   1.621   5.031  13.161 -0.1729 -0.4163 -0.4969
14944TIP3    H166323   1.659   5.103  13.211  0.6124 -0.3287 -1.2063
14944TIP3    H266324   1.625   4.956  13.220 -0.7795  0.0563  0.1628
14945TIP3   OH266325   1.645   1.330   1.812 -0.6748  0.3275  0.0716
14945TIP3    H166326   1.658   1.244   1.853  1.7079  0.3328 -0.5667
14945TIP3    H266327   1.588   1.312   1.737  1.0795 -1.0409 -1.0160
14946TIP3   OH266328   6.825   4.753   2.368 -0.2300  0.1102 -0.4236
14946TIP3    H166329   6.908   4.719   2.336  0.2582  2.4391 -1.9109
14946TIP3    H266330   6.758   4.704   2.321  0.3481 -0.5379 -0.5747
14947TIP3   OH266331   4.480   3.586  14.941 -0.4566 -0.2770  0.3087
14947TIP3    H166332   4.565   3.548  14.917 -0.4596 -0.3886  0.4718
14947TIP3    H266333   4.416   3.524  14.908 -0.4596 -0.4544  0.6380
14948TIP3   OH266334   4.868   0.266  15.157  0.3618 -0.1924  0.3816
14948TIP3    H166335   4.776   0.286  15.136  0.6926  1.8790  0.6246
14948TIP3    H266336   4.917   0.292  15.079  0.8765  0.2589  0.8475
14949TIP3   OH266337   1.597   0.129  12.743 -0.4215  0.0312  0.4736
14949TIP3    H166338   1.642   0.078  12.810  0.9363 -0.6061 -0.8552
14949TIP3    H266339   1.533   0.068  12.706 -2.1906  0.8127  2.0838
14950TIP3   OH266340   6.802   5.083   3.883 -0.2247  0.0192  0.2890
14950TIP3    H166341   6.741   5.061   3.813 -0.5272  0.7710  0.3131
14950TIP3    H266342   6.746   5.114   3.955 -0.2167 -3.4751  2.0248
14951TIP3   OH266343   0.039   4.337  16.011  0.2784  0.7233  0.1913
14951TIP3    H166344  -0.022   4.358  15.941  1.7541 -0.7942 -1.6799
14951TIP3    H266345  -0.006   4.270  16.063  0.0552  0.1182 -0.7602
14952TIP3   OH266346   5.218   1.674  17.171  0.5579  0.4726  0.3433
14952TIP3    H166347   5.246   1.765  17.180  1.6526  0.1824 -0.0472
14952TIP3    H266348   5.299   1.624  17.164 -0.0449 -0.2605 -2.2496
14953TIP3   OH266349   5.800   3.442  11.805  0.0397 -0.1845 -0.4493
14953TIP3    H166350   5.818   3.360  11.850 -1.0182 -0.6128 -0.7697
14953TIP3    H266351   5.854   3.440  11.727  1.2955  0.2074  0.3728
14954TIP3   OH266352   5.888   4.919   6.072 -0.0441 -0.2390 -0.4628
14954TIP3    H166353   5.904   4.933   5.979  0.0294 -0.0741 -0.4250
14954TIP3    H266354   5.793   4.927   6.082  0.0542  0.9472 -0.3228
14955TIP3   OH266355   4.111   3.733  16.191 -0.4018 -0.3857  0.1307
14955TIP3    H166356   4.121   3.821  16.228  1.4941 -0.7803  0.6814
14955TIP3    H266357   4.016   3.718  16.188 -0.8046  1.9486 -0.7061
14956TIP3   OH266358   4.207   1.294  16.935  0.3622  0.1390 -0.2761
14956TIP3    H166359   4.123   1.338  16.954 -1.3304 -2.0669 -2.1339
14956TIP3    H266360   4.239   1.338  16.857 -0.0681 -0.2909 -0.6970
14957TIP3   OH266361   2.301   5.388  15.074  0.3879  0.1592  0.6020
14957TIP3    H166362   2.310   5.375  14.980 -1.0860  3.0624 -0.0576
14957TIP3    H266363   2.272   5.303  15.107  0.6808 -0.8668 -1.5878
14958TIP3   OH266364   6.599   4.619  16.831  0.3342 -0.3093  0.4970
14958TIP3    H166365   6.538   4.689  16.857  0.0685 -0.6476  0.7963
14958TIP3    H266366   6.548   4.562  16.774  1.4169  1.4209 -2.3965
14959TIP3   OH266367   5.967   5.147  16.522 -0.2562  0.1028 -0.1659
14959TIP3    H166368   6.023   5.180  16.592  1.0544 -1.9787 -0.1350
14959TIP3    H266369   5.881   5.186  16.539  0.7479  2.0284  0.7938
14960TIP3   OH266370   3.270   6.075  15.286 -0.0834 -0.0943  0.1364
14960TIP3    H166371   3.176   6.079  15.305  0.3603  0.8651  2.5120
14960TIP3    H266372   3.293   6.164  15.261  0.2899 -0.2077  0.0719
14961TIP3   OH266373   2.854   6.679  11.605 -0.2071  0.5178  0.3582
14961TIP3    H166374   2.846   6.682  11.700 -2.1254 -1.7379  0.3402
14961TIP3    H266375   2.932   6.625  11.589 -2.2810 -2.8949  0.7907
14962TIP3   OH266376   5.968   4.235  17.042 -0.0681  0.3575  0.0085
14962TIP3    H166377   5.945   4.149  17.007  1.0675 -0.0736  0.2944
14962TIP3    H266378   5.916   4.296  16.990  0.5023 -0.3612 -1.4786
14963TIP3   OH266379   0.070   5.162  14.102  0.6828 -0.3221  0.1507
14963TIP3    H166380  -0.002   5.196  14.048  0.3844 -1.6596 -0.3164
14963TIP3    H266381   0.029   5.132  14.182  0.5418 -2.0225 -0.5237
14964TIP3   OH266382   4.663   1.711  12.870 -0.5103  0.3435 -0.4096
14964TIP3    H166383   4.689   1.782  12.812 -0.4969  0.0139 -0.8116
14964TIP3    H266384   4.624   1.645  12.812  0.6057 -0.5214 -0.2030
14965TIP3   OH266385   1.604   5.296  14.470 -0.0588 -0.1768  0.4618
14965TIP3    H166386   1.541   5.265  14.405  1.8984  0.7707 -1.9911
14965TIP3    H266387   1.651   5.217  14.497  1.1328 -0.2149 -1.5789
14966TIP3   OH266388   4.771   1.728   1.059 -0.6722 -0.6550  0.2047
14966TIP3    H166389   4.827   1.728   1.136 -0.3518 -0.5642 -0.0293
14966TIP3    H266390   4.684   1.753   1.093 -0.2820  0.5445  0.3543
14967TIP3   OH266391   3.824   1.375   4.639 -0.3530  0.1644 -0.2256
14967TIP3    H166392   3.883   1.323   4.693  0.4525  0.1238 -1.1139
14967TIP3    H266393   3.766   1.418   4.702 -0.1211 -0.6977  0.6008
14968TIP3   OH266394   6.339   2.390   3.442 -0.7321 -0.5937  0.2075
14968TIP3    H166395   6.425   2.350   3.428  0.2431  1.7574 -1.1435
14968TIP3    H266396   6.288   2.366   3.365 -0.2496  0.4458 -0.4539
14969TIP3   OH266397   2.940   6.448   0.747 -0.3257 -0.0224 -0.3626
14969TIP3    H166398   2.845   6.456   0.752 -0.2348  0.4948  0.8487
14969TIP3    H266399   2.961   6.369   0.796 -0.1093 -0.0168 -0.4415
14970TIP3   OH266400   4.740   6.772   5.871  0.2301  0.1588  0.0644
14970TIP3    H166401   4.646   6.753   5.876 -0.0077  1.4949  2.1411
14970TIP3    H266402   4.781   6.688   5.852 -1.3933 -0.3746 -1.3758
14971TIP3   OH266403   4.623   1.341  16.971  0.0134 -0.6161 -1.1264
14971TIP3    H166404   4.576   1.289  16.906 -0.4442  1.6825 -2.7834
14971TIP3    H266405   4.697   1.379  16.923  0.4819  0.0414  0.0607
14972TIP3   OH266406   5.752   6.596  14.960  0.4554  0.0142  0.6227
14972TIP3    H166407   5.813   6.665  14.984  1.1998  0.0446 -1.2170
14972TIP3    H266408   5.796   6.515  14.987  0.3163  0.1410  1.2645
14973TIP3   OH266409   0.481   3.171   5.011  0.1091 -0.2291  0.1468
14973TIP3    H166410   0.532   3.251   5.025 -1.0630  0.5579  0.0718
14973TIP3    H266411   0.495   3.150   4.918  1.8947 -1.1980  0.5856
14974TIP3   OH266412   4.178   6.819   4.478 -0.1894  0.4166  0.1121
14974TIP3    H166413   4.198   6.776   4.561 -0.9039  1.0979  0.6530
14974TIP3    H266414   4.178   6.913   4.499  2.0311  0.7788 -1.1831
14975TIP3   OH266415   6.562   5.664  13.149  0.1262  0.2794 -0.1659
14975TIP3    H166416   6.630   5.697  13.091  1.7423 -1.4532  0.6366
14975TIP3    H266417   6.568   5.718  13.227 -0.5121  1.1440 -0.6997
14976TIP3   OH266418   6.815   6.588   1.746 -0.0965 -0.7393 -0.2537
14976TIP3    H166419   6.873   6.550   1.680  0.5416  0.7457 -0.6070
14976TIP3    H266420   6.781   6.668   1.704  0.4074  0.3030  1.2311
14977TIP3   OH266421   5.332   0.159   0.099  0.0582  0.8964  0.3589
14977TIP3    H166422   5.372   0.112   0.173  1.0216  0.4149 -0.4459
14977TIP3    H266423   5.401   0.216   0.066 -0.9131  2.4622  0.9236
14978TIP3   OH266424   3.700   4.770   4.533  0.9335  0.2066 -0.3543
14978TIP3    H166425   3.758   4.714   4.481 -0.0794 -1.2681  0.0425
14978TIP3    H266426   3.660   4.711   4.596  0.9626  1.6791  1.1001
14979TIP3   OH266427   3.181   6.040   5.212  0.8046  0.2660 -0.8044
14979TIP3    H166428   3.144   6.101   5.148 -2.4708  0.0279  0.6603
14979TIP3    H266429   3.133   5.959   5.199  0.8816 -0.1431  1.1204
14980TIP3   OH266430   3.672   3.159  14.925 -0.8088  0.2757  0.0615
14980TIP3    H166431   3.630   3.235  14.886 -2.1951 -0.2250  0.5242
14980TIP3    H266432   3.745   3.195  14.974 -0.4976  1.1441 -0.9827
14981TIP3   OH266433   6.022   2.477  14.977 -0.6486 -0.1054  0.6602
14981TIP3    H166434   5.984   2.396  14.944 -1.0166  0.8745 -1.5015
14981TIP3    H266435   6.115   2.471  14.955 -0.4377 -0.4466  1.6089
14982TIP3   OH266436   4.062   2.096  14.232  0.2822  0.3656 -0.0288
14982TIP3    H166437   4.153   2.117  14.252  1.1084 -1.4588 -1.5372
14982TIP3    H266438   4.015   2.115  14.313  1.8933  1.7995  0.6471
14983TIP3   OH266439   1.005   0.692   2.932  0.0666 -0.1076  0.4384
14983TIP3    H166440   1.041   0.605   2.947 -2.1946 -1.1482  0.3435
14983TIP3    H266441   1.070   0.752   2.968  0.1768 -1.9577  3.7619
14984TIP3   OH266442   6.455   6.350  11.867 -0.1609 -0.0328  0.1198
14984TIP3    H166443   6.529   6.316  11.817  0.4474  0.6819  0.5228
14984TIP3    H266444   6.461   6.307  11.952  0.1097  0.4395  0.3390
14985TIP3   OH266445   4.768   1.381  13.078 -0.1539  0.1885  0.5106
14985TIP3    H166446   4.821   1.436  13.021  0.6658 -0.3324  0.7435
14985TIP3    H266447   4.832   1.336  13.133 -0.8140 -0.8148  0.4806
14986TIP3   OH266448   2.990   4.679  15.632 -0.2367  0.2856  0.0502
14986TIP3    H166449   2.971   4.585  15.639  1.2401 -0.0747 -0.3718
14986TIP3    H266450   3.005   4.707  15.723  1.7107 -0.4553 -0.0059
14987TIP3   OH266451   4.630   4.497  13.283  0.0479  0.8228 -0.5179
14987TIP3    H166452   4.608   4.421  13.337 -0.3705  1.7669  0.6854
14987TIP3    H266453   4.581   4.483  13.202 -1.9529  0.9577  0.6083
14988TIP3   OH266454   4.969   4.719   1.494 -0.2113 -0.3004 -0.1180
14988TIP3    H166455   4.967   4.746   1.585  3.0428 -2.9730  0.9608
14988TIP3    H266456   4.905   4.647   1.489 -1.6562  0.9545 -0.4848
14989TIP3   OH266457   3.357   1.480   1.384 -0.1143 -0.4998 -0.4480
14989TIP3    H166458   3.438   1.434   1.408 -0.2550  0.2324  1.6824
14989TIP3    H266459   3.289   1.434   1.432 -0.5537  0.5920  0.0023
14990TIP3   OH266460   2.359   0.885  17.162 -0.1647  0.2127  0.0573
14990TIP3    H166461   2.447   0.921  17.150  0.0215 -0.0321  0.6297
14990TIP3    H266462   2.352   0.872  17.257 -0.3697 -0.8771 -0.0895
14991TIP3   OH266463   6.438   3.039  11.496  0.1377  0.3213  0.2291
14991TIP3    H166464   6.438   3.134  11.500 -2.6704  0.3689  1.8606
14991TIP3    H266465   6.526   3.013  11.523  1.0667  2.3948 -0.5906
14992TIP3   OH266466   1.771   0.759  14.843  0.1547 -0.3553 -0.5799
14992TIP3    H166467   1.689   0.733  14.801  0.6916 -0.2244 -1.7513
14992TIP3    H266468   1.748   0.835  14.896 -0.7562 -1.1705  0.2304
14993TIP3   OH266469   0.849   6.021  14.140  0.0183  0.1642  0.1546
14993TIP3    H166470   0.872   6.035  14.048 -1.7062  1.8473 -0.0942
14993TIP3    H266471   0.847   5.926  14.151  0.0821 -0.0668 -1.5880
14994TIP3   OH266472   6.737   0.936   5.027 -0.0688  0.5217 -0.1595
14994TIP3    H166473   6.702   0.954   5.114 -1.6242  0.0726 -0.6597
14994TIP3    H266474   6.789   1.014   5.005 -1.8211  1.8179  0.1034
14995TIP3   OH266475   5.136   2.325  12.982  0.1885  0.9641 -0.2615
14995TIP3    H166476   5.125   2.362  13.069 -0.7323  2.5992 -1.0285
14995TIP3    H266477   5.122   2.398  12.922 -0.2805 -0.3245 -1.8181
14996TIP3   OH266478   5.784   3.164  13.045 -0.1933 -0.7461  0.1856
14996TIP3    H166479   5.800   3.255  13.019 -1.7093 -0.3523  0.5121
14996TIP3    H266480   5.869   3.121  13.038 -0.0056 -0.0737 -2.9956
14997TIP3   OH266481   3.889   5.471   5.505  0.0731 -0.0532  0.1445
14997TIP3    H166482   3.963   5.521   5.540 -0.0900  0.9335 -0.8599
14997TIP3    H266483   3.815   5.499   5.559  0.3592 -0.8436  0.9782
14998TIP3   OH266484   2.063   0.594   6.310 -0.3319  0.0558  0.2921
14998TIP3    H166485   2.017   0.540   6.373 -1.1225  0.4965  0.1087
14998TIP3    H266486   1.998   0.612   6.242  0.0104  0.9465  0.1835
14999TIP3   OH266487   0.245   6.570  12.650 -0.3845 -0.5377  0.3265
14999TIP3    H166488   0.312   6.508  12.680 -0.4555 -0.4804  0.6013
14999TIP3    H266489   0.209   6.608  12.730  0.3978  0.6588  0.1275
15000TIP3   OH266490   3.781   2.888  11.656 -0.4994 -0.3442  0.6217
15000TIP3    H166491   3.715   2.901  11.588 -0.5057  1.1007  0.8687
15000TIP3    H266492   3.862   2.872  11.608 -0.6137  0.0984  0.2755
15001TIP3   OH266493   4.684   6.827  11.727 -0.2593 -0.0378 -0.1434
15001TIP3    H166494   4.639   6.817  11.643 -0.1735  0.4975 -0.2613
15001TIP3    H266495   4.624   6.879  11.780 -0.9462 -1.5855  0.6390
15002TIP3   OH266496   4.670   3.220   6.312 -0.1421 -0.2489  0.3705
15002TIP3    H166497   4.670   3.248   6.404  0.1553  0.8602  0.0478
15002TIP3    H266498   4.718   3.138   6.312  0.6435  0.1956  1.0833
15003TIP3   OH266499   0.754   4.048   0.162 -0.1091  0.4310  0.2056
15003TIP3    H166500   0.735   4.058   0.068  0.1486 -0.1835  0.0777
15003TIP3    H266501   0.793   4.131   0.188  1.7057 -0.0800 -0.7096
15004TIP3   OH266502   5.881   2.923  14.124 -0.2195  0.0750  0.0039
15004TIP3    H166503   5.815   2.892  14.186 -0.9460 -1.6402 -1.5264
15004TIP3    H266504   5.861   2.877  14.042  2.9844 -0.6829 -0.4984
15005TIP3   OH266505   3.351   1.410   4.511 -0.9249  0.2460  0.0276
15005TIP3    H166506   3.275   1.431   4.455 -0.2431  1.7891 -0.3657
15005TIP3    H266507   3.380   1.325   4.479 -2.0918 -0.0687 -0.2656
15006TIP3   OH266508   6.232   3.894   3.727 -0.1596 -0.1154  0.2761
15006TIP3    H166509   6.157   3.954   3.722 -0.0883 -0.0609 -0.1530
15006TIP3    H266510   6.193   3.807   3.732 -0.2463 -0.1833 -1.2822
15007TIP3   OH266511   4.723   4.394   0.172  0.0552 -0.5369  0.3006
15007TIP3    H166512   4.712   4.482   0.207  1.0540 -0.0603 -0.5159
15007TIP3    H266513   4.675   4.337   0.232  1.5109  0.2638  2.3243
15008TIP3   OH266514   1.758   1.987  12.661 -0.0150  0.1772 -0.4816
15008TIP3    H166515   1.769   1.895  12.685  2.1260  0.7888  1.2754
15008TIP3    H266516   1.676   2.013  12.703  0.4726 -0.4111  0.9136
15009TIP3   OH266517   6.074   4.865   2.982  0.0295  0.1532 -0.1805
15009TIP3    H166518   6.067   4.960   2.979 -0.9335  0.0916  0.0552
15009TIP3    H266519   6.156   4.846   2.935  0.1862  1.0818 -0.3004
15010TIP3   OH266520   5.806   2.359   2.012  0.2055 -0.3016  1.0119
15010TIP3    H166521   5.849   2.412   2.078 -0.8569 -0.3724  1.7874
15010TIP3    H266522   5.878   2.320   1.962  1.0090  0.5606  1.4637
15011TIP3   OH266523   5.689   5.630   4.976 -0.5665 -0.5639  0.0555
15011TIP3    H166524   5.699   5.560   5.040  0.1391  0.1532  0.7660
15011TIP3    H266525   5.647   5.701   5.026  0.9107  0.3713  0.0224
15012TIP3   OH266526   0.565   4.893  14.356  0.7201  0.5191  0.1710
15012TIP3    H166527   0.510   4.901  14.434 -0.3611  0.2335 -0.5450
15012TIP3    H266528   0.647   4.856  14.388  0.3592  0.5957  1.2011
15013TIP3   OH266529   0.598   1.840  16.342 -0.3160 -0.3986  0.5879
15013TIP3    H166530   0.515   1.885  16.357 -0.4128 -0.7367  1.0553
15013TIP3    H266531   0.646   1.850  16.424  0.6237  0.8613 -0.0675
15014TIP3   OH266532   2.472   6.554  11.083  0.1844 -0.2323 -0.1263
15014TIP3    H166533   2.506   6.520  11.001 -0.6823 -0.8292 -0.2468
15014TIP3    H266534   2.444   6.643  11.063 -0.4326 -0.5249 -0.5999
15015TIP3   OH266535   5.238   4.096   0.491  0.3783  0.2496 -0.3251
15015TIP3    H166536   5.253   4.129   0.402  1.7627 -1.8224 -0.9282
15015TIP3    H266537   5.295   4.020   0.498 -1.2243 -0.8635  1.6502
15016TIP3   OH266538   0.133   2.197  16.988 -0.3417 -0.4883  0.2254
15016TIP3    H166539   0.049   2.241  16.974 -0.5815 -0.8351  0.5371
15016TIP3    H266540   0.143   2.196  17.084 -0.1286 -0.7289  0.2005
15017TIP3   OH266541   0.124   6.652   3.592 -0.3972  0.0645  0.3868
15017TIP3    H166542   0.176   6.625   3.668 -0.0846  0.5200  0.3357
15017TIP3    H266543   0.167   6.610   3.518 -0.8417 -0.5737  0.4837
15018TIP3   OH266544   2.654   1.603  13.777 -0.1153  0.3250  0.4111
15018TIP3    H166545   2.650   1.697  13.759 -0.2562  0.1995 -0.2213
15018TIP3    H266546   2.612   1.593  13.863  1.5540  1.0618  1.3581
15019TIP3   OH266547   2.205   4.148  11.880 -0.4127  1.0643 -0.2571
15019TIP3    H166548   2.240   4.237  11.889  1.1652  0.4331  0.2075
15019TIP3    H266549   2.183   4.122  11.970  0.9034  0.3324 -0.1205
15020TIP3   OH266550   4.272   3.392   6.060 -0.2944 -0.0487 -0.0094
15020TIP3    H166551   4.268   3.422   6.150 -0.3236  1.6012 -0.5228
15020TIP3    H266552   4.205   3.443   6.014 -0.4646 -1.0463 -0.9111
15021TIP3   OH266553   5.031   2.943  14.074 -0.2252 -0.0090  0.4723
15021TIP3    H166554   5.055   2.858  14.111  0.3523 -0.0349  0.0463
15021TIP3    H266555   5.114   2.981  14.045 -0.7768 -0.6391 -2.2156
15022TIP3   OH266556   1.737   5.135  10.641 -0.7523  0.1141 -0.4972
15022TIP3    H166557   1.725   5.075  10.567 -2.0599  0.1548 -0.3270
15022TIP3    H266558   1.732   5.079  10.718  2.3938 -0.2364 -0.4021
15023TIP3   OH266559   0.370   1.023  14.547 -0.7204 -0.6364 -0.0220
15023TIP3    H166560   0.384   1.040  14.641 -0.2258  0.1430 -0.2264
15023TIP3    H266561   0.277   1.041  14.533 -1.4471 -3.2433  0.8134
15024TIP3   OH266562   4.022   3.903  12.016  0.4024  0.7387  0.3865
15024TIP3    H166563   3.986   3.971  11.959  0.4545  0.7127  0.3232
15024TIP3    H266564   4.072   3.951  12.082  1.0178  0.7221 -0.0649
15025TIP3   OH266565   4.666   3.748  14.456 -0.0179  0.3960  0.0838
15025TIP3    H166566   4.738   3.689  14.480 -0.2729  0.0766  0.0828
15025TIP3    H266567   4.610   3.750  14.534 -1.3893 -1.4529 -0.7692
15026TIP3   OH266568   0.239   5.499   4.914 -0.3071  1.0530 -0.6573
15026TIP3    H166569   0.246   5.523   4.822  0.4766  1.6049 -0.4607
15026TIP3    H266570   0.305   5.431   4.927 -1.3509 -0.0369 -0.8048
15027TIP3   OH266571   4.904   6.174  16.495 -0.3056 -0.3624 -0.3533
15027TIP3    H166572   4.949   6.108  16.547  1.4795 -0.2148 -1.6361
15027TIP3    H266573   4.974   6.227  16.456 -1.6606  2.6253  0.9708
15028TIP3   OH266574   6.802   1.228   1.389 -0.2226 -0.2109 -0.2752
15028TIP3    H166575   6.795   1.322   1.405 -2.8733 -0.3799 -0.0095
15028TIP3    H266576   6.758   1.215   1.305 -0.0264 -1.2375 -0.2284
15029TIP3   OH266577   5.074   6.434  13.911  0.8619  0.2706  0.0269
15029TIP3    H166578   5.053   6.429  13.817  3.1922  3.0323 -0.7792
15029TIP3    H266579   5.149   6.376  13.921 -0.4384 -1.3790  0.6354
15030TIP3   OH266580   4.479   4.121   3.787 -0.6002  0.5285 -0.7331
15030TIP3    H166581   4.461   4.215   3.780 -1.9943  0.3648  0.1294
15030TIP3    H266582   4.510   4.096   3.701  1.2600  2.0442 -0.5731
15031TIP3   OH266583   6.661   4.872   3.418 -0.0669  0.0071 -0.2410
15031TIP3    H166584   6.752   4.860   3.389  0.5018  1.2953  0.9264
15031TIP3    H266585   6.622   4.928   3.350 -0.6947 -2.3092 -1.9284
15032TIP3   OH266586   0.193   4.975   3.788 -0.3043 -0.0137  0.8414
15032TIP3    H166587   0.100   4.987   3.803 -0.5264 -0.4580 -0.0875
15032TIP3    H266588   0.223   4.919   3.859 -0.5479  0.8388  1.6419
15033TIP3   OH266589   6.769   0.682   0.794 -0.2439 -0.4419  0.0026
15033TIP3    H166590   6.833   0.715   0.858  0.3062 -1.7007  0.1313
15033TIP3    H266591   6.822   0.636   0.729 -0.8272  0.5518 -1.2067
15034TIP3   OH266592   5.665   6.760   1.156 -0.6023 -0.2761 -0.7797
15034TIP3    H166593   5.730   6.699   1.123  0.2182 -0.1224  0.4843
15034TIP3    H266594   5.581   6.715   1.144 -0.4402  0.0198 -3.5313
15035TIP3   OH266595   5.056   6.032   2.630  0.1714  0.3173 -0.3615
15035TIP3    H166596   5.060   6.068   2.719  0.9715  1.2471 -0.7525
15035TIP3    H266597   5.095   6.100   2.575 -0.2607 -0.2741 -1.4218
15036TIP3   OH266598   4.198   0.342   1.165  0.1598 -0.2642  0.6702
15036TIP3    H166599   4.174   0.409   1.228 -0.7223 -1.5319  1.7377
15036TIP3    H266600   4.182   0.382   1.080 -1.3967  0.5128  1.2969
15037TIP3   OH266601   2.132   1.257   3.494  0.3021  0.2725  0.3129
15037TIP3    H166602   2.132   1.345   3.457  2.6580 -1.0208 -3.4629
15037TIP3    H266603   2.217   1.248   3.536 -0.2259  0.0213  1.3526
15038TIP3   OH266604   4.027   6.784   3.807  0.6189 -0.5229 -0.6919
15038TIP3    H166605   4.038   6.702   3.854  1.8753 -0.2155 -0.4250
15038TIP3    H266606   3.996   6.846   3.874 -2.4400 -1.2253 -1.3059
15039TIP3   OH266607   4.320   6.188  16.208 -0.1184 -0.6305 -0.3422
15039TIP3    H166608   4.314   6.169  16.301 -0.2314  0.5388 -0.0947
15039TIP3    H266609   4.366   6.112  16.171 -0.9399 -1.5619  0.4911
15040TIP3   OH266610   0.358   6.391  17.041  0.3054  0.2642  0.1193
15040TIP3    H166611   0.370   6.446  16.964 -1.6481 -1.2314 -1.3855
15040TIP3    H266612   0.422   6.321  17.031 -1.0446 -0.8756 -1.1825
15041TIP3   OH266613   1.336   2.626  13.666  0.8753 -0.0906  0.5407
15041TIP3    H166614   1.349   2.631  13.761  1.9410  0.5064  0.3958
15041TIP3    H266615   1.284   2.704  13.645 -0.4285 -0.8840  0.7712
15042TIP3   OH266616   1.627   3.491   3.589 -0.5338  0.4848  0.4158
15042TIP3    H166617   1.545   3.441   3.593 -0.2489  0.0258  0.6527
15042TIP3    H266618   1.659   3.491   3.679  1.0323 -1.5766 -0.0781
15043TIP3   OH266619   2.902   2.853   2.632 -0.3550  0.2996 -0.0891
15043TIP3    H166620   2.882   2.767   2.669  1.3008 -0.4411 -0.7895
15043TIP3    H266621   2.997   2.852   2.619 -0.4638  1.7397 -1.3205
15044TIP3   OH266622   5.852   6.304   1.609  0.2857 -0.3541 -0.1073
15044TIP3    H166623   5.771   6.276   1.653 -0.6402 -0.5572 -1.8365
15044TIP3    H266624   5.921   6.283   1.671 -0.9856 -0.1411  1.4469
15045TIP3   OH266625   5.573   6.112  11.646 -0.8084  0.5160 -0.0146
15045TIP3    H166626   5.653   6.150  11.610  0.0933 -0.8253  0.4978
15045TIP3    H266627   5.549   6.042  11.584  0.0322 -0.9528  1.2455
15046TIP3   OH266628   0.385   2.502   5.154  0.2768  0.4904  0.2369
15046TIP3    H166629   0.372   2.464   5.241  2.4836  0.4531  0.6209
15046TIP3    H266630   0.459   2.454   5.117 -0.2788  0.8542 -1.4766
15047TIP3   OH266631   1.223   2.438  16.015  0.2197  0.0262 -0.2600
15047TIP3    H166632   1.238   2.530  16.034 -0.1059 -0.2828  1.7440
15047TIP3    H266633   1.310   2.399  16.014  0.4056  0.4051 -1.6675
15048TIP3   OH266634   1.785   6.526   2.450  0.3591 -0.8250  0.0583
15048TIP3    H166635   1.855   6.557   2.508 -0.1562  0.7837 -0.1310
15048TIP3    H266636   1.743   6.606   2.418 -1.7717 -1.7376  0.3986
15049TIP3   OH266637   3.029   4.296   1.204 -0.1505 -0.1885 -0.6928
15049TIP3    H166638   3.055   4.331   1.118  0.3741  0.4541 -0.2874
15049TIP3    H266639   2.934   4.293   1.200 -0.1160 -0.5773 -1.4571
15050TIP3   OH266640   1.057   0.073   1.257  0.5953 -0.6721 -0.2481
15050TIP3    H166641   0.986   0.019   1.292  0.1127 -0.0537 -0.2440
15050TIP3    H266642   1.063   0.146   1.319 -1.3187  1.2767 -2.1952
15051TIP3   OH266643   0.052   2.810   3.628  0.3357  0.2287  0.1670
15051TIP3    H166644   0.001   2.729   3.634  0.0173  0.2712 -1.4993
15051TIP3    H266645   0.080   2.827   3.718 -1.0954 -0.7567  0.8454
15052TIP3   OH266646   2.108   3.956   5.179  0.2319  0.3226  0.2049
15052TIP3    H166647   2.048   3.992   5.244 -1.5910  0.2848 -1.3560
15052TIP3    H266648   2.157   4.031   5.147 -1.5156  1.0512 -0.9708
15053TIP3   OH266649   3.053   6.670   4.288  0.2984  0.1961  0.2935
15053TIP3    H166650   3.045   6.755   4.246 -0.7961  0.1511  0.3705
15053TIP3    H266651   2.966   6.652   4.323  0.1206 -1.5414 -0.8754
15054TIP3   OH266652   0.613   6.642  16.905 -0.2574  0.0022 -0.5969
15054TIP3    H166653   0.615   6.723  16.853 -1.7996 -0.1527 -0.9334
15054TIP3    H266654   0.658   6.665  16.987 -1.4555  1.4852 -0.3121
15055TIP3   OH266655   1.669   6.259   3.992  0.3239  0.1656 -0.3296
15055TIP3    H166656   1.634   6.186   3.942  1.6905 -0.4101 -0.5010
15055TIP3    H266657   1.595   6.318   4.004 -0.8878 -1.3547  0.0329
15056TIP3   OH266658   5.187   3.432  15.952  0.2957  0.9353 -0.0875
15056TIP3    H166659   5.226   3.353  15.913  1.6530  0.3937  2.1576
15056TIP3    H266660   5.262   3.491  15.965 -0.6558  2.5042 -1.4443
15057TIP3   OH266661   6.164   3.792   5.528  0.0634  0.4760  0.0286
15057TIP3    H166662   6.123   3.874   5.500  0.8508  1.1126  0.6781
15057TIP3    H266663   6.256   3.815   5.543  0.6583 -0.8884 -1.2695
15058TIP3   OH266664   1.186   3.223   5.029 -0.2089  0.8890  0.8815
15058TIP3    H166665   1.111   3.165   5.014  0.8077 -0.1723 -0.2714
15058TIP3    H266666   1.200   3.219   5.124  0.2701 -1.3836  0.7906
15059TIP3   OH266667   1.114   6.261  13.306  0.6790  0.0492 -0.3813
15059TIP3    H166668   1.063   6.181  13.316  1.3227 -0.3640 -0.3664
15059TIP3    H266669   1.191   6.235  13.255  0.5521  0.8027 -0.9936
15060TIP3   OH266670   0.341   0.816   0.751  0.1195  0.1327  0.2426
15060TIP3    H166671   0.288   0.828   0.673  1.1491 -2.9772 -1.0906
15060TIP3    H266672   0.278   0.817   0.823 -1.4741 -1.2183 -1.0601
15061TIP3   OH266673   2.021   1.712  14.762 -0.0265 -0.0244  0.1767
15061TIP3    H166674   2.033   1.806  14.773  3.4919  0.1290 -2.9765
15061TIP3    H266675   2.080   1.673  14.826 -1.0194 -0.1242  1.0559
15062TIP3   OH266676   4.395   4.044   1.444  0.0532 -0.2307 -0.2450
15062TIP3    H166677   4.463   4.025   1.508  0.4750 -0.5137 -0.7655
15062TIP3    H266678   4.423   3.998   1.365 -0.2894  0.3818 -0.7336
15063TIP3   OH266679   1.104   6.081  15.683  0.2097  0.1909 -0.1667
15063TIP3    H166680   1.198   6.098  15.674  0.0662  0.6439 -0.8840
15063TIP3    H266681   1.067   6.105  15.599 -0.6176  0.4342  0.2530
15064TIP3   OH266682   2.987   2.125  14.802  0.2894 -0.2595 -0.3800
15064TIP3    H166683   2.928   2.056  14.833 -1.2948  0.9502 -0.5884
15064TIP3    H266684   3.014   2.096  14.715 -0.8247 -0.3500 -0.7024
15065TIP3   OH266685   4.362   2.299   3.563 -0.1794 -0.3040 -0.0042
15065TIP3    H166686   4.450   2.308   3.526 -0.2247  1.4344  0.2426
15065TIP3    H266687   4.358   2.364   3.633 -1.5657 -0.5397  0.1732
15066TIP3   OH266688   0.353   4.743  13.078 -0.0295 -0.0113 -0.4279
15066TIP3    H166689   0.301   4.737  12.998  0.2906  0.4566 -0.6799
15066TIP3    H266690   0.296   4.787  13.141 -0.1079  0.0774 -0.5606
15067TIP3   OH266691   0.226   1.060  11.019 -0.1376 -0.5186 -0.1128
15067TIP3    H166692   0.298   1.014  11.062 -0.4665 -0.1499  0.8710
15067TIP3    H266693   0.153   0.998  11.021  0.1126 -0.8540 -1.0167
15068TIP3   OH266694   1.593   2.863   2.298  0.3504  0.1388 -0.3361
15068TIP3    H166695   1.679   2.874   2.338  1.6323  0.0681 -2.8861
15068TIP3    H266696   1.584   2.937   2.239 -1.8543  0.7260  0.6239
15069TIP3   OH266697   6.312   6.578  15.078 -0.2622  0.2246  0.5754
15069TIP3    H166698   6.386   6.523  15.105 -0.0360  0.5661  0.6657
15069TIP3    H266699   6.328   6.596  14.986 -1.2525 -1.2817  0.0727
15070TIP3   OH266700   2.766   2.317   0.470  0.2852 -0.4840  0.3738
15070TIP3    H166701   2.689   2.340   0.522  0.3945  1.0546 -0.0756
15070TIP3    H266702   2.830   2.286   0.533 -0.8335 -2.2439  0.7061
15071TIP3   OH266703   6.504   1.187   4.054  0.3313  0.6311  0.3265
15071TIP3    H166704   6.527   1.279   4.044  0.3034  0.7931  1.6536
15071TIP3    H266705   6.454   1.183   4.135  0.1232 -0.5226  0.1620
15072TIP3   OH266706   0.127   4.645   5.155 -0.6442 -0.1848  0.2995
15072TIP3    H166707   0.089   4.709   5.095 -0.3179  0.7094  1.0327
15072TIP3    H266708   0.057   4.628   5.219 -0.7616 -0.6432  0.0575
15073TIP3   OH266709   0.264   5.698  14.581  0.2578 -0.2737 -0.3761
15073TIP3    H166710   0.184   5.739  14.613  0.5020  0.5512 -0.7992
15073TIP3    H266711   0.262   5.712  14.486  1.1417  0.2167 -0.3353
15074TIP3   OH266712   0.721   5.095  12.008 -0.2393 -0.3607  0.2087
15074TIP3    H166713   0.738   5.078  12.100 -1.1907  1.7492  0.8507
15074TIP3    H266714   0.625   5.096  12.000 -0.1752 -0.3502 -0.7639
15075TIP3   OH266715   5.559   3.973   5.690 -0.5833  0.2010 -0.6864
15075TIP3    H166716   5.514   4.038   5.636 -1.5982  1.1505  1.1954
15075TIP3    H266717   5.508   3.969   5.771 -0.8860 -3.4073 -0.9023
15076TIP3   OH266718   4.873   4.863  12.375 -0.5414  0.2563  0.4886
15076TIP3    H166719   4.924   4.843  12.297 -0.4844  0.6440  0.4255
15076TIP3    H266720   4.842   4.778  12.406 -1.3872  0.1963 -0.5060
15077TIP3   OH266721   1.950   5.060  15.465 -0.3539  0.2711 -0.0007
15077TIP3    H166722   1.990   4.975  15.450 -1.7485 -0.2309 -1.1552
15077TIP3    H266723   1.947   5.101  15.378 -1.5629  0.5972  0.1692
15078TIP3   OH266724   5.324   0.250  13.883  0.2218 -0.3972 -0.3622
15078TIP3    H166725   5.262   0.321  13.871 -0.0925 -0.8971 -1.9161
15078TIP3    H266726   5.279   0.188  13.941 -0.0374  0.0103 -0.1199
15079TIP3   OH266727   3.913   3.146  12.920  0.2793  0.4590 -0.1902
15079TIP3    H166728   3.875   3.060  12.902  1.0088 -0.4185  2.0965
15079TIP3    H266729   3.950   3.174  12.836  1.7763 -2.3840 -0.6117
15080TIP3   OH266730   4.074   0.252  10.453  0.4754 -0.2585 -0.0459
15080TIP3    H166731   4.118   0.167  10.450 -0.3341 -0.6622 -1.4798
15080TIP3    H266732   4.127   0.308  10.396  0.0757 -0.2662 -0.4222
15081TIP3   OH266733   5.263   3.005  13.937 -0.5168 -0.0367 -0.4142
15081TIP3    H166734   5.270   3.085  13.990  0.9407 -0.4501  0.0652
15081TIP3    H266735   5.247   3.037  13.848 -3.6375  0.6530  0.2750
15082TIP3   OH266736   0.611   5.720   2.199 -0.1241  0.6720 -0.1557
15082TIP3    H166737   0.576   5.756   2.118  0.3429  0.9425 -0.2442
15082TIP3    H266738   0.540   5.667   2.235 -1.0613  2.2099  0.3290
15083TIP3   OH266739   6.537   6.597  13.548 -0.3163  0.4829  0.2354
15083TIP3    H166740   6.498   6.528  13.495  2.1764 -1.2843  0.5344
15083TIP3    H266741   6.519   6.571  13.638 -0.0465  0.6555  0.3395
15084TIP3   OH266742   6.439   2.483  16.151 -0.0565  0.0869  0.1439
15084TIP3    H166743   6.400   2.552  16.204 -0.3107  1.0035 -1.1897
15084TIP3    H266744   6.532   2.503  16.150 -0.2865  1.2276 -1.3338
15085TIP3   OH266745   0.489   1.012  11.469 -0.0168  0.2766  0.0043
15085TIP3    H166746   0.517   0.960  11.544  0.6822  1.2341  0.4302
15085TIP3    H266747   0.547   0.985  11.398  0.1180  0.2231  0.1342
15086TIP3   OH266748   4.156   6.518   2.708  0.7739  0.1537 -0.4145
15086TIP3    H166749   4.200   6.569   2.641  3.1053  1.5432  1.9680
15086TIP3    H266750   4.139   6.580   2.779 -1.7889 -1.1795  0.2667
15087TIP3   OH266751   0.452   0.353   4.576  0.1774  0.0697  0.0670
15087TIP3    H166752   0.496   0.273   4.606  0.3694  0.0486 -0.2661
15087TIP3    H266753   0.516   0.395   4.518  0.4450  0.9401  0.9583
15088TIP3   OH266754   1.077   4.196  12.779  0.0394 -0.0057 -0.4185
15088TIP3    H166755   1.092   4.108  12.815  0.2136  0.3103  0.3079
15088TIP3    H266756   1.009   4.233  12.836  0.2489  0.4700 -0.4738
15089TIP3   OH266757   0.605   2.828  13.614 -0.4612 -0.0022  0.5359
15089TIP3    H166758   0.617   2.916  13.650 -1.9082 -0.0116  1.0865
15089TIP3    H266759   0.628   2.770  13.686  0.2495 -0.0845  0.2510
15090TIP3   OH266760   6.619   0.476   4.214 -0.4630  0.2050  0.4431
15090TIP3    H166761   6.653   0.400   4.260  0.0024 -1.5438 -2.4943
15090TIP3    H266762   6.697   0.528   4.193 -0.3578 -0.2309 -0.3125
15091TIP3   OH266763   0.653   1.182  11.818 -1.0842 -0.0542 -0.2369
15091TIP3    H166764   0.663   1.276  11.831 -1.8915 -0.2054  1.9060
15091TIP3    H266765   0.559   1.166  11.828 -0.8507 -1.1966  0.3040
15092TIP3   OH266766   4.773   3.410   6.135  0.0315  0.6096 -0.3156
15092TIP3    H166767   4.734   3.375   6.215 -1.7299  2.0619 -0.4663
15092TIP3    H266768   4.838   3.473   6.164  2.0834 -1.4764 -0.0648
15093TIP3   OH266769   0.766   0.440  16.855  0.5545  0.3152  0.2025
15093TIP3    H166770   0.831   0.442  16.925  0.8484  3.8969  0.0312
15093TIP3    H266771   0.685   0.467  16.898  0.1472  0.0226 -0.3781
15094TIP3   OH266772   1.430   2.314  13.052 -0.7437 -0.1844  0.2232
15094TIP3    H166773   1.364   2.344  13.115 -0.6048 -1.5639  1.0632
15094TIP3    H266774   1.496   2.270  13.105  0.1278 -0.1045 -0.7604
15095TIP3   OH266775   2.624   2.298  14.987  0.8983 -0.2237 -0.0436
15095TIP3    H166776   2.702   2.338  14.951  0.9314 -0.4432 -0.2129
15095TIP3    H266777   2.585   2.366  15.042  0.8748  0.0909 -0.4460
15096TIP3   OH266778   4.218   2.265   5.023 -0.6057 -0.4649 -0.5311
15096TIP3    H166779   4.251   2.182   4.989  0.2379 -0.5097  0.3387
15096TIP3    H266780   4.221   2.325   4.949 -0.0007 -0.8831 -0.8555
15097TIP3   OH266781   1.296   2.908   0.429 -0.3169 -0.2819 -0.6636
15097TIP3    H166782   1.368   2.970   0.433 -1.1756  0.6458  1.5856
15097TIP3    H266783   1.304   2.868   0.342  2.8294 -0.1905 -0.5187
15098TIP3   OH266784   4.415   1.381   3.098 -0.1575  0.0003  0.8584
15098TIP3    H166785   4.426   1.425   3.014  0.0461  1.9909  1.8755
15098TIP3    H266786   4.320   1.371   3.108 -0.2071  0.2522  0.6338
15099TIP3   OH266787   2.921   0.436  14.980 -0.6336  0.4148 -0.1136
15099TIP3    H166788   2.934   0.484  14.899 -0.4478 -0.1300 -0.4121
15099TIP3    H266789   2.835   0.465  15.012  0.6224  3.0410  1.1900
15100TIP3   OH266790   5.890   3.461  14.860 -0.2858 -0.2797  0.2986
15100TIP3    H166791   5.836   3.462  14.939  0.3450  0.8459  0.7412
15100TIP3    H266792   5.965   3.407  14.883 -1.3715 -2.2038 -0.4578
15101TIP3   OH266793   0.254   0.576  15.891  0.3525 -0.6677 -0.9756
15101TIP3    H166794   0.312   0.595  15.965  0.6241 -4.0801 -0.1656
15101TIP3    H266795   0.262   0.653  15.835  3.3887  0.2805  0.5042
15102TIP3   OH266796   1.782   5.185  14.631  0.1533 -0.3688 -0.5249
15102TIP3    H166797   1.852   5.130  14.667  0.2913  2.2117  3.8598
15102TIP3    H266798   1.701   5.141  14.656  0.1532 -1.1350 -1.7585
15103TIP3   OH266799   2.813   3.926  14.179 -0.0601 -0.5282  0.0027
15103TIP3    H166800   2.762   3.855  14.141  0.5112 -0.2492 -1.3300
15103TIP3    H266801   2.819   3.991  14.109  0.0854  0.5006  0.9460
15104TIP3   OH266802   0.895   1.431   4.398 -0.2861  0.3698 -1.2570
15104TIP3    H166803   0.923   1.404   4.311  2.5691 -0.5880 -0.1776
15104TIP3    H266804   0.899   1.350   4.450  0.7793  1.4077  0.3492
15105TIP3   OH266805   0.975   3.362  17.135 -0.2381 -0.1758 -0.0998
15105TIP3    H166806   0.947   3.357  17.044 -2.7493 -2.0270  0.6572
15105TIP3    H266807   1.058   3.316  17.137 -0.7310 -1.1756 -1.2932
15106TIP3   OH266808   1.672   6.137  13.983 -0.2475 -0.0457  0.6367
15106TIP3    H166809   1.750   6.093  14.015  0.4192  0.1474 -0.6920
15106TIP3    H266810   1.704   6.218  13.944 -1.1179  0.0915  0.1780
15107TIP3   OH266811   5.317   5.798   1.654  0.7363  0.6298  0.1896
15107TIP3    H166812   5.232   5.789   1.611  0.2500  0.6067  1.1470
15107TIP3    H266813   5.323   5.891   1.676  0.5260  0.4563  0.9976
15108TIP3   OH266814   1.363   0.806  14.108 -0.2796 -0.2988 -0.2046
15108TIP3    H166815   1.360   0.898  14.084 -0.5137 -0.5214 -1.0432
15108TIP3    H266816   1.391   0.761  14.029  2.2151 -0.7261  0.8445
15109TIP3   OH266817   1.560   0.164  15.206  0.0136  0.0523 -0.2900
15109TIP3    H166818   1.586   0.128  15.121 -0.3214 -1.6868  0.2905
15109TIP3    H266819   1.476   0.207  15.188 -0.1769 -0.5063 -0.8187
15110TIP3   OH266820   0.259   3.596   2.507 -0.1912 -0.1305 -0.2081
15110TIP3    H166821   0.346   3.633   2.522 -0.4685  0.6872 -0.5539
15110TIP3    H266822   0.198   3.667   2.525 -0.8160 -0.7822  0.3312
15111TIP3   OH266823   1.694   5.676   1.910  0.2821 -0.1469 -0.3654
15111TIP3    H166824   1.684   5.728   1.989 -1.9395 -1.0341  0.0340
15111TIP3    H266825   1.604   5.657   1.883  0.9929 -0.4860 -2.7009
15112TIP3   OH266826   4.283   3.087  13.322  0.0245 -0.0031 -0.7412
15112TIP3    H166827   4.204   3.058  13.276  0.9345 -0.2517 -2.2134
15112TIP3    H266828   4.338   3.009  13.327  0.3484  0.2581 -0.0575
15113TIP3   OH266829   6.399   0.101   3.457  0.2133  0.4588  0.2027
15113TIP3    H166830   6.386   0.169   3.392 -2.2415  0.2594  0.4035
15113TIP3    H266831   6.466   0.136   3.515  2.8656  0.4438 -2.5989
15114TIP3   OH266832   1.172   3.699   4.069 -0.0583  0.4490  0.8878
15114TIP3    H166833   1.207   3.758   4.136 -0.3335  0.6705  0.8419
15114TIP3    H266834   1.156   3.756   3.994 -1.2139  0.5094  1.1586
15115TIP3   OH266835   1.132   5.389  15.273 -0.0774  0.6411  0.0832
15115TIP3    H166836   1.045   5.426  15.289 -0.9606 -1.1718 -0.2997
15115TIP3    H266837   1.164   5.364  15.359 -0.0640  1.0115  0.1888
15116TIP3   OH266838   2.993   4.602  11.841 -0.4256  0.3977  0.7141
15116TIP3    H166839   2.899   4.602  11.827 -0.1270  2.0807 -2.4834
15116TIP3    H266840   3.012   4.687  11.881 -0.1976  0.5997  0.1958
15117TIP3   OH266841   3.783   6.577   0.520 -0.0525 -0.8637  0.5259
15117TIP3    H166842   3.836   6.514   0.570  1.0773  0.1977  0.7131
15117TIP3    H266843   3.819   6.574   0.432  0.9197  0.4539  0.8433
15118TIP3   OH266844   0.451   0.619   3.173  0.1380  0.1699  0.3646
15118TIP3    H166845   0.410   0.630   3.087 -2.6422  0.1690  1.5748
15118TIP3    H266846   0.523   0.558   3.158 -1.0477 -0.8305 -1.7551
15119TIP3   OH266847   6.031   2.424   3.519 -0.0011  0.1628 -0.1132
15119TIP3    H166848   5.959   2.361   3.524 -0.6980  0.9803  0.6406
15119TIP3    H266849   6.070   2.409   3.433 -0.4716 -0.9387 -0.1552
15120TIP3   OH266850   3.093   2.821  15.622  0.0438  0.3114 -0.3879
15120TIP3    H166851   3.158   2.855  15.685  2.4176 -1.0673 -1.9662
15120TIP3    H266852   3.069   2.897  15.570 -0.5539  1.0792  0.9342
15121TIP3   OH266853   3.835   0.260   0.727  0.1083  0.7132  0.5438
15121TIP3    H166854   3.834   0.178   0.677  1.1176  1.1223 -0.1678
15121TIP3    H266855   3.849   0.233   0.817 -3.2642 -0.1794  0.9705
15122TIP3   OH266856   2.474   3.993   3.215 -0.3052  0.1365  0.0886
15122TIP3    H166857   2.514   3.940   3.284 -1.9407 -0.4530  0.6298
15122TIP3    H266858   2.419   4.056   3.262 -0.5988  0.4402 -0.6459
15123TIP3   OH266859   4.502   3.628  16.868  0.1939 -0.1136 -0.0136
15123TIP3    H166860   4.513   3.602  16.776  0.7938  0.9143 -0.2518
15123TIP3    H266861   4.587   3.665  16.892  0.0855 -0.5135  1.0118
15124TIP3   OH266862   5.478   3.637   0.677 -0.4408  0.2059  0.1839
15124TIP3    H166863   5.440   3.577   0.612 -2.0819  1.9579 -0.5926
15124TIP3    H266864   5.483   3.586   0.757 -0.6336 -1.3090 -0.7214
15125TIP3   OH266865   5.439   6.467   3.480  0.0660  0.0944  0.0611
15125TIP3    H166866   5.387   6.539   3.444  0.4087  0.5112  0.3800
15125TIP3    H266867   5.398   6.388   3.446  0.2182  0.4607 -1.0250
15126TIP3   OH266868   1.443   4.608   2.080  0.1718 -1.0171  0.2734
15126TIP3    H166869   1.515   4.583   2.022 -0.9050 -0.7348 -1.2763
15126TIP3    H266870   1.384   4.532   2.078 -0.9563 -0.1592 -0.8626
15127TIP3   OH266871   3.002   5.341   2.042  0.0319 -0.2928  1.0297
15127TIP3    H166872   3.003   5.246   2.041 -0.8286 -0.3435 -1.3453
15127TIP3    H266873   2.909   5.364   2.046  0.1220  0.3840 -0.1610
15128TIP3   OH266874   1.171   5.476  16.968  1.0099  0.4152  0.3388
15128TIP3    H166875   1.091   5.423  16.966  2.4099 -1.8322  0.2572
15128TIP3    H266876   1.182   5.505  16.877  1.2536 -0.8580 -0.0569
15129TIP3   OH266877   1.716   5.427  14.100 -0.5375  0.5460  0.1037
15129TIP3    H166878   1.809   5.420  14.079 -0.6561 -2.9636  0.2008
15129TIP3    H266879   1.713   5.483  14.177  1.3898  1.2687 -0.2887
15130TIP3   OH266880   1.100   1.717   3.286  0.3326 -0.3686  0.1142
15130TIP3    H166881   1.022   1.663   3.273 -0.4819  1.0857 -1.6553
15130TIP3    H266882   1.141   1.682   3.364 -1.1341 -2.3273  0.0952
15131TIP3   OH266883   2.335   3.034  16.975  0.3201 -0.2429 -0.0184
15131TIP3    H166884   2.351   3.040  16.881 -0.6323  3.0762 -0.0791
15131TIP3    H266885   2.299   3.119  16.999  2.1385 -0.3179  3.6961
15132TIP3   OH266886   2.788   2.037   3.719 -0.5920 -0.1962 -0.2628
15132TIP3    H166887   2.745   2.088   3.651 -0.9185  1.1484  0.8994
15132TIP3    H266888   2.778   2.090   3.798  1.3554 -0.8628  0.4740
15133TIP3   OH266889   4.570   3.205  14.809 -0.8587  0.2454 -0.3688
15133TIP3    H166890   4.630   3.264  14.855 -1.8251 -0.3522  1.8150
15133TIP3    H266891   4.626   3.134  14.777 -0.1734  0.5426  0.1419
15134TIP3   OH266892   4.739   5.221   3.203  0.7636 -0.3032  0.2201
15134TIP3    H166893   4.810   5.237   3.141  1.0938 -1.3106  0.3153
15134TIP3    H266894   4.680   5.161   3.158 -0.1646  0.7164  0.0534
15135TIP3   OH266895   1.831   0.458   3.939  0.2616 -0.8679 -0.0705
15135TIP3    H166896   1.906   0.455   3.999 -0.5457 -0.7967  0.9701
15135TIP3    H266897   1.764   0.507   3.986 -0.0800  0.0202 -1.4232
15136TIP3   OH266898   0.721   6.665   1.670  0.7467  0.3507 -0.5986
15136TIP3    H166899   0.787   6.619   1.722  1.8695  1.6878 -0.7783
15136TIP3    H266900   0.667   6.711   1.735 -0.4087 -1.1787 -0.4152
15137TIP3   OH266901   1.989   3.464  11.423 -0.2811  0.0184 -0.0413
15137TIP3    H166902   2.035   3.503  11.349  0.6862 -1.7576 -0.4455
15137TIP3    H266903   2.055   3.457  11.492 -1.3899  2.4906  1.3957
15138TIP3   OH266904   4.384   1.960   1.761  0.7096 -0.2208  0.8574
15138TIP3    H166905   4.447   1.897   1.727  1.1609  1.4220 -1.5665
15138TIP3    H266906   4.417   1.983   1.848  2.0687 -1.2239  0.6305
15139TIP3   OH266907   2.851   5.671   2.264  0.0988  0.1259 -0.4087
15139TIP3    H166908   2.800   5.685   2.185  1.6624  0.6554 -1.3682
15139TIP3    H266909   2.787   5.639   2.328 -1.8702  2.7081 -0.8882
15140TIP3   OH266910   4.655   3.173   5.848  0.7404 -0.1108  0.4191
15140TIP3    H166911   4.645   3.148   5.940  0.4881  0.3874  0.5330
15140TIP3    H266912   4.650   3.269   5.849 -0.4009 -0.1504 -0.2419
15141TIP3   OH266913   2.513   5.799   5.714 -0.3147  0.2784  0.4723
15141TIP3    H166914   2.525   5.730   5.649 -0.0583 -0.5569  1.3786
15141TIP3    H266915   2.420   5.818   5.713 -0.8125 -1.7920  1.8713
15142TIP3   OH266916   2.882   0.386  14.589  0.2617 -0.5554 -0.2383
15142TIP3    H166917   2.895   0.397  14.494 -0.6094  1.3546 -0.1892
15142TIP3    H266918   2.968   0.360  14.622  0.1296 -3.3468 -1.7690
15143TIP3   OH266919   3.371   0.964   0.796  0.2201  0.1286  0.2894
15143TIP3    H166920   3.433   1.028   0.831  0.2839 -0.1629  0.7072
15143TIP3    H266921   3.325   1.011   0.726 -1.5412  1.4579  2.2438
15144TIP3   OH266922   2.935   3.884  10.966 -0.7229 -0.2904  0.8086
15144TIP3    H166923   2.970   3.843  10.887  0.5641  2.6006 -0.2894
15144TIP3    H266924   2.911   3.811  11.023  0.0118 -2.4860 -1.4995
15145TIP3   OH266925   4.613   2.042   0.175 -0.5293  0.3774 -0.0284
15145TIP3    H166926   4.560   2.034   0.254 -0.5604  0.1066 -0.0757
15145TIP3    H266927   4.563   2.102   0.118 -0.9201 -0.0941 -0.1851
15146TIP3   OH266928   2.577   1.098   2.336  0.0212  0.1649 -0.0646
15146TIP3    H166929   2.530   1.112   2.254  0.5287  0.0132 -0.3889
15146TIP3    H266930   2.568   1.004   2.354  0.9858 -0.0572 -0.6349
15147TIP3   OH266931   4.514   4.698  16.522  0.0072  0.5462 -0.2601
15147TIP3    H166932   4.503   4.609  16.489 -0.9628  0.0252  1.3373
15147TIP3    H266933   4.428   4.738  16.514  0.9121  2.1819 -3.0619
15148TIP3   OH266934   0.767   0.849  11.821 -0.6103 -0.0332 -0.7131
15148TIP3    H166935   0.771   0.896  11.904  2.6592 -0.1452 -0.6910
15148TIP3    H266936   0.821   0.901  11.762 -0.8127 -1.3046 -2.0639
15149TIP3   OH266937   2.179   4.666   3.059 -0.2267 -0.1809 -0.3191
15149TIP3    H166938   2.115   4.704   3.119 -0.8532  0.3470 -1.3016
15149TIP3    H266939   2.132   4.659   2.976  0.1265 -2.3129 -0.3983
15150TIP3   OH266940   1.631   2.691   1.415  0.4008  0.0522  0.0186
15150TIP3    H166941   1.710   2.694   1.361  0.2082 -1.2039 -0.3676
15150TIP3    H266942   1.628   2.601   1.448 -0.8599  0.0893  0.0464
15151TIP3   OH266943   4.113   0.050  11.505  0.4012 -0.2224  0.4599
15151TIP3    H166944   4.206   0.031  11.494  1.0159  1.8947  1.4438
15151TIP3    H266945   4.106   0.084  11.594 -1.1095  0.7053  0.0292
15152TIP3   OH266946   1.819   0.458   2.286  0.3275  0.1041 -0.0485
15152TIP3    H166947   1.729   0.451   2.254 -0.2256  0.2689  1.3883
15152TIP3    H266948   1.847   0.546   2.259 -0.8308  1.0167  1.5859
15153TIP3   OH266949   2.412   2.301  16.039 -0.3215 -0.4525  0.4942
15153TIP3    H166950   2.455   2.379  16.004  1.3478 -1.3065  0.5306
15153TIP3    H266951   2.358   2.269  15.967  3.5149 -2.5414 -1.8087
15154TIP3   OH266952   2.903   4.005  14.454  0.3928 -0.0010  0.4467
15154TIP3    H166953   2.877   3.984  14.364 -0.6414  0.9918  0.4927
15154TIP3    H266954   2.944   3.924  14.486 -1.6881 -1.3168 -0.0208
15155TIP3   OH266955   4.852   6.187   3.046  0.7714  0.1083  0.6682
15155TIP3    H166956   4.831   6.095   3.063  1.2632 -0.2789 -0.6969
15155TIP3    H266957   4.779   6.218   2.992  0.5295  0.5689  1.2547
15156TIP3   OH266958   2.714   4.747   2.458 -0.3101 -0.2127 -0.1803
15156TIP3    H166959   2.701   4.805   2.532 -0.9981 -0.3177 -0.2116
15156TIP3    H266960   2.628   4.709   2.442  0.1547 -1.3693 -0.0535
15157TIP3   OH266961   2.211   4.732   1.419  0.1867  0.6502  0.0642
15157TIP3    H166962   2.286   4.733   1.478  0.2243  2.4555  0.0379
15157TIP3    H266963   2.239   4.675   1.347  1.5334  1.2614  0.0626
15158TIP3   OH266964   3.929   2.962   0.676 -0.1674 -0.2123 -0.6816
15158TIP3    H166965   3.978   2.925   0.749  0.0420  0.8755 -0.2553
15158TIP3    H266966   3.887   2.887   0.635  1.4158 -1.1262 -0.7315
15159TIP3   OH266967   0.353   3.390   0.300  0.1474 -0.0043 -0.1033
15159TIP3    H166968   0.430   3.387   0.356 -1.0200 -0.8434  1.5521
15159TIP3    H266969   0.315   3.302   0.307 -0.7948  0.2913 -1.1202
15160TIP3   OH266970   1.769   0.238  13.722 -0.6612 -0.5808 -0.1512
15160TIP3    H166971   1.766   0.293  13.800  1.0988 -0.5987 -0.0453
15160TIP3    H266972   1.683   0.196  13.719 -1.2741  0.5267  0.9500
15161TIP3   OH266973   3.122   0.410   1.696  0.4895 -0.1885 -0.2350
15161TIP3    H166974   3.184   0.475   1.730 -0.5686  1.0439 -0.5827
15161TIP3    H266975   3.055   0.462   1.651 -1.3669 -1.3778  1.0213
15162TIP3   OH266976   3.202   5.909   1.347  0.3672  0.3394  0.2935
15162TIP3    H166977   3.131   5.951   1.395 -0.6447  1.5990 -2.1118
15162TIP3    H266978   3.200   5.818   1.374 -2.4175  0.2601  0.0943
15163TIP3   OH266979   6.408   6.001   0.467  0.7698 -0.0107  0.3316
15163TIP3    H166980   6.499   6.025   0.487  1.0190 -0.6728  0.0046
15163TIP3    H266981   6.395   6.028   0.376  0.8051 -0.4024  0.2101
15164TIP3   OH266982   4.810   1.239  11.094  0.1219 -0.2358 -0.5146
15164TIP3    H166983   4.803   1.158  11.145 -1.8396 -0.8215 -1.6226
15164TIP3    H266984   4.780   1.307  11.153 -0.4633 -0.6567 -0.3187
15165TIP3   OH266985   0.245   5.489   3.897  0.6085  0.6444 -0.1994
15165TIP3    H166986   0.207   5.428   3.834 -0.8587  1.3626 -0.0664
15165TIP3    H266987   0.170   5.516   3.951  1.7340  0.4295  1.5217
15166TIP3   OH266988   0.980   0.106   2.037  0.3625 -0.2739  0.3923
15166TIP3    H166989   1.009   0.097   1.946 -2.7177  0.1245 -0.7632
15166TIP3    H266990   1.010   0.025   2.080  1.7780 -0.5228 -0.9662
15167TIP3   OH266991   2.799   4.247   4.455  0.3817  0.1230 -0.0220
15167TIP3    H166992   2.808   4.340   4.478 -0.6585  0.1560  0.2960
15167TIP3    H266993   2.712   4.223   4.486  0.4161 -0.8156 -0.6206
15168TIP3   OH266994   6.689   1.067   0.019 -0.3761  0.1993  0.1891
15168TIP3    H166995   6.706   0.992   0.077 -0.8985 -0.4648 -0.4928
15168TIP3    H266996   6.630   1.123   0.068 -0.0990  0.0916  0.6510
15169TIP3   OH266997   1.697   1.913  13.561 -0.0466 -0.2551  0.6045
15169TIP3    H166998   1.617   1.939  13.606 -1.3373  2.1936 -2.7047
15169TIP3    H266999   1.767   1.952  13.613 -1.2040  0.1831  1.8907
15170TIP3   OH267000   5.283   5.324   4.995  0.6247  0.1375  0.1931
15170TIP3    H167001   5.328   5.312   4.912 -3.3762  1.3641 -2.4487
15170TIP3    H267002   5.241   5.240   5.013 -0.1766  0.4316 -0.2205
15171TIP3   OH267003   5.325   3.327   1.856  0.0221  0.5161 -0.6211
15171TIP3    H167004   5.373   3.309   1.775 -0.7726  1.2144 -1.2703
15171TIP3    H267005   5.250   3.267   1.854  1.3010 -1.2253  0.8390
15172TIP3   OH267006   3.511   3.159   1.372 -0.6294 -0.2896 -0.2544
15172TIP3    H167007   3.568   3.230   1.343 -2.1310  0.1938 -2.2674
15172TIP3    H267008   3.537   3.143   1.463  0.3265  2.2433  0.0019
15173TIP3   OH267009   6.699   5.373   4.018  0.4183  0.4727  0.1278
15173TIP3    H167010   6.607   5.353   4.003 -0.1256 -0.0014  3.4297
15173TIP3    H267011   6.703   5.469   4.017 -0.3427  0.5229  1.0570
15174TIP3   OH267012   0.047   2.751  16.563  0.0135  0.0070 -0.5613
15174TIP3    H167013   0.073   2.660  16.547  0.6205 -0.1214  0.9685
15174TIP3    H267014  -0.049   2.748  16.567 -0.0207 -0.3948 -1.3786
15175TIP3   OH267015   6.708   1.866  12.246  0.0528  0.2682 -0.5068
15175TIP3    H167016   6.660   1.799  12.295  3.1863  0.0151  2.6785
15175TIP3    H267017   6.686   1.850  12.154 -3.7748 -1.3336  0.4979
15176TIP3   OH267018   2.711   1.020  13.105 -0.5364  0.4575  0.7070
15176TIP3    H167019   2.790   1.065  13.134 -0.1267 -0.3950  0.9458
15176TIP3    H267020   2.641   1.085  13.115  0.1039  1.1734  0.6217
15177TIP3   OH267021   2.077   4.764  11.028  0.2205 -0.3654 -0.4348
15177TIP3    H167022   2.019   4.703  11.074 -0.8873  0.8103 -0.2121
15177TIP3    H267023   2.164   4.747  11.064 -0.1307 -1.5226 -0.0946
15178TIP3   OH267024   2.728   2.366   6.574  0.5680 -0.1077 -0.0332
15178TIP3    H167025   2.704   2.276   6.599  0.0970 -0.0928 -0.4296
15178TIP3    H267026   2.713   2.417   6.654  0.0935 -0.2492 -0.0260
15179TIP3   OH267027   4.569   6.698   6.585  0.1721  0.3065  0.2904
15179TIP3    H167028   4.552   6.740   6.669 -0.3126 -1.2360  0.9980
15179TIP3    H267029   4.583   6.770   6.524 -0.0452  1.4609  1.5710
15180TIP3   OH267030   1.764   1.239  17.197 -0.2305  0.2963 -0.1062
15180TIP3    H167031   1.740   1.312  17.139  0.4980 -0.3299 -1.2302
15180TIP3    H267032   1.739   1.161  17.149 -0.4717 -0.2213  0.8461
15181TIP3   OH267033   1.782   4.381   4.222  0.1722 -0.2146 -0.3895
15181TIP3    H167034   1.737   4.448   4.171  2.8094  1.5929 -0.5780
15181TIP3    H267035   1.757   4.400   4.313  0.4652  0.7095 -0.4891
15182TIP3   OH267036   2.433   1.806   5.804 -0.4768 -0.0560  0.5318
15182TIP3    H167037   2.455   1.874   5.867 -0.3717  0.9307 -0.5466
15182TIP3    H267038   2.517   1.781   5.767 -0.6771  0.3453 -0.1986
15183TIP3   OH267039   6.603   2.853  16.118  0.1348 -0.0752  0.3682
15183TIP3    H167040   6.539   2.849  16.046 -0.1488  1.0871  0.5310
15183TIP3    H267041   6.653   2.772  16.110  0.2094  0.0927 -1.2383
15184TIP3   OH267042   0.790   5.351   5.860  0.4140 -0.4750 -0.8179
15184TIP3    H167043   0.816   5.427   5.808 -0.3972  0.5079  0.1638
15184TIP3    H267044   0.702   5.330   5.831  0.0738 -0.1109 -0.0823
15185TIP3   OH267045   1.290   4.666  16.368  0.5604  0.2057 -0.2325
15185TIP3    H167046   1.243   4.692  16.289 -1.9770  0.8608  1.3554
15185TIP3    H267047   1.321   4.577  16.349  0.2249  0.4259 -2.0175
15186TIP3   OH267048   5.006   4.416  12.739  0.1782  1.0436 -0.1204
15186TIP3    H167049   4.912   4.431  12.728 -0.1168 -0.0875  0.5930
15186TIP3    H267050   5.032   4.371  12.659 -0.4045 -0.6565  0.5828
15187TIP3   OH267051   0.828   6.553   0.981 -0.7771  0.4151  0.2743
15187TIP3    H167052   0.908   6.604   0.991 -0.3147 -0.3107  0.3867
15187TIP3    H267053   0.767   6.611   0.936 -0.1612  0.9546  0.1272
15188TIP3   OH267054   4.623   6.477   0.726 -0.3511  0.3289 -0.4093
15188TIP3    H167055   4.535   6.497   0.693 -1.1370 -1.7568  0.2265
15188TIP3    H267056   4.608   6.449   0.817  1.1942  1.4691  0.2419
15189TIP3   OH267057   1.349   1.750  12.575  0.0775 -0.2567 -0.6654
15189TIP3    H167058   1.341   1.659  12.547 -1.3605  0.3654 -2.5530
15189TIP3    H267059   1.364   1.798  12.493 -0.3757  1.3022  0.1400
15190TIP3   OH267060   0.048   0.132  12.588 -0.5506  0.0739  0.1070
15190TIP3    H167061   0.080   0.061  12.532 -0.3600  0.4235 -0.2272
15190TIP3    H267062   0.060   0.099  12.677  0.5680  0.1228 -0.0115
15191TIP3   OH267063   3.922   2.574  13.609 -0.1850  0.1721  0.4570
15191TIP3    H167064   3.844   2.606  13.655  0.5579  1.8217  0.6324
15191TIP3    H267065   3.990   2.572  13.676 -0.1164 -1.5323  0.3723
15192TIP3   OH267066   4.559   5.181  17.164  0.0954  0.0495 -0.1016
15192TIP3    H167067   4.509   5.262  17.151  0.1565 -0.0842 -1.2404
15192TIP3    H267068   4.513   5.137  17.236 -0.9037  0.3524 -0.5266
15193TIP3   OH267069   3.757   0.093   5.198  0.0734 -0.0127 -0.1262
15193TIP3    H167070   3.834   0.044   5.168 -1.6205 -1.1499 -3.0689
15193TIP3    H267071   3.746   0.163   5.134 -1.2537  0.2348  0.3330
15194TIP3   OH267072   6.635   0.563   4.827 -0.0945 -0.1122 -0.2906
15194TIP3    H167073   6.567   0.505   4.861  0.3107  0.3004  1.3165
15194TIP3    H267074   6.617   0.648   4.868  0.8549  0.2238 -0.5442
15195TIP3   OH267075   1.746   4.708  14.694 -0.5344 -0.8426  0.3635
15195TIP3    H167076   1.763   4.802  14.701 -1.4799 -0.6687  0.4043
15195TIP3    H267077   1.682   4.690  14.762  0.2411 -1.6811  0.8862
15196TIP3   OH267078   2.181   5.704   5.271 -0.3189  0.2857 -0.7295
15196TIP3    H167079   2.206   5.670   5.357  1.7678  1.0234 -0.9872
15196TIP3    H267080   2.109   5.765   5.290  0.5083  0.9069  0.5998
15197TIP3   OH267081   0.658   0.469   3.068  0.2798  0.4597  0.0445
15197TIP3    H167082   0.618   0.469   2.981  0.1135  0.1908  0.1201
15197TIP3    H267083   0.706   0.551   3.072 -2.1859  1.9812  0.8363
15198TIP3   OH267084   0.765   3.126   1.262 -0.5067  0.1978  0.0174
15198TIP3    H167085   0.728   3.053   1.213  1.6588 -0.5810 -0.5565
15198TIP3    H267086   0.835   3.160   1.206  3.2888 -1.8324  3.1066
15199TIP3   OH267087   1.014   5.085  12.895 -0.1556  0.3844  0.4403
15199TIP3    H167088   0.993   5.036  12.815 -1.0511  0.2427  0.7494
15199TIP3    H267089   0.943   5.063  12.956  0.3838  0.6801  1.1944
15200TIP3   OH267090   5.500   5.597   3.184  0.4350 -0.0863  0.1463
15200TIP3    H167091   5.522   5.677   3.231  2.2890 -0.0701 -0.6954
15200TIP3    H267092   5.582   5.549   3.176 -0.0053 -0.5911 -2.1045
15201TIP3   OH267093   1.990   6.764   2.194  0.5188  0.7967 -0.2769
15201TIP3    H167094   1.899   6.789   2.213  0.3934 -1.0788  2.2080
15201TIP3    H267095   2.033   6.845   2.170 -1.2745  2.1846  0.9323
15202TIP3   OH267096   2.445   3.487   5.215  0.2476  0.3057 -0.3547
15202TIP3    H167097   2.352   3.463   5.206  0.1511  0.5056  0.0852
15202TIP3    H267098   2.445   3.556   5.282  0.6796  0.5282 -0.5817
15203TIP3   OH267099   2.337   5.853  10.905  0.1093 -0.5223 -0.1195
15203TIP3    H167100   2.243   5.857  10.917  0.0024 -1.0729 -0.7350
15203TIP3    H267101   2.353   5.903  10.825  0.1857 -1.4953 -0.7293
15204TIP3   OH267102   1.499   4.201   4.333  1.3688 -0.4375  0.8772
15204TIP3    H167103   1.571   4.138   4.324  0.4493 -1.5920  1.2885
15204TIP3    H267104   1.483   4.206   4.427  1.7177  0.7759  0.8890
15205TIP3   OH267105   6.774   2.767   6.244  0.3804  0.2992  0.2054
15205TIP3    H167106   6.837   2.747   6.314  0.0374 -1.8466 -0.0458
15205TIP3    H267107   6.804   2.715   6.170 -0.7473  0.5461 -0.4376
15206TIP3   OH267108   4.226   0.307   2.636  0.7657  0.2096  0.5082
15206TIP3    H167109   4.211   0.326   2.728  0.6522  2.0163  0.1579
15206TIP3    H267110   4.140   0.315   2.595  0.5779 -1.8537  0.4049
15207TIP3   OH267111   3.206   3.822  14.351  0.0940  0.2875  0.5068
15207TIP3    H167112   3.185   3.758  14.419  0.6438 -0.2728  0.1597
15207TIP3    H267113   3.299   3.809  14.334 -0.5067 -1.4166 -2.1718
15208TIP3   OH267114   3.648   1.162  14.878 -0.3165 -0.1948  0.3106
15208TIP3    H167115   3.642   1.256  14.897 -0.2495 -0.1698  0.2083
15208TIP3    H267116   3.619   1.120  14.959  0.0010 -0.0884  0.4837
15209TIP3   OH267117   5.066   4.946   2.773 -0.4651 -0.2513 -0.1517
15209TIP3    H167118   4.972   4.942   2.793 -0.1359  0.5170  1.7401
15209TIP3    H267119   5.106   4.982   2.852  1.5569 -1.3682 -0.6085
15210TIP3   OH267120   1.770   3.700   5.024 -0.4044  0.0479 -0.1253
15210TIP3    H167121   1.687   3.652   5.035  1.6774 -3.6677  1.0999
15210TIP3    H267122   1.791   3.732   5.111  0.1463 -0.3574 -0.1034
15211TIP3   OH267123   4.415   6.424  13.416 -0.4602  0.1601 -0.4016
15211TIP3    H167124   4.387   6.494  13.356 -0.3335  0.2099 -0.4031
15211TIP3    H267125   4.425   6.347  13.360 -0.9816  0.0417 -0.3348
15212TIP3   OH267126   3.656   1.407  16.212  0.2511  0.4475 -0.2247
15212TIP3    H167127   3.687   1.484  16.164 -0.3495  0.3239 -0.8259
15212TIP3    H267128   3.561   1.409  16.203  0.2902 -1.3606 -1.8761
15213TIP3   OH267129   3.768   6.065  11.800 -0.1561 -0.8226 -0.2718
15213TIP3    H167130   3.789   6.082  11.892  0.7227 -1.3185 -0.3646
15213TIP3    H267131   3.775   6.150  11.757  1.3806 -0.8943 -0.2238
15214TIP3   OH267132   4.314   6.064   4.278 -0.0605 -0.1949  0.0957
15214TIP3    H167133   4.253   6.026   4.342 -0.1697  0.7986  0.5988
15214TIP3    H267134   4.354   5.988   4.236 -1.2504 -0.8759  0.1285
15215TIP3   OH267135   6.197   1.776   3.114  0.6147 -0.7317  0.0817
15215TIP3    H167136   6.276   1.812   3.075 -0.7242  1.6994 -0.6533
15215TIP3    H267137   6.200   1.805   3.206 -0.6799  1.9848 -0.6108
15216TIP3   OH267138   0.192   6.122   6.038 -0.3542 -0.3765  0.2679
15216TIP3    H167139   0.200   6.034   6.075 -0.6054 -0.5484 -0.0823
15216TIP3    H267140   0.122   6.163   6.088 -1.6399 -1.0774 -0.9086
15217TIP3   OH267141   5.729   2.415   1.530 -0.3595  0.4725 -0.1191
15217TIP3    H167142   5.811   2.443   1.488 -0.9221  1.9226 -0.3050
15217TIP3    H267143   5.684   2.497   1.552 -1.9548 -0.2988 -0.3880
15218TIP3   OH267144   1.979   4.916   5.184  0.2381 -0.0478  0.2129
15218TIP3    H167145   2.071   4.894   5.196  0.8802  1.2423 -1.7745
15218TIP3    H267146   1.940   4.836   5.149  0.9379 -0.1904 -0.2663
15219TIP3   OH267147   3.724   3.278  10.902  0.6417  0.2959 -0.1239
15219TIP3    H167148   3.680   3.360  10.926  1.9510  1.0679 -0.2669
15219TIP3    H267149   3.668   3.239  10.835 -0.5853  0.4900  0.7439
15220TIP3   OH267150   4.683   6.324  16.421  0.6644 -1.2944 -0.9334
15220TIP3    H167151   4.638   6.277  16.351  0.1423 -0.8465 -0.9152
15220TIP3    H267152   4.754   6.267  16.448  0.2626 -1.9054 -1.1548
15221TIP3   OH267153   4.320   5.016   2.166 -0.0244  0.0483 -0.4064
15221TIP3    H167154   4.378   5.090   2.147  0.2718 -0.2893 -0.8319
15221TIP3    H267155   4.328   5.002   2.260  0.7695 -0.1503 -0.4961
15222TIP3   OH267156   5.601   2.884   4.414 -0.1032 -0.1418  0.6999
15222TIP3    H167157   5.653   2.841   4.346 -0.4132  2.5767 -1.3971
15222TIP3    H267158   5.663   2.898   4.486  0.9382 -0.7267 -0.0523
15223TIP3   OH267159   3.047   1.599  16.551 -0.5241  1.0409  0.0124
15223TIP3    H167160   3.034   1.629  16.641 -1.8625 -0.2614  0.3041
15223TIP3    H267161   2.964   1.558  16.528  0.5431 -0.6436 -1.0171
15224TIP3   OH267162   0.009   2.909   1.473 -0.0217  0.1394 -0.0820
15224TIP3    H167163  -0.067   2.957   1.503 -0.6073 -0.8005 -0.0033
15224TIP3    H267164   0.076   2.975   1.459 -0.2301  0.7874  1.7221
15225TIP3   OH267165   1.831   3.415   0.969  0.2161  0.0797  0.0846
15225TIP3    H167166   1.852   3.508   0.970 -0.1745  0.1708  1.2741
15225TIP3    H267167   1.907   3.373   1.008 -0.2879  0.0655  1.0670
15226TIP3   OH267168   4.125   6.388  15.444 -0.3476  0.5653  0.3533
15226TIP3    H167169   4.153   6.479  15.434  3.1935 -0.3820  0.3493
15226TIP3    H267170   4.098   6.362  15.356 -1.0801  1.4650  0.2880
15227TIP3   OH267171   0.136   3.035  15.370 -0.1332 -0.4230 -0.3889
15227TIP3    H167172   0.103   3.103  15.429 -0.9703 -1.1523  0.0287
15227TIP3    H267173   0.229   3.027  15.392 -0.2226 -0.0251  0.1724
15228TIP3   OH267174   5.375   2.173   0.129 -0.4516  0.1133 -0.5467
15228TIP3    H167175   5.453   2.228   0.123 -0.7566  0.6131 -0.0707
15228TIP3    H267176   5.354   2.171   0.222 -0.4190 -0.8665 -0.5435
15229TIP3   OH267177   6.196   6.707  12.425  0.5635  0.0090 -0.3582
15229TIP3    H167178   6.275   6.727  12.374  1.6823 -1.2947  0.7752
15229TIP3    H267179   6.193   6.776  12.491  1.8851 -0.9570  0.7757
15230TIP3   OH267180   1.927   2.443  16.787  0.8355 -0.1381  0.2361
15230TIP3    H167181   1.892   2.365  16.746  0.3591  0.2205 -0.0465
15230TIP3    H267182   2.005   2.464  16.735  1.5119 -0.9477  0.8848
15231TIP3   OH267183   5.711   1.704  12.362  0.5755 -0.0813  0.2027
15231TIP3    H167184   5.725   1.768  12.292  2.0060 -0.1736  0.3774
15231TIP3    H267185   5.765   1.735  12.435  1.5399 -1.6242  0.1948
15232TIP3   OH267186   0.699   1.531   4.913  0.1651  0.8831 -0.6579
15232TIP3    H167187   0.767   1.547   4.979 -0.7643 -1.1626  0.8880
15232TIP3    H267188   0.685   1.617   4.873  1.9103  1.8623  0.6749
15233TIP3   OH267189   3.392   2.421   4.652 -0.0482  0.5738 -0.0867
15233TIP3    H167190   3.352   2.480   4.716 -1.4514 -0.7235  0.2681
15233TIP3    H267191   3.319   2.371   4.617  1.0625 -0.6491 -0.7112
15234TIP3   OH267192   1.891   0.532  14.869  0.4475  0.7652 -0.0827
15234TIP3    H167193   1.877   0.508  14.960  0.0649  2.3440  0.3073
15234TIP3    H267194   1.857   0.621  14.862  0.9884  0.8853 -1.6311
15235TIP3   OH267195   3.492   3.673  10.527 -0.8273 -0.1480 -0.3535
15235TIP3    H167196   3.528   3.607  10.586 -0.3380  1.6617  1.4963
15235TIP3    H267197   3.411   3.634  10.495 -0.4253 -1.7470  0.4550
15236TIP3   OH267198   5.702   2.979  10.627  0.0505 -0.7617 -0.4839
15236TIP3    H167199   5.776   3.017  10.674  0.3871 -1.3769 -0.5126
15236TIP3    H267200   5.671   2.909  10.684 -0.8657 -0.1468 -0.2121
15237TIP3   OH267201   0.377   2.715  17.063 -0.1707 -0.4038  0.8202
15237TIP3    H167202   0.377   2.748  16.973 -0.2451 -2.4894  0.0127
15237TIP3    H267203   0.380   2.794  17.117 -1.2939  0.9491 -0.9832
15238TIP3   OH267204   5.777   5.437   1.325 -0.0004 -0.4486  0.1950
15238TIP3    H167205   5.808   5.354   1.361 -0.9548 -0.1194  1.9286
15238TIP3    H267206   5.855   5.492   1.318  0.3861 -0.9240  0.7255
15239TIP3   OH267207   4.900   0.719  14.214 -0.0260 -0.0173 -0.3685
15239TIP3    H167208   4.886   0.655  14.284 -0.3558 -0.3214 -0.7073
15239TIP3    H267209   4.846   0.688  14.142 -0.2747  0.7131 -0.5022
15240TIP3   OH267210   1.769   2.717   5.141 -0.1337  0.3270  0.0447
15240TIP3    H167211   1.778   2.622   5.136  0.4897  0.4149 -0.8208
15240TIP3    H267212   1.695   2.731   5.199  0.2880 -0.6710  0.8564
15241TIP3   OH267213   4.499   0.626   5.160  0.2303 -0.5552 -0.5357
15241TIP3    H167214   4.520   0.637   5.067 -0.5611 -0.6546 -0.7322
15241TIP3    H267215   4.507   0.532   5.175  0.4883 -0.5240 -0.4646
15242TIP3   OH267216   5.799   1.842  16.280 -0.4289 -0.3474  0.2106
15242TIP3    H167217   5.760   1.767  16.236 -0.4268 -0.0902 -0.2361
15242TIP3    H267218   5.755   1.846  16.365 -0.3610 -0.9072  0.2765
15243TIP3   OH267219   0.727   2.845   0.249 -0.3399  0.3852 -0.0374
15243TIP3    H167220   0.735   2.843   0.345  2.6195 -2.3692 -0.1590
15243TIP3    H267221   0.678   2.765   0.229 -0.5808  0.7342 -0.8481
15244TIP3   OH267222   6.043   3.547  15.493 -0.2184 -0.1628 -0.5948
15244TIP3    H167223   6.133   3.543  15.525 -0.7517  0.0652  1.0435
15244TIP3    H267224   6.031   3.637  15.464  0.1348 -0.2559 -1.0475
15245TIP3   OH267225   1.529   0.392   0.823 -0.0727  0.2080  0.0535
15245TIP3    H167226   1.589   0.378   0.897 -1.5007 -0.5044  1.1201
15245TIP3    H267227   1.442   0.381   0.860 -0.8689  0.7777 -1.5609
15246TIP3   OH267228   3.576   2.179   0.289 -0.2045  0.5528  0.1965
15246TIP3    H167229   3.585   2.222   0.204 -0.0349  0.7237  0.2995
15246TIP3    H267230   3.514   2.108   0.274 -0.3129  0.6945 -0.0280
15247TIP3   OH267231   0.795   5.820   5.683 -0.2862  0.1038 -0.2366
15247TIP3    H167232   0.847   5.788   5.757  0.4794  1.2906 -0.2436
15247TIP3    H267233   0.857   5.868   5.629 -0.7978 -0.8997 -1.7731
15248TIP3   OH267234   3.609   2.284   0.032 -0.4466 -0.1135  0.6612
15248TIP3    H167235   3.641   2.372   0.051  0.5176 -0.4209  0.5393
15248TIP3    H267236   3.516   2.295   0.013 -0.3845  0.8430  0.8679
15249TIP3   OH267237   5.370   3.791   5.290 -0.1926  0.3014 -0.9588
15249TIP3    H167238   5.442   3.838   5.246  0.1641  1.1233  0.4180
15249TIP3    H267239   5.410   3.757   5.370 -0.9114 -0.8197 -1.0652
15250TIP3   OH267240   0.733   2.339  12.196 -0.0398  0.3937  0.2723
15250TIP3    H167241   0.778   2.306  12.273 -1.4630  1.1352  1.4712
15250TIP3    H267242   0.761   2.430  12.188  0.9948  0.0107 -0.8113
15251TIP3   OH267243   5.379   2.187   4.198 -0.1075 -0.0386  0.2063
15251TIP3    H167244   5.325   2.243   4.254  2.8645  2.6058  0.7513
15251TIP3    H267245   5.423   2.128   4.259  0.7941  0.7625  0.3701
15252TIP3   OH267246   4.378   2.366   5.584  0.3930  0.4658 -0.0364
15252TIP3    H167247   4.299   2.419   5.601 -0.4750 -0.3913 -1.2038
15252TIP3    H267248   4.361   2.284   5.628 -0.0723 -0.2752 -1.5187
15253TIP3   OH267249   0.103   0.269   5.055 -0.4794 -0.0686  0.1974
15253TIP3    H167250   0.098   0.266   5.151  2.0647  0.0942  0.4174
15253TIP3    H267251   0.170   0.204   5.033  0.9669  1.7805 -1.1896
15254TIP3   OH267252   4.952   4.695  11.794  0.0727  0.2461 -0.8145
15254TIP3    H167253   4.950   4.783  11.831 -2.9482 -1.2055  3.1477
15254TIP3    H267254   4.860   4.673  11.780  0.6742 -2.4934 -1.0728
15255TIP3   OH267255   1.491   6.575  14.744  0.4801  0.9890  0.5214
15255TIP3    H167256   1.471   6.632  14.670 -0.3414  1.4183  1.0514
15255TIP3    H267257   1.580   6.545  14.728  0.6717  1.8528 -0.1319
15256TIP3   OH267258   3.142   4.194  14.287 -0.2494 -0.4867 -0.1403
15256TIP3    H167259   3.070   4.179  14.349 -1.0425  2.5418 -0.1539
15256TIP3    H267260   3.099   4.194  14.201  0.3144 -1.5465 -0.4369
15257TIP3   OH267261   6.286   4.153  16.547 -0.0161 -0.1012 -0.1346
15257TIP3    H167262   6.324   4.235  16.517 -0.0570 -0.1225 -0.2454
15257TIP3    H267263   6.225   4.178  16.616  0.1795 -0.0640  0.0232
15258TIP3   OH267264   3.660   6.573  11.522 -0.2604  0.3175  0.4550
15258TIP3    H167265   3.605   6.587  11.599  1.2036 -0.0364  1.6144
15258TIP3    H267266   3.600   6.579  11.448 -1.6672  0.9244  1.6023
15259TIP3   OH267267   6.821   0.498   0.203 -1.0189 -0.0207 -0.8398
15259TIP3    H167268   6.806   0.551   0.125  0.4072 -2.0295 -2.5999
15259TIP3    H267269   6.884   0.432   0.175 -0.3656 -0.7649  2.0769
15260TIP3   OH267270   0.743   0.114  11.652 -0.1607  0.0386 -0.9240
15260TIP3    H167271   0.744   0.141  11.744 -0.8861  0.0860 -0.9191
15260TIP3    H267272   0.683   0.175  11.610 -2.2438 -1.7725 -0.8062
15261TIP3   OH267273   1.293   1.113   1.397  0.6001  0.3256  0.2421
15261TIP3    H167274   1.246   1.190   1.364  0.9631  0.2740 -0.4208
15261TIP3    H267275   1.225   1.052   1.422  0.2899  1.1260  1.4313
15262TIP3   OH267276   1.473   3.028  11.378  0.0727 -0.2514 -0.1965
15262TIP3    H167277   1.537   3.059  11.313  0.8702  0.9438  1.0913
15262TIP3    H267278   1.389   3.059  11.345  0.1258 -1.7447 -1.8635
15263TIP3   OH267279   1.135   4.755   3.184 -0.3543  0.1415 -0.1993
15263TIP3    H167280   1.169   4.781   3.098 -0.3868 -0.0754 -0.2773
15263TIP3    H267281   1.211   4.762   3.243 -0.3302  0.2797 -0.2469
15264TIP3   OH267282   4.714   1.096   3.744 -0.0141  0.1375 -0.1243
15264TIP3    H167283   4.758   1.101   3.659  0.8902 -0.0668  0.3216
15264TIP3    H267284   4.774   1.047   3.800 -0.1439  1.1110  0.9142
15265TIP3   OH267285   0.083   5.699   5.866  0.7735 -0.1031 -0.2760
15265TIP3    H167286   0.053   5.695   5.957  4.4823 -0.4684  1.0973
15265TIP3    H267287   0.100   5.608   5.842  0.2686  0.0348 -1.2122
15266TIP3   OH267288   0.481   6.058   5.087  0.2252 -0.5776 -0.5608
15266TIP3    H167289   0.505   5.977   5.132 -1.1184 -0.6205  0.1208
15266TIP3    H267290   0.387   6.051   5.072 -0.9413  2.5570  3.3319
15267TIP3   OH267291   6.466   1.633   1.242  0.0947  0.1029  0.0283
15267TIP3    H167292   6.508   1.672   1.319  0.3334 -0.4904  0.2024
15267TIP3    H267293   6.395   1.580   1.277  0.9893 -1.1891 -0.0564
15268TIP3   OH267294   6.149   4.115   0.430 -0.2905 -0.9947 -0.0029
15268TIP3    H167295   6.236   4.076   0.420  0.8805  2.0803 -3.9906
15268TIP3    H267296   6.092   4.062   0.374 -0.9336 -2.3809  1.8271
15269TIP3   OH267297   3.454   5.224  15.070 -0.0265  0.2520 -0.1684
15269TIP3    H167298   3.437   5.180  15.154 -1.1832 -1.2512 -1.1246
15269TIP3    H267299   3.471   5.152  15.009  0.5248  1.3050 -1.2859
15270TIP3   OH267300   2.615   2.764   2.975  0.8429  0.4426  0.1531
15270TIP3    H167301   2.575   2.740   2.892 -1.0944 -0.5361  1.3058
15270TIP3    H267302   2.674   2.691   2.995 -0.4719 -0.4888  0.7373
15271TIP3   OH267303   2.305   1.277  10.368  0.2325 -0.2512  0.1111
15271TIP3    H167304   2.343   1.346  10.314  0.9700 -1.8832 -1.5595
15271TIP3    H267305   2.377   1.247  10.423  0.5787 -1.2658 -0.8653
15272TIP3   OH267306   0.153   6.647   5.928  0.4088  0.0640 -0.3414
15272TIP3    H167307   0.181   6.718   5.871  0.9488  0.7537  0.7354
15272TIP3    H267308   0.225   6.636   5.990  0.1644 -1.1730 -0.2464
15273TIP3   OH267309   6.331   1.790  14.150 -0.3434 -0.0246 -0.9210
15273TIP3    H167310   6.382   1.804  14.230 -0.8172  1.3159 -0.8178
15273TIP3    H267311   6.349   1.699  14.125  0.8611 -0.0583 -0.0382
15274TIP3   OH267312   4.189   3.738  11.859  0.1241 -0.2540 -0.3275
15274TIP3    H167313   4.106   3.785  11.871  0.7103  0.9344 -0.8346
15274TIP3    H267314   4.236   3.788  11.792  1.9468  0.0569  1.1021
15275TIP3   OH267315   2.002   5.175  15.225  0.0158 -0.1626  0.1964
15275TIP3    H167316   1.996   5.269  15.244  1.2853 -0.2797  1.3151
15275TIP3    H267317   1.921   5.155  15.178 -1.5689  0.9365  2.2973
15276TIP3   OH267318   1.377   1.854  17.046  0.2419  0.2801  0.2474
15276TIP3    H167319   1.400   1.840  16.954 -2.0427  1.1760 -0.5073
15276TIP3    H267320   1.368   1.765  17.082 -1.2745 -0.1428 -1.0698
15277TIP3   OH267321   2.341   2.967   0.447  0.3887  0.1680  0.7268
15277TIP3    H167322   2.332   3.048   0.397  1.1409 -0.1019  0.1279
15277TIP3    H267323   2.264   2.965   0.504 -1.0406  0.0077 -1.1089
15278TIP3   OH267324   0.232   0.630  15.318 -0.0250  0.3298 -0.0997
15278TIP3    H167325   0.195   0.654  15.233 -0.8750  1.7926  0.6366
15278TIP3    H267326   0.157   0.626  15.376  0.6830  0.5854  0.8518
15279TIP3   OH267327   5.910   2.425  14.549  0.4984  0.2227 -0.3708
15279TIP3    H167328   5.965   2.380  14.484  0.7719 -1.5067  0.9707
15279TIP3    H267329   5.820   2.410  14.519  0.4876 -2.5893  0.7548
15280TIP3   OH267330   2.170   6.104  15.560 -0.2206  0.4917 -0.7123
15280TIP3    H167331   2.149   6.051  15.483 -0.8025  0.0839 -0.2840
15280TIP3    H267332   2.247   6.155  15.534 -1.5065  1.7921 -2.2645
15281TIP3   OH267333   3.210   4.908   2.057  0.0623 -0.2951 -0.2292
15281TIP3    H167334   3.305   4.905   2.045 -0.1171  0.1749 -1.9995
15281TIP3    H267335   3.196   4.978   2.121  0.8425  0.6900 -1.1034
15282TIP3   OH267336   3.770   6.365  11.745 -0.2742 -0.0517 -0.1285
15282TIP3    H167337   3.716   6.379  11.823  0.4447 -1.5946  0.6812
15282TIP3    H267338   3.836   6.434  11.749 -2.1122  1.8991 -1.1600
15283TIP3   OH267339   4.285   2.652  16.518 -0.5651 -0.2677 -0.4697
15283TIP3    H167340   4.341   2.654  16.595  1.0634 -3.9459 -1.3213
15283TIP3    H267341   4.215   2.591  16.541 -0.4682 -0.8380 -1.5931
15284TIP3   OH267342   3.477   5.820  16.605  0.5276  0.1446 -0.1162
15284TIP3    H167343   3.550   5.832  16.667 -0.5629 -1.4205  1.5866
15284TIP3    H267344   3.516   5.834  16.519  3.0910 -1.5080  0.6569
15285TIP3   OH267345   0.142   1.772   3.994 -0.1988 -0.3466 -0.2439
15285TIP3    H167346   0.168   1.682   4.010 -0.2769 -0.3178  0.0455
15285TIP3    H267347   0.079   1.792   4.063 -0.3373 -0.1366 -0.4282
15286TIP3   OH267348   4.151   2.069  12.324  0.1143  0.1825 -0.8755
15286TIP3    H167349   4.188   2.114  12.248  0.9130  1.1533  0.0501
15286TIP3    H267350   4.224   2.019  12.360 -0.4539 -0.8833 -1.1702
15287TIP3   OH267351   6.017   0.624  12.696  0.3224 -0.0529  0.2169
15287TIP3    H167352   5.961   0.554  12.731  2.4441 -1.6735  0.5423
15287TIP3    H267353   6.098   0.617  12.745  0.4504  3.0908  0.6847
15288TIP3   OH267354   6.823   0.734  11.888 -0.0716  0.1276  0.5994
15288TIP3    H167355   6.828   0.725  11.792 -1.6655 -0.7549  0.5584
15288TIP3    H267356   6.896   0.791  11.910  0.8330 -0.3141 -1.0563
15289TIP3   OH267357   3.580   5.284   6.194 -0.2475 -0.9368 -0.0649
15289TIP3    H167358   3.588   5.309   6.102  0.5633 -0.4479  0.1306
15289TIP3    H267359   3.523   5.207   6.193 -1.1699 -0.2701 -0.8659
15290TIP3   OH267360   6.123   5.191  16.319 -0.3878 -0.3839  0.8028
15290TIP3    H167361   6.087   5.159  16.237 -0.1197 -0.3673  0.6790
15290TIP3    H267362   6.053   5.178  16.383 -0.6070 -0.3685  0.5664
15291TIP3   OH267363   3.520   0.583   2.233  0.5666  0.4603  0.5138
15291TIP3    H167364   3.601   0.571   2.183 -0.2512 -1.9753 -0.4116
15291TIP3    H267365   3.451   0.576   2.167 -0.4399  2.1080  1.3510
15292TIP3   OH267366   2.579   0.999  16.849 -0.3264  0.0321 -0.3424
15292TIP3    H167367   2.635   0.945  16.904  0.1908  1.3910  0.5279
15292TIP3    H267368   2.639   1.058  16.804 -0.8122 -0.5553 -1.8394
15293TIP3   OH267369   0.240   2.395  11.925 -0.0205  0.3140  0.2858
15293TIP3    H167370   0.187   2.366  11.851  0.5179 -0.9628  0.3712
15293TIP3    H267371   0.224   2.489  11.930 -2.7759 -0.0879  0.7131
15294TIP3   OH267372   5.305   1.797  15.943 -0.0912  0.4834 -0.8268
15294TIP3    H167373   5.377   1.825  16.000 -1.1034 -0.3115  0.9057
15294TIP3    H267374   5.267   1.879  15.912 -0.3865  0.9982  0.7925
15295TIP3   OH267375   4.554   2.067   2.227 -0.1291  0.3208  0.0860
15295TIP3    H167376   4.617   2.100   2.290  0.6688  1.4628 -1.2704
15295TIP3    H267377   4.489   2.137   2.219 -1.2414 -0.5525  0.9314
15296TIP3   OH267378   2.681   6.021   4.735 -0.1437 -0.1269 -0.5675
15296TIP3    H167379   2.704   6.003   4.826 -1.1915 -0.0629 -0.2770
15296TIP3    H267380   2.642   5.939   4.704 -0.4272  0.0714 -0.7402
15297TIP3   OH267381   0.078   0.512  14.407 -0.6484 -0.2873  0.4970
15297TIP3    H167382  -0.006   0.539  14.369 -1.1079 -1.1798  0.8682
15297TIP3    H267383   0.077   0.549  14.495 -0.8133 -0.6125  0.6313
15298TIP3   OH267384   4.459   2.101   5.172 -0.3286 -0.2524 -0.0684
15298TIP3    H167385   4.419   2.167   5.229 -0.0944 -1.3848  1.4697
15298TIP3    H267386   4.545   2.136   5.151 -1.1104  1.0406 -1.3326
15299TIP3   OH267387   4.566   0.610  11.403 -0.1212 -0.1117 -0.2052
15299TIP3    H167388   4.626   0.564  11.461  0.8111  1.4329  0.1000
15299TIP3    H267389   4.511   0.661  11.462  2.0904  3.0134 -0.6106
15300TIP3   OH267390   0.025   4.185   0.586  0.1976 -0.3289 -0.4703
15300TIP3    H167391   0.061   4.121   0.524  0.6959 -0.4631 -0.0436
15300TIP3    H267392   0.008   4.263   0.532  0.9828 -0.3169 -0.7118
15301TIP3   OH267393   1.326   2.861  12.433  0.3568  0.1897  0.6482
15301TIP3    H167394   1.241   2.898  12.413  0.1957 -0.8023 -0.6244
15301TIP3    H267395   1.378   2.935  12.465  0.2011  1.6637 -2.2074
15302TIP3   OH267396   2.802   1.119   4.774  0.1138 -0.0496  0.0634
15302TIP3    H167397   2.867   1.183   4.746  0.3273  0.5902  1.8817
15302TIP3    H267398   2.733   1.124   4.708  1.1778  0.4134 -1.0367
15303TIP3   OH267399   2.671   2.484  16.267 -0.5036  0.4444  0.3824
15303TIP3    H167400   2.703   2.420  16.330 -1.6506  0.2004  0.7311
15303TIP3    H267401   2.715   2.461  16.185  1.5025  1.1553  1.1886
15304TIP3   OH267402   2.489   2.574   5.638  0.0800 -0.7381 -0.4541
15304TIP3    H167403   2.489   2.647   5.576  1.5240 -0.8130 -0.5893
15304TIP3    H267404   2.410   2.525   5.617 -0.7380  0.5706 -0.6009
15305TIP3   OH267405   6.244   2.269   5.124 -0.2331  0.2883 -0.2886
15305TIP3    H167406   6.210   2.324   5.195  0.7607 -0.9192  1.1792
15305TIP3    H267407   6.213   2.181   5.145  1.7259 -0.4299 -0.2242
15306TIP3   OH267408   5.981   2.313   4.937 -0.1314  0.1961 -0.2564
15306TIP3    H167409   6.017   2.266   5.013 -1.3477 -0.6277 -0.1592
15306TIP3    H267410   6.017   2.401   4.944  0.0442  0.0435  1.1046
15307TIP3   OH267411   1.888   6.054   1.847  0.3070  0.3502  0.3612
15307TIP3    H167412   1.902   5.959   1.856  2.1774  0.5156 -0.2916
15307TIP3    H267413   1.919   6.091   1.930  1.9518  0.5512 -0.3026
15308TIP3   OH267414   4.202   1.342  11.312 -0.2773 -0.2652 -0.1465
15308TIP3    H167415   4.284   1.295  11.322 -0.2918 -0.8499 -2.3825
15308TIP3    H267416   4.210   1.387  11.228 -1.0504  2.1771  0.9959
15309TIP3   OH267417   0.176   3.928   5.453 -0.0302  0.3644  0.2556
15309TIP3    H167418   0.201   3.929   5.361 -0.8838 -2.5091 -0.1178
15309TIP3    H267419   0.081   3.939   5.452 -0.0553  0.2264  0.7796
15310TIP3   OH267420   2.276   6.766   0.881  0.2326  0.1007  0.3911
15310TIP3    H167421   2.286   6.739   0.790  0.3139  1.3326  0.0271
15310TIP3    H267422   2.183   6.752   0.900 -0.1249  1.3211 -0.3802
15311TIP3   OH267423   6.693   2.603   3.517  0.4178  0.5905 -0.6022
15311TIP3    H167424   6.653   2.680   3.476 -0.5459  0.4149 -0.0341
15311TIP3    H267425   6.683   2.534   3.451 -2.2281 -0.0001  0.2989
15312TIP3   OH267426   1.236   6.366   5.024  0.1918  0.1419  0.3821
15312TIP3    H167427   1.168   6.311   5.062  1.0183 -1.9199 -0.9442
15312TIP3    H267428   1.306   6.366   5.090  1.2098 -2.5867 -0.5416
15313TIP3   OH267429   6.147   2.378   3.242 -0.0318 -0.3488 -0.1697
15313TIP3    H167430   6.078   2.404   3.182  0.8039  0.7739 -0.6766
15313TIP3    H267431   6.221   2.356   3.186  0.1850 -1.0602  0.3814
15314TIP3   OH267432   0.729   6.153  17.173  0.0806  0.3063 -0.1402
15314TIP3    H167433   0.749   6.137  17.081 -0.2197 -1.5241  0.0718
15314TIP3    H267434   0.707   6.246  17.177  4.4882  1.6017 -1.0939
15315TIP3   OH267435   2.037   4.015  13.259  0.5596 -0.0041  0.5624
15315TIP3    H167436   2.095   4.012  13.183 -1.4057 -3.1115 -1.0299
15315TIP3    H267437   2.093   4.045  13.331  3.2528  0.2737 -1.4967
15316TIP3   OH267438   5.195   4.445   4.380 -0.0272 -0.5323 -0.2622
15316TIP3    H167439   5.105   4.451   4.414 -0.6223 -1.4728 -1.6049
15316TIP3    H267440   5.234   4.374   4.430 -0.2767 -0.6355 -0.2104
15317TIP3   OH267441   1.356   4.884   5.019  0.0005 -0.2546  0.7123
15317TIP3    H167442   1.372   4.940   5.095  2.9780  1.1714 -0.8259
15317TIP3    H267443   1.296   4.934   4.964 -0.1770 -0.1779  0.9734
15318TIP3   OH267444   5.290   2.627  13.084  0.0961  0.0681  0.2908
15318TIP3    H167445   5.385   2.614  13.082  0.2831  1.1935  0.9635
15318TIP3    H267446   5.259   2.563  13.148  0.2326 -1.1792 -0.8638
15319TIP3   OH267447   2.222   4.440   1.540 -0.4924  0.5151  0.2193
15319TIP3    H167448   2.209   4.389   1.621  1.8380 -0.3699  0.1004
15319TIP3    H267449   2.272   4.517   1.568 -0.3520  0.6002 -0.2600
15320TIP3   OH267450   0.873   4.714  14.450  0.5708  0.2675 -0.2747
15320TIP3    H167451   0.872   4.622  14.424  1.1659  0.5386 -1.3382
15320TIP3    H267452   0.898   4.761  14.370  2.2073  1.1792  0.7024
15321TIP3   OH267453   1.412   4.785   3.186 -0.1446  0.0798 -0.0630
15321TIP3    H167454   1.489   4.831   3.154 -1.3715  2.2305 -0.1067
15321TIP3    H267455   1.405   4.708   3.130  2.0709 -0.3134  0.1133
15322TIP3   OH267456   0.379   0.349   4.955  0.2821 -0.1344 -0.3410
15322TIP3    H167457   0.400   0.360   5.047 -1.4679 -2.7179  0.4737
15322TIP3    H267458   0.344   0.260   4.948 -0.0056  0.0961 -3.4293
15323TIP3   OH267459   0.968   3.041   1.044  0.0401  0.3706 -0.4119
15323TIP3    H167460   0.911   2.966   1.028 -0.7249  0.7657  0.3784
15323TIP3    H267461   0.990   3.073   0.956 -0.7901  0.0762 -0.7454
15324TIP3   OH267462   6.293   2.869  12.603  0.1467  0.0898 -0.1049
15324TIP3    H167463   6.219   2.811  12.621 -1.1545  1.4455 -0.8657
15324TIP3    H267464   6.323   2.843  12.516 -1.0056  1.0685 -0.8346
15325TIP3   OH267465   6.276   4.484   6.023 -0.8389 -0.2274 -0.1564
15325TIP3    H167466   6.342   4.415   6.011 -0.7840 -0.2842  0.4399
15325TIP3    H267467   6.270   4.495   6.118  0.4379  1.8026 -0.2442
15326TIP3   OH267468   6.248   6.690  12.820  0.2518 -0.0930 -0.4911
15326TIP3    H167469   6.331   6.737  12.830 -1.2455  2.4207  1.4084
15326TIP3    H267470   6.212   6.724  12.738 -0.5859  1.8220  0.6155
15327TIP3   OH267471   5.383   6.005   6.088 -0.7037  0.1506 -0.3559
15327TIP3    H167472   5.408   6.020   6.179 -2.6485 -0.0164  0.2596
15327TIP3    H267473   5.466   6.005   6.040  0.3059  1.0876  1.2737
15328TIP3   OH267474   3.210   5.277   6.252 -0.5419 -0.5786  0.1115
15328TIP3    H167475   3.132   5.232   6.284  0.8027 -1.9608  1.6246
15328TIP3    H267476   3.282   5.241   6.304  1.1723  0.4178 -1.4397
15329TIP3   OH267477   0.513   3.684   2.594 -0.2591  0.0958  0.1043
15329TIP3    H167478   0.493   3.689   2.687 -0.7738 -0.2507  0.0183
15329TIP3    H267479   0.583   3.748   2.580  0.8087 -0.8374  0.9942
15330TIP3   OH267480   1.943   3.490  14.957  0.5819 -0.2447 -0.3761
15330TIP3    H167481   1.881   3.549  14.915  0.6212 -0.7272 -1.1186
15330TIP3    H267482   1.947   3.414  14.900 -0.3432 -1.4894  1.1519
15331TIP3   OH267483   0.529   6.303   3.687  0.0166  0.5782  0.7032
15331TIP3    H167484   0.572   6.356   3.621 -0.6200  2.7089  1.9208
15331TIP3    H267485   0.436   6.304   3.663  0.0522 -0.4670  0.4499
15332TIP3   OH267486   3.468   5.098   5.927  0.2395 -0.9335  0.3506
15332TIP3    H167487   3.445   5.091   6.019 -1.3048  0.5590  0.1271
15332TIP3    H267488   3.516   5.018   5.908  2.5076 -0.3609  2.9653
15333TIP3   OH267489   3.236   0.787  13.307 -0.5272  0.2861 -0.1871
15333TIP3    H167490   3.159   0.799  13.362 -0.6725 -0.5519 -0.1909
15333TIP3    H267491   3.308   0.775  13.370 -0.4457  0.7865 -0.1838
15334TIP3   OH267492   0.668   6.785   3.639  0.8506  0.5575 -0.0641
15334TIP3    H167493   0.725   6.838   3.584 -0.2731  3.5175  1.4487
15334TIP3    H267494   0.581   6.793   3.598  0.7007 -0.4260  0.0256
15335TIP3   OH267495   2.989   2.250  16.409 -0.1234 -0.4276  0.3687
15335TIP3    H167496   3.036   2.285  16.485 -0.6358  1.5269 -0.1574
15335TIP3    H267497   3.043   2.274  16.334 -0.2348 -1.2764 -0.0025
15336TIP3   OH267498   1.441   6.630   6.205  0.2548 -0.1359  0.2929
15336TIP3    H167499   1.364   6.676   6.237  0.7746 -0.0285  1.4627
15336TIP3    H267500   1.515   6.686   6.231  0.8357 -1.1266  0.8534
15337TIP3   OH267501   2.530   4.959   3.259 -0.0925 -0.0005 -0.1144
15337TIP3    H167502   2.489   4.912   3.186 -0.7853  0.9805 -0.3754
15337TIP3    H267503   2.506   5.050   3.245  0.6594  0.3461  0.7637
15338TIP3   OH267504   4.141   5.539   2.129 -0.1707  0.1524  0.3521
15338TIP3    H167505   4.175   5.468   2.183 -0.6322  1.0625  1.9159
15338TIP3    H267506   4.207   5.609   2.137 -0.9880  0.8661  1.0542
15339TIP3   OH267507   1.734   6.407  13.906  1.1770  1.0220 -0.1028
15339TIP3    H167508   1.676   6.476  13.873 -0.4225 -0.2163  0.0051
15339TIP3    H267509   1.784   6.379  13.829  1.2130  1.6891 -0.3306
15340TIP3   OH267510   2.660   2.335   5.563 -0.0036 -0.1475 -0.3120
15340TIP3    H167511   2.740   2.381   5.588 -0.6819  0.0467  1.7135
15340TIP3    H267512   2.619   2.312   5.646 -2.2714  0.1212 -1.2768
15341TIP3   OH267513   5.217   5.388  12.216 -0.0014 -0.0443  0.2463
15341TIP3    H167514   5.259   5.473  12.204  2.1379 -0.8053  1.8617
15341TIP3    H267515   5.273   5.326  12.169 -0.4131 -0.8363  0.7688
15342TIP3   OH267516   1.655   3.261   0.818  0.1885 -0.4184  0.0076
15342TIP3    H167517   1.740   3.218   0.807 -1.0172 -2.6825 -1.0892
15342TIP3    H267518   1.669   3.322   0.891  2.4405 -1.5536  0.6243
15343TIP3   OH267519   6.409   0.376   3.594 -0.3143  0.3102  0.4745
15343TIP3    H167520   6.428   0.313   3.664  0.4904 -0.2344 -0.2058
15343TIP3    H267521   6.319   0.356   3.568 -0.4112  0.1132  0.9358
15344TIP3   OH267522   0.134   0.505  17.082  0.0586 -0.1149  0.6051
15344TIP3    H167523   0.127   0.496  16.987 -0.1832  0.2751  0.5834
15344TIP3    H267524   0.048   0.536  17.110  0.0464 -0.4843  0.9861
15345TIP3   OH267525   0.877   6.145  11.056 -0.2229  0.4925 -0.5102
15345TIP3    H167526   0.814   6.086  11.097 -0.0490  0.6082 -0.0724
15345TIP3    H267527   0.946   6.088  11.023 -0.4911  0.3762 -0.8732
15346TIP3   OH267528   0.841   5.622  14.809  0.6154  0.2292 -0.3646
15346TIP3    H167529   0.789   5.609  14.730 -1.0925  1.2646  0.5414
15346TIP3    H267530   0.923   5.660  14.777 -0.4458  1.6237 -1.5736
15347TIP3   OH267531   2.219   4.467   3.299 -0.1999 -0.5790  0.0391
15347TIP3    H167532   2.178   4.500   3.219 -0.5175 -0.2996  0.3139
15347TIP3    H267533   2.263   4.386   3.272  0.3472 -0.0847 -0.5822
15348TIP3   OH267534   0.603   5.711  13.915  0.3646 -0.2860  0.1419
15348TIP3    H167535   0.605   5.705  13.819  1.8425 -1.1988  0.1959
15348TIP3    H267536   0.516   5.681  13.939  0.2661 -0.8861 -0.8772
15349TIP3   OH267537   5.766   5.130  17.150 -0.1263  0.2566 -0.6767
15349TIP3    H167538   5.795   5.039  17.153 -0.3882  0.1555 -1.0746
15349TIP3    H267539   5.676   5.128  17.184  0.4926  0.6539  1.0971
15350TIP3   OH267540   5.138   5.293   4.197 -0.3022 -0.3194 -0.1870
15350TIP3    H167541   5.162   5.385   4.188  2.2425 -0.6982  1.7986
15350TIP3    H267542   5.122   5.281   4.290  2.8859 -2.5673  0.1998
15351TIP3   OH267543   4.166   0.552  16.983 -0.5868 -0.2745 -0.2010
15351TIP3    H167544   4.149   0.634  17.030  0.6536 -0.6056  0.8729
15351TIP3    H267545   4.087   0.500  16.998 -1.3450  0.6717 -0.8115
15352TIP3   OH267546   4.626   2.050   4.788  0.1476  0.2428 -0.3676
15352TIP3    H167547   4.632   1.990   4.714  0.4689 -1.4890  1.0057
15352TIP3    H267548   4.593   1.996   4.860 -3.1700  2.5380  0.0361
15353TIP3   OH267549   4.036   6.376   0.481 -0.1433 -0.2377  0.1564
15353TIP3    H167550   4.014   6.407   0.393 -0.5400 -1.6158 -0.2456
15353TIP3    H267551   4.025   6.281   0.477 -0.4936 -0.2929  1.7884
15354TIP3   OH267552   4.120   3.973  11.567 -0.2306 -0.1723 -0.3396
15354TIP3    H167553   4.157   4.028  11.498  0.7563 -1.9916 -1.3206
15354TIP3    H267554   4.063   4.032  11.616  1.9915  2.1197 -0.3255
15355TIP3   OH267555   4.110   1.067   4.030  0.1169 -0.0169 -0.4935
15355TIP3    H167556   4.178   1.047   3.965 -0.0402 -1.2531 -0.2966
15355TIP3    H267557   4.055   0.989   4.033 -1.2822  0.9208 -0.5728
15356TIP3   OH267558   5.812   1.349  15.511  0.2225  0.3389  0.1895
15356TIP3    H167559   5.855   1.412  15.568 -1.6612  1.4643  0.4734
15356TIP3    H267560   5.791   1.398  15.432 -1.9758  0.3945  0.7218
15357TIP3   OH267561   3.464   4.939  12.837 -0.5447 -0.3612  0.0010
15357TIP3    H167562   3.460   4.871  12.904  0.4617  0.1813  0.6323
15357TIP3    H267563   3.532   4.909  12.777  1.0796  0.8379  1.1714
15358TIP3   OH267564   6.453   2.263   4.072  0.3532 -0.0672  0.2863
15358TIP3    H167565   6.370   2.312   4.073  0.4825  0.1544  0.1808
15358TIP3    H267566   6.520   2.329   4.089  0.4656 -0.3369  0.9374
15359TIP3   OH267567   6.024   4.677   5.858 -0.3364 -0.0645  0.1242
15359TIP3    H167568   6.012   4.605   5.920 -0.8571  0.6638  0.8902
15359TIP3    H267569   5.951   4.669   5.796  0.3368 -0.9558 -0.5843
15360TIP3   OH267570   3.978   6.795   3.447  0.0731  0.2023 -0.5146
15360TIP3    H167571   4.008   6.814   3.358  0.1314  0.7496 -0.3810
15360TIP3    H267572   3.997   6.702   3.459 -1.8314 -0.4000 -1.8042
15361TIP3   OH267573   5.457   5.474   5.966  0.0194  0.1537 -0.0978
15361TIP3    H167574   5.434   5.518   6.048  0.2900  1.8538 -0.8813
15361TIP3    H267575   5.401   5.515   5.900 -0.4303 -1.4243 -0.7238
15362TIP3   OH267576   6.387   4.007  14.308 -0.3473  0.0947  0.1461
15362TIP3    H167577   6.345   3.974  14.388  2.2521 -1.2826  1.0875
15362TIP3    H267578   6.369   3.939  14.243  0.4940 -0.5609  0.5824
15363TIP3   OH267579   5.575   2.868   1.742 -0.0725  0.0862 -0.8283
15363TIP3    H167580   5.503   2.840   1.799  1.3399 -0.5996  0.7173
15363TIP3    H267581   5.562   2.819   1.661 -0.2026 -1.6875  0.1933
15364TIP3   OH267582   5.322   3.846  13.724 -0.5213  0.2819 -0.8577
15364TIP3    H167583   5.324   3.750  13.714 -1.6499  0.2890 -1.2657
15364TIP3    H267584   5.327   3.880  13.635 -3.8401  0.4916 -1.0665
15365TIP3   OH267585   1.502   3.964  17.082 -0.3780 -0.0161 -0.1234
15365TIP3    H167586   1.493   4.057  17.063  1.2346  0.0271 -0.8321
15365TIP3    H267587   1.568   3.960  17.152  1.9534 -0.6958 -2.1895
15366TIP3   OH267588   1.744   4.944  11.898 -0.6163  0.2158  0.5245
15366TIP3    H167589   1.730   4.937  11.803  0.9950 -1.4360  0.3464
15366TIP3    H267590   1.812   5.011  11.906 -3.2064  3.0322  0.8730
15367TIP3   OH267591   0.785   1.236   2.434 -0.2410  0.1339 -0.5898
15367TIP3    H167592   0.836   1.155   2.440  2.4832  1.8305  2.8373
15367TIP3    H267593   0.836   1.292   2.375  1.0543  1.2060  1.4413
15368TIP3   OH267594   3.123   5.053   0.993 -0.1695  0.1168 -0.0061
15368TIP3    H167595   3.138   5.059   1.087 -0.7591 -2.2059  0.3007
15368TIP3    H267596   3.199   5.096   0.954  1.5448 -1.3270  1.5472
15369TIP3   OH267597   2.399   1.286  12.277  0.6789  1.2044 -0.1649
15369TIP3    H167598   2.405   1.381  12.267  2.8184  1.1222 -0.2038
15369TIP3    H267599   2.490   1.256  12.277  0.0473 -0.9205 -0.7731
15370TIP3   OH267600   5.943   4.563   0.221  0.1867  0.5741  0.1532
15370TIP3    H167601   5.888   4.551   0.299 -1.0087  0.3315 -0.6919
15370TIP3    H267602   6.026   4.521   0.244 -0.3839 -0.1137  1.0471
15371TIP3   OH267603   3.159   2.245   4.560 -0.4308  0.1190  0.3012
15371TIP3    H167604   3.159   2.181   4.632  0.2278 -0.0997  0.1143
15371TIP3    H267605   3.200   2.198   4.487  0.5982  0.9532  0.3383
15372TIP3   OH267606   6.308   5.543  14.931  0.1149 -0.7585  0.3021
15372TIP3    H167607   6.398   5.513  14.936 -0.1065 -1.3176  1.2527
15372TIP3    H267608   6.275   5.534  15.021 -1.2208 -1.6567 -0.2520
15373TIP3   OH267609   6.083   5.110   2.881 -0.5028 -0.1059 -0.2028
15373TIP3    H167610   6.110   5.095   2.790  0.7513  0.9428 -0.0329
15373TIP3    H267611   6.103   5.202   2.897 -1.8868  0.0612  0.7648
15374TIP3   OH267612   6.539   4.634  14.737 -0.3779 -0.0109  0.5182
15374TIP3    H167613   6.614   4.660  14.790 -0.3181 -0.9194  0.8934
15374TIP3    H267614   6.574   4.569  14.676 -0.7854 -0.1615  0.4435
15375TIP3   OH267615   0.377   1.725   2.654  0.3081  0.1982 -0.5144
15375TIP3    H167616   0.399   1.635   2.681  1.3685  0.7525  0.6089
15375TIP3    H267617   0.447   1.750   2.593  0.2523  0.3915 -0.5008
15376TIP3   OH267618   4.169   0.482  14.752  0.0948  0.2545 -0.5990
15376TIP3    H167619   4.124   0.532  14.683 -0.1735  0.3751 -0.3349
15376TIP3    H267620   4.206   0.406  14.706  1.2090  1.1022 -1.1689
15377TIP3   OH267621   5.979   4.972   5.821 -0.6012 -0.4647  0.2684
15377TIP3    H167622   6.047   5.039   5.814 -1.9977  1.0195  0.5930
15377TIP3    H267623   6.026   4.889   5.806  1.3712  0.4535  1.0997
15378TIP3   OH267624   4.770   2.961   0.879 -0.0445  0.4436  0.7198
15378TIP3    H167625   4.785   2.867   0.891 -1.9015 -0.2492 -1.5783
15378TIP3    H267626   4.832   2.987   0.811 -0.6319  0.4704  0.1831
15379TIP3   OH267627   3.735   4.055  14.799 -0.0670  0.5875 -0.0595
15379TIP3    H167628   3.701   3.971  14.828 -0.6557  0.1737 -1.7820
15379TIP3    H267629   3.799   4.033  14.732 -0.6029  1.4941 -0.9004
15380TIP3   OH267630   4.856   4.011   1.817  0.2428  0.4754  0.1702
15380TIP3    H167631   4.862   3.917   1.837  0.7359  0.6307  0.7844
15380TIP3    H267632   4.946   4.042   1.822  0.2657  0.7301 -1.3692
15381TIP3   OH267633   3.667   0.531   0.578  0.2408  0.1257 -0.2172
15381TIP3    H167634   3.737   0.596   0.572  0.3079  0.0900  0.1508
15381TIP3    H267635   3.647   0.508   0.487  0.4321  0.4295 -0.3370
15382TIP3   OH267636   3.318   0.419   3.478 -0.6278 -0.8481  0.0289
15382TIP3    H167637   3.297   0.480   3.408 -0.5368 -1.1915 -0.3055
15382TIP3    H267638   3.283   0.459   3.557 -1.9166 -1.0733 -0.4025
15383TIP3   OH267639   0.951   5.700   2.606 -0.3430  0.2154  0.1325
15383TIP3    H167640   0.880   5.710   2.543 -0.5083  3.6103  0.6471
15383TIP3    H267641   1.029   5.689   2.551 -0.9800 -1.4948 -0.4875
15384TIP3   OH267642   0.181   4.917  16.138 -1.2044  0.7014 -0.6295
15384TIP3    H167643   0.090   4.895  16.117 -1.8786  1.0553  1.5880
15384TIP3    H267644   0.178   5.010  16.161 -0.9555  0.0554  2.3963
15385TIP3   OH267645   3.848   2.708   5.173 -0.5371 -0.1533  0.1399
15385TIP3    H167646   3.823   2.656   5.096 -2.2331  0.0577  0.5124
15385TIP3    H267647   3.816   2.658   5.247  0.7441 -0.1550  0.7261
15386TIP3   OH267648   6.020   0.814  12.340  0.2307  0.0142  0.2785
15386TIP3    H167649   6.103   0.768  12.330  1.2364  1.9188 -0.7799
15386TIP3    H267650   5.988   0.825  12.250 -1.2911 -0.8226  0.6744
15387TIP3   OH267651   5.369   5.122   1.704  0.0866  0.5392  0.2974
15387TIP3    H167652   5.425   5.077   1.767 -0.2528 -0.3253 -0.0010
15387TIP3    H267653   5.430   5.162   1.642  0.3938  0.0355  0.2658
15388TIP3   OH267654   0.338   1.880   5.392  0.4022  0.4481  0.2000
15388TIP3    H167655   0.412   1.821   5.406  0.8659  1.3842  2.0441
15388TIP3    H267656   0.261   1.830   5.420  0.5817  0.1132  0.0937
15389TIP3   OH267657   0.818   4.940   0.066 -0.2612 -0.0099 -0.5003
15389TIP3    H167658   0.864   5.023   0.051 -0.2979 -0.0018 -0.5661
15389TIP3    H267659   0.833   4.889  -0.013  1.2792 -0.7780  0.2424
15390TIP3   OH267660   6.167   3.930   1.477  0.0455  0.0792  0.1333
15390TIP3    H167661   6.231   3.869   1.515  1.5037  2.9112  2.7667
15390TIP3    H267662   6.216   3.977   1.409 -0.7326 -0.8752 -1.1201
15391TIP3   OH267663   3.201   3.764  13.379  0.1627  0.6520 -0.4710
15391TIP3    H167664   3.152   3.760  13.297 -0.0648 -0.3576 -0.2944
15391TIP3    H267665   3.262   3.690  13.375 -0.0403  0.4195  0.3784
15392TIP3   OH267666   4.254   1.205   0.040  0.5103 -0.3436  0.1574
15392TIP3    H167667   4.221   1.294   0.055  0.7114 -0.0587 -0.9606
15392TIP3    H267668   4.215   1.179  -0.044  0.0834 -1.5037  0.6988
15393TIP3   OH267669   1.009   0.031   4.725  0.3194  0.3288 -0.0846
15393TIP3    H167670   0.930  -0.017   4.702  0.8873 -0.6345 -0.0533
15393TIP3    H267671   1.042  -0.011   4.804  0.0303  1.7140  0.8137
15394TIP3   OH267672   3.491   4.934  13.226  0.2183 -0.1379  0.4149
15394TIP3    H167673   3.462   4.856  13.178  1.1915 -0.3478  0.1357
15394TIP3    H267674   3.467   5.007  13.169 -1.9929 -0.1023  1.3236
15395TIP3   OH267675   2.609   0.628  16.824 -0.3383  0.7881 -0.1501
15395TIP3    H167676   2.634   0.686  16.752 -3.1131  0.7177 -1.2835
15395TIP3    H267677   2.574   0.550  16.781  0.7426 -0.6092  1.3446
15396TIP3   OH267678   4.628   2.545  14.760  0.7897 -0.2848 -0.1162
15396TIP3    H167679   4.589   2.620  14.806 -1.9281 -0.7716 -1.4406
15396TIP3    H267680   4.668   2.493  14.830  0.8133  1.2839  1.1071
15397TIP3   OH267681   3.510   3.738   0.597  0.1095  0.1861 -0.4432
15397TIP3    H167682   3.441   3.700   0.542 -0.6610  1.7668 -0.6361
15397TIP3    H267683   3.493   3.832   0.594 -0.4756  0.3366  3.1680
15398TIP3   OH267684   3.430   1.380   5.312  0.3095  0.5958 -0.0979
15398TIP3    H167685   3.417   1.389   5.407 -1.3543  1.2186 -0.3363
15398TIP3    H267686   3.472   1.462   5.286  1.7791 -0.0253  0.2249
15399TIP3   OH267687   0.210   1.879   4.572  0.1771  0.7008 -0.0349
15399TIP3    H167688   0.235   1.927   4.493  0.1128  0.5417 -0.1530
15399TIP3    H267689   0.290   1.875   4.624  0.2575  0.6791 -0.1591
15400TIP3   OH267690   4.405   3.357  12.160 -0.4830 -0.1756  0.1779
15400TIP3    H167691   4.488   3.357  12.207  0.5504  3.4363 -1.2902
15400TIP3    H267692   4.344   3.312  12.219  1.5755  0.5942  3.1456
15401TIP3   OH267693   0.475   0.255  14.892 -0.0717 -0.1866 -0.2151
15401TIP3    H167694   0.451   0.263  14.800  1.2153  0.8966 -0.4916
15401TIP3    H267695   0.410   0.195  14.929 -2.1338  1.2966 -1.2478
15402TIP3   OH267696   2.151   0.770   1.918  0.2539  0.4813 -0.2347
15402TIP3    H167697   2.175   0.811   2.001  2.8183  1.0062 -1.1435
15402TIP3    H267698   2.118   0.841   1.864 -1.7394  0.0852  0.3469
15403TIP3   OH267699   5.612   3.225   3.119  0.2146 -0.0446  0.2551
15403TIP3    H167700   5.586   3.170   3.045  2.4687  0.7383 -1.2040
15403TIP3    H267701   5.655   3.164   3.180  0.1244 -0.3661 -0.0010
15404TIP3   OH267702   0.952   1.492   2.353  0.5910 -0.5727  0.0275
15404TIP3    H167703   0.939   1.551   2.427  1.0090 -0.5231  0.0655
15404TIP3    H267704   0.876   1.508   2.296  0.1317 -0.8043  0.5675
15405TIP3   OH267705   6.179   4.207   3.021  0.0292  0.2335 -0.3285
15405TIP3    H167706   6.210   4.264   2.951  1.6801 -1.4335 -1.0232
15405TIP3    H267707   6.170   4.121   2.981 -1.1349 -0.3158  1.0037
15406TIP3   OH267708   5.050   1.837   3.226 -0.2262 -0.6766  0.2082
15406TIP3    H167709   5.080   1.784   3.152 -1.3666 -1.1372  0.0645
15406TIP3    H267710   5.054   1.777   3.301 -0.2973 -0.5803  0.2880
15407TIP3   OH267711   6.265   3.246  10.726  0.1372  0.1517  0.4452
15407TIP3    H167712   6.275   3.158  10.691  0.0186  0.4517 -0.3629
15407TIP3    H267713   6.217   3.294  10.658 -0.9837  0.4919  1.4242
15408TIP3   OH267714   6.557   5.044  11.858 -0.4087  0.1529 -0.2648
15408TIP3    H167715   6.498   5.057  11.784 -3.1102 -1.5904  1.4471
15408TIP3    H267716   6.521   5.098  11.928  1.1442  0.4690  0.3363
15409TIP3   OH267717   5.046   0.397   5.114 -0.1992 -0.6130 -0.8277
15409TIP3    H167718   5.070   0.305   5.124  2.0735  0.1377  2.4147
15409TIP3    H267719   5.061   0.417   5.022  0.4619 -3.1661 -1.3331
15410TIP3   OH267720   5.755   1.361  11.690  0.5430 -0.1033  0.7653
15410TIP3    H167721   5.756   1.455  11.674  0.7534 -0.3627 -0.9378
15410TIP3    H267722   5.671   1.345  11.733  0.2453  0.7748  0.5367
15411TIP3   OH267723   1.892   4.453   0.826 -0.0925 -0.1446 -0.0073
15411TIP3    H167724   1.871   4.360   0.836  1.7093 -0.6305 -0.4973
15411TIP3    H267725   1.814   4.498   0.860 -1.0100 -1.8107  0.2275
15412TIP3   OH267726   6.473   0.924   2.922  0.5350  0.3964  0.1908
15412TIP3    H167727   6.483   0.842   2.970  1.1646  0.5587  0.3348
15412TIP3    H267728   6.557   0.968   2.930 -0.4485  2.1212  2.0908
15413TIP3   OH267729   4.304   2.319  11.061  0.1617  0.2382 -0.4566
15413TIP3    H167730   4.219   2.346  11.027  0.5078  1.0199 -0.7481
15413TIP3    H267731   4.291   2.230  11.092  0.0928 -1.0117 -3.7416
15414TIP3   OH267732   4.105   6.047   3.155 -0.2273  0.3459  0.6115
15414TIP3    H167733   4.089   5.963   3.113  0.6331  0.3483  0.2565
15414TIP3    H267734   4.063   6.111   3.098  0.2670  0.2774  0.1649
15415TIP3   OH267735   6.361   1.381  16.777 -0.0796 -0.0170  0.1110
15415TIP3    H167736   6.452   1.360  16.754 -0.6932 -1.3818 -1.2642
15415TIP3    H267737   6.333   1.442  16.708 -0.4837 -0.3005  0.0277
15416TIP3   OH267738   3.339   0.234  15.148 -0.1525  0.4224  0.2821
15416TIP3    H167739   3.261   0.204  15.195 -0.0673  0.8881  0.7377
15416TIP3    H267740   3.307   0.308  15.096  0.0322  0.7980  0.6887
15417TIP3   OH267741   3.727   6.707  16.164 -0.3147 -0.7700 -0.5702
15417TIP3    H167742   3.716   6.685  16.257  0.6101 -0.4120 -0.3650
15417TIP3    H267743   3.724   6.803  16.162  0.3737 -0.7497 -0.8073
15418TIP3   OH267744   3.816   1.003   4.259 -0.1538 -0.5046 -0.1042
15418TIP3    H167745   3.752   1.071   4.237  0.0205  0.8166  2.8886
15418TIP3    H267746   3.828   1.012   4.354  2.3754 -2.5833 -0.1179
15419TIP3   OH267747   2.251   5.855  15.327  0.2428 -0.4119  0.9500
15419TIP3    H167748   2.243   5.876  15.234  1.3311 -0.2912  0.8789
15419TIP3    H267749   2.265   5.760  15.328  0.7751 -0.3347  0.9562
15420TIP3   OH267750   2.696   6.627   1.847 -0.2139  0.1102 -0.3779
15420TIP3    H167751   2.639   6.561   1.807  0.4530 -1.4886  1.1845
15420TIP3    H267752   2.775   6.625   1.794  0.3420 -1.4003  0.4394
15421TIP3   OH267753   2.626   6.082  13.846  0.3858 -0.3256  0.3779
15421TIP3    H167754   2.628   6.177  13.862 -1.3371 -0.4604  1.5816
15421TIP3    H267755   2.707   6.050  13.887 -0.9381  0.1600  3.6611
15422TIP3   OH267756   2.190   6.322   4.712 -0.4724 -0.0726  0.3944
15422TIP3    H167757   2.232   6.261   4.651 -3.0879 -0.3974 -1.2411
15422TIP3    H267758   2.262   6.376   4.745  1.4117 -1.5726 -1.0157
15423TIP3   OH267759   4.821   0.299   1.107  0.1051  0.4988 -0.2171
15423TIP3    H167760   4.847   0.373   1.052  0.8972  0.1883 -0.2845
15423TIP3    H267761   4.848   0.222   1.058  2.2243  0.2397  1.2189
15424TIP3   OH267762   6.582   4.949   5.241  0.1670  0.2428 -0.3484
15424TIP3    H167763   6.502   4.928   5.290 -0.2187  0.6128 -0.8177
15424TIP3    H267764   6.652   4.936   5.305 -0.4343  2.3621  0.8563
15425TIP3   OH267765   4.813   6.271   2.637 -0.4954  0.7118 -0.2017
15425TIP3    H167766   4.897   6.255   2.681 -0.6982 -2.1039 -0.7086
15425TIP3    H267767   4.748   6.269   2.708 -0.4930 -0.7252 -0.2236
15426TIP3   OH267768   5.586   1.051   6.234  0.5112 -0.0367 -0.0838
15426TIP3    H167769   5.598   1.139   6.268  0.3386  0.0715 -0.3005
15426TIP3    H267770   5.545   1.064   6.148  0.3519 -0.3307 -0.0534
15427TIP3   OH267771   6.262   3.457   4.861 -0.0991 -0.0453 -0.0661
15427TIP3    H167772   6.337   3.425   4.810  0.7081 -0.6024  1.3933
15427TIP3    H267773   6.211   3.508   4.799  0.5197 -1.1691 -1.5740
15428TIP3   OH267774   4.848   0.097   5.667 -0.3310 -0.2811  0.1909
15428TIP3    H167775   4.837   0.026   5.730 -0.1494 -0.9137 -0.4805
15428TIP3    H267776   4.783   0.079   5.599 -0.8750  0.6772  0.4311
15429TIP3   OH267777   2.019   1.102   5.366  0.6517 -0.1601  0.0581
15429TIP3    H167778   2.094   1.126   5.419 -0.6480  1.7365  1.1703
15429TIP3    H267779   2.036   1.143   5.281  1.2569 -0.4545  0.0362
15430TIP3   OH267780   4.948   5.296   3.052 -0.0073 -0.1783 -0.1714
15430TIP3    H167781   4.985   5.372   3.096 -0.4743 -0.0965  0.0845
15430TIP3    H267782   5.024   5.241   3.031  0.2397 -0.1053  0.5227
15431TIP3   OH267783   0.634   2.016   5.947  0.1249 -0.0473  0.4190
15431TIP3    H167784   0.572   2.068   5.998 -0.8113 -1.4096  0.7218
15431TIP3    H267785   0.657   1.942   6.003  4.1551  1.6787  1.4327
15432TIP3   OH267786   1.096   5.762   3.730  0.3640 -0.0583  0.5903
15432TIP3    H167787   1.070   5.695   3.794 -1.5942  0.4327  0.3641
15432TIP3    H267788   1.021   5.822   3.726 -0.0291 -0.5710 -2.8307
15433TIP3   OH267789   3.890   0.587   1.737  0.2263 -0.3204  0.2603
15433TIP3    H167790   3.900   0.623   1.649 -0.8560 -2.8660 -0.9997
15433TIP3    H267791   3.951   0.638   1.790 -0.4037  2.5538 -1.5230
15434TIP3   OH267792   6.395   4.191   5.110 -0.3393 -0.2779 -0.0597
15434TIP3    H167793   6.383   4.224   5.199 -2.4130 -0.1371 -0.3361
15434TIP3    H267794   6.329   4.237   5.059  2.2375  1.3496 -2.2001
15435TIP3   OH267795   3.848   0.688  14.753 -0.0354  0.1071  0.1102
15435TIP3    H167796   3.769   0.734  14.726 -0.3907 -0.2966  0.4613
15435TIP3    H267797   3.829   0.659  14.842  1.3494  2.0194  1.1187
15436TIP3   OH267798   3.167   5.988  11.548 -0.1516  0.0559  0.0398
15436TIP3    H167799   3.252   5.944  11.544  0.7678  1.8188 -1.3316
15436TIP3    H267800   3.154   6.008  11.641  0.1660 -1.5798  0.4721
15437TIP3   OH267801   6.048   1.301  11.537  0.2224 -0.1676  0.1255
15437TIP3    H167802   6.018   1.317  11.447  0.5511 -0.4891 -0.0420
15437TIP3    H267803   5.972   1.325  11.591  0.1658  0.4397 -0.2041
15438TIP3   OH267804   5.219   3.199   0.442 -0.2986  0.1604  0.1134
15438TIP3    H167805   5.276   3.270   0.470 -0.2695  0.2650 -0.2085
15438TIP3    H267806   5.258   3.168   0.360 -0.8425  0.3915 -0.2345
15439TIP3   OH267807   0.806   3.674  16.576  0.4477 -0.1047  0.6863
15439TIP3    H167808   0.746   3.724  16.631 -0.9945  0.5720 -1.4139
15439TIP3    H267809   0.879   3.652  16.635 -0.0995  2.1921  2.3664
15440TIP3   OH267810   2.121   3.708   3.639  0.2406  0.8506 -0.0266
15440TIP3    H167811   2.092   3.625   3.600 -4.0227  1.2477  1.7830
15440TIP3    H267812   2.067   3.774   3.596 -0.5113  1.9485  2.4624
15441TIP3   OH267813   4.735   2.963  17.083 -0.1078  0.3339 -0.1423
15441TIP3    H167814   4.713   3.054  17.064 -0.0613  0.5776  0.9279
15441TIP3    H267815   4.828   2.963  17.104 -0.4155  0.3064  1.3417
15442TIP3   OH267816   6.553   0.600   0.945 -0.2592  0.0837 -0.4673
15442TIP3    H167817   6.483   0.555   0.897  0.6400  0.4563 -2.2272
15442TIP3    H267818   6.618   0.621   0.878  0.0764  2.6429  0.5573
15443TIP3   OH267819   0.343   5.170  16.468  0.2136 -0.0426  0.0460
15443TIP3    H167820   0.266   5.217  16.501  0.7086  0.2357  0.8250
15443TIP3    H267821   0.417   5.224  16.494  0.6026  0.7813 -2.5278
15444TIP3   OH267822   0.988   1.169  13.482 -0.1594  0.5376  0.1012
15444TIP3    H167823   0.927   1.096  13.472 -0.4019  0.5690  1.2104
15444TIP3    H267824   1.006   1.197  13.392 -3.3930  1.8700 -0.2877
15445TIP3   OH267825   4.505   4.479   1.190  0.0975 -0.2657  0.6401
15445TIP3    H167826   4.575   4.463   1.126 -0.0225  2.1801 -0.1989
15445TIP3    H267827   4.434   4.517   1.138 -0.6615  0.1690  1.9685
15446TIP3   OH267828   2.647   5.182   5.288  0.0992  0.0617  0.3253
15446TIP3    H167829   2.694   5.158   5.369 -0.7094  1.9847  1.4411
15446TIP3    H267830   2.717   5.202   5.226  0.7441 -0.8960  0.7067
15447TIP3   OH267831   4.049   5.749  12.506  0.3063  0.1659 -0.7065
15447TIP3    H167832   4.044   5.653  12.509 -2.4846  0.2447  0.2863
15447TIP3    H267833   4.085   5.773  12.591 -1.5671 -0.0038  0.1979
15448TIP3   OH267834   6.049   0.789  11.176  0.3096  0.5425 -0.3970
15448TIP3    H167835   6.023   0.714  11.230  0.6699  1.6878  1.4502
15448TIP3    H267836   5.999   0.863  11.212  2.6327  1.9026  0.2933
15449TIP3   OH267837   1.612   2.249   5.596 -0.0393 -0.0976  0.4895
15449TIP3    H167838   1.538   2.270   5.652  1.6287  1.8093  2.1675
15449TIP3    H267839   1.664   2.188   5.648  1.6934  1.9401  1.3122
15450TIP3   OH267840   1.258   3.975  10.980 -0.4138  0.3929  0.0779
15450TIP3    H167841   1.186   3.913  10.968 -0.3213  0.1520  0.7276
15450TIP3    H267842   1.336   3.926  10.957 -0.3460  0.2829  0.5353
15451TIP3   OH267843   0.737   4.491  17.194  0.2731  0.1105 -0.0687
15451TIP3    H167844   0.791   4.563  17.227  1.0429 -0.7099  0.5218
15451TIP3    H267845   0.650   4.530  17.181 -0.2130  0.4689  3.3134
15452TIP3   OH267846   0.932   1.120  16.198  0.3602 -0.0237 -0.2091
15452TIP3    H167847   0.836   1.127  16.197  0.4110  0.8614  0.0035
15452TIP3    H267848   0.955   1.119  16.291  0.6833  2.3649 -0.1805
15453TIP3   OH267849   5.709   6.713   3.870  0.0440  0.0100 -0.0704
15453TIP3    H167850   5.703   6.635   3.925 -0.4889 -0.9761 -1.4688
15453TIP3    H267851   5.731   6.680   3.783  0.9307  1.5332 -0.4606
15454TIP3   OH267852   4.653   5.514  11.628 -0.1392  0.2100 -0.1194
15454TIP3    H167853   4.612   5.442  11.580 -0.7374  0.8800 -0.6185
15454TIP3    H267854   4.737   5.478  11.657 -1.0812 -1.2168  0.9927
15455TIP3   OH267855   6.824   3.509  10.923 -0.1670 -0.6430 -0.1025
15455TIP3    H167856   6.840   3.415  10.931 -3.0874 -1.3637 -1.3535
15455TIP3    H267857   6.747   3.525  10.978 -0.4884  0.7663 -0.9146
15456TIP3   OH267858   2.943   0.255  11.838  0.5203  0.4366  0.0062
15456TIP3    H167859   2.985   0.215  11.762 -0.1128 -1.2547  0.4873
15456TIP3    H267860   2.890   0.326  11.802  0.8462  0.1677 -1.0371
15457TIP3   OH267861   3.441   0.475   5.636  0.5442  0.3147 -0.5649
15457TIP3    H167862   3.462   0.400   5.692  1.9950  0.3440 -1.0432
15457TIP3    H267863   3.474   0.451   5.550 -0.5503  0.7989 -1.1326
15458TIP3   OH267864   1.285   2.280  11.422 -0.2506 -0.0058  0.1574
15458TIP3    H167865   1.212   2.257  11.479  1.0425 -0.1156  1.8417
15458TIP3    H267866   1.326   2.196  11.400 -0.5938  0.0552 -0.7906
15459TIP3   OH267867   5.754   3.736  12.931  0.3165 -0.1739 -0.6183
15459TIP3    H167868   5.786   3.749  12.841  1.1489  0.3020 -0.2701
15459TIP3    H267869   5.680   3.677  12.922 -1.3006  1.8955 -1.9276
15460TIP3   OH267870   6.342   3.561  10.251  0.0775  0.5029  0.2580
15460TIP3    H167871   6.304   3.496  10.310 -0.7574  0.0243 -0.7634
15460TIP3    H267872   6.422   3.520  10.218  0.8033  0.9601  1.3686
15461TIP3   OH267873   6.783   3.521  10.631  0.3115 -0.2267 -0.0431
15461TIP3    H167874   6.743   3.458  10.691 -0.3984  0.1679 -0.1004
15461TIP3    H267875   6.858   3.556  10.679  0.1507 -0.4169  0.3520
15462TIP3   OH267876   3.912   2.746  12.962 -0.1678 -0.1132  0.5459
15462TIP3    H167877   3.935   2.821  12.907  0.4443 -0.8687 -0.2718
15462TIP3    H267878   3.872   2.784  13.040 -1.1480  0.9935 -0.4643
15463TIP3   OH267879   4.386   1.319   5.986 -0.1789 -0.1383  0.8597
15463TIP3    H167880   4.444   1.323   6.063  0.0629  1.1709  0.6347
15463TIP3    H267881   4.298   1.325   6.023 -0.1258 -0.7350  1.1042
15464TIP3   OH267882   4.976   1.186   0.296 -0.2069 -0.1900 -0.4147
15464TIP3    H167883   4.976   1.123   0.368 -1.1276 -0.2624 -0.4684
15464TIP3    H267884   5.043   1.153   0.236 -0.5223 -0.9917 -0.3404
15465TIP3   OH267885   3.170   2.568  15.592  1.0378  0.6764 -0.4037
15465TIP3    H167886   3.263   2.567  15.618  0.5351  2.2008  1.6914
15465TIP3    H267887   3.136   2.649  15.629 -1.0267  0.4436 -1.6755
15466TIP3   OH267888   6.338   1.463  15.742 -0.3177  0.4464  0.4060
15466TIP3    H167889   6.316   1.394  15.680 -1.1785  0.4748  0.6750
15466TIP3    H267890   6.400   1.519  15.695  0.0567 -0.2614  0.0432
15467TIP3   OH267891   4.321   4.357   4.372  0.0787  0.3310  0.0955
15467TIP3    H167892   4.276   4.320   4.447 -1.2363  0.2063 -0.7297
15467TIP3    H267893   4.383   4.289   4.345 -1.4160 -0.7857 -0.6276
15468TIP3   OH267894   4.396   1.493  16.815 -0.0929 -0.0623  0.0584
15468TIP3    H167895   4.471   1.548  16.793  0.4744 -0.6473  0.5023
15468TIP3    H267896   4.430   1.403  16.811 -0.9492 -0.3709 -0.4300
15469TIP3   OH267897   6.443   0.265   0.271 -0.2439  0.1968 -0.3041
15469TIP3    H167898   6.442   0.172   0.251  0.8547 -0.0586  0.7342
15469TIP3    H267899   6.482   0.307   0.195 -1.6755 -0.0455 -1.2139
15470TIP3   OH267900   2.951   2.590  15.863 -0.0402  0.2435  0.0376
15470TIP3    H167901   2.950   2.519  15.798 -2.8528  1.0227 -0.9168
15470TIP3    H267902   3.040   2.624  15.859  0.8454 -1.9740 -0.8641
15471TIP3   OH267903   3.943   4.123   1.694 -0.2889 -0.2184 -0.1242
15471TIP3    H167904   3.995   4.134   1.615 -0.5666 -0.6747 -0.3754
15471TIP3    H267905   3.958   4.203   1.744 -0.5079  0.2957 -0.8700
15472TIP3   OH267906   0.462   1.998  12.010  0.1003 -0.1806 -0.1115
15472TIP3    H167907   0.461   2.083  11.967 -2.3017  1.0354  2.1006
15472TIP3    H267908   0.527   2.006  12.080  0.2695 -0.3892 -0.2398
15473TIP3   OH267909   3.250   1.026  16.803 -0.4222 -0.5116  0.3654
15473TIP3    H167910   3.256   1.090  16.874  0.5085 -1.7140  1.4318
15473TIP3    H267911   3.170   0.977  16.822 -0.0329 -1.0089  0.7710
15474TIP3   OH267912   1.171   2.639  13.378 -0.2516  0.2776 -0.3707
15474TIP3    H167913   1.107   2.657  13.309 -2.2070  0.1783  1.3104
15474TIP3    H267914   1.182   2.723  13.422 -1.0820 -0.2169  0.8166
15475TIP3   OH267915   1.088   0.943   0.444 -0.4970 -0.0866 -0.2141
15475TIP3    H167916   1.013   0.998   0.425 -0.7813  1.2120  3.6749
15475TIP3    H267917   1.163   1.002   0.440 -0.2840 -0.3205  0.2236
15476TIP3   OH267918   1.414   5.023  16.330 -0.1883  0.1414 -0.4921
15476TIP3    H167919   1.469   5.073  16.270 -1.1049  0.0954 -1.4059
15476TIP3    H267920   1.360   4.968  16.272  0.1307 -1.2054  0.4431
15477TIP3   OH267921   2.862   2.287  17.168  0.8694  0.2853  0.0344
15477TIP3    H167922   2.940   2.340  17.152  1.5984 -1.1157 -1.2814
15477TIP3    H267923   2.882   2.238  17.248  1.8518 -0.9422 -0.9417
15478TIP3   OH267924   1.982   2.976   1.048 -0.7685 -0.8618  0.0715
15478TIP3    H167925   2.031   2.986   0.966 -0.2815 -1.6714  0.2439
15478TIP3    H267926   1.929   3.055   1.055  0.2505 -0.1155 -0.3164
15479TIP3   OH267927   1.072   5.757   0.753  0.6014 -0.0716  0.2500
15479TIP3    H167928   1.053   5.792   0.666 -0.4920 -0.9681  0.1082
15479TIP3    H267929   1.165   5.775   0.766  0.8002  0.0059 -1.1446
15480TIP3   OH267930   1.056   3.163   4.609 -0.5971  0.1517  0.0416
15480TIP3    H167931   1.148   3.161   4.632 -1.4858 -1.0932  4.1948
15480TIP3    H267932   1.053   3.133   4.518  3.0155  0.1000 -0.1729
15481TIP3   OH267933   4.579   0.658   0.521  0.1901 -0.1065 -0.1209
15481TIP3    H167934   4.660   0.613   0.498  0.3946  0.7658 -1.2388
15481TIP3    H267935   4.510   0.605   0.480  0.4260  0.5156 -1.3955
15482TIP3   OH267936   5.787   5.395   5.099  0.1569  0.3274 -0.1206
15482TIP3    H167937   5.815   5.354   5.181 -0.6296 -0.5792 -0.2972
15482TIP3    H267938   5.863   5.386   5.041  0.5951  0.6712  0.3885
15483TIP3   OH267939   6.732   5.456   5.847  0.2332  0.3014  0.4739
15483TIP3    H167940   6.699   5.508   5.920 -0.8919  1.9746 -1.1275
15483TIP3    H267941   6.682   5.486   5.772  1.8272 -0.8483 -1.1354
15484TIP3   OH267942   6.112   1.381   4.440  0.3520  0.4960 -0.1226
15484TIP3    H167943   6.042   1.362   4.378  0.8466  1.8925 -1.1645
15484TIP3    H267944   6.087   1.463   4.482 -0.1202 -0.5725  1.8148
15485TIP3   OH267945   0.761   3.405  13.107 -0.6846  0.0286 -0.3751
15485TIP3    H167946   0.833   3.348  13.083 -0.9328  0.4095 -2.1352
15485TIP3    H267947   0.758   3.472  13.038 -1.0650  1.5619  1.0458
15486TIP3   OH267948   0.822   0.186   2.834 -0.4018  0.5936 -0.3541
15486TIP3    H167949   0.792   0.207   2.922 -1.7594 -0.3921 -0.5355
15486TIP3    H267950   0.917   0.197   2.836  0.1229 -2.8373  2.2529
15487TIP3   OH267951   4.507   4.017   4.364 -0.7151  0.1161  0.2759
15487TIP3    H167952   4.464   3.932   4.375  0.5425 -0.7086 -0.9243
15487TIP3    H267953   4.490   4.040   4.273 -0.1674  0.6705  0.3124
15488TIP3   OH267954   1.699   1.968  15.328  0.0213 -0.7848 -0.1456
15488TIP3    H167955   1.791   1.963  15.354 -0.3618 -1.6691  1.0984
15488TIP3    H267956   1.702   1.960  15.232  1.1674 -2.0376 -0.0458
15489TIP3   OH267957   1.137   2.997  11.065  0.1965  0.1208  0.1001
15489TIP3    H167958   1.163   3.030  11.151  0.1127 -0.2599  0.2788
15489TIP3    H267959   1.065   2.937  11.084 -0.9710  1.3229 -0.4032
15490TIP3   OH267960   0.351   5.586   0.083 -0.0898  0.0415  0.1286
15490TIP3    H167961   0.261   5.578   0.113 -0.2989  2.0355  0.1563
15490TIP3    H267962   0.403   5.591   0.164 -0.1427  0.5289  0.1371
15491TIP3   OH267963   2.288   1.918   4.894  0.1824  0.5641 -1.0491
15491TIP3    H167964   2.199   1.883   4.899 -0.0782  1.3782  1.4104
15491TIP3    H267965   2.340   1.858   4.947  0.8609  0.8002 -1.4403
15492TIP3   OH267966   1.576   4.302  11.091  0.1304 -0.5340 -0.1217
15492TIP3    H167967   1.629   4.285  11.168 -1.0717 -1.6370  0.5000
15492TIP3    H267968   1.489   4.268  11.113 -0.8553  1.2138 -1.1011
15493TIP3   OH267969   5.072   4.437  11.722 -0.8659 -0.0465  0.3569
15493TIP3    H167970   5.039   4.514  11.768  0.0554  0.4977  0.1291
15493TIP3    H267971   5.156   4.464  11.687 -0.8290 -0.9578 -0.2976
15494TIP3   OH267972   0.464   5.590  14.737 -0.2650  0.4719 -0.3988
15494TIP3    H167973   0.402   5.622  14.672  0.2463  0.1089 -1.0851
15494TIP3    H267974   0.414   5.586  14.818 -0.5428  2.2496 -0.4433
15495TIP3   OH267975   2.852   5.934  15.205 -1.0806 -0.3324 -0.3362
15495TIP3    H167976   2.832   5.949  15.297 -0.6289  0.0953 -0.2994
15495TIP3    H267977   2.803   6.002  15.158 -0.0670  0.4678 -0.2749
15496TIP3   OH267978   1.624   3.837  13.263  0.9731  0.4556  0.1186
15496TIP3    H167979   1.531   3.853  13.252  0.2873 -1.7762  1.9948
15496TIP3    H267980   1.648   3.780  13.190  0.6594  0.2989  0.1389
15497TIP3   OH267981   3.365   6.608  15.989  0.2620 -0.1133 -0.1645
15497TIP3    H167982   3.349   6.685  16.045  0.9679 -0.5041  0.6041
15497TIP3    H267983   3.447   6.629  15.944 -0.7614  0.5959 -1.7980
15498TIP3   OH267984   2.815   5.145   1.754  0.1018 -0.3265 -0.3337
15498TIP3    H167985   2.746   5.158   1.820  0.7035  0.8202  0.1043
15498TIP3    H267986   2.897   5.148   1.804  0.4931 -1.2812 -0.9010
15499TIP3   OH267987   5.749   4.101  13.481  0.2996  0.4868  0.3226
15499TIP3    H167988   5.745   4.016  13.437  2.1038 -0.6498  2.1668
15499TIP3    H267989   5.757   4.080  13.573  1.7646  2.6362  0.7685
15500TIP3   OH267990   3.887   6.216  16.711  0.2704 -0.3664 -0.2863
15500TIP3    H167991   3.979   6.232  16.734  0.8662 -2.2187 -1.1924
15500TIP3    H267992   3.838   6.244  16.789  1.3426  2.7781 -0.5970
15501TIP3   OH267993   6.308   6.805  14.437  0.3480  0.0784 -0.0883
15501TIP3    H167994   6.259   6.724  14.451  1.6632 -0.6080  0.7218
15501TIP3    H267995   6.361   6.815  14.516  1.8372  0.5564 -1.1101
15502TIP3   OH267996   4.452   2.309  14.059 -0.1855  0.0582 -0.0055
15502TIP3    H167997   4.536   2.266  14.075 -0.6908 -0.2613  2.0090
15502TIP3    H267998   4.402   2.295  14.139 -1.6619  1.4354 -0.6361
15503TIP3   OH267999   0.185   6.742  14.837 -0.2612 -0.6300 -0.3396
15503TIP3    H168000   0.250   6.785  14.781 -0.9741  0.8219 -0.0967
15503TIP3    H268001   0.237   6.694  14.901  0.6070  0.7784  0.0628
15504TIP3   OH268002   3.971   2.278  10.637  0.0282  0.5062  0.0826
15504TIP3    H168003   3.965   2.374  10.638 -0.7969  0.5036  2.4790
15504TIP3    H268004   3.928   2.252  10.555  1.7221  2.1820 -1.4502
15505TIP3   OH268005   3.753   6.434  14.473 -0.1534 -0.2494 -1.2092
15505TIP3    H168006   3.793   6.452  14.388  2.2647  1.5310  0.1625
15505TIP3    H268007   3.824   6.446  14.536 -1.9927 -0.8357  1.1436
15506TIP3   OH268008   5.694   4.965   0.925 -0.2079 -0.5051 -0.6904
15506TIP3    H168009   5.737   4.901   0.870 -2.2252 -0.9474 -1.8578
15506TIP3    H268010   5.662   5.032   0.864  1.7398  1.6610  0.4641
15507TIP3   OH268011   3.186   4.060   1.174 -0.4280 -0.0122 -0.2632
15507TIP3    H168012   3.195   4.041   1.081 -0.9728 -1.2770 -0.0748
15507TIP3    H268013   3.152   4.149   1.177  2.8661  1.4303 -1.1735
15508TIP3   OH268014   5.745   4.471   4.499  0.0097  0.4624 -0.1329
15508TIP3    H168015   5.800   4.394   4.482 -0.2909 -0.3196  2.1601
15508TIP3    H268016   5.727   4.507   4.412  2.6119 -0.3112 -1.0703
15509TIP3   OH268017   3.446   0.674  12.963  0.2754 -0.1627 -0.0140
15509TIP3    H168018   3.362   0.630  12.950  0.1303  0.5112 -1.5915
15509TIP3    H268019   3.510   0.603  12.968 -0.2293 -0.6324 -0.0632
15510TIP3   OH268020   5.298   0.717   2.004  0.0530  0.0162 -0.5502
15510TIP3    H168021   5.238   0.787   2.030 -1.4530 -0.7578 -1.8031
15510TIP3    H268022   5.248   0.637   2.015  1.0533 -0.7038 -1.0920
15511TIP3   OH268023   4.888   3.257   0.013 -0.0866  0.5500  0.1600
15511TIP3    H168024   4.863   3.267  -0.079  1.2684 -1.4238 -0.4920
15511TIP3    H268025   4.917   3.344   0.039  1.7703  0.6999 -2.0561
15512TIP3   OH268026   0.981   4.776  10.882  0.2311  0.1613 -0.2480
15512TIP3    H168027   1.053   4.801  10.940  1.1708  0.7928 -1.6203
15512TIP3    H268028   0.984   4.841  10.811 -1.0500 -0.4132 -0.8652
15513TIP3   OH268029   0.495   4.299  15.815 -0.4591 -0.0056 -0.0215
15513TIP3    H168030   0.433   4.356  15.862  1.4557  0.1877  2.5090
15513TIP3    H268031   0.448   4.218  15.801 -2.3034  1.1814 -1.0998
15514TIP3   OH268032   2.612   3.025   0.640  0.3144 -0.2510 -0.1361
15514TIP3    H168033   2.548   3.021   0.569  1.5019  0.9139 -1.3172
15514TIP3    H268034   2.581   2.960   0.703 -2.5281  0.8780 -0.2037
15515TIP3   OH268035   6.304   3.375   0.940 -0.4302 -0.4826 -0.5570
15515TIP3    H168036   6.253   3.378   1.021 -1.6097 -1.8339 -1.2169
15515TIP3    H268037   6.248   3.329   0.877  0.3732  0.6857 -2.2214
15516TIP3   OH268038   2.494   2.395   4.735  0.6307  0.0266 -0.4715
15516TIP3    H168039   2.560   2.435   4.792  0.1052 -1.5000  1.3116
15516TIP3    H268040   2.484   2.457   4.663  3.4493  0.6685 -0.4337
15517TIP3   OH268041   5.112   1.395   3.578 -0.3979 -0.4009 -0.1257
15517TIP3    H168042   5.144   1.311   3.546  1.5640  0.3452 -0.2395
15517TIP3    H268043   5.173   1.419   3.648 -1.5410  0.4605  0.6136
15518TIP3   OH268044   5.989   6.136   0.831  0.0535  0.1069  0.1019
15518TIP3    H168045   6.027   6.145   0.744  0.1605  0.1842  0.1560
15518TIP3    H268046   5.906   6.091   0.817 -0.2129  0.6589 -0.1027
15519TIP3   OH268047   3.470   5.959   1.359  0.0185 -0.5422 -0.6892
15519TIP3    H168048   3.374   5.953   1.364  0.1813 -3.0178  2.0137
15519TIP3    H268049   3.494   6.022   1.427  0.3230  1.7736 -2.8028
15520TIP3   OH268050   0.757   1.364  15.663 -0.3383 -0.0816 -0.3458
15520TIP3    H168051   0.741   1.380  15.756  1.4538  3.3941 -0.4644
15520TIP3    H268052   0.847   1.330  15.660 -0.0212  0.7637 -0.8121
15521TIP3   OH268053   1.819   3.153  15.024  0.2362  0.0386  0.0815
15521TIP3    H168054   1.808   3.248  15.022  1.1050  0.1475 -2.0628
15521TIP3    H268055   1.858   3.135  15.110  1.7379  1.8662 -0.1453
15522TIP3   OH268056   6.570   6.181  14.198  0.7409  0.5194 -0.4476
15522TIP3    H168057   6.613   6.251  14.149 -1.6076  1.0460 -1.9112
15522TIP3    H268058   6.569   6.107  14.137  0.8193  0.0551  0.1055
15523TIP3   OH268059   5.644   2.065  15.985  0.4249 -0.0805 -0.3236
15523TIP3    H168060   5.631   2.021  15.901  2.0096 -0.8091 -0.2081
15523TIP3    H268061   5.580   2.137  15.984 -1.9302 -2.0464 -0.7092
15524TIP3   OH268062   2.803   2.262  10.403  0.1470 -0.3950  0.7424
15524TIP3    H168063   2.807   2.190  10.340 -1.3812 -0.3274  0.5307
15524TIP3    H268064   2.871   2.322  10.374 -1.1390  0.1213 -1.5215
15525TIP3   OH268065   0.738   1.608  16.624 -0.3864  0.0387 -0.6050
15525TIP3    H168066   0.729   1.540  16.558 -0.8040  0.2019 -0.7169
15525TIP3    H268067   0.685   1.578  16.697  0.7596 -0.5675  0.0129
15526TIP3   OH268068   2.016   3.787   1.194  0.0649 -0.1234 -0.1360
15526TIP3    H168069   1.975   3.746   1.270 -1.1678 -0.5620 -1.0062
15526TIP3    H268070   1.959   3.861   1.174  0.8055  0.4475 -0.1928
15527TIP3   OH268071   3.193   3.810   2.870 -0.3559  0.0805  0.4752
15527TIP3    H168072   3.264   3.827   2.808  1.3161  1.6523  2.6098
15527TIP3    H268073   3.113   3.820   2.819  0.9020 -0.9125 -1.8641
15528TIP3   OH268074   5.536   4.185  12.281 -0.0844 -0.0239 -0.0302
15528TIP3    H168075   5.600   4.149  12.220 -0.9009  0.2865 -1.1114
15528TIP3    H268076   5.528   4.119  12.350  0.4057 -0.6641 -0.5735
15529TIP3   OH268077   4.826   1.421   3.556  0.3942 -0.1567 -0.6345
15529TIP3    H168078   4.817   1.481   3.630  1.0660 -0.1790 -0.5318
15529TIP3    H268079   4.914   1.384   3.565  0.3208 -0.4838 -1.2016
15530TIP3   OH268080   6.507   3.715  15.013  0.3998  0.4377 -0.0837
15530TIP3    H168081   6.541   3.803  14.994 -1.8024  2.0632  2.6858
15530TIP3    H268082   6.531   3.700  15.104 -1.6341 -0.6173  0.3251
15531TIP3   OH268083   1.346   2.710   5.725 -0.1462 -0.5297  0.1109
15531TIP3    H168084   1.262   2.678   5.756 -1.2037  0.3849 -1.6511
15531TIP3    H268085   1.325   2.789   5.675  1.7528 -0.2867 -0.3936
15532TIP3   OH268086   2.435   6.306  13.100 -0.2305  0.2127  0.1764
15532TIP3    H168087   2.512   6.353  13.069  0.3030 -0.6383  0.1816
15532TIP3    H268088   2.361   6.351  13.058  0.3819 -0.0415 -1.2301
15533TIP3   OH268089   5.330   2.388  14.337  0.1130 -0.0736 -0.2752
15533TIP3    H168090   5.301   2.339  14.260 -4.0913  2.1417 -0.3835
15533TIP3    H268091   5.371   2.467  14.300 -0.2067  0.1178 -0.2219
15534TIP3   OH268092   0.575   0.561  10.471 -0.0828 -1.0293  0.2144
15534TIP3    H168093   0.506   0.624  10.490 -1.5183 -1.7864 -2.0517
15534TIP3    H268094   0.558   0.532  10.381  2.3735 -2.3194  0.0524
15535TIP3   OH268095   3.558   6.185  12.675 -0.1278 -0.7057 -0.2967
15535TIP3    H168096   3.626   6.203  12.610  0.2413  0.4293  0.3675
15535TIP3    H268097   3.512   6.268  12.685 -0.8143 -1.1354  0.1716
15536TIP3   OH268098   0.887   5.917   3.073  0.4654  0.1831 -0.4831
15536TIP3    H168099   0.859   5.968   2.996  2.8362 -1.8282 -2.8262
15536TIP3    H268100   0.958   5.968   3.111 -0.3860  0.9348  0.1620
15537TIP3   OH268101   3.603   2.411   4.482 -0.1317 -0.0766  0.0428
15537TIP3    H168102   3.528   2.422   4.540  0.9533 -0.3403  1.5651
15537TIP3    H268103   3.599   2.319   4.456 -1.7249  0.4951 -1.9566
15538TIP3   OH268104   1.048   5.463   2.809  0.0536 -0.0305  0.0809
15538TIP3    H168105   1.126   5.409   2.792 -0.7276 -0.7826 -1.2975
15538TIP3    H268106   1.021   5.494   2.723 -0.6189  1.0490  0.6511
15539TIP3   OH268107   5.949   5.435  15.366 -0.0724 -0.5367 -0.2863
15539TIP3    H168108   5.911   5.473  15.287 -0.1231  0.7432  0.3363
15539TIP3    H268109   5.942   5.504  15.432 -0.6769 -1.8141  1.0425
15540TIP3   OH268110   6.156   1.622  17.171  0.1782 -0.0473  0.2685
15540TIP3    H168111   6.118   1.710  17.176  0.1936 -0.0947  1.5104
15540TIP3    H268112   6.249   1.634  17.190  0.0442 -0.4084  1.2175
15541TIP3   OH268113   5.070   6.509  12.606  0.0765  0.3996  0.2760
15541TIP3    H168114   5.120   6.589  12.588 -0.8924  0.6178 -1.6732
15541TIP3    H268115   5.136   6.442  12.620  0.9193  1.0404 -0.5047
15542TIP3   OH268116   3.722   6.360  12.900  0.0773  0.0687  0.0595
15542TIP3    H168117   3.774   6.290  12.861 -1.8713 -1.7331  0.5527
15542TIP3    H268118   3.646   6.370  12.843  0.2788  1.8007  0.0180
15543TIP3   OH268119   3.290   4.030  11.237 -0.2465 -0.4367 -0.6298
15543TIP3    H168120   3.374   3.984  11.247 -0.0887 -0.4129 -1.6913
15543TIP3    H268121   3.235   3.968  11.189 -0.6544 -0.2260 -0.4394
15544TIP3   OH268122   4.112   3.586   2.257 -0.4081 -0.1618  0.8402
15544TIP3    H168123   4.062   3.588   2.338  0.8626  0.7893  1.6332
15544TIP3    H268124   4.165   3.507   2.262  0.1331  0.2207  1.2397
15545TIP3   OH268125   2.185   2.396   3.152  0.3823  0.2197  0.1377
15545TIP3    H168126   2.169   2.404   3.058  0.3827 -0.4433  0.0770
15545TIP3    H268127   2.268   2.350   3.159  0.8250  1.0436  0.4690
15546TIP3   OH268128   2.824   4.585   0.171  0.1182 -0.2630  0.3423
15546TIP3    H168129   2.796   4.675   0.159  0.0351 -0.1809  1.0674
15546TIP3    H268130   2.883   4.567   0.099 -1.3057 -0.2241 -0.8791
15547TIP3   OH268131   2.110   5.202  14.591 -0.6931  0.0962  0.2392
15547TIP3    H168132   2.033   5.240  14.634 -0.5866  0.4446  0.1199
15547TIP3    H268133   2.089   5.201  14.498 -0.3054  0.7912  0.1313
15548TIP3   OH268134   0.163   0.510  11.935 -0.1072 -0.0705 -0.1628
15548TIP3    H168135   0.078   0.511  11.979  0.4418  0.5822  0.9263
15548TIP3    H268136   0.145   0.471  11.849 -1.2073 -1.3654  0.6193
15549TIP3   OH268137   3.817   6.766   2.026 -0.4391 -0.1702 -0.4082
15549TIP3    H168138   3.835   6.797   2.114  0.9067 -0.3803 -0.5964
15549TIP3    H268139   3.896   6.719   1.999 -1.2488 -1.0705 -1.3105
15550TIP3   OH268140   2.548   1.143   3.390  0.4544  0.3023  0.1700
15550TIP3    H168141   2.499   1.158   3.471 -0.5611 -0.0574 -0.3626
15550TIP3    H268142   2.569   1.231   3.359 -1.4441  0.5592 -0.5190
15551TIP3   OH268143   1.744   0.658   0.284 -0.2054  0.2501  0.1309
15551TIP3    H168144   1.754   0.580   0.338 -1.7799  0.6948  1.1160
15551TIP3    H268145   1.833   0.694   0.278  0.7936 -2.2570 -1.4268
15552TIP3   OH268146   3.237   3.370   5.603 -0.5998  0.4217  0.6427
15552TIP3    H168147   3.146   3.345   5.618 -0.5625  0.3993  0.8458
15552TIP3    H268148   3.260   3.330   5.519 -0.3573 -0.7575  1.2471
15553TIP3   OH268149   6.386   4.592   1.408  0.4536 -0.2292  0.5642
15553TIP3    H168150   6.320   4.550   1.463 -0.5407  1.6569  0.8771
15553TIP3    H268151   6.424   4.521   1.357 -1.3083 -1.4548  0.9023
15554TIP3   OH268152   4.424   5.587   4.984 -0.3624 -0.2578  0.2632
15554TIP3    H168153   4.345   5.565   4.934  0.7024 -1.2623 -1.0860
15554TIP3    H268154   4.425   5.683   4.986 -0.7221 -0.1857 -1.2461
15555TIP3   OH268155   3.199   6.267  16.429  0.0615  0.4897 -0.4326
15555TIP3    H168156   3.217   6.352  16.388 -0.6171  0.9544  0.2133
15555TIP3    H268157   3.133   6.227  16.372 -0.8232  1.1013  0.1437
15556TIP3   OH268158   5.753   0.450  10.838 -0.5887 -0.5588  0.2472
15556TIP3    H168159   5.836   0.412  10.865 -0.8106 -0.5371  0.9865
15556TIP3    H268160   5.725   0.395  10.764  0.3289 -0.2315 -0.3624
15557TIP3   OH268161   4.769   4.218   4.920  0.6502  0.4047  0.1721
15557TIP3    H168162   4.759   4.153   4.852  0.4429  0.6724 -0.0548
15557TIP3    H268163   4.842   4.186   4.974 -0.6304 -0.9621  1.1677
15558TIP3   OH268164   3.767   3.020   5.777  0.2727  0.1532  0.3695
15558TIP3    H168165   3.784   3.104   5.820  0.0771  0.6855 -0.5735
15558TIP3    H268166   3.780   3.038   5.684 -2.8556 -0.0455 -0.2100
15559TIP3   OH268167   4.228   4.476  16.519  0.1326  0.2031 -0.4411
15559TIP3    H168168   4.248   4.527  16.440  0.2016  0.7301 -0.0925
15559TIP3    H268169   4.224   4.542  16.589 -0.6237 -0.1652 -0.1223
15560TIP3   OH268170   0.274   1.495  13.532  0.1684 -0.4951 -0.6926
15560TIP3    H168171   0.350   1.541  13.568  0.9054 -1.8105 -0.4814
15560TIP3    H268172   0.209   1.563  13.517  0.2974  0.3013  1.9001
15561TIP3   OH268173   2.300   1.549  11.898  0.0330  0.1842  0.1971
15561TIP3    H168174   2.261   1.494  11.831  1.6546 -0.6032 -0.1553
15561TIP3    H268175   2.368   1.598  11.852 -1.5490  2.8076  0.4167
15562TIP3   OH268176   1.257   4.254  14.540  0.0417 -0.4754  0.1307
15562TIP3    H168177   1.290   4.200  14.468  2.9125 -0.8985  1.6349
15562TIP3    H268178   1.296   4.217  14.618 -2.6244  0.2501  1.9405
15563TIP3   OH268179   4.514   4.111  16.818 -0.6712  0.2615  0.3305
15563TIP3    H168180   4.485   4.171  16.749  0.1467  0.8883  0.5109
15563TIP3    H268181   4.494   4.157  16.899 -2.0443 -0.6677  0.5508
15564TIP3   OH268182   3.420   1.628   5.839  0.3121 -0.0864  0.2531
15564TIP3    H168183   3.338   1.616   5.792  0.0114 -0.7872  0.9314
15564TIP3    H268184   3.470   1.548   5.820  0.6188  0.0968  0.2807
15565TIP3   OH268185   0.328   5.088  12.677 -0.0411 -0.1076  0.8348
15565TIP3    H168186   0.254   5.058  12.626  0.5939 -0.8943  0.3519
15565TIP3    H268187   0.402   5.035  12.647  0.7546  0.7593  1.1874
15566TIP3   OH268188   5.706   4.927   2.304  0.7303 -0.4811 -0.2427
15566TIP3    H168189   5.624   4.957   2.344 -0.7671 -2.8871 -1.2873
15566TIP3    H268190   5.726   4.994   2.238 -1.3652 -0.6232 -1.1222
15567TIP3   OH268191   2.460   5.012   5.214  0.0065  0.0962 -0.6405
15567TIP3    H168192   2.437   5.035   5.124  0.1505  1.3462 -0.3752
15567TIP3    H268193   2.535   5.067   5.235 -1.8897  2.1826  1.2432
15568TIP3   OH268194   3.479   5.083  12.500  0.6037 -0.2800  0.1240
15568TIP3    H168195   3.399   5.087  12.553  0.9774  0.3956  0.6560
15568TIP3    H268196   3.450   5.052  12.414 -0.0977 -0.8476  0.5571
15569TIP3   OH268197   4.959   6.032   1.762  0.4701 -0.5132  0.5162
15569TIP3    H168198   4.886   5.973   1.783 -0.1745 -0.2067 -0.7617
15569TIP3    H268199   5.002   5.991   1.687 -0.4087  0.9503 -0.8472
15570TIP3   OH268200   0.554   5.289   5.699 -0.1504  0.9439  0.4525
15570TIP3    H168201   0.491   5.232   5.744 -0.0167 -0.1964 -0.7468
15570TIP3    H268202   0.511   5.312   5.617 -0.0029  2.2190  0.7172
15571TIP3   OH268203   6.750   2.856  12.234 -0.5781 -0.1289 -0.0496
15571TIP3    H168204   6.792   2.900  12.160 -1.9080  0.7403 -0.3317
15571TIP3    H268205   6.693   2.790  12.194 -1.4951  0.5179  0.1544
15572TIP3   OH268206   5.069   1.697   5.216  0.3398 -0.2981  0.2640
15572TIP3    H168207   5.033   1.774   5.173  2.5444  1.3057  1.1161
15572TIP3    H268208   5.052   1.711   5.309  0.7405 -0.8307  0.4253
15573TIP3   OH268209   0.585   5.259  15.467  0.4074 -0.0687 -0.3441
15573TIP3    H168210   0.501   5.295  15.439 -0.3975 -2.0503 -0.6073
15573TIP3    H268211   0.589   5.278  15.561 -0.3558 -0.0194 -0.3145
15574TIP3   OH268212   0.825   5.622  15.252 -0.1255  0.3539  0.3916
15574TIP3    H168213   0.832   5.557  15.182  1.8762  1.2760 -0.3532
15574TIP3    H268214   0.903   5.676  15.241 -0.0371  0.8613  3.0330
15575TIP3   OH268215   4.085   4.683  13.070  0.5731 -0.2273  0.3872
15575TIP3    H168216   4.135   4.671  13.151  1.2610 -1.6053 -0.2195
15575TIP3    H268217   4.078   4.778  13.061  1.6964 -0.0263  1.3362
15576TIP3   OH268218   0.581   4.221   4.889 -0.1302 -0.3609  0.0701
15576TIP3    H168219   0.656   4.264   4.848 -0.5982  1.0679  0.6569
15576TIP3    H268220   0.579   4.134   4.850  0.2990  0.4490 -1.8761
15577TIP3   OH268221   1.814   3.118  17.027  0.0213  0.7185 -0.3824
15577TIP3    H168222   1.884   3.171  16.989  0.1605  1.2481  0.5934
15577TIP3    H268223   1.833   3.028  16.998 -0.0401  1.1265 -1.7915
15578TIP3   OH268224   4.824   1.333  15.588 -0.3754 -0.2826  0.1649
15578TIP3    H168225   4.817   1.315  15.494 -4.0315 -1.3112  0.5035
15578TIP3    H268226   4.800   1.425  15.596 -1.8097 -0.6283  0.1702
15579TIP3   OH268227   6.722   0.510  15.284  0.4339  0.2600 -0.2833
15579TIP3    H168228   6.753   0.425  15.254  1.3085  0.4805 -0.0335
15579TIP3    H268229   6.753   0.517  15.374 -2.1047 -0.3755  0.7264
15580TIP3   OH268230   1.956   6.178   4.590  0.2073 -0.0902 -0.2863
15580TIP3    H168231   1.900   6.148   4.661  0.4796 -0.7062 -0.3254
15580TIP3    H268232   2.034   6.123   4.595  0.3287  0.0100 -0.9171
15581TIP3   OH268233   4.779   3.143  12.180 -0.0203  0.4066  0.6256
15581TIP3    H168234   4.799   3.229  12.145 -0.0342 -0.2900 -1.2109
15581TIP3    H268235   4.838   3.132  12.254  1.7890  1.0001 -0.6657
15582TIP3   OH268236   3.306   5.017  12.268 -0.4709 -0.5502  0.0311
15582TIP3    H168237   3.241   5.078  12.232 -0.3144  0.1268  0.8693
15582TIP3    H268238   3.379   5.021  12.205  0.0341  1.0366  0.6496
15583TIP3   OH268239   0.824   1.012   0.323  0.4259  0.1082 -0.7160
15583TIP3    H168240   0.740   1.048   0.350  1.0947  0.4682  0.9766
15583TIP3    H268241   0.801   0.933   0.274 -0.9064  0.6051 -0.9393
15584TIP3   OH268242   0.513   6.415  14.691 -0.1601  0.0039  0.1504
15584TIP3    H168243   0.472   6.444  14.609 -2.0095 -0.4416  0.8740
15584TIP3    H268244   0.528   6.322  14.678  1.0479  0.2383 -0.2571
15585TIP3   OH268245   5.091   0.764  16.299 -0.0323  0.1355 -0.3595
15585TIP3    H168246   5.126   0.821  16.367 -0.9024  0.2569 -0.0076
15585TIP3    H268247   5.117   0.806  16.217 -1.1277  1.3544 -0.1140
15586TIP3   OH268248   4.498   0.483  15.785 -0.0051  0.1317 -0.2850
15586TIP3    H168249   4.497   0.551  15.853 -0.2951 -1.1916  1.0722
15586TIP3    H268250   4.521   0.403  15.831 -0.1712 -0.8148 -1.7769
15587TIP3   OH268251   2.444   2.474  11.606 -0.5460  0.4617  0.3765
15587TIP3    H168252   2.442   2.399  11.665  1.0552 -1.3623 -1.7094
15587TIP3    H268253   2.487   2.441  11.527 -0.4324  3.4142 -0.9185
15588TIP3   OH268254   5.505   0.308   2.157  0.1031 -0.9168  0.0168
15588TIP3    H168255   5.452   0.287   2.234 -0.9419 -2.6646 -1.0851
15588TIP3    H268256   5.470   0.391   2.125  1.0678  0.2339  1.8082
15589TIP3   OH268257   1.408   0.980  13.680  0.2248 -0.0172 -0.1394
15589TIP3    H168258   1.382   1.004  13.591  2.4722 -0.8559 -1.0974
15589TIP3    H268259   1.346   0.913  13.707 -0.4239  0.1837 -1.1002
15590TIP3   OH268260   1.313   3.890  15.906 -0.1782 -0.0508 -0.0603
15590TIP3    H168261   1.394   3.923  15.946 -0.9594  0.9873  0.7223
15590TIP3    H268262   1.291   3.956  15.840 -0.1062 -0.6062 -0.6454
15591TIP3   OH268263   0.871   0.716  13.256  0.2310 -0.0282  0.2095
15591TIP3    H168264   0.923   0.655  13.309 -1.4923 -0.6349  1.2916
15591TIP3    H268265   0.802   0.746  13.316 -0.1149  1.4895 -0.8904
15592TIP3   OH268266   3.458   6.091  11.693 -0.4267 -0.2634  0.2411
15592TIP3    H168267   3.531   6.146  11.664  0.3170 -1.7958 -0.9912
15592TIP3    H268268   3.491   6.001  11.682 -3.1411 -1.1154 -2.4333
15593TIP3   OH268269   1.480   0.513  15.327 -0.4565 -0.1103  0.1981
15593TIP3    H168270   1.443   0.434  15.288  0.3676 -0.1591 -0.5227
15593TIP3    H268271   1.513   0.484  15.412 -0.7286 -0.3910  0.2111
15594TIP3   OH268272   0.157   0.598   1.737  0.1858 -0.3607 -0.1848
15594TIP3    H168273   0.129   0.574   1.825  1.9714 -0.0558  0.5203
15594TIP3    H268274   0.185   0.515   1.698  2.1793 -0.1451  0.6530
15595TIP3   OH268275   4.937   1.568  17.141  0.2285 -0.4122  0.1134
15595TIP3    H168276   4.916   1.557  17.234 -1.6421  1.5873  0.0148
15595TIP3    H268277   5.032   1.576  17.138  0.2738  0.0754  1.9265
15596TIP3   OH268278   5.304   2.443   6.044 -0.4826 -0.0887  0.1438
15596TIP3    H168279   5.266   2.477   5.964  0.2894  0.4377 -0.0117
15596TIP3    H268280   5.289   2.512   6.109  0.1420  0.1123  0.0891
15597TIP3   OH268281   1.934   4.936  16.461 -0.4561 -0.0017  0.2628
15597TIP3    H168282   1.929   4.842  16.473  0.4487 -0.3058 -1.4330
15597TIP3    H268283   1.844   4.967  16.472 -0.6267 -0.9307  1.6388
15598TIP3   OH268284   3.724   1.419   2.047  0.3951  0.1091 -0.1469
15598TIP3    H168285   3.652   1.356   2.055  0.7530 -0.8480 -3.1592
15598TIP3    H268286   3.704   1.468   1.968  3.3926 -0.7985 -1.6028
15599TIP3   OH268287   0.895   6.450   2.590 -0.1142  0.0493  0.0937
15599TIP3    H168288   0.930   6.539   2.584 -0.3286  0.0194 -1.9905
15599TIP3    H268289   0.800   6.462   2.590 -0.1724 -0.2127 -1.5912
15600TIP3   OH268290   1.047   6.408  12.447  0.6950  0.0518 -0.2512
15600TIP3    H168291   1.093   6.492  12.454 -2.3980  1.8541  0.4947
15600TIP3    H268292   1.073   6.360  12.526  2.4812  0.2920 -0.6641
15601TIP3   OH268293   3.126   6.423  12.059 -0.2646 -0.1271 -0.4495
15601TIP3    H168294   3.198   6.365  12.035 -2.4332 -2.6078 -1.4845
15601TIP3    H268295   3.123   6.420  12.154 -0.5595 -2.1705 -0.4774
15602TIP3   OH268296   3.465   2.898  10.924  0.5044  0.6099  0.3516
15602TIP3    H168297   3.523   2.937  10.990  1.6088  1.1208 -0.8771
15602TIP3    H268298   3.524   2.870  10.854 -0.4089 -1.8281  0.4488
15603TIP3   OH268299   2.969   0.802  16.380 -0.1227  0.1995 -0.1477
15603TIP3    H168300   3.054   0.828  16.344 -0.3173 -0.8148 -1.4270
15603TIP3    H268301   2.913   0.879  16.368  0.9964  1.5311  2.3176
15604TIP3   OH268302   5.021   1.493   6.736 -0.5091  0.4571  0.1344
15604TIP3    H168303   5.088   1.561   6.738  0.7895 -0.7691 -0.0944
15604TIP3    H268304   5.025   1.457   6.647 -0.0402 -0.9525  0.6832
15605TIP3   OH268305   1.572   1.670  16.339 -0.1271  0.4559  0.4313
15605TIP3    H168306   1.553   1.706  16.252  0.0131 -0.1063  0.1651
15605TIP3    H268307   1.516   1.592  16.346  0.9901 -0.3814  0.2211
15606TIP3   OH268308   3.604   2.990   4.720 -0.5878  0.5907  0.5214
15606TIP3    H168309   3.565   2.909   4.688  2.3971 -1.4348  1.6153
15606TIP3    H268310   3.548   3.017   4.792  0.3598 -2.7783  2.7407
15607TIP3   OH268311   0.794   0.332   2.613  0.2058  0.0769 -0.0580
15607TIP3    H168312   0.870   0.388   2.631  0.7108  0.3560 -2.6062
15607TIP3    H268313   0.825   0.243   2.627  1.0643  0.1867 -1.1217
15608TIP3   OH268314   1.820   5.390   1.418 -0.1693  0.2830  0.3043
15608TIP3    H168315   1.886   5.338   1.463 -1.0160  1.4887  3.1368
15608TIP3    H268316   1.736   5.355   1.449 -0.8516  0.4652 -1.2247
15609TIP3   OH268317   4.651   3.620   1.488 -0.2449  0.3075  0.0447
15609TIP3    H168318   4.615   3.533   1.469 -2.4249  0.8412  1.4063
15609TIP3    H268319   4.735   3.621   1.444 -0.2513 -2.4251 -0.1851
15610TIP3   OH268320   4.975   4.309   0.269 -0.6411  0.0307  0.0762
15610TIP3    H168321   4.891   4.331   0.230 -0.2568 -1.2367 -1.5748
15610TIP3    H268322   4.954   4.270   0.354 -1.7362 -0.5594 -0.4546
15611TIP3   OH268323   1.423   1.556  16.939  0.3908 -0.2378 -0.0309
15611TIP3    H168324   1.445   1.571  17.031  0.4104 -1.0062  0.0956
15611TIP3    H268325   1.412   1.644  16.902  1.5897  0.1127  0.4069
15612TIP3   OH268326   0.690   2.784   4.522 -0.2875 -0.1618 -0.4613
15612TIP3    H168327   0.775   2.768   4.480 -0.4188 -1.0678 -0.4115
15612TIP3    H268328   0.711   2.836   4.599 -0.0904  1.9431 -1.8530
15613TIP3   OH268329   2.901   2.018   4.119  0.3655  0.7705 -0.4717
15613TIP3    H168330   2.821   1.975   4.150 -0.4077  0.9810 -2.0358
15613TIP3    H268331   2.917   2.087   4.183  0.6649 -0.7321  1.1416
15614TIP3   OH268332   6.078   0.705   0.639 -0.2727  0.4275 -0.2562
15614TIP3    H168333   5.992   0.714   0.680 -1.1377  2.1722 -2.2591
15614TIP3    H268334   6.138   0.744   0.703 -1.2622  1.0839  0.3110
15615TIP3   OH268335   0.229   5.181  16.210  0.5301  0.2844 -0.6324
15615TIP3    H168336   0.288   5.183  16.286 -1.1924  2.0291  0.8034
15615TIP3    H268337   0.219   5.273  16.186  0.0216 -0.1507 -2.1647
15616TIP3   OH268338   2.921   6.591   2.869  0.0917 -0.0146  0.1571
15616TIP3    H168339   2.936   6.565   2.960  1.3285 -0.8823 -0.2676
15616TIP3    H268340   2.884   6.679   2.876 -0.3339 -0.2645  1.5089
15617TIP3   OH268341   4.441   1.237   1.736 -0.4803 -0.6022 -0.0121
15617TIP3    H168342   4.423   1.313   1.792  2.1303 -0.1290  0.2885
15617TIP3    H268343   4.404   1.163   1.784 -1.2180  0.2047  0.7051
15618TIP3   OH268344   0.890   4.698  15.306  0.0856 -0.6370  0.3156
15618TIP3    H168345   0.957   4.658  15.250 -0.1021  1.3480 -1.4553
15618TIP3    H268346   0.813   4.641  15.296  0.5916 -1.2595 -0.0839
15619TIP3   OH268347   2.497   4.316   0.183  0.2208 -0.4576  0.4835
15619TIP3    H168348   2.513   4.408   0.164 -2.2313  0.1790  1.1074
15619TIP3    H268349   2.540   4.269   0.111  2.7081  1.0197  0.8841
15620TIP3   OH268350   5.251   0.586   5.550 -0.0898  0.1091 -0.2903
15620TIP3    H168351   5.249   0.629   5.636  1.4363  1.5524 -0.9252
15620TIP3    H268352   5.340   0.602   5.517 -0.9300  0.4569 -2.5540
15621TIP3   OH268353   3.041   5.016   5.231 -0.1028 -0.1773  0.2479
15621TIP3    H168354   3.031   4.991   5.139  0.0733  0.7725 -0.0424
15621TIP3    H268355   3.121   4.971   5.259  0.9629  1.0772 -0.6506
15622TIP3   OH268356   3.454   1.158   2.298 -0.3527  0.1494 -0.3194
15622TIP3    H168357   3.424   1.163   2.389 -0.0984  0.8997 -0.2723
15622TIP3    H268358   3.536   1.108   2.302 -1.5444 -1.9203 -0.4506
15623TIP3   OH268359   2.714   1.270  14.936 -0.1791  0.5703 -0.4526
15623TIP3    H168360   2.716   1.287  15.030 -0.9685 -2.1568  0.1597
15623TIP3    H268361   2.801   1.236  14.916 -0.1659  0.6906 -0.5950
15624TIP3   OH268362   2.009   5.038  11.034 -0.1787 -0.8173 -0.0783
15624TIP3    H168363   2.021   4.943  11.023  0.9466 -0.7678  0.6115
15624TIP3    H268364   2.088   5.077  10.997  0.5715 -0.3084  1.9181
15625TIP3   OH268365   0.249   6.256   4.218  0.4765 -0.2104 -0.1783
15625TIP3    H168366   0.211   6.266   4.305 -1.0495 -0.1433 -0.8126
15625TIP3    H268367   0.218   6.332   4.169  1.2779 -0.2666 -0.7895
15626TIP3   OH268368   2.195   1.680  10.964  0.1477 -0.3147 -0.2977
15626TIP3    H168369   2.202   1.722  10.879  2.1859  0.3610  0.1607
15626TIP3    H268370   2.179   1.588  10.944  2.1302 -0.4572 -1.4969
15627TIP3   OH268371   2.266   4.946   0.509  0.3239 -0.3505  0.0563
15627TIP3    H168372   2.248   4.987   0.425 -0.4500  0.3136  0.5229
15627TIP3    H268373   2.196   4.881   0.520  0.7074 -0.7816 -0.0321
15628TIP3   OH268374   6.295   5.492  14.589  0.6882  0.0974  0.1856
15628TIP3    H168375   6.348   5.432  14.642  1.1709 -0.4426 -0.8663
15628TIP3    H268376   6.353   5.515  14.515 -0.9540 -1.5801 -1.7440
15629TIP3   OH268377   4.295   2.998  12.709 -0.6876  0.1959  0.1141
15629TIP3    H168378   4.266   3.041  12.790  0.3664 -0.4987  0.9006
15629TIP3    H268379   4.307   2.906  12.734  1.3841  0.3015 -0.3361
15630TIP3   OH268380   3.348   4.385  12.629 -0.1812 -0.2870  0.0996
15630TIP3    H168381   3.273   4.434  12.664 -0.1682 -0.8958  0.9970
15630TIP3    H268382   3.314   4.298  12.612  0.0171 -0.2186 -0.6901
15631TIP3   OH268383   1.937   3.241   0.711 -0.2062  0.1038  0.1034
15631TIP3    H168384   2.008   3.277   0.657 -0.7205 -1.0940 -1.4442
15631TIP3    H268385   1.935   3.297   0.789  0.4801  2.0002 -1.1718
15632TIP3   OH268386   0.841   4.121   1.309 -0.2914  0.1395 -0.4432
15632TIP3    H168387   0.896   4.084   1.378  1.5126  1.1076 -1.2971
15632TIP3    H268388   0.825   4.047   1.249  1.6838  0.2406 -1.1494
15633TIP3   OH268389   3.493   4.000   3.907 -0.1913  0.2837 -0.2358
15633TIP3    H168390   3.539   3.929   3.863 -0.8416 -0.0888 -0.3326
15633TIP3    H268391   3.420   3.957   3.951 -1.2845  1.0157 -1.2573
15634TIP3   OH268392   3.790   1.851   0.558 -0.0661 -0.3053  0.3492
15634TIP3    H168393   3.729   1.925   0.552  0.4169  0.0996  0.4449
15634TIP3    H268394   3.818   1.836   0.468 -0.9783 -1.0656  0.1740
15635TIP3   OH268395   4.533   2.910  15.581 -0.5128  0.3649 -0.1360
15635TIP3    H168396   4.456   2.855  15.568 -0.7480  0.8435 -0.8418
15635TIP3    H268397   4.572   2.917  15.493  0.6432 -0.3051  0.2948
15636TIP3   OH268398   0.237   0.983   1.995  0.0518 -0.8020  0.2505
15636TIP3    H168399   0.309   1.040   2.023 -0.7783  0.4038  0.0056
15636TIP3    H268400   0.280   0.902   1.969  1.5545  0.4842 -1.5717
15637TIP3   OH268401   2.928   1.848  15.097 -0.3307 -0.2391  0.0048
15637TIP3    H168402   3.011   1.801  15.097 -1.1274 -1.7190  0.0935
15637TIP3    H268403   2.902   1.849  15.189 -0.6530 -0.2370 -0.0867
15638TIP3   OH268404   1.877   6.805   4.239 -0.0021  0.1294  0.5233
15638TIP3    H168405   1.941   6.736   4.256 -2.2502 -2.5821 -1.0718
15638TIP3    H268406   1.919   6.860   4.173  0.8636 -1.3553 -0.2186
15639TIP3   OH268407   1.061   2.185  11.560  0.4016 -0.4433 -0.7365
15639TIP3    H168408   1.006   2.169  11.483 -0.5056  1.1607 -0.4601
15639TIP3    H268409   1.057   2.103  11.609 -0.5848 -0.8472 -1.4470
15640TIP3   OH268410   5.745   2.804   4.881  0.2331  0.5265 -0.1408
15640TIP3    H168411   5.834   2.814   4.913  0.0035  1.0042  0.3731
15640TIP3    H268412   5.690   2.824   4.957 -0.3031 -0.3454 -0.2912
15641TIP3   OH268413   2.607   1.090  13.460 -0.3695  0.2399  0.2081
15641TIP3    H168414   2.601   1.049  13.546  0.9735  0.1232  0.2630
15641TIP3    H268415   2.681   1.047  13.418 -0.4036  0.9800 -0.6406
15642TIP3   OH268416   4.354   5.012  16.109  0.0353  0.4138 -0.2302
15642TIP3    H168417   4.312   4.926  16.103 -0.9262  0.9276 -1.1475
15642TIP3    H268418   4.292   5.064  16.161 -0.2829  1.0485 -1.2119
15643TIP3   OH268419   3.715   0.688  15.060  0.3736  0.2053  0.1213
15643TIP3    H168420   3.657   0.644  15.123  0.5323 -3.1583 -1.8819
15643TIP3    H268421   3.685   0.779  15.061 -3.2160 -0.8152  1.1288
15644TIP3   OH268422   6.697   0.460   0.429  0.0375 -0.0100 -0.2774
15644TIP3    H168423   6.728   0.481   0.341 -0.3857  1.2443 -0.1543
15644TIP3    H268424   6.719   0.368   0.442  0.1451 -0.1923 -1.6767
15645TIP3   OH268425   0.915   2.081   0.962  0.2190 -0.2036  0.2171
15645TIP3    H168426   0.871   2.159   0.997 -0.1175  0.0067 -0.6497
15645TIP3    H268427   0.980   2.058   1.028  2.0600  2.2675 -0.5979
15646TIP3   OH268428   3.734   4.071   6.723  0.1972 -0.1204 -0.0223
15646TIP3    H168429   3.797   4.011   6.762 -0.6893 -1.9176 -1.1960
15646TIP3    H268430   3.785   4.123   6.662  0.6266 -1.4072 -0.8043
15647TIP3   OH268431   4.820   4.760  16.290 -0.7500  0.4318 -0.0048
15647TIP3    H168432   4.755   4.819  16.252 -1.5707  1.0077  2.1644
15647TIP3    H268433   4.808   4.768  16.385  0.1674 -2.0497  0.4065
15648TIP3   OH268434   4.103   3.341   3.994 -0.1646 -0.1257 -0.0568
15648TIP3    H168435   4.063   3.306   3.914  1.7458 -0.7020 -0.8187
15648TIP3    H268436   4.182   3.287   4.006  0.7976  1.4375  0.9262
15649TIP3   OH268437   3.103   6.758  15.113 -0.3392  0.3205  0.2085
15649TIP3    H168438   3.100   6.845  15.154 -0.2552  0.3494  0.1531
15649TIP3    H268439   3.011   6.736  15.097 -0.4571 -0.1652  1.4155
15650TIP3   OH268440   4.144   3.114  16.601 -0.4062 -0.1103  0.0166
15650TIP3    H168441   4.126   3.021  16.583 -2.2795  0.4829 -1.5402
15650TIP3    H268442   4.081   3.137  16.670 -1.0727  0.3884 -0.7530
15651TIP3   OH268443   1.990   4.418   3.476 -0.3432 -0.4467  0.4298
15651TIP3    H168444   1.987   4.334   3.430  0.3955 -0.6333  0.7056
15651TIP3    H268445   2.060   4.466   3.433 -0.1962 -0.3017  0.8258
15652TIP3   OH268446   1.567   5.955   5.028  0.3430  0.6553 -0.6708
15652TIP3    H168447   1.548   6.048   5.012  1.8370  0.7771 -1.9730
15652TIP3    H268448   1.523   5.909   4.958 -1.2570  0.2372  0.5532
15653TIP3   OH268449   0.288   0.304   1.788 -0.3351 -0.3982 -0.2987
15653TIP3    H168450   0.278   0.311   1.883  1.1103  0.3362 -0.1766
15653TIP3    H268451   0.383   0.306   1.774 -0.4989 -1.4690 -1.6925
15654TIP3   OH268452   3.012   5.046  11.297  0.1953  0.2353  0.6502
15654TIP3    H168453   3.000   5.069  11.205 -1.2403 -0.2496  0.6914
15654TIP3    H268454   2.938   4.988  11.317  1.9565 -1.9287  1.3542
15655TIP3   OH268455   6.123   2.093   1.532 -0.5416  0.3881  0.3059
15655TIP3    H168456   6.044   2.093   1.477 -0.2481 -2.0897 -0.2478
15655TIP3    H268457   6.193   2.123   1.474 -0.6340 -0.0045 -0.0155
15656TIP3   OH268458   0.432   1.830  16.955 -0.5888 -0.2178  0.2900
15656TIP3    H168459   0.380   1.821  16.875 -0.6158 -0.5884  0.3466
15656TIP3    H268460   0.437   1.741  16.990  0.3987 -0.2623  0.0908
15657TIP3   OH268461   2.302   3.831   4.930  0.1020 -0.2483  0.1517
15657TIP3    H168462   2.264   3.875   5.006  0.6731  0.0404  0.2785
15657TIP3    H268463   2.352   3.758   4.968 -0.7179 -0.9261 -0.0464
15658TIP3   OH268464   4.281   1.065   2.886  0.6694 -0.2384  0.5391
15658TIP3    H168465   4.255   1.145   2.931  2.8567 -0.0068  1.5314
15658TIP3    H268466   4.214   1.001   2.909 -1.6647  1.4648 -1.0472
15659TIP3   OH268467   2.813   1.333   3.516  0.2059  0.1005  0.1440
15659TIP3    H168468   2.891   1.293   3.555 -1.1217 -0.7165  2.1613
15659TIP3    H268469   2.800   1.286   3.434  2.3084  0.8698 -0.6799
15660TIP3   OH268470   5.895   0.553  14.262 -0.3196 -0.1952  0.6862
15660TIP3    H168471   5.899   0.461  14.285  1.3555 -0.0502  1.1265
15660TIP3    H268472   5.822   0.588  14.313  0.2243 -0.9010  2.0058
15661TIP3   OH268473   5.878   3.012   5.452 -0.1159  0.0625  0.5584
15661TIP3    H168474   5.883   2.918   5.439 -1.0353  0.0145  0.5518
15661TIP3    H268475   5.813   3.042   5.389 -2.2689  0.2602  2.7335
15662TIP3   OH268476   6.842   4.526  14.563  0.1701 -0.5232 -0.4626
15662TIP3    H168477   6.909   4.594  14.560  0.0492 -0.4251 -1.3696
15662TIP3    H268478   6.891   4.444  14.551  0.1714 -0.4714 -0.8536
15663TIP3   OH268479   2.556   1.180  15.292  0.6223 -0.1161  0.1305
15663TIP3    H168480   2.482   1.204  15.235 -0.1123  2.0757  1.8380
15663TIP3    H268481   2.604   1.263  15.304  2.8652 -1.2976 -0.1918
15664TIP3   OH268482   0.109   1.901   5.157 -0.3106  0.0539 -0.2344
15664TIP3    H168483   0.188   1.953   5.176 -0.3357  0.6769 -1.7242
15664TIP3    H268484   0.038   1.965   5.159 -0.8812 -0.5853  1.5613
15665TIP3   OH268485   2.325   1.033  14.394 -0.1729  0.0754 -0.3056
15665TIP3    H168486   2.289   1.068  14.475 -1.8346 -1.7995 -0.1500
15665TIP3    H268487   2.375   0.956  14.422  2.4477  1.4913 -0.7452
15666TIP3   OH268488   1.824   3.588  12.593 -0.1128 -0.0998 -0.2878
15666TIP3    H168489   1.865   3.507  12.564 -0.4778 -0.1423 -0.6784
15666TIP3    H268490   1.756   3.560  12.653 -0.7150 -0.1257 -0.9749
15667TIP3   OH268491   4.233   1.382  15.366 -0.2145  0.1652  0.1661
15667TIP3    H168492   4.200   1.327  15.438  0.1633  0.3061  0.4539
15667TIP3    H268493   4.271   1.320  15.304  2.2883  0.1906  1.5619
15668TIP3   OH268494   1.806   2.084   5.729  0.4703  0.3463  0.0893
15668TIP3    H168495   1.900   2.100   5.720  0.6452  0.7142  2.1129
15668TIP3    H268496   1.793   2.068   5.823 -1.7332  1.8673  0.1164
15669TIP3   OH268497   4.785   0.975   5.744  0.3820  0.8136  0.1255
15669TIP3    H168498   4.737   1.058   5.739  0.3403  0.8003  0.3010
15669TIP3    H268499   4.817   0.971   5.834  0.5198  0.7147  0.0721
15670TIP3   OH268500   5.757   3.792   4.890  0.1113  0.0684 -0.2541
15670TIP3    H168501   5.852   3.785   4.901  0.0550 -2.1368 -0.7872
15670TIP3    H268502   5.721   3.723   4.945 -1.2335  1.0765  0.1891
15671TIP3   OH268503   6.254   6.466  15.876 -0.0932 -0.5648 -0.3380
15671TIP3    H168504   6.336   6.420  15.896 -1.7469 -3.4080  0.5188
15671TIP3    H268505   6.244   6.529  15.946 -0.1059 -2.4155  1.4205
15672TIP3   OH268506   1.447   0.883   1.117  0.0226  0.5751 -0.0488
15672TIP3    H168507   1.475   0.941   1.188 -0.9146  1.7533 -0.6051
15672TIP3    H268508   1.404   0.941   1.054 -0.0472 -0.5912 -1.1121
15673TIP3   OH268509   0.508   3.704   0.263  0.5261 -0.0276 -0.3942
15673TIP3    H168510   0.503   3.680   0.171  0.0847 -3.4485  0.3977
15673TIP3    H268511   0.419   3.695   0.296  0.7604  0.6896  0.4887
15674TIP3   OH268512   6.428   5.030  13.421  0.5778  0.7048  0.5062
15674TIP3    H168513   6.516   5.066  13.415  0.3708  1.2065  0.4096
15674TIP3    H268514   6.403   5.013  13.331  1.1269 -0.8158  0.6213
15675TIP3   OH268515   2.116   1.709  15.997  0.0848  0.2321 -0.2676
15675TIP3    H168516   2.031   1.667  16.006 -1.7302  3.4799 -0.6051
15675TIP3    H268517   2.138   1.740  16.085  0.4807  0.2077 -0.3523
15676TIP3   OH268518   3.879   5.627   5.243 -0.2091 -0.3315 -0.2198
15676TIP3    H168519   3.877   5.570   5.319  0.4848  1.4534  1.2075
15676TIP3    H268520   3.913   5.572   5.173  0.3711 -1.6862  1.0792
15677TIP3   OH268521   2.934   3.730  14.435  0.1157  0.2307 -0.1903
15677TIP3    H168522   2.966   3.727  14.525 -1.5327 -1.1171  0.4042
15677TIP3    H268523   2.919   3.638  14.411 -2.6693  0.6901 -0.5859
15678TIP3   OH268524   0.118   5.994   2.154  0.3335  0.3092 -0.3362
15678TIP3    H168525   0.035   5.990   2.106 -0.1603  3.8884 -0.0297
15678TIP3    H268526   0.185   5.997   2.085  0.0436 -0.0135 -0.6397
15679TIP3   OH268527   5.008   3.856   2.708  0.0715 -0.2873 -0.1915
15679TIP3    H168528   5.020   3.763   2.728 -2.6095 -0.6226  0.1077
15679TIP3    H268529   4.950   3.857   2.632 -0.9552  1.1219  0.5731
15680TIP3   OH268530   6.558   6.043  13.111 -0.2413  0.3178 -0.4225
15680TIP3    H168531   6.546   6.019  13.019 -0.2306  2.2243 -0.9762
15680TIP3    H268532   6.551   6.139  13.111 -2.2730  0.2757  1.8504
15681TIP3   OH268533   5.713   1.431  14.149  0.0697  0.1498 -0.0656
15681TIP3    H168534   5.671   1.403  14.067  0.9564  2.7526 -1.5298
15681TIP3    H268535   5.721   1.350  14.200 -1.6680 -1.3685 -1.9820
15682TIP3   OH268536   2.973   3.790  11.708  0.1422  0.3060 -0.6094
15682TIP3    H168537   3.051   3.814  11.757 -1.1664 -1.6549  2.8690
15682TIP3    H268538   2.990   3.700  11.678 -1.0402 -0.5592  1.1221
15683TIP3   OH268539   0.357   1.529   3.446  0.0161 -0.2727 -0.1747
15683TIP3    H168540   0.446   1.558   3.423 -0.5619  1.8337  0.0099
15683TIP3    H268541   0.301   1.602   3.420 -1.7113 -1.6422 -0.4508
15684TIP3   OH268542   4.501   4.543   2.538  0.4475  0.5684 -0.2077
15684TIP3    H168543   4.444   4.505   2.471  0.3869  0.6676 -0.2130
15684TIP3    H268544   4.568   4.477   2.553 -0.7074 -0.3584  1.1373
15685TIP3   OH268545   5.078   4.063   0.949  0.1919  0.1415  0.4328
15685TIP3    H168546   5.125   4.146   0.943 -0.0288  0.1713 -1.2354
15685TIP3    H268547   4.998   4.077   0.899  0.5785 -1.3398 -0.6576
15686TIP3   OH268548   2.990   6.752   2.016  0.7512 -0.1361 -0.7516
15686TIP3    H168549   3.043   6.677   1.991  2.2978  0.3264  0.9299
15686TIP3    H268550   3.007   6.818   1.948  2.2335 -0.0567 -0.3290
15687TIP3   OH268551   5.750   1.012  15.590 -0.0261  0.4739 -0.0754
15687TIP3    H168552   5.676   1.056  15.631  0.2796  0.5197  0.4237
15687TIP3    H268553   5.776   0.944  15.652  1.2275  1.3420  0.3842
15688TIP3   OH268554   4.159   4.592   0.483 -0.0993 -0.0345 -0.1482
15688TIP3    H168555   4.164   4.682   0.448  2.1467  0.0731  0.3376
15688TIP3    H268556   4.223   4.543   0.431  0.4676 -0.7676  1.2092
15689TIP3   OH268557   6.409   5.579  11.901  0.0646  0.2568 -0.0107
15689TIP3    H168558   6.495   5.612  11.928  0.5895 -0.8583 -0.2785
15689TIP3    H268559   6.427   5.493  11.863 -0.7744  1.2219 -2.8085
15690TIP3   OH268560   0.171   6.640   0.311  0.2199  0.3275 -0.9959
15690TIP3    H168561   0.192   6.713   0.253  1.3833  1.0100  0.2113
15690TIP3    H268562   0.113   6.584   0.260 -0.1248  1.7348 -2.2021
15691TIP3   OH268563   5.428   4.539  11.106  0.1978 -0.1248 -0.5496
15691TIP3    H168564   5.358   4.602  11.088  0.0044  0.5897  2.2711
15691TIP3    H268565   5.508   4.591  11.109  0.8285 -0.8152 -2.9000
15692TIP3   OH268566   3.489   6.366  16.299  0.6465 -0.0365  0.8107
15692TIP3    H168567   3.571   6.415  16.311 -0.6946  1.8146  3.3608
15692TIP3    H268568   3.516   6.275  16.295  2.9697  0.6003 -0.5449
15693TIP3   OH268569   1.524   2.131  12.706  0.0378 -0.5085  0.5586
15693TIP3    H168570   1.458   2.135  12.775 -3.4712  1.0400 -2.5393
15693TIP3    H268571   1.547   2.222  12.690 -1.7375 -0.4501 -2.3181
15694TIP3   OH268572   2.700   1.483   5.641  0.0931 -0.1121 -0.1230
15694TIP3    H168573   2.729   1.421   5.575 -0.1338 -0.6346  0.2629
15694TIP3    H268574   2.616   1.449   5.671 -0.0549  0.4063  0.0574
15695TIP3   OH268575   4.461   0.411  12.609  0.0641  0.1087  0.1967
15695TIP3    H168576   4.532   0.429  12.547 -0.2635  0.9986  0.0645
15695TIP3    H268577   4.391   0.373  12.555  0.7928 -1.7841  0.4928
15696TIP3   OH268578   2.542   4.359   5.862  0.3954  0.0518  0.2641
15696TIP3    H168579   2.489   4.404   5.928 -1.1978  2.0406 -2.1539
15696TIP3    H268580   2.621   4.413   5.854  0.7848 -0.4287  0.8155
15697TIP3   OH268581   2.256   6.119   3.139  0.2006  0.2948 -0.0109
15697TIP3    H168582   2.268   6.067   3.219  1.0195  0.2137 -0.1768
15697TIP3    H268583   2.191   6.070   3.088  0.3227 -0.1107  0.2170
15698TIP3   OH268584   3.728   4.006  12.761  0.3049 -0.3904 -0.8761
15698TIP3    H168585   3.657   3.951  12.729 -0.9722  0.7248 -0.0586
15698TIP3    H268586   3.768   4.042  12.682 -0.7692 -0.1478 -1.3240
15699TIP3   OH268587   6.097   0.271   5.613  0.1619 -0.0619  0.1338
15699TIP3    H168588   6.003   0.258   5.598 -0.2425 -1.7055  3.3155
15699TIP3    H268589   6.133   0.183   5.620  1.9944  0.5421 -0.9707
15700TIP3   OH268590   4.260   0.871  16.237  0.2841 -0.0315  0.2480
15700TIP3    H168591   4.260   0.882  16.142 -1.1833 -0.9917  0.1153
15700TIP3    H268592   4.325   0.803  16.253  0.7773  0.3630 -0.0174
15701TIP3   OH268593   1.181   6.469  14.788  0.2914  0.2271 -0.2318
15701TIP3    H168594   1.253   6.470  14.725  0.2386 -0.2578 -0.3032
15701TIP3    H268595   1.214   6.414  14.859  0.2306  0.5182  0.0247
15702TIP3   OH268596   2.471   1.471   4.440 -0.0758 -0.0530 -0.4397
15702TIP3    H168597   2.408   1.497   4.373 -0.7802  1.9452  0.9121
15702TIP3    H268598   2.416   1.449   4.516  0.7850  1.3980  0.6519
15703TIP3   OH268599   4.552   4.369  16.954  0.0733 -0.1130 -0.3073
15703TIP3    H168600   4.512   4.445  16.996  3.4510  0.5439  2.1905
15703TIP3    H268601   4.571   4.398  16.865 -1.8886  0.6306 -0.5380
15704TIP3   OH268602   4.519   1.723  13.785 -0.3902  0.4342  0.1023
15704TIP3    H168603   4.536   1.708  13.692 -2.1211 -0.3552 -0.1192
15704TIP3    H268604   4.543   1.640  13.827 -2.2819 -0.2472 -0.0555
15705TIP3   OH268605   2.330   2.528   4.278  0.1884  0.2475 -0.0247
15705TIP3    H168606   2.386   2.526   4.200  0.0492 -0.9155 -0.1105
15705TIP3    H268607   2.325   2.620   4.301  1.3070  0.4753 -0.6209
15706TIP3   OH268608   5.893   1.046   1.645  0.0177  0.2506  0.9000
15706TIP3    H168609   5.906   0.952   1.640 -0.7047  0.2264 -2.2552
15706TIP3    H268610   5.981   1.083   1.641  0.1968 -0.2810 -2.3372
15707TIP3   OH268611   2.280   6.122   0.453  0.6646 -0.8703  0.6808
15707TIP3    H168612   2.189   6.093   0.446  0.3860 -0.1184  1.0290
15707TIP3    H268613   2.317   6.107   0.367 -0.7089  1.8316 -0.4975
15708TIP3   OH268614   1.449   4.102  16.533  0.3384  0.1648  0.5943
15708TIP3    H168615   1.500   4.023  16.549 -1.2259 -1.3484 -1.2616
15708TIP3    H268616   1.483   4.137  16.451 -0.3430  0.2297  0.3332
15709TIP3   OH268617   2.860   1.619  13.540  0.0948 -0.1050 -0.3006
15709TIP3    H168618   2.912   1.695  13.565  1.6384 -1.1669 -0.1657
15709TIP3    H268619   2.888   1.599  13.451 -0.9230 -0.0312 -0.6558
15710TIP3   OH268620   4.572   3.673   5.537 -0.1515 -0.3083 -0.1737
15710TIP3    H168621   4.653   3.621   5.544  0.9988  1.5889  2.3023
15710TIP3    H268622   4.515   3.636   5.604 -0.6113 -0.3885 -0.6028
15711TIP3   OH268623   5.066   1.786  12.962  0.2722  0.2160 -0.3969
15711TIP3    H168624   5.063   1.728  12.886 -0.4894  0.2205 -0.3769
15711TIP3    H268625   5.107   1.866  12.930 -0.9213  0.5830 -1.0616
15712TIP3   OH268626   4.397   0.471  14.498 -0.0889  0.3901 -0.0199
15712TIP3    H168627   4.481   0.478  14.543  0.1125 -1.4467 -0.0631
15712TIP3    H268628   4.357   0.558  14.509  0.7856  0.5839  2.0148
15713TIP3   OH268629   0.806   0.191  11.931  0.1420  0.1930 -0.2201
15713TIP3    H168630   0.834   0.269  11.979  0.5769 -1.0210  1.6036
15713TIP3    H268631   0.876   0.127  11.946  0.4285 -0.1980 -2.7363
15714TIP3   OH268632   1.786   0.059  11.113 -0.3711 -0.6818  0.1159
15714TIP3    H168633   1.844  -0.016  11.094 -0.5908 -0.2498 -2.6379
15714TIP3    H268634   1.698   0.025  11.098 -0.4241  0.3300 -2.3567
15715TIP3   OH268635   3.717   1.942   3.141  0.0922 -0.0344  0.2160
15715TIP3    H168636   3.790   1.903   3.190  1.3768 -0.0645 -1.6217
15715TIP3    H268637   3.672   1.997   3.205  0.1588 -1.9991  2.0689
15716TIP3   OH268638   6.481   4.997  14.581  0.4854  0.8694  0.4187
15716TIP3    H168639   6.502   4.930  14.515  0.4857  0.6523  0.6379
15716TIP3    H268640   6.540   4.979  14.653  0.1032  0.7574  0.7080
15717TIP3   OH268641   2.414   0.218   6.319  0.9073  0.6149  0.2815
15717TIP3    H168642   2.487   0.205   6.258  1.5531 -0.0915  1.1816
15717TIP3    H268643   2.440   0.171   6.398  0.1577  1.6396  1.1656
15718TIP3   OH268644   6.814   1.663  16.206  0.1859 -0.0898 -0.1386
15718TIP3    H168645   6.746   1.645  16.140  1.0284  1.9321 -1.6396
15718TIP3    H268646   6.896   1.659  16.157  0.9198  0.3825  1.0322
15719TIP3   OH268647   3.211   6.531   2.588 -0.1698  0.6113  0.2971
15719TIP3    H168648   3.197   6.438   2.576 -0.8158  0.8314 -0.7800
15719TIP3    H268649   3.307   6.541   2.592 -0.0986 -0.2752  2.2815
15720TIP3   OH268650   2.219   2.418  14.872 -0.2082  0.1259 -0.5979
15720TIP3    H168651   2.304   2.382  14.848  0.2962 -0.1677  1.4442
15720TIP3    H268652   2.161   2.394  14.800  0.8162 -2.1108 -0.7499
15721TIP3   OH268653   4.609   1.140  15.705 -0.1214 -0.1346 -0.0294
15721TIP3    H168654   4.631   1.201  15.775  1.1664 -0.8160  0.1913
15721TIP3    H268655   4.582   1.195  15.632 -0.0234  0.6445  0.5159
15722TIP3   OH268656   6.104   6.306   4.248 -0.1537 -0.1467  0.5413
15722TIP3    H168657   6.186   6.257   4.245 -0.5516 -0.8094  0.4810
15722TIP3    H268658   6.090   6.322   4.342  0.6062  0.9419  0.4941
15723TIP3   OH268659   2.109   1.428  10.885  0.0630 -0.3493  0.1253
15723TIP3    H168660   2.059   1.402  10.808  1.4649 -0.5582 -0.7539
15723TIP3    H268661   2.179   1.363  10.891  0.8226  0.4999  0.7182
15724TIP3   OH268662   6.074   0.047  16.632  0.2245  0.3164  0.1172
15724TIP3    H168663   6.067   0.018  16.541  1.2076  2.3245 -0.6425
15724TIP3    H268664   6.009  -0.006  16.678 -2.9248  1.6516 -2.3514
15725TIP3   OH268665   3.020   1.861   3.860 -0.4473 -0.2137 -0.2518
15725TIP3    H168666   2.986   1.887   3.774  0.0434  1.6294  0.0758
15725TIP3    H268667   2.970   1.913   3.923 -1.3293 -2.0731  0.6940
15726TIP3   OH268668   3.501   1.755  11.402 -0.4994  0.0321  0.1394
15726TIP3    H168669   3.411   1.724  11.412 -0.8115 -0.5324 -3.2119
15726TIP3    H268670   3.511   1.769  11.307  2.6591  1.0060  0.5039
15727TIP3   OH268671   6.323   2.447  13.522 -0.1214 -0.3648  0.6932
15727TIP3    H168672   6.297   2.504  13.450 -0.0811  1.7680  2.2686
15727TIP3    H268673   6.412   2.476  13.545 -0.6343 -0.0418  2.4478
15728TIP3   OH268674   3.676   1.726   0.084  0.8006 -0.6480  0.1946
15728TIP3    H168675   3.673   1.822   0.082  0.2858 -0.6282  1.3782
15728TIP3    H268676   3.663   1.700  -0.007  0.5766  0.3980 -0.0885
15729TIP3   OH268677   4.976   3.491  12.361  0.1578 -0.2039  0.4263
15729TIP3    H168678   5.058   3.519  12.321 -0.4543  0.2067 -0.5567
15729TIP3    H268679   4.909   3.547  12.323 -0.6886 -1.0100  0.6711
15730TIP3   OH268680   0.479   3.970   2.131  0.3168  0.6548 -0.2030
15730TIP3    H168681   0.479   4.056   2.088 -2.3411  0.4805 -0.7310
15730TIP3    H268682   0.460   3.908   2.061  1.3180 -0.2917  0.3329
15731TIP3   OH268683   1.935   1.231   1.872 -0.4801  0.5336 -0.3047
15731TIP3    H168684   1.964   1.322   1.876 -1.6473  0.8973  0.6843
15731TIP3    H268685   1.949   1.198   1.961  0.5969 -0.4937 -0.8268
15732TIP3   OH268686   3.947   2.313  12.397  0.8742 -0.3487  0.3891
15732TIP3    H168687   4.028   2.262  12.397  1.0033 -0.1866 -1.2477
15732TIP3    H268688   3.976   2.403  12.385  0.4408 -0.3832 -1.1355
15733TIP3   OH268689   1.854   5.173  16.156 -0.3541  0.1249 -0.7063
15733TIP3    H168690   1.904   5.213  16.084  1.2689 -1.6620 -0.6620
15733TIP3    H268691   1.824   5.247  16.208 -0.9352  1.4482 -2.7765
15734TIP3   OH268692   2.811   3.667   3.970 -0.2933 -0.0530 -0.3276
15734TIP3    H168693   2.851   3.600   3.913  4.0415  1.0211  1.0279
15734TIP3    H268694   2.789   3.738   3.910  0.8904 -0.3309 -1.1506
15735TIP3   OH268695   0.304   1.614   4.198  0.4010 -0.5450  0.0345
15735TIP3    H168696   0.283   1.545   4.135  0.5623 -0.1472 -0.4640
15735TIP3    H268697   0.229   1.617   4.257 -0.4555  0.1009 -1.0449
15736TIP3   OH268698   6.288   5.118  14.356  0.1752 -0.5267  0.6773
15736TIP3    H168699   6.238   5.065  14.418 -1.1769  2.9478  2.8875
15736TIP3    H268700   6.371   5.136  14.400  2.0197 -3.1010 -1.3777
15737TIP3   OH268701   1.534   5.627  12.355  0.5137  0.0447 -0.0650
15737TIP3    H168702   1.603   5.579  12.401 -0.3698 -0.9025  0.3087
15737TIP3    H268703   1.580   5.697  12.309  1.7628 -0.8013 -0.1464
15738TIP3   OH268704   5.601   6.112   3.285 -0.0596 -0.4971 -0.3984
15738TIP3    H168705   5.565   6.066   3.210 -2.6198  1.0895 -0.2826
15738TIP3    H268706   5.646   6.188   3.248 -1.2829  0.2606 -0.3757
15739TIP3   OH268707   0.145   0.852  13.972 -0.3368 -0.3104 -0.3711
15739TIP3    H168708   0.160   0.946  13.980 -0.0645 -0.5034  2.7951
15739TIP3    H268709   0.200   0.824  13.899 -0.4833  1.9624 -1.4151
15740TIP3   OH268710   5.812   4.879  15.884  0.3335 -0.3296  0.7273
15740TIP3    H168711   5.883   4.866  15.821 -0.1790  0.4168 -0.0289
15740TIP3    H268712   5.830   4.815  15.953  0.6758 -1.4877 -0.3815
15741TIP3   OH268713   6.167   2.121   2.983  0.2222 -0.0265 -0.2547
15741TIP3    H168714   6.155   2.090   3.073  1.5207 -0.3098 -0.1555
15741TIP3    H268715   6.099   2.077   2.933 -0.9391  0.6254  0.6806
15742TIP3   OH268716   3.843   2.164  17.102 -0.2430 -0.3132  0.5447
15742TIP3    H168717   3.757   2.193  17.131 -0.9768 -1.3037 -0.5392
15742TIP3    H268718   3.865   2.223  17.030 -0.0625 -0.1343  0.7453
15743TIP3   OH268719   4.325   0.891  16.659  0.4215  0.4367 -0.7981
15743TIP3    H168720   4.379   0.829  16.707 -0.9104  0.4836  0.8497
15743TIP3    H268721   4.387   0.956  16.625  1.5114 -0.1989 -0.0629
15744TIP3   OH268722   4.956   1.398   3.991 -0.7380 -0.3412 -0.9095
15744TIP3    H168723   5.032   1.339   3.993 -1.1130 -0.8170  0.5872
15744TIP3    H268724   4.994   1.485   3.988 -0.0668 -0.5368  0.6713
15745TIP3   OH268725   6.703   0.680  12.125  0.2309  0.4424  0.4659
15745TIP3    H168726   6.736   0.697  12.037  1.2510  2.7141  1.2181
15745TIP3    H268727   6.627   0.736  12.135  0.4435  0.6199  1.2031
15746TIP3   OH268728   3.920   6.323   3.267 -0.0072 -0.1329 -0.0968
15746TIP3    H168729   3.926   6.231   3.244  3.7744  0.2289 -1.3627
15746TIP3    H268730   3.847   6.357   3.214 -1.1164 -2.2337 -0.0033
15747TIP3   OH268731   2.924   4.323  14.997  0.4202  0.0572  0.0744
15747TIP3    H168732   2.929   4.419  14.993 -0.4363  0.1953  1.5787
15747TIP3    H268733   2.980   4.299  15.071 -0.0131 -0.5382  0.2190
15748TIP3   OH268734   2.607   0.175   1.380  0.3190 -0.4135  0.0292
15748TIP3    H168735   2.639   0.113   1.446  1.1142  0.2342  0.2683
15748TIP3    H268736   2.686   0.218   1.347 -0.2816  1.2003  0.6032
15749TIP3   OH268737   4.848   0.324  15.444 -0.2554  0.4792 -0.3649
15749TIP3    H168738   4.847   0.316  15.349  0.3839  2.0077 -0.5310
15749TIP3    H268739   4.756   0.335  15.469 -0.4791 -0.4745 -0.7328
15750TIP3   OH268740   2.704   2.540  12.341  0.3427 -0.2349  0.0163
15750TIP3    H168741   2.783   2.579  12.379 -0.1578  0.7060  0.1160
15750TIP3    H268742   2.644   2.613  12.330  0.0184 -0.6841 -1.4575
15751TIP3   OH268743   4.185   6.718   2.094  0.1179 -0.1612  0.0338
15751TIP3    H168744   4.280   6.721   2.105  0.4369 -1.0828 -1.9652
15751TIP3    H268745   4.161   6.808   2.071  0.6172 -0.0667 -0.1388
15752TIP3   OH268746   0.499   1.158  11.042 -0.1825  0.3682  0.5704
15752TIP3    H168747   0.517   1.073  11.081 -1.4327 -0.5265 -0.7032
15752TIP3    H268748   0.452   1.138  10.961 -0.9462  2.2972  0.4848
15753TIP3   OH268749   4.028   4.079  15.288 -0.2548 -0.2267 -0.0692
15753TIP3    H168750   4.073   4.163  15.301  0.1774 -0.3846 -0.5341
15753TIP3    H268751   4.090   4.014  15.319 -0.8211 -0.3493  0.8460
15754TIP3   OH268752   3.028   5.961   4.095 -0.0532  0.2648  0.2084
15754TIP3    H168753   3.010   6.041   4.045 -0.1166  0.0394 -0.1326
15754TIP3    H268754   3.062   5.899   4.030 -1.9976 -0.6915  0.0240
15755TIP3   OH268755   1.034   2.077  16.660  0.1621  0.1534 -0.2391
15755TIP3    H168756   0.941   2.095  16.676 -0.0393  0.8977 -1.9368
15755TIP3    H268757   1.033   2.015  16.587  1.0006 -1.8848  1.3895
15756TIP3   OH268758   4.533   0.216  15.856  0.5206  0.1705  0.4286
15756TIP3    H168759   4.473   0.152  15.818  1.2475  0.0895 -0.6161
15756TIP3    H268760   4.523   0.204  15.951 -0.7531 -0.1529  0.2791
15757TIP3   OH268761   1.958   4.844   3.830 -0.6433 -0.0457 -0.2539
15757TIP3    H168762   1.990   4.934   3.825 -2.2324  0.4911 -1.4594
15757TIP3    H268763   2.001   4.807   3.907  2.6573  0.6768 -1.5781
15758TIP3   OH268764   6.238   6.506  16.866 -0.1820  0.1205 -0.5539
15758TIP3    H168765   6.246   6.496  16.960  1.6884  0.1594 -0.6631
15758TIP3    H268766   6.298   6.578  16.845  1.0578 -1.2566 -1.9892
15759TIP3   OH268767   0.161   4.714  14.173 -0.5425 -0.5836 -0.3091
15759TIP3    H168768   0.156   4.633  14.124 -2.1284 -0.9294  0.3529
15759TIP3    H268769   0.254   4.727  14.189  0.0498 -0.5742 -3.1414
15760TIP3   OH268770   3.191   4.477   2.928 -0.5027  0.0391  0.2152
15760TIP3    H168771   3.195   4.572   2.935 -0.8577  0.2263 -1.6477
15760TIP3    H268772   3.253   4.455   2.859 -1.7226 -0.8802 -0.6388
15761TIP3   OH268773   4.413   6.768  13.723  0.4772 -0.6547  0.4781
15761TIP3    H168774   4.485   6.811  13.677  0.1055  0.4440  0.8840
15761TIP3    H268775   4.455   6.720  13.795  0.8174  0.0025  0.7296
15762TIP3   OH268776   4.129   4.666  14.258  0.3042 -0.2721  0.4473
15762TIP3    H168777   4.159   4.736  14.200 -0.2603 -0.0558  0.4032
15762TIP3    H268778   4.060   4.622  14.209 -0.1336 -0.1295  0.9101
15763TIP3   OH268779   5.988   1.670  13.709  0.3774 -0.2203  0.5291
15763TIP3    H168780   5.963   1.621  13.631  0.9492  1.2606 -0.6287
15763TIP3    H268781   5.911   1.723  13.729  0.9544  1.0208 -0.3768
15764TIP3   OH268782   2.857   1.949   5.188 -0.7188 -0.7153 -0.3053
15764TIP3    H168783   2.931   1.926   5.244 -0.0838 -0.8275 -1.1699
15764TIP3    H268784   2.789   1.980   5.249  1.0867  2.3473  0.3564
15765TIP3   OH268785   1.255   0.448   4.611 -0.1802 -0.4561 -0.0937
15765TIP3    H168786   1.282   0.434   4.702 -1.9058 -1.2822  0.3476
15765TIP3    H268787   1.175   0.501   4.618 -0.1137 -0.1907 -1.1606
15766TIP3   OH268788   0.090   6.443   3.356 -0.8680  0.1798  0.6683
15766TIP3    H168789   0.032   6.402   3.420 -0.9646 -1.0459 -0.1683
15766TIP3    H268790   0.046   6.431   3.272 -0.4153  1.1503  0.2757
15767TIP3   OH268791   6.322   5.498  11.055 -0.7094 -0.2129 -0.2507
15767TIP3    H168792   6.345   5.405  11.053  1.0632  0.2233 -1.5821
15767TIP3    H268793   6.227   5.499  11.038 -0.5381 -1.7135 -1.4776
15768TIP3   OH268794   0.986   1.171   4.495  0.4213 -0.5428  0.2958
15768TIP3    H168795   1.016   1.152   4.406  0.1902  0.2444  0.0318
15768TIP3    H268796   1.038   1.115   4.551  1.4067 -0.2082 -0.2567
15769TIP3   OH268797   2.793   6.462   0.466  0.5145  0.0147 -0.0305
15769TIP3    H168798   2.719   6.502   0.511  1.9247  1.4443  1.1638
15769TIP3    H268799   2.808   6.380   0.512 -1.0874 -0.9316 -1.1220
15770TIP3   OH268800   5.682   6.772   5.628  0.1668  0.6537 -0.0809
15770TIP3    H168801   5.683   6.868   5.635 -0.4953  0.6833 -0.3845
15770TIP3    H268802   5.723   6.754   5.543 -1.3904  0.7592 -0.8806
15771TIP3   OH268803   2.720   5.387   2.406  0.4614 -0.0795 -0.1112
15771TIP3    H168804   2.805   5.399   2.449  0.8559  0.5352 -1.0295
15771TIP3    H268805   2.697   5.296   2.423  1.3448 -0.2767  0.0741
15772TIP3   OH268806   4.005   6.792   1.366  0.0553 -0.3169  0.0131
15772TIP3    H168807   4.036   6.870   1.319 -1.4817  1.2016  1.3418
15772TIP3    H268808   3.915   6.815   1.392  0.1600 -1.8484  1.9233
15773TIP3   OH268809   4.423   3.199  11.930  0.1467  0.3969 -0.3980
15773TIP3    H168810   4.518   3.199  11.942 -0.1571 -0.4081  2.9013
15773TIP3    H268811   4.389   3.246  12.006 -2.2092 -3.8528  1.5323
15774TIP3   OH268812   6.218   1.889  16.350 -0.1821  0.0274  0.2149
15774TIP3    H168813   6.243   1.906  16.259 -0.4167  0.3348  0.2093
15774TIP3    H268814   6.302   1.886  16.397  0.0450 -1.4267 -0.2172
15775TIP3   OH268815   4.246   1.965   5.137  0.6304  0.3290  0.5548
15775TIP3    H168816   4.330   1.994   5.173  0.1913 -0.4377  2.3034
15775TIP3    H268817   4.182   2.025   5.175  0.2100 -0.1308  0.5818
15776TIP3   OH268818   1.148   6.678  12.444  0.0978  0.0152 -0.1149
15776TIP3    H168819   1.149   6.773  12.460  0.1359  0.4138 -2.1045
15776TIP3    H268820   1.239   6.651  12.454  0.0624  0.1594  0.6154
15777TIP3   OH268821   5.795   4.181   1.323  0.0218 -0.1868 -0.2496
15777TIP3    H168822   5.877   4.162   1.368  1.1940  0.1260 -2.1343
15777TIP3    H268823   5.779   4.104   1.269 -0.2565  0.2568 -0.8113
15778TIP3   OH268824   5.737   2.789   1.984  0.1174 -0.2974  0.0086
15778TIP3    H168825   5.682   2.786   1.906 -1.5148 -2.8827  1.1239
15778TIP3    H268826   5.677   2.814   2.055  0.2752 -3.0468  1.2307
15779TIP3   OH268827   2.163   4.224  15.944 -0.3016 -0.5029  0.0785
15779TIP3    H168828   2.213   4.306  15.947 -2.3250  1.0474 -2.8446
15779TIP3    H268829   2.205   4.173  15.875 -0.4063 -0.9416  0.3380
15780TIP3   OH268830   1.629   0.375  11.276  0.4625 -0.1097  0.0742
15780TIP3    H168831   1.603   0.456  11.231  0.9448 -0.1536 -0.2882
15780TIP3    H268832   1.722   0.387  11.295  0.5670 -0.6374 -0.0992
15781TIP3   OH268833   3.879   0.393   1.166  0.0732 -0.5404  0.2520
15781TIP3    H168834   3.933   0.436   1.232  0.6467 -0.9842  0.0804
15781TIP3    H268835   3.790   0.422   1.185  0.4414  0.7990  0.0894
15782TIP3   OH268836   0.498   3.838  15.985  0.4225  0.7208 -0.1929
15782TIP3    H168837   0.555   3.838  15.908  1.1729  1.3390  0.3366
15782TIP3    H268838   0.551   3.880  16.054 -0.2426  0.2299  0.6418
15783TIP3   OH268839   2.610   4.832   3.470  0.3162  0.0544  0.0842
15783TIP3    H168840   2.577   4.894   3.405  0.7159  0.1542 -0.0216
15783TIP3    H268841   2.531   4.792   3.506  0.0952 -0.3325 -0.7852
15784TIP3   OH268842   6.397   2.873  15.924  0.4613  0.3785 -0.4615
15784TIP3    H168843   6.319   2.928  15.918  0.3985  0.4117  0.5240
15784TIP3    H268844   6.364   2.784  15.911 -0.4404 -0.0778  3.6158
15785TIP3   OH268845   2.065   2.846  16.878 -0.7255  0.2968  0.2526
15785TIP3    H168846   2.124   2.799  16.937  0.0131 -1.1951 -1.5946
15785TIP3    H268847   2.118   2.916  16.840 -0.7263  0.1965  0.0690
15786TIP3   OH268848   4.464   2.679   5.624 -0.3377 -0.0748 -0.1383
15786TIP3    H168849   4.407   2.602   5.619 -2.2551  1.3160 -1.1953
15786TIP3    H268850   4.506   2.673   5.710  0.7276 -3.0067 -0.7512
15787TIP3   OH268851   3.310   6.467   0.310 -0.4253  0.3705  0.0682
15787TIP3    H168852   3.342   6.378   0.295 -1.0155  0.4677 -1.9834
15787TIP3    H268853   3.234   6.456   0.367 -1.1743 -0.5688 -1.0721
15788TIP3   OH268854   3.744   0.748   3.212 -0.2806  0.4562 -0.7041
15788TIP3    H168855   3.658   0.787   3.226 -0.8264 -0.1573 -2.0880
15788TIP3    H268856   3.745   0.669   3.266 -1.1928 -0.3345 -1.8111
15789TIP3   OH268857   4.830   3.377  13.546  0.3868 -0.3378  0.4438
15789TIP3    H168858   4.905   3.324  13.575 -0.6096 -1.9192  0.2648
15789TIP3    H268859   4.800   3.334  13.466 -1.8168 -0.8925  1.4919
15790TIP3   OH268860   2.270   6.655  13.162  0.5575 -0.6976 -0.0877
15790TIP3    H168861   2.202   6.722  13.161 -0.1560 -1.3760  0.7336
15790TIP3    H268862   2.223   6.574  13.183  1.6921 -1.0728  1.1891
15791TIP3   OH268863   4.379   6.627  13.224  0.0830  0.1164 -0.2083
15791TIP3    H168864   4.368   6.650  13.132 -0.9383 -0.4965 -0.2597
15791TIP3    H268865   4.297   6.654  13.266  0.0383 -0.7323  0.2772
15792TIP3   OH268866   6.460   3.491  10.821  0.3010  0.5408  0.0519
15792TIP3    H168867   6.452   3.586  10.836 -2.5150  0.9886 -3.1635
15792TIP3    H268868   6.484   3.483  10.729 -0.3269 -1.9186  0.0409
15793TIP3   OH268869   5.617   5.136  14.575 -0.3644 -0.2526 -0.3092
15793TIP3    H168870   5.541   5.116  14.630 -2.4184  1.8360 -2.1824
15793TIP3    H268871   5.679   5.066  14.593 -0.8380  0.2584  4.6025
15794TIP3   OH268872   5.488   2.550  15.334 -0.2778 -0.4715  0.5034
15794TIP3    H168873   5.524   2.633  15.366  0.7961 -0.5529 -0.4425
15794TIP3    H268874   5.458   2.571  15.245  0.0371 -1.1035  0.2434
15795TIP3   OH268875   4.349   0.990   2.503 -0.1200 -0.4734  0.0351
15795TIP3    H168876   4.426   0.934   2.494 -1.3218 -2.5380  1.7720
15795TIP3    H268877   4.355   1.025   2.592 -0.5430  0.4550 -0.2794
15796TIP3   OH268878   4.170   0.185  11.208  0.4040 -0.6645 -0.3656
15796TIP3    H168879   4.266   0.183  11.218  0.2232 -0.6779  1.7251
15796TIP3    H268880   4.143   0.094  11.212  0.2454 -0.6224 -0.4498
15797TIP3   OH268881   6.702   6.149   2.456  0.1694 -0.0618  0.0523
15797TIP3    H168882   6.706   6.121   2.547 -0.6559 -2.0398 -0.4602
15797TIP3    H268883   6.779   6.110   2.415  0.8161  1.2433 -0.0191
15798TIP3   OH268884   2.487   5.580   4.143  0.5270  0.3225 -0.1710
15798TIP3    H168885   2.465   5.594   4.051 -0.4632 -0.4143 -0.0593
15798TIP3    H268886   2.410   5.536   4.180  1.4489 -0.6365  0.6789
15799TIP3   OH268887   3.148   6.178   5.551 -0.3131  0.9197 -0.2666
15799TIP3    H168888   3.235   6.170   5.589 -0.6439  0.7993  0.4747
15799TIP3    H268889   3.137   6.098   5.500 -0.5739  0.2205  0.8617
15800TIP3   OH268890   2.251   3.398  13.333  0.4394  0.8994 -0.4016
15800TIP3    H168891   2.209   3.333  13.389 -0.3543  0.7144 -1.1740
15800TIP3    H268892   2.341   3.402  13.364 -0.2758  1.8197  1.7933
15801TIP3   OH268893   1.067   6.453  15.624  0.5505  0.5613 -0.5855
15801TIP3    H168894   1.152   6.447  15.668  0.5467 -2.0991 -0.7662
15801TIP3    H268895   1.006   6.479  15.693  1.2678  0.9211 -0.0714
15802TIP3   OH268896   3.948   2.630   2.687 -0.3310 -0.1894  0.1353
15802TIP3    H168897   3.974   2.658   2.775  2.1220 -0.5475 -0.4187
15802TIP3    H268898   3.910   2.543   2.699 -0.3608 -0.0807  0.8748
15803TIP3   OH268899   6.691   5.765  13.683  0.2392 -0.1438 -0.1428
15803TIP3    H168900   6.627   5.740  13.616 -0.7214  2.0525 -0.1303
15803TIP3    H268901   6.650   5.740  13.765 -1.1670  2.1243 -0.0589
15804TIP3   OH268902   1.035   0.774  15.970 -0.1112  0.0573  0.1050
15804TIP3    H168903   1.060   0.786  16.061 -0.1498 -0.9653  0.2681
15804TIP3    H268904   0.955   0.721  15.974  0.4012 -0.7907 -0.5383
15805TIP3   OH268905   3.143   3.885   0.597  0.5740 -0.0004 -0.4742
15805TIP3    H168906   3.126   3.835   0.677 -0.4376  2.0712  0.6978
15805TIP3    H268907   3.070   3.863   0.539 -0.6723  1.1018  0.5927
15806TIP3   OH268908   2.669   5.783   2.599 -0.6244  0.2602 -0.2127
15806TIP3    H168909   2.574   5.783   2.609 -0.5302  0.8868  0.8685
15806TIP3    H268910   2.694   5.691   2.613 -0.9997  0.2430  0.4284
15807TIP3   OH268911   6.839   4.015   4.144 -0.1523 -0.0769 -0.3928
15807TIP3    H168912   6.757   4.043   4.103  0.7852  2.6770 -0.6125
15807TIP3    H268913   6.886   4.097   4.162  3.4226 -1.5343 -2.0930
15808TIP3   OH268914   6.032   1.476   5.899  0.1840 -0.0324  1.0778
15808TIP3    H168915   6.011   1.561   5.859 -2.6911 -0.5934  1.1938
15808TIP3    H268916   6.080   1.429   5.831 -0.2389  0.8467  0.1322
15809TIP3   OH268917   0.083   1.784  13.568 -0.2263  0.1651 -0.3801
15809TIP3    H168918   0.018   1.756  13.502 -0.5313  0.7442 -0.3284
15809TIP3    H268919   0.031   1.818  13.640  0.0974 -0.9494  0.3930
15810TIP3   OH268920   5.005   0.184  16.865  0.0044 -0.1259 -0.1334
15810TIP3    H168921   4.971   0.236  16.938  1.5446  0.1915  0.3882
15810TIP3    H268922   5.073   0.239  16.825  0.5715 -1.1003 -0.5468
15811TIP3   OH268923   6.812   3.622  16.844  0.4997  0.2523 -0.3099
15811TIP3    H168924   6.719   3.636  16.862  0.3955 -0.8957  0.0751
15811TIP3    H268925   6.819   3.530  16.819  1.4053  0.5482 -1.2165
15812TIP3   OH268926   3.480   4.494   0.260  0.3502 -0.3750 -0.6223
15812TIP3    H168927   3.508   4.552   0.189  0.8759 -0.6190 -0.6203
15812TIP3    H268928   3.491   4.546   0.339 -0.1604 -0.1296 -0.7084
15813TIP3   OH268929   3.210   5.576  15.820  0.2594 -0.3797  0.5978
15813TIP3    H168930   3.234   5.649  15.877  0.6432 -1.2043  1.5098
15813TIP3    H268931   3.283   5.569  15.758  1.2155 -1.2666  1.7824
15814TIP3   OH268932   5.954   2.315   4.343 -0.0264  0.1344 -0.0491
15814TIP3    H168933   5.899   2.282   4.414 -0.0042  0.3685  0.0773
15814TIP3    H268934   5.926   2.406   4.330 -0.1330  0.0474 -0.4404
15815TIP3   OH268935   3.185   2.006  12.128  0.2103 -0.3510  0.3842
15815TIP3    H168936   3.199   2.083  12.073  0.2140 -1.2543 -0.9376
15815TIP3    H268937   3.245   1.940  12.093 -1.8680 -1.8849 -0.4878
15816TIP3   OH268938   4.923   3.976  14.038 -0.6894 -0.6724 -0.4361
15816TIP3    H168939   4.849   3.921  14.010 -1.1440  0.6056 -1.9493
15816TIP3    H268940   5.000   3.930  14.006 -0.9663 -1.0779 -0.5329
15817TIP3   OH268941   1.944   2.797  12.726  0.1505  0.0313  0.6111
15817TIP3    H168942   2.014   2.758  12.779  0.6151  0.0758  0.0369
15817TIP3    H268943   1.882   2.725  12.713  0.8655 -0.4633 -0.2046
15818TIP3   OH268944   4.269   5.033  15.579 -0.1041  0.3471  0.0269
15818TIP3    H168945   4.275   5.060  15.670 -1.0531  0.7729 -0.0225
15818TIP3    H268946   4.256   5.115  15.531 -1.6913 -0.0390 -0.2628
15819TIP3   OH268947   1.755   2.818   3.818  0.0286 -0.7707  0.1495
15819TIP3    H168948   1.787   2.748   3.762  0.8497 -2.4118  2.4762
15819TIP3    H268949   1.707   2.773   3.888 -0.5902  1.0924  1.0051
15820TIP3   OH268950   3.197   5.660   4.495  0.3084  0.1067 -0.2111
15820TIP3    H168951   3.191   5.724   4.424  0.0521 -0.4053 -0.6602
15820TIP3    H268952   3.146   5.699   4.566  0.0565  0.3530 -0.5221
15821TIP3   OH268953   0.842   3.270   5.298 -0.1360  0.3318  0.6314
15821TIP3    H168954   0.878   3.195   5.347 -0.3504  0.0860  0.4137
15821TIP3    H268955   0.754   3.282   5.334 -0.0415  0.5818  0.7775
15822TIP3   OH268956   2.406   2.227  15.267 -0.1316 -0.0198  0.7330
15822TIP3    H168957   2.440   2.315  15.286 -0.1277  0.7065 -2.0980
15822TIP3    H268958   2.465   2.168  15.314  2.0651  1.4225 -0.0108
15823TIP3   OH268959   3.204   1.823  14.713  0.1466  0.4565 -0.0055
15823TIP3    H168960   3.224   1.877  14.789 -1.9541  1.1439  0.1073
15823TIP3    H268961   3.159   1.747  14.748  2.1275 -0.9363 -0.2835
15824TIP3   OH268962   4.588   6.163  16.732  0.0749  0.2937 -0.2155
15824TIP3    H168963   4.634   6.164  16.648  0.4597  1.1928 -0.0064
15824TIP3    H268964   4.647   6.208  16.793  0.2072 -1.1576  0.7812
15825TIP3   OH268965   4.631   0.759   0.780 -0.1377 -0.5971 -0.1532
15825TIP3    H168966   4.586   0.715   0.708  0.4808 -1.7308  0.1276
15825TIP3    H268967   4.643   0.691   0.846  1.2315 -0.1231  0.1219
15826TIP3   OH268968   6.684   0.333   3.769 -0.0697 -0.2383  0.1994
15826TIP3    H168969   6.653   0.283   3.694 -3.5955  1.2384  0.4732
15826TIP3    H268970   6.612   0.329   3.832  0.5258  2.9417  1.2749
15827TIP3   OH268971   5.738   5.284   5.919  0.2838 -0.7902  0.4475
15827TIP3    H168972   5.738   5.228   5.841  0.3461 -2.8581  1.8531
15827TIP3    H268973   5.663   5.255   5.970 -0.4624  1.3391  0.6745
15828TIP3   OH268974   4.812   1.023   4.773 -0.5656 -0.3515 -0.0869
15828TIP3    H168975   4.819   1.036   4.679 -0.4528 -3.1403 -0.5400
15828TIP3    H268976   4.769   1.103   4.805  0.8578  1.3623 -2.2170
15829TIP3   OH268977   1.998   2.975  11.383  0.1464 -0.1544 -0.9014
15829TIP3    H168978   2.090   2.951  11.397  0.4909  0.6059 -1.6838
15829TIP3    H268979   2.002   3.068  11.358 -0.6626 -0.5509 -2.6491
15830TIP3   OH268980   1.973   1.746   1.786 -0.4154  0.4207  0.2808
15830TIP3    H168981   1.959   1.657   1.818 -0.5074  0.9690  1.8645
15830TIP3    H268982   2.054   1.774   1.828 -0.5689  1.1947  0.0735
15831TIP3   OH268983   2.527   4.274   4.478  0.9061 -0.0675  0.6571
15831TIP3    H168984   2.510   4.349   4.535  0.6716  0.9709 -0.7411
15831TIP3    H268985   2.465   4.207   4.508  0.5399  0.5837  1.3931
15832TIP3   OH268986   4.165   1.807  16.940  0.4660 -0.3557  1.3381
15832TIP3    H168987   4.182   1.731  16.997  1.5479 -0.3619  1.0411
15832TIP3    H268988   4.199   1.780  16.854 -0.2497  0.0194  0.9319
15833TIP3   OH268989   6.815   1.404   0.775 -0.1897 -0.1304  0.2301
15833TIP3    H168990   6.806   1.474   0.840  2.7510  0.1277  0.5286
15833TIP3    H268991   6.830   1.325   0.826  1.3678 -0.0626 -0.0772
15834TIP3   OH268992   0.856   6.529  16.522  0.2703 -0.1357  0.0303
15834TIP3    H168993   0.926   6.590  16.496  0.4709 -0.2380  0.3162
15834TIP3    H268994   0.862   6.457  16.460 -0.2951  0.3677 -0.6190
15835TIP3   OH268995   4.944   6.537   2.843 -0.7167 -0.3893 -0.1528
15835TIP3    H168996   4.987   6.584   2.915 -1.0610 -0.8537  0.3667
15835TIP3    H268997   4.971   6.583   2.764 -0.9596  0.6191  0.3380
15836TIP3   OH268998   0.563   3.380   3.990  0.7968  0.2531  0.0221
15836TIP3    H168999   0.536   3.355   3.902  1.8227 -2.4106  0.3906
15836TIP3    H269000   0.480   3.396   4.036  0.2550  3.3288 -1.7380
15837TIP3   OH269001   0.204   0.202   1.000  0.7652 -0.2793 -0.7188
15837TIP3    H169002   0.138   0.223   0.934 -0.1287 -1.0930 -0.1032
15837TIP3    H269003   0.192   0.109   1.018  0.8748 -0.0393  0.7106
15838TIP3   OH269004   6.326   2.467   2.688 -0.3240 -1.0658 -0.1166
15838TIP3    H169005   6.264   2.540   2.682 -0.6001 -1.0111  2.2819
15838TIP3    H269006   6.388   2.494   2.756  0.9646 -2.1096 -0.8239
15839TIP3   OH269007   4.108   2.015  10.921  0.0972 -0.3280  0.0516
15839TIP3    H169008   4.166   1.940  10.931  0.5687 -0.0537 -0.5226
15839TIP3    H269009   4.135   2.077  10.989  0.0750 -0.4524  0.1726
15840TIP3   OH269010   6.705   6.106  14.672  0.4111 -0.0639  0.0123
15840TIP3    H169011   6.764   6.146  14.609 -1.1030  0.8282 -0.9064
15840TIP3    H269012   6.651   6.179  14.704  0.1010 -0.7705  1.1756
15841TIP3   OH269013   6.791   2.666   1.527  0.7584  0.2234 -0.2761
15841TIP3    H169014   6.752   2.680   1.613  2.0682 -1.4182  0.6452
15841TIP3    H269015   6.827   2.751   1.503 -1.0327  1.1120  0.0218
15842TIP3   OH269016   5.459   3.055  12.480 -0.0701 -0.2438 -0.1917
15842TIP3    H169017   5.510   3.070  12.560  1.9203 -0.9279 -1.2585
15842TIP3    H269018   5.441   2.961  12.480 -0.2496 -0.2098 -0.4167
15843TIP3   OH269019   2.094   3.605  15.715  0.8968 -0.9715 -0.0272
15843TIP3    H169020   2.095   3.700  15.712  0.2937 -0.9721 -0.3853
15843TIP3    H269021   2.180   3.581  15.749  0.5780 -0.2659  1.3171
15844TIP3   OH269022   2.492   6.119   3.339  0.6481  0.2847 -0.0268
15844TIP3    H169023   2.550   6.073   3.278  1.9483  1.0928  0.5584
15844TIP3    H269024   2.548   6.184   3.381 -0.9787  1.9476 -0.3034
15845TIP3   OH269025   2.605   0.378  14.561 -0.5366  0.2745  0.2872
15845TIP3    H169026   2.687   0.333  14.584 -0.6272  0.4702  0.9987
15845TIP3    H269027   2.567   0.403  14.645 -0.8210  1.0946 -0.0791
15846TIP3   OH269028   5.766   3.469  12.455  0.5830 -0.0930 -0.2131
15846TIP3    H169029   5.737   3.494  12.367  1.5672  0.5507 -0.3707
15846TIP3    H269030   5.694   3.494  12.513  0.6496  1.1365 -0.6330
15847TIP3   OH269031   2.912   1.543  10.615 -0.3659 -0.0788 -0.2243
15847TIP3    H169032   3.004   1.516  10.621 -0.1072  0.8861  0.2350
15847TIP3    H269033   2.865   1.461  10.599  0.5013 -0.6791  0.2008
15848TIP3   OH269034   5.387   3.827   5.948  0.7301 -0.0161 -0.2479
15848TIP3    H169035   5.432   3.837   6.032  0.5223  1.8653 -0.3224
15848TIP3    H269036   5.339   3.909   5.936  1.7664  0.3055 -2.7916
15849TIP3   OH269037   3.897   3.571   3.646  0.3698  0.6997  0.7853
15849TIP3    H169038   3.882   3.594   3.554 -0.0879 -2.0100  0.0876
15849TIP3    H269039   3.992   3.573   3.656  0.3754  2.2058  0.6316
15850TIP3   OH269040   1.322   2.808   4.547 -0.4971 -0.1322 -0.1219
15850TIP3    H169041   1.352   2.743   4.483 -1.3248 -0.5095 -0.1487
15850TIP3    H269042   1.360   2.779   4.630  0.7036  0.4436 -0.4502
15851TIP3   OH269043   1.399   5.688   2.764  0.3553  0.6513 -0.2102
15851TIP3    H169044   1.326   5.713   2.822  0.6411  0.9764  0.0111
15851TIP3    H269045   1.368   5.609   2.720 -0.2752  0.9810 -0.3766
15852TIP3   OH269046   1.612   4.891  13.400 -0.1138 -0.5924 -0.5054
15852TIP3    H169047   1.539   4.932  13.446  1.2222 -0.5569  1.7512
15852TIP3    H269048   1.575   4.811  13.363 -1.0972 -1.1662  1.5606
15853TIP3   OH269049   3.323   1.045  14.204 -0.4126  0.2551  0.2550
15853TIP3    H169050   3.413   1.027  14.175 -0.2080  0.2120  0.9089
15853TIP3    H269051   3.332   1.114  14.270 -0.6346 -1.1479  1.8267
15854TIP3   OH269052   0.532   6.054   0.294  0.4830 -0.1819  0.3223
15854TIP3    H169053   0.558   5.980   0.239  0.0579  0.2966 -0.5507
15854TIP3    H269054   0.610   6.108   0.301  0.4934 -0.1582  0.0363
15855TIP3   OH269055   2.629   5.416  15.385 -0.0454  0.3649  0.5289
15855TIP3    H169056   2.600   5.381  15.301 -0.2997  0.6176  0.5112
15855TIP3    H269057   2.689   5.349  15.420 -0.1657  0.1291  0.2821
15856TIP3   OH269058   3.353   5.282  15.368 -0.3707  0.4699 -0.3157
15856TIP3    H169059   3.359   5.376  15.351 -0.5440  0.6933  0.8090
15856TIP3    H269060   3.259   5.264  15.373 -0.3416  0.5938  1.2505
15857TIP3   OH269061   1.346   3.090  12.812  0.6603  0.1404 -0.1755
15857TIP3    H169062   1.376   3.069  12.901 -1.8046 -0.7676  0.5207
15857TIP3    H269063   1.303   3.010  12.782 -2.7940  1.8455 -0.2435
15858TIP3   OH269064   1.236   1.366  12.942 -0.1449 -0.7172  0.8405
15858TIP3    H169065   1.301   1.298  12.927  0.0867 -0.9129  2.6075
15858TIP3    H269066   1.198   1.382  12.855  0.2432 -2.6178  0.2794
15859TIP3   OH269067   0.343   6.427  13.690 -0.0803 -0.2628  0.3450
15859TIP3    H169068   0.330   6.333  13.674 -0.6072 -0.0598 -0.5033
15859TIP3    H269069   0.315   6.440  13.780  2.0582 -1.2936  1.2254
15860TIP3   OH269070   6.381   6.022  13.302  0.2459 -0.3521  0.5047
15860TIP3    H169071   6.338   6.106  13.289  1.6384  0.1993 -0.7778
15860TIP3    H269072   6.467   6.032  13.262  0.6002 -2.2581  0.6834
15861TIP3   OH269073   3.921   4.496   0.543  0.0605  0.0507 -0.2188
15861TIP3    H169074   4.002   4.539   0.519 -0.7562  1.7753 -0.0361
15861TIP3    H269075   3.948   4.417   0.590  1.6120 -0.0624 -1.2543
15862TIP3   OH269076   6.520   0.397  11.026  0.2616  0.5727  0.5603
15862TIP3    H169077   6.424   0.405  11.024 -0.0918 -1.8939  2.3321
15862TIP3    H269078   6.543   0.371  10.936 -0.6665  1.5741  0.0112
15863TIP3   OH269079   5.618   0.477  14.812 -0.0145  0.1879 -0.5947
15863TIP3    H169080   5.589   0.567  14.796 -0.5743 -0.3280 -3.0104
15863TIP3    H269081   5.570   0.425  14.747 -0.3209 -1.9989  1.2406
15864TIP3   OH269082   3.199   1.051  11.837 -0.7443  0.3189 -0.5896
15864TIP3    H169083   3.217   1.124  11.778 -0.6781 -0.4781 -1.5868
15864TIP3    H269084   3.192   0.975  11.779  0.7135 -0.7334  0.5460
15865TIP3   OH269085   5.801   2.099   0.133  0.3023  0.7565  0.6624
15865TIP3    H169086   5.837   2.154   0.063  1.2569  2.5420  2.4589
15865TIP3    H269087   5.726   2.149   0.166  0.2927  0.2649  1.3960
15866TIP3   OH269088   1.735   5.192  16.997  0.0203  0.4884 -0.2284
15866TIP3    H169089   1.645   5.165  16.982  0.8206 -1.5044 -2.0499
15866TIP3    H269090   1.765   5.138  17.070  0.6164 -1.2581 -1.6905
15867TIP3   OH269091   1.097   2.083   3.924  0.1943 -0.3595  0.0601
15867TIP3    H169092   1.003   2.088   3.905  0.2091  0.3055  0.1442
15867TIP3    H269093   1.103   2.026   4.000 -0.4457  1.9927  2.0219
15868TIP3   OH269094   3.343   3.152  12.955  0.4668 -0.0740 -0.5421
15868TIP3    H169095   3.292   3.221  12.998 -1.0994  0.2432 -2.7635
15868TIP3    H269096   3.294   3.072  12.971  0.5925 -0.1662 -0.6186
15869TIP3   OH269097   4.593   2.268   4.591  0.4597 -0.2181  0.5465
15869TIP3    H169098   4.599   2.221   4.508  1.3976 -0.7455  0.8990
15869TIP3    H269099   4.612   2.202   4.658 -1.7904 -0.1755  1.3166
15870TIP3   OH269100   2.827   3.872  10.340 -0.1690  0.4141 -0.4297
15870TIP3    H169101   2.873   3.918  10.410 -1.0220 -1.4949  1.4613
15870TIP3    H269102   2.854   3.918  10.260 -0.0564  3.4175  1.1860
15871TIP3   OH269103   4.758   5.837  11.688  0.2927 -0.2209 -0.0394
15871TIP3    H169104   4.845   5.854  11.651  0.1044  2.9170  0.6987
15871TIP3    H269105   4.761   5.873  11.776 -1.8669  0.4222 -0.1561
15872TIP3   OH269106   3.426   2.678  15.649  0.4931  0.1584 -0.3043
15872TIP3    H169107   3.464   2.703  15.565  0.1436  2.0908  0.0541
15872TIP3    H269108   3.458   2.745  15.710  0.3324 -0.9173  0.9973
15873TIP3   OH269109   4.956   0.030  12.464 -0.3410 -0.2090 -0.0208
15873TIP3    H169110   4.919   0.105  12.510 -0.3318  0.1031 -0.5174
15873TIP3    H269111   5.011  -0.013  12.530  0.5844  0.8722 -0.0530
15874TIP3   OH269112   0.591   5.006   5.613 -0.0659  0.6977 -0.3310
15874TIP3    H169113   0.683   4.984   5.594  0.0970 -0.2062  1.3266
15874TIP3    H269114   0.592   5.100   5.629  1.4471  0.2136  3.7025
15875TIP3   OH269115   3.678   2.507  15.654 -0.6443 -0.1466 -0.8321
15875TIP3    H169116   3.769   2.480  15.666 -0.9548 -1.1219 -0.5802
15875TIP3    H269117   3.647   2.455  15.580 -1.4967 -1.1466  0.1807
15876TIP3   OH269118   3.737   5.815  13.876 -0.1444 -0.8377  0.4913
15876TIP3    H169119   3.692   5.741  13.915 -0.1934 -0.3805  1.3408
15876TIP3    H269120   3.822   5.817  13.920 -0.8725  0.7633  1.9587
15877TIP3   OH269121   6.101   5.879   2.702  0.1345  0.3832  0.5326
15877TIP3    H169122   6.023   5.823   2.708  0.2871  0.0023 -0.6830
15877TIP3    H269123   6.088   5.945   2.770 -1.4004  0.4865  0.1999
15878TIP3   OH269124   5.265   0.482  12.036  0.1875  0.1636  0.1437
15878TIP3    H169125   5.348   0.474  12.082 -0.4818  1.1074  1.6053
15878TIP3    H269126   5.200   0.452  12.099 -0.6779  0.5373 -0.5478
15879TIP3   OH269127   0.520   1.427   0.711 -0.2466 -0.2441  0.2280
15879TIP3    H169128   0.586   1.386   0.767  0.4672 -1.1093 -1.1991
15879TIP3    H269129   0.490   1.356   0.654 -0.1925  0.8332 -1.1776
15880TIP3   OH269130   5.136   6.411   4.516  0.0817  0.1563  0.0642
15880TIP3    H169131   5.072   6.366   4.571 -1.4642  0.9004 -1.0690
15880TIP3    H269132   5.112   6.504   4.521  1.1475  0.4704 -0.2936
15881TIP3   OH269133   0.393   5.112   4.075  0.7031 -0.0364 -0.7175
15881TIP3    H169134   0.329   5.182   4.062 -0.6059 -1.1019 -0.1669
15881TIP3    H269135   0.373   5.049   4.006 -0.0468 -1.2279  0.5601
15882TIP3   OH269136   3.724   2.233  11.459  0.4273  0.4517  0.3927
15882TIP3    H169137   3.751   2.265  11.373  0.8468 -0.1030  0.3114
15882TIP3    H269138   3.769   2.150  11.469  0.5078  0.5820  1.2188
15883TIP3   OH269139   5.284   1.907  13.819  0.0832 -0.1269  0.0296
15883TIP3    H169140   5.239   1.910  13.904 -1.2077 -1.2075 -0.5795
15883TIP3    H269141   5.356   1.970  13.828 -0.5567  0.4368  1.6158
15884TIP3   OH269142   5.397   0.866   4.100  0.6141  0.2847 -0.1586
15884TIP3    H169143   5.365   0.927   4.166  0.8495 -2.4516  2.7386
15884TIP3    H269144   5.318   0.835   4.055  0.1079  0.2293  0.7380
15885TIP3   OH269145   6.658   0.967   5.786  0.5913 -0.3174  0.3300
15885TIP3    H169146   6.690   0.889   5.741 -0.4833 -0.6961  0.1999
15885TIP3    H269147   6.616   0.934   5.865  0.1376  0.1215  0.2812
15886TIP3   OH269148   4.969   0.502   0.224  0.1351 -1.0294 -0.2346
15886TIP3    H169149   5.039   0.488   0.161  1.2827 -0.7472  0.9266
15886TIP3    H269150   4.993   0.583   0.269 -1.2923 -0.5765 -0.2554
15887TIP3   OH269151   1.090   3.736   3.238  0.3657  0.6864  0.3021
15887TIP3    H169152   1.095   3.641   3.231  0.1156  0.6447  0.6950
15887TIP3    H269153   1.171   3.761   3.282 -0.6323  0.4325  2.3656
15888TIP3   OH269154   4.386   4.936  14.249  0.5970 -0.3781 -0.5172
15888TIP3    H169155   4.459   4.996  14.233  0.2199 -0.0673 -1.1338
15888TIP3    H269156   4.312   4.976  14.201 -1.1704  1.6044  3.4156
15889TIP3   OH269157   5.938   6.100   6.592 -0.2666 -0.0299 -0.1950
15889TIP3    H169158   5.918   6.070   6.681  0.5829 -1.9369 -0.5915
15889TIP3    H269159   5.961   6.192   6.602  0.8720 -0.4711  1.7392
15890TIP3   OH269160   4.128   6.790  13.703 -0.1476 -0.1685  0.7540
15890TIP3    H169161   4.212   6.808  13.662 -1.2855 -0.2823 -1.8204
15890TIP3    H269162   4.121   6.694  13.703 -0.4825 -0.1463  0.4936
15891TIP3   OH269163   0.160   6.531   4.890  0.8287 -0.3030  0.1672
15891TIP3    H169164   0.197   6.537   4.802 -1.6550  0.8460 -0.9301
15891TIP3    H269165   0.143   6.622   4.915  0.8131 -0.6568  1.5230
15892TIP3   OH269166   6.524   6.555   2.531  0.4408 -0.2134  1.0927
15892TIP3    H169167   6.570   6.587   2.454  1.7073 -2.4319  0.8527
15892TIP3    H269168   6.538   6.624   2.597 -0.1090  1.4045 -0.3875
15893TIP3   OH269169   6.707   1.973   1.228  0.4826 -0.0301 -0.1203
15893TIP3    H169170   6.783   1.917   1.243 -0.2204 -1.2650 -0.9254
15893TIP3    H269171   6.743   2.056   1.199  1.5366 -0.5086 -0.2258
15894TIP3   OH269172   2.432   3.401  14.117  0.8086  0.7790  0.5742
15894TIP3    H169173   2.441   3.400  14.212 -1.3458 -0.7341  0.8262
15894TIP3    H269174   2.458   3.313  14.090 -2.1121 -0.0524  0.2182
15895TIP3   OH269175   4.121   0.170  13.447 -0.0235 -0.3168  0.7306
15895TIP3    H169176   4.064   0.153  13.522 -0.6295  3.0505  1.1848
15895TIP3    H269177   4.062   0.174  13.372 -0.8381  4.2402  1.3461
15896TIP3   OH269178   6.841   5.132   3.090  0.1560 -0.7273 -0.2694
15896TIP3    H169179   6.803   5.125   3.177 -3.5158  2.2172 -1.3464
15896TIP3    H269180   6.914   5.194   3.101  0.0363 -0.7570  0.7937
15897TIP3   OH269181   4.365   4.739   3.689 -0.0469 -0.0361  0.2047
15897TIP3    H169182   4.354   4.828   3.722 -1.2116 -0.2087  0.3166
15897TIP3    H269183   4.342   4.683   3.762  1.1516 -0.4532  0.2873
15898TIP3   OH269184   3.135   2.055   5.060  0.1666  0.1083 -0.2293
15898TIP3    H169185   3.175   1.976   5.024 -1.9531 -1.5765  0.8440
15898TIP3    H269186   3.162   2.056   5.152  0.6973  1.0267 -0.3810
15899TIP3   OH269187   5.857   4.491  14.702 -0.3470  0.4021  0.0640
15899TIP3    H169188   5.935   4.510  14.650  1.5015  0.8391  2.7657
15899TIP3    H269189   5.843   4.397  14.691 -0.4529  0.6097 -1.7343
15900TIP3   OH269190   2.817   0.949  14.779 -0.1486  0.2463  0.4876
15900TIP3    H169191   2.878   0.929  14.709  0.7884 -0.7608  1.5380
15900TIP3    H269192   2.757   0.874  14.781  0.1064  0.0443  1.0181
15901TIP3   OH269193   1.149   4.150   0.855 -0.3424  0.7928  0.0144
15901TIP3    H169194   1.099   4.178   0.931  0.5472 -1.8191  1.7093
15901TIP3    H269195   1.097   4.078   0.818  1.4509 -1.2025  1.1365
15902TIP3   OH269196   1.546   4.214  16.309 -0.2516  0.1984 -0.8567
15902TIP3    H169197   1.639   4.202  16.289 -0.2275 -0.0957 -0.5681
15902TIP3    H269198   1.502   4.145  16.260 -0.1679 -0.6948  0.3154
15903TIP3   OH269199   2.548   1.153   0.252 -0.3361  0.1301  0.5864
15903TIP3    H169200   2.486   1.169   0.323  1.0227 -0.9624  2.1017
15903TIP3    H269201   2.611   1.092   0.289 -0.3123 -1.5892 -1.9961
15904TIP3   OH269202   5.493   1.804   4.082  0.1148  0.3102 -0.4398
15904TIP3    H169203   5.402   1.831   4.097  0.0927  0.8819 -1.4840
15904TIP3    H269204   5.528   1.788   4.169 -0.9719  0.1394 -0.0208
15905TIP3   OH269205   0.610   4.361   2.753 -0.1450  0.0691  0.6305
15905TIP3    H169206   0.601   4.456   2.763  0.9167  0.2372  0.1227
15905TIP3    H269207   0.662   4.334   2.829 -0.2849 -0.0818  0.6733
15906TIP3   OH269208   5.449   6.167   4.328  0.7817 -0.2298  0.4684
15906TIP3    H169209   5.448   6.135   4.238 -0.7541  0.9388  0.0205
15906TIP3    H269210   5.508   6.108   4.374  0.0458 -2.0905 -0.8599
15907TIP3   OH269211   3.734   3.048   2.578  0.2531  0.1310 -0.2618
15907TIP3    H169212   3.798   3.107   2.618 -0.2505 -0.3669  1.3464
15907TIP3    H269213   3.749   2.964   2.621 -1.3686 -0.0231  0.0702
15908TIP3   OH269214   5.710   2.531   0.133 -0.4227  0.0251 -0.1024
15908TIP3    H169215   5.781   2.471   0.108 -1.2489 -1.6693  1.3593
15908TIP3    H269216   5.731   2.557   0.223 -1.3125  0.0122  0.1170
15909TIP3   OH269217   5.209   0.353   3.739 -0.0379 -0.5667 -0.0924
15909TIP3    H169218   5.191   0.424   3.800 -2.6065 -1.0253 -0.2145
15909TIP3    H269219   5.162   0.278   3.774 -2.2162 -0.6820 -2.8809
15910TIP3   OH269220   3.833   2.452  15.977  0.2904  0.5977  0.0383
15910TIP3    H169221   3.836   2.468  15.883  0.3200 -1.6562 -0.4160
15910TIP3    H269222   3.776   2.375  15.987  1.6487 -0.2896  1.6548
15911TIP3   OH269223   4.069   0.683  14.249 -0.2212  0.1684  0.0982
15911TIP3    H169224   3.992   0.732  14.278  0.2348 -0.8904  3.5191
15911TIP3    H269225   4.040   0.592  14.247  0.4550 -0.0399 -0.4593
15912TIP3   OH269226   4.398   5.714  13.928 -0.1701  0.1063  0.2322
15912TIP3    H169227   4.464   5.648  13.911 -0.3298  0.2283 -0.9233
15912TIP3    H269228   4.442   5.778  13.985  1.4307  1.2912 -2.1802
15913TIP3   OH269229   2.355   5.796  14.515 -0.3525 -0.1264 -0.6750
15913TIP3    H169230   2.431   5.853  14.524  0.4726 -0.9517 -2.0753
15913TIP3    H269231   2.365   5.730  14.584  0.4291 -0.4762 -1.1188
15914TIP3   OH269232   0.674   0.802  12.765  0.1163 -1.0510 -0.1550
15914TIP3    H169233   0.593   0.774  12.723 -0.7912  2.3234 -0.9739
15914TIP3    H269234   0.657   0.793  12.859 -2.2659  1.7646 -0.1733
15915TIP3   OH269235   3.828   1.055   4.512  0.0373  0.2589 -0.6261
15915TIP3    H169236   3.901   1.095   4.561 -0.5076  2.8182 -1.7471
15915TIP3    H269237   3.762   1.037   4.579  0.1408  1.7022 -0.0962
15916TIP3   OH269238   1.023   2.492  11.451 -0.1195  0.3234  0.7753
15916TIP3    H169239   1.044   2.416  11.397 -1.9599  1.5273 -1.8163
15916TIP3    H269240   1.106   2.516  11.492  1.0310 -1.5864 -0.2927
15917TIP3   OH269241   3.860   2.826  11.054  0.0459 -0.0168 -0.9059
15917TIP3    H169242   3.862   2.796  10.963 -0.0573 -2.2981 -0.2151
15917TIP3    H269243   3.939   2.788  11.094 -0.1643  0.5387  0.0746
15918TIP3   OH269244   2.352   1.714   1.221  0.4716  0.1987  0.2237
15918TIP3    H169245   2.385   1.784   1.165  0.2152  0.3674  0.2808
15918TIP3    H269246   2.385   1.734   1.308  0.1748  0.4025  0.2932
15919TIP3   OH269247   2.848   4.833  11.137 -0.7672  0.2148  0.9508
15919TIP3    H169248   2.939   4.807  11.154  0.3159  1.5480 -2.0283
15919TIP3    H269249   2.796   4.757  11.165  1.7694 -3.3474 -2.7200
15920TIP3   OH269250   0.794   0.449  11.164  0.0635 -0.4880 -0.0833
15920TIP3    H169251   0.782   0.512  11.092  1.1753 -1.3760 -1.0923
15920TIP3    H269252   0.707   0.437  11.200  0.0223  3.0963  1.4578
15921TIP3   OH269253   3.894   1.148  13.364  0.0216 -0.4052 -0.0641
15921TIP3    H169254   3.810   1.109  13.388  0.4391 -0.2383  1.8064
15921TIP3    H269255   3.959   1.094  13.408  0.9237 -0.5315 -1.5033
15922TIP3   OH269256   2.079   6.511   3.211 -0.0996 -0.4123  0.6213
15922TIP3    H169257   2.080   6.454   3.288  0.4120 -1.2062  0.0450
15922TIP3    H269258   2.172   6.525   3.190 -0.1263  2.2497  1.8893
15923TIP3   OH269259   4.246   1.695   2.855 -0.1986  0.7678 -0.0642
15923TIP3    H169260   4.224   1.668   2.766 -0.7328  1.7061 -0.2276
15923TIP3    H269261   4.331   1.654   2.872  0.1020  0.9019 -1.1506
15924TIP3   OH269262   1.863   1.466   5.697 -0.5410 -0.3581  0.3006
15924TIP3    H169263   1.837   1.382   5.733 -0.4418 -0.3229  0.4528
15924TIP3    H269264   1.812   1.530   5.746 -0.1902 -0.2902  0.5836
15925TIP3   OH269265   3.029   5.426   0.710  0.5281 -0.0722  0.2134
15925TIP3    H169266   3.064   5.451   0.795 -0.8998  0.6299  0.6197
15925TIP3    H269267   3.098   5.449   0.647  0.6649  1.5859  0.9445
15926TIP3   OH269268   0.141   1.486   0.293 -0.6575  0.5360  0.6651
15926TIP3    H169269   0.118   1.410   0.347 -3.2043  0.0990 -0.8251
15926TIP3    H269270   0.057   1.530   0.278  0.5315  2.7870  0.1874
15927TIP3   OH269271   1.141   5.761   5.715  0.0916 -0.1321 -0.2823
15927TIP3    H169272   1.208   5.693   5.722 -0.9473 -1.2910 -1.1400
15927TIP3    H269273   1.081   5.743   5.788 -0.4135 -0.3893 -0.7622
15928TIP3   OH269274   1.213   0.867   2.996  0.0739  0.7570  0.3254
15928TIP3    H169275   1.193   0.961   2.994 -2.4477  0.2905 -0.1863
15928TIP3    H269276   1.268   0.853   2.918 -1.2619  1.5013 -0.8039
15929TIP3   OH269277   5.664   0.689  16.999  0.0456 -0.1029  0.1112
15929TIP3    H169278   5.683   0.783  17.003  1.6455 -0.3810 -0.2860
15929TIP3    H269279   5.662   0.662  17.091  0.1569  0.2032  0.2061
15930TIP3   OH269280   1.465   2.479  15.776  0.0073  0.1093 -0.5643
15930TIP3    H169281   1.453   2.572  15.796 -0.7015  0.1388 -1.0632
15930TIP3    H269282   1.463   2.435  15.862 -4.1849  0.1009 -0.4443
15931TIP3   OH269283   0.520   0.766   0.953 -0.0857  0.3174 -0.0096
15931TIP3    H169284   0.455   0.761   0.883  2.1539 -2.5194 -2.1869
15931TIP3    H269285   0.581   0.835   0.924  0.1672  0.0115 -0.2087
15932TIP3   OH269286   6.511   0.066   1.666  0.2866 -0.3352  0.4698
15932TIP3    H169287   6.580   0.129   1.644  1.3427 -1.7962 -0.5971
15932TIP3    H269288   6.550  -0.020   1.650 -1.4743 -1.2549  0.7948
15933TIP3   OH269289   5.518   1.503  15.181 -0.2203 -0.2983 -0.1355
15933TIP3    H169290   5.614   1.502  15.184 -0.2234 -1.4822  0.0501
15933TIP3    H269291   5.491   1.538  15.266  0.0258  2.1607 -0.9633
15934TIP3   OH269292   2.393   0.922  13.000  0.4431 -0.2255 -0.1175
15934TIP3    H169293   2.404   0.937  13.094  1.2279  1.3042 -0.4082
15934TIP3    H269294   2.479   0.892  12.970  0.5889  0.5713 -0.5401
15935TIP3   OH269295   6.486   0.040   6.313  0.5097  0.4956 -0.0244
15935TIP3    H169296   6.511   0.120   6.359 -0.4525  2.0016 -1.9794
15935TIP3    H269297   6.569   0.004   6.281  0.8717  1.1861  0.1152
15936TIP3   OH269298   3.948   2.397  15.362  0.4585 -0.1785  0.0601
15936TIP3    H169299   3.921   2.316  15.405  3.7339 -2.1657 -1.2526
15936TIP3    H269300   3.886   2.406  15.289 -1.2794 -0.2350  1.4762
15937TIP3   OH269301   5.299   1.557  12.385 -0.8128 -0.4281 -0.4896
15937TIP3    H169302   5.316   1.502  12.309  0.0832 -0.4481 -0.2930
15937TIP3    H269303   5.288   1.645  12.349 -0.6758 -0.4841 -0.6703
15938TIP3   OH269304   4.745   3.947  11.997  0.4376 -0.2179 -0.6151
15938TIP3    H169305   4.707   3.889  11.931  0.1450 -1.1021  0.2967
15938TIP3    H269306   4.820   3.899  12.031  1.3603  0.7852 -1.1868
15939TIP3   OH269307   4.596   0.252  15.034  0.4630  0.0730 -0.6433
15939TIP3    H169308   4.555   0.175  14.996  0.5985  0.3858 -1.4510
15939TIP3    H269309   4.536   0.324  15.014  0.6774  0.2887 -0.5220
15940TIP3   OH269310   5.703   0.602  14.034  0.3385  0.1232 -0.6676
15940TIP3    H169311   5.693   0.685  13.989 -1.9495  0.8738  1.0272
15940TIP3    H269312   5.778   0.615  14.093  0.6802  0.5851 -1.1934
15941TIP3   OH269313   0.156   6.644  12.909 -0.1221 -0.3380 -0.0816
15941TIP3    H169314   0.121   6.731  12.928 -1.9118 -0.8348 -0.8630
15941TIP3    H269315   0.096   6.584  12.952  1.0729 -1.2179  0.4161
15942TIP3   OH269316   6.069   4.537  11.911 -0.0360  0.1436 -0.5119
15942TIP3    H169317   6.071   4.625  11.951 -2.2646 -1.2555  3.2578
15942TIP3    H269318   5.985   4.534  11.865  0.4467  0.2653 -1.4032
15943TIP3   OH269319   5.223   1.712   1.233  0.7595  0.4754  0.2889
15943TIP3    H169320   5.277   1.634   1.247  0.2145  0.1542  0.6300
15943TIP3    H269321   5.240   1.768   1.309 -0.1766 -0.0955  0.9458
15944TIP3   OH269322   2.087   4.446  14.630 -0.4034  0.0009  0.0765
15944TIP3    H169323   2.162   4.475  14.682  1.2650 -2.1753 -0.9835
15944TIP3    H269324   2.077   4.353  14.652 -1.6304 -0.1918 -1.1723
15945TIP3   OH269325   3.065   2.799   1.803  0.3574 -0.2723 -0.0486
15945TIP3    H169326   3.071   2.889   1.772  0.0200  0.5109  1.9661
15945TIP3    H269327   2.986   2.764   1.761  0.6446  0.2723 -1.0650
15946TIP3   OH269328   0.112   3.483   2.315 -0.5141 -0.3645  0.0096
15946TIP3    H169329   0.167   3.412   2.284  0.6045  0.0364  0.9686
15946TIP3    H269330   0.161   3.521   2.388 -1.6654  0.5832  0.3311
15947TIP3   OH269331   4.525   6.555   5.694 -0.1395 -0.2093  0.2836
15947TIP3    H169332   4.573   6.475   5.715  0.7081  0.1430 -0.2607
15947TIP3    H269333   4.452   6.556   5.756 -1.0919 -2.2056 -0.7004
15948TIP3   OH269334   2.644   0.179   3.264 -0.5060 -0.5021  0.0854
15948TIP3    H169335   2.719   0.128   3.293 -0.4641 -0.8135 -0.5451
15948TIP3    H269336   2.606   0.215   3.344  0.7767  0.3161  0.3491
15949TIP3   OH269337   1.405   4.320   6.625  0.1961 -0.0270  0.5763
15949TIP3    H169338   1.359   4.390   6.672  1.2609  1.0476  0.0497
15949TIP3    H269339   1.497   4.341   6.635  0.5392 -1.4226  0.4843
15950TIP3   OH269340   3.667   4.844  12.666 -0.2725 -0.1261  0.2091
15950TIP3    H169341   3.731   4.898  12.619  2.7888 -2.1460  1.7552
15950TIP3    H269342   3.605   4.817  12.598  0.7925  1.4718 -1.5206
15951TIP3   OH269343   1.653   5.274  11.891 -0.0127  0.0159  0.2598
15951TIP3    H169344   1.578   5.250  11.836 -0.8791 -0.0321  1.4202
15951TIP3    H269345   1.716   5.203  11.878 -0.5727 -0.4381 -0.0033
15952TIP3   OH269346   1.783   2.398   4.160  0.0765 -0.1644 -0.3265
15952TIP3    H169347   1.739   2.465   4.108  0.2525  1.3410  1.3575
15952TIP3    H269348   1.852   2.445   4.207 -0.6844 -1.1901  1.9830
15953TIP3   OH269349   0.532   3.087  10.715 -0.5076 -0.0445  0.3966
15953TIP3    H169350   0.592   3.013  10.710  0.3518  0.4631  2.3738
15953TIP3    H269351   0.449   3.050  10.746 -0.9828 -0.5912 -1.4146
15954TIP3   OH269352   3.488   3.001   6.598  0.4610 -0.2514  0.6593
15954TIP3    H169353   3.502   3.086   6.556  2.4406 -1.2198 -0.8241
15954TIP3    H269354   3.397   2.979   6.579  0.0599  1.2859  0.6515
15955TIP3   OH269355   0.009   1.141  11.360 -0.5414  0.0924  0.0250
15955TIP3    H169356   0.092   1.095  11.377  0.2775  1.2167 -0.7511
15955TIP3    H269357   0.032   1.207  11.295 -1.5972  1.8247  1.3307
15956TIP3   OH269358   3.551   1.817   5.115  0.6188 -0.2900 -0.0252
15956TIP3    H169359   3.603   1.895   5.098  1.0842 -0.2490  1.4901
15956TIP3    H269360   3.498   1.806   5.036 -0.9621  2.7272  0.4565
15957TIP3   OH269361   2.400   1.522   1.574  0.5754 -0.6331  0.0218
15957TIP3    H169362   2.411   1.427   1.579  1.6437 -0.5966 -1.3266
15957TIP3    H269363   2.401   1.550   1.666 -2.1624 -2.1278  0.6356
15958TIP3   OH269364   1.909   4.531   5.851 -0.1642 -0.0495  0.1903
15958TIP3    H169365   1.848   4.605   5.854  0.1530  0.2528 -0.5896
15958TIP3    H269366   1.996   4.572   5.854  0.0860 -0.1783 -2.6800
15959TIP3   OH269367   4.993   0.124   4.482 -0.1013  0.5068  0.1981
15959TIP3    H169368   4.962   0.046   4.529  1.0753 -0.1083 -0.0137
15959TIP3    H269369   4.975   0.106   4.390  2.8009 -0.8807 -0.2159
15960TIP3   OH269370   1.922   1.524   0.378  0.5323 -0.5260 -0.1988
15960TIP3    H169371   1.956   1.487   0.296  0.1835  0.3764 -0.7786
15960TIP3    H269372   1.833   1.488   0.385  0.5700 -0.6214 -0.2066
15961TIP3   OH269373   0.867   5.491   3.637  0.4501 -0.4201 -0.0496
15961TIP3    H169374   0.910   5.442   3.566 -0.9674  0.8703 -1.8864
15961TIP3    H269375   0.882   5.583   3.615 -2.1473  0.0524 -0.1259
15962TIP3   OH269376   1.349   5.145  12.138 -0.4801  0.0436  0.1573
15962TIP3    H169377   1.278   5.096  12.181 -2.7370  3.3337  0.5648
15962TIP3    H269378   1.367   5.217  12.198  0.8317  1.1962 -1.5619
15963TIP3   OH269379   3.121   1.229   2.432 -0.6113 -0.1822  0.3160
15963TIP3    H169380   3.046   1.188   2.474 -0.1860 -0.4850  0.7926
15963TIP3    H269381   3.197   1.180   2.465 -0.2456 -0.2148 -0.5557
15964TIP3   OH269382   2.586   4.183  14.337  0.0836 -0.0365 -0.3103
15964TIP3    H169383   2.561   4.179  14.245 -3.7315  2.4612  0.3837
15964TIP3    H269384   2.623   4.270  14.348  0.5796 -0.3398  0.5539
15965TIP3   OH269385   0.140   0.095   1.653 -0.0836 -0.2380 -0.0841
15965TIP3    H169386   0.174   0.181   1.676 -1.9727  0.7690 -0.8165
15965TIP3    H269387   0.053   0.113   1.617  0.1382 -2.2943 -1.8289
15966TIP3   OH269388   0.180   6.348  14.653 -0.0435  0.1335 -0.4090
15966TIP3    H169389   0.259   6.384  14.612  0.2784 -0.1199 -0.0214
15966TIP3    H269390   0.108   6.382  14.600 -0.1917  4.8795  2.2250
15967TIP3   OH269391   0.938   5.276  16.854 -0.0563 -0.1366  0.7899
15967TIP3    H169392   0.969   5.186  16.863 -1.8103 -0.7918  0.5331
15967TIP3    H269393   0.947   5.295  16.761  0.7405  0.1414  0.9102
15968TIP3   OH269394   3.351   6.425  10.945  0.4292 -0.5474  0.2157
15968TIP3    H169395   3.267   6.433  10.991  1.2754 -0.4297  1.8206
15968TIP3    H269396   3.369   6.331  10.945  0.6733 -0.5052  0.6200
15969TIP3   OH269397   6.589   2.377  16.654 -0.2378 -0.4195  0.2823
15969TIP3    H169398   6.526   2.326  16.603 -0.0659  0.3312 -0.7167
15969TIP3    H269399   6.536   2.431  16.711 -0.4248 -2.9618  2.7203
15970TIP3   OH269400   5.377   1.895  17.195 -0.9005  0.4928  0.4994
15970TIP3    H169401   5.454   1.840  17.205 -0.2155  0.7795 -2.2535
15970TIP3    H269402   5.373   1.946  17.276  0.5658 -0.9984  1.5725
15971TIP3   OH269403   4.683   1.884  15.788  0.4121 -0.5370 -0.1390
15971TIP3    H169404   4.647   1.967  15.756  0.8940 -0.9613 -1.8743
15971TIP3    H269405   4.614   1.820  15.771  1.3291 -1.0798 -2.0485
15972TIP3   OH269406   2.728   6.666   3.166  0.2950  0.0219  0.7033
15972TIP3    H169407   2.809   6.616   3.171  0.2213  0.0160  2.4117
15972TIP3    H269408   2.672   6.616   3.107  0.7378 -1.1678  1.2751
15973TIP3   OH269409   2.598   6.072  14.349 -0.2819 -0.0240 -0.5055
15973TIP3    H169410   2.513   6.076  14.392  0.0325 -0.0158  0.1287
15973TIP3    H269411   2.628   5.982  14.362  0.6295  0.4500  0.9220
15974TIP3   OH269412   5.292   6.730  14.859  0.0307  0.3208 -0.3965
15974TIP3    H169413   5.231   6.775  14.800 -0.5279  1.1730  0.7888
15974TIP3    H269414   5.378   6.749  14.822 -0.3622 -0.2461 -1.6549
15975TIP3   OH269415   2.819   3.308  15.332 -0.3352 -0.0384  0.0484
15975TIP3    H169416   2.840   3.215  15.340  0.8198  0.2240  0.1229
15975TIP3    H269417   2.803   3.321  15.239 -0.3668 -0.2765  0.0201
15976TIP3   OH269418   6.303   4.054   1.716  0.3081  0.5419 -0.5950
15976TIP3    H169419   6.225   4.107   1.696 -0.1924  0.3199  0.6318
15976TIP3    H269420   6.376   4.115   1.708 -0.1565  1.1599 -0.2737
15977TIP3   OH269421   1.971   5.092   5.511 -0.4081  0.1442 -0.4331
15977TIP3    H169422   1.924   5.112   5.430 -2.1220  1.1292  0.7493
15977TIP3    H269423   2.031   5.165   5.524  0.5699 -0.4831 -1.2736
15978TIP3   OH269424   1.912   0.403  17.006 -0.3772  0.1323  0.0089
15978TIP3    H169425   1.845   0.378  17.069  0.2084 -1.5173  0.0170
15978TIP3    H269426   1.870   0.391  16.920 -0.8216  1.3350  0.0435
15979TIP3   OH269427   3.544   0.865  11.995 -0.1918 -0.1021  0.3384
15979TIP3    H169428   3.464   0.908  12.024 -0.0841 -0.1470  0.7114
15979TIP3    H269429   3.536   0.860  11.900 -0.9567 -0.7514  0.4262
15980TIP3   OH269430   3.958   3.850   1.558 -0.4085 -0.2453  0.0616
15980TIP3    H169431   3.997   3.923   1.511  0.1650 -0.4726  0.1655
15980TIP3    H269432   4.013   3.775   1.535  0.4427 -0.2016  1.7475
15981TIP3   OH269433   4.824   0.199  16.046  0.1890 -0.5098  0.5602
15981TIP3    H169434   4.804   0.111  16.014  1.2443 -0.4988 -0.2050
15981TIP3    H269435   4.774   0.208  16.127 -0.7910 -1.3992  0.0720
15982TIP3   OH269436   4.870   2.985   4.545  0.0904  0.4081 -0.1771
15982TIP3    H169437   4.874   3.077   4.568  0.2488 -0.1598  2.4680
15982TIP3    H269438   4.962   2.956   4.543  0.0013  0.0456  0.4333
15983TIP3   OH269439   2.972   1.535  12.927 -0.7344  0.4688 -0.2388
15983TIP3    H169440   2.916   1.581  12.990 -1.0882  0.0595 -0.2579
15983TIP3    H269441   2.973   1.592  12.850  1.6264  2.2232  0.9291
15984TIP3   OH269442   2.449   3.197   4.767  0.2376  0.2322 -1.0034
15984TIP3    H169443   2.408   3.229   4.686 -0.5557  0.7824 -0.4028
15984TIP3    H269444   2.450   3.273   4.825 -0.0574 -0.3916 -0.1622
15985TIP3   OH269445   1.107   4.423  12.623  0.4737 -0.9184  0.9269
15985TIP3    H169446   1.173   4.467  12.677 -1.1198 -0.0179  2.2398
15985TIP3    H269447   1.071   4.355  12.680 -2.5416  1.2347  1.8491
15986TIP3   OH269448   0.199   0.367   2.163 -0.4177  0.7247 -0.0352
15986TIP3    H169449   0.158   0.358   2.249  0.9991 -1.2163  0.5109
15986TIP3    H269450   0.155   0.302   2.108 -0.6572  1.2928 -0.5331
15987TIP3   OH269451   6.441   2.486  14.548  0.4444 -0.0462 -0.2167
15987TIP3    H169452   6.525   2.443  14.562  1.3059  1.6742  0.2035
15987TIP3    H269453   6.442   2.508  14.454 -0.2235 -1.3558 -0.5463
15988TIP3   OH269454   1.955   1.253   4.287 -0.1207 -0.3689  0.7190
15988TIP3    H169455   1.948   1.178   4.228  1.6190 -0.1298  0.1561
15988TIP3    H269456   1.989   1.216   4.368  0.4708 -0.2394  0.5332
15989TIP3   OH269457   4.926   5.784   3.991 -0.0237  0.2478 -0.8448
15989TIP3    H169458   4.932   5.803   3.897 -0.5215  0.3888 -0.8517
15989TIP3    H269459   4.926   5.689   3.997 -0.9425  0.2208 -1.0646
15990TIP3   OH269460   2.319   3.711  16.257  0.0725  0.0313 -0.1576
15990TIP3    H169461   2.367   3.650  16.201  0.3901  0.0306  0.1092
15990TIP3    H269462   2.295   3.658  16.334 -1.1229 -0.2058 -0.6675
15991TIP3   OH269463   5.420   1.878  15.309  0.3916  0.2625  0.1836
15991TIP3    H169464   5.410   1.927  15.391  1.0712 -0.0062  0.4299
15991TIP3    H269465   5.504   1.907  15.273 -0.9190  2.0982 -1.6036
15992TIP3   OH269466   0.178   2.492   1.251  0.0053  0.0909 -0.0662
15992TIP3    H169467   0.173   2.472   1.158  1.9084 -0.1877 -0.1473
15992TIP3    H269468   0.158   2.586   1.256 -2.0238 -0.2748 -0.4899
15993TIP3   OH269469   2.177   4.176   0.975 -0.2557  0.4663  0.4043
15993TIP3    H169470   2.235   4.118   0.925 -0.6503 -1.0561  1.6079
15993TIP3    H269471   2.105   4.195   0.916  0.1342  0.1266 -0.1872
15994TIP3   OH269472   6.441   6.192   5.566 -0.2006  0.0407  0.6073
15994TIP3    H169473   6.408   6.115   5.612  0.1382 -0.2344  0.3957
15994TIP3    H269474   6.398   6.189   5.480  1.3371 -1.0460 -0.1642
15995TIP3   OH269475   1.912   3.029   1.836  0.2398 -0.5941  0.2700
15995TIP3    H169476   1.835   3.012   1.782  1.3196  1.4478 -2.1326
15995TIP3    H269477   1.886   3.005   1.925 -2.8123 -0.8975 -0.6200
15996TIP3   OH269478   2.404   5.802  13.448 -0.7249 -0.2383 -0.4389
15996TIP3    H169479   2.473   5.869  13.448 -1.0143  0.0664 -1.1178
15996TIP3    H269480   2.443   5.728  13.495 -0.7636  0.7537  1.2589
15997TIP3   OH269481   1.118   1.315   1.441 -0.1890 -0.2492 -0.1202
15997TIP3    H169482   1.079   1.356   1.518 -1.8885 -0.7214 -0.6855
15997TIP3    H269483   1.076   1.358   1.367  1.1932 -0.0166 -0.8068
15998TIP3   OH269484   6.623   6.681   3.076 -0.1794  0.3848  0.5883
15998TIP3    H169485   6.551   6.736   3.046 -0.0060 -0.7790 -2.3415
15998TIP3    H269486   6.591   6.641   3.157 -1.2914  2.7251  1.3780
15999TIP3   OH269487   1.078   3.951  11.972 -0.1542 -0.6010 -0.2509
15999TIP3    H169488   1.164   3.951  12.015 -0.0056 -1.6241 -0.5180
15999TIP3    H269489   1.045   4.040  11.984  0.4083 -0.5369  0.9097
16000TIP3   OH269490   5.044   5.629   5.892 -0.1333 -0.3474 -0.0912
16000TIP3    H169491   5.123   5.644   5.943  1.1073 -1.5105 -1.5919
16000TIP3    H269492   5.021   5.538   5.909 -2.1897  0.3938  1.6268
16001TIP3   OH269493   3.935   6.052   4.002  0.0466  0.4112  0.1852
16001TIP3    H169494   3.872   6.081   3.936 -2.4744 -1.3573  1.6339
16001TIP3    H269495   3.981   6.132   4.028 -0.4921  1.5213 -2.0275
16002TIP3   OH269496   6.613   3.706  13.090 -0.1634  0.1065  1.1147
16002TIP3    H169497   6.653   3.621  13.074  1.2491  1.1110 -1.1582
16002TIP3    H269498   6.687   3.765  13.103 -1.0275  1.3327  0.6067
16003TIP3   OH269499   1.012   3.561  16.728 -0.2876  0.1344  0.2560
16003TIP3    H169500   0.981   3.474  16.751 -0.7201  0.2697  0.1976
16003TIP3    H269501   1.101   3.565  16.763  0.0183 -0.5999 -0.3909
16004TIP3   OH269502   2.849   1.911   3.107 -0.0933  0.2309  0.1486
16004TIP3    H169503   2.841   1.837   3.047  1.9687  1.3449 -1.6492
16004TIP3    H269504   2.897   1.977   3.057 -0.5519  2.2291  2.1934
16005TIP3   OH269505   5.062   2.244   4.848  0.7640 -0.2338 -0.1865
16005TIP3    H169506   5.025   2.156   4.839 -1.3660  0.2340  2.4791
16005TIP3    H269507   5.027   2.292   4.773 -2.5569 -0.4104  1.0716
16006TIP3   OH269508   1.129   1.809   4.069 -0.1170 -0.4205 -0.1624
16006TIP3    H169509   1.121   1.762   4.152  1.2197 -0.9892 -0.3228
16006TIP3    H269510   1.223   1.831   4.064 -0.6137  1.9596 -0.2550
16007TIP3   OH269511   1.062   2.774   5.461  0.5207  0.0691 -0.2175
16007TIP3    H169512   1.049   2.703   5.524  0.1046 -0.0602 -0.4437
16007TIP3    H269513   1.128   2.741   5.401  0.9223  0.1937  0.1471
16008TIP3   OH269514   3.695   5.933   4.084  0.5207  0.2293 -0.6876
16008TIP3    H169515   3.762   5.995   4.056  1.2983  0.4396  1.4377
16008TIP3    H269516   3.709   5.924   4.178 -2.3497  0.1355 -0.1917
16009TIP3   OH269517   2.289   1.537  11.456  0.7445 -0.0483 -0.4670
16009TIP3    H169518   2.290   1.632  11.473 -0.1370 -0.0848 -0.1592
16009TIP3    H269519   2.212   1.524  11.400  1.6682 -0.3981 -1.6880
16010TIP3   OH269520   6.608   6.248   0.195 -0.3362  0.2655  0.3049
16010TIP3    H169521   6.523   6.203   0.196 -1.0284  1.5233 -0.5128
16010TIP3    H269522   6.638   6.242   0.104 -0.5569  1.6589  0.1272
16011TIP3   OH269523   3.838   3.774   3.961  0.4045  0.2726 -0.6194
16011TIP3    H169524   3.771   3.706   3.961  1.4646 -0.8037  0.0700
16011TIP3    H269525   3.921   3.726   3.967  1.2158  1.5955 -0.9017
16012TIP3   OH269526   2.550   5.753   1.333 -0.3594  0.1276 -0.7961
16012TIP3    H169527   2.623   5.712   1.380 -0.3134  0.0998 -0.8918
16012TIP3    H269528   2.523   5.687   1.269 -1.3562 -0.4041  0.1425
16013TIP3   OH269529   2.861   1.978  13.209 -0.5078  0.1009  0.0080
16013TIP3    H169530   2.904   1.966  13.294 -2.3930 -0.9580  0.8800
16013TIP3    H269531   2.855   2.073  13.199 -0.4562  0.2447  1.1838
16014TIP3   OH269532   2.054   1.851  16.881 -0.1497  0.7234 -0.1161
16014TIP3    H169533   1.994   1.924  16.893  0.2377  0.6655  3.5169
16014TIP3    H269534   2.130   1.873  16.936  0.4159 -1.9269  0.3110
16015TIP3   OH269535   2.869   3.320   4.142  0.0710 -0.9123 -0.0752
16015TIP3    H169536   2.891   3.289   4.230 -0.9606 -2.1757 -0.2211
16015TIP3    H269537   2.844   3.411   4.154 -0.0057 -1.0530  0.9276
16016TIP3   OH269538   1.191   4.132  12.300 -0.3551 -0.0167 -0.7311
16016TIP3    H169539   1.279   4.169  12.300 -0.2407  0.1258 -4.5010
16016TIP3    H269540   1.138   4.196  12.251 -1.9708 -1.1969 -0.6075
16017TIP3   OH269541   2.893   5.093   3.954 -0.0572 -0.1588 -0.0292
16017TIP3    H169542   2.937   5.008   3.944  0.6453  0.1485  0.3525
16017TIP3    H269543   2.806   5.072   3.987 -0.9201 -0.9253 -2.5014
16018TIP3   OH269544   4.661   1.917  16.415  0.3399 -0.3988  0.0715
16018TIP3    H169545   4.726   1.876  16.473  1.8939  0.0461 -1.2859
16018TIP3    H269546   4.676   2.011  16.425 -0.7926 -0.2453  0.4817
16019TIP3   OH269547   3.683   0.898   5.707 -0.2989 -0.2650 -0.1607
16019TIP3    H169548   3.685   0.812   5.748  0.7571  0.1313  0.6943
16019TIP3    H269549   3.636   0.885   5.625 -0.0700 -1.6752 -0.0962
16020TIP3   OH269550   1.536   0.613  15.768 -0.0009 -0.2810  0.5769
16020TIP3    H169551   1.503   0.603  15.857  0.3479  1.5404  0.9493
16020TIP3    H269552   1.550   0.708  15.758  0.0068 -0.4481 -1.3973
16021TIP3   OH269553   0.370   0.356  16.227 -0.7845 -0.0344  0.4010
16021TIP3    H169554   0.420   0.275  16.216  0.9003  1.2397 -2.3372
16021TIP3    H269555   0.279   0.328  16.230 -0.1883 -2.0977  0.9504
16022TIP3   OH269556   1.118   4.547   4.601 -0.0283 -0.1648  0.2772
16022TIP3    H169557   1.197   4.575   4.649  0.1229 -1.7606  1.0452
16022TIP3    H269558   1.112   4.453   4.620 -2.2243 -0.0388  0.3833
16023TIP3   OH269559   2.575   0.683   2.937  0.0381  0.0470 -0.7733
16023TIP3    H169560   2.652   0.739   2.927  0.8754 -0.8811  0.2536
16023TIP3    H269561   2.544   0.702   3.026  1.2963 -2.2386  0.2325
16024TIP3   OH269562   4.342   5.690  14.344 -0.2555 -0.6758 -0.1369
16024TIP3    H169563   4.256   5.697  14.384  0.9751 -0.2286  2.7000
16024TIP3    H269564   4.390   5.767  14.376  1.6424 -1.7016 -0.3310
16025TIP3   OH269565   5.474   5.284   2.554  0.2857  0.3007 -0.0679
16025TIP3    H169566   5.540   5.245   2.611 -0.5458  1.7963  2.0579
16025TIP3    H269567   5.464   5.374   2.586 -3.1525  0.0041  0.1483
16026TIP3   OH269568   4.727   2.281  12.443 -0.2351 -0.4824 -0.5342
16026TIP3    H169569   4.797   2.215  12.451  0.4693  0.4673  3.5680
16026TIP3    H269570   4.656   2.246  12.496  0.2256  1.9549  1.9156
16027TIP3   OH269571   2.041   5.644   3.824  0.0762  0.1167  0.9811
16027TIP3    H169572   2.080   5.559   3.847 -0.2104 -0.6072 -0.9899
16027TIP3    H269573   2.056   5.652   3.730  0.6439  2.5756  1.2123
16028TIP3   OH269574   5.998   2.290  12.612  0.1856  0.4078 -0.4163
16028TIP3    H169575   6.049   2.314  12.535 -0.3544  0.1635 -0.8640
16028TIP3    H269576   5.985   2.195  12.603 -0.3549  0.4686 -0.3224
16029TIP3   OH269577   4.997   3.214  11.736 -0.0979 -0.2657 -0.3073
16029TIP3    H169578   4.996   3.170  11.821 -0.7141  1.1883  0.4690
16029TIP3    H269579   5.075   3.178  11.693 -0.3333 -1.7899  0.4300
16030TIP3   OH269580   0.051   4.448   1.770 -0.4534 -0.2844 -0.3893
16030TIP3    H169581  -0.016   4.380   1.763 -2.6106  1.6873  0.0663
16030TIP3    H269582   0.030   4.496   1.850  1.9164  0.0563  0.1302
16031TIP3   OH269583   6.432   2.088   3.034  0.5579  0.4737  0.0955
16031TIP3    H169584   6.351   2.114   2.991  0.5334  0.9895  0.4358
16031TIP3    H269585   6.441   1.994   3.016  0.5692  0.6811 -1.0510
16032TIP3   OH269586   1.728   4.593  12.290 -0.3591 -0.7983  0.6105
16032TIP3    H169587   1.654   4.602  12.230  1.6255  2.2001 -1.7143
16032TIP3    H269588   1.700   4.638  12.369 -1.4220 -0.6588  0.1775
16033TIP3   OH269589   4.926   2.519  11.975 -0.0158  0.1167  0.1392
16033TIP3    H169590   4.834   2.503  11.994  0.1226  0.2163  0.9359
16033TIP3    H269591   4.970   2.436  11.996 -0.2293 -0.7976 -2.6771
16034TIP3   OH269592   4.043   1.992   5.657  0.0715  0.0059 -0.1721
16034TIP3    H169593   3.966   1.977   5.711  1.6848 -0.2226  2.2505
16034TIP3    H269594   4.033   1.933   5.582 -1.1361 -1.5245  1.1375
16035TIP3   OH269595   1.625   6.455  10.829  0.3651  0.5177  0.5857
16035TIP3    H169596   1.645   6.424  10.741  0.5647  0.4518  0.6524
16035TIP3    H269597   1.567   6.530  10.816 -3.5836 -2.2441  0.4756
16036TIP3   OH269598   6.412   3.581  11.780  0.4552  0.6150 -0.2454
16036TIP3    H169599   6.432   3.672  11.758  3.2949 -0.3750 -2.3929
16036TIP3    H269600   6.386   3.541  11.697  0.8587 -0.8908  0.3199
16037TIP3   OH269601   4.814   4.903   4.521  0.1594  0.0745  0.0944
16037TIP3    H169602   4.757   4.975   4.496 -0.3621 -0.7281 -1.1068
16037TIP3    H269603   4.835   4.859   4.439 -0.3523 -1.7381  0.8935
16038TIP3   OH269604   5.251   4.529  13.956 -0.5026  0.1019  0.9145
16038TIP3    H169605   5.206   4.451  13.987 -0.5505 -0.6139 -0.8350
16038TIP3    H269606   5.180   4.593  13.942 -0.6857 -0.1846  0.5303
16039TIP3   OH269607   1.259   3.733  15.637 -0.1329 -0.0062 -0.3782
16039TIP3    H169608   1.349   3.754  15.665  0.3417 -1.4476 -0.7117
16039TIP3    H269609   1.216   3.702  15.717 -0.5176  1.1873 -0.1050
16040TIP3   OH269610   3.991   1.838  12.231 -0.0789 -0.1508  0.2083
16040TIP3    H169611   3.920   1.827  12.294 -0.2997 -1.6246 -0.2686
16040TIP3    H269612   4.031   1.922  12.255 -0.7591 -0.2178  1.7009
16041TIP3   OH269613   3.548   4.532  11.848 -0.3865  0.0668  0.0194
16041TIP3    H169614   3.508   4.490  11.924 -1.8223  1.1047 -0.1273
16041TIP3    H269615   3.503   4.616  11.841 -0.1223  0.0826 -1.8656
16042TIP3   OH269616   6.669   3.668   3.288  0.0794  0.2558 -0.3388
16042TIP3    H169617   6.683   3.700   3.199 -1.9714  0.4221 -0.6403
16042TIP3    H269618   6.755   3.676   3.330  0.4179  3.0178 -1.3829
16043TIP3   OH269619   2.765   2.623  15.179  0.8016  1.0540  0.5921
16043TIP3    H169620   2.806   2.678  15.246  1.1725  1.7272 -0.1788
16043TIP3    H269621   2.828   2.622  15.107  0.8231 -0.4181  0.5959
16044TIP3   OH269622   1.218   1.023   2.570  0.1720 -0.1700  0.4188
16044TIP3    H169623   1.238   1.090   2.636 -0.2268 -0.5263  0.9073
16044TIP3    H269624   1.240   1.065   2.486  0.2081  0.4667  0.7382
16045TIP3   OH269625   2.591   0.094  15.151  0.2728  0.1567  0.1939
16045TIP3    H169626   2.639   0.158  15.097  1.5724  0.0515  1.1571
16045TIP3    H269627   2.638   0.095  15.235 -0.1662 -1.4910  0.4858
16046TIP3   OH269628   1.375   1.944  14.149  0.0541  0.1569  0.3111
16046TIP3    H169629   1.416   2.003  14.086  0.4600 -0.7247 -0.2791
16046TIP3    H269630   1.447   1.888  14.179 -0.4277 -0.4408  0.3753
16047TIP3   OH269631   1.428   4.419  13.150  0.3198  0.3856 -0.5059
16047TIP3    H169632   1.482   4.432  13.228  0.7092  0.1446 -0.7343
16047TIP3    H269633   1.487   4.435  13.077  0.0177  0.3702 -0.7545
16048TIP3   OH269634   2.969   3.288   5.642 -0.4584 -0.0693  0.4028
16048TIP3    H169635   2.911   3.323   5.574 -0.4601 -0.1503  0.3621
16048TIP3    H269636   2.915   3.225   5.689  0.0035 -1.1763 -0.5189
16049TIP3   OH269637   3.758   2.865  17.035 -0.4386 -0.0517  0.6229
16049TIP3    H169638   3.853   2.866  17.036 -0.3726 -1.5289 -0.6087
16049TIP3    H269639   3.735   2.877  16.943 -1.3995 -0.8801  0.7345
16050TIP3   OH269640   1.189   6.182  14.398  0.0617  0.0945 -0.3030
16050TIP3    H169641   1.163   6.206  14.487  2.4630 -0.6777  0.6950
16050TIP3    H269642   1.154   6.093  14.386 -0.6307  0.3608 -0.3302
16051TIP3   OH269643   3.196   2.491  12.149 -0.1237 -0.3445  0.0662
16051TIP3    H169644   3.223   2.410  12.107 -0.2043 -1.3021  1.7821
16051TIP3    H269645   3.137   2.463  12.220  0.2560  1.1588  1.0191
16052TIP3   OH269646   5.282   0.756   0.539  0.0435  0.0656  0.2684
16052TIP3    H169647   5.348   0.704   0.494 -0.3227 -0.7099  0.6037
16052TIP3    H269648   5.275   0.716   0.626 -1.6468 -0.5695 -0.1327
16053TIP3   OH269649   0.675   1.011  16.303 -0.5070 -0.0070  0.1699
16053TIP3    H169650   0.675   1.068  16.380  1.4733  0.8058 -0.3898
16053TIP3    H269651   0.713   0.929  16.333  2.3956  1.0297 -0.3418
16054TIP3   OH269652   4.833   2.899   3.863 -0.3196 -0.4116  0.0263
16054TIP3    H169653   4.795   2.819   3.899 -1.3347  0.1324  0.2060
16054TIP3    H269654   4.846   2.956   3.939 -0.0244 -0.2348 -0.1539
16055TIP3   OH269655   6.137   5.203  15.275 -0.0643 -1.0209 -0.1727
16055TIP3    H169656   6.117   5.223  15.183  2.9193  1.8849 -0.3929
16055TIP3    H269657   6.093   5.271  15.325  0.7680 -0.7746  0.2396
16056TIP3   OH269658   0.366   4.044   2.420 -0.2271  0.4425  0.3709
16056TIP3    H169659   0.450   4.086   2.439 -0.7247  2.5000 -1.5665
16056TIP3    H269660   0.372   4.018   2.328 -1.7174  0.6277  0.1947
16057TIP3   OH269661   6.509   4.034   1.177 -0.0658 -0.6872  0.1913
16057TIP3    H169662   6.541   3.964   1.234  1.8941  0.5668  0.7587
16057TIP3    H269663   6.432   3.997   1.134 -0.4754 -2.3589  2.1900
16058TIP3   OH269664   6.027   5.754  13.461 -0.0058 -0.0858  0.6889
16058TIP3    H169665   6.001   5.812  13.389 -0.9011  0.5659  1.5187
16058TIP3    H269666   5.976   5.674  13.447 -1.1652  0.5241  1.3078
16059TIP3   OH269667   2.879   2.471   1.246  0.4005  0.7255 -0.2361
16059TIP3    H169668   2.957   2.482   1.300  0.2487 -1.1299  0.3995
16059TIP3    H269669   2.832   2.555   1.254  1.0873  0.9863  1.3391
16060TIP3   OH269670   3.561   6.549   3.414 -0.5813  0.5212 -0.2871
16060TIP3    H169671   3.490   6.574   3.473 -1.5492 -2.2491 -0.1510
16060TIP3    H269672   3.610   6.482   3.463  1.5225  1.5813 -0.8131
16061TIP3   OH269673   0.711   2.573   0.059  0.7747 -0.0005 -0.1421
16061TIP3    H169674   0.755   2.546  -0.022  1.3977 -2.1172  0.8277
16061TIP3    H269675   0.765   2.537   0.129 -1.3378 -0.8842  1.1498
16062TIP3   OH269676   2.632   3.248   1.336  0.2308 -0.6652 -0.1961
16062TIP3    H169677   2.670   3.274   1.252  0.7764  2.4709  0.8780
16062TIP3    H269678   2.539   3.232   1.317  0.7474 -2.1224 -1.7033
16063TIP3   OH269679   6.817   0.559   2.269 -0.0003  0.2860  0.2017
16063TIP3    H169680   6.736   0.610   2.259 -0.6446 -0.8315 -0.4659
16063TIP3    H269681   6.878   0.620   2.309 -1.0064  1.3296  0.2164
16064TIP3   OH269682   6.318   2.855   2.369 -0.5931  0.2142  0.0749
16064TIP3    H169683   6.244   2.795   2.379 -0.4818 -0.1318 -0.9994
16064TIP3    H269684   6.371   2.842   2.447 -0.9884 -0.5050  0.2298
16065TIP3   OH269685   1.578   0.520  13.838  0.3436 -0.1449  0.7421
16065TIP3    H169686   1.547   0.435  13.868 -0.0859 -0.3741 -0.3121
16065TIP3    H269687   1.672   0.519  13.858  0.6793 -1.5321 -0.6903
16066TIP3   OH269688   4.724   4.236  16.701 -0.2808 -0.4753 -0.0870
16066TIP3    H169689   4.731   4.331  16.691 -2.0461 -0.3330 -0.2948
16066TIP3    H269690   4.652   4.224  16.764 -0.8560 -1.6797 -0.9348
16067TIP3   OH269691   0.469   2.224   6.055  0.3209  0.3518 -0.1032
16067TIP3    H169692   0.487   2.307   6.010  2.0524  0.2648  0.3655
16067TIP3    H269693   0.389   2.241   6.105  0.7205  1.7904  0.0930
16068TIP3   OH269694   6.462   4.744   5.576 -0.4188  0.3251  0.1212
16068TIP3    H169695   6.369   4.735   5.553 -0.6026  0.0552  0.9431
16068TIP3    H269696   6.508   4.740   5.492 -1.2262  1.5557 -0.3979
16069TIP3   OH269697   1.591   4.677  16.317 -0.3982  0.3095  0.1217
16069TIP3    H169698   1.527   4.675  16.246  0.4190 -0.7779 -0.6259
16069TIP3    H269699   1.635   4.591  16.312  0.3502  0.5981  1.3132
16070TIP3   OH269700   6.231   2.261  12.834  0.7536  0.5419 -0.4983
16070TIP3    H169701   6.183   2.182  12.809  2.0111 -0.0489 -1.1339
16070TIP3    H269702   6.185   2.294  12.912 -0.9925  0.3280 -1.3906
16071TIP3   OH269703   2.252   6.008  14.677  0.6670 -0.1141 -0.1962
16071TIP3    H169704   2.171   6.039  14.717  0.0183 -0.4708 -1.1957
16071TIP3    H269705   2.234   5.917  14.653  1.3151 -0.1563 -0.5615
16072TIP3   OH269706   1.423   2.138   1.925  0.6741  0.4575  0.1177
16072TIP3    H169707   1.469   2.187   1.856  0.6504 -1.0025 -0.9962
16072TIP3    H269708   1.357   2.199   1.957  2.7673  2.3112  1.1569
16073TIP3   OH269709   6.804   3.102   5.039 -0.2801 -0.3702  0.3244
16073TIP3    H169710   6.820   3.090   5.132 -1.0660 -0.6022  0.4352
16073TIP3    H269711   6.711   3.080   5.027 -0.9581  2.3534 -0.0403
16074TIP3   OH269712   2.909   1.647   4.778 -0.1506  0.2980  0.0158
16074TIP3    H169713   2.874   1.696   4.853  2.2018  3.3044 -0.6299
16074TIP3    H269714   2.863   1.684   4.702 -0.9941 -1.2375 -0.2698
16075TIP3   OH269715   0.456   0.450  13.139  0.0227 -0.6470 -0.0346
16075TIP3    H169716   0.471   0.371  13.191  0.2786 -1.0894 -0.7559
16075TIP3    H269717   0.527   0.449  13.074  2.2435  2.0946  2.1240
16076TIP3   OH269718   5.557   6.407   3.978  0.1453  0.6406  0.1812
16076TIP3    H169719   5.581   6.411   3.885  1.9071  1.6137  0.6302
16076TIP3    H269720   5.545   6.314   3.996 -0.1695  0.4363 -0.9971
16077TIP3   OH269721   3.997   1.301   3.372  0.0877 -0.4091  0.2598
16077TIP3    H169722   4.023   1.239   3.304 -0.5702 -0.4701  0.0622
16077TIP3    H269723   3.909   1.328   3.348  0.9852  2.0217 -0.7046
16078TIP3   OH269724   0.313   5.520  13.082 -0.4006 -0.2190  0.5695
16078TIP3    H169725   0.257   5.589  13.118 -0.4140  0.0650  0.0133
16078TIP3    H269726   0.343   5.555  12.998  0.5396 -0.4055  0.8208
16079TIP3   OH269727   3.614   0.288  11.582 -0.4687 -0.0058 -0.1462
16079TIP3    H169728   3.684   0.297  11.647  1.8427  0.2608 -2.5197
16079TIP3    H269729   3.568   0.208  11.608  1.4891 -0.8868  0.8728
16080TIP3   OH269730   5.879   6.814  10.628 -0.1170 -0.0759  0.4671
16080TIP3    H169731   5.816   6.744  10.644 -2.3721  2.1314  1.9594
16080TIP3    H269732   5.858   6.845  10.540 -0.0062 -0.3938  0.3271
16081TIP3   OH269733   0.537   0.469   6.107  0.5010  0.2055 -0.4539
16081TIP3    H169734   0.499   0.555   6.123 -2.6072 -0.3994 -3.3489
16081TIP3    H269735   0.625   0.487   6.073  1.0293  1.9762  1.6289
16082TIP3   OH269736   3.008   3.997   2.793 -0.0797 -0.4786  0.5519
16082TIP3    H169737   2.941   3.968   2.855  0.0876 -1.0711  0.4600
16082TIP3    H269738   3.068   4.049   2.845 -1.0055  0.6799  0.4933
16083TIP3   OH269739   5.493   1.900  12.329 -0.1233 -0.1127  0.8205
16083TIP3    H169740   5.526   1.939  12.248 -0.1286  0.5195  1.1236
16083TIP3    H269741   5.563   1.912  12.392  0.0359 -0.9529  0.8139
16084TIP3   OH269742   1.764   4.764  15.722 -0.1054  0.0787  0.4031
16084TIP3    H169743   1.811   4.843  15.695 -0.7290 -0.2023 -1.6870
16084TIP3    H269744   1.828   4.693  15.713  0.0116  0.1261  0.8150
16085TIP3   OH269745   2.093   2.974  11.701  0.2031 -0.0144  0.4643
16085TIP3    H169746   2.185   2.955  11.684 -0.3562 -2.6426 -0.0964
16085TIP3    H269747   2.088   2.983  11.796  1.0488  0.3410  0.4892
16086TIP3   OH269748   1.252   0.014  15.294  0.6811  0.4318 -0.1178
16086TIP3    H169749   1.227   0.019  15.386  1.8791 -2.0362  0.4361
16086TIP3    H269750   1.257   0.105  15.265 -2.4085  1.2142  1.4386
16087TIP3   OH269751   4.175   0.952  15.308 -0.5752  0.4668 -0.1334
16087TIP3    H169752   4.098   0.919  15.354 -0.2680  1.9275  1.5111
16087TIP3    H269753   4.153   1.043  15.287  1.2168  1.3597  1.6576
16088TIP3   OH269754   0.022   0.413   1.390 -0.4559  0.8325  0.2006
16088TIP3    H169755   0.096   0.450   1.439 -0.1675  0.7856 -0.1912
16088TIP3    H269756   0.045   0.320   1.381 -1.4835  0.3906  1.7553
16089TIP3   OH269757   1.481   4.283   1.215  0.0060 -0.0331  0.0325
16089TIP3    H169758   1.570   4.261   1.242 -0.8247 -2.4133  1.0957
16089TIP3    H269759   1.465   4.369   1.254  1.5835  0.0938  0.4563
16090TIP3   OH269760   3.746   2.455   5.630  0.3069  0.1286 -0.4901
16090TIP3    H169761   3.806   2.391   5.670 -1.2607  0.5183  2.9009
16090TIP3    H269762   3.659   2.418   5.644 -0.6316  2.7112  1.2419
16091TIP3   OH269763   0.251   2.610  13.413  0.1307  0.2534 -0.3050
16091TIP3    H169764   0.333   2.592  13.367  1.6116  2.1956  1.3731
16091TIP3    H269765   0.222   2.525  13.446  2.6684 -0.2355  0.8964
16092TIP3   OH269766   4.938   0.846   4.950 -0.2492 -0.1610 -0.0721
16092TIP3    H169767   4.927   0.905   4.876 -1.2314  0.9203  0.9075
16092TIP3    H269768   4.871   0.779   4.938 -1.4498  0.8794  0.6318
16093TIP3   OH269769   2.449   5.857   0.470  0.2393 -0.1963  0.5604
16093TIP3    H169770   2.413   5.927   0.525 -1.4017  0.0561 -0.7661
16093TIP3    H269771   2.465   5.899   0.386  1.7044 -0.8337  0.5071
16094TIP3   OH269772   3.502   2.737   4.618  0.2851  0.1609  0.1155
16094TIP3    H169773   3.477   2.663   4.563  3.3173 -1.6252  0.9609
16094TIP3    H269774   3.486   2.708   4.707 -0.4396  1.3666  0.4095
16095TIP3   OH269775   2.996   0.769  14.326  0.2708  0.1326 -0.1025
16095TIP3    H169776   2.934   0.719  14.273 -0.4653 -0.5284  1.3463
16095TIP3    H269777   3.052   0.703  14.367 -0.3161  0.4957  1.3457
16096TIP3   OH269778   2.308   0.492  11.957  0.5894  0.5631 -0.1994
16096TIP3    H169779   2.264   0.418  11.915  0.9459 -0.4813  1.1818
16096TIP3    H269780   2.395   0.493  11.917  0.2039  0.9926 -1.0581
16097TIP3   OH269781   2.098   0.057   5.290  0.5212 -0.1338 -0.5596
16097TIP3    H169782   2.163   0.126   5.284  2.6107 -1.4194  3.3475
16097TIP3    H269783   2.047   0.079   5.368 -0.4404 -1.6850 -0.7066
16098TIP3   OH269784   2.732   1.417   0.296  0.3141  0.0719 -0.0362
16098TIP3    H169785   2.710   1.415   0.203  1.6411 -3.7852 -0.4755
16098TIP3    H269786   2.648   1.410   0.342 -0.3355  1.8403 -0.8925
16099TIP3   OH269787   0.886   4.701   1.034 -0.5935  0.5511  0.0511
16099TIP3    H169788   0.865   4.748   1.114 -1.1067 -1.0788  0.9194
16099TIP3    H269789   0.825   4.627   1.033 -3.2947  2.4259 -3.7288
16100TIP3   OH269790   3.062   6.727  14.018  0.8980  0.2779 -0.1093
16100TIP3    H169791   3.059   6.708  13.924  0.6499 -0.0100 -0.0470
16100TIP3    H269792   3.006   6.660  14.057 -0.6908  1.6400  0.0461
16101TIP3   OH269793   0.399   0.388  15.179 -0.3082  0.5498  0.1473
16101TIP3    H169794   0.489   0.377  15.147 -0.5346  1.0741 -0.7011
16101TIP3    H269795   0.401   0.469  15.230  0.1762 -0.5618  1.9979
16102TIP3   OH269796   1.570   2.755   1.709  0.0791  0.2720  0.8547
16102TIP3    H169797   1.502   2.691   1.734  0.7080 -1.0185 -0.5426
16102TIP3    H269798   1.651   2.704   1.710  0.2280  0.1150 -3.2322
16103TIP3   OH269799   3.487   1.473  16.805 -0.4572 -0.6773  0.4843
16103TIP3    H169800   3.412   1.506  16.756 -1.1731 -0.9103  1.3884
16103TIP3    H269801   3.472   1.379  16.813 -0.1824 -0.6924  0.8667
16104TIP3   OH269802   5.301   4.405   3.561 -0.9334 -0.2569 -0.1941
16104TIP3    H169803   5.298   4.492   3.522  1.0340  0.8026  1.7950
16104TIP3    H269804   5.379   4.364   3.523  0.0792  0.1817  1.3391
16105TIP3   OH269805   0.387   2.607   1.605  0.2904  0.1361  0.0985
16105TIP3    H169806   0.378   2.670   1.533  0.2170 -0.2429 -0.2232
16105TIP3    H269807   0.312   2.549   1.597  0.9621 -0.7068 -0.3102
16106TIP3   OH269808   4.060   1.229   3.747 -0.2037  0.3259 -0.1341
16106TIP3    H169809   4.126   1.231   3.677 -1.2987 -0.4562 -1.2187
16106TIP3    H269810   4.067   1.141   3.783 -0.4584  0.3436 -0.0454
16107TIP3   OH269811   6.716   3.987  13.789 -0.5299  0.5848  0.2837
16107TIP3    H169812   6.636   3.978  13.841 -0.2459  1.1211  0.8417
16107TIP3    H269813   6.786   3.990  13.855 -0.1804  1.4828 -0.1170
16108TIP3   OH269814   3.997   2.160   1.104 -0.1175 -0.6533 -0.0112
16108TIP3    H169815   3.922   2.176   1.046  0.7554  0.4253 -0.8899
16108TIP3    H269816   3.961   2.106   1.174 -2.2519  1.5865  0.7906
16109TIP3   OH269817   1.885   0.233   5.089 -0.2953 -0.1249  0.1928
16109TIP3    H169818   1.884   0.210   4.996  0.3944 -0.2893  0.2216
16109TIP3    H269819   1.875   0.150   5.135  0.0084 -0.1246  0.2674
16110TIP3   OH269820   2.296   1.774   2.804  0.4380  0.4896  0.3546
16110TIP3    H169821   2.380   1.738   2.834  0.6508  0.3148 -0.4279
16110TIP3    H269822   2.234   1.701   2.813  0.7927  0.0234 -0.8944
16111TIP3   OH269823   4.548   5.845   5.274  0.3948 -0.0984 -0.4794
16111TIP3    H169824   4.482   5.905   5.241 -1.4168 -0.5712  1.9796
16111TIP3    H269825   4.615   5.901   5.313 -0.6144  0.4091  0.5964
16112TIP3   OH269826   0.889   4.721   1.792 -0.0579 -0.3656 -0.3012
16112TIP3    H169827   0.875   4.800   1.741  2.5941  0.7643  0.4873
16112TIP3    H269828   0.948   4.668   1.739 -0.4777 -1.0345 -0.1097
16113TIP3   OH269829   1.441   5.721  12.756  0.3622 -0.5852 -0.2474
16113TIP3    H169830   1.474   5.805  12.725 -0.6187 -0.1982 -0.2660
16113TIP3    H269831   1.497   5.656  12.713  0.9635  0.0402 -0.4322
16114TIP3   OH269832   3.122   0.757  15.693 -0.3628 -0.0742 -0.0571
16114TIP3    H169833   3.034   0.731  15.665 -0.4202  1.8273 -1.8218
16114TIP3    H269834   3.177   0.738  15.618  0.9072 -1.7309  1.2147
16115TIP3   OH269835   5.499   3.230  11.186 -0.0222  0.2663 -0.4388
16115TIP3    H169836   5.513   3.214  11.093  0.0554 -0.1483 -0.3584
16115TIP3    H269837   5.473   3.145  11.222 -0.2388  0.4654 -0.1176
16116TIP3   OH269838   5.407   2.612   6.757  0.0475 -0.1015 -1.1009
16116TIP3    H169839   5.443   2.682   6.811  0.5470 -0.7155 -0.6167
16116TIP3    H269840   5.467   2.605   6.683  1.7481 -1.9628  0.3280
16117TIP3   OH269841   2.222   6.115  10.693  0.1545 -0.3385  0.0167
16117TIP3    H169842   2.277   6.046  10.657  0.8713  1.1174 -1.8646
16117TIP3    H269843   2.135   6.075  10.702  0.6147 -1.5445 -0.7852
16118TIP3   OH269844   3.831   3.076  11.938  0.5111  0.1572 -0.1515
16118TIP3    H169845   3.819   2.986  11.967  1.2910  0.9113  2.8942
16118TIP3    H269846   3.923   3.081  11.912  0.5810  0.1579  0.0913
16119TIP3   OH269847   1.744   1.768  12.817 -0.1083 -0.9847  0.5689
16119TIP3    H169848   1.691   1.689  12.812 -0.9465 -0.4730  1.1982
16119TIP3    H269849   1.713   1.814  12.895 -0.5162  0.5832 -0.4542
16120TIP3   OH269850   1.239   3.860   1.973  0.1028 -0.0072 -0.0541
16120TIP3    H169851   1.158   3.814   1.994  0.7086 -1.0006  0.1567
16120TIP3    H269852   1.305   3.791   1.967  1.4330  0.9505  2.1862
16121TIP3   OH269853   2.234   1.074  11.409 -0.5305 -0.0574  0.2485
16121TIP3    H169854   2.195   1.145  11.459  0.0068  0.2750  0.2000
16121TIP3    H269855   2.159   1.023  11.378 -1.0070  1.2780 -0.9068
16122TIP3   OH269856   5.255   5.439  11.732 -0.4509  0.4384 -0.9226
16122TIP3    H169857   5.315   5.509  11.758  0.2291 -0.0135 -1.2385
16122TIP3    H269858   5.183   5.484  11.688  0.2513  0.8987 -1.6203
16123TIP3   OH269859   1.812   2.853   6.130 -0.8083 -0.5393  0.2085
16123TIP3    H169860   1.813   2.935   6.179  0.0095  1.1777 -2.4772
16123TIP3    H269861   1.892   2.808   6.158 -0.7525  0.0228  0.9903
16124TIP3   OH269862   1.577   3.327   1.485  0.4546  0.8264 -0.1072
16124TIP3    H169863   1.493   3.294   1.515 -0.2291  1.5487 -1.1443
16124TIP3    H269864   1.636   3.252   1.491 -0.3287  0.2362  0.3837
16125TIP3   OH269865   3.218   3.697   4.894  0.2767  0.3983 -0.6003
16125TIP3    H169866   3.131   3.698   4.932  0.2827  0.1303 -0.5783
16125TIP3    H269867   3.276   3.672   4.966  0.4503  1.1702 -0.4591
16126TIP3   OH269868   1.423   1.164  15.379  0.1002  0.2880 -0.3992
16126TIP3    H169869   1.483   1.137  15.310 -0.3340  1.4061 -1.2454
16126TIP3    H269870   1.478   1.176  15.456  1.0412  1.6132 -1.2372
16127TIP3   OH269871   2.825   2.463   0.249  0.1589 -0.0735  0.0618
16127TIP3    H169872   2.817   2.472   0.344 -3.8205  0.3776 -0.1523
16127TIP3    H269873   2.800   2.371   0.232 -0.8107  0.2891 -0.5915
16128TIP3   OH269874   0.208   2.051   3.852  0.3802  0.0515  0.2785
16128TIP3    H169875   0.257   2.022   3.928 -1.1249  0.4945  1.4641
16128TIP3    H269876   0.118   2.023   3.869  0.1304 -0.5261 -1.7105
16129TIP3   OH269877   3.630   2.091   3.402 -0.4386 -0.1203  0.1774
16129TIP3    H169878   3.699   2.145   3.442  0.1113 -0.8617  0.2428
16129TIP3    H269879   3.657   2.001   3.417 -0.0504 -0.4567 -2.1037
16130TIP3   OH269880   4.159   3.011  10.589  0.3686 -0.0900  0.1780
16130TIP3    H169881   4.079   3.064  10.586  1.0804  1.0201  0.1083
16130TIP3    H269882   4.130   2.922  10.571 -0.6493  0.5160 -1.3139
16131TIP3   OH269883   6.361   3.228  11.263 -0.4967  0.1392  0.3121
16131TIP3    H169884   6.448   3.196  11.285 -0.2948  1.7981  2.1850
16131TIP3    H269885   6.315   3.151  11.230  1.6872 -0.7439 -0.8902
16132TIP3   OH269886   1.029   2.007   3.340 -0.1386  0.0893  0.1201
16132TIP3    H169887   0.943   1.974   3.315  0.0282 -0.5853  0.4112
16132TIP3    H269888   1.085   1.930   3.339 -0.1425 -0.0213  2.7045
16133TIP3   OH269889   5.585   1.390   1.872 -0.1024  0.2375  0.3068
16133TIP3    H169890   5.583   1.405   1.967 -0.6325 -1.8847  0.6727
16133TIP3    H269891   5.671   1.424   1.845 -0.2789  1.6386  1.3712
16134TIP3   OH269892   3.121   1.877   6.387  0.0167  0.1695  0.0791
16134TIP3    H169893   3.165   1.950   6.431 -0.6176  0.6290 -0.0497
16134TIP3    H269894   3.029   1.901   6.385  0.0422  0.2192 -1.6347
16135TIP3   OH269895   2.938   6.732   1.102  0.3398 -0.1423 -0.0389
16135TIP3    H169896   3.025   6.695   1.118  0.0362 -2.6642 -3.1738
16135TIP3    H269897   2.954   6.823   1.077  1.9257 -0.2144  0.6125
16136TIP3   OH269898   5.129   5.100  16.017 -0.4042  0.0194  0.1692
16136TIP3    H169899   5.162   5.104  15.927 -2.8049  1.7413 -0.7455
16136TIP3    H269900   5.166   5.177  16.059  1.5956 -1.3543  1.0805
16137TIP3   OH269901   4.313   3.684   1.775  0.5443 -0.2400  0.8497
16137TIP3    H169902   4.272   3.646   1.697  2.3678  1.6104 -1.1567
16137TIP3    H269903   4.397   3.639   1.781  0.4190 -0.3577  1.7679
16138TIP3   OH269904   6.159   5.496   5.747  1.0980 -0.0394 -0.1848
16138TIP3    H169905   6.113   5.564   5.699  1.9772  2.4826  2.2879
16138TIP3    H269906   6.250   5.501   5.719  1.1784 -0.1650  0.0414
16139TIP3   OH269907   4.446   4.624  11.623  0.3847  0.4571  0.0089
16139TIP3    H169908   4.441   4.688  11.551 -0.3931 -0.3670 -0.6885
16139TIP3    H269909   4.528   4.646  11.669 -0.2851  2.5016  0.3165
16140TIP3   OH269910   4.126   0.029   1.083 -0.6781  0.3010  0.3675
16140TIP3    H169911   4.102  -0.062   1.066 -0.2830  0.4998 -1.4751
16140TIP3    H269912   4.062   0.080   1.034 -0.5487  1.0035  0.9158
16141TIP3   OH269913   0.309   2.965  15.817  0.7793  0.8243  0.5327
16141TIP3    H169914   0.386   2.957  15.761  1.4195  0.2846  1.4547
16141TIP3    H269915   0.333   2.920  15.898 -0.6039  0.4177  0.7483
16142TIP3   OH269916   2.439   3.749  15.643 -0.5353 -0.3494 -0.1911
16142TIP3    H169917   2.513   3.797  15.606  0.6405 -2.0866 -0.2242
16142TIP3    H269918   2.364   3.807  15.631  0.8908  1.7151  0.3471
16143TIP3   OH269919   2.592   6.021  13.094 -0.3926 -1.1785 -0.0021
16143TIP3    H169920   2.534   6.036  13.169 -0.0468 -1.4422  0.3231
16143TIP3    H269921   2.636   6.105  13.082  1.1495 -1.7062  1.4834
16144TIP3   OH269922   4.787   0.308  13.078  0.7508  0.4961  0.4613
16144TIP3    H169923   4.715   0.290  13.138  0.0807 -1.4266 -0.8252
16144TIP3    H269924   4.866   0.277  13.123  0.1792 -1.5149  0.1722
16145TIP3   OH269925   5.451   0.031   5.336  0.6067 -0.0865  0.0016
16145TIP3    H169926   5.487  -0.033   5.397 -0.3507  0.5948  1.3156
16145TIP3    H269927   5.357   0.014   5.335  0.2986  1.4467  0.5888
16146TIP3   OH269928   5.657   2.357   4.075 -0.3502  0.2041  0.0349
16146TIP3    H169929   5.674   2.419   4.004 -0.2049  0.1684  0.0383
16146TIP3    H269930   5.564   2.367   4.094  0.1203  2.1584  1.6658
16147TIP3   OH269931   0.483   4.698   1.228  0.2863 -0.1365 -0.2560
16147TIP3    H169932   0.493   4.627   1.292 -0.2357  0.0063 -0.0214
16147TIP3    H269933   0.506   4.777   1.276 -0.3505  0.0009 -0.1715
16148TIP3   OH269934   2.259   1.993  16.338  0.2922 -1.0573 -0.1521
16148TIP3    H169935   2.310   1.949  16.270 -0.4333 -1.8142 -0.2210
16148TIP3    H269936   2.294   2.082  16.340  0.3225 -1.0139 -1.5297
16149TIP3   OH269937   2.400   2.875   1.688 -0.1565 -0.3085  0.7057
16149TIP3    H169938   2.451   2.953   1.709 -0.3963 -0.2188  0.9817
16149TIP3    H269939   2.349   2.859   1.768  0.3804 -1.1376  0.8948
16150TIP3   OH269940   2.402   5.196  16.238  0.0239  1.1789  0.6437
16150TIP3    H169941   2.325   5.140  16.229 -1.0625  2.5099  1.1661
16150TIP3    H269942   2.423   5.193  16.332 -1.3660  3.2264  1.0924
16151TIP3   OH269943   0.760   1.794   2.819  0.1754 -0.5011 -0.0921
16151TIP3    H169944   0.764   1.889   2.809  1.4938 -0.4946  0.3008
16151TIP3    H269945   0.695   1.779   2.887 -0.5600  0.0703 -0.6565
16152TIP3   OH269946   0.174   1.465  12.863 -0.3964 -0.7696  0.3591
16152TIP3    H169947   0.185   1.549  12.908 -1.1952 -0.0600 -0.7103
16152TIP3    H269948   0.143   1.405  12.931  1.8005 -0.6700  1.5277
16153TIP3   OH269949   5.194   1.691   2.998 -0.3599 -0.4052 -0.4239
16153TIP3    H169950   5.260   1.700   2.929 -1.7027  1.3461 -1.5526
16153TIP3    H269951   5.130   1.630   2.962  0.3661 -1.7659  0.4987
16154TIP3   OH269952   5.116   1.045   5.713 -0.0595  0.2321 -0.2018
16154TIP3    H169953   5.126   0.954   5.739  2.1494 -0.0460 -1.7955
16154TIP3    H269954   5.190   1.062   5.654 -0.7743  2.8651 -0.4632
16155TIP3   OH269955   5.276   6.716  15.443  0.0046 -0.8067 -0.0884
16155TIP3    H169956   5.323   6.789  15.405 -0.3632  0.3923  1.6230
16155TIP3    H269957   5.302   6.640  15.391  3.7911 -0.2478  0.6776
16156TIP3   OH269958   5.873   0.768   0.813 -0.4652 -0.2253  0.0178
16156TIP3    H169959   5.875   0.843   0.753  2.0257  0.4444  0.8124
16156TIP3    H269960   5.858   0.807   0.899  0.3265 -0.6918  0.3730
16157TIP3   OH269961   5.405   4.037  16.163  0.3221  0.8287  0.2908
16157TIP3    H169962   5.319   4.002  16.141  0.5408  1.0636 -1.0416
16157TIP3    H269963   5.409   4.120  16.116  1.3511  0.7282  0.1854
16158TIP3   OH269964   5.716   3.000  16.412 -0.1728  0.1996  0.3043
16158TIP3    H169965   5.758   2.930  16.461  0.3819  1.1582  1.2406
16158TIP3    H269966   5.768   3.078  16.432 -1.8106  1.2329  0.7375
16159TIP3   OH269967   3.780   4.672   3.830 -0.3247  0.4478  0.1797
16159TIP3    H169968   3.729   4.699   3.754 -1.8046 -0.2201  0.8977
16159TIP3    H269969   3.733   4.710   3.904  0.1043 -0.3579  0.8730
16160TIP3   OH269970   5.162   0.565  12.328  0.1681  0.0501 -0.0173
16160TIP3    H169971   5.084   0.512  12.344  0.4484 -0.0782  1.0215
16160TIP3    H269972   5.130   0.656  12.333 -0.1880  0.0091 -1.1495
16161TIP3   OH269973   3.735   1.307   0.387  0.0292  0.4130  0.0522
16161TIP3    H169974   3.773   1.384   0.343  0.1252  0.3816  0.0795
16161TIP3    H269975   3.808   1.245   0.392 -0.6400 -0.6632 -2.1931
16162TIP3   OH269976   6.484   5.712   1.575  0.1535 -0.0062 -0.3683
16162TIP3    H169977   6.419   5.755   1.631 -0.4849 -0.2458 -0.9141
16162TIP3    H269978   6.489   5.767   1.497 -1.4075 -1.3925 -1.5177
16163TIP3   OH269979   3.986   4.493  11.736  0.6799 -0.1707  0.1907
16163TIP3    H169980   3.917   4.435  11.767  0.3774  0.5659  0.9492
16163TIP3    H269981   4.038   4.440  11.676 -0.7787 -0.6114 -0.7208
16164TIP3   OH269982   4.808   0.357   4.409 -0.1637 -0.4933  0.1339
16164TIP3    H169983   4.856   0.287   4.364  3.0131  0.8907  1.1062
16164TIP3    H269984   4.866   0.433   4.405 -2.8320  1.7252  0.4446
16165TIP3   OH269985   0.687   2.168   4.890  0.0836 -0.3255  0.0104
16165TIP3    H169986   0.628   2.188   4.962  0.6260 -1.0238  0.6632
16165TIP3    H269987   0.630   2.162   4.813 -0.5069  0.3545  0.3812
16166TIP3   OH269988   1.343   0.031   0.632  0.4976 -0.1467  0.2560
16166TIP3    H169989   1.301  -0.045   0.672  0.6842 -1.0812 -1.2502
16166TIP3    H269990   1.435   0.006   0.623  1.0935  1.2415  2.0058
16167TIP3   OH269991   3.180   4.318   6.326 -0.1474  0.3888  0.2799
16167TIP3    H169992   3.195   4.299   6.418 -1.0823 -0.1626  0.3288
16167TIP3    H269993   3.086   4.304   6.313 -0.0541  0.5854 -0.7275
16168TIP3   OH269994   1.206   3.141  11.870  0.7079 -0.4679  0.0090
16168TIP3    H169995   1.225   3.102  11.785 -0.8987  0.6131 -0.9017
16168TIP3    H269996   1.267   3.215  11.877  2.1267 -1.6386  0.6894
16169TIP3   OH269997   5.667   1.763   0.061  0.0950 -0.1291  0.0140
16169TIP3    H169998   5.634   1.767   0.151 -1.9042 -0.5038 -0.6628
16169TIP3    H269999   5.757   1.797   0.067  0.5932 -1.6693  2.3960
16170TIP3   OH270000   6.003   6.086  12.556 -0.1156 -0.4131  0.3702
16170TIP3    H170001   5.986   6.172  12.517 -0.3052 -0.9626 -0.8113
16170TIP3    H270002   5.948   6.083  12.633 -1.7334 -0.2614 -0.7292
16171TIP3   OH270003   5.949   6.701   0.883 -0.3419  0.4695  0.1437
16171TIP3    H170004   5.975   6.614   0.911  0.8509  0.0139 -2.1545
16171TIP3    H270005   5.861   6.690   0.847  0.5038 -0.2353 -1.8360
16172TIP3   OH270006   5.478   0.904  16.402 -0.7146 -0.3530 -0.5278
16172TIP3    H170007   5.568   0.881  16.425 -0.5948 -0.9499 -1.5087
16172TIP3    H270008   5.475   0.999  16.407 -0.3196 -0.3825  0.5067
16173TIP3   OH270009   4.829   0.423   1.825  0.5649  0.8425  0.1785
16173TIP3    H170010   4.883   0.450   1.751 -0.2784 -0.4233 -0.9703
16173TIP3    H270011   4.867   0.340   1.853  0.3032  0.8395  0.5305
16174TIP3   OH270012   2.192   3.588   4.506  0.4999  0.0849 -0.1745
16174TIP3    H170013   2.232   3.542   4.580  1.6949 -0.4716 -1.1376
16174TIP3    H270014   2.198   3.680   4.530  1.0042 -0.0790  0.3686
16175TIP3   OH270015   1.410   3.657   2.088 -0.0776 -0.0980  0.4455
16175TIP3    H170016   1.423   3.570   2.050  0.8972  0.5599 -0.8026
16175TIP3    H270017   1.493   3.675   2.132  0.6879  1.1765 -1.4030
16176TIP3   OH270018   0.627   1.641   0.219 -0.4753  0.1197  0.6049
16176TIP3    H170019   0.603   1.727   0.253 -1.7070  0.7961 -1.7480
16176TIP3    H270020   0.554   1.585   0.243 -0.3856  0.0949  0.8233
16177TIP3   OH270021   5.679   0.663   2.275 -0.3375  0.4769  0.2569
16177TIP3    H170022   5.769   0.629   2.278  0.0581  1.5112  2.1599
16177TIP3    H270023   5.671   0.716   2.355 -2.0472  1.9100 -0.7779
16178TIP3   OH270024   6.709   4.443  17.047 -0.5273  0.1990  0.0866
16178TIP3    H170025   6.661   4.511  17.000 -2.7111 -1.9944 -1.0316
16178TIP3    H270026   6.642   4.386  17.082  1.2267 -1.3372  1.1136
16179TIP3   OH270027   4.403   6.559   0.592  0.4013  0.1032 -0.1908
16179TIP3    H170028   4.357   6.623   0.538  0.7421  0.4150 -0.1118
16179TIP3    H270029   4.447   6.502   0.528 -1.2576 -1.1038 -0.3270
16180TIP3   OH270030   0.846   0.367   5.059 -0.4898  0.3893  0.2154
16180TIP3    H170031   0.909   0.318   5.112  0.6807  0.2199 -1.2585
16180TIP3    H270032   0.870   0.458   5.072  1.5814  0.2824 -1.9685
16181TIP3   OH270033   6.447   0.659   5.672  0.9109 -0.4670  0.0152
16181TIP3    H170034   6.389   0.584   5.665  0.5312 -0.2612  0.8640
16181TIP3    H270035   6.409   0.713   5.741  1.6151  0.1181 -0.0364
16182TIP3   OH270036   0.088   4.994   0.247 -0.4412  0.2077  0.2940
16182TIP3    H170037   0.159   4.981   0.185  0.1455 -1.9438  1.2969
16182TIP3    H270038   0.017   5.033   0.196  1.0315  1.3425 -0.9842
16183TIP3   OH270039   5.424   0.250  13.161  0.2832  0.5014 -0.0495
16183TIP3    H170040   5.404   0.259  13.067 -1.0878  1.2503  0.2924
16183TIP3    H270041   5.449   0.338  13.189 -1.2240  0.7184  0.6897
16184TIP3   OH270042   3.391   0.000  11.445  0.6663  0.1892  0.2305
16184TIP3    H170043   3.471  -0.043  11.415  1.3273  1.5264  0.0161
16184TIP3    H270044   3.355   0.041  11.367 -1.0353 -1.5643  0.0162
16185TIP3   OH270045   3.126   0.469   0.553  0.0926  0.4334  0.0283
16185TIP3    H170046   3.191   0.447   0.619  2.3703  0.4101 -2.0782
16185TIP3    H270047   3.165   0.543   0.506 -2.7043  2.2887  0.3953
16186TIP3   OH270048   6.752   6.735   6.022 -0.1158 -0.4448  0.2080
16186TIP3    H170049   6.819   6.666   6.021  1.1790  0.7447  0.6732
16186TIP3    H270050   6.728   6.743   6.115  1.1939  1.0004  0.4802
16187TIP3   OH270051   1.851   2.374   3.200  0.0106 -0.6143  0.2552
16187TIP3    H170052   1.912   2.421   3.256  0.1625 -0.2539 -0.2058
16187TIP3    H270053   1.834   2.434   3.127 -0.3962 -0.9644  0.0550
16188TIP3   OH270054   2.987   2.976  11.223 -0.8742 -0.3814  0.4373
16188TIP3    H170055   3.011   2.939  11.138  0.5150  0.2698  0.5056
16188TIP3    H270056   2.973   3.069  11.206  0.3642 -0.0489  1.0422
16189TIP3   OH270057   3.473   3.868   1.929  0.6115 -0.4505  0.6856
16189TIP3    H170058   3.393   3.891   1.882  0.5226  0.9195  1.4420
16189TIP3    H270059   3.444   3.857   2.020  1.5897  2.6313  1.5039
16190TIP3   OH270060   0.558   3.473  12.869 -0.2720 -0.0114  0.2582
16190TIP3    H170061   0.555   3.399  12.930 -0.3299 -1.2400 -1.1805
16190TIP3    H270062   0.470   3.478  12.833  0.2596 -0.6062 -1.1856
16191TIP3   OH270063   2.057   3.685  12.820 -0.4585 -0.1953 -0.5385
16191TIP3    H170064   2.129   3.727  12.867 -2.5063  1.7246  1.1354
16191TIP3    H270065   2.068   3.592  12.836  1.5239  0.0687 -0.1592
16192TIP3   OH270066   3.052   3.750   2.434 -0.1700 -0.0018  0.2001
16192TIP3    H170067   2.987   3.679   2.438  0.0448 -0.2543 -0.5563
16192TIP3    H270068   3.093   3.739   2.348 -0.1112  1.0212  0.0887
16193TIP3   OH270069   5.658   0.061   2.211  0.5377  0.3131 -0.4334
16193TIP3    H170070   5.653   0.052   2.306  1.1498 -0.7358 -0.4855
16193TIP3    H270071   5.605   0.138   2.191 -1.6860 -0.9033  0.5107
16194TIP3   OH270072   5.164   4.850   6.504  0.0305 -0.4456 -0.5843
16194TIP3    H170073   5.075   4.862   6.472  0.6591 -0.7088 -2.5277
16194TIP3    H270074   5.173   4.916   6.574 -0.7203  1.7003 -2.3954
16195TIP3   OH270075   1.402   5.766  11.432  0.0808 -0.4076  0.6356
16195TIP3    H170076   1.403   5.808  11.346 -1.1632 -3.3825 -0.9753
16195TIP3    H270077   1.346   5.822  11.485  0.2112  1.0771 -0.7129
16196TIP3   OH270078   4.096   5.964  14.243  0.9204  0.1492  0.3892
16196TIP3    H170079   4.110   5.891  14.303 -0.5575 -0.3624  0.1663
16196TIP3    H270080   4.072   6.037  14.300 -3.1967 -0.9960  0.4622
16197TIP3   OH270081   0.899   0.410  12.069  0.4822 -0.6778 -0.1855
16197TIP3    H170082   0.804   0.420  12.077  0.6187  0.1832  0.5564
16197TIP3    H270083   0.933   0.499  12.071  1.5140 -1.0436  2.5875
16198TIP3   OH270084   4.567   1.688   3.828 -0.0119 -0.0300 -0.2423
16198TIP3    H170085   4.530   1.690   3.917 -0.8930 -1.4354 -0.5339
16198TIP3    H270086   4.638   1.624   3.834  1.1182  1.1915 -0.1615
16199TIP3   OH270087   6.526   0.874  12.089 -0.1371  0.0366  0.4182
16199TIP3    H170088   6.550   0.879  11.997  0.1083 -1.7616  0.3535
16199TIP3    H270089   6.517   0.966  12.117  1.7644  0.6688 -0.8651
16200TIP3   OH270090   5.018   6.494  14.344 -0.2995 -0.3543  0.4608
16200TIP3    H170091   5.110   6.510  14.324 -1.0738  2.0630 -1.7218
16200TIP3    H270092   4.997   6.414  14.296  0.1481  0.3526 -0.9739
16201TIP3   OH270093   0.006   4.422  11.108 -0.2878  0.1903 -0.1703
16201TIP3    H170094  -0.029   4.491  11.052 -1.0396 -0.6695 -0.7889
16201TIP3    H270095  -0.026   4.341  11.069 -2.1017 -0.4090  2.2948
16202TIP3   OH270096   1.963   4.288   0.110  0.0474 -0.4370 -0.9743
16202TIP3    H170097   1.897   4.238   0.157  1.5220 -1.5868 -0.0454
16202TIP3    H270098   1.918   4.368   0.083 -0.8098  0.5478  2.8257
16203TIP3   OH270099   2.281   4.123   2.851 -0.3134 -0.0180 -0.7977
16203TIP3    H170100   2.319   4.167   2.775 -0.9500 -1.4818 -1.9947
16203TIP3    H270101   2.357   4.091   2.900  0.0890 -1.2034 -2.1366
16204TIP3   OH270102   0.003   2.252   3.541 -0.3024  0.4120 -0.7446
16204TIP3    H170103   0.090   2.285   3.566 -0.2500  0.5371 -1.0713
16204TIP3    H270104   0.016   2.159   3.526 -0.3366  0.3387 -0.3001
16205TIP3   OH270105   3.326   3.043   5.629 -0.7076 -0.2033 -0.6118
16205TIP3    H170106   3.284   2.992   5.699 -1.5252  0.3261 -0.7072
16205TIP3    H270107   3.259   3.051   5.562 -0.1405 -0.1416 -1.1852
16206TIP3   OH270108   3.699   5.787  11.228 -0.5843 -0.3624  0.4033
16206TIP3    H170109   3.664   5.699  11.245 -0.7451 -0.4446 -0.2981
16206TIP3    H270110   3.709   5.790  11.132 -2.4653  1.0746  0.1887
16207TIP3   OH270111   0.375   5.732  16.036 -0.6577  0.1795 -0.5379
16207TIP3    H170112   0.334   5.657  15.992  0.0020 -0.4099 -0.1649
16207TIP3    H270113   0.442   5.693  16.092 -1.9695  0.8371  1.5848
16208TIP3   OH270114   6.572   2.632   6.368  0.0395 -0.2761  0.1717
16208TIP3    H170115   6.547   2.581   6.291 -0.8658 -1.5545  1.2789
16208TIP3    H270116   6.643   2.688   6.337 -0.2547 -0.8030 -1.5719
16209TIP3   OH270117   2.793   3.220  15.683  0.4138 -0.5364 -0.0977
16209TIP3    H170118   2.883   3.221  15.717  0.1404  0.3885  0.6120
16209TIP3    H270119   2.754   3.143  15.724  1.0064 -1.2340 -0.7905
16210TIP3   OH270120   0.870   6.590  14.084 -0.9232  0.4599 -0.0505
16210TIP3    H170121   0.820   6.516  14.047  0.2785 -0.7693  0.6832
16210TIP3    H270122   0.917   6.626  14.009 -1.6115  0.5614 -0.4415
16211TIP3   OH270123   1.026   4.318  13.822  0.4565 -0.0172  0.0036
16211TIP3    H170124   1.026   4.389  13.886  6.2133  0.6472 -0.2061
16211TIP3    H270125   1.006   4.239  13.873 -0.0119  1.0417  1.5194
16212TIP3   OH270126   6.286   2.948  16.971  0.6543  0.0070  0.0470
16212TIP3    H170127   6.339   2.916  17.045 -1.1212  0.1169  1.4332
16212TIP3    H270128   6.254   3.034  17.000  2.0559  1.2808 -1.9714
16213TIP3   OH270129   5.899   2.426  13.849 -0.1464  0.3848  0.7601
16213TIP3    H170130   5.965   2.381  13.796  0.3609  0.9504  0.9063
16213TIP3    H270131   5.948   2.490  13.900 -0.8524  1.0578  0.6153
16214TIP3   OH270132   1.828   1.543  12.331 -0.3520  0.1333 -0.2671
16214TIP3    H170133   1.773   1.499  12.396 -0.3987 -0.1472 -0.4960
16214TIP3    H270134   1.827   1.485  12.255  2.0290 -1.0153  0.4686
16215TIP3   OH270135   0.323   2.628  15.778 -0.0147  0.8912  0.1866
16215TIP3    H170136   0.365   2.650  15.695  2.4402  1.0070  1.3890
16215TIP3    H270137   0.362   2.545  15.805  0.0142  1.3562  1.7077
16216TIP3   OH270138   5.367   2.409   0.935  0.1023 -0.3028  0.2201
16216TIP3    H170139   5.318   2.411   1.016  0.2317  0.2975  0.2863
16216TIP3    H270140   5.330   2.479   0.882  2.1769  1.5442  1.0532
16217TIP3   OH270141   4.823   1.035   3.506  0.0908 -0.6967  0.0367
16217TIP3    H170142   4.771   1.051   3.427  0.2006 -1.0658 -0.1127
16217TIP3    H270143   4.914   1.044   3.477  0.1094  0.7600  0.4757
16218TIP3   OH270144   5.268   1.016   0.468  0.2665 -0.1372  0.2583
16218TIP3    H170145   5.297   1.071   0.540  0.1344 -0.1095  0.2907
16218TIP3    H270146   5.293   0.927   0.494 -3.1291 -0.7272  2.1603
16219TIP3   OH270147   6.819   1.655  16.485  0.0146 -0.0776  0.4704
16219TIP3    H170148   6.813   1.648  16.389  1.6966  0.7692  0.2601
16219TIP3    H270149   6.755   1.722  16.508 -0.3764 -0.2634 -0.0676
16220TIP3   OH270150   2.843   3.937   1.762  0.2674 -0.0741 -0.3905
16220TIP3    H170151   2.827   3.945   1.668  1.1715  0.1568 -0.5304
16220TIP3    H270152   2.795   3.858   1.787 -0.7075  0.3464 -0.8667
16221TIP3   OH270153   3.121   5.907   4.808 -0.0507  0.4431 -0.4224
16221TIP3    H170154   3.108   5.824   4.854  0.1009 -0.0189 -1.1872
16221TIP3    H270155   3.036   5.950   4.812 -0.7264 -0.6677 -1.7521
16222TIP3   OH270156   6.749   2.404  11.589 -0.2892  0.1370 -0.1357
16222TIP3    H170157   6.732   2.347  11.514 -3.5001  0.1352  0.4614
16222TIP3    H270158   6.806   2.353  11.646 -0.3094 -1.0764 -1.1725
16223TIP3   OH270159   6.566   0.054   0.838 -0.0833 -0.0023  0.2363
16223TIP3    H170160   6.568  -0.020   0.777  1.3852 -1.2241  1.6796
16223TIP3    H270161   6.636   0.111   0.807  0.8086 -0.7278  0.8360
16224TIP3   OH270162   1.516   6.841  11.035  0.1665 -0.0215 -0.3622
16224TIP3    H170163   1.478   6.759  11.066  0.0934  0.2438  0.2454
16224TIP3    H270164   1.441   6.894  11.009  0.2184 -0.1770 -0.8490
16225TIP3   OH270165   1.408   4.715   0.762 -0.2688  0.7781 -0.6964
16225TIP3    H170166   1.415   4.622   0.740 -0.9832  0.7071 -0.6491
16225TIP3    H270167   1.334   4.746   0.710 -0.0304  1.3201 -0.7100
16226TIP3   OH270168   5.158   6.244  12.899  0.5581 -0.3305  0.0161
16226TIP3    H170169   5.080   6.299  12.903  1.1477  0.5488 -0.4290
16226TIP3    H270170   5.187   6.249  12.808  2.2011  0.8735  0.5665
16227TIP3   OH270171   4.497   4.190   3.154  0.0121 -0.1236 -0.2579
16227TIP3    H170172   4.556   4.115   3.155 -0.7013 -0.6990 -0.1504
16227TIP3    H270173   4.457   4.188   3.067  0.9141  0.8933 -0.7253
16228TIP3   OH270174   1.523   5.011   0.379  0.0328 -0.2785 -0.1797
16228TIP3    H170175   1.481   4.979   0.299 -1.6852 -0.6756  0.8330
16228TIP3    H270176   1.548   5.101   0.360 -0.6502 -0.2691 -1.0578
16229TIP3   OH270177   3.882   3.509  12.830  0.4845  0.4418 -0.5365
16229TIP3    H170178   3.810   3.480  12.886 -0.3162  0.9913 -1.2528
16229TIP3    H270179   3.900   3.434  12.774  1.1704 -0.0482  0.3022
16230TIP3   OH270180   5.682   4.522  15.201 -0.1977 -0.0328  0.2930
16230TIP3    H170181   5.718   4.482  15.280 -0.2945 -0.2297  0.2394
16230TIP3    H270182   5.591   4.492  15.199 -0.2651  0.1757  0.2410
16231TIP3   OH270183   1.397   0.084   5.398  0.5651  0.1003 -0.3792
16231TIP3    H170184   1.485   0.092   5.434  0.4449  1.6497 -0.3730
16231TIP3    H270185   1.349   0.034   5.464  0.7800  1.4859  0.8849
16232TIP3   OH270186   3.193   6.782   1.411  0.5111  0.6309  0.3819
16232TIP3    H170187   3.253   6.818   1.345  0.8001 -0.2342  0.1648
16232TIP3    H270188   3.146   6.859   1.443  1.0201  1.1949 -0.1651
16233TIP3   OH270189   4.642   4.794   5.195  0.3823 -0.0800  0.0132
16233TIP3    H170190   4.696   4.872   5.210  0.9399 -0.2299 -1.0951
16233TIP3    H270191   4.592   4.815   5.116 -1.3709  0.1384  1.1242
16234TIP3   OH270192   0.664   6.458   3.891  0.0755 -0.0207 -0.2718
16234TIP3    H170193   0.583   6.463   3.943  0.4988  0.9753  0.2964
16234TIP3    H270194   0.637   6.410   3.812 -1.2433  0.8686 -0.4058
16235TIP3   OH270195   0.459   5.525   4.081  0.7214  0.4113  0.0447
16235TIP3    H170196   0.410   5.505   4.001  2.4473 -1.9871 -0.5414
16235TIP3    H270197   0.396   5.509   4.152 -0.1867  0.3230 -0.7532
16236TIP3   OH270198   1.745   2.759  13.064  0.1737 -0.0254  0.0383
16236TIP3    H170199   1.841   2.763  13.061  0.1324  1.1494 -0.4944
16236TIP3    H270200   1.718   2.802  12.983 -0.8077 -0.8237 -0.0660
16237TIP3   OH270201   0.452   1.096  14.296 -0.6210  0.4495 -0.1069
16237TIP3    H170202   0.546   1.083  14.300 -0.8666 -1.2304  0.9099
16237TIP3    H270203   0.422   1.087  14.386 -1.6904  1.7821 -0.2777
16238TIP3   OH270204   6.815   4.312  13.923 -0.4670  0.2048 -0.4994
16238TIP3    H170205   6.890   4.253  13.929  0.6259  1.3712 -1.9694
16238TIP3    H270206   6.744   4.258  13.888 -0.1633 -0.7593  0.3188
16239TIP3   OH270207   5.848   6.769  16.745 -0.4119  0.3884  0.2578
16239TIP3    H170208   5.849   6.674  16.763  0.1286  0.4954  0.8390
16239TIP3    H270209   5.863   6.809  16.830  0.8181  0.9572 -0.1952
16240TIP3   OH270210   2.557   4.611   0.761  0.7799  0.2813 -0.3861
16240TIP3    H170211   2.464   4.594   0.767  0.5489  1.6388  0.2120
16240TIP3    H270212   2.572   4.631   0.668  0.1005  1.9300 -0.1704
16241TIP3   OH270213   2.986   1.621   4.490  0.1943 -0.3693 -0.8980
16241TIP3    H170214   2.921   1.629   4.421 -0.7526 -3.2752 -0.4958
16241TIP3    H270215   2.936   1.594   4.567  1.5690 -0.0655  0.1343
16242TIP3   OH270216   6.746   2.619   2.418  0.1711 -0.0339 -0.2456
16242TIP3    H170217   6.836   2.622   2.449 -0.1580 -0.2052  0.7664
16242TIP3    H270218   6.698   2.573   2.487 -1.0336  1.6466  0.1173
16243TIP3   OH270219   1.032   5.910  10.990  0.5708 -0.0982 -0.7604
16243TIP3    H170220   1.071   5.921  11.077  2.4634  1.1878 -1.6874
16243TIP3    H270221   1.077   5.835  10.953 -0.0885 -0.5168 -0.7328
16244TIP3   OH270222   4.592   6.699  13.467 -0.0414  0.2227  0.1475
16244TIP3    H170223   4.585   6.773  13.408 -1.3421 -0.5261 -0.6855
16244TIP3    H270224   4.523   6.638  13.439  0.3475 -0.8716  1.4130
16245TIP3   OH270225   6.309   5.775  13.439 -0.6945 -0.0169  0.2429
16245TIP3    H170226   6.347   5.845  13.386  1.1207 -0.3087  1.0814
16245TIP3    H270227   6.216   5.797  13.444 -0.5653  1.1070 -1.3519
16246TIP3   OH270228   4.030   0.148   6.104  0.0494  0.3777 -0.2387
16246TIP3    H170229   4.100   0.098   6.062 -0.8638 -0.7513 -0.4317
16246TIP3    H270230   3.958   0.087   6.113 -0.7228  1.3650  0.5121
16247TIP3   OH270231   1.646   5.030   5.130  0.3920  0.2560 -0.1177
16247TIP3    H170232   1.666   5.020   5.037 -2.1948 -1.4230 -0.5954
16247TIP3    H270233   1.649   4.940   5.164 -2.2163  0.3616  0.5485
16248TIP3   OH270234   4.430   4.153   2.886  0.2023  0.2837  0.1281
16248TIP3    H170235   4.336   4.161   2.876  0.2593  0.8745  0.0117
16248TIP3    H270236   4.455   4.079   2.831 -0.4329 -1.0881  1.6189
16249TIP3   OH270237   2.313   3.189   6.270  0.1482 -0.2176 -0.0537
16249TIP3    H170238   2.359   3.109   6.244  1.0351  0.1039  0.4927
16249TIP3    H270239   2.383   3.254   6.280 -0.1156 -0.2513  2.9310
16250TIP3   OH270240   6.721   1.866  12.765  0.1716 -0.1133  0.9082
16250TIP3    H170241   6.761   1.917  12.694 -0.6817  0.6440  0.9518
16250TIP3    H270242   6.629   1.894  12.766 -0.8944 -3.1520 -0.4353
16251TIP3   OH270243   6.794   6.355  16.453  0.5129  0.0254  0.0433
16251TIP3    H170244   6.833   6.341  16.538  1.8361  1.6695 -0.2310
16251TIP3    H270245   6.707   6.392  16.472  0.6145 -0.0616  0.6777
16252TIP3   OH270246   5.328   3.283   5.197 -0.0484 -0.0252  0.0045
16252TIP3    H170247   5.263   3.214   5.180 -0.6407  0.9849 -2.2726
16252TIP3    H270248   5.389   3.276   5.124  1.5392  0.0708  1.2851
16253TIP3   OH270249   2.352   0.961   0.685 -0.1001 -0.3204  0.5489
16253TIP3    H170250   2.404   0.883   0.705  0.3758 -0.4458 -1.0092
16253TIP3    H270251   2.271   0.926   0.647 -0.2030 -0.0708  0.5415
16254TIP3   OH270252   0.497   1.200   4.130 -0.6457  0.1639 -0.0536
16254TIP3    H170253   0.513   1.157   4.214 -0.3018 -0.6128 -0.5015
16254TIP3    H270254   0.505   1.293   4.149  2.2958 -0.0599  0.2281
16255TIP3   OH270255   1.080   3.144  12.625  0.4521 -0.1361 -0.3230
16255TIP3    H170256   1.034   3.162  12.707 -1.1442  0.6793 -1.3365
16255TIP3    H270257   1.069   3.050  12.611 -1.4347  0.1022 -0.7746
16256TIP3   OH270258   1.051   4.243   1.086  0.0244 -0.4146  0.1504
16256TIP3    H170259   1.097   4.171   1.131 -0.9222  0.0830  2.0027
16256TIP3    H270260   1.087   4.322   1.125  0.4250  0.1263 -1.2581
16257TIP3   OH270261   2.140   0.698   4.962  0.0544 -0.0840  0.2133
16257TIP3    H170262   2.233   0.685   4.983  0.1533  1.7374  1.0858
16257TIP3    H270263   2.098   0.616   4.988  1.2766 -0.5933  0.6617
16258TIP3   OH270264   5.221   5.956  13.748  0.0401  0.3055 -0.0409
16258TIP3    H170265   5.283   5.939  13.678 -0.0822  1.2193 -0.3955
16258TIP3    H270266   5.274   5.959  13.827  0.0645 -1.6003  0.0585
16259TIP3   OH270267   2.854   3.858  15.592 -0.2224 -0.3983 -0.0711
16259TIP3    H170268   2.774   3.871  15.542 -1.3690 -0.2799  1.7024
16259TIP3    H270269   2.925   3.869  15.528 -1.5754  0.4498 -1.4857
16260TIP3   OH270270   4.241   2.351   0.295 -0.1212  0.3354 -0.2574
16260TIP3    H170271   4.150   2.320   0.299 -0.3829  1.1766  1.3406
16260TIP3    H270272   4.275   2.316   0.213 -2.1152  0.6057 -1.2643
16261TIP3   OH270273   4.198   3.693   4.676 -0.0576 -0.7717 -0.2536
16261TIP3    H170274   4.291   3.714   4.675 -0.2925  0.3462 -0.6117
16261TIP3    H270275   4.160   3.757   4.736 -0.8721  0.1852 -1.7152
16262TIP3   OH270276   1.494   6.723   3.625 -1.3921  0.8657  0.0599
16262TIP3    H170277   1.498   6.752   3.716 -1.5982  1.4673 -0.1169
16262TIP3    H270278   1.400   6.721   3.605 -1.6321 -2.7418  0.9399
16263TIP3   OH270279   4.035   5.330   4.874 -0.3137  0.5221 -0.4873
16263TIP3    H170280   4.032   5.334   4.778 -2.5140 -0.4235 -0.5298
16263TIP3    H270281   3.944   5.313   4.900  0.3774 -0.1587  1.7334
16264TIP3   OH270282   4.638   0.817   4.554  0.6550  0.0483  0.1890
16264TIP3    H170283   4.575   0.886   4.577 -1.3175 -1.2874 -0.9749
16264TIP3    H270284   4.662   0.835   4.463  2.1662  0.6284  0.6568
16265TIP3   OH270285   3.678   0.685   6.196  0.5935  0.1816 -0.0129
16265TIP3    H170286   3.647   0.643   6.116 -0.4416  0.9843 -0.0631
16265TIP3    H270287   3.633   0.639   6.267 -0.4673  1.0866 -0.0628
16266TIP3   OH270288   1.426   2.956   3.235 -0.8217 -0.1347  0.1670
16266TIP3    H170289   1.507   2.982   3.190 -1.7655  1.7880 -0.5465
16266TIP3    H270290   1.426   2.861   3.229  0.5714 -0.1087 -1.3156
16267TIP3   OH270291   6.107   3.418   4.557 -0.1337  0.0321  0.0804
16267TIP3    H170292   6.019   3.391   4.584 -0.7082  1.5722 -0.1369
16267TIP3    H270293   6.122   3.372   4.474 -2.2540  2.4084 -1.7845
16268TIP3   OH270294   2.544   2.079  15.647  0.3784  0.4043 -0.2771
16268TIP3    H170295   2.496   2.011  15.694  0.8294 -0.0936 -0.5188
16268TIP3    H270296   2.486   2.155  15.648  0.0188  0.1297  0.3144
16269TIP3   OH270297   2.664   6.308   0.283 -0.6804  0.0790  0.6073
16269TIP3    H170298   2.699   6.255   0.355  1.6843 -0.3592 -0.7355
16269TIP3    H270299   2.734   6.370   0.264 -0.3596 -1.0638 -2.5203
16270TIP3   OH270300   2.259   0.246  16.557  0.6871  0.0186  0.6804
16270TIP3    H170301   2.348   0.232  16.591  0.4780 -0.4107  1.0618
16270TIP3    H270302   2.204   0.189  16.610  0.1798  0.2755  0.4382
16271TIP3   OH270303   0.470   1.574  14.923 -0.5832 -0.0443  0.0783
16271TIP3    H170304   0.525   1.635  14.972  1.3704 -1.3623 -0.3565
16271TIP3    H270305   0.451   1.619  14.841  1.1589 -0.1030 -0.3991
16272TIP3   OH270306   5.232   2.837   6.530  0.1142 -0.6268  0.3000
16272TIP3    H170307   5.239   2.887   6.612 -1.5153 -0.8021  0.5780
16272TIP3    H270308   5.184   2.758   6.554 -1.2636 -0.2388 -0.9791
16273TIP3   OH270309   0.777   0.643   2.753 -0.0507 -0.3789  0.7184
16273TIP3    H170310   0.737   0.730   2.761  0.5719  0.0975 -1.0542
16273TIP3    H270311   0.844   0.642   2.821  1.9496  1.7229 -1.0537
16274TIP3   OH270312   2.799   6.553   0.147 -0.4972  0.2593  0.0099
16274TIP3    H170313   2.814   6.645   0.169  2.7338  0.1098 -1.1085
16274TIP3    H270314   2.857   6.505   0.206 -1.1462 -0.9728 -0.3437
16275TIP3   OH270315   6.395   3.689  14.375  0.3838  0.1466  0.4024
16275TIP3    H170316   6.348   3.737  14.306 -0.6582 -1.9176 -0.4081
16275TIP3    H270317   6.351   3.714  14.456 -0.5987  0.0382 -0.0831
16276TIP3   OH270318   1.185   3.709  13.567 -0.4493  0.5200  0.3253
16276TIP3    H170319   1.130   3.786  13.550  0.5767  1.1596 -0.1873
16276TIP3    H270320   1.196   3.668  13.482 -0.8713 -0.1274  0.5751
16277TIP3   OH270321   5.345   0.939  11.914 -0.4638 -0.3218 -0.0997
16277TIP3    H170322   5.353   0.845  11.897  0.2555 -0.2040 -0.4491
16277TIP3    H270323   5.435   0.968  11.929 -0.7840  0.1167  1.0793
16278TIP3   OH270324   4.138   1.587   3.160 -0.3948  0.5912 -0.2580
16278TIP3    H170325   4.181   1.672   3.146 -0.3108  0.3681 -1.4273
16278TIP3    H270326   4.105   1.562   3.074 -0.4826 -0.5318  0.0832
16279TIP3   OH270327   1.773   3.327   3.429  0.2498  0.0939 -0.1910
16279TIP3    H170328   1.722   3.360   3.503  0.0933  0.5865 -0.5152
16279TIP3    H270329   1.725   3.358   3.352  2.8005  3.5157 -0.6168
16280TIP3   OH270330   0.633   0.792   4.148  0.3192  0.3963 -0.2634
16280TIP3    H170331   0.655   0.758   4.061  2.2735  1.8805 -0.4206
16280TIP3    H270332   0.568   0.860   4.132  1.3471  1.3015 -0.7070
16281TIP3   OH270333   4.734   6.559   3.061 -0.0184 -0.4741 -0.0120
16281TIP3    H170334   4.761   6.534   2.972 -2.2675  0.0172 -0.9128
16281TIP3    H270335   4.765   6.648   3.071  1.2162 -0.9085  0.1487
16282TIP3   OH270336   6.575   2.099  10.781 -0.0149 -0.1968  0.1921
16282TIP3    H170337   6.664   2.083  10.813  0.3783  0.8143 -0.3710
16282TIP3    H270338   6.519   2.077  10.856  0.8257  0.9910  1.2235
16283TIP3   OH270339   5.019   1.302  12.216  0.5664  0.5874 -0.4651
16283TIP3    H170340   4.958   1.294  12.290 -0.6838  2.3359 -1.2388
16283TIP3    H270341   5.104   1.277  12.252 -0.3066 -0.3420  1.0781
16284TIP3   OH270342   3.174   1.456  15.956  0.4848 -0.8254 -0.2413
16284TIP3    H170343   3.112   1.402  16.006 -1.9983  1.5777 -0.4787
16284TIP3    H270344   3.152   1.440  15.864  0.0185  0.1704 -0.3241
16285TIP3   OH270345   0.465   3.132   5.969 -0.1502 -0.3426  0.1233
16285TIP3    H170346   0.417   3.104   5.891  0.6237  1.8869 -1.2592
16285TIP3    H270347   0.410   3.199   6.008  0.2618 -0.2247  0.5115
16286TIP3   OH270348   1.458   4.648   3.460  0.0861  0.4570  1.2857
16286TIP3    H170349   1.446   4.643   3.365 -2.8930 -0.8076  1.5983
16286TIP3    H270350   1.529   4.587   3.479  0.5106  0.5024 -0.0881
16287TIP3   OH270351   1.826   5.102   4.027 -0.3194  0.1113  0.0109
16287TIP3    H170352   1.731   5.100   4.042 -0.5776  0.0381 -1.5066
16287TIP3    H270353   1.835   5.115   3.933  1.1873 -0.4917  0.0505
16288TIP3   OH270354   1.016   1.903  13.483  0.4103  0.3501  0.0012
16288TIP3    H170355   1.053   1.990  13.499  1.0328 -0.2150  1.8539
16288TIP3    H270356   0.921   1.916  13.486  0.4942  1.0229 -0.1678
16289TIP3   OH270357   2.179   0.616  11.108  0.1359 -0.0798 -0.3367
16289TIP3    H170358   2.161   0.699  11.064  1.9726  1.0132  0.8634
16289TIP3    H270359   2.159   0.549  11.042 -0.4566  1.3358 -1.6555
16290TIP3   OH270360   6.655   3.020   3.244 -0.7853 -0.8720  0.1594
16290TIP3    H170361   6.681   3.089   3.182 -0.8924 -1.7292 -0.8777
16290TIP3    H270362   6.597   3.064   3.306 -0.5122  0.0672 -0.2302
16291TIP3   OH270363   5.727   4.870  14.626  0.4188 -0.1613  0.0075
16291TIP3    H170364   5.772   4.800  14.577 -0.0705 -1.8538  1.8759
16291TIP3    H270365   5.786   4.890  14.698  0.1555  0.7938 -0.0270
16292TIP3   OH270366   0.330   3.716   0.809 -0.0645 -0.3865 -0.1298
16292TIP3    H170367   0.240   3.699   0.782  0.1587 -0.2970 -0.9451
16292TIP3    H270368   0.360   3.786   0.751  0.4137 -0.1625  0.3762
16293TIP3   OH270369   1.656   0.161   1.066 -0.0318  0.7411  0.5572
16293TIP3    H170370   1.622   0.082   1.109  0.4149 -0.0855 -0.5652
16293TIP3    H270371   1.687   0.130   0.981  0.3120  2.1082  0.1701
16294TIP3   OH270372   3.365   0.614  16.092 -0.3643  0.8059  0.4104
16294TIP3    H170373   3.390   0.522  16.095  1.4861  1.1479 -1.7588
16294TIP3    H270374   3.435   0.660  16.138 -0.4927  1.2421  0.1779
16295TIP3   OH270375   3.966   3.838   5.078 -0.0149  0.2454  0.5209
16295TIP3    H170376   3.943   3.909   5.138 -0.5230 -0.6936  1.4756
16295TIP3    H270377   3.889   3.829   5.021 -1.3320 -1.5460  2.4092
16296TIP3   OH270378   5.937   6.195  16.818 -0.0086  0.2683  0.2481
16296TIP3    H170379   6.030   6.200  16.840 -0.4853  2.9746  2.1941
16296TIP3    H270380   5.918   6.277  16.771 -1.4964  0.0792  0.4449
16297TIP3   OH270381   1.104   5.015   3.224  0.0877  0.7647  0.0332
16297TIP3    H170382   1.116   5.031   3.318 -1.4827  0.6989  0.2850
16297TIP3    H270383   1.107   4.919   3.216  0.9982  0.8030 -0.1125
16298TIP3   OH270384   4.220   4.829  16.950 -0.5819  0.0500  1.0108
16298TIP3    H170385   4.289   4.895  16.940 -0.0406 -0.7764 -1.3642
16298TIP3    H270386   4.242   4.784  17.031  1.1300  0.4426  0.8090
16299TIP3   OH270387   3.662   5.475  13.398  0.1605  0.0913 -0.2693
16299TIP3    H170388   3.732   5.489  13.462 -0.2135  0.4765  0.0639
16299TIP3    H270389   3.604   5.412  13.439 -0.2294  0.5521 -0.1045
16300TIP3   OH270390   4.626   2.385   2.163  0.4321  0.1355  0.2938
16300TIP3    H170391   4.531   2.377   2.148  0.6376 -1.8362 -0.1900
16300TIP3    H270392   4.644   2.326   2.235  1.4129 -0.1182 -0.1496
16301TIP3   OH270393   6.641   0.695   3.144  0.1024  0.3807 -0.1316
16301TIP3    H170394   6.654   0.688   3.049 -0.5185 -1.9998 -0.1069
16301TIP3    H270395   6.699   0.766   3.171  1.4538  0.0947 -2.0770
16302TIP3   OH270396   1.246   5.027   5.715 -0.2946  0.8466 -0.3953
16302TIP3    H170397   1.202   5.057   5.636 -0.1545  0.4703 -0.6191
16302TIP3    H270398   1.310   4.963   5.684 -1.9372 -1.2391  0.2370
16303TIP3   OH270399   0.820   2.438   1.727  0.1064  0.1037  0.4817
16303TIP3    H170400   0.777   2.486   1.657  0.4437 -1.8154 -1.1418
16303TIP3    H270401   0.755   2.435   1.798 -0.5795  1.3300 -0.0714
16304TIP3   OH270402   1.710   2.822   1.931  0.1603  0.1508  0.0660
16304TIP3    H170403   1.650   2.823   1.857 -0.3507  1.0530  0.4817
16304TIP3    H270404   1.733   2.729   1.942 -0.9231 -0.1756 -0.2892
16305TIP3   OH270405   0.752   1.007   1.835  0.4516 -0.2306  0.2095
16305TIP3    H170406   0.720   0.984   1.922  1.9932  2.5850  1.6451
16305TIP3    H270407   0.703   1.085   1.811  0.6471 -0.4819 -1.1163
16306TIP3   OH270408   3.093   2.736   2.971  0.4131 -0.0766  0.3111
16306TIP3    H170409   3.055   2.817   3.006 -0.0762 -0.3879  0.5207
16306TIP3    H270410   3.049   2.666   3.020  2.2945 -0.4403  1.6081
16307TIP3   OH270411   1.151   6.408  15.929 -0.3874 -0.0992  0.0958
16307TIP3    H170412   1.227   6.436  15.877 -2.0446  0.1511 -2.3883
16307TIP3    H270413   1.161   6.314  15.937  0.3396 -0.0298  0.0400
16308TIP3   OH270414   6.502   5.906   1.773  0.0093 -0.1359 -0.3542
16308TIP3    H170415   6.446   5.906   1.850  1.3897  1.2628  0.7143
16308TIP3    H270416   6.472   5.980   1.720 -0.4074 -0.5992 -0.7830
16309TIP3   OH270417   2.675   2.176  12.642 -0.3787  0.3709 -0.5736
16309TIP3    H170418   2.652   2.268  12.631  1.3620  0.8481 -0.5936
16309TIP3    H270419   2.757   2.166  12.592 -0.4447 -1.1450 -0.4231
16310TIP3   OH270420   6.214   4.685   6.968 -0.0429  0.3602 -0.5529
16310TIP3    H170421   6.265   4.747   7.020 -0.6137  0.7599 -0.4538
16310TIP3    H270422   6.190   4.735   6.889  1.4924 -0.4771 -1.6134
16311TIP3   OH270423   3.896   0.737  11.343 -0.4043 -0.4584  0.4323
16311TIP3    H170424   3.986   0.767  11.352 -0.8219  0.7557  0.7655
16311TIP3    H270425   3.885   0.671  11.412  0.2095 -0.5801  0.4128
16312TIP3   OH270426   0.395   1.073  14.822 -0.0386 -0.2893 -0.0323
16312TIP3    H170427   0.337   1.149  14.824  1.3870  0.9490 -2.1633
16312TIP3    H270428   0.456   1.088  14.894  1.7195  1.9356 -1.8490
16313TIP3   OH270429   3.176   1.332   0.856 -0.1508  0.0784  0.3944
16313TIP3    H170430   3.159   1.350   0.763  1.0806  1.4334  0.3844
16313TIP3    H270431   3.090   1.330   0.896 -0.7298 -0.8368 -0.8178
16314TIP3   OH270432   2.344   3.509  12.152 -0.1318  0.6322  0.0430
16314TIP3    H170433   2.298   3.440  12.103  2.0714 -0.5286 -0.5239
16314TIP3    H270434   2.399   3.461  12.214  2.9767  1.6701 -1.6991
16315TIP3   OH270435   2.663   6.406   0.793 -0.0946 -0.0138  0.4499
16315TIP3    H170436   2.603   6.375   0.726  0.1348  0.4348  0.0300
16315TIP3    H270437   2.607   6.451   0.856 -0.2407  0.0986  0.2407
16316TIP3   OH270438   3.488   4.382   2.339  0.2854  0.2846  0.3513
16316TIP3    H170439   3.432   4.442   2.388  0.4918 -0.0740  1.0556
16316TIP3    H270440   3.491   4.417   2.250  0.0384  1.0562  0.6407
16317TIP3   OH270441   0.643   1.879  15.981 -0.0856  0.2375  0.1192
16317TIP3    H170442   0.657   1.799  16.031  1.0533  0.6649  0.5038
16317TIP3    H270443   0.701   1.870  15.905 -1.9201 -0.4910 -1.3034
16318TIP3   OH270444   3.387   5.431  14.328 -0.1562  0.8426 -0.1846
16318TIP3    H170445   3.328   5.490  14.375  1.7454  1.9208  0.9604
16318TIP3    H270446   3.399   5.356  14.387 -1.7741 -0.2854 -1.2099
16319TIP3   OH270447   6.432   1.606  17.184 -0.3843  0.2415 -0.6202
16319TIP3    H170448   6.441   1.520  17.144  2.1565 -0.4267  1.1607
16319TIP3    H270449   6.491   1.663  17.135 -0.0591  0.3137 -0.1515
16320TIP3   OH270450   4.000   5.474   4.143  0.5202 -0.6134 -1.0067
16320TIP3    H170451   3.925   5.492   4.086  1.4349  0.9201 -1.7873
16320TIP3    H270452   3.984   5.386   4.177 -2.1213  0.0352 -0.3603
16321TIP3   OH270453   1.917   4.556   5.505  0.6891 -0.1024 -0.5549
16321TIP3    H170454   1.997   4.520   5.542  0.4547  0.4616  0.5385
16321TIP3    H270455   1.912   4.645   5.539 -0.1598  0.0338 -0.9897
16322TIP3   OH270456   4.327   6.014   1.420 -0.5615 -0.3084  0.0370
16322TIP3    H170457   4.390   6.075   1.459 -1.1575  0.4269 -0.1162
16322TIP3    H270458   4.374   5.972   1.349 -0.0407 -0.2678  0.3543
16323TIP3   OH270459   3.020   6.197  15.322  0.2745  0.4064  0.7650
16323TIP3    H170460   2.934   6.239  15.328 -0.2132 -0.6564  1.4632
16323TIP3    H270461   3.042   6.200  15.229 -0.1062  1.4807  0.6960
16324TIP3   OH270462   5.052   6.211  13.332 -0.1411  0.9505 -0.2276
16324TIP3    H170463   5.142   6.190  13.310 -0.5523 -0.3117 -0.7753
16324TIP3    H270464   5.015   6.248  13.252 -0.2379  1.0519 -0.1368
16325TIP3   OH270465   6.768   0.781  14.417  0.1789 -0.3315  0.5469
16325TIP3    H170466   6.752   0.872  14.439  2.0496  0.3960 -0.8289
16325TIP3    H270467   6.745   0.774  14.324  2.9397 -0.4078 -0.2157
16326TIP3   OH270468   5.159   1.158   0.108 -0.4695  0.4758 -0.2393
16326TIP3    H170469   5.236   1.138   0.161 -1.8074  1.4245  2.1863
16326TIP3    H270470   5.189   1.225   0.046  0.6735  0.7485  0.5941
16327TIP3   OH270471   3.787   2.361  11.748  0.0432  0.2418  0.1574
16327TIP3    H170472   3.695   2.382  11.766  0.0477 -0.0968  0.5794
16327TIP3    H270473   3.784   2.315  11.664 -0.4840 -2.0780  1.3792
16328TIP3   OH270474   0.716   0.102   2.112  0.5408 -0.1752 -0.0031
16328TIP3    H170475   0.809   0.101   2.091  0.9285 -3.6664  1.2167
16328TIP3    H270476   0.707   0.169   2.179  3.0122 -2.2757  2.6659
16329TIP3   OH270477   2.243   1.696  13.576 -0.4646 -0.0765 -0.0463
16329TIP3    H170478   2.315   1.755  13.552  0.0437 -0.5737  0.2417
16329TIP3    H270479   2.199   1.740  13.648 -0.2307  0.0626  0.0134
16330TIP3   OH270480   4.606   3.028  10.871 -0.0567 -0.4328 -0.2408
16330TIP3    H170481   4.513   3.038  10.848 -0.4134 -1.1903  0.8005
16330TIP3    H270482   4.653   3.045  10.790 -1.0094  1.6626 -0.4247
16331TIP3   OH270483   6.056   4.928  13.107 -0.0999 -0.4860 -0.2217
16331TIP3    H170484   6.103   4.846  13.093 -1.6232 -1.5604  0.6371
16331TIP3    H270485   6.059   4.940  13.202 -1.6712 -0.6831 -0.1303
16332TIP3   OH270486   2.515   4.400   4.748 -0.0989 -0.5800  0.0008
16332TIP3    H170487   2.524   4.472   4.686  1.9921  0.9455  1.9237
16332TIP3    H270488   2.433   4.419   4.794 -0.6217 -0.6153 -0.8902
16333TIP3   OH270489   4.283   4.727  16.066 -0.0797  0.0380 -0.1475
16333TIP3    H170490   4.258   4.654  16.009  0.1886  0.0406 -0.2695
16333TIP3    H270491   4.223   4.721  16.140 -2.3407  1.7231 -1.7359
16334TIP3   OH270492   2.686   2.043  15.049  0.0534  0.3550 -0.1378
16334TIP3    H170493   2.666   2.128  15.010  1.4049  0.7342 -0.0435
16334TIP3    H270494   2.772   2.054  15.089 -0.1295 -0.8089  0.6402
16335TIP3   OH270495   2.845   4.513   4.469  0.1563 -0.5562 -0.3084
16335TIP3    H170496   2.881   4.586   4.520 -0.7814 -0.2966 -0.0073
16335TIP3    H270497   2.830   4.549   4.382  2.3788 -1.1734 -1.0078
16336TIP3   OH270498   3.181   6.594   1.160  0.6651  0.4578  0.1530
16336TIP3    H170499   3.220   6.644   1.232  0.3428  1.5203 -0.3982
16336TIP3    H270500   3.253   6.540   1.127  1.1491  0.9133  0.4457
16337TIP3   OH270501   4.121   3.649  14.567 -0.5615  0.0340  0.0167
16337TIP3    H170502   4.110   3.716  14.634 -2.3124 -0.7326  0.5698
16337TIP3    H270503   4.122   3.697  14.484  0.3485  0.8911  0.5037
16338TIP3   OH270504   3.281   1.579  12.020 -0.5242 -0.0264  0.2334
16338TIP3    H170505   3.254   1.563  11.930  1.1583  0.2320 -0.3449
16338TIP3    H270506   3.201   1.609  12.064 -1.1019  1.1249 -1.4902
16339TIP3   OH270507   1.570   4.940  15.507  0.5722 -0.6481 -0.1334
16339TIP3    H170508   1.605   4.994  15.435  0.2777 -0.1350  0.1019
16339TIP3    H270509   1.592   4.850  15.482  2.8497 -0.3046  0.4301
16340TIP3   OH270510   3.609   4.213   6.497  0.1319  0.4850 -0.4862
16340TIP3    H170511   3.698   4.244   6.510 -0.1172  0.8507  0.3949
16340TIP3    H270512   3.588   4.165   6.577 -0.0418 -0.6700 -1.1894
16341TIP3   OH270513   2.268   1.342   0.068 -0.3387  0.1174 -0.2484
16341TIP3    H170514   2.290   1.292  -0.011 -0.5742 -0.4222  0.0288
16341TIP3    H270515   2.297   1.431   0.048 -0.5863  0.0299 -1.0305
16342TIP3   OH270516   0.368   0.283  14.631 -0.0301  0.1920 -0.2035
16342TIP3    H170517   0.313   0.360  14.648 -0.1638 -0.0467  0.4764
16342TIP3    H270518   0.383   0.285  14.536  0.6597  1.5107 -0.0935
16343TIP3   OH270519   3.855   2.289   1.588 -1.1134 -0.3348  0.2017
16343TIP3    H170520   3.830   2.200   1.562 -1.6310 -0.0775 -0.1817
16343TIP3    H270521   3.857   2.338   1.506 -0.6467 -0.0330  0.3893
16344TIP3   OH270522   1.767   5.589   1.102  0.1951 -0.1781  0.5050
16344TIP3    H170523   1.776   5.611   1.195 -1.4360 -1.2906  0.9624
16344TIP3    H270524   1.771   5.494   1.100 -0.9805 -0.2259 -0.4081
16345TIP3   OH270525   2.272   2.190  12.891 -0.3102  0.0045  0.0023
16345TIP3    H170526   2.361   2.193  12.928 -0.8004 -0.4795  1.2778
16345TIP3    H270527   2.215   2.207  12.966 -1.3141  0.0696 -0.7611
16346TIP3   OH270528   2.507   1.685   6.054 -0.0266  0.1652  0.0242
16346TIP3    H170529   2.508   1.752   6.123  0.9098 -1.0567  1.2496
16346TIP3    H270530   2.415   1.668   6.038 -0.2650  0.1593  1.3134
16347TIP3   OH270531   5.919   3.810  14.237  0.3286 -0.4829  0.1738
16347TIP3    H170532   5.888   3.866  14.308  1.5163 -0.1332  0.4374
16347TIP3    H270533   5.877   3.846  14.159 -0.3313 -0.3551  0.5704
16348TIP3   OH270534   5.943   4.364   2.767  0.1749  0.5674  0.4867
16348TIP3    H170535   6.006   4.407   2.825 -1.2748  0.3951  2.2969
16348TIP3    H270536   5.858   4.397   2.795 -0.7766 -1.3543  0.0733
16349TIP3   OH270537   6.199   0.946   5.858 -0.4308  0.0286 -0.4422
16349TIP3    H170538   6.212   0.851   5.849  1.4857  0.2552 -0.5484
16349TIP3    H270539   6.197   0.978   5.768 -2.7108 -0.0607 -0.4594
16350TIP3   OH270540   1.608   3.036  13.598 -0.0735 -0.2431 -0.5019
16350TIP3    H170541   1.662   2.971  13.553  0.7835  0.4391 -0.4998
16350TIP3    H270542   1.535   3.052  13.539  0.2481 -0.4584 -0.9691
16351TIP3   OH270543   0.386   2.793  16.811 -0.0162  0.5227  0.4221
16351TIP3    H170544   0.363   2.763  16.723  0.1635 -0.2668  0.6388
16351TIP3    H270545   0.481   2.803  16.809  0.0994 -0.4268  0.8012
16352TIP3   OH270546   5.399   4.586  17.057  0.2500  0.5668  0.5647
16352TIP3    H170547   5.443   4.655  17.007 -1.9477  2.0539  0.4993
16352TIP3    H270548   5.334   4.633  17.110 -1.0870 -1.4234  0.7915
16353TIP3   OH270549   1.883   5.833  14.207  0.2970 -0.4870  0.2718
16353TIP3    H170550   1.950   5.899  14.223  0.6829 -0.6432 -0.6425
16353TIP3    H270551   1.800   5.882  14.210  0.6588  0.3668 -1.9156
16354TIP3   OH270552   0.834   0.830   5.743  0.2536 -1.0316 -0.4322
16354TIP3    H170553   0.847   0.772   5.668 -0.6247  2.7383 -3.9347
16354TIP3    H270554   0.744   0.812   5.772 -0.7876 -0.2606 -2.8286
16355TIP3   OH270555   2.280   0.722  12.814  0.2633  0.2186  0.1146
16355TIP3    H170556   2.270   0.714  12.719  0.9987  1.3172 -0.0666
16355TIP3    H270557   2.309   0.812  12.828  2.6398 -0.6183  1.1713
16356TIP3   OH270558   4.025   5.486  12.519  0.4799 -0.5611 -0.3902
16356TIP3    H170559   4.003   5.434  12.442  1.0884 -0.0800 -0.8910
16356TIP3    H270560   4.008   5.427  12.593  1.1416 -1.4810 -0.9472
16357TIP3   OH270561   2.747   6.778   4.895 -0.3081  0.4835 -0.8212
16357TIP3    H170562   2.804   6.738   4.961  0.2426 -0.3280 -1.7517
16357TIP3    H270563   2.659   6.757   4.924 -0.0443 -1.3687 -1.1910
16358TIP3   OH270564   4.164   1.977  16.083 -0.3363  0.9267  0.4960
16358TIP3    H170565   4.114   1.896  16.093  0.2715  0.4922  0.0964
16358TIP3    H270566   4.120   2.024  16.012  1.0272 -0.4521 -1.4095
16359TIP3   OH270567   3.789   0.353  13.553  0.2007 -0.0979  0.2253
16359TIP3    H170568   3.753   0.433  13.592 -0.9876  0.4576 -1.8642
16359TIP3    H270569   3.827   0.305  13.627 -1.4977  1.1053  1.9681
16360TIP3   OH270570   0.441   5.673   1.007  0.6211  0.8981 -0.5750
16360TIP3    H170571   0.508   5.679   0.939  1.5903 -0.8044  0.1756
16360TIP3    H270572   0.387   5.598   0.982 -0.8008  1.9919 -0.9433
16361TIP3   OH270573   3.266   5.345   4.623 -0.3348  0.2074 -0.2109
16361TIP3    H170574   3.321   5.422   4.613 -1.1820  1.0910  1.4397
16361TIP3    H270575   3.321   5.272   4.594  1.2412  1.1887  0.1773
16362TIP3   OH270576   2.792   2.565   3.033  0.1899 -0.0453 -0.3818
16362TIP3    H170577   2.739   2.487   3.048 -0.8046  0.8464  0.9580
16362TIP3    H270578   2.873   2.549   3.082  0.4390 -0.6484 -0.9684
16363TIP3   OH270579   2.673   0.675  17.205 -0.1675  0.0280  0.1491
16363TIP3    H170580   2.579   0.688  17.217  0.1602  3.6590 -0.0761
16363TIP3    H270581   2.712   0.698  17.289  0.5547 -1.9424  0.3989
16364TIP3   OH270582   2.523   2.866   5.019  0.4834  0.1440 -0.8660
16364TIP3    H170583   2.432   2.880   4.991  0.6298  1.2581 -0.8424
16364TIP3    H270584   2.564   2.818   4.948 -0.5994 -2.1121 -0.0601
16365TIP3   OH270585   1.208   2.915   0.018 -0.5527 -0.1558 -0.0427
16365TIP3    H170586   1.274   2.899   0.086 -0.3399 -4.1179 -0.9164
16365TIP3    H270587   1.257   2.955  -0.053  0.5458 -1.2160  0.0743
16366TIP3   OH270588   3.470   0.879  13.169 -0.4503  0.3790 -0.0848
16366TIP3    H170589   3.488   0.821  13.094 -0.7967 -0.1232  0.2160
16366TIP3    H270590   3.382   0.854  13.197 -0.5500  0.9669  0.1335
16367TIP3   OH270591   3.525   3.635  16.158  0.3756  0.0575 -0.5939
16367TIP3    H170592   3.566   3.563  16.112 -1.9157 -0.5562 -1.8076
16367TIP3    H270593   3.498   3.597  16.242  1.2995  0.1916 -0.2205
16368TIP3   OH270594   0.908   1.232   6.005 -0.7929 -0.2514 -0.0623
16368TIP3    H170595   0.929   1.326   6.009  0.8660 -0.5841 -0.1508
16368TIP3    H270596   0.868   1.213   6.090 -2.6924  0.8387 -0.6477
16369TIP3   OH270597   3.011   3.865  13.844  0.1085  0.2678  0.1668
16369TIP3    H170598   3.029   3.893  13.933 -0.5049 -0.0257  0.3905
16369TIP3    H270599   2.978   3.775  13.853 -0.1134  0.2928 -0.3320
16370TIP3   OH270600   6.640   6.781  15.048 -0.4617 -0.2938 -0.2937
16370TIP3    H170601   6.703   6.850  15.025  0.4977 -0.6530  1.1565
16370TIP3    H270602   6.632   6.729  14.969 -0.2925  0.7823 -1.0469
16371TIP3   OH270603   5.629   4.635   3.293  0.2753 -0.2501 -0.2044
16371TIP3    H170604   5.715   4.676   3.304  1.4279 -2.7891  1.0720
16371TIP3    H270605   5.602   4.660   3.205  1.6769  1.7149 -0.1517
16372TIP3   OH270606   0.137   3.232  14.824 -0.0210 -0.6138 -0.3670
16372TIP3    H170607   0.226   3.265  14.818 -1.0120  2.5793  0.6276
16372TIP3    H270608   0.125   3.214  14.917 -0.5949 -0.4539 -0.4084
16373TIP3   OH270609   0.999   5.036  16.936  0.2400 -1.1757 -0.0520
16373TIP3    H170610   0.907   5.011  16.943  0.2229 -1.4723 -1.2057
16373TIP3    H270611   1.043   4.985  17.004 -0.0413 -3.1260 -1.2747
16374TIP3   OH270612   5.674   1.588   3.658  0.3904  0.3084 -0.0804
16374TIP3    H170613   5.676   1.668   3.607 -2.2408 -0.3759 -1.4592
16374TIP3    H270614   5.732   1.527   3.612  0.5799  0.7019 -0.3599
16375TIP3   OH270615   3.183   1.292   1.497  0.1969 -0.0440  0.7551
16375TIP3    H170616   3.088   1.280   1.497  0.0082  1.2884  0.5213
16375TIP3    H270617   3.214   1.234   1.428 -0.5575  0.1695  0.2137
16376TIP3   OH270618   6.636   0.615  11.671  0.2476 -0.2741  0.4654
16376TIP3    H170619   6.651   0.544  11.609  1.8420 -0.8507  1.4683
16376TIP3    H270620   6.697   0.684  11.644  1.0891 -0.6002  1.4676
16377TIP3   OH270621   3.370   2.502  11.123 -0.0993 -0.3723  0.2857
16377TIP3    H170622   3.304   2.442  11.157 -0.1859 -0.4654 -0.0477
16377TIP3    H270623   3.362   2.496  11.028 -0.9003  1.0427  0.2368
16378TIP3   OH270624   0.032   0.558   1.962 -0.1196  0.0562 -0.1002
16378TIP3    H170625  -0.048   0.519   1.927 -0.9195  1.4498  0.1108
16378TIP3    H270626   0.002   0.616   2.032  1.0825  0.5296  0.0433
16379TIP3   OH270627   3.334   3.591   0.415  0.1787  0.8236 -0.5053
16379TIP3    H170628   3.371   3.636   0.339  1.9523 -1.0244 -0.8124
16379TIP3    H270629   3.390   3.514   0.428 -0.5296  0.6577  2.2198
16380TIP3   OH270630   4.911   1.991   6.275 -0.3668  0.1929 -0.0164
16380TIP3    H170631   4.874   1.945   6.200 -0.6488 -0.1151  0.3042
16380TIP3    H270632   4.838   1.999   6.336  0.4183 -1.8747  1.3264
16381TIP3   OH270633   4.819   4.502   3.373 -0.5922  0.4084  0.3716
16381TIP3    H170634   4.836   4.540   3.460 -1.1443  1.8200 -0.1025
16381TIP3    H270635   4.784   4.415   3.391 -0.6773  0.6710  1.5752
16382TIP3   OH270636   4.571   1.061  16.569  0.1807  0.0769 -0.2420
16382TIP3    H170637   4.616   1.012  16.637  2.3145  0.8072 -1.0439
16382TIP3    H270638   4.640   1.084  16.506 -1.4144  0.8466 -1.7991
16383TIP3   OH270639   4.923   2.152  16.675  0.4216 -0.1045  0.1299
16383TIP3    H170640   4.921   2.186  16.765  2.6180  1.7273 -0.4263
16383TIP3    H270641   5.013   2.124  16.661 -0.0654 -1.0829 -1.2781
16384TIP3   OH270642   6.246   5.151  17.042  0.0793  0.0985 -0.1523
16384TIP3    H170643   6.317   5.215  17.046  1.0150 -0.8972 -0.1873
16384TIP3    H270644   6.289   5.067  17.058 -1.1334 -0.5133  0.0110
16385TIP3   OH270645   1.025   3.069  16.279 -0.2978  0.1307  0.4701
16385TIP3    H170646   1.115   3.097  16.267 -0.0412 -0.2220  1.5526
16385TIP3    H270647   1.029   3.000  16.344 -1.3991  0.3988  0.8466
16386TIP3   OH270648   5.949   1.023  13.693  0.2347  0.4089 -0.2266
16386TIP3    H170649   6.017   1.048  13.630  0.3993 -0.2650 -0.3186
16386TIP3    H270650   5.995   1.018  13.777 -0.1451  2.1633  0.1438
16387TIP3   OH270651   2.794   2.463  11.368 -0.1117 -0.0589 -0.1068
16387TIP3    H170652   2.888   2.454  11.350 -0.3503 -0.5315 -1.2355
16387TIP3    H270653   2.773   2.387  11.422  0.0979 -0.1437 -0.1415
16388TIP3   OH270654   5.706   5.533   5.771  0.0376 -0.8336 -1.2431
16388TIP3    H170655   5.682   5.466   5.835 -0.3779  2.0230  1.8674
16388TIP3    H270656   5.628   5.587   5.761  1.8818  2.6316  1.1219
16389TIP3   OH270657   4.173   5.872  15.119 -0.1981 -0.3008  0.3369
16389TIP3    H170658   4.081   5.869  15.093 -0.4401 -0.1297  1.1290
16389TIP3    H270659   4.218   5.910  15.044 -0.7010 -0.8425 -0.2448
16390TIP3   OH270660   2.965   1.398  14.668  0.1722  0.6060  1.3907
16390TIP3    H170661   2.975   1.327  14.604 -0.5665  2.1376 -0.5238
16390TIP3    H270662   2.955   1.353  14.752  0.4717 -1.5259  0.3503
16391TIP3   OH270663   3.360   3.219   4.720 -0.2495 -0.6148 -0.2803
16391TIP3    H170664   3.328   3.138   4.759 -0.5811 -0.3991 -0.1046
16391TIP3    H270665   3.412   3.259   4.790 -0.2380 -0.5846 -0.3063
16392TIP3   OH270666   4.989   5.134  15.397 -0.3173 -0.0306  0.0953
16392TIP3    H170667   5.039   5.204  15.440 -3.6832  2.5569  0.2356
16392TIP3    H270668   4.924   5.108  15.461 -1.9228 -0.0802 -1.4749
16393TIP3   OH270669   6.621   1.389   4.796 -0.2013  0.1610 -0.0325
16393TIP3    H170670   6.566   1.311   4.799  1.4506 -1.0753 -0.7071
16393TIP3    H270671   6.591   1.442   4.870 -1.8465 -0.7441  0.0032
16394TIP3   OH270672   1.516   6.529   5.016 -0.3789  0.1514 -0.0498
16394TIP3    H170673   1.460   6.581   4.959 -0.8772  0.2187  0.5002
16394TIP3    H270674   1.477   6.537   5.103  0.0496 -0.4119  0.2012
16395TIP3   OH270675   4.450   6.520   4.118  0.5818  0.7219 -0.4017
16395TIP3    H170676   4.416   6.610   4.121 -0.0990  0.4444  0.8280
16395TIP3    H270677   4.401   6.474   4.186  1.4820 -0.3916 -0.4844
16396TIP3   OH270678   0.750   1.910  15.605  0.0785 -0.4941 -0.1964
16396TIP3    H170679   0.661   1.936  15.630  0.1383 -0.2039 -0.2755
16396TIP3    H270680   0.777   1.977  15.542  0.2504 -0.7351 -0.3788
16397TIP3   OH270681   6.203   3.169   3.944  0.0362 -0.2597 -0.2041
16397TIP3    H170682   6.172   3.083   3.916  0.7255 -0.4808 -0.3098
16397TIP3    H270683   6.229   3.157   4.035 -2.4848  0.5339  0.6946
16398TIP3   OH270684   1.756   5.642  15.805  0.0911 -0.0990 -0.2810
16398TIP3    H170685   1.762   5.555  15.846 -0.3579 -0.4770 -1.0106
16398TIP3    H270686   1.847   5.668  15.793  0.3678 -1.9402 -3.1019
16399TIP3   OH270687   4.236   5.647  11.509 -0.2188  0.2332 -0.4439
16399TIP3    H170688   4.169   5.659  11.443 -2.0844  1.4651  1.5616
16399TIP3    H270689   4.317   5.637  11.459 -1.8951 -2.1296 -3.0066
16400TIP3   OH270690   1.712   1.301   1.391  0.5390  0.5932  0.0996
16400TIP3    H170691   1.771   1.287   1.465  0.7373  0.1372 -0.1409
16400TIP3    H270692   1.651   1.368   1.422 -0.8523 -1.2263  1.5755
16401TIP3   OH270693   3.918   6.746   6.125 -0.0874  0.8040  0.1861
16401TIP3    H170694   3.968   6.693   6.062  0.6916  0.9261  0.6917
16401TIP3    H270695   3.838   6.695   6.140  0.1668  0.2953 -0.1504
16402TIP3   OH270696   3.501   1.517  12.192 -0.4324  0.1460 -0.3731
16402TIP3    H170697   3.498   1.470  12.109 -1.5138 -0.3939 -0.0421
16402TIP3    H270698   3.568   1.471  12.243 -1.9913 -1.5538  0.2289
16403TIP3   OH270699   4.458   2.920   4.784  0.0047  0.3361 -0.1797
16403TIP3    H170700   4.429   2.904   4.694 -0.5167 -0.5149  0.1403
16403TIP3    H270701   4.553   2.908   4.780  0.0837  1.0095 -0.7572
16404TIP3   OH270702   1.311   5.563   5.816  0.6328  0.0650  0.1927
16404TIP3    H170703   1.293   5.562   5.910 -1.8045  0.7171 -0.1884
16404TIP3    H270704   1.300   5.472   5.788  1.2413 -0.1079  0.4954
16405TIP3   OH270705   1.248   3.840  14.757 -0.0807 -0.7027  0.0352
16405TIP3    H170706   1.160   3.811  14.780 -1.0674  1.7729 -0.3294
16405TIP3    H270707   1.236   3.896  14.680  1.9322 -0.9806 -0.5493
16406TIP3   OH270708   3.885   5.664   1.435 -0.2339 -0.2698  0.2212
16406TIP3    H170709   3.892   5.569   1.428 -2.3762 -0.4433 -0.2754
16406TIP3    H270710   3.865   5.681   1.527  1.9696 -0.0987  0.7253
16407TIP3   OH270711   1.419   6.768   3.929  0.0708  0.0169  0.6861
16407TIP3    H170712   1.381   6.852   3.903 -1.8604 -0.0623  2.8751
16407TIP3    H270713   1.463   6.786   4.012  1.2416 -0.7964  0.2642
16408TIP3   OH270714   3.144   2.498   1.781 -0.1149 -0.5598  0.1077
16408TIP3    H170715   3.050   2.512   1.783  0.0692  0.7122  1.1427
16408TIP3    H270716   3.156   2.408   1.813 -1.0021 -1.0488 -0.8876
16409TIP3   OH270717   1.141   6.357   2.003 -0.2345  0.3497 -0.0623
16409TIP3    H170718   1.215   6.390   2.054 -0.1144 -1.0737  0.7225
16409TIP3    H270719   1.179   6.297   1.940 -0.7760 -1.1767  1.0113
16410TIP3   OH270720   1.504   2.171   2.830  0.0285 -0.3078  0.0190
16410TIP3    H170721   1.563   2.179   2.905  2.6623  0.0716 -1.9381
16410TIP3    H270722   1.460   2.256   2.826 -0.7876 -0.6335  1.5959
16411TIP3   OH270723   6.722   2.303   3.821  0.4260 -0.8335  0.1043
16411TIP3    H170724   6.685   2.216   3.839 -0.1890 -1.0684 -2.0014
16411TIP3    H270725   6.786   2.287   3.752  0.5874  0.3344 -0.0304
16412TIP3   OH270726   6.121   4.529   1.841  0.3812  0.4454 -0.0940
16412TIP3    H170727   6.158   4.535   1.753 -0.4900 -0.4014 -0.5366
16412TIP3    H270728   6.045   4.472   1.832  0.0735  0.6139  1.1502
16413TIP3   OH270729   5.732   3.993   1.132 -0.1966 -0.6100 -0.0589
16413TIP3    H170730   5.757   3.912   1.177  0.0869 -0.2239  0.4892
16413TIP3    H270731   5.695   3.963   1.049 -0.9322 -1.3458  0.5151
16414TIP3   OH270732   2.353   3.988   0.845 -0.0687 -0.2268 -0.3873
16414TIP3    H170733   2.431   4.040   0.827  0.5871  0.0524  2.7119
16414TIP3    H270734   2.382   3.898   0.839  0.4528 -0.1261  0.5156
16415TIP3   OH270735   5.467   2.755   4.015  0.2900 -0.3911  0.1420
16415TIP3    H170736   5.499   2.732   3.928 -1.1511  2.2768 -1.1978
16415TIP3    H270737   5.394   2.695   4.030  1.9866 -2.4799  0.6698
16416TIP3   OH270738   6.410   1.917   0.788 -0.7379 -0.4759  0.6275
16416TIP3    H170739   6.347   1.907   0.716  0.2259 -1.0644 -0.1496
16416TIP3    H270740   6.374   1.863   0.858 -1.4443 -0.2712  0.4336
16417TIP3   OH270741   4.593   2.941   6.073  0.5043  0.7376 -0.2400
16417TIP3    H170742   4.554   2.880   6.136  4.2996 -0.4386  1.2073
16417TIP3    H270743   4.545   3.023   6.087 -1.3854 -0.5241  1.3305
16418TIP3   OH270744   1.040   4.791  13.080 -0.2298  0.1158  0.3327
16418TIP3    H170745   1.002   4.765  13.163 -0.7988 -0.1364  0.0015
16418TIP3    H270746   0.996   4.736  13.015  0.8400 -0.3250 -0.0466
16419TIP3   OH270747   5.771   0.035  16.220 -0.1504  0.4854 -0.1164
16419TIP3    H170748   5.731   0.080  16.294 -0.1494  0.4154 -0.0735
16419TIP3    H270749   5.833  -0.026  16.259 -1.9805 -1.4381 -0.0051
16420TIP3   OH270750   0.526   3.972  17.136 -0.1901 -0.0026 -0.1390
16420TIP3    H170751   0.618   3.983  17.110 -0.3957 -1.4057 -1.6463
16420TIP3    H270752   0.483   4.050  17.103  0.3804  0.4265  0.1126
16421TIP3   OH270753   6.317   4.072  14.786 -0.2690 -0.0214 -0.3341
16421TIP3    H170754   6.296   4.031  14.869  0.7820  2.7665  1.4452
16421TIP3    H270755   6.253   4.142  14.776  0.4187  0.5161 -1.2186
16422TIP3   OH270756   1.143   2.044   0.176  0.1551 -0.2079 -0.6307
16422TIP3    H170757   1.075   1.980   0.198  0.1451  0.3128  0.9297
16422TIP3    H270758   1.106   2.129   0.200  0.0236  0.4981 -3.0051
16423TIP3   OH270759   1.077   3.184   1.465 -0.4603  0.0475  0.5605
16423TIP3    H170760   1.088   3.091   1.487 -0.9218 -0.4044 -0.9933
16423TIP3    H270761   1.082   3.187   1.369 -0.8043  1.5836  0.5626
16424TIP3   OH270762   2.568   0.279  11.639 -0.2110 -0.5684 -0.1242
16424TIP3    H170763   2.542   0.236  11.557 -0.0821  1.3435 -1.2235
16424TIP3    H270764   2.649   0.325  11.617  0.5777 -1.1462  1.4858
16425TIP3   OH270765   1.493   3.913   2.929  0.0689  0.4384 -0.2901
16425TIP3    H170766   1.556   3.866   2.875 -0.3121  0.6529 -0.9217
16425TIP3    H270767   1.546   3.956   2.996  0.5510  0.2995 -0.5845
16426TIP3   OH270768   4.389   5.763   5.490  0.1069 -0.0143 -0.1404
16426TIP3    H170769   4.334   5.695   5.450 -0.7750  0.8701 -0.4781
16426TIP3    H270770   4.448   5.790   5.420  2.2491 -2.1903  0.7025
16427TIP3   OH270771   3.892   1.973   1.276  0.1347  0.2857 -0.2099
16427TIP3    H170772   3.895   1.953   1.369  1.4253  0.6208 -0.1584
16427TIP3    H270773   3.812   1.929   1.245 -0.1328 -0.1175  0.9720
16428TIP3   OH270774   5.525   4.808  13.739  0.0980 -0.0128  0.0666
16428TIP3    H170775   5.432   4.822  13.723 -0.2197 -0.2268  1.6353
16428TIP3    H270776   5.529   4.731  13.794  1.3126 -0.8536 -1.1224
16429TIP3   OH270777   2.593   3.651  15.919  0.2046  0.2878 -0.1889
16429TIP3    H170778   2.570   3.736  15.958  0.5094  0.6198 -0.7290
16429TIP3    H270779   2.564   3.657  15.828  1.6794  0.4204 -0.6709
16430TIP3   OH270780   4.859   2.386  14.349 -0.1277  0.2487 -0.6292
16430TIP3    H170781   4.943   2.409  14.389  0.1449 -1.1726 -0.3168
16430TIP3    H270782   4.802   2.365  14.422 -0.1979 -0.5309 -0.8947
16431TIP3   OH270783   1.768   0.187  16.203  0.2489 -0.5544 -0.4309
16431TIP3    H170784   1.810   0.250  16.262 -0.1277 -0.8982  0.2196
16431TIP3    H270785   1.767   0.105  16.252  0.5855 -1.0358 -1.2045
16432TIP3   OH270786   3.895   6.249   1.770  0.4927  0.3175 -0.3137
16432TIP3    H170787   3.842   6.325   1.795  0.3402  0.2270 -0.3605
16432TIP3    H270788   3.956   6.282   1.705 -1.6802 -0.2606 -2.8025
16433TIP3   OH270789   4.141   1.516  10.815  0.0963  0.1244 -0.8318
16433TIP3    H170790   4.057   1.556  10.792 -0.6975 -0.6272  0.6531
16433TIP3    H270791   4.148   1.440  10.757 -0.6231 -0.2601 -0.4149
16434TIP3   OH270792   5.152   4.344   2.014  0.1738  0.2448  0.3579
16434TIP3    H170793   5.189   4.293   2.086 -1.5057 -2.9649 -0.8336
16434TIP3    H270794   5.076   4.387   2.052  1.7473  2.2659  1.4431
16435TIP3   OH270795   5.667   6.313   0.266  0.4505  0.3579  0.0674
16435TIP3    H170796   5.609   6.359   0.205 -0.1893  0.4088  0.7044
16435TIP3    H270797   5.610   6.289   0.339  1.1330 -0.0257  0.4757
16436TIP3   OH270798   3.667   4.129   0.701  0.2997  0.0767  0.3903
16436TIP3    H170799   3.701   4.208   0.742 -0.2665  0.0834  0.8758
16436TIP3    H270800   3.575   4.149   0.682  0.7763  0.4171 -1.8238
16437TIP3   OH270801   0.948   2.675  13.536  0.2066 -0.1172 -0.2109
16437TIP3    H170802   0.904   2.598  13.572 -0.1416 -0.6888 -1.7845
16437TIP3    H270803   1.023   2.639  13.488  1.3257  0.7108  0.8733
16438TIP3   OH270804   0.254   4.180   4.818 -0.0610  0.7571 -0.6470
16438TIP3    H170805   0.243   4.274   4.804 -2.2453  0.5113 -1.0651
16438TIP3    H270806   0.177   4.155   4.870  0.4507 -0.8180 -0.5912
16439TIP3   OH270807   2.988   4.389  14.572  0.0639 -0.1496 -0.7911
16439TIP3    H170808   2.997   4.455  14.641  1.3052 -1.0698 -0.0263
16439TIP3    H270809   2.961   4.310  14.619 -0.7172 -0.3723 -1.5999
16440TIP3   OH270810   6.148   2.639  16.478  0.5818 -0.2623 -0.6523
16440TIP3    H170811   6.107   2.690  16.547 -0.4187 -0.1899 -1.2817
16440TIP3    H270812   6.235   2.617  16.512  0.0009 -0.4840  0.7419
16441TIP3   OH270813   4.841   2.580   0.397 -0.0507  0.0021  0.3620
16441TIP3    H170814   4.770   2.645   0.395 -0.6242 -0.6331 -0.1647
16441TIP3    H270815   4.827   2.527   0.319  1.2935  0.1588 -0.0054
16442TIP3   OH270816   3.668   4.329  12.689 -0.0931 -0.6304 -0.2041
16442TIP3    H170817   3.585   4.345  12.646  0.2114  1.0242 -0.2266
16442TIP3    H270818   3.687   4.236  12.672 -1.7656 -0.9472 -0.4339
16443TIP3   OH270819   0.145   3.451   1.021 -0.3674  0.4008  0.5940
16443TIP3    H170820   0.155   3.401   1.102 -1.2566  0.3954  0.7132
16443TIP3    H270821   0.096   3.529   1.047  0.0745  0.8119  0.2106
16444TIP3   OH270822   2.858   5.902  13.604  0.8431  0.2406  0.0957
16444TIP3    H170823   2.887   5.943  13.685  2.3721  0.8028 -0.6948
16444TIP3    H270824   2.881   5.965  13.535 -1.2169  0.1763 -0.7352
16445TIP3   OH270825   0.254   5.896   0.026  0.5845  0.3430 -0.4448
16445TIP3    H170826   0.287   5.985   0.023  0.4383  0.5157  1.5208
16445TIP3    H270827   0.206   5.884  -0.056  1.1752  1.8337 -1.0252
16446TIP3   OH270828   6.597   3.301   3.482 -0.5452  0.2348  0.2607
16446TIP3    H170829   6.606   3.236   3.552 -0.8538  1.5699  1.5908
16446TIP3    H270830   6.664   3.367   3.502  0.5907 -0.2447 -1.7640
16447TIP3   OH270831   5.740   5.900   1.562 -0.2535  0.1107  0.2953
16447TIP3    H170832   5.708   5.981   1.603  1.7301  0.1459  1.9320
16447TIP3    H270833   5.760   5.926   1.472 -0.6988  1.1571  0.4767
16448TIP3   OH270834   6.625   1.933  15.345  0.3797 -0.2671 -0.1565
16448TIP3    H170835   6.616   1.924  15.250  0.6353 -2.2805 -0.0322
16448TIP3    H270836   6.651   1.846  15.375 -1.4414 -0.1694  1.9648
16449TIP3   OH270837   1.598   6.820   1.726  0.6726 -0.7643  0.1675
16449TIP3    H170838   1.520   6.870   1.749  0.6222 -1.0287  0.5751
16449TIP3    H270839   1.670   6.868   1.768  0.7962 -0.2290 -0.6364
16450TIP3   OH270840   3.195   0.499  11.790  0.1640 -0.4959 -0.5509
16450TIP3    H170841   3.288   0.505  11.770  0.4448 -0.7127  0.6395
16450TIP3    H270842   3.152   0.543  11.717  1.3248  1.7176  0.0284
16451TIP3   OH270843   6.320   5.880  15.810  0.4549  0.5678  0.4375
16451TIP3    H170844   6.246   5.819  15.814  0.4672  0.5541  0.4541
16451TIP3    H270845   6.290   5.957  15.859  0.4825  0.5300  0.5135
16452TIP3   OH270846   2.578   4.261  11.864  0.6534  0.4387 -0.0169
16452TIP3    H170847   2.626   4.315  11.802  0.7987 -1.0840 -1.3032
16452TIP3    H270848   2.508   4.317  11.896 -0.9395  0.6292 -3.4047
16453TIP3   OH270849   6.220   1.113  12.635 -0.4407  0.2324 -0.4814
16453TIP3    H170850   6.227   1.036  12.578 -1.3450 -0.2047 -0.0190
16453TIP3    H270851   6.182   1.079  12.716 -1.5495  1.2925 -0.5420
16454TIP3   OH270852   0.241   0.181  11.838  0.3965 -0.5334 -0.0158
16454TIP3    H170853   0.193   0.156  11.760  0.5454 -0.5899 -0.0910
16454TIP3    H270854   0.328   0.142  11.826  0.5591 -0.1740 -0.0266
16455TIP3   OH270855   0.788   2.568  16.149 -0.2613 -0.0688  0.4686
16455TIP3    H170856   0.775   2.581  16.055  1.2104  0.5283  0.3322
16455TIP3    H270857   0.852   2.498  16.155  1.9365  1.8798  0.9213
16456TIP3   OH270858   2.881   4.125  12.268 -0.1044  0.5456  0.8313
16456TIP3    H170859   2.943   4.064  12.308  0.7395  0.6667 -0.2580
16456TIP3    H270860   2.915   4.212  12.291 -0.4823  0.6142  1.1403
16457TIP3   OH270861   2.028   5.770   1.940  0.2387 -0.1829 -0.2868
16457TIP3    H170862   2.123   5.773   1.948  0.1505 -0.0290  0.8369
16457TIP3    H270863   1.996   5.826   2.010 -0.7005 -1.0384 -0.0046
16458TIP3   OH270864   5.825   1.176  16.293 -0.2714  0.4414 -0.2684
16458TIP3    H170865   5.854   1.098  16.247 -0.4938  1.2548 -1.8733
16458TIP3    H270866   5.880   1.246  16.257 -1.4952  1.3477 -0.4330
16459TIP3   OH270867   2.667   2.835  16.215 -0.1355  0.0848 -0.1097
16459TIP3    H170868   2.681   2.760  16.157 -2.0952 -1.2534  1.0549
16459TIP3    H270869   2.703   2.807  16.299 -0.3657  0.6855  0.1883
16460TIP3   OH270870   3.769   1.512  14.041 -0.0764  0.6052  0.1063
16460TIP3    H170871   3.707   1.567  14.090 -2.7183  0.8808 -3.1749
16460TIP3    H270872   3.834   1.573  14.008 -1.3414  1.3903 -1.0738
16461TIP3   OH270873   6.249   0.398   4.243 -0.2923  0.6779  0.0662
16461TIP3    H170874   6.279   0.411   4.333 -0.5239 -0.1977  0.2827
16461TIP3    H270875   6.294   0.319   4.215  0.2029  1.2505 -0.7908
16462TIP3   OH270876   0.890   0.001  15.653 -0.6158  0.0865  0.5533
16462TIP3    H170877   0.888   0.031  15.563  0.5406 -1.2865  0.0356
16462TIP3    H270878   0.908   0.080  15.705 -0.9791  0.8252 -0.4221
16463TIP3   OH270879   4.722   5.117   1.022  0.4840  0.7394 -0.1791
16463TIP3    H170880   4.669   5.156   1.091  3.2903  1.4407  1.7839
16463TIP3    H270881   4.733   5.187   0.958 -1.7380  0.2370 -1.1918
16464TIP3   OH270882   4.439   2.746   1.015 -0.0344 -0.0852  0.4428
16464TIP3    H170883   4.364   2.804   1.006 -1.4510 -1.6690  1.2566
16464TIP3    H270884   4.493   2.763   0.938 -1.1132  1.2532 -0.0518
16465TIP3   OH270885   3.083   5.201  15.244  0.9173 -0.2784  0.2455
16465TIP3    H170886   3.126   5.234  15.165 -0.7097  0.1036 -0.5344
16465TIP3    H270887   3.009   5.260  15.257  1.2679 -0.2100  2.2106
16466TIP3   OH270888   3.345   1.134   0.578 -0.1155  0.7062  0.3477
16466TIP3    H170889   3.436   1.125   0.551 -0.1659  1.3751 -0.0676
16466TIP3    H270890   3.304   1.186   0.509 -1.2185 -0.9518 -0.3030
16467TIP3   OH270891   5.571   0.222   5.582 -0.2322 -0.1138  0.2476
16467TIP3    H170892   5.568   0.269   5.666  1.9964 -0.9249  0.8456
16467TIP3    H270893   5.555   0.290   5.516  2.4162  1.5227  1.1035
16468TIP3   OH270894   0.045   5.027   2.374 -0.2715  0.1280 -0.2119
16468TIP3    H170895   0.084   5.040   2.461  0.1752 -0.9866 -0.2323
16468TIP3    H270896   0.018   4.935   2.374 -1.6524  0.5136 -0.7150
16469TIP3   OH270897   0.535   0.734  11.604  0.0716 -0.2662 -0.8842
16469TIP3    H170898   0.582   0.705  11.682 -0.2442  0.6595 -0.3192
16469TIP3    H270899   0.595   0.718  11.532  0.9355  0.1576 -0.2774
16470TIP3   OH270900   3.859   2.418   2.851  0.1401 -0.1061  0.2357
16470TIP3    H170901   3.914   2.356   2.899 -0.5298 -1.0163 -0.1418
16470TIP3    H270902   3.772   2.378   2.851 -0.1157  0.4139 -0.7836
16471TIP3   OH270903   5.920   2.727   3.409  0.1151 -0.0345  0.0150
16471TIP3    H170904   5.974   2.667   3.459 -0.9207  1.3493  3.0246
16471TIP3    H270905   5.980   2.796   3.381  0.3694  0.2345  1.1878
16472TIP3   OH270906   0.395   6.276   0.529 -0.2870  0.0759  0.1320
16472TIP3    H170907   0.424   6.287   0.438 -1.2637 -1.6676 -0.4366
16472TIP3    H270908   0.314   6.327   0.534  1.8764  3.8250  1.3485
16473TIP3   OH270909   2.945   6.484  16.290  0.2224 -0.1602 -0.3847
16473TIP3    H170910   2.940   6.509  16.198  0.7615 -0.4994 -0.5085
16473TIP3    H270911   3.018   6.535  16.325  0.2192 -0.2692 -0.2196
16474TIP3   OH270912   5.508   4.540   5.252 -0.0305  0.3670  0.6807
16474TIP3    H170913   5.453   4.507   5.180 -0.3950  0.3587  0.9557
16474TIP3    H270914   5.464   4.508   5.331  0.4853  0.1933  0.9015
16475TIP3   OH270915   3.340   4.656  14.865  0.2565 -0.0262  0.5250
16475TIP3    H170916   3.348   4.684  14.956  0.2206 -0.4512  0.6608
16475TIP3    H270917   3.316   4.563  14.870 -2.1391  0.5083  0.1310
16476TIP3   OH270918   1.664   1.984  11.949  0.3475 -0.0682  0.1116
16476TIP3    H170919   1.639   2.039  12.023  0.0982 -0.3381  0.2240
16476TIP3    H270920   1.757   1.965  11.963  0.4791  0.4608 -0.0145
16477TIP3   OH270921   5.869   3.140   6.038  0.8318 -0.0538 -0.1809
16477TIP3    H170922   5.922   3.063   6.057 -1.7726 -1.7444  0.8976
16477TIP3    H270923   5.845   3.175   6.124  0.4319  0.8259 -0.6371
16478TIP3   OH270924   0.963   3.311   0.314  0.5509 -0.0642 -0.0238
16478TIP3    H170925   1.000   3.321   0.402  0.9042  0.2574 -0.2063
16478TIP3    H270926   1.039   3.312   0.256  0.3369 -0.5256 -0.3167
16479TIP3   OH270927   6.360   4.860  16.191 -0.3213  0.6436  0.4695
16479TIP3    H170928   6.401   4.946  16.185 -1.3343  1.0621 -0.8237
16479TIP3    H270929   6.298   4.857  16.119 -1.2413 -0.6806  1.2558
16480TIP3   OH270930   5.010   5.191  12.223  0.2605 -0.0328  0.3882
16480TIP3    H170931   5.051   5.110  12.194  0.1929  0.4602 -1.2170
16480TIP3    H270932   5.082   5.245  12.253  0.2962 -0.6974  1.5528
16481TIP3   OH270933   4.545   1.149  11.923 -0.0869  0.0222  0.1132
16481TIP3    H170934   4.539   1.057  11.949 -1.6510 -0.3660 -1.4093
16481TIP3    H270935   4.626   1.156  11.874 -0.3481 -0.7548 -0.4411
16482TIP3   OH270936   1.411   6.388   6.056  0.0764  0.6198 -0.4382
16482TIP3    H170937   1.324   6.407   6.092  0.6190 -0.5715  1.6232
16482TIP3    H270938   1.469   6.387   6.132  1.4667 -1.0309 -1.4516
16483TIP3   OH270939   2.169   6.494  14.385  0.2104  0.0841  0.0786
16483TIP3    H170940   2.081   6.458  14.400  0.9789 -1.9773 -0.0797
16483TIP3    H270941   2.193   6.464  14.298  0.7649  1.3463 -0.2216
16484TIP3   OH270942   0.562   5.173  16.187 -0.5203 -0.3769 -0.2775
16484TIP3    H170943   0.602   5.096  16.228  0.4963 -0.1651 -0.8262
16484TIP3    H270944   0.528   5.141  16.104 -1.1559 -0.4719  0.0139
16485TIP3   OH270945   0.376   3.341  13.505  0.0262 -0.1970  0.6063
16485TIP3    H170946   0.446   3.397  13.473 -0.3900  0.1769  0.3355
16485TIP3    H270947   0.333   3.393  13.573 -0.1491 -0.3176  0.5896
16486TIP3   OH270948   2.951   2.747   5.453 -0.4905  0.1779  0.2035
16486TIP3    H170949   2.989   2.826   5.492  1.1747 -1.7913  2.9455
16486TIP3    H270950   2.873   2.730   5.505  0.1759 -0.9144  0.9037
16487TIP3   OH270951   2.222   5.846  13.780 -0.2376 -0.6114  0.1840
16487TIP3    H170952   2.315   5.866  13.784 -0.2728 -0.4705  0.3423
16487TIP3    H270953   2.217   5.758  13.742  0.0398 -1.2374  1.5271
16488TIP3   OH270954   2.369   0.412   1.929  0.2316 -0.4625 -0.9677
16488TIP3    H170955   2.412   0.424   2.014  0.9267 -1.9130 -1.0801
16488TIP3    H270956   2.367   0.499   1.890 -0.1840  0.2413  0.5675
16489TIP3   OH270957   3.027   4.530  13.601 -0.2559  0.0948 -0.2722
16489TIP3    H170958   3.023   4.607  13.658  1.8688 -0.4526  0.7087
16489TIP3    H270959   3.007   4.457  13.659 -0.2951 -0.2734 -0.7508
16490TIP3   OH270960   3.673   4.212   0.121  0.1530 -0.4703 -0.2956
16490TIP3    H170961   3.584   4.203   0.155  0.0129 -1.5548 -0.8898
16490TIP3    H270962   3.705   4.293   0.158 -1.1369  0.0019 -0.1625
16491TIP3   OH270963   1.202   4.855  12.636  0.6319  0.1792 -0.3331
16491TIP3    H170964   1.281   4.849  12.583  2.1562 -1.3070  1.9901
16491TIP3    H270965   1.203   4.777  12.691 -2.0576  0.5218  0.3351
16492TIP3   OH270966   0.429   6.019   4.548  0.2947  0.5780  0.1761
16492TIP3    H170967   0.481   6.089   4.587 -1.0331  1.7528 -0.0425
16492TIP3    H270968   0.480   5.990   4.473  1.1405  0.9087  0.6099
16493TIP3   OH270969   3.753   3.918   3.556  0.3295 -0.2784 -0.3015
16493TIP3    H170970   3.812   3.927   3.630 -0.3692 -0.5822  0.3032
16493TIP3    H270971   3.672   3.961   3.584  0.9190  2.0903 -1.9257
16494TIP3   OH270972   1.219   5.601   4.456  0.6377  0.4303  0.3419
16494TIP3    H170973   1.293   5.574   4.402  0.6938  1.1612  0.0351
16494TIP3    H270974   1.191   5.521   4.501  0.5972 -0.1892 -0.7574
16495TIP3   OH270975   5.045   1.159  13.613 -0.1479 -0.1525 -0.2676
16495TIP3    H170976   5.083   1.107  13.683  0.4749  0.2563 -0.2903
16495TIP3    H270977   5.107   1.149  13.540 -0.4965 -0.1164 -0.5738
16496TIP3   OH270978   1.658   5.226   3.604  1.0828 -0.0942 -0.3686
16496TIP3    H170979   1.591   5.184   3.550 -1.1060  1.3467  1.0681
16496TIP3    H270980   1.699   5.155   3.652 -1.6364 -0.8152  1.0560
16497TIP3   OH270981   2.790   0.435   3.131 -0.3207  0.1433  0.1329
16497TIP3    H170982   2.751   0.397   3.053  0.3408  1.8032 -1.0640
16497TIP3    H270983   2.722   0.493   3.166  0.1927  1.2234 -0.6047
16498TIP3   OH270984   4.814   0.351   5.329  0.1254  0.1163 -0.3077
16498TIP3    H170985   4.828   0.380   5.419  0.1543  0.3340 -0.3834
16498TIP3    H270986   4.842   0.424   5.275 -0.6972  0.3159 -0.4770
16499TIP3   OH270987   6.495   4.302   5.995 -0.0231  0.4936 -0.1739
16499TIP3    H170988   6.560   4.367   5.969  0.6541  0.6347  1.7278
16499TIP3    H270989   6.547   4.230   6.031 -0.8558 -0.2457 -0.4264
16500TIP3   OH270990   5.735   4.064  16.407  0.2092 -0.3541  0.0374
16500TIP3    H170991   5.755   4.055  16.500 -2.9803 -0.1623  0.8741
16500TIP3    H270992   5.707   3.977  16.380 -0.8880  0.0296 -0.1334
16501TIP3   OH270993   1.568   2.380   0.717  0.2111 -0.0586  0.1255
16501TIP3    H170994   1.652   2.357   0.755  0.3024  1.4899  0.9604
16501TIP3    H270995   1.503   2.342   0.776  0.3158 -0.8764 -0.2760
16502TIP3   OH270996   0.625   6.531   5.479  0.0096  0.4865 -0.2261
16502TIP3    H170997   0.540   6.574   5.465 -0.2982 -0.3736 -1.1712
16502TIP3    H270998   0.657   6.515   5.390  0.8389  0.1800  0.1274
16503TIP3   OH270999   6.293   6.112   4.436  0.2364 -0.3352  0.2857
16503TIP3    H171000   6.309   6.087   4.345 -0.7559 -0.0519  0.0159
16503TIP3    H271001   6.329   6.040   4.487 -1.3237 -1.6950 -0.4310
16504TIP3   OH271002   5.185   4.950   0.732  0.1683  0.5112 -0.2615
16504TIP3    H171003   5.098   4.913   0.717  0.8794 -1.2335 -0.3618
16504TIP3    H271004   5.190   4.961   0.827 -0.2702  0.8832 -0.2823
16505TIP3   OH271005   5.268   5.679   4.441  0.3233 -0.3000 -0.3826
16505TIP3    H171006   5.203   5.635   4.496  2.8284 -3.2704  0.5393
16505TIP3    H271007   5.224   5.756   4.408 -2.9228 -0.9774  1.8876
16506TIP3   OH271008   4.177   1.135  12.181 -0.1301 -0.0386 -0.0149
16506TIP3    H171009   4.104   1.096  12.230 -3.1108  3.7062 -0.9871
16506TIP3    H271010   4.230   1.179  12.248 -0.1632 -0.7294  0.4741
16507TIP3   OH271011   0.625   5.519   4.655 -0.0055 -0.6454  0.5049
16507TIP3    H171012   0.679   5.596   4.672  0.5430 -0.8085 -0.4018
16507TIP3    H271013   0.540   5.539   4.695 -0.0632  0.6849 -0.2350
16508TIP3   OH271014   5.630   4.513   3.564  0.2664  0.1783 -0.2108
16508TIP3    H171015   5.656   4.584   3.505  0.4012  0.0859 -0.2625
16508TIP3    H271016   5.544   4.540   3.597 -0.5356 -0.4861 -1.6434
16509TIP3   OH271017   3.307   3.383   2.780 -0.1952 -0.9702  0.3824
16509TIP3    H171018   3.362   3.442   2.728  0.2355 -1.3706  0.3818
16509TIP3    H271019   3.360   3.305   2.793  0.3250 -0.3057  2.7519
16510TIP3   OH271020   2.000   2.354  11.790  0.0218  0.4858 -0.2793
16510TIP3    H171021   2.070   2.291  11.774  1.5603  1.5770  1.7113
16510TIP3    H271022   1.957   2.364  11.705  0.2222 -2.5577 -0.8520
16511TIP3   OH271023   6.257   2.204   2.568 -0.4586  0.1469 -0.7521
16511TIP3    H171024   6.174   2.178   2.607  0.4273  1.6665  2.4997
16511TIP3    H271025   6.280   2.286   2.612  2.9366 -0.4225 -1.1633
16512TIP3   OH271026   1.775   3.922  14.329  0.0856  0.2194 -0.3753
16512TIP3    H171027   1.831   3.851  14.298 -0.6135 -0.0909 -0.9632
16512TIP3    H271028   1.780   3.989  14.260 -0.4164  0.1040 -0.5280
16513TIP3   OH271029   1.175   3.390  12.586 -0.0110 -0.0633  0.0753
16513TIP3    H171030   1.094   3.441  12.592 -1.1705 -1.0923 -3.9628
16513TIP3    H271031   1.148   3.300  12.603  1.3226  0.0243  3.3586
16514TIP3   OH271032   5.301   3.441  11.816 -0.0277  0.1787 -0.0882
16514TIP3    H171033   5.327   3.357  11.855  0.8884 -0.2905 -1.6249
16514TIP3    H271034   5.311   3.505  11.887  1.7850 -0.6063  0.4050
16515TIP3   OH271035   0.080   5.651   0.783 -0.6263  0.0049 -0.5882
16515TIP3    H171036  -0.001   5.674   0.827 -1.6034 -0.7052 -1.9491
16515TIP3    H271037   0.074   5.557   0.768  0.0126  0.0901 -1.5328
16516TIP3   OH271038   0.855   0.609   4.220 -0.3595 -0.5558 -0.0544
16516TIP3    H171039   0.801   0.688   4.218 -1.1185 -1.0263  1.1321
16516TIP3    H271040   0.795   0.538   4.197  0.2178 -0.8632 -0.6756
16517TIP3   OH271041   6.273   1.858  15.794 -0.7417 -0.3021  0.0619
16517TIP3    H171042   6.228   1.939  15.770  0.3186  0.2972  0.0625
16517TIP3    H271043   6.337   1.844  15.723 -1.6387 -1.7355 -0.5205
16518TIP3   OH271044   0.539   3.600  16.787 -0.0652 -0.2087  0.2509
16518TIP3    H171045   0.483   3.575  16.714 -0.1640 -0.0685  0.2771
16518TIP3    H271046   0.525   3.532  16.853 -0.0803 -0.2616  0.1933
16519TIP3   OH271047   2.682   1.802  16.061 -0.0420 -0.4005  0.8087
16519TIP3    H171048   2.661   1.715  16.027  2.5270 -1.8291  2.5693
16519TIP3    H271049   2.774   1.814  16.039 -0.4102  2.0962  0.3263
16520TIP3   OH271050   0.107   5.745   3.859 -0.1911  0.1600  0.2258
16520TIP3    H171051   0.039   5.698   3.811 -0.4169  1.1477 -0.4456
16520TIP3    H271052   0.160   5.786   3.792  0.4254  0.2883  0.7840
16521TIP3   OH271053   1.410   0.709  16.893  0.0291 -0.0363 -0.2397
16521TIP3    H171054   1.330   0.716  16.841 -0.9198 -2.6722  0.6994
16521TIP3    H271055   1.477   0.753  16.841 -1.5925  0.4288 -2.0293
16522TIP3   OH271056   3.094   4.412  11.659  0.7141 -0.0594  0.5468
16522TIP3    H171057   3.084   4.496  11.704 -1.5229 -0.3413  0.6877
16522TIP3    H271058   3.120   4.351  11.728  2.9250  0.5468  0.3443
16523TIP3   OH271059   1.158   4.617  14.228 -0.0491 -0.2821 -0.4438
16523TIP3    H171060   1.250   4.604  14.203  0.6094  1.7862  0.6590
16523TIP3    H271061   1.147   4.561  14.305 -0.4094 -2.2030 -1.8127
16524TIP3   OH271062   6.311   1.073  13.146 -0.1621 -0.2056  0.2386
16524TIP3    H171063   6.380   1.133  13.115  0.5392 -0.5724  1.0755
16524TIP3    H271064   6.231   1.110  13.109  0.3839  0.6529 -0.1405
16525TIP3   OH271065   0.917   3.542  11.202 -0.2041  0.4244 -0.1899
16525TIP3    H171066   0.921   3.536  11.106  2.0815  0.6317 -0.1652
16525TIP3    H271067   0.853   3.476  11.227  1.3157 -1.8232 -1.7225
16526TIP3   OH271068   3.320   3.365   1.298  0.1983 -0.0265 -0.3329
16526TIP3    H171069   3.397   3.415   1.326  0.6589 -1.1024  0.4335
16526TIP3    H271070   3.352   3.275   1.290 -0.9092 -0.4377 -0.3135
16527TIP3   OH271071   1.914   6.265  16.641 -0.3023 -0.2190  0.2896
16527TIP3    H171072   1.999   6.244  16.603 -0.0828  0.9269  0.1265
16527TIP3    H271073   1.905   6.203  16.713  1.4586  0.7194  1.4022
16528TIP3   OH271074   1.011   3.551  16.413 -0.0406  0.2107  0.0659
16528TIP3    H171075   0.974   3.476  16.367 -0.0478 -0.6565  1.4423
16528TIP3    H271076   0.950   3.569  16.484 -0.9449  2.6462 -1.2205
16529TIP3   OH271077   3.947   1.597   1.455  0.2566  0.2521 -0.2569
16529TIP3    H171078   3.934   1.692   1.450  0.2464  0.2130 -1.0553
16529TIP3    H271079   3.874   1.565   1.508 -0.4500  0.5434 -1.0511
16530TIP3   OH271080   2.025   4.447  12.587 -0.1750 -0.0837 -0.4015
16530TIP3    H171081   1.958   4.383  12.564 -2.7489  2.4349 -0.4098
16530TIP3    H271082   2.029   4.445  12.683  0.5652 -0.9604 -0.4332
16531TIP3   OH271083   1.415   6.475  11.709 -0.3216  0.9117  0.7575
16531TIP3    H171084   1.373   6.536  11.770  0.0301  0.9418  0.9720
16531TIP3    H271085   1.454   6.531  11.642  1.4081  1.0607  1.8129
16532TIP3   OH271086   5.233   3.612  12.313  0.1833 -0.5091 -0.1338
16532TIP3    H171087   5.295   3.650  12.251 -1.0189 -1.2611 -1.8859
16532TIP3    H271088   5.240   3.667  12.391  1.9819  0.2837 -0.8054
16533TIP3   OH271089   6.176   3.441   0.453 -0.4877  0.1007  0.4778
16533TIP3    H171090   6.193   3.535   0.450  0.4398 -0.0584  0.2695
16533TIP3    H271091   6.086   3.433   0.484 -0.9272  1.0807 -0.4932
16534TIP3   OH271092   5.755   1.990   2.219 -0.7615 -0.6720 -0.0795
16534TIP3    H171093   5.723   2.012   2.131 -0.0195 -1.5721 -0.5926
16534TIP3    H271094   5.736   1.897   2.229  1.4760 -1.2067 -0.3364
16535TIP3   OH271095   0.587   4.537   3.228  0.4251  0.6237 -0.0056
16535TIP3    H171096   0.660   4.541   3.165  1.3145  0.2240  0.9622
16535TIP3    H271097   0.526   4.475   3.190  0.7363  0.7315 -0.6948
16536TIP3   OH271098   2.549   4.791   5.024  0.4627 -0.4125  0.0744
16536TIP3    H171099   2.643   4.785   5.036  0.2549 -1.5000  1.3568
16536TIP3    H271100   2.525   4.875   5.063  0.9115 -0.0249 -0.4627
16537TIP3   OH271101   2.675   2.994   2.477  0.2034  0.4720 -0.0018
16537TIP3    H171102   2.729   2.973   2.553 -1.4070  0.7697  1.2825
16537TIP3    H271103   2.721   2.954   2.403  0.3202 -2.4440  1.5044
16538TIP3   OH271104   5.264   5.114   0.168  0.2584 -0.0383 -0.0732
16538TIP3    H171105   5.239   5.091   0.258  0.1826  0.7887  0.1188
16538TIP3    H271106   5.359   5.126   0.173  0.4005 -0.9516 -0.3226
16539TIP3   OH271107   1.908   5.673   5.991 -0.2116  0.3893 -0.5481
16539TIP3    H171108   1.893   5.767   5.982 -0.1548  0.4992  0.4644
16539TIP3    H271109   1.877   5.652   6.079 -2.2065 -0.9244 -1.4776
16540TIP3   OH271110   6.088   1.003   6.580 -0.0321  0.1938  0.2809
16540TIP3    H171111   6.030   0.952   6.523  0.1360 -0.2892  0.5349
16540TIP3    H271112   6.165   0.947   6.592  0.2539  0.6034  0.3833
16541TIP3   OH271113   0.952   1.453  16.818  0.3950  0.0801  0.0235
16541TIP3    H171114   0.981   1.530  16.868  0.7694  0.6555 -1.0438
16541TIP3    H271115   0.949   1.382  16.883  1.0690  0.7485  0.8139
16542TIP3   OH271116   5.792   2.375  11.866  0.4422  0.8927 -0.1701
16542TIP3    H171117   5.719   2.383  11.927 -0.9517 -1.7964 -1.3207
16542TIP3    H271118   5.866   2.348  11.922  0.2614  2.3799  0.8297
16543TIP3   OH271119   0.234   1.992   2.531 -0.0213 -0.2016  0.2195
16543TIP3    H171120   0.180   2.055   2.578 -0.7939 -0.3932 -0.3771
16543TIP3    H271121   0.262   1.930   2.598  2.6112  1.9395  1.2488
16544TIP3   OH271122   4.630   1.444   2.682  0.2110 -0.2792 -0.6666
16544TIP3    H171123   4.601   1.407   2.599 -0.3917 -0.7419 -0.2609
16544TIP3    H271124   4.725   1.438   2.680  0.2653  0.4974 -1.6792
16545TIP3   OH271125   2.829   5.024   2.195 -0.5457 -0.0658 -0.0278
16545TIP3    H171126   2.897   4.957   2.200 -0.8544 -0.4611 -0.9759
16545TIP3    H271127   2.785   5.020   2.280  0.1844 -0.2650  0.3420
16546TIP3   OH271128   1.895   0.514  12.193  0.3197 -0.1836  0.0587
16546TIP3    H171129   1.986   0.486  12.199 -0.1183 -1.4202  1.8024
16546TIP3    H271130   1.844   0.435  12.213 -1.1669  0.2851 -1.6199
16547TIP3   OH271131   3.685   0.386   5.141 -0.0226 -0.0756 -0.3487
16547TIP3    H171132   3.635   0.445   5.085  0.6188  1.6353  0.7979
16547TIP3    H271133   3.776   0.397   5.114  0.3539  1.1089  1.2285
16548TIP3   OH271134   0.939   2.557  14.130 -0.2265 -0.1895 -0.3014
16548TIP3    H171135   0.953   2.572  14.036  1.3428  0.9391  0.0688
16548TIP3    H271136   0.880   2.627  14.157  2.5131  2.0679  0.2793
16549TIP3   OH271137   2.157   5.440   6.150 -0.2720  0.0844  0.1916
16549TIP3    H171138   2.139   5.464   6.059 -2.5651 -0.6977  0.3791
16549TIP3    H271139   2.162   5.524   6.196  1.5027  0.5232 -0.6884
16550TIP3   OH271140   0.170   6.430   0.506  0.1386 -0.4476 -0.6598
16550TIP3    H171141   0.155   6.508   0.453 -0.1364 -0.5461 -0.7268
16550TIP3    H271142   0.083   6.396   0.525  0.2849 -1.3310 -1.5080
16551TIP3   OH271143   6.581   2.457   0.963 -0.1096  0.5129  0.1105
16551TIP3    H171144   6.593   2.419   0.877 -1.4401  1.7766 -0.6816
16551TIP3    H271145   6.530   2.537   0.948 -1.9792 -0.1680  2.2356
16552TIP3   OH271146   1.997   1.812   5.914  0.1052  0.5491  0.0890
16552TIP3    H171147   1.963   1.731   5.951 -0.8680  0.1294 -1.6331
16552TIP3    H271148   1.939   1.880   5.949 -1.9314 -0.0386 -1.9171
16553TIP3   OH271149   1.843   5.382  12.227 -0.1355  0.1584  0.3098
16553TIP3    H171150   1.794   5.325  12.287 -0.0905 -0.1919  0.0191
16553TIP3    H271151   1.899   5.322  12.178 -0.4976  0.3785 -0.3937
16554TIP3   OH271152   2.570   0.295  13.750  0.0251  0.1140  0.2442
16554TIP3    H171153   2.475   0.292  13.762 -0.1258 -2.0973 -0.9445
16554TIP3    H271154   2.581   0.333  13.663  0.2906  1.0503  0.6758
16555TIP3   OH271155   6.163   5.234   4.662 -0.1382  0.1997  1.0547
16555TIP3    H171156   6.122   5.299   4.605  0.8730 -0.5801 -0.6506
16555TIP3    H271157   6.257   5.251   4.655  0.0517 -0.4822  1.7838
16556TIP3   OH271158   4.108   4.883  12.702 -0.4749 -0.2111 -0.1094
16556TIP3    H171159   4.139   4.911  12.789 -2.1051  1.2829  0.0479
16556TIP3    H271160   4.029   4.833  12.719 -1.8175  1.5818 -0.7525
16557TIP3   OH271161   1.464   5.839  13.344 -0.3977  0.4617  0.2823
16557TIP3    H171162   1.485   5.746  13.332  0.1597  0.5867  0.2729
16557TIP3    H271163   1.485   5.880  13.260 -0.5121  0.6225  0.3307
16558TIP3   OH271164   1.282   3.287  16.584 -1.0021  0.0478  0.2357
16558TIP3    H171165   1.232   3.207  16.597 -0.0729 -0.5570  0.1370
16558TIP3    H271166   1.340   3.292  16.659 -0.5252  0.2326 -0.1426
16559TIP3   OH271167   4.999   0.178  13.218  0.1947  0.0766 -0.0613
16559TIP3    H171168   5.089   0.153  13.238  0.4962 -0.0168 -1.3945
16559TIP3    H271169   4.954   0.095  13.204  0.2653  0.1510 -0.7862
16560TIP3   OH271170   6.745   1.723  13.363  0.1174  0.1008 -0.4287
16560TIP3    H171171   6.766   1.677  13.281 -0.7598 -1.1601  0.0373
16560TIP3    H271172   6.654   1.750  13.353  0.1876  0.4649 -0.1034
16561TIP3   OH271173   3.184   4.008   5.630  0.2829 -0.3687 -0.2112
16561TIP3    H171174   3.200   4.007   5.725 -2.9144  3.7530  0.6384
16561TIP3    H271175   3.268   4.035   5.592  0.7746  1.2415  1.8309
16562TIP3   OH271176   0.951   1.025  12.432  0.2707  0.1283 -0.5220
16562TIP3    H171177   1.022   1.043  12.370  1.1180  0.2905  0.4778
16562TIP3    H271178   0.949   0.929  12.438  1.6338  0.1346  0.7847
16563TIP3   OH271179   6.669   2.197   0.135 -0.4819  0.0609  0.3482
16563TIP3    H171180   6.617   2.200   0.215  1.9568 -0.4015  2.0683
16563TIP3    H271181   6.699   2.287   0.122 -3.9036  1.0069 -2.3479
16564TIP3   OH271182   0.438   5.512  14.414  0.0893  0.3007 -0.4736
16564TIP3    H171183   0.456   5.593  14.365  0.9368  0.5095  0.1637
16564TIP3    H271184   0.367   5.535  14.473  0.5310  0.6710 -0.0822
16565TIP3   OH271185   5.469   6.224  14.033 -0.3816  0.4861 -0.0803
16565TIP3    H171186   5.445   6.178  14.114 -1.1531 -1.3979 -1.3234
16565TIP3    H271187   5.539   6.283  14.060 -0.8876  0.2178  2.0440
16566TIP3   OH271188   5.997   2.544   6.100 -0.4076 -0.2492  0.7690
16566TIP3    H171189   5.939   2.578   6.032 -0.9542  0.3290  1.5179
16566TIP3    H271190   5.981   2.449   6.099 -0.5515 -0.2206  0.2164
16567TIP3   OH271191   3.033   2.847   3.497 -0.6825 -0.1109 -0.1547
16567TIP3    H171192   2.988   2.855   3.581 -0.0672  0.8562  0.1064
16567TIP3    H271193   3.020   2.756   3.471 -1.7850 -0.1444  0.4707
16568TIP3   OH271194   2.723   2.725  16.470 -0.0598  0.1213  0.5050
16568TIP3    H171195   2.639   2.713  16.513 -1.4066  1.7412 -1.4494
16568TIP3    H271196   2.726   2.657  16.403 -0.0551  0.3849  0.2335
16569TIP3   OH271197   5.413   4.819  14.660  0.3362 -0.0258  0.1215
16569TIP3    H171198   5.352   4.775  14.602  0.4006  1.3023 -1.0017
16569TIP3    H271199   5.499   4.790  14.631  0.3877  0.9519 -0.7434
16570TIP3   OH271200   4.835   3.129  14.430 -0.2321  0.4486  0.1415
16570TIP3    H171201   4.765   3.171  14.480 -0.8657  1.0080 -1.1707
16570TIP3    H271202   4.813   3.036  14.431 -1.6995  0.7324 -1.2401
16571TIP3   OH271203   4.275   2.727  12.735 -0.2901 -0.3405 -0.3644
16571TIP3    H171204   4.247   2.713  12.825 -0.1917 -0.6600 -0.3823
16571TIP3    H271205   4.242   2.650  12.688  0.3763 -0.5849 -0.4392
16572TIP3   OH271206   0.630   0.252  13.735 -0.0385  0.3178  0.1774
16572TIP3    H171207   0.546   0.292  13.713 -0.4493 -1.2047 -1.2000
16572TIP3    H271208   0.618   0.220  13.825 -1.5830 -1.3890 -0.5675
16573TIP3   OH271209   3.486   1.797  11.815 -0.5943  0.0904 -0.1145
16573TIP3    H171210   3.573   1.771  11.845 -1.3586 -1.9127  0.5367
16573TIP3    H271211   3.425   1.751  11.873 -2.0995 -0.4672 -2.0262
16574TIP3   OH271212   3.887   2.788   4.667 -0.3396 -0.3564 -0.1074
16574TIP3    H171213   3.868   2.695   4.680 -1.1807 -0.5051 -2.0095
16574TIP3    H271214   3.893   2.824   4.755 -1.5958 -1.9144  0.6685
16575TIP3   OH271215   0.414   2.556  14.665 -0.2095 -0.0618 -0.2865
16575TIP3    H171216   0.378   2.579  14.579 -0.3709  2.0117  0.2995
16575TIP3    H271217   0.404   2.635  14.718  0.6796 -1.0223  1.4022
16576TIP3   OH271218   6.419   4.777   0.996  0.0232 -0.4770  0.1747
16576TIP3    H171219   6.453   4.728   1.070  0.2193 -1.4248 -0.5148
16576TIP3    H271220   6.495   4.820   0.957  0.0863 -0.7890 -0.0539
16577TIP3   OH271221   4.388   4.492  14.861  0.0739  0.2180  0.3497
16577TIP3    H171222   4.318   4.490  14.926 -0.4185  1.5696 -0.0936
16577TIP3    H271223   4.344   4.481  14.777  0.6514 -1.0303  0.1920
16578TIP3   OH271224   4.294   4.333  12.424 -0.3834  0.2751  0.6202
16578TIP3    H171225   4.212   4.381  12.427 -0.1186  0.7482  0.3466
16578TIP3    H271226   4.360   4.399  12.403 -0.1379 -0.3478 -0.6618
16579TIP3   OH271227   3.778   5.880  11.567 -0.6853  0.0888  0.0427
16579TIP3    H171228   3.784   5.913  11.478 -1.3937 -0.6514 -0.2915
16579TIP3    H271229   3.795   5.957  11.622  2.3344  0.0657 -0.6970
16580TIP3   OH271230   4.849   5.219  15.036 -0.1573 -0.2010  0.3981
16580TIP3    H171231   4.936   5.206  14.998 -0.1674  0.4395  0.1372
16580TIP3    H271232   4.846   5.160  15.111  0.5433 -0.1468  0.4754
16581TIP3   OH271233   5.027   2.445   3.389 -0.2923  0.4868 -0.3604
16581TIP3    H171234   5.093   2.510   3.413 -1.6057  1.4092  0.8952
16581TIP3    H271235   5.064   2.362   3.419  0.8748  0.7866 -0.8920
16582TIP3   OH271236   0.649   3.882  15.774  0.1067  0.6771 -0.0079
16582TIP3    H171237   0.733   3.837  15.780  1.2679  2.8171  1.3081
16582TIP3    H271238   0.672   3.975  15.764 -2.1153  1.2554 -0.3703
16583TIP3   OH271239   0.130   5.118  11.158  0.4005 -0.4010  0.6849
16583TIP3    H171240   0.210   5.102  11.107 -0.1991 -0.5090 -0.2385
16583TIP3    H271241   0.077   5.040  11.145 -0.3491  0.1488  0.3428
16584TIP3   OH271242   0.294   0.823  15.760 -0.7819  0.0427  0.4918
16584TIP3    H171243   0.361   0.809  15.694 -1.2680  1.3128 -0.3203
16584TIP3    H271244   0.337   0.876  15.827  0.3821 -3.0540  2.4259
16585TIP3   OH271245   5.082   0.721  13.603 -0.2191 -0.4186 -0.3996
16585TIP3    H171246   5.148   0.658  13.633  2.1655  0.9522 -2.3739
16585TIP3    H271247   5.038   0.676  13.531  0.7094 -0.2847 -1.0750
16586TIP3   OH271248   0.880   6.079   1.944  0.0395  0.3039  0.1245
16586TIP3    H171249   0.879   6.078   1.848  2.3577 -0.0649  0.0536
16586TIP3    H271250   0.869   5.988   1.969 -0.0833  0.3390  0.1980
16587TIP3   OH271251   5.070   0.937  14.162 -0.7368 -0.3506 -0.5422
16587TIP3    H171252   5.015   0.860  14.174 -1.4186  0.4269  1.9028
16587TIP3    H271253   5.159   0.903  14.158 -1.1355 -1.3685 -0.9557
16588TIP3   OH271254   0.125   2.903   2.567  0.2475 -0.2597 -0.2306
16588TIP3    H171255   0.209   2.859   2.581  0.6778  0.1677 -1.3696
16588TIP3    H271256   0.108   2.894   2.473 -0.0222  1.3304 -0.3672
16589TIP3   OH271257   0.805   4.228   2.334  0.1160  0.0952  0.4593
16589TIP3    H171258   0.857   4.275   2.269  1.1060 -2.7219 -0.9065
16589TIP3    H271259   0.868   4.202   2.401 -0.2287 -0.1941  0.6742
16590TIP3   OH271260   6.190   0.495  13.083  0.2162  0.4832  0.1009
16590TIP3    H171261   6.272   0.453  13.108 -0.0440 -0.1420 -0.0883
16590TIP3    H271262   6.134   0.423  13.054 -0.1989  0.9699 -0.3125
16591TIP3   OH271263   0.409   2.665  13.052  0.0301 -0.4709  0.1285
16591TIP3    H171264   0.400   2.678  12.958  0.2146  1.2586  0.3177
16591TIP3    H271265   0.421   2.753  13.087 -0.7418 -1.0152  1.8488
16592TIP3   OH271266   4.692   5.552  13.439 -0.0783 -0.3872  0.0275
16592TIP3    H171267   4.664   5.611  13.510  2.3794 -1.2119  1.8027
16592TIP3    H271268   4.707   5.468  13.482 -0.1922 -1.4253 -1.8439
16593TIP3   OH271269   5.847   2.386  16.606 -0.3501 -0.7479  0.1355
16593TIP3    H171270   5.819   2.313  16.550 -0.7309  0.4103 -1.2633
16593TIP3    H271271   5.769   2.409  16.656 -0.7223 -0.2250 -0.6697
16594TIP3   OH271272   4.766   4.525  12.799 -0.6599  0.4334 -0.5666
16594TIP3    H171273   4.804   4.602  12.840 -0.9736  0.4287 -0.2690
16594TIP3    H271274   4.704   4.560  12.735 -0.8992  0.4264 -0.3387
16595TIP3   OH271275   3.500   5.553  11.091 -0.0844 -0.1482 -0.1239
16595TIP3    H171276   3.578   5.539  11.038 -0.9121  0.8751 -1.6858
16595TIP3    H271277   3.435   5.589  11.030 -1.3651  0.2766  1.4071
16596TIP3   OH271278   5.360   6.839  10.975 -0.3375  0.5858 -0.2682
16596TIP3    H171279   5.336   6.885  10.895 -0.6120  0.8029 -0.0630
16596TIP3    H271280   5.338   6.900  11.046  0.5779  0.6881 -0.0571
16597TIP3   OH271281   2.811   6.703  13.349 -0.1360  0.4110  0.0043
16597TIP3    H171282   2.845   6.661  13.428 -0.8085  1.0622  0.6658
16597TIP3    H271283   2.716   6.706  13.363 -0.2697  0.4945 -0.8561
16598TIP3   OH271284   4.754   4.678  17.060  0.4327 -0.2810  0.1382
16598TIP3    H171285   4.785   4.590  17.036  0.5470 -0.3966  0.7141
16598TIP3    H271286   4.674   4.662  17.110  1.5279 -0.1618  2.0151
16599TIP3   OH271287   4.255   5.642  11.786  0.2520 -0.0118 -0.1047
16599TIP3    H171288   4.186   5.707  11.801  0.0681 -0.0677 -0.6780
16599TIP3    H271289   4.258   5.632  11.691 -0.2999 -1.4504 -0.0020
16600TIP3   OH271290   0.544   3.133   0.594 -0.3375  0.3393 -0.0903
16600TIP3    H171291   0.574   3.128   0.503  0.0598  0.9613 -0.0008
16600TIP3    H271292   0.508   3.221   0.602 -2.5028 -0.4785 -0.2697
16601TIP3   OH271293   0.324   4.307  14.240 -0.2139 -0.0184  0.3280
16601TIP3    H171294   0.347   4.334  14.151 -0.4740  0.4046  0.3870
16601TIP3    H271295   0.230   4.294  14.237 -0.3385  0.7483  0.7337
16602TIP3   OH271296   4.262   5.211  13.680 -0.3716 -0.1646  0.6440
16602TIP3    H171297   4.321   5.167  13.618 -0.5015 -0.9231  1.0556
16602TIP3    H271298   4.315   5.222  13.759 -1.1074 -1.9024  1.4261
16603TIP3   OH271299   2.743   3.486   1.472 -0.4374 -0.1507  0.2938
16603TIP3    H171300   2.707   3.563   1.427  0.7541 -0.6733 -1.7029
16603TIP3    H271301   2.676   3.418   1.462 -1.4053  0.5020  1.8866
16604TIP3   OH271302   3.514   3.290   4.967 -0.1552  0.0344  0.4607
16604TIP3    H171303   3.608   3.273   4.975 -0.2830 -0.6024  0.6655
16604TIP3    H271304   3.475   3.247   5.044 -0.7479 -0.8803 -0.3208
16605TIP3   OH271305   2.186   6.023   4.633 -0.3846 -0.2028  0.3715
16605TIP3    H171306   2.220   5.987   4.715 -1.2141 -0.4427  0.6204
16605TIP3    H271307   2.263   6.028   4.576  0.1802 -0.1487  1.1165
16606TIP3   OH271308   5.612   0.452   0.328 -0.2695  0.0910  0.0957
16606TIP3    H171309   5.648   0.531   0.369 -1.9711 -0.2230  2.3647
16606TIP3    H271310   5.658   0.379   0.370 -0.5357 -0.1997 -0.1094
16607TIP3   OH271311   0.970   0.533   0.375  0.1254 -0.1250  0.6188
16607TIP3    H171312   0.925   0.596   0.319  1.2354  1.4589  1.4391
16607TIP3    H271313   1.054   0.518   0.331 -0.9760 -2.8906 -0.7902
16608TIP3   OH271314   1.668   1.113   2.416 -0.6803  0.0231 -0.0891
16608TIP3    H171315   1.621   1.136   2.496 -3.0265 -0.6145 -1.1798
16608TIP3    H271316   1.599   1.088   2.354  1.1151 -0.6557 -1.9430
16609TIP3   OH271317   1.778   4.114   4.173  0.3654 -0.0639  0.1317
16609TIP3    H171318   1.784   4.205   4.201 -0.9816  0.3207 -0.7228
16609TIP3    H271319   1.839   4.107   4.100 -0.3866  0.4877 -0.5678
16610TIP3   OH271320   6.048   6.769   0.485 -0.1771  0.1607 -0.4128
16610TIP3    H171321   5.966   6.757   0.533  1.2829 -2.6044  1.7297
16610TIP3    H271322   6.073   6.859   0.502 -2.1512  0.7154 -0.1646
16611TIP3   OH271323   5.628   1.322   0.970  0.1124 -0.4021 -0.2348
16611TIP3    H171324   5.564   1.282   1.028  1.2354 -1.9418  0.0143
16611TIP3    H271325   5.710   1.278   0.992  0.9656  0.4510 -1.5801
16612TIP3   OH271326   6.107   6.340   2.326 -0.2992  0.3384 -0.5621
16612TIP3    H171327   6.200   6.343   2.301 -0.0977 -0.3374  0.0565
16612TIP3    H271328   6.107   6.352   2.421 -0.8027 -0.1513 -0.4947
16613TIP3   OH271329   0.617   5.076   5.214  0.3350  0.1305  0.2757
16613TIP3    H171330   0.524   5.059   5.203  0.5341 -0.5780 -0.4009
16613TIP3    H271331   0.622   5.140   5.285 -0.6866  0.5071  0.0216
16614TIP3   OH271332   6.717   2.106   5.201  0.0535  0.7196  0.4906
16614TIP3    H171333   6.711   2.153   5.118 -1.8618 -0.2696  0.0177
16614TIP3    H271334   6.665   2.158   5.262 -0.5764  0.1662  0.4296
16615TIP3   OH271335   3.423   1.262  13.394 -0.0743 -0.7037 -0.8240
16615TIP3    H171336   3.387   1.222  13.315  3.2703  0.7112 -3.2992
16615TIP3    H271337   3.428   1.356  13.373  0.5457 -0.2309  1.2630
16616TIP3   OH271338   5.305   1.581   0.272  0.2365  0.2256 -0.4454
16616TIP3    H171339   5.215   1.557   0.251 -0.4752  1.5943  0.8671
16616TIP3    H271340   5.329   1.523   0.345 -0.3144  1.1759  0.5226
16617TIP3   OH271341   6.403   5.017   3.598 -0.1792 -0.1530  0.1122
16617TIP3    H171342   6.313   5.005   3.568 -0.1494  0.2455 -0.1536
16617TIP3    H271343   6.449   4.938   3.570 -0.2664 -0.0040 -0.4593
16618TIP3   OH271344   0.063   3.903  13.066 -0.0345  0.2443 -0.0283
16618TIP3    H171345  -0.002   3.947  13.119 -1.2840 -1.0372 -0.4218
16618TIP3    H271346   0.050   3.938  12.978  0.9185  1.1560  0.1758
16619TIP3   OH271347   6.230   0.662  12.870 -0.5966 -0.3841  0.1681
16619TIP3    H171348   6.318   0.642  12.837 -0.2912  0.5610  0.3722
16619TIP3    H271349   6.225   0.616  12.953 -0.4971 -0.8751 -0.0896
16620TIP3   OH271350   0.587   3.615   3.559 -0.0208 -0.3317 -0.2719
16620TIP3    H171351   0.585   3.701   3.518 -1.3071 -1.0008 -1.7162
16620TIP3    H271352   0.652   3.566   3.508  1.5122  0.0412  1.2183
16621TIP3   OH271353   0.034   0.174   3.425  0.2434  0.0605  0.0820
16621TIP3    H171354  -0.052   0.177   3.467  1.0193 -0.6172  1.8128
16621TIP3    H271355   0.043   0.259   3.381 -1.4809 -0.0447 -0.5580
16622TIP3   OH271356   6.706   0.264  15.485  0.2340 -0.0000 -0.0367
16622TIP3    H171357   6.656   0.342  15.510 -1.0395 -1.4962  2.5079
16622TIP3    H271358   6.642   0.207  15.443  1.1287  0.1927 -1.7568
16623TIP3   OH271359   6.469   2.085  11.940 -0.1160  0.4340  0.0727
16623TIP3    H171360   6.538   2.019  11.936 -0.9643 -0.4902  0.5237
16623TIP3    H271361   6.395   2.041  11.979 -1.0552  1.3601 -0.6036
16624TIP3   OH271362   2.396   5.206  13.778  0.6526  0.4107 -0.5944
16624TIP3    H171363   2.453   5.168  13.844 -0.7337  2.8238  2.2272
16624TIP3    H271364   2.444   5.283  13.746  0.2068  0.8019 -0.3391
16625TIP3   OH271365   2.271   5.435   4.186 -0.1501 -0.1244  0.3342
16625TIP3    H171366   2.308   5.347   4.182 -2.1626 -0.9953 -1.5368
16625TIP3    H271367   2.176   5.421   4.188 -0.5380  2.0011 -0.3465
16626TIP3   OH271368   2.317   6.252  16.907  0.6497 -0.7104 -0.0670
16626TIP3    H171369   2.391   6.308  16.884 -0.9791  2.0816  0.9445
16626TIP3    H271370   2.317   6.249  17.002  0.1697 -1.6721 -0.0878
16627TIP3   OH271371   4.800   2.683  16.156  0.0060 -0.2801  0.0236
16627TIP3    H171372   4.743   2.610  16.134 -0.8141  0.3878 -0.0702
16627TIP3    H271373   4.822   2.668  16.248 -0.6982 -0.2831  0.1946
16628TIP3   OH271374   2.281   5.510   2.037 -0.0610 -0.1825 -0.2410
16628TIP3    H171375   2.330   5.549   2.109  0.3322  0.9521 -1.0969
16628TIP3    H271376   2.266   5.582   1.976  0.0259 -1.2057 -1.5173
16629TIP3   OH271377   6.644   2.579  15.365 -0.3034 -0.2822  0.0656
16629TIP3    H171378   6.653   2.674  15.377 -3.8470  0.2652 -0.4479
16629TIP3    H271379   6.671   2.541  15.448  0.4973  1.2209  0.5289
16630TIP3   OH271380   5.146   4.322   0.955  0.2790  0.3874 -0.4441
16630TIP3    H171381   5.215   4.369   0.908 -0.2765  0.5905 -1.0669
16630TIP3    H271382   5.158   4.348   1.046  0.2995  1.3518 -0.7098
16631TIP3   OH271383   2.758   5.869  15.648 -0.5888  0.4464 -0.0151
16631TIP3    H171384   2.848   5.849  15.621 -0.0471 -0.8429  2.4852
16631TIP3    H271385   2.737   5.802  15.712 -2.7776  1.6725  0.6376
16632TIP3   OH271386   3.180   6.481   2.856 -0.3590 -0.1899 -0.3901
16632TIP3    H171387   3.090   6.507   2.875  0.1459  1.7917 -0.5333
16632TIP3    H271388   3.204   6.532   2.779  1.4321  0.6817  0.6728
16633TIP3   OH271389   1.698   3.193  13.823 -0.1885 -0.0085  0.1385
16633TIP3    H171390   1.647   3.254  13.877 -0.2231  1.3875 -1.3736
16633TIP3    H271391   1.652   3.191  13.739  1.9074  0.9271 -1.1280
16634TIP3   OH271392   0.247   1.202  10.743 -0.7569 -0.0541  0.5924
16634TIP3    H171393   0.282   1.145  10.674  1.5011  1.1971  0.6048
16634TIP3    H271394   0.231   1.144  10.817  2.9685 -0.5720  1.1446
16635TIP3   OH271395   3.002   3.810  13.168 -0.1892 -0.4683 -0.7833
16635TIP3    H171396   3.082   3.863  13.165  0.6543 -1.4440  1.6578
16635TIP3    H271397   2.932   3.873  13.181  0.3019  0.3100 -1.7706
16636TIP3   OH271398   6.691   1.092  16.455 -0.2300 -0.1762 -0.3335
16636TIP3    H171399   6.750   1.102  16.380 -1.2246 -0.7556 -1.2241
16636TIP3    H271400   6.626   1.029  16.426 -1.4808  0.6727  0.4988
16637TIP3   OH271401   1.279   4.308  11.424  0.2285  0.1956 -1.0597
16637TIP3    H171402   1.235   4.225  11.445  0.7410 -0.0761 -1.0396
16637TIP3    H271403   1.330   4.288  11.346 -1.0126  0.9744 -2.0976
16638TIP3   OH271404   3.437   3.611   1.701 -0.1051 -0.0534 -0.0870
16638TIP3    H171405   3.346   3.584   1.711 -0.4600  1.4406  1.0866
16638TIP3    H271406   3.481   3.577   1.778  0.2168 -0.2824 -0.3680
16639TIP3   OH271407   6.270   3.732   0.418 -0.4295  0.1158 -0.3255
16639TIP3    H171408   6.346   3.780   0.385 -0.6823  0.6371 -0.1717
16639TIP3    H271409   6.195   3.779   0.382 -0.6870 -0.0434 -0.0053
16640TIP3   OH271410   2.619   2.410  14.590 -0.1734  0.0462  0.1776
16640TIP3    H171411   2.684   2.477  14.568 -0.2503 -0.0097 -0.2390
16640TIP3    H271412   2.657   2.328  14.556  0.3187 -0.2771  1.4481
16641TIP3   OH271413   3.721   5.422   1.828  0.1352 -0.0834 -0.2930
16641TIP3    H171414   3.694   5.419   1.920  2.6913 -0.4349  0.5390
16641TIP3    H271415   3.752   5.333   1.809  0.3350  0.1752 -1.2648
16642TIP3   OH271416   2.256   0.132   3.387 -0.1251 -0.2323 -0.3544
16642TIP3    H171417   2.336   0.177   3.360 -0.2756 -0.4572 -1.2199
16642TIP3    H271418   2.227   0.179   3.465  1.0526 -0.3961  0.2043
16643TIP3   OH271419   5.688   5.591  13.175 -0.6568 -0.1525 -0.8141
16643TIP3    H171420   5.712   5.511  13.128  0.6315  0.0022 -0.4424
16643TIP3    H271421   5.736   5.586  13.257  0.5897  1.6572 -1.3725
16644TIP3   OH271422   4.297   4.031  12.416 -0.4513 -0.2721 -0.7275
16644TIP3    H171423   4.298   4.126  12.428 -1.2803 -0.3306 -0.0643
16644TIP3    H271424   4.223   4.001  12.470  0.6524 -1.4512  0.1782
16645TIP3   OH271425   2.027   0.845  15.071 -0.4201 -0.2606  0.3539
16645TIP3    H171426   1.945   0.844  15.120 -0.2059 -0.0892  0.7171
16645TIP3    H271427   2.057   0.936  15.077 -0.6713 -0.1072 -0.5605
16646TIP3   OH271428   1.853   1.652  13.801  0.3255 -0.5709 -0.1217
16646TIP3    H171429   1.927   1.631  13.858 -0.2091  0.1784  0.8944
16646TIP3    H271430   1.892   1.672  13.717  1.5924  2.1672  0.9865
16647TIP3   OH271431   1.554   0.942  11.143 -0.5286  0.1420  0.3881
16647TIP3    H171432   1.536   0.931  11.236  0.2495  0.2779  0.5645
16647TIP3    H271433   1.649   0.942  11.137 -0.5482  1.5145 -0.2359
16648TIP3   OH271434   1.972   6.104   1.066  0.0345  0.4346  0.4254
16648TIP3    H171435   1.974   6.147   0.980 -0.5193  1.9061  1.1130
16648TIP3    H271436   2.028   6.027   1.055 -0.8956 -0.0353 -1.5545
16649TIP3   OH271437   3.135   2.827  11.758  0.1023  0.1345 -0.6182
16649TIP3    H171438   3.173   2.850  11.674 -0.0288 -0.5683 -0.8752
16649TIP3    H271439   3.046   2.800  11.738 -0.2425  0.8598 -0.1332
16650TIP3   OH271440   6.655   3.705  16.221  0.2768 -0.3118  0.2955
16650TIP3    H171441   6.687   3.705  16.312 -0.0236  0.2440  0.4090
16650TIP3    H271442   6.665   3.615  16.192 -0.0690 -0.6072  1.0472
16651TIP3   OH271443   5.138   4.433   6.795  0.3686 -0.3071 -0.3136
16651TIP3    H171444   5.204   4.365   6.808 -0.5986 -1.1744  0.2083
16651TIP3    H271445   5.057   4.395   6.830  0.2559  1.9453  2.1845
16652TIP3   OH271446   4.036   3.228  13.152 -0.5994 -0.4919 -0.1979
16652TIP3    H171447   4.012   3.310  13.196 -1.1131 -0.6461 -0.1815
16652TIP3    H271448   3.993   3.234  13.066 -0.0637 -0.4395 -0.4696
16653TIP3   OH271449   4.722   4.365   1.890  0.4012  0.0422 -0.3896
16653TIP3    H171450   4.681   4.440   1.846  0.2383 -0.7277 -1.5990
16653TIP3    H271451   4.726   4.391   1.982  1.0271  1.8438 -0.8708
16654TIP3   OH271452   2.830   0.404   4.203  0.4623 -0.2223  0.0859
16654TIP3    H171453   2.826   0.315   4.238  0.0336 -0.5170 -0.6937
16654TIP3    H271454   2.824   0.393   4.108  0.3712  0.6412 -0.0152
16655TIP3   OH271455   4.959   3.435   4.507  0.2883 -0.7550  0.4580
16655TIP3    H171456   4.921   3.519   4.533  0.5059  0.0526 -1.6287
16655TIP3    H271457   4.903   3.404   4.437  1.0667 -1.6276  0.2040
16656TIP3   OH271458   4.685   6.681  12.209  0.0369 -0.1757 -0.5839
16656TIP3    H171459   4.712   6.599  12.251 -0.3929 -0.4202 -0.7771
16656TIP3    H271460   4.765   6.733  12.205 -0.3221  0.7846  2.5451
16657TIP3   OH271461   4.768   2.965   6.313 -0.0791 -0.1663 -0.0889
16657TIP3    H171462   4.712   2.955   6.237  0.4757 -1.7585 -0.3264
16657TIP3    H271463   4.850   2.923   6.288  1.4340  2.5129  0.0758
16658TIP3   OH271464   3.648   6.089  13.116 -0.2971 -0.3706 -0.9867
16658TIP3    H171465   3.635   6.180  13.145 -2.9909 -1.3417  1.3310
16658TIP3    H271466   3.725   6.059  13.165 -1.8575 -0.4822  1.5380
16659TIP3   OH271467   1.953   2.463   1.574 -0.2969  0.1685 -0.5111
16659TIP3    H171468   2.024   2.460   1.509 -0.4200 -0.3949 -0.6199
16659TIP3    H271469   1.893   2.394   1.547 -0.1875 -0.2829  0.3908
16660TIP3   OH271470   2.634   2.374   3.137 -0.0249 -0.2133 -0.2423
16660TIP3    H171471   2.557   2.327   3.168 -0.1377  0.0366 -0.1346
16660TIP3    H271472   2.705   2.344   3.193 -0.4829  1.2542  1.2154
16661TIP3   OH271473   1.640   2.925  15.281 -0.0561  0.3913 -0.7078
16661TIP3    H171474   1.695   2.999  15.306  0.6295  0.3240 -1.9188
16661TIP3    H271475   1.557   2.964  15.254 -0.1099  0.6121 -0.2317
16662TIP3   OH271476   5.474   1.525  17.184  0.7501 -0.0107  0.5449
16662TIP3    H171477   5.550   1.533  17.241  0.6046  0.2982  0.6958
16662TIP3    H271478   5.436   1.440  17.207  0.9504 -0.0894  0.5889
16663TIP3   OH271479   3.822   3.781  11.258 -0.3005  0.0338  0.2212
16663TIP3    H171480   3.850   3.858  11.208 -2.8424  0.8893 -0.0449
16663TIP3    H271481   3.844   3.706  11.202  0.5595  0.6796 -0.3311
16664TIP3   OH271482   6.498   1.930   1.782 -0.2419  0.3057 -0.1113
16664TIP3    H171483   6.471   1.995   1.847  0.1369  1.4315 -1.0238
16664TIP3    H271484   6.417   1.885   1.757 -0.1178 -1.6796  2.6447
16665TIP3   OH271485   5.227   2.821  16.550  0.3243  0.7873  0.2913
16665TIP3    H171486   5.296   2.887  16.535  0.7524  0.2892  0.0398
16665TIP3    H271487   5.175   2.823  16.469 -1.1482  2.5288  1.2039
16666TIP3   OH271488   2.319   6.118   6.596  0.2191  0.0869 -0.0304
16666TIP3    H171489   2.294   6.203   6.559  0.2451  0.7004  1.2894
16666TIP3    H271490   2.412   6.110   6.579 -0.1098 -0.5483 -1.7736
16667TIP3   OH271491   4.502   5.061   3.161 -0.0529 -0.2912  0.2728
16667TIP3    H171492   4.486   5.119   3.087  0.9745 -1.0375 -0.5624
16667TIP3    H271493   4.424   5.070   3.216 -0.8458  0.2543 -0.9071
16668TIP3   OH271494   6.608   4.706   0.063 -0.1063 -0.2288 -0.1731
16668TIP3    H171495   6.684   4.649   0.056 -0.8671 -1.1855 -0.9583
16668TIP3    H271496   6.617   4.749   0.148  0.3915 -1.6506  0.5140
16669TIP3   OH271497   2.376   6.812  14.251  0.0850  0.3763 -0.6641
16669TIP3    H171498   2.333   6.812  14.166 -1.9030 -1.0897  0.2524
16669TIP3    H271499   2.319   6.866  14.306 -0.0954 -0.7975  0.3424
16670TIP3   OH271500   0.926   1.299   5.482 -0.1239 -0.0188  0.0830
16670TIP3    H171501   0.998   1.266   5.536 -1.2254 -0.7609  1.1665
16670TIP3    H271502   0.911   1.231   5.417  0.8969  0.6690 -0.9218
16671TIP3   OH271503   5.909   2.885   1.586 -0.0339  0.0235 -0.1005
16671TIP3    H171504   5.951   2.964   1.619 -0.3966 -0.7109  2.3566
16671TIP3    H271505   5.815   2.900   1.599 -0.3017  0.0724 -1.8150
16672TIP3   OH271506   6.270   2.963  15.525  0.5580 -0.3567  0.1055
16672TIP3    H171507   6.217   3.021  15.469 -0.6336 -1.3027  0.2171
16672TIP3    H271508   6.241   2.983  15.614  2.6311  1.3258  0.4680
16673TIP3   OH271509   6.785   4.555   4.674 -0.4687 -0.3349 -1.1976
16673TIP3    H171510   6.696   4.522   4.682 -1.0926  1.4288 -0.2886
16673TIP3    H271511   6.841   4.481   4.698 -1.7347 -1.0139 -0.2258
16674TIP3   OH271512   0.175   3.500   5.308 -0.4863 -0.2819 -0.5097
16674TIP3    H171513   0.263   3.537   5.307  0.2241 -1.9205 -0.2101
16674TIP3    H271514   0.185   3.412   5.274 -1.9450 -0.6434 -0.0703
16675TIP3   OH271515   1.181   5.131   3.813  0.0405  0.4027  0.0384
16675TIP3    H171516   1.149   5.187   3.884 -0.9096  0.8095 -0.6731
16675TIP3    H271517   1.101   5.106   3.765  0.7151  0.9010 -1.4188
16676TIP3   OH271518   5.120   3.177  13.110  0.1241 -0.0979 -0.6909
16676TIP3    H171519   5.142   3.085  13.095  1.2158 -0.2497  1.4562
16676TIP3    H271520   5.150   3.223  13.031 -1.7072 -1.7031 -2.4308
16677TIP3   OH271521   3.813   2.376   3.940 -0.4316  0.3651 -0.3245
16677TIP3    H171522   3.853   2.407   4.021  0.8878  0.1985 -0.8874
16677TIP3    H271523   3.875   2.313   3.905 -0.6421  0.9322 -1.8066
16678TIP3   OH271524   4.454   6.520   2.963  0.1527  0.0360 -0.3015
16678TIP3    H171525   4.542   6.542   2.992  0.6037 -0.5132 -1.2363
16678TIP3    H271526   4.398   6.546   3.037  0.9052  1.9736 -0.3584
16679TIP3   OH271527   3.316   3.882  16.995  0.7260 -0.2218  0.2886
16679TIP3    H171528   3.377   3.870  17.068  1.9924 -0.9642 -0.8289
16679TIP3    H271529   3.366   3.931  16.930 -1.1912  2.7093  0.8416
16680TIP3   OH271530   1.509   5.526  14.751  0.4773  0.1846 -0.6899
16680TIP3    H171531   1.441   5.469  14.789  0.2301  1.2322  0.5162
16680TIP3    H271532   1.478   5.615  14.769 -0.1181  0.8330 -4.2273
16681TIP3   OH271533   2.904   4.858  16.734  0.4262 -0.3185 -0.7128
16681TIP3    H171534   2.999   4.845  16.739  0.7917  1.3309 -2.4400
16681TIP3    H271535   2.876   4.804  16.660  0.5343  1.4607 -2.1120
16682TIP3   OH271536   5.170   6.106   3.698  0.5969 -0.2775 -0.0691
16682TIP3    H171537   5.169   6.140   3.609 -1.8248  2.4930  0.8762
16682TIP3    H271538   5.213   6.174   3.749 -1.0648 -0.2247  1.3397
16683TIP3   OH271539   3.877   1.776   0.303 -1.3572  0.6576  0.2940
16683TIP3    H171540   3.930   1.848   0.270 -0.1631  0.4141  1.5369
16683TIP3    H271541   3.818   1.754   0.232  0.5805  0.6182 -1.4078
16684TIP3   OH271542   1.140   3.540   4.292 -0.6417 -0.5519 -0.6849
16684TIP3    H171543   1.157   3.569   4.202 -1.2889 -0.7779 -0.8798
16684TIP3    H271544   1.045   3.544   4.301 -0.5512 -0.1020  0.1362
16685TIP3   OH271545   1.288   4.257   0.655 -0.4293  0.3015  0.2006
16685TIP3    H171546   1.230   4.323   0.617 -0.7068 -0.5950 -0.9734
16685TIP3    H271547   1.243   4.229   0.735 -1.7685 -0.5481 -0.8085
16686TIP3   OH271548   3.369   1.624  12.707  1.1993 -0.9434  0.5987
16686TIP3    H171549   3.364   1.580  12.622  1.1454 -0.0893  0.1535
16686TIP3    H271550   3.460   1.612  12.735  2.1022  1.4568 -1.0675
16687TIP3   OH271551   5.594   2.429  15.737 -0.4866  0.1689 -0.4415
16687TIP3    H171552   5.595   2.513  15.783  0.3042  0.3340 -0.7339
16687TIP3    H271553   5.685   2.415  15.711  0.1908 -2.5032  2.6859
16688TIP3   OH271554   0.738   5.503   4.078  0.1728 -0.1556  0.1858
16688TIP3    H171555   0.765   5.589   4.110  0.0751 -0.5315  1.3234
16688TIP3    H271556   0.646   5.497   4.104 -0.0424 -0.2885 -0.5918
16689TIP3   OH271557   5.435   1.581   6.095 -0.5658 -0.4941  0.1795
16689TIP3    H171558   5.386   1.509   6.135  0.1797 -0.4670  1.1822
16689TIP3    H271559   5.466   1.546   6.011 -0.7857 -1.1008  0.3475
16690TIP3   OH271560   0.094   6.709  13.274 -0.4405  0.0191 -0.6451
16690TIP3    H171561   0.088   6.756  13.191 -0.1640 -0.4246 -0.9133
16690TIP3    H271562   0.133   6.625  13.253 -0.9356 -0.3453 -0.1604
16691TIP3   OH271563   4.175   5.517  13.816  0.8073 -0.2367 -0.2066
16691TIP3    H171564   4.223   5.593  13.846 -1.4189  0.8034  0.9952
16691TIP3    H271565   4.151   5.538  13.726  0.4068  0.4103  0.0420
16692TIP3   OH271566   4.398   1.955   0.357 -0.8945 -0.4885 -0.1025
16692TIP3    H171567   4.386   1.885   0.420 -1.3174 -0.5973 -0.3009
16692TIP3    H271568   4.321   1.949   0.299 -0.4812 -0.4332 -0.6649
16693TIP3   OH271569   4.781   0.558   1.008  0.7503  0.2873  0.4312
16693TIP3    H171570   4.835   0.635   1.026  0.6335  1.2450 -2.7396
16693TIP3    H271571   4.704   0.570   1.063  1.7873  1.1587  1.7717
16694TIP3   OH271572   1.640   3.304   4.994 -0.1689  0.2262 -0.2890
16694TIP3    H171573   1.578   3.273   4.928  0.8893  1.1792 -1.7905
16694TIP3    H271574   1.617   3.254   5.073 -1.5946 -0.8201 -1.3011
16695TIP3   OH271575   2.995   1.089  15.574  0.3411  0.6611  0.1081
16695TIP3    H171576   2.996   0.995  15.555  1.3659  0.7486 -0.3453
16695TIP3    H271577   2.902   1.113  15.572  0.1455 -0.1196 -0.8784
16696TIP3   OH271578   2.784   5.235  12.201 -0.5141  0.3310  0.4305
16696TIP3    H171579   2.757   5.148  12.229  0.6376 -0.4038 -0.6350
16696TIP3    H271580   2.815   5.223  12.112  0.4976  1.6673  0.5660
16697TIP3   OH271581   2.986   1.223   0.542 -0.1337  0.5051  0.5215
16697TIP3    H171582   3.042   1.156   0.582 -0.6774  0.2678  0.8932
16697TIP3    H271583   3.044   1.299   0.531  0.3246  0.1820  0.6710
16698TIP3   OH271584   4.877   3.564  15.251  0.4543 -0.1403  0.0280
16698TIP3    H171585   4.903   3.609  15.332  1.6702  0.0402 -0.4482
16698TIP3    H271586   4.957   3.559  15.199 -0.3518 -0.0554 -1.2730
16699TIP3   OH271587   4.983   0.038   1.629  0.6399  0.3672  0.4473
16699TIP3    H171588   4.898  -0.005   1.627  1.2809 -0.9226  0.0325
16699TIP3    H271589   5.003   0.057   1.537  1.2517 -0.2681  0.4401
16700TIP3   OH271590   5.917   4.743   3.302 -0.1875 -0.0781 -0.3587
16700TIP3    H171591   6.008   4.762   3.278  0.4849 -2.5278  0.0223
16700TIP3    H271592   5.897   4.806   3.372  1.9240 -0.7929  0.9830
16701TIP3   OH271593   6.336   2.759  12.888 -0.8322  0.2349 -0.1412
16701TIP3    H171594   6.313   2.781  12.797  0.3018 -2.6554 -1.2479
16701TIP3    H271595   6.399   2.827  12.913  0.4056 -0.0129 -2.3036
16702TIP3   OH271596   5.411   3.947  14.327 -0.4123 -0.6399 -0.3330
16702TIP3    H171597   5.497   3.936  14.286 -0.5685 -0.8598 -0.6003
16702TIP3    H271598   5.431   3.969  14.418 -0.0689 -0.2853 -0.4951
16703TIP3   OH271599   0.655   0.802   2.037  0.0383 -0.2428  0.3800
16703TIP3    H171600   0.738   0.775   2.076  0.2284 -0.4293 -0.1476
16703TIP3    H271601   0.625   0.725   1.988 -0.0770  0.0708 -0.0461
16704TIP3   OH271602   5.219   2.352   1.433 -0.1856 -0.0984  0.1137
16704TIP3    H171603   5.305   2.386   1.409  0.3116 -0.4458  1.3077
16704TIP3    H271604   5.222   2.344   1.528 -1.7058  0.3100  0.2324
16705TIP3   OH271605   1.559   5.231   2.358 -0.1163  0.6355 -0.4604
16705TIP3    H171606   1.480   5.224   2.305  0.1390 -0.1599 -0.7652
16705TIP3    H271607   1.582   5.140   2.379 -0.8828  0.9521  2.0801
16706TIP3   OH271608   4.738   6.316   4.060 -0.2671  0.1372 -0.3680
16706TIP3    H171609   4.732   6.253   3.989  1.1464 -1.1170  0.5548
16706TIP3    H271610   4.659   6.302   4.112  0.0215 -0.9220 -0.1777
16707TIP3   OH271611   5.830   6.088   2.412  0.6667 -0.3059  0.6213
16707TIP3    H171612   5.872   6.159   2.363  0.2060 -0.3701  0.1303
16707TIP3    H271613   5.743   6.081   2.374 -0.4374  0.9587  2.7348
16708TIP3   OH271614   1.487   6.187   4.929  0.4158 -0.4030 -0.1728
16708TIP3    H171615   1.524   6.247   4.865  2.6494 -1.2893  0.2157
16708TIP3    H271616   1.455   6.244   4.999 -0.1487  0.4452 -1.0831
16709TIP3   OH271617   5.779   6.314  12.894 -0.0505 -0.0153 -0.0082
16709TIP3    H171618   5.781   6.399  12.939 -0.4205 -0.9926  1.9249
16709TIP3    H271619   5.729   6.257  12.952 -0.0369 -1.5119 -1.4064
16710TIP3   OH271620   2.273   6.573  11.308  0.2279  0.1413 -0.6294
16710TIP3    H171621   2.340   6.510  11.283 -0.0993 -0.7842  0.7448
16710TIP3    H271622   2.253   6.553  11.399 -0.3880  1.7917 -0.3647
16711TIP3   OH271623   0.773   4.470   0.425  0.3233  0.2030 -0.2786
16711TIP3    H171624   0.823   4.547   0.450 -0.8301  0.8868  0.0159
16711TIP3    H271625   0.774   4.414   0.502  0.7162  0.1719 -0.3076
16712TIP3   OH271626   2.002   5.895   4.840  0.1303  0.1929 -0.6049
16712TIP3    H171627   2.005   5.870   4.747 -1.7945 -0.8313 -0.4362
16712TIP3    H271628   1.970   5.816   4.884  2.9306 -0.0383  1.2544
16713TIP3   OH271629   4.595   2.785   1.234 -0.2803  0.0760  0.2314
16713TIP3    H171630   4.553   2.746   1.157 -1.3230  0.1496  0.7478
16713TIP3    H271631   4.656   2.718   1.265 -1.5828 -0.9120  0.7225
16714TIP3   OH271632   4.029   6.799  10.692  0.0627 -0.6710  0.3575
16714TIP3    H171633   4.016   6.706  10.713  1.3009 -0.8050  0.5884
16714TIP3    H271634   3.940   6.832  10.675 -0.2711 -2.2535 -1.2819
16715TIP3   OH271635   4.598   5.797   0.678  0.9238  0.0438  0.0219
16715TIP3    H171636   4.570   5.802   0.587  2.3171 -2.0420 -0.6087
16715TIP3    H271637   4.678   5.850   0.681 -0.2168  1.8116  0.5866
16716TIP3   OH271638   3.118   5.671  11.448 -0.4557  0.0284 -0.3358
16716TIP3    H171639   3.113   5.608  11.377  1.6566  1.5168 -1.9336
16716TIP3    H271640   3.166   5.625  11.517 -1.2857 -0.9541 -0.3807
16717TIP3   OH271641   1.172   0.209   4.426  0.4054 -0.3535 -0.2959
16717TIP3    H171642   1.162   0.289   4.477 -0.4884 -1.1099  0.7910
16717TIP3    H271643   1.257   0.174   4.452 -0.3420 -1.1161  1.3440
16718TIP3   OH271644   2.523   1.749  11.424  0.7101 -0.2746  0.8408
16718TIP3    H171645   2.593   1.692  11.391  0.1931  0.2691 -1.3003
16718TIP3    H271646   2.469   1.768  11.348 -1.2695  0.1004  2.2464
16719TIP3   OH271647   0.068   4.475  11.366 -0.4061 -0.1600  0.6623
16719TIP3    H171648   0.025   4.436  11.290 -0.0673 -1.0598  0.9116
16719TIP3    H271649   0.161   4.479  11.342 -0.5699  1.5164  0.2302
16720TIP3   OH271650   0.570   1.766  11.022 -0.1023 -0.2839 -0.5326
16720TIP3    H171651   0.590   1.836  10.961  1.0818 -1.6596 -1.8005
16720TIP3    H271652   0.652   1.717  11.030 -0.8607 -1.4677  0.3965
16721TIP3   OH271653   6.239   6.350  12.524 -0.2014 -0.3087 -0.2386
16721TIP3    H171654   6.170   6.345  12.458 -1.6537 -4.1447  1.2278
16721TIP3    H271655   6.192   6.366  12.606  0.9614 -0.2958  0.4416
16722TIP3   OH271656   1.131   2.487   4.255 -0.3145  0.5707 -0.2354
16722TIP3    H171657   1.079   2.407   4.265  0.1718  0.3585  0.6707
16722TIP3    H271658   1.167   2.481   4.166  1.1339 -1.0913  0.4037
16723TIP3   OH271659   2.061   3.300   3.178 -0.1044  0.2066 -0.1923
16723TIP3    H171660   2.082   3.266   3.091 -1.4071 -1.3759  0.0570
16723TIP3    H271661   2.138   3.351   3.203  0.2754  0.7647 -2.2814
16724TIP3   OH271662   0.256   2.591   2.636 -0.9934 -0.6781 -0.0590
16724TIP3    H171663   0.255   2.552   2.723 -1.5092  0.1514  0.3189
16724TIP3    H271664   0.268   2.685   2.651 -2.4054 -0.3438 -0.7807
16725TIP3   OH271665   2.076   3.950   3.927  0.3024 -0.0060 -0.2644
16725TIP3    H171666   2.101   4.012   3.996  3.4519 -0.5950 -0.7649
16725TIP3    H271667   2.054   3.869   3.975  1.2158 -0.0318  0.1232
16726TIP3   OH271668   6.611   0.864  13.778 -0.2427  0.6577  0.4338
16726TIP3    H171669   6.603   0.775  13.814  0.3897  0.0878 -0.7722
16726TIP3    H271670   6.624   0.919  13.855  2.6495 -0.7000  1.0718
16727TIP3   OH271671   0.813   4.606  13.284 -0.2453 -0.1733 -0.0029
16727TIP3    H171672   0.725   4.580  13.255 -0.1908  0.0941 -0.4274
16727TIP3    H271673   0.869   4.533  13.257 -0.2563 -0.1008 -0.2292
16728TIP3   OH271674   0.825   4.919   2.092  0.1048 -0.1605  0.1705
16728TIP3    H171675   0.891   4.966   2.041 -1.1579  1.1386 -0.3141
16728TIP3    H271676   0.835   4.827   2.065  1.4336  0.0751 -0.1793
16729TIP3   OH271677   6.052   3.679  16.473  0.1963 -0.0630 -0.4698
16729TIP3    H171678   5.963   3.650  16.455  0.1709 -0.7457  0.6161
16729TIP3    H271679   6.042   3.765  16.513 -0.0214 -0.3750  0.1568
16730TIP3   OH271680   3.585   3.959   0.895  0.2828  0.2082  0.2434
16730TIP3    H171681   3.625   3.872   0.887 -0.6319 -0.2600  0.6808
16730TIP3    H271682   3.613   4.005   0.816  1.5947 -0.1361  0.4795
16731TIP3   OH271683   1.806   5.318   5.812 -0.1389  0.0265 -0.3348
16731TIP3    H171684   1.886   5.317   5.866  0.5539  0.7702 -1.2979
16731TIP3    H271685   1.797   5.410   5.785 -1.1244 -0.1215 -0.5277
16732TIP3   OH271686   1.982   2.147   4.829  0.1115  0.2652 -0.1398
16732TIP3    H171687   2.000   2.187   4.915  1.8779  2.8181 -1.5465
16732TIP3    H271688   1.909   2.198   4.793 -1.1043 -1.2634  0.0817
16733TIP3   OH271689   3.467   1.974  13.351  0.4229  0.0046 -0.0547
16733TIP3    H171690   3.420   2.011  13.426  1.1924  0.2615  0.3099
16733TIP3    H271691   3.420   1.893  13.332 -0.0521  0.1564  0.4301
16734TIP3   OH271692   1.177   0.400  10.621 -0.4106  0.4170  0.3989
16734TIP3    H171693   1.131   0.354  10.551 -0.2794  0.3370  0.3651
16734TIP3    H271694   1.155   0.351  10.700 -1.9761  1.5101  0.6917
16735TIP3   OH271695   6.504   5.344  11.823 -0.6137  0.3169  0.0816
16735TIP3    H171696   6.486   5.285  11.750 -2.6880 -0.0623  0.8212
16735TIP3    H271697   6.518   5.285  11.898  0.5338  0.7183  0.2055
16736TIP3   OH271698   5.634   4.306  15.398  0.2052  0.2164 -0.1950
16736TIP3    H171699   5.635   4.239  15.330 -0.9560 -0.2363  0.2106
16736TIP3    H271700   5.609   4.259  15.478 -0.0425  1.0251  0.2130
16737TIP3   OH271701   4.913   1.381  14.260 -0.3036 -0.0035  0.1007
16737TIP3    H171702   4.945   1.291  14.261 -0.6489 -0.1269  0.6677
16737TIP3    H271703   4.981   1.431  14.305  0.4837  0.2421 -1.3105
16738TIP3   OH271704   6.305   1.631  12.213 -0.3971  0.4283 -0.0432
16738TIP3    H171705   6.362   1.653  12.286  0.4356 -1.1136 -0.1978
16738TIP3    H271706   6.353   1.565  12.163 -1.3384  0.7786 -1.4806
16739TIP3   OH271707   1.561   6.492   2.633 -0.0971  0.0281  0.3323
16739TIP3    H171708   1.641   6.447   2.658 -0.1940 -0.5462 -0.3573
16739TIP3    H271709   1.491   6.444   2.677 -0.2843 -1.0946 -1.1085
16740TIP3   OH271710   2.739   4.474  15.316 -0.1538  0.1056 -0.0976
16740TIP3    H171711   2.825   4.473  15.273  0.3433  0.3627  0.8524
16740TIP3    H271712   2.748   4.541  15.384 -0.8423 -0.4608  0.5514
16741TIP3   OH271713   0.975   3.733  12.230  0.2896  0.2098  0.1953
16741TIP3    H171714   1.040   3.734  12.300  0.8453  1.4728 -0.3258
16741TIP3    H271715   0.928   3.815  12.239  0.8702  0.7492 -1.3617
16742TIP3   OH271716   1.794   6.444  15.649 -0.0176 -0.0272  0.1824
16742TIP3    H171717   1.717   6.498  15.628  0.9795  0.0125 -4.3089
16742TIP3    H271718   1.766   6.355  15.630  0.4212 -0.2727  0.6782
16743TIP3   OH271719   0.298   2.964   4.972 -0.3910 -0.0684 -0.1775
16743TIP3    H171720   0.311   2.949   5.066 -1.2384  1.4763  0.2162
16743TIP3    H271721   0.387   2.973   4.937 -0.0037 -1.8635  0.2171
16744TIP3   OH271722   5.658   1.804  14.656 -0.4113  0.2016 -0.2555
16744TIP3    H171723   5.687   1.776  14.569 -0.0229  0.5778 -0.2497
16744TIP3    H271724   5.739   1.831  14.701 -0.4093 -1.3250  0.7250
16745TIP3   OH271725   2.779   0.090  15.353  0.2387 -0.1796  0.1381
16745TIP3    H171726   2.817   0.168  15.312 -2.0569  0.9941  0.0680
16745TIP3    H271727   2.841   0.067  15.423  1.4309  1.1368 -0.4351
16746TIP3   OH271728   6.077   2.946   3.120 -0.6561  0.4235 -0.1705
16746TIP3    H171729   6.110   3.035   3.108  2.3179 -0.4784  0.2499
16746TIP3    H271730   6.112   2.919   3.205 -2.6095 -0.7477  0.3276
16747TIP3   OH271731   2.096   1.411   4.557 -0.1617 -0.1785 -0.0446
16747TIP3    H171732   2.073   1.320   4.543 -2.3643  0.2541  0.4842
16747TIP3    H271733   2.064   1.457   4.480  0.1966  0.2660  0.0639
16748TIP3   OH271734   2.779   5.115   5.516 -0.2080 -0.1144  0.1609
16748TIP3    H171735   2.735   5.039   5.554 -0.2445  0.5793  1.5964
16748TIP3    H271736   2.865   5.116   5.558  0.0989  0.1696 -0.4666
16749TIP3   OH271737   4.153   1.342  13.940  0.2944  0.7132 -0.3186
16749TIP3    H171738   4.241   1.372  13.965  0.3800 -0.4833  0.9064
16749TIP3    H271739   4.096   1.416  13.963  0.9473  1.4474 -0.9927
16750TIP3   OH271740   5.152   3.338  13.728  0.7097 -0.0991  0.0714
16750TIP3    H171741   5.103   3.342  13.811 -0.3425 -0.4036 -0.5189
16750TIP3    H271742   5.201   3.256  13.734  0.8137 -0.0114  0.4902
16751TIP3   OH271743   5.550   4.923   5.412 -0.1014  0.9143 -0.3864
16751TIP3    H171744   5.574   4.928   5.320  1.5662  1.0110  0.0146
16751TIP3    H271745   5.614   4.862   5.450 -2.8242 -1.8986  0.0957
16752TIP3   OH271746   4.123   0.091   4.766  0.3093 -0.1923  0.1604
16752TIP3    H171747   4.088   0.178   4.748 -0.8522 -0.7794 -0.5349
16752TIP3    H271748   4.179   0.102   4.843  3.3670  1.9275 -2.1091
16753TIP3   OH271749   3.662   2.645  10.357  0.3297  0.9806 -0.2271
16753TIP3    H171750   3.739   2.699  10.371 -0.4527  1.9864  0.3612
16753TIP3    H271751   3.693   2.572  10.304  1.9075  0.7819  0.9157
16754TIP3   OH271752   3.099   6.541  10.775  0.1880 -0.4026  0.1126
16754TIP3    H171753   3.059   6.459  10.746  2.0259 -1.5603  0.7172
16754TIP3    H271754   3.104   6.533  10.870 -1.4529  1.3315  0.4011
16755TIP3   OH271755   6.701   0.077  15.779  0.4626 -0.3679  0.3211
16755TIP3    H171756   6.749   0.092  15.861  2.0706 -0.4999 -0.5591
16755TIP3    H271757   6.761   0.106  15.711 -0.2693 -1.6105 -0.8959
16756TIP3   OH271758   4.775   2.540   3.431  0.1291  0.3038 -0.0465
16756TIP3    H171759   4.856   2.503   3.396  1.0465  1.3190  0.9337
16756TIP3    H271760   4.766   2.624   3.385 -0.7729 -0.1127 -0.6696
16757TIP3   OH271761   3.808   1.472   0.135  0.4832 -0.1817 -0.8568
16757TIP3    H171762   3.903   1.487   0.128  0.6525 -0.2005  0.9859
16757TIP3    H271763   3.769   1.554   0.104  0.9918 -0.7912 -3.3578
16758TIP3   OH271764   6.437   3.385  13.484 -0.7936  0.7031 -0.5293
16758TIP3    H171765   6.471   3.434  13.558 -0.7410 -0.9998  0.6328
16758TIP3    H271766   6.351   3.354  13.513  0.2920 -2.1937 -0.0572
16759TIP3   OH271767   6.075   0.192  12.850 -0.5707  0.3674  0.5259
16759TIP3    H171768   6.055   0.216  12.940 -1.2157 -0.5689  0.6449
16759TIP3    H271769   6.153   0.138  12.857 -1.7152 -1.3218  0.7544
16760TIP3   OH271770   2.494   4.587   0.142 -0.0826 -0.1068 -0.5062
16760TIP3    H171771   2.499   4.602   0.047  0.2562  1.3310 -0.2919
16760TIP3    H271772   2.555   4.651   0.179 -0.4852 -0.4051  0.6999
16761TIP3   OH271773   3.758   1.116   3.682  0.0314 -0.1537 -0.3971
16761TIP3    H171774   3.782   1.043   3.739 -1.0753 -1.0519 -1.0347
16761TIP3    H271775   3.780   1.086   3.594  0.6774  0.7697 -0.5648
16762TIP3   OH271776   1.660   0.156   3.906  0.4489  0.1081 -0.1691
16762TIP3    H171777   1.693   0.242   3.934  0.0464 -0.3203  1.6993
16762TIP3    H271778   1.645   0.167   3.812  0.1786  2.1666  0.0581
16763TIP3   OH271779   2.844   1.456   5.883  0.3142 -0.5346 -0.0359
16763TIP3    H171780   2.880   1.367   5.885  1.7641  0.0016 -0.8515
16763TIP3    H271781   2.790   1.459   5.804  0.6680 -0.5622 -0.2834
16764TIP3   OH271782   2.015   3.413  12.855 -0.2141  0.5302  0.4661
16764TIP3    H171783   1.933   3.406  12.903  0.3266  0.2491  1.3796
16764TIP3    H271784   1.998   3.369  12.772 -1.1408  0.9438  0.4210
16765TIP3   OH271785   5.599   3.029   2.910  0.7986 -0.7857  0.6667
16765TIP3    H171786   5.625   3.066   2.826 -0.7391 -0.5898  0.2527
16765TIP3    H271787   5.677   2.982   2.941  1.0949 -1.6717 -1.2972
16766TIP3   OH271788   1.157   3.164   1.199 -0.1863 -0.8929 -0.2008
16766TIP3    H171789   1.252   3.175   1.191 -0.5663  2.5507 -3.1298
16766TIP3    H271790   1.131   3.123   1.116 -1.4482  1.8156 -1.2763
16767TIP3   OH271791   2.979   2.496   4.505 -0.3518  0.8079 -0.3707
16767TIP3    H171792   3.041   2.423   4.514  0.7708  1.4735 -2.2288
16767TIP3    H271793   2.993   2.549   4.583 -2.1832 -1.5876  1.7675
16768TIP3   OH271794   2.952   4.673  12.303 -0.3922 -0.7897  0.1846
16768TIP3    H171795   2.878   4.714  12.258 -0.4307 -0.0946  0.8533
16768TIP3    H271796   2.932   4.684  12.396 -0.2157 -2.0169  0.3744
16769TIP3   OH271797   5.217   3.015   4.157  0.0614  1.0478 -0.3229
16769TIP3    H171798   5.235   2.955   4.229 -1.5340 -0.0985 -0.8246
16769TIP3    H271799   5.296   3.069   4.151  1.5879 -1.0153  0.1114
16770TIP3   OH271800   2.474   6.433   0.438  0.3911 -0.2516  0.2732
16770TIP3    H171801   2.535   6.389   0.379 -1.6890 -2.0802 -0.6434
16770TIP3    H271802   2.446   6.511   0.390  2.0014  0.6798  0.7559
16771TIP3   OH271803   1.747   3.219   3.880  0.4549  0.0557 -0.0324
16771TIP3    H171804   1.677   3.193   3.939  0.7688 -0.1336  0.2535
16771TIP3    H271805   1.743   3.155   3.808 -1.3074  1.5112 -1.3224
16772TIP3   OH271806   6.025   2.929  15.161  0.3578 -0.3995 -0.3910
16772TIP3    H171807   5.997   2.926  15.070 -0.4921 -1.2881 -0.1166
16772TIP3    H271808   6.112   2.890  15.161  1.0042  0.9876 -1.0291
16773TIP3   OH271809   6.199   2.560   0.811 -0.0938  1.0168  0.2644
16773TIP3    H171810   6.121   2.614   0.802  0.3020  1.6108  0.3686
16773TIP3    H271811   6.266   2.619   0.845  0.6441  0.7227 -0.6348
16774TIP3   OH271812   4.909   3.660  14.267  0.0755  0.2910  0.0330
16774TIP3    H171813   4.964   3.706  14.330  1.1944  0.3621 -0.9604
16774TIP3    H271814   4.826   3.707  14.267  0.9890  1.9714 -0.5277
16775TIP3   OH271815   5.177   1.836  12.605  0.1345 -0.4545  0.4811
16775TIP3    H171816   5.211   1.833  12.515  1.4058 -0.9859  0.9615
16775TIP3    H271817   5.121   1.759  12.612 -0.2200 -0.2408  0.0545
16776TIP3   OH271818   0.460   1.867   0.879 -0.4435  0.2444 -0.0438
16776TIP3    H171819   0.378   1.819   0.891 -1.1436  1.1252 -1.1088
16776TIP3    H271820   0.507   1.818   0.811  0.8056 -1.3177  1.8296
16777TIP3   OH271821   6.229   6.210  15.752 -0.0011  0.1080 -0.1538
16777TIP3    H171822   6.272   6.166  15.826 -0.3990 -0.7209 -0.3961
16777TIP3    H271823   6.221   6.301  15.779  1.3276  0.1522  0.1527
16778TIP3   OH271824   6.386   2.177   1.467 -0.0923  0.0206 -0.5111
16778TIP3    H171825   6.367   2.213   1.380 -1.3965 -1.2719 -0.8033
16778TIP3    H271826   6.448   2.106   1.450  0.3271  0.3236 -0.2679
16779TIP3   OH271827   2.892   3.798  17.005 -0.0412 -0.4587  0.3766
16779TIP3    H171828   2.865   3.727  16.947  0.1957 -0.8991  0.7986
16779TIP3    H271829   2.966   3.762  17.054  1.4950  0.7883 -0.9299
16780TIP3   OH271830   3.822   0.891  14.187  0.0589 -0.3354 -0.1267
16780TIP3    H171831   3.830   0.970  14.240  0.3730 -0.8399  0.5912
16780TIP3    H271832   3.881   0.905  14.113 -2.1657  1.4270 -1.7384
16781TIP3   OH271833   4.608   1.119  12.449  0.5048 -0.2179  0.1585
16781TIP3    H171834   4.625   1.208  12.481  1.7166 -0.3018 -0.1949
16781TIP3    H271835   4.578   1.131  12.359  0.0789 -0.1437  0.3071
16782TIP3   OH271836   1.104   2.660   2.594 -0.2933  0.6502 -0.3016
16782TIP3    H171837   1.127   2.624   2.509 -0.7557  0.3965 -0.3254
16782TIP3    H271838   1.171   2.726   2.611  1.1155 -0.8357  0.1705
16783TIP3   OH271839   2.826   6.538   2.082  0.1036  0.1324 -0.3234
16783TIP3    H171840   2.769   6.565   2.010  1.3063  0.6656 -1.0999
16783TIP3    H271841   2.885   6.612   2.096  1.9315 -1.1614 -0.9120
16784TIP3   OH271842   2.314   2.354   5.700 -0.1464 -0.0770  0.3853
16784TIP3    H171843   2.232   2.399   5.718  1.6272  2.8877  1.7273
16784TIP3    H271844   2.339   2.314   5.783  0.1958 -0.2419  0.2050
16785TIP3   OH271845   1.740   1.719   3.859  0.0482 -0.2330  0.6453
16785TIP3    H171846   1.785   1.718   3.944  2.0793 -3.7248 -0.2991
16785TIP3    H271847   1.798   1.769   3.802 -0.2634  0.2852  0.7706
16786TIP3   OH271848   4.649   0.786  13.216 -0.3402 -0.2411  0.5559
16786TIP3    H171849   4.697   0.829  13.145  0.8470 -1.1254  0.7953
16786TIP3    H271850   4.623   0.858  13.274 -0.9296  0.4412 -0.5049
16787TIP3   OH271851   6.245   6.266  13.326  0.1170  0.3174 -0.0409
16787TIP3    H171852   6.201   6.327  13.267  1.7169  2.5905  0.9374
16787TIP3    H271853   6.182   6.250  13.397 -0.1066  1.4237  0.0304
16788TIP3   OH271854   2.403   1.394  16.636  0.6677 -0.1210 -0.1367
16788TIP3    H171855   2.360   1.480  16.632 -0.7106 -0.8316 -1.9158
16788TIP3    H271856   2.435   1.388  16.726 -0.7281  1.5524  0.5414
16789TIP3   OH271857   0.546   3.665  17.180 -0.0536 -0.6970  0.3614
16789TIP3    H171858   0.575   3.756  17.177  0.6129 -0.8773  0.9741
16789TIP3    H271859   0.460   3.666  17.139 -0.5137  0.3941  1.2778
16790TIP3   OH271860   2.579   3.074   0.221  0.4582 -0.4340  0.1544
16790TIP3    H171861   2.485   3.084   0.204  0.8760 -0.5861 -2.5843
16790TIP3    H271862   2.592   3.120   0.304 -1.8794  0.3598  0.1710
16791TIP3   OH271863   3.468   6.239   3.095  0.1489 -0.2984  0.0375
16791TIP3    H171864   3.400   6.249   3.162 -0.0353 -1.9118  0.1318
16791TIP3    H271865   3.420   6.234   3.013  0.3487  1.1944 -0.2098
16792TIP3   OH271866   2.487   2.641   2.741 -0.3062 -0.1868 -0.0057
16792TIP3    H171867   2.457   2.712   2.685  1.3394 -0.3726 -1.2286
16792TIP3    H271868   2.418   2.575   2.736 -0.4670  0.0441 -1.4222
16793TIP3   OH271869   0.351   2.758  12.798  0.6232  0.2304 -0.5491
16793TIP3    H171870   0.322   2.705  12.724 -0.5085 -0.9323  0.6731
16793TIP3    H271871   0.447   2.753  12.794  0.5674 -1.9141 -0.5088
16794TIP3   OH271872   0.048   5.607   2.588 -0.6397 -0.3743 -0.3672
16794TIP3    H171873   0.121   5.545   2.582  0.6523  0.6930  2.4031
16794TIP3    H271874   0.064   5.669   2.517  1.5628  0.1199  0.4527
16795TIP3   OH271875   4.255   2.449  15.561 -0.2890 -0.4010  0.2956
16795TIP3    H171876   4.254   2.440  15.466  0.3790 -0.2544  0.2694
16795TIP3    H271877   4.164   2.437  15.588 -0.4489 -0.6288 -0.3435
16796TIP3   OH271878   6.401   4.853  12.286  0.2293  0.1491  0.6734
16796TIP3    H171879   6.319   4.860  12.336 -0.2561  0.2011 -0.1060
16796TIP3    H271880   6.450   4.932  12.309 -0.4217  0.6632  0.3215
16797TIP3   OH271881   3.560   3.372  11.457  0.6331 -0.5775 -0.2220
16797TIP3    H171882   3.650   3.396  11.478  1.0358  0.6978 -2.9740
16797TIP3    H271883   3.565   3.335  11.369 -1.4823 -0.9995 -0.2149
16798TIP3   OH271884   0.961   3.561   2.696  0.4871 -0.0413  0.3164
16798TIP3    H171885   0.984   3.644   2.736 -0.9869  1.7045 -2.1688
16798TIP3    H271886   0.948   3.582   2.603 -3.8416 -2.1430  0.1832
16799TIP3   OH271887   1.577   3.401  16.138  0.3360  0.2094 -0.1261
16799TIP3    H171888   1.585   3.381  16.231 -3.3227 -2.4579 -0.1790
16799TIP3    H271889   1.519   3.477  16.134  0.0064 -0.0455 -0.2247
16800TIP3   OH271890   5.333   4.446  11.690 -0.0148  0.2580  0.1493
16800TIP3    H171891   5.350   4.491  11.773 -0.5527  2.6026 -0.9334
16800TIP3    H271892   5.409   4.467  11.636  0.6343 -1.7655  0.1627
16801TIP3   OH271893   5.751   1.798   3.086  0.7856 -0.1691  0.3579
16801TIP3    H171894   5.826   1.738   3.085  0.3658 -0.7403 -1.7892
16801TIP3    H271895   5.678   1.745   3.055 -0.2754  0.7025  1.2725
16802TIP3   OH271896   3.510   0.193   5.079  0.8201 -0.1096  0.5627
16802TIP3    H171897   3.429   0.243   5.091  0.4268 -0.6284  0.1189
16802TIP3    H271898   3.576   0.242   5.127  0.4302  0.8208  0.1647
16803TIP3   OH271899   1.276   0.655   3.488 -0.6173 -0.4799  0.2550
16803TIP3    H171900   1.328   0.735   3.494 -1.9580  0.4188  0.3380
16803TIP3    H271901   1.260   0.643   3.395  0.7464 -1.4589  0.1194
16804TIP3   OH271902   0.394   3.384   3.263  0.5008 -0.2706  0.0367
16804TIP3    H171903   0.461   3.442   3.227  0.4277  0.3705  0.9119
16804TIP3    H271904   0.412   3.299   3.223  0.3765  0.4266 -1.5707
16805TIP3   OH271905   6.342   3.060  12.270 -0.2950  0.8839 -0.1492
16805TIP3    H171906   6.429   3.098  12.257  0.2298  0.2100  1.2038
16805TIP3    H271907   6.357   2.965  12.265 -1.1486  0.7691 -0.9210
16806TIP3   OH271908   1.958   3.333   2.265 -0.1923  0.6837  0.1395
16806TIP3    H171909   1.868   3.366   2.260 -0.4745  0.2226  1.6358
16806TIP3    H271910   1.985   3.324   2.174 -2.3633 -1.0390 -0.4365
16807TIP3   OH271911   4.125   5.875  15.893 -0.0078  0.4214 -0.1149
16807TIP3    H171912   4.162   5.793  15.860  0.4856  0.8753 -0.7310
16807TIP3    H271913   4.031   5.864  15.884 -0.0279 -0.5883  1.0530
16808TIP3   OH271914   1.417   1.951  16.206 -0.4155 -0.0581  0.3967
16808TIP3    H171915   1.395   1.919  16.294 -1.5945  1.0540  0.5332
16808TIP3    H271916   1.381   2.040  16.203 -1.5125 -0.5031 -1.6331
16809TIP3   OH271917   3.066   6.750  11.209  0.5028  0.2203 -0.1843
16809TIP3    H171918   3.150   6.713  11.236 -0.0189 -0.5557  0.4315
16809TIP3    H271919   3.078   6.771  11.117  0.9091 -1.2800 -0.5017
16810TIP3   OH271920   2.450   4.749  16.702  0.3896  0.7150  0.3946
16810TIP3    H171921   2.504   4.733  16.625  0.5720 -1.2283  0.8845
16810TIP3    H271922   2.512   4.743  16.776  0.1748  2.2871  0.7412
16811TIP3   OH271923   0.420   3.472  13.764 -0.2753  0.3080 -0.0016
16811TIP3    H171924   0.439   3.388  13.807 -0.0815  0.1856 -0.3220
16811TIP3    H271925   0.334   3.497  13.798 -0.1827  0.1521  0.3619
16812TIP3   OH271926   1.659   3.086   3.132 -0.3683 -0.1099 -1.1026
16812TIP3    H171927   1.693   3.069   3.044  1.7349 -1.7421 -0.0651
16812TIP3    H271928   1.692   3.173   3.154  1.7293 -0.9043 -0.8422
16813TIP3   OH271929   4.114   0.320  16.036  0.5048 -0.2751  0.3657
16813TIP3    H171930   4.153   0.236  16.063 -1.2647 -1.5878 -0.9322
16813TIP3    H271931   4.144   0.382  16.102  1.4893 -2.0183  1.6598
16814TIP3   OH271932   0.498   1.614  13.643  0.0488  0.1899  0.0841
16814TIP3    H171933   0.433   1.657  13.700  0.3931  0.8784 -0.0266
16814TIP3    H271934   0.582   1.630  13.687  0.2093 -0.1721 -0.0893
16815TIP3   OH271935   3.109   5.056  16.173 -0.6179  0.2740 -0.2044
16815TIP3    H171936   3.077   5.141  16.202  0.4647 -0.0318  2.1543
16815TIP3    H271937   3.152   5.019  16.250  1.2902 -1.2842 -1.8950
16816TIP3   OH271938   2.634   5.862   6.384  0.0345  0.1329  0.1668
16816TIP3    H171939   2.627   5.783   6.438 -1.0528 -0.6113 -0.9871
16816TIP3    H271940   2.662   5.930   6.445  1.5902 -1.2477  1.0775
16817TIP3   OH271941   0.435   6.005   2.506 -0.0996 -0.0970 -0.5961
16817TIP3    H171942   0.486   5.943   2.558  1.0413  0.9682 -0.3833
16817TIP3    H271943   0.387   5.950   2.444  1.0580 -1.1928 -0.5870
16818TIP3   OH271944   6.285   2.285  14.658 -0.3836 -0.1769 -0.5658
16818TIP3    H171945   6.300   2.366  14.609  0.5153  0.4970  0.7877
16818TIP3    H271946   6.283   2.312  14.749 -2.9409 -1.2835 -0.2124
16819TIP3   OH271947   0.591   0.962   3.259  0.4614  0.7095  0.5128
16819TIP3    H171948   0.534   0.906   3.206  0.1890  1.7874 -0.3569
16819TIP3    H271949   0.539   0.982   3.337 -0.3887  1.7236 -0.2936
16820TIP3   OH271950   1.680   6.117  14.429 -0.2831 -0.0736 -0.3482
16820TIP3    H171951   1.659   6.172  14.353 -0.5725  0.2970 -0.0043
16820TIP3    H271952   1.774   6.101  14.422 -0.3852 -0.4249 -1.0360
16821TIP3   OH271953   5.960   2.552  14.188 -0.4362 -0.2509  0.8162
16821TIP3    H171954   6.047   2.554  14.147 -0.2916 -2.7093  0.8579
16821TIP3    H271955   5.973   2.594  14.273 -0.1448  2.5418 -0.4759
16822TIP3   OH271956   5.480   5.589   4.670 -0.1933  0.3457 -0.8076
16822TIP3    H171957   5.460   5.627   4.755 -1.3295  0.1622 -0.9803
16822TIP3    H271958   5.438   5.647   4.607 -2.0217 -1.1693 -1.0716
16823TIP3   OH271959   2.326   4.395  13.023 -0.0226 -0.0827  0.0091
16823TIP3    H171960   2.242   4.359  13.050  0.6530 -0.4876  1.7547
16823TIP3    H271961   2.304   4.461  12.957 -1.5890 -1.0009 -0.4416
16824TIP3   OH271962   2.045   0.753  15.905 -0.0032  0.2071  0.4707
16824TIP3    H171963   2.076   0.712  15.986 -0.2694  0.7599  0.8625
16824TIP3    H271964   1.952   0.732  15.902  0.0260  0.1104  0.2627
16825TIP3   OH271965   3.787   6.677  17.204  0.2784 -0.4374  0.6293
16825TIP3    H171966   3.735   6.610  17.249  0.9391 -0.9570  0.6417
16825TIP3    H271967   3.873   6.672  17.246  0.6582 -0.3576 -0.1238
16826TIP3   OH271968   0.615   6.061  15.146  0.9600  0.1800  0.0240
16826TIP3    H171969   0.686   6.010  15.184  0.1998  0.0950  1.3880
16826TIP3    H271970   0.657   6.139  15.111  1.9777 -0.7941 -1.0060
16827TIP3   OH271971   6.542   3.447   5.349 -0.0131 -0.5776  0.0222
16827TIP3    H171972   6.462   3.423   5.303 -1.0609  2.1188  0.2465
16827TIP3    H271973   6.610   3.448   5.281  0.0489 -3.4173 -0.0706
16828TIP3   OH271974   1.410   1.534  15.508 -0.0347 -0.1012 -0.8698
16828TIP3    H171975   1.340   1.570  15.454 -0.1518 -0.6417 -1.0882
16828TIP3    H271976   1.436   1.454  15.462  0.1677 -0.3308 -0.3565
16829TIP3   OH271977   5.476   1.788   4.575  0.5257 -0.1235 -0.0820
16829TIP3    H171978   5.451   1.866   4.625 -0.8041 -1.6607  1.8048
16829TIP3    H271979   5.486   1.719   4.641 -1.1577 -2.2341 -1.8719
16830TIP3   OH271980   4.852   6.376   6.144 -0.1768  0.9702 -0.1441
16830TIP3    H171981   4.819   6.293   6.179 -1.7017  1.2561 -0.8242
16830TIP3    H271982   4.947   6.371   6.156 -0.3468 -0.4009  0.8209
16831TIP3   OH271983   2.272   4.897  15.371 -0.2571 -0.1565  0.1802
16831TIP3    H171984   2.214   4.832  15.411 -0.7711  0.2899  0.1771
16831TIP3    H271985   2.306   4.948  15.445 -0.3154 -0.0545  0.1367
16832TIP3   OH271986   5.893   5.682   3.228  0.2864  0.1635  0.4443
16832TIP3    H171987   5.865   5.591   3.234 -0.7330  0.4439  0.2406
16832TIP3    H271988   5.985   5.678   3.204  0.0845 -0.8112 -0.2243
16833TIP3   OH271989   2.480   3.655   3.079  0.4939 -0.0084  0.0233
16833TIP3    H171990   2.494   3.732   3.024  1.0055  0.2465  0.4874
16833TIP3    H271991   2.531   3.586   3.037 -0.5955 -0.3166 -0.8281
16834TIP3   OH271992   6.148   0.523   6.160  0.0508 -0.2112 -0.1485
16834TIP3    H171993   6.094   0.535   6.238  0.2995  0.0625 -0.0178
16834TIP3    H271994   6.233   0.494   6.194  0.3995  0.6398 -0.2529
16835TIP3   OH271995   1.880   5.766  13.103 -0.3091 -0.2924 -0.2396
16835TIP3    H171996   1.801   5.747  13.053 -0.6728  2.0644 -0.6596
16835TIP3    H271997   1.949   5.771  13.037 -0.6980  2.2897 -0.5658
16836TIP3   OH271998   6.307   0.433  12.568 -0.1108 -0.5772 -0.4324
16836TIP3    H171999   6.230   0.402  12.616 -0.5225  0.5711 -0.3407
16836TIP3    H272000   6.338   0.508  12.618  0.3007 -0.2339 -1.1874
16837TIP3   OH272001   5.210   6.248   2.135 -0.0628  0.6996  0.0809
16837TIP3    H172002   5.294   6.290   2.152  0.2554 -0.0758  0.5016
16837TIP3    H272003   5.147   6.298   2.187  0.5653 -0.3350  1.9568
16838TIP3   OH272004   4.083   4.525   4.723  0.0033  0.5544 -0.2320
16838TIP3    H172005   4.156   4.571   4.681  1.6650 -1.9709 -0.3485
16838TIP3    H272006   4.028   4.496   4.650  0.6864 -0.3467 -0.3997
16839TIP3   OH272007   5.709   1.970   1.288 -0.4231 -0.5680  0.6139
16839TIP3    H172008   5.666   2.002   1.208  0.8545  0.0974  0.1656
16839TIP3    H272009   5.729   1.879   1.270 -0.0003 -0.3766  0.1072
16840TIP3   OH272010   3.983   3.273  12.676 -0.1166  0.2466  0.4743
16840TIP3    H172011   3.959   3.250  12.586  0.0804 -0.5658  0.6197
16840TIP3    H272012   4.049   3.342  12.666 -0.1700  0.2372 -0.0027
16841TIP3   OH272013   5.042   4.436   4.113 -0.8914  0.4629 -0.2389
16841TIP3    H172014   5.113   4.403   4.057  0.0787  1.2066  0.5004
16841TIP3    H272015   5.088   4.472   4.190 -2.1940 -0.9130  1.2424
16842TIP3   OH272016   6.168   2.701  14.449 -0.0218 -0.2090  0.1172
16842TIP3    H172017   6.162   2.741  14.362 -0.4087 -0.4096  0.0481
16842TIP3    H272018   6.077   2.681  14.473  0.1449 -0.8589  0.2349
16843TIP3   OH272019   1.968   3.301  12.609 -0.0365  0.3475  0.1568
16843TIP3    H172020   1.876   3.275  12.619 -0.2835  0.6494 -1.2006
16843TIP3    H272021   2.016   3.219  12.608 -0.6740 -0.0797 -2.6743
16844TIP3   OH272022   5.268   3.257  14.046  0.0472 -0.3264 -0.8142
16844TIP3    H172023   5.193   3.310  14.074  0.7549 -0.1131  0.7621
16844TIP3    H272024   5.344   3.300  14.085  0.7573 -1.8519 -0.4454
16845TIP3   OH272025   3.572   2.578  16.146  0.5068 -0.0714 -0.3261
16845TIP3    H172026   3.659   2.603  16.114 -0.2633  0.8968 -1.7499
16845TIP3    H272027   3.548   2.649  16.205  1.3253 -1.1527  1.3982
16846TIP3   OH272028   2.013   2.373   0.573  0.9957 -0.1889 -0.1373
16846TIP3    H172029   2.095   2.377   0.622  1.9440 -1.2134 -1.5552
16846TIP3    H272030   1.988   2.280   0.575  0.7003 -0.1415 -1.0015
16847TIP3   OH272031   1.475   4.434   4.981  0.4375  0.5337 -0.0561
16847TIP3    H172032   1.567   4.414   4.965 -0.0778 -1.8381 -0.5025
16847TIP3    H272033   1.441   4.355   5.024 -1.1510  1.7919  1.1109
16848TIP3   OH272034   3.081   0.693   0.767 -0.4530 -0.0900 -0.2000
16848TIP3    H172035   3.118   0.604   0.760  0.4977  0.2965 -0.2621
16848TIP3    H272036   3.155   0.751   0.746 -1.3199  0.6969 -1.2109
16849TIP3   OH272037   5.218   2.533   2.009 -0.3369 -0.4816  0.3205
16849TIP3    H172038   5.198   2.558   1.919  2.0920  0.5156 -0.0061
16849TIP3    H272039   5.163   2.590   2.063  2.2094  3.1260 -0.4991
16850TIP3   OH272040   6.377   1.234  11.443 -0.2458  0.0169  0.1345
16850TIP3    H172041   6.369   1.328  11.459  3.4618  0.5078 -0.0698
16850TIP3    H272042   6.323   1.218  11.366 -1.0411  1.9488  0.2299
16851TIP3   OH272043   4.789   2.754  13.953 -0.6318 -0.3699 -0.5775
16851TIP3    H172044   4.745   2.721  14.031 -0.0917  0.0281 -0.0838
16851TIP3    H272045   4.855   2.815  13.988  1.1001 -1.8202 -1.2011
16852TIP3   OH272046   5.987   2.770   6.402 -0.4702 -0.3768 -0.4573
16852TIP3    H172047   5.913   2.826   6.379 -0.3864  0.1797  0.5683
16852TIP3    H272048   5.972   2.746   6.493  1.2401  0.8317  0.2046
16853TIP3   OH272049   6.768   3.211   3.094 -0.4702 -0.3540  0.2828
16853TIP3    H172050   6.832   3.278   3.120 -1.0870  0.6765 -0.7684
16853TIP3    H272051   6.722   3.250   3.020 -1.4108 -1.6290  0.1773
16854TIP3   OH272052   1.652   2.221   3.062  0.1912  0.5158  0.1063
16854TIP3    H172053   1.583   2.189   3.120  0.3393  0.6177  0.3393
16854TIP3    H272054   1.707   2.276   3.118  0.1546  0.8737 -0.2046
16855TIP3   OH272055   2.353   4.199  16.552  0.4130  0.2209  0.3290
16855TIP3    H172056   2.329   4.124  16.605 -0.1684 -1.4502 -2.1382
16855TIP3    H272057   2.276   4.256  16.553  0.6637  0.5707  1.7715
16856TIP3   OH272058   1.916   1.451  14.161 -0.0773 -0.0335 -0.6856
16856TIP3    H172059   1.853   1.388  14.195 -0.8558  0.5921 -0.9149
16856TIP3    H272060   1.892   1.534  14.203  0.9006  0.1279 -0.4174
16857TIP3   OH272061   0.964   1.449   5.779 -0.3900 -0.0529  0.1845
16857TIP3    H172062   1.004   1.477   5.861  1.0482 -0.3558 -0.3796
16857TIP3    H272063   1.027   1.388   5.741 -1.4110 -0.5773 -0.7539
16858TIP3   OH272064   6.439   5.207   0.211 -0.8633 -0.3429 -0.4938
16858TIP3    H172065   6.468   5.298   0.222  0.3639 -0.6177 -1.2218
16858TIP3    H272066   6.355   5.214   0.166 -1.5174  0.4649  0.7846
16859TIP3   OH272067   1.435   6.627  10.696 -0.1808 -0.0816 -0.3913
16859TIP3    H172068   1.414   6.557  10.634  1.4494 -1.7465  0.8289
16859TIP3    H272069   1.441   6.706  10.642 -0.5756 -1.1445 -2.0618
16860TIP3   OH272070   4.485   5.864   4.117  0.4701 -0.5248 -0.4045
16860TIP3    H172071   4.409   5.806   4.126  1.5367 -2.1123 -1.2369
16860TIP3    H272072   4.522   5.842   4.031  2.1423 -0.1154  0.1789
16861TIP3   OH272073   3.752   1.579  14.835 -0.6473 -0.2816 -0.4298
16861TIP3    H172074   3.719   1.540  14.754 -2.0513  1.2810 -0.6547
16861TIP3    H272075   3.674   1.599  14.886  0.1003  0.9041  0.2964
16862TIP3   OH272076   3.933   2.838   0.974 -0.2654  0.3585 -0.0536
16862TIP3    H172077   3.908   2.759   1.021 -1.1921  1.1854  0.8968
16862TIP3    H272078   3.850   2.877   0.946  0.1359  1.2881  0.0143
16863TIP3   OH272079   4.171   0.718   0.370 -0.0199  0.0057  0.3146
16863TIP3    H172080   4.259   0.688   0.393  0.6976  1.6885 -0.0719
16863TIP3    H272081   4.147   0.778   0.441 -0.8263 -0.3569  0.3579
16864TIP3   OH272082   5.452   3.115   5.730 -0.3523 -0.5035 -0.3035
16864TIP3    H172083   5.512   3.059   5.779 -1.2494 -0.9575  0.3038
16864TIP3    H272084   5.372   3.062   5.721 -1.7000  1.1065  1.4058
16865TIP3   OH272085   6.307   5.994  14.515  0.1163 -0.0674 -0.2781
16865TIP3    H172086   6.265   5.923  14.468 -0.6617  0.7139 -0.7918
16865TIP3    H272087   6.379   5.952  14.562  0.9964 -0.8685 -2.2337
16866TIP3   OH272088   6.321   2.201  14.307 -0.0920  0.5559 -0.0683
16866TIP3    H172089   6.250   2.265  14.302  0.1204  0.7636 -0.6036
16866TIP3    H272090   6.281   2.119  14.280 -0.1545  0.6541 -0.2805
16867TIP3   OH272091   4.204   1.284   2.390 -0.1881 -0.7807 -0.3314
16867TIP3    H172092   4.219   1.263   2.298 -3.3643 -2.5302 -0.6069
16867TIP3    H272093   4.198   1.199   2.433  0.3063 -0.0043  1.3437
16868TIP3   OH272094   1.241   5.233   2.744  0.5650  0.6112  0.3218
16868TIP3    H172095   1.240   5.158   2.684  1.2326  0.4528  0.4991
16868TIP3    H272096   1.179   5.210   2.813  1.4137 -0.1783  0.8401
16869TIP3   OH272097   5.299   3.508   1.390 -0.3698  0.3154 -0.7650
16869TIP3    H172098   5.285   3.603   1.387  0.0020  0.3607 -1.1987
16869TIP3    H272099   5.380   3.495   1.342  0.4152 -0.0687  0.6211
16870TIP3   OH272100   2.746   3.850  12.884 -0.1901  0.3522 -0.3927
16870TIP3    H172101   2.732   3.805  12.800  0.1202  0.6884 -0.6252
16870TIP3    H272102   2.827   3.812  12.919  0.1283  0.7984 -0.6380
16871TIP3   OH272103   2.811   4.967  16.986  0.5857  0.0653  0.0419
16871TIP3    H172104   2.825   4.942  16.895 -0.3996 -3.9975  0.7959
16871TIP3    H272105   2.715   4.968  16.996  0.6557  1.5335  0.8317
16872TIP3   OH272106   0.447   6.314  14.064 -0.4340  0.4632  0.1378
16872TIP3    H172107   0.508   6.255  14.020  0.6732 -0.2398  2.4681
16872TIP3    H272108   0.376   6.327  14.000  0.8232 -0.8515 -1.6209
16873TIP3   OH272109   5.543   6.106  14.345 -0.2269  0.0401 -0.0323
16873TIP3    H172110   5.585   6.020  14.353  2.2014  1.0006 -1.7038
16873TIP3    H272111   5.615   6.168  14.334 -2.0062  2.0446 -1.0742
16874TIP3   OH272112   1.302   0.411  15.928  0.3498  0.3359  0.9576
16874TIP3    H172113   1.378   0.353  15.939  0.7313  0.3624 -1.0881
16874TIP3    H272114   1.234   0.373  15.983  0.1794 -2.8808 -1.2093
16875TIP3   OH272115   2.683   4.725   5.853  0.0312 -0.1688 -0.2264
16875TIP3    H172116   2.655   4.663   5.785  1.2711 -0.2155 -0.7249
16875TIP3    H272117   2.601   4.758   5.890 -0.6938  0.0236 -1.8809
16876TIP3   OH272118   0.906   3.742   2.192 -0.0813  0.4951  0.0604
16876TIP3    H172119   0.856   3.759   2.112 -0.5117  0.0908  0.2400
16876TIP3    H272120   0.972   3.678   2.166  0.4053  1.0837 -0.1946
16877TIP3   OH272121   3.190   4.144   3.460  0.6844  0.0559 -0.8181
16877TIP3    H172122   3.160   4.221   3.508  0.0731  0.1152 -1.2911
16877TIP3    H272123   3.132   4.074   3.489  1.1132 -0.1890 -0.5366
16878TIP3   OH272124   4.784   6.482   1.226  0.1722 -0.1525 -0.3734
16878TIP3    H172125   4.872   6.482   1.263  0.1556  2.8736 -0.1157
16878TIP3    H272126   4.796   6.508   1.135 -0.4417  0.1354 -0.3783
16879TIP3   OH272127   6.560   6.709  15.976 -0.4942  0.7818  0.2127
16879TIP3    H172128   6.590   6.751  15.895 -0.9820  1.6462  0.4694
16879TIP3    H272129   6.465   6.700  15.964 -0.6295  1.3089  0.8679
16880TIP3   OH272130   4.081   2.446   0.761 -0.0368 -0.3204 -0.0817
16880TIP3    H172131   4.144   2.413   0.697  0.5733 -2.1808  1.3943
16880TIP3    H272132   4.098   2.395   0.840 -3.0329 -0.4935  0.5597
16881TIP3   OH272133   6.415   2.110   0.401  0.4208  0.6083  0.1065
16881TIP3    H172134   6.329   2.074   0.423  0.5562  0.9456  1.2331
16881TIP3    H272135   6.400   2.204   0.390  0.2534  0.4003 -1.8698
16882TIP3   OH272136   0.418   4.537  16.746  0.5115 -0.6472 -0.2638
16882TIP3    H172137   0.405   4.604  16.812  0.5625 -1.8499  1.0104
16882TIP3    H272138   0.333   4.530  16.701  0.1510 -0.5722  0.3999
16883TIP3   OH272139   2.503   2.352  11.343 -0.7502 -0.5169 -0.6818
16883TIP3    H172140   2.424   2.386  11.301 -0.0522 -0.0283 -1.6683
16883TIP3    H272141   2.564   2.337  11.270  0.0217 -0.9945  0.0374
16884TIP3   OH272142   4.738   5.110  13.333 -0.6058  1.0665 -1.0546
16884TIP3    H172143   4.758   5.168  13.260  0.2830  0.3559 -1.3928
16884TIP3    H272144   4.702   5.031  13.292  0.9202  0.2195 -0.8410
16885TIP3   OH272145   2.596   6.106  16.771  0.4321  0.3525 -0.0146
16885TIP3    H172146   2.597   6.198  16.746  0.7200  0.4681  0.4206
16885TIP3    H272147   2.676   6.093  16.822  0.8122 -0.3278 -0.7465
16886TIP3   OH272148   3.794   1.335  11.052  0.3371  0.1053 -0.2387
16886TIP3    H172149   3.874   1.303  11.094 -1.2016 -1.3633  1.7138
16886TIP3    H272150   3.781   1.276  10.977  0.2136 -0.7156  0.4155
16887TIP3   OH272151   2.754   3.812  16.323  0.5419 -0.5455 -0.7514
16887TIP3    H172152   2.841   3.793  16.360  1.1427  1.8967 -0.7129
16887TIP3    H272153   2.766   3.799  16.229  1.0723  0.0721 -0.7814
16888TIP3   OH272154   1.236   4.652   2.466  0.1590  0.1712  0.3936
16888TIP3    H172155   1.260   4.725   2.408  0.9619 -0.9597 -0.7571
16888TIP3    H272156   1.141   4.661   2.477  0.5192  2.7479  2.2344
16889TIP3   OH272157   1.307   0.912  15.268 -0.0963  0.0467 -0.2914
16889TIP3    H172158   1.388   0.870  15.239 -0.2679 -1.1960  0.9291
16889TIP3    H272159   1.336   0.983  15.325  0.1708  1.2803 -1.8678
16890TIP3   OH272160   3.975   1.227   4.848  0.1321 -0.2256  0.3880
16890TIP3    H172161   4.050   1.209   4.791 -0.1490 -0.9318  0.2305
16890TIP3    H272162   3.997   1.184   4.931  0.5276  0.7760  0.8211
16891TIP3   OH272163   1.778   3.127   5.474  0.0846 -0.0135 -0.1618
16891TIP3    H172164   1.722   3.065   5.520  0.1989  0.1018  0.1317
16891TIP3    H272165   1.864   3.117   5.515  1.1141 -2.4017 -2.5867
16892TIP3   OH272166   1.614   2.031  13.829  0.6965 -0.2663  0.2792
16892TIP3    H172167   1.601   2.037  13.924  0.4970  0.6543  0.1966
16892TIP3    H272168   1.692   1.976  13.819  2.2681  1.7150  1.0703
16893TIP3   OH272169   6.764   1.209   1.672 -0.2041 -0.0127 -0.4863
16893TIP3    H172170   6.759   1.180   1.581 -1.5649 -1.3591 -0.0292
16893TIP3    H272171   6.824   1.148   1.714 -0.0906  0.2029 -0.3323
16894TIP3   OH272172   2.764   2.040   5.661  0.3951 -0.2058  0.1796
16894TIP3    H172173   2.742   1.955   5.623  0.3664 -0.3237  0.4549
16894TIP3    H272174   2.681   2.086   5.667  0.5525  0.2765 -0.9938
16895TIP3   OH272175   3.763   2.755  13.427 -0.1341 -0.1199 -0.6796
16895TIP3    H172176   3.814   2.793  13.499 -1.2844  0.8215 -0.3139
16895TIP3    H272177   3.826   2.745  13.356  0.4960  1.4197 -0.3928
16896TIP3   OH272178   0.197   0.866   5.150 -1.1853 -0.0214 -0.3500
16896TIP3    H172179   0.172   0.876   5.059 -0.7634 -0.2920 -0.4976
16896TIP3    H272180   0.145   0.793   5.182 -1.3606  0.0977 -0.3592
16897TIP3   OH272181   5.138   3.448   2.706 -0.5741 -0.0625  0.5349
16897TIP3    H172182   5.121   3.430   2.614 -1.6507 -1.5615  0.9985
16897TIP3    H272183   5.234   3.447   2.713 -0.4960 -0.5139 -0.4442
16898TIP3   OH272184   6.669   4.923  14.768  0.1205 -0.3335 -0.0293
16898TIP3    H172185   6.738   4.971  14.723 -0.3338 -0.1245 -0.5227
16898TIP3    H272186   6.709   4.839  14.793  0.6452 -0.0723  0.0018
16899TIP3   OH272187   3.585   3.276  13.697 -0.1126  0.0733 -0.0669
16899TIP3    H172188   3.643   3.243  13.765  0.3977  1.0296 -0.0265
16899TIP3    H272189   3.628   3.253  13.615  0.0971  0.3877 -0.0439
16900TIP3   OH272190   2.690   1.717  12.830 -0.0209  0.0448  0.0473
16900TIP3    H172191   2.733   1.754  12.753  1.8659  0.0488  1.0490
16900TIP3    H272192   2.657   1.632  12.802 -2.4488  1.4279 -1.6734
16901TIP3   OH272193   0.619   2.061   2.286  0.4620 -0.5841  0.2261
16901TIP3    H172194   0.566   2.105   2.220  0.7353 -0.6097 -0.0153
16901TIP3    H272195   0.709   2.074   2.256  0.5391 -1.5581 -0.0104
16902TIP3   OH272196   1.833   5.089   3.066  0.3670 -0.0903  0.3373
16902TIP3    H172197   1.852   5.181   3.046  1.7695 -0.3836  0.2191
16902TIP3    H272198   1.788   5.093   3.151  1.1051  0.6657  0.7139
16903TIP3   OH272199   2.796   3.533  10.927  0.1656  0.1490 -0.3184
16903TIP3    H172200   2.873   3.549  10.873  1.0917 -0.2593  0.8417
16903TIP3    H272201   2.738   3.607  10.909  1.1094  0.8107 -0.7063
16904TIP3   OH272202   6.411   3.054   5.037  0.8249  0.3158  0.2413
16904TIP3    H172203   6.470   3.129   5.028  1.4851 -0.1408  0.7080
16904TIP3    H272204   6.459   2.981   4.999  0.0560  0.1817 -0.5059
16905TIP3   OH272205   6.701   1.030  16.094  0.6104  0.3931  0.2331
16905TIP3    H172206   6.754   0.952  16.081  1.4234  0.8945  0.4555
16905TIP3    H272207   6.631   1.003  16.153  0.8934 -0.1596  0.3154
16906TIP3   OH272208   2.988   1.559  11.526  0.3828  0.5707 -0.1576
16906TIP3    H172209   2.965   1.543  11.435 -0.6001  0.2588  0.1344
16906TIP3    H272210   2.904   1.559  11.573  1.0151 -1.3808  1.0850
16907TIP3   OH272211   5.814   3.188   3.500  0.3445 -0.4075  0.5807
16907TIP3    H172212   5.802   3.267   3.553 -0.7549 -1.2329  1.6223
16907TIP3    H272213   5.903   3.160   3.519  1.8287  2.0749 -1.9831
16908TIP3   OH272214   1.979   5.610   0.027 -0.2305  0.7244 -0.3519
16908TIP3    H172215   1.906   5.582  -0.029  0.7000 -2.5581 -0.1290
16908TIP3    H272216   1.936   5.646   0.105 -1.6859 -1.1593 -0.2132
16909TIP3   OH272217   1.018   2.233   3.184  0.2396 -0.0268 -0.1210
16909TIP3    H172218   0.959   2.286   3.237  0.1216  0.6466 -0.9153
16909TIP3    H272219   1.033   2.154   3.237 -1.1646 -0.1020  0.2093
16910TIP3   OH272220   2.499   2.591  16.606  0.4735 -0.2212 -0.2197
16910TIP3    H172221   2.437   2.653  16.644  0.6872  0.4720 -0.9709
16910TIP3    H272222   2.452   2.553  16.532  0.8554  0.1229 -0.6404
16911TIP3   OH272223   6.024   5.164  12.959 -0.3881  0.0835  0.0779
16911TIP3    H172224   6.053   5.185  12.870  0.9103  0.8645  0.6489
16911TIP3    H272225   6.036   5.070  12.966  0.8495  0.2072 -0.1327
16912TIP3   OH272226   6.824   6.057   5.804  0.2380 -0.5229  0.1998
16912TIP3    H172227   6.779   6.010   5.874 -1.7418  1.3350  0.2895
16912TIP3    H272228   6.798   6.012   5.724 -1.5168  0.2129  0.2957
16913TIP3   OH272229   0.051   3.235  11.043  0.4463  0.1244  0.0076
16913TIP3    H172230   0.086   3.198  10.962 -3.1656  0.6725 -2.0414
16913TIP3    H272231  -0.009   3.168  11.076  1.6270  0.0360  2.1748
16914TIP3   OH272232   6.299   4.801   0.721  0.4532 -0.6171  0.6012
16914TIP3    H172233   6.250   4.734   0.673 -1.6515  1.4288 -0.3070
16914TIP3    H272234   6.292   4.774   0.812 -2.4725 -0.5062  0.5326
16915TIP3   OH272235   4.920   5.967  15.202  0.5241  0.1252 -0.3707
16915TIP3    H172236   4.898   5.874  15.200  0.4067  0.1263  0.4396
16915TIP3    H272237   4.952   5.986  15.114  0.8604 -0.7581 -0.4549
16916TIP3   OH272238   5.696   3.549   1.460  0.1342  0.2278  0.2213
16916TIP3    H172239   5.705   3.582   1.550  1.6456 -1.1016  0.6072
16916TIP3    H272240   5.646   3.617   1.415  0.3134  1.4665  1.7746
16917TIP3   OH272241   4.367   3.596  14.403  0.0518 -0.3855 -0.0221
16917TIP3    H172242   4.397   3.674  14.357 -0.2846 -1.1875 -1.6630
16917TIP3    H272243   4.326   3.542  14.336 -0.7457 -1.4792  1.2815
16918TIP3   OH272244   0.615   0.897   2.743 -0.1209 -0.2647 -0.0543
16918TIP3    H172245   0.559   0.959   2.790  1.4567  0.2173  1.2413
16918TIP3    H272246   0.563   0.872   2.666 -1.8161  0.7009  0.7256
16919TIP3   OH272247   4.923   2.430  11.516  0.2021  0.7347 -0.1757
16919TIP3    H172248   4.861   2.452  11.585  0.6034  1.8214 -0.1360
16919TIP3    H272249   4.876   2.370  11.459  0.1332 -0.8895  1.4798
16920TIP3   OH272250   2.715   5.138  15.836  0.1263  0.1912  0.2385
16920TIP3    H172251   2.737   5.049  15.806 -1.8763 -0.8004  1.4589
16920TIP3    H272252   2.633   5.158  15.792 -0.1505  0.8763  1.0468
16921TIP3   OH272253   3.393   0.615   3.036 -0.3877  0.5530  0.0364
16921TIP3    H172254   3.399   0.520   3.035 -0.9037  0.5219 -0.4446
16921TIP3    H272255   3.472   0.645   2.991  0.3336  0.3961  1.1471
16922TIP3   OH272256   0.372   1.422  12.426  0.1722  0.0067  0.0071
16922TIP3    H172257   0.291   1.423  12.478  0.4512 -0.9266  0.4882
16922TIP3    H272258   0.346   1.458  12.341 -0.0218  2.7752  1.1445
16923TIP3   OH272259   3.862   0.730   2.882  0.3176 -0.1374  0.5329
16923TIP3    H172260   3.874   0.674   2.959  0.1472 -0.6424  0.1988
16923TIP3    H272261   3.914   0.689   2.814  0.6294  0.4206  0.4280
16924TIP3   OH272262   4.584   5.166  16.038 -0.4260 -0.1103 -0.0242
16924TIP3    H172263   4.646   5.175  16.110  1.3749 -4.1907 -0.7694
16924TIP3    H272264   4.508   5.122  16.077 -0.3535 -0.3989 -0.2064
16925TIP3   OH272265   0.090   0.258  14.697  0.3129  0.2617 -0.3046
16925TIP3    H172266   0.146   0.182  14.716  0.2206  0.1288 -0.5592
16925TIP3    H272267   0.131   0.330  14.745 -0.1235 -0.1401  0.6841
16926TIP3   OH272268   3.983   0.513  11.034  0.5878  0.1435  0.3054
16926TIP3    H172269   4.046   0.489  11.102  0.3295  1.2844  0.9810
16926TIP3    H272270   4.034   0.567  10.973  0.7645 -0.6914 -0.2964
16927TIP3   OH272271   2.372   4.300  14.542 -0.7520  0.9641  0.7529
16927TIP3    H172272   2.315   4.223  14.537  1.7083 -0.9343 -2.7867
16927TIP3    H272273   2.441   4.274  14.603  0.1959  0.1217 -0.6035
16928TIP3   OH272274   2.485   5.806  16.836 -0.4754  0.2368 -0.2415
16928TIP3    H172275   2.403   5.781  16.793 -1.2471 -0.1688  1.4103
16928TIP3    H272276   2.459   5.833  16.924  1.1663  0.1563  0.2947
16929TIP3   OH272277   2.974   3.905   5.744  0.2713 -0.2637  0.2779
16929TIP3    H172278   2.900   3.869   5.696 -0.3240 -0.5722  1.3995
16929TIP3    H272279   3.020   3.960   5.680 -1.3455  0.5524 -0.2392
16930TIP3   OH272280   1.972   4.973  13.266  0.3109  0.0554  0.2903
16930TIP3    H172281   2.054   4.937  13.231 -1.1015 -1.9082 -1.2044
16930TIP3    H272282   1.948   5.042  13.204  0.3465 -0.0204  0.1921
16931TIP3   OH272283   5.593   1.173   0.487  0.4510  0.3633  0.2855
16931TIP3    H172284   5.667   1.115   0.468  0.3126 -0.0105  0.8507
16931TIP3    H272285   5.622   1.224   0.562  0.3169  0.5519  0.2073
16932TIP3   OH272286   4.934   4.149   2.656 -0.1206 -0.0657  0.2237
16932TIP3    H172287   5.014   4.176   2.702  0.3297 -2.8171  1.2337
16932TIP3    H272288   4.964   4.085   2.591 -1.2310  0.9659 -1.3787
16933TIP3   OH272289   0.818   3.386  12.672 -0.4785 -0.3290  0.1855
16933TIP3    H172290   0.822   3.330  12.750 -1.0538 -0.7568 -0.0866
16933TIP3    H272291   0.823   3.475  12.706 -0.1481 -0.5284  0.6694
16934TIP3   OH272292   2.124   5.500   1.267 -0.8054  0.0538  0.2116
16934TIP3    H172293   2.071   5.425   1.242 -1.1187  0.5349 -0.6100
16934TIP3    H272294   2.079   5.536   1.344 -0.9192 -0.3197  0.3220
16935TIP3   OH272295   2.160   4.555   3.663 -0.5971  0.4810 -0.2465
16935TIP3    H172296   2.217   4.478   3.656 -1.0445  0.2590 -1.8045
16935TIP3    H272297   2.200   4.619   3.605 -0.1864  1.4996  1.0991
16936TIP3   OH272298   2.940   2.709  12.028 -0.0991 -0.3494  0.4471
16936TIP3    H172299   2.891   2.630  12.052 -0.2519 -0.4684 -0.2461
16936TIP3    H272300   2.941   2.709  11.933  1.7219 -0.6301  0.4464
16937TIP3   OH272301   5.635   3.221  13.871  0.4137 -0.3197 -0.0632
16937TIP3    H172302   5.664   3.248  13.784 -0.2401 -0.8144 -0.4445
16937TIP3    H272303   5.594   3.135  13.856  1.2936 -0.9230  0.9032
16938TIP3   OH272304   1.817   5.429  14.823  0.4382 -0.2288  0.0991
16938TIP3    H172305   1.890   5.461  14.877 -0.6717  0.8371  1.0506
16938TIP3    H272306   1.842   5.339  14.800  1.2910 -0.4926  1.8277
16939TIP3   OH272307   1.512   3.575   5.000  0.5730  0.0546  0.0042
16939TIP3    H172308   1.420   3.549   4.990  1.0147 -0.7050 -3.3298
16939TIP3    H272309   1.557   3.494   5.024  0.5902  0.0371 -0.0860
16940TIP3   OH272310   0.652   1.308  17.046  0.4188 -0.0825  0.3882
16940TIP3    H172311   0.728   1.338  17.095  1.0890 -0.5174 -0.3629
16940TIP3    H272312   0.583   1.299  17.112  0.9302  0.5709  1.0370
16941TIP3   OH272313   4.817   2.914   5.540 -0.2857 -0.0408  0.6683
16941TIP3    H172314   4.778   2.999   5.523  0.2707  0.2148  0.6492
16941TIP3    H272315   4.785   2.890   5.627  1.1378  1.1220  1.5635
16942TIP3   OH272316   4.294   6.414  11.349 -0.4713  0.2181  0.3688
16942TIP3    H172317   4.218   6.418  11.291 -0.7874  0.2266  0.7772
16942TIP3    H272318   4.295   6.324  11.382 -1.2942  0.6444  1.6533
16943TIP3   OH272319   6.483   1.884   1.095 -0.4282  0.4731 -0.2475
16943TIP3    H172320   6.563   1.917   1.136  0.7940  0.3310 -2.4023
16943TIP3    H272321   6.488   1.789   1.105  1.4851  0.1244 -3.2791
16944TIP3   OH272322   3.546   0.530   6.377 -0.3268  0.1804 -0.0982
16944TIP3    H172323   3.461   0.490   6.361 -0.3897  0.1252  0.3659
16944TIP3    H272324   3.597   0.462   6.421 -0.0601  0.2357 -0.3105
16945TIP3   OH272325   0.852   3.321   4.437  0.2488  0.1245  0.0768
16945TIP3    H172326   0.878   3.367   4.357 -0.9028  1.1123  0.2378
16945TIP3    H272327   0.797   3.249   4.407 -1.1973  1.2003 -0.0235
16946TIP3   OH272328   0.718   2.451   1.977  0.2104  0.4918 -0.1168
16946TIP3    H172329   0.644   2.495   2.019  1.7016  0.9378  2.2938
16946TIP3    H272330   0.687   2.362   1.961 -1.2645  1.0391 -0.4578
16947TIP3   OH272331   3.495   3.848  13.033  0.1331 -0.3994 -0.5134
16947TIP3    H172332   3.426   3.883  13.090  1.0760 -0.1494  0.4922
16947TIP3    H272333   3.507   3.916  12.966  0.1094  0.0118 -0.1022
16948TIP3   OH272334   6.801   1.119   3.823 -0.5775  0.4182  0.8845
16948TIP3    H172335   6.740   1.168   3.768  0.4269  0.9912  0.2566
16948TIP3    H272336   6.865   1.184   3.851  1.6769 -0.7432 -1.1900
16949TIP3   OH272337   0.458   5.091  17.089  0.1542 -0.8201 -0.3430
16949TIP3    H172338   0.369   5.120  17.110 -0.5574 -1.8335 -1.7932
16949TIP3    H272339   0.512   5.129  17.158 -1.3436  0.1269  0.3719
16950TIP3   OH272340   0.263   1.638  15.876 -0.2175  0.1561  0.6859
16950TIP3    H172341   0.288   1.601  15.961  0.0189 -1.1711  0.0696
16950TIP3    H272342   0.236   1.562  15.825  1.7117  0.6129 -1.1415
16951TIP3   OH272343   4.297   6.762   6.263  0.3388 -0.4985 -0.0186
16951TIP3    H172344   4.316   6.747   6.356 -0.8863  0.7463  0.4742
16951TIP3    H272345   4.286   6.857   6.256 -0.4076 -0.6589 -1.2853
16952TIP3   OH272346   6.088   3.084  13.349  0.3570  0.5661  0.5790
16952TIP3    H172347   6.050   3.140  13.417  1.0687  2.2970 -0.3952
16952TIP3    H272348   6.182   3.091  13.361  0.4831  0.5196 -0.2765
16953TIP3   OH272349   2.753   3.160   3.059  0.5059  0.1114 -0.2824
16953TIP3    H172350   2.822   3.226   3.057  0.1987  0.4074 -1.4016
16953TIP3    H272351   2.775   3.100   2.988 -1.1228  0.9899 -1.5896
16954TIP3   OH272352   4.060   4.442  12.637 -0.2557  0.3997  0.1323
16954TIP3    H172353   4.024   4.518  12.592 -0.1410  1.6112  2.0008
16954TIP3    H272354   3.984   4.396  12.672 -0.2136  0.8155  0.7767
16955TIP3   OH272355   0.872   2.836   2.606 -0.5795  0.2206 -0.2705
16955TIP3    H172356   0.884   2.899   2.535  1.1032  2.0525  1.5267
16955TIP3    H272357   0.937   2.768   2.590 -0.4777  0.4124 -0.6710
16956TIP3   OH272358   6.445   2.000  16.611  0.4095 -0.0043 -0.1754
16956TIP3    H172359   6.361   1.962  16.638  0.3558  1.6074  2.2367
16956TIP3    H272360   6.420   2.084  16.570  0.7035 -1.1069 -2.8438
16957TIP3   OH272361   0.377   2.591  13.690  0.2791  0.1258 -0.5707
16957TIP3    H172362   0.316   2.618  13.760 -0.7418 -0.2836 -1.2814
16957TIP3    H272363   0.322   2.582  13.613  0.8878 -2.1439 -0.8148
16958TIP3   OH272364   1.667   1.532   2.954 -0.6663 -0.6524 -0.1512
16958TIP3    H172365   1.667   1.624   2.978 -1.2100 -0.9581  1.0850
16958TIP3    H272366   1.624   1.530   2.868 -0.3643  0.2653 -0.3325
16959TIP3   OH272367   3.616   5.601  14.370  0.5595 -0.4540  0.4800
16959TIP3    H172368   3.532   5.619  14.413  0.7190 -0.5944  0.8593
16959TIP3    H272369   3.653   5.529  14.421  1.6142  0.6107  1.2631
16960TIP3   OH272370   1.215   0.927  13.443 -0.1727  0.1166  0.2242
16960TIP3    H172371   1.163   0.847  13.453  0.2345 -0.0272  1.3580
16960TIP3    H272372   1.150   0.996  13.429 -0.5720 -0.3033 -0.0205
16961TIP3   OH272373   0.418   6.289   0.249  0.2615 -0.2879 -0.1061
16961TIP3    H172374   0.445   6.197   0.247 -0.2057 -0.5196  1.7923
16961TIP3    H272375   0.370   6.302   0.168 -0.9398 -2.1772  0.2418
16962TIP3   OH272376   2.731   3.148  10.427  0.0529  0.1574  0.1747
16962TIP3    H172377   2.657   3.164  10.485  0.9893  2.0654  0.9278
16962TIP3    H272378   2.783   3.081  10.473 -0.1551  0.3151  0.6413
16963TIP3   OH272379   5.234   0.772  15.975  0.4632 -0.1137  0.1632
16963TIP3    H172380   5.264   0.830  16.045 -0.5588 -0.2413  0.7350
16963TIP3    H272381   5.264   0.813  15.894  0.0484  1.0357  0.5757
16964TIP3   OH272382   3.351   4.970  14.334 -0.1077 -0.1465  0.1610
16964TIP3    H172383   3.344   4.879  14.362  1.1701 -0.4402 -0.4428
16964TIP3    H272384   3.386   4.966  14.245 -0.4053  0.9232 -0.0232
16965TIP3   OH272385   2.188   1.271  16.104 -0.2459 -0.5358  0.3008
16965TIP3    H172386   2.278   1.239  16.107 -0.2261 -0.6217 -0.8952
16965TIP3    H272387   2.172   1.290  16.012 -1.3518 -0.2129  0.5431
16966TIP3   OH272388   0.574   2.530  16.986 -0.2849 -0.1429 -0.1914
16966TIP3    H172389   0.529   2.603  17.027 -2.9684 -1.1639 -1.1351
16966TIP3    H272390   0.571   2.459  17.050 -0.4576 -0.3682 -0.4442
16967TIP3   OH272391   2.283   3.045  13.291 -0.3325  0.5094 -0.1201
16967TIP3    H172392   2.283   2.949  13.293 -0.4614  0.4914  2.6593
16967TIP3    H272393   2.374   3.068  13.270  0.0459 -0.2499  0.6342
16968TIP3   OH272394   5.655   5.124  15.839  0.2732  0.6381 -0.2297
16968TIP3    H172395   5.646   5.154  15.930  2.5967 -0.0730  0.2819
16968TIP3    H272396   5.708   5.045  15.844 -1.6629 -0.8888 -2.0144
16969TIP3   OH272397   4.969   3.763   0.430 -0.3538 -0.0810 -0.2854
16969TIP3    H172398   4.997   3.795   0.344 -0.8665 -0.3012 -0.5387
16969TIP3    H272399   5.048   3.721   0.466  0.0801  0.6919 -0.3093
16970TIP3   OH272400   2.944   2.253   2.574  0.6828  0.5392 -0.3676
16970TIP3    H172401   2.948   2.160   2.598  0.0359  1.0023  1.7619
16970TIP3    H272402   2.996   2.260   2.494  0.0486 -1.7940 -1.0558
16971TIP3   OH272403   0.290   5.663  16.804 -0.2256  0.4893 -0.3778
16971TIP3    H172404   0.355   5.682  16.736 -0.4791  1.1965 -0.4343
16971TIP3    H272405   0.340   5.624  16.875  0.0351 -0.3099 -0.9835
16972TIP3   OH272406   1.955   3.863   5.703 -0.2356 -0.6856  0.0746
16972TIP3    H172407   1.985   3.952   5.691  2.1775 -1.2558  1.3744
16972TIP3    H272408   1.864   3.872   5.731 -0.8214  1.2004 -2.1285
16973TIP3   OH272409   5.893   6.026  11.833 -0.2370 -0.1241  0.0906
16973TIP3    H172410   5.887   6.107  11.884 -0.7523  0.4298 -0.8276
16973TIP3    H272411   5.805   6.014  11.796 -0.3697 -1.4911  0.7779
16974TIP3   OH272412   3.791   2.551   4.914 -0.3187 -0.6012 -0.4805
16974TIP3    H172413   3.816   2.527   4.825 -0.2941 -2.3947 -0.0403
16974TIP3    H272414   3.715   2.496   4.933 -1.2273  0.8221  0.1026
16975TIP3   OH272415   2.364   1.984  13.151 -0.1445  0.1738  0.1964
16975TIP3    H172416   2.386   1.930  13.075 -0.3864 -0.0575  0.2896
16975TIP3    H272417   2.378   2.074  13.122  1.0655  0.0326  0.2870
16976TIP3   OH272418   5.980   1.991  16.408 -0.1044  0.1558  0.8380
16976TIP3    H172419   5.923   1.937  16.353 -0.7838  0.5805  1.1034
16976TIP3    H272420   6.068   1.964  16.386 -0.4065 -0.3778  0.2619
16977TIP3   OH272421   5.352   3.128  11.897 -0.3341 -0.5893 -0.8722
16977TIP3    H172422   5.398   3.049  11.868  1.2623  0.5226 -1.4831
16977TIP3    H272423   5.268   3.095  11.930 -0.6932 -2.3258 -3.2304
16978TIP3   OH272424   1.265   5.004  16.871 -0.7135  0.8902  0.1675
16978TIP3    H172425   1.242   4.995  16.778 -0.4561  5.2394 -0.5284
16978TIP3    H272426   1.188   5.043  16.911  0.9111  4.1319  0.4565
16979TIP3   OH272427   5.020   5.953  11.722  0.0080  0.0286  0.0893
16979TIP3    H172428   5.073   5.967  11.801 -0.0407  0.3727  0.0651
16979TIP3    H272429   5.014   6.040  11.683 -0.4276 -0.0429 -0.0038
16980TIP3   OH272430   3.492   1.859   2.971 -0.7413 -0.6706 -0.0262
16980TIP3    H172431   3.564   1.891   3.024 -1.5578 -0.0638  0.7470
16980TIP3    H272432   3.532   1.835   2.887  0.7153 -2.3908  1.0868
16981TIP3   OH272433   6.777   4.637  15.795  0.5513 -0.1643  0.4400
16981TIP3    H172434   6.742   4.564  15.846 -0.0086  0.8452  1.5640
16981TIP3    H272435   6.780   4.604  15.705  1.9158 -2.1266  1.1399
16982TIP3   OH272436   0.947   5.492   1.415  0.0271 -0.5216 -0.6536
16982TIP3    H172437   0.958   5.397   1.422  3.2803 -0.3497 -1.7118
16982TIP3    H272438   1.031   5.523   1.379  0.0651  3.0464  1.9992
16983TIP3   OH272439   2.498   2.499   4.070  0.0255 -0.5161 -0.0843
16983TIP3    H172440   2.498   2.464   3.981  0.3027 -0.4031 -0.1291
16983TIP3    H272441   2.587   2.486   4.102 -0.2895 -1.3484  0.4961
16984TIP3   OH272442   6.717   2.644  12.037 -0.1897  0.2868  0.1613
16984TIP3    H172443   6.756   2.688  11.963  0.7836  0.5404  0.8132
16984TIP3    H272444   6.675   2.566  12.000 -0.2767  0.7494 -0.7250
16985TIP3   OH272445   4.199   2.856   5.496 -0.3115  0.2408 -0.2421
16985TIP3    H172446   4.267   2.797   5.530  0.3573  0.7518 -0.6693
16985TIP3    H272447   4.117   2.818   5.528  0.0912 -0.9994 -0.6116
16986TIP3   OH272448   2.044   6.067  16.068  0.1462  0.0597  0.1936
16986TIP3    H172449   2.123   6.014  16.075  0.6914  0.8750  0.3668
16986TIP3    H272450   2.041   6.094  15.976 -0.1890 -0.3498  0.0812
16987TIP3   OH272451   6.196   0.259   3.035 -0.0555 -0.0179  0.1924
16987TIP3    H172452   6.124   0.196   3.041 -1.7180  1.7128 -0.3278
16987TIP3    H272453   6.251   0.239   3.111 -1.7391 -0.6802  1.3225
16988TIP3   OH272454   3.740   2.581   4.313 -0.3014  0.1048  0.5177
16988TIP3    H172455   3.685   2.533   4.376 -0.6335  2.5926  2.2521
16988TIP3    H272456   3.686   2.654   4.285  0.4750 -0.0106 -1.4527
16989TIP3   OH272457   0.446   1.410  11.827  0.1977 -0.0893  1.1822
16989TIP3    H172458   0.378   1.476  11.843 -0.8112 -1.0494  0.9426
16989TIP3    H272459   0.527   1.450  11.861  0.0251  2.0942 -0.7399
16990TIP3   OH272460   2.253   2.695  12.518  0.4757 -0.1207  0.0130
16990TIP3    H172461   2.180   2.644  12.552 -0.4966  0.2277 -1.4715
16990TIP3    H272462   2.315   2.629  12.486 -0.3245 -0.4117 -0.9820
16991TIP3   OH272463   5.427   4.042  13.875 -0.0690  0.4769  0.2310
16991TIP3    H172464   5.495   3.985  13.910 -0.1496  0.3419  0.1689
16991TIP3    H272465   5.365   3.982  13.833  0.0210  0.6393 -0.1323
16992TIP3   OH272466   2.773   4.420   3.860  0.3933  0.5620 -0.6741
16992TIP3    H172467   2.851   4.380   3.823  0.2990 -1.0192  0.7268
16992TIP3    H272468   2.802   4.462   3.941 -0.3172 -0.8295  0.3422
16993TIP3   OH272469   5.389   4.630  13.512  0.5877 -0.1284 -1.0045
16993TIP3    H172470   5.305   4.664  13.482  0.7419  1.0001 -0.2149
16993TIP3    H272471   5.372   4.538  13.533 -0.9512  0.5672  0.9901
16994TIP3   OH272472   0.063   3.054  14.217 -0.4224 -0.0637  0.1523
16994TIP3    H172473   0.063   3.012  14.303 -0.3371 -0.9591 -0.2713
16994TIP3    H272474   0.011   3.133  14.229 -2.3975 -1.3263  0.5089
16995TIP3   OH272475   1.792   6.242   1.688 -0.3594 -0.4717  0.4320
16995TIP3    H172476   1.778   6.174   1.621 -0.6492 -0.8611  0.8782
16995TIP3    H272477   1.832   6.195   1.761  0.5965  0.0832  0.2842
16996TIP3   OH272478   2.026   5.188  11.433  0.1629 -0.6879  0.1397
16996TIP3    H172479   1.965   5.187  11.507  0.5217 -1.4696  0.4376
16996TIP3    H272480   2.003   5.267  11.384 -1.7855 -1.4780 -0.3352
16997TIP3   OH272481   5.726   1.876   4.722  0.5697 -0.4351 -0.5239
16997TIP3    H172482   5.747   1.936   4.650 -2.4112 -0.7422 -1.8016
16997TIP3    H272483   5.632   1.862   4.715 -0.1715  0.4697  4.2714
16998TIP3   OH272484   4.497   3.573  12.431  0.0394 -0.2426  0.0300
16998TIP3    H172485   4.513   3.601  12.521 -1.0760 -1.5451  0.6779
16998TIP3    H272486   4.516   3.479  12.432  3.5187  0.2682 -2.0141
16999TIP3   OH272487   4.948   5.761  12.810 -0.4233 -0.1030  0.2662
16999TIP3    H172488   4.858   5.775  12.780 -0.4251  1.8591  1.0112
16999TIP3    H272489   4.990   5.713  12.739 -2.3688 -2.2974  0.4665
17000TIP3   OH272490   5.317   0.196   2.369 -0.1770  0.7636  0.2154
17000TIP3    H172491   5.282   0.110   2.346  2.2051 -0.4589  0.7790
17000TIP3    H272492   5.309   0.200   2.464  0.9692  0.5464  0.3302
17001TIP3   OH272493   0.017   1.972  13.806  0.4113 -0.3900  0.1960
17001TIP3    H172494   0.017   1.952  13.900 -1.7221 -1.0065  0.1205
17001TIP3    H272495  -0.069   1.942  13.775  0.0607  2.0259 -1.4721
17002TIP3   OH272496   1.021   6.152  14.631 -0.4554 -0.5148 -0.4095
17002TIP3    H172497   1.000   6.087  14.698 -0.8636  1.2966  1.2951
17002TIP3    H272498   0.957   6.222  14.644 -2.4419 -1.2102 -4.5186
17003TIP3   OH272499   2.424   1.480   5.659  0.0196  0.4184  0.0911
17003TIP3    H172500   2.334   1.483   5.694 -1.1811  0.8742 -2.7559
17003TIP3    H272501   2.427   1.552   5.596  1.6021 -1.0100 -1.5830
17004TIP3   OH272502   4.911   6.551   5.915  0.0723  0.4557 -0.4341
17004TIP3    H172503   4.864   6.490   5.971  2.4806 -0.9943  0.1240
17004TIP3    H272504   4.922   6.505   5.832  1.8507  0.0624 -0.0303
17005TIP3   OH272505   1.151   2.234   4.820  0.1600 -0.2261 -0.2301
17005TIP3    H172506   1.141   2.224   4.725  0.4379  0.9461 -0.3980
17005TIP3    H272507   1.127   2.148   4.855  1.7217 -1.2279 -1.4633
17006TIP3   OH272508   3.544   4.488  15.847  0.2085  0.0795 -0.0173
17006TIP3    H172509   3.481   4.436  15.796  1.1563  0.0953 -1.2482
17006TIP3    H272510   3.613   4.509  15.785  2.3403 -1.4044  1.7247
17007TIP3   OH272511   0.810   5.251  13.208 -0.0319 -0.4995  0.5603
17007TIP3    H172512   0.774   5.219  13.126 -0.8379  0.3298  0.5815
17007TIP3    H272513   0.754   5.325  13.233  0.7841 -0.1197  1.3544
17008TIP3   OH272514   4.699   2.199  16.513 -0.1145  0.0868  0.0198
17008TIP3    H172515   4.683   2.230  16.424  0.0527  0.1243  0.0012
17008TIP3    H272516   4.789   2.227  16.532 -1.1136  2.8478  1.3399
17009TIP3   OH272517   6.273   1.368   4.694 -0.3014  0.3245 -0.0167
17009TIP3    H172518   6.231   1.394   4.612  0.4091  0.9808 -0.1921
17009TIP3    H272519   6.303   1.451   4.732  1.0369 -0.1297 -0.0349
17010TIP3   OH272520   6.629   0.845  14.766 -0.2003  0.1748  0.1767
17010TIP3    H172521   6.565   0.773  14.768 -0.5175  0.4505  2.3017
17010TIP3    H272522   6.690   0.825  14.836  1.1348  0.7605 -0.7852
17011TIP3   OH272523   6.071   6.085  11.499  0.5298  0.4972 -0.2153
17011TIP3    H172524   5.981   6.116  11.509  0.6148  0.0664  2.7647
17011TIP3    H272525   6.126   6.158  11.530  1.2668  0.8432 -2.2149
17012TIP3   OH272526   1.882   0.809   2.744  0.2621 -0.5121  0.1113
17012TIP3    H172527   1.976   0.806   2.726  0.3664  0.2110  0.4760
17012TIP3    H272528   1.871   0.885   2.802 -0.7537  0.3964 -1.2146
17013TIP3   OH272529   1.156   4.879   3.850 -0.0771 -0.1542  0.1328
17013TIP3    H172530   1.206   4.810   3.805  0.6698  0.5280 -0.1029
17013TIP3    H272531   1.203   4.960   3.829  0.4803  0.1722  2.3654
17014TIP3   OH272532   3.358   6.156   2.306 -0.3198  0.1238  0.0026
17014TIP3    H172533   3.394   6.077   2.348 -2.1771 -0.3972  0.7304
17014TIP3    H272534   3.422   6.180   2.240  1.2035 -0.8923  1.0517
17015TIP3   OH272535   3.302   5.574  12.040  0.0967  0.4900 -0.1593
17015TIP3    H172536   3.395   5.556  12.052  0.2414  1.7142  0.6736
17015TIP3    H272537   3.279   5.528  11.958  1.2607 -0.3501 -0.0323
17016TIP3   OH272538   6.087   4.271   6.102 -0.0180 -0.5438  0.1015
17016TIP3    H172539   6.077   4.339   6.036  1.3463  0.4788  0.8881
17016TIP3    H272540   6.075   4.189   6.054 -2.4497  0.2292 -0.7229
17017TIP3   OH272541   4.294   2.485  14.884 -0.2328 -0.2808  0.2723
17017TIP3    H172542   4.213   2.442  14.856 -0.0758 -0.8952  0.7287
17017TIP3    H272543   4.305   2.557  14.823 -1.3107  0.0236  0.4075
17018TIP3   OH272544   3.582   0.450   1.489 -0.5864  0.0545 -0.2207
17018TIP3    H172545   3.637   0.398   1.548 -1.7530  0.2590  1.1207
17018TIP3    H272546   3.620   0.538   1.493 -0.9942  0.2059  0.7361
17019TIP3   OH272547   0.293   0.338  12.583  0.4547 -0.1189 -0.4878
17019TIP3    H172548   0.209   0.293  12.578 -0.4406  1.4010  0.2330
17019TIP3    H272549   0.312   0.342  12.677  0.1794  1.5184 -0.4640
17020TIP3   OH272550   3.769   3.515   4.754  0.5279 -0.0628  0.2909
17020TIP3    H172551   3.746   3.552   4.669 -0.0838  2.1268  1.3196
17020TIP3    H272552   3.763   3.421   4.742 -1.2323  0.2269 -1.6353
17021TIP3   OH272553   5.595   2.027   3.360  0.5656 -0.0471  0.1412
17021TIP3    H172554   5.583   2.119   3.337 -0.8078 -0.4355 -0.8593
17021TIP3    H272555   5.683   2.005   3.328  0.0029  0.3256 -1.7762
17022TIP3   OH272556   0.799   4.228   3.917 -0.1303 -0.1892 -0.0282
17022TIP3    H172557   0.767   4.141   3.891 -1.3626 -0.0698  0.9932
17022TIP3    H272558   0.838   4.214   4.003  0.8150  0.0502 -0.4062
17023TIP3   OH272559   2.596   2.413  13.644  0.3014 -0.2391  0.6580
17023TIP3    H172560   2.580   2.327  13.605  0.1254 -0.1848  0.6115
17023TIP3    H272561   2.587   2.474  13.572  0.8286 -0.2145  0.6062
17024TIP3   OH272562   4.875   5.174   3.805 -0.4954 -0.3342 -0.4642
17024TIP3    H172563   4.964   5.196   3.834  0.3655 -1.4700 -2.1178
17024TIP3    H272564   4.819   5.210   3.873  1.0362  3.0267 -0.7652
17025TIP3   OH272565   0.573   5.340  16.396 -0.3643  0.6865 -0.1035
17025TIP3    H172566   0.519   5.281  16.344  1.4971 -2.0546  0.8157
17025TIP3    H272567   0.646   5.362  16.338 -0.2180  0.7091  0.0895
17026TIP3   OH272568   2.494   4.130  12.966  0.4728 -0.3208  0.2054
17026TIP3    H172569   2.473   4.209  13.016  1.2901 -0.5245  0.8864
17026TIP3    H272570   2.465   4.150  12.876  0.1069  0.5076  0.4985
17027TIP3   OH272571   2.025   5.666   1.492 -0.6981  0.4661  0.6110
17027TIP3    H172572   1.981   5.672   1.577 -1.1970  0.8934  0.3276
17027TIP3    H272573   2.118   5.677   1.513 -0.8431  0.8711  1.0663
17028TIP3   OH272574   3.935   6.833  12.717 -0.3022 -0.2174  0.0574
17028TIP3    H172575   4.011   6.801  12.767  0.6628  0.3918 -0.9933
17028TIP3    H272576   3.970   6.859  12.633 -1.3940  1.6911  0.1314
17029TIP3   OH272577   5.344   0.541   0.331  0.4609 -0.3770  0.0922
17029TIP3    H172578   5.285   0.481   0.377 -0.8582  1.8888  1.5528
17029TIP3    H272579   5.432   0.510   0.353 -0.1330 -0.2479  3.0874
17030TIP3   OH272580   0.718   0.403   1.226  0.4222  0.3015 -0.1535
17030TIP3    H172581   0.789   0.384   1.165  1.4436  0.6272  0.8892
17030TIP3    H272582   0.679   0.484   1.193  0.5208  0.1059 -0.7518
17031TIP3   OH272583   5.606   0.387  13.905  0.0445 -0.8076 -0.2091
17031TIP3    H172584   5.511   0.371  13.903  0.1313 -1.2562 -1.2943
17031TIP3    H272585   5.618   0.449  13.977 -1.1440 -0.2920 -0.4271
17032TIP3   OH272586   6.502   3.040   0.873  0.0689  0.1454  0.2829
17032TIP3    H172587   6.508   3.110   0.809 -0.6526 -0.8966 -0.9831
17032TIP3    H272588   6.563   3.064   0.942  0.7239  1.3938 -0.7043
17033TIP3   OH272589   4.560   3.044   1.124  0.0991 -0.4161 -0.1952
17033TIP3    H172590   4.567   2.956   1.160 -0.3744 -0.0746  0.7676
17033TIP3    H272591   4.525   3.031   1.036 -1.0550 -1.1385  0.3447
17034TIP3   OH272592   0.947   0.546  12.594  0.5054 -0.1670 -0.2538
17034TIP3    H172593   1.041   0.526  12.595  1.0067  1.9738  1.0390
17034TIP3    H272594   0.932   0.588  12.509  1.0415  0.8048  0.1233
17035TIP3   OH272595   2.030   0.365  15.441 -0.0673  0.2611 -0.3488
17035TIP3    H172596   1.964   0.296  15.434  0.8598 -0.6479 -0.4363
17035TIP3    H272597   2.076   0.363  15.357  0.8732  0.0107  0.1479
17036TIP3   OH272598   4.855   5.478  10.857 -0.3630  0.2442  0.4492
17036TIP3    H172599   4.809   5.394  10.846 -0.5513  0.4377 -0.3095
17036TIP3    H272600   4.826   5.510  10.943 -2.1127  0.6182 -0.2221
17037TIP3   OH272601   5.706   6.811  14.506  0.4385 -0.4345 -0.2147
17037TIP3    H172602   5.787   6.779  14.466  0.3007 -0.0709 -0.7957
17037TIP3    H272603   5.669   6.871  14.441  0.3462  0.3893  0.5733
17038TIP3   OH272604   3.499   1.227  12.051  0.0711 -0.2776  0.1462
17038TIP3    H172605   3.473   1.136  12.038 -0.0388 -0.1561 -0.5067
17038TIP3    H272606   3.419   1.271  12.080 -0.2396 -0.0896 -0.9781
17039TIP3   OH272607   3.743   6.456   1.905 -0.2694 -0.4357 -0.0340
17039TIP3    H172608   3.810   6.521   1.929  0.0039 -0.7798  0.1523
17039TIP3    H272609   3.675   6.507   1.861 -0.7894  0.2189  1.4668
17040TIP3   OH272610   6.521   3.383   4.761  0.0720  0.2776  0.4578
17040TIP3    H172611   6.579   3.310   4.738 -1.7956 -0.7354 -1.4180
17040TIP3    H272612   6.578   3.449   4.799  2.4969 -0.5903 -1.4225
17041TIP3   OH272613   6.546   6.388   3.495  0.1083 -0.3526  0.2585
17041TIP3    H172614   6.499   6.305   3.480  1.5873 -1.2381  0.3349
17041TIP3    H272615   6.630   6.361   3.531 -0.2132  1.3077  2.4503
17042TIP3   OH272616   6.682   5.329   4.846 -0.3742 -0.5358  0.3586
17042TIP3    H172617   6.649   5.350   4.759  1.0070  1.6465  0.2912
17042TIP3    H272618   6.691   5.234   4.846 -2.3751 -0.7779 -1.1157
17043TIP3   OH272619   3.245   4.239  16.239 -0.4760  0.5139 -0.0807
17043TIP3    H172620   3.330   4.215  16.202 -0.4847 -1.7185  1.1684
17043TIP3    H272621   3.259   4.243  16.333 -1.2646  2.4802 -0.0017
17044TIP3   OH272622   0.492   2.369   1.109 -0.1714  0.3733 -0.1599
17044TIP3    H172623   0.490   2.434   1.038 -1.6709  0.9990  0.4176
17044TIP3    H272624   0.480   2.285   1.064  1.1519  0.5072 -0.8484
17045TIP3   OH272625   1.773   1.545   1.891  0.6814 -0.4287  0.1740
17045TIP3    H172626   1.802   1.518   1.979  0.7828  2.2603  1.0639
17045TIP3    H272627   1.737   1.466   1.852 -0.0117 -1.5700  2.9132
17046TIP3   OH272628   2.401   1.781  11.156 -0.0694 -0.3518  0.2430
17046TIP3    H172629   2.465   1.817  11.095  0.4966 -0.5864  0.6935
17046TIP3    H272630   2.354   1.714  11.105  0.5387 -0.6901  0.1234
17047TIP3   OH272631   6.254   1.644   5.543 -0.4584  0.6086  0.3691
17047TIP3    H172632   6.161   1.659   5.524 -0.9161 -2.5849 -0.4296
17047TIP3    H272633   6.301   1.692   5.475 -1.5295  1.5585  0.2741
17048TIP3   OH272634   4.324   2.502  17.153  0.1144 -1.0487  0.2188
17048TIP3    H172635   4.233   2.518  17.178 -0.3669 -0.3172 -1.8448
17048TIP3    H272636   4.319   2.445  17.076  1.3214  0.0579 -0.7261
17049TIP3   OH272637   2.333   1.248  13.174 -0.7955  0.4567 -0.0093
17049TIP3    H172638   2.337   1.250  13.079  0.2740 -4.2586 -0.3118
17049TIP3    H272639   2.423   1.235  13.203 -1.2941  0.0591  1.5055
17050TIP3   OH272640   4.594   4.486  13.712 -0.0290  0.5639  0.0502
17050TIP3    H172641   4.662   4.515  13.651  0.9362  0.8107  1.2217
17050TIP3    H272642   4.634   4.416  13.762 -0.4064  1.1332  1.1849
17051TIP3   OH272643   4.804   4.948  15.871  0.3606 -0.4376  0.1180
17051TIP3    H172644   4.751   4.907  15.940  0.0320 -1.1383 -0.5392
17051TIP3    H272645   4.818   5.037  15.901 -2.8018  0.3984 -0.5665
17052TIP3   OH272646   3.160   3.544   1.721  0.2290 -0.5035 -0.1762
17052TIP3    H172647   3.149   3.449   1.710  2.5098 -0.9343  0.5430
17052TIP3    H272648   3.117   3.582   1.645  0.4089 -2.2263 -1.2105
17053TIP3   OH272649   1.074   1.195  12.679 -0.5744 -0.3587  0.0858
17053TIP3    H172650   1.137   1.129  12.650 -1.1847 -0.3295 -1.4225
17053TIP3    H272651   0.995   1.176  12.627 -0.2353  2.6082 -1.7121
17054TIP3   OH272652   5.761   4.686  14.399 -0.2401 -0.0234  0.8372
17054TIP3    H172653   5.738   4.603  14.441 -1.1959  1.1173  2.6934
17054TIP3    H272654   5.682   4.710  14.350 -0.0883 -0.0137  0.5953
17055TIP3   OH272655   3.200   2.509   2.729  0.5351 -0.3965  0.4272
17055TIP3    H172656   3.270   2.563   2.767  0.6522 -0.3892  0.2055
17055TIP3    H272657   3.183   2.548   2.644  0.1944 -0.3453  0.5190
17056TIP3   OH272658   0.959   2.972  13.298 -0.4533  0.0292  0.3243
17056TIP3    H172659   0.894   3.043  13.296 -0.6980 -0.2125 -0.3299
17056TIP3    H272660   0.914   2.901  13.343 -0.2384  0.2428  0.8994
17057TIP3   OH272661   1.030   4.158  13.476  0.6474  0.3644  0.1230
17057TIP3    H172662   0.992   4.099  13.411 -0.8638  2.4821 -1.0343
17057TIP3    H272663   1.116   4.121  13.494 -0.3960 -2.4739 -0.0818
17058TIP3   OH272664   3.948   1.377   1.853 -0.3638  0.2373 -0.1463
17058TIP3    H172665   3.963   1.427   1.933 -2.8270  1.1430 -0.1751
17058TIP3    H272666   3.916   1.441   1.790  1.6429 -0.4215 -1.9826
17059TIP3   OH272667   1.936   4.963  14.685  0.6381  0.5481  0.0560
17059TIP3    H172668   1.988   4.934  14.760 -0.3640 -0.6069  0.3243
17059TIP3    H272669   1.987   4.935  14.609 -0.7488 -3.0817  0.2674
17060TIP3   OH272670   4.170   0.135  14.841 -0.3576  0.2813  0.4798
17060TIP3    H172671   4.255   0.108  14.876  0.5332  2.4646  0.1460
17060TIP3    H272672   4.191   0.189  14.765 -2.1365 -0.5895 -0.6992
17061TIP3   OH272673   5.264   6.257  13.879 -0.5139  0.4517  0.2727
17061TIP3    H172674   5.332   6.246  13.945  0.4508 -0.0673 -0.7551
17061TIP3    H272675   5.275   6.181  13.821 -2.3123  0.0824  0.3559
17062TIP3   OH272676   5.583   3.390  11.943  0.5057  0.0840 -0.9580
17062TIP3    H172677   5.611   3.414  11.854  1.1497  0.2902 -0.7091
17062TIP3    H272678   5.657   3.342  11.979  0.1095 -0.2986 -0.6470
17063TIP3   OH272679   4.325   0.591   3.546  0.5549 -0.3837  0.5740
17063TIP3    H172680   4.384   0.516   3.556  0.8888 -0.4694 -1.6394
17063TIP3    H272681   4.338   0.621   3.456  0.0254  2.0139  1.2154
17064TIP3   OH272682   0.432   0.158  12.298 -0.1290 -0.5079  0.4206
17064TIP3    H172683   0.398   0.069  12.287 -1.2651  0.0975 -1.2827
17064TIP3    H272684   0.383   0.211  12.235 -0.2008  1.5364  2.0835
17065TIP3   OH272685   0.663   4.904   1.610  0.4444  0.2333  0.4725
17065TIP3    H172686   0.746   4.879   1.570  0.6452 -0.0712  1.0713
17065TIP3    H272687   0.604   4.919   1.536  0.8893 -0.0482  0.0584
17066TIP3   OH272688   3.066   6.445  15.081  0.2921  0.0495  0.1012
17066TIP3    H172689   3.089   6.516  15.020 -1.4131  0.0795 -0.5372
17066TIP3    H272690   3.009   6.487  15.145  0.6972 -0.3767  0.7497
17067TIP3   OH272691   4.808   6.574   2.346  0.2913  0.0107 -0.1538
17067TIP3    H172692   4.757   6.615   2.276  0.0166 -0.2463 -0.1030
17067TIP3    H272693   4.746   6.516   2.390  0.1076  1.1438  1.1369
17068TIP3   OH272694   1.273   1.604   4.521 -0.6236 -0.1277  0.2505
17068TIP3    H172695   1.202   1.543   4.544 -0.7902  0.6224  1.8425
17068TIP3    H272696   1.337   1.593   4.591  0.4615 -0.1611 -0.7146
17069TIP3   OH272697   5.997   5.717  15.062  0.4674 -0.4358  0.0924
17069TIP3    H172698   6.051   5.646  15.098 -1.6784 -1.8294  0.7267
17069TIP3    H272699   5.958   5.680  14.983  2.1066  1.3241 -1.6428
17070TIP3   OH272700   5.093   1.692  13.790  0.1641 -0.3258 -0.2850
17070TIP3    H172701   5.109   1.607  13.831 -0.9846 -1.7300 -2.5225
17070TIP3    H272702   5.008   1.720  13.825  0.2711 -0.3692  0.0143
17071TIP3   OH272703   5.244   3.623  16.626 -0.2880 -0.2112  0.0808
17071TIP3    H172704   5.223   3.534  16.597  1.1863 -0.6395  0.2549
17071TIP3    H272705   5.301   3.658  16.557 -0.5140  0.4504  0.2205
17072TIP3   OH272706   0.107   0.555   1.158 -0.2400  0.3272 -0.3921
17072TIP3    H172707   0.198   0.537   1.135 -0.5455 -2.7752  0.3649
17072TIP3    H272708   0.088   0.496   1.231 -3.0501  0.3534 -0.9725
17073TIP3   OH272709   6.098   6.249  13.547  0.1000 -0.5210 -0.5423
17073TIP3    H172710   6.034   6.285  13.609 -3.2579 -1.8010 -2.9122
17073TIP3    H272711   6.120   6.163  13.583 -0.9482 -0.7906 -0.4869
17074TIP3   OH272712   1.195   4.926   4.607 -0.2727 -0.0812 -0.0689
17074TIP3    H172713   1.125   4.861   4.597 -2.7206  2.1924  1.1196
17074TIP3    H272714   1.180   4.988   4.536  0.0608  0.8357  0.6448
17075TIP3   OH272715   5.892   5.120   1.426 -0.6867  0.1853  0.7760
17075TIP3    H172716   5.826   5.061   1.390  0.2454 -1.2954  1.4038
17075TIP3    H272717   5.865   5.135   1.517 -0.7969  0.5759  0.6847
17076TIP3   OH272718   0.063   5.856  14.696  0.2762 -0.4789 -0.2908
17076TIP3    H172719   0.104   5.909  14.765 -1.8848 -0.0380  0.7514
17076TIP3    H272720  -0.012   5.814  14.740  0.2162 -2.1025 -1.8147
17077TIP3   OH272721   5.576   5.116   0.207 -0.7737  0.4955 -0.0742
17077TIP3    H172722   5.536   5.061   0.274 -1.2731  0.3485 -0.4848
17077TIP3    H272723   5.670   5.111   0.225 -1.0023  1.9262  1.7300
17078TIP3   OH272724   1.624   5.041  12.163 -0.2356 -0.1846 -0.0146
17078TIP3    H172725   1.554   5.097  12.129 -0.9716 -0.3658  1.1360
17078TIP3    H272726   1.652   4.989  12.087 -0.7881  0.4692 -0.6810
17079TIP3   OH272727   6.503   3.189  14.071  0.1237  0.0746  0.1281
17079TIP3    H172728   6.458   3.221  13.992 -0.0599 -1.4588 -0.4136
17079TIP3    H272729   6.559   3.118  14.040 -0.4325 -0.9933  1.4488
17080TIP3   OH272730   0.542   5.768   1.904  0.3523  0.7201 -0.0646
17080TIP3    H172731   0.566   5.758   1.812  1.9514 -3.1665  0.5525
17080TIP3    H272732   0.485   5.692   1.922  0.9804  0.7405  2.3520
17081TIP3   OH272733   0.610   4.591   2.276 -0.2557 -0.3757  0.6631
17081TIP3    H172734   0.655   4.616   2.195 -1.0235  1.1971  0.6743
17081TIP3    H272735   0.680   4.577   2.339  0.2940  0.4705  0.2640
17082TIP3   OH272736   0.131   0.317   2.416 -0.2058  0.6149  0.3725
17082TIP3    H172737   0.153   0.376   2.488 -0.2352 -1.1116  1.8847
17082TIP3    H272738   0.197   0.248   2.422 -2.0324 -1.2067  0.7932
17083TIP3   OH272739   4.209   2.849   2.315 -0.7163 -0.3209 -0.3764
17083TIP3    H172740   4.134   2.843   2.374 -0.6989  0.6850 -0.2343
17083TIP3    H272741   4.257   2.767   2.328 -0.7705 -0.1593  0.9156
17084TIP3   OH272742   1.902   4.544  13.584 -0.2244 -0.0457  0.6780
17084TIP3    H172743   1.969   4.606  13.611 -1.3633  1.2915  0.5400
17084TIP3    H272744   1.887   4.564  13.491 -0.7463 -0.3964  0.6824
17085TIP3   OH272745   4.466   6.615  11.212  0.6574 -0.0684 -0.1237
17085TIP3    H172746   4.425   6.540  11.255  0.6938 -0.1538 -0.2374
17085TIP3    H272747   4.539   6.578  11.164  0.8354  0.0769  0.0348
17086TIP3   OH272748   0.007   4.424   0.480 -0.3072 -0.4265 -0.7165
17086TIP3    H172749   0.012   4.489   0.551  1.5022 -1.9867  0.6816
17086TIP3    H272750   0.090   4.433   0.434 -0.6054 -0.8461 -1.3400
17087TIP3   OH272751   4.240   0.498  13.232 -0.2162  0.4470 -0.8962
17087TIP3    H172752   4.157   0.535  13.263 -0.2991  0.6081 -1.3092
17087TIP3    H272753   4.271   0.444  13.306 -1.1780 -0.4164 -1.0938
17088TIP3   OH272754   5.127   0.644  10.926  0.6448  0.3325 -0.5743
17088TIP3    H172755   5.101   0.553  10.913 -0.0172  0.1271  1.8334
17088TIP3    H272756   5.052   0.695  10.894 -0.4930 -0.1067  1.2688
17089TIP3   OH272757   1.398   3.342   2.801  0.1455  0.1431  0.2786
17089TIP3    H172758   1.342   3.399   2.748 -0.7106 -1.3314 -0.4736
17089TIP3    H272759   1.337   3.280   2.842  1.0228 -0.1483  1.1871
17090TIP3   OH272760   0.272   5.321   1.999  1.1234 -0.1777  0.1226
17090TIP3    H172761   0.213   5.277   2.060 -1.3837  1.7333 -0.7677
17090TIP3    H272762   0.249   5.287   1.913 -1.1732  2.8887 -0.6446
17091TIP3   OH272763   0.704   2.322  14.971 -0.2379 -0.1330 -0.0269
17091TIP3    H172764   0.742   2.282  15.049  1.7783 -1.1980 -1.4656
17091TIP3    H272765   0.728   2.415  14.977  0.3760 -0.3140  0.3438
17092TIP3   OH272766   1.452   4.736  14.655 -0.2129  0.5437 -0.3794
17092TIP3    H172767   1.372   4.716  14.606  0.3366  0.1055 -1.1372
17092TIP3    H272768   1.432   4.712  14.745 -1.7798  2.8397 -0.0362
17093TIP3   OH272769   3.565   2.801   5.322  0.3693  0.0401  0.2962
17093TIP3    H172770   3.546   2.766   5.409  0.9264  1.0854  0.8616
17093TIP3    H272771   3.479   2.828   5.288  0.2633  0.5290  0.9327
17094TIP3   OH272772   3.411   4.706   4.744 -0.2125 -0.0429  0.0340
17094TIP3    H172773   3.364   4.751   4.674  0.4380 -1.6056 -1.4711
17094TIP3    H272774   3.342   4.675   4.803 -1.0663 -1.3962 -1.5826
17095TIP3   OH272775   3.373   6.184   5.707  0.4171  0.1244 -0.2652
17095TIP3    H172776   3.428   6.260   5.725  0.3249 -0.0034  0.6270
17095TIP3    H272777   3.409   6.114   5.762 -0.4309 -0.0449  0.1019
17096TIP3   OH272778   2.645   1.212  12.079 -0.2056  0.0314 -0.4655
17096TIP3    H172779   2.676   1.129  12.115 -0.5549 -0.6352 -1.6519
17096TIP3    H272780   2.718   1.273  12.093  0.9709 -1.0509 -1.5845
17097TIP3   OH272781   2.451   6.763  12.592 -0.2447 -0.0855 -0.0447
17097TIP3    H172782   2.371   6.715  12.608 -0.3759  0.3998  0.8180
17097TIP3    H272783   2.426   6.855  12.600  0.2094  0.0988 -0.6590
17098TIP3   OH272784   5.277   2.573  11.917 -0.6266 -0.0609 -0.8154
17098TIP3    H172785   5.341   2.619  11.972  0.8830 -2.2534 -0.6126
17098TIP3    H272786   5.197   2.625  11.926  0.0407  0.6732  2.0333
17099TIP3   OH272787   2.564   0.409  11.871 -0.0904  0.9359 -0.1913
17099TIP3    H172788   2.522   0.332  11.832  2.1803 -1.5429  1.9097
17099TIP3    H272789   2.644   0.421  11.820  1.1074 -0.1182  1.3552
17100TIP3   OH272790   3.180   2.596  13.048 -0.6292  0.5204 -0.2321
17100TIP3    H172791   3.243   2.542  13.095 -1.7209  1.3126  2.3577
17100TIP3    H272792   3.098   2.547  13.053 -0.9996  1.1146 -0.3605
17101TIP3   OH272793   0.992   5.989  16.258  0.0317 -0.5862 -0.0154
17101TIP3    H172794   1.085   6.001  16.236 -0.1533  2.5618  0.5157
17101TIP3    H272795   0.949   5.980  16.173  0.6229 -0.0699 -0.3874
17102TIP3   OH272796   3.155   3.430  15.660 -0.0911 -0.1087  0.1989
17102TIP3    H172797   3.164   3.336  15.648 -0.5689 -0.1389  0.0654
17102TIP3    H272798   3.069   3.441  15.700 -0.2889  0.3109 -0.3238
17103TIP3   OH272799   6.510   6.819  10.461 -0.5072  0.2634 -0.4265
17103TIP3    H172800   6.574   6.846  10.395 -0.5055  3.5226  0.6879
17103TIP3    H272801   6.447   6.891  10.463 -2.2206 -1.1980  1.0020
17104TIP3   OH272802   3.282   0.514  16.539 -0.0937 -0.4745  0.4993
17104TIP3    H172803   3.223   0.534  16.466  1.4296  0.3601 -0.5682
17104TIP3    H272804   3.258   0.578  16.606  0.2077  0.5262 -0.3045
17105TIP3   OH272805   1.191   1.957  15.151 -0.2181 -0.0018 -0.2776
17105TIP3    H172806   1.227   1.916  15.229  1.1150 -0.1411 -0.9354
17105TIP3    H272807   1.252   2.027  15.130  0.4988 -1.1168 -2.2132
17106TIP3   OH272808   4.672   0.084   2.271 -0.0927  0.7270  0.0938
17106TIP3    H172809   4.732   0.082   2.197  0.1320 -0.7433  0.2886
17106TIP3    H272810   4.728   0.103   2.347 -0.3421  2.3679 -0.0987
17107TIP3   OH272811   1.898   3.968   6.540 -0.5658 -0.1666  0.0246
17107TIP3    H172812   1.917   4.030   6.610  1.8298 -0.5306 -0.2295
17107TIP3    H272813   1.859   4.021   6.471  0.7974  0.9600  0.0782
17108TIP3   OH272814   1.303   0.489  16.531 -0.5403  0.3729 -0.3090
17108TIP3    H172815   1.282   0.396  16.538  0.4312  0.2487  1.4020
17108TIP3    H272816   1.268   0.514  16.446 -0.4089 -1.6659 -1.0376
17109TIP3   OH272817   5.973   3.267   1.479 -0.1184 -0.3727  0.2741
17109TIP3    H172818   5.892   3.299   1.521  0.8161  1.2455  0.9452
17109TIP3    H272819   5.945   3.237   1.393 -1.2893  1.2306  0.0475
17110TIP3   OH272820   1.846   1.309   5.057 -0.0930 -0.0239 -0.3692
17110TIP3    H172821   1.798   1.389   5.077  0.6671 -0.0322  1.8152
17110TIP3    H272822   1.786   1.257   5.003 -0.6501  1.9030 -1.6904
17111TIP3   OH272823   1.618   2.418  12.037  0.0523 -0.3668  0.2012
17111TIP3    H172824   1.536   2.394  12.081  0.0619  0.6383  0.7958
17111TIP3    H272825   1.682   2.356  12.071 -0.1310 -0.1536  0.9684
17112TIP3   OH272826   2.015   6.573  13.464  0.6991 -0.7502  0.0630
17112TIP3    H172827   2.025   6.497  13.407  0.1619 -0.6525 -0.1694
17112TIP3    H272828   2.010   6.537  13.553  0.7219 -0.9645 -0.0234
17113TIP3   OH272829   1.023   6.570  12.955  1.0899  0.1543  0.0862
17113TIP3    H172830   1.049   6.581  13.046 -0.1130  0.7905  0.3720
17113TIP3    H272831   0.972   6.489  12.954  0.8299  0.3189  0.0353
17114TIP3   OH272832   3.562   5.755  12.191  0.4052 -0.6172  0.0256
17114TIP3    H172833   3.504   5.718  12.257 -2.0744  1.3119 -0.9193
17114TIP3    H272834   3.596   5.836  12.230  0.9554 -0.7614 -0.1397
17115TIP3   OH272835   1.614   2.440  14.833 -0.0927  0.3254  0.1004
17115TIP3    H172836   1.519   2.448  14.843  0.1803  1.1213  3.1231
17115TIP3    H272837   1.630   2.459  14.741 -2.9203 -0.9211 -0.7801
17116TIP3   OH272838   6.238   3.966   3.365  0.4182  0.5347 -0.2770
17116TIP3    H172839   6.196   4.051   3.375 -1.1167 -0.3883  2.0025
17116TIP3    H272840   6.331   3.983   3.383  0.0875  1.6648  0.4574
17117TIP3   OH272841   3.061   0.080   5.540 -0.2408  0.5248 -0.3035
17117TIP3    H172842   2.993   0.015   5.524 -1.4459  0.8335  2.8440
17117TIP3    H272843   3.042   0.151   5.479 -2.2640  0.2476 -0.0465
17118TIP3   OH272844   5.598   0.791  11.630  0.3421  0.0204  0.2873
17118TIP3    H172845   5.511   0.823  11.607 -0.3181 -1.7801  0.1022
17118TIP3    H272846   5.655   0.825  11.561 -0.3189  0.7230  0.0734
17119TIP3   OH272847   4.893   0.712  10.810 -0.1741 -0.1610 -0.5703
17119TIP3    H172848   4.821   0.770  10.788  0.3847  0.8556  0.1720
17119TIP3    H272849   4.876   0.632  10.761 -2.1442 -0.1905  0.0971
17120TIP3   OH272850   0.673   5.016   2.312 -0.9483 -0.9429 -0.4787
17120TIP3    H172851   0.705   4.988   2.226  0.4354  1.5510 -0.8477
17120TIP3    H272852   0.579   5.030   2.298 -0.3616  1.9368 -2.4261
17121TIP3   OH272853   1.772   1.377  12.126  0.0265  0.2900  0.0777
17121TIP3    H172854   1.838   1.310  12.106 -0.7721  0.0880 -2.0938
17121TIP3    H272855   1.697   1.327  12.159  0.6318  0.4591  1.8159
17122TIP3   OH272856   0.833   0.393  15.135 -0.5363  0.2538 -0.1576
17122TIP3    H172857   0.849   0.300  15.120 -2.3516 -0.2709  0.8361
17122TIP3    H272858   0.782   0.422  15.059 -0.7146  0.2141 -0.0541
17123TIP3   OH272859   5.838   0.889  11.475  0.0354  0.3829 -0.1973
17123TIP3    H172860   5.913   0.949  11.476 -1.0576  1.8416 -1.3953
17123TIP3    H272861   5.817   0.879  11.383 -0.5691 -0.9108  0.0717
17124TIP3   OH272862   1.369   2.186  12.388 -0.0886  0.7461  0.0831
17124TIP3    H172863   1.368   2.243  12.311  0.6319 -0.8030 -1.1373
17124TIP3    H272864   1.413   2.238  12.456 -1.0358  2.2613 -0.4334
17125TIP3   OH272865   1.392   5.705   0.333  0.2069 -0.6877  0.0171
17125TIP3    H172866   1.325   5.666   0.389  0.3160  0.0837  0.7098
17125TIP3    H272867   1.474   5.684   0.378  0.2159  1.0329  0.8580
17126TIP3   OH272868   0.007   4.456   4.404  0.4505  0.0308 -0.2510
17126TIP3    H172869   0.025   4.543   4.368 -1.1123  0.1716 -0.7515
17126TIP3    H272870  -0.013   4.472   4.496  0.2523  0.1932 -0.3221
17127TIP3   OH272871   1.554   5.164  16.106  0.2419  0.0813  0.2196
17127TIP3    H172872   1.609   5.119  16.043  0.6558 -1.7030  1.7607
17127TIP3    H272873   1.465   5.132  16.087  0.0099  1.2574 -0.8294
17128TIP3   OH272874   0.201   5.242   6.038  0.1346 -0.6320  0.7750
17128TIP3    H172875   0.111   5.224   6.009  0.4884  0.3694 -1.0769
17128TIP3    H272876   0.256   5.204   5.970  1.0608  0.5142  0.8645
17129TIP3   OH272877   3.785   5.854   3.831 -0.2445  0.2575  0.2744
17129TIP3    H172878   3.708   5.834   3.779 -1.0489 -1.3736  1.9778
17129TIP3    H272879   3.751   5.878   3.917  1.1091  0.2827  0.8288
17130TIP3   OH272880   2.588   4.398   6.250 -0.2992  0.0942  0.2990
17130TIP3    H172881   2.609   4.421   6.340  0.2333 -0.5672  0.3495
17130TIP3    H272882   2.605   4.304   6.245 -2.1305 -0.2761  0.0263
17131TIP3   OH272883   6.338   3.693  12.042  0.3777 -0.6041 -0.0662
17131TIP3    H172884   6.289   3.648  12.110  0.9964  0.5010  1.1524
17131TIP3    H272885   6.332   3.635  11.965  0.5081 -2.3594  1.1947
17132TIP3   OH272886   3.753   5.895   4.340 -0.0523  0.5277  0.4027
17132TIP3    H172887   3.766   5.918   4.432 -1.3170  2.1554  0.2217
17132TIP3    H272888   3.699   5.816   4.343  0.1156  0.4294  1.0534
17133TIP3   OH272889   3.652   0.092  10.894  0.0121 -0.6087  0.7618
17133TIP3    H172890   3.613   0.179  10.901  0.4681 -0.3212 -0.1495
17133TIP3    H272891   3.728   0.104  10.838  0.2083 -1.5551  0.8139
17134TIP3   OH272892   6.650   3.727   3.661 -0.3384 -0.6040  0.0812
17134TIP3    H172893   6.690   3.738   3.574 -0.0657  1.0480  0.3680
17134TIP3    H272894   6.579   3.665   3.648  1.4792 -2.6284 -0.7292
17135TIP3   OH272895   0.107   5.715   4.999  0.4162  0.7116  0.0559
17135TIP3    H172896   0.060   5.721   4.917  0.0368  0.2541  0.2326
17135TIP3    H272897   0.169   5.643   4.986 -0.1719  0.1255  0.4177
17136TIP3   OH272898   0.539   5.790  14.346  0.2034 -0.1411  0.0804
17136TIP3    H172899   0.575   5.809  14.259 -1.0547  0.3094 -0.3653
17136TIP3    H272900   0.457   5.839  14.349 -0.0794 -0.6626  1.2866
17137TIP3   OH272901   3.604   1.551  14.338 -0.1128 -0.0071  0.4198
17137TIP3    H172902   3.563   1.638  14.337  0.1939  0.1710 -1.8124
17137TIP3    H272903   3.698   1.569  14.330  0.1236 -0.5229  1.7941
17138TIP3   OH272904   2.140   2.648  14.174 -0.0432 -0.1160  0.2269
17138TIP3    H172905   2.052   2.684  14.160 -0.5744 -1.2977  0.4809
17138TIP3    H272906   2.155   2.657  14.268 -0.7675 -1.8495  0.5304
17139TIP3   OH272907   5.860   1.026   0.659  0.6732 -0.1023  0.1064
17139TIP3    H172908   5.860   1.025   0.563  0.8933  0.0077  0.1055
17139TIP3    H272909   5.882   1.116   0.683 -0.8163  0.2459  0.2647
17140TIP3   OH272910   0.141   6.248   4.489 -0.4519 -0.4036  0.7000
17140TIP3    H172911   0.083   6.172   4.501  0.2000 -0.6102  3.1085
17140TIP3    H272912   0.082   6.320   4.469 -1.2870 -1.1313  0.4798
17141TIP3   OH272913   1.650   5.038  13.866 -0.1573 -0.2129 -0.5015
17141TIP3    H172914   1.726   5.023  13.921 -0.7121  0.1122  0.3720
17141TIP3    H272915   1.586   5.081  13.923 -0.9399 -0.3340 -1.2513
17142TIP3   OH272916   3.645   0.209   4.827 -0.5010  0.2496  0.1318
17142TIP3    H172917   3.577   0.205   4.894 -0.1714 -0.8767  0.4291
17142TIP3    H272918   3.650   0.120   4.793 -1.8678  1.1476 -2.6664
17143TIP3   OH272919   1.665   2.128  10.852 -0.1287  0.3355 -0.1899
17143TIP3    H172920   1.727   2.056  10.862 -0.3565  0.0730 -0.6280
17143TIP3    H272921   1.592   2.090  10.802 -0.8689  0.5033  0.7445
17144TIP3   OH272922   6.467   5.718   3.358 -0.0223  0.0005 -0.0817
17144TIP3    H172923   6.511   5.787   3.309 -1.0238 -0.0002 -1.0362
17144TIP3    H272924   6.397   5.689   3.300  0.3343 -1.7846  0.3246
17145TIP3   OH272925   4.805   4.298   4.115  0.3977  0.3933 -0.2305
17145TIP3    H172926   4.816   4.208   4.144 -1.1256  0.1504 -0.3322
17145TIP3    H272927   4.890   4.339   4.133  0.5666 -0.5846  1.4509
17146TIP3   OH272928   4.668   4.236  13.441  0.3433  0.0722 -0.0184
17146TIP3    H172929   4.689   4.260  13.531 -0.7641  0.4017  0.1695
17146TIP3    H272930   4.742   4.182  13.413  2.0268  2.1168  0.1814
17147TIP3   OH272931   4.628   2.868   5.119  1.0285  0.0763  0.1849
17147TIP3    H172932   4.710   2.824   5.140  0.3073 -0.8936  1.0787
17147TIP3    H272933   4.562   2.799   5.123 -0.0973  1.1589  1.2997
17148TIP3   OH272934   0.742   4.176   0.928  0.1744  0.5324 -0.7626
17148TIP3    H172935   0.776   4.121   0.998 -0.8341  0.8967  0.0440
17148TIP3    H272936   0.701   4.114   0.867  1.0465  0.2153 -1.0344
17149TIP3   OH272937   0.232   4.270  13.513 -0.6037 -0.3675 -0.3962
17149TIP3    H172938   0.166   4.311  13.457 -1.9468 -0.2596  1.1638
17149TIP3    H272939   0.187   4.196  13.553  0.1357 -0.1464  0.8971
17150TIP3   OH272940   3.005   3.592  12.229 -0.4322 -0.1456 -0.1291
17150TIP3    H172941   3.073   3.619  12.291  0.5317  0.0254 -1.2345
17150TIP3    H272942   2.926   3.636  12.260  0.1947  0.5215  0.5618
17151TIP3   OH272943   5.579   2.680  13.115 -0.2691 -0.6352  0.9048
17151TIP3    H172944   5.573   2.774  13.100  0.8956 -0.4909  1.2786
17151TIP3    H272945   5.629   2.647  13.040  1.0289 -0.6572  1.7505
17152TIP3   OH272946   0.009   0.638  14.665 -0.4405  0.1826  0.4789
17152TIP3    H172947  -0.057   0.658  14.598 -0.1225  0.9076  0.3712
17152TIP3    H272948  -0.022   0.684  14.743  1.1156  2.5463 -0.1910
17153TIP3   OH272949   3.551   3.807  11.288  0.1992  0.3479  0.4076
17153TIP3    H172950   3.640   3.775  11.299  0.1840 -0.6326 -1.7343
17153TIP3    H272951   3.561   3.901  11.269  0.7080  0.3820  0.8328
17154TIP3   OH272952   4.677   4.825   1.539  0.2035  0.2744 -0.3757
17154TIP3    H172953   4.755   4.857   1.494 -0.3674  2.6041  0.1612
17154TIP3    H272954   4.649   4.749   1.488  3.1594 -1.0520 -0.1882
17155TIP3   OH272955   6.058   3.307  12.360  0.0862  0.1722  0.1730
17155TIP3    H172956   6.104   3.275  12.283  0.1779  1.4604 -0.3410
17155TIP3    H272957   6.126   3.320  12.426  0.2416  0.5993 -0.0692
17156TIP3   OH272958   5.749   5.021  15.284  0.1502  0.5953 -0.1579
17156TIP3    H172959   5.660   5.015  15.247  0.1313 -0.4347  0.0288
17156TIP3    H272960   5.804   4.972  15.223  0.7683  1.9926 -0.7609
17157TIP3   OH272961   1.956   1.183   3.665 -0.4251 -0.0956  0.3337
17157TIP3    H172962   2.010   1.127   3.721 -0.6843  0.7197  1.4270
17157TIP3    H272963   2.018   1.224   3.605  0.0071 -0.1151  0.7626
17158TIP3   OH272964   0.456   6.012  13.843  0.3459  0.2243 -0.0042
17158TIP3    H172965   0.534   6.053  13.880  0.5163  0.1052 -0.2276
17158TIP3    H272966   0.416   6.080  13.789 -1.0441  1.0843  2.0066
17159TIP3   OH272967   4.764   2.453  11.209  0.0223 -0.1073 -0.5788
17159TIP3    H172968   4.678   2.432  11.172 -0.5513 -1.2864  1.2933
17159TIP3    H272969   4.776   2.546  11.191 -1.0331 -0.2200 -2.0447
17160TIP3   OH272970   2.493   2.136   4.595  0.3390  0.1600  0.0718
17160TIP3    H172971   2.490   2.228   4.622  0.6090  0.4334 -0.7730
17160TIP3    H272972   2.495   2.087   4.676 -0.1493  0.8930  0.5407
17161TIP3   OH272973   5.879   6.807  14.204  0.4234  0.3824 -0.1261
17161TIP3    H172974   5.896   6.756  14.284  0.4981 -0.4306 -0.6456
17161TIP3    H272975   5.965   6.814  14.162  0.4274  1.0225 -0.0132
17162TIP3   OH272976   2.114   0.190  12.718  0.0559  0.1181  0.2585
17162TIP3    H172977   2.031   0.142  12.713 -1.2852  2.0032  2.4986
17162TIP3    H272978   2.173   0.131  12.765 -1.1636  0.0504  1.8097
17163TIP3   OH272979   0.172   1.243  16.174  0.1893  0.6311  0.3986
17163TIP3    H172980   0.192   1.193  16.253  0.9584  0.7364  0.2764
17163TIP3    H272981   0.183   1.181  16.103 -0.6822  0.4875  0.3774
17164TIP3   OH272982   3.375   0.098  14.717 -0.1244  0.7780 -0.0363
17164TIP3    H172983   3.286   0.110  14.751  0.2212  1.4186  0.6541
17164TIP3    H272984   3.361   0.067  14.627 -1.0560 -1.6874  0.8454
17165TIP3   OH272985   1.416   0.348  11.561 -0.1965 -0.6702  0.5901
17165TIP3    H172986   1.368   0.267  11.548  1.7637 -1.5897 -1.7529
17165TIP3    H272987   1.507   0.320  11.574  0.2405  1.0922  1.6476
17166TIP3   OH272988   1.614   3.134   4.103  0.0615  0.1567  0.4195
17166TIP3    H172989   1.656   3.206   4.150  1.7332 -1.1827  1.0955
17166TIP3    H272990   1.524   3.164   4.088  0.6663  2.3163  0.7534
17167TIP3   OH272991   2.238   1.692   6.028 -0.2003  0.0025  0.2282
17167TIP3    H172992   2.183   1.730   5.959 -1.4949 -0.0200  1.2059
17167TIP3    H272993   2.183   1.625   6.068  2.0849 -3.2677 -1.6115
17168TIP3   OH272994   5.186   5.013   3.609  0.5418  0.0166  0.0440
17168TIP3    H172995   5.164   5.053   3.525  0.2225  1.5212  0.8036
17168TIP3    H272996   5.102   5.008   3.656  1.2812  3.6592  2.0893
17169TIP3   OH272997   4.823   5.716   3.344 -0.3212  0.1364 -0.2406
17169TIP3    H172998   4.733   5.684   3.337  0.1876 -1.9317  1.4137
17169TIP3    H272999   4.815   5.800   3.389 -1.5274  0.9566 -1.9074
17170TIP3   OH273000   2.509   2.752  12.600  0.0329  0.1663 -0.0990
17170TIP3    H173001   2.502   2.810  12.524  0.3938  0.9211  0.4269
17170TIP3    H273002   2.419   2.733  12.624 -0.2018  2.2260  0.9685
17171TIP3   OH273003   5.944   5.527  11.998  0.5002 -0.6530 -0.8808
17171TIP3    H173004   5.937   5.622  11.985 -2.7567 -0.6788 -0.1023
17171TIP3    H273005   5.906   5.489  11.918 -1.0398 -1.1787  0.0551
17172TIP3   OH273006   5.214   3.130  16.333 -0.0731  0.1027  0.3008
17172TIP3    H173007   5.138   3.188  16.334 -0.9788 -1.0163  2.5645
17172TIP3    H273008   5.286   3.186  16.362 -0.6624  0.4552  1.1421
17173TIP3   OH273009   1.041   0.847  15.292  0.2923  0.2541  0.2050
17173TIP3    H173010   1.133   0.875  15.289 -0.0060  1.2125 -2.1233
17173TIP3    H273011   0.994   0.922  15.326  0.2072  0.3246 -0.0647
17174TIP3   OH273012   6.324   1.638   4.743 -0.1545  0.2118 -0.2158
17174TIP3    H173013   6.409   1.601   4.768 -0.4393 -0.5625 -0.3582
17174TIP3    H273014   6.341   1.732   4.732  0.7903  0.0014 -0.6840
17175TIP3   OH273015   0.871   5.316  15.586 -0.1998 -0.3182 -0.4568
17175TIP3    H173016   0.791   5.367  15.595  0.3488  0.1940  2.3934
17175TIP3    H273017   0.846   5.227  15.610  0.0165 -0.1926  0.2638
17176TIP3   OH273018   5.997   1.884  14.205  0.6181 -0.4141 -0.3843
17176TIP3    H173019   5.959   1.797  14.195 -1.1668  0.3555 -0.5908
17176TIP3    H273020   5.981   1.908  14.296 -3.7854  1.7545 -1.4492
17177TIP3   OH273021   0.448   1.130   4.431 -0.5057  0.2969  0.3354
17177TIP3    H173022   0.471   1.166   4.516 -2.3502 -0.5241  1.2410
17177TIP3    H273023   0.353   1.117   4.435 -0.8531  1.3479 -2.2929
17178TIP3   OH273024   2.163   5.566   5.896  0.2611 -0.0585  0.4169
17178TIP3    H173025   2.093   5.622   5.929 -0.5490  0.0324 -1.3315
17178TIP3    H273026   2.139   5.549   5.805  3.5263  1.6355 -0.9239
17179TIP3   OH273027   1.428   1.296   3.536 -0.0155  0.7094 -0.1308
17179TIP3    H173028   1.471   1.248   3.607 -1.1394 -0.8846 -0.4744
17179TIP3    H273029   1.460   1.253   3.456 -1.4900  0.0877 -0.4260
17180TIP3   OH273030   1.299   2.397   5.377 -0.3735 -0.5856 -0.2608
17180TIP3    H173031   1.324   2.399   5.285  0.5160  0.8149 -0.0120
17180TIP3    H273032   1.323   2.483   5.411 -0.3862 -1.1838  1.3633
17181TIP3   OH273033   2.239   2.441   5.237 -0.9400  0.3847 -0.7091
17181TIP3    H173034   2.286   2.506   5.290  0.7619 -0.8390 -0.6496
17181TIP3    H273035   2.289   2.436   5.155 -0.5243 -1.4333 -0.3765
17182TIP3   OH273036   1.108   6.476   0.881 -1.0069  0.4535 -0.8741
17182TIP3    H173037   1.143   6.392   0.912  0.1609  0.3890 -2.2538
17182TIP3    H273038   1.109   6.532   0.958 -2.6452 -1.0188  0.3014
17183TIP3   OH273039   0.961   3.309  16.828  0.4715 -0.3367  0.2470
17183TIP3    H173040   0.908   3.248  16.776  1.4117  0.7972 -2.2092
17183TIP3    H273041   1.039   3.259  16.851  0.5449 -0.5331 -0.4125
17184TIP3   OH273042   6.671   5.486   2.950  0.4804 -0.2897 -0.1580
17184TIP3    H173043   6.747   5.542   2.936  0.6828 -1.0447 -2.3827
17184TIP3    H273044   6.652   5.495   3.044  3.3148 -0.1177  0.4843
17185TIP3   OH273045   1.117   2.198  15.329 -0.2343  0.2935  0.3017
17185TIP3    H173046   1.089   2.106  15.329 -0.2347  0.2887 -0.2659
17185TIP3    H273047   1.159   2.210  15.244 -1.1287  1.0957 -0.0426
17186TIP3   OH273048   4.511   5.469   5.889  0.6380 -0.3067 -0.5276
17186TIP3    H173049   4.541   5.509   5.807  0.9321  2.1118  0.6811
17186TIP3    H273050   4.415   5.464   5.879  0.5458  1.1599 -0.5476
17187TIP3   OH273051   3.358   0.030  11.159 -0.6402 -0.3513 -0.5234
17187TIP3    H173052   3.316   0.041  11.073  1.5506 -0.0579 -1.6275
17187TIP3    H273053   3.432   0.091  11.158  0.0578 -1.0911  1.1629
17188TIP3   OH273054   3.104   2.363   5.311 -0.7252 -0.4275 -0.3303
17188TIP3    H173055   3.044   2.331   5.379 -2.1718  1.1826 -0.7877
17188TIP3    H273056   3.054   2.355   5.230 -0.6621  1.6281 -0.6249
17189TIP3   OH273057   5.845   6.524   0.292  0.1480  0.0818  0.5575
17189TIP3    H173058   5.781   6.457   0.316  1.2376 -0.7693  1.2134
17189TIP3    H273059   5.927   6.475   0.279  0.8084  1.2033  0.3211
17190TIP3   OH273060   0.246   2.496  11.523  0.0842 -0.0486  0.2762
17190TIP3    H173061   0.195   2.576  11.539 -0.5047 -0.3068 -0.2400
17190TIP3    H273062   0.179   2.429  11.504  0.6057 -0.4482 -0.1864
17191TIP3   OH273063   1.620   0.845   4.595 -0.4209 -0.1392 -0.7094
17191TIP3    H173064   1.647   0.804   4.677 -1.0087  0.1741 -0.3499
17191TIP3    H273065   1.573   0.777   4.548 -3.2011  0.6140  0.7731
17192TIP3   OH273066   2.124   1.612  14.487  0.2104 -0.0232 -0.1300
17192TIP3    H173067   2.163   1.700  14.485  0.4070 -0.0598  1.2519
17192TIP3    H273068   2.073   1.610  14.568 -3.1234  0.1792 -2.0080
17193TIP3   OH273069   2.115   2.049   0.371 -0.2652  0.5580  0.1152
17193TIP3    H173070   2.077   1.971   0.330 -0.4655  1.5685 -1.7404
17193TIP3    H273071   2.061   2.065   0.448 -1.5063  0.0334 -0.6151
17194TIP3   OH273072   4.372   2.203  14.364  0.5789  0.6357  0.4078
17194TIP3    H173073   4.304   2.203  14.432 -0.9013  1.5583 -0.9829
17194TIP3    H273074   4.419   2.285  14.378  0.7839  0.4606  0.7704
17195TIP3   OH273075   3.782   0.230   1.957 -0.5066  0.2207 -0.2134
17195TIP3    H173076   3.876   0.238   1.943 -0.8766  1.7302 -2.2032
17195TIP3    H273077   3.766   0.135   1.953  1.0045 -0.1433  1.1118
17196TIP3   OH273078   4.643   2.706  12.111  0.0413  0.0408 -0.3306
17196TIP3    H173079   4.591   2.674  12.038  0.4050  0.8568 -0.9668
17196TIP3    H273080   4.689   2.629  12.144 -0.5611 -0.4399 -0.5855
17197TIP3   OH273081   3.266   3.799  15.322 -0.5663  0.4616 -0.4654
17197TIP3    H173082   3.356   3.785  15.293 -1.4198 -1.3404 -2.4774
17197TIP3    H273083   3.261   3.756  15.407  0.2735 -0.1743 -0.7295
17198TIP3   OH273084   4.039   2.869  11.523 -0.5532  0.3403 -0.2481
17198TIP3    H173085   4.073   2.856  11.611 -1.0646 -0.9931 -0.2198
17198TIP3    H273086   4.115   2.895  11.471 -0.2035  0.9134  0.5224
17199TIP3   OH273087   3.347   1.147   2.575 -0.1534  0.7013  0.2527
17199TIP3    H173088   3.308   1.064   2.601 -1.0842  1.2025  0.4858
17199TIP3    H273089   3.364   1.192   2.658 -1.5197  1.5733  0.0874
17200TIP3   OH273090   2.106   4.099   0.000 -0.1666  0.7220  0.2394
17200TIP3    H173091   2.165   4.084   0.074  0.5714 -0.1084 -0.4950
17200TIP3    H273092   2.051   4.172   0.028 -0.3375  0.0194  1.8674
17201TIP3   OH273093   4.790   4.523   0.649  0.0864  0.4353 -0.7457
17201TIP3    H173094   4.729   4.596   0.656 -0.4104  0.0487 -0.9462
17201TIP3    H273095   4.734   4.445   0.651  0.5999  0.0667 -0.6408
17202TIP3   OH273096   2.408   4.973   5.553  0.1476 -0.1030 -0.4734
17202TIP3    H173097   2.423   5.014   5.468  0.1314  1.0523  0.0717
17202TIP3    H273098   2.496   4.958   5.588  0.1470 -0.1009 -0.4708
17203TIP3   OH273099   1.173   5.252  13.283  0.3914  0.0028  0.2201
17203TIP3    H173100   1.232   5.323  13.258  0.2180 -0.1736 -0.7490
17203TIP3    H273101   1.091   5.273  13.238 -0.9226  1.2075  2.9456
17204TIP3   OH273102   1.659   4.834  12.518 -0.3227  0.8031 -0.4492
17204TIP3    H173103   1.724   4.891  12.478 -0.1579  1.1019  0.2273
17204TIP3    H273104   1.703   4.796  12.594 -0.7705  0.6083 -0.2800
17205TIP3   OH273105   4.847   6.365   3.261  0.3437 -0.1242 -0.0788
17205TIP3    H173106   4.852   6.304   3.187  0.3413 -1.5100  1.0175
17205TIP3    H273107   4.780   6.428   3.235 -0.6729 -1.4045 -0.6908
17206TIP3   OH273108   5.795   3.472  14.262 -0.7076 -0.5310  0.1906
17206TIP3    H173109   5.837   3.475  14.347  0.2975 -0.3463 -0.3039
17206TIP3    H273110   5.815   3.385  14.227 -1.6652 -0.8529  0.4020
17207TIP3   OH273111   2.876   2.722   6.337 -0.4483  0.2347 -0.3661
17207TIP3    H173112   2.851   2.642   6.290  1.9816 -1.1151  0.4682
17207TIP3    H273113   2.971   2.726   6.329 -0.0441  0.7544  3.1062
17208TIP3   OH273114   5.361   1.988   3.516 -0.4393  0.4692  0.7396
17208TIP3    H173115   5.353   1.902   3.556 -0.0951 -0.5452 -1.2502
17208TIP3    H273116   5.417   1.974   3.440 -1.3059  2.2071 -0.2866
17209TIP3   OH273117   2.156   2.204   2.701 -0.6767  0.2540 -0.4693
17209TIP3    H173118   2.117   2.117   2.711  0.3106 -0.1179  0.3190
17209TIP3    H273119   2.182   2.208   2.609 -1.7758  0.1860 -0.8005
17210TIP3   OH273120   4.100   0.839   3.452 -0.2072 -0.1932 -0.4689
17210TIP3    H173121   4.074   0.842   3.360 -2.8727  0.3059  0.2264
17210TIP3    H273122   4.189   0.873   3.453 -1.0651  2.4401 -2.5694
17211TIP3   OH273123   1.468   6.059   2.254  0.5336  0.1029 -0.2210
17211TIP3    H173124   1.561   6.071   2.235  0.5084 -0.2713 -0.5732
17211TIP3    H273125   1.456   6.101   2.339  1.2738 -0.8833  0.3881
17212TIP3   OH273126   2.475   6.427  12.246  0.1529 -0.4311 -0.2337
17212TIP3    H173127   2.424   6.374  12.185  0.7747 -0.3712 -0.8162
17212TIP3    H273128   2.417   6.500  12.268 -0.2451 -0.6965 -0.3950
17213TIP3   OH273129   0.115   3.809   4.319 -0.3975 -0.1554  0.1800
17213TIP3    H173130   0.068   3.854   4.248  2.0616  0.2557 -1.3277
17213TIP3    H273131   0.146   3.880   4.375 -0.0779 -0.2769  0.1586
17214TIP3   OH273132   4.403   2.701   5.150 -0.1328 -0.0891 -0.1859
17214TIP3    H173133   4.380   2.611   5.172  1.2417 -0.4401 -0.1310
17214TIP3    H273134   4.318   2.744   5.134 -0.8353 -1.2093  0.4157
17215TIP3   OH273135   1.202   4.052  16.433  0.2326 -0.7243 -0.6212
17215TIP3    H173136   1.273   4.089  16.486 -0.8714  1.5851 -0.6206
17215TIP3    H273137   1.225   4.076  16.343 -0.8979  0.8123 -0.5458
17216TIP3   OH273138   6.678   1.875   0.700  0.0836 -0.5661 -0.2116
17216TIP3    H173139   6.703   1.782   0.698  1.6141 -0.1698 -0.5877
17216TIP3    H273140   6.587   1.874   0.731  0.0376 -2.1914 -0.2827
17217TIP3   OH273141   4.362   6.014  17.045  0.5488 -0.4461  0.7077
17217TIP3    H173142   4.285   6.071  17.033  0.8447 -0.3209 -0.7881
17217TIP3    H273143   4.420   6.065  17.102  0.0222 -0.0391  0.8938
17218TIP3   OH273144   1.069   3.121   2.259  0.0995 -0.2307 -0.1833
17218TIP3    H173145   1.147   3.080   2.223 -0.3751 -0.1966 -1.3247
17218TIP3    H273146   1.095   3.154   2.345  0.9060 -1.5515  0.1051
17219TIP3   OH273147   3.905   3.466   4.190 -0.2103  0.4166  0.2946
17219TIP3    H173148   3.881   3.406   4.260 -0.9764  0.4684  0.0814
17219TIP3    H273149   3.932   3.410   4.117  1.3241  0.3656  0.8610
17220TIP3   OH273150   2.435   5.139   4.963 -0.5233 -0.0650  0.0485
17220TIP3    H173151   2.397   5.137   4.875 -1.2738 -0.3039  0.3670
17220TIP3    H273152   2.529   5.140   4.949 -0.6229 -1.0410 -0.7428
17221TIP3   OH273153   4.202   4.943   4.367 -0.0182 -0.0576  0.1326
17221TIP3    H173154   4.128   4.895   4.403  1.0199 -2.9152 -1.2601
17221TIP3    H273155   4.239   4.990   4.442 -1.0510 -1.5220  1.6218
17222TIP3   OH273156   4.468   2.129   2.851  0.1152  0.5787  0.1021
17222TIP3    H173157   4.469   2.091   2.763  1.2613  2.6438 -0.8379
17222TIP3    H273158   4.414   2.069   2.902  0.4521 -1.3612 -1.6843
17223TIP3   OH273159   3.233   1.259  16.632  0.0785 -0.1095  0.5549
17223TIP3    H173160   3.219   1.170  16.664  0.7571 -0.7882 -0.9492
17223TIP3    H273161   3.315   1.255  16.584 -0.3442  1.1115 -0.3220
17224TIP3   OH273162   0.526   3.123  15.063  0.3090  0.2161  0.4083
17224TIP3    H173163   0.518   3.206  15.110 -0.9040  0.2739  0.1359
17224TIP3    H273164   0.505   3.145  14.972  1.9784 -0.0218 -0.0746
17225TIP3   OH273165   0.672   1.740   1.820  0.1527  0.4211  1.0990
17225TIP3    H173166   0.750   1.760   1.872  0.1382  0.1078  1.2425
17225TIP3    H273167   0.698   1.760   1.730  0.8763 -1.0045  0.9567
17226TIP3   OH273168   2.762   1.644  11.355 -0.2604 -0.5483 -0.2864
17226TIP3    H173169   2.773   1.554  11.326  2.1700 -0.4041 -0.0354
17226TIP3    H273170   2.820   1.695  11.299  0.6876  0.4228  1.4939
17227TIP3   OH273171   0.923   0.044   0.332 -0.1166  0.1495 -0.1374
17227TIP3    H173172   0.925   0.068   0.240  0.1419 -0.9471 -0.4323
17227TIP3    H273173   0.900  -0.049   0.333 -1.2889  0.4232  0.9616
17228TIP3   OH273174   2.134   4.910  12.468  0.0803 -0.3895  0.2965
17228TIP3    H173175   2.227   4.903  12.447  0.2826 -1.3226  1.3906
17228TIP3    H273176   2.091   4.915  12.383  1.0078 -1.7624 -0.3068
17229TIP3   OH273177   2.287   3.331  15.389  0.2851 -0.2303 -0.7306
17229TIP3    H173178   2.368   3.294  15.426 -0.5458 -0.9071  0.4479
17229TIP3    H273179   2.253   3.261  15.332  0.3177 -0.0869 -0.9287
17230TIP3   OH273180   0.687   3.440   3.227 -0.8332 -0.3783  0.3734
17230TIP3    H173181   0.720   3.528   3.212 -0.7587 -0.4496  0.1029
17230TIP3    H273182   0.699   3.395   3.143 -1.6337 -0.3977  0.2576
17231TIP3   OH273183   4.927   4.712   0.175  0.7652 -0.2611 -0.1192
17231TIP3    H173184   4.943   4.775   0.105  0.8992  0.2687  0.3823
17231TIP3    H273185   4.862   4.754   0.231  0.8033 -0.5994  0.1830
17232TIP3   OH273186   5.828   1.913  13.715 -0.0373  0.4664  0.7096
17232TIP3    H173187   5.852   1.997  13.678 -2.1972  0.3451 -1.1860
17232TIP3    H273188   5.827   1.928  13.810  1.4161  2.0041  0.5366
17233TIP3   OH273189   4.121   6.550  13.558 -0.1415 -0.0466 -0.0207
17233TIP3    H173190   4.057   6.481  13.538 -1.3687  0.5662  1.5528
17233TIP3    H273191   4.192   6.505  13.602  0.2608 -0.6479 -1.2370
17234TIP3   OH273192   1.421   4.196  15.309 -0.0997  0.0597 -0.2823
17234TIP3    H173193   1.468   4.192  15.226 -1.7563  0.5644 -1.2851
17234TIP3    H273194   1.447   4.280  15.347 -0.2084  0.3414 -0.8288
17235TIP3   OH273195   5.983   4.404   2.497  0.0500 -0.3486 -0.3084
17235TIP3    H173196   5.963   4.389   2.590 -0.6142 -0.2954 -0.4344
17235TIP3    H273197   5.913   4.463   2.468 -0.2615 -1.0753 -1.0620
17236TIP3   OH273198   3.658   4.777  13.951 -1.0827 -0.2158 -0.0591
17236TIP3    H173199   3.644   4.801  13.859  1.1974  1.2866 -0.1070
17236TIP3    H273200   3.613   4.693  13.961 -2.4696  0.1905 -2.1852
17237TIP3   OH273201   6.005   1.655   0.958 -0.1752  0.2239 -0.0930
17237TIP3    H173202   5.955   1.621   0.884  0.5491 -0.6834 -0.1750
17237TIP3    H273203   5.963   1.616   1.035 -0.4654  0.5837 -0.0645
17238TIP3   OH273204   5.435   0.423   0.903  0.0503 -0.2848  0.2107
17238TIP3    H173205   5.404   0.344   0.858 -0.4458 -0.0634  0.1622
17238TIP3    H273206   5.406   0.412   0.994 -0.8823  0.2915 -0.0056
17239TIP3   OH273207   3.008   5.775  15.501  0.2791  0.1905 -0.0512
17239TIP3    H173208   3.016   5.691  15.546 -1.8845  0.4421  0.9609
17239TIP3    H273209   3.060   5.765  15.421  0.2901 -2.0206  0.1702
17240TIP3   OH273210   3.387   0.976  14.536  0.1086  0.0750 -0.5128
17240TIP3    H173211   3.321   0.998  14.470 -1.6184 -0.3234  1.0103
17240TIP3    H273212   3.413   1.060  14.574  0.4974  0.2306 -1.1098
17241TIP3   OH273213   2.443   2.295  14.778  0.4858 -0.4161  0.1511
17241TIP3    H173214   2.493   2.357  14.723 -0.7379  0.4009 -0.0719
17241TIP3    H273215   2.509   2.257  14.836  1.8821 -1.4773 -1.9963
17242TIP3   OH273216   0.787   3.585  12.851 -0.2841 -0.1820  0.1476
17242TIP3    H173217   0.698   3.561  12.825  0.0351  0.0564 -1.2794
17242TIP3    H273218   0.794   3.678  12.829  1.0595 -0.7437 -2.0978
17243TIP3   OH273219   1.621   5.724   2.381 -0.0565 -0.0445 -0.4082
17243TIP3    H173220   1.638   5.807   2.426 -1.5866  0.3275 -0.4546
17243TIP3    H273221   1.682   5.662   2.421 -1.0491  0.3619  1.9193
17244TIP3   OH273222   0.522   2.919  11.524 -0.2864 -0.8294  0.3239
17244TIP3    H173223   0.600   2.869  11.548 -0.2835 -1.0843 -0.2093
17244TIP3    H273224   0.513   2.906  11.430 -1.6649 -1.8045  0.5657
17245TIP3   OH273225   1.372   2.661  16.515  0.2402  0.4408 -0.0919
17245TIP3    H173226   1.317   2.646  16.592 -0.1213  0.4094 -0.3505
17245TIP3    H273227   1.449   2.607  16.529 -0.5898 -0.9228 -0.5393
17246TIP3   OH273228   6.103   0.700   1.254 -0.3676 -0.6789 -0.4345
17246TIP3    H173229   6.011   0.681   1.237 -0.7031  0.6522 -0.2191
17246TIP3    H273230   6.129   0.636   1.320 -1.9791  0.7726  1.7327
17247TIP3   OH273231   0.854   0.562   1.582 -0.0773 -0.4514  0.1400
17247TIP3    H173232   0.881   0.584   1.493 -0.3544 -2.4629 -0.4866
17247TIP3    H273233   0.802   0.482   1.572  1.1437 -1.5754  2.2599
17248TIP3   OH273234   0.306   3.565  12.841 -0.4723 -0.1988 -0.4631
17248TIP3    H173235   0.241   3.545  12.773 -2.2428 -2.0287  1.5986
17248TIP3    H273236   0.261   3.628  12.898  0.7133  0.7482 -0.5382
17249TIP3   OH273237   0.649   1.076  15.473  0.3771 -0.3694  0.0167
17249TIP3    H173238   0.689   1.159  15.450 -0.1259  0.3678  1.6323
17249TIP3    H273239   0.715   1.032  15.527 -0.3598  0.2128  1.4555
17250TIP3   OH273240   3.837   0.860  16.879  0.2467 -0.3107 -0.5564
17250TIP3    H173241   3.932   0.867  16.880  0.3315 -1.3065 -0.3544
17250TIP3    H273242   3.806   0.949  16.864  1.1949  0.1366  0.0668
17251TIP3   OH273243   5.205   3.630   2.274  0.1514  0.6371 -0.0015
17251TIP3    H173244   5.135   3.688   2.304 -0.6592 -0.7350  0.9400
17251TIP3    H273245   5.251   3.679   2.206 -1.2154  1.9048 -0.0560
17252TIP3   OH273246   6.232   5.583   1.459 -0.1970 -0.4840  0.7199
17252TIP3    H173247   6.286   5.554   1.533  0.8558 -1.0598 -0.2515
17252TIP3    H273248   6.181   5.656   1.495  0.2283 -0.7988  2.0361
17253TIP3   OH273249   4.981   0.171   4.819 -0.2238  0.4708  0.3618
17253TIP3    H173250   5.010   0.235   4.754 -1.3248 -0.8224 -1.5241
17253TIP3    H273251   5.061   0.124   4.843  0.1805  0.8077 -0.2737
17254TIP3   OH273252   3.728   4.174  12.103 -0.4262  0.0411 -0.0002
17254TIP3    H173253   3.674   4.107  12.144 -0.6881  0.2842  0.0501
17254TIP3    H273254   3.764   4.224  12.177 -1.9015  1.2756 -0.0880
17255TIP3   OH273255   5.920   6.425  15.134 -0.1082 -0.1905 -0.6129
17255TIP3    H173256   6.002   6.380  15.116 -0.6706 -0.6916 -2.0664
17255TIP3    H273257   5.944   6.498  15.191  1.1046 -1.2037  0.2140
17256TIP3   OH273258   0.781   1.537   4.054  0.0993 -0.0351  0.6554
17256TIP3    H173259   0.757   1.526   3.962  0.1608  1.2416  0.4738
17256TIP3    H273260   0.700   1.519   4.102  0.1448 -1.0398  0.3983
17257TIP3   OH273261   3.239   2.609   3.442 -0.0019 -0.2439  0.5667
17257TIP3    H173262   3.316   2.552   3.448  0.1995 -0.1248 -0.6840
17257TIP3    H273263   3.240   2.660   3.523  2.1660  0.9286 -0.1384
17258TIP3   OH273264   2.964   6.668  10.541  0.0426 -0.1783 -0.2937
17258TIP3    H173265   2.887   6.611  10.552 -0.2594 -0.2636 -2.4022
17258TIP3    H273266   3.026   6.637  10.607 -0.5613 -2.1795 -0.5930
17259TIP3   OH273267   6.064   2.888  16.335 -0.2872  0.3449  0.3282
17259TIP3    H173268   6.006   2.848  16.400  0.3298  1.9864  1.9679
17259TIP3    H273269   6.145   2.906  16.383  0.2130  1.5804 -0.9034
17260TIP3   OH273270   4.036   5.754  15.570 -0.1133  0.4255 -0.2148
17260TIP3    H173271   4.111   5.778  15.515 -0.9951  0.1662 -1.5504
17260TIP3    H273272   3.993   5.683  15.523 -1.3824  0.7652  0.3856
17261TIP3   OH273273   1.489   1.574   4.110 -0.2683  0.8004 -0.2163
17261TIP3    H173274   1.579   1.542   4.101  0.0318  1.6799 -0.4921
17261TIP3    H273275   1.434   1.496   4.100  0.3575  0.5737 -2.3381
17262TIP3   OH273276   0.554   1.902  15.299 -0.2766  0.1383  0.6109
17262TIP3    H173277   0.527   1.872  15.385 -1.8728 -1.0599 -0.2557
17262TIP3    H273278   0.571   1.822  15.249 -0.0498  0.7876 -0.3861
17263TIP3   OH273279   1.576   1.072   1.298 -0.0414  0.2440 -0.2457
17263TIP3    H173280   1.488   1.086   1.334  0.1910  0.5206  0.2191
17263TIP3    H273281   1.624   1.151   1.320  0.6679 -0.3933  0.5512
17264TIP3   OH273282   2.145   0.161  11.224 -0.3093  0.3659 -0.4962
17264TIP3    H173283   2.121   0.210  11.303  0.2798  3.5593 -2.1679
17264TIP3    H273284   2.068   0.168  11.168  0.5888  1.3754 -1.6402
17265TIP3   OH273285   0.196   4.010  14.409 -0.0607  0.7256 -0.3101
17265TIP3    H173286   0.162   3.939  14.354 -2.7318  1.8061 -0.2430
17265TIP3    H273287   0.278   3.976  14.445 -1.6443 -2.7322  0.4720
17266TIP3   OH273288   2.048   1.289  14.945 -0.0717 -0.4917 -0.1618
17266TIP3    H173289   2.079   1.367  14.990 -1.3016 -0.0279 -0.0818
17266TIP3    H273290   2.125   1.254  14.901  0.6912  0.2352  0.5824
17267TIP3   OH273291   4.205   0.685   4.129 -0.1467 -0.3735 -0.0755
17267TIP3    H173292   4.262   0.725   4.064  1.2009 -0.0218  1.2628
17267TIP3    H273293   4.140   0.753   4.148  0.9911  0.5045  0.7885
17268TIP3   OH273294   2.411   5.550   6.041 -0.1109 -0.3455  0.3749
17268TIP3    H173295   2.481   5.506   5.992 -1.2151 -2.1456  0.3449
17268TIP3    H273296   2.341   5.562   5.977  0.2084  1.7026  0.3325
17269TIP3   OH273297   4.612   5.796  12.187 -0.5943  0.1166  0.4868
17269TIP3    H173298   4.609   5.875  12.132  0.0439 -0.6021 -0.6014
17269TIP3    H273299   4.630   5.830  12.275 -1.1081  1.2428  0.1902
17270TIP3   OH273300   4.338   1.531   1.788 -0.2741  0.2912 -0.7238
17270TIP3    H173301   4.278   1.510   1.717 -0.0613  0.2154 -0.8843
17270TIP3    H273302   4.305   1.483   1.863 -1.2212  1.3559 -0.4459
17271TIP3   OH273303   3.938   1.293  15.645 -0.0344  0.8641  0.1267
17271TIP3    H173304   3.890   1.216  15.615 -0.4544  1.2520 -0.2217
17271TIP3    H273305   3.921   1.297  15.739 -1.3214  1.4137 -0.1030
17272TIP3   OH273306   4.584   1.214   1.991  0.0430  0.1333 -0.6137
17272TIP3    H173307   4.577   1.302   1.955  0.6455  0.4366 -0.0170
17272TIP3    H273308   4.668   1.181   1.957 -0.2553 -0.2776 -0.9669
17273TIP3   OH273309   1.732   2.675  14.972  0.2583 -0.5457 -0.0518
17273TIP3    H173310   1.751   2.628  15.054 -2.4397 -1.8309 -0.0585
17273TIP3    H273311   1.676   2.615  14.923 -2.0147  2.0320 -0.8043
17274TIP3   OH273312   5.904   5.691  15.506 -0.4129 -0.6210  0.3880
17274TIP3    H173313   5.891   5.715  15.598  0.0600  1.1178  0.0377
17274TIP3    H273314   5.855   5.758  15.458  0.3635 -0.7920 -0.6515
17275TIP3   OH273315   5.056   2.441   0.206 -0.0644 -0.9510 -0.3797
17275TIP3    H173316   5.086   2.446   0.296 -0.9030  1.7115 -0.1540
17275TIP3    H273317   5.125   2.483   0.155 -0.7283 -0.1031 -0.6057
17276TIP3   OH273318   5.566   6.686  14.775 -0.4046  0.2192  0.0381
17276TIP3    H173319   5.627   6.692  14.702  0.0302  2.4931  0.5364
17276TIP3    H273320   5.622   6.673  14.852 -0.6318  0.8413  0.3170
17277TIP3   OH273321   4.271   5.334   1.861 -0.3414 -0.0219  0.2593
17277TIP3    H173322   4.318   5.314   1.780  0.8041 -1.6671  1.2791
17277TIP3    H273323   4.189   5.373   1.831 -0.3337 -1.3648 -1.7609
17278TIP3   OH273324   2.209   0.631  11.521 -0.0248  0.1555 -0.3002
17278TIP3    H173325   2.238   0.581  11.445  0.2314  0.7506 -0.6088
17278TIP3    H273326   2.290   0.649  11.570 -0.3884 -1.7346  1.0824
17279TIP3   OH273327   5.236   3.529  14.490  0.0248  0.2087  0.0471
17279TIP3    H173328   5.165   3.465  14.491 -0.0012  0.2426  0.6986
17279TIP3    H273329   5.291   3.503  14.417 -1.1902  0.7688 -1.1269
17280TIP3   OH273330   1.017   5.543  13.960 -0.4320 -0.0080  0.1265
17280TIP3    H173331   1.090   5.578  13.909  2.3579 -2.3265  2.1191
17280TIP3    H273332   0.988   5.466  13.911 -1.0700  0.5049 -0.3106
17281TIP3   OH273333   4.080   3.716  12.231  0.2184  0.1124  0.3678
17281TIP3    H173334   4.166   3.748  12.260  1.2980 -1.5501 -0.8242
17281TIP3    H273335   4.074   3.744  12.140  1.0065 -2.5410 -0.5797
17282TIP3   OH273336   3.010   1.992  11.557 -0.3010  0.0656 -0.5920
17282TIP3    H173337   2.942   1.941  11.602 -1.1848  1.1486 -0.6421
17282TIP3    H273338   3.055   1.929  11.502 -2.7180 -0.3454 -2.2815
17283TIP3   OH273339   3.622   6.213  11.515 -0.3204 -0.4423  0.4272
17283TIP3    H173340   3.679   6.166  11.454 -1.0996 -0.3716 -0.3792
17283TIP3    H273341   3.677   6.285  11.548  0.7663 -1.6707  1.4105
17284TIP3   OH273342   3.224   2.826   4.094 -0.2707  0.1599  0.3669
17284TIP3    H173343   3.315   2.849   4.112 -0.5039  2.0147 -0.5660
17284TIP3    H273344   3.190   2.796   4.179  0.9965  0.1336  0.8897
17285TIP3   OH273345   5.701   2.636  16.232  0.0707  0.0379 -0.0189
17285TIP3    H173346   5.776   2.584  16.260  1.7037  2.0798 -0.3947
17285TIP3    H273347   5.658   2.663  16.313 -0.6713 -1.6192  0.1858
17286TIP3   OH273348   4.270   0.683   1.778 -0.1418  0.9156 -0.3914
17286TIP3    H173349   4.192   0.736   1.792 -0.5927  0.1934 -0.0460
17286TIP3    H273350   4.250   0.600   1.823  1.5764  1.3862  1.3668
17287TIP3   OH273351   4.223   1.603  14.315 -0.0102  0.0190  0.5386
17287TIP3    H173352   4.223   1.600  14.219 -1.1863  0.1776  0.5222
17287TIP3    H273353   4.281   1.532  14.341 -0.7262 -0.8924 -0.2813
17288TIP3   OH273354   2.036   6.541   0.801  0.1530 -0.1404 -0.2585
17288TIP3    H173355   2.092   6.514   0.729  0.6944  2.0463 -0.7248
17288TIP3    H273356   1.993   6.620   0.770 -1.0762 -0.2185  1.1336
17289TIP3   OH273357   4.992   4.531  15.642 -0.2308 -0.2933 -0.0838
17289TIP3    H173358   4.970   4.539  15.735  0.4517 -0.5545  0.1091
17289TIP3    H273359   5.073   4.479  15.641  0.3863  0.6376 -0.7523
17290TIP3   OH273360   4.543   3.369  13.223  0.0469  0.5821  0.2255
17290TIP3    H173361   4.590   3.352  13.142 -1.1944 -0.7134 -0.2574
17290TIP3    H273362   4.564   3.295  13.280 -1.8034 -0.3346 -0.2133
17291TIP3   OH273363   4.883   2.904  11.388 -0.4053  0.2950 -0.8469
17291TIP3    H173364   4.875   2.948  11.473 -1.5462 -0.2633 -0.6524
17291TIP3    H273365   4.893   2.976  11.325 -2.7771  0.9268 -0.5950
17292TIP3   OH273366   6.755   3.546   5.152 -0.5148  0.7030 -0.3307
17292TIP3    H173367   6.840   3.552   5.194 -0.6745  0.4714  0.0345
17292TIP3    H273368   6.773   3.509   5.066 -0.3143  0.0271 -0.0069
17293TIP3   OH273369   2.756   5.818  12.572  0.3024  0.3333  0.4221
17293TIP3    H173370   2.775   5.910  12.553  0.9485 -0.0419 -0.8837
17293TIP3    H273371   2.665   5.818  12.602 -0.4287  1.1550 -1.6150
17294TIP3   OH273372   4.193   5.440   6.177  0.6443 -0.3613  0.4108
17294TIP3    H173373   4.224   5.464   6.089  0.6238 -1.6389  0.0470
17294TIP3    H273374   4.109   5.397   6.162 -1.1108  2.4151  1.3330
17295TIP3   OH273375   3.298   1.613   0.403 -0.1753 -0.2109  0.2175
17295TIP3    H173376   3.380   1.663   0.414  0.8383 -1.9578  1.0068
17295TIP3    H273377   3.313   1.561   0.324 -0.4244 -0.7173  0.5040
17296TIP3   OH273378   5.314   5.633  13.621 -0.1499 -0.5615  0.5271
17296TIP3    H173379   5.231   5.679  13.610 -0.1820 -0.2015  2.0857
17296TIP3    H273380   5.381   5.699  13.605 -0.1884  0.3917  3.6800
17297TIP3   OH273381   4.758   4.624   0.960 -0.6017 -0.1752  0.4969
17297TIP3    H173382   4.718   4.670   1.034 -0.3094 -0.4523  0.8305
17297TIP3    H273383   4.688   4.569   0.925 -0.9899  0.5977  0.0216
17298TIP3   OH273384   1.936   1.975  11.979  0.8470  0.2671  0.1287
17298TIP3    H173385   1.925   1.901  12.039 -0.0655 -0.3794 -0.8022
17298TIP3    H273386   1.980   1.937  11.903  0.6235  0.7355 -0.2400
17299TIP3   OH273387   4.882   3.611  13.179 -0.0706  0.4757  0.4225
17299TIP3    H173388   4.811   3.619  13.116 -0.9208  1.8214  1.4911
17299TIP3    H273389   4.858   3.536  13.233 -1.1529  1.3881  1.2762
17300TIP3   OH273390   2.393   4.427   2.398 -0.2824 -0.2079  0.1982
17300TIP3    H173391   2.427   4.398   2.313  0.8207  0.7139  0.2948
17300TIP3    H273392   2.431   4.514   2.410 -1.3666  0.1526  1.1136
17301TIP3   OH273393   5.536   0.025  15.359  0.2374  0.2542 -0.1794
17301TIP3    H173394   5.580   0.109  15.347 -0.4357  0.7018  0.3680
17301TIP3    H273395   5.602  -0.041  15.338  1.2726  0.8944  0.9569
17302TIP3   OH273396   2.906   4.913  11.928 -0.6737 -0.1128  0.2551
17302TIP3    H173397   2.956   4.955  11.999 -1.2281  1.6788 -0.3636
17302TIP3    H273398   2.824   4.885  11.969 -0.5658 -0.0230  0.5338
17303TIP3   OH273399   1.591   2.715  14.028  0.3582 -0.3702  0.3874
17303TIP3    H173400   1.607   2.774  13.955  1.4916 -2.1149 -0.8660
17303TIP3    H273401   1.563   2.772  14.100 -0.2806  1.4529 -1.2299
17304TIP3   OH273402   0.425   2.107   1.270 -0.2130 -0.5345  1.0682
17304TIP3    H173403   0.476   2.160   1.332 -1.2906 -0.4329  1.9206
17304TIP3    H273404   0.488   2.047   1.231  0.3638 -1.2409  2.9746
17305TIP3   OH273405   2.695   3.339   1.057 -0.2194 -0.4352 -0.5511
17305TIP3    H173406   2.652   3.415   1.096 -0.1221 -1.2402  1.1997
17305TIP3    H273407   2.632   3.306   0.993 -1.0138  0.0529 -0.0349
17306TIP3   OH273408   5.057   2.691  11.818 -0.4719 -0.1007 -0.1881
17306TIP3    H173409   5.029   2.681  11.727  1.5778 -3.3071 -0.6068
17306TIP3    H273410   4.999   2.634  11.868 -0.8218  0.7283  0.3801
17307TIP3   OH273411   4.268   5.800  11.134 -0.6107 -0.6205  0.1847
17307TIP3    H173412   4.185   5.839  11.161 -0.7265 -0.8894  0.2155
17307TIP3    H273413   4.277   5.824  11.041 -0.3608  0.0400  0.3715
17308TIP3   OH273414   4.009   5.025   2.138 -0.0883 -0.3656 -0.1855
17308TIP3    H173415   4.104   5.026   2.126 -0.1382 -0.4723 -0.6028
17308TIP3    H273416   3.978   5.107   2.100 -0.2820 -0.8586 -1.1377
17309TIP3   OH273417   4.469   1.784  14.540  0.0382 -0.3287 -0.2120
17309TIP3    H173418   4.466   1.693  14.510 -0.0598  0.0223 -1.2955
17309TIP3    H273419   4.506   1.833  14.466  0.1314  0.5074  0.3756
17310TIP3   OH273420   4.749   6.338   4.384 -0.2304 -0.1502  0.0705
17310TIP3    H173421   4.719   6.424   4.353  0.1905 -0.6583 -1.8515
17310TIP3    H273422   4.759   6.286   4.305 -1.4216 -2.3155  1.2589
17311TIP3   OH273423   5.430   2.154  13.850  0.3357  0.0480  0.1644
17311TIP3    H173424   5.358   2.212  13.824  1.0742  0.6355 -0.6227
17311TIP3    H273425   5.508   2.193  13.811  0.8260 -1.6420 -0.6717
17312TIP3   OH273426   2.048   5.240  12.114 -0.1973  0.4229  0.4630
17312TIP3    H173427   2.014   5.231  12.025 -2.0340  1.3431  1.0310
17312TIP3    H273428   2.136   5.202  12.109  1.4293  3.8971 -2.7413
17313TIP3   OH273429   3.667   2.977  16.746  0.1817 -0.2065 -0.2400
17313TIP3    H173430   3.595   2.997  16.806 -1.4401 -0.1515 -2.1022
17313TIP3    H273431   3.702   3.063  16.722 -1.1432 -0.0157 -1.6235
17314TIP3   OH273432   0.771   1.085   1.477 -0.2450  0.6316  0.4702
17314TIP3    H173433   0.864   1.067   1.489  0.1833  1.6734 -0.9132
17314TIP3    H273434   0.728   1.000   1.485  1.0228 -0.1267 -0.4315
17315TIP3   OH273435   4.030   6.645   1.831 -0.2890  0.4506 -0.0671
17315TIP3    H173436   4.059   6.610   1.915 -1.1246  2.9950  1.3710
17315TIP3    H273437   4.101   6.623   1.770 -0.3961 -2.8735  0.8382
17316TIP3   OH273438   3.690   5.415  14.566  0.1619  0.2296 -0.1458
17316TIP3    H173439   3.625   5.363  14.614 -1.3251  1.8189 -0.3116
17316TIP3    H273440   3.765   5.421  14.624 -0.0562 -1.1770  0.3038
17317TIP3   OH273441   3.545   4.380   3.066 -0.2413 -0.3189 -0.1978
17317TIP3    H173442   3.637   4.379   3.090 -0.1350 -0.4508 -0.5921
17317TIP3    H273443   3.520   4.472   3.067  0.1475 -0.1906 -1.0017
17318TIP3   OH273444   6.187   6.841   4.702 -0.6971 -0.1370  0.4780
17318TIP3    H173445   6.281   6.827   4.689 -0.5080  1.8441 -0.8142
17318TIP3    H273446   6.180   6.874   4.792  0.0810  1.1813  0.0854
17319TIP3   OH273447   2.987   6.122   1.831  0.1525 -0.1831  0.7201
17319TIP3    H173448   3.018   6.169   1.908  0.9422  1.4376 -0.5328
17319TIP3    H273449   2.955   6.190   1.772  1.5661 -1.1231 -1.2764
17320TIP3   OH273450   5.502   3.717  14.961  0.2023  0.1275  0.4526
17320TIP3    H173451   5.496   3.623  14.980 -2.4421 -0.1851 -1.3624
17320TIP3    H273452   5.544   3.722  14.875  1.3956  0.7162  1.0507
17321TIP3   OH273453   5.622   1.020   5.826  0.1334  0.4772 -0.3572
17321TIP3    H173454   5.710   0.986   5.841 -0.2344 -0.0970  0.6283
17321TIP3    H273455   5.635   1.101   5.776  1.2509  0.7087  0.2782
17322TIP3   OH273456   1.041   1.558  12.972  0.2602 -0.1199 -0.1960
17322TIP3    H173457   0.965   1.533  12.918  0.3850 -0.1879 -0.3419
17322TIP3    H273458   1.094   1.479  12.976  2.5432  0.9839 -3.7573
17323TIP3   OH273459   1.054   3.454   1.533 -0.2971  0.7372 -0.1554
17323TIP3    H173460   1.058   3.358   1.523 -2.7033  0.6650 -1.1344
17323TIP3    H273461   1.056   3.468   1.628 -0.8334 -0.3573  0.0356
17324TIP3   OH273462   5.819   0.300  16.860  0.4326 -0.1915 -0.5903
17324TIP3    H173463   5.893   0.242  16.874  1.1719  1.0461  0.9534
17324TIP3    H273464   5.753   0.272  16.923  0.3848 -0.0250 -0.5652
17325TIP3   OH273465   5.655   0.614   0.102 -0.7023 -0.0847 -0.0238
17325TIP3    H173466   5.701   0.550   0.155 -1.6890 -0.2564  0.6554
17325TIP3    H273467   5.597   0.659   0.164 -1.1847  0.3664 -0.7880
17326TIP3   OH273468   6.398   3.373  14.557 -0.1622  0.0898  0.0402
17326TIP3    H173469   6.432   3.314  14.490  0.6316 -0.4206  0.8768
17326TIP3    H273470   6.476   3.414  14.595 -0.4894 -0.6288  1.5577
17327TIP3   OH273471   3.459   3.653  14.471  0.8129  0.0589  0.0653
17327TIP3    H173472   3.386   3.634  14.530  1.9792  0.4661  1.6994
17327TIP3    H273473   3.437   3.606  14.391 -2.6205  2.3294 -0.5934
17328TIP3   OH273474   1.629   0.525  12.793 -0.0344  0.5768 -0.2890
17328TIP3    H173475   1.708   0.483  12.826 -1.0310 -2.6709 -1.6382
17328TIP3    H273476   1.579   0.545  12.872  0.5669 -0.7423  0.4788
17329TIP3   OH273477   4.249   3.253   1.405  0.3527 -0.1189  0.0078
17329TIP3    H173478   4.303   3.297   1.340 -0.1757  0.9929  0.3107
17329TIP3    H273479   4.161   3.255   1.369  0.4382 -1.7109 -0.3683
17330TIP3   OH273480   5.035   0.070  11.257  0.0843 -0.1214 -0.2629
17330TIP3    H173481   4.973   0.141  11.274 -0.6076 -1.1774  1.9612
17330TIP3    H273482   5.061   0.039  11.344  1.8690 -1.3253 -1.1613
17331TIP3   OH273483   2.915   2.630  12.539  0.1783  0.0603  0.3531
17331TIP3    H173484   2.918   2.724  12.557  1.9394 -0.0578  0.8542
17331TIP3    H273485   2.961   2.589  12.613 -0.2481 -1.1804 -0.0285
17332TIP3   OH273486   1.864   3.112  12.920  0.3489 -0.6459 -0.2798
17332TIP3    H173487   1.857   3.120  13.015  2.3655  2.2506 -0.2558
17332TIP3    H273488   1.953   3.140  12.900 -0.7612  1.2805 -3.2026
17333TIP3   OH273489   6.276   5.888   3.799  0.2400 -0.2111  0.1188
17333TIP3    H173490   6.263   5.823   3.868  0.0093 -0.0710  0.2059
17333TIP3    H273491   6.188   5.915   3.774  0.2326 -1.6736 -1.5797
17334TIP3   OH273492   2.473   6.503   5.674  0.2841 -0.3333 -0.0862
17334TIP3    H173493   2.485   6.500   5.769 -0.5413 -1.1116  0.0107
17334TIP3    H273494   2.379   6.489   5.662 -0.1308  2.6335 -0.9133
17335TIP3   OH273495   3.035   6.730  16.097  0.1110  0.2293 -0.3178
17335TIP3    H173496   2.985   6.677  16.035  2.1836  1.5778 -3.3891
17335TIP3    H273497   2.997   6.818  16.088  2.4878  1.1670 -2.3448
17336TIP3   OH273498   5.235   5.933   5.755 -0.1960 -0.2846 -0.3323
17336TIP3    H173499   5.240   5.889   5.670 -1.3445 -1.5993  0.2503
17336TIP3    H273500   5.224   6.026   5.733 -0.2588 -0.5793 -1.6207
17337TIP3   OH273501   3.909   3.108   2.821 -0.1194 -0.2969 -0.1834
17337TIP3    H173502   3.823   3.148   2.829 -0.9668 -1.9007 -0.8869
17337TIP3    H273503   3.918   3.056   2.901  1.1910  1.5703  0.9749
17338TIP3   OH273504   5.053   4.938   0.010 -0.2456  0.2936 -0.1713
17338TIP3    H173505   5.121   4.871   0.015 -0.5815 -0.0394 -0.0764
17338TIP3    H273506   5.076   5.001   0.079 -0.9383 -0.6538  0.9471
17339TIP3   OH273507   2.678   6.722   5.242 -0.5612  0.0924 -0.5000
17339TIP3    H173508   2.645   6.812   5.249 -1.8312 -0.3837  0.0351
17339TIP3    H273509   2.604   6.668   5.271  1.1902 -1.0005  2.3325
17340TIP3   OH273510   2.184   2.239   5.422  0.2324  0.1339 -0.2903
17340TIP3    H173511   2.210   2.298   5.351  1.3801 -0.4752 -0.4048
17340TIP3    H273512   2.170   2.296   5.497 -0.3454  0.7157 -0.8305
17341TIP3   OH273513   3.563   2.354  14.602  0.2560  0.0265 -0.7211
17341TIP3    H173514   3.646   2.347  14.648  0.8100  1.6213 -1.4075
17341TIP3    H273515   3.577   2.307  14.519  0.1888 -0.4253 -0.4775
17342TIP3   OH273516   4.246   3.628   1.313 -0.7760 -0.5063  0.7217
17342TIP3    H173517   4.317   3.571   1.284 -0.3126  0.0461  0.7519
17342TIP3    H273518   4.187   3.635   1.238 -1.1795 -1.5322  0.9211
17343TIP3   OH273519   1.266   2.608   2.315 -0.0327 -0.3553 -0.3815
17343TIP3    H173520   1.228   2.638   2.232 -2.6332 -3.2820 -0.4130
17343TIP3    H273521   1.348   2.565   2.289 -1.1335 -1.8118 -1.5926
17344TIP3   OH273522   1.754   4.646  12.703 -1.4242  0.0082 -0.9996
17344TIP3    H173523   1.743   4.558  12.739 -1.3484  0.6606  0.7167
17344TIP3    H273524   1.838   4.643  12.656 -0.5527 -0.3819  0.5249
17345TIP3   OH273525   3.537   2.233  12.488 -0.7010  0.3638 -0.1592
17345TIP3    H173526   3.602   2.203  12.424  0.1854 -0.2217  0.9875
17345TIP3    H273527   3.454   2.199  12.455 -0.2432 -0.0598 -0.9186
17346TIP3   OH273528   1.983   5.984   0.352  0.0405  0.2969 -0.7730
17346TIP3    H173529   1.974   5.998   0.446 -0.3924 -0.0694 -0.7537
17346TIP3    H273530   2.045   6.050   0.323 -0.6465  1.1168 -0.4110
17347TIP3   OH273531   4.360   0.291  15.301 -0.2197 -0.0654 -0.0014
17347TIP3    H173532   4.454   0.276  15.312  0.0897 -0.9344 -2.9332
17347TIP3    H273533   4.318   0.213  15.337 -0.0372  1.1084  2.9929
17348TIP3   OH273534   5.380   4.832   1.953  0.1045  0.0927  0.1145
17348TIP3    H173535   5.462   4.785   1.940  0.8974  1.2642  0.6433
17348TIP3    H273536   5.325   4.806   1.879  1.6820  0.7792 -1.3823
17349TIP3   OH273537   4.286   3.574   5.056 -0.5187  0.4099 -0.2209
17349TIP3    H173538   4.197   3.566   5.093 -0.6554 -0.3795 -0.7065
17349TIP3    H273539   4.280   3.533   4.970  0.9426 -2.0547  0.7454
17350TIP3   OH273540   6.439   1.630   6.525  0.0475  0.4005 -0.3703
17350TIP3    H173541   6.382   1.613   6.450  0.8961  0.1631 -0.9843
17350TIP3    H273542   6.526   1.602   6.496  0.1839 -0.9009  1.1366
17351TIP3   OH273543   1.651   4.391  12.747 -0.5356  0.3689  0.3015
17351TIP3    H173544   1.656   4.296  12.736  0.8280  0.3365  0.9360
17351TIP3    H273545   1.559   4.412  12.733 -0.8662 -1.0508  0.1754
17352TIP3   OH273546   3.635   0.407  14.285  0.2493 -0.1757 -0.1169
17352TIP3    H173547   3.644   0.312  14.271  0.9001 -0.3880  1.4704
17352TIP3    H273548   3.686   0.446  14.214 -0.4300 -0.9913 -1.0828
17353TIP3   OH273549   5.022   3.396   0.630  0.0299  0.1244  0.0195
17353TIP3    H173550   5.099   3.453   0.641 -0.6712  1.3469 -1.2151
17353TIP3    H273551   4.994   3.410   0.540 -1.5003 -0.5107  0.3714
17354TIP3   OH273552   2.291   0.243  11.754 -0.1034 -0.0299 -0.0259
17354TIP3    H173553   2.285   0.189  11.833 -0.7892 -0.8370 -0.6087
17354TIP3    H273554   2.377   0.223  11.717  0.5562  0.9580  0.9231
17355TIP3   OH273555   3.384   6.816  11.909  0.1907 -0.3010  0.4628
17355TIP3    H173556   3.319   6.777  11.851  0.6489  0.6550 -0.7323
17355TIP3    H273557   3.359   6.908  11.914  0.8733 -0.1273  0.8028
17356TIP3   OH273558   6.343   5.465  16.150  0.2730  0.2562  0.0012
17356TIP3    H173559   6.326   5.559  16.144  0.9279  0.2874 -1.6674
17356TIP3    H273560   6.288   5.426  16.082 -0.5650 -0.6805  1.1709
17357TIP3   OH273561   2.977   4.442   4.818  0.2025  0.5652  0.7185
17357TIP3    H173562   2.910   4.502   4.786  1.6464  1.0982 -1.5165
17357TIP3    H273563   2.937   4.401   4.895 -2.8454  0.5603 -0.6975
17358TIP3   OH273564   6.327   3.241   3.397  0.1433  0.2561 -0.1372
17358TIP3    H173565   6.420   3.259   3.409  0.5432 -1.5897 -0.2140
17358TIP3    H273566   6.285   3.326   3.408  1.8083  1.0901  0.1187
17359TIP3   OH273567   0.895   5.456  17.215 -0.3193  0.5555 -0.2074
17359TIP3    H173568   0.900   5.551  17.210 -1.2886  0.6988  1.1180
17359TIP3    H273569   0.826   5.432  17.154 -1.8544  0.9619  1.2961
17360TIP3   OH273570   3.908   1.387  15.892 -0.1085 -0.0224  0.7655
17360TIP3    H173571   3.906   1.479  15.865  0.6692 -0.6686 -1.7704
17360TIP3    H273572   3.817   1.359  15.888 -0.2188  0.3660  0.4440
17361TIP3   OH273573   4.145   1.191   1.400 -0.2958 -0.0237 -0.4653
17361TIP3    H173574   4.221   1.249   1.404 -1.1514  1.1099 -0.3496
17361TIP3    H273575   4.141   1.150   1.486  0.6605 -0.7403 -0.7404
17362TIP3   OH273576   3.265   4.041   6.524 -0.5657  0.4638  0.4661
17362TIP3    H173577   3.243   3.960   6.571  0.8400 -0.6365 -0.6801
17362TIP3    H273578   3.228   4.028   6.437 -1.2528  1.5535  0.5757
17363TIP3   OH273579   3.599   4.138  11.671 -0.0096  0.2126 -0.0545
17363TIP3    H173580   3.628   4.054  11.706  0.7696  0.4780 -0.0524
17363TIP3    H273581   3.582   4.120  11.579 -1.7093 -0.3992  0.3422
17364TIP3   OH273582   4.528   1.103   0.073  0.1118 -0.6709 -0.4926
17364TIP3    H173583   4.440   1.135   0.094 -0.2191 -0.9576 -1.4168
17364TIP3    H273584   4.583   1.136   0.144 -0.6626 -0.1244 -0.1385
17365TIP3   OH273585   2.766   4.283  12.504 -0.1909  0.2897 -0.0079
17365TIP3    H173586   2.812   4.352  12.456  1.2245  1.1056  2.3195
17365TIP3    H273587   2.816   4.204  12.484  0.9545  0.7813  0.7397
17366TIP3   OH273588   5.802   1.627  17.076 -0.0323 -0.0706  0.7076
17366TIP3    H173589   5.763   1.676  17.003  0.3937 -0.9641 -0.1446
17366TIP3    H273590   5.772   1.673  17.155 -0.6185  0.8316 -0.0202
17367TIP3   OH273591   1.314   5.493   0.572 -0.1812 -0.4585  0.5695
17367TIP3    H173592   1.406   5.479   0.592 -0.0660 -0.1029  0.2970
17367TIP3    H273593   1.279   5.539   0.648  0.6402  2.4141 -0.6556
17368TIP3   OH273594   2.301   1.276  12.880 -0.1575 -0.3547 -0.7300
17368TIP3    H173595   2.394   1.261  12.861 -0.0507  0.8396 -1.2442
17368TIP3    H273596   2.289   1.370  12.865 -1.7525 -0.7316 -1.9486
17369TIP3   OH273597   3.221   5.268  12.147  0.1670 -0.1438 -0.1649
17369TIP3    H173598   3.304   5.284  12.103 -1.3367  0.7937 -2.9352
17369TIP3    H273599   3.208   5.343  12.205  1.3874 -0.5017  0.5976
17370TIP3   OH273600   6.092   2.451   1.649 -0.1991  0.0988 -0.4911
17370TIP3    H173601   6.049   2.445   1.564 -2.1607 -2.4478  0.5382
17370TIP3    H273602   6.028   2.495   1.705  0.3510  0.1913  0.0781
17371TIP3   OH273603   3.132   2.627  16.663 -0.3691  0.0391 -0.1080
17371TIP3    H173604   3.216   2.587  16.639 -0.8187 -3.2466  2.8963
17371TIP3    H273605   3.146   2.661  16.751 -2.4843 -2.2174  1.2350
17372TIP3   OH273606   5.191   3.176   1.213  0.3029 -0.0619 -0.1038
17372TIP3    H173607   5.248   3.115   1.260  0.2826 -0.0832 -0.1065
17372TIP3    H273608   5.143   3.120   1.151  2.8211  0.3736 -2.6549
17373TIP3   OH273609   6.019   5.663  12.553 -0.3107  1.1169 -0.4355
17373TIP3    H173610   6.036   5.729  12.620 -1.4816  2.5761 -1.5120
17373TIP3    H273611   6.052   5.701  12.472 -2.5307  1.1981 -1.3913
17374TIP3   OH273612   5.295   0.146  11.202  0.2597 -0.0394  0.0053
17374TIP3    H173613   5.284   0.222  11.259  2.2431  2.7136 -2.9180
17374TIP3    H273614   5.207   0.126  11.170 -0.2736  1.2198  0.6316
17375TIP3   OH273615   4.077   2.908   3.871  0.0540 -0.0252 -0.7674
17375TIP3    H173616   4.052   2.958   3.949 -1.2194 -0.0826 -1.1165
17375TIP3    H273617   4.101   2.822   3.904 -1.0254 -0.2224 -0.4820
17376TIP3   OH273618   1.898   0.003  16.403  0.2534 -0.2968 -0.1189
17376TIP3    H173619   1.929  -0.024  16.489  0.0596  0.9024  0.3404
17376TIP3    H273620   1.966   0.061  16.369  0.5386 -1.1013 -0.9799
17377TIP3   OH273621   2.687   4.662  11.801  0.4915  0.0904  0.2244
17377TIP3    H173622   2.669   4.753  11.826  0.9283  0.0902  0.5536
17377TIP3    H273623   2.619   4.641  11.738  1.5656  1.2980 -1.4283
17378TIP3   OH273624   2.744   0.878   2.505  0.4466 -0.7421 -0.6777
17378TIP3    H173625   2.832   0.909   2.482  0.0622  0.2675 -0.8590
17378TIP3    H273626   2.738   0.790   2.468  0.7834 -0.1700 -2.1351
17379TIP3   OH273627   3.709   6.379   5.133 -0.1208 -0.2571 -0.0325
17379TIP3    H173628   3.645   6.307   5.134 -2.3128  1.5818  0.6448
17379TIP3    H273629   3.717   6.406   5.224  0.2172  0.7439 -0.3504
17380TIP3   OH273630   6.129   1.887  17.124  0.2403  0.4812  0.0525
17380TIP3    H173631   6.087   1.920  17.045 -2.2845 -0.5162  0.8659
17380TIP3    H273632   6.221   1.881  17.102 -0.6019 -1.7758 -3.5813
17381TIP3   OH273633   0.451   4.216   5.119  0.4031  0.0482  0.0248
17381TIP3    H173634   0.408   4.296   5.150  1.0859 -0.0165  1.2159
17381TIP3    H273635   0.473   4.234   5.028 -2.0495  0.0964 -0.6161
17382TIP3   OH273636   1.709   4.827   4.529  0.2846  0.2064  0.1900
17382TIP3    H173637   1.766   4.800   4.457  1.3164  0.9856  0.6895
17382TIP3    H273638   1.702   4.750   4.585  2.1421  0.5298  0.9258
17383TIP3   OH273639   0.755   0.261  15.739  0.0431  0.1272 -0.1656
17383TIP3    H173640   0.761   0.344  15.691 -3.5252 -0.1989 -1.4460
17383TIP3    H273641   0.703   0.281  15.817  0.9795 -0.5447  0.6784
17384TIP3   OH273642   4.981   1.915  13.515  0.1506 -0.1365 -0.1366
17384TIP3    H173643   4.940   1.851  13.457  1.5403 -0.3841 -0.8798
17384TIP3    H273644   5.073   1.890  13.519  1.3909  3.2210 -2.6036
17385TIP3   OH273645   0.437   0.551   2.424 -0.1508 -0.8406 -0.2440
17385TIP3    H173646   0.382   0.487   2.470 -3.1532  0.6908 -1.4633
17385TIP3    H273647   0.399   0.556   2.336  2.1734  0.1231 -1.2596
17386TIP3   OH273648   5.663   5.621  11.597  0.4209 -0.6132  0.0909
17386TIP3    H173649   5.635   5.530  11.588 -0.3278 -0.7301  2.6982
17386TIP3    H273650   5.734   5.631  11.534  0.1720 -2.8443 -0.6205
17387TIP3   OH273651   4.598   3.875  11.530  0.0167  0.0502 -0.0449
17387TIP3    H173652   4.510   3.842  11.545  0.5124 -1.5947 -0.4802
17387TIP3    H273653   4.586   3.966  11.503 -1.5109 -0.0466  0.2431
17388TIP3   OH273654   0.971   0.023  10.572  0.5212  0.1858  0.4496
17388TIP3    H173655   1.031   0.098  10.575  0.2972  0.4288 -0.5066
17388TIP3    H273656   1.026  -0.050  10.542  0.7622 -0.0608  1.4821
17389TIP3   OH273657   4.115   2.558   4.531 -0.5425  0.5191 -0.5358
17389TIP3    H173658   4.142   2.623   4.595  0.4276 -1.6367  1.4097
17389TIP3    H273659   4.163   2.581   4.452  2.5285  0.2844  1.0986
17390TIP3   OH273660   4.108   6.253   2.741  0.1657 -0.2118 -0.1039
17390TIP3    H173661   4.180   6.240   2.802 -0.8225  0.2784  1.2211
17390TIP3    H273662   4.122   6.340   2.704  0.4025 -0.2312 -0.0572
17391TIP3   OH273663   1.958   1.823   5.193  0.5212  0.1218  0.0131
17391TIP3    H173664   1.999   1.794   5.275  1.1636 -0.1852 -0.4016
17391TIP3    H273665   1.981   1.754   5.130 -2.3389 -1.1350  0.1879
17392TIP3   OH273666   3.216   0.431   0.817 -0.1921  0.7192 -0.2613
17392TIP3    H173667   3.230   0.337   0.823  0.1001  0.6928 -1.2376
17392TIP3    H273668   3.212   0.461   0.908  0.7827 -0.0692  0.0499
17393TIP3   OH273669   0.417   3.902  13.618 -0.2489  0.0216  0.0303
17393TIP3    H173670   0.329   3.902  13.655 -0.7232  0.6169 -1.0258
17393TIP3    H273671   0.413   3.967  13.548  1.4021  0.9973  0.7892
17394TIP3   OH273672   2.190   0.172   0.607  0.1490 -0.1326  0.5562
17394TIP3    H173673   2.223   0.112   0.539 -0.1356  1.1666 -0.7746
17394TIP3    H273674   2.254   0.243   0.610 -0.3793  0.3353  0.9120
17395TIP3   OH273675   5.789   1.976  15.660  0.0093 -0.0850 -0.1377
17395TIP3    H173676   5.758   2.024  15.583  1.1852  1.3028  0.2125
17395TIP3    H273677   5.864   2.026  15.691 -1.0747  0.0677  2.5630
17396TIP3   OH273678   1.975   5.201   0.411 -0.3569  0.6671  0.3124
17396TIP3    H173679   2.062   5.174   0.380 -0.7009 -0.0476 -0.0602
17396TIP3    H273680   1.934   5.242   0.335 -1.0662 -0.7629 -0.1199
17397TIP3   OH273681   6.718   5.355  14.591  0.3255  0.3536  0.4240
17397TIP3    H173682   6.763   5.304  14.659 -0.9744 -3.0274 -1.0174
17397TIP3    H273683   6.633   5.375  14.629 -0.3477 -1.4108 -0.0824
17398TIP3   OH273684   3.852   5.727   3.392  0.0840  0.2457  0.4608
17398TIP3    H173685   3.879   5.686   3.475 -1.0533  0.7180  1.0886
17398TIP3    H273686   3.824   5.815   3.417 -2.2234 -0.2820 -0.0835
17399TIP3   OH273687   4.612   0.027   4.306 -0.0488  0.3024  0.1663
17399TIP3    H173688   4.584   0.088   4.374  0.5726  0.9279 -0.1231
17399TIP3    H273689   4.530  -0.007   4.269 -0.3948 -0.1720  1.3145
17400TIP3   OH273690   2.291   5.695   1.544 -0.3655  0.2734 -0.0466
17400TIP3    H173691   2.338   5.775   1.522  1.3018 -0.6562 -0.0707
17400TIP3    H273692   2.360   5.628   1.552 -1.5949 -0.9433  0.9478
17401TIP3   OH273693   4.849   5.191  13.925  0.1087 -0.4390 -0.1039
17401TIP3    H173694   4.816   5.183  14.015  1.3459 -1.5349  0.2869
17401TIP3    H273695   4.859   5.285  13.912  3.6215 -0.2474  2.4054
17402TIP3   OH273696   0.459   5.595   5.100 -0.4119  0.1879  0.5719
17402TIP3    H173697   0.466   5.507   5.062  0.6113 -0.4104  2.0579
17402TIP3    H273698   0.458   5.653   5.024  0.7334 -1.0107 -0.4189
17403TIP3   OH273699   2.268   5.509  11.924 -0.3651 -0.7631  0.2036
17403TIP3    H173700   2.284   5.452  11.849 -0.8050  3.6061 -3.6304
17403TIP3    H273701   2.179   5.489  11.952 -0.7196 -1.5452 -1.4120
17404TIP3   OH273702   4.543   6.081  15.521 -0.2664 -0.1555  0.0651
17404TIP3    H173703   4.457   6.039  15.512  0.8668 -2.3156 -1.5527
17404TIP3    H273704   4.572   6.094  15.431  1.6169 -0.5944  0.5790
17405TIP3   OH273705   5.750   5.575   1.570 -0.3045  0.3513  0.2691
17405TIP3    H173706   5.661   5.581   1.606 -0.8142 -1.4857 -0.5411
17405TIP3    H273707   5.739   5.525   1.489  1.4118  0.5769 -0.1376
17406TIP3   OH273708   0.447   3.787  15.460 -0.1984  0.7730  0.5481
17406TIP3    H173709   0.436   3.870  15.413  0.0114  1.0961  1.0674
17406TIP3    H273710   0.431   3.720  15.393 -0.1002  1.2275  0.0594
17407TIP3   OH273711   3.083   3.358   4.786  0.0806  0.0463  0.3093
17407TIP3    H173712   3.049   3.420   4.722 -1.9762  0.8886  2.1055
17407TIP3    H273713   3.157   3.316   4.741 -0.1090  1.8747 -1.9113
17408TIP3   OH273714   5.141   1.171   3.953  0.2151 -0.1414 -0.2592
17408TIP3    H173715   5.142   1.126   3.868 -0.3068 -4.1691  1.6575
17408TIP3    H273716   5.225   1.148   3.993  0.4222  1.6536  0.4217
17409TIP3   OH273717   4.581   4.657   4.322 -0.2147  0.2401 -0.1986
17409TIP3    H173718   4.592   4.578   4.376 -1.3801 -0.6370 -1.1722
17409TIP3    H273719   4.513   4.707   4.367 -0.1632  0.2103 -0.0867
17410TIP3   OH273720   3.175   4.111  15.604 -0.4475 -0.6977  0.4749
17410TIP3    H173721   3.208   4.131  15.516 -1.5624 -0.0110  0.1931
17410TIP3    H273722   3.210   4.180  15.659 -0.4381 -0.6525  0.4123
17411TIP3   OH273723   3.176   0.724   0.456  0.3195 -0.1165 -0.1595
17411TIP3    H173724   3.198   0.790   0.390 -1.5915  0.8897  0.1270
17411TIP3    H273725   3.254   0.718   0.511  0.7178  1.5780 -0.4788
17412TIP3   OH273726   4.079   3.022  14.623 -0.5108 -0.3921 -0.8720
17412TIP3    H173727   4.112   3.003  14.535  2.5568 -2.1651  0.5125
17412TIP3    H273728   4.123   3.103  14.648  0.4293 -1.0997 -0.1739
17413TIP3   OH273729   6.284   3.325   2.093  0.1547  0.4126  0.2063
17413TIP3    H173730   6.256   3.375   2.016 -0.0561 -0.5011 -0.3169
17413TIP3    H273731   6.370   3.291   2.070 -1.1051 -2.3357 -0.8556
17414TIP3   OH273732   5.089   0.393  13.870 -0.1394 -0.2273  0.2881
17414TIP3    H173733   5.097   0.488  13.860  1.2697 -0.4493 -1.0485
17414TIP3    H273734   5.023   0.368  13.806 -0.0038 -0.2144  0.1405
17415TIP3   OH273735   3.974   4.101  11.783 -0.0076  0.1573  0.0016
17415TIP3    H173736   4.034   4.115  11.855 -0.7691  1.1330  0.4617
17415TIP3    H273737   3.914   4.175  11.786 -0.8743 -0.4841 -0.8121
17416TIP3   OH273738   5.695   6.670  14.010 -0.1363 -0.6207  0.3583
17416TIP3    H173739   5.757   6.709  14.072  1.2852 -2.4417  0.1557
17416TIP3    H273740   5.694   6.577  14.033  0.0013 -1.2526 -1.9977
17417TIP3   OH273741   5.095   2.890  16.308 -0.2265  0.1310 -0.2814
17417TIP3    H173742   5.093   2.859  16.217 -0.5045  0.3973 -0.3676
17417TIP3    H273743   5.124   2.981  16.301 -1.0349  0.3994 -0.1724
17418TIP3   OH273744   4.370   3.989   0.295  0.3269  0.1151  0.2830
17418TIP3    H173745   4.310   3.948   0.233  1.3843 -1.7068  0.4007
17418TIP3    H273746   4.317   4.005   0.373  0.0584 -1.9315  0.5726
17419TIP3   OH273747   4.151   3.571  13.221 -0.6881 -0.2442 -0.1701
17419TIP3    H173748   4.067   3.526  13.230 -1.0503  0.6585  1.3103
17419TIP3    H273749   4.217   3.505  13.242 -1.0992 -0.6216 -0.0493
17420TIP3   OH273750   5.227   3.040   1.835  0.5456  0.1161  0.4096
17420TIP3    H173751   5.286   2.966   1.846  0.9228  0.2376 -0.7097
17420TIP3    H273752   5.142   3.008   1.865  0.9172 -0.4256  0.9240
17421TIP3   OH273753   2.154   5.707  13.540 -0.4470  0.2439 -0.1479
17421TIP3    H173754   2.108   5.790  13.555 -0.7917  0.5779 -2.6882
17421TIP3    H273755   2.229   5.730  13.485 -0.2413 -1.0530 -0.4454
17422TIP3   OH273756   2.046   4.188  15.197 -0.0612 -0.5969  0.5003
17422TIP3    H173757   1.976   4.127  15.176  0.4128 -0.8873 -0.2803
17422TIP3    H273758   2.123   4.132  15.210  0.1966 -0.2253  0.5963
17423TIP3   OH273759   0.129   3.090   1.120  0.7586  0.2315  0.7772
17423TIP3    H173760   0.154   3.168   1.170 -1.4147  1.3856  0.2065
17423TIP3    H273761   0.209   3.063   1.076  1.2631  3.2094 -0.3528
17424TIP3   OH273762   4.834   0.633  16.592  0.2512  0.3749  0.0144
17424TIP3    H173763   4.780   0.606  16.666 -1.1103  1.4573 -0.5483
17424TIP3    H273764   4.788   0.599  16.515  0.2788  1.4359 -0.4815
17425TIP3   OH273765   6.718   3.824   1.051  0.0392  0.0958  0.0834
17425TIP3    H173766   6.788   3.869   1.004  1.1708 -0.1252  1.4788
17425TIP3    H273767   6.638   3.849   1.005  0.9649  0.8349 -1.1984
17426TIP3   OH273768   1.871   3.027  11.043 -0.2231  0.5767  0.4175
17426TIP3    H173769   1.923   3.052  11.119 -0.4180  0.5077  0.5742
17426TIP3    H273770   1.829   3.108  11.014  1.3853  1.0024 -0.8051
17427TIP3   OH273771   3.736   3.486  12.399 -0.7715  0.5664 -0.3327
17427TIP3    H173772   3.754   3.397  12.429 -0.3531 -0.1561 -2.4880
17427TIP3    H273773   3.643   3.500  12.418 -0.4496  0.3251  1.5245
17428TIP3   OH273774   4.540   1.167   2.269 -0.1201 -0.4175  0.0407
17428TIP3    H173775   4.538   1.189   2.175 -0.4430 -2.1688 -0.3841
17428TIP3    H273776   4.598   1.091   2.274 -2.2306 -2.0299  0.8788
17429TIP3   OH273777   4.659   5.565   1.898 -0.4074  0.3808  0.4637
17429TIP3    H173778   4.564   5.569   1.905 -0.5043  1.8358 -0.8759
17429TIP3    H273779   4.675   5.522   1.814  0.2076 -1.8641  1.6745
17430TIP3   OH273780   6.525   0.516  14.758  0.5510 -0.2117  0.5205
17430TIP3    H173781   6.440   0.539  14.719  0.3627 -0.2229  0.9235
17430TIP3    H273782   6.578   0.488  14.684  0.0287 -0.7263  0.3336
17431TIP3   OH273783   4.911   0.232   0.271  0.0805  0.2586  0.1008
17431TIP3    H173784   4.894   0.207   0.180 -0.0606  0.5409  0.0485
17431TIP3    H273785   4.945   0.321   0.266  3.1499 -0.8183  0.0815
17432TIP3   OH273786   4.597   0.989  13.405  0.1931 -0.2259  0.3195
17432TIP3    H173787   4.648   1.042  13.466  0.4903 -0.2928  0.1310
17432TIP3    H273788   4.539   0.937  13.462  0.0212  0.1716  0.5113
17433TIP3   OH273789   6.559   3.080  10.715  0.3927  0.1384 -0.4693
17433TIP3    H173790   6.467   3.078  10.688  0.4965 -1.2777 -0.8322
17433TIP3    H273791   6.579   2.989  10.738  1.2120  0.7470  1.3539
17434TIP3   OH273792   6.610   6.558  12.387  0.0527 -0.4386  0.1729
17434TIP3    H173793   6.672   6.593  12.323 -0.9752  0.6520 -0.2684
17434TIP3    H273794   6.642   6.590  12.472  0.6943 -0.8078  0.0761
17435TIP3   OH273795   5.902   6.528   6.712 -0.3375  0.1008 -0.3324
17435TIP3    H173796   5.810   6.506   6.698 -0.8867 -0.2292  2.9802
17435TIP3    H273797   5.902   6.623   6.726 -0.4094 -0.0743  0.9430
17436TIP3   OH273798   0.754   5.392   4.930 -0.0257 -0.8118 -0.2501
17436TIP3    H173799   0.821   5.457   4.950 -0.8670 -0.3140  1.0884
17436TIP3    H273800   0.788   5.311   4.967 -0.4091 -0.4364  0.9572
17437TIP3   OH273801   4.348   0.393  12.060 -0.0035 -0.2798  0.3399
17437TIP3    H173802   4.443   0.394  12.047  0.1668  4.0564  0.6088
17437TIP3    H273803   4.337   0.394  12.155 -0.1511  1.3826  0.3416
17438TIP3   OH273804   3.259   3.269  13.184 -0.2030  0.2543 -0.2416
17438TIP3    H173805   3.302   3.231  13.261  1.0489 -3.1308 -2.3579
17438TIP3    H273806   3.169   3.235  13.187 -0.7822  1.7885  0.6963
17439TIP3   OH273807   5.324   1.171   0.690 -0.3982  0.3306 -0.4847
17439TIP3    H173808   5.366   1.254   0.715  1.1256 -0.5149 -0.1104
17439TIP3    H273809   5.256   1.158   0.756  1.6425 -0.4015  1.5983
17440TIP3   OH273810   2.118   4.021   1.364  0.0572 -0.1736  0.6947
17440TIP3    H173811   2.102   4.114   1.354  0.3863 -0.0547  1.1986
17440TIP3    H273812   2.057   3.979   1.304 -0.2601  0.3557  0.6395
17441TIP3   OH273813   2.540   4.104   5.564 -0.4773 -0.2275 -0.4239
17441TIP3    H173814   2.484   4.079   5.491 -0.9438 -1.6239  0.3657
17441TIP3    H273815   2.489   4.168   5.613 -0.8374 -0.5056 -0.4346
17442TIP3   OH273816   5.622   3.879   5.170 -0.4163 -0.1239  0.4460
17442TIP3    H173817   5.643   3.966   5.205 -1.3582  0.5749 -0.6799
17442TIP3    H273818   5.688   3.822   5.210  1.3961  1.3901 -0.2172
17443TIP3   OH273819   5.563   2.933  16.176 -0.3269  0.6745 -0.3127
17443TIP3    H173820   5.561   2.950  16.270 -2.3301  0.9460 -0.3676
17443TIP3    H273821   5.641   2.879  16.163 -0.2154  0.3279  1.5569
17444TIP3   OH273822   5.404   2.448  17.010  0.0277  0.5807  0.1555
17444TIP3    H173823   5.406   2.538  17.045  1.0042  0.1072  1.4164
17444TIP3    H273824   5.324   2.410  17.047  0.2048  0.5922  0.5640
17445TIP3   OH273825   2.843   3.508  11.598  0.0235  0.1359 -0.0587
17445TIP3    H173826   2.799   3.568  11.538  0.6797 -0.2674 -0.9627
17445TIP3    H273827   2.936   3.520  11.581  0.2112 -0.2385  0.6388
17446TIP3   OH273828   2.528   1.245  14.554 -0.4998 -0.4312 -0.4115
17446TIP3    H173829   2.505   1.181  14.621  1.0781  1.6981  2.4234
17446TIP3    H273830   2.468   1.318  14.569  1.2152  0.9444  0.2159
17447TIP3   OH273831   2.804   5.403   1.322 -0.0201 -0.2622  0.0894
17447TIP3    H173832   2.820   5.373   1.412 -0.5065 -2.1317 -0.3991
17447TIP3    H273833   2.810   5.323   1.269 -1.5390  0.4970 -1.3010
17448TIP3   OH273834   6.841   2.125  10.877  0.7291  0.0963 -0.1261
17448TIP3    H173835   6.854   2.214  10.908  2.4952 -0.3245  0.4727
17448TIP3    H273836   6.922   2.102  10.832 -0.3942 -0.5973 -1.9094
17449TIP3   OH273837   1.663   2.985   4.396  0.1194  0.2346  0.1139
17449TIP3    H173838   1.745   3.028   4.371  0.2140 -0.1949 -0.3337
17449TIP3    H273839   1.597   3.053   4.385  0.2715  0.2851 -0.5660
17450TIP3   OH273840   5.755   0.013   1.778 -0.2617  0.2879  0.4103
17450TIP3    H173841   5.844   0.042   1.760 -0.0620 -0.4570  0.1426
17450TIP3    H273842   5.761  -0.034   1.862 -0.4384  0.3755  0.4744
17451TIP3   OH273843   6.412   2.332   1.976 -0.3912  0.3220 -0.1925
17451TIP3    H173844   6.497   2.373   1.992 -0.0255 -0.2543 -0.6291
17451TIP3    H273845   6.393   2.349   1.884  0.1084 -1.0887 -0.5826
17452TIP3   OH273846   5.709   4.105  15.246  0.1115  0.1219  0.3796
17452TIP3    H173847   5.764   4.098  15.167  2.8844 -0.4470  2.2243
17452TIP3    H273848   5.667   4.020  15.253 -0.9715  0.5026 -0.9649
17453TIP3   OH273849   3.865   6.052  15.691 -0.2700  0.2126  0.8598
17453TIP3    H173850   3.863   5.988  15.763 -1.7642  1.0170  1.5588
17453TIP3    H273851   3.933   6.114  15.717  1.2197 -1.0515  0.1629
17454TIP3   OH273852   5.279   6.308  16.752  0.4331 -0.2451 -0.2261
17454TIP3    H173853   5.313   6.369  16.687  1.1764 -1.4251 -0.9821
17454TIP3    H273854   5.335   6.320  16.829  1.2266 -0.6773 -0.7268
17455TIP3   OH273855   3.848   1.138  15.375 -0.0775 -0.4432  0.0801
17455TIP3    H173856   3.786   1.173  15.439  1.2986  0.2190  1.1120
17455TIP3    H273857   3.883   1.216  15.331  0.9942 -0.6960  0.4534
17456TIP3   OH273858   3.319   1.028  12.364 -0.0933  0.0552 -0.3113
17456TIP3    H173859   3.226   1.033  12.386 -0.2468  0.4092 -1.0055
17456TIP3    H273860   3.323   1.053  12.272  0.7349  0.4265 -0.1845
17457TIP3   OH273861   5.168   6.469   6.604  0.0744  0.0229 -0.6196
17457TIP3    H173862   5.090   6.484   6.550 -0.9103 -1.3959  0.3635
17457TIP3    H273863   5.193   6.557   6.634 -2.1584  0.3696  0.4081
17458TIP3   OH273864   2.942   2.752  11.371 -0.2948  0.4033  0.0445
17458TIP3    H173865   2.964   2.830  11.321  1.5635  0.2067  0.4950
17458TIP3    H273866   2.985   2.680  11.324  0.1852  0.0158  1.0423
17459TIP3   OH273867   1.375   2.620   4.348  0.6570 -0.4149 -0.2409
17459TIP3    H173868   1.286   2.585   4.342 -0.3469  1.8106  0.4479
17459TIP3    H273869   1.399   2.638   4.257 -0.3009  0.5083 -0.3323
17460TIP3   OH273870   2.772   4.950  15.049 -0.4504  0.7154 -0.1410
17460TIP3    H173871   2.804   5.016  14.989  0.8794  1.2651  1.1080
17460TIP3    H273872   2.678   4.944  15.031 -0.0412  0.5258 -2.5324
17461TIP3   OH273873   0.598   3.341   1.062 -0.2513  0.0281 -0.6684
17461TIP3    H173874   0.609   3.246   1.056 -0.2255 -0.0539  0.4537
17461TIP3    H273875   0.681   3.377   1.031  0.7778 -0.4041  1.4336
17462TIP3   OH273876   4.825   4.229  16.304  0.5769 -0.7487 -0.7316
17462TIP3    H173877   4.835   4.180  16.386 -2.2473  0.5117  0.4670
17462TIP3    H273878   4.889   4.299  16.311  1.2110 -1.3609 -0.1764
17463TIP3   OH273879   3.890   2.708   2.019 -0.0332  0.1549 -0.3161
17463TIP3    H173880   3.957   2.640   2.008  0.4121  0.7524 -1.5481
17463TIP3    H273881   3.851   2.716   1.932 -2.0560 -0.5069  0.4803
17464TIP3   OH273882   5.011   6.469   3.986  0.1334 -0.0122 -0.4226
17464TIP3    H173883   4.923   6.434   3.999  0.8080 -1.1943  1.4576
17464TIP3    H273884   5.069   6.400   4.020  1.6684  1.7676  0.7732
17465TIP3   OH273885   2.123   2.807  14.691 -0.1164 -0.2825 -0.4833
17465TIP3    H173886   2.062   2.823  14.619 -0.0703  1.9459 -0.0884
17465TIP3    H273887   2.181   2.883  14.691  0.0168 -0.3166  1.7647
17466TIP3   OH273888   1.927   4.278  14.415  0.0115  0.1601 -0.0089
17466TIP3    H173889   1.933   4.305  14.323 -2.9952  3.1618  0.4853
17466TIP3    H273890   1.962   4.352  14.464 -2.7451  0.7112  1.2896
17467TIP3   OH273891   6.162   3.485   3.412  0.1647 -0.7289 -0.3197
17467TIP3    H173892   6.173   3.568   3.460  1.5235 -0.5778 -0.8426
17467TIP3    H273893   6.068   3.471   3.410 -0.0836  0.7192 -0.0543
17468TIP3   OH273894   0.527   4.178   3.234 -0.5494  0.0324 -0.0501
17468TIP3    H173895   0.503   4.092   3.197  1.8503 -0.8106  0.1615
17468TIP3    H273896   0.619   4.168   3.258 -0.3332  2.5642  0.3862
17469TIP3   OH273897   3.577   3.200  12.859  0.2326  0.2202 -0.1085
17469TIP3    H173898   3.493   3.197  12.904  1.4059 -0.4991  2.1986
17469TIP3    H273899   3.598   3.108  12.841  0.7638  0.3508 -0.1697
17470TIP3   OH273900   4.994   0.975   0.469  0.8025 -0.1879 -0.3344
17470TIP3    H173901   5.089   0.972   0.472  0.8740 -0.0304  4.0602
17470TIP3    H273902   4.967   0.884   0.451  1.7977 -0.5594  0.0180
17471TIP3   OH273903   5.863   4.729   4.463  0.1700  0.2060 -0.4120
17471TIP3    H173904   5.897   4.672   4.532  0.2345  2.5211  1.5906
17471TIP3    H273905   5.777   4.693   4.442  0.0894 -0.4534  0.9770
17472TIP3   OH273906   1.441   2.044   0.895 -0.3877 -0.3627 -0.3125
17472TIP3    H173907   1.479   1.979   0.953 -0.4690  1.1161  1.4846
17472TIP3    H273908   1.346   2.030   0.902 -0.4108  0.0077  0.1756
17473TIP3   OH273909   6.003   0.266  11.516 -0.0165  0.0799 -0.2718
17473TIP3    H173910   5.988   0.210  11.440  0.8588 -0.3736 -0.1350
17473TIP3    H273911   6.091   0.302  11.501  0.6351 -0.8895  1.0349
17474TIP3   OH273912   5.588   5.280   5.598 -0.1746 -0.1642  0.0413
17474TIP3    H173913   5.597   5.375   5.613  2.9856  0.1718 -2.7391
17474TIP3    H273914   5.674   5.245   5.621 -0.4359 -1.9163 -1.4742
17475TIP3   OH273915   4.650   2.645   6.206  0.3703 -0.1865 -0.1195
17475TIP3    H173916   4.605   2.561   6.206 -1.0961  0.5661  0.5052
17475TIP3    H273917   4.584   2.708   6.235  2.4276  0.6458  3.3039
17476TIP3   OH273918   4.561   4.813   2.420  0.3655  0.4180 -0.0972
17476TIP3    H173919   4.563   4.733   2.472  0.7333  0.0184 -0.7144
17476TIP3    H273920   4.609   4.877   2.473  0.3168  0.1524  0.2708
17477TIP3   OH273921   0.909   4.092  13.925  0.3991 -0.4219  0.2964
17477TIP3    H173922   0.830   4.122  13.880  0.4747 -2.3079 -1.2096
17477TIP3    H273923   0.881   4.014  13.973  0.7020  0.6257  2.2826
17478TIP3   OH273924   3.025   2.245  16.011 -0.0789  0.1856  0.1801
17478TIP3    H173925   3.044   2.165  15.962 -1.7301  0.3080 -0.7196
17478TIP3    H273926   3.090   2.246  16.082  1.1284 -0.9887 -0.8664
17479TIP3   OH273927   0.752   1.877   4.481  0.2931 -0.4066  0.3446
17479TIP3    H173928   0.819   1.935   4.444 -0.3241 -0.8864 -1.6110
17479TIP3    H273929   0.797   1.794   4.495  0.3222 -0.4947 -0.2338
17480TIP3   OH273930   0.419   6.667   1.816 -0.4578  0.0838 -0.1914
17480TIP3    H173931   0.387   6.664   1.726  0.4434  1.4937 -0.5924
17480TIP3    H273932   0.452   6.579   1.833 -1.6179 -0.4932 -0.8568
17481TIP3   OH273933   4.068   2.490  16.513  0.8115  0.4801  0.5310
17481TIP3    H173934   4.004   2.485  16.584 -0.3551  1.1076 -0.4310
17481TIP3    H273935   4.035   2.560  16.457  1.2279 -0.5594 -1.0777
17482TIP3   OH273936   0.799   0.878   1.184 -0.2404  0.3619 -0.3429
17482TIP3    H173937   0.805   0.871   1.088  1.1595  0.0792 -0.2592
17482TIP3    H273938   0.721   0.932   1.199 -0.7890 -0.0178 -1.6162
17483TIP3   OH273939   3.611   3.265  15.501 -0.2078  0.0004  0.1345
17483TIP3    H173940   3.650   3.187  15.539 -0.0725 -0.2844 -0.5686
17483TIP3    H273941   3.582   3.317  15.576  0.8384 -0.1382  0.6442
17484TIP3   OH273942   4.108   3.805   6.738  0.2252 -0.4948 -0.4037
17484TIP3    H173943   4.101   3.844   6.651  1.8572 -1.7821 -1.1887
17484TIP3    H273944   4.182   3.745   6.731 -0.1468 -1.2873  1.6439
17485TIP3   OH273945   5.053   1.240   1.685 -0.2164 -0.8272 -0.2196
17485TIP3    H173946   5.081   1.178   1.617  0.7686  0.6607 -1.2505
17485TIP3    H273947   4.963   1.261   1.662  0.4765  0.6155 -1.9299
17486TIP3   OH273948   0.019   4.907   4.182 -0.2819 -0.0412 -0.0776
17486TIP3    H173949  -0.022   4.992   4.168 -2.8409 -0.9547  1.2658
17486TIP3    H273950   0.111   4.927   4.201 -0.7724  2.3852 -0.0093
17487TIP3   OH273951   5.155   2.021  16.596  0.1520 -0.0143 -0.0646
17487TIP3    H173952   5.245   2.029  16.563 -0.1669 -0.7142 -1.1607
17487TIP3    H273953   5.120   1.945  16.550 -0.8129 -0.1086  0.8040
17488TIP3   OH273954   3.248   1.745  15.886 -0.2754  0.1420  0.2167
17488TIP3    H173955   3.211   1.734  15.974  0.5401 -0.2230  0.5207
17488TIP3    H273956   3.236   1.660  15.845  0.0095  0.0952  0.2311
17489TIP3   OH273957   4.331   1.469   1.201 -0.1610  0.2919  0.4304
17489TIP3    H173958   4.260   1.532   1.193 -0.1739  0.3208  0.7446
17489TIP3    H273959   4.354   1.470   1.294 -0.6977 -0.7505  0.5943
17490TIP3   OH273960   4.543   6.695  11.478  0.0037 -0.6704  0.3843
17490TIP3    H173961   4.544   6.717  11.385  5.6107  1.7051  0.6694
17490TIP3    H273962   4.561   6.601  11.481 -0.8096 -0.8807 -0.8676
17491TIP3   OH273963   2.464   0.736  15.810  0.7035 -0.4374  0.1267
17491TIP3    H173964   2.544   0.737  15.863  0.0743  0.2137  1.0935
17491TIP3    H273965   2.425   0.822  15.823 -0.9845 -1.2630  1.0039
17492TIP3   OH273966   6.395   5.384   3.092 -0.5312 -0.2343 -0.2661
17492TIP3    H173967   6.408   5.476   3.070  0.0505 -0.0676  0.7358
17492TIP3    H273968   6.427   5.336   3.015 -1.0427  0.3942 -0.8843
17493TIP3   OH273969   3.225   5.246   4.914 -0.2212  0.0188  0.0098
17493TIP3    H173970   3.262   5.292   4.989  1.4280 -0.5933 -0.3910
17493TIP3    H273971   3.130   5.246   4.930 -0.1141  1.8439  0.9650
17494TIP3   OH273972   2.287   1.234   3.247  0.3279  0.8709 -0.2299
17494TIP3    H173973   2.202   1.239   3.290  0.6282 -1.4450  0.7835
17494TIP3    H273974   2.346   1.282   3.306  0.4484 -1.0291  1.2993
17495TIP3   OH273975   1.252   5.115  14.729 -0.2236  0.8021 -0.3833
17495TIP3    H173976   1.268   5.133  14.822 -0.7977  0.7098 -0.2633
17495TIP3    H273977   1.160   5.138  14.716 -0.4363 -0.1851 -0.6871
17496TIP3   OH273978   1.687   1.333  14.529  0.4758 -0.2687  0.1042
17496TIP3    H173979   1.736   1.305  14.606 -0.3990 -0.5675  0.5682
17496TIP3    H273980   1.613   1.272  14.524  0.3336 -0.0364 -0.7694
17497TIP3   OH273981   4.050   5.795   0.209 -1.0545  0.0979  0.1463
17497TIP3    H173982   4.079   5.709   0.239  1.5779  1.3370  1.5446
17497TIP3    H273983   3.988   5.824   0.276 -0.9758 -0.2054  0.3525
17498TIP3   OH273984   4.147   1.086   5.035  0.2946  0.3916  0.4815
17498TIP3    H173985   4.197   1.008   5.011  1.3302  0.7906  1.2605
17498TIP3    H273986   4.117   1.069   5.124  1.7196  1.4305  1.1937
17499TIP3   OH273987   2.803   5.250  15.490 -0.4846  0.2443  0.4854
17499TIP3    H173988   2.757   5.171  15.520 -0.5289  1.0133  2.5239
17499TIP3    H273989   2.885   5.251  15.538  0.1028  0.7845 -0.4895
17500TIP3   OH273990   4.115   5.085  14.149 -0.0045  0.4272 -0.3011
17500TIP3    H173991   4.144   5.016  14.089  0.4284  0.9147 -0.6678
17500TIP3    H273992   4.138   5.166  14.105  0.5062  0.7968  0.6135
17501TIP3   OH273993   1.692   1.610  13.506  0.1715 -0.2266  0.1878
17501TIP3    H173994   1.666   1.676  13.442 -2.0917  0.1178  1.3542
17501TIP3    H273995   1.725   1.660  13.580 -0.6552 -0.4070  0.6971
17502TIP3   OH273996   2.070   1.542  13.951 -0.1717  0.4635 -0.1477
17502TIP3    H173997   2.023   1.507  14.026  0.6306  0.2543  0.2630
17502TIP3    H273998   2.149   1.490  13.945 -0.1587  0.5652 -1.0635
17503TIP3   OH273999   1.748   4.125  15.239 -0.0419 -0.1859  0.0092
17503TIP3    H174000   1.689   4.086  15.304  1.4152 -0.2564  1.3572
17503TIP3    H274001   1.722   4.084  15.157 -1.0805 -1.1092  0.7513
17504TIP3   OH274002   6.430   6.190  15.536  0.2259 -0.5738  0.2552
17504TIP3    H174003   6.462   6.279  15.521 -0.3879 -0.7825 -2.9303
17504TIP3    H274004   6.354   6.201  15.593 -1.8050  1.4310 -2.5859
17505TIP3   OH274005   4.097   2.515  13.824 -0.1460 -0.5876 -0.1121
17505TIP3    H174006   4.092   2.491  13.916  1.1730 -0.0221  0.1364
17505TIP3    H274007   4.138   2.440  13.782 -0.9535 -0.9390 -0.2966
17506TIP3   OH274008   3.784   1.432   5.072 -0.0353  0.1747  0.3712
17506TIP3    H174009   3.717   1.470   5.128  0.8680  0.7741  1.0831
17506TIP3    H274010   3.837   1.378   5.131  0.7697  0.6033  0.0659
17507TIP3   OH274011   3.138   2.115   6.532 -0.2543 -0.2472  0.7235
17507TIP3    H174012   3.097   2.201   6.521  1.6142  0.6899  0.6930
17507TIP3    H274013   3.089   2.074   6.603 -0.8009  1.0885  1.1460
17508TIP3   OH274014   6.540   5.064  11.479 -0.1264  0.1305  0.2739
17508TIP3    H174015   6.460   5.011  11.479  0.3835 -0.6626  0.5995
17508TIP3    H274016   6.554   5.086  11.387  0.6957 -1.9538 -0.1592
17509TIP3   OH274017   5.026   3.498   1.873  0.2627  0.2412 -0.0251
17509TIP3    H174018   4.996   3.415   1.836 -0.8965  0.6548 -0.0497
17509TIP3    H274019   5.069   3.474   1.955 -0.0445 -0.3911 -0.0429
17510TIP3   OH274020   0.279   3.270  16.614  0.4507 -0.2011  0.1682
17510TIP3    H174021   0.199   3.220  16.630  1.6600 -2.0842  0.6591
17510TIP3    H274022   0.350   3.211  16.640  2.0491  1.0259 -1.1618
17511TIP3   OH274023   1.535   0.528   0.186  0.3756  0.0923  0.0790
17511TIP3    H174024   1.514   0.561   0.099  0.9545 -0.1827 -0.1762
17511TIP3    H274025   1.619   0.570   0.208 -0.3168  1.0492  0.9991
17512TIP3   OH274026   4.729   2.133   4.344 -0.2095 -0.7552 -0.0943
17512TIP3    H174027   4.758   2.078   4.416 -1.1489 -0.3661  0.5988
17512TIP3    H274028   4.713   2.072   4.271 -0.7704 -1.3470  0.5119
17513TIP3   OH274029   5.031   4.179  16.801 -0.3931 -0.3848 -0.3728
17513TIP3    H174030   4.963   4.168  16.734  0.2213 -0.1690 -1.0405
17513TIP3    H274031   5.114   4.169  16.754  0.1136  1.7465 -0.0503
17514TIP3   OH274032   0.165   5.451  16.181 -0.4736  0.3883  0.0423
17514TIP3    H174033   0.256   5.473  16.202  0.0073  0.4678 -1.9794
17514TIP3    H274034   0.128   5.532  16.146 -0.6801 -0.2031 -1.1394
17515TIP3   OH274035   5.958   5.671   0.454 -0.3417 -0.6975 -0.0048
17515TIP3    H174036   5.957   5.727   0.376 -1.4863 -0.1118  0.4135
17515TIP3    H274037   6.024   5.711   0.511  0.4957 -1.1236 -0.6594
17516TIP3   OH274038   3.198   3.438  13.962  0.2475 -0.0268  0.2315
17516TIP3    H174039   3.242   3.522  13.974 -2.2277  1.5393 -0.8877
17516TIP3    H274040   3.248   3.394  13.893  1.4417  0.5796  0.6864
17517TIP3   OH274041   3.491   1.447  13.194  0.4655  0.0132 -0.1361
17517TIP3    H174042   3.464   1.452  13.102 -0.6210  0.0505  0.1695
17517TIP3    H274043   3.529   1.533  13.213  0.2063  0.1854 -0.4027
17518TIP3   OH274044   1.713   3.967  11.677 -0.0418  0.1565 -0.3775
17518TIP3    H174045   1.744   3.990  11.589  1.3864 -0.7491 -0.1539
17518TIP3    H274046   1.789   3.982  11.733 -0.2020 -1.4843  0.3265
17519TIP3   OH274047   0.076   1.047   2.275 -0.2347 -0.6076 -0.3314
17519TIP3    H174048   0.132   1.100   2.218 -1.2174 -0.0992 -0.8629
17519TIP3    H274049   0.040   1.111   2.337 -0.1016 -0.9592  0.1111
17520TIP3   OH274050   1.399   5.366  15.912  0.2211  0.5118 -0.0799
17520TIP3    H174051   1.339   5.421  15.862  1.4562  3.6302  1.6157
17520TIP3    H274052   1.361   5.363  16.000  0.5911 -0.7972  0.0645
17521TIP3   OH274053   0.294   0.071  13.992  0.2686 -0.1010  0.1122
17521TIP3    H174054   0.218   0.070  13.934  0.9639  1.4631 -0.9346
17521TIP3    H274055   0.264   0.031  14.073 -1.7434  0.6789 -0.1821
17522TIP3   OH274056   2.481   6.675   1.586 -0.1054 -0.9638  0.0541
17522TIP3    H174057   2.426   6.608   1.626  2.0652 -2.6480  0.3522
17522TIP3    H274058   2.510   6.637   1.503  0.6527 -0.1364 -0.0737
17523TIP3   OH274059   3.593   4.896   3.803  0.1699  0.0428 -0.5253
17523TIP3    H174060   3.533   4.971   3.805 -1.2956 -1.0201  2.7567
17523TIP3    H274061   3.550   4.832   3.746  0.4274  0.8960 -1.7072
17524TIP3   OH274062   4.918   5.866  12.018  0.2738  0.1297 -0.1517
17524TIP3    H174063   4.990   5.850  11.956  0.9175  0.6820  0.4417
17524TIP3    H274064   4.958   5.918  12.088 -0.5045 -0.2834  0.6084
17525TIP3   OH274065   6.072   1.021  11.461  0.3726 -0.3709 -0.1629
17525TIP3    H174066   6.080   1.044  11.368  0.5928 -0.7671 -0.2478
17525TIP3    H274067   6.091   1.102  11.507  0.7918 -0.2962 -0.4589
17526TIP3   OH274068   3.361   6.787   2.896 -0.2209  0.3393 -0.2059
17526TIP3    H174069   3.370   6.692   2.908  1.4708  0.6418  1.3314
17526TIP3    H274070   3.299   6.796   2.823  0.1409 -1.9562 -0.8836
17527TIP3   OH274071   4.463   1.158  16.214  0.8068 -0.5534 -0.9664
17527TIP3    H174072   4.514   1.082  16.241  0.3514 -0.0326  1.6645
17527TIP3    H274073   4.509   1.233  16.254  0.0367  0.3103 -1.6535
17528TIP3   OH274074   5.828   5.921  14.922 -0.0056  0.1174  0.0669
17528TIP3    H174075   5.776   5.842  14.931 -0.7766  0.3189 -2.0395
17528TIP3    H274076   5.888   5.920  14.997 -1.6939 -1.1334  1.4554
17529TIP3   OH274077   0.990   4.331   0.052 -0.4613 -0.7125 -0.2859
17529TIP3    H174078   0.951   4.284  -0.021 -0.0702 -1.0347 -0.2891
17529TIP3    H274079   0.958   4.421   0.042 -1.5010 -1.0430 -0.0769
17530TIP3   OH274080   4.568   5.674  11.429  0.1910 -0.5780 -0.2511
17530TIP3    H174081   4.537   5.619  11.358  0.6873  0.1218 -1.0258
17530TIP3    H274082   4.606   5.613  11.492 -0.6563 -1.2401 -0.3618
17531TIP3   OH274083   5.444   4.304   3.356  0.0869 -0.1516  0.2942
17531TIP3    H174084   5.524   4.288   3.305  0.6788  0.4707  1.0113
17531TIP3    H274085   5.384   4.344   3.293  0.4813 -0.2325 -0.1434
17532TIP3   OH274086   0.268   5.425   2.562  0.3098  0.3812 -0.3301
17532TIP3    H174087   0.355   5.386   2.573 -0.3224 -1.5162 -1.6459
17532TIP3    H274088   0.239   5.396   2.476 -0.4997  3.3300 -1.1873
17533TIP3   OH274089   4.191   3.684  16.475 -0.3807 -0.3475 -0.6356
17533TIP3    H174090   4.107   3.673  16.430  0.7591  0.5042 -3.2359
17533TIP3    H274091   4.197   3.779  16.489  0.5458 -0.2698 -1.4422
17534TIP3   OH274092   1.426   0.927  16.094  0.8776  0.1831 -0.0494
17534TIP3    H174093   1.511   0.950  16.056  0.7281  0.2522 -0.3402
17534TIP3    H274094   1.373   0.900  16.020 -0.2391  2.7112 -0.2485
17535TIP3   OH274095   6.144   5.678  11.796 -0.2274  0.0451 -0.0104
17535TIP3    H174096   6.116   5.591  11.766  0.1912  0.0320 -0.3646
17535TIP3    H274097   6.233   5.664  11.830 -0.3852  0.2211  0.4855
17536TIP3   OH274098   6.412   2.844  13.227 -0.1155 -0.7123  0.0741
17536TIP3    H174099   6.452   2.878  13.148  0.7514  1.1070  1.2387
17536TIP3    H274100   6.477   2.857  13.296 -1.4944 -0.6025  1.4267
17537TIP3   OH274101   3.225   0.504  12.920 -0.7557  0.2161  0.0015
17537TIP3    H174102   3.192   0.524  13.008  0.6774  1.6002  0.2523
17537TIP3    H274103   3.249   0.411  12.925 -0.0989  0.4302  1.2898
17538TIP3   OH274104   2.200   5.722   3.149  0.3675  0.6540  0.0383
17538TIP3    H174105   2.107   5.745   3.144  0.2965  1.0286  2.2148
17538TIP3    H274106   2.238   5.792   3.203  2.0564  0.8602 -1.3643
17539TIP3   OH274107   2.032   4.495   4.144  0.1926  0.6274  0.3606
17539TIP3    H174108   2.084   4.427   4.101  2.3934  1.1918  1.9596
17539TIP3    H274109   1.959   4.448   4.184  1.6129 -0.8308  1.3553
17540TIP3   OH274110   6.403   3.353   3.897 -0.7655 -0.5926 -0.0874
17540TIP3    H174111   6.327   3.299   3.917 -1.7149 -0.1057 -2.1800
17540TIP3    H274112   6.393   3.429   3.956 -1.0802 -1.2162  0.6892
17541TIP3   OH274113   3.507   3.540   2.662 -0.0021 -0.3981  0.3185
17541TIP3    H174114   3.544   3.479   2.598 -0.2049  0.0928 -0.2688
17541TIP3    H274115   3.504   3.624   2.617 -4.5883 -0.9288 -0.8059
17542TIP3   OH274116   1.018   0.799   4.744 -0.2740 -0.4474 -0.1888
17542TIP3    H174117   0.999   0.797   4.838 -1.7426 -3.1480 -0.4216
17542TIP3    H274118   1.077   0.724   4.731  0.9603  0.6577 -1.2961
17543TIP3   OH274119   2.252   4.901   5.765 -0.0251  0.2600  0.0245
17543TIP3    H174120   2.241   4.993   5.789 -0.8553 -0.2219  1.6092
17543TIP3    H274121   2.297   4.904   5.680  0.8197  2.1057  0.4851
17544TIP3   OH274122   5.235   3.776   1.470  0.1630 -0.2236 -0.0065
17544TIP3    H174123   5.224   3.851   1.412 -0.9552  2.1915  3.0274
17544TIP3    H274124   5.159   3.779   1.528  0.9445 -2.7258  1.3015
17545TIP3   OH274125   1.236   0.037   1.026  0.5067 -0.4564  0.2125
17545TIP3    H174126   1.289   0.060   1.102  0.9744  1.6613 -0.6812
17545TIP3    H274127   1.261   0.100   0.959 -0.5147 -1.7183 -1.4391
17546TIP3   OH274128   0.585   5.739  13.083 -0.1606 -0.1171 -0.4245
17546TIP3    H174129   0.518   5.808  13.082  0.2560  0.2964 -0.1871
17546TIP3    H274130   0.628   5.747  12.998 -0.8717 -0.8480 -0.8659
17547TIP3   OH274131   6.621   4.399  15.582  0.3538  0.0449  0.1422
17547TIP3    H174132   6.561   4.332  15.548 -1.0745  0.2995  1.9873
17547TIP3    H274133   6.709   4.362  15.568 -0.3980 -2.4444  1.4303
17548TIP3   OH274134   6.195   2.890   4.467  0.3946 -0.2028  0.0353
17548TIP3    H174135   6.180   2.980   4.440 -2.2728 -0.7203 -0.5042
17548TIP3    H274136   6.110   2.861   4.502  0.8005 -2.8285 -0.8989
17549TIP3   OH274137   3.893   1.896   1.535  0.4805 -0.4172 -0.6537
17549TIP3    H174138   3.814   1.885   1.587  0.6875  1.3873  0.1255
17549TIP3    H274139   3.963   1.910   1.599  1.0901 -0.1597 -1.3563
17550TIP3   OH274140   3.069   5.164  12.856 -0.0316  0.3649  0.0545
17550TIP3    H174141   3.121   5.091  12.890  0.3368  1.2904  1.5618
17550TIP3    H274142   2.995   5.171  12.916 -0.2388  1.0204 -0.2642
17551TIP3   OH274143   3.695   2.096  10.774  0.9007 -0.1008  0.7238
17551TIP3    H174144   3.723   2.038  10.845 -1.7500  0.1760  2.1407
17551TIP3    H274145   3.654   2.170  10.819 -0.7592  0.1512 -1.0702
17552TIP3   OH274146   2.471   0.903  15.531  0.4604 -0.6452  0.7893
17552TIP3    H174147   2.418   0.937  15.459  1.8250 -0.5837 -0.2343
17552TIP3    H274148   2.454   0.809  15.531  0.2257 -0.6029  0.5721
17553TIP3   OH274149   6.520   4.795   2.088 -0.2156  0.0198  0.1320
17553TIP3    H174150   6.490   4.739   2.017  0.3789 -0.1167 -0.0229
17553TIP3    H274151   6.464   4.771   2.162  0.8370 -1.7367  0.4355
17554TIP3   OH274152   0.153   6.087  11.595 -0.1762  0.2217 -0.3064
17554TIP3    H174153   0.129   6.178  11.576  0.1919  0.2140 -0.8354
17554TIP3    H274154   0.148   6.081  11.691 -0.0957  0.8284 -0.2564
17555TIP3   OH274155   1.530   1.032  16.628  0.4692 -0.5183  0.2223
17555TIP3    H174156   1.563   1.008  16.715  1.0865 -1.2191 -0.1895
17555TIP3    H274157   1.589   0.986  16.567  1.6886  1.9949 -0.6272
17556TIP3   OH274158   3.768   5.077  14.681 -0.2139  0.7741  0.3147
17556TIP3    H174159   3.762   4.984  14.704  0.8234  0.9192  1.2832
17556TIP3    H274160   3.794   5.077  14.589  2.4266  0.0239  0.9724
17557TIP3   OH274161   2.082   5.780   2.259 -0.2369 -0.4321 -0.0450
17557TIP3    H174162   2.175   5.796   2.270 -0.5223 -0.0061  2.3108
17557TIP3    H274163   2.048   5.859   2.218 -0.0519  0.9624  2.3203
17558TIP3   OH274164   0.265   1.663   1.809  0.1530  0.0770  0.0686
17558TIP3    H174165   0.327   1.590   1.805  0.3252 -0.0691  3.1190
17558TIP3    H274166   0.243   1.681   1.717  2.1255 -2.0445 -0.9226
17559TIP3   OH274167   3.003   1.371  12.551 -0.7681 -0.6673  0.0949
17559TIP3    H174168   3.024   1.454  12.595 -1.1285  1.2939 -3.0799
17559TIP3    H274169   3.079   1.353  12.496 -1.2159 -1.7776 -0.1946
17560TIP3   OH274170   1.422   1.130  17.213  0.9122 -0.0040  1.4066
17560TIP3    H174171   1.356   1.147  17.280 -0.1322 -1.0085  0.6752
17560TIP3    H274172   1.426   1.035  17.206 -0.2446  0.0296 -1.0675
17561TIP3   OH274173   3.746   6.203   3.863 -0.1014  0.1334 -0.2227
17561TIP3    H174174   3.695   6.193   3.782  1.2275  0.3894 -1.1236
17561TIP3    H274175   3.680   6.217   3.931 -1.2832 -0.5600 -1.1742
17562TIP3   OH274176   1.153   0.991   1.099  0.3474  0.2998 -0.0373
17562TIP3    H174177   1.203   1.072   1.096 -1.1771  1.2584 -0.9163
17562TIP3    H274178   1.168   0.950   1.014 -0.4380  0.6693 -0.3669
17563TIP3   OH274179   2.711   4.493   0.406 -0.1662 -0.3855  0.5938
17563TIP3    H174180   2.715   4.506   0.312  0.0560  0.4800  0.7181
17563TIP3    H274181   2.724   4.580   0.444 -0.8164 -0.6200  1.4130
17564TIP3   OH274182   2.145   5.086  16.024  0.7629 -0.4162  0.0362
17564TIP3    H174183   2.122   5.012  16.080 -0.1702 -0.2941 -0.1718
17564TIP3    H274184   2.062   5.115  15.986  1.0376  1.0132  0.4464
17565TIP3   OH274185   6.154   0.035   2.021 -0.0493 -0.5290 -0.3935
17565TIP3    H174186   6.142  -0.056   1.994 -1.5783 -0.3246 -0.4521
17565TIP3    H274187   6.192   0.078   1.944 -1.0957 -0.7199 -1.0350
17566TIP3   OH274188   2.102   5.210   1.189 -0.6736 -0.1666  0.1743
17566TIP3    H174189   2.124   5.242   1.102 -0.7781  1.0852  0.5866
17566TIP3    H274190   2.187   5.199   1.232 -0.5797  3.7205  1.4320
17567TIP3   OH274191   5.020   4.500  14.147 -0.2059  0.1215 -0.3038
17567TIP3    H174192   5.028   4.458  14.232 -0.8687  0.2974 -0.1454
17567TIP3    H274193   4.951   4.566  14.159 -1.6613 -1.1272 -1.4577
17568TIP3   OH274194   1.598   3.172   2.698  0.3339 -0.0823  0.8331
17568TIP3    H174195   1.602   3.240   2.630  0.5293  1.4572  2.3206
17568TIP3    H274196   1.552   3.213   2.771  0.8978 -1.3841  1.9703
17569TIP3   OH274197   2.021   3.677  15.199  0.2497  0.4712  0.0016
17569TIP3    H174198   2.043   3.639  15.284  0.5725  0.0772 -0.2552
17569TIP3    H274199   2.034   3.606  15.137  0.3584  0.8585 -0.4228
17570TIP3   OH274200   6.244   1.107   0.961  0.1433 -0.0899  0.0297
17570TIP3    H174201   6.324   1.159   0.963 -0.7478  1.3215  0.3121
17570TIP3    H274202   6.257   1.039   1.027  0.7990  0.6018  0.6304
17571TIP3   OH274203   2.576   0.336   2.350 -0.6754 -0.1724 -0.1763
17571TIP3    H174204   2.511   0.387   2.301 -0.1370 -0.8637 -1.6906
17571TIP3    H274205   2.585   0.254   2.300  1.6329  0.0488 -0.2485
17572TIP3   OH274206   1.512   0.536   4.456  0.2057  0.0275 -0.3037
17572TIP3    H174207   1.466   0.611   4.420 -0.3890  0.1059  0.5742
17572TIP3    H274208   1.451   0.499   4.521  1.4828  0.3329  1.1321
17573TIP3   OH274209   4.573   5.390  15.647 -0.5674 -0.3177 -0.1844
17573TIP3    H174210   4.643   5.326  15.660 -0.8375 -0.7129 -0.6082
17573TIP3    H274211   4.545   5.376  15.556 -1.9585 -0.9633  0.3021
17574TIP3   OH274212   2.980   4.818   2.482  0.1272 -0.4992  0.4264
17574TIP3    H174213   2.885   4.809   2.473 -0.1149  0.9243  1.3476
17574TIP3    H274214   2.992   4.880   2.554  1.7018  1.3099 -1.2774
17575TIP3   OH274215   5.176   6.191   6.013  0.2048  0.2915 -0.3673
17575TIP3    H174216   5.243   6.126   6.037 -0.1210 -0.2405 -0.8955
17575TIP3    H274217   5.106   6.178   6.077 -0.4161 -0.7434 -1.2501
17576TIP3   OH274218   0.008   5.151   3.367 -0.2796 -0.2879  0.2556
17576TIP3    H174219  -0.060   5.132   3.432  2.1071  1.5574  3.6407
17576TIP3    H274220   0.065   5.074   3.369  0.6242  0.3861  1.6150
17577TIP3   OH274221   4.586   0.266   1.234 -0.0610 -0.8214  0.4591
17577TIP3    H174222   4.671   0.301   1.208 -0.1320 -0.9687  0.0142
17577TIP3    H274223   4.546   0.235   1.152 -1.7403  1.7590  0.1968
17578TIP3   OH274224   3.131   3.897  11.512  0.4329 -0.3225 -0.6296
17578TIP3    H174225   3.077   3.840  11.566 -0.9463 -1.0299 -2.6703
17578TIP3    H274226   3.218   3.858  11.516 -0.0764 -1.4690 -0.4849
17579TIP3   OH274227   6.639   1.603   3.130  0.0475 -0.1340 -0.4039
17579TIP3    H174228   6.672   1.624   3.043  0.9160  1.4286  0.2688
17579TIP3    H274229   6.633   1.507   3.131  1.3432 -0.2529 -1.7033
17580TIP3   OH274230   6.026   5.459  14.486  0.5688  0.0826 -0.0598
17580TIP3    H174231   6.024   5.395  14.416 -1.2104  0.2155 -0.1648
17580TIP3    H274232   6.111   5.444  14.529  0.1113 -2.5276  0.1111
17581TIP3   OH274233   4.988   2.561   4.969 -0.0028 -0.0445  0.0990
17581TIP3    H174234   5.009   2.491   5.031  1.4485 -0.4607 -0.8189
17581TIP3    H274235   5.061   2.563   4.908 -1.5999 -0.0024 -1.9549
17582TIP3   OH274236   3.641   5.657   4.289 -0.2552 -0.4101  0.0795
17582TIP3    H174237   3.671   5.674   4.200  0.2030 -0.7768  0.1555
17582TIP3    H274238   3.546   5.667   4.286 -0.1497  0.4809 -0.2380
17583TIP3   OH274239   3.120   5.634  14.388  0.7549  0.0903  0.1197
17583TIP3    H174240   3.130   5.607  14.480  0.7502 -0.6938 -0.1055
17583TIP3    H274241   3.188   5.700  14.376 -0.4486  1.6141  1.2141
17584TIP3   OH274242   2.493   6.100   4.049 -0.1392 -0.3155  0.2817
17584TIP3    H174243   2.507   6.158   4.124 -1.1491  0.6417 -0.2240
17584TIP3    H274244   2.542   6.021   4.070  0.2533  0.2366  1.5812
17585TIP3   OH274245   6.375   1.308   0.423 -0.6847 -0.7559 -0.1148
17585TIP3    H174246   6.298   1.344   0.469 -1.6372 -1.1619 -1.3460
17585TIP3    H274247   6.393   1.372   0.354  0.3632 -0.4558  0.4225
17586TIP3   OH274248   6.408   3.527   3.070  0.2901  0.3885  0.4768
17586TIP3    H174249   6.431   3.554   2.981  3.4169 -1.1319  0.7114
17586TIP3    H274250   6.440   3.598   3.125 -0.0372  0.5058  0.5189
17587TIP3   OH274251   5.932   0.930   4.745 -0.1672 -0.1809 -0.4815
17587TIP3    H174252   5.959   0.854   4.693 -0.6968 -1.0459  0.4678
17587TIP3    H274253   5.840   0.914   4.765 -0.2954  0.7364 -0.3040
17588TIP3   OH274254   0.026   5.462   5.366  0.1880  0.2156  0.1455
17588TIP3    H174255   0.117   5.491   5.369  0.0524  0.6134  0.4949
17588TIP3    H274256  -0.020   5.535   5.323 -0.2103  0.6762  1.3182
17589TIP3   OH274257   5.958   3.304  13.717 -0.1216  0.2762  0.4897
17589TIP3    H174258   5.972   3.252  13.796 -0.9882 -0.3170  0.2663
17589TIP3    H274259   5.868   3.284  13.690  0.3695 -0.0162 -1.0031
17590TIP3   OH274260   2.100   4.145  13.539 -0.2191  0.2763  0.3614
17590TIP3    H174261   2.149   4.220  13.574  2.8050 -0.8838 -1.0453
17590TIP3    H274262   2.020   4.184  13.503 -0.2026  2.3598  2.3311
17591TIP3   OH274263   5.269   5.186  12.935  0.4650 -0.0087 -0.1100
17591TIP3    H174264   5.319   5.212  13.012 -1.8798 -0.5745  1.7157
17591TIP3    H274265   5.222   5.266  12.909  0.1066 -0.1952 -0.0338
17592TIP3   OH274266   0.023   5.746   3.536  0.2061  0.0302 -0.1074
17592TIP3    H174267   0.004   5.683   3.606 -1.0185  0.9158  0.3922
17592TIP3    H274268   0.025   5.693   3.456 -0.0359 -0.7521  0.3860
17593TIP3   OH274269   5.184   0.605   5.222  0.1832 -0.2370  0.0985
17593TIP3    H174270   5.186   0.593   5.317 -1.2361  0.0036  0.1775
17593TIP3    H274271   5.129   0.533   5.190  0.9659 -0.5431 -0.5886
17594TIP3   OH274272   5.845   6.361   0.872  0.8750 -0.2033 -0.5340
17594TIP3    H174273   5.772   6.341   0.812 -1.0917  0.7279  1.4058
17594TIP3    H274274   5.889   6.277   0.885 -0.0808 -0.8765 -1.4523
17595TIP3   OH274275   0.409   3.860  11.638  0.1849  0.5570 -0.3678
17595TIP3    H174276   0.376   3.861  11.548 -2.1561 -0.8028  0.4034
17595TIP3    H274277   0.453   3.775  11.646  0.1643  0.5662 -0.1563
17596TIP3   OH274278   4.352   0.392   2.087 -0.2518 -0.1321  0.2108
17596TIP3    H174279   4.289   0.441   2.034  1.0696 -0.6818 -1.9909
17596TIP3    H274280   4.437   0.422   2.056  0.5940 -2.7220 -0.1931
17597TIP3   OH274281   0.400   6.624   4.507  0.0462 -0.1920 -1.1334
17597TIP3    H174282   0.467   6.693   4.508  0.7136 -0.8272 -0.6670
17597TIP3    H274283   0.391   6.601   4.414 -1.5805  1.8128 -1.5415
17598TIP3   OH274284   3.965   2.774   5.609  0.0760 -0.0103  0.0289
17598TIP3    H174285   3.918   2.844   5.563  0.6477 -0.0478 -0.6426
17598TIP3    H274286   3.900   2.734   5.665 -0.3883  0.7296  0.0370
17599TIP3   OH274287   1.090   2.290  15.067  0.2367 -0.0694  0.1190
17599TIP3    H174288   1.121   2.244  14.989 -2.1127  2.2760 -2.4343
17599TIP3    H274289   1.110   2.382  15.050 -1.8311  0.7076  1.4373
17600TIP3   OH274290   6.096   2.405  15.586 -0.2122 -0.1610  0.4215
17600TIP3    H174291   6.160   2.425  15.655  0.6440  1.9478 -0.8924
17600TIP3    H274292   6.080   2.488  15.543 -3.1084 -0.8343 -0.0047
17601TIP3   OH274293   0.607   3.523   2.400  0.0372  0.4865 -0.2219
17601TIP3    H174294   0.575   3.577   2.472  0.6404  0.2017  0.2763
17601TIP3    H274295   0.691   3.562   2.376  0.5127 -0.2571  0.1913
17602TIP3   OH274296   3.508   6.061   4.682 -0.2399 -0.3970  0.0238
17602TIP3    H174297   3.603   6.052   4.693 -0.0633  1.3265  0.1587
17602TIP3    H274298   3.492   6.036   4.591  0.3645 -0.5643 -0.0449
17603TIP3   OH274299   0.789   1.343  13.721  0.2081 -0.2123 -0.7623
17603TIP3    H174300   0.816   1.382  13.638  0.3921  1.0840 -0.1188
17603TIP3    H274301   0.813   1.407  13.787 -1.5027 -0.4323  0.1477
17604TIP3   OH274302   1.318   0.211   3.172  0.7353 -0.4811  0.5598
17604TIP3    H174303   1.266   0.131   3.172  0.4765 -0.3128  0.2101
17604TIP3    H274304   1.255   0.281   3.156  0.9400 -0.1902  0.9926
17605TIP3   OH274305   6.596   6.244   4.810 -0.8101 -0.1192  0.6304
17605TIP3    H174306   6.640   6.172   4.765 -1.9691  0.0917 -0.9271
17605TIP3    H274307   6.661   6.278   4.871  0.3819 -1.2686  0.0365
17606TIP3   OH274308   5.484   1.016  13.443  0.2494  0.0124 -0.2308
17606TIP3    H174309   5.491   1.111  13.452 -2.0088  0.2801 -0.7937
17606TIP3    H274310   5.429   1.003  13.366  0.9401 -1.7909 -0.4696
17607TIP3   OH274311   3.547   1.439   2.397 -0.0190 -0.0568 -0.4265
17607TIP3    H174312   3.528   1.359   2.349  0.7348 -0.9375  0.6797
17607TIP3    H274313   3.476   1.499   2.373 -1.4720 -1.5649 -0.0766
17608TIP3   OH274314   5.685   5.799   2.916 -0.3187  0.3496  0.1987
17608TIP3    H174315   5.704   5.792   2.822  2.4937  3.6396  0.3373
17608TIP3    H274316   5.692   5.709   2.948  2.0922 -0.4767 -2.2269
17609TIP3   OH274317   2.901   5.937   0.937  0.1763 -0.1515 -0.1256
17609TIP3    H174318   2.860   5.851   0.926 -0.7748  0.4611 -1.6219
17609TIP3    H274319   2.828   5.999   0.935  1.1162  1.0957 -4.1382
17610TIP3   OH274320   3.934   0.140  13.692  0.3355  0.4572 -0.7774
17610TIP3    H174321   4.006   0.077  13.689  1.0130  0.9929  1.5875
17610TIP3    H274322   3.855   0.087  13.681  0.9962 -0.3970 -1.5739
17611TIP3   OH274323   4.161   1.857   3.054 -0.4465 -0.0768 -0.6297
17611TIP3    H174324   4.201   1.833   2.970 -1.2672  1.2583 -1.4469
17611TIP3    H274325   4.098   1.926   3.031 -1.4467 -0.4224  0.9449
17612TIP3   OH274326   2.700   2.639   0.072  0.3430  0.7813 -0.1213
17612TIP3    H174327   2.742   2.587   0.141  1.0678  0.0203 -1.1079
17612TIP3    H274328   2.650   2.575   0.021  1.0824  1.0637 -1.2318
17613TIP3   OH274329   0.937   3.185  13.581 -0.3271 -0.1634  0.2985
17613TIP3    H174330   1.028   3.214  13.589 -0.1788 -0.1079 -1.4159
17613TIP3    H274331   0.940   3.090  13.590  0.3315 -0.5003 -2.6534
17614TIP3   OH274332   1.635   6.182  16.550 -0.4476  0.1235  0.0738
17614TIP3    H174333   1.669   6.171  16.639  1.4050  2.7212 -0.1919
17614TIP3    H274334   1.545   6.213  16.562 -0.6473 -0.7540  0.9792
17615TIP3   OH274335   3.022   2.417  12.373  0.0055 -0.5275  0.7312
17615TIP3    H174336   3.105   2.398  12.416  0.2584  0.6498  0.7993
17615TIP3    H274337   2.995   2.502  12.408 -0.7880 -0.4818  0.0588
17616TIP3   OH274338   1.378   0.105  16.297  0.0720  0.5350 -0.3654
17616TIP3    H174339   1.284   0.089  16.294 -0.2117  1.7708  0.7553
17616TIP3    H274340   1.403   0.084  16.387  1.2200 -1.4109 -1.0975
17617TIP3   OH274341   3.039   3.964  15.398  0.0108  0.2102 -0.3039
17617TIP3    H174342   3.089   4.003  15.470 -1.3083  2.0456 -0.2954
17617TIP3    H274343   3.105   3.925  15.341  1.1162 -1.0342  1.6944
17618TIP3   OH274344   1.068   5.712  15.182  0.3515 -0.2499 -0.0223
17618TIP3    H174345   1.091   5.803  15.166 -0.6687 -0.2452 -1.7551
17618TIP3    H274346   1.139   5.678  15.236  2.7183  0.6178 -2.3618
17619TIP3   OH274347   5.502   3.048   5.269 -0.0692 -0.2323 -0.0614
17619TIP3    H174348   5.577   3.082   5.319  0.8334 -0.1948 -1.3822
17619TIP3    H274349   5.443   3.123   5.262  0.7154  0.3496 -0.7285
17620TIP3   OH274350   4.536   5.936   5.881  0.6327 -0.0732 -0.0908
17620TIP3    H174351   4.460   5.907   5.830  0.6058  0.6922 -0.5142
17620TIP3    H274352   4.502   6.007   5.936  0.8466 -0.3325  0.3816
17621TIP3   OH274353   2.443   3.793  13.328 -0.4509  0.5234  0.4007
17621TIP3    H174354   2.421   3.791  13.422  2.7461  1.4307  1.3075
17621TIP3    H274355   2.366   3.756  13.285 -2.5284  1.1080  3.2682
17622TIP3   OH274356   5.962   2.467   1.416 -0.1592 -0.1934  0.4187
17622TIP3    H174357   6.003   2.550   1.390 -1.0360  0.0085 -0.3976
17622TIP3    H274358   5.984   2.407   1.345 -0.1115 -0.4686  0.6669
17623TIP3   OH274359   6.312   5.879   0.180 -0.0991  0.1869 -0.3680
17623TIP3    H174360   6.360   5.807   0.221  0.1048  0.3078 -0.3953
17623TIP3    H274361   6.308   5.855   0.088 -1.6500 -0.7116 -0.1103
17624TIP3   OH274362   3.780   5.096  17.196  0.5491  0.1996  0.6732
17624TIP3    H174363   3.835   5.037  17.145 -0.5373  0.4110 -0.8102
17624TIP3    H274364   3.692   5.059  17.190 -0.1088  1.7872 -0.0533
17625TIP3   OH274365   4.138   4.798   5.954  0.4182 -0.0308  0.1827
17625TIP3    H174366   4.214   4.792   5.896  0.1039  1.4814 -0.4240
17625TIP3    H274367   4.172   4.776   6.041  0.9982 -1.8277 -0.4527
17626TIP3   OH274368   4.004   0.731  15.798 -0.2464  0.4345 -0.0373
17626TIP3    H174369   3.933   0.698  15.854 -0.0384  1.2799  0.7422
17626TIP3    H274370   4.061   0.655  15.785 -0.6444  0.0623  0.3422
17627TIP3   OH274371   1.906   3.426  14.269 -0.0808 -0.0109  0.0523
17627TIP3    H174372   1.989   3.421  14.318 -0.9644  0.1946  1.6233
17627TIP3    H274373   1.841   3.387  14.327 -0.8345 -1.7091 -1.8376
17628TIP3   OH274374   0.000   3.834  15.793 -0.1889  0.1388 -0.2354
17628TIP3    H174375  -0.030   3.793  15.712  1.9587 -2.4923  0.1444
17628TIP3    H274376   0.084   3.874  15.769  0.9064 -1.4248  0.7747
17629TIP3   OH274377   0.373   4.213  14.682 -0.0289 -0.0168  0.2376
17629TIP3    H174378   0.442   4.278  14.669 -0.9276  1.0315  0.5816
17629TIP3    H274379   0.391   4.176  14.769  0.1250  0.2027  0.2996
17630TIP3   OH274380   2.877   3.650   0.485 -0.1235 -0.1353 -0.9276
17630TIP3    H174381   2.861   3.668   0.577  1.3999  0.1316 -0.6973
17630TIP3    H274382   2.789   3.641   0.447 -0.7675 -0.5047  0.5769
17631TIP3   OH274383   2.201   5.493  10.345 -0.1498 -0.9286  0.5277
17631TIP3    H174384   2.215   5.571  10.291  0.8400 -0.5526  1.2971
17631TIP3    H274385   2.106   5.481  10.347 -0.2178 -1.0697 -1.4326
17632TIP3   OH274386   4.203   3.603   3.671  0.5460 -0.0192 -0.1194
17632TIP3    H174387   4.155   3.681   3.697 -1.6557 -0.9479 -1.1414
17632TIP3    H274388   4.211   3.611   3.576  1.1347 -0.5839 -0.1231
17633TIP3   OH274389   3.813   1.509  16.442 -0.3753  0.7501 -0.8017
17633TIP3    H174390   3.742   1.496  16.379  0.8153  0.3610 -2.1331
17633TIP3    H274391   3.848   1.421  16.457  0.5324  1.0469 -1.0633
17634TIP3   OH274392   0.787   5.889  15.791 -0.2267  0.3793 -0.7999
17634TIP3    H174393   0.786   5.942  15.870 -0.2149  0.1884 -0.6705
17634TIP3    H274394   0.694   5.870  15.774 -0.1352 -1.1486  0.2352
17635TIP3   OH274395   6.611   1.434   2.338  0.4247  0.6625 -0.0671
17635TIP3    H174396   6.594   1.405   2.248 -0.6470  2.3820 -0.4663
17635TIP3    H274397   6.647   1.522   2.328  3.7921 -0.4127  1.0779
17636TIP3   OH274398   5.966   3.623   3.171  0.0826 -0.0492 -0.1478
17636TIP3    H174399   5.977   3.617   3.266 -0.8866  2.3191  0.1937
17636TIP3    H274400   5.887   3.572   3.153 -1.4417  1.8211  0.8209
17637TIP3   OH274401   6.772   4.560   0.958 -0.0882  0.2301 -0.0298
17637TIP3    H174402   6.711   4.612   1.011 -0.4295  1.0364 -1.1707
17637TIP3    H274403   6.857   4.575   0.999 -0.4905 -0.0676  0.9544
17638TIP3   OH274404   4.016   6.614  12.225  0.1057 -0.1307 -0.5349
17638TIP3    H174405   3.966   6.611  12.307  0.5265  2.8055 -0.0506
17638TIP3    H274406   4.008   6.526  12.189 -1.2419 -1.1498  1.9706
17639TIP3   OH274407   0.323   5.165  12.250 -0.5377 -0.2536 -0.2185
17639TIP3    H174408   0.267   5.226  12.298 -2.0406 -0.6567 -1.3875
17639TIP3    H274409   0.302   5.079  12.285 -0.9242 -0.4429 -0.8872
17640TIP3   OH274410   6.581   4.000   4.917 -0.6258  0.2162 -0.4672
17640TIP3    H174411   6.592   3.905   4.924 -0.7213  0.0263 -2.2924
17640TIP3    H274412   6.500   4.018   4.963 -0.2225 -0.4709  0.5536
17641TIP3   OH274413   5.167   0.388   0.466 -0.2424 -0.0328 -0.2847
17641TIP3    H174414   5.165   0.292   0.455 -1.4661  0.0003 -0.4461
17641TIP3    H274415   5.193   0.400   0.558 -0.6077 -0.5346 -0.1063
17642TIP3   OH274416   0.347   3.791  16.400 -0.0191 -0.0490 -0.2047
17642TIP3    H174417   0.299   3.764  16.479 -0.8882 -2.0059 -1.3135
17642TIP3    H274418   0.433   3.749  16.409  0.1625  0.3695  0.0444
17643TIP3   OH274419   4.031   4.928  14.345  0.0608 -0.1949  0.0455
17643TIP3    H174420   4.074   4.973  14.273  0.4828 -0.4027  0.1642
17643TIP3    H274421   4.031   4.836  14.320  1.4150 -0.4580  0.8913
17644TIP3   OH274422   3.058   5.627  16.171  0.3466 -0.3077 -0.0845
17644TIP3    H174423   3.132   5.687  16.179  1.0833 -1.3044  0.7584
17644TIP3    H274424   3.001   5.649  16.244  0.8907 -0.9869  0.5567
17645TIP3   OH274425   0.938   4.778   3.689 -0.7089 -0.1645 -0.4998
17645TIP3    H174426   0.993   4.732   3.752  1.0053  0.0596 -1.7695
17645TIP3    H274427   0.947   4.871   3.712 -0.6614 -0.1380 -0.6234
17646TIP3   OH274428   0.937   1.138   3.297  0.3428 -0.5822  0.3613
17646TIP3    H174429   0.938   1.163   3.205  4.5273 -0.0055  0.3967
17646TIP3    H274430   0.949   1.043   3.297 -0.7918 -0.7442  0.3714
17647TIP3   OH274431   4.266   5.115  10.960 -0.4832  0.2259  0.3616
17647TIP3    H174432   4.360   5.100  10.953 -0.4442 -0.1789  1.4517
17647TIP3    H274433   4.227   5.034  10.927 -0.4686  0.5378 -0.4413
17648TIP3   OH274434   2.912   0.491   5.071  0.0554  0.3398  0.4436
17648TIP3    H174435   2.990   0.521   5.025  0.5478 -0.1503  0.9509
17648TIP3    H274436   2.927   0.512   5.163 -0.0608 -0.4576  0.6560
17649TIP3   OH274437   3.874   3.694  16.506  0.1790 -0.4538 -0.1523
17649TIP3    H174438   3.901   3.782  16.534  0.4362 -0.6394  0.1832
17649TIP3    H274439   3.879   3.641  16.586  1.2191 -1.0579 -0.6042
17650TIP3   OH274440   3.804   5.063  14.354 -0.1550 -0.2749  0.7284
17650TIP3    H174441   3.758   4.989  14.313 -0.2325  0.1680  0.0079
17650TIP3    H274442   3.896   5.034  14.359 -0.0398 -0.1117 -0.2903
17651TIP3   OH274443   5.645   4.765   1.389 -0.1835 -0.1449  0.2537
17651TIP3    H174444   5.602   4.746   1.305 -0.3016  0.9638  0.0564
17651TIP3    H274445   5.708   4.694   1.400 -2.5590 -2.3310  0.9295
17652TIP3   OH274446   4.069   3.710  15.425  0.6973 -0.3519  0.0947
17652TIP3    H174447   4.107   3.775  15.484 -1.3499  0.9792  0.0400
17652TIP3    H274448   4.012   3.657  15.481 -1.1626  0.8418 -0.5595
17653TIP3   OH274449   0.304   0.676   0.247  0.0828  0.8949 -0.0713
17653TIP3    H174450   0.300   0.771   0.236 -1.6616  1.0988  1.7991
17653TIP3    H274451   0.217   0.645   0.222  1.0258 -0.4407 -1.9796
17654TIP3   OH274452   1.303   3.615   1.552  0.2140 -0.3661 -1.0985
17654TIP3    H174453   1.304   3.711   1.558 -0.9380 -0.2565 -2.1929
17654TIP3    H274454   1.215   3.594   1.519 -1.1645 -2.0876  3.0339
17655TIP3   OH274455   6.298   1.762   3.405 -0.6074  0.2007 -0.1539
17655TIP3    H174456   6.384   1.785   3.370  0.1869 -2.0297  0.1565
17655TIP3    H274457   6.279   1.831   3.468  0.4505  1.3136 -0.9994
17656TIP3   OH274458   4.109   3.609   4.082 -0.2457 -0.7871 -0.6043
17656TIP3    H174459   4.174   3.554   4.125  0.2807 -0.7758 -1.3608
17656TIP3    H274460   4.024   3.575   4.111  0.0899 -0.7899  0.4040
17657TIP3   OH274461   5.625   3.651  16.707  0.0512  0.4519  0.0554
17657TIP3    H174462   5.540   3.689  16.732  0.2277  0.0665  1.2610
17657TIP3    H274463   5.619   3.559  16.731  0.8113  0.4147  0.1269
17658TIP3   OH274464   6.730   3.539  14.942  0.0418  0.5318  0.5215
17658TIP3    H174465   6.745   3.445  14.932  0.0214  0.6007 -0.1775
17658TIP3    H274466   6.635   3.548  14.936  0.1531  0.8072 -1.3871
17659TIP3   OH274467   6.592   3.428  12.776 -0.4040  0.0915 -0.3510
17659TIP3    H174468   6.580   3.503  12.718 -0.0815  0.0630 -0.4599
17659TIP3    H274469   6.682   3.399  12.758  0.1071  0.7715  0.9537
17660TIP3   OH274470   4.858   2.318   1.996  0.0829 -0.5402 -0.1052
17660TIP3    H174471   4.793   2.354   2.056  0.0149  0.4627 -0.7519
17660TIP3    H274472   4.866   2.384   1.927  0.9822 -1.1522 -0.6093
17661TIP3   OH274473   1.005   0.044   5.682  0.7777 -0.1452  0.1095
17661TIP3    H174474   1.087   0.037   5.634  1.4901  1.9211  0.9098
17661TIP3    H274475   1.011   0.128   5.727 -0.7634 -1.0022  2.0831
17662TIP3   OH274476   5.874   5.230  12.343 -0.1938 -0.0385  0.6799
17662TIP3    H174477   5.894   5.256  12.433  0.6757  0.5490  0.3310
17662TIP3    H274478   5.821   5.302  12.309 -0.3774 -0.1791  0.6714
17663TIP3   OH274479   3.630   1.198   4.193  0.1607  0.0161  0.6045
17663TIP3    H174480   3.620   1.191   4.098  0.2482  0.3222  0.5719
17663TIP3    H274481   3.545   1.171   4.228 -0.3902  1.3690  0.3790
17664TIP3   OH274482   5.294   2.219  10.705  0.0321  0.2088 -0.4831
17664TIP3    H174483   5.377   2.243  10.746  0.0385  0.6243 -0.7355
17664TIP3    H274484   5.273   2.134  10.743  0.8950 -0.2009 -0.8892
17665TIP3   OH274485   5.989   0.187   0.594 -0.0623  0.3812  0.0271
17665TIP3    H174486   5.995   0.193   0.689  0.4440  0.5249 -0.0121
17665TIP3    H274487   5.953   0.272   0.567  0.8911  0.7839  0.0007
17666TIP3   OH274488   3.745   2.126  12.320  0.0566  0.6453 -0.3218
17666TIP3    H174489   3.796   2.097  12.244 -0.5286 -0.0805 -0.4487
17666TIP3    H274490   3.800   2.192  12.362  0.4248  0.9949 -1.3269
17667TIP3   OH274491   6.534   0.033   0.500  0.2362 -0.1018 -0.2780
17667TIP3    H174492   6.484  -0.043   0.533 -0.2404  0.6026  0.6913
17667TIP3    H274493   6.482   0.108   0.527 -0.9410  0.5659 -3.9234
17668TIP3   OH274494   0.556   1.190  16.095 -0.0714 -0.4133  0.0887
17668TIP3    H174495   0.565   1.107  16.141 -1.1806  0.2457  1.5987
17668TIP3    H274496   0.507   1.246  16.156  1.4704  1.6690 -0.4615
17669TIP3   OH274497   6.426   4.583   4.453  0.8424  0.6615  0.0993
17669TIP3    H174498   6.432   4.622   4.365  0.9840 -0.2418 -0.3110
17669TIP3    H274499   6.434   4.489   4.437 -0.6345  0.3759  0.9450
17670TIP3   OH274500   4.427   2.397  15.094  0.1575  0.1621  1.0999
17670TIP3    H174501   4.520   2.419  15.091 -0.1891  1.7489  1.3359
17670TIP3    H274502   4.394   2.420  15.007 -0.0948 -0.0391  1.1393
17671TIP3   OH274503   4.824   2.652   0.666  0.4148 -0.1211 -0.0751
17671TIP3    H174504   4.744   2.604   0.684  1.0699 -0.3548  2.6396
17671TIP3    H274505   4.861   2.609   0.588 -1.7687 -0.3249 -1.0675
17672TIP3   OH274506   0.499   4.661  17.173  0.1749  0.0965 -0.0829
17672TIP3    H174507   0.409   4.638  17.193  0.1175  0.5934  0.2394
17672TIP3    H274508   0.531   4.705  17.252  0.1426  1.4958 -0.8096
17673TIP3   OH274509   0.056   2.591  16.283 -0.9097  0.5315  0.1100
17673TIP3    H174510   0.099   2.539  16.352  1.0312  1.1900 -0.5480
17673TIP3    H274511   0.124   2.650  16.252 -1.4316 -0.3731 -3.0576
17674TIP3   OH274512   5.539   2.393  11.994 -0.0484 -0.8220  0.1812
17674TIP3    H174513   5.528   2.466  12.055  0.4105 -1.1758  0.7032
17674TIP3    H274514   5.453   2.352  11.990 -0.6647  0.4788 -1.1030
17675TIP3   OH274515   6.717   2.379   1.618  0.0840 -0.0965 -0.0089
17675TIP3    H174516   6.763   2.309   1.665 -0.9965 -1.4416 -0.8630
17675TIP3    H274517   6.748   2.373   1.528 -0.4824  0.1081 -0.2253
17676TIP3   OH274518   1.646   0.497  10.826  0.4979  0.5361  0.0881
17676TIP3    H174519   1.609   0.473  10.911  2.2314  0.0566  0.7404
17676TIP3    H274520   1.589   0.567  10.794 -2.5064 -1.7939 -0.1774
17677TIP3   OH274521   5.085   1.549   4.756 -0.1874 -0.2180  0.6413
17677TIP3    H174522   5.103   1.513   4.843  0.1068 -2.1913 -0.1763
17677TIP3    H274523   5.129   1.489   4.696 -1.2313  0.5265 -0.9279
17678TIP3   OH274524   4.787   6.782  16.501  0.3533 -0.4704 -0.5124
17678TIP3    H174525   4.879   6.798  16.520  1.0312 -2.9075 -1.3510
17678TIP3    H274526   4.787   6.702  16.447 -2.0883  0.6767 -2.4227
17679TIP3   OH274527   0.954   1.510   6.052  0.5630  0.7370  0.1263
17679TIP3    H174528   0.980   1.600   6.035 -0.1506  0.8695 -0.2990
17679TIP3    H274529   0.867   1.516   6.091 -0.3590  0.1978 -1.6959
17680TIP3   OH274530   4.308   4.097   2.271 -0.3787 -0.0062  0.5974
17680TIP3    H174531   4.326   4.018   2.321 -1.1537 -0.6217 -0.0726
17680TIP3    H274532   4.384   4.106   2.213  0.0004  0.0958  1.1039
17681TIP3   OH274533   2.480   4.008  12.199  0.8959 -0.2742  0.2132
17681TIP3    H174534   2.473   3.997  12.104  1.4427 -2.4568  0.3877
17681TIP3    H274535   2.542   4.081  12.210  0.5905  0.2066 -1.0834
17682TIP3   OH274536   6.605   0.607   5.262 -0.5699 -0.0276  0.2044
17682TIP3    H174537   6.697   0.630   5.249 -0.8697 -0.0785 -2.4825
17682TIP3    H274538   6.568   0.683   5.308  0.5931  0.3905  0.4770
17683TIP3   OH274539   2.833   1.427  16.475  0.6383 -0.1045 -0.2187
17683TIP3    H174540   2.800   1.460  16.558  0.2047  0.0174 -0.4389
17683TIP3    H274541   2.757   1.425  16.418  1.0506  0.3825 -0.7954
17684TIP3   OH274542   4.060   5.207  11.103  0.1380 -0.2549 -0.7621
17684TIP3    H174543   3.987   5.230  11.046 -0.1624 -1.2131 -0.7813
17684TIP3    H274544   4.123   5.165  11.044 -0.3693 -1.6646 -0.3327
17685TIP3   OH274545   4.765   6.604   6.251 -0.2663  0.4241  0.1851
17685TIP3    H174546   4.787   6.519   6.214  1.3640  0.5515  0.8055
17685TIP3    H274547   4.673   6.618   6.225 -1.8400 -3.0771  2.9775
17686TIP3   OH274548   5.695   5.598   3.534 -0.2171 -0.0134  0.6670
17686TIP3    H174549   5.653   5.513   3.548 -1.3068  0.5742  1.0119
17686TIP3    H274550   5.652   5.657   3.596  0.5319  0.7961  0.4347
17687TIP3   OH274551   2.846   6.802   6.195 -0.2160  0.5480  0.4085
17687TIP3    H174552   2.927   6.762   6.228  0.3648 -0.4191 -2.0119
17687TIP3    H274553   2.827   6.872   6.258  1.5451 -0.2775  1.9745
17688TIP3   OH274554   5.507   2.808   2.248 -0.1895 -0.4525  0.0721
17688TIP3    H174555   5.533   2.832   2.337  1.4620 -2.9012  0.3522
17688TIP3    H274556   5.510   2.712   2.247  2.4386 -0.5436 -3.2689
17689TIP3   OH274557   1.778   5.658  13.577 -0.2375  0.3263 -0.6556
17689TIP3    H174558   1.683   5.645  13.572 -0.3626  1.4367 -3.3962
17689TIP3    H274559   1.804   5.674  13.486  2.5954  0.1009  0.0261
17690TIP3   OH274560   3.394   5.692   4.862  0.1819 -0.4507 -0.8389
17690TIP3    H174561   3.332   5.764   4.873  0.6898 -0.3045  1.6384
17690TIP3    H274562   3.380   5.661   4.773 -0.8461  1.9601 -1.5829
17691TIP3   OH274563   1.372   2.522  17.076  0.4115 -0.0578  0.2142
17691TIP3    H174564   1.436   2.565  17.019  0.0120  0.2284 -0.0207
17691TIP3    H274565   1.380   2.567  17.160 -0.6302  1.0880 -0.2814
17692TIP3   OH274566   1.532   2.928   1.317  0.6207 -0.3144 -0.6065
17692TIP3    H174567   1.566   2.848   1.357 -2.0198 -0.4655  1.6921
17692TIP3    H274568   1.444   2.905   1.288 -0.5487  1.8730  0.8798
17693TIP3   OH274569   1.015   6.590  14.462  0.0568  0.6575 -0.2015
17693TIP3    H174570   1.083   6.556  14.520  1.8075  1.7690 -1.4938
17693TIP3    H274571   1.030   6.545  14.379 -1.5578  0.0811 -0.2146
17694TIP3   OH274572   0.728   4.967   2.773  0.3160  0.5713 -0.1968
17694TIP3    H174573   0.759   5.056   2.790  0.5004  0.3264  0.8183
17694TIP3    H274574   0.704   4.933   2.859 -0.5024 -0.0911 -0.6693
17695TIP3   OH274575   6.590   2.287   3.437 -0.0222 -0.0090 -0.7521
17695TIP3    H174576   6.592   2.273   3.532  0.1468  0.1503 -0.7319
17695TIP3    H274577   6.676   2.258   3.407  0.1157  0.4268 -0.7868
17696TIP3   OH274578   3.530   3.094   3.925  0.3696 -0.3617  0.0327
17696TIP3    H174579   3.463   3.118   3.860 -0.3989 -0.1174  0.8981
17696TIP3    H274580   3.541   2.999   3.913 -0.4909 -0.4944  0.1995
17697TIP3   OH274581   5.466   1.412   3.542  0.1886  0.1279 -0.4573
17697TIP3    H174582   5.456   1.480   3.475  0.7447  0.6983  0.0315
17697TIP3    H274583   5.511   1.455   3.614 -0.4574 -0.4707  0.3206
17698TIP3   OH274584   4.703   3.994   2.331 -0.0326  0.3030 -0.2172
17698TIP3    H174585   4.656   4.064   2.378  0.7845 -0.6520  2.1543
17698TIP3    H274586   4.662   3.992   2.245  0.0039  3.7970 -0.4548
17699TIP3   OH274587   2.241   0.303   5.243 -0.1652  0.6253 -0.2051
17699TIP3    H174588   2.179   0.376   5.245 -1.2459 -0.2660  0.1164
17699TIP3    H274589   2.291   0.317   5.163 -1.9025  0.4939 -1.3905
17700TIP3   OH274590   3.321   5.953   3.015 -0.0231 -0.4593 -0.2109
17700TIP3    H174591   3.319   5.867   3.056  3.0375 -0.1946  0.7112
17700TIP3    H274592   3.230   5.982   3.017 -0.8011 -2.7165  1.4857
17701TIP3   OH274593   4.865   2.546   3.718  0.1517  0.1003  0.1632
17701TIP3    H174594   4.892   2.456   3.737 -1.9196 -0.4533  0.6899
17701TIP3    H274595   4.886   2.558   3.625  2.0514 -0.2804  0.5022
17702TIP3   OH274596   4.087   3.164   4.991 -0.1758 -0.0286  0.2084
17702TIP3    H174597   4.172   3.121   4.984 -0.9378 -1.7445  0.6327
17702TIP3    H274598   4.053   3.166   4.902  0.3314  0.6905  0.0355
17703TIP3   OH274599   1.538   1.017   3.154  0.2878 -0.6514 -0.3134
17703TIP3    H174600   1.543   0.959   3.078  0.5006  0.3093 -1.0441
17703TIP3    H274601   1.446   1.044   3.158  0.1180 -1.2815  0.2237
17704TIP3   OH274602   0.309   3.815   5.981 -0.0751 -0.1003  0.2640
17704TIP3    H174603   0.345   3.873   6.048 -0.5372  0.4332  0.0614
17704TIP3    H274604   0.370   3.742   5.977  1.1239  0.9027 -0.2743
17705TIP3   OH274605   3.758   2.027   5.137 -0.2644  0.4935  0.1284
17705TIP3    H174606   3.784   1.997   5.225 -0.1761 -0.6549 -0.2689
17705TIP3    H274607   3.803   2.110   5.126  1.3161 -0.2802  0.4326
17706TIP3   OH274608   6.728   3.187  12.592  0.7216  0.0389 -0.3070
17706TIP3    H174609   6.666   3.204  12.663 -0.3457 -2.2581 -0.5996
17706TIP3    H274610   6.803   3.145  12.635  0.7144 -0.0112 -0.3430
17707TIP3   OH274611   1.557   1.734  10.999 -0.6852  0.0187 -0.1869
17707TIP3    H174612   1.465   1.757  11.012 -0.8033 -0.8090  0.5240
17707TIP3    H274613   1.568   1.651  11.046  0.4539  0.1685 -0.1599
17708TIP3   OH274614   5.287   5.091  16.376 -0.3911 -0.1184 -0.4900
17708TIP3    H174615   5.199   5.053  16.377 -0.3932 -0.1033  0.5370
17708TIP3    H274616   5.293   5.142  16.456 -0.1418  1.5402 -1.5152
17709TIP3   OH274617   0.949   1.090   2.073 -0.1937 -0.1230  0.5585
17709TIP3    H174618   0.927   1.131   1.989  0.2621 -0.1779  0.4074
17709TIP3    H274619   0.994   1.158   2.122 -0.3922 -0.1154  0.7340
17710TIP3   OH274620   4.335   1.430  13.654 -0.0090 -0.2612  0.2105
17710TIP3    H174621   4.359   1.478  13.575  1.6088  1.0354  1.4258
17710TIP3    H274622   4.397   1.358  13.659 -0.4848 -0.6957  0.0188
17711TIP3   OH274623   3.620   5.586   2.350 -0.2035  0.6689 -1.0354
17711TIP3    H174624   3.560   5.577   2.423  0.3222  0.1545 -0.6546
17711TIP3    H274625   3.613   5.678   2.323 -1.5122  0.5002 -1.3208
17712TIP3   OH274626   5.565   0.696   3.863 -0.4191  0.4703 -0.3351
17712TIP3    H174627   5.522   0.639   3.926 -0.1814  2.2287  1.5373
17712TIP3    H274628   5.518   0.779   3.869  1.4311  1.5764 -0.2892
17713TIP3   OH274629   3.595   5.069   5.549  0.4135  0.5642 -0.5542
17713TIP3    H174630   3.680   5.112   5.545  1.3031 -0.8737  1.2529
17713TIP3    H274631   3.590   5.034   5.638 -1.9792  0.3934 -0.6977
17714TIP3   OH274632   4.876   5.358   1.257 -0.1720  0.2403 -0.3938
17714TIP3    H174633   4.801   5.403   1.217 -0.7432  0.0091  0.3931
17714TIP3    H274634   4.838   5.278   1.294  0.4024  0.2969  0.3209
17715TIP3   OH274635   6.208   0.779  13.651  0.0083  0.2032  0.2166
17715TIP3    H174636   6.162   0.804  13.731  0.6118  1.1235  0.2958
17715TIP3    H274637   6.220   0.685  13.658  0.6259  0.3638  1.5282
17716TIP3   OH274638   5.438   0.560   4.078 -0.0870  0.7575 -0.1008
17716TIP3    H174639   5.415   0.647   4.109 -2.2443  0.6338 -1.1685
17716TIP3    H274640   5.527   0.545   4.111  0.0009  2.9851  0.8249
17717TIP3   OH274641   1.445   3.231   4.431 -1.3568  0.4922  0.6491
17717TIP3    H174642   1.480   3.235   4.342 -0.1352  0.0595  1.0965
17717TIP3    H274643   1.431   3.323   4.455 -0.6785  0.6660  0.3994
17718TIP3   OH274644   4.012   5.176  13.160  0.6843  0.0155  0.9422
17718TIP3    H174645   3.972   5.120  13.226  1.4974 -1.2769  0.3873
17718TIP3    H274646   4.067   5.237  13.210  0.2045 -0.0285  1.5276
17719TIP3   OH274647   5.262   1.455   3.821 -0.3827 -0.4112 -0.2307
17719TIP3    H174648   5.277   1.374   3.869  0.9536  0.0645  0.1996
17719TIP3    H274649   5.338   1.510   3.840 -0.7652  0.5664 -1.3149
17720TIP3   OH274650   6.142   3.357  14.923  0.3439 -0.5815  0.2410
17720TIP3    H174651   6.220   3.413  14.926  0.3215 -0.5452  0.1247
17720TIP3    H274652   6.164   3.282  14.979  0.4699 -0.5822  0.1891
17721TIP3   OH274653   5.648   2.928  14.277  0.0399 -0.2547  0.4544
17721TIP3    H174654   5.618   2.864  14.213 -0.1005 -1.8878  2.0750
17721TIP3    H274655   5.643   2.882  14.361 -1.5858  2.3496  1.9342
17722TIP3   OH274656   0.539   4.952   1.348  0.0247 -0.4340 -0.3208
17722TIP3    H174657   0.498   4.980   1.266 -0.7498 -0.1819  0.1408
17722TIP3    H274658   0.606   5.018   1.365  0.5717 -0.7909 -1.0274
17723TIP3   OH274659   3.773   2.009   4.568 -0.3361 -0.4744 -0.1502
17723TIP3    H174660   3.780   1.924   4.612  0.6283  0.5773  1.8643
17723TIP3    H274661   3.861   2.026   4.534 -0.4361 -0.1270 -0.2420
17724TIP3   OH274662   5.660   1.639  16.110 -0.3801 -0.4486  0.1769
17724TIP3    H174663   5.639   1.548  16.131 -0.9329 -0.3929 -0.1148
17724TIP3    H274664   5.577   1.677  16.084  0.0396 -0.1422 -0.7473
17725TIP3   OH274665   5.374   4.777   1.539 -0.1576 -0.3085  0.1821
17725TIP3    H174666   5.381   4.728   1.456 -1.8218  1.7488 -1.2708
17725TIP3    H274667   5.458   4.821   1.547  0.1459 -0.7882 -0.2233
17726TIP3   OH274668   3.202   5.510   3.481 -0.0684  0.7123  0.7865
17726TIP3    H174669   3.253   5.564   3.421 -1.4009  1.5395  0.3655
17726TIP3    H274670   3.169   5.571   3.547 -0.1488  0.1242  1.2976
17727TIP3   OH274671   5.398   5.616   2.582  0.5315  0.0231 -0.6814
17727TIP3    H174672   5.308   5.601   2.554  0.2922 -0.4265  0.3041
17727TIP3    H274673   5.407   5.567   2.664  1.5332  0.4315 -0.5295
17728TIP3   OH274674   2.789   1.236  16.075 -0.2783 -0.0722  0.4085
17728TIP3    H174675   2.717   1.287  16.112 -0.6090 -0.5934  0.4913
17728TIP3    H274676   2.867   1.286  16.097 -0.6838  1.0131 -0.5507
17729TIP3   OH274677   0.219   2.753  15.307 -0.1473  0.0629  0.1671
17729TIP3    H174678   0.194   2.678  15.361  2.5201 -1.0964 -0.0207
17729TIP3    H274679   0.185   2.829  15.354  1.7907 -0.9076  3.4613
17730TIP3   OH274680   6.707   1.266   4.544 -0.5243  0.1608  0.1558
17730TIP3    H174681   6.686   1.182   4.584  0.7396 -0.1250  0.2836
17730TIP3    H274682   6.686   1.331   4.611 -0.3585 -0.1524  0.5142
17731TIP3   OH274683   0.899   1.639   0.964  0.1704 -0.2794  0.3133
17731TIP3    H174684   0.879   1.709   0.902  0.9981 -0.2565  0.0520
17731TIP3    H274685   0.867   1.671   1.048 -2.0083 -0.7987 -0.2623
17732TIP3   OH274686   5.700   0.786   4.808  0.6821 -1.1156  0.2550
17732TIP3    H174687   5.608   0.810   4.798  0.6939 -1.4741 -0.8421
17732TIP3    H274688   5.707   0.699   4.769  1.5327 -0.9992  0.1301
17733TIP3   OH274689   2.458   3.423   4.959  0.6940 -0.5060  1.6778
17733TIP3    H174690   2.524   3.487   4.934 -1.0263  1.7344  2.5565
17733TIP3    H274691   2.445   3.435   5.052 -1.6754 -0.1058  1.3641
17734TIP3   OH274692   0.417   1.595   4.827 -0.1089 -0.0230  0.4122
17734TIP3    H174693   0.442   1.685   4.803 -0.0763 -0.2366 -0.3915
17734TIP3    H274694   0.344   1.575   4.769  0.8959 -1.0791 -0.5388
17735TIP3   OH274695   2.093   5.181   5.917  0.3335  0.1677 -0.1824
17735TIP3    H174696   2.103   5.104   5.973 -1.8228  0.3990  0.5916
17735TIP3    H274697   2.177   5.187   5.871  0.8491 -2.1652  0.2991
17736TIP3   OH274698   3.820   2.856   5.422 -0.3321 -0.0703 -0.1065
17736TIP3    H174699   3.871   2.910   5.362 -1.8003  0.2733 -1.1046
17736TIP3    H274700   3.741   2.833   5.372  0.3039 -3.3466  0.1546
17737TIP3   OH274701   4.116   1.419   5.075  0.5345  0.0123  0.0908
17737TIP3    H174702   4.128   1.492   5.015 -0.4288  0.5498  0.5323
17737TIP3    H274703   4.027   1.388   5.058  0.7345 -0.7106  0.2959
17738TIP3   OH274704   3.348   1.562  13.921 -0.2112  0.1748  0.4040
17738TIP3    H174705   3.333   1.506  13.845 -0.2784  0.7699 -0.0320
17738TIP3    H274706   3.303   1.518  13.993  2.7427 -2.2517  0.9636
17739TIP3   OH274707   5.672   1.830  15.173 -0.5083  0.1161 -0.3240
17739TIP3    H174708   5.675   1.745  15.216  2.0070  0.2436 -0.1128
17739TIP3    H274709   5.643   1.811  15.084 -1.3029 -0.7503  0.0975
17740TIP3   OH274710   1.881   1.556   2.525 -0.2723  0.1273  0.1022
17740TIP3    H174711   1.958   1.518   2.568 -0.0447  0.1249 -0.2946
17740TIP3    H274712   1.907   1.646   2.505  0.0180 -0.1646 -0.9443
17741TIP3   OH274713   2.844   6.452  12.516  0.1082 -0.1387  0.1448
17741TIP3    H174714   2.796   6.533  12.531 -0.7356 -0.5799 -0.0618
17741TIP3    H274715   2.866   6.421  12.604 -1.5446 -0.8113  0.3684
17742TIP3   OH274716   1.409   6.743   2.037  0.2366 -0.5511  0.3991
17742TIP3    H174717   1.403   6.824   1.986 -1.2186  0.1829  1.6733
17742TIP3    H274718   1.348   6.683   1.993  0.4461 -0.5789  0.1415
17743TIP3   OH274719   4.429   0.414  12.896 -0.0452  0.7228 -0.2155
17743TIP3    H174720   4.392   0.384  12.814 -0.8919  1.1170  0.0122
17743TIP3    H274721   4.405   0.346  12.959  1.3287 -0.0064 -0.4392
17744TIP3   OH274722   0.363   3.958   4.532 -0.1516 -0.1384  0.1326
17744TIP3    H174723   0.353   3.908   4.613 -1.8947 -1.5815 -0.8924
17744TIP3    H274724   0.439   3.919   4.489  1.0181  0.8919  1.2217
17745TIP3   OH274725   1.005   0.432  14.502  0.3251 -0.0950  0.4962
17745TIP3    H174726   1.021   0.526  14.511 -0.7562  0.4732 -2.3727
17745TIP3    H274727   0.946   0.410  14.574  1.4196  1.1410  1.8329
17746TIP3   OH274728   1.637   1.198  10.850 -0.1151  0.9792 -0.4892
17746TIP3    H174729   1.598   1.117  10.818 -0.7664  1.3084 -0.5271
17746TIP3    H274730   1.627   1.260  10.779  0.5053  1.0669 -0.5109
17747TIP3   OH274731   6.083   4.843  12.327  0.4837  0.0919 -0.1509
17747TIP3    H174732   6.105   4.816  12.416 -0.5181 -1.7533 -0.4109
17747TIP3    H274733   5.999   4.888  12.335  0.5313  0.1802 -0.1401
17748TIP3   OH274734   6.797   1.680   2.551 -0.1850  0.4730  0.3645
17748TIP3    H174735   6.829   1.690   2.641  0.5873  0.2252  0.1200
17748TIP3    H274736   6.802   1.768   2.514  2.6672  0.0708 -0.4669
17749TIP3   OH274737   2.668   5.133   2.012 -0.1314 -0.5952 -0.1705
17749TIP3    H174738   2.732   5.089   2.068  0.3326 -2.4541 -2.0304
17749TIP3    H274739   2.583   5.100   2.042 -0.0259 -0.2163  0.5533
17750TIP3   OH274740   0.247   3.512   0.089  0.2485  0.1392  0.1000
17750TIP3    H174741   0.234   3.452   0.016  3.4001 -1.1754  0.4476
17750TIP3    H274742   0.286   3.457   0.158  1.3302  2.1895  1.1902
17751TIP3   OH274743   3.918   4.537  12.239 -0.3715  0.7040 -0.3446
17751TIP3    H174744   3.916   4.570  12.329 -0.3579 -0.1163 -0.0294
17751TIP3    H274745   3.877   4.606  12.187 -1.6611  0.6096  0.4953
17752TIP3   OH274746   4.048   3.371   5.727 -0.2023 -0.1279  0.1104
17752TIP3    H174747   4.037   3.345   5.636  0.9825  2.6233 -0.9066
17752TIP3    H274748   4.142   3.361   5.744  0.1159  2.2432  0.0082
17753TIP3   OH274749   4.572   2.334   3.396  0.0749  0.3284  0.2515
17753TIP3    H174750   4.555   2.387   3.318  1.8195 -1.1628 -1.2657
17753TIP3    H274751   4.642   2.380   3.441 -0.6571  0.9825  0.7393
17754TIP3   OH274752   0.703   5.253   5.437  0.3846 -0.0805 -0.7434
17754TIP3    H174753   0.677   5.344   5.424 -0.6465 -0.3684 -0.8178
17754TIP3    H274754   0.783   5.243   5.386  1.2532  1.1170  0.3076
17755TIP3   OH274755   4.988   5.502  15.986  0.0258  0.6408  0.5094
17755TIP3    H174756   4.949   5.523  15.901  2.1118  1.3048 -0.3514
17755TIP3    H274757   5.020   5.586  16.019 -0.7108  0.3903  1.9811
17756TIP3   OH274758   6.815   4.807   1.974 -0.1985 -0.1485 -0.3890
17756TIP3    H174759   6.804   4.888   2.023  0.7589 -1.3346  1.9372
17756TIP3    H274760   6.728   4.788   1.938 -1.0505  0.5758  1.2238
17757TIP3   OH274761   5.901   6.126   3.300 -0.4957  0.4055  0.5799
17757TIP3    H174762   5.854   6.046   3.322  0.7319 -0.3639  0.4837
17757TIP3    H274763   5.850   6.165   3.229 -0.4859 -0.8932 -0.1556
17758TIP3   OH274764   2.229   4.372  13.607 -0.1208 -0.3437  0.5184
17758TIP3    H174765   2.304   4.394  13.552 -0.3935  1.5882  0.8311
17758TIP3    H274766   2.226   4.442  13.672 -1.8161 -0.7129  0.8843
17759TIP3   OH274767   1.156   6.333   1.435  0.2352 -0.3929 -0.2766
17759TIP3    H174768   1.222   6.402   1.423  0.2909 -0.2821  0.6001
17759TIP3    H274769   1.078   6.380   1.464  0.8856 -0.8592  2.4732
17760TIP3   OH274770   5.621   5.781  13.834  0.4502  0.1227  0.1116
17760TIP3    H174771   5.570   5.861  13.840  0.6348  0.2052  0.5734
17760TIP3    H274772   5.568   5.715  13.879  0.6812  0.1744  0.4583
17761TIP3   OH274773   2.195   1.868   1.958  0.3755  0.4327  0.2256
17761TIP3    H174774   2.199   1.945   1.901 -0.1458  0.4065  0.1473
17761TIP3    H274775   2.166   1.903   2.043 -1.0265  0.1696 -0.1229
17762TIP3   OH274776   1.002   4.478   6.142 -0.1728 -0.3308 -0.0434
17762TIP3    H174777   1.022   4.532   6.218 -2.6554  0.2741  0.2551
17762TIP3    H274778   0.960   4.400   6.178 -1.0158 -0.2252 -0.7627
17763TIP3   OH274779   1.140   3.726  11.139 -0.1432 -0.3775 -0.3823
17763TIP3    H174780   1.178   3.671  11.070 -1.8877 -0.0512 -1.6947
17763TIP3    H274781   1.207   3.730  11.207  1.0094 -2.0678 -1.3416
17764TIP3   OH274782   2.011   4.889   1.842  0.0824  0.1085 -0.6862
17764TIP3    H174783   1.916   4.903   1.844  0.1569  0.6935 -1.2121
17764TIP3    H274784   2.043   4.934   1.920  0.1075  1.3352 -1.3875
17765TIP3   OH274785   4.174   4.205  11.935  0.5526 -0.1212 -0.6588
17765TIP3    H174786   4.231   4.275  11.904  0.4606 -0.7352 -2.2901
17765TIP3    H274787   4.231   4.128  11.937 -0.0275 -0.5866 -1.6116
17766TIP3   OH274788   3.156   3.998  16.407 -0.4097  0.0523 -0.2352
17766TIP3    H174789   3.122   3.992  16.318 -1.9673  0.3425  0.3085
17766TIP3    H274790   3.155   4.092  16.427 -1.8438 -0.1143  0.6940
17767TIP3   OH274791   3.264   4.659   1.171  0.0363 -0.1946  0.2240
17767TIP3    H174792   3.330   4.728   1.170 -0.0109 -0.1455  0.5475
17767TIP3    H274793   3.214   4.673   1.090  1.2774 -1.0734 -0.7406
17768TIP3   OH274794   2.294   3.488   4.277  0.8455 -0.0292 -0.5661
17768TIP3    H174795   2.262   3.512   4.364 -0.2502 -2.2756 -0.2680
17768TIP3    H274796   2.284   3.567   4.225  0.5631  1.0830  1.0904
17769TIP3   OH274797   1.271   5.882   0.139 -0.3375 -0.2358  0.2817
17769TIP3    H174798   1.255   5.840   0.054 -0.9081 -1.1950  0.8492
17769TIP3    H274799   1.322   5.817   0.188 -0.1502  0.2518  0.7386
17770TIP3   OH274800   3.077   1.495   4.055 -0.0955  0.0236 -0.1701
17770TIP3    H174801   3.058   1.495   3.961  0.0237  0.2371 -0.1939
17770TIP3    H274802   3.005   1.546   4.093 -0.2400 -0.2131 -0.1263
17771TIP3   OH274803   4.114   3.960   6.096 -0.4393 -0.2010  0.1687
17771TIP3    H174804   4.085   3.993   6.182  1.5829  1.0444  0.4354
17771TIP3    H274805   4.071   4.017   6.033 -1.9994 -1.1699  0.2971
17772TIP3   OH274806   3.199   2.525  11.494  0.2159 -0.4715  0.2537
17772TIP3    H174807   3.119   2.550  11.541  0.7389 -0.2181  1.0349
17772TIP3    H274808   3.171   2.509  11.405 -0.4826  0.9757  0.1921
17773TIP3   OH274809   5.526   4.809   0.073  0.0921  0.0472 -0.0264
17773TIP3    H174810   5.461   4.862   0.120  1.2240 -0.3244  2.0655
17773TIP3    H274811   5.516   4.721   0.110 -0.2308 -0.7398 -1.8570
17774TIP3   OH274812   0.693   2.613  15.356 -0.5601  0.6448  0.0044
17774TIP3    H174813   0.760   2.565  15.308 -0.3473 -0.6764  1.5209
17774TIP3    H274814   0.701   2.703  15.325  1.1903  0.3052 -0.6510
17775TIP3   OH274815   4.465   0.432   5.474  0.6322 -0.2118 -0.4529
17775TIP3    H174816   4.371   0.420   5.486  0.7831 -1.4520 -0.3727
17775TIP3    H274817   4.476   0.448   5.380  0.3239  0.2250 -0.4169
17776TIP3   OH274818   0.852   3.971  16.390  0.1993  0.3158  0.3099
17776TIP3    H174819   0.907   3.904  16.350 -0.4036  0.2727 -0.4943
17776TIP3    H274820   0.781   3.923  16.432 -1.4468  0.4412 -2.1083
17777TIP3   OH274821   4.784   5.582  14.652 -0.0739 -0.7094 -0.3703
17777TIP3    H174822   4.778   5.585  14.747  0.2907 -0.7113 -0.3456
17777TIP3    H274823   4.704   5.623  14.621  0.5438  0.7823 -0.0665
17778TIP3   OH274824   4.188   1.783  11.532 -0.0299 -0.0955 -0.1162
17778TIP3    H174825   4.210   1.689  11.533  0.0910 -0.0964 -1.5488
17778TIP3    H274826   4.104   1.787  11.487 -0.2294  0.4639  0.2962
17779TIP3   OH274827   4.617   2.605  14.124 -0.3506  0.1649 -0.2328
17779TIP3    H174828   4.554   2.573  14.060  0.5987  0.4492 -1.3379
17779TIP3    H274829   4.619   2.537  14.192 -0.1231 -0.9901 -1.3490
17780TIP3   OH274830   2.461   4.910  11.061  0.2416 -0.2856  0.1942
17780TIP3    H174831   2.394   4.961  11.017  0.7204 -0.5365 -0.8624
17780TIP3    H274832   2.511   4.974  11.113 -0.7790 -0.1010  0.9717
17781TIP3   OH274833   2.337   5.367  11.699  0.6086  0.0803  0.4976
17781TIP3    H174834   2.310   5.279  11.675  0.3405  0.3145 -0.0739
17781TIP3    H274835   2.336   5.416  11.617  0.6811  0.6350  0.8214
17782TIP3   OH274836   2.160   3.985   0.560  0.0051 -0.2779  0.2252
17782TIP3    H174837   2.199   4.071   0.576  0.2472 -0.6197  1.6575
17782TIP3    H274838   2.233   3.924   0.565 -0.1678 -0.5778 -0.7649
17783TIP3   OH274839   1.080   1.398   2.581 -0.0412  0.4704 -0.6455
17783TIP3    H174840   1.043   1.382   2.494 -0.6705  0.6404 -0.4148
17783TIP3    H274841   1.088   1.493   2.586 -0.3614  0.4861 -0.3801
17784TIP3   OH274842   5.398   2.209   4.886  0.4475  0.2283 -0.8300
17784TIP3    H174843   5.311   2.247   4.870 -0.1320  0.0921  1.6423
17784TIP3    H274844   5.452   2.283   4.914  0.3231 -0.1184  0.3879
17785TIP3   OH274845   4.610   3.940   3.179  0.0595 -0.4464  0.1360
17785TIP3    H174846   4.607   3.876   3.108 -1.3718 -0.5742  0.2793
17785TIP3    H274847   4.537   3.916   3.236  1.6460 -0.8436  2.1102
17786TIP3   OH274848   2.146   5.249   2.357  0.3155  0.5859 -0.7240
17786TIP3    H174849   2.059   5.220   2.384 -0.5980  2.2236 -1.7283
17786TIP3    H274850   2.134   5.282   2.268  1.9399  1.0034 -0.8314
17787TIP3   OH274851   4.225   2.515  12.560  0.4139  0.2851  0.7350
17787TIP3    H174852   4.226   2.507  12.465  0.9338  1.0256  0.6667
17787TIP3    H274853   4.296   2.458  12.590  0.9597  0.8672  0.5907
17788TIP3   OH274854   3.132   5.121  14.961  0.1436  0.4523 -0.1168
17788TIP3    H174855   3.131   5.060  15.035  1.0157  0.9158  0.2902
17788TIP3    H274856   3.048   5.107  14.917 -0.9631  1.0776  1.6914
17789TIP3   OH274857   5.295   5.243  15.398 -0.0520  0.8383 -0.1126
17789TIP3    H174858   5.295   5.148  15.412  1.3714  1.0942  2.0276
17789TIP3    H274859   5.241   5.277  15.469  3.9861  1.9212  2.7881
17790TIP3   OH274860   3.147   1.558  11.255  0.9802 -0.2323 -0.0656
17790TIP3    H174861   3.100   1.475  11.263  2.0326 -0.7078  2.1843
17790TIP3    H274862   3.233   1.540  11.294  1.3955  1.7874  0.0586
17791TIP3   OH274863   6.045   3.109   4.627 -0.1820 -0.2694  0.5151
17791TIP3    H174864   6.049   3.060   4.709 -0.1064  0.1047  0.7384
17791TIP3    H274865   5.978   3.176   4.641  1.8781  1.7417  1.3824
17792TIP3   OH274866   0.563   0.679   0.338  0.0260 -0.1779  0.0409
17792TIP3    H174867   0.470   0.679   0.316 -0.5227  1.6108  1.9723
17792TIP3    H274868   0.565   0.690   0.433  2.2232 -2.4849  0.3834
17793TIP3   OH274869   2.107   6.340   4.162  0.0069  0.3815  0.2884
17793TIP3    H174870   2.143   6.273   4.104 -0.9639 -0.6952  0.8822
17793TIP3    H274871   2.037   6.381   4.110 -0.6676 -0.3823  0.5761
17794TIP3   OH274872   4.668   4.679  11.788 -0.1943  0.0096 -0.3371
17794TIP3    H174873   4.651   4.607  11.849 -0.0301 -1.4206 -1.8870
17794TIP3    H274874   4.647   4.758  11.837 -1.6952 -1.1602  1.0303
17795TIP3   OH274875   6.174   3.438  16.505  0.3950 -0.4585 -0.3677
17795TIP3    H174876   6.204   3.481  16.585  2.1776 -1.8693 -0.2155
17795TIP3    H274877   6.135   3.509  16.453  0.0783  0.6649  1.3015
17796TIP3   OH274878   4.116   0.300  13.105 -0.2767 -0.0649 -0.5852
17796TIP3    H174879   4.183   0.366  13.121 -0.0706 -0.3049 -0.4489
17796TIP3    H274880   4.044   0.324  13.163 -1.3183  1.6078 -2.4487
17797TIP3   OH274881   1.268   3.027  15.393  0.4841 -0.0061 -0.1335
17797TIP3    H174882   1.305   3.012  15.480  0.1938 -0.2144 -0.0449
17797TIP3    H274883   1.195   3.088  15.408 -1.1463 -1.9176  0.1322
17798TIP3   OH274884   2.879   5.839   3.081 -0.2125  0.2350 -0.3871
17798TIP3    H174885   2.835   5.755   3.073  1.8818 -1.0414  0.5818
17798TIP3    H274886   2.971   5.820   3.065  0.2775  2.4311 -0.5567
17799TIP3   OH274887   0.076   1.047   5.437  0.2756 -0.5117 -0.4160
17799TIP3    H174888   0.047   1.072   5.524  0.5305  2.0034 -0.9728
17799TIP3    H274889   0.128   0.968   5.450  1.6955  0.7176  1.9302
17800TIP3   OH274890   4.140   6.395   0.897  0.0617  0.2250 -0.0706
17800TIP3    H174891   4.109   6.383   0.807  1.7610 -0.2221 -0.6381
17800TIP3    H274892   4.157   6.306   0.928  0.3137  0.4315  0.3958
17801TIP3   OH274893   3.064   6.016  14.818 -0.4418  0.6930 -0.0393
17801TIP3    H174894   3.094   5.986  14.733 -1.3682  0.0460 -0.1489
17801TIP3    H274895   3.141   6.008  14.875  0.1853  1.1494 -0.8064
17802TIP3   OH274896   5.945   2.021  16.921 -0.1235 -0.1194 -0.0572
17802TIP3    H174897   5.932   1.976  16.838  1.5577 -0.6516 -0.0684
17802TIP3    H274898   6.018   2.080  16.905 -0.9520  1.1182  0.5531
17803TIP3   OH274899   0.790   2.040   1.772  0.1423 -0.5066  0.3601
17803TIP3    H174900   0.729   2.105   1.808  1.3620  0.8332  0.1184
17803TIP3    H274901   0.854   2.026   1.842 -0.8544 -2.5274  0.9245
17804TIP3   OH274902   1.258   6.767   5.858 -0.1179  0.2934  0.1633
17804TIP3    H174903   1.256   6.673   5.873  0.6614  0.4606  1.4872
17804TIP3    H274904   1.196   6.804   5.921 -0.8004  0.6515 -0.6857
17805TIP3   OH274905   1.310   6.540  13.895  0.0873  0.2044  0.2616
17805TIP3    H174906   1.304   6.602  13.968 -0.2100  1.3189 -0.6716
17805TIP3    H274907   1.323   6.455  13.937 -1.3223  0.6297  1.6747
17806TIP3   OH274908   2.048   5.777   2.538 -0.0841  0.0172  0.5766
17806TIP3    H174909   2.066   5.790   2.445 -0.3707  0.6803  0.6063
17806TIP3    H274910   2.096   5.698   2.561  0.5187  0.2088  0.0148
17807TIP3   OH274911   3.188   5.477   5.337 -0.0056 -0.1436 -0.5641
17807TIP3    H174912   3.113   5.440   5.384  0.2753 -1.4524 -1.1030
17807TIP3    H274913   3.185   5.570   5.357 -0.1909 -0.5654  1.6216
17808TIP3   OH274914   5.778   6.273  14.395 -0.0649  0.3853  0.3255
17808TIP3    H174915   5.804   6.359  14.426  4.1237 -0.2479 -0.7402
17808TIP3    H274916   5.801   6.214  14.467  3.3865 -0.3613 -1.1790
17809TIP3   OH274917   6.097   2.804  14.208  0.0212  0.1304 -0.4085
17809TIP3    H174918   6.043   2.864  14.156  1.3030  1.6721 -0.0431
17809TIP3    H274919   6.164   2.773  14.147 -0.3167 -0.5180 -0.4566
17810TIP3   OH274920   0.693   6.381   4.341 -0.0123  0.2147 -0.2073
17810TIP3    H174921   0.730   6.459   4.382 -0.6519  1.3214 -1.6432
17810TIP3    H274922   0.744   6.370   4.261 -1.2317  0.3777 -1.0310
17811TIP3   OH274923   5.139   3.062   4.574  0.0872 -0.3031  0.5507
17811TIP3    H174924   5.192   3.136   4.545 -0.3580 -0.3161 -0.3605
17811TIP3    H274925   5.191   3.020   4.642  0.1760  1.0713  1.3666
17812TIP3   OH274926   1.042   2.468   4.551 -0.2687  0.1468  0.0349
17812TIP3    H174927   1.097   2.507   4.618 -1.2914  0.7425  0.5526
17812TIP3    H274928   1.019   2.381   4.585  1.7641 -0.8546 -0.9843
17813TIP3   OH274929   4.594   5.904   0.246 -0.2060 -0.0061 -0.4139
17813TIP3    H174930   4.601   5.913   0.151 -1.7900 -0.3585 -0.5866
17813TIP3    H274931   4.501   5.889   0.262  0.2502 -1.5433  1.0720
17814TIP3   OH274932   4.103   5.249  14.884  0.3004  0.1701  0.4773
17814TIP3    H174933   4.012   5.223  14.895 -0.1711  1.6240  0.2533
17814TIP3    H274934   4.145   5.174  14.841 -0.7464 -0.5618  0.7023
17815TIP3   OH274935   4.629   0.435   2.386 -0.5449 -0.5024 -0.2192
17815TIP3    H174936   4.583   0.519   2.379  1.8058  0.8416 -0.7747
17815TIP3    H274937   4.657   0.416   2.297 -1.4859 -2.1939 -0.1855
17816TIP3   OH274938   2.815   2.501   4.893 -1.0038 -0.3833 -0.0973
17816TIP3    H174939   2.765   2.448   4.955 -1.8760  0.9258  0.3776
17816TIP3    H274940   2.757   2.575   4.873  0.3003  0.5845 -0.4352
17817TIP3   OH274941   6.702   5.634  11.804 -0.2086 -0.2741 -0.4033
17817TIP3    H174942   6.679   5.724  11.830 -2.5995 -1.1276  0.6757
17817TIP3    H274943   6.698   5.635  11.708 -1.8579  0.4084 -0.3535
17818TIP3   OH274944   1.504   1.133  16.934 -0.3734 -0.0256 -0.1665
17818TIP3    H174945   1.432   1.118  16.872 -0.8663  1.2231  0.0741
17818TIP3    H274946   1.460   1.142  17.019  0.0930  0.4082  0.0354
17819TIP3   OH274947   3.831   4.978  15.073  0.4584  0.1758 -0.2550
17819TIP3    H174948   3.827   5.029  14.992  0.9674  0.2372 -0.2445
17819TIP3    H274949   3.824   5.043  15.143 -0.3918  0.0829 -0.2492
17820TIP3   OH274950   0.398   4.063  13.980 -0.9147  0.1592 -0.1139
17820TIP3    H174951   0.450   4.136  13.945 -0.0166 -1.2744 -1.9670
17820TIP3    H274952   0.456   4.019  14.042 -0.4593 -0.4894 -0.9740
17821TIP3   OH274953   3.151   4.456   2.199 -0.6789 -0.3450 -0.8339
17821TIP3    H174954   3.224   4.393   2.199  0.4993  0.8837  1.0650
17821TIP3    H274955   3.164   4.508   2.120  0.7351  0.0472 -0.3736
17822TIP3   OH274956   5.877   5.385  17.145 -0.3511 -0.3595 -0.0377
17822TIP3    H174957   5.839   5.298  17.136 -2.6849  0.5879  0.0010
17822TIP3    H274958   5.864   5.408  17.237 -0.7079  0.4184 -0.2702
17823TIP3   OH274959   3.643   2.787  10.722  0.2865  0.1767 -0.5701
17823TIP3    H174960   3.736   2.765  10.726  0.2041  0.0058  0.8872
17823TIP3    H274961   3.602   2.712  10.680  0.6953 -0.1590 -0.3813
17824TIP3   OH274962   5.595   4.312  16.820  0.3342 -0.1434 -0.5726
17824TIP3    H174963   5.680   4.354  16.830 -0.3381  1.5252 -1.4373
17824TIP3    H274964   5.574   4.322  16.727 -1.4455  0.8294 -0.1053
17825TIP3   OH274965   5.286   3.799   6.283 -0.2570  0.5659  0.7941
17825TIP3    H174966   5.301   3.752   6.365  1.6946 -1.9864 -0.8377
17825TIP3    H274967   5.332   3.882   6.294  1.7466 -0.5665  1.6489
17826TIP3   OH274968   5.288   4.158   2.162  0.1735  0.3187 -0.3742
17826TIP3    H174969   5.360   4.115   2.208 -0.1818  1.4316  1.3609
17826TIP3    H274970   5.303   4.252   2.178 -0.5249  0.6941 -1.7674
17827TIP3   OH274971   2.095   6.183   0.166  0.1328  0.2012 -0.6131
17827TIP3    H174972   2.037   6.123   0.119  0.1689  0.7662 -1.3829
17827TIP3    H274973   2.132   6.239   0.099  0.3919  0.8524  0.0555
17828TIP3   OH274974   0.623   2.067  11.014  0.5202  0.3189  0.5432
17828TIP3    H174975   0.699   2.125  11.019 -0.3029  1.7127 -1.6966
17828TIP3    H274976   0.582   2.088  10.930 -1.7261 -1.1644  1.1798
17829TIP3   OH274977   4.786   4.786   2.688 -0.1747 -0.4084 -0.2743
17829TIP3    H174978   4.845   4.712   2.674 -0.4563 -0.7724  0.4315
17829TIP3    H274979   4.725   4.756   2.756 -0.1864  0.5226  0.1409
17830TIP3   OH274980   6.697   5.215  12.815 -0.4023 -0.1344  0.7426
17830TIP3    H174981   6.777   5.267  12.818 -0.7020  0.3042  2.8639
17830TIP3    H274982   6.726   5.125  12.828 -0.1283 -0.1776 -0.1214
17831TIP3   OH274983   0.365   6.813  16.959 -0.0270 -0.2698 -0.7388
17831TIP3    H174984   0.372   6.906  16.935 -2.4584  0.3714  0.6479
17831TIP3    H274985   0.325   6.772  16.882  0.8070 -0.1355 -1.2557
17832TIP3   OH274986   4.261   3.239  15.351 -0.3719 -0.1390 -0.0820
17832TIP3    H174987   4.285   3.287  15.271 -0.4496  1.0675  0.6001
17832TIP3    H274988   4.199   3.297  15.395 -1.0495 -1.2157  0.4039
17833TIP3   OH274989   2.973   1.848  16.034  0.5082  0.8214 -0.3286
17833TIP3    H174990   2.997   1.878  16.121  0.4537 -2.1227  0.8318
17833TIP3    H274991   3.022   1.905  15.974  1.9889  1.7609  1.6617
17834TIP3   OH274992   5.846   3.942  14.498 -0.1380  0.7640  0.0141
17834TIP3    H174993   5.928   3.915  14.540 -1.1401 -0.5465  1.1912
17834TIP3    H274994   5.789   3.866  14.506 -1.2285  1.3774 -1.5119
17835TIP3   OH274995   2.815   4.714  12.523 -0.6747  0.7053  0.0817
17835TIP3    H174996   2.720   4.706  12.525 -0.5664 -0.5155  1.1799
17835TIP3    H274997   2.834   4.790  12.580 -0.9611  0.6544  0.2445
17836TIP3   OH274998   5.831   0.856  14.730 -0.3093  0.6293 -0.3982
17836TIP3    H174999   5.773   0.787  14.762  2.0814  0.0824  3.3420
17836TIP3    H275000   5.788   0.937  14.757  0.1527  0.2618  1.5919
17837TIP3   OH275001   1.035   2.676   3.813  0.1221 -0.1864  0.5246
17837TIP3    H175002   1.128   2.665   3.830  0.6142  0.5010 -1.4631
17837TIP3    H275003   1.028   2.675   3.717 -2.0773 -1.5237  0.6273
17838TIP3   OH275004   1.006   0.011  11.971  0.6022  0.3584  0.4218
17838TIP3    H175005   1.060   0.078  12.011  2.1499 -0.3735 -0.3665
17838TIP3    H275006   1.058  -0.069  11.977 -1.1299 -0.7722  1.2193
17839TIP3   OH275007   5.737   2.370  11.600 -0.4648  0.4738 -0.3711
17839TIP3    H175008   5.753   2.378  11.694 -1.3235  2.7559 -0.3331
17839TIP3    H275009   5.819   2.336  11.564  1.1008  2.6556  0.8661
17840TIP3   OH275010   0.242   4.517  12.719 -0.1215 -0.1932 -0.2063
17840TIP3    H175011   0.271   4.544  12.632  1.3720  0.5051  0.4639
17840TIP3    H275012   0.303   4.448  12.744 -0.5675 -0.4198  0.2776
17841TIP3   OH275013   6.303   3.686  11.343 -0.1230 -0.3307 -0.6521
17841TIP3    H175014   6.355   3.723  11.272  0.0562 -0.0395 -0.3703
17841TIP3    H275015   6.318   3.744  11.417 -1.4815  0.2289 -0.7934
17842TIP3   OH275016   5.757   4.934  16.667  0.3816  0.0324  0.5666
17842TIP3    H175017   5.709   4.944  16.586  0.2897 -2.9996  0.1292
17842TIP3    H275018   5.690   4.922  16.734  0.4112 -1.9051  0.3140
17843TIP3   OH275019   4.738   2.958   1.732 -0.6001  0.2169  0.1548
17843TIP3    H175020   4.707   2.914   1.652 -1.0149  1.6579 -0.5088
17843TIP3    H275021   4.659   2.967   1.786 -0.3366 -0.6737  0.7060
17844TIP3   OH275022   4.834   1.833   1.608  0.2581  0.1969  0.2448
17844TIP3    H175023   4.918   1.790   1.621  0.6353  0.4499 -1.2542
17844TIP3    H275024   4.853   1.926   1.609  0.4039  0.2508 -2.3526
17845TIP3   OH275025   1.393   2.665  16.022  0.4640 -0.6652 -0.3750
17845TIP3    H175026   1.348   2.737  16.066  0.0216 -0.4097 -1.2167
17845TIP3    H275027   1.410   2.699  15.934  0.5648 -1.4690 -0.6690
17846TIP3   OH275028   5.405   3.850  11.908  0.1682 -0.2012 -0.1398
17846TIP3    H175029   5.471   3.912  11.878 -1.8237  2.6514  1.0121
17846TIP3    H275030   5.339   3.850  11.838  0.0427 -0.8650 -0.0269
17847TIP3   OH275031   1.542   2.782   5.298  0.1230  0.2385  0.9369
17847TIP3    H175032   1.505   2.739   5.375 -0.8417  2.4045  1.7616
17847TIP3    H275033   1.469   2.831   5.260  0.4904 -0.9982 -1.5938
17848TIP3   OH275034   2.312   6.682   5.350  0.2220 -0.0887 -0.0876
17848TIP3    H175035   2.276   6.598   5.378  0.5356 -0.2255 -0.0946
17848TIP3    H275036   2.244   6.746   5.372 -0.9281 -0.5908 -1.9565
17849TIP3   OH275037   1.593   2.601   0.248  0.1122  0.2195 -0.5049
17849TIP3    H175038   1.632   2.680   0.210  0.3821  1.2728  1.7957
17849TIP3    H275039   1.639   2.529   0.205  1.9508  1.3687 -0.5807
17850TIP3   OH275040   1.968   6.192   3.192  0.2184 -0.5162 -0.3355
17850TIP3    H175041   2.055   6.221   3.220 -0.5611 -0.3573  2.1981
17850TIP3    H275042   1.964   6.214   3.099  2.6804 -0.0724 -0.3987
17851TIP3   OH275043   3.361   6.700  13.978  0.5265 -0.6033 -0.1088
17851TIP3    H175044   3.437   6.707  13.920  0.3145  0.7833 -0.2674
17851TIP3    H275045   3.294   6.658  13.924  0.6529 -0.2670 -0.5412
17852TIP3   OH275046   3.679   1.101   5.249 -0.3244  0.0985  0.1917
17852TIP3    H175047   3.589   1.136   5.246 -0.0537  0.7911 -0.1770
17852TIP3    H275048   3.681   1.037   5.178 -0.8779 -0.8331  0.9843
17853TIP3   OH275049   1.995   2.447  14.669 -0.1393 -0.0541  0.0913
17853TIP3    H175050   1.916   2.495  14.644  1.0293  1.2242 -1.2902
17853TIP3    H275051   1.962   2.362  14.699 -2.0114  0.2829 -0.8653
17854TIP3   OH275052   6.750   0.607  17.180 -0.2558 -0.0727  0.0972
17854TIP3    H175053   6.736   0.678  17.116  0.7878  1.5480  1.5660
17854TIP3    H275054   6.663   0.570  17.195 -0.6665  0.1885 -1.4830
17855TIP3   OH275055   2.011   5.197  14.876 -0.4301  0.7288  0.3613
17855TIP3    H175056   2.005   5.102  14.865 -1.0294  0.6822  0.9812
17855TIP3    H275057   2.104   5.215  14.885 -0.2688  0.2681 -0.3043
17856TIP3   OH275058   0.132   2.226   4.111 -0.1425  0.2292 -0.1436
17856TIP3    H175059   0.079   2.175   4.050 -0.6647 -0.5995  0.9747
17856TIP3    H275060   0.118   2.185   4.196  2.2002  0.0538  0.2297
17857TIP3   OH275061   6.810   0.414  13.316 -0.1062 -0.2029  0.7214
17857TIP3    H175062   6.879   0.461  13.269 -2.6619  1.6582 -1.4928
17857TIP3    H275063   6.776   0.479  13.378 -3.0248  0.8352 -1.6933
17858TIP3   OH275064   2.114   2.882   1.265 -0.5249  0.2831  0.4296
17858TIP3    H175065   2.078   2.932   1.192  0.8660  0.2807 -0.2915
17858TIP3    H275066   2.106   2.940   1.340 -2.7046 -0.0069  0.5033
17859TIP3   OH275067   6.542   0.974  15.051 -0.3966 -0.5877  0.7431
17859TIP3    H175068   6.486   0.907  15.012 -2.3201  0.9664  0.6732
17859TIP3    H275069   6.515   0.976  15.143 -1.5937  1.1827  0.3986
17860TIP3   OH275070   0.007   3.297  12.867  0.0087  0.0539  0.3801
17860TIP3    H175071   0.011   3.237  12.941  2.6204  1.3609  1.4013
17860TIP3    H275072   0.059   3.256  12.799  0.7590  0.5588  0.6378
17861TIP3   OH275073   5.083   4.308  14.798  0.1924 -0.0073  0.0537
17861TIP3    H175074   5.081   4.379  14.863 -1.0814  1.9704 -1.9784
17861TIP3    H275075   5.149   4.336  14.735  0.0120 -0.8779 -0.5386
17862TIP3   OH275076   1.514   3.711  13.845  0.7174  0.0868 -0.3165
17862TIP3    H175077   1.599   3.733  13.808  1.3000 -2.5852 -0.7720
17862TIP3    H275078   1.478   3.646  13.784 -0.2074 -1.2137  1.5356
17863TIP3   OH275079   2.478   2.098  14.454 -0.4756  0.0973  0.0687
17863TIP3    H175080   2.448   2.017  14.411 -1.0108  1.0495 -1.4383
17863TIP3    H275081   2.560   2.119  14.411  0.6342 -0.5859  1.7421
17864TIP3   OH275082   4.569   5.744  13.625  0.0020 -0.1854 -0.7794
17864TIP3    H175083   4.618   5.818  13.590 -0.5408  1.6880  2.1120
17864TIP3    H275084   4.477   5.767  13.614 -0.1930  0.4892  1.6733
17865TIP3   OH275085   3.895   3.657   5.696 -0.6146 -0.3184  0.1044
17865TIP3    H175086   3.812   3.694   5.726 -1.1856 -0.2164 -1.4932
17865TIP3    H275087   3.873   3.568   5.668 -0.1028 -0.4184  0.0083
17866TIP3   OH275088   4.288   2.057  11.137  0.3036 -0.0521 -0.2225
17866TIP3    H175089   4.205   2.044  11.183  0.4428  0.9069  0.3291
17866TIP3    H275090   4.352   2.009  11.189  0.0482 -1.0828 -0.8413
17867TIP3   OH275091   5.433   4.687   2.482  0.3162 -0.1689 -0.5789
17867TIP3    H175092   5.349   4.711   2.522  0.1814  1.1328 -1.5939
17867TIP3    H275093   5.431   4.727   2.395  1.1641 -1.7851 -1.4033
17868TIP3   OH275094   5.538   3.152  12.722  0.0566 -0.7387  0.2922
17868TIP3    H175095   5.568   3.226  12.775  0.0352 -1.8582  1.9255
17868TIP3    H275096   5.612   3.092  12.720  0.1876 -0.5754 -1.2923
17869TIP3   OH275097   3.373   1.883  13.627  0.1188 -0.2039 -0.3185
17869TIP3    H175098   3.352   1.790  13.635  3.3417 -0.9237  1.2810
17869TIP3    H275099   3.314   1.926  13.689  1.2782 -1.7313  1.9681
17870TIP3   OH275100   1.414   1.883  13.722  0.0509  0.2171 -0.0795
17870TIP3    H175101   1.331   1.895  13.767 -1.1243 -0.1437 -2.0197
17870TIP3    H275102   1.478   1.930  13.775 -1.5118  1.0979  1.0923
17871TIP3   OH275103   0.419   2.546   5.592 -0.3260  0.0768  0.8343
17871TIP3    H175104   0.508   2.541   5.627  1.2948 -0.7776 -2.9383
17871TIP3    H275105   0.416   2.629   5.545 -0.6386 -0.9590 -1.0668
17872TIP3   OH275106   5.491   4.668  12.122  0.9795  0.4083  0.2741
17872TIP3    H175107   5.396   4.657  12.114  0.3705  3.1886  2.0843
17872TIP3    H275108   5.518   4.604  12.187  0.0695  0.5494  0.8032
17873TIP3   OH275109   0.895   3.023   0.372 -0.3873 -0.0871  0.8487
17873TIP3    H175110   0.850   2.962   0.312  2.2764 -1.5075  0.1555
17873TIP3    H275111   0.921   3.096   0.316 -1.8197  0.8010  1.2791
17874TIP3   OH275112   1.608   2.187  11.302 -0.3404  0.2388  0.2285
17874TIP3    H175113   1.580   2.132  11.229  0.8421 -0.2063  0.0836
17874TIP3    H275114   1.546   2.166  11.372  0.7826 -2.2341  0.5683
17875TIP3   OH275115   4.376   0.903   4.014 -0.0356  0.0808 -0.1897
17875TIP3    H175116   4.392   0.997   4.003 -0.8654  0.1664 -0.7701
17875TIP3    H275117   4.377   0.868   3.925  2.7608 -0.9197  0.1549
17876TIP3   OH275118   0.511   5.505  11.686  0.2117  0.1380 -0.2666
17876TIP3    H175119   0.420   5.535  11.688  0.0698 -0.2164 -1.0645
17876TIP3    H275120   0.506   5.411  11.703  0.4623  0.1901  0.0925
17877TIP3   OH275121   0.773   1.432   2.709  0.4881 -0.0658  0.6473
17877TIP3    H175122   0.781   1.423   2.614 -0.7980 -0.0741  0.5209
17877TIP3    H275123   0.863   1.438   2.741  0.9202  0.4392 -0.6187
17878TIP3   OH275124   2.388   1.174   0.453  0.0563 -0.1299 -0.0302
17878TIP3    H175125   2.297   1.205   0.452  0.4698  1.4475  2.4334
17878TIP3    H275126   2.388   1.101   0.514  0.8521  1.6808  2.2708
17879TIP3   OH275127   4.012   3.675   1.803  0.1384  0.3291  0.2009
17879TIP3    H175128   4.104   3.689   1.785  0.3848  0.0532  1.1538
17879TIP3    H275129   3.994   3.586   1.771  0.1635  0.4396 -0.1196
17880TIP3   OH275130   5.720   2.237   4.899 -0.2580 -0.3681  0.3166
17880TIP3    H175131   5.644   2.287   4.870  0.1329 -1.3372 -2.7681
17880TIP3    H275132   5.795   2.287   4.867  0.2256 -1.4189 -0.2306
17881TIP3   OH275133   6.687   6.628  16.760 -0.0531 -0.2025 -0.1944
17881TIP3    H175134   6.773   6.593  16.781  0.6631  1.1929 -0.6486
17881TIP3    H275135   6.699   6.669  16.674 -1.6448 -1.5536 -1.1122
17882TIP3   OH275136   6.049   5.139   0.282  0.1723 -0.2000  0.0805
17882TIP3    H175137   6.050   5.225   0.323 -2.7382  0.2517 -0.5165
17882TIP3    H275138   6.087   5.152   0.195 -0.4898  0.5951 -0.1018
17883TIP3   OH275139   0.408   0.209  16.861 -0.0668 -0.0077  0.6081
17883TIP3    H175140   0.349   0.284  16.851  1.0947  1.0208  1.0900
17883TIP3    H275141   0.488   0.236  16.816  0.1536 -1.2345  0.2456
17884TIP3   OH275142   4.176   6.005   2.278  0.4819  0.6738 -0.3753
17884TIP3    H175143   4.147   6.030   2.366 -1.8856 -1.5448 -0.4070
17884TIP3    H275144   4.127   6.063   2.220 -1.4706 -0.7638 -0.2887
17885TIP3   OH275145   2.027   4.274   2.576 -0.1902  0.0571  0.3498
17885TIP3    H175146   1.940   4.236   2.584 -0.6533  0.6454 -1.4382
17885TIP3    H275147   2.042   4.319   2.659 -1.6206  0.0131  0.6467
17886TIP3   OH275148   4.274   5.525  16.023  0.3490  0.0636  0.6833
17886TIP3    H175149   4.233   5.566  15.947  1.5838  0.6911  0.3221
17886TIP3    H275150   4.315   5.445  15.989  0.6434  0.1854  0.7460
17887TIP3   OH275151   5.057   3.066   3.643 -0.5496 -0.4393 -0.4818
17887TIP3    H175152   5.059   3.044   3.736  0.8257  1.4527 -0.0112
17887TIP3    H275153   5.064   2.982   3.598 -0.7078 -1.3434  1.1090
17888TIP3   OH275154   2.248   3.262  14.748 -0.0720  0.5503  0.0727
17888TIP3    H175155   2.173   3.248  14.806 -0.4219  1.2399 -0.2048
17888TIP3    H275156   2.310   3.311  14.802  0.0134  0.3308  0.1749
17889TIP3   OH275157   3.850   4.386   3.150 -0.0925  0.1289 -0.6298
17889TIP3    H175158   3.890   4.328   3.214 -0.0397 -1.2009 -1.8169
17889TIP3    H275159   3.878   4.474   3.175 -1.1126 -0.1922  1.9017
17890TIP3   OH275160   6.161   2.173  13.417  0.0158  0.0179  0.0335
17890TIP3    H175161   6.255   2.176  13.431  0.3120 -0.0953 -1.6994
17890TIP3    H275162   6.146   2.227  13.340 -0.9434 -2.1734 -1.4261
17891TIP3   OH275163   3.468   6.741   5.067 -0.4602 -0.0017  0.0234
17891TIP3    H175164   3.483   6.836   5.064  1.7159 -0.3254 -2.4221
17891TIP3    H275165   3.385   6.729   5.021  0.5086  0.5669 -1.9659
17892TIP3   OH275166   0.372   0.652   5.045  0.0895  0.0501  0.0368
17892TIP3    H175167   0.314   0.727   5.030 -0.9004 -0.9023 -1.0922
17892TIP3    H275168   0.313   0.580   5.067  1.0186 -0.4654  0.9636
17893TIP3   OH275169   5.725   3.498   3.117  0.5860 -0.0495  0.2416
17893TIP3    H175170   5.719   3.512   3.023  1.3803  0.2384  0.2233
17893TIP3    H275171   5.694   3.408   3.130  1.4313 -0.4540 -0.4263
17894TIP3   OH275172   3.474   1.370  14.185 -0.7450 -0.0776  0.1172
17894TIP3    H175173   3.526   1.435  14.233 -1.9385  2.4950 -1.8227
17894TIP3    H275174   3.501   1.382  14.094 -1.7386 -1.6870 -0.4242
17895TIP3   OH275175   2.764   3.593   5.690 -0.4795 -0.1657  0.4808
17895TIP3    H175176   2.810   3.566   5.611  0.7903 -2.5171  1.9334
17895TIP3    H275177   2.723   3.676   5.666  1.1149 -0.0261 -2.1528
17896TIP3   OH275178   6.031   3.768   2.117 -0.2959 -0.3334  0.3956
17896TIP3    H175179   6.078   3.802   2.041  1.4761  0.6612  1.8466
17896TIP3    H275180   5.940   3.797   2.104  0.5441  2.4496  0.0801
17897TIP3   OH275181   5.627   6.444   4.845  0.4515  0.1162 -0.4855
17897TIP3    H175182   5.671   6.375   4.894 -1.1011 -0.2877  0.4147
17897TIP3    H275183   5.646   6.425   4.753  2.8858  0.5065 -0.1304
17898TIP3   OH275184   5.997   2.648   2.745 -0.5146 -0.7667 -0.6703
17898TIP3    H175185   5.983   2.612   2.657 -1.0901  1.8754 -1.7560
17898TIP3    H275186   6.091   2.667   2.747  0.4149 -4.5623  0.9500
17899TIP3   OH275187   5.505   3.770   3.497  0.4914 -0.0781  0.3577
17899TIP3    H175188   5.411   3.783   3.508  0.4797  0.6489 -0.4803
17899TIP3    H275189   5.521   3.789   3.404  1.6730  1.2224  0.7978
17900TIP3   OH275190   6.532   0.339  16.554  0.3921  0.5509 -0.7338
17900TIP3    H175191   6.463   0.400  16.578 -0.3145 -0.0880 -1.0989
17900TIP3    H275192   6.488   0.254  16.550  1.3327  0.0360 -0.3541
17901TIP3   OH275193   4.349   2.722   2.668 -0.1339  0.4116 -0.2395
17901TIP3    H175194   4.306   2.807   2.679  0.4765  0.6955 -0.0116
17901TIP3    H275195   4.284   2.658   2.698  0.1093  0.9324  1.5046
17902TIP3   OH275196   0.644   3.981  14.851  0.7608 -0.2953  0.0078
17902TIP3    H175197   0.622   4.008  14.940 -0.2935 -1.0743  0.0068
17902TIP3    H275198   0.709   4.044  14.822 -0.2455  1.0900  0.6702
17903TIP3   OH275199   4.070   3.214   1.615 -0.2546  0.1993  0.0933
17903TIP3    H175200   4.142   3.175   1.565  0.6589  2.1291 -0.1564
17903TIP3    H275201   4.002   3.231   1.550  0.4192  1.4963 -0.2963
17904TIP3   OH275202   1.136   5.255   5.927  0.3764 -0.3977  0.5644
17904TIP3    H175203   1.054   5.205   5.922  0.4292 -0.4376  0.1147
17904TIP3    H275204   1.135   5.293   6.015  0.9631 -2.2741  1.4457
17905TIP3   OH275205   0.559   6.178   1.897 -0.5261 -0.4927  0.0957
17905TIP3    H175206   0.594   6.134   1.819 -0.2280  0.0302 -0.0657
17905TIP3    H275207   0.485   6.229   1.865  0.1192  0.4075 -0.0066
17906TIP3   OH275208   2.167   2.652  15.668  0.2451  0.1501  0.1104
17906TIP3    H175209   2.257   2.679  15.651 -0.4784  1.9858 -1.0972
17906TIP3    H275210   2.155   2.663  15.762  1.3814 -0.5499  0.3580
17907TIP3   OH275211   5.673   4.023  14.235 -0.3590  0.0530 -0.9477
17907TIP3    H175212   5.627   4.095  14.191  0.4665  1.0896 -0.1625
17907TIP3    H275213   5.709   4.063  14.314 -1.0447 -1.5520  0.2272
17908TIP3   OH275214   1.303   5.931   3.676  0.2320 -0.3219 -0.2397
17908TIP3    H175215   1.230   5.869   3.680 -0.3736  0.1088 -2.6741
17908TIP3    H275216   1.261   6.016   3.660  1.2103  0.0479 -0.9245
17909TIP3   OH275217   6.477   3.052   1.636 -0.7754 -0.0239  0.0529
17909TIP3    H175218   6.495   3.026   1.546 -0.3103 -0.0893  0.1617
17909TIP3    H275219   6.488   2.972   1.688  0.5736  0.3377  0.3737
17910TIP3   OH275220   0.659   6.506   3.559  0.2463 -0.4552  0.5859
17910TIP3    H175221   0.679   6.536   3.470 -1.6862 -0.8408 -0.0136
17910TIP3    H275222   0.653   6.587   3.611  0.3570 -0.1625  0.1468
17911TIP3   OH275223   5.971   5.664   6.919  0.0283  0.4520  0.2193
17911TIP3    H175224   5.966   5.574   6.888  0.7273 -0.8372  3.4772
17911TIP3    H275225   6.063   5.687   6.911  0.1037  0.3340  0.7318
17912TIP3   OH275226   4.234   0.027   1.752  0.0776  0.2489 -0.4436
17912TIP3    H175227   4.219  -0.063   1.781 -1.0987 -0.2613 -2.4600
17912TIP3    H275228   4.290   0.064   1.820  1.3709 -2.2590  0.0107
17913TIP3   OH275229   3.721   6.477  13.918  0.5780  0.1283  0.3368
17913TIP3    H175230   3.653   6.502  13.981  1.3410  2.7518  0.2062
17913TIP3    H275231   3.695   6.389  13.890  1.3511 -2.2875  5.8679
17914TIP3   OH275232   6.363   0.722  14.087  0.7948 -0.0012  0.1199
17914TIP3    H175233   6.268   0.730  14.084  0.8694  1.3063  0.6876
17914TIP3    H275234   6.384   0.718  14.180  1.2940 -0.5245 -0.0038
17915TIP3   OH275235   0.307   1.756  13.765 -0.3428 -0.3479  0.2086
17915TIP3    H175236   0.235   1.769  13.703 -0.9897 -0.3709  0.9372
17915TIP3    H275237   0.293   1.824  13.831 -0.5271 -1.2565  1.1147
17916TIP3   OH275238   4.305   5.845   5.747  0.2091 -0.1245 -0.8691
17916TIP3    H175239   4.308   5.849   5.651 -0.4513  0.4637 -0.8740
17916TIP3    H275240   4.240   5.777   5.766  0.4969 -0.3918 -0.8344
17917TIP3   OH275241   1.984   1.809   0.378 -0.5034 -0.2580 -0.3150
17917TIP3    H175242   1.963   1.717   0.361  2.4276 -0.9743 -0.5798
17917TIP3    H275243   1.957   1.823   0.469 -0.3157 -1.6238 -0.0230
17918TIP3   OH275244   2.080   0.286  12.038 -0.5436  0.7559  0.1016
17918TIP3    H175245   2.102   0.196  12.014 -1.0355  0.8704 -0.8577
17918TIP3    H275246   2.162   0.334  12.028 -0.2150  0.3688  0.8873
17919TIP3   OH275247   2.649   0.451  12.646  0.2044 -0.0097 -0.1931
17919TIP3    H175248   2.695   0.450  12.562 -3.0764  0.1560 -2.1734
17919TIP3    H275249   2.660   0.362  12.680  0.3709 -0.5383 -1.5642
17920TIP3   OH275250   6.750   3.070   0.975 -0.6250  0.4388  0.4320
17920TIP3    H175251   6.776   3.122   0.899 -0.7918 -0.9508 -0.6199
17920TIP3    H275252   6.822   3.081   1.037 -0.0765  0.9180 -0.2753
17921TIP3   OH275253   0.630   0.869   1.607 -0.1164 -0.3505 -0.1020
17921TIP3    H175254   0.669   0.907   1.686 -1.3675 -0.5135  0.6055
17921TIP3    H275255   0.550   0.920   1.593  0.8200  0.6712 -2.1369
17922TIP3   OH275256   1.296   2.616  12.163  0.1838 -0.3612 -0.1893
17922TIP3    H175257   1.345   2.613  12.081  1.2262  1.0612  0.3542
17922TIP3    H275258   1.340   2.682  12.216 -1.5742  0.0883  0.8107
17923TIP3   OH275259   4.238   4.848  13.629  0.1296 -0.3895  0.0640
17923TIP3    H175260   4.286   4.810  13.703 -0.2215 -0.2721  0.3536
17923TIP3    H275261   4.149   4.858  13.661  0.3198  1.1258  0.1587
17924TIP3   OH275262   4.550   1.413   0.979 -0.3351 -0.6068 -0.1752
17924TIP3    H175263   4.508   1.401   1.064  0.0031  0.6469  0.1903
17924TIP3    H275264   4.629   1.359   0.983 -0.9897 -1.5871 -0.2047
17925TIP3   OH275265   1.097   4.749   5.730  0.8326 -0.0602  0.3890
17925TIP3    H175266   1.027   4.808   5.701 -1.1551 -1.4246  2.0918
17925TIP3    H275267   1.114   4.775   5.821 -0.9444 -2.7348  1.6037
17926TIP3   OH275268   3.369   5.092   2.663  0.3448 -0.4640 -0.1284
17926TIP3    H175269   3.454   5.050   2.667 -0.9004 -3.1302  1.0127
17926TIP3    H275270   3.312   5.028   2.620 -1.4810  0.4239  0.8450
17927TIP3   OH275271   6.075   0.009   3.757 -0.3156  0.4136 -0.1980
17927TIP3    H175272   6.113   0.060   3.829 -1.1579  1.3997 -0.4303
17927TIP3    H275273   5.981   0.026   3.762 -0.4761 -0.1645 -1.0361
17928TIP3   OH275274   6.221   2.401   6.256 -0.0308  0.4036 -0.2545
17928TIP3    H175275   6.192   2.312   6.237  0.1701  0.4103 -0.6165
17928TIP3    H275276   6.302   2.390   6.306 -0.2659  0.3846  0.1233
17929TIP3   OH275277   2.658   2.215  15.373  0.0716  0.9725 -1.1843
17929TIP3    H175278   2.688   2.254  15.291  3.1061  0.2825 -0.5171
17929TIP3    H275279   2.682   2.279  15.440  2.7193 -0.7386 -0.3546
17930TIP3   OH275280   0.931   2.080   5.623 -0.4084  0.4824  0.1931
17930TIP3    H175281   0.942   2.058   5.715  0.6092 -0.7899 -0.1975
17930TIP3    H275282   0.858   2.025   5.593  0.6632 -0.7449 -0.2467
17931TIP3   OH275283   3.692   0.379   4.610 -0.2587 -0.3529  0.5396
17931TIP3    H175284   3.697   0.311   4.677  0.0934 -0.5320  0.3344
17931TIP3    H275285   3.708   0.333   4.528  0.5830  0.0697  0.4506
17932TIP3   OH275286   0.007   6.473  14.471  0.6797  0.1183  0.0265
17932TIP3    H175287  -0.001   6.380  14.450  1.4287  0.5455 -2.4891
17932TIP3    H275288  -0.074   6.512  14.437  1.5990  0.7436 -1.5393
17933TIP3   OH275289   5.473   4.111   3.748 -0.3286 -0.7064 -1.4460
17933TIP3    H175290   5.408   4.106   3.677 -2.1714 -3.1120  0.2301
17933TIP3    H275291   5.509   4.023   3.753 -0.1229 -0.5496  0.4578
17934TIP3   OH275292   1.189   1.593   0.904  0.0910  0.9063 -0.0420
17934TIP3    H175293   1.203   1.677   0.948 -0.2216 -0.6763  3.3976
17934TIP3    H275294   1.094   1.588   0.893  0.2391  1.9265 -2.5141
17935TIP3   OH275295   6.038   0.481   3.000  0.8978  0.3037  0.2865
17935TIP3    H175296   6.100   0.410   2.985  2.2378  1.4988 -0.0213
17935TIP3    H275297   6.055   0.544   2.929 -1.8179 -0.0676 -0.8269
17936TIP3   OH275298   0.082   6.282   1.257  0.3882  0.1190  0.2353
17936TIP3    H175299   0.099   6.202   1.208  0.6919  0.5098 -0.3018
17936TIP3    H275300  -0.013   6.294   1.251  0.3797 -0.0344  0.0700
17937TIP3   OH275301   1.612   3.274  15.678 -0.0542  0.2534 -0.3139
17937TIP3    H175302   1.703   3.259  15.652 -0.2676 -1.3260 -0.2634
17937TIP3    H275303   1.564   3.277  15.595 -0.3677 -2.1432 -0.2813
17938TIP3   OH275304   1.802   3.099  14.645 -0.0105 -0.1871  0.2367
17938TIP3    H175305   1.723   3.101  14.591  0.2689  0.9568 -0.1535
17938TIP3    H275306   1.807   3.008  14.676 -0.4480 -0.7629 -1.2627
17939TIP3   OH275307   6.610   6.286  13.793 -0.0263 -0.2982  0.2925
17939TIP3    H175308   6.631   6.364  13.845  2.3054  0.1222 -1.1409
17939TIP3    H275309   6.621   6.314  13.702  0.0200 -2.0796 -0.2845
17940TIP3   OH275310   2.029   1.222  12.790  0.2382 -0.7261 -0.0342
17940TIP3    H175311   1.988   1.143  12.826  0.1188 -0.6192  0.0636
17940TIP3    H275312   2.123   1.204  12.796  0.3302  0.2240  2.5352
17941TIP3   OH275313   1.618   6.661  17.163 -0.4527 -0.6601  0.4700
17941TIP3    H175314   1.650   6.724  17.228  1.3184  0.0817 -1.0183
17941TIP3    H275315   1.651   6.576  17.194 -0.5695 -0.4856  1.0935
17942TIP3   OH275316   0.737   2.345  12.873  0.1364  0.5512 -0.1129
17942TIP3    H175317   0.729   2.295  12.791 -1.0959  4.2611 -2.5149
17942TIP3    H275318   0.677   2.301  12.933 -0.9736 -0.7990 -2.0740
17943TIP3   OH275319   6.534   1.719   0.351 -0.1021  0.0681  0.0759
17943TIP3    H175320   6.582   1.673   0.419 -0.2422 -0.9965 -0.5223
17943TIP3    H275321   6.582   1.699   0.270 -0.5864  0.3828 -0.2972
17944TIP3   OH275322   4.354   4.279  16.024  0.0273  0.1995  0.1648
17944TIP3    H175323   4.418   4.208  16.017 -1.3206 -1.0379  0.0527
17944TIP3    H275324   4.334   4.303  15.933 -1.4738 -1.1146  0.1194
17945TIP3   OH275325   1.432   5.771  13.060 -0.0675  0.8180  0.7050
17945TIP3    H175326   1.339   5.750  13.052  0.4154 -1.4226  0.2776
17945TIP3    H275327   1.473   5.724  12.987  1.4467  1.5484  1.0524
17946TIP3   OH275328   5.814   0.865   2.859 -0.2773  0.1373 -0.5714
17946TIP3    H175329   5.763   0.785   2.861  0.4034 -0.3005 -0.5289
17946TIP3    H275330   5.767   0.922   2.799 -0.5801 -0.4154 -0.8629
17947TIP3   OH275331   2.441   4.059   4.794  0.1089 -0.1511  0.1003
17947TIP3    H175332   2.444   3.963   4.794 -4.3864 -0.4824  0.7467
17947TIP3    H275333   2.428   4.082   4.702  0.3307 -0.1835  0.0584
17948TIP3   OH275334   5.862   2.103   0.508  0.2193 -0.1260  0.4123
17948TIP3    H175335   5.779   2.081   0.550 -0.3726 -0.7199 -0.9749
17948TIP3    H275336   5.918   2.027   0.525  0.4253  0.1947  1.1944
17949TIP3   OH275337   4.411   2.665   1.995 -0.1872 -0.0853  0.3592
17949TIP3    H175338   4.472   2.600   2.030  0.3302  0.8759  1.3198
17949TIP3    H275339   4.358   2.617   1.932  0.9220 -1.1766  0.2144
17950TIP3   OH275340   3.343   1.146   1.306  0.3390  0.1906  0.3900
17950TIP3    H175341   3.323   1.124   1.215 -0.6526 -1.5837  0.9851
17950TIP3    H275342   3.400   1.075   1.336  0.1655  0.4264  1.3253
17951TIP3   OH275343   4.424   2.506   4.117 -0.4838  0.4574  0.3813
17951TIP3    H175344   4.392   2.446   4.184  1.7755 -1.5169 -0.1657
17951TIP3    H275345   4.361   2.499   4.045 -1.1847  0.1234  1.0238
17952TIP3   OH275346   4.532   5.560   3.105 -0.2955 -0.2005  0.4471
17952TIP3    H175347   4.466   5.605   3.053 -0.2428  2.3298  2.3246
17952TIP3    H275348   4.483   5.499   3.160 -0.6985 -0.5348 -0.2748
17953TIP3   OH275349   4.526   1.849   5.001 -0.1713 -0.2942 -0.0574
17953TIP3    H175350   4.438   1.859   5.036  0.3429 -0.5545  1.3635
17953TIP3    H275351   4.584   1.864   5.076  1.0058  0.0482 -0.9962
17954TIP3   OH275352   1.431   2.909  16.447 -0.3562 -0.4204  0.2426
17954TIP3    H175353   1.399   2.819  16.457 -0.7844 -0.3107 -0.1509
17954TIP3    H275354   1.403   2.953  16.526 -1.1775 -0.3277 -0.0903
17955TIP3   OH275355   2.497   6.104  15.929  0.0546  0.6156 -0.2445
17955TIP3    H175356   2.436   6.058  15.987 -0.3424 -0.5327 -1.5133
17955TIP3    H275357   2.442   6.167  15.882  0.3096  1.3003  0.3702
17956TIP3   OH275358   3.699   0.453  11.113  0.5153  0.4661 -0.3642
17956TIP3    H175359   3.783   0.477  11.073  1.4860 -2.7326 -0.4863
17956TIP3    H275360   3.648   0.417  11.040 -0.0962  0.2945  0.1460
17957TIP3   OH275361   0.267   3.375  10.828 -0.8886  0.6666 -0.1207
17957TIP3    H175362   0.326   3.357  10.755  0.5305  1.2129  0.8656
17957TIP3    H275363   0.206   3.300  10.827 -1.7929  1.3064 -2.6524
17958TIP3   OH275364   4.159   5.314  13.378  0.4531  0.9557 -0.2314
17958TIP3    H175365   4.121   5.388  13.424  1.3329  2.6663 -2.1263
17958TIP3    H275366   4.253   5.330  13.378  0.8612 -1.0548  0.7482
17959TIP3   OH275367   0.649   6.681  13.680  0.0940  0.4315  0.3535
17959TIP3    H175368   0.587   6.741  13.721  0.1987  0.6418  0.2067
17959TIP3    H275369   0.716   6.738  13.642  2.0369  0.1755  3.0728
17960TIP3   OH275370   6.222   3.995   2.848  0.0683 -0.0262  0.3348
17960TIP3    H175371   6.140   4.020   2.807  0.0596 -0.5010  0.0545
17960TIP3    H275372   6.201   3.916   2.898  0.1539  0.3606  0.9848
17961TIP3   OH275373   4.282   5.694   4.096  0.2479  0.2019 -0.3201
17961TIP3    H175374   4.200   5.736   4.069 -0.6110 -0.6758  0.8086
17961TIP3    H275375   4.277   5.606   4.059 -0.1149 -0.4062  1.0920
17962TIP3   OH275376   2.091   0.501   4.074 -0.0162  0.0942 -0.2409
17962TIP3    H175377   2.098   0.564   4.002 -0.7024 -0.3140 -0.6737
17962TIP3    H275378   2.065   0.555   4.149  1.5773  0.6560 -0.0700
17963TIP3   OH275379   2.730   5.838  11.098  0.0973  0.2903  0.0897
17963TIP3    H175380   2.781   5.894  11.039  0.9385 -0.8227 -0.2725
17963TIP3    H275381   2.794   5.778  11.136 -0.7297 -0.2184  0.7232
17964TIP3   OH275382   5.564   4.255   2.086 -0.3118  0.1984  0.2300
17964TIP3    H175383   5.610   4.333   2.055  1.6116 -1.8193 -2.4117
17964TIP3    H275384   5.489   4.247   2.027  1.1895 -1.5034 -1.5787
17965TIP3   OH275385   1.300   0.954  16.417 -0.2119  0.0810  0.3476
17965TIP3    H175386   1.326   0.866  16.389  1.1624  0.4604  0.3733
17965TIP3    H275387   1.360   0.975  16.489 -0.0723  1.3043 -0.1082
17966TIP3   OH275388   0.103   6.293  14.929 -0.2632 -0.5133  0.2218
17966TIP3    H175389   0.122   6.200  14.915 -1.6573 -0.6827 -0.7002
17966TIP3    H275390   0.134   6.336  14.850 -2.9337 -0.7184 -1.0403
17967TIP3   OH275391   0.623   3.610  13.887 -0.6268 -0.4100 -0.0470
17967TIP3    H175392   0.687   3.543  13.913 -0.7695 -0.8277 -0.7424
17967TIP3    H275393   0.551   3.560  13.847 -2.3076 -0.1358  2.3934
17968TIP3   OH275394   2.940   4.564   0.942  0.1592  0.0736 -0.6182
17968TIP3    H175395   2.863   4.602   0.985 -0.5893 -0.4373 -1.4612
17968TIP3    H275396   2.989   4.639   0.908 -1.3740  0.3567 -2.3926
17969TIP3   OH275397   1.489   1.192  11.572  0.1945  0.1488 -0.4968
17969TIP3    H175398   1.524   1.243  11.499  0.2573 -1.1114 -1.3780
17969TIP3    H275399   1.562   1.185  11.634 -0.1651  2.1134  0.2286
17970TIP3   OH275400   2.169   3.140   2.967  0.1544 -0.0619  0.0430
17970TIP3    H175401   2.156   3.228   2.934  0.8129 -0.1948 -0.5905
17970TIP3    H275402   2.255   3.114   2.935 -0.1174 -1.0111  0.0313
17971TIP3   OH275403   2.485   3.038  16.196  0.2140 -0.3579 -0.5163
17971TIP3    H175404   2.483   3.063  16.288  0.4508  0.5528 -0.7500
17971TIP3    H275405   2.542   2.961  16.193  0.8483  0.0814 -0.0111
17972TIP3   OH275406   2.144   6.716   5.831 -0.3896 -0.1652  0.3626
17972TIP3    H175407   2.127   6.682   5.919  0.5266 -1.2579  0.1355
17972TIP3    H275408   2.078   6.673   5.776  1.5720 -2.7723 -0.1578
17973TIP3   OH275409   4.832   4.383  11.230 -0.2228  0.3722  0.2304
17973TIP3    H175410   4.781   4.302  11.217  1.6161 -0.4134 -4.4294
17973TIP3    H275411   4.881   4.367  11.310 -1.0904 -2.5111  0.3349
17974TIP3   OH275412   1.587   5.571  12.944 -0.3209 -0.5574 -0.2396
17974TIP3    H175413   1.500   5.534  12.932  0.6177 -2.7057 -0.8331
17974TIP3    H275414   1.647   5.504  12.912  1.7155 -0.3428  2.7059
17975TIP3   OH275415   3.057   2.824  14.062  0.4233 -0.6674  0.4371
17975TIP3    H175416   2.967   2.814  14.093  0.5515 -0.2027  0.9559
17975TIP3    H275417   3.111   2.821  14.141  0.8561 -0.8201  0.1413
17976TIP3   OH275418   3.795   0.863  12.347 -0.7658  0.4565 -0.6315
17976TIP3    H175419   3.747   0.784  12.373  3.2888 -1.9292  0.4262
17976TIP3    H275420   3.832   0.897  12.429  1.2298  0.7613 -1.6065
17977TIP3   OH275421   5.319   6.719   4.661 -0.4484 -0.5408 -0.2018
17977TIP3    H175422   5.335   6.639   4.710  1.8368 -0.4052 -0.6188
17977TIP3    H275423   5.399   6.733   4.610 -1.0431  1.6249 -0.6679
17978TIP3   OH275424   2.936   4.323   2.898 -0.4656  0.4643  0.0306
17978TIP3    H175425   2.920   4.290   2.810  2.0914  0.6284 -0.5743
17978TIP3    H275426   3.024   4.361   2.894 -0.4913  0.9588  2.5184
17979TIP3   OH275427   0.973   5.002   1.743 -0.5150 -0.0469  0.2953
17979TIP3    H175428   0.924   5.082   1.761  0.5521  0.6525  0.1635
17979TIP3    H275429   1.040   4.998   1.811  0.7031  0.2426 -0.8508
17980TIP3   OH275430   5.871   4.723  14.892  0.2408  0.3389  0.1011
17980TIP3    H175431   5.936   4.780  14.853  0.5025 -0.7141 -1.0576
17980TIP3    H275432   5.853   4.657  14.825  0.0765 -1.0283  1.4406
17981TIP3   OH275433   2.526   1.326  11.785  0.2625  0.2363  0.3945
17981TIP3    H175434   2.517   1.231  11.776  0.2331  0.3086 -0.4057
17981TIP3    H275435   2.496   1.361  11.701  1.0432  0.9036  0.3786
17982TIP3   OH275436   2.322   3.752  12.926  0.6721  0.3204  0.4897
17982TIP3    H175437   2.388   3.816  12.900  2.4579 -1.1235  1.2060
17982TIP3    H275438   2.330   3.682  12.861 -0.5290  0.3243  0.3127
17983TIP3   OH275439   2.876   3.401  12.845 -0.0790 -0.8332 -0.0454
17983TIP3    H175440   2.871   3.487  12.887  1.8142  0.1034 -1.5993
17983TIP3    H275441   2.965   3.371  12.860 -0.6012 -2.3759  0.1428
17984TIP3   OH275442   0.380   3.703  14.695 -0.4966 -0.3165  0.3163
17984TIP3    H175443   0.368   3.615  14.731  0.0961 -0.2364  0.7425
17984TIP3    H275444   0.329   3.759  14.753 -1.7504 -0.4940 -0.5945
17985TIP3   OH275445   5.071   3.865   5.130 -0.2827 -0.7787 -0.0966
17985TIP3    H175446   5.041   3.896   5.045  0.9593  0.2889 -0.1822
17985TIP3    H275447   4.993   3.862   5.185 -0.7931  0.3858 -0.7361
17986TIP3   OH275448   3.082   1.142   2.153  0.3026  0.1016 -0.0471
17986TIP3    H175449   3.123   1.070   2.202 -0.1019 -0.1522 -0.0753
17986TIP3    H275450   3.130   1.220   2.180  0.9556 -0.2167 -0.2481
17987TIP3   OH275451   0.086   0.225   1.974 -0.0985 -0.2810 -0.4101
17987TIP3    H175452   0.061   0.251   1.885  0.6173  2.3758  0.0909
17987TIP3    H275453   0.002   0.212   2.019 -0.5347  1.3304 -0.7001
17988TIP3   OH275454   4.336   3.413   3.232 -0.5308 -0.0184  0.2043
17988TIP3    H175455   4.373   3.327   3.252 -0.0414  0.2312  0.3913
17988TIP3    H275456   4.397   3.451   3.169 -0.9832  0.0147 -0.2148
17989TIP3   OH275457   3.937   2.502   4.135 -0.2478  0.1876 -0.0356
17989TIP3    H175458   3.860   2.520   4.189 -1.4316  0.0627 -1.5817
17989TIP3    H275459   3.990   2.443   4.187 -1.7933 -0.6997  0.6149
17990TIP3   OH275460   6.327   1.523  14.044  0.0751 -0.1464  0.4730
17990TIP3    H175461   6.239   1.548  14.016  0.7107 -0.0901 -1.6635
17990TIP3    H275462   6.340   1.436  14.008  1.6408  0.6968 -1.1348
17991TIP3   OH275463   0.632   6.189  11.496 -0.0504 -0.1141  0.2700
17991TIP3    H175464   0.538   6.171  11.500 -0.0006 -0.2418  1.2595
17991TIP3    H275465   0.671   6.107  11.466 -0.2562 -0.0402 -0.2086
17992TIP3   OH275466   2.434   6.482  17.074 -0.4900 -0.1324 -0.2544
17992TIP3    H175467   2.443   6.561  17.022  0.2223  0.0128  0.0751
17992TIP3    H275468   2.518   6.436  17.064 -0.7728 -0.6784 -0.1764
17993TIP3   OH275469   3.475   5.349   3.461  0.0998  0.1034 -0.7561
17993TIP3    H175470   3.450   5.436   3.429  1.1852  0.2587 -1.2497
17993TIP3    H275471   3.548   5.366   3.520 -2.1093 -0.1419  2.2623
17994TIP3   OH275472   3.233   5.257   1.753  0.2714  0.3303 -0.2886
17994TIP3    H175473   3.181   5.290   1.826  1.0393  1.5327 -0.2435
17994TIP3    H275474   3.311   5.313   1.753  0.6067 -0.1073 -1.6005
17995TIP3   OH275475   6.419   3.751   2.035 -0.3689 -0.2667  0.1956
17995TIP3    H175476   6.507   3.789   2.027 -0.2186 -0.2850  1.5961
17995TIP3    H275477   6.429   3.683   2.101 -1.3418 -0.6100 -0.0015
17996TIP3   OH275478   4.690   6.134  14.702 -0.1806  0.1975 -0.6266
17996TIP3    H175479   4.660   6.208  14.754 -0.4301  0.2136 -0.7914
17996TIP3    H275480   4.675   6.058  14.758  0.8297  0.3376 -0.1336
17997TIP3   OH275481   1.006   5.357   5.058 -0.3688  0.4339  0.1146
17997TIP3    H175482   1.064   5.429   5.084 -0.0694  0.6448 -1.0856
17997TIP3    H275483   1.013   5.294   5.130  0.5044  0.9480  0.5001
17998TIP3   OH275484   0.374   6.820  11.202 -0.0635 -0.4159 -0.0633
17998TIP3    H175485   0.334   6.733  11.202 -0.5078 -0.2312 -0.9690
17998TIP3    H275486   0.429   6.821  11.124 -1.0917  0.5518 -0.8116
17999TIP3   OH275487   3.180   6.653  14.866 -0.5469 -0.0655  0.3659
17999TIP3    H175488   3.180   6.720  14.934 -0.6886 -1.3951  1.7591
17999TIP3    H275489   3.269   6.618  14.866 -1.1123 -1.6717  1.6198
18000TIP3   OH275490   6.109   4.652   5.324 -0.4831 -0.2222 -0.3157
18000TIP3    H175491   6.120   4.643   5.230  2.5520  0.4173 -0.1047
18000TIP3    H275492   6.121   4.564   5.359  0.8252 -0.0820 -0.3770
18001TIP3   OH275493   1.694   0.316   0.588  0.2785 -0.0983 -0.1483
18001TIP3    H175494   1.645   0.356   0.660 -0.9065  0.3092 -1.1439
18001TIP3    H275495   1.653   0.230   0.575 -0.5888  0.4694 -1.3540
18002TIP3   OH275496   0.578   6.405  13.558  0.3191  0.3565  0.8779
18002TIP3    H175497   0.492   6.426  13.596 -0.6346 -1.6851  0.0281
18002TIP3    H275498   0.627   6.366  13.630  0.3084  0.9522  1.2131
18003TIP3   OH275499   6.268   5.884  15.466 -0.3381  0.2479 -0.0842
18003TIP3    H175500   6.225   5.961  15.429  1.2062 -0.0484 -2.7230
18003TIP3    H275501   6.356   5.915  15.489  0.5994 -0.8260 -1.9795
18004TIP3   OH275502   4.854   3.543  16.262 -0.0840 -0.0732  0.2403
18004TIP3    H175503   4.885   3.581  16.344  2.0420  0.1080 -0.5915
18004TIP3    H275504   4.839   3.618  16.205 -1.7669 -0.1839  0.4876
18005TIP3   OH275505   2.387   1.905   4.320  0.6038  0.5648 -0.2561
18005TIP3    H175506   2.474   1.927   4.353  0.9263  0.9212 -1.2960
18005TIP3    H275507   2.327   1.960   4.370  1.1142  1.4487 -0.6054
18006TIP3   OH275508   1.527   4.166  15.041 -0.6206 -0.0990 -0.0188
18006TIP3    H175509   1.520   4.073  15.059 -2.3321 -0.0488 -0.2307
18006TIP3    H275510   1.437   4.196  15.033 -0.1154  1.1336 -2.2074
18007TIP3   OH275511   3.121   4.258   1.456 -0.3249  0.1065  0.0389
18007TIP3    H175512   3.114   4.339   1.508 -2.9005 -0.9972  1.5669
18007TIP3    H275513   3.112   4.288   1.365  3.2309  1.9603  0.0988
18008TIP3   OH275514   0.340   5.672   3.110  0.2683  0.1101 -0.0385
18008TIP3    H175515   0.310   5.616   3.038  0.0643  1.1583 -0.8008
18008TIP3    H275516   0.433   5.687   3.091 -0.1554  1.7202 -1.0380
18009TIP3   OH275517   3.222   0.644   2.720  0.2447  0.1946 -0.4732
18009TIP3    H175518   3.209   0.554   2.691  1.5095 -0.2529  0.2655
18009TIP3    H275519   3.238   0.637   2.814  1.5266  1.0674 -0.6010
18010TIP3   OH275520   5.450   5.547   0.203  0.2236 -0.1962  0.1168
18010TIP3    H175521   5.538   5.511   0.202  0.7168  0.9735 -0.2486
18010TIP3    H275522   5.455   5.625   0.147 -1.3963 -0.9517 -1.1737
18011TIP3   OH275523   2.762   2.582  11.798 -0.6073  0.1053  0.0562
18011TIP3    H175524   2.729   2.548  11.881  0.9028 -0.7252  0.3520
18011TIP3    H275525   2.691   2.636  11.764 -0.8497  1.4588  2.4598
18012TIP3   OH275526   5.722   3.434   4.002 -0.0792 -0.5065  0.5680
18012TIP3    H175527   5.694   3.366   3.942 -0.9322  0.6311 -0.3849
18012TIP3    H275528   5.640   3.478   4.027  0.6378  1.8722 -0.9781
18013TIP3   OH275529   3.899   3.570   2.079 -0.1390  0.2934 -0.3533
18013TIP3    H175530   3.924   3.605   1.993 -0.3950 -0.0345 -0.5629
18013TIP3    H275531   3.975   3.586   2.134  0.1176  0.2962 -0.7007
18014TIP3   OH275532   3.994   4.344   1.833  0.4634  0.1863  0.7875
18014TIP3    H175533   4.047   4.419   1.808  2.1045 -1.3693 -0.6698
18014TIP3    H275534   4.035   4.312   1.913 -0.6107  1.1195  1.7642
18015TIP3   OH275535   3.764   5.876  12.903  0.1763  0.6139 -0.2420
18015TIP3    H175536   3.839   5.888  12.960  0.8638 -0.3818 -0.8925
18015TIP3    H275537   3.749   5.781  12.903 -0.8041  0.7517 -0.4750
18016TIP3   OH275538   3.404   6.271   1.895 -0.3502 -0.4237 -0.3440
18016TIP3    H175539   3.482   6.232   1.856 -0.3119 -0.6729 -0.0196
18016TIP3    H275540   3.434   6.315   1.974 -0.4454 -0.0010 -0.5363
18017TIP3   OH275541   2.188   5.088   4.134 -0.0571 -0.0726 -0.5423
18017TIP3    H175542   2.237   5.045   4.064 -0.4666  0.5757 -1.2412
18017TIP3    H275543   2.168   5.175   4.100 -1.4468 -0.2161 -0.1506
18018TIP3   OH275544   6.602   6.020  15.454 -0.1119 -0.5127  0.5561
18018TIP3    H175545   6.601   5.957  15.526  1.0710  0.9175  1.9057
18018TIP3    H275546   6.545   6.091  15.483  1.4747  0.7286  0.7707
18019TIP3   OH275547   0.248   0.553   4.600 -0.4305  0.3464 -0.1017
18019TIP3    H175548   0.180   0.521   4.659  0.4686 -0.8067  0.3586
18019TIP3    H275549   0.308   0.479   4.591  1.4854  1.7189  0.5914
18020TIP3   OH275550   3.624   4.565   6.620 -0.0706 -0.1626  0.0469
18020TIP3    H175551   3.529   4.562   6.614 -0.0473 -0.0682 -0.3739
18020TIP3    H275552   3.642   4.633   6.685 -0.2908 -0.2473  0.1962
18021TIP3   OH275553   3.154   4.575  16.612 -0.1621 -0.2772 -0.0601
18021TIP3    H175554   3.238   4.547  16.648 -0.7530 -2.4798 -0.2371
18021TIP3    H275555   3.112   4.493  16.584 -2.0240  0.8497 -0.7170
18022TIP3   OH275556   1.775   2.839  14.751 -0.0814  0.0398  0.0614
18022TIP3    H175557   1.761   2.793  14.834 -0.1021  2.7026  1.6443
18022TIP3    H275558   1.747   2.777  14.684 -1.2220 -1.7701  2.1046
18023TIP3   OH275559   3.247   4.857  15.709 -0.2275  0.2000  0.7366
18023TIP3    H175560   3.268   4.771  15.672  0.4694  0.5962  0.1904
18023TIP3    H275561   3.304   4.866  15.785 -1.4871 -0.5106  1.8094
18024TIP3   OH275562   3.602   1.582   5.269  0.0521 -0.7249 -0.1710
18024TIP3    H175563   3.591   1.654   5.206  0.4603 -1.5312 -1.2136
18024TIP3    H275564   3.610   1.625   5.354  0.7007  0.4946 -0.8134
18025TIP3   OH275565   3.986   3.561   6.093  0.0196 -0.3190  0.3588
18025TIP3    H175566   4.048   3.568   6.165 -0.1549  0.3194  0.4472
18025TIP3    H275567   3.951   3.472   6.101  0.7390 -0.5978  0.4490
18026TIP3   OH275568   6.327   5.439  12.683 -1.2615  0.3323 -0.3050
18026TIP3    H175569   6.402   5.406  12.733 -2.1355 -2.7830 -0.8365
18026TIP3    H275570   6.257   5.447  12.748 -0.8741  2.0536 -0.0410
18027TIP3   OH275571   1.461   1.633   0.762  0.4429  0.1372 -0.3977
18027TIP3    H175572   1.516   1.707   0.787  2.1656 -0.9749 -0.7219
18027TIP3    H275573   1.404   1.619   0.837  1.4045  0.6055  0.4463
18028TIP3   OH275574   0.468   0.129   5.865  0.2609  0.2882  0.1012
18028TIP3    H175575   0.418   0.172   5.934  0.5864  1.3485 -0.3029
18028TIP3    H275576   0.549   0.101   5.907 -0.9859 -2.2943  1.0008
18029TIP3   OH275577   2.879   1.254  12.776 -0.0731 -0.0282 -0.4244
18029TIP3    H175578   2.947   1.262  12.843  1.4704 -1.8818 -1.6456
18029TIP3    H275579   2.896   1.326  12.716 -2.0854  2.2525  1.5818
18030TIP3   OH275580   4.833   2.767   2.537 -0.3963  0.2174 -0.0756
18030TIP3    H175581   4.752   2.781   2.585  0.0978  2.6841  0.1841
18030TIP3    H275582   4.894   2.732   2.603 -0.6743  0.3025  0.2277
18031TIP3   OH275583   4.665   6.829   1.636 -0.4896 -0.0974 -0.2132
18031TIP3    H175584   4.704   6.803   1.553  3.1472  1.7021  0.7354
18031TIP3    H275585   4.622   6.913   1.618 -1.0085 -0.4273 -0.5444
18032TIP3   OH275586   3.145   3.793   0.907  0.2564  0.3133 -0.2253
18032TIP3    H175587   3.171   3.885   0.912 -0.9804  0.7048 -0.7280
18032TIP3    H275588   3.050   3.794   0.918  0.3683 -1.0588  1.2734
18033TIP3   OH275589   3.509   4.636  12.172  0.2823  0.0336  0.4087
18033TIP3    H175590   3.428   4.672  12.206  0.5326  0.7010  0.3034
18033TIP3    H275591   3.486   4.547  12.145 -1.3016  1.2511 -2.8194
18034TIP3   OH275592   2.770   1.438   4.620 -0.7035  0.0821  0.2850
18034TIP3    H175593   2.767   1.473   4.709 -1.8860 -0.0257  0.3085
18034TIP3    H275594   2.719   1.501   4.569 -0.7249 -0.2928 -0.1591
18035TIP3   OH275595   1.167   6.348   4.093 -0.4428  0.1891 -0.2665
18035TIP3    H175596   1.181   6.431   4.048 -0.7018  1.1829  1.4294
18035TIP3    H275597   1.136   6.372   4.180 -3.0026 -1.7239 -0.5242
18036TIP3   OH275598   6.201   4.812  15.962 -0.0067 -0.7162  0.2992
18036TIP3    H175599   6.243   4.732  15.930  0.3109 -0.4896  0.1526
18036TIP3    H275600   6.251   4.883  15.923 -0.7095 -0.4408 -0.1091
18037TIP3   OH275601   0.155   1.429   0.004 -0.5585  0.3820  0.0160
18037TIP3    H175602   0.097   1.363  -0.034  0.6226 -1.3534  1.0665
18037TIP3    H275603   0.126   1.437   0.095 -0.4847  1.1139 -0.0159
18038TIP3   OH275604   1.819   4.148  14.625  0.3272 -0.3398  0.0684
18038TIP3    H175605   1.820   4.188  14.538  0.8199 -0.3634  0.0590
18038TIP3    H275606   1.762   4.204  14.677  1.6677  0.8744  0.2862
18039TIP3   OH275607   3.389   1.208   0.114 -0.3528  0.3393 -0.2507
18039TIP3    H175608   3.384   1.123   0.070 -2.3045 -0.8827  2.1318
18039TIP3    H275609   3.483   1.224   0.124  0.0830 -0.6261 -2.3348
18040TIP3   OH275610   3.295   0.900   5.634  0.4012  0.0888 -0.1093
18040TIP3    H175611   3.379   0.871   5.671 -0.8116 -2.9439  0.5301
18040TIP3    H275612   3.252   0.947   5.705  1.1336  0.8232 -0.1382
18041TIP3   OH275613   3.733   2.778  15.916 -0.1770 -0.2260 -0.0285
18041TIP3    H175614   3.810   2.787  15.860  0.6809 -0.4734  1.0720
18041TIP3    H275615   3.691   2.698  15.886 -0.5799  0.4102 -1.2742
18042TIP3   OH275616   1.007   4.531   3.566 -0.6525 -0.1500 -0.2387
18042TIP3    H175617   0.987   4.550   3.657 -1.1048 -0.0090 -0.3644
18042TIP3    H275618   0.990   4.613   3.520  1.0441  0.2358 -0.2373
18043TIP3   OH275619   1.984   4.058  12.355 -0.1432 -0.0826  0.5931
18043TIP3    H175620   2.076   4.048  12.377  0.1812  1.5714  0.1080
18043TIP3    H275621   1.942   4.080  12.439  0.4136  2.0566  0.3637
18044TIP3   OH275622   1.787   0.125   4.427  0.4030  0.2159  0.2162
18044TIP3    H175623   1.804   0.067   4.501 -0.5729  0.5944  0.7548
18044TIP3    H275624   1.814   0.074   4.350  0.2502 -0.6634  0.7332
18045TIP3   OH275625   1.793   2.011  14.313 -0.2552 -0.3732 -0.5037
18045TIP3    H175626   1.842   2.092  14.314 -0.1595 -0.4328  0.0782
18045TIP3    H275627   1.826   1.961  14.388 -2.2113  0.2097  0.8323
18046TIP3   OH275628   1.866   1.761   4.375  0.2373 -0.4213  0.6083
18046TIP3    H175629   1.827   1.840   4.337  0.3281 -0.1590  1.0589
18046TIP3    H275630   1.865   1.777   4.469 -1.3450 -1.6904  0.8547
18047TIP3   OH275631   0.047   4.076   2.811 -0.4327  0.3583 -0.2849
18047TIP3    H175632   0.002   4.160   2.810 -0.3245  0.4315 -2.2177
18047TIP3    H275633   0.062   4.055   2.719  0.5099 -1.2686  0.1908
18048TIP3   OH275634   4.231   1.316  12.458  0.1729  0.3688  0.3167
18048TIP3    H175635   4.139   1.322  12.484 -0.0531  1.4270 -0.6238
18048TIP3    H275636   4.279   1.312  12.540 -0.6890  0.3033  0.8279
18049TIP3   OH275637   6.199   6.213   5.354 -0.1094  0.0420 -0.2738
18049TIP3    H175638   6.223   6.259   5.273  0.0735 -0.7596 -0.6852
18049TIP3    H275639   6.229   6.123   5.340  0.9480  0.1391  1.1302
18050TIP3   OH275640   2.298   3.779  12.183  0.3737 -0.2272  0.4659
18050TIP3    H175641   2.379   3.830  12.183  0.5735 -0.5057  1.7260
18050TIP3    H275642   2.328   3.688  12.183  0.0298 -0.3488 -0.7976
18051TIP3   OH275643   4.863   1.916  11.125  0.1203 -0.5771 -0.1971
18051TIP3    H175644   4.918   1.970  11.182 -0.3920  1.7774 -1.7999
18051TIP3    H275645   4.779   1.912  11.169  0.9336 -2.5850  1.3240
18052TIP3   OH275646   1.891   3.896  16.501  0.4043  0.0020 -0.0757
18052TIP3    H175647   1.852   3.947  16.573  0.2533 -0.1739 -0.0343
18052TIP3    H275648   1.843   3.924  16.423 -0.4265 -0.8875  0.1070
18053TIP3   OH275649   2.312   4.027  14.633 -0.3477 -0.2860  0.1619
18053TIP3    H175650   2.397   4.014  14.592  0.1877  3.0136 -0.0176
18053TIP3    H275651   2.323   3.993  14.722  0.9200 -0.5438 -0.0714
18054TIP3   OH275652   4.295   1.743   2.138 -0.7777 -0.1838 -0.5703
18054TIP3    H175653   4.318   1.651   2.150 -1.5525 -0.4247 -0.8472
18054TIP3    H275654   4.334   1.789   2.212  0.4628 -0.5810 -0.9510
18055TIP3   OH275655   4.424   0.779   3.729 -0.0041  0.2968  0.1878
18055TIP3    H175656   4.388   0.852   3.679  0.1084 -0.1448 -0.5515
18055TIP3    H275657   4.388   0.701   3.687  1.1844 -0.1277 -0.0828
18056TIP3   OH275658   4.043   3.825  15.805  0.0650  0.3312  0.0765
18056TIP3    H175659   3.981   3.796  15.739 -1.4216  1.5124  0.8900
18056TIP3    H275660   4.000   3.808  15.888  1.4167 -0.0634  0.7302
18057TIP3   OH275661   4.549   6.266  10.249  0.0159 -0.4942  0.7961
18057TIP3    H175662   4.621   6.238  10.306  0.4276 -1.5181 -0.1882
18057TIP3    H275663   4.501   6.330  10.302  0.6638 -1.0366  2.1054
18058TIP3   OH275664   1.347   1.142  15.830 -0.4733  0.1252 -0.5898
18058TIP3    H175665   1.318   1.054  15.853  0.8998 -0.0316  0.7102
18058TIP3    H275666   1.272   1.199  15.850 -1.3165 -0.7217 -1.3035
18059TIP3   OH275667   0.396   6.763  11.555  0.0421 -0.0820  0.2060
18059TIP3    H175668   0.317   6.761  11.502  0.6546 -1.7102 -0.7014
18059TIP3    H275669   0.466   6.788  11.495  0.5079 -0.4720  0.5701
18060TIP3   OH275670   6.798   1.817   4.183  0.1646 -0.5954  0.5161
18060TIP3    H175671   6.766   1.880   4.248  0.0554  1.3802 -1.3193
18060TIP3    H275672   6.739   1.742   4.192 -1.1183  0.4557  1.3507
18061TIP3   OH275673   5.433   5.876  11.827 -0.3167 -1.0259  0.6567
18061TIP3    H175674   5.509   5.822  11.852  0.3217 -1.0570 -1.2177
18061TIP3    H275675   5.470   5.948  11.777 -1.5110 -0.9272 -0.1241
18062TIP3   OH275676   2.613   5.539  11.450  0.2739  0.6457 -0.1280
18062TIP3    H175677   2.588   5.453  11.417  1.0836  0.2628  0.2378
18062TIP3    H275678   2.573   5.601  11.388 -1.0495  0.0479  0.1089
18063TIP3   OH275679   2.372   2.046   3.862  0.4400 -0.0999  0.4313
18063TIP3    H175680   2.426   1.967   3.864  0.5810  0.0099  1.7283
18063TIP3    H275681   2.359   2.064   3.769  2.0771 -0.5209  0.0849
18064TIP3   OH275682   2.859   4.316   0.183 -0.0572 -0.4937 -0.2034
18064TIP3    H175683   2.856   4.408   0.158  0.9425  0.5404  3.0341
18064TIP3    H275684   2.786   4.304   0.243  0.1958 -1.6725 -0.0896
18065TIP3   OH275685   6.186   3.200   4.975 -0.3547  0.6050  0.2385
18065TIP3    H175686   6.223   3.280   4.938  1.4787 -0.3034 -0.0256
18065TIP3    H275687   6.262   3.147   4.999 -1.5002 -1.1090  0.2973
18066TIP3   OH275688   0.222   5.521   4.242  0.0858 -0.0604 -0.2273
18066TIP3    H175689   0.143   5.474   4.270  0.4136 -0.0509  0.7598
18066TIP3    H275690   0.188   5.598   4.196 -0.4713 -0.4773 -0.5255
18067TIP3   OH275691   6.721   2.135  12.229  0.4537 -0.0375 -0.1031
18067TIP3    H175692   6.632   2.145  12.260 -0.1273 -1.7830 -1.0543
18067TIP3    H275693   6.747   2.047  12.257  1.7266  0.2761 -0.1972
18068TIP3   OH275694   6.459   5.958  12.604  0.0537 -0.0649 -0.1711
18068TIP3    H175695   6.457   5.863  12.594  1.8342 -0.0377 -1.3658
18068TIP3    H275696   6.406   5.991  12.532  1.0986 -0.1478 -1.0048
18069TIP3   OH275697   2.425   0.298   0.626  0.0072 -0.6338 -0.1234
18069TIP3    H175698   2.485   0.294   0.552  0.3775  2.0752 -0.0877
18069TIP3    H275699   2.480   0.287   0.703  0.4384  1.1942 -0.1203
18070TIP3   OH275700   0.706   4.248  16.348 -0.2662  0.5018 -0.3857
18070TIP3    H175701   0.629   4.302  16.364  0.1750  1.2147 -0.6358
18070TIP3    H275702   0.682   4.161  16.382 -1.7950  0.2666 -1.9624
18071TIP3   OH275703   6.751   1.161  14.745 -0.1161  0.2666 -0.0409
18071TIP3    H175704   6.686   1.159  14.674 -0.9253 -0.0571  0.7006
18071TIP3    H275705   6.776   1.254  14.751 -0.9472  0.4933  0.0579
18072TIP3   OH275706   1.281   4.697  11.881 -0.7157 -0.3466 -0.1052
18072TIP3    H175707   1.368   4.713  11.918  0.3243 -1.5839 -1.8487
18072TIP3    H275708   1.242   4.632  11.939  0.5027 -1.5372 -0.5492
18073TIP3   OH275709   4.183   0.482   2.294 -0.1664 -0.1523  0.5375
18073TIP3    H175710   4.251   0.461   2.230 -1.0733 -4.4282  0.6763
18073TIP3    H275711   4.232   0.501   2.375  0.9765 -2.3259  0.4366
18074TIP3   OH275712   4.159   0.923  12.371 -0.4771 -0.2191  0.2233
18074TIP3    H175713   4.151   0.879  12.456 -0.3883 -0.3036  0.1877
18074TIP3    H275714   4.249   0.907  12.343 -1.2291 -2.5912 -1.1906
18075TIP3   OH275715   0.730   2.592  14.992  0.3701  0.5489  0.0192
18075TIP3    H175716   0.794   2.655  15.026  0.3227  1.7124 -1.8944
18075TIP3    H275717   0.645   2.635  15.004  0.0390 -0.3758  1.2210
18076TIP3   OH275718   2.478   0.446  16.674 -0.0038  0.2621  0.1525
18076TIP3    H175719   2.434   0.458  16.590  0.6357  0.8724 -0.1068
18076TIP3    H275720   2.407   0.425  16.736 -0.3709 -1.1603 -0.7079
18077TIP3   OH275721   2.843   0.060  12.341 -0.3586  0.0571 -0.4629
18077TIP3    H175722   2.932   0.081  12.367 -0.1433 -0.7677 -0.4938
18077TIP3    H275723   2.836   0.087  12.250  0.6722 -2.1064 -1.2638
18078TIP3   OH275724   3.924   5.543  13.456 -0.1679 -0.1174 -0.4733
18078TIP3    H175725   3.954   5.594  13.531  2.6519 -0.4138 -1.2872
18078TIP3    H275726   3.934   5.601  13.381 -0.0775 -0.7847 -0.9887
18079TIP3   OH275727   5.543   3.349   5.619 -0.2762  0.0001 -0.1155
18079TIP3    H175728   5.462   3.398   5.605 -0.1403  0.2558 -0.0115
18079TIP3    H275729   5.515   3.269   5.663 -0.4319  0.2497  0.2458
18080TIP3   OH275730   1.187   1.772   5.782 -0.5382  0.0605 -0.3417
18080TIP3    H175731   1.239   1.851   5.794  0.9104 -0.7851 -0.7441
18080TIP3    H275732   1.250   1.700   5.790 -1.8852 -1.0989  0.5495
18081TIP3   OH275733   6.126   0.180  15.149  0.2082 -0.3308  0.4061
18081TIP3    H175734   6.211   0.144  15.124  0.5227  0.1851  0.7128
18081TIP3    H275735   6.118   0.261  15.098 -0.1215 -0.4061  0.3379
18082TIP3   OH275736   1.180   4.596  16.106 -0.1740  0.1420  0.2018
18082TIP3    H175737   1.112   4.638  16.054 -1.2375 -0.0441  1.3811
18082TIP3    H275738   1.263   4.623  16.065 -0.9584 -0.6780 -2.0544
18083TIP3   OH275739   6.332   0.230   1.534  0.3040 -0.1926 -0.3831
18083TIP3    H175740   6.278   0.207   1.458 -0.6363 -0.0710  0.2339
18083TIP3    H275741   6.386   0.153   1.549  0.4797 -0.2309 -1.1503
18084TIP3   OH275742   0.238   5.903  12.369 -0.2856  0.3868  0.1428
18084TIP3    H175743   0.322   5.860  12.357 -0.1037  0.2953  1.6496
18084TIP3    H275744   0.238   5.973  12.303  1.1998  0.7364  0.4730
18085TIP3   OH275745   3.972   2.134  11.801 -0.0387  0.2962 -0.3416
18085TIP3    H175746   4.024   2.123  11.721 -0.7251 -1.2348 -0.6063
18085TIP3    H275747   3.920   2.212  11.785  0.4031  0.4528 -1.0698
18086TIP3   OH275748   4.728   0.104   0.887 -0.1641  0.5872  0.0222
18086TIP3    H175749   4.814   0.099   0.844 -0.6500 -2.5436 -0.8562
18086TIP3    H275750   4.666   0.117   0.815 -0.6680 -0.9204  0.1358
18087TIP3   OH275751   1.060   0.393   0.087  0.0457  0.1499  0.1619
18087TIP3    H175752   1.037   0.486   0.084 -2.7865 -0.3719  1.7682
18087TIP3    H275753   1.141   0.390   0.138 -0.3782  1.6800  0.9760
18088TIP3   OH275754   2.039   1.743  10.677 -0.2569 -0.4591  0.3845
18088TIP3    H175755   2.092   1.697  10.611 -0.4181 -1.8669  1.1997
18088TIP3    H275756   1.961   1.688  10.687 -0.3310 -0.1456  1.5930
18089TIP3   OH275757   1.964   5.014   4.238 -0.0941 -0.3580 -0.6367
18089TIP3    H175758   1.924   5.038   4.155 -0.4568  2.5953  0.2936
18089TIP3    H275759   2.058   5.024   4.223 -0.1798  0.5345 -0.6007
18090TIP3   OH275760   1.848   4.664  13.052 -0.3508  0.4822 -0.1141
18090TIP3    H175761   1.827   4.747  13.011 -0.4679  0.0209 -1.0112
18090TIP3    H275762   1.944   4.662  13.056 -0.3581  1.2756  1.2433
18091TIP3   OH275763   4.824   2.603   4.587 -0.4681 -0.7701  0.2478
18091TIP3    H175764   4.847   2.657   4.512  1.7432 -1.4640  0.3548
18091TIP3    H275765   4.731   2.583   4.575 -0.0275 -1.4779 -2.7101
18092TIP3   OH275766   6.324   4.179   3.636  0.5413 -0.6347  0.3066
18092TIP3    H175767   6.236   4.163   3.601  0.8358  1.8641 -1.8858
18092TIP3    H275768   6.312   4.251   3.698  0.9715 -0.6530  0.4121
18093TIP3   OH275769   4.516   4.168   2.479  0.1668  0.1672 -0.5279
18093TIP3    H175770   4.464   4.123   2.545  0.5186 -2.3073 -1.8450
18093TIP3    H275771   4.451   4.213   2.424 -0.1855  1.3685  0.8199
18094TIP3   OH275772   3.283   0.047  10.385 -0.0818 -0.5281  0.8197
18094TIP3    H175773   3.249   0.135  10.399  0.1244 -0.1968 -0.6178
18094TIP3    H275774   3.211   0.001  10.341  0.2381 -0.7051  0.4737
18095TIP3   OH275775   6.581   3.681  12.618  0.4668 -0.6318 -0.6201
18095TIP3    H175776   6.546   3.716  12.701 -0.6367 -1.8546 -0.5365
18095TIP3    H275777   6.514   3.702  12.554 -1.1301 -4.0298 -0.2511
18096TIP3   OH275778   4.323   3.418   4.195  0.2792  0.2654  0.0280
18096TIP3    H175779   4.312   3.325   4.180  0.4462  0.4150 -1.1586
18096TIP3    H275780   4.291   3.433   4.284  0.9163 -1.0286  0.4896
18097TIP3   OH275781   5.920   3.414   1.141  0.1748 -0.6201  0.3583
18097TIP3    H175782   5.919   3.500   1.099  0.0257  0.2784  2.1442
18097TIP3    H275783   6.013   3.389   1.142  0.0841 -1.1522 -1.4140
18098TIP3   OH275784   2.089   0.631   0.769  0.7129 -0.0838 -0.3898
18098TIP3    H175785   2.076   0.591   0.683  1.1059  1.9427 -1.4425
18098TIP3    H275786   2.114   0.558   0.826 -0.2739 -1.5893 -1.8013
18099TIP3   OH275787   3.321   5.877  12.497 -0.2790  0.5255  0.4028
18099TIP3    H175788   3.408   5.848  12.524 -0.2531  1.6129  1.5801
18099TIP3    H275789   3.336   5.923  12.414  0.5659  2.2358  1.4623
18100TIP3   OH275790   1.329   1.398   1.870  0.2076 -0.1496  0.4849
18100TIP3    H175791   1.362   1.402   1.781  0.4931 -1.6967  0.4837
18100TIP3    H275792   1.235   1.413   1.862  0.3201  0.2884 -0.0030
18101TIP3   OH275793   2.246   5.409   0.353  0.3570  0.1751  0.8567
18101TIP3    H175794   2.254   5.328   0.404 -0.8740  0.7926  2.0885
18101TIP3    H275795   2.236   5.378   0.262  2.0155 -0.9555  1.0138
18102TIP3   OH275796   0.017   3.568  15.949 -0.4458  0.3293 -0.1553
18102TIP3    H175797   0.043   3.659  15.936  0.1304  0.1021 -0.6216
18102TIP3    H275798   0.100   3.520  15.954 -0.7609 -0.2508 -0.5009
18103TIP3   OH275799   1.055   0.450  11.051 -0.2724  0.0778  0.2349
18103TIP3    H175800   1.032   0.533  11.010 -0.2395 -0.6742 -1.4284
18103TIP3    H275801   0.976   0.421  11.095 -0.5604  0.5636  0.0386
18104TIP3   OH275802   2.914   0.531   1.564 -0.2207 -0.3249 -0.6776
18104TIP3    H175803   2.823   0.511   1.543  0.0572 -0.2676 -2.0255
18104TIP3    H275804   2.912   0.617   1.605 -0.7303 -0.1184 -1.1340
18105TIP3   OH275805   6.457   2.784   3.797 -0.0455 -0.0421 -0.5004
18105TIP3    H175806   6.424   2.798   3.886 -0.6395  2.9260 -1.0684
18105TIP3    H275807   6.505   2.702   3.802  0.3940  0.2708  2.6901
18106TIP3   OH275808   3.479   3.041   4.385  0.4386 -0.0299  0.0180
18106TIP3    H175809   3.496   3.116   4.443  0.8917 -0.2345  0.1505
18106TIP3    H275810   3.396   3.006   4.416 -0.5994  1.3601 -1.0378
18107TIP3   OH275811   5.633   5.492  16.023  0.5276  0.4045  0.3181
18107TIP3    H175812   5.710   5.455  15.980 -0.7925  0.4333 -2.2171
18107TIP3    H275813   5.629   5.582  15.992 -0.9008  0.2019 -0.1496
18108TIP3   OH275814   2.267   0.079  11.986 -0.6444 -0.4746 -0.6038
18108TIP3    H175815   2.332   0.064  12.054 -0.6479  0.1434 -0.4566
18108TIP3    H275816   2.252  -0.007  11.947  0.4463 -0.5826 -0.8076
18109TIP3   OH275817   0.027   5.692   2.312 -0.4242 -0.3224 -0.2006
18109TIP3    H175818  -0.008   5.781   2.309 -1.7237 -0.7881  0.2064
18109TIP3    H275819  -0.027   5.643   2.251  1.0723 -0.6112 -1.3567
18110TIP3   OH275820   2.805   2.069  12.015 -0.1594  0.0570  0.3417
18110TIP3    H175821   2.835   2.160  12.020 -0.9822  0.2666  2.6703
18110TIP3    H275822   2.813   2.036  12.104 -1.1154 -1.7565 -0.1910
18111TIP3   OH275823   3.905   6.697   0.775  0.0239 -0.0293 -0.3355
18111TIP3    H175824   3.957   6.745   0.711  1.3539  0.4980  1.0926
18111TIP3    H275825   3.957   6.698   0.855 -1.0293 -1.7422  0.4374
18112TIP3   OH275826   1.749   2.759  11.094 -0.1471 -0.1918 -0.4011
18112TIP3    H175827   1.778   2.850  11.103 -0.8503  0.0065 -0.0802
18112TIP3    H275828   1.761   2.739  11.001  2.0205 -0.4732 -0.1089
18113TIP3   OH275829   4.087   6.070  11.698  0.0744  0.3859 -0.0500
18113TIP3    H175830   4.164   6.072  11.641 -0.1704  1.2797 -0.3689
18113TIP3    H275831   4.022   6.124  11.652 -0.1102  1.1782  1.0954
18114TIP3   OH275832   5.153   3.175   5.812 -0.4222  0.5997 -0.1865
18114TIP3    H175833   5.186   3.097   5.857 -1.0733 -0.3212 -1.2737
18114TIP3    H275834   5.089   3.212   5.872 -1.0692 -0.4447 -0.2166
18115TIP3   OH275835   0.535   1.424  11.566 -0.3272  0.4014 -0.2760
18115TIP3    H175836   0.476   1.451  11.636 -0.6510  0.9177 -0.7409
18115TIP3    H275837   0.493   1.346  11.529 -0.8978  0.9578 -0.8210
18116TIP3   OH275838   4.299   2.856   1.282  0.0674 -0.2549 -0.6728
18116TIP3    H175839   4.394   2.842   1.277  0.3600  0.8101  0.9155
18116TIP3    H275840   4.276   2.899   1.200  1.1896  0.5499 -0.5909
18117TIP3   OH275841   4.078   4.208  13.714 -0.4077  0.1013 -0.1131
18117TIP3    H175842   4.145   4.214  13.646  1.0121  1.5636  1.3526
18117TIP3    H275843   4.012   4.149  13.676  1.3045 -0.7950 -1.9072
18118TIP3   OH275844   5.553   6.365   1.910  0.3678 -0.2358  0.4204
18118TIP3    H175845   5.574   6.296   1.847 -2.6749 -0.7936 -0.1609
18118TIP3    H275846   5.563   6.446   1.861 -0.0161 -0.5419 -0.1753
18119TIP3   OH275847   0.280   3.680  16.014  0.2498  0.5903 -0.0732
18119TIP3    H175848   0.297   3.605  16.071 -0.7010  0.7050  0.3902
18119TIP3    H275849   0.363   3.729  16.014  0.6875 -0.1325  0.1088
18120TIP3   OH275850   3.273   3.405  14.983 -0.5063  0.1935  0.2498
18120TIP3    H175851   3.215   3.426  14.909 -2.1281 -0.2832  1.3168
18120TIP3    H275852   3.214   3.403  15.059  1.1225  0.7856  1.5859
18121TIP3   OH275853   0.063   6.285  13.093 -0.2108 -0.1297  0.6088
18121TIP3    H175854   0.108   6.203  13.111  2.4135  1.3222  1.0524
18121TIP3    H275855   0.092   6.344  13.162 -2.3869  1.1202  0.5563
18122TIP3   OH275856   4.086   0.944   0.502  0.0942  0.0940  0.1694
18122TIP3    H175857   4.181   0.957   0.509  0.0177  0.2511  1.0734
18122TIP3    H275858   4.054   1.026   0.464  0.3010  0.1152  0.0399
18123TIP3   OH275859   5.027   0.087  13.588 -0.6170 -0.4567  0.3441
18123TIP3    H175860   5.058   0.099  13.498 -0.4458 -0.1832  0.4368
18123TIP3    H275861   5.072   0.009  13.619  1.9419  1.2615  1.3011
18124TIP3   OH275862   2.645   1.963   1.297 -0.0063  0.0286 -0.1152
18124TIP3    H175863   2.669   1.914   1.218  1.7389 -0.4510  0.6452
18124TIP3    H275864   2.661   2.055   1.274  1.3467 -0.1731 -0.0989
18125TIP3   OH275865   3.303   0.253  13.001  0.5692 -0.2237 -0.0071
18125TIP3    H175866   3.313   0.160  12.982  0.4899 -0.4798  1.1815
18125TIP3    H275867   3.351   0.267  13.082 -0.4256  0.5273  0.4713
18126TIP3   OH275868   1.495   5.070   6.313 -0.3972 -0.1000 -0.2103
18126TIP3    H175869   1.590   5.074   6.299 -0.3593  0.2144  0.1090
18126TIP3    H275870   1.457   5.094   6.229 -0.1886  0.1797 -0.2273
18127TIP3   OH275871   5.723   1.040  12.476 -0.4554 -0.6289  0.7225
18127TIP3    H175872   5.707   1.029  12.570 -1.4796  0.7392  0.7463
18127TIP3    H275873   5.712   0.953  12.439  1.7194 -1.5593  2.0661
18128TIP3   OH275874   0.418   3.312  10.585 -0.3466 -0.4487 -0.5697
18128TIP3    H175875   0.489   3.337  10.526 -0.6098 -2.0037 -1.6072
18128TIP3    H275876   0.449   3.234  10.630 -0.3322  0.4562  1.0904
18129TIP3   OH275877   6.353   1.572   0.698  0.4670 -0.6520 -0.4606
18129TIP3    H175878   6.301   1.546   0.622  0.9794 -0.5427 -0.8478
18129TIP3    H275879   6.291   1.619   0.754 -0.2605 -1.9567 -0.1381
18130TIP3   OH275880   2.922   5.306  16.319  0.0725  0.1311 -0.4953
18130TIP3    H175881   2.972   5.360  16.257 -0.8711  0.5086 -0.9430
18130TIP3    H275882   2.871   5.248  16.264 -1.0353  0.6987 -0.0951
18131TIP3   OH275883   1.082   3.221  14.211  0.5622  0.1830  0.2560
18131TIP3    H175884   1.147   3.289  14.198  0.7271  0.2672  1.3889
18131TIP3    H275885   1.039   3.211  14.126 -0.2693  2.5038  0.3601
18132TIP3   OH275886   1.926   0.225   4.809 -0.6383  0.0974  0.3232
18132TIP3    H175887   1.851   0.263   4.762  0.8909 -0.0941 -2.5083
18132TIP3    H275888   1.999   0.284   4.789  0.6497 -1.4455  0.2721
18133TIP3   OH275889   0.296   5.236  10.661  0.1162 -0.3877 -0.3289
18133TIP3    H175890   0.315   5.152  10.618  0.5017 -0.2487 -0.4365
18133TIP3    H275891   0.212   5.222  10.704 -0.1340 -0.6274 -0.8833
18134TIP3   OH275892   1.195   1.445  13.828  0.4222  0.8552 -0.0552
18134TIP3    H175893   1.247   1.464  13.750  0.4686 -1.3170 -0.6329
18134TIP3    H275894   1.178   1.350  13.823  1.1115  0.4658  2.9704
18135TIP3   OH275895   5.965   6.836  13.191 -0.3966 -0.4150 -0.0602
18135TIP3    H175896   5.881   6.846  13.145  0.1469 -0.2603 -1.0635
18135TIP3    H275897   5.942   6.838  13.284 -1.6229 -1.4560 -0.3148
18136TIP3   OH275898   0.540   1.319   4.673  0.2850  0.4011 -0.6915
18136TIP3    H175899   0.522   1.364   4.590 -1.6980  1.4253  0.2167
18136TIP3    H275900   0.517   1.384   4.740 -0.7435 -1.2945  0.6647
18137TIP3   OH275901   6.189   1.522   0.475  0.3466  0.1215 -0.2526
18137TIP3    H175902   6.207   1.612   0.450  0.2227  0.1475 -0.2495
18137TIP3    H275903   6.099   1.506   0.445  0.5063 -0.1268 -0.6149
18138TIP3   OH275904   0.888   6.181  15.872 -0.3129 -0.3385  0.2161
18138TIP3    H175905   0.839   6.113  15.918 -0.2150  0.4133  1.4778
18138TIP3    H275906   0.941   6.134  15.807  0.8112 -1.6243  1.9946
18139TIP3   OH275907   0.700   0.433   2.264  0.1992 -0.2642  0.2106
18139TIP3    H175908   0.764   0.421   2.194  0.1415  0.0170  0.1098
18139TIP3    H275909   0.752   0.454   2.341  0.3023 -1.1273  0.3865
18140TIP3   OH275910   3.089   5.964   1.629  0.1402  0.3021  0.5809
18140TIP3    H175911   3.082   6.010   1.713 -0.6479 -0.0299  0.7082
18140TIP3    H275912   3.014   5.904   1.628  0.9083 -0.6925  0.2452
18141TIP3   OH275913   0.051   3.145  15.113 -0.7707 -0.1101  0.4782
18141TIP3    H175914   0.125   3.115  15.166 -1.8871  0.5173  2.4816
18141TIP3    H275915  -0.005   3.067  15.103  0.8092 -1.0229 -2.4009
18142TIP3   OH275916   3.455   4.093  13.307 -0.4766 -0.2353  0.1986
18142TIP3    H175917   3.510   4.128  13.236 -0.8152 -1.3341 -0.6345
18142TIP3    H275918   3.517   4.058  13.371 -0.1785  0.0529  0.0703
18143TIP3   OH275919   1.646   6.661  15.494 -0.5354  0.3024  0.1330
18143TIP3    H175920   1.654   6.747  15.534 -1.9596  1.4171 -1.8398
18143TIP3    H275921   1.619   6.678  15.404  2.4037 -2.0415 -1.4007
18144TIP3   OH275922   6.614   1.069   4.678  0.0583 -0.2460 -0.0889
18144TIP3    H175923   6.546   1.113   4.729 -0.4866 -0.6052 -0.4896
18144TIP3    H275924   6.581   0.981   4.665 -0.2734  0.1080 -1.8806
18145TIP3   OH275925   0.450   3.751   4.105  0.6878  0.0039 -0.4890
18145TIP3    H175926   0.415   3.667   4.134 -0.3093  0.3483 -0.6566
18145TIP3    H275927   0.425   3.758   4.013  3.0689 -0.6790 -1.2491
18146TIP3   OH275928   0.179   0.799   5.434  0.0565 -0.4580  0.2139
18146TIP3    H175929   0.255   0.802   5.376 -1.4510 -0.5828 -1.8682
18146TIP3    H275930   0.126   0.726   5.401 -1.9505  0.8870  0.2857
18147TIP3   OH275931   0.161   6.447  14.219  0.2757  0.2488  0.2849
18147TIP3    H175932   0.150   6.463  14.313  1.7884 -0.4001  0.5987
18147TIP3    H275933   0.225   6.512  14.191 -2.2904  2.4262 -0.9901
18148TIP3   OH275934   3.514   6.180  15.074 -1.1436 -0.6474  0.6257
18148TIP3    H175935   3.473   6.245  15.017 -2.6080 -0.8581  1.3813
18148TIP3    H275936   3.583   6.228  15.120 -1.4300  0.0823  0.3107
18149TIP3   OH275937   4.237   5.782  17.178  0.4941 -0.0072  0.1311
18149TIP3    H175938   4.154   5.760  17.135  0.4732 -1.5806  0.9209
18149TIP3    H275939   4.265   5.863  17.135 -0.8079 -0.1308 -1.0241
18150TIP3   OH275940   5.200   1.135  15.572  0.1814 -0.2836 -0.1469
18150TIP3    H175941   5.122   1.081  15.584 -0.7141  0.7557 -1.0778
18150TIP3    H275942   5.251   1.091  15.505 -0.3976 -0.1425 -0.6865
18151TIP3   OH275943   3.011   3.492   2.074 -0.1287 -0.1805  0.2777
18151TIP3    H175944   2.916   3.485   2.072 -0.4947  2.2686  2.3588
18151TIP3    H275945   3.030   3.576   2.032  1.3900 -1.5856 -2.0616
18152TIP3   OH275946   5.278   3.743   0.330  0.1800  0.1182 -0.3328
18152TIP3    H175947   5.219   3.819   0.330 -0.0326 -0.0377 -1.2549
18152TIP3    H275948   5.354   3.772   0.280  0.4305 -0.0249 -0.0321
18153TIP3   OH275949   6.035   3.597   2.437 -1.0827 -0.1983 -0.3345
18153TIP3    H175950   6.098   3.634   2.376 -0.0641 -2.0456 -0.4658
18153TIP3    H275951   5.951   3.605   2.393 -0.4637 -0.8549 -1.6940
18154TIP3   OH275952   0.736   3.021   0.032  0.1169  0.1708  0.4221
18154TIP3    H175953   0.723   2.984   0.119  0.1927  0.8568  0.7284
18154TIP3    H275954   0.684   3.101   0.031  0.7653  0.5975  0.1217
18155TIP3   OH275955   2.759   3.670  12.630 -0.1734  0.1753 -0.0139
18155TIP3    H175956   2.752   3.586  12.675  2.1022 -0.1934 -0.2105
18155TIP3    H275957   2.679   3.677  12.578 -0.6739 -1.5919  0.4755
18156TIP3   OH275958   4.858   0.645  15.210 -0.0634  0.0688  0.1861
18156TIP3    H175959   4.937   0.600  15.179 -0.2226 -0.6442  0.7655
18156TIP3    H275960   4.858   0.630  15.305 -0.6933  0.3895  0.2452
18157TIP3   OH275961   4.764   3.672  13.529  0.2361  0.0283 -0.2686
18157TIP3    H175962   4.719   3.655  13.446  0.1439  1.6266 -0.5833
18157TIP3    H275963   4.767   3.587  13.573 -0.2906 -0.7172 -1.6231
18158TIP3   OH275964   4.847   4.553  16.617 -1.2319  0.3661 -0.0598
18158TIP3    H175965   4.915   4.515  16.561 -0.6060 -0.4261  1.1921
18158TIP3    H275966   4.849   4.647  16.598  0.3506  0.3802  0.0680
18159TIP3   OH275967   5.924   1.294   5.608  0.2961  0.0188  0.2382
18159TIP3    H175968   5.966   1.220   5.563  1.6525 -0.2625  1.8171
18159TIP3    H275969   5.959   1.372   5.564  0.3025 -0.2594 -0.2590
18160TIP3   OH275970   1.429   1.509  14.217 -0.4259  0.1410 -0.4505
18160TIP3    H175971   1.339   1.542  14.221 -0.4139  0.2615 -1.0865
18160TIP3    H275972   1.457   1.526  14.127  0.7726  1.4977  0.1411
18161TIP3   OH275973   3.065   0.588   4.173 -0.1471 -0.2351  0.6630
18161TIP3    H175974   3.013   0.517   4.136  0.1001 -0.8705  1.5014
18161TIP3    H275975   3.153   0.552   4.181  0.2729  0.5956 -0.0784
18162TIP3   OH275976   6.720   4.920  12.433  0.0033 -0.4174 -0.0841
18162TIP3    H175977   6.712   4.995  12.373  1.3167  0.5885  0.9090
18162TIP3    H275978   6.719   4.843  12.376  0.8146  0.4810 -1.3779
18163TIP3   OH275979   2.392   2.851   2.595 -0.2542  0.3727 -0.1317
18163TIP3    H175980   2.458   2.909   2.558 -0.9749  0.6600 -1.0049
18163TIP3    H275981   2.325   2.844   2.527 -2.1757  1.7683  1.4776
18164TIP3   OH275982   5.369   0.995  15.412 -0.7223 -0.1719  0.1898
18164TIP3    H175983   5.461   1.021  15.407 -0.3024 -1.0485  2.3655
18164TIP3    H275984   5.353   0.948  15.330  1.2553 -1.4310  0.4688
18165TIP3   OH275985   6.317   3.463   1.704 -0.0359  0.2433  0.1051
18165TIP3    H175986   6.341   3.556   1.698 -2.3853  0.8379 -1.0199
18165TIP3    H275987   6.232   3.463   1.748 -0.5996 -1.2911 -0.9103
18166TIP3   OH275988   2.581   0.702  13.915 -0.0933 -0.4450  0.5444
18166TIP3    H175989   2.534   0.634  13.963 -1.2674  1.8659  2.9182
18166TIP3    H275990   2.673   0.673  13.917 -0.4795 -1.6956  1.9459
18167TIP3   OH275991   2.126   4.312   4.466  0.0115  0.5013  0.3386
18167TIP3    H175992   2.061   4.338   4.530  1.0317  0.0346  1.6111
18167TIP3    H275993   2.079   4.254   4.406 -0.5071 -0.7508  1.8958
18168TIP3   OH275994   4.553   0.306  13.301 -0.3121  0.1275  0.1429
18168TIP3    H175995   4.474   0.340  13.345  0.0470 -0.3070  1.1508
18168TIP3    H275996   4.608   0.383  13.287 -0.4908  0.2901  0.3301
18169TIP3   OH275997   0.194   5.351  11.294  0.2381 -1.1766 -0.1097
18169TIP3    H175998   0.186   5.262  11.259 -1.8020 -0.7963 -0.7741
18169TIP3    H275999   0.133   5.403  11.242 -2.3239 -0.3635  3.3088
18170TIP3   OH276000   6.819   0.850  11.269  0.0519  0.3922  0.0215
18170TIP3    H176001   6.813   0.768  11.218  0.3032  0.2576  0.2034
18170TIP3    H276002   6.905   0.845  11.311 -0.5224  0.0584  1.2181
18171TIP3   OH276003   5.553   1.319   6.252 -0.1951  0.0178  0.1036
18171TIP3    H176004   5.640   1.354   6.270  0.4076 -2.2530  2.1789
18171TIP3    H276005   5.499   1.351   6.324 -0.7332  0.2666 -0.4045
18172TIP3   OH276006   2.476   2.524  15.098  0.7095  0.9895  0.2497
18172TIP3    H176007   2.502   2.605  15.142 -0.3466  0.9008  1.0750
18172TIP3    H276008   2.394   2.499  15.140  0.4707  0.0553 -0.7260
18173TIP3   OH276009   0.859   2.229   3.827  0.2772 -0.6087  0.5362
18173TIP3    H176010   0.784   2.287   3.839  0.6965 -0.0963  0.7148
18173TIP3    H276011   0.855   2.204   3.734  0.2610 -0.0511  0.3796
18174TIP3   OH276012   5.054   0.267   3.261  0.3380 -0.9964  0.0002
18174TIP3    H176013   5.074   0.327   3.189  1.2137 -0.4304  0.6878
18174TIP3    H276014   4.959   0.276   3.274  0.4623  0.3799  0.1829
18175TIP3   OH276015   0.615   0.052  12.919 -0.4888 -0.2032 -0.2931
18175TIP3    H176016   0.669   0.109  12.974 -1.6960 -0.4241  1.1995
18175TIP3    H276017   0.647   0.067  12.830  0.4338  1.4233  0.2674
18176TIP3   OH276018   3.670   0.983   2.231 -0.2270  0.0136  0.4154
18176TIP3    H176019   3.735   0.973   2.162 -0.7794  0.5252 -0.1868
18176TIP3    H276020   3.717   0.961   2.311  0.3735 -0.7748 -0.1372
18177TIP3   OH276021   2.682   0.384   0.466 -0.9794 -0.3623  0.1655
18177TIP3    H176022   2.711   0.317   0.527  0.9883 -0.1599 -0.4710
18177TIP3    H276023   2.616   0.341   0.412 -0.6238 -1.4096  0.5536
18178TIP3   OH276024   5.382   5.533   1.333 -0.6108  0.0415  0.0683
18178TIP3    H176025   5.462   5.584   1.342 -1.4519  1.7125 -1.2712
18178TIP3    H276026   5.344   5.532   1.421  0.1721  0.4693  0.4147
18179TIP3   OH276027   3.990   2.248   0.104 -0.3508 -0.2780 -0.2326
18179TIP3    H176028   3.991   2.343   0.106 -0.2285 -0.2825  0.0362
18179TIP3    H276029   3.937   2.225   0.028  1.6506  0.0132 -1.8111
18180TIP3   OH276030   6.576   1.330  16.571 -0.0879 -0.1012 -0.3924
18180TIP3    H176031   6.535   1.396  16.515  2.3160  0.2394 -1.8795
18180TIP3    H276032   6.566   1.248  16.523  0.6818 -0.0640 -0.6264
18181TIP3   OH276033   2.492   4.870  15.831  0.2933 -0.0365 -0.1099
18181TIP3    H176034   2.582   4.867  15.800 -0.0161 -1.1444 -0.9754
18181TIP3    H276035   2.474   4.963  15.843  2.0456  0.1459  1.6399
18182TIP3   OH276036   5.038   4.510  17.177 -0.8276 -0.1043  0.0696
18182TIP3    H176037   5.000   4.527  17.091 -1.0930 -0.0206  0.2008
18182TIP3    H276038   4.982   4.559  17.238  1.0032  2.2258  0.0270
18183TIP3   OH276039   4.349   3.392  14.798  0.5926  0.1768 -0.4317
18183TIP3    H176040   4.288   3.415  14.728 -1.1620 -1.8391  0.3284
18183TIP3    H276041   4.398   3.318  14.764 -1.3585 -1.8604  0.8830
18184TIP3   OH276042   2.738   5.014  14.437  0.2332 -0.3355  0.1195
18184TIP3    H176043   2.768   4.923  14.437 -1.6733 -1.0929 -2.4496
18184TIP3    H276044   2.817   5.066  14.428  1.2787 -1.7995  0.4990
18185TIP3   OH276045   3.527   1.819   0.828  0.5776 -0.2258 -0.2798
18185TIP3    H176046   3.536   1.724   0.833 -0.1132 -0.2237  1.9527
18185TIP3    H276047   3.453   1.840   0.885  0.4510  1.6416 -1.0339
18186TIP3   OH276048   5.311   1.280  17.093 -0.1045  0.0038 -0.5580
18186TIP3    H176049   5.403   1.283  17.065  0.2408 -0.2692  0.4970
18186TIP3    H276050   5.266   1.235  17.022  0.5963  0.0454 -1.0425
18187TIP3   OH276051   1.692   4.964  16.833 -0.4630  0.2713  0.0417
18187TIP3    H176052   1.608   4.984  16.791 -0.9201  0.3725  0.9862
18187TIP3    H276053   1.723   5.049  16.866 -0.1433  0.1791 -0.0162
18188TIP3   OH276054   5.287   2.959   0.974 -0.4683  0.0794  0.1615
18188TIP3    H176055   5.245   2.878   1.001  0.4486 -0.6757 -0.6159
18188TIP3    H276056   5.214   3.014   0.943 -0.8892 -1.3159 -1.4633
18189TIP3   OH276057   0.686   6.787   3.178  0.2675  0.1063  0.8649
18189TIP3    H176058   0.596   6.790   3.145 -0.1247  1.6917  1.9595
18189TIP3    H276059   0.734   6.849   3.123  0.4337  0.1055  1.0093
18190TIP3   OH276060   2.189   2.920  12.342 -0.4840  0.2899  0.2078
18190TIP3    H176061   2.196   2.906  12.247  1.1707  0.6086  0.2402
18190TIP3    H276062   2.215   2.836  12.380  2.2604  1.1083  0.3501
18191TIP3   OH276063   5.667   1.398  11.388  0.4664 -0.8118  0.0445
18191TIP3    H176064   5.691   1.330  11.452  2.9962  0.1493  0.2370
18191TIP3    H276065   5.612   1.458  11.438  1.8171 -0.4569  1.1759
18192TIP3   OH276066   5.701   4.121   5.215 -0.1362  0.2165  0.9311
18192TIP3    H176067   5.636   4.158   5.156  0.4855 -2.0311 -1.3521
18192TIP3    H276068   5.785   4.154   5.182  0.3493 -2.2523 -0.5766
18193TIP3   OH276069   5.010   2.858  11.068 -0.2242  0.3502  0.6621
18193TIP3    H176070   5.024   2.949  11.039  1.8612 -0.0387  0.2600
18193TIP3    H276071   5.030   2.805  10.991 -1.9773 -0.4780  0.7227
18194TIP3   OH276072   5.158   4.422   2.460 -0.5127  0.3122  0.0511
18194TIP3    H176073   5.202   4.348   2.502 -0.7422 -0.4053 -0.9229
18194TIP3    H276074   5.153   4.489   2.528 -0.0600 -0.4698  0.8801
18195TIP3   OH276075   4.196   0.431   5.464  0.5352 -0.7681 -0.7174
18195TIP3    H176076   4.115   0.388   5.440  1.0057 -1.0040 -1.9594
18195TIP3    H276077   4.172   0.489   5.536 -0.4225 -1.9143 -0.0793
18196TIP3   OH276078   0.205   3.866  15.573 -0.0832  0.0158 -0.4927
18196TIP3    H176079   0.260   3.831  15.503 -0.4535 -0.8092 -0.3807
18196TIP3    H276080   0.124   3.815  15.568  0.0920 -0.4398  0.8831
18197TIP3   OH276081   4.579   1.632  12.616 -0.4124 -0.6427 -0.2526
18197TIP3    H176082   4.561   1.576  12.540  0.7925 -0.3727 -0.7579
18197TIP3    H276083   4.662   1.674  12.595 -1.2958  1.3935  0.0803
18198TIP3   OH276084   5.240   3.611   0.009 -0.4543 -0.2697  0.0431
18198TIP3    H176085   5.299   3.681   0.035 -1.6238  0.0332  2.0946
18198TIP3    H276086   5.294   3.532   0.014  0.0106  0.0944  1.0250
18199TIP3   OH276087   3.691   3.529  14.753 -0.1237 -0.2139  0.2444
18199TIP3    H176088   3.617   3.470  14.766  1.2360 -1.5899  2.4019
18199TIP3    H276089   3.750   3.483  14.693  0.4106 -0.5686  1.0250
18200TIP3   OH276090   2.622   0.124   3.977  0.4000  0.5489  0.1661
18200TIP3    H176091   2.598   0.195   4.038  0.2629 -1.0309  2.0655
18200TIP3    H276092   2.716   0.132   3.966  0.6678  0.0125  1.8018
18201TIP3   OH276093   6.212   6.291  15.314  0.0056  0.6989 -0.0621
18201TIP3    H176094   6.261   6.328  15.388  0.0207  0.1235  0.2238
18201TIP3    H276095   6.130   6.260  15.352  1.1243 -2.1395  0.3049
18202TIP3   OH276096   6.292   6.083  16.016  0.0299  0.4889  0.1134
18202TIP3    H176097   6.372   6.114  16.059  0.4261 -1.7184  1.0955
18202TIP3    H276098   6.250   6.027  16.081 -0.7993 -0.7346 -1.4134
18203TIP3   OH276099   2.065   3.357  16.294 -0.1913  0.1579  0.3272
18203TIP3    H176100   2.038   3.272  16.328  0.4389 -0.0858  0.2277
18203TIP3    H276101   2.152   3.372  16.331 -0.1988  0.6496  0.1563
18204TIP3   OH276102   1.873   1.988  13.744  0.0792  0.1104 -1.0151
18204TIP3    H176103   1.915   1.925  13.803  0.8911 -0.3568 -2.0629
18204TIP3    H276104   1.886   2.073  13.786  0.7335 -0.2052 -0.5629
18205TIP3   OH276105   6.007   3.964   0.949  0.0014  0.2289  0.4966
18205TIP3    H176106   5.962   4.025   1.007 -1.0480 -0.8638  0.8718
18205TIP3    H276107   6.012   4.010   0.865  0.7561  1.4771  1.1929
18206TIP3   OH276108   5.846   1.924   2.480 -0.4696 -0.4689 -0.0488
18206TIP3    H176109   5.809   1.956   2.398 -1.3569 -0.5845  0.2939
18206TIP3    H276110   5.932   1.889   2.456 -1.0146 -1.1534 -1.0474
18207TIP3   OH276111   1.160   5.368   1.096  1.0050  0.3494 -0.1287
18207TIP3    H176112   1.185   5.418   1.174  2.7584  0.5293 -0.7762
18207TIP3    H276113   1.185   5.278   1.116 -1.0995 -0.1585  0.5710
18208TIP3   OH276114   5.365   4.055   4.378 -0.3041  0.2332  0.2768
18208TIP3    H176115   5.383   3.965   4.407 -0.4885 -0.1396 -0.7269
18208TIP3    H276116   5.270   4.056   4.365 -0.2959  0.5588  0.2469
18209TIP3   OH276117   6.546   1.012   1.066 -0.4322 -0.3188 -0.0279
18209TIP3    H176118   6.571   0.979   0.980  0.8054  0.8201 -0.1408
18209TIP3    H276119   6.552   0.935   1.123 -0.3601 -0.8836 -0.7822
18210TIP3   OH276120   3.823   2.197  10.429  0.1087 -0.5545  0.4855
18210TIP3    H176121   3.856   2.210  10.340 -1.3172  0.2253  0.0461
18210TIP3    H276122   3.734   2.232  10.428  0.4030  0.4102  2.5032
18211TIP3   OH276123   1.529   4.722   4.332  0.2101 -0.4558  0.0933
18211TIP3    H176124   1.458   4.735   4.269  0.0753  2.0923  0.6423
18211TIP3    H276125   1.600   4.778   4.301  2.1138 -2.9840 -0.4697
18212TIP3   OH276126   1.166   0.612  15.224  0.3158 -0.2324  0.3730
18212TIP3    H176127   1.185   0.574  15.310  1.1497  0.8514  0.6948
18212TIP3    H276128   1.093   0.671  15.240  0.4172 -0.0936  0.3291
18213TIP3   OH276129   2.599   4.509  13.866  0.7913 -0.1328 -0.2379
18213TIP3    H176130   2.609   4.414  13.876  2.5894  0.0037 -0.5237
18213TIP3    H276131   2.549   4.536  13.943  1.6403 -1.1049  0.6738
18214TIP3   OH276132   2.010   2.210  14.857 -0.0180 -0.3615 -0.2653
18214TIP3    H176133   1.938   2.229  14.916 -0.9660 -1.3027 -1.0560
18214TIP3    H276134   2.089   2.225  14.908 -0.8019 -0.7630  1.0998
18215TIP3   OH276135   4.482   1.869   4.087 -0.3871 -0.0927  0.2980
18215TIP3    H176136   4.425   1.793   4.101 -2.2067  1.2037  0.2618
18215TIP3    H276137   4.488   1.910   4.173 -1.9497  1.3856 -0.2526
18216TIP3   OH276138   5.512   2.661  16.457  0.0850 -0.2316 -0.2363
18216TIP3    H176139   5.435   2.713  16.480 -0.2245 -0.9620  0.4394
18216TIP3    H276140   5.477   2.591  16.402  0.2796 -0.4912 -0.0327
18217TIP3   OH276141   5.851   5.900  17.203  0.1937 -0.0029  0.0963
18217TIP3    H176142   5.860   5.912  17.109 -0.4250  1.2170  0.1733
18217TIP3    H276143   5.849   5.989  17.239 -2.5589 -0.2968  0.9535
18218TIP3   OH276144   1.377   5.296   4.308 -0.6505  0.2943 -0.3239
18218TIP3    H176145   1.381   5.202   4.291 -0.0330 -0.2608  2.5057
18218TIP3    H276146   1.294   5.309   4.353  0.6184  0.5166  2.1045
18219TIP3   OH276147   0.047   3.950   2.226  0.2726  0.2475 -0.0797
18219TIP3    H176148   0.110   4.022   2.217 -1.7569  1.9647 -1.7840
18219TIP3    H276149   0.066   3.892   2.152 -1.2740  1.8387 -1.8582
18220TIP3   OH276150   5.778   2.870  14.722  0.4486  0.2315  0.4408
18220TIP3    H176151   5.851   2.896  14.667  1.6754 -2.0135  0.8938
18220TIP3    H276152   5.703   2.868  14.663  1.1928  0.5014 -0.5312
18221TIP3   OH276153   4.866   1.666  11.379  0.5936  0.1798 -0.5715
18221TIP3    H176154   4.925   1.633  11.310  0.2024  1.7144 -1.6929
18221TIP3    H276155   4.922   1.724  11.431  0.8617 -0.8989  0.3771
18222TIP3   OH276156   0.945   6.477  15.162  0.2452 -0.5935 -0.5183
18222TIP3    H176157   0.877   6.508  15.222 -1.3603 -1.5032 -1.7790
18222TIP3    H276158   0.915   6.505  15.075  1.7112 -0.6608 -1.0760
18223TIP3   OH276159   2.734   5.680  15.839  0.4019  0.2776 -0.2485
18223TIP3    H176160   2.810   5.720  15.882  0.7981 -1.7583  1.1045
18223TIP3    H276161   2.727   5.593  15.879 -1.6091 -0.2512 -1.5946
18224TIP3   OH276162   3.965   5.359  12.277  0.3646 -0.2312 -0.3621
18224TIP3    H176163   3.931   5.351  12.188  3.7181 -0.6455 -1.7587
18224TIP3    H276164   3.973   5.268  12.307  0.0711 -0.1283  0.0378
18225TIP3   OH276165   5.626   0.854   0.656  0.1863  0.2136 -0.3347
18225TIP3    H176166   5.551   0.874   0.712  0.0835 -2.6813  0.7399
18225TIP3    H276167   5.693   0.917   0.683 -0.6337  0.4008  1.4133
18226TIP3   OH276168   1.612   3.654  13.473 -0.4026 -0.3397  0.0220
18226TIP3    H176169   1.636   3.721  13.410 -1.1373  1.5124  1.5930
18226TIP3    H276170   1.695   3.617  13.502 -0.0334 -0.7684 -1.5182
18227TIP3   OH276171   4.622   6.489   3.449  0.0565  0.7856  0.4114
18227TIP3    H176172   4.687   6.491   3.519  1.1603  1.4333 -0.5891
18227TIP3    H276173   4.620   6.579   3.416 -2.1106  1.0283  1.0616
18228TIP3   OH276174   5.451   3.832   4.606  0.0523 -0.1549  0.2372
18228TIP3    H176175   5.478   3.741   4.598 -2.2656 -0.7946 -1.1691
18228TIP3    H276176   5.493   3.862   4.687  0.7188 -2.5042  0.8492
18229TIP3   OH276177   4.744   4.997   1.935 -0.7064  0.3483  0.5565
18229TIP3    H176178   4.788   5.061   1.879 -1.2554  1.8893  1.8010
18229TIP3    H276179   4.777   5.015   2.023 -1.7044 -0.3555  1.1016
18230TIP3   OH276180   1.628   2.129  16.851 -0.6694 -0.2970  0.1493
18230TIP3    H176181   1.591   2.072  16.783 -2.5929  0.7211  0.2704
18230TIP3    H276182   1.571   2.206  16.851 -0.3887 -0.0235  2.5497
18231TIP3   OH276183   3.547   2.963  16.499 -0.2268  0.0144 -0.7271
18231TIP3    H176184   3.566   3.043  16.450  0.4727  1.0248  1.0967
18231TIP3    H276185   3.591   2.975  16.582 -4.1531  0.0015  1.6146
18232TIP3   OH276186   3.811   2.848  11.349  0.2223 -0.2636 -0.4658
18232TIP3    H176187   3.904   2.852  11.372  0.3371  0.0185 -0.9590
18232TIP3    H276188   3.810   2.827  11.255 -0.1849  0.9284 -0.7476
18233TIP3   OH276189   4.570   6.822   4.638  0.0789  0.6182  0.2311
18233TIP3    H176190   4.501   6.818   4.705  0.8299  0.6545  1.0284
18233TIP3    H276191   4.571   6.914   4.610 -1.4594  0.2630 -1.1815
18234TIP3   OH276192   1.328   4.367   5.796 -0.6286  0.0017 -0.0285
18234TIP3    H176193   1.381   4.440   5.766  0.3280 -1.0108 -0.8444
18234TIP3    H276194   1.243   4.406   5.817  0.5992  1.7891  2.0158
18235TIP3   OH276195   6.266   0.142   1.790  0.0402 -0.5341  0.0416
18235TIP3    H176196   6.269   0.230   1.827 -0.1588  0.0358 -1.2413
18235TIP3    H276197   6.339   0.140   1.727  0.5368 -1.5588  0.6323
18236TIP3   OH276198   3.658   6.750  14.164  0.2867 -0.1023  0.0064
18236TIP3    H176199   3.643   6.738  14.070  0.6668 -0.8338  0.0389
18236TIP3    H276200   3.586   6.702  14.206  2.0519 -2.8367  0.1446
18237TIP3   OH276201   2.979   4.178  10.794  0.1754  0.0195  0.2964
18237TIP3    H176202   3.029   4.207  10.717 -0.9403 -1.6474 -1.1493
18237TIP3    H276203   2.933   4.256  10.823  1.6450  0.9964  0.1065
18238TIP3   OH276204   3.007   5.831   2.409 -0.2431  0.7606 -0.1960
18238TIP3    H176205   2.979   5.775   2.481  2.8019 -0.4318  0.2332
18238TIP3    H276206   2.961   5.797   2.332  0.2517 -1.2968  0.3586
18239TIP3   OH276207   6.635   6.446  11.217  0.0278 -0.0298  0.0312
18239TIP3    H176208   6.655   6.536  11.193 -2.2721  0.7513  0.8017
18239TIP3    H276209   6.556   6.425  11.166 -1.9784 -0.0626  2.9097
18240TIP3   OH276210   6.243   5.505  15.665 -0.0075 -0.2608 -0.0036
18240TIP3    H176211   6.236   5.538  15.576 -0.7551 -1.3362 -0.3551
18240TIP3    H276212   6.294   5.424  15.657  2.8354  1.2555  0.9856
18241TIP3   OH276213   3.459   4.866   2.889 -1.0046  0.2353  0.1012
18241TIP3    H176214   3.497   4.857   2.802 -1.8561 -0.1288 -0.2458
18241TIP3    H276215   3.493   4.791   2.938 -1.9838 -0.6255 -0.4870
18242TIP3   OH276216   5.484   6.595   6.311  0.7386 -0.5545 -0.7779
18242TIP3    H176217   5.388   6.604   6.306  0.7308  0.0122  0.1729
18242TIP3    H276218   5.507   6.633   6.395  1.8019 -0.7967 -0.9487
18243TIP3   OH276219   6.578   0.883   0.828  0.1779  0.2613 -0.8907
18243TIP3    H176220   6.634   0.877   0.751  0.5400 -0.6021 -0.5764
18243TIP3    H276221   6.550   0.793   0.844  0.9671  0.2387  0.5924
18244TIP3   OH276222   6.276   0.729   0.464  0.0361  0.4563  0.1432
18244TIP3    H176223   6.322   0.646   0.458  0.1309  0.5485 -0.4520
18244TIP3    H276224   6.202   0.712   0.523  1.5536  0.6417  2.2281
18245TIP3   OH276225   3.240   3.213  15.964 -0.3008 -0.3946  0.4865
18245TIP3    H176226   3.303   3.215  16.035  1.7216  2.0135 -1.2091
18245TIP3    H276227   3.184   3.289  15.978 -0.4655 -0.4189 -0.0153
18246TIP3   OH276228   2.345   1.376   4.655 -0.7991 -0.4879 -0.9242
18246TIP3    H176229   2.253   1.399   4.662 -0.3989  0.9304  0.2672
18246TIP3    H276230   2.366   1.335   4.739  0.2181  1.5330 -0.1185
18247TIP3   OH276231   0.480   3.644  13.554 -0.2819  0.0016  0.1286
18247TIP3    H176232   0.468   3.737  13.576  0.7232 -0.1693  1.5442
18247TIP3    H276233   0.477   3.599  13.639  0.5980 -1.0948 -0.4039
18248TIP3   OH276234   2.612   4.666  15.061  0.4042 -0.9368  0.4935
18248TIP3    H176235   2.630   4.577  15.090 -0.1192 -0.9890  0.6748
18248TIP3    H276236   2.592   4.714  15.141  1.7043 -0.3972  0.5132
18249TIP3   OH276237   4.488   5.880   2.620  0.1352  0.6265  0.2855
18249TIP3    H176238   4.571   5.915   2.588  1.3845  0.6763  3.2210
18249TIP3    H276239   4.469   5.806   2.564  0.9175  1.9813 -1.8909
18250TIP3   OH276240   3.091   5.662   4.951 -0.0170  0.3139  0.1339
18250TIP3    H176241   3.161   5.598   4.948  0.7728  1.1736 -2.2261
18250TIP3    H276242   3.036   5.641   4.876 -0.0281  2.0449 -0.3866
18251TIP3   OH276243   3.434   3.061  12.351 -0.6491 -0.0457 -0.4684
18251TIP3    H176244   3.506   3.042  12.411  0.0874  1.0869 -0.9556
18251TIP3    H276245   3.384   2.980  12.347  0.3478 -0.7168  0.2279
18252TIP3   OH276246   2.271   1.151   4.178 -0.5488 -0.5168  0.0979
18252TIP3    H176247   2.187   1.142   4.224 -1.1216  0.1091 -0.7738
18252TIP3    H276248   2.336   1.157   4.247 -1.2158 -1.1203  0.7952
18253TIP3   OH276249   0.012   3.375   3.491  0.2009 -0.0677 -0.3411
18253TIP3    H176250   0.094   3.399   3.534  0.4730  0.1602 -0.9759
18253TIP3    H276251   0.035   3.301   3.435  0.6113  1.6199 -2.5601
18254TIP3   OH276252   5.539   6.401   1.519 -0.1500 -0.1596  0.4506
18254TIP3    H176253   5.565   6.338   1.586  0.3456  1.0550  1.4381
18254TIP3    H276254   5.469   6.452   1.559  0.1992  0.6365  0.0704
18255TIP3   OH276255   2.505   5.534  13.335  0.6949 -0.0584 -0.1521
18255TIP3    H176256   2.410   5.542  13.327  0.6778  0.1432  0.2416
18255TIP3    H276257   2.539   5.588  13.263  0.5087 -0.6766 -0.7136
18256TIP3   OH276258   5.969   4.136   2.405  0.2405  0.4452  0.1166
18256TIP3    H176259   5.969   4.230   2.390  0.0095  0.3695 -0.3729
18256TIP3    H276260   5.879   4.115   2.431  0.7909  0.6982  2.5389
18257TIP3   OH276261   2.478   2.071  11.403 -0.0455  0.5715 -0.1410
18257TIP3    H176262   2.501   2.029  11.320  1.5033  0.2942  0.4072
18257TIP3    H276263   2.493   2.164  11.388  0.1051  0.5358 -0.2155
18258TIP3   OH276264   3.989   5.167   6.375 -0.2240 -0.1876  0.3963
18258TIP3    H176265   4.018   5.085   6.335 -1.2128 -0.5288  0.3536
18258TIP3    H276266   3.987   5.230   6.303  0.4719 -0.1436  0.4152
18259TIP3   OH276267   2.361   1.932   0.360  0.1876  0.1524 -0.3283
18259TIP3    H176268   2.358   1.952   0.454  0.1848  1.4119 -0.5789
18259TIP3    H276269   2.281   1.970   0.325  0.2381 -0.2278 -0.8635
18260TIP3   OH276270   1.288   1.466  12.538  0.1061 -0.8462 -0.7102
18260TIP3    H176271   1.231   1.498  12.609  0.3021  2.4311 -1.8313
18260TIP3    H276272   1.335   1.392  12.576 -0.2638  0.3547  2.3998
18261TIP3   OH276273   5.607   6.059   2.278 -0.0257 -0.5991  0.2606
18261TIP3    H176274   5.569   6.045   2.191 -1.7227 -0.4062  0.9387
18261TIP3    H276275   5.553   6.007   2.337  0.1258  0.4834  1.4044
18262TIP3   OH276276   0.034   4.803  13.060  0.4232 -0.6999 -0.4768
18262TIP3    H176277  -0.038   4.775  13.117  0.8995 -2.0204 -0.4813
18262TIP3    H276278   0.077   4.721  13.034  0.4302 -0.1266 -2.4761
18263TIP3   OH276279   5.507   6.828  13.869  0.1029  0.4680 -0.0492
18263TIP3    H176280   5.571   6.771  13.912 -0.2837 -0.5350 -0.7919
18263TIP3    H276281   5.445   6.850  13.939  0.0245 -0.3525  0.1451
18264TIP3   OH276282   6.135   1.557  15.253 -0.0839 -0.2569 -0.2656
18264TIP3    H176283   6.117   1.541  15.346  1.1832 -0.9861 -0.1301
18264TIP3    H276284   6.049   1.577  15.216 -0.7402 -0.7936  0.9020
18265TIP3   OH276285   1.932   5.596  12.533  0.3582 -0.0515 -0.0598
18265TIP3    H176286   1.897   5.684  12.522  0.8882  0.4381  1.8454
18265TIP3    H276287   2.016   5.597  12.486  0.5263  0.5757  0.2461
18266TIP3   OH276288   6.338   3.580   2.527 -0.4482  0.4108 -0.5784
18266TIP3    H176289   6.288   3.590   2.446 -1.0975  1.6465 -0.0409
18266TIP3    H276290   6.336   3.666   2.568 -1.0941 -0.4626  1.3238
18267TIP3   OH276291   4.610   3.612  15.290 -0.0762  0.5623 -0.4821
18267TIP3    H176292   4.670   3.649  15.225  1.1330 -0.0036  0.2729
18267TIP3    H276293   4.663   3.548  15.338 -1.1505  0.4198  0.5657
18268TIP3   OH276294   0.205   3.078   3.038 -0.4082 -0.2256 -0.5166
18268TIP3    H176295   0.264   3.006   3.016  0.5775  0.5976 -0.6565
18268TIP3    H276296   0.120   3.037   3.049 -0.3378 -1.1012 -2.8601
18269TIP3   OH276297   2.622   2.317   2.241  0.6646  0.1900 -0.3246
18269TIP3    H176298   2.566   2.303   2.165  0.4161 -0.4106 -0.0390
18269TIP3    H276299   2.602   2.406   2.271 -0.1741 -0.0373 -0.1963
18270TIP3   OH276300   4.657   4.779  12.877 -0.3784  0.6797  0.4243
18270TIP3    H176301   4.702   4.726  12.943  0.1400 -0.4936 -0.8129
18270TIP3    H276302   4.565   4.756  12.887 -0.1055 -0.9962 -0.4880
18271TIP3   OH276303   6.104   6.301   0.194  0.1221  0.4043 -1.1040
18271TIP3    H176304   6.150   6.322   0.113  0.6102 -0.2779 -1.0115
18271TIP3    H276305   6.129   6.371   0.254  1.1335  0.0109 -1.0318
18272TIP3   OH276306   2.299   3.032   1.008 -0.2648 -0.2924 -0.3036
18272TIP3    H176307   2.387   3.031   0.969  0.3427  1.7952  0.8923
18272TIP3    H276308   2.251   2.965   0.959  1.5415 -0.4263 -2.0264
18273TIP3   OH276309   0.689   4.203  10.756  0.4828  0.2085  0.2712
18273TIP3    H176310   0.766   4.229  10.806  0.3996 -0.4189  0.7354
18273TIP3    H276311   0.723   4.144  10.689  0.4373  0.0872  0.3534
18274TIP3   OH276312   5.014   3.010   3.003 -0.6692  0.4412 -0.1905
18274TIP3    H176313   5.037   3.103   3.006 -0.2910  0.3335  0.4715
18274TIP3    H276314   4.934   3.007   2.951  0.1537  0.9612 -1.5240
18275TIP3   OH276315   6.049   2.711   5.619 -0.1062 -0.0371 -0.4199
18275TIP3    H176316   6.034   2.629   5.666  0.1271 -0.1164 -0.4837
18275TIP3    H276317   6.024   2.779   5.681  0.3921 -0.1345 -0.1068
18276TIP3   OH276318   1.237   3.467   5.337  0.6714  0.2982 -0.0006
18276TIP3    H176319   1.296   3.462   5.412  2.0371  0.5269 -1.0000
18276TIP3    H276320   1.150   3.475   5.374  1.2755 -0.0462  1.5442
18277TIP3   OH276321   2.352   4.056   3.475  0.4659  1.0959 -0.0316
18277TIP3    H176322   2.348   4.143   3.513 -0.6476  1.0322  0.0174
18277TIP3    H276323   2.347   3.997   3.550  1.3568  0.9797 -0.0530
18278TIP3   OH276324   5.564   1.798  14.923 -0.3360 -0.3423 -0.1166
18278TIP3    H176325   5.478   1.758  14.921 -1.1690  1.3138  0.2545
18278TIP3    H276326   5.608   1.765  14.845 -1.0150 -1.7838  0.0811
18279TIP3   OH276327   0.122   3.357  10.275 -0.0713  0.1489 -0.2978
18279TIP3    H176328   0.170   3.309  10.343 -0.1800 -0.5356 -0.6955
18279TIP3    H276329   0.171   3.339  10.195  0.3708  1.3908 -0.3297
18280TIP3   OH276330   3.130   3.415  15.254 -0.3525  0.2936  0.0011
18280TIP3    H176331   3.081   3.349  15.303 -1.1793  1.7512  1.2297
18280TIP3    H276332   3.203   3.438  15.311  0.3470 -0.0541 -0.7354
18281TIP3   OH276333   3.144   1.780   0.076 -0.0102 -0.4675  0.0728
18281TIP3    H176334   3.076   1.834   0.036 -1.2720 -2.4663 -0.5916
18281TIP3    H276335   3.099   1.734   0.147  1.2214 -0.1339  1.1117
18282TIP3   OH276336   0.368   6.435  14.462  0.1959  0.1587 -0.6531
18282TIP3    H176337   0.417   6.397  14.390  0.2918 -1.4984  0.2363
18282TIP3    H276338   0.362   6.528  14.441  1.1331 -0.1114 -2.2474
18283TIP3   OH276339   5.850   0.188   5.458  0.0947  0.0482  0.8047
18283TIP3    H176340   5.855   0.219   5.367  2.5021 -0.6594  0.6316
18283TIP3    H276341   5.761   0.210   5.486 -0.5938  0.6137 -1.5990
18284TIP3   OH276342   5.274   2.371  14.628 -0.2787 -0.9864  0.2764
18284TIP3    H176343   5.342   2.432  14.658  0.4068 -1.9013  0.6198
18284TIP3    H276344   5.230   2.419  14.558  1.2877 -0.6750 -0.5606
18285TIP3   OH276345   1.958   6.608   5.369 -0.4604  0.0597 -0.3368
18285TIP3    H176346   1.955   6.541   5.301  1.0599 -0.1887 -0.1962
18285TIP3    H276347   1.956   6.691   5.322  0.5055 -0.1101 -0.7116
18286TIP3   OH276348   1.481   4.061   0.554  0.1776 -0.2587  0.5066
18286TIP3    H176349   1.448   4.119   0.622 -0.5175  0.0700 -0.0946
18286TIP3    H276350   1.448   4.099   0.472  0.7555 -0.8057  0.0090
18287TIP3   OH276351   5.256   6.492  14.533 -0.2040 -0.2767  0.2274
18287TIP3    H176352   5.295   6.416  14.489  0.8279  0.3969 -0.0628
18287TIP3    H276353   5.306   6.567  14.499 -1.6111  0.6036  0.0317
18288TIP3   OH276354   4.108   0.878  16.845 -0.1251  0.6473 -0.1549
18288TIP3    H176355   4.174   0.878  16.775 -0.3470  1.0087 -0.3693
18288TIP3    H276356   4.159   0.879  16.926  0.2047 -2.1451 -0.2075
18289TIP3   OH276357   6.245   0.772   0.832  0.0583  0.3777  0.0086
18289TIP3    H176358   6.330   0.798   0.797  0.1953 -0.1646 -0.0649
18289TIP3    H276359   6.237   0.821   0.914  0.1635  0.9068 -0.2918
18290TIP3   OH276360   5.275   2.180  13.357 -0.4536  0.3903 -0.4535
18290TIP3    H176361   5.261   2.135  13.273 -0.8306  1.4847 -0.9920
18290TIP3    H276362   5.188   2.182  13.397 -0.3906  0.4278 -0.3198
18291TIP3   OH276363   4.024   3.426   1.332  0.6252  0.3284  0.0347
18291TIP3    H176364   4.001   3.417   1.240 -0.4438 -0.4246  0.3529
18291TIP3    H276365   3.960   3.487   1.368 -0.5134 -1.2341  0.7764
18292TIP3   OH276366   4.319   4.365  10.994 -0.1744 -0.1476 -0.0120
18292TIP3    H176367   4.369   4.372  11.075 -0.2626 -0.0330  0.0343
18292TIP3    H276368   4.357   4.290  10.948 -1.0321 -1.0927  0.7711
18293TIP3   OH276369   2.320   6.789   1.843  0.2908  0.7943 -0.2248
18293TIP3    H176370   2.401   6.833   1.815  1.1474 -0.1047  0.7137
18293TIP3    H276371   2.308   6.718   1.780  2.1070 -1.1072  1.4230
18294TIP3   OH276372   0.991   0.759  16.902  0.2648 -0.3313  0.1966
18294TIP3    H176373   1.086   0.761  16.915  0.4099 -0.9472 -0.6445
18294TIP3    H276374   0.957   0.824  16.963  1.3642  0.9946 -0.5373
18295TIP3   OH276375   2.394   2.239  16.326  0.1978  0.4169 -0.3464
18295TIP3    H176376   2.383   2.258  16.233  0.9758 -0.5920 -0.6650
18295TIP3    H276377   2.488   2.237  16.340  0.1262 -0.8846  0.1263
18296TIP3   OH276378   0.674   6.824  12.655 -0.8304  0.0216 -0.0578
18296TIP3    H176379   0.704   6.874  12.579 -0.5409  2.3355  1.4771
18296TIP3    H276380   0.583   6.803  12.636 -0.9340  1.0875 -0.8122
18297TIP3   OH276381   3.314   2.033   2.417 -0.0425  0.0667  0.4979
18297TIP3    H176382   3.315   2.117   2.463  1.5502  0.3935 -0.0833
18297TIP3    H276383   3.354   2.051   2.332 -0.4581 -1.1124  0.0291
18298TIP3   OH276384   0.241   2.560  10.866  0.3741 -0.3545  0.3927
18298TIP3    H176385   0.314   2.516  10.822  0.6757 -0.4126  0.9378
18298TIP3    H276386   0.163   2.516  10.833  0.6016 -0.4882  0.0228
18299TIP3   OH276387   3.507   5.931   2.105 -0.2756  0.0489 -0.0985
18299TIP3    H176388   3.520   5.840   2.077 -0.2843 -0.0845  0.3244
18299TIP3    H276389   3.507   5.927   2.200  1.7762  0.7555 -0.0105
18300TIP3   OH276390   4.226   5.205   5.065 -0.6609  0.1457 -0.6836
18300TIP3    H176391   4.204   5.240   4.979 -0.8331 -1.4162 -1.3180
18300TIP3    H276392   4.149   5.153   5.090 -0.0423 -0.5853 -0.2559
18301TIP3   OH276393   2.991   0.249  16.765 -0.2087 -0.3440 -0.3571
18301TIP3    H176394   3.047   0.325  16.778 -1.2645  0.9249 -2.5652
18301TIP3    H276395   2.903   0.286  16.751 -1.1306 -2.1110  0.3865
18302TIP3   OH276396   3.281   4.126   6.140 -0.5933 -0.0259 -0.4781
18302TIP3    H176397   3.238   4.200   6.181 -0.4785  0.0963 -0.5789
18302TIP3    H276398   3.373   4.136   6.161 -0.3805  0.6070 -1.6196
18303TIP3   OH276399   2.167   2.172   0.049  0.6232 -0.0292 -1.1604
18303TIP3    H176400   2.095   2.222   0.011  0.7721  0.3133 -0.9953
18303TIP3    H276401   2.124   2.098   0.093  0.1740  1.2776  0.7459
18304TIP3   OH276402   2.073   2.099   3.423 -0.3741  0.1123 -0.2460
18304TIP3    H176403   2.154   2.147   3.443 -1.5354  1.7589  0.7980
18304TIP3    H276404   2.012   2.126   3.491 -2.0044 -0.6076 -1.3574
18305TIP3   OH276405   0.982   2.422   3.610  0.0140 -0.5091  0.5248
18305TIP3    H176406   0.953   2.400   3.521  1.4628  1.6311 -0.5353
18305TIP3    H276407   0.904   2.459   3.651 -0.1520  0.4236 -0.5715
18306TIP3   OH276408   3.371   0.801   1.049  0.2815  0.3738 -0.2070
18306TIP3    H176409   3.361   0.871   0.985  1.5064 -0.5030 -1.4128
18306TIP3    H276410   3.451   0.755   1.023 -0.1280 -1.0724  0.9325
18307TIP3   OH276411   3.181   4.154  14.737 -0.1999 -0.3702 -0.0570
18307TIP3    H176412   3.233   4.111  14.669  1.0730 -0.3748  0.8678
18307TIP3    H276413   3.214   4.244  14.739 -0.6273 -0.2172  0.1597
18308TIP3   OH276414   0.582   2.425   3.928  0.0082  0.6659  0.2896
18308TIP3    H176415   0.599   2.387   4.015 -0.9005 -0.4219  0.0191
18308TIP3    H276416   0.512   2.488   3.943  1.0867  1.8213  0.6321
18309TIP3   OH276417   3.625   3.119   1.923  0.0469  0.1894 -0.0151
18309TIP3    H176418   3.695   3.079   1.870 -0.0228  1.0896 -0.8215
18309TIP3    H276419   3.596   3.049   1.981  1.8742 -0.1085  0.6047
18310TIP3   OH276420   3.818   0.491   0.912 -0.4360 -0.1610  0.3105
18310TIP3    H176421   3.869   0.572   0.905 -0.0765 -0.5040 -1.4151
18310TIP3    H276422   3.852   0.448   0.991  0.6739  0.4925  0.2051
18311TIP3   OH276423   4.676   5.418   1.058  0.0673 -0.2131 -0.4314
18311TIP3    H176424   4.645   5.455   0.975  0.3423  0.4906 -0.2271
18311TIP3    H276425   4.597   5.384   1.100  0.0489 -1.4402 -1.3877
18312TIP3   OH276426   3.617   1.475  14.623 -0.2564  0.0076 -0.1361
18312TIP3    H176427   3.586   1.487  14.533 -2.5053  1.2502  0.7166
18312TIP3    H276428   3.679   1.402  14.618  1.3492  1.4028 -3.0030
18313TIP3   OH276429   0.112   1.775  14.140 -0.7106 -0.2755  0.0734
18313TIP3    H176430   0.146   1.827  14.212 -2.0129  1.5329 -0.5534
18313TIP3    H276431   0.017   1.779  14.150 -0.8738 -2.2670 -0.2129
18314TIP3   OH276432   5.905   0.748   2.543  0.0757  0.2377  1.0570
18314TIP3    H176433   5.937   0.662   2.571 -0.6469 -1.0507 -1.8252
18314TIP3    H276434   5.814   0.734   2.519  0.4567  1.3168 -1.2790
18315TIP3   OH276435   3.711   1.403   4.380 -0.0301  0.2214 -0.2671
18315TIP3    H176436   3.745   1.372   4.464 -0.3685 -1.2565 -0.6346
18315TIP3    H276437   3.718   1.326   4.322 -1.3749  0.7086 -1.1132
18316TIP3   OH276438   3.847   2.626  10.820  0.6395  0.2392  0.4833
18316TIP3    H176439   3.834   2.548  10.874 -0.9636  0.3987  0.3980
18316TIP3    H276440   3.889   2.594  10.740  1.6217 -0.2360  1.1729
18317TIP3   OH276441   3.568   2.572  14.009 -0.0624  0.1391  0.0532
18317TIP3    H176442   3.536   2.482  14.002 -0.3293  0.2896 -0.7338
18317TIP3    H276443   3.503   2.617  14.063  0.2168 -0.1939  0.6890
18318TIP3   OH276444   4.665   0.413   0.780  0.2411 -0.1876  0.0884
18318TIP3    H176445   4.572   0.392   0.769  0.6219 -2.4499  0.7990
18318TIP3    H276446   4.667   0.475   0.853 -0.6191 -1.2817  1.0742
18319TIP3   OH276447   1.842   3.504  13.269  0.1878  0.1117  0.3452
18319TIP3    H176448   1.832   3.522  13.362  0.8856 -0.2900  0.5133
18319TIP3    H276449   1.867   3.588  13.230 -1.9019  0.7062  0.1977
18320TIP3   OH276450   1.644   4.053   0.925 -0.1008  0.0628 -0.9861
18320TIP3    H176451   1.557   4.080   0.955  0.8281  0.0662  2.0247
18320TIP3    H276452   1.632   3.962   0.899 -0.9613 -0.0506 -0.2695
18321TIP3   OH276453   6.355   2.356   0.291  0.4311 -0.1380 -0.3560
18321TIP3    H176454   6.423   2.395   0.236  2.6860 -0.9713  1.6493
18321TIP3    H276455   6.318   2.430   0.339 -0.0223  0.3091 -1.3620
18322TIP3   OH276456   3.214   2.270  10.278 -0.6652 -0.4752  0.3092
18322TIP3    H176457   3.303   2.301  10.293 -0.3512 -0.0841 -2.0597
18322TIP3    H276458   3.209   2.187  10.326  0.8763 -0.3755  0.6951
18323TIP3   OH276459   2.716   2.108  16.037  0.2655 -0.1837  0.0421
18323TIP3    H176460   2.717   2.091  15.943  0.8716  0.9363 -0.1737
18323TIP3    H276461   2.805   2.089  16.065 -0.4246 -2.5919  0.8250
18324TIP3   OH276462   2.945   1.320  13.557 -0.1357 -0.3725  0.2086
18324TIP3    H176463   3.003   1.384  13.515  1.6635 -0.6261  2.1326
18324TIP3    H276464   3.002   1.247  13.581 -1.6423 -1.5265  0.4538
18325TIP3   OH276465   2.153   6.215  12.417  0.5626 -0.2314  0.2816
18325TIP3    H176466   2.215   6.231  12.488  0.6623  0.5057  0.0389
18325TIP3    H276467   2.127   6.123  12.428 -1.3105  0.4748  2.7794
18326TIP3   OH276468   1.807   3.862   6.021 -0.3497 -0.4321 -0.3048
18326TIP3    H176469   1.740   3.930   6.015 -1.7281 -1.7615 -0.3086
18326TIP3    H276470   1.774   3.800   6.085  2.0139  0.0695  1.5558
18327TIP3   OH276471   1.423   4.173  12.863  0.0149  0.7105  0.0224
18327TIP3    H176472   1.453   4.095  12.816 -1.1859  0.5048 -0.4384
18327TIP3    H276473   1.443   4.154  12.955  0.9009  0.4135 -0.2249
18328TIP3   OH276474   1.934   3.182  13.687  0.0544  0.1206 -0.4680
18328TIP3    H176475   1.911   3.188  13.594 -0.3596  0.8360 -0.3288
18328TIP3    H276476   1.852   3.194  13.734  0.3182  0.1436 -0.0009
18329TIP3   OH276477   6.690   3.151   4.688 -0.6263  0.2005 -0.1395
18329TIP3    H176478   6.674   3.105   4.606 -0.9997 -1.3641  0.7670
18329TIP3    H276479   6.768   3.205   4.671 -0.8637  0.1315 -1.5806
18330TIP3   OH276480   6.787   4.936  15.092  1.0113 -0.3992 -0.2070
18330TIP3    H176481   6.746   4.937  15.006  1.7970 -0.4395 -0.5872
18330TIP3    H276482   6.772   5.024  15.127 -0.0499 -0.6484 -0.0211
18331TIP3   OH276483   5.643   5.737   3.777  0.0908 -0.1792  0.0439
18331TIP3    H176484   5.643   5.832   3.762 -0.5545 -0.1076  0.5230
18331TIP3    H276485   5.673   5.726   3.867  0.8797 -0.4776 -0.2371
18332TIP3   OH276486   0.528   3.540  15.210 -0.2077 -0.0970 -0.3722
18332TIP3    H176487   0.600   3.510  15.155  0.6197 -1.7747  1.4712
18332TIP3    H276488   0.470   3.587  15.151  1.6738  0.0580 -2.2091
18333TIP3   OH276489   1.946   6.194   2.078 -0.0870  0.5221  0.6196
18333TIP3    H176490   1.939   6.225   2.169 -0.3578  0.7350  0.5275
18333TIP3    H276491   1.961   6.274   2.027 -1.7909  0.6338  0.2539
18334TIP3   OH276492   4.403   6.138   5.019 -0.2385 -0.3451  0.5394
18334TIP3    H176493   4.488   6.113   4.985 -0.3286 -1.3860  1.0279
18334TIP3    H276494   4.343   6.070   4.989 -0.3990 -1.0702  2.3334
18335TIP3   OH276495   1.410   6.294  13.920 -0.2274 -0.7331 -0.5724
18335TIP3    H176496   1.469   6.231  13.879 -0.4479 -0.5032 -1.2607
18335TIP3    H276497   1.398   6.262  14.010  2.2233  0.0753  0.1148
18336TIP3   OH276498   3.967   3.049   3.292  0.5436  0.3872 -0.2355
18336TIP3    H176499   3.874   3.062   3.315  0.1730 -0.2034 -1.3180
18336TIP3    H276500   4.005   3.136   3.298 -0.1079  0.6609  0.1259
18337TIP3   OH276501   3.795   6.619   3.935  0.3520 -0.6264 -0.4972
18337TIP3    H176502   3.829   6.699   3.975 -0.9995  0.1559 -0.8769
18337TIP3    H276503   3.845   6.610   3.854  0.1550  0.1125 -0.7055
18338TIP3   OH276504   3.296   1.135  11.349  0.4674 -0.2239  0.1476
18338TIP3    H176505   3.294   1.225  11.383  2.5785  0.0018 -0.1759
18338TIP3    H276506   3.381   1.101  11.377  0.8717 -1.1714 -2.0372
18339TIP3   OH276507   4.050   2.926  14.886 -0.3725  0.0523 -0.0883
18339TIP3    H176508   4.058   2.978  14.806  0.2470  0.1724  0.0474
18339TIP3    H276509   4.015   2.987  14.951  0.7662  0.4351  0.1876
18340TIP3   OH276510   0.455   0.460  14.123  0.3620 -0.7865 -0.7679
18340TIP3    H176511   0.397   0.428  14.053 -2.1806  1.3370  0.1970
18340TIP3    H276512   0.415   0.541  14.152  0.7910 -1.9026  3.7345
18341TIP3   OH276513   6.645   6.327  12.656 -0.4736  0.9149 -0.5486
18341TIP3    H176514   6.558   6.295  12.679  0.7858 -2.3890  0.1377
18341TIP3    H276515   6.653   6.313  12.562  0.2887 -1.7930 -0.1760
18342TIP3   OH276516   6.309   0.353   1.217 -0.0742 -0.2556 -0.2006
18342TIP3    H176517   6.238   0.300   1.254  0.4043 -0.7343  0.0397
18342TIP3    H276518   6.314   0.325   1.125 -1.2048  0.8714 -0.6337
18343TIP3   OH276519   1.035   4.176  10.663  0.3410 -0.0406 -0.4508
18343TIP3    H176520   1.080   4.099  10.629 -0.2875  0.0701 -1.6122
18343TIP3    H276521   1.096   4.214  10.726  0.3463 -1.8815  0.7034
18344TIP3   OH276522   6.602   6.173   3.052 -0.0159 -0.1343  0.2676
18344TIP3    H176523   6.513   6.207   3.050 -0.2231 -0.5076 -3.5072
18344TIP3    H276524   6.658   6.250   3.049 -0.2139  0.0414  0.8538
18345TIP3   OH276525   6.430   3.820   2.644  0.5699 -0.5014 -0.5270
18345TIP3    H176526   6.354   3.866   2.679  0.0893 -2.3886  0.9981
18345TIP3    H276527   6.448   3.865   2.561  0.4583  2.7608  1.0324
18346TIP3   OH276528   1.887   3.728   0.467  0.1774  0.4226  0.1086
18346TIP3    H176529   1.822   3.795   0.486 -0.7150 -0.4897  0.3867
18346TIP3    H276530   1.943   3.725   0.544 -1.5064 -1.0712  1.3632
18347TIP3   OH276531   3.874   4.478  14.085 -0.4571 -0.3915 -0.5114
18347TIP3    H176532   3.852   4.387  14.065  0.2249 -0.4593 -0.9947
18347TIP3    H276533   3.852   4.489  14.178  4.7170 -2.7761  1.4034
18348TIP3   OH276534   3.829   4.356  15.939  0.0383 -0.0219  0.8045
18348TIP3    H176535   3.763   4.346  16.008 -2.1575 -0.8657 -1.2483
18348TIP3    H276536   3.778   4.354  15.858  2.5791  0.0252 -0.8943
18349TIP3   OH276537   0.189   1.513   3.653 -0.5616 -0.2285  0.1055
18349TIP3    H176538   0.166   1.606   3.661  0.8111 -0.0558  2.8225
18349TIP3    H276539   0.259   1.512   3.588 -2.1527  0.2803 -1.7210
18350TIP3   OH276540   4.010   1.708   4.588  0.1624 -0.4933 -0.4579
18350TIP3    H176541   3.919   1.682   4.574 -0.1474  0.7189 -0.8481
18350TIP3    H276542   4.020   1.711   4.683  0.4988 -2.8674 -0.3656
18351TIP3   OH276543   5.932   6.034  13.843  0.5067  0.1770 -0.4989
18351TIP3    H176544   6.013   5.989  13.820 -0.0879 -0.4594 -1.4236
18351TIP3    H276545   5.882   6.037  13.761 -0.9567 -0.6034  0.3176
18352TIP3   OH276546   1.803   3.858  12.709 -0.5520 -0.6388  0.1309
18352TIP3    H176547   1.893   3.885  12.727 -0.6166 -0.6509  0.4798
18352TIP3    H276548   1.811   3.786  12.647 -0.2247 -1.8888  1.5701
18353TIP3   OH276549   0.053   2.239  11.394  0.2137 -0.4098  0.8722
18353TIP3    H176550  -0.019   2.179  11.375 -1.2994  1.1016  1.6156
18353TIP3    H276551   0.125   2.182  11.419  0.5259 -2.2331 -3.2464
18354TIP3   OH276552   4.762   3.395  14.196 -0.1503 -0.0286  0.5036
18354TIP3    H176553   4.811   3.477  14.196 -0.8686  0.4119  0.8279
18354TIP3    H276554   4.711   3.399  14.115  1.9248 -1.4772 -0.9703
18355TIP3   OH276555   3.462   6.528   3.017 -0.4906  0.2834 -0.9752
18355TIP3    H176556   3.422   6.445   2.991 -0.6397 -0.1830  0.6377
18355TIP3    H276557   3.530   6.544   2.951 -2.2214  0.2721 -2.8558
18356TIP3   OH276558   1.814   0.994  11.726 -0.1250 -0.5033 -0.1165
18356TIP3    H176559   1.798   0.923  11.664 -1.1127 -0.7092  0.3485
18356TIP3    H276560   1.788   0.957  11.811  1.7428 -0.4255  0.5299
18357TIP3   OH276561   4.237   3.099  12.969 -0.0189  0.5470  0.3378
18357TIP3    H176562   4.179   3.110  13.044 -0.5751  2.3933 -0.2942
18357TIP3    H276563   4.247   3.188  12.934 -1.5586 -0.4723 -3.0554
18358TIP3   OH276564   1.133   3.819  14.288  0.3808 -0.5839  0.3846
18358TIP3    H176565   1.168   3.845  14.203  0.3928 -0.5322  0.4057
18358TIP3    H276566   1.055   3.873  14.300  0.1809 -0.8425  0.2478
18359TIP3   OH276567   1.322   4.461   3.980  0.2089  0.3873 -0.7965
18359TIP3    H176568   1.391   4.416   3.932 -0.0610  1.2575 -2.0471
18359TIP3    H276569   1.301   4.403   4.053  2.5431  0.3075 -0.1287
18360TIP3   OH276570   0.944   4.291  16.485  0.8965  0.2287 -0.3831
18360TIP3    H176571   0.861   4.279  16.440  1.4246 -2.2265 -0.8493
18360TIP3    H276572   0.993   4.352  16.430 -0.4230  1.4495 -0.2699
18361TIP3   OH276573   2.843   0.779  12.614 -0.5926 -0.2306  0.4230
18361TIP3    H176574   2.872   0.853  12.667 -1.5884  0.3898  0.1162
18361TIP3    H276575   2.775   0.815  12.557  0.2342 -0.9250 -1.0939
18362TIP3   OH276576   2.282   6.160  11.285 -0.1230 -0.0213  0.2443
18362TIP3    H176577   2.350   6.130  11.225  0.4610 -0.0669  0.9114
18362TIP3    H276578   2.318   6.241  11.323 -0.6353  0.1974  0.2648
18363TIP3   OH276579   2.021   6.277   5.376  0.0097 -0.2641 -0.2891
18363TIP3    H176580   1.936   6.256   5.338 -0.1499 -1.5522  0.6843
18363TIP3    H276581   2.043   6.199   5.428  1.9400 -0.0900 -0.7943
18364TIP3   OH276582   2.582   1.894  12.409 -0.3803 -0.2795  0.1357
18364TIP3    H176583   2.610   1.872  12.321  0.4362 -0.7053  0.4998
18364TIP3    H276584   2.507   1.837  12.425 -1.0131  0.3292 -0.5506
18365TIP3   OH276585   0.419   2.218  13.416 -0.1350  0.2435 -0.1428
18365TIP3    H176586   0.389   2.258  13.498  1.1661 -0.3114  0.6258
18365TIP3    H276587   0.390   2.279  13.348 -2.4830  0.0342  0.5564
18366TIP3   OH276588   3.549   1.799  11.111 -0.4655  0.2918 -0.0445
18366TIP3    H176589   3.526   1.808  11.018 -0.9263  1.5480  0.1717
18366TIP3    H276590   3.612   1.868  11.127  0.1758 -0.3864  0.4214
18367TIP3   OH276591   3.991   1.564  13.550  0.2308  0.3963  0.4495
18367TIP3    H176592   3.955   1.489  13.598 -0.9535  0.4435 -0.3166
18367TIP3    H276593   4.042   1.524  13.479  1.2843  0.3262  1.2402
18368TIP3   OH276594   4.439   2.757  17.144  0.4275  0.3001 -0.2360
18368TIP3    H176595   4.443   2.755  17.048 -0.4286 -0.2502 -0.2763
18368TIP3    H276596   4.420   2.667  17.169  1.3694  0.2973  0.5031
18369TIP3   OH276597   5.617   1.111  15.366  0.3368  0.1372  0.2851
18369TIP3    H176598   5.660   1.048  15.424 -0.8618  0.3859  1.5160
18369TIP3    H276599   5.665   1.192  15.378  2.2340 -0.6122 -1.7213
18370TIP3   OH276600   2.792   6.207   5.500  0.2102 -0.1016  0.5923
18370TIP3    H176601   2.701   6.180   5.500  0.0639  0.3502 -0.3763
18370TIP3    H276602   2.790   6.300   5.523  0.4085 -0.0421  0.3782
18371TIP3   OH276603   1.264   5.937  12.530  0.3555  0.2878 -0.5248
18371TIP3    H176604   1.356   5.958  12.516  0.5635 -0.3168 -0.0881
18371TIP3    H276605   1.254   5.849  12.495 -0.1909  0.5509 -1.0627
18372TIP3   OH276606   1.277   4.092   1.414 -0.1835 -0.2738 -0.3369
18372TIP3    H176607   1.358   4.105   1.366  0.0298  1.3027  0.3886
18372TIP3    H276608   1.210   4.086   1.346  0.3331  0.1064 -0.8879
18373TIP3   OH276609   5.182   5.158   5.547  0.1288 -0.1195 -0.4322
18373TIP3    H176610   5.109   5.130   5.603  0.4931 -1.1210 -0.4454
18373TIP3    H276611   5.252   5.096   5.566  1.0127  0.8712 -0.3775
18374TIP3   OH276612   6.562   5.523   6.052  0.1555 -0.4951 -0.4154
18374TIP3    H176613   6.485   5.466   6.051  0.1799 -0.8074  3.1072
18374TIP3    H276614   6.529   5.608   6.083  0.8842  0.0871 -1.1722
18375TIP3   OH276615   4.610   3.864   0.142  0.2233  0.0607  0.6636
18375TIP3    H176616   4.595   3.883   0.049  0.3333 -0.3413  0.5599
18375TIP3    H276617   4.544   3.916   0.188 -1.5998 -1.7194  0.2159
18376TIP3   OH276618   3.584   2.573  12.858 -0.1869  0.0874  0.3423
18376TIP3    H176619   3.671   2.597  12.827 -0.7196  1.1514 -0.3607
18376TIP3    H276620   3.570   2.484  12.824 -0.9602  1.3516 -3.0805
18377TIP3   OH276621   4.665   1.197   4.945 -0.1965 -0.2401 -0.0526
18377TIP3    H176622   4.696   1.119   4.992  0.2696 -0.2151 -0.3091
18377TIP3    H276623   4.573   1.204   4.968 -0.2553 -0.9026 -0.0675
18378TIP3   OH276624   3.346   4.807   4.108  0.4879  0.1309  0.5047
18378TIP3    H176625   3.323   4.788   4.199  0.0938 -0.0181  0.3762
18378TIP3    H276626   3.370   4.900   4.107 -1.1861  0.5934  0.4431
18379TIP3   OH276627   1.294   5.402  14.820 -0.0314  0.2684  0.0243
18379TIP3    H176628   1.261   5.386  14.731 -1.2709  1.1077  0.3036
18379TIP3    H276629   1.232   5.465  14.857  1.4938  1.3361  0.8656
18380TIP3   OH276630   0.025   0.816  15.663  0.2220 -0.3114 -0.1647
18380TIP3    H176631  -0.011   0.903  15.645  0.1711 -0.2279  0.3130
18380TIP3    H276632   0.113   0.832  15.696  0.9172 -0.5429 -1.8042
18381TIP3   OH276633   2.891   6.291   1.253 -0.3476  0.4669  0.0014
18381TIP3    H176634   2.951   6.231   1.296 -1.0278 -0.1496  0.1125
18381TIP3    H276635   2.918   6.290   1.161  2.3426  3.2558  0.6278
18382TIP3   OH276636   5.755   5.513   3.002  0.3032  0.4445  0.4591
18382TIP3    H176637   5.724   5.424   2.992  1.0548  0.4049 -2.6072
18382TIP3    H276638   5.850   5.507   2.989  0.4419  1.6227  0.7894
18383TIP3   OH276639   5.162   6.036  12.396  0.1552  0.3142  0.1643
18383TIP3    H176640   5.153   5.979  12.472 -0.7842 -0.1407 -0.2702
18383TIP3    H276641   5.256   6.050  12.387  0.3241 -0.2981  0.9140
18384TIP3   OH276642   5.055   0.996   1.514 -0.1976 -0.1790 -0.0566
18384TIP3    H176643   4.975   1.020   1.466 -0.4867  2.3832  1.5217
18384TIP3    H276644   5.113   0.960   1.447 -1.1029  1.8678 -2.0729
18385TIP3   OH276645   3.826   1.874  17.040 -0.3117 -0.1383  0.4150
18385TIP3    H176646   3.790   1.948  17.088  1.2030  1.6370 -1.0329
18385TIP3    H276647   3.774   1.870  16.960 -2.6774 -2.9355  1.9143
18386TIP3   OH276648   3.078   6.615  13.120 -0.2932 -0.1307 -0.2171
18386TIP3    H176649   3.078   6.520  13.124  2.3448 -0.1958 -0.1626
18386TIP3    H276650   3.121   6.643  13.201 -1.0390  1.1224 -0.2263
18387TIP3   OH276651   6.820   4.501   0.074  0.1272  0.1768 -0.4810
18387TIP3    H176652   6.770   4.455   0.142  1.2965  0.3089  0.4984
18387TIP3    H276653   6.782   4.469  -0.009 -1.0493 -0.2945  0.2059
18388TIP3   OH276654   0.640   3.029  12.725 -0.1319  0.5368  0.1540
18388TIP3    H176655   0.655   3.097  12.659 -1.1438  2.4944  1.8181
18388TIP3    H276656   0.594   3.074  12.796  0.0893 -1.6713  1.8209
18389TIP3   OH276657   6.658   6.700   2.318 -0.5274 -0.0786 -0.2431
18389TIP3    H176658   6.696   6.766   2.375 -0.7293 -1.5097  1.6621
18389TIP3    H276659   6.682   6.728   2.229  0.5596  1.7633  0.5698
18390TIP3   OH276660   4.436   2.112  16.534 -0.2653 -0.5422  0.2998
18390TIP3    H176661   4.512   2.161  16.565  1.5644 -1.5142 -2.2797
18390TIP3    H276662   4.446   2.025  16.574 -0.5316 -0.4150  0.6491
18391TIP3   OH276663   3.111   2.712  15.350  0.1901  0.2359 -0.5918
18391TIP3    H176664   3.140   2.716  15.441  0.8195  3.6004 -0.8072
18391TIP3    H276665   3.031   2.765  15.348 -0.5754 -0.9043 -1.7825
18392TIP3   OH276666   3.027   2.748  13.382  0.1360  0.0564 -0.5157
18392TIP3    H176667   3.092   2.717  13.318  0.9381  1.9160 -0.6695
18392TIP3    H276668   3.062   2.831  13.414 -0.5352 -0.5377  1.9615
18393TIP3   OH276669   3.822   4.475   2.758  0.4836  0.2361  0.6029
18393TIP3    H176670   3.814   4.405   2.824 -0.0841 -2.7359 -2.3498
18393TIP3    H276671   3.905   4.457   2.714 -1.3281 -1.0686 -2.6226
18394TIP3   OH276672   4.770   4.060   4.672 -0.0859  0.5352  0.2029
18394TIP3    H176673   4.839   4.127   4.680  0.0729  0.3843  0.1044
18394TIP3    H276674   4.783   4.025   4.584  0.7979 -0.7013  0.8022
18395TIP3   OH276675   0.091   0.373  11.695  0.0048  0.1943  0.3865
18395TIP3    H176676   0.077   0.279  11.701 -1.8263  0.4883  2.2715
18395TIP3    H276677   0.029   0.403  11.628  0.1317  0.1169  0.2365
18396TIP3   OH276678   0.679   0.978  11.237  0.3079 -0.3016 -0.3831
18396TIP3    H176679   0.745   0.939  11.294  0.4508 -1.1023 -1.0675
18396TIP3    H276680   0.729   1.028  11.173  0.1614  0.4040  0.0502
18397TIP3   OH276681   5.877   4.771  15.192 -0.1453  0.0569 -0.0711
18397TIP3    H176682   5.962   4.761  15.236 -0.2195 -0.9893 -0.1491
18397TIP3    H276683   5.894   4.746  15.101 -0.5669 -0.2708 -0.0588
18398TIP3   OH276684   6.194   6.542  13.286  0.3116  0.3452  0.3336
18398TIP3    H176685   6.224   6.514  13.373  2.6260  0.0662 -0.4881
18398TIP3    H276686   6.267   6.593  13.251 -0.2463 -0.2095 -1.7741
18399TIP3   OH276687   0.143   4.320  16.581  0.5503  0.2710 -0.2261
18399TIP3    H176688   0.121   4.372  16.658  0.5161  0.6844 -0.5087
18399TIP3    H276689   0.134   4.229  16.609  0.1098  0.4218  0.1292
18400TIP3   OH276690   6.808   3.479  15.278  0.3642  0.1269  0.1158
18400TIP3    H176691   6.901   3.463  15.261  0.1798 -0.3140 -0.5083
18400TIP3    H276692   6.770   3.392  15.284 -0.1968  0.3053 -0.6918
18401TIP3   OH276693   3.132   4.792   0.869  0.4183  0.0288 -0.0026
18401TIP3    H176694   3.128   4.875   0.916  2.2791  0.5040 -0.6086
18401TIP3    H276695   3.155   4.816   0.780  0.0301 -1.0794 -0.4144
18402TIP3   OH276696   2.694   5.807  14.389  0.1826 -0.0716  0.0255
18402TIP3    H176697   2.749   5.828  14.464  0.3446  0.8470 -0.3426
18402TIP3    H276698   2.737   5.731  14.349  1.4740  0.9132 -0.5242
18403TIP3   OH276699   1.166   2.299   3.768  0.1872 -0.1677 -0.9010
18403TIP3    H176700   1.145   2.220   3.819 -0.0242  0.6158  0.2789
18403TIP3    H276701   1.085   2.319   3.721 -1.0034  1.3321  1.5790
18404TIP3   OH276702   1.491   5.071   4.467  0.2532 -0.2876  0.0021
18404TIP3    H176703   1.583   5.048   4.473  0.3362  0.4176  2.1093
18404TIP3    H276704   1.458   5.020   4.393  2.1100 -1.2396 -0.2148
18405TIP3   OH276705   5.280   6.327   1.717 -0.4246 -0.0248 -0.5503
18405TIP3    H176706   5.324   6.247   1.745 -0.2404  0.5855  0.9700
18405TIP3    H276707   5.203   6.296   1.668 -0.8956 -1.1477  0.8469
18406TIP3   OH276708   0.495   3.099   4.736 -0.0227  0.4753 -0.1997
18406TIP3    H176709   0.417   3.104   4.680 -0.6791 -0.1102  0.6343
18406TIP3    H276710   0.560   3.054   4.683 -0.0073  1.5788 -1.1598
18407TIP3   OH276711   3.229   1.482  14.146 -0.1132  0.6223  0.1563
18407TIP3    H176712   3.309   1.431  14.160  0.1516  0.9768 -0.0377
18407TIP3    H276713   3.206   1.515  14.233 -1.2191 -1.1617  0.5934
18408TIP3   OH276714   3.129   6.792  13.481  0.6756 -0.1605 -0.7564
18408TIP3    H176715   3.037   6.769  13.467  0.2811  1.0151 -0.2001
18408TIP3    H276716   3.138   6.801  13.576  1.8341 -2.0399 -0.6291
18409TIP3   OH276717   5.614   6.185   2.907  0.1062  0.1314 -0.5137
18409TIP3    H176718   5.551   6.257   2.898 -0.2946 -0.2050 -0.3895
18409TIP3    H276719   5.669   6.192   2.828 -1.4564 -0.8934 -1.7480
18410TIP3   OH276720   4.746   1.137  17.125  0.0703  0.3861 -0.4355
18410TIP3    H176721   4.697   1.142  17.207 -0.7304  0.0245 -0.8783
18410TIP3    H276722   4.718   1.213  17.075  2.0196  1.7034  0.3815
18411TIP3   OH276723   4.967   2.373  14.677  0.3419  0.7216 -0.5385
18411TIP3    H176724   5.057   2.384  14.646  0.3889 -0.3559 -0.8263
18411TIP3    H276725   4.944   2.284  14.650 -1.5725  1.7092 -2.4016
18412TIP3   OH276726   4.970   5.172  11.092 -0.3900  0.1193 -0.1574
18412TIP3    H176727   4.937   5.176  11.002  2.7083  2.4482 -1.4067
18412TIP3    H276728   5.031   5.098  11.092 -0.5479 -0.0117  0.1070
18413TIP3   OH276729   3.830   3.858  16.023  0.3906 -0.5689 -0.3343
18413TIP3    H176730   3.736   3.842  16.007  0.2986 -1.7047  1.1552
18413TIP3    H276731   3.831   3.922  16.094  0.7011 -1.7342  0.7458
18414TIP3   OH276732   6.349   2.302  12.319  0.0735 -0.2156  0.3564
18414TIP3    H176733   6.258   2.304  12.348 -0.2918 -0.1800 -0.7460
18414TIP3    H276734   6.380   2.392  12.331  0.2808 -0.4440  1.6592
18415TIP3   OH276735   3.089   1.294  16.863 -0.2830 -0.0936  0.5208
18415TIP3    H176736   3.134   1.280  16.946  0.3300 -1.8236 -0.0546
18415TIP3    H276737   3.158   1.287  16.797 -0.9253  0.2391 -0.2062
18416TIP3   OH276738   4.466   1.861  14.001 -0.2831  0.4576 -0.0539
18416TIP3    H176739   4.482   1.796  13.933 -0.0730 -1.5660  1.8494
18416TIP3    H276740   4.372   1.878  13.997 -0.2458  0.4882 -0.9380
18417TIP3   OH276741   3.495   6.458   5.641 -0.0575  0.3254  0.3601
18417TIP3    H176742   3.446   6.419   5.569  0.1003  0.0070  0.4217
18417TIP3    H276743   3.529   6.540   5.606 -1.0289  0.7981  0.4602
18418TIP3   OH276744   3.510   6.420  14.085 -0.3188  1.1814 -0.0849
18418TIP3    H176745   3.421   6.445  14.062 -0.7838  0.4318  0.8065
18418TIP3    H276746   3.499   6.357  14.156  0.8678 -0.0462 -0.9450
18419TIP3   OH276747   0.928   0.509   3.324 -0.3496  0.0060 -0.0902
18419TIP3    H176748   0.897   0.593   3.289 -0.1872  0.2443  0.3352
18419TIP3    H276749   0.991   0.478   3.258  0.1112  0.5556  0.0895
18420TIP3   OH276750   4.256   6.442  16.454 -0.3705  0.4837  0.3851
18420TIP3    H176751   4.185   6.398  16.500  1.3481 -2.6413  0.3499
18420TIP3    H276752   4.310   6.478  16.525 -2.2456  3.6123  0.3957
18421TIP3   OH276753   4.219   2.594  15.180 -0.4347 -0.1394  0.1150
18421TIP3    H176754   4.282   2.530  15.147 -0.7682 -0.5826  0.3371
18421TIP3    H276755   4.149   2.542  15.219 -1.1944  0.3327 -0.5791
18422TIP3   OH276756   4.847   0.272   3.714  0.0335  0.0887  0.1861
18422TIP3    H176757   4.934   0.236   3.730 -0.2893 -1.1112 -0.5925
18422TIP3    H276758   4.793   0.196   3.693 -1.2643  0.7846  0.8554
18423TIP3   OH276759   3.953   2.152   3.859  0.1743 -0.0996 -0.2050
18423TIP3    H176760   4.028   2.106   3.899 -1.0779 -2.7298 -0.6373
18423TIP3    H276761   3.987   2.182   3.774  0.9908 -0.5121 -0.0437
18424TIP3   OH276762   5.004   0.440   0.861 -1.0683 -0.3154  0.5912
18424TIP3    H176763   5.024   0.437   0.954 -1.9794 -0.9401  0.7785
18424TIP3    H276764   4.961   0.525   0.849 -0.3596  0.0564  0.6000
18425TIP3   OH276765   2.078   2.383   2.903  0.1612 -0.1268 -0.4205
18425TIP3    H176766   2.003   2.334   2.935 -0.9333  0.7704 -1.5022
18425TIP3    H276767   2.110   2.333   2.828  0.3813 -0.2792 -0.2274
18426TIP3   OH276768   6.666   3.884  17.041  0.4997 -0.0299  0.2439
18426TIP3    H176769   6.703   3.861  17.127  0.8486  0.8783  0.3544
18426TIP3    H276770   6.743   3.893  16.984  0.4200  1.2223  0.3102
18427TIP3   OH276771   5.914   2.501  16.027 -0.5423 -0.1223  0.0999
18427TIP3    H176772   5.948   2.456  16.104 -1.5665 -0.6681  0.2484
18427TIP3    H276773   5.818   2.495  16.035 -0.6747  0.3544 -0.8937
18428TIP3   OH276774   5.001   1.448   0.323 -0.0797  0.4799 -0.0563
18428TIP3    H176775   4.977   1.355   0.330  1.1819  0.1874  0.7396
18428TIP3    H276776   4.951   1.479   0.248 -0.0496 -1.0191 -0.7497
18429TIP3   OH276777   4.725   2.433   5.211 -0.0556  0.7289 -0.4630
18429TIP3    H176778   4.717   2.473   5.297 -1.4798  0.3469 -0.3936
18429TIP3    H276779   4.660   2.363   5.211  0.3310  0.3537 -1.6358
18430TIP3   OH276780   4.391   5.552  16.306 -0.6374  0.2791  0.0394
18430TIP3    H176781   4.446   5.521  16.234  0.6492  1.4283  0.4790
18430TIP3    H276782   4.338   5.621  16.267 -2.0379 -1.0238 -0.4564
18431TIP3   OH276783   5.776   3.117   2.151 -0.8261 -0.4041 -0.0445
18431TIP3    H176784   5.689   3.107   2.115 -1.1676  1.1259  0.2669
18431TIP3    H276785   5.831   3.057   2.100 -2.0729 -1.5172 -0.1177
18432TIP3   OH276786   6.604   5.447  14.919  0.2558 -0.1378  0.3967
18432TIP3    H176787   6.574   5.450  15.010  0.6716 -0.8739  0.5657
18432TIP3    H276788   6.662   5.371  14.915  0.2777 -0.0884 -0.4774
18433TIP3   OH276789   2.674   5.385   3.801  0.0015 -0.1302  0.1261
18433TIP3    H176790   2.723   5.442   3.860  1.3851 -0.3614 -0.7501
18433TIP3    H276791   2.740   5.327   3.763 -1.0635 -0.9201 -0.5794
18434TIP3   OH276792   3.296   3.610   3.421 -0.0468 -0.1936  0.0154
18434TIP3    H176793   3.346   3.691   3.418 -1.1889  0.5256 -0.2691
18434TIP3    H276794   3.228   3.626   3.486  0.6483 -1.5036  1.1216
18435TIP3   OH276795   2.814   5.713  16.295 -0.3322 -0.4871 -0.1796
18435TIP3    H176796   2.832   5.799  16.257 -2.3924  0.1238  0.1261
18435TIP3    H276797   2.743   5.678  16.242  1.8392 -3.0125 -1.6745
18436TIP3   OH276798   6.039   1.069  13.001 -0.2630 -0.2545  0.4189
18436TIP3    H176799   5.986   1.148  13.008  0.8482  0.3769  2.7586
18436TIP3    H276800   5.976   0.999  12.986 -1.3527  0.9099 -0.8222
18437TIP3   OH276801   4.511   3.469  16.621 -0.4256  0.0303  0.8114
18437TIP3    H176802   4.430   3.423  16.599  0.1460 -0.0220 -1.4476
18437TIP3    H276803   4.574   3.400  16.639  0.2922 -0.2040 -2.0683
18438TIP3   OH276804   3.709   4.695   3.253 -0.3091  0.0836  0.1518
18438TIP3    H176805   3.672   4.614   3.288 -0.8862  0.2529 -0.0400
18438TIP3    H276806   3.687   4.761   3.318 -0.4422  0.2038 -0.0115
18439TIP3   OH276807   0.596   6.158  14.601 -0.2814  0.2217 -0.1190
18439TIP3    H176808   0.670   6.123  14.550 -0.9571 -1.9954  0.3471
18439TIP3    H276809   0.519   6.115  14.564 -1.1824  1.2923  0.4669
18440TIP3   OH276810   2.837   0.268   1.283 -0.0388  0.3719 -0.2067
18440TIP3    H176811   2.860   0.351   1.326 -1.0230  0.7963 -0.4570
18440TIP3    H276812   2.906   0.254   1.219  0.0986  1.0506 -0.2172
18441TIP3   OH276813   4.299   1.048  14.617  0.3641  0.2444  0.6484
18441TIP3    H176814   4.283   1.032  14.524  0.5086 -2.6442  1.0082
18441TIP3    H276815   4.216   1.081  14.651  0.0679  0.5587 -0.3477
18442TIP3   OH276816   6.732   5.995  12.481  0.2458 -0.3684  0.0640
18442TIP3    H176817   6.769   6.049  12.552 -0.1760  0.2881 -0.2031
18442TIP3    H276818   6.651   5.961  12.518 -0.5136  0.8332 -0.4457
18443TIP3   OH276819   4.111   6.435   2.091 -0.2763  0.0565 -0.4319
18443TIP3    H176820   4.185   6.390   2.051  0.1070 -0.2944  0.6385
18443TIP3    H276821   4.150   6.509   2.138 -0.6850  0.3100 -0.4855
18444TIP3   OH276822   4.366   4.163   1.761 -0.8776  0.0581 -0.1723
18444TIP3    H176823   4.345   4.232   1.698 -1.3180  1.1448  1.1281
18444TIP3    H276824   4.461   4.152   1.753 -0.9561 -0.0037 -1.1855
18445TIP3   OH276825   5.444   3.727   5.570 -0.0521 -0.2649  0.0442
18445TIP3    H176826   5.477   3.812   5.597  2.1517 -0.8184 -0.7480
18445TIP3    H276827   5.470   3.667   5.640  0.8902 -0.7484 -0.6944
18446TIP3   OH276828   3.337   1.557  17.116 -0.3938  0.1762  0.1001
18446TIP3    H176829   3.431   1.575  17.109 -0.1700 -1.1041 -0.4601
18446TIP3    H276830   3.295   1.631  17.072  0.3159  1.0287  0.8112
18447TIP3   OH276831   3.225   4.695  14.020  0.5563  0.0474 -0.2343
18447TIP3    H176832   3.176   4.645  14.084 -0.2853  1.0880 -0.0421
18447TIP3    H276833   3.167   4.699  13.943  0.3995  1.1222 -0.0722
18448TIP3   OH276834   4.528   1.107  14.774 -0.1121  0.1574 -0.1628
18448TIP3    H176835   4.508   1.157  14.853  0.8023  1.2366 -0.5840
18448TIP3    H276836   4.448   1.059  14.755 -0.3023 -0.2432  1.4959
18449TIP3   OH276837   0.494   3.815   0.559  0.2200 -0.4255  0.0930
18449TIP3    H176838   0.430   3.761   0.513  0.5652 -0.9915  0.2719
18449TIP3    H276839   0.446   3.896   0.580 -0.5841 -1.0258  0.6508
18450TIP3   OH276840   5.428   0.368   4.765 -0.4562  0.1477  0.1393
18450TIP3    H176841   5.481   0.353   4.844 -0.7124  1.6485  0.6172
18450TIP3    H276842   5.427   0.283   4.721  1.7996 -0.1124  0.4520
18451TIP3   OH276843   6.208   5.409  11.308 -0.1581 -0.1289  0.1003
18451TIP3    H176844   6.173   5.445  11.226  0.5127 -0.5917 -0.4048
18451TIP3    H276845   6.289   5.365  11.282  1.5641  2.0336  1.3794
18452TIP3   OH276846   3.916   5.908   2.131 -0.0950 -0.4550 -0.1641
18452TIP3    H176847   3.974   5.932   2.058  0.0031  0.3345  0.1612
18452TIP3    H276848   3.855   5.982   2.138 -1.6092 -1.5939 -0.9585
18453TIP3   OH276849   5.045   1.015  11.121  0.0012 -0.0117  0.0715
18453TIP3    H176850   5.123   0.964  11.145 -1.1288 -1.8156  0.0656
18453TIP3    H276851   4.986   1.003  11.195 -0.0939  1.8292  0.3408
18454TIP3   OH276852   1.750   6.486  16.603  0.1738  0.4169  0.2287
18454TIP3    H176853   1.761   6.498  16.508 -2.7130  0.6255 -0.1675
18454TIP3    H276854   1.812   6.416  16.625  1.0759  0.4999 -1.7395
18455TIP3   OH276855   0.716   1.946  10.684 -0.1489 -0.2910 -0.1004
18455TIP3    H176856   0.737   1.878  10.748 -0.5641 -0.6274 -0.3167
18455TIP3    H276857   0.717   1.901  10.600  0.6196  0.1992 -0.3586
18456TIP3   OH276858   6.386   0.300  14.507  0.4216  0.2849 -0.1907
18456TIP3    H176859   6.326   0.359  14.460 -0.2382  0.4175  0.7869
18456TIP3    H276860   6.473   0.324  14.475 -0.0116  0.1877 -1.5320
18457TIP3   OH276861   6.144   0.318  17.160 -0.3597 -0.3749  0.2014
18457TIP3    H176862   6.189   0.233  17.167 -0.3343 -0.4789 -1.0199
18457TIP3    H276863   6.075   0.303  17.096 -0.0721  0.6451 -0.3692
18458TIP3   OH276864   4.530   6.376   5.211 -0.0521  0.4303  0.6362
18458TIP3    H176865   4.595   6.382   5.280  0.6101  0.6679  0.0104
18458TIP3    H276866   4.570   6.321   5.144 -0.6790  0.2039  0.4353
18459TIP3   OH276867   1.042   6.071   4.759  0.0275  0.5523 -0.4517
18459TIP3    H176868   1.109   6.139   4.755 -0.0873  0.6616 -0.5253
18459TIP3    H276869   1.086   5.991   4.730  0.8203  0.0689  1.8068
18460TIP3   OH276870   6.163   6.802  13.590 -0.0824 -0.5294 -0.3748
18460TIP3    H176871   6.195   6.713  13.583  0.8724 -0.3961  1.6121
18460TIP3    H276872   6.076   6.800  13.549 -0.2062 -2.4352 -0.0784
18461TIP3   OH276873   3.846   2.269   5.056  0.9298  0.4004 -0.0977
18461TIP3    H176874   3.927   2.317   5.072  1.0865  0.1133 -0.0255
18461TIP3    H276875   3.781   2.313   5.112  0.4783  2.1056 -1.8411
18462TIP3   OH276876   1.636   1.773   3.242  0.2290 -0.0120 -0.3459
18462TIP3    H176877   1.563   1.753   3.184 -1.1672 -0.1140  1.3451
18462TIP3    H276878   1.690   1.694   3.241  0.5386  0.2034 -1.9079
18463TIP3   OH276879   3.767   0.383  16.334 -0.7420  0.2893 -0.6438
18463TIP3    H176880   3.786   0.475  16.314  1.6585 -0.0669 -0.3244
18463TIP3    H276881   3.686   0.386  16.384 -0.7423  2.2405 -0.6806
18464TIP3   OH276882   3.266   4.746   4.350 -0.6192 -0.4310 -0.0400
18464TIP3    H176883   3.296   4.657   4.369 -2.0279 -1.0468 -0.5848
18464TIP3    H276884   3.290   4.796   4.428  1.3779 -0.9520 -0.2566
18465TIP3   OH276885   3.991   0.348   4.710 -0.1216  0.7120 -0.0041
18465TIP3    H176886   4.064   0.381   4.763  0.8080 -2.4690  0.9154
18465TIP3    H276887   3.923   0.414   4.721  0.8825  1.4145  3.2373
18466TIP3   OH276888   2.688   6.181  15.209  0.5921  0.1228 -0.4270
18466TIP3    H176889   2.670   6.143  15.294  0.6354  0.2464 -0.3631
18466TIP3    H276890   2.615   6.153  15.154  0.6320 -0.0660 -0.3839
18467TIP3   OH276891   6.018   3.581  13.518  0.4981 -0.5133 -0.1654
18467TIP3    H176892   5.942   3.545  13.563  0.3455  1.4875  1.3458
18467TIP3    H276893   5.982   3.627  13.442  0.2139  0.0579  0.3048
18468TIP3   OH276894   6.514   2.315  12.077 -0.2030 -0.2710  0.2249
18468TIP3    H176895   6.507   2.230  12.033 -0.8666 -1.0093  1.6470
18468TIP3    H276896   6.468   2.301  12.160  0.2806  1.2921  0.7760
18469TIP3   OH276897   3.325   2.433  10.672 -0.0596 -0.0331  0.1652
18469TIP3    H176898   3.362   2.465  10.590 -2.2230  0.5062 -0.6888
18469TIP3    H276899   3.335   2.506  10.733  1.7380 -0.5071  0.5047
18470TIP3   OH276900   1.711   2.021  12.362 -0.2373 -0.0334  0.7453
18470TIP3    H176901   1.739   1.993  12.450 -1.5753 -0.9502  0.9097
18470TIP3    H276902   1.723   1.944  12.307 -0.8368  0.0618  0.4675
18471TIP3   OH276903   3.149   4.439  15.413  0.4605 -0.8094 -0.4088
18471TIP3    H176904   3.100   4.460  15.334  1.8906  1.7657 -0.7560
18471TIP3    H276905   3.082   4.430  15.481 -0.6487  0.1219 -1.3239
18472TIP3   OH276906   4.388   4.214  10.769 -0.1222  0.5313 -0.0198
18472TIP3    H176907   4.366   4.307  10.760  1.7656  1.0484  0.2846
18472TIP3    H276908   4.388   4.181  10.679  3.0335  1.8421 -0.6401
18473TIP3   OH276909   2.241   5.850  11.771 -0.7644  0.3178 -0.5753
18473TIP3    H176910   2.217   5.858  11.863 -0.6634 -0.1742 -0.5029
18473TIP3    H276911   2.159   5.865  11.723 -0.8301  0.5023 -0.4062
18474TIP3   OH276912   0.526   4.661  16.398 -0.2143  0.2431  0.1890
18474TIP3    H176913   0.440   4.645  16.436 -0.6238 -0.2832 -0.9072
18474TIP3    H276914   0.511   4.658  16.303  1.0383 -0.0555 -0.0124
18475TIP3   OH276915   2.450   4.813   5.976  0.3853  0.2315 -0.4917
18475TIP3    H176916   2.369   4.819   5.924  0.0088 -1.7036 -0.2084
18475TIP3    H276917   2.459   4.719   5.994  2.2412  0.5240  0.2261
18476TIP3   OH276918   0.813   6.446  12.657 -0.3821  0.1086 -0.5915
18476TIP3    H176919   0.796   6.503  12.732 -0.2566  1.5451 -1.6069
18476TIP3    H276920   0.908   6.447  12.647 -0.1795 -1.9924  0.6205
18477TIP3   OH276921   6.568   5.873  11.889  0.2463  0.0682 -0.1000
18477TIP3    H176922   6.511   5.877  11.812 -2.1133 -0.1121  1.5292
18477TIP3    H276923   6.604   5.961  11.897  0.4771  0.1079 -1.3610
18478TIP3   OH276924   2.860   2.529  13.309 -0.7226  0.9480 -0.1199
18478TIP3    H176925   2.919   2.521  13.234  0.0271 -0.6035  0.5786
18478TIP3    H276926   2.899   2.598  13.363  1.1321 -0.7320  0.8389
18479TIP3   OH276927   3.064   3.330   1.885 -0.0910 -0.1603  0.4858
18479TIP3    H176928   3.052   3.241   1.918 -1.5085  0.6357  2.2532
18479TIP3    H276929   3.058   3.386   1.962  0.6600  1.5092 -0.5990
18480TIP3   OH276930   5.881   4.430  15.010  0.1204 -0.2934  0.2012
18480TIP3    H176931   5.799   4.420  14.962  0.7563 -1.2250 -0.7511
18480TIP3    H276932   5.856   4.469  15.094 -1.0788  1.0048 -0.7199
18481TIP3   OH276933   2.315   4.664   3.475 -0.2439 -0.0271  0.0396
18481TIP3    H176934   2.393   4.613   3.456  1.6532  2.6408  0.1822
18481TIP3    H276935   2.262   4.657   3.395 -0.7139 -3.1370  0.5062
18482TIP3   OH276936   2.367   0.878  16.472  0.0147  0.4532 -0.1251
18482TIP3    H176937   2.396   0.800  16.425 -1.8994  0.2884 -1.1215
18482TIP3    H276938   2.300   0.847  16.533 -0.3520  1.2300 -0.1192
18483TIP3   OH276939   2.996   6.055  15.557 -0.0918 -0.2123 -0.2095
18483TIP3    H176940   3.008   5.963  15.533 -1.5132 -0.1060 -1.4965
18483TIP3    H276941   2.994   6.101  15.473  0.6296  1.0101  0.4154
18484TIP3   OH276942   5.174   6.701   3.888 -0.3051 -0.4764  0.3280
18484TIP3    H176943   5.106   6.637   3.867 -1.0361  0.6474 -0.8597
18484TIP3    H276944   5.229   6.657   3.954 -1.0142 -2.1482 -0.1474
18485TIP3   OH276945   4.204   2.883  11.742  0.3127  0.1557 -0.8414
18485TIP3    H176946   4.236   2.899  11.832 -0.1370 -0.9391 -0.4742
18485TIP3    H276947   4.226   2.963  11.695  0.3396  0.8531  0.3099
18486TIP3   OH276948   1.864   2.234   0.840 -0.3053 -0.2908  0.5450
18486TIP3    H176949   1.810   2.157   0.821  1.6133 -1.1991 -1.5663
18486TIP3    H276950   1.933   2.202   0.897  0.9352 -0.3777 -0.9394
18487TIP3   OH276951   6.145   3.902   2.511 -0.8549  0.2320 -0.2028
18487TIP3    H176952   6.054   3.872   2.505 -0.9623  0.5432 -0.1594
18487TIP3    H276953   6.189   3.858   2.439 -0.6135 -1.3793  0.8616
18488TIP3   OH276954   0.975   2.178   2.251  0.0986 -0.3614  0.2781
18488TIP3    H176955   1.050   2.222   2.291 -1.7996  0.6567  3.1237
18488TIP3    H276956   0.964   2.098   2.303 -0.8098 -0.4399 -0.0182
18489TIP3   OH276957   1.378   2.105   3.973 -0.2216  0.0461  0.4236
18489TIP3    H176958   1.290   2.115   3.937  0.0895 -2.6297 -1.3587
18489TIP3    H276959   1.436   2.123   3.898  0.8330  2.0760  1.6417
18490TIP3   OH276960   2.436   0.686   4.993  0.5316  0.3270 -0.2219
18490TIP3    H176961   2.426   0.652   4.904 -1.0052 -0.8473  0.3599
18490TIP3    H276962   2.472   0.774   4.981 -0.6536  0.6193 -2.0705
18491TIP3   OH276963   0.978   1.624   2.842  0.2426 -0.0210 -0.0368
18491TIP3    H176964   1.026   1.702   2.871 -0.6445  0.1445  1.0926
18491TIP3    H276965   0.888   1.655   2.831 -0.3487 -1.0742  1.4494
18492TIP3   OH276966   2.690   0.876  15.352 -0.4869  0.4894  0.2580
18492TIP3    H176967   2.654   0.958  15.385 -1.7171  0.4322 -0.8314
18492TIP3    H276968   2.615   0.816  15.352 -0.1501  0.0309 -1.0443
18493TIP3   OH276969   5.419   0.732   5.276  0.1396 -0.9643 -0.0049
18493TIP3    H176970   5.345   0.687   5.235  0.4685 -1.6347  0.1113
18493TIP3    H276971   5.379   0.797   5.334 -0.3740 -1.6928  0.4799
18494TIP3   OH276972   4.230   5.486   5.895 -0.1012  0.3833  0.6896
18494TIP3    H176973   4.171   5.562   5.894  0.1346  0.5831 -1.0724
18494TIP3    H276974   4.206   5.436   5.817  1.1061 -0.2864  0.7224
18495TIP3   OH276975   1.109   6.720  15.102  0.2385 -0.3551 -0.0534
18495TIP3    H176976   1.082   6.633  15.131  0.8892 -0.6537 -0.3146
18495TIP3    H276977   1.177   6.746  15.164  2.2775 -1.3742 -1.7496
18496TIP3   OH276978   1.766   5.395  17.181 -0.2116 -0.3559  0.5070
18496TIP3    H176979   1.778   5.345  17.100 -2.1677  0.2769 -0.2255
18496TIP3    H276980   1.678   5.374  17.210  0.3876 -0.4208  2.4089
18497TIP3   OH276981   6.378   4.860   1.583 -0.2349 -0.5098  0.4892
18497TIP3    H176982   6.284   4.858   1.598 -0.2375 -0.2887  0.5063
18497TIP3    H276983   6.393   4.799   1.511 -0.8285  2.0405 -1.9730
18498TIP3   OH276984   1.357   2.865   1.104  0.2346 -0.2767  0.4240
18498TIP3    H176985   1.393   2.786   1.065 -0.6570 -0.2460 -0.5179
18498TIP3    H276986   1.382   2.935   1.043 -0.8459 -0.1722  0.0711
18499TIP3   OH276987   1.980   2.018   5.519 -0.1930 -0.3293 -0.3688
18499TIP3    H176988   2.033   1.999   5.596  1.5467 -1.5974 -1.7842
18499TIP3    H276989   2.019   2.098   5.482 -0.6740 -0.0259 -0.2189
18500TIP3   OH276990   2.269   4.987   2.301  0.5905 -0.2385 -0.0082
18500TIP3    H176991   2.230   4.978   2.388 -1.7257  0.7425 -0.8571
18500TIP3    H276992   2.256   5.079   2.278  0.2945 -0.6693 -1.7565
18501TIP3   OH276993   2.044   3.839   3.409  0.4136 -0.2504  0.2362
18501TIP3    H176994   2.095   3.785   3.348 -0.2421  1.4922 -2.0179
18501TIP3    H276995   1.954   3.812   3.393  0.2934 -0.3773  1.1132
18502TIP3   OH276996   5.611   5.698   1.353 -0.3744  0.6647 -0.0658
18502TIP3    H176997   5.627   5.740   1.437 -1.2957  0.3955  0.2524
18502TIP3    H276998   5.685   5.725   1.298  0.8957 -0.1138  1.1745
18503TIP3   OH276999   6.197   0.703   2.273 -0.5180  0.3271  0.1292
18503TIP3    H177000   6.250   0.668   2.344 -0.1955 -0.7293 -0.6058
18503TIP3    H277001   6.199   0.635   2.206 -1.7988  0.7877 -0.4078
18504TIP3   OH277002   4.453   1.775  15.723  0.2083 -0.3386  0.0656
18504TIP3    H177003   4.408   1.770  15.639 -0.0933  0.8211  0.1460
18504TIP3    H277004   4.415   1.704  15.775 -2.8577  1.6099  0.7412
18505TIP3   OH277005   2.183   3.457  13.619  0.1461  0.2223 -0.1466
18505TIP3    H177006   2.170   3.365  13.597 -1.3438  0.3526  0.1055
18505TIP3    H277007   2.258   3.457  13.679 -0.7981 -1.0148  1.0953
18506TIP3   OH277008   3.970   3.262   2.235  0.7234 -0.0295 -0.2703
18506TIP3    H177009   3.998   3.304   2.154  0.8978 -0.8848 -0.6605
18506TIP3    H277010   3.995   3.170   2.225  1.1653 -0.0592  0.9431
18507TIP3   OH277011   1.311   5.899   0.545  0.1018 -0.1144  0.2140
18507TIP3    H177012   1.358   5.838   0.601  0.1892 -0.0270  0.2379
18507TIP3    H277013   1.360   5.898   0.462  0.5175  0.4378  0.4419
18508TIP3   OH277014   0.324   5.853  14.066  0.5537  0.4204  0.1244
18508TIP3    H177015   0.344   5.769  14.025 -0.8033 -0.0884  0.4494
18508TIP3    H277016   0.367   5.918  14.011  2.4034 -0.5277  0.3807
18509TIP3   OH277017   6.368   1.905   4.802 -0.1354 -0.3233 -0.2487
18509TIP3    H177018   6.317   1.923   4.723  1.9728  0.1456 -1.6078
18509TIP3    H277019   6.376   1.990   4.845  0.2562 -0.1929 -0.5622
18510TIP3   OH277020   2.980   3.982  16.825  0.6880 -0.6535  0.1727
18510TIP3    H177021   2.930   3.963  16.746 -0.6200 -0.0159  0.8152
18510TIP3    H277022   2.950   3.917  16.889  1.7544 -1.1819  0.1576
18511TIP3   OH277023   0.963   5.157   0.009  0.1762 -0.5994  0.2962
18511TIP3    H177024   1.052   5.142   0.041  0.1396 -0.3556  0.5111
18511TIP3    H277025   0.961   5.248  -0.019  0.2427 -0.8365 -0.5276
18512TIP3   OH277026   0.293   2.215  12.722  1.0381  0.3335 -0.0251
18512TIP3    H177027   0.230   2.285  12.742  0.7929  0.2510 -0.4939
18512TIP3    H277028   0.260   2.139  12.770 -0.1269 -0.1439 -1.5054
18513TIP3   OH277029   4.726   4.086  16.067  0.3558  0.2574  0.4471
18513TIP3    H177030   4.751   4.148  16.135  0.6720  0.1124  0.4647
18513TIP3    H277031   4.807   4.067  16.020 -0.1140  1.5336 -0.9697
18514TIP3   OH277032   4.710   5.288  14.190  0.3350 -0.0618 -0.0094
18514TIP3    H177033   4.784   5.254  14.241  1.8663  2.5040 -0.2964
18514TIP3    H277034   4.690   5.372  14.231 -1.6008 -0.1190 -0.7524
18515TIP3   OH277035   2.984   2.433   0.897  0.0365  0.3084  0.3537
18515TIP3    H177036   2.898   2.411   0.931  0.1582  0.0026  0.4672
18515TIP3    H277037   2.967   2.493   0.824 -0.3068 -0.3035 -0.0749
18516TIP3   OH277038   5.021   2.431  12.654 -0.0961 -0.7052 -0.1243
18516TIP3    H177039   4.944   2.488  12.651  0.0626 -0.4076  1.1598
18516TIP3    H277040   5.088   2.483  12.698  0.4417 -1.4417 -0.0499
18517TIP3   OH277041   0.924   0.065   0.937  0.3872  0.0178 -0.4689
18517TIP3    H177042   0.968   0.007   0.998 -0.1511  0.7487  0.6461
18517TIP3    H277043   0.983   0.071   0.862  0.0768 -2.6483 -1.0298
18518TIP3   OH277044   6.663   6.701  12.902  0.4601  0.2710 -0.0493
18518TIP3    H177045   6.671   6.610  12.929  0.4791  0.3602  0.2456
18518TIP3    H277046   6.574   6.727  12.928 -0.0271 -0.0575 -1.3372
18519TIP3   OH277047   3.619   0.612  16.602 -0.7080  0.0800 -0.1753
18519TIP3    H177048   3.713   0.625  16.618 -0.2785 -2.1355 -0.4901
18519TIP3    H277049   3.592   0.689  16.552  1.3431  0.0412 -1.4794
18520TIP3   OH277050   4.526   5.523   1.335  0.5944  0.2484  0.4915
18520TIP3    H177051   4.438   5.559   1.323  0.9284  0.8968 -0.1002
18520TIP3    H277052   4.513   5.445   1.389 -0.5026 -0.3641 -0.5821
18521TIP3   OH277053   6.389   5.117   4.917 -0.2723 -0.4689  0.1743
18521TIP3    H177054   6.380   5.163   4.833 -0.3513 -0.8565 -0.0316
18521TIP3    H277055   6.442   5.177   4.971  0.1849 -0.4225 -0.3105
18522TIP3   OH277056   1.518   1.852   1.393  0.2094  0.1139  0.1757
18522TIP3    H177057   1.571   1.825   1.318  0.2629  1.5619 -0.3415
18522TIP3    H277058   1.569   1.824   1.469  1.2647  0.6128 -0.3197
18523TIP3   OH277059   4.135   0.930  15.960 -0.2048 -0.7404 -0.1704
18523TIP3    H177060   4.115   1.020  15.935 -3.7672 -1.1503  0.7292
18523TIP3    H277061   4.111   0.878  15.883 -2.2988 -1.2108  0.7401
18524TIP3   OH277062   2.109   5.405  16.407  0.7074  0.4579  0.0830
18524TIP3    H177063   2.091   5.316  16.438 -0.5215  0.6909  0.1004
18524TIP3    H277064   2.036   5.424  16.348 -0.8040  2.5855  2.4207
18525TIP3   OH277065   6.738   1.847   2.184 -0.2998  0.0023  0.4643
18525TIP3    H177066   6.655   1.828   2.139 -0.1319  0.4588 -0.0453
18525TIP3    H277067   6.804   1.799   2.133  0.2044  2.2117 -1.1379
18526TIP3   OH277068   2.934   4.970  12.278  0.4779 -0.5480  0.2154
18526TIP3    H177069   2.973   4.884  12.296  0.6947 -0.1805  1.6524
18526TIP3    H277070   2.996   5.032  12.317 -0.2651  0.1911  0.2338
18527TIP3   OH277071   4.462   2.987   5.676 -0.4665 -0.4902  0.4692
18527TIP3    H177072   4.544   2.940   5.695  0.1704 -0.0799 -1.1192
18527TIP3    H277073   4.422   2.936   5.605 -0.0585  0.9756 -0.8686
18528TIP3   OH277074   0.992   4.222   3.673 -0.4147  0.9682  0.2710
18528TIP3    H177075   0.970   4.299   3.727 -1.0624  0.4585  0.7565
18528TIP3    H277076   1.034   4.259   3.595 -0.1468  1.7725  0.7782
18529TIP3   OH277077   6.439   2.250  16.021 -0.4333 -0.1463 -0.3496
18529TIP3    H177078   6.414   2.324  16.077  0.2430  0.5820 -0.9907
18529TIP3    H277079   6.528   2.271  15.992 -0.8539 -0.4099 -1.8724
18530TIP3   OH277080   5.467   1.016  12.295 -0.2060 -0.3463 -0.0532
18530TIP3    H177081   5.392   0.957  12.288  0.8142 -1.4465 -2.4294
18530TIP3    H277082   5.543   0.959  12.304  0.5002  0.7300  1.1800
18531TIP3   OH277083   5.726   1.852   0.931 -0.4267 -0.3974  0.7035
18531TIP3    H177084   5.765   1.824   0.849  0.3368 -0.9541  1.2378
18531TIP3    H277085   5.659   1.786   0.950 -1.1940  0.2009  0.1105
18532TIP3   OH277086   2.944   5.790  13.265 -0.1722 -0.0933  0.9257
18532TIP3    H177087   2.958   5.815  13.356  0.1496 -0.7663  1.0724
18532TIP3    H277088   2.914   5.699  13.270 -1.8555  0.4136  0.4493
18533TIP3   OH277089   5.638   2.334  13.814 -0.1838 -0.5564 -0.8219
18533TIP3    H177090   5.731   2.349  13.829 -0.1549 -0.8896 -0.6676
18533TIP3    H277091   5.614   2.398  13.747 -0.1293  0.3771  0.0364
18534TIP3   OH277092   5.887   3.832   4.311  0.0859 -0.7113 -0.1096
18534TIP3    H177093   5.888   3.901   4.245  2.3641 -0.8124 -0.2361
18534TIP3    H277094   5.928   3.757   4.269 -0.1355 -1.3684  0.8136
18535TIP3   OH277095   1.542   1.489   1.464  0.5028 -0.5629 -0.4636
18535TIP3    H177096   1.561   1.555   1.397 -1.5138  0.3551 -0.2000
18535TIP3    H277097   1.558   1.533   1.547  0.3660 -0.8009 -0.3087
18536TIP3   OH277098   1.147   0.086  12.535 -0.5444  0.2728 -0.1420
18536TIP3    H177099   1.076   0.129  12.487 -1.6593 -1.3044 -0.0123
18536TIP3    H277100   1.190   0.157  12.583 -1.9498  1.3138 -0.3471
18537TIP3   OH277101   3.677   0.650  12.156  0.5518  0.4643  0.0361
18537TIP3    H177102   3.617   0.582  12.187  2.1225 -0.7736  0.5255
18537TIP3    H277103   3.642   0.675  12.071 -0.8902  0.1016  0.4863
18538TIP3   OH277104   1.537   5.967   0.910 -0.0747 -0.0215 -0.3962
18538TIP3    H177105   1.555   5.874   0.922 -1.0407  0.0147  1.7642
18538TIP3    H277106   1.588   6.010   0.978  0.7360  1.1154 -1.6685
18539TIP3   OH277107   4.328   5.921   0.574 -0.6156  0.2047  0.0407
18539TIP3    H177108   4.235   5.922   0.594 -0.1085 -0.9562  2.9594
18539TIP3    H277109   4.371   5.917   0.659  2.0280 -1.6064 -1.2320
18540TIP3   OH277110   5.620   4.696   4.300 -0.4159 -0.0690 -0.4139
18540TIP3    H177111   5.558   4.768   4.316  1.2499  1.4273 -0.3542
18540TIP3    H277112   5.575   4.640   4.238 -1.8093  0.9963 -0.4376
18541TIP3   OH277113   0.909   1.937   2.372 -0.2830  0.0977 -0.4381
18541TIP3    H177114   0.963   1.877   2.423 -0.8702  0.5943  0.8018
18541TIP3    H277115   0.865   1.881   2.308  2.0182 -0.2572 -1.8049
18542TIP3   OH277116   4.786   2.390   0.963  0.4446 -0.0799 -0.0242
18542TIP3    H177117   4.781   2.440   0.882 -0.2111  0.5769  0.4104
18542TIP3    H277118   4.695   2.378   0.990  0.5672 -1.6285 -0.1739
18543TIP3   OH277119   6.571   1.732  16.068  0.4272 -0.2148  0.1415
18543TIP3    H177120   6.579   1.827  16.058  3.7078 -0.3038  0.6030
18543TIP3    H277121   6.626   1.697  15.998  0.7263 -1.6947  1.0750
18544TIP3   OH277122   0.100   3.937   1.399  0.5039 -0.2622 -0.0033
18544TIP3    H177123   0.170   3.996   1.426  2.2399 -1.8760 -0.7477
18544TIP3    H277124   0.135   3.891   1.323 -0.9366 -1.9195  0.2601
18545TIP3   OH277125   4.653   3.583   3.597  0.8555  0.0938  0.1406
18545TIP3    H177126   4.637   3.515   3.662 -0.0977  0.8550  0.7291
18545TIP3    H277127   4.702   3.650   3.644  1.6996 -0.1227 -0.4092
18546TIP3   OH277128   0.961   6.201  15.228 -0.9836 -0.2653  0.0609
18546TIP3    H177129   0.969   6.204  15.323 -0.4765  0.8974  0.0075
18546TIP3    H277130   0.992   6.287  15.199  0.4191 -1.1515 -1.2550
18547TIP3   OH277131   2.977   5.684  12.939 -0.7000 -0.3777 -0.6768
18547TIP3    H177132   2.940   5.598  12.954 -1.7497  0.6065  3.9895
18547TIP3    H277133   2.993   5.719  13.027  1.1014  3.6080 -2.3368
18548TIP3   OH277134   2.520   3.715  12.497  0.2154  0.3942 -0.0379
18548TIP3    H177135   2.541   3.808  12.505 -0.8253  0.5925  0.6684
18548TIP3    H277136   2.426   3.711  12.515  0.5266 -0.9702  1.4123
18549TIP3   OH277137   4.676   3.500  12.029 -0.3089 -0.1411  0.8507
18549TIP3    H177138   4.582   3.519  12.025  0.1861  2.5759 -1.1662
18549TIP3    H277139   4.711   3.565  12.090  0.3684 -0.3749  0.7137
18550TIP3   OH277140   1.144   5.977   2.863 -0.4584  0.5564  0.1184
18550TIP3    H177141   1.126   5.975   2.770 -1.3489  0.9621  0.2786
18550TIP3    H277142   1.152   5.885   2.888 -1.0932  0.4192 -0.1849
18551TIP3   OH277143   5.381   0.952   2.771  0.0818 -0.1458 -0.3290
18551TIP3    H177144   5.353   1.037   2.737  0.9242  1.6565  3.0435
18551TIP3    H277145   5.476   0.953   2.762  0.1598 -0.3776  0.3840
18552TIP3   OH277146   3.763   5.671   6.187 -0.1601 -0.1698  0.1655
18552TIP3    H177147   3.795   5.709   6.105  0.6307  0.3696  0.7142
18552TIP3    H277148   3.807   5.721   6.255 -0.6665 -0.7441  0.9223
18553TIP3   OH277149   2.264   5.679   4.723  0.5330 -0.8986 -0.3156
18553TIP3    H177150   2.178   5.702   4.688 -0.5991 -3.7570  0.2684
18553TIP3    H277151   2.280   5.745   4.791 -2.5880 -1.7860  1.5169
18554TIP3   OH277152   5.857   4.426  16.856 -0.7188  0.1025  0.4325
18554TIP3    H177153   5.850   4.502  16.914  2.0614  0.7699  0.0309
18554TIP3    H277154   5.936   4.443  16.804 -1.0274 -2.2407 -0.9341
18555TIP3   OH277155   3.109   0.958   5.179  0.4403 -0.5754  0.2358
18555TIP3    H177156   3.053   0.893   5.222 -0.2878 -1.2418 -1.6234
18555TIP3    H277157   3.188   0.909   5.156  1.3068  0.0541  1.7287
18556TIP3   OH277158   3.003   3.300   2.975  0.4529  0.4213  0.0610
18556TIP3    H177159   3.082   3.353   2.990 -0.4040  1.6997  0.1542
18556TIP3    H277160   3.013   3.267   2.886  1.4723 -0.1043  0.3487
18557TIP3   OH277161   5.215   3.310  10.416  0.1605 -0.2828  0.7428
18557TIP3    H177162   5.217   3.269  10.503 -2.1871  1.2026  1.5997
18557TIP3    H277163   5.189   3.239  10.357  1.1538 -1.1651  1.3255
18558TIP3   OH277164   5.360   0.911  14.203 -0.4077 -0.5430 -0.2547
18558TIP3    H177165   5.417   0.893  14.278 -1.2948  0.5021  0.6925
18558TIP3    H277166   5.365   1.005  14.190 -3.7745  0.0294  1.4537
18559TIP3   OH277167   1.997   1.008   4.047 -0.2763  0.1309 -0.4522
18559TIP3    H177168   2.081   1.023   4.003  0.7719  0.4888  1.5600
18559TIP3    H277169   1.942   0.966   3.981  1.8640 -1.1939 -1.4709
18560TIP3   OH277170   3.938   1.882  10.552 -0.4567  0.4097 -0.2538
18560TIP3    H177171   3.865   1.932  10.514  0.8635  2.1829 -0.5727
18560TIP3    H277172   4.002   1.949  10.577  2.8416 -1.1400 -3.6255
18561TIP3   OH277173   0.875   5.609  15.766 -0.4700  0.2635  0.1566
18561TIP3    H177174   0.871   5.572  15.679 -0.5607  0.7876 -0.0679
18561TIP3    H277175   0.881   5.704  15.752  1.3212  0.2723  0.6558
18562TIP3   OH277176   5.723   4.870  13.550 -0.0255  0.2365  0.2164
18562TIP3    H177177   5.660   4.822  13.605  0.5537  0.6271  1.2491
18562TIP3    H277178   5.806   4.824  13.564  0.4058  1.1505  0.7361
18563TIP3   OH277179   0.845   4.926   4.267  0.4192 -0.6688  0.0708
18563TIP3    H177180   0.807   4.871   4.335 -0.4239 -1.0391 -0.6795
18563TIP3    H277181   0.773   4.983   4.240  1.0381  0.1997  0.2150
18564TIP3   OH277182   0.266   0.715  11.655 -0.3492 -0.3260 -0.0179
18564TIP3    H177183   0.306   0.668  11.728 -1.3510 -2.1693 -0.5902
18564TIP3    H277184   0.340   0.739  11.599  0.4535  1.2386  1.5925
18565TIP3   OH277185   3.074   6.208  11.824  0.0665 -1.2924 -0.0039
18565TIP3    H177186   3.103   6.117  11.819  0.9017 -1.1797  1.8335
18565TIP3    H277187   2.996   6.206  11.878  0.0509 -0.9222 -0.0092
18566TIP3   OH277188   2.756   5.299   4.680 -0.7560  0.1894  0.2981
18566TIP3    H177189   2.843   5.333   4.702 -0.7237  1.5151 -1.6257
18566TIP3    H277190   2.709   5.375   4.645 -1.3992 -1.2483 -2.2390
18567TIP3   OH277191   1.232   0.922   0.856 -0.2433  0.3524  1.4251
18567TIP3    H177192   1.279   0.839   0.859 -0.8712 -0.0662  0.2486
18567TIP3    H277193   1.263   0.964   0.776 -1.5564  0.2343  0.8245
18568TIP3   OH277194   4.696   3.258  11.015 -0.1055 -0.0063 -0.1018
18568TIP3    H177195   4.691   3.180  10.961 -0.1578 -0.8120  1.0318
18568TIP3    H277196   4.616   3.307  10.994 -1.1335 -1.2891  0.6846
18569TIP3   OH277197   2.853   4.371  11.035  0.0888 -0.5429 -0.0883
18569TIP3    H177198   2.800   4.443  11.001  0.5249 -0.7638 -1.2649
18569TIP3    H277199   2.850   4.382  11.130  1.2743  1.8734 -0.2417
18570TIP3   OH277200   3.554   1.927  12.337  0.4031  0.0528 -0.2579
18570TIP3    H177201   3.479   1.985  12.345 -1.4654 -2.2953  0.4872
18570TIP3    H277202   3.629   1.985  12.324 -1.5250  2.4922 -1.1211
18571TIP3   OH277203   5.126   5.738   5.273  0.9777 -0.2393  0.0787
18571TIP3    H177204   5.062   5.689   5.324  0.8103 -2.0722 -1.7545
18571TIP3    H277205   5.200   5.677   5.264  0.3497 -0.6965 -3.1508
18572TIP3   OH277206   5.522   4.939  10.941  0.2635 -0.1222  0.1707
18572TIP3    H177207   5.551   4.857  10.902 -0.1581 -0.6002  0.8428
18572TIP3    H277208   5.447   4.966  10.887 -0.8075 -1.1812  1.0857
18573TIP3   OH277209   1.744   3.556  10.985 -0.5570  0.1693 -0.1270
18573TIP3    H177210   1.653   3.554  10.954 -0.9392 -2.0667  0.8998
18573TIP3    H277211   1.737   3.541  11.080  0.7880  2.6286  0.4496
18574TIP3   OH277212   4.968   4.496   5.993  0.2287  0.2125  0.7547
18574TIP3    H177213   4.991   4.588   6.004 -0.5262  0.7131 -1.3725
18574TIP3    H277214   4.875   4.492   6.013 -0.1776  0.3200 -0.9799
18575TIP3   OH277215   6.150   4.866  14.470  0.0009  0.0244 -0.0024
18575TIP3    H177216   6.227   4.810  14.477 -0.4046 -0.4933  0.4007
18575TIP3    H277217   6.098   4.827  14.400  0.3165  0.6394 -0.5893
18576TIP3   OH277218   6.775   2.858   4.284 -0.1709  0.0987 -0.3729
18576TIP3    H177219   6.723   2.806   4.223  0.9237  0.9829 -2.1507
18576TIP3    H277220   6.849   2.888   4.232  0.2522  1.7992  1.1269
18577TIP3   OH277221   5.969   0.267  15.369 -0.4023  0.2083  0.1500
18577TIP3    H177222   6.011   0.340  15.413 -0.8121 -1.0891  2.9263
18577TIP3    H277223   6.038   0.228  15.315  1.0769  0.1022  2.0243
18578TIP3   OH277224   5.107   2.819  12.740  0.1299 -0.4429  0.6991
18578TIP3    H177225   5.164   2.891  12.767 -0.4895  0.5751 -0.5514
18578TIP3    H277226   5.039   2.861  12.687 -0.1213 -1.9723 -0.2689
18579TIP3   OH277227   4.620   5.478   1.642 -0.2955  0.3489 -0.1143
18579TIP3    H177228   4.574   5.395   1.656  0.2800 -0.0457 -0.5313
18579TIP3    H277229   4.550   5.542   1.632 -0.7619  0.1180  1.3127
18580TIP3   OH277230   5.568   3.474  13.806  0.0015 -0.4148 -0.6815
18580TIP3    H177231   5.572   3.393  13.857 -1.9778 -0.5685 -0.6870
18580TIP3    H277232   5.517   3.534  13.860  2.2314  1.2025 -0.2549
18581TIP3   OH277233   1.419   3.982   2.178  0.2802 -0.0989  0.2035
18581TIP3    H177234   1.484   4.049   2.158 -1.1769  1.2706 -0.1423
18581TIP3    H277235   1.388   3.952   2.092  0.6215 -0.9461  0.3626
18582TIP3   OH277236   6.474   6.146   5.246  0.4107  0.0624 -0.2037
18582TIP3    H177237   6.428   6.215   5.198 -2.0114 -0.0417  1.7878
18582TIP3    H277238   6.557   6.136   5.199 -0.8405  1.4778 -2.9789
18583TIP3   OH277239   2.346   5.731   3.948 -0.9850 -0.2646  0.0738
18583TIP3    H177240   2.255   5.748   3.922 -0.6710  1.8484  0.1947
18583TIP3    H277241   2.398   5.756   3.871 -0.3564  1.1980  0.9398
18584TIP3   OH277242   6.363   0.644  12.075 -0.1914  0.1155 -0.0441
18584TIP3    H177243   6.405   0.726  12.099  0.3196 -0.1808  0.0792
18584TIP3    H277244   6.294   0.670  12.014  1.5532  0.4423 -2.0139
18585TIP3   OH277245   2.142   1.417   1.396 -0.3739  0.0279 -0.0455
18585TIP3    H177246   2.146   1.439   1.303 -0.2470 -1.1976 -0.3536
18585TIP3    H277247   2.233   1.409   1.423 -0.4110  0.2871  0.1558
18586TIP3   OH277248   4.294   1.906   2.346  0.2449  0.4499  0.4968
18586TIP3    H177249   4.224   1.862   2.394 -0.1863 -0.7115 -1.1291
18586TIP3    H277250   4.254   1.986   2.312 -0.6795 -0.7446 -1.3629
18587TIP3   OH277251   1.172   4.750   0.613 -0.2436  0.8208 -0.0582
18587TIP3    H177252   1.077   4.737   0.605 -0.4875  0.2641  2.8403
18587TIP3    H277253   1.209   4.698   0.541 -2.0119 -2.0077  0.9237
18588TIP3   OH277254   3.579   3.882   0.297 -0.1953  0.1077 -0.3736
18588TIP3    H177255   3.517   3.895   0.368 -0.3508  0.6038 -0.5959
18588TIP3    H277256   3.541   3.812   0.244 -0.9745  0.9465 -0.9520
18589TIP3   OH277257   4.532   5.901   4.712  0.1927 -0.4137  0.2126
18589TIP3    H177258   4.437   5.886   4.704 -0.2619  2.0682  0.3640
18589TIP3    H277259   4.562   5.909   4.622 -0.0394  0.3424  0.1957
18590TIP3   OH277260   1.386   1.608  16.110 -0.2947  0.0824  0.2092
18590TIP3    H177261   1.400   1.524  16.065  2.2273  0.1379  0.7408
18590TIP3    H277262   1.344   1.584  16.192  0.8179 -0.7519  0.5628
18591TIP3   OH277263   0.204   1.895  16.536 -0.2905  0.1760 -0.0616
18591TIP3    H177264   0.139   1.835  16.499 -0.1956 -0.0075  0.0661
18591TIP3    H277265   0.213   1.868  16.627  1.0321 -0.7636 -0.4294
18592TIP3   OH277266   0.783   2.126  13.914  0.1576  0.0204 -0.2134
18592TIP3    H177267   0.748   2.211  13.940  0.8852  0.0014  0.8992
18592TIP3    H277268   0.740   2.063  13.972  0.8434 -0.1761  0.0934
18593TIP3   OH277269   0.006   6.085  15.285 -0.0993  0.1579 -0.2493
18593TIP3    H177270  -0.054   6.078  15.359  0.8928  1.4561  0.7308
18593TIP3    H277271  -0.042   6.048  15.212 -0.6866 -2.2799  1.2553
18594TIP3   OH277272   5.867   5.492  12.958 -0.7238  0.4041 -0.0287
18594TIP3    H177273   5.908   5.430  12.898 -1.0224  1.4380 -1.3451
18594TIP3    H277274   5.929   5.501  13.030 -0.0112 -0.3085 -0.5364
18595TIP3   OH277275   3.678   6.834   1.645 -0.2066 -0.3116 -0.2535
18595TIP3    H177276   3.605   6.896   1.639 -0.1831 -0.2612 -0.0091
18595TIP3    H277277   3.652   6.773   1.713  0.3590  0.2189  0.4574
18596TIP3   OH277278   2.714   4.326  12.856  0.3523  0.1774  0.0528
18596TIP3    H177279   2.685   4.378  12.930 -0.6679  0.9073 -0.8263
18596TIP3    H277280   2.733   4.390  12.787 -0.5376 -0.5699 -0.9160
18597TIP3   OH277281   6.535   6.123  11.536 -0.1706 -0.2157  0.3173
18597TIP3    H177282   6.491   6.076  11.606 -1.0443 -1.3574 -0.9438
18597TIP3    H277283   6.502   6.083  11.455  1.6019  0.3199 -0.7354
18598TIP3   OH277284   5.705   2.473   2.512  0.8649  0.2626 -0.5989
18598TIP3    H177285   5.635   2.498   2.572  2.1829  0.7706  0.8193
18598TIP3    H277286   5.680   2.387   2.480  0.2154 -0.1571  0.9139
18599TIP3   OH277287   2.717   2.788  14.584 -0.2683  0.4178 -0.1398
18599TIP3    H177288   2.680   2.728  14.648  0.4478 -2.2549 -2.0853
18599TIP3    H277289   2.643   2.843  14.558 -1.3714 -0.6956  0.5283
18600TIP3   OH277290   5.410   0.999  13.789  0.0951  0.1446  0.2938
18600TIP3    H177291   5.457   0.945  13.852  1.1029  0.3622 -0.2403
18600TIP3    H277292   5.437   0.966  13.703 -0.2054  0.7177 -0.0317
18601TIP3   OH277293   2.565   3.748   3.355 -0.2359  0.5530 -0.5376
18601TIP3    H177294   2.482   3.778   3.391  0.0130  3.2309 -1.9934
18601TIP3    H277295   2.548   3.737   3.262  0.8727  0.4955 -0.7424
18602TIP3   OH277296   2.437   1.423  10.951  0.1814 -0.2211 -0.5378
18602TIP3    H177297   2.374   1.368  10.998 -1.2681  2.0183  0.3483
18602TIP3    H277298   2.513   1.368  10.938 -0.1964 -1.6535  2.5640
18603TIP3   OH277299   5.285   0.876  13.191 -0.3468  0.4003 -0.1279
18603TIP3    H177300   5.225   0.891  13.117  0.1712 -1.7295 -1.0819
18603TIP3    H277301   5.372   0.884  13.152 -0.0682 -0.1252  0.3780
18604TIP3   OH277302   0.707   2.410   5.201  0.7278 -0.1474  0.0051
18604TIP3    H177303   0.774   2.428   5.135  1.0490  1.3340  0.6996
18604TIP3    H277304   0.757   2.377   5.276  0.8278  1.7679  0.8324
18605TIP3   OH277305   1.659   3.140   4.708  0.3129  0.2735 -0.7328
18605TIP3    H177306   1.728   3.191   4.666  0.5648  0.9552  0.4508
18605TIP3    H277307   1.577   3.181   4.680  0.0789 -2.3048 -4.5355
18606TIP3   OH277308   3.870   3.738  15.625 -0.4115  0.6460  0.1409
18606TIP3    H177309   3.808   3.665  15.617 -1.1822  1.4335 -1.8430
18606TIP3    H277310   3.816   3.816  15.610  0.7652  1.4769  0.1336
18607TIP3   OH277311   0.699   0.010  12.381  0.7958 -0.9042 -0.1094
18607TIP3    H177312   0.721   0.095  12.343 -0.6104 -1.1869 -1.6518
18607TIP3    H277313   0.781  -0.039  12.378  1.2919 -0.0696 -0.5303
18608TIP3   OH277314   0.043   2.254   2.576  0.5040 -0.1545  0.4825
18608TIP3    H177315   0.112   2.273   2.513 -0.1544  0.1554 -0.1570
18608TIP3    H277316   0.003   2.173   2.544  0.1339  0.0317  0.4714
18609TIP3   OH277317   5.019   2.171   5.922  0.5061  0.1834  0.4537
18609TIP3    H177318   5.051   2.199   6.008  0.5714  1.7867 -0.0537
18609TIP3    H277319   4.938   2.220   5.910 -0.0203 -0.7735  0.0001
18610TIP3   OH277320   2.472   4.799   4.724  0.8773 -0.0520  0.2141
18610TIP3    H177321   2.537   4.793   4.653  1.4390 -2.1834  0.8367
18610TIP3    H277322   2.521   4.777   4.803  0.2179  2.1156  1.2966
18611TIP3   OH277323   4.171   3.367  14.532  0.0787  0.0954 -0.0839
18611TIP3    H177324   4.166   3.459  14.506  2.9211  0.4516  0.3209
18611TIP3    H277325   4.116   3.361  14.611 -0.1148  1.4539 -0.0973
18612TIP3   OH277326   4.745   3.642  10.948  0.1030  0.0023  0.1705
18612TIP3    H177327   4.755   3.563  11.001  0.6736 -0.1141 -0.1097
18612TIP3    H277328   4.795   3.709  10.996  0.7151 -0.1302 -0.2701
18613TIP3   OH277329   2.556   2.545  15.741 -1.2708 -0.5843 -0.0065
18613TIP3    H177330   2.567   2.567  15.834  2.7528 -3.0852  0.3455
18613TIP3    H277331   2.488   2.478  15.740 -0.3363 -1.6292  1.4347
18614TIP3   OH277332   0.230   6.012   1.666  0.0518 -0.3414 -0.2214
18614TIP3    H177333   0.316   6.027   1.704  0.2376 -0.3697 -0.6303
18614TIP3    H277334   0.238   5.929   1.619  0.4091  0.6443 -1.9973
18615TIP3   OH277335   6.570   4.561   5.774  0.4457  0.0311  0.0051
18615TIP3    H177336   6.543   4.643   5.733 -0.5143 -0.1380  0.2644
18615TIP3    H277337   6.645   4.584   5.828  1.3190  0.3868 -1.3077
18616TIP3   OH277338   0.833   3.976  10.758  0.2840 -0.1216 -0.0127
18616TIP3    H177339   0.862   3.953  10.846  2.8169  0.9229 -0.4890
18616TIP3    H277340   0.895   4.043  10.729 -2.0377  1.4593 -1.6301
18617TIP3   OH277341   0.341   2.908   3.496 -0.7977 -0.0221 -0.7326
18617TIP3    H177342   0.382   2.940   3.577 -0.7862 -2.6151  0.3839
18617TIP3    H277343   0.249   2.935   3.504 -0.1747  2.6654 -1.5437
18618TIP3   OH277344   0.768   3.908   3.046 -0.5659 -0.4965  0.3756
18618TIP3    H177345   0.843   3.877   2.995 -1.2472  0.3771 -1.2030
18618TIP3    H277346   0.780   4.002   3.053 -0.9642 -0.4872  1.0617
18619TIP3   OH277347   5.426   2.564  12.170  0.1463  0.7312 -0.2403
18619TIP3    H177348   5.423   2.510  12.249 -1.1280  0.1335 -0.6555
18619TIP3    H277349   5.403   2.652  12.200 -1.1202  0.3568 -0.0263
18620TIP3   OH277350   6.142   2.002   0.719  1.0643 -0.0787  0.2875
18620TIP3    H177351   6.190   2.074   0.676 -0.2420  0.2584 -0.6838
18620TIP3    H277352   6.096   2.044   0.791 -1.0786  0.4801 -1.3028
18621TIP3   OH277353   3.211   6.460  14.357 -0.3952 -0.2556 -0.2424
18621TIP3    H177354   3.191   6.370  14.384 -1.5109 -0.9266 -2.9911
18621TIP3    H277355   3.250   6.500  14.435 -1.3879 -2.6032  1.5834
18622TIP3   OH277356   0.127   6.718  11.440  0.1718  0.0223  0.5568
18622TIP3    H177357   0.039   6.685  11.460  0.0935  0.1169  0.3651
18622TIP3    H277358   0.156   6.666  11.365  0.2514  0.0419  0.5738
18623TIP3   OH277359   2.909   2.194   0.195 -0.1643  0.2539  0.2997
18623TIP3    H177360   2.902   2.103   0.225 -1.0320  0.9799  2.4512
18623TIP3    H277361   2.972   2.234   0.254 -1.1007  1.4892  0.4872
18624TIP3   OH277362   1.250   1.120   1.766 -0.3365 -0.8709 -0.0301
18624TIP3    H177363   1.290   1.207   1.770 -0.8093 -0.6797  0.7570
18624TIP3    H277364   1.320   1.060   1.792 -0.2384 -0.6462  0.2311
18625TIP3   OH277365   0.691   5.900  10.991 -0.0710 -0.2702  0.0293
18625TIP3    H177366   0.710   5.821  11.042 -1.6051 -0.6695  0.0285
18625TIP3    H277367   0.615   5.939  11.035 -1.2748 -0.4844 -1.7804
18626TIP3   OH277368   2.200   0.889   4.322  0.0369 -0.2335  0.5275
18626TIP3    H177369   2.221   0.850   4.237 -0.6975  0.1578  0.1588
18626TIP3    H277370   2.261   0.963   4.329  0.8939 -0.9558  0.8772
18627TIP3   OH277371   5.827   5.233   4.267  0.6485 -0.2290 -0.1443
18627TIP3    H177372   5.799   5.174   4.197  0.9223 -0.2622 -0.2305
18627TIP3    H277373   5.809   5.186   4.348 -1.2674  0.5002 -0.1088
18628TIP3   OH277374   2.437   0.452  10.505 -0.6168  0.1852 -0.3485
18628TIP3    H177375   2.493   0.490  10.572 -1.1445  0.2690  0.0521
18628TIP3    H277376   2.498   0.418  10.439 -0.0162 -1.1483  0.8335
18629TIP3   OH277377   0.335   6.666   5.120  0.0349  0.2512 -0.1053
18629TIP3    H177378   0.342   6.622   5.205 -1.5099 -0.4941 -0.3332
18629TIP3    H277379   0.349   6.596   5.056  2.3177  1.0078 -0.5163
18630TIP3   OH277380   4.082   0.494   3.137 -0.8012 -0.0425  1.1174
18630TIP3    H177381   4.060   0.463   3.049  0.7370  0.5885  0.4900
18630TIP3    H277382   4.011   0.459   3.192 -1.5519 -0.8275 -0.2757
18631TIP3   OH277383   0.495   0.817   5.463 -0.2605 -0.0462  0.1323
18631TIP3    H177384   0.522   0.902   5.496  1.9808 -0.6355 -0.0018
18631TIP3    H277385   0.557   0.797   5.393 -2.6097 -0.4850 -1.9560
18632TIP3   OH277386   5.398   3.467  16.208 -1.2407  0.6232  0.0079
18632TIP3    H177387   5.356   3.383  16.187  0.1075 -0.0052 -0.3141
18632TIP3    H277388   5.490   3.454  16.185 -0.8217  1.8845  0.8500
18633TIP3   OH277389   0.285   4.869   4.296  0.4511  0.6743 -0.0962
18633TIP3    H177390   0.299   4.950   4.347 -0.1444  1.9894 -1.9255
18633TIP3    H277391   0.371   4.850   4.258  0.4080  0.9227 -0.3214
18634TIP3   OH277392   4.917   5.850   6.091  0.7342 -0.0621 -0.2501
18634TIP3    H177393   4.928   5.833   6.184 -1.3119  1.4504  0.3488
18634TIP3    H277394   4.944   5.769   6.048 -0.8177 -1.7914  1.8384
18635TIP3   OH277395   2.721   0.403  13.264  0.5206  0.2563  0.0506
18635TIP3    H177396   2.791   0.343  13.289  2.0478  1.6221 -0.8306
18635TIP3    H277397   2.715   0.394  13.169 -1.8638 -1.2380  0.2433
18636TIP3   OH277398   0.372   3.255  12.672 -0.1683  0.0264 -0.6789
18636TIP3    H177399   0.454   3.253  12.623 -0.1916  1.4742 -0.8233
18636TIP3    H277400   0.324   3.329  12.635 -1.3225 -0.4678 -0.2354
18637TIP3   OH277401   3.218   1.539   5.166 -0.1021 -0.2680 -0.1810
18637TIP3    H177402   3.240   1.475   5.233  0.4222 -0.2206 -0.2992
18637TIP3    H277403   3.261   1.619   5.195  1.5370 -0.6523 -1.3885
18638TIP3   OH277404   0.937   1.527  13.539  0.3406  0.1745  0.1364
18638TIP3    H177405   0.842   1.543  13.536  0.7613  3.1037 -0.0425
18638TIP3    H277406   0.960   1.506  13.449  0.1856  1.9898 -0.3639
18639TIP3   OH277407   2.910   4.078   2.103 -0.0010 -0.1616 -0.0724
18639TIP3    H177408   2.862   3.996   2.091 -0.3673 -0.2867  1.8579
18639TIP3    H277409   2.853   4.131   2.158  0.1182  1.5415 -1.5076
18640TIP3   OH277410   4.249   2.352   0.571 -0.1278 -0.6570 -0.1306
18640TIP3    H177411   4.268   2.413   0.500 -0.9505 -0.0057  0.1959
18640TIP3    H277412   4.208   2.277   0.528 -0.0601 -0.5290 -0.4179
18641TIP3   OH277413   2.086   2.189   4.197  0.0185  0.1935 -0.4208
18641TIP3    H177414   2.049   2.260   4.144  0.6944  0.8479 -0.0410
18641TIP3    H277415   2.148   2.233   4.255  0.5523 -0.7289 -0.2732
18642TIP3   OH277416   2.233   0.222   0.894 -0.0052  0.2331  0.1137
18642TIP3    H177417   2.279   0.306   0.890  4.6969 -2.0653 -0.6834
18642TIP3    H277418   2.211   0.202   0.803  1.2029 -0.4774 -0.0356
18643TIP3   OH277419   1.521   6.597   5.940  0.1714 -0.0578  0.0712
18643TIP3    H177420   1.533   6.649   6.020 -1.9103  0.9200 -0.2058
18643TIP3    H277421   1.458   6.530   5.965  0.8828 -0.8687 -0.2877
18644TIP3   OH277422   5.040   2.410   5.257  0.4194  0.0082 -0.0769
18644TIP3    H177423   5.057   2.495   5.298  0.6353 -0.4044  0.7120
18644TIP3    H277424   5.009   2.355   5.328  0.8394 -0.7421 -0.4622
18645TIP3   OH277425   1.680   5.845  12.224  0.2478 -0.2977  0.6936
18645TIP3    H177426   1.696   5.940  12.220  1.5494 -0.4656  1.2782
18645TIP3    H277427   1.743   5.808  12.162 -0.1392 -0.7934  0.5940
18646TIP3   OH277428   1.146   1.286   2.100 -0.5480  0.3167 -0.5092
18646TIP3    H177429   1.153   1.381   2.109  0.1980  0.2697 -0.5493
18646TIP3    H277430   1.169   1.270   2.008 -2.7395  0.2846 -1.0947
18647TIP3   OH277431   3.356   4.531   6.600  0.0532  0.2584  0.2740
18647TIP3    H177432   3.331   4.562   6.513  2.1657 -0.1575 -0.5272
18647TIP3    H277433   3.290   4.464   6.621 -1.9334  2.0403  0.1273
18648TIP3   OH277434   4.695   2.921  14.708  0.2541  0.8645 -0.0250
18648TIP3    H177435   4.705   2.867  14.786  1.1292  1.5783  0.3760
18648TIP3    H277436   4.736   2.871  14.638  0.7974  0.8644  0.2858
18649TIP3   OH277437   1.392   1.680   3.446 -0.4408  0.0104  0.1973
18649TIP3    H177438   1.365   1.605   3.392  0.9899  0.6002 -1.4357
18649TIP3    H277439   1.479   1.703   3.412 -0.4053  1.7547  1.3737
18650TIP3   OH277440   0.122   2.905  13.594 -0.3307  0.1716  0.0337
18650TIP3    H177441   0.080   2.936  13.514  0.1962  0.1808 -0.2495
18650TIP3    H277442   0.207   2.950  13.595  0.8017 -1.8205 -0.8045
18651TIP3   OH277443   2.795   1.148   1.732 -0.1257  0.6362  0.9639
18651TIP3    H177444   2.814   1.241   1.731  2.7768  0.1407  0.1839
18651TIP3    H277445   2.831   1.117   1.815  1.1368 -0.1286  0.1570
18652TIP3   OH277446   3.227   4.363  13.819 -0.2146  0.1850  0.0832
18652TIP3    H177447   3.251   4.300  13.751 -1.1839  0.4821 -0.5660
18652TIP3    H277448   3.154   4.321  13.865  1.5044 -0.7721  2.1047
18653TIP3   OH277449   4.333   6.546  16.906 -0.5398 -0.0387 -0.8088
18653TIP3    H177450   4.426   6.526  16.893 -0.1683 -0.3652  1.8634
18653TIP3    H277451   4.323   6.636  16.875  1.0340  0.5254  0.2285
18654TIP3   OH277452   4.694   2.763   3.153  0.2723  0.8188 -0.8367
18654TIP3    H177453   4.688   2.785   3.060  1.3596 -1.0623 -1.4045
18654TIP3    H277454   4.630   2.693   3.165 -0.2726  1.4352 -0.0143
18655TIP3   OH277455   5.641   5.355  15.701  0.2564  0.4389  0.0569
18655TIP3    H177456   5.647   5.270  15.744 -0.1278 -0.2034 -1.1141
18655TIP3    H277457   5.706   5.351  15.631  0.6796  1.3583  0.3777
18656TIP3   OH277458   5.542   3.981   4.844 -0.0694  0.0987  0.0673
18656TIP3    H177459   5.633   3.961   4.864 -0.0581  0.2535  0.1732
18656TIP3    H277460   5.494   3.954   4.922 -0.2276 -0.8150 -0.3327
18657TIP3   OH277461   5.065   0.393   4.567 -0.1542  0.0218  0.1210
18657TIP3    H177462   5.035   0.309   4.532  2.2009 -1.3054  1.0351
18657TIP3    H277463   5.102   0.439   4.492 -2.2261  0.7023 -0.5607
18658TIP3   OH277464   3.331   3.287   3.054 -0.1197 -0.0379 -0.5160
18658TIP3    H177465   3.335   3.284   2.959 -2.8945 -2.5851 -0.7145
18658TIP3    H277466   3.410   3.241   3.083  0.8728  0.9657 -1.5204
18659TIP3   OH277467   2.145   6.191  15.111 -0.2573 -0.1394  0.4493
18659TIP3    H177468   2.111   6.221  15.195 -0.2719 -0.1295  0.4399
18659TIP3    H277469   2.233   6.229  15.106  0.1631 -1.0352  0.9463
18660TIP3   OH277470   1.100   2.448  14.582 -0.0571 -0.4600  0.1986
18660TIP3    H177471   1.156   2.381  14.542  1.5799  1.8980 -1.6982
18660TIP3    H277472   1.031   2.463  14.517 -1.7575 -1.7846  1.5896
18661TIP3   OH277473   0.875   5.582   1.715 -0.4734  0.0432  0.4827
18661TIP3    H177474   0.910   5.525   1.646 -0.2783  1.5024 -0.6539
18661TIP3    H277475   0.790   5.544   1.736 -0.5370 -0.4289 -0.5636
18662TIP3   OH277476   3.871   5.478   4.667 -0.2497  0.4516  0.2770
18662TIP3    H177477   3.804   5.512   4.726 -0.9186 -0.1206 -0.1504
18662TIP3    H277478   3.918   5.556   4.637 -1.8875  1.0432 -0.8387
18663TIP3   OH277479   5.392   3.886  16.551 -1.1115  0.0861  0.3583
18663TIP3    H177480   5.401   3.817  16.485  0.1786  1.3419 -0.8278
18663TIP3    H277481   5.476   3.887  16.597  0.1177  2.7850 -1.6549
18664TIP3   OH277482   4.728   0.427   4.709  0.0147  0.1141  0.0195
18664TIP3    H177483   4.660   0.444   4.644 -0.5411 -1.9493 -0.0073
18664TIP3    H277484   4.797   0.383   4.660 -0.3581 -1.3473  0.7636
18665TIP3   OH277485   4.799   0.205  15.702 -0.1959 -0.0553  0.1010
18665TIP3    H177486   4.706   0.204  15.727  0.0133 -0.6188  0.8964
18665TIP3    H277487   4.805   0.275  15.636 -1.2756 -0.3537 -0.3385
18666TIP3   OH277488   5.383   6.346  11.768 -0.5108  0.3053  0.3508
18666TIP3    H177489   5.407   6.430  11.730 -1.0906  0.5378  0.4906
18666TIP3    H277490   5.466   6.310  11.801 -0.2663  0.8373  0.3255
18667TIP3   OH277491   6.812   0.406  16.073  0.3801 -0.5469  0.1210
18667TIP3    H177492   6.763   0.464  16.015  2.1461 -0.1444 -1.0757
18667TIP3    H277493   6.789   0.434  16.161 -2.6520 -1.4042 -0.3006
18668TIP3   OH277494   5.087   4.036  14.508 -0.2294 -0.3604 -0.0530
18668TIP3    H177495   5.067   3.947  14.480  1.8775 -0.2925 -2.0524
18668TIP3    H277496   5.077   4.089  14.428 -1.7141  1.2957  1.1400
18669TIP3   OH277497   2.808   1.416   1.762  0.2864 -0.2417 -0.4878
18669TIP3    H177498   2.851   1.500   1.749  1.8057 -0.8159  0.5993
18669TIP3    H277499   2.771   1.421   1.850 -1.4321  0.0220 -1.1862
18670TIP3   OH277500   0.034   4.123   4.995 -0.5198  0.0202  0.4730
18670TIP3    H177501  -0.049   4.078   4.979 -0.3303  0.1116 -0.8708
18670TIP3    H277502   0.012   4.216   4.992 -0.3295  0.0496 -0.1964
18671TIP3   OH277503   4.110   2.241   4.134 -0.3225  0.1718 -0.5692
18671TIP3    H177504   4.144   2.270   4.050  0.0286  0.7896 -0.2198
18671TIP3    H277505   4.096   2.147   4.123 -0.8543  0.3508 -1.5083
18672TIP3   OH277506   6.684   1.841   3.708  0.4408 -0.5351  0.3593
18672TIP3    H177507   6.627   1.908   3.669  0.7720 -0.0984  0.6170
18672TIP3    H277508   6.752   1.827   3.642  0.4466 -0.5169  0.3612
18673TIP3   OH277509   0.987   5.141  14.745  0.3818  0.7434 -1.1165
18673TIP3    H177510   0.919   5.077  14.724  0.1637  0.7904 -0.5654
18673TIP3    H277511   0.996   5.137  14.840 -0.3354  2.2145 -0.9493
18674TIP3   OH277512   3.386   5.490   0.852  0.4177  0.2302 -0.1702
18674TIP3    H177513   3.439   5.534   0.917 -1.4778  2.0972  0.2139
18674TIP3    H277514   3.296   5.510   0.876 -0.3972  0.0022 -2.6683
18675TIP3   OH277515   0.768   6.390   4.987  0.0718  0.0902  0.0521
18675TIP3    H177516   0.824   6.312   4.995 -0.4590 -0.2650  0.3582
18675TIP3    H277517   0.830   6.463   4.987  0.5252 -0.2749  0.7690
18676TIP3   OH277518   5.983   3.527   3.979  0.0431  0.0340  0.0504
18676TIP3    H177519   5.899   3.482   3.991 -0.6063  0.7291 -1.6078
18676TIP3    H277520   6.028   3.475   3.913  0.4335  0.3141  0.0938
18677TIP3   OH277521   4.651   2.917  16.102  0.5974 -0.6494  0.2017
18677TIP3    H177522   4.693   2.835  16.077 -1.0282 -2.3447  2.5688
18677TIP3    H277523   4.560   2.907  16.072 -0.5627 -1.4049  3.4708
18678TIP3   OH277524   1.993   6.442   4.495 -0.0314  0.1407 -0.3079
18678TIP3    H177525   1.994   6.349   4.472 -1.1200  0.0312  0.0005
18678TIP3    H277526   1.999   6.443   4.591 -0.1021  0.3819 -0.3060
18679TIP3   OH277527   2.287   1.266  13.702 -0.2854  0.0670  0.4554
18679TIP3    H177528   2.268   1.294  13.613  1.5535  0.6214  0.1911
18679TIP3    H277529   2.268   1.343  13.756  0.4829  0.3871  0.2816
18680TIP3   OH277530   6.079   3.745   3.449  0.0473 -0.3890 -0.1397
18680TIP3    H177531   6.142   3.814   3.429  0.1736 -0.3519  0.3898
18680TIP3    H277532   6.006   3.790   3.491 -0.3633 -0.4256 -0.7848
18681TIP3   OH277533   0.649   0.445  14.936 -0.1144  0.2087 -0.1075
18681TIP3    H177534   0.579   0.386  14.908 -0.1178  0.2748 -0.2398
18681TIP3    H277535   0.638   0.523  14.882 -0.1873  0.3817  0.1580
18682TIP3   OH277536   5.106   6.806  11.954  0.0527 -0.1588  0.4440
18682TIP3    H177537   5.113   6.732  12.015  3.3717  0.0351  0.4864
18682TIP3    H277538   5.166   6.872  11.990  0.2093  0.9477 -1.6970
18683TIP3   OH277539   5.609   1.523   0.325 -0.0940  0.1336 -0.2483
18683TIP3    H177540   5.592   1.616   0.310 -0.7501  0.1792  0.6897
18683TIP3    H277541   5.659   1.495   0.248  1.9991  1.7479  0.4445
18684TIP3   OH277542   1.586   3.417   4.218 -0.0715  0.2062  0.1250
18684TIP3    H177543   1.538   3.489   4.258 -1.4561 -0.7446  0.2099
18684TIP3    H277544   1.549   3.409   4.130 -0.9234 -1.2822  0.5840
18685TIP3   OH277545   4.748   2.903   4.781 -0.0242 -0.0189 -0.4305
18685TIP3    H177546   4.814   2.901   4.851  1.6962  0.7349 -1.9396
18685TIP3    H277547   4.788   2.956   4.712 -2.5253  1.0561 -1.1651
18686TIP3   OH277548   3.080   0.742  11.073  0.1105 -0.4038  1.0979
18686TIP3    H177549   3.058   0.707  10.986  0.7050  1.0551  0.3246
18686TIP3    H277550   3.057   0.672  11.133 -2.4573 -0.6608 -0.0161
18687TIP3   OH277551   1.240   5.654  11.050 -0.2261 -0.3998 -0.6768
18687TIP3    H177552   1.249   5.612  10.964  0.0697 -0.1036 -0.7922
18687TIP3    H277553   1.327   5.648  11.089 -0.6120 -1.5257  0.0680
18688TIP3   OH277554   0.384   5.063   0.473 -0.1468 -0.2750 -0.5231
18688TIP3    H177555   0.445   4.990   0.468  0.6218  0.2181  0.8651
18688TIP3    H277556   0.365   5.072   0.567 -0.8851  0.7611 -0.7452
18689TIP3   OH277557   5.139   4.204   3.170  0.0110  0.1548 -0.5686
18689TIP3    H177558   5.181   4.284   3.201  0.6530 -0.3981  0.0099
18689TIP3    H277559   5.094   4.169   3.248 -1.1635  0.5050 -1.0684
18690TIP3   OH277560   0.972   3.947  16.764  0.0548  0.1399  0.0132
18690TIP3    H177561   0.883   3.981  16.774 -0.6050 -0.5380 -2.5959
18690TIP3    H277562   1.001   3.928  16.853 -3.1534 -1.4777  0.8632
18691TIP3   OH277563   2.103   5.769  14.645 -0.1492  0.2856 -0.4530
18691TIP3    H177564   2.136   5.679  14.656  1.7460  1.1788  2.3546
18691TIP3    H277565   2.008   5.761  14.650 -0.1091 -1.6723 -1.7048
18692TIP3   OH277566   0.347   4.869   2.752  0.1068  0.3486  0.3186
18692TIP3    H177567   0.273   4.896   2.699  0.0385  2.0845  1.2297
18692TIP3    H277568   0.334   4.913   2.836  2.5831  1.4008  0.2425
18693TIP3   OH277569   4.504   3.293  11.497 -0.4645 -0.5244 -0.0763
18693TIP3    H177570   4.552   3.225  11.450  0.1616 -0.0790 -0.0931
18693TIP3    H277571   4.483   3.358  11.429  0.2262  0.0006  0.1954
18694TIP3   OH277572   3.511   2.789  12.349 -0.6536 -0.5167  0.4588
18694TIP3    H177573   3.428   2.769  12.306 -1.2872 -0.8561  1.8073
18694TIP3    H277574   3.533   2.710  12.398  0.1572 -0.2155  0.5882
18695TIP3   OH277575   4.791   1.545   0.164  0.1650  0.1648  0.0293
18695TIP3    H177576   4.774   1.625   0.214  0.2499 -0.1455  0.5636
18695TIP3    H277577   4.709   1.496   0.170 -0.2977  0.7272 -1.2936
18696TIP3   OH277578   3.880   0.515  17.040  0.3364 -0.0097  0.4705
18696TIP3    H177579   3.890   0.607  17.067 -0.1141 -0.4223  2.1241
18696TIP3    H277580   3.787   0.507  17.017  0.5499  0.1357 -0.4996
18697TIP3   OH277581   4.184   6.753  13.357 -0.1370  0.5252  0.1807
18697TIP3    H177582   4.135   6.702  13.422 -2.6190  0.4999 -1.5353
18697TIP3    H277583   4.168   6.844  13.382  2.3454  0.5704  1.8885
18698TIP3   OH277584   3.774   0.304  12.622  0.1165 -0.0536 -0.4345
18698TIP3    H177585   3.694   0.252  12.611  1.3456 -2.0377 -0.6212
18698TIP3    H277586   3.749   0.374  12.682 -1.9365 -0.1716 -1.0641
18699TIP3   OH277587   2.214   3.501   5.506 -0.0908  0.5983 -0.3736
18699TIP3    H177588   2.185   3.506   5.415  1.2431  0.4402 -0.8159
18699TIP3    H277589   2.283   3.435   5.506 -0.4508  0.1866  0.8677
18700TIP3   OH277590   0.455   3.092  16.709 -0.3191  0.0657 -0.3926
18700TIP3    H177591   0.529   3.112  16.766 -0.4725  0.0298 -0.1783
18700TIP3    H277592   0.484   3.017  16.657 -0.5790 -0.6414  0.4388
18701TIP3   OH277593   5.430   6.482  15.426  0.6295 -0.4843 -0.2021
18701TIP3    H177594   5.474   6.400  15.449 -1.0634 -1.6066 -0.7839
18701TIP3    H277595   5.442   6.538  15.502  0.8950 -1.6673  0.6450
18702TIP3   OH277596   4.446   4.962  12.494 -0.0819 -0.2622 -0.0035
18702TIP3    H177597   4.491   5.046  12.508 -1.4141  0.1008  2.8787
18702TIP3    H277598   4.504   4.897  12.533  0.1986 -0.4646 -0.7557
18703TIP3   OH277599   1.877   2.765  15.361  0.4655 -0.1349 -0.0040
18703TIP3    H177600   1.788   2.783  15.329  1.1939  1.9387 -1.0453
18703TIP3    H277601   1.885   2.819  15.440  0.7531 -0.4441  0.1776
18704TIP3   OH277602   6.197   5.962   4.984  0.3819 -0.3302  0.4292
18704TIP3    H177603   6.277   5.979   4.933  0.3079  1.3848  0.8069
18704TIP3    H277604   6.128   6.007   4.935  0.3894  1.8063  2.2025
18705TIP3   OH277605   2.946   3.024  12.673  0.3801  0.1063 -0.6760
18705TIP3    H177606   3.010   3.095  12.661  0.3237  0.2089 -0.3805
18705TIP3    H277607   2.931   2.990  12.585 -0.8339  1.5437 -1.0537
18706TIP3   OH277608   2.394   1.234  17.066  0.2554  0.4753 -0.2042
18706TIP3    H177609   2.347   1.179  17.003  0.3882 -0.3634  0.4223
18706TIP3    H277610   2.438   1.172  17.125 -0.5985  1.2411  1.2783
18707TIP3   OH277611   3.396   0.667  10.576  0.2685  0.4038 -0.2246
18707TIP3    H177612   3.456   0.611  10.528  1.6356  1.9114 -0.3684
18707TIP3    H277613   3.374   0.737  10.514 -1.2723  0.1381 -0.0053
18708TIP3   OH277614   0.168   1.785  15.011  0.2464  0.5408  0.2271
18708TIP3    H177615   0.208   1.792  14.924  0.3665 -0.4961  0.1883
18708TIP3    H277616   0.207   1.857  15.061  2.4263 -0.5972  0.2716
18709TIP3   OH277617   3.645   6.684  15.225 -0.0428  0.2376 -0.5988
18709TIP3    H177618   3.625   6.754  15.163  0.9336  0.2489 -0.9092
18709TIP3    H277619   3.680   6.613  15.172 -0.3739 -0.2332 -0.2024
18710TIP3   OH277620   4.201   5.629  15.765  0.5792 -0.5321 -0.0289
18710TIP3    H177621   4.185   5.537  15.746 -1.2287 -0.0502 -1.0431
18710TIP3    H277622   4.134   5.677  15.715  0.8649  1.2816  1.2112
18711TIP3   OH277623   5.399   3.510  15.640 -0.5827 -0.3399 -0.3101
18711TIP3    H177624   5.484   3.467  15.631  0.9300  2.3431  0.1375
18711TIP3    H277625   5.390   3.526  15.734 -1.7751 -0.8560 -0.3125
18712TIP3   OH277626   0.016   2.741  11.821 -0.0831 -0.2547 -0.0535
18712TIP3    H177627   0.074   2.803  11.776  0.5906 -0.1154  0.9595
18712TIP3    H277628   0.004   2.669  11.759  2.2973 -0.9472  0.1749
18713TIP3   OH277629   4.155   3.321   3.672  0.2828 -0.3291 -0.0231
18713TIP3    H177630   4.223   3.261   3.642 -1.8816 -1.7954 -2.3433
18713TIP3    H277631   4.191   3.408   3.655  1.3485 -1.0630 -1.7563
18714TIP3   OH277632   6.127   4.920  15.276  0.3816 -0.2880  0.6882
18714TIP3    H177633   6.110   5.013  15.260 -0.4619 -0.4955  0.3635
18714TIP3    H277634   6.128   4.913  15.372 -2.0459 -0.3657  0.7603
18715TIP3   OH277635   1.631   1.781  12.220  0.4369 -0.0039 -0.1121
18715TIP3    H177636   1.554   1.834  12.243 -0.5901 -0.5085 -2.1057
18715TIP3    H277637   1.598   1.691  12.218  0.5598 -0.0647 -2.6943
18716TIP3   OH277638   1.147   2.270  11.069 -0.1032 -0.1643  0.1610
18716TIP3    H177639   1.076   2.261  11.006  1.6723  1.5516 -2.3007
18716TIP3    H277640   1.144   2.362  11.095  1.7468  0.2093 -0.7873
18717TIP3   OH277641   6.495   5.653  15.745 -0.1453  0.0135 -0.4486
18717TIP3    H177642   6.446   5.730  15.776 -0.7427 -0.8621  0.8701
18717TIP3    H277643   6.434   5.580  15.757  1.2621 -1.0199  0.6402
18718TIP3   OH277644   5.630   4.668   5.032  0.5025 -0.4122 -0.1452
18718TIP3    H177645   5.649   4.576   5.014  1.7998 -0.0783 -0.6545
18718TIP3    H277646   5.582   4.667   5.115  0.2420 -1.5598 -0.2922
18719TIP3   OH277647   2.404   0.530   2.790 -0.0034  0.2503  0.1163
18719TIP3    H177648   2.470   0.507   2.725  0.2083  2.2883 -0.4585
18719TIP3    H277649   2.448   0.591   2.848 -0.2050 -1.5147  2.2328
18720TIP3   OH277650   5.044   2.119   2.665  0.1258  0.0404 -0.2876
18720TIP3    H177651   5.085   2.035   2.646 -2.7638 -1.4357 -0.5019
18720TIP3    H277652   5.013   2.111   2.755 -0.3905  0.7772 -0.3902
18721TIP3   OH277653   6.171   4.958  15.577  0.3286 -0.0357  0.2253
18721TIP3    H177654   6.193   5.045  15.610 -0.5382  0.5489 -0.6968
18721TIP3    H277655   6.238   4.900  15.615 -0.5315  0.5864  2.9147
18722TIP3   OH277656   2.459   3.305   4.169  0.4927 -0.0143  0.1864
18722TIP3    H177657   2.423   3.264   4.090 -1.2511  0.9169  0.4495
18722TIP3    H277658   2.383   3.346   4.211  1.6643  0.8627  1.5215
18723TIP3   OH277659   2.005   2.895  15.552 -0.1129 -0.3987 -0.5611
18723TIP3    H177660   2.040   2.806  15.544  0.2435 -0.3353  0.2027
18723TIP3    H277661   1.964   2.897  15.638 -0.6098  0.0142 -0.8032
18724TIP3   OH277662   0.636   5.287   0.824 -0.4287  0.2729  0.1016
18724TIP3    H177663   0.609   5.307   0.735 -1.6158  1.5730  0.7123
18724TIP3    H277664   0.726   5.319   0.829 -0.3560  0.1988 -0.6266
18725TIP3   OH277665   5.203   6.178   0.931 -0.1913 -0.0184 -0.3594
18725TIP3    H177666   5.255   6.109   0.973 -1.6803 -0.3173  1.1239
18725TIP3    H277667   5.208   6.158   0.837  0.0935 -1.6750 -0.0292
18726TIP3   OH277668   6.453   0.347  13.058  0.2803 -0.4355  0.0398
18726TIP3    H177669   6.536   0.365  13.013  0.3311  1.1153  0.6759
18726TIP3    H277670   6.477   0.293  13.133  0.6652 -0.2974  0.0162
18727TIP3   OH277671   3.492   4.200  14.764 -0.5187  0.1215 -0.4941
18727TIP3    H177672   3.552   4.127  14.780 -1.6538 -0.6991  0.2148
18727TIP3    H277673   3.533   4.250  14.693  0.3743 -1.1065 -0.8844
18728TIP3   OH277674   0.911   0.660   1.337  0.1551  0.4070 -0.0035
18728TIP3    H177675   0.851   0.711   1.283  0.2668  0.5049 -0.0343
18728TIP3    H277676   0.983   0.719   1.356 -0.9797  1.1912  2.2538
18729TIP3   OH277677   5.237   1.805  12.338 -0.0994 -0.3430  0.3169
18729TIP3    H177678   5.195   1.868  12.280 -0.6368 -0.2850  0.7547
18729TIP3    H277679   5.327   1.836  12.348 -0.2692  0.1710  0.2647
18730TIP3   OH277680   2.603   1.644   1.925  0.0680  0.0585 -0.3207
18730TIP3    H177681   2.651   1.684   1.853 -0.8170  0.0613 -0.9334
18730TIP3    H277682   2.667   1.588   1.969  0.8436  0.7333 -0.5673
18731TIP3   OH277683   3.148   0.903  17.183 -1.0592  0.2408  0.0361
18731TIP3    H177684   3.092   0.884  17.259  0.1281  1.7372  1.3514
18731TIP3    H277685   3.150   0.998  17.179 -1.3223  0.1855 -2.0978
18732TIP3   OH277686   2.393   0.358   1.300  0.0015 -0.0564 -0.2663
18732TIP3    H177687   2.459   0.293   1.323  0.8745  1.2104  0.9921
18732TIP3    H277688   2.309   0.312   1.308  0.5087 -0.6984  1.9893
18733TIP3   OH277689   3.778   0.983  14.486 -0.6214 -0.3327 -0.3674
18733TIP3    H177690   3.735   1.056  14.440 -0.5999 -0.3805 -0.4636
18733TIP3    H277691   3.711   0.915  14.490 -1.2124  0.2826  1.1988
18734TIP3   OH277692   4.013   2.942   3.045  0.2399  0.5518 -0.6016
18734TIP3    H177693   3.987   2.850   3.045  4.5459 -0.9087  0.5623
18734TIP3    H277694   3.991   2.973   3.133 -0.9859  0.6560 -0.9152
18735TIP3   OH277695   6.771   3.526  12.515 -0.6519  0.4553  0.2437
18735TIP3    H177696   6.714   3.474  12.458 -0.8597  0.3832  0.5145
18735TIP3    H277697   6.715   3.594  12.550 -0.9889 -0.5525  1.7549
18736TIP3   OH277698   2.374   5.268  14.199  0.5149  0.0816 -0.5469
18736TIP3    H177699   2.380   5.279  14.293 -1.3368 -0.6381 -0.2985
18736TIP3    H277700   2.391   5.355  14.163  0.1994  0.5881  0.5037
18737TIP3   OH277701   2.191   6.730  12.266 -0.0521  0.1989  0.1807
18737TIP3    H177702   2.283   6.757  12.260 -0.0023  0.6493  2.2009
18737TIP3    H277703   2.143   6.812  12.273 -0.2413 -0.0404  2.5852
18738TIP3   OH277704   5.966   1.229   3.757 -0.3240  0.3083 -0.2300
18738TIP3    H177705   5.937   1.313   3.720  0.9198  0.5424 -0.6972
18738TIP3    H277706   5.902   1.166   3.725 -0.9762  0.9897 -0.3000
18739TIP3   OH277707   1.508   1.785  11.840  0.3463 -0.4498  0.2282
18739TIP3    H177708   1.567   1.711  11.858  3.2475  1.5845 -0.0932
18739TIP3    H277709   1.549   1.859  11.885 -0.9773  1.4804 -1.5584
18740TIP3   OH277710   0.103   0.348  14.213 -0.2931 -0.6148  0.5181
18740TIP3    H177711   0.038   0.280  14.231  0.5074 -1.2685  1.0436
18740TIP3    H277712   0.098   0.406  14.289  0.2441 -1.0901  0.9308
18741TIP3   OH277713   3.200   6.655   5.861 -0.0428  0.6611 -0.2204
18741TIP3    H177714   3.173   6.600   5.787  0.0869  1.6067 -0.9920
18741TIP3    H277715   3.286   6.622   5.885 -0.0604  0.3847 -0.5232
18742TIP3   OH277716   0.789   3.672  10.626  0.1608 -0.6187  0.6492
18742TIP3    H177717   0.846   3.635  10.695  1.6907  0.1762 -0.1272
18742TIP3    H277718   0.778   3.763  10.652 -0.5319 -0.6911  0.6223
18743TIP3   OH277719   3.372   3.909   2.688 -0.1216 -0.7094  0.0343
18743TIP3    H177720   3.307   3.945   2.628  0.6043  0.2188 -0.2186
18743TIP3    H277721   3.445   3.882   2.632  0.9062  0.9089  0.5059
18744TIP3   OH277722   4.442   5.968  16.055  0.0767 -0.0691  0.5841
18744TIP3    H177723   4.473   5.995  15.969 -0.3401  0.0455  0.4633
18744TIP3    H277724   4.511   5.912  16.090  1.0522  1.3120  0.9238
18745TIP3   OH277725   2.178   6.662  12.555 -0.3265  0.3374 -0.3187
18745TIP3    H177726   2.184   6.694  12.465 -0.9728 -1.2841 -0.9760
18745TIP3    H277727   2.090   6.685  12.583 -0.3822  0.1775 -0.3637
18746TIP3   OH277728   3.183   5.335  14.164  0.3638 -0.0501  0.5403
18746TIP3    H177729   3.253   5.366  14.223 -0.6809  2.1159  0.7576
18746TIP3    H277730   3.199   5.382  14.083 -0.4235 -0.0746  0.3641
18747TIP3   OH277731   5.418   3.631  15.904 -0.0482  0.0038 -0.6226
18747TIP3    H177732   5.381   3.682  15.832 -0.4392 -1.6589 -1.6534
18747TIP3    H277733   5.513   3.642  15.895  0.0293 -1.5568 -2.5434
18748TIP3   OH277734   5.749   2.593   3.256  0.3771  0.1341 -0.0876
18748TIP3    H177735   5.787   2.507   3.238  0.6815  0.2049  0.2188
18748TIP3    H277736   5.820   2.643   3.295  0.5500  0.9007 -1.3275
18749TIP3   OH277737   1.679   4.031   3.479 -0.0352  0.6607 -0.0085
18749TIP3    H177738   1.672   3.949   3.529  1.2566 -0.0625 -0.9718
18749TIP3    H277739   1.751   4.078   3.520 -1.5434  1.9446  1.3328
18750TIP3   OH277740   3.104   3.574  11.626  0.4863  0.0943  0.1572
18750TIP3    H177741   3.177   3.539  11.575  0.5265  0.5870 -0.1285
18750TIP3    H277742   3.099   3.517  11.702  1.1925  0.0748  0.1977
18751TIP3   OH277743   5.553   0.024   0.240  0.2253  0.1021 -0.2189
18751TIP3    H177744   5.607   0.068   0.305 -0.1170  1.1097 -0.5911
18751TIP3    H277745   5.606  -0.048   0.208 -0.0843 -1.2270  2.0991
18752TIP3   OH277746   4.050   2.115   5.256 -0.0311 -0.0986 -0.0395
18752TIP3    H177747   4.102   2.133   5.334  0.9182  0.2223 -0.7208
18752TIP3    H277748   3.992   2.191   5.247 -0.5175 -0.3786  0.6261
18753TIP3   OH277749   6.337   4.478   0.424  0.1343  0.7725  0.6010
18753TIP3    H177750   6.364   4.434   0.504 -0.6359 -0.0503  0.4189
18753TIP3    H277751   6.418   4.514   0.388  1.0013 -1.4045  0.2042
18754TIP3   OH277752   5.808   1.650   4.988  0.3494  0.2099 -0.3417
18754TIP3    H177753   5.847   1.737   4.995  2.4801 -0.7107  0.3067
18754TIP3    H277754   5.883   1.590   4.990 -1.1191 -1.7446  1.4175
18755TIP3   OH277755   6.449   3.108   5.426  0.4004 -0.1004  0.4889
18755TIP3    H177756   6.426   3.158   5.348  2.0007 -0.2738 -0.1184
18755TIP3    H277757   6.370   3.112   5.481 -1.4614 -1.5474 -1.8910
18756TIP3   OH277758   6.263   1.876  16.085  0.7819  0.3307  0.1356
18756TIP3    H177759   6.275   1.885  15.991 -0.6449 -2.3800 -0.4198
18756TIP3    H277760   6.290   1.786  16.105 -1.6719 -0.1502  1.7524
18757TIP3   OH277761   3.990   2.267  14.476  0.4408 -0.0451 -0.3625
18757TIP3    H177762   3.983   2.259  14.571 -0.4343  2.3678 -0.1694
18757TIP3    H277763   3.948   2.350  14.455  0.1050 -0.7780 -2.9481
18758TIP3   OH277764   0.620   3.667   6.585 -0.3454  0.1342  0.2296
18758TIP3    H177765   0.555   3.623   6.639  0.2039  0.1763  0.9303
18758TIP3    H277766   0.686   3.601   6.567  0.8486  0.7930  1.8742
18759TIP3   OH277767   3.274   0.592  15.503  0.6338  0.0484  0.1080
18759TIP3    H177768   3.225   0.532  15.448  2.0311 -0.5853 -0.5097
18759TIP3    H277769   3.365   0.564  15.494  1.0244  0.5243  1.9964
18760TIP3   OH277770   4.699   0.339   4.116 -0.0971  0.3592 -0.1262
18760TIP3    H177771   4.706   0.331   4.211 -0.4370  0.0417 -0.1267
18760TIP3    H277772   4.776   0.391   4.091 -0.5459  1.3281  0.4301
18761TIP3   OH277773   0.788   4.373  14.239  0.1778  0.5582 -0.3085
18761TIP3    H177774   0.861   4.430  14.213  0.7316 -0.4533 -1.0530
18761TIP3    H277775   0.775   4.315  14.163 -0.8215  0.1425  0.1633
18762TIP3   OH277776   1.520   2.538   2.951  0.2363 -0.2976 -0.0573
18762TIP3    H177777   1.463   2.471   2.988 -2.8190  1.0341 -1.9689
18762TIP3    H277778   1.603   2.527   2.997 -1.4391 -2.5406  2.7478
18763TIP3   OH277779   3.160   2.013  15.879  0.0579 -0.1492 -0.1386
18763TIP3    H177780   3.174   1.922  15.855 -1.4047 -0.0380 -1.5743
18763TIP3    H277781   3.229   2.061  15.833  1.5622 -0.5753  1.5397
18764TIP3   OH277782   6.414   3.180  13.307  0.0736 -0.1404  0.2490
18764TIP3    H177783   6.448   3.243  13.371  2.1602 -1.6679  0.7666
18764TIP3    H277784   6.492   3.149  13.262 -1.0823 -1.1690 -1.1123
18765TIP3   OH277785   4.883   3.036  15.959  0.5127  0.2344  0.2561
18765TIP3    H177786   4.888   3.131  15.969  1.1752  0.0607  1.9717
18765TIP3    H277787   4.821   3.009  16.027  0.8944 -0.6207  0.2656
18766TIP3   OH277788   0.104   0.576   3.050 -0.2311 -0.0218 -0.4448
18766TIP3    H177789   0.177   0.584   2.988 -0.3082  0.7063 -0.4495
18766TIP3    H277790   0.079   0.666   3.069 -1.2074 -0.2650 -0.5218
18767TIP3   OH277791   2.447   3.197   3.898 -0.6685 -0.1320 -0.2938
18767TIP3    H177792   2.432   3.182   3.805 -0.6584 -0.4113 -0.2511
18767TIP3    H277793   2.538   3.171   3.913 -0.8514 -0.6779 -0.0869
18768TIP3   OH277794   0.915   3.736   4.309 -0.0099  0.1944 -0.3379
18768TIP3    H177795   0.954   3.795   4.243  0.4594  3.1775  2.3574
18768TIP3    H277796   0.832   3.777   4.331 -0.2834 -0.8836  0.7292
18769TIP3   OH277797   3.718   6.392  12.054  0.1323  0.2337 -0.2662
18769TIP3    H177798   3.640   6.434  12.019 -0.6933 -0.9452  0.0968
18769TIP3    H277799   3.703   6.389  12.149  0.1032 -0.9469 -0.2886
18770TIP3   OH277800   3.745   1.321   3.278 -0.0674  0.7056 -0.3891
18770TIP3    H177801   3.685   1.325   3.353  0.9995 -3.0481  0.8824
18770TIP3    H277802   3.714   1.247   3.226  1.6960  0.5876 -1.3443
18771TIP3   OH277803   3.569   3.638   5.603 -0.0328 -0.3426 -0.2156
18771TIP3    H177804   3.617   3.563   5.639  0.5052 -1.4912 -3.0693
18771TIP3    H277805   3.633   3.684   5.549 -0.0555  2.9338  2.2740
18772TIP3   OH277806   4.136   1.649   1.217  0.6202 -0.6297 -0.0025
18772TIP3    H177807   4.085   1.639   1.298 -0.6362 -2.3722 -0.9521
18772TIP3    H277808   4.143   1.744   1.205  0.4415 -0.3402  1.8920
18773TIP3   OH277809   2.365   3.947  16.367  0.4180 -0.3887 -0.5810
18773TIP3    H177810   2.332   3.937  16.457 -0.3823 -0.9042 -0.9291
18773TIP3    H277811   2.354   3.861  16.327  1.9258 -0.4969 -0.8064
18774TIP3   OH277812   6.351   5.854   6.428 -0.5679 -0.1490 -0.0352
18774TIP3    H177813   6.289   5.913   6.385  1.0071  0.7260 -1.2075
18774TIP3    H277814   6.301   5.816   6.501 -1.5336  3.0145  1.1270
18775TIP3   OH277815   5.546   4.069  15.679  0.0455 -0.5602  0.5349
18775TIP3    H177816   5.640   4.086  15.673 -0.1237  0.3329  0.1712
18775TIP3    H277817   5.509   4.151  15.712 -0.9063  0.1668 -2.0597
18776TIP3   OH277818   2.146   0.451  12.625  0.5195  0.1225 -0.0963
18776TIP3    H177819   2.224   0.487  12.668 -0.1851  0.5885  0.8122
18776TIP3    H277820   2.128   0.370  12.673  1.2876 -0.7723 -1.2518
18777TIP3   OH277821   3.830   5.083  12.780  0.0277  0.5090  0.3959
18777TIP3    H177822   3.869   5.001  12.812  0.0544 -0.0862 -1.0785
18777TIP3    H277823   3.788   5.121  12.858 -0.5704 -1.2516  0.9991
18778TIP3   OH277824   1.902   1.984  10.874 -0.5080 -0.6776 -0.0096
18778TIP3    H177825   1.995   1.999  10.894 -0.2172 -0.2439 -1.5309
18778TIP3    H277826   1.901   1.902  10.826 -1.0110 -1.0086  0.5514
18779TIP3   OH277827   6.498   3.733  14.021 -0.2493  0.3549 -0.6136
18779TIP3    H177828   6.511   3.810  13.965 -0.4151  2.0471  1.5405
18779TIP3    H277829   6.422   3.756  14.075 -0.8033 -1.6931 -0.4375
18780TIP3   OH277830   2.137   5.895   1.019 -0.3166  0.1570  0.0257
18780TIP3    H177831   2.127   5.804   1.047 -0.8651  0.2325  0.0793
18780TIP3    H277832   2.209   5.892   0.955 -1.0547 -0.4925 -0.8008
18781TIP3   OH277833   6.447   6.013   4.849  0.5316 -0.2143  0.3865
18781TIP3    H177834   6.539   5.988   4.853 -0.0431 -2.6832 -0.1092
18781TIP3    H277835   6.449   6.108   4.837  3.0190 -0.2987 -0.5751
18782TIP3   OH277836   3.449   1.927   6.355  0.0553 -0.2850  0.0842
18782TIP3    H177837   3.480   1.964   6.437 -1.8799  0.6887  0.4467
18782TIP3    H277838   3.410   1.843   6.380 -0.6178  0.0538  0.2051
18783TIP3   OH277839   5.780   6.787  10.319  0.3833  0.1273  0.0698
18783TIP3    H177840   5.818   6.703  10.291  1.6075  1.3790 -2.2946
18783TIP3    H277841   5.686   6.772  10.316  0.5335 -0.8096 -1.7070
18784TIP3   OH277842   1.527   2.066  14.874  0.1299  0.2581 -0.2061
18784TIP3    H177843   1.458   2.001  14.865  0.0746  0.3419 -0.3849
18784TIP3    H277844   1.592   2.024  14.931  0.8522 -0.5839 -1.5765
18785TIP3   OH277845   2.666   4.681  16.886  0.0281 -0.2310  0.4180
18785TIP3    H177846   2.708   4.612  16.834 -0.1374  1.1821 -1.7467
18785TIP3    H277847   2.717   4.760  16.866 -1.3521  0.7768  0.7175
18786TIP3   OH277848   6.401   0.043  15.140 -0.1696  0.4601  0.2258
18786TIP3    H177849   6.339  -0.030  15.146 -1.9657  1.9059  0.4413
18786TIP3    H277850   6.472   0.010  15.085 -0.4797 -1.7050  1.0227
18787TIP3   OH277851   0.360   5.119   5.276  0.1446 -0.0165  0.7222
18787TIP3    H177852   0.349   5.206   5.314  1.0724  1.1832 -1.6049
18787TIP3    H277853   0.334   5.059   5.346 -1.7780  2.1336  1.9734
18788TIP3   OH277854   0.426   6.718  14.377 -0.2714  0.0484  0.2520
18788TIP3    H177855   0.373   6.756  14.308 -1.5890 -1.3744  0.4361
18788TIP3    H277856   0.516   6.743  14.355 -0.6276 -0.5044 -2.0699
18789TIP3   OH277857   3.186   3.016  15.376 -0.0487  0.3386  0.0696
18789TIP3    H177858   3.190   3.063  15.293  0.3951 -1.5281 -1.0220
18789TIP3    H277859   3.275   2.984  15.391 -0.8416 -2.4950 -0.7048
18790TIP3   OH277860   2.445   1.745   5.021 -0.1215 -0.1163  0.0411
18790TIP3    H177861   2.420   1.668   5.072  0.7918 -0.4372  0.0266
18790TIP3    H277862   2.481   1.710   4.940  2.2368  0.1838  0.8643
18791TIP3   OH277863   6.615   6.625   3.996  0.2717 -0.7081  0.1840
18791TIP3    H177864   6.555   6.639   4.069  0.5258  1.2297  0.0883
18791TIP3    H277865   6.564   6.576   3.931 -0.7630 -0.2777  0.6548
18792TIP3   OH277866   5.315   1.235  15.267 -0.1972  0.1532  0.5806
18792TIP3    H177867   5.337   1.318  15.225 -2.0860 -0.5469 -1.9746
18792TIP3    H277868   5.400   1.194  15.283  0.6745  1.2705 -0.8684
18793TIP3   OH277869   3.641   0.179  13.213 -0.4445 -0.4789  0.3765
18793TIP3    H177870   3.555   0.216  13.233 -0.6209 -0.9078  0.4431
18793TIP3    H277871   3.630   0.085  13.228  0.0397 -0.5366  0.3897
18794TIP3   OH277872   6.425   4.626  14.070  0.5183 -0.3495 -0.2259
18794TIP3    H177873   6.472   4.698  14.029  0.3738  1.0846  1.9237
18794TIP3    H277874   6.413   4.561  14.001  3.3489  0.3389 -1.4780
18795TIP3   OH277875   1.848   1.236   1.156  0.0133 -0.0277 -0.0461
18795TIP3    H177876   1.906   1.160   1.154  0.2955  0.1758  0.2528
18795TIP3    H277877   1.831   1.252   1.249  1.3706  1.3155  0.0189
18796TIP3   OH277878   5.529   4.601  12.691 -0.1566  0.5955 -0.4553
18796TIP3    H177879   5.600   4.624  12.751 -0.9344  0.2444  0.6350
18796TIP3    H277880   5.572   4.552  12.621  0.4352 -1.8911  1.4528
18797TIP3   OH277881   1.905   6.342   1.213 -0.1383  0.5789  0.4479
18797TIP3    H177882   1.831   6.391   1.176 -0.2606  0.9550  1.1718
18797TIP3    H277883   1.903   6.258   1.167 -1.6043  0.2115  1.1076
18798TIP3   OH277884   3.311   3.463  10.628 -0.3854 -0.5506 -0.2355
18798TIP3    H177885   3.238   3.401  10.631 -1.1450  0.3423  0.1261
18798TIP3    H277886   3.270   3.549  10.630  0.5654  0.0162 -2.2690
18799TIP3   OH277887   4.037   0.139  12.043 -0.4127  0.6460  0.2548
18799TIP3    H177888   3.996   0.213  11.998  1.9186  2.0756  0.3334
18799TIP3    H277889   4.065   0.174  12.127  1.6630  0.0017 -0.1119
18800TIP3   OH277890   5.399   3.228  12.169 -0.6102  0.3456  0.1025
18800TIP3    H177891   5.413   3.214  12.076  1.0241  2.6052 -0.0580
18800TIP3    H277892   5.453   3.161  12.212  0.4528  0.7515 -0.5766
18801TIP3   OH277893   5.284   2.077  12.190 -0.2590  0.5348 -0.1074
18801TIP3    H177894   5.330   2.064  12.108 -0.1039  0.5605 -0.0247
18801TIP3    H277895   5.191   2.073  12.167 -0.2346 -1.2377 -0.0138
18802TIP3   OH277896   3.156   1.100  16.041 -0.1256  0.0862  0.5334
18802TIP3    H177897   3.233   1.054  16.074  1.2574  1.3593 -0.7720
18802TIP3    H277898   3.157   1.083  15.947  0.5090  2.7893 -0.0282
18803TIP3   OH277899   5.420   4.176   5.567 -0.0989  0.0933 -0.2134
18803TIP3    H177900   5.386   4.147   5.483 -1.8510  0.3218  0.3682
18803TIP3    H277901   5.364   4.133   5.632  2.0974 -1.2337  0.9388
18804TIP3   OH277902   4.420   3.627  13.975  0.6521 -0.4466 -0.7884
18804TIP3    H177903   4.388   3.599  13.889  2.7274  1.9399 -2.4669
18804TIP3    H277904   4.514   3.610  13.972  0.7138 -0.7023  1.2441
18805TIP3   OH277905   2.164   1.845  11.875  0.0041  0.0156  0.1196
18805TIP3    H177906   2.156   1.753  11.900  2.5569 -0.0488  1.0370
18805TIP3    H277907   2.235   1.846  11.812 -1.5255  1.1334 -1.6827
18806TIP3   OH277908   1.834   0.775  12.190 -0.1589 -0.0711 -0.7359
18806TIP3    H177909   1.829   0.679  12.191 -1.5879 -0.0139  0.2483
18806TIP3    H277910   1.888   0.797  12.265 -0.2957 -0.0934 -0.6302
18807TIP3   OH277911   5.973   2.090   2.658 -0.3744  0.5194 -0.2878
18807TIP3    H177912   5.921   2.144   2.717  1.4136  1.3702  0.5811
18807TIP3    H277913   5.914   2.069   2.586 -2.4697 -0.1438  1.5396
18808TIP3   OH277914   1.025   6.413   0.608 -0.4562 -0.2969 -0.0216
18808TIP3    H177915   0.961   6.477   0.576 -0.0174 -0.1532 -0.6395
18808TIP3    H277916   1.058   6.450   0.689  0.8429  1.0001 -1.0816
18809TIP3   OH277917   3.846   5.285  10.951  0.3606 -0.2429 -0.1644
18809TIP3    H177918   3.839   5.320  10.862 -1.3977  1.0326  0.4250
18809TIP3    H277919   3.764   5.239  10.966 -0.2195  1.1799  1.4097
18810TIP3   OH277920   4.819   2.264   0.376 -0.8431  0.0071 -0.0433
18810TIP3    H177921   4.743   2.242   0.322 -0.1775  0.0136 -0.9983
18810TIP3    H277922   4.884   2.298   0.315 -0.1520  0.2459  0.7933
18811TIP3   OH277923   5.900   0.155  12.040 -0.3260  0.6231 -0.9294
18811TIP3    H177924   5.977   0.102  12.017 -0.0691  1.7238 -2.8641
18811TIP3    H277925   5.931   0.214  12.109 -0.2392 -0.7732  0.2604
18812TIP3   OH277926   5.641   6.280  13.126  0.0491 -0.4432 -0.7450
18812TIP3    H177927   5.570   6.222  13.098 -0.6699 -0.0289  0.1496
18812TIP3    H277928   5.596   6.357  13.161  0.8353 -0.9618  1.6235
18813TIP3   OH277929   0.566   6.247   4.618  0.0784  0.1601 -0.1739
18813TIP3    H177930   0.590   6.338   4.599  1.0266 -0.5487 -2.7536
18813TIP3    H277931   0.633   6.195   4.575 -1.8064 -1.7929 -0.9149
18814TIP3   OH277932   0.495   0.268   2.229 -0.3888  0.1239 -0.7537
18814TIP3    H177933   0.426   0.318   2.185 -1.7833  1.7682  2.8857
18814TIP3    H277934   0.571   0.326   2.228  0.1221 -0.5066 -2.2171
18815TIP3   OH277935   5.865   2.375  15.736 -0.3316  0.2760  0.6404
18815TIP3    H177936   5.948   2.378  15.690 -0.4608  1.1951  0.4403
18815TIP3    H277937   5.883   2.417  15.820 -0.3250 -0.5461  1.0591
18816TIP3   OH277938   2.004   0.421   3.735 -0.0150 -0.5489 -0.3196
18816TIP3    H177939   1.971   0.364   3.665  0.5084 -1.1951 -0.0556
18816TIP3    H277940   1.932   0.428   3.797 -0.0945 -0.9142 -0.3664
18817TIP3   OH277941   6.001   1.040   4.490 -0.0789 -0.7482 -0.2129
18817TIP3    H177942   5.953   1.010   4.568  0.9037 -1.1537  0.2572
18817TIP3    H277943   5.935   1.084   4.437 -0.7147 -0.1786  0.9940
18818TIP3   OH277944   0.990   3.663  17.062 -0.6456  0.1098  0.1098
18818TIP3    H177945   0.945   3.638  17.142 -1.1790 -1.6431 -0.6944
18818TIP3    H277946   0.955   3.604  16.995 -0.9942  2.1908 -1.6587
18819TIP3   OH277947   2.890   2.490  15.408 -0.2961  0.1040 -0.1060
18819TIP3    H177948   2.944   2.567  15.427  0.3409  0.3962 -2.7468
18819TIP3    H277949   2.800   2.524  15.406 -0.2373  0.3406  0.7297
18820TIP3   OH277950   3.763   1.795   3.732  0.2738  0.4992 -0.1437
18820TIP3    H177951   3.734   1.871   3.783 -0.3328 -0.0853  0.4008
18820TIP3    H277952   3.846   1.770   3.772 -0.9634 -0.9579  1.6987
18821TIP3   OH277953   2.827   0.589   2.752 -0.0147  0.2015 -0.1008
18821TIP3    H177954   2.811   0.678   2.784 -1.4822  0.8917 -2.5233
18821TIP3    H277955   2.782   0.533   2.816  1.4696  1.0621  1.8223
18822TIP3   OH277956   6.662   4.271   1.184  0.0278 -0.0031 -0.4630
18822TIP3    H177957   6.598   4.200   1.176 -1.0551  0.8576  0.3057
18822TIP3    H277958   6.677   4.278   1.279  1.4266 -0.3197 -0.6432
18823TIP3   OH277959   3.530   0.577   0.863 -0.1117 -0.2903 -0.4978
18823TIP3    H177960   3.451   0.590   0.810 -1.8096 -0.1109  1.9218
18823TIP3    H277961   3.581   0.657   0.850 -0.8217  0.0587 -1.2723
18824TIP3   OH277962   5.272   3.316  16.779 -0.0552  0.3212  0.2412
18824TIP3    H177963   5.213   3.376  16.732  0.2701  2.1835  2.0501
18824TIP3    H277964   5.214   3.247  16.811 -0.5142 -0.1860 -1.5398
18825TIP3   OH277965   6.434   5.424   2.433 -0.4007  0.8330 -0.2116
18825TIP3    H177966   6.488   5.483   2.486 -0.5066  1.3130 -0.6257
18825TIP3    H277967   6.472   5.338   2.447 -1.0832  0.7533  1.5164
18826TIP3   OH277968   5.547   3.904   4.194 -0.2519  0.4950 -0.6039
18826TIP3    H177969   5.464   3.883   4.149  0.2688 -0.4766 -1.1434
18826TIP3    H277970   5.575   3.821   4.231  0.3877  0.8680 -0.2482
18827TIP3   OH277971   2.573   1.925  11.652 -0.6029  0.1949 -0.0571
18827TIP3    H177972   2.634   1.867  11.604 -0.4575  0.9853 -0.8548
18827TIP3    H277973   2.537   1.982  11.584  0.9425  2.5487  0.9711
18828TIP3   OH277974   3.220   4.520   3.384  0.4674  0.2548 -0.0097
18828TIP3    H177975   3.298   4.571   3.360 -0.2056  0.8779 -0.9365
18828TIP3    H277976   3.165   4.521   3.305 -0.5642 -0.0276  0.6834
18829TIP3   OH277977   5.536   2.901   5.999 -0.0587 -0.2258 -0.0359
18829TIP3    H177978   5.620   2.882   5.957 -0.7391 -1.0227 -1.0994
18829TIP3    H277979   5.554   2.895   6.093  0.8538 -1.4223 -0.2624
18830TIP3   OH277980   3.234   2.659  15.873  0.3375  0.1960  0.7937
18830TIP3    H177981   3.191   2.743  15.890  0.1039  0.0574  0.9008
18830TIP3    H277982   3.320   2.682  15.839  0.8407  0.4912  2.1823
18831TIP3   OH277983   1.455   3.632  12.090 -0.0995  0.6048 -0.0111
18831TIP3    H177984   1.435   3.591  12.174 -2.0268  0.1129 -0.6655
18831TIP3    H277985   1.546   3.661  12.099 -0.0191 -0.0969  1.9604
18832TIP3   OH277986   3.250   6.179  14.234  0.2735 -0.3532  0.0162
18832TIP3    H177987   3.167   6.167  14.280  0.9887 -1.7171  1.0232
18832TIP3    H277988   3.254   6.107  14.171  1.5857 -1.5908  1.4216
18833TIP3   OH277989   6.725   5.606   4.487  0.0688  0.1870 -0.9119
18833TIP3    H177990   6.694   5.517   4.468  1.5494 -0.5215 -0.1786
18833TIP3    H277991   6.657   5.663   4.451  0.6600 -1.1233 -4.6313
18834TIP3   OH277992   2.077   4.410  15.008 -1.1538 -0.4645 -0.0497
18834TIP3    H177993   2.030   4.328  15.021  0.9675 -1.4734  1.7365
18834TIP3    H277994   2.009   4.477  15.015 -2.7023 -1.9584 -0.0533
18835TIP3   OH277995   4.162   6.626   1.511  0.0104  0.1563 -0.3555
18835TIP3    H177996   4.249   6.659   1.536  0.4812 -2.2012  1.4514
18835TIP3    H277997   4.122   6.699   1.464  3.0595  1.2364 -1.5557
18836TIP3   OH277998   4.733   5.725   1.447  0.3515 -0.3168 -0.2399
18836TIP3    H177999   4.706   5.715   1.539  1.7083 -0.1891  0.1914
18836TIP3    H278000   4.679   5.663   1.399 -0.5306 -0.2281  0.6158
18837TIP3   OH278001   5.620   4.219  17.075 -0.5078  0.7534 -0.0305
18837TIP3    H178002   5.575   4.263  17.003 -2.1154 -1.1933 -0.2694
18837TIP3    H278003   5.644   4.133  17.041  0.1896  0.3963  1.2596
18838TIP3   OH278004   2.928   2.146   1.754  0.9384  0.0573 -0.1317
18838TIP3    H178005   2.910   2.076   1.816 -0.6391  0.4260 -0.1282
18838TIP3    H278006   3.024   2.151   1.750  1.1151  0.5439  2.8280
18839TIP3   OH278007   4.100   3.758   5.334 -0.4895 -0.3972 -0.2730
18839TIP3    H178008   4.059   3.766   5.248 -0.9742  0.8927  0.0552
18839TIP3    H278009   4.041   3.805   5.393 -0.6322 -2.0085  0.9325
18840TIP3   OH278010   3.656   1.798   3.462  0.3042 -0.1216  0.0061
18840TIP3    H178011   3.591   1.733   3.436  2.3333 -1.8535 -0.9610
18840TIP3    H278012   3.669   1.783   3.555  0.3113 -0.6541 -0.0817
18841TIP3   OH278013   0.468   4.083  16.340 -0.3360  0.6926  0.3624
18841TIP3    H178014   0.467   4.176  16.360 -0.1283  1.0555 -1.1947
18841TIP3    H278015   0.381   4.064  16.307  0.3509  0.9228 -1.6923
18842TIP3   OH278016   1.901   0.371   0.946 -0.1377  0.0636  0.1663
18842TIP3    H178017   1.836   0.301   0.952  0.3847 -0.3807  0.9634
18842TIP3    H278018   1.964   0.339   0.881  0.5757 -0.6446  1.1668
18843TIP3   OH278019   5.123   6.817  11.512  0.8774 -0.4425 -0.1045
18843TIP3    H178020   5.051   6.840  11.572  1.3336  1.9563 -0.3573
18843TIP3    H278021   5.199   6.864  11.548  2.2826 -2.6034 -0.0688
18844TIP3   OH278022   1.435   3.517   3.036  0.4384 -0.2666 -0.2411
18844TIP3    H178023   1.352   3.563   3.026  0.7207  0.6242  1.2109
18844TIP3    H278024   1.447   3.470   2.953 -0.4553  1.3062 -1.3139
18845TIP3   OH278025   6.289   0.159  13.448  0.5593  0.2485  0.2681
18845TIP3    H178026   6.262   0.239  13.492  0.0116  0.9928 -1.3395
18845TIP3    H278027   6.241   0.089  13.494  0.4079  0.9181  1.1560
18846TIP3   OH278028   6.148   5.184   3.489  0.5045  0.4214 -0.5953
18846TIP3    H178029   6.110   5.127   3.557  1.6392  2.0225  1.5027
18846TIP3    H278030   6.110   5.152   3.407 -0.7935 -1.7421  0.7465
18847TIP3   OH278031   5.301   3.490   5.346 -0.0595 -0.2099 -0.0090
18847TIP3    H178032   5.327   3.405   5.310 -0.1106 -0.5943  0.8460
18847TIP3    H278033   5.331   3.488   5.437  1.5264  1.3709 -0.4367
18848TIP3   OH278034   0.816   4.894   5.508 -0.7994  0.2812  0.2196
18848TIP3    H178035   0.825   4.806   5.472 -0.0996  0.7581 -0.8190
18848TIP3    H278036   0.809   4.951   5.431 -4.0157  0.9080  0.8349
18849TIP3   OH278037   5.556   2.788   3.209  0.3616  0.5488  0.4334
18849TIP3    H178038   5.624   2.733   3.248 -0.6634 -1.1723 -0.0910
18849TIP3    H278039   5.604   2.857   3.163  1.7994 -0.9312 -0.3911
18850TIP3   OH278040   0.864   5.676  13.471 -0.0002 -0.6277  0.0683
18850TIP3    H178041   0.890   5.599  13.521 -0.1685  0.9240  2.7154
18850TIP3    H278042   0.927   5.744  13.495 -1.7771  0.9848  0.4288
18851TIP3   OH278043   5.429   5.895   4.207 -0.0270  0.3388  0.1657
18851TIP3    H178044   5.478   5.949   4.145  1.4519 -3.8805 -2.7710
18851TIP3    H278045   5.339   5.895   4.173 -0.0034  0.7092  0.0919
18852TIP3   OH278046   5.184   4.808  12.293  0.3713 -0.1612 -0.2783
18852TIP3    H178047   5.240   4.875  12.331 -0.9229  1.2662 -0.8192
18852TIP3    H278048   5.158   4.753  12.367  1.5176 -0.1473  0.1529
18853TIP3   OH278049   2.960   3.501  14.239  0.3973 -0.0367  0.6830
18853TIP3    H178050   2.983   3.585  14.200 -1.3444  0.2795  0.2664
18853TIP3    H278051   3.023   3.439  14.202  2.4004  1.2089  1.8096
18854TIP3   OH278052   5.603   2.793   2.521 -0.0998 -0.0221 -0.1236
18854TIP3    H178053   5.591   2.746   2.604  0.6172  1.4602  0.8788
18854TIP3    H278054   5.691   2.830   2.528  0.1970 -0.3385 -1.8242
18855TIP3   OH278055   3.589   0.385   3.484  0.0142  0.5266 -0.5733
18855TIP3    H178056   3.618   0.295   3.465 -0.4861  0.2862 -0.2207
18855TIP3    H278057   3.494   0.382   3.474 -0.0065  1.0195 -0.5411
18856TIP3   OH278058   3.055   6.109   3.724  0.3531  0.4702 -0.0598
18856TIP3    H178059   3.149   6.092   3.726  0.2201 -0.2604  0.1116
18856TIP3    H278060   3.031   6.125   3.816  0.2333  0.2428 -0.0519
18857TIP3   OH278061   0.528   3.316  11.860  1.0521 -0.0742 -0.1468
18857TIP3    H178062   0.438   3.313  11.828  0.5630 -1.6104  1.2331
18857TIP3    H278063   0.537   3.402  11.900 -0.5024 -0.6356  1.5091
18858TIP3   OH278064   3.419   3.367   0.142 -0.3587  0.1391  0.8139
18858TIP3    H178065   3.395   3.275   0.151 -1.1079  0.2184 -0.1950
18858TIP3    H278066   3.442   3.394   0.231  0.1807 -1.0901  1.0817
18859TIP3   OH278067   3.510   5.744   0.774 -0.1773  0.7651 -0.8471
18859TIP3    H178068   3.426   5.789   0.783  0.2147  1.4994 -0.7452
18859TIP3    H278069   3.493   5.672   0.714 -1.6873 -1.2068  1.7498
18860TIP3   OH278070   4.377   6.533   6.450 -0.2619  0.4614 -0.4196
18860TIP3    H178071   4.297   6.569   6.489 -0.6513 -0.5794 -0.2468
18860TIP3    H278072   4.447   6.571   6.502 -0.6795  0.7641 -0.0655
18861TIP3   OH278073   2.970   6.526   3.130  0.1161 -0.7258 -0.2209
18861TIP3    H178074   2.935   6.440   3.153 -1.6025  0.4953  2.1755
18861TIP3    H278075   3.047   6.536   3.187  0.6985 -0.9206 -0.9672
18862TIP3   OH278076   4.129   3.506   0.229 -0.7267  0.3451  0.2941
18862TIP3    H178077   4.114   3.549   0.313  0.1790  0.1617  0.5594
18862TIP3    H278078   4.214   3.539   0.199 -0.9104  0.1999 -0.4194
18863TIP3   OH278079   0.909   1.617   5.075 -0.4316 -0.3798  0.1057
18863TIP3    H178080   0.861   1.699   5.065 -1.7365 -1.0572  0.5887
18863TIP3    H278081   0.958   1.627   5.156 -0.7402 -0.1427  0.2659
18864TIP3   OH278082   2.652   4.908   4.555 -0.2673 -0.2925  0.4567
18864TIP3    H178083   2.627   4.993   4.519 -0.7783 -0.9998 -0.9194
18864TIP3    H278084   2.695   4.863   4.482  1.4162 -0.6457  1.6004
18865TIP3   OH278085   3.898   4.730   1.884 -0.8491  0.0399  0.0369
18865TIP3    H178086   3.951   4.661   1.842 -0.5309  0.4215 -0.1910
18865TIP3    H278087   3.846   4.683   1.950 -1.6634 -0.6393 -1.0499
18866TIP3   OH278088   1.850   5.075   2.173 -0.0710  0.0094 -0.2715
18866TIP3    H178089   1.807   5.138   2.115  0.6816  0.7761 -0.0245
18866TIP3    H278090   1.789   5.003   2.180 -1.4933  1.2285  0.3924
18867TIP3   OH278091   6.221   4.395   5.762 -0.1467  0.2840  0.1687
18867TIP3    H178092   6.258   4.451   5.830 -2.3848 -1.2217  2.7814
18867TIP3    H278093   6.250   4.307   5.784  0.4967 -0.0806 -1.9019
18868TIP3   OH278094   5.853   0.584   1.587 -0.2663 -0.2784  0.1262
18868TIP3    H178095   5.894   0.523   1.649  0.9550  0.3111 -0.0685
18868TIP3    H278096   5.874   0.547   1.501  0.8500  0.5959 -0.0091
18869TIP3   OH278097   6.651   5.845  16.669  0.1766  0.8048  0.1602
18869TIP3    H178098   6.630   5.834  16.762  2.2957 -0.0654  0.6073
18869TIP3    H278099   6.653   5.756  16.634 -0.3891  1.1112 -0.6717
18870TIP3   OH278100   3.447   2.201  15.058  0.1989 -0.4206 -0.0676
18870TIP3    H178101   3.428   2.289  15.026  2.1686  0.2333  0.4478
18870TIP3    H278102   3.466   2.213  15.151 -0.3046 -1.5337  0.2014
18871TIP3   OH278103   3.478   0.191   5.716  0.5474 -0.4216  0.9011
18871TIP3    H178104   3.508   0.145   5.795 -0.7446 -0.5191  1.3516
18871TIP3    H278105   3.399   0.145   5.690  0.6840 -0.0726 -0.1805
18872TIP3   OH278106   2.123   2.895   0.817  0.7296 -0.1804 -0.2709
18872TIP3    H178107   2.129   2.800   0.811 -0.2591 -0.2313 -0.7820
18872TIP3    H278108   2.053   2.918   0.755  1.3463  0.9343 -0.5881
18873TIP3   OH278109   0.132   5.149  14.896 -0.0667  0.3907 -0.2103
18873TIP3    H178110   0.197   5.219  14.886 -0.1498  0.4019 -0.7346
18873TIP3    H278111   0.176   5.081  14.946  0.8796 -0.2565 -1.8658
18874TIP3   OH278112   2.666   5.049  11.194  0.4105  0.1581 -0.1421
18874TIP3    H178113   2.727   4.978  11.178 -2.6337 -2.6770 -0.2989
18874TIP3    H278114   2.677   5.108  11.119  0.2493 -2.3599 -2.2782
18875TIP3   OH278115   4.089   6.113  12.669  0.1731  0.9587  0.0586
18875TIP3    H178116   4.128   6.060  12.739  0.7877  1.0484 -0.2118
18875TIP3    H278117   4.000   6.131  12.700  0.2101  0.4174  0.5014
18876TIP3   OH278118   2.916   0.102   3.823 -0.2311  0.2782  0.1654
18876TIP3    H178119   2.873   0.101   3.738  0.4927  0.8588 -0.2103
18876TIP3    H278120   2.979   0.030   3.820  1.5820  1.8174 -0.7476
18877TIP3   OH278121   4.957   5.636  14.152 -0.2373  0.4629  0.0477
18877TIP3    H178122   5.013   5.575  14.105 -2.1742 -1.3702 -0.0373
18877TIP3    H278123   4.992   5.635  14.242  1.1430  1.0464 -0.4525
18878TIP3   OH278124   2.009   6.175  16.319 -0.6079 -1.0993  0.3311
18878TIP3    H178125   2.097   6.147  16.344 -1.1953 -3.2383  0.1650
18878TIP3    H278126   2.009   6.172  16.223  0.3719  3.1237 -0.0166
18879TIP3   OH278127   0.002   0.791  11.617  0.1152  0.5121 -0.5125
18879TIP3    H178128   0.094   0.771  11.633  0.3817  1.2061 -1.1081
18879TIP3    H278129   0.004   0.873  11.567 -0.8236  0.4997 -0.5847
18880TIP3   OH278130   3.335   0.457  16.896 -0.2193  0.6535  0.3876
18880TIP3    H178131   3.239   0.462  16.895 -0.3766 -1.6282  0.4428
18880TIP3    H278132   3.359   0.491  16.982 -1.1928 -1.1633  1.4325
18881TIP3   OH278133   3.841   3.791  14.926 -0.2702  0.3818  0.2691
18881TIP3    H178134   3.881   3.837  14.852 -1.2006  0.2544 -0.3240
18881TIP3    H278135   3.897   3.813  15.000 -0.1836  1.7598 -0.1702
18882TIP3   OH278136   5.754   4.881  12.590 -0.3799 -0.0476 -1.1345
18882TIP3    H178137   5.790   4.896  12.503  0.7596 -0.4965 -0.7576
18882TIP3    H278138   5.831   4.869  12.646 -1.0822  0.7946  0.0411
18883TIP3   OH278139   5.833   1.876  12.945 -0.0633 -0.3647  0.7379
18883TIP3    H178140   5.874   1.953  12.984 -0.7194  1.1335 -1.3668
18883TIP3    H278141   5.903   1.835  12.894 -0.3489  0.4269 -0.3325
18884TIP3   OH278142   0.117   3.715  16.548  0.2116  0.2645 -0.0457
18884TIP3    H178143   0.086   3.665  16.473  1.4657  0.3527 -0.6468
18884TIP3    H278144   0.177   3.656  16.594  0.1400  0.5207  0.3874
18885TIP3   OH278145   1.745   5.429  10.629  0.1512 -0.0620  0.0049
18885TIP3    H178146   1.659   5.449  10.666  0.2948 -0.0519  0.3393
18885TIP3    H278147   1.768   5.345  10.669 -0.1348 -0.5581 -0.8388
18886TIP3   OH278148   4.113   5.428  16.239 -0.6166 -0.0393 -0.1275
18886TIP3    H178149   4.078   5.499  16.293  0.5275 -0.1375  0.7700
18886TIP3    H278150   4.150   5.472  16.162 -0.9844  0.2257 -0.1556
18887TIP3   OH278151   4.056   4.489  13.875  0.2450 -0.2925 -0.1355
18887TIP3    H178152   4.028   4.412  13.826 -0.3585 -1.1046  1.4040
18887TIP3    H278153   3.986   4.504  13.938  1.6841 -0.3016  1.5666
18888TIP3   OH278154   0.525   1.842  12.506  0.1428 -0.2260 -0.4204
18888TIP3    H178155   0.484   1.775  12.561 -0.9588  0.8583  0.1309
18888TIP3    H278156   0.452   1.895  12.474  0.9825  0.7151 -0.8523
18889TIP3   OH278157   1.690   2.706  14.516  0.0831  0.6551 -0.3439
18889TIP3    H178158   1.612   2.718  14.461  1.2842  1.2924 -1.9981
18889TIP3    H278159   1.752   2.771  14.483  1.4075 -0.0061  0.7686
18890TIP3   OH278160   1.863   2.241  12.403 -0.1147  0.0390 -0.3849
18890TIP3    H178161   1.801   2.177  12.369 -0.1463 -0.9018  1.3319
18890TIP3    H278162   1.831   2.325  12.371 -1.0775 -0.6291 -1.2319
18891TIP3   OH278163   6.569   2.631   4.547 -0.7297 -0.0139  0.1142
18891TIP3    H178164   6.530   2.698   4.491  0.6319  0.1736 -0.6498
18891TIP3    H278165   6.663   2.639   4.531 -0.4436 -1.0817  1.1842
18892TIP3   OH278166   4.548   4.584   4.021 -0.1116 -0.1792  0.1545
18892TIP3    H178167   4.633   4.611   4.055  0.0556 -1.1969  0.6048
18892TIP3    H278168   4.517   4.518   4.083 -2.2725  1.7156  1.2550
18893TIP3   OH278169   0.612   2.751   4.829 -0.1371  0.3664  0.3207
18893TIP3    H178170   0.560   2.786   4.901  0.7191 -0.1850  1.2335
18893TIP3    H278171   0.696   2.727   4.869 -0.3947 -1.9749 -0.3667
18894TIP3   OH278172   3.777   4.935   2.257 -0.6460  0.1233  0.2618
18894TIP3    H178173   3.849   4.962   2.200 -0.0239 -0.7881  0.5958
18894TIP3    H278174   3.804   4.963   2.345 -1.2943  0.9159  0.2278
18895TIP3   OH278175   5.232   1.814  13.437  0.0217 -0.2726 -0.5963
18895TIP3    H178176   5.305   1.833  13.378  1.1542 -0.1406  0.7595
18895TIP3    H278177   5.162   1.781  13.381  0.9649  0.0608 -2.0053
18896TIP3   OH278178   0.896   4.249  10.918 -0.5428 -0.0985  0.5728
18896TIP3    H178179   0.918   4.227  11.008  0.8623 -0.1984  0.2245
18896TIP3    H278180   0.923   4.340  10.908  1.1728 -0.6563 -0.2875
18897TIP3   OH278181   2.061   2.963   5.396 -0.0060 -0.6585  0.1950
18897TIP3    H178182   2.155   2.963   5.416 -0.4155  1.5036  2.4860
18897TIP3    H278183   2.020   2.922   5.472 -1.0089 -0.4743 -0.2326
18898TIP3   OH278184   5.311   4.580   1.352 -0.5089  0.2352  0.2847
18898TIP3    H178185   5.335   4.554   1.264  0.0620  1.8557 -0.0720
18898TIP3    H278186   5.215   4.579   1.352 -0.5174  0.7156 -0.5035
18899TIP3   OH278187   4.296   1.168  15.835 -0.0143  0.4786  0.3188
18899TIP3    H178188   4.282   1.229  15.908 -1.6238  1.7364 -0.9782
18899TIP3    H278189   4.356   1.103  15.870 -1.4069  0.5384  3.0590
18900TIP3   OH278190   0.133   5.375  16.507  0.2423 -0.3534 -0.2199
18900TIP3    H178191   0.112   5.347  16.417  0.7066  0.3417 -0.5503
18900TIP3    H278192   0.048   5.391  16.547 -0.0370 -1.8902 -0.1231
18901TIP3   OH278193   5.596   2.699  14.163 -0.9557 -0.2270  0.1963
18901TIP3    H178194   5.602   2.668  14.073  1.1280  2.5130 -0.7534
18901TIP3    H278195   5.645   2.634  14.214 -1.6931 -1.5176 -0.6737
18902TIP3   OH278196   3.907   4.339  17.095 -0.1994 -0.3594  0.8456
18902TIP3    H178197   3.884   4.263  17.149  1.0055 -0.7690  0.8039
18902TIP3    H278198   3.960   4.394  17.152 -1.5296  0.7664  1.0612
18903TIP3   OH278199   0.240   6.136  13.261 -0.2680 -0.5801 -0.3767
18903TIP3    H178200   0.211   6.055  13.302  0.1519 -0.8906 -0.6800
18903TIP3    H278201   0.329   6.149  13.293 -1.0035  0.8507  1.2685
18904TIP3   OH278202   2.631   3.359  10.117  0.5244 -1.2550 -0.6079
18904TIP3    H178203   2.725   3.346  10.128  0.8767  0.1425 -1.6273
18904TIP3    H278204   2.593   3.271  10.128  1.5136 -1.3644  3.1956
18905TIP3   OH278205   5.459   5.541  16.857  0.3244 -0.3673 -0.1892
18905TIP3    H178206   5.474   5.448  16.842 -0.2712 -0.5139  0.0787
18905TIP3    H278207   5.511   5.562  16.934  1.9351 -0.0374 -1.3179
18906TIP3   OH278208   6.303   3.297  16.817 -0.3767  0.1113 -0.2223
18906TIP3    H178209   6.229   3.330  16.868  0.1445 -0.4563  0.9434
18906TIP3    H278210   6.373   3.285  16.881 -0.3162 -2.5658 -0.6457
18907TIP3   OH278211   3.760   4.579   5.854 -0.2420 -0.2355 -0.3425
18907TIP3    H178212   3.704   4.546   5.924  0.2439 -0.0699  0.1376
18907TIP3    H278213   3.772   4.672   5.875  0.0598 -0.2282 -0.5403
18908TIP3   OH278214   1.834   3.296   5.761  0.1033 -0.1690  0.0832
18908TIP3    H178215   1.908   3.357   5.756  1.7413 -1.7471  2.9213
18908TIP3    H278216   1.871   3.212   5.736 -1.5755 -0.4924 -1.5163
18909TIP3   OH278217   0.544   2.496   2.258  0.3224 -0.2589  0.1699
18909TIP3    H178218   0.474   2.474   2.197 -0.0605  0.6863  0.2572
18909TIP3    H278219   0.584   2.575   2.223 -2.6381  2.9256  3.2030
18910TIP3   OH278220   3.499   6.143   5.095  0.2008 -0.5546 -0.0227
18910TIP3    H178221   3.450   6.199   5.155  1.0915 -0.7735  0.9395
18910TIP3    H278222   3.438   6.124   5.024 -0.5131  0.6257  0.2520
18911TIP3   OH278223   1.214   4.665   4.881 -0.1578  0.0075 -0.2119
18911TIP3    H178224   1.258   4.739   4.923  0.5634  0.7383 -2.1493
18911TIP3    H278225   1.209   4.598   4.950 -0.0830  1.5336  1.3403
18912TIP3   OH278226   4.522   0.404  10.428 -0.5824 -0.2500 -0.2710
18912TIP3    H178227   4.457   0.448  10.374  0.9614  0.5595 -1.5646
18912TIP3    H278228   4.577   0.476  10.461  0.8754 -1.0317 -0.9049
18913TIP3   OH278229   0.308   4.707  13.687 -0.4720  0.2093  0.5056
18913TIP3    H178230   0.348   4.692  13.773  3.4898  0.3959 -1.0808
18913TIP3    H278231   0.324   4.799  13.669 -2.2420  0.4404 -0.0349
18914TIP3   OH278232   4.199   2.047   0.957 -0.4325  0.6314 -0.1884
18914TIP3    H178233   4.261   2.080   0.892 -0.7573 -0.6718 -1.2056
18914TIP3    H278234   4.132   2.115   0.963 -0.0060  1.1059 -0.6477
18915TIP3   OH278235   0.231   0.789  12.436  0.3946  0.6668 -0.4029
18915TIP3    H178236   0.268   0.708  12.402 -1.8172 -0.0458 -1.2974
18915TIP3    H278237   0.272   0.801  12.521  0.3222 -1.7397  0.0252
18916TIP3   OH278238   4.348   0.787  15.782 -0.4664  0.1377  0.0381
18916TIP3    H178239   4.333   0.697  15.812 -2.1017  0.4946  0.3711
18916TIP3    H278240   4.355   0.838  15.863 -0.2733  0.4220 -0.1568
18917TIP3   OH278241   1.295   3.625  17.064  0.4289 -0.2746 -0.3921
18917TIP3    H178242   1.209   3.621  17.106  0.9685 -1.9257  0.6299
18917TIP3    H278243   1.355   3.648  17.135  1.2302 -2.2061 -0.3816
18918TIP3   OH278244   4.179   4.637  16.754  0.2781 -0.1226 -0.2639
18918TIP3    H178245   4.176   4.563  16.815 -1.2329 -1.0639 -1.3682
18918TIP3    H278246   4.185   4.714  16.809 -0.8215 -0.9501  1.0955
18919TIP3   OH278247   1.165   1.358  14.979  0.1554  0.1903  0.0750
18919TIP3    H178248   1.099   1.386  15.042  0.8752  0.3239  0.7964
18919TIP3    H278249   1.162   1.262  14.983 -0.7770  0.1732 -0.7511
18920TIP3   OH278250   1.025   4.588   3.008 -0.1646  0.1389  0.3957
18920TIP3    H178251   1.031   4.637   3.090 -3.2628  2.0704 -0.3689
18920TIP3    H278252   1.092   4.628   2.951  0.8499 -0.0736  1.4043
18921TIP3   OH278253   0.101   3.823  13.369  0.2023 -0.7464  0.2833
18921TIP3    H178254   0.172   3.775  13.328 -0.1890 -1.5530  0.5231
18921TIP3    H278255   0.081   3.894  13.308  1.2506 -0.4581  0.2502
18922TIP3   OH278256   5.850   5.185  12.707  0.3768  0.3308  0.3751
18922TIP3    H178257   5.757   5.205  12.707  0.5585  1.2850  1.4741
18922TIP3    H278258   5.857   5.103  12.657 -0.7115  1.6043 -2.0252
18923TIP3   OH278259   6.282   3.156  12.888 -0.4443  0.1894 -0.7972
18923TIP3    H178260   6.350   3.096  12.857 -1.6241 -1.1540 -0.9107
18923TIP3    H278261   6.324   3.206  12.958 -0.0426 -2.5470  1.1044
18924TIP3   OH278262   3.081   6.097   0.296 -0.0563 -0.0740  0.1359
18924TIP3    H178263   3.123   6.061   0.374  0.1362 -0.3728 -0.1058
18924TIP3    H278264   3.142   6.079   0.225 -0.2587  0.1441 -0.0935
18925TIP3   OH278265   4.375   3.702   2.615 -0.2901 -0.4128 -0.2570
18925TIP3    H178266   4.333   3.663   2.692  0.5606 -0.8741 -0.0167
18925TIP3    H278267   4.450   3.749   2.651 -0.4024  0.1247 -0.7179
18926TIP3   OH278268   0.061   3.250  12.269 -0.3995 -0.8281 -0.2136
18926TIP3    H178269   0.006   3.258  12.192 -2.2428  2.6128  1.2084
18926TIP3    H278270   0.019   3.183  12.323  0.5079 -2.7447 -1.8057
18927TIP3   OH278271   6.026   5.606   3.791  0.2563 -0.0363  0.2338
18927TIP3    H178272   6.079   5.552   3.733  0.3407 -0.0317  0.3059
18927TIP3    H278273   6.017   5.690   3.745 -1.8794 -0.8639 -0.9971
18928TIP3   OH278274   1.061   6.461  13.512  0.0758  0.1460  0.2653
18928TIP3    H178275   1.129   6.413  13.560  1.4097  0.4190 -1.2638
18928TIP3    H278276   1.069   6.430  13.422 -1.9433  0.1085  0.0601
18929TIP3   OH278277   1.737   3.754  12.157  0.0399  0.4885 -0.0213
18929TIP3    H178278   1.769   3.803  12.081  0.9436  0.7637  0.5261
18929TIP3    H278279   1.770   3.802  12.233 -3.0196  1.7309  0.6749
18930TIP3   OH278280   5.872   4.388  14.322 -0.4954 -0.4497  0.4760
18930TIP3    H178281   5.852   4.379  14.229 -1.0082 -0.1231  0.5506
18930TIP3    H278282   5.967   4.399  14.325 -0.5849  0.6471 -0.1057
18931TIP3   OH278283   2.671   0.538   0.833 -0.2695  0.0333 -0.4816
18931TIP3    H178284   2.760   0.507   0.817 -0.2782  0.0590 -0.5778
18931TIP3    H278285   2.620   0.458   0.847 -0.1868  0.0277 -0.1965
18932TIP3   OH278286   6.202   2.552  12.996  0.1542  0.3818  0.0450
18932TIP3    H178287   6.113   2.535  12.966 -0.0572  0.9769  0.3211
18932TIP3    H278288   6.222   2.639  12.963  0.7360  0.1393 -0.2466
18933TIP3   OH278289   1.957   2.316  16.228 -0.1534  0.0968  0.4438
18933TIP3    H178290   1.994   2.232  16.202 -0.4976 -1.0100  3.2072
18933TIP3    H278291   2.033   2.374  16.238 -0.0423  0.9596 -3.6847
18934TIP3   OH278292   0.472   6.031  14.896 -0.2936  0.1139  0.2402
18934TIP3    H178293   0.512   6.047  14.981  0.8784  0.7021 -0.3893
18934TIP3    H278294   0.522   5.958  14.859  0.5335  1.1452 -0.7430
18935TIP3   OH278295   0.961   1.141   1.211 -0.0110  0.2397 -0.2848
18935TIP3    H178296   0.938   1.115   1.301  2.1563  1.5567  0.7185
18935TIP3    H278297   0.996   1.061   1.171  0.0471 -0.0944  0.4218
18936TIP3   OH278298   5.974   0.704  12.976 -0.5713 -0.1620 -0.5067
18936TIP3    H178299   6.065   0.699  13.006 -0.0677 -0.5867 -1.9963
18936TIP3    H278300   5.942   0.614  12.982 -1.6548  0.3153  2.0900
18937TIP3   OH278301   2.261   1.879  17.060 -0.6521  0.5848  0.2553
18937TIP3    H178302   2.313   1.960  17.056 -0.0832  0.2783  1.0552
18937TIP3    H278303   2.224   1.879  17.149  0.0376 -0.4285  0.5649
18938TIP3   OH278304   3.950   0.641  15.220 -0.0176  0.1748 -0.1666
18938TIP3    H178305   3.980   0.645  15.129  0.2543  0.7820 -0.0539
18938TIP3    H278306   3.855   0.633  15.213  0.0775 -0.7886 -0.5133
18939TIP3   OH278307   6.313   3.515   4.084  0.2756  0.2296  0.0290
18939TIP3    H178308   6.356   3.581   4.138  0.4763 -0.1438  0.3243
18939TIP3    H278309   6.219   3.533   4.095  0.2935 -0.2607  1.0318
18940TIP3   OH278310   1.586   6.372   4.726  0.1006  0.0515  0.0819
18940TIP3    H178311   1.534   6.426   4.667  1.3734 -0.2498 -1.3804
18940TIP3    H278312   1.663   6.346   4.674  1.1660 -0.4181  1.8014
18941TIP3   OH278313   2.270   6.783  17.171 -0.0394 -0.6812 -0.3535
18941TIP3    H178314   2.224   6.754  17.092 -0.4447  0.8920 -0.7133
18941TIP3    H278315   2.330   6.711  17.191 -1.7787 -2.2631 -0.5535
18942TIP3   OH278316   5.180   5.833  16.284 -0.0338 -0.5211  0.6481
18942TIP3    H178317   5.157   5.772  16.354 -1.1029  1.2227  1.9007
18942TIP3    H278318   5.185   5.918  16.327  1.4989  0.3004 -1.0171
18943TIP3   OH278319   1.054   3.356   5.564  0.0289 -0.4733  0.2111
18943TIP3    H178320   1.100   3.338   5.646  0.6618  0.2951  0.0312
18943TIP3    H278321   0.966   3.321   5.578 -0.2639  0.7786  1.6888
18944TIP3   OH278322   6.736   0.411  12.966 -0.2441  0.4433 -0.3941
18944TIP3    H178323   6.808   0.416  13.028 -2.4016  0.9908  2.2535
18944TIP3    H278324   6.705   0.501  12.958 -1.6397  0.0081 -0.1696
18945TIP3   OH278325   3.761   6.436  11.030 -0.1331 -0.7399  0.3994
18945TIP3    H178326   3.849   6.457  10.999 -0.4321 -1.0621 -0.7329
18945TIP3    H278327   3.718   6.520  11.040  0.6765 -0.4966  2.2020
18946TIP3   OH278328   5.375   4.038   0.843  0.0550 -0.3597  0.2224
18946TIP3    H178329   5.375   4.037   0.747 -1.9175  0.9007  0.1410
18946TIP3    H278330   5.417   3.956   0.869  0.2325 -0.9249 -1.7205
18947TIP3   OH278331   4.810   3.648  11.812  0.2475  0.6284  0.1007
18947TIP3    H178332   4.734   3.598  11.842  0.2467  0.3203 -0.4029
18947TIP3    H278333   4.884   3.590  11.824  0.2542  0.5178 -0.4318
18948TIP3   OH278334   0.052   2.362   2.833  0.1112 -0.2957 -0.2601
18948TIP3    H178335   0.131   2.316   2.861 -0.4632 -1.5757 -0.6324
18948TIP3    H278336   0.038   2.331   2.743 -1.1061 -0.5170 -0.0064
18949TIP3   OH278337   1.001   5.628   3.963  0.1045 -0.4614 -0.0523
18949TIP3    H178338   1.024   5.653   4.052  1.5816  1.6750 -0.9419
18949TIP3    H278339   0.906   5.618   3.964 -0.3126  2.5122  1.1608
18950TIP3   OH278340   1.316   4.111   3.933  0.0428 -0.2204 -0.1959
18950TIP3    H178341   1.378   4.166   3.981 -3.1449  1.5179  2.3173
18950TIP3    H278342   1.306   4.155   3.848  1.0911  0.2926 -0.0718
18951TIP3   OH278343   3.987   6.794  14.722 -0.6567  0.1913  0.1396
18951TIP3    H178344   4.036   6.767  14.645 -0.9741 -0.9519  0.3235
18951TIP3    H278345   4.045   6.856  14.767  0.1745 -0.3336 -0.1964
18952TIP3   OH278346   0.163   1.273  14.349 -1.0568 -0.1345  0.2479
18952TIP3    H178347   0.161   1.196  14.293  0.0519 -0.3628  0.4879
18952TIP3    H278348   0.199   1.343  14.295 -1.0766 -0.0519  0.3388
18953TIP3   OH278349   4.159   1.224  14.788  0.3994 -0.6462 -0.2493
18953TIP3    H178350   4.083   1.179  14.826 -0.2575  1.2105  0.7709
18953TIP3    H278351   4.219   1.236  14.862 -0.6798  2.5750  0.2484
18954TIP3   OH278352   2.336   2.122  13.508 -0.2991  0.1099  0.5350
18954TIP3    H178353   2.315   2.062  13.436  0.7426 -1.3179  1.3726
18954TIP3    H278354   2.303   2.078  13.586 -1.1563  1.5119  0.9938
18955TIP3   OH278355   5.949   3.086  10.722  0.1306  0.4879 -0.1832
18955TIP3    H178356   5.988   3.149  10.661  1.1268 -1.0568 -1.2196
18955TIP3    H278357   6.022   3.031  10.750 -0.7233 -0.2600  0.6313
18956TIP3   OH278358   6.010   6.644  12.970 -0.0477  0.4893 -0.2322
18956TIP3    H178359   6.081   6.671  12.912 -1.1661  4.5479  0.0111
18956TIP3    H278360   6.007   6.711  13.038 -2.6431 -0.7914  1.0666
18957TIP3   OH278361   0.781   1.852   5.006 -0.7723 -0.1727 -0.3302
18957TIP3    H178362   0.696   1.842   5.049 -0.0684 -2.6204  0.6524
18957TIP3    H278363   0.805   1.943   5.021 -1.9622 -0.1546  1.8413
18958TIP3   OH278364   5.664   5.488   4.262 -0.0170 -0.4774 -0.1907
18958TIP3    H178365   5.722   5.518   4.192  0.9326 -0.5565  0.5483
18958TIP3    H278366   5.694   5.399   4.281 -0.3759 -0.5151  0.2157
18959TIP3   OH278367   6.155   4.658   0.959 -0.7744  0.1809  0.1288
18959TIP3    H178368   6.172   4.665   1.053 -1.3356 -0.7586  0.3226
18959TIP3    H278369   6.150   4.563   0.943  1.2790  0.2363 -1.2354
18960TIP3   OH278370   5.202   4.822  13.233  0.0321 -0.0748 -0.3052
18960TIP3    H178371   5.138   4.751  13.230 -0.4552  0.3850 -1.2653
18960TIP3    H278372   5.180   4.878  13.159  0.8683  0.6901 -0.0048
18961TIP3   OH278373   3.725   6.534  13.656  0.6593 -0.0566  0.3524
18961TIP3    H178374   3.644   6.507  13.615  1.6271 -2.6377 -0.0476
18961TIP3    H278375   3.709   6.526  13.750  0.4096 -0.4560  0.2765
18962TIP3   OH278376   4.478   6.212   1.494 -0.8148 -0.1203 -0.3132
18962TIP3    H178377   4.476   6.280   1.428 -0.5209  0.0808 -0.1162
18962TIP3    H278378   4.455   6.257   1.576 -1.8258 -0.4913 -0.3854
18963TIP3   OH278379   3.827   5.537  11.902 -0.2879 -0.4944 -0.0166
18963TIP3    H178380   3.815   5.490  11.819  0.3322 -0.4452 -0.1421
18963TIP3    H278381   3.843   5.628  11.875 -1.6954 -0.1467  0.2304
18964TIP3   OH278382   1.801   0.360   1.503 -0.6554 -0.0599 -0.1809
18964TIP3    H178383   1.711   0.388   1.483 -1.6934 -2.6538  0.3645
18964TIP3    H278384   1.829   0.315   1.423  0.4476  1.2785 -0.5762
18965TIP3   OH278385   2.607   4.172  17.178 -0.0634  0.0151 -0.4632
18965TIP3    H178386   2.582   4.130  17.095  0.7735  0.1469 -0.7924
18965TIP3    H278387   2.592   4.104  17.244  2.4971 -1.3607 -1.1263
18966TIP3   OH278388   4.764   2.570   1.218 -0.0517 -0.3210  0.0335
18966TIP3    H178389   4.826   2.515   1.265 -0.6096 -1.9304 -1.0268
18966TIP3    H278390   4.753   2.527   1.133 -1.6948  0.5677 -0.2515
18967TIP3   OH278391   5.103   3.937   0.253 -0.1088  0.0926 -0.3161
18967TIP3    H178392   5.009   3.954   0.258 -0.3206 -0.9279 -0.4631
18967TIP3    H278393   5.122   3.934   0.160  0.2084  0.9390 -0.2863
18968TIP3   OH278394   0.509   1.140   2.432 -0.7161 -0.1069 -0.5051
18968TIP3    H178395   0.478   1.076   2.368  1.7859 -0.9017 -1.0057
18968TIP3    H278396   0.603   1.146   2.418 -0.5620  2.2372  0.8718
18969TIP3   OH278397   2.094   1.624  12.418  0.1464  0.7984  0.4966
18969TIP3    H178398   2.132   1.549  12.462 -0.0436  0.4300  0.0435
18969TIP3    H278399   2.007   1.594  12.391 -0.2176  1.4166  0.9542
18970TIP3   OH278400   6.539   0.822  11.822 -0.0391  0.2452 -0.0823
18970TIP3    H178401   6.461   0.818  11.767  0.4880  0.3926 -0.8567
18970TIP3    H278402   6.601   0.761  11.781 -0.1770 -0.8645  1.2486
18971TIP3   OH278403   3.824   4.002  16.903  0.2030  0.5874 -0.0587
18971TIP3    H178404   3.833   4.098  16.905  2.7418  0.4620 -0.9047
18971TIP3    H278405   3.810   3.978  16.995  0.2535  1.7283  0.2729
18972TIP3   OH278406   1.847   3.389   4.353  0.5256 -0.3612  0.4102
18972TIP3    H178407   1.882   3.477   4.370  2.7142 -0.6818 -1.8055
18972TIP3    H278408   1.759   3.404   4.320  0.2771  0.8545  1.5022
18973TIP3   OH278409   3.055   1.801  13.667  0.3141  0.2757 -0.1254
18973TIP3    H178410   3.046   1.830  13.758 -0.1175  1.9688 -0.6507
18973TIP3    H278411   3.132   1.745  13.666 -0.6123 -1.1170  1.5665
18974TIP3   OH278412   1.185   5.506   0.045  0.7412  0.1024  0.2715
18974TIP3    H178413   1.195   5.482   0.137  1.3866  0.1754  0.2238
18974TIP3    H278414   1.091   5.520   0.034  0.6603  0.0895  0.9133
18975TIP3   OH278415   2.052   2.431   3.388 -0.1806  0.8433 -0.3334
18975TIP3    H178416   2.050   2.515   3.434  0.9352  0.9982 -0.5455
18975TIP3    H278417   2.103   2.449   3.309  1.0668 -0.3103  0.1858
18976TIP3   OH278418   2.258   0.661   5.445  0.1306 -0.3011 -0.3411
18976TIP3    H178419   2.167   0.638   5.462 -0.0892  0.3347 -0.6348
18976TIP3    H278420   2.254   0.728   5.377  0.7297  0.7827  0.6519
18977TIP3   OH278421   2.718   2.385   0.998 -0.5363 -0.2309  0.3634
18977TIP3    H178422   2.727   2.414   1.089  0.7326  0.9758 -0.1272
18977TIP3    H278423   2.624   2.391   0.981 -0.5182  2.1569  0.7823
18978TIP3   OH278424   2.583   2.152   3.539  0.0912  0.0449  0.0222
18978TIP3    H178425   2.491   2.142   3.515 -0.4380 -3.2152  2.5631
18978TIP3    H278426   2.627   2.081   3.493  1.1298  0.8225 -0.2030
18979TIP3   OH278427   6.658   0.182   6.748  0.3130 -0.0296 -0.5057
18979TIP3    H178428   6.659   0.277   6.751  0.4990 -0.0410 -0.1645
18979TIP3    H278429   6.751   0.157   6.746  0.3458 -0.2726  1.7629
18980TIP3   OH278430   3.600   1.606   0.329  0.1513 -0.2134  0.1889
18980TIP3    H178431   3.524   1.552   0.308 -0.1171 -0.1249  0.9039
18980TIP3    H278432   3.623   1.648   0.246 -1.9075  1.4382  0.3623
18981TIP3   OH278433   4.650   4.455  14.894  0.1404 -0.3142 -0.0717
18981TIP3    H178434   4.656   4.360  14.907  0.4228 -0.2694  0.1346
18981TIP3    H278435   4.556   4.472  14.889  0.0760 -1.0851 -3.8185
18982TIP3   OH278436   0.143   0.307   0.092 -0.0291  0.0528  0.6538
18982TIP3    H178437   0.229   0.266   0.101 -0.8035 -1.9394 -0.5359
18982TIP3    H278438   0.151   0.365   0.016 -0.4237 -2.1817 -1.1729
18983TIP3   OH278439   6.795   0.532  16.641  0.9622 -0.0459 -0.2885
18983TIP3    H178440   6.859   0.591  16.681  1.3220 -0.1412 -0.7086
18983TIP3    H278441   6.717   0.585  16.628  1.2867  0.3446 -0.6702
18984TIP3   OH278442   5.092   5.969   1.104 -0.2699  0.3833  0.4287
18984TIP3    H178443   5.050   5.929   1.180 -2.4192  1.0766 -0.3043
18984TIP3    H278444   5.048   5.930   1.029  0.6433  0.9254 -0.4105
18985TIP3   OH278445   2.231   0.451   2.502 -0.3696  0.2172 -0.2795
18985TIP3    H178446   2.221   0.359   2.478  3.1488 -0.5434  0.4856
18985TIP3    H278447   2.259   0.449   2.594 -1.9483  2.2187  0.3241
18986TIP3   OH278448   5.397   4.306  15.702  0.3767 -0.4911  0.0305
18986TIP3    H178449   5.444   4.388  15.685  0.5204 -0.6152 -0.1777
18986TIP3    H278450   5.312   4.333  15.736  0.4599 -0.2576  0.0519
18987TIP3   OH278451   4.008   2.620  13.352 -0.6217 -0.2117  0.1688
18987TIP3    H178452   3.959   2.583  13.426 -0.4976 -0.6984  0.0100
18987TIP3    H278453   4.099   2.603  13.374 -0.6564 -2.3286 -1.1098
18988TIP3   OH278454   4.977   5.972   3.256  0.4722 -0.1062 -0.0707
18988TIP3    H178455   4.896   5.942   3.215  0.7225 -0.4980 -0.2892
18988TIP3    H278456   5.044   5.958   3.190  0.9644 -1.1894  0.6165
18989TIP3   OH278457   5.539   5.037  13.373  0.1990  0.4674 -0.2423
18989TIP3    H178458   5.547   4.968  13.307  0.3872  1.1193 -0.9246
18989TIP3    H278459   5.579   5.001  13.452 -0.9474 -0.7180 -0.1690
18990TIP3   OH278460   1.364   4.919   1.319  0.0878 -0.0681  0.3563
18990TIP3    H178461   1.286   4.883   1.278 -0.5117 -0.3792  1.7368
18990TIP3    H278462   1.437   4.876   1.274 -0.5829 -1.3917  0.5167
18991TIP3   OH278463   1.790   0.843  15.218  0.3778  0.2782 -0.0708
18991TIP3    H178464   1.713   0.795  15.188  0.6402 -0.5070  0.4785
18991TIP3    H278465   1.757   0.930  15.240  0.1782  0.9444 -2.6740
18992TIP3   OH278466   2.292   4.810   6.421  0.3958 -0.2634  0.1089
18992TIP3    H178467   2.269   4.781   6.509  1.7448 -0.0037  0.5764
18992TIP3    H278468   2.305   4.905   6.430  1.0463 -0.3119 -0.2436
18993TIP3   OH278469   0.193   5.215  17.096 -0.1120 -0.1932 -0.6669
18993TIP3    H178470   0.194   5.194  17.002 -1.3827 -2.0743 -0.3199
18993TIP3    H278471   0.102   5.200  17.122  0.0409  1.1015  0.7221
18994TIP3   OH278472   3.374   2.741   2.497 -0.5915 -0.4456  0.0687
18994TIP3    H178473   3.450   2.689   2.522  0.3108  0.9177  0.2716
18994TIP3    H278474   3.389   2.765   2.406  0.0677  1.1879  0.5762
18995TIP3   OH278475   2.497   2.701  14.720  0.2389 -0.7950 -0.1598
18995TIP3    H178476   2.429   2.728  14.659  0.5512  0.1660 -0.1009
18995TIP3    H278477   2.452   2.692  14.804  0.2354  0.2260 -0.0336
18996TIP3   OH278478   3.258   0.155   0.777 -0.0581 -0.0321 -0.9990
18996TIP3    H178479   3.225   0.123   0.693  2.4672 -2.7290 -1.1455
18996TIP3    H278480   3.259   0.078   0.834  0.3245  1.2499  0.8431
18997TIP3   OH278481   4.762   3.472   2.612 -0.9919  0.0293 -0.0567
18997TIP3    H178482   4.676   3.441   2.640 -0.6421  0.2994  1.3941
18997TIP3    H278483   4.754   3.482   2.517 -1.4316 -3.4265 -0.4852
18998TIP3   OH278484   4.452   2.965   0.528 -0.2795  0.0453  0.1205
18998TIP3    H178485   4.381   2.903   0.513 -1.9853  1.3360  2.1993
18998TIP3    H278486   4.532   2.913   0.522 -1.5734 -2.0765  0.5660
18999TIP3   OH278487   0.302   0.837   3.285 -0.0570 -0.0878 -0.6027
18999TIP3    H178488   0.334   0.766   3.230 -2.7949 -0.9250 -1.2995
18999TIP3    H278489   0.230   0.798   3.336 -1.0539  1.9421 -0.3296
19000TIP3   OH278490   3.888   6.223   0.023 -0.4030 -0.5366  0.2448
19000TIP3    H178491   3.952   6.160   0.056  0.5557  0.6325  0.7296
19000TIP3    H278492   3.806   6.196   0.063  0.2076 -0.8243  1.3724
19001TIP3   OH278493   1.319   1.152  16.238 -0.2504  0.3700  0.4171
19001TIP3    H178494   1.367   1.112  16.165 -0.8208 -0.1215  0.2985
19001TIP3    H278495   1.316   1.084  16.305 -1.4130  0.1182  0.1333
19002TIP3   OH278496   5.735   5.199   2.703 -0.7929 -0.4865 -0.2604
19002TIP3    H178497   5.756   5.264   2.769 -0.4067 -0.0802 -0.7735
19002TIP3    H278498   5.818   5.155   2.685 -0.4599  0.6861 -1.8275
19003TIP3   OH278499   4.584   0.780   4.163  0.0354 -0.3495  0.0012
19003TIP3    H178500   4.584   0.705   4.105  0.7640  0.0621 -0.5341
19003TIP3    H278501   4.509   0.833   4.134  0.2885 -0.2351 -0.4438
19004TIP3   OH278502   5.401   1.743   2.276 -0.2192  0.8939 -0.1569
19004TIP3    H178503   5.385   1.650   2.292  1.7512  0.6648  0.8996
19004TIP3    H278504   5.398   1.784   2.363 -0.1993  1.6667 -0.5066
19005TIP3   OH278505   3.782   4.955   1.822  0.4577  0.4856 -0.3743
19005TIP3    H178506   3.810   4.864   1.830  0.2770  0.2940 -1.7092
19005TIP3    H278507   3.736   4.973   1.904  1.6187 -0.2014  0.4587
19006TIP3   OH278508   1.228   3.236  13.697 -0.4022 -0.2335  0.3225
19006TIP3    H178509   1.257   3.304  13.637 -1.9827 -1.1024 -1.5056
19006TIP3    H278510   1.152   3.275  13.742  0.6168  0.3170  1.6623
19007TIP3   OH278511   1.015   0.460   2.558  0.1443  0.0295  0.6334
19007TIP3    H178512   1.050   0.454   2.469 -0.6445  1.8511  0.1470
19007TIP3    H278513   1.076   0.520   2.603 -0.0492 -0.0414  0.9964
19008TIP3   OH278514   6.593   4.084  16.382 -0.7172 -0.3538 -0.3220
19008TIP3    H178515   6.512   4.048  16.345 -0.7669  0.5262 -1.1291
19008TIP3    H278516   6.644   4.007  16.407 -1.5313 -0.9371 -0.4055
19009TIP3   OH278517   3.174   4.026  13.486 -0.4667 -0.0096  0.4517
19009TIP3    H178518   3.160   3.934  13.462 -1.6151 -0.1822  1.6544
19009TIP3    H278519   3.091   4.069  13.465  0.3294  0.9475 -0.8548
19010TIP3   OH278520   1.661   1.522  11.845 -0.2278  0.1181 -0.1817
19010TIP3    H178521   1.747   1.508  11.806  0.8336 -1.0106  2.3228
19010TIP3    H278522   1.660   1.464  11.921 -3.0579  0.4330  0.1236
19011TIP3   OH278523   4.182   6.508  10.672 -0.0359  0.0182 -0.2734
19011TIP3    H178524   4.197   6.494  10.579  2.1781 -0.9235  0.1640
19011TIP3    H278525   4.138   6.428  10.702 -1.8798  0.8341 -0.6972
19012TIP3   OH278526   6.312   2.738  13.588  0.3781 -0.2643  0.9220
19012TIP3    H178527   6.314   2.829  13.557 -1.3925 -0.5293 -0.0952
19012TIP3    H278528   6.375   2.692  13.532 -2.1513 -0.5608 -1.8864
19013TIP3   OH278529   0.491   0.857  15.554 -0.0183  0.6074  0.3908
19013TIP3    H178530   0.437   0.863  15.476  1.4822 -0.4137 -0.7796
19013TIP3    H278531   0.551   0.931  15.547  0.7336 -0.0237  0.0689
19014TIP3   OH278532   1.151   6.113   1.621  0.0263 -0.2850 -0.5226
19014TIP3    H178533   1.130   6.175   1.551  0.4105  0.4394 -0.0118
19014TIP3    H278534   1.184   6.168   1.692 -0.1781 -1.0245  0.1597
19015TIP3   OH278535   0.100   3.228   6.049  0.3805  0.3055 -0.2834
19015TIP3    H178536   0.090   3.226   5.954  1.3985 -2.6584 -0.4241
19015TIP3    H278537   0.173   3.289   6.064 -0.3336  1.4535 -1.2877
19016TIP3   OH278538   1.245   1.954   5.515 -0.0314  0.1150  0.5951
19016TIP3    H178539   1.152   1.972   5.534 -0.3873 -0.1242 -0.8136
19016TIP3    H278540   1.288   1.958   5.601 -1.6652 -1.8176  1.5858
19017TIP3   OH278541   4.389   1.543   1.484 -0.2474 -0.3615 -0.0545
19017TIP3    H178542   4.474   1.526   1.444 -0.6809 -1.0840 -0.6932
19017TIP3    H278543   4.409   1.599   1.559  0.6310  0.7274 -1.0624
19018TIP3   OH278544   3.686   3.437   3.511  0.5952  0.5693  0.2290
19018TIP3    H178545   3.699   3.402   3.599 -0.3089  0.9766  0.5425
19018TIP3    H278546   3.731   3.522   3.512 -0.2272  1.0204  0.6322
19019TIP3   OH278547   4.240   3.410  17.183 -0.2264 -0.4000 -0.2674
19019TIP3    H178548   4.227   3.348  17.255 -0.7066  0.0244  0.0201
19019TIP3    H278549   4.230   3.496  17.224 -1.1660 -0.1607 -0.9682
19020TIP3   OH278550   6.611   5.893   2.259  0.2438 -0.1722  0.2184
19020TIP3    H178551   6.559   5.832   2.206 -0.5189 -0.0682  0.8203
19020TIP3    H278552   6.548   5.929   2.321  1.0199  0.0689  0.8761
19021TIP3   OH278553   1.437   1.729   3.024 -0.1758  0.2111 -0.2928
19021TIP3    H178554   1.355   1.767   3.056  1.2513  1.5888  2.0181
19021TIP3    H278555   1.439   1.752   2.931 -1.7997  1.2866 -0.1097
19022TIP3   OH278556   6.457   3.430  15.204  0.2738  0.0631 -0.1883
19022TIP3    H178557   6.491   3.504  15.255  1.0175 -1.0066  0.9283
19022TIP3    H278558   6.368   3.455  15.182  0.4262  1.1863  0.3911
19023TIP3   OH278559   4.506   4.019   3.552 -0.2958  0.2749 -0.2690
19023TIP3    H178560   4.416   4.033   3.522 -0.8856 -0.0492  1.2441
19023TIP3    H278561   4.524   3.927   3.532 -0.7201  0.0341  0.4171
19024TIP3   OH278562   3.662   6.522  16.630  0.4782 -0.1954 -0.3738
19024TIP3    H178563   3.678   6.548  16.721  2.2657 -0.7226 -0.5075
19024TIP3    H278564   3.652   6.427  16.634  0.6316 -0.2250 -0.7405
19025TIP3   OH278565   4.482   3.479  11.747 -0.0892 -0.0472  0.0609
19025TIP3    H178566   4.448   3.452  11.662  2.1584  3.1047 -2.0875
19025TIP3    H278567   4.565   3.432  11.756  0.4497  0.7955 -0.3331
19026TIP3   OH278568   0.753   1.119   4.707  0.3252  0.4049 -0.1399
19026TIP3    H178569   0.721   1.187   4.649  0.4545 -1.8415 -3.0902
19026TIP3    H278570   0.674   1.078   4.743  0.2459  1.7578  1.3517
19027TIP3   OH278571   0.192   5.083   2.628  0.2496  0.2370  0.3227
19027TIP3    H178572   0.131   5.100   2.700  1.7638  1.8078  1.3226
19027TIP3    H278573   0.274   5.125   2.656  0.2783  3.1171 -3.2844
19028TIP3   OH278574   0.373   2.627  16.566  0.3277 -0.1144 -0.0013
19028TIP3    H178575   0.458   2.587  16.587  0.6016  0.3595 -0.1798
19028TIP3    H278576   0.396   2.714  16.532 -0.0110 -1.2402 -3.4998
19029TIP3   OH278577   0.200   4.556   1.528  0.4511 -0.7268 -0.7211
19029TIP3    H178578   0.168   4.514   1.607 -2.4891  1.0269 -0.8479
19029TIP3    H278579   0.280   4.601   1.555  0.7241 -1.9666  0.6493
19030TIP3   OH278580   6.632   2.888  13.403 -0.2335 -0.2409 -0.0216
19030TIP3    H178581   6.687   2.861  13.477  0.6318  0.7929 -0.2568
19030TIP3    H278582   6.694   2.903  13.331 -1.0695 -1.3196 -1.0000
19031TIP3   OH278583   5.311   3.717   2.847 -0.0523  0.2656  0.2646
19031TIP3    H178584   5.352   3.633   2.828 -1.0186 -0.9307  2.9635
19031TIP3    H278585   5.328   3.770   2.770  1.3421 -2.1100 -1.1770
19032TIP3   OH278586   3.153   6.172  16.107  0.4211  0.6135 -0.1095
19032TIP3    H178587   3.216   6.150  16.039  0.0398 -0.0468 -0.2586
19032TIP3    H278588   3.178   6.260  16.136  1.2772  0.4386 -0.3022
19033TIP3   OH278589   0.500   5.690  16.634  0.2390  0.3252 -0.6137
19033TIP3    H178590   0.565   5.760  16.642  1.2412 -0.7513  1.8273
19033TIP3    H278591   0.552   5.612  16.613 -0.3379 -0.3703  0.4215
19034TIP3   OH278592   5.868   2.070   1.033  0.3507  0.3445 -0.6365
19034TIP3    H178593   5.919   2.116   0.966 -0.8743 -1.1866 -2.7734
19034TIP3    H278594   5.821   2.002   0.984  1.0164 -2.3017  2.1229
19035TIP3   OH278595   6.176   4.659   4.188  0.0593  0.2557  0.8179
19035TIP3    H178596   6.229   4.667   4.108  3.2704  2.2002  2.9174
19035TIP3    H278597   6.086   4.660   4.156  1.1608 -0.2781 -2.8343
19036TIP3   OH278598   3.064   2.016   2.563 -0.3078  0.3366 -0.3987
19036TIP3    H178599   3.118   2.041   2.488  0.7048  1.5633  0.6825
19036TIP3    H278600   3.123   1.965   2.619 -1.3355 -1.4489 -0.8513
19037TIP3   OH278601   1.063   2.580   1.666  0.2548 -0.1002  0.5715
19037TIP3    H178602   0.972   2.554   1.679  0.4750 -0.6450  1.0832
19037TIP3    H278603   1.100   2.511   1.611  0.2691  0.3090  0.0617
19038TIP3   OH278604   2.209   6.307  17.170  0.4326  0.3810  1.0584
19038TIP3    H178605   2.163   6.383  17.134  0.4341 -0.4463 -0.8098
19038TIP3    H278606   2.301   6.334  17.175  0.2431  0.9410  1.7245
19039TIP3   OH278607   1.044   1.746  12.092 -0.5156  0.7540  0.2991
19039TIP3    H178608   1.002   1.672  12.137  1.7134 -1.3264 -0.8093
19039TIP3    H278609   1.067   1.711  12.006 -1.1697  3.4272 -1.0791
19040TIP3   OH278610   4.133   2.458   2.086 -0.3601 -0.1263  0.3343
19040TIP3    H178611   4.070   2.395   2.121 -0.3877 -0.5238 -0.4229
19040TIP3    H278612   4.159   2.510   2.162 -1.1747 -0.3241  0.7578
19041TIP3   OH278613   5.620   1.435   2.141  0.0251  0.3510  0.7544
19041TIP3    H178614   5.532   1.463   2.168 -0.2058 -1.4418  1.9878
19041TIP3    H278615   5.648   1.374   2.209  0.7719 -1.8367 -1.3672
19042TIP3   OH278616   4.188   3.869   0.100  0.0670 -0.5941  0.4581
19042TIP3    H178617   4.227   3.810   0.035  0.3741 -0.6884  0.7250
19042TIP3    H278618   4.124   3.921   0.050  0.9091 -0.0638 -0.0942
19043TIP3   OH278619   4.986   3.271   2.438 -0.2874 -0.2072  0.6945
19043TIP3    H178620   5.079   3.267   2.457  0.3063  2.6643 -1.0330
19043TIP3    H278621   4.980   3.308   2.350 -3.0636 -0.9407  0.4657
19044TIP3   OH278622   4.991   2.819   6.217 -0.0527 -0.3698 -0.1385
19044TIP3    H178623   5.050   2.887   6.250  0.4743 -0.4002 -0.9780
19044TIP3    H278624   5.036   2.785   6.139 -0.1525 -1.8928  0.4314
19045TIP3   OH278625   5.108   1.046   6.121 -0.1083 -0.2982 -0.6126
19045TIP3    H178626   5.184   0.993   6.096 -0.8100 -1.0930 -1.0925
19045TIP3    H278627   5.146   1.130   6.148  0.9780 -0.8514 -0.3602
19046TIP3   OH278628   5.047   5.142   3.279 -0.0130  0.6293  0.4749
19046TIP3    H178629   5.002   5.200   3.340 -1.0307  0.2172  0.1280
19046TIP3    H278630   5.014   5.054   3.300  3.0752 -0.2362  2.4899
19047TIP3   OH278631   6.652   0.488   5.592  0.6299  0.2820 -0.5051
19047TIP3    H178632   6.611   0.572   5.611  1.6780  1.0890 -1.5923
19047TIP3    H278633   6.600   0.451   5.520  0.3685  0.1473 -0.2494
19048TIP3   OH278634   4.395   1.941   5.402 -0.3703  0.3249  0.3931
19048TIP3    H178635   4.467   1.954   5.340  2.0097 -0.0539  2.8694
19048TIP3    H278636   4.386   1.846   5.408  0.2379  0.3216  1.4441
19049TIP3   OH278637   5.805   4.526   1.407  0.0513 -0.2720 -0.6218
19049TIP3    H178638   5.834   4.478   1.329 -0.0318 -0.3017 -0.6348
19049TIP3    H278639   5.754   4.462   1.456  0.1901 -0.2841 -0.4906
19050TIP3   OH278640   6.227   2.657   6.677  0.2018 -0.2731  1.1688
19050TIP3    H178641   6.240   2.705   6.596  2.1169 -0.1455  1.4991
19050TIP3    H278642   6.214   2.567   6.650  3.5192 -0.7432  0.7071
19051TIP3   OH278643   1.037   4.303   3.418  0.5315  0.6734  0.3756
19051TIP3    H178644   1.048   4.397   3.436  0.0475  1.5489 -3.1431
19051TIP3    H278645   1.099   4.285   3.347  0.5682 -1.6990  0.9324
19052TIP3   OH278646   4.368   2.661  14.502 -0.2196 -0.3350  0.3667
19052TIP3    H178647   4.302   2.626  14.562 -0.1520  0.6600  1.0564
19052TIP3    H278648   4.402   2.738  14.548 -0.0691  0.3743 -0.8982
19053TIP3   OH278649   2.462   1.740   0.182  0.7113  1.1701  0.4058
19053TIP3    H178650   2.436   1.775   0.267  0.6250  0.3243  0.7444
19053TIP3    H278651   2.524   1.804   0.147  0.9050  1.4275  1.2017
19054TIP3   OH278652   6.795   1.941  14.853 -0.1378  0.0845 -0.0567
19054TIP3    H178653   6.709   1.911  14.824 -0.4065  1.1548 -0.4380
19054TIP3    H278654   6.781   1.970  14.943 -0.3302  0.8380 -0.3240
19055TIP3   OH278655   4.235   2.131   4.354 -0.4872  0.2374 -0.6418
19055TIP3    H178656   4.183   2.197   4.308 -1.3609  0.3531  0.4904
19055TIP3    H278657   4.171   2.074   4.395  0.2637 -0.9490 -1.0492
19056TIP3   OH278658   5.968   2.156  13.622  0.4206  0.2048  0.3295
19056TIP3    H178659   6.026   2.154  13.545 -0.4479  0.8221 -0.3644
19056TIP3    H278660   5.903   2.223  13.601 -0.7767 -0.7232  0.9166
19057TIP3   OH278661   4.885   1.736  12.394  0.9279  0.2098  0.3069
19057TIP3    H178662   4.891   1.831  12.394  1.5539  0.2160  2.2752
19057TIP3    H278663   4.909   1.710  12.305  0.8595  1.8645 -0.2251
19058TIP3   OH278664   2.912   1.785  11.141 -0.0564  0.1936 -0.0152
19058TIP3    H178665   2.908   1.877  11.115  0.7131  0.5259  0.9702
19058TIP3    H278666   2.956   1.741  11.068  2.1519  1.1149  0.6814
19059TIP3   OH278667   2.933   4.792   2.952  0.4270 -0.4773 -0.2365
19059TIP3    H178668   3.017   4.760   2.920  0.6447 -0.3047  0.1605
19059TIP3    H278669   2.946   4.805   3.046  0.7321  1.9657 -0.5604
19060TIP3   OH278670   4.206   5.335  16.739 -0.3448 -1.1195 -0.7004
19060TIP3    H178671   4.157   5.293  16.668 -0.7738  0.5571 -1.4285
19060TIP3    H278672   4.292   5.354  16.702 -1.0730  1.2040 -1.3745
19061TIP3   OH278673   1.393   6.343  12.604  0.2248 -0.1283 -0.2328
19061TIP3    H178674   1.396   6.266  12.660  1.9681  0.9880  1.3526
19061TIP3    H278675   1.334   6.404  12.650 -0.0243  0.0092 -0.7296
19062TIP3   OH278676   4.861   2.065  15.937 -0.2695  0.0892 -0.3752
19062TIP3    H178677   4.800   2.008  15.891 -1.2812 -0.0645  1.0654
19062TIP3    H278678   4.897   2.011  16.007  2.1165 -0.0300 -1.5953
19063TIP3   OH278679   6.621   3.693  15.268  0.1701 -0.2159 -0.3122
19063TIP3    H178680   6.683   3.622  15.280 -0.7605 -0.6137  2.8787
19063TIP3    H278681   6.669   3.772  15.292  0.2172 -0.1607 -0.5765
19064TIP3   OH278682   4.110   3.340   5.223  0.2131  0.1263  0.1137
19064TIP3    H178683   4.078   3.289   5.148 -0.4999 -0.4605  0.7936
19064TIP3    H278684   4.081   3.430   5.205 -1.1278 -0.2454  0.3029
19065TIP3   OH278685   5.079   6.130  16.866 -0.4030  0.2500 -0.3907
19065TIP3    H178686   5.057   6.069  16.795  1.0582 -0.1250 -0.5496
19065TIP3    H278687   5.126   6.201  16.823 -1.1664  0.9806 -0.0445
19066TIP3   OH278688   3.038   1.270   4.462 -0.4527 -0.0149 -0.5312
19066TIP3    H178689   2.972   1.212   4.424 -0.8560  0.8979 -1.2787
19066TIP3    H278690   3.053   1.236   4.550 -3.5597  1.0012  0.5059
19067TIP3   OH278691   0.660   3.170   0.319  0.1256  0.0643 -0.6554
19067TIP3    H178692   0.693   3.259   0.309  0.3255 -0.1382 -1.9102
19067TIP3    H278693   0.731   3.122   0.360  0.2276  0.3506 -0.4958
19068TIP3   OH278694   4.796   6.519   0.954  0.2621  0.2832  0.4963
19068TIP3    H178695   4.817   6.425   0.960  0.6437  0.2453 -1.1093
19068TIP3    H278696   4.729   6.523   0.885  1.3511  1.3489 -0.5222
19069TIP3   OH278697   3.273   4.484   5.865  0.2114 -0.2636 -0.0906
19069TIP3    H178698   3.315   4.481   5.779  0.2119 -0.2103 -0.0922
19069TIP3    H278699   3.241   4.394   5.879 -2.3233  0.3416 -1.3758
19070TIP3   OH278700   3.603   1.617  17.009  0.4863  0.0068 -0.2208
19070TIP3    H178701   3.694   1.624  16.980  1.1924  0.7132  1.9963
19070TIP3    H278702   3.559   1.571  16.937  2.0165  1.8114 -2.4774
19071TIP3   OH278703   3.374   1.678   6.422 -0.0653 -0.3241 -0.3359
19071TIP3    H178704   3.320   1.680   6.501  0.7747 -2.0395  0.3262
19071TIP3    H278705   3.421   1.595   6.427  2.6107  1.0317 -0.8938
19072TIP3   OH278706   2.953   2.994   3.274 -0.2190  0.7001 -0.5724
19072TIP3    H178707   3.003   2.963   3.198 -1.7651 -0.3079 -1.2447
19072TIP3    H278708   2.988   2.945   3.348  0.2020  0.4625 -0.9237
19073TIP3   OH278709   3.429   2.334   6.128 -0.5120  0.0262  0.0299
19073TIP3    H178710   3.480   2.256   6.106 -2.1197 -0.8358 -0.8062
19073TIP3    H278711   3.355   2.300   6.178 -1.7494  0.8747 -1.1582
19074TIP3   OH278712   5.001   0.037  15.681  0.4297  0.2178  0.0797
19074TIP3    H178713   5.031   0.074  15.598  0.0368  0.5391  0.0733
19074TIP3    H278714   4.921   0.086  15.700 -0.7143 -1.3640 -0.4668
19075TIP3   OH278715   6.452   1.534  12.440  0.1599  0.0880 -0.0705
19075TIP3    H178716   6.426   1.536  12.532  0.7780 -0.1750  0.1163
19075TIP3    H278717   6.432   1.445  12.411 -3.4600  1.1268 -1.2391
19076TIP3   OH278718   6.831   3.613  10.318  1.0957 -0.5495 -0.2702
19076TIP3    H178719   6.903   3.664  10.354  1.6637  0.8006 -3.0317
19076TIP3    H278720   6.872   3.532  10.288  1.3222 -0.1806 -0.9866
19077TIP3   OH278721   0.488   2.372  10.970 -0.0494 -0.0239 -0.6219
19077TIP3    H178722   0.430   2.439  10.932 -0.4037 -0.5893 -1.0993
19077TIP3    H278723   0.452   2.289  10.938  1.4959 -0.3516 -1.5668
19078TIP3   OH278724   4.708   5.201  11.890 -0.2977 -0.1491 -0.6553
19078TIP3    H178725   4.736   5.293  11.890 -2.9084  0.7252 -0.6116
19078TIP3    H278726   4.699   5.178  11.982  0.0379 -0.3516 -0.6715
19079TIP3   OH278727   1.621   1.480   2.658  0.6856  0.6032 -0.0198
19079TIP3    H178728   1.592   1.570   2.668  0.3761  0.7208 -1.7029
19079TIP3    H278729   1.696   1.485   2.600  0.3146 -0.2562 -0.5997
19080TIP3   OH278730   5.789   1.177   3.307  0.0729  0.3277 -0.4878
19080TIP3    H178731   5.712   1.229   3.285  0.1704  0.6989  0.0136
19080TIP3    H278732   5.823   1.148   3.223 -1.0068 -0.4328 -0.6747
19081TIP3   OH278733   3.703   1.592   0.612  0.2157  0.7875  0.1635
19081TIP3    H178734   3.727   1.685   0.619  1.2550  0.4890  0.7088
19081TIP3    H278735   3.668   1.584   0.523 -0.5284  1.8342  0.3318
19082TIP3   OH278736   2.399   5.493  14.096  0.0106  0.0337 -0.1722
19082TIP3    H178737   2.370   5.511  14.006  0.2727  0.7081 -0.1273
19082TIP3    H278738   2.386   5.576  14.142  0.9126  0.0181  0.1352
19083TIP3   OH278739   1.068   1.641   4.862  0.2587  0.6798  0.2451
19083TIP3    H178740   0.994   1.640   4.922 -1.8843 -3.6165 -1.9772
19083TIP3    H278741   1.125   1.570   4.892  0.7578  0.5484 -0.9489
19084TIP3   OH278742   3.166   5.960  11.824 -0.2809  0.2328 -0.0082
19084TIP3    H178743   3.118   5.880  11.802  0.1338  0.0792 -0.3672
19084TIP3    H278744   3.242   5.930  11.873  1.3212  0.1195 -2.3836
19085TIP3   OH278745   4.452   5.894  14.482  0.1750 -0.3746 -0.4022
19085TIP3    H178746   4.544   5.912  14.499  0.1854 -0.3887 -0.4424
19085TIP3    H278747   4.424   5.966  14.425  0.1788 -0.4062 -0.4444
19086TIP3   OH278748   4.137   6.074   2.536  0.1506  0.1837 -0.1711
19086TIP3    H178749   4.154   5.998   2.592  0.9958  0.3460 -0.1944
19086TIP3    H278750   4.144   6.149   2.595  0.8253  0.3427 -0.4518
19087TIP3   OH278751   6.367   3.148   2.392 -0.0398  0.3527  0.8933
19087TIP3    H178752   6.381   3.162   2.486 -2.7572 -1.0086  1.6067
19087TIP3    H278753   6.357   3.054   2.383  1.8861  0.2719 -1.1023
19088TIP3   OH278754   0.595   0.420  12.121  0.0157 -1.0839  0.3135
19088TIP3    H178755   0.564   0.336  12.086 -0.8926 -0.7458  0.2735
19088TIP3    H278756   0.520   0.479  12.112 -0.1966 -0.8990  2.6054
19089TIP3   OH278757   3.975   4.595   3.264  0.4555 -0.2283 -0.2701
19089TIP3    H178758   3.889   4.629   3.289  0.3449  0.2029 -1.1948
19089TIP3    H278759   4.037   4.649   3.314  0.2312  0.4969 -0.7535
19090TIP3   OH278760   2.768   4.449   5.193 -0.4382  0.2628 -0.0856
19090TIP3    H178761   2.735   4.419   5.278 -3.2934  0.0910 -1.1430
19090TIP3    H278762   2.792   4.369   5.147  2.1289  0.4144  0.8538
19091TIP3   OH278763   3.242   2.938   4.429 -0.2190 -0.2984  0.5786
19091TIP3    H178764   3.201   3.024   4.431 -0.5136 -0.4378  2.0722
19091TIP3    H278765   3.174   2.878   4.462 -0.2600 -1.2304 -1.0882
19092TIP3   OH278766   2.989   0.404  15.979  0.3565 -0.1651 -0.3742
19092TIP3    H178767   3.049   0.434  15.911  0.5308 -0.2135 -0.2411
19092TIP3    H278768   2.950   0.485  16.014  1.3181 -0.0336  0.4398
19093TIP3   OH278769   6.358   0.125  16.585 -0.1207 -0.2702  0.6275
19093TIP3    H178770   6.355   0.139  16.679  1.5997  0.7647  0.5631
19093TIP3    H278771   6.269   0.143  16.555 -0.6443 -0.4681  2.0210
19094TIP3   OH278772   2.484   1.984   3.061 -0.1482 -0.1214 -0.4029
19094TIP3    H178773   2.492   1.891   3.080 -1.2759  0.0815  1.3167
19094TIP3    H278774   2.544   1.999   2.988  0.7563 -2.0035 -0.1114
19095TIP3   OH278775   5.529   0.848  12.624 -0.2086 -0.1909 -0.3147
19095TIP3    H178776   5.568   0.928  12.658 -0.2909 -0.9285  1.5992
19095TIP3    H278777   5.444   0.876  12.588  1.2164  1.1216 -2.9149
19096TIP3   OH278778   3.919   4.171   6.277 -0.5517 -0.5040  0.1767
19096TIP3    H178779   3.873   4.087   6.268 -1.9508  0.3562 -1.6909
19096TIP3    H278780   3.887   4.208   6.359 -0.7115 -1.3485  0.5016
19097TIP3   OH278781   0.345   5.150   0.737  0.0623  0.0518 -0.8213
19097TIP3    H178782   0.264   5.193   0.763  0.0317 -0.1269 -0.6240
19097TIP3    H278783   0.414   5.211   0.763  0.1795 -1.0148  1.6110
19098TIP3   OH278784   5.093   2.841   1.303 -0.1114  0.0247 -0.7242
19098TIP3    H178785   5.017   2.893   1.331  0.6336  0.2373  0.9986
19098TIP3    H278786   5.065   2.800   1.221 -1.6761  1.0026 -0.7125
19099TIP3   OH278787   3.219   0.094   2.079  0.1916  0.2054 -0.0201
19099TIP3    H178788   3.156   0.158   2.044 -0.0721 -1.1725 -2.2382
19099TIP3    H278789   3.267   0.142   2.147 -1.4466  2.0832 -0.1083
19100TIP3   OH278790   0.850   6.072  10.335  0.2488  0.6368 -0.1632
19100TIP3    H178791   0.879   6.123  10.410  1.4322  0.7889 -0.7009
19100TIP3    H278792   0.779   6.124  10.296 -0.8898  0.1911  1.2532
19101TIP3   OH278793   3.925   6.531  16.003  0.6378  0.2394  0.0446
19101TIP3    H178794   3.837   6.568  16.011  0.3794 -0.2420 -0.5048
19101TIP3    H278795   3.978   6.604  15.969 -0.0058 -0.0293 -1.6542
19102TIP3   OH278796   3.457   5.067   4.208 -0.3343 -0.3982  0.3683
19102TIP3    H178797   3.410   5.132   4.155  1.0441 -0.9725 -1.6849
19102TIP3    H278798   3.534   5.114   4.240 -0.2606 -0.5285  0.3818
19103TIP3   OH278799   5.023   6.235   5.417  0.1469 -0.3822  0.4708
19103TIP3    H178800   5.049   6.224   5.508  2.6003 -3.4968 -0.4205
19103TIP3    H278801   4.952   6.172   5.405 -1.0259  0.9030  0.4716
19104TIP3   OH278802   1.855   2.448   1.160  0.4148 -0.2717  0.3269
19104TIP3    H178803   1.838   2.533   1.200  0.0758  0.8120 -1.9719
19104TIP3    H278804   1.951   2.442   1.157  0.4444 -0.2991  1.1153
19105TIP3   OH278805   4.281   1.457   3.341  0.7263  0.0874 -0.1354
19105TIP3    H178806   4.218   1.509   3.290  0.7311 -0.0814 -0.3121
19105TIP3    H278807   4.348   1.432   3.278  0.4471 -0.5922 -0.1745
19106TIP3   OH278808   4.487   0.679  16.809  0.0273  0.0651  0.3220
19106TIP3    H178809   4.550   0.614  16.776 -1.7032 -0.6730 -1.7461
19106TIP3    H278810   4.505   0.683  16.903  2.5105 -0.7884 -0.0203
19107TIP3   OH278811   1.850   5.225   4.688 -0.3221 -0.8195  0.5406
19107TIP3    H178812   1.938   5.203   4.719 -0.9138 -1.5977  1.7451
19107TIP3    H278813   1.856   5.217   4.593  1.4018  1.0849  0.4275
19108TIP3   OH278814   4.134   0.761  12.605  0.4918 -0.2726 -0.3735
19108TIP3    H178815   4.104   0.813  12.680 -0.0400 -0.3911 -0.4989
19108TIP3    H278816   4.106   0.672  12.625  0.2544 -0.2860 -0.7662
19109TIP3   OH278817   5.249   3.569   3.316  0.6594 -0.5215 -0.4049
19109TIP3    H178818   5.222   3.603   3.402 -1.3607  0.1527 -1.2554
19109TIP3    H278819   5.312   3.500   3.337 -0.8585 -1.3742  1.7184
19110TIP3   OH278820   1.297   6.778   1.340  0.5354 -0.0134 -0.0369
19110TIP3    H178821   1.383   6.785   1.299  0.9527  0.1267  0.8285
19110TIP3    H278822   1.242   6.841   1.292  0.6252 -0.8576 -1.2755
19111TIP3   OH278823   2.256   3.924   3.732  0.1218  0.1505  0.4777
19111TIP3    H178824   2.219   3.843   3.696  1.3031 -1.0955  1.9498
19111TIP3    H278825   2.207   3.939   3.813 -0.9063  1.6195 -0.3690
19112TIP3   OH278826   4.497   5.915  11.639 -0.4708 -0.2145 -0.6389
19112TIP3    H178827   4.566   5.855  11.667 -1.8303 -1.7264 -0.3909
19112TIP3    H278828   4.484   5.896  11.546 -0.9119 -0.3284 -0.5584
19113TIP3   OH278829   3.735   6.778   2.407  0.1952 -0.7423 -0.4183
19113TIP3    H178830   3.695   6.694   2.387 -0.7250 -0.2598 -0.6432
19113TIP3    H278831   3.662   6.833   2.436  0.5248  0.4367 -1.7389
19114TIP3   OH278832   5.934   0.926  12.093  0.9609  0.1863 -0.3268
19114TIP3    H178833   5.961   0.979  12.018 -0.0363  1.4953  0.2083
19114TIP3    H278834   5.844   0.953  12.110  0.4033 -1.7315 -0.0458
19115TIP3   OH278835   4.514   1.136   5.553  0.2263  0.1162 -0.3346
19115TIP3    H178836   4.505   1.068   5.487 -1.1123  0.2835 -0.3668
19115TIP3    H278837   4.528   1.217   5.504  1.3137 -0.0534 -0.3168
19116TIP3   OH278838   3.339   1.287   5.624 -0.4268  0.2792 -0.0451
19116TIP3    H178839   3.364   1.236   5.701  1.1932 -0.6896 -1.1599
19116TIP3    H278840   3.406   1.355   5.617 -0.1958 -0.0269 -0.9492
19117TIP3   OH278841   5.489   1.880  16.119 -0.1775  0.0816 -0.7386
19117TIP3    H178842   5.535   1.937  16.057 -1.9748  1.7489 -0.6253
19117TIP3    H278843   5.544   1.881  16.197 -0.1068  1.5997 -0.7752
19118TIP3   OH278844   1.298   1.126   0.447  0.3407  0.0550  0.1347
19118TIP3    H178845   1.281   1.220   0.433  1.0968 -0.0265 -1.6679
19118TIP3    H278846   1.316   1.118   0.540 -3.4541  1.0743  1.1321
19119TIP3   OH278847   6.486   1.286  14.564  0.1954  0.0379 -0.2168
19119TIP3    H178848   6.489   1.333  14.647  1.0382 -0.2661 -0.0532
19119TIP3    H278849   6.472   1.195  14.589  2.4431 -0.3863 -0.2133
19120TIP3   OH278850   5.740   0.325   4.735 -0.0255 -0.3016  0.6163
19120TIP3    H178851   5.701   0.348   4.651  1.3851  1.3040  0.3551
19120TIP3    H278852   5.804   0.256   4.714  0.2345  0.0081  0.3847
19121TIP3   OH278853   3.538   1.685   5.542 -0.2410  0.2442 -0.2455
19121TIP3    H178854   3.568   1.605   5.586  1.5612  0.6952 -0.5564
19121TIP3    H278855   3.532   1.749   5.613 -0.5429  0.1319 -0.1693
19122TIP3   OH278856   5.726   6.268  15.250 -0.1696 -0.5559  0.4043
19122TIP3    H178857   5.707   6.319  15.330 -2.8832 -0.3533 -0.2554
19122TIP3    H278858   5.794   6.318  15.205 -1.1135  1.2750  0.9070
19123TIP3   OH278859   0.909   2.560   1.279  0.8541  0.4517  0.1139
19123TIP3    H178860   0.940   2.612   1.204 -2.6081  0.6362 -1.3747
19123TIP3    H278861   0.869   2.483   1.239 -0.8518  0.4195  1.7897
19124TIP3   OH278862   0.616   5.846  12.155  0.2867 -0.0130  0.7519
19124TIP3    H178863   0.683   5.874  12.218  0.7327 -0.6472  0.5716
19124TIP3    H278864   0.666   5.801  12.086 -0.3470 -0.6072  0.6809
19125TIP3   OH278865   6.392   4.595   1.923 -0.2849  0.2469 -0.1100
19125TIP3    H178866   6.314   4.579   1.869  1.2260  0.3744 -2.4725
19125TIP3    H278867   6.430   4.509   1.937  0.2667  0.3803 -0.7600
19126TIP3   OH278868   3.057   4.038   5.311  0.1918 -0.0776  0.3160
19126TIP3    H178869   3.141   4.083   5.298  1.0585 -1.1375  1.9604
19126TIP3    H278870   3.081   3.952   5.345 -1.5639 -0.5985  0.3192
19127TIP3   OH278871   1.630   3.418   5.355  0.1024  0.1146 -0.5346
19127TIP3    H178872   1.675   3.471   5.421  0.1598 -0.8877  0.2553
19127TIP3    H278873   1.671   3.332   5.361 -0.6635 -0.3056 -1.0862
19128TIP3   OH278874   4.463   4.644   6.043 -0.0733  0.2326 -0.1239
19128TIP3    H178875   4.420   4.608   5.965  0.0886  0.1838 -0.1914
19128TIP3    H278876   4.394   4.693   6.088 -0.0647  0.6049 -0.5137
19129TIP3   OH278877   3.062   1.882  13.928 -0.3605 -0.0519  0.3161
19129TIP3    H178878   3.136   1.934  13.959  0.6252  0.2127 -2.1834
19129TIP3    H278879   3.037   1.828  14.003  2.1271  0.1293  1.3822
19130TIP3   OH278880   2.256   5.757  13.171  0.4240  0.0399  0.0505
19130TIP3    H178881   2.340   5.759  13.217  0.4079  1.8623  0.0993
19130TIP3    H278882   2.206   5.689  13.215  1.4558 -0.2549  0.8144
19131TIP3   OH278883   3.086   4.603  14.245  0.3395 -0.1361  0.1616
19131TIP3    H178884   3.075   4.688  14.288 -0.4487 -0.1587  0.0291
19131TIP3    H278885   3.120   4.545  14.313 -1.9521 -0.4631  1.1324
19132TIP3   OH278886   2.359   6.179   6.152 -0.1957 -0.0793 -0.1237
19132TIP3    H178887   2.362   6.179   6.056  0.6267  2.4126 -0.1559
19132TIP3    H278888   2.450   6.168   6.178 -0.3355 -0.0758  0.3644
19133TIP3   OH278889   5.934   2.982   1.992 -0.7746 -0.3914 -0.6686
19133TIP3    H178890   5.967   2.997   1.903 -1.6713  0.1193 -0.9159
19133TIP3    H278891   5.894   2.895   1.988  2.4309 -2.1123  0.2052
19134TIP3   OH278892   0.998   1.076  15.388 -0.1622 -0.1860  0.0191
19134TIP3    H178893   1.058   1.149  15.404  0.5114 -0.3269 -1.6617
19134TIP3    H278894   0.960   1.058  15.474  0.6809  1.2334  0.7419
19135TIP3   OH278895   4.468   0.882  12.021 -0.2360 -0.1830  0.4685
19135TIP3    H178896   4.413   0.810  11.990  1.4994 -1.4715  0.1779
19135TIP3    H278897   4.496   0.855  12.108  0.8161 -0.1305  0.1704
19136TIP3   OH278898   2.108   6.659   4.013 -0.3594  0.3793 -0.1310
19136TIP3    H178899   2.164   6.686   3.940  0.0945 -0.0954  0.0312
19136TIP3    H278900   2.032   6.619   3.972 -0.7849  1.4003 -0.3647
19137TIP3   OH278901   6.720   1.443   0.387 -0.4470 -0.2206  0.3176
19137TIP3    H178902   6.746   1.515   0.444 -2.3603  1.2305 -0.5295
19137TIP3    H278903   6.702   1.370   0.446  0.1626  0.4131  1.3133
19138TIP3   OH278904   1.962   0.944  13.511 -0.5674 -0.4432  0.1556
19138TIP3    H178905   1.892   1.007  13.525 -0.4594 -0.2822 -0.0250
19138TIP3    H278906   1.918   0.859  13.509 -0.9584 -0.2310 -1.4197
19139TIP3   OH278907   2.120   1.036   1.774 -0.7045 -0.0594 -0.3100
19139TIP3    H178908   2.048   1.092   1.805 -0.3071  0.2323  0.1048
19139TIP3    H278909   2.136   1.066   1.684  0.5784  1.6539  0.4181
19140TIP3   OH278910   1.715   1.867   0.326 -0.1077  0.1502  0.0036
19140TIP3    H178911   1.785   1.827   0.276 -1.1011 -1.2161 -0.3398
19140TIP3    H278912   1.690   1.944   0.275  1.9011  1.3559  0.7402
19141TIP3   OH278913   4.292   3.440  14.155 -0.3007  0.5238  0.2642
19141TIP3    H178914   4.331   3.353  14.154  0.3626  0.8153 -0.9372
19141TIP3    H278915   4.350   3.493  14.100 -1.4065  1.4136 -0.0769
19142TIP3   OH278916   5.267   1.987   2.210 -0.1429 -0.0861  0.1009
19142TIP3    H178917   5.220   1.904   2.197  1.4155 -0.9251 -0.4665
19142TIP3    H278918   5.308   1.978   2.296 -0.2559  0.2470  0.1898
19143TIP3   OH278919   2.491   6.831  12.166 -0.0221  0.2018 -0.5577
19143TIP3    H178920   2.565   6.779  12.133  0.9311  1.1866 -0.0503
19143TIP3    H278921   2.517   6.854  12.255 -0.8450  0.7721 -0.4556
19144TIP3   OH278922   5.298   5.931  15.862  0.5520  0.1883  0.1753
19144TIP3    H178923   5.358   5.999  15.831  1.1063 -0.6451 -0.5981
19144TIP3    H278924   5.220   5.979  15.890 -0.6923  0.9702 -3.9484
19145TIP3   OH278925   4.588   4.213  12.285  0.2307  0.7329 -0.1525
19145TIP3    H178926   4.620   4.300  12.263  0.9021  0.2814 -1.0036
19145TIP3    H278927   4.544   4.225  12.369  1.9368  1.5143  0.6666
19146TIP3   OH278928   6.687   0.439  14.958 -0.1435 -0.0045  0.0892
19146TIP3    H178929   6.642   0.456  14.875 -0.1373 -1.2940 -0.1952
19146TIP3    H278930   6.616   0.426  15.022 -0.1493  1.5278  0.4213
19147TIP3   OH278931   5.533   2.023   2.012  0.3834 -0.2363  0.4237
19147TIP3    H178932   5.545   2.027   1.917  1.0751  0.5446  0.5275
19147TIP3    H278933   5.532   1.930   2.033 -1.7146 -0.5075 -0.5643
19148TIP3   OH278934   5.411   3.820  15.667 -0.3871 -0.0758  0.6682
19148TIP3    H178935   5.464   3.900  15.669 -0.0295  0.0800 -3.9784
19148TIP3    H278936   5.464   3.757  15.620 -2.0134 -1.9840  1.2614
19149TIP3   OH278937   5.825   1.781   1.655 -0.2930 -0.3026 -0.2838
19149TIP3    H178938   5.889   1.768   1.585  0.3198  1.1619 -0.0383
19149TIP3    H278939   5.848   1.866   1.693 -0.6449 -1.0389  1.6777
19150TIP3   OH278940   6.680   3.026   6.241 -0.3738  0.3319  0.4541
19150TIP3    H178941   6.615   3.027   6.312 -0.6798 -0.6213  0.2040
19150TIP3    H278942   6.720   2.939   6.246 -0.4620  0.2150 -0.5839
19151TIP3   OH278943   5.951   1.720   5.787 -0.3582 -0.8670 -0.7974
19151TIP3    H178944   5.991   1.729   5.700 -1.1265 -1.9495 -1.3020
19151TIP3    H278945   5.958   1.807   5.826  1.2260 -0.6911 -1.3966
19152TIP3   OH278946   5.161   4.203   3.664 -0.4075  0.2501  0.4622
19152TIP3    H178947   5.212   4.282   3.644 -0.2605  0.1359  0.3819
19152TIP3    H278948   5.087   4.206   3.604 -0.1280  0.0631  0.0991
19153TIP3   OH278949   0.656   2.931   6.036 -0.0206 -0.6938 -0.8832
19153TIP3    H178950   0.586   2.996   6.029 -0.5496 -1.1774 -0.2595
19153TIP3    H278951   0.610   2.849   6.057  0.7434 -0.9900 -0.3392
19154TIP3   OH278952   0.897   1.829  16.676  0.0612 -0.0449 -0.0672
19154TIP3    H178953   0.842   1.754  16.652 -0.5924 -0.4631  2.4019
19154TIP3    H278954   0.836   1.894  16.711  0.9744 -0.0851  1.7332
19155TIP3   OH278955   1.700   1.824   1.970 -0.2059 -0.0718  0.4707
19155TIP3    H178956   1.752   1.747   1.949 -0.1399  0.2786 -0.7088
19155TIP3    H278957   1.610   1.799   1.947  0.1160  0.9859 -2.3299
19156TIP3   OH278958   6.422   1.069   2.367  0.7146  0.6254  0.0010
19156TIP3    H178959   6.447   1.137   2.430 -1.5662  0.6499  0.9713
19156TIP3    H278960   6.361   1.112   2.308  0.8472 -0.0671 -0.6598
19157TIP3   OH278961   4.662   1.550  15.698 -0.4034  0.6360  0.0618
19157TIP3    H178962   4.574   1.571  15.668 -1.1263 -1.7194  0.3040
19157TIP3    H278963   4.718   1.616  15.657 -1.9038  0.3356 -2.7071
19158TIP3   OH278964   2.242   6.782  13.976 -0.3419  0.2431 -0.2598
19158TIP3    H178965   2.299   6.780  13.899 -2.1760  1.3606 -1.7457
19158TIP3    H278966   2.186   6.706  13.967 -1.8780  1.4226 -1.1685
19159TIP3   OH278967   0.763   3.746   1.562  0.0067  0.4193 -0.1022
19159TIP3    H178968   0.694   3.698   1.515  0.8100  1.4653 -2.5128
19159TIP3    H278969   0.716   3.818   1.604 -0.4914  0.7738 -1.2146
19160TIP3   OH278970   4.687   0.421  12.816  0.5156  0.8624  0.4069
19160TIP3    H178971   4.594   0.432  12.832  0.7363 -0.3462  3.2124
19160TIP3    H278972   4.721   0.384  12.898  2.9726 -1.4129 -1.4463
19161TIP3   OH278973   1.955   2.281  15.790  0.4238  0.2349  0.0426
19161TIP3    H178974   1.905   2.207  15.754  0.0769  0.1237  0.7292
19161TIP3    H278975   2.046   2.255  15.779  0.3020 -0.5979  0.8527
19162TIP3   OH278976   0.081   0.430   3.654 -0.8077  0.2724 -0.7107
19162TIP3    H178977   0.066   0.409   3.562 -1.0166 -0.6092 -0.4830
19162TIP3    H278978   0.005   0.395   3.700 -0.9889  1.2255 -0.2623
19163TIP3   OH278979   6.265   0.205   0.581 -0.2890  0.6589 -0.3128
19163TIP3    H178980   6.240   0.297   0.574 -0.5883  0.6335  0.3034
19163TIP3    H278981   6.183   0.159   0.599  0.0024  0.4166  0.4545
19164TIP3   OH278982   2.620   3.968  12.516 -0.1672  0.3165 -0.2868
19164TIP3    H178983   2.574   4.051  12.503 -0.7553 -0.0938 -0.8869
19164TIP3    H278984   2.691   3.989  12.577 -0.4449  1.2085 -0.2594
19165TIP3   OH278985   2.556   1.058   0.005 -0.2302 -0.5202  0.0515
19165TIP3    H178986   2.645   1.024   0.004 -0.0936 -0.1716  0.1330
19165TIP3    H278987   2.538   1.077   0.097 -0.2027 -0.1163 -0.0247
19166TIP3   OH278988   0.683   6.790   0.892  0.1181 -0.0744 -0.1521
19166TIP3    H178989   0.770   6.829   0.893 -0.5921  1.6572 -1.2914
19166TIP3    H278990   0.632   6.843   0.953 -0.2817 -0.7429  0.1064
19167TIP3   OH278991   5.560   2.145   0.713  0.2945  0.3738 -0.0710
19167TIP3    H178992   5.465   2.158   0.724 -0.0409 -1.9773  0.3896
19167TIP3    H278993   5.568   2.104   0.627  1.2109  2.8091 -1.2356
19168TIP3   OH278994   6.552   3.612   1.138 -0.1048 -0.9081  0.4512
19168TIP3    H178995   6.543   3.686   1.078 -2.9332 -1.2065  0.3715
19168TIP3    H278996   6.574   3.652   1.222  0.0617 -0.1572  0.0610
19169TIP3   OH278997   5.154   4.351   5.847  0.2034 -0.1665  0.4611
19169TIP3    H178998   5.088   4.393   5.902 -1.7045 -1.4182 -0.7618
19169TIP3    H278999   5.170   4.414   5.777 -0.8816 -0.4505 -0.0687
19170TIP3   OH279000   4.513   6.428  14.883  0.2144  0.3547 -0.4215
19170TIP3    H179001   4.488   6.491  14.951 -1.6809 -0.1616 -0.6048
19170TIP3    H279002   4.548   6.353  14.932 -2.6380 -0.6998  0.1705
19171TIP3   OH279003   1.606   4.319  14.768  0.8608 -0.3732 -0.5544
19171TIP3    H179004   1.611   4.270  14.851  2.0100 -0.3415 -0.5918
19171TIP3    H279005   1.597   4.410  14.795  1.1124 -0.3743 -0.4639
19172TIP3   OH279006   3.606   3.078  14.511  0.6118  0.4100  0.5993
19172TIP3    H179007   3.652   2.999  14.539 -0.8936 -0.7031  0.0980
19172TIP3    H279008   3.523   3.076  14.559 -1.6848 -1.1055 -2.9864
19173TIP3   OH279009   5.556   5.302  14.355  0.5496  0.4081  0.1679
19173TIP3    H179010   5.600   5.244  14.417  0.6696  0.0117 -0.2923
19173TIP3    H279011   5.480   5.335  14.404  0.1605 -0.5742  0.2406
19174TIP3   OH279012   6.335   5.477   1.216  0.7844  0.3697 -0.0077
19174TIP3    H179013   6.301   5.489   1.304 -2.6128 -0.2405 -1.0739
19174TIP3    H279014   6.328   5.563   1.175  1.0620  0.3581 -0.0839
19175TIP3   OH279015   4.718   4.242   1.379 -0.4781 -0.7492 -0.1456
19175TIP3    H179016   4.710   4.166   1.436 -3.0421 -0.3664  0.1295
19175TIP3    H279017   4.691   4.211   1.293  1.0887 -0.7441 -0.6802
19176TIP3   OH279018   6.681   0.157  14.261  0.6229 -0.0724  0.0826
19176TIP3    H179019   6.610   0.102  14.294 -0.2102  1.7641  1.5151
19176TIP3    H279020   6.757   0.132  14.315  0.8168 -1.2262 -0.6812
19177TIP3   OH279021   6.009   0.917  12.583 -0.2044 -0.0739 -0.0498
19177TIP3    H179022   6.007   0.867  12.502  1.4723 -1.9444  0.9399
19177TIP3    H279023   6.003   0.850  12.652  1.3112  1.1195  1.3362
19178TIP3   OH279024   0.789   4.626   1.368 -0.4293  0.5267  0.4004
19178TIP3    H179025   0.853   4.560   1.395 -1.4613 -0.4144  0.5803
19178TIP3    H279026   0.834   4.709   1.382  0.9974 -0.1316 -0.1036
19179TIP3   OH279027   3.635   0.469  10.809 -0.1662  0.2807  0.5070
19179TIP3    H179028   3.679   0.501  10.730  1.6166 -0.8330  0.9886
19179TIP3    H279029   3.582   0.395  10.778  3.3170 -2.5626  0.7068
19180TIP3   OH279030   2.411   6.004   0.719 -0.1404  0.4992  0.0037
19180TIP3    H179031   2.316   6.013   0.708  0.0921  1.9533 -0.9245
19180TIP3    H279032   2.422   5.982   0.812 -1.4548 -1.1321 -0.1826
19181TIP3   OH279033   3.869   3.053   1.763 -0.0776  0.2300  0.2726
19181TIP3    H179034   3.914   3.100   1.693  0.7730 -0.3252  0.4257
19181TIP3    H279035   3.811   2.992   1.718 -0.3530  0.6532  0.0619
19182TIP3   OH279036   4.800   1.447   4.894  0.4889  0.0229  0.1801
19182TIP3    H179037   4.791   1.508   4.967 -3.1106 -0.2164  0.0896
19182TIP3    H279038   4.741   1.375   4.915  1.2183 -1.2551 -1.8547
19183TIP3   OH279039   4.121   5.546   2.837 -0.1767  0.4804  0.5872
19183TIP3    H179040   4.149   5.537   2.746 -1.4138  0.6596  0.1714
19183TIP3    H279041   4.047   5.486   2.845  1.8508 -2.0645  2.4002
19184TIP3   OH279042   5.652   3.068   3.340 -0.7250  0.3707 -0.2791
19184TIP3    H179043   5.565   3.080   3.379 -0.4931  0.5593  0.1917
19184TIP3    H279044   5.710   3.118   3.396 -0.3452  0.4532 -0.7455
19185TIP3   OH279045   4.237   4.313  11.670  0.2478  0.0069 -0.2679
19185TIP3    H179046   4.312   4.254  11.677 -0.3669 -0.6769  0.8870
19185TIP3    H279047   4.202   4.297  11.582  0.2905 -1.1433 -0.0973
19186TIP3   OH279048   4.924   6.429  13.099  0.1086  0.3246  0.0537
19186TIP3    H179049   4.921   6.425  13.003  1.0740  3.2850 -0.2103
19186TIP3    H279050   4.837   6.461  13.123  0.2586  0.7535  0.0384
19187TIP3   OH279051   1.034   6.827  10.954 -0.2296 -0.4638  0.2110
19187TIP3    H179052   0.939   6.826  10.966 -0.4086 -0.0442 -1.0235
19187TIP3    H279053   1.058   6.735  10.942 -0.6903 -0.4524 -0.8793
19188TIP3   OH279054   0.145   4.190   3.361 -0.5032  0.4219  0.1825
19188TIP3    H179055   0.129   4.240   3.441 -0.2709 -0.3808  0.7568
19188TIP3    H279056   0.146   4.254   3.291  0.4553  1.3075  0.9743
19189TIP3   OH279057   0.116   1.481   2.457 -0.4040 -0.0301 -0.1835
19189TIP3    H179058   0.066   1.555   2.491 -1.0789 -0.6025  0.1107
19189TIP3    H279059   0.200   1.518   2.431  0.1052  0.4610  1.9967
19190TIP3   OH279060   0.981   3.134   0.800 -0.1245 -0.3966 -0.4111
19190TIP3    H179061   1.010   3.223   0.779 -0.4986 -0.0711  0.4224
19190TIP3    H279062   1.019   3.080   0.731  0.5143  0.3422 -0.6547
19191TIP3   OH279063   6.685   0.617   3.457  0.8577  0.3505  0.2443
19191TIP3    H179064   6.601   0.660   3.474  1.4267  1.7611 -0.2792
19191TIP3    H279065   6.665   0.549   3.394 -0.0915 -0.1833  1.1050
19192TIP3   OH279066   0.973   3.249  15.688  0.3041 -0.2880 -0.1965
19192TIP3    H179067   1.019   3.281  15.766  0.5697  1.1923 -0.9357
19192TIP3    H279068   0.902   3.194  15.723  1.1213 -0.6034  1.0348
19193TIP3   OH279069   1.336   0.382  13.263 -0.5704 -0.4621  0.1367
19193TIP3    H179070   1.308   0.463  13.221 -1.3487 -0.6276  0.3152
19193TIP3    H279071   1.354   0.407  13.354 -1.6100 -0.6413  0.3992
19194TIP3   OH279072   1.309   5.707  16.193 -0.8030  0.3955  0.1187
19194TIP3    H179073   1.393   5.689  16.235  0.0167  2.5928 -0.4424
19194TIP3    H279074   1.279   5.788  16.233 -2.1773  0.1833 -0.4238
19195TIP3   OH279075   2.269   4.766  15.091  0.1127 -0.6282  0.6168
19195TIP3    H179076   2.254   4.807  15.177  2.1327  0.7703  0.3780
19195TIP3    H279077   2.333   4.698  15.108  0.9930  0.0673  0.1400
19196TIP3   OH279078   4.497   0.211  16.522  0.0285  0.0466 -0.0171
19196TIP3    H179079   4.559   0.204  16.594  0.6960  0.9351 -0.4693
19196TIP3    H279080   4.532   0.153  16.455 -2.4148 -3.4894  1.5175
19197TIP3   OH279081   3.566   1.146  17.025 -0.2775  0.1255  0.3241
19197TIP3    H179082   3.632   1.154  16.957 -1.3969  0.2251 -0.8023
19197TIP3    H279083   3.608   1.179  17.105  1.0485  0.0410 -0.3231
19198TIP3   OH279084   3.173   5.830   5.938 -0.2733  0.1492  0.5208
19198TIP3    H179085   3.146   5.835   6.030 -1.3767 -0.3941  0.2414
19198TIP3    H279086   3.262   5.865   5.938 -0.5442  0.9087  1.6671
19199TIP3   OH279087   4.377   5.593   0.117 -0.6790 -0.2706 -0.0107
19199TIP3    H179088   4.435   5.637   0.180 -0.4062 -0.5287 -0.0805
19199TIP3    H279089   4.354   5.662   0.055  2.0510 -0.7876 -1.8028
19200TIP3   OH279090   0.161   0.208  16.000  0.5219 -0.1046 -0.0333
19200TIP3    H179091   0.218   0.211  15.923  0.2420  0.0424 -0.2407
19200TIP3    H279092   0.120   0.294  16.002  1.4055  0.3073  0.9680
19201TIP3   OH279093   1.481   3.113  13.357  0.4144  0.2095  0.1526
19201TIP3    H179094   1.393   3.086  13.331 -0.4216  1.6463  1.3192
19201TIP3    H279095   1.534   3.102  13.278 -0.3986 -2.2370 -0.1291
19202TIP3   OH279096   1.472   6.696  14.470  0.2869 -0.0962  0.2097
19202TIP3    H179097   1.405   6.754  14.433  0.0309 -0.0718  0.7042
19202TIP3    H279098   1.524   6.753  14.527  1.7226  0.2389 -1.3729
19203TIP3   OH279099   5.869   3.742  11.268 -0.1017 -0.0307  0.2398
19203TIP3    H179100   5.845   3.669  11.325  0.4903  1.0826  2.0286
19203TIP3    H279101   5.790   3.761  11.217 -0.6987 -1.0074  0.7786
19204TIP3   OH279102   4.505   4.413   3.305 -0.1302 -0.3705  0.3218
19204TIP3    H179103   4.498   4.389   3.397 -0.7830 -0.6515  0.2046
19204TIP3    H279104   4.503   4.329   3.258 -0.2565 -0.2054  0.0300
19205TIP3   OH279105   3.669   0.730  10.333 -0.1539 -0.5875  0.5036
19205TIP3    H179106   3.602   0.785  10.292  1.6970  0.6860 -0.9713
19205TIP3    H279107   3.624   0.647  10.351 -1.4714 -0.7906 -2.9441
19206TIP3   OH279108   6.616   3.512   4.454  0.3722  0.0704 -0.2382
19206TIP3    H179109   6.569   3.433   4.482  0.4852 -0.2589 -0.9521
19206TIP3    H279110   6.653   3.489   4.369  3.3067 -0.2876  1.0124
19207TIP3   OH279111   6.696   0.957   5.295  0.4089 -0.4492 -0.2782
19207TIP3    H179112   6.789   0.978   5.308  0.6036 -0.9482 -0.7987
19207TIP3    H279113   6.679   0.886   5.356  0.2493 -0.0555  0.1370
19208TIP3   OH279114   0.896   4.048   5.204  0.5977  0.1080  0.4425
19208TIP3    H179115   0.970   4.087   5.250 -0.0823  0.4278  1.2664
19208TIP3    H279116   0.896   3.956   5.232  0.3315  0.2447  0.8844
19209TIP3   OH279117   2.645   2.953   1.851  0.0372  0.9669 -0.1899
19209TIP3    H179118   2.634   2.866   1.889  0.9810  0.5255 -0.8617
19209TIP3    H279119   2.562   2.997   1.866 -0.0224  0.4128  1.3144
19210TIP3   OH279120   4.341   2.274  16.965 -0.7936 -0.2045 -0.6237
19210TIP3    H179121   4.263   2.223  16.942 -0.9859 -0.0714 -0.2860
19210TIP3    H279122   4.409   2.209  16.980 -1.0881 -0.3854 -0.0026
19211TIP3   OH279123   4.708   4.481   4.822  0.1882 -0.1123  0.2925
19211TIP3    H179124   4.717   4.411   4.886  2.2671  0.9813  1.2863
19211TIP3    H279125   4.793   4.524   4.821 -0.4668  1.2855 -1.6221
19212TIP3   OH279126   4.261   0.731  11.970 -0.0540  0.0565  0.0746
19212TIP3    H179127   4.208   0.654  11.992  0.2800 -1.2193 -2.9394
19212TIP3    H279128   4.201   0.789  11.923  0.2956  0.4300  0.0868
19213TIP3   OH279129   1.759   0.747  11.905 -0.2866 -0.2239  0.2844
19213TIP3    H179130   1.849   0.737  11.937 -0.2131  1.4310  0.7239
19213TIP3    H279131   1.711   0.675  11.946  0.7236 -0.8206  0.4673
19214TIP3   OH279132   3.005   6.645   0.413  0.3033  0.3835  0.2574
19214TIP3    H179133   2.917   6.631   0.448 -1.2307 -0.3932 -3.4198
19214TIP3    H279134   3.051   6.563   0.432 -0.6236 -0.2119  0.0035
19215TIP3   OH279135   3.317   4.230   2.176  0.1586  0.1836 -0.0333
19215TIP3    H179136   3.344   4.275   2.097  0.0684  2.3627  1.1088
19215TIP3    H279137   3.383   4.253   2.241 -1.3280  0.8872  1.2833
19216TIP3   OH279138   3.304   2.590  16.317 -0.1716  0.0872  0.2430
19216TIP3    H179139   3.313   2.630  16.403  0.6220 -1.9318  1.1614
19216TIP3    H279140   3.264   2.658  16.262 -0.5252  1.4747  2.1444
19217TIP3   OH279141   0.519   5.762   5.788 -0.3669 -0.5043  0.3939
19217TIP3    H179142   0.613   5.782   5.785 -0.4091 -0.4347 -1.1292
19217TIP3    H279143   0.501   5.750   5.881  1.0956 -0.2554  0.7462
19218TIP3   OH279144   2.608   2.109  13.473 -0.3774  0.1246  0.4288
19218TIP3    H179145   2.610   2.015  13.458  0.1226 -0.0902  1.6999
19218TIP3    H279146   2.520   2.127  13.505 -0.2928  0.0028  0.7246
19219TIP3   OH279147   0.626   2.090   0.289  0.2014 -0.1513  0.4315
19219TIP3    H179148   0.545   2.106   0.242  0.4243  0.3818  0.2168
19219TIP3    H279149   0.662   2.178   0.306  0.9517 -0.3908  0.1280
19220TIP3   OH279150   4.969   2.726   2.768  1.0106 -0.6565 -0.1833
19220TIP3    H179151   4.994   2.817   2.782  2.2976 -1.0231  0.0524
19220TIP3    H279152   4.958   2.691   2.856 -0.8186 -0.4132 -0.2727
19221TIP3   OH279153   1.619   4.506  15.732 -0.4837 -0.1826 -0.4021
19221TIP3    H179154   1.601   4.594  15.697 -0.2453 -0.7862 -2.1496
19221TIP3    H279155   1.614   4.516  15.827 -2.2966  1.3285 -0.6021
19222TIP3   OH279156   2.086   3.231  11.574 -0.4665 -0.5786  0.1017
19222TIP3    H179157   2.114   3.143  11.600  1.8437  0.4545  1.3414
19222TIP3    H279158   2.044   3.267  11.652  1.4385  0.4975  0.6922
19223TIP3   OH279159   4.863   0.771   4.140  0.4334 -0.4616 -0.0696
19223TIP3    H179160   4.772   0.758   4.170  0.4796  0.5475  0.5525
19223TIP3    H279161   4.860   0.854   4.092  0.9997 -0.5086 -0.1834
19224TIP3   OH279162   3.425   6.435   5.154 -1.1713  0.4722  0.1342
19224TIP3    H179163   3.473   6.518   5.163  1.1863 -0.5513 -1.8439
19224TIP3    H279164   3.416   6.402   5.243  1.5709  0.9163  0.6646
19225TIP3   OH279165   0.719   6.617  12.893 -0.4816 -0.7535 -0.1807
19225TIP3    H179166   0.677   6.597  12.977  0.3450  0.7929  0.6399
19225TIP3    H279167   0.675   6.695  12.862 -1.0597 -1.5508 -1.4205
19226TIP3   OH279168   3.738   3.925  11.718 -0.1707  0.3411  0.3163
19226TIP3    H179169   3.765   3.853  11.661 -1.5771 -0.7280  0.9417
19226TIP3    H279170   3.809   3.989  11.711  1.1503 -1.1252 -0.2097
19227TIP3   OH279171   6.544   3.709  16.827  0.5840  0.3811 -0.1341
19227TIP3    H179172   6.560   3.741  16.916 -2.7812  2.2855 -0.0653
19227TIP3    H279173   6.493   3.778  16.786 -2.7360 -2.7272 -1.7128
19228TIP3   OH279174   0.666   6.435   1.466  0.6322  0.5562  0.2051
19228TIP3    H179175   0.713   6.463   1.388  3.9012  1.6381  2.3740
19228TIP3    H279176   0.641   6.516   1.510  0.0487 -0.0137  0.9552
19229TIP3   OH279177   6.252   4.138   4.442  0.4399  0.1668  0.4006
19229TIP3    H179178   6.194   4.074   4.483 -0.0047  1.1460  1.3425
19229TIP3    H279179   6.250   4.115   4.349 -0.1497 -0.8299  0.6448
19230TIP3   OH279180   0.123   4.501  11.689  0.5005 -0.0866 -0.1682
19230TIP3    H179181   0.139   4.409  11.668  1.1617 -0.3784  1.4922
19230TIP3    H279182   0.186   4.521  11.757  0.8022  1.8095 -0.9479
19231TIP3   OH279183   1.847   1.770   0.070 -0.1082  0.4453  0.2520
19231TIP3    H179184   1.833   1.706   0.001 -1.3815  0.3897  0.5281
19231TIP3    H279185   1.771   1.828   0.064  0.8262  1.6894  0.2668
19232TIP3   OH279186   4.509   3.876  15.329  0.1117  0.2346 -0.2473
19232TIP3    H179187   4.534   3.785  15.313  1.6973  0.2777  1.5541
19232TIP3    H279188   4.524   3.921  15.246  1.1530 -0.7879 -0.6251
19233TIP3   OH279189   2.205   2.471  11.991  0.3929 -0.1864 -0.2772
19233TIP3    H179190   2.254   2.412  11.934 -0.3115 -1.1606  0.0825
19233TIP3    H279191   2.148   2.413  12.042  0.2929  0.7379  0.7135
19234TIP3   OH279192   1.953   1.433  13.298  0.2683 -0.3120  0.0719
19234TIP3    H179193   2.015   1.506  13.301 -0.7035  0.7034 -2.1995
19234TIP3    H279194   1.933   1.423  13.205 -3.4560 -0.1538  0.7358
19235TIP3   OH279195   5.306   0.972  16.188 -0.6071  0.0291 -0.5868
19235TIP3    H179196   5.357   1.043  16.149 -1.6335  0.8279 -0.5389
19235TIP3    H279197   5.366   0.929  16.249  0.2939  0.2908 -1.2641
19236TIP3   OH279198   3.178   6.557   1.930 -0.0244 -0.8893 -0.2603
19236TIP3    H179199   3.240   6.532   1.999 -0.3223 -0.9145 -0.0014
19236TIP3    H279200   3.126   6.479   1.915 -0.5931 -0.5954  0.1631
19237TIP3   OH279201   5.546   0.413   3.686  0.0170 -0.6699  0.0316
19237TIP3    H179202   5.594   0.483   3.730 -2.1995 -0.8810  3.0541
19237TIP3    H279203   5.595   0.334   3.708  1.2110 -0.3939 -1.4477
19238TIP3   OH279204   5.828   2.881   0.613 -0.1547  0.3940 -0.1403
19238TIP3    H179205   5.756   2.835   0.569  0.3823  1.1207 -1.8819
19238TIP3    H279206   5.893   2.895   0.544  0.7752  1.5470  0.9205
19239TIP3   OH279207   1.612   0.418  14.601 -0.4155 -0.0567  0.5883
19239TIP3    H179208   1.679   0.424  14.534 -1.9488 -0.0281 -1.0239
19239TIP3    H279209   1.604   0.507  14.635 -0.1030  0.0800  0.3122
19240TIP3   OH279210   2.143   2.058   5.232 -0.1425 -0.3725  0.3601
19240TIP3    H179211   2.057   2.014   5.231  0.2068 -1.0613 -0.2640
19240TIP3    H279212   2.138   2.118   5.306 -1.2819 -0.1790  0.1407
19241TIP3   OH279213   6.709   1.384   0.120  0.1454 -0.2502  0.3288
19241TIP3    H179214   6.634   1.332   0.090 -0.5242  1.2087 -0.6427
19241TIP3    H279215   6.701   1.383   0.215 -0.2892 -1.2747  0.3006
19242TIP3   OH279216   3.419   3.133   3.630  0.2145 -0.0168 -0.7411
19242TIP3    H179217   3.509   3.106   3.610  1.2012  1.3954  1.3659
19242TIP3    H279218   3.421   3.229   3.623 -0.6343  0.1688  1.0167
19243TIP3   OH279219   3.709   6.707   6.563  0.3729  0.0062  0.5157
19243TIP3    H179220   3.765   6.649   6.615 -0.7976 -1.2387  0.4306
19243TIP3    H279221   3.768   6.745   6.497  1.3419 -0.3779  1.1470
19244TIP3   OH279222   5.797   2.185   4.535  0.0774  0.2164 -0.0724
19244TIP3    H179223   5.850   2.159   4.610 -0.2528  1.0042  0.4483
19244TIP3    H279224   5.715   2.216   4.573  0.5301  2.1991 -0.6349
19245TIP3   OH279225   2.273   2.518   1.984  0.0017  0.2575  0.8744
19245TIP3    H179226   2.230   2.463   1.918  1.1330  0.2531  0.1129
19245TIP3    H279227   2.249   2.478   2.068 -1.2124  0.0837  0.4556
19246TIP3   OH279228   1.683   0.963  14.309 -0.2585  0.4103  0.2610
19246TIP3    H179229   1.706   0.983  14.218 -0.7871  0.9695  0.2407
19246TIP3    H279230   1.762   0.983  14.359 -0.1593  0.7024 -0.0064
19247TIP3   OH279231   6.412   6.636   0.297 -0.0188 -0.2002 -0.1243
19247TIP3    H179232   6.430   6.614   0.389 -2.1777 -0.0051  0.4131
19247TIP3    H279233   6.484   6.596   0.248  0.3884 -1.6382  1.5268
19248TIP3   OH279234   2.148   6.072  11.546 -0.2879  0.0708  0.4595
19248TIP3    H179235   2.079   6.033  11.492 -0.6275 -0.0152  0.9534
19248TIP3    H279236   2.150   6.164  11.519 -1.5410  0.3971  1.3923
19249TIP3   OH279237   3.809   5.172   1.658 -0.4722 -0.2323 -0.5856
19249TIP3    H179238   3.881   5.166   1.596  0.0695 -0.7951  0.0862
19249TIP3    H279239   3.816   5.092   1.711 -2.3886 -0.9919 -1.3700
19250TIP3   OH279240   5.390   1.404  16.619 -0.2668  0.2127  0.8361
19250TIP3    H179241   5.451   1.331  16.630 -0.4044 -0.1166 -0.3954
19250TIP3    H279242   5.398   1.455  16.700  1.7541  0.2793  0.6336
19251TIP3   OH279243   5.385   6.523  14.052  0.1490  0.0365  0.6383
19251TIP3    H179244   5.400   6.582  13.979  1.8547  0.6643  1.4288
19251TIP3    H279245   5.406   6.436  14.018  0.9918  0.3297  0.3995
19252TIP3   OH279246   5.716   2.540   5.618  0.6132 -0.9509  0.0266
19252TIP3    H179247   5.710   2.586   5.702  0.7638 -0.5785 -0.1609
19252TIP3    H279248   5.719   2.448   5.641  1.6475 -0.8118  0.4825
19253TIP3   OH279249   3.684   1.377  12.323  0.1519  0.0152 -0.2637
19253TIP3    H179250   3.685   1.448  12.387 -1.8237 -0.0845 -0.0580
19253TIP3    H279251   3.655   1.300  12.372 -0.6796 -0.2313 -1.1169
19254TIP3   OH279252   2.269   0.481  11.316  0.4273  0.4933  0.1060
19254TIP3    H179253   2.354   0.448  11.286  2.0107  3.6117  0.7254
19254TIP3    H279254   2.226   0.511  11.236  0.0134 -0.7755 -0.1690
19255TIP3   OH279255   4.287   2.812  14.979 -0.6376  0.2075  0.8843
19255TIP3    H179256   4.210   2.867  14.961 -0.8482 -0.4978 -0.4311
19255TIP3    H279257   4.254   2.742  15.035 -0.6893  0.5479  1.2903
19256TIP3   OH279258   4.104   5.783  12.771 -0.7516 -0.7343 -0.0338
19256TIP3    H179259   4.092   5.856  12.832 -1.0343 -0.5827 -0.2711
19256TIP3    H279260   4.195   5.756  12.784 -0.6172 -0.2765 -0.0191
19257TIP3   OH279261   1.478   2.603   5.525  0.4398 -0.1440  0.3489
19257TIP3    H179262   1.437   2.639   5.603 -0.6847 -0.5297 -0.0495
19257TIP3    H279263   1.567   2.582   5.552  0.0701 -0.2480  1.5167
19258TIP3   OH279264   4.170   2.192  16.752  0.2811  0.1193  0.2436
19258TIP3    H179265   4.258   2.210  16.718  0.8030 -0.5186  1.2280
19258TIP3    H279266   4.134   2.279  16.770  0.2800  0.4399 -1.1640
19259TIP3   OH279267   1.796   6.538  14.991 -0.1971 -0.6411 -0.1167
19259TIP3    H179268   1.883   6.535  15.030  0.3763  1.2173 -1.1196
19259TIP3    H279269   1.798   6.614  14.933 -2.2016 -1.0926 -0.8812
19260TIP3   OH279270   6.318   2.624   1.144 -0.0847 -0.4599  0.0682
19260TIP3    H179271   6.405   2.626   1.183 -0.1912  0.4864  0.2624
19260TIP3    H279272   6.326   2.674   1.063 -0.8842  1.3597  1.0389
19261TIP3   OH279273   3.140   0.884  11.346 -0.0124 -0.0889  0.5322
19261TIP3    H179274   3.127   0.979  11.340 -0.7136 -0.1906  0.2563
19261TIP3    H279275   3.107   0.851  11.262  0.8362 -0.5211  0.3590
19262TIP3   OH279276   6.666   3.032   4.442 -0.1676  0.7401 -0.1303
19262TIP3    H179277   6.709   2.984   4.371 -0.6259  0.7087 -0.3901
19262TIP3    H279278   6.592   2.976   4.468 -0.3027  0.9882  0.0210
19263TIP3   OH279279   0.068   5.571  12.208  0.0984  0.7296  0.4841
19263TIP3    H179280  -0.011   5.586  12.156  1.0696  0.5074 -1.1152
19263TIP3    H279281   0.130   5.637  12.176  0.0294  2.2082  3.0432
19264TIP3   OH279282   2.472   4.356   1.897  0.1733  0.1428 -0.3708
19264TIP3    H179283   2.400   4.382   1.841  0.1139  1.1244  0.1386
19264TIP3    H279284   2.539   4.424   1.885  0.3903  0.0630  0.2966
19265TIP3   OH279285   3.074   6.666  16.511 -0.0761  0.9038 -0.4370
19265TIP3    H179286   3.158   6.634  16.481  0.7755  0.1844  2.4406
19265TIP3    H279287   3.088   6.759  16.527 -0.2306  1.0587 -1.1531
19266TIP3   OH279288   0.022   6.705  17.005 -0.3969  0.0412  0.2538
19266TIP3    H179289   0.089   6.670  16.948 -0.5402  1.0617 -0.5864
19266TIP3    H279290   0.057   6.696  17.093  0.4883 -0.1703 -0.1170
19267TIP3   OH279291   4.337   0.376   0.464 -0.0165  0.1180 -0.1334
19267TIP3    H179292   4.257   0.343   0.422 -0.6720  0.9201  0.4732
19267TIP3    H279293   4.407   0.323   0.425 -1.1361 -3.0884  1.8373
19268TIP3   OH279294   3.651   1.110   5.903  0.2938  0.3730  0.0353
19268TIP3    H179295   3.693   1.083   5.985  0.2909 -0.6108 -0.2827
19268TIP3    H279296   3.651   1.032   5.849 -2.4664  0.1543  0.2208
19269TIP3   OH279297   3.389   6.382  12.467 -0.1043 -0.1896  0.1430
19269TIP3    H179298   3.474   6.426  12.464 -1.0072  1.5977 -2.4152
19269TIP3    H279299   3.379   6.341  12.381 -1.8774 -0.2362  0.3203
19270TIP3   OH279300   4.047   1.479   2.329  0.0795 -0.3817 -0.7418
19270TIP3    H179301   4.042   1.534   2.407 -2.6778 -2.1823  0.4884
19270TIP3    H279302   4.117   1.416   2.349 -1.1953 -1.3996  0.7606
19271TIP3   OH279303   2.399   3.389  15.115 -0.3308 -0.2426 -0.7525
19271TIP3    H179304   2.406   3.444  15.194 -1.2416 -1.5432  0.2677
19271TIP3    H279305   2.307   3.363  15.113 -0.0463 -1.1991 -1.5857
19272TIP3   OH279306   1.396   5.449  12.614 -0.4431 -0.3108 -0.2786
19272TIP3    H179307   1.363   5.451  12.704  0.9660 -0.1028  0.2511
19272TIP3    H279308   1.434   5.362  12.605  2.3149  0.7176  0.4472
19273TIP3   OH279309   3.275   6.328  15.241 -0.1018 -0.2793  0.1311
19273TIP3    H179310   3.199   6.343  15.185  0.5339  1.3408 -0.3634
19273TIP3    H279311   3.249   6.363  15.326 -0.1678 -0.4022  0.1616
19274TIP3   OH279312   2.782   6.425  14.927 -0.6272  0.3162 -0.4003
19274TIP3    H179313   2.699   6.471  14.915 -0.1615  0.8660 -1.5905
19274TIP3    H279314   2.819   6.419  14.840 -0.9773 -2.9388 -0.4501
19275TIP3   OH279315   6.749   3.279  10.731  0.1307  0.0892  0.1426
19275TIP3    H179316   6.679   3.215  10.744  0.5147 -0.2579  0.5201
19275TIP3    H279317   6.827   3.226  10.718  0.0832  0.4400 -1.8204
19276TIP3   OH279318   5.401   3.098   0.250  0.4669  0.1244  0.1146
19276TIP3    H179319   5.362   3.029   0.195  0.8291  1.8300 -2.4545
19276TIP3    H279320   5.474   3.054   0.294  1.9336 -0.8200 -2.9434
19277TIP3   OH279321   6.711   6.064  14.966  0.3371  0.3957  0.8939
19277TIP3    H179322   6.706   6.048  14.872  1.2347  2.7526  0.3771
19277TIP3    H279323   6.770   6.139  14.974 -0.6098  0.9611  3.2511
19278TIP3   OH279324   4.146   2.987  11.077  0.2983  0.1023  0.4071
19278TIP3    H179325   4.108   3.064  11.035 -0.8370  1.0611  2.9669
19278TIP3    H279326   4.232   3.017  11.108 -0.0589  0.3198  1.2239
19279TIP3   OH279327   3.641   6.653  15.895  0.0149 -0.0713 -0.1993
19279TIP3    H179328   3.727   6.680  15.862 -0.0003  1.1873  0.7042
19279TIP3    H279329   3.649   6.661  15.990 -2.2945  4.2216 -0.1298
19280TIP3   OH279330   0.206   0.728   4.398  0.4537  0.2914 -0.2611
19280TIP3    H179331   0.287   0.779   4.387  1.9171 -1.2165  2.4983
19280TIP3    H279332   0.223   0.673   4.474 -2.4424 -1.6365 -0.8777
19281TIP3   OH279333   5.278   2.484   2.324 -0.1298 -0.1198  0.0005
19281TIP3    H179334   5.212   2.523   2.267 -0.1312  0.8071  0.6111
19281TIP3    H279335   5.260   2.521   2.411  0.5415 -0.6622  0.3850
19282TIP3   OH279336   6.501   3.353   1.189  0.4748  0.4072 -0.4223
19282TIP3    H179337   6.526   3.436   1.148 -0.8193  1.2223  0.3776
19282TIP3    H279338   6.419   3.330   1.146  0.6833 -0.3379 -0.4363
19283TIP3   OH279339   0.722   1.537  13.177 -0.3971  0.2666 -0.5542
19283TIP3    H179340   0.716   1.544  13.272  0.1517  1.2953 -0.5850
19283TIP3    H279341   0.734   1.444  13.161  2.2490  0.3165  0.5675
19284TIP3   OH279342   6.239   0.065  13.149 -0.4742 -0.1387 -0.2183
19284TIP3    H179343   6.263   0.104  13.233 -0.6565 -0.0681 -0.1990
19284TIP3    H279344   6.165   0.008  13.169  0.2209 -1.0181 -0.1275
19285TIP3   OH279345   1.664   3.178   1.942 -0.2125 -0.1082 -0.3955
19285TIP3    H179346   1.736   3.218   1.893 -1.5594 -0.4617 -2.8311
19285TIP3    H279347   1.707   3.116   2.002  1.5507  0.7694 -0.6929
19286TIP3   OH279348   6.412   3.524   0.735 -0.1809 -0.2363  0.0516
19286TIP3    H179349   6.380   3.613   0.724 -1.3098 -0.7852 -1.3886
19286TIP3    H279350   6.376   3.495   0.818  0.9679  0.9438  0.9984
19287TIP3   OH279351   3.596   2.334  12.750  0.7864 -0.0335  0.1472
19287TIP3    H179352   3.609   2.280  12.672  3.0328 -1.1880  1.1932
19287TIP3    H279353   3.530   2.287  12.801  1.1362 -0.6298  0.0588
19288TIP3   OH279354   4.261   3.011   0.809 -0.1551  0.0680  0.1533
19288TIP3    H179355   4.343   3.058   0.800 -1.8050  2.7339 -3.4162
19288TIP3    H279356   4.263   2.945   0.740 -1.7087  1.5264 -1.3760
19289TIP3   OH279357   5.783   3.726  11.918 -0.1868  0.1402  0.4028
19289TIP3    H179358   5.814   3.768  11.838  0.3798  2.2747  1.6704
19289TIP3    H279359   5.752   3.640  11.889  0.4597  0.6373 -2.0066
19290TIP3   OH279360   4.681   5.031  12.097 -0.9645 -0.7059  0.3324
19290TIP3    H179361   4.591   5.041  12.129 -0.4714 -1.4118  2.0614
19290TIP3    H279362   4.734   5.028  12.176  0.4137 -1.9623 -0.5867
19291TIP3   OH279363   5.848   4.551  11.711 -0.2630 -0.0353 -0.9783
19291TIP3    H179364   5.778   4.557  11.775  0.4956 -2.8968  0.2433
19291TIP3    H279365   5.836   4.466  11.669  1.9930 -0.2798 -1.2705
19292TIP3   OH279366   4.928   2.241   5.450  0.0520 -0.8123  0.1769
19292TIP3    H179367   4.955   2.152   5.471  1.2817 -0.6073 -0.4204
19292TIP3    H279368   4.833   2.239   5.450  0.0721 -2.1678 -0.0011
19293TIP3   OH279369   4.213   4.250   5.366  0.1107  0.6254  0.0248
19293TIP3    H179370   4.254   4.177   5.319  0.4438  0.7949  0.0502
19293TIP3    H279371   4.207   4.219   5.457  0.5278  0.7453  0.0939
19294TIP3   OH279372   3.532   1.628   1.103 -0.2031 -0.2493 -0.3456
19294TIP3    H179373   3.524   1.586   1.017 -1.7151 -1.8236  0.4838
19294TIP3    H279374   3.506   1.559   1.165  0.3043  1.0132  1.3281
19295TIP3   OH279375   6.030   6.709  11.596  0.5603  0.1974 -0.0505
19295TIP3    H179376   5.963   6.760  11.550 -0.0191 -0.5940 -0.1069
19295TIP3    H279377   6.014   6.729  11.689 -1.9479 -2.4523  0.2328
19296TIP3   OH279378   3.717   3.282   3.743 -0.5074 -0.8768 -0.2452
19296TIP3    H179379   3.800   3.235   3.755 -1.1434 -1.8063  0.6690
19296TIP3    H279380   3.651   3.225   3.781 -1.3843  0.5341  0.4604
19297TIP3   OH279381   2.009   1.692  12.764  0.4093  0.3629  0.4322
19297TIP3    H179382   1.986   1.630  12.695  0.8458  1.3344 -0.6146
19297TIP3    H279383   1.929   1.744  12.777  0.6373  0.8483 -0.0765
19298TIP3   OH279384   6.254   6.694  16.036 -0.0297  0.1244 -0.0428
19298TIP3    H179385   6.211   6.659  16.114  0.3693  0.1594  0.1961
19298TIP3    H279386   6.272   6.785  16.057  1.9165 -0.3543  0.6515
19299TIP3   OH279387   5.157   3.847  15.631 -0.0644 -0.2233 -0.4755
19299TIP3    H179388   5.250   3.825  15.639 -0.0277  0.3318  0.7312
19299TIP3    H279389   5.144   3.919  15.692 -0.9189  0.8955 -1.9365
19300TIP3   OH279390   3.100   4.030   1.905 -0.6860 -0.3473  0.4390
19300TIP3    H179391   3.150   3.960   1.865  2.9865  2.5358 -0.6360
19300TIP3    H279392   3.107   4.015   1.999  0.8739 -0.9171  0.2431
19301TIP3   OH279393   2.296   6.038  13.354  0.4717  0.2458  0.5036
19301TIP3    H179394   2.236   6.026  13.281 -0.9109  1.2870  1.4186
19301TIP3    H279395   2.297   5.953  13.398  0.3437 -0.0307 -0.0245
19302TIP3   OH279396   2.568   3.057  10.202 -0.3962  0.2389 -0.7376
19302TIP3    H179397   2.536   2.988  10.261  0.9945  1.0503  1.0478
19302TIP3    H279398   2.612   3.119  10.259 -0.2209  1.8275 -2.5004
19303TIP3   OH279399   4.541   0.531   1.593 -0.2669  0.0158 -0.4243
19303TIP3    H179400   4.468   0.494   1.643 -0.0203  0.0331 -0.0471
19303TIP3    H279401   4.619   0.491   1.631  0.0249  1.1131  0.1725
19304TIP3   OH279402   5.284   0.126   2.711 -0.0848  0.0337  0.3234
19304TIP3    H179403   5.232   0.195   2.671 -1.6409 -0.8237  0.7594
19304TIP3    H279404   5.313   0.163   2.795  0.6198  0.7628 -0.2323
19305TIP3   OH279405   3.356   2.256  13.253  0.3548  0.3655  0.6240
19305TIP3    H179406   3.303   2.329  13.221  1.3349  0.2486 -1.4153
19305TIP3    H279407   3.441   2.268  13.211  1.0572 -1.0345  1.5817
19306TIP3   OH279408   4.800   1.941   4.122 -0.0473  0.1190 -0.8412
19306TIP3    H179409   4.745   1.865   4.104  1.0257 -0.4685 -1.8095
19306TIP3    H279410   4.857   1.913   4.194 -0.0914  0.2347 -0.7614
19307TIP3   OH279411   1.495   6.629  15.003 -0.0747  0.0459 -0.3580
19307TIP3    H179412   1.466   6.604  14.916  0.4429 -1.0513 -0.2239
19307TIP3    H279413   1.578   6.583  15.016 -0.5248 -0.4312  1.0191
19308TIP3   OH279414   2.351   2.773   1.076 -0.4352  0.6849  0.1452
19308TIP3    H179415   2.280   2.827   1.111  0.3882  1.2586  0.9721
19308TIP3    H279416   2.401   2.747   1.153 -0.0312 -0.1250 -0.3864
19309TIP3   OH279417   6.072   6.271   3.554  0.0661  0.1847 -0.1554
19309TIP3    H179418   6.031   6.240   3.473  0.7589 -1.3534  0.0291
19309TIP3    H279419   6.132   6.340   3.526  1.0315 -0.9948 -1.1454
19310TIP3   OH279420   3.846   6.060   2.402  0.3269  0.4898  0.0069
19310TIP3    H179421   3.917   6.112   2.363 -0.0307  0.7408 -0.3215
19310TIP3    H279422   3.854   6.075   2.496  1.1104 -0.0009  0.0239
19311TIP3   OH279423   5.516   6.092   5.590 -0.1810  0.7701 -0.5783
19311TIP3    H179424   5.527   6.179   5.551 -0.3722  0.9814 -0.1723
19311TIP3    H279425   5.590   6.041   5.557 -1.0059  0.5789 -2.1923
19312TIP3   OH279426   5.415   2.786  12.462  0.7004 -0.7253 -0.0023
19312TIP3    H179427   5.389   2.742  12.544  1.1594 -2.0301 -0.5296
19312TIP3    H279428   5.494   2.739  12.434  0.0281 -0.9246 -1.6810
19313TIP3   OH279429   1.315   0.145  13.136  0.9454  0.4223 -0.4991
19313TIP3    H179430   1.330   0.226  13.184 -1.4818  0.3788  0.4924
19313TIP3    H279431   1.307   0.172  13.045  0.9857  1.1887 -0.2808
19314TIP3   OH279432   5.305   4.036   3.439  0.2438  0.0689  0.5083
19314TIP3    H179433   5.332   4.121   3.472 -0.4910 -0.1126  1.6266
19314TIP3    H279434   5.351   4.027   3.356 -0.2415  1.8551  0.0108
19315TIP3   OH279435   2.500   5.417  13.631  0.0514 -0.0766 -0.9651
19315TIP3    H179436   2.431   5.427  13.565 -0.1613 -0.6035 -0.8251
19315TIP3    H279437   2.553   5.496  13.622 -2.0205  1.6213  0.6290
19316TIP3   OH279438   5.166   6.582  11.396 -0.2676 -0.6583  0.5836
19316TIP3    H179439   5.233   6.570  11.463 -0.6608  0.4668  1.2044
19316TIP3    H279440   5.106   6.646  11.434  1.8406  3.6581 -2.5247
19317TIP3   OH279441   2.545   0.730  11.938  0.3153  0.2532  0.4135
19317TIP3    H179442   2.573   0.787  12.010  0.1350  0.5676  0.2369
19317TIP3    H279443   2.451   0.747  11.930  0.4244  0.6057 -0.2325
19318TIP3   OH279444   1.901   4.927  11.589  0.1007  0.6240 -0.1643
19318TIP3    H179445   1.886   4.952  11.498 -0.3509  0.9919  0.0061
19318TIP3    H279446   1.984   4.880  11.588  1.2007  2.5186 -0.4088
19319TIP3   OH279447   5.797   3.451  12.811 -0.0254 -0.5427  0.1985
19319TIP3    H179448   5.865   3.511  12.780  1.6655 -2.1195  0.6710
19319TIP3    H279449   5.809   3.372  12.758 -2.5302 -0.3618 -0.7601
19320TIP3   OH279450   2.683   3.226  11.639  0.5961  0.0190  0.7905
19320TIP3    H179451   2.704   3.305  11.689 -1.4362  1.7316 -0.8425
19320TIP3    H279452   2.735   3.233  11.560 -1.1858  0.9611 -0.3647
19321TIP3   OH279453   3.959   3.158   3.769  0.1541  0.1074 -0.6013
19321TIP3    H179454   4.022   3.205   3.714  0.8569 -1.0739 -0.8588
19321TIP3    H279455   3.988   3.066   3.764 -2.1372 -0.6244 -1.5017
19322TIP3   OH279456   3.694   5.869   1.889  0.0032  0.4047  0.7376
19322TIP3    H179457   3.787   5.853   1.870 -0.2542  0.4061 -0.6587
19322TIP3    H279458   3.676   5.815   1.966  0.5749 -1.5379 -0.4166
19323TIP3   OH279459   1.972   4.569  11.616  0.3826  0.1979  0.2441
19323TIP3    H179460   2.056   4.611  11.596  0.0666  1.0627  0.6535
19323TIP3    H279461   1.945   4.528  11.533  1.0665  0.1600  0.0364
19324TIP3   OH279462   5.590   5.198   0.729  0.1570  0.2724 -0.0407
19324TIP3    H179463   5.535   5.195   0.807 -0.9371  1.9154 -0.6767
19324TIP3    H279464   5.578   5.287   0.695 -0.6785 -0.8385 -2.9613
19325TIP3   OH279465   6.273   4.842  14.835 -0.4034 -0.1212 -0.1384
19325TIP3    H179466   6.303   4.824  14.746 -0.6837  2.6097 -0.8637
19325TIP3    H279467   6.182   4.812  14.836 -0.5843  0.3770 -0.9722
19326TIP3   OH279468   3.023   0.901  13.034 -0.3573 -0.3291 -0.0900
19326TIP3    H179469   3.030   0.837  13.105 -1.0589  1.6186  1.8466
19326TIP3    H279470   2.938   0.884  12.994 -0.9001 -0.1293  0.9424
19327TIP3   OH279471   3.715   5.421   3.608  0.2293  0.0524 -0.3403
19327TIP3    H179472   3.746   5.473   3.682  0.9920 -1.6085  0.5698
19327TIP3    H279473   3.786   5.425   3.545 -0.7947  2.2337 -1.4625
19328TIP3   OH279474   4.769   5.567   5.994  0.1557 -0.2839 -0.4944
19328TIP3    H179475   4.805   5.629   5.930 -1.8171  0.6425 -0.7625
19328TIP3    H279476   4.678   5.553   5.967 -0.3261 -0.9724  1.3034
19329TIP3   OH279477   5.095   0.535  16.965  0.3326  0.9759  0.4851
19329TIP3    H179478   5.088   0.552  16.871 -1.1658  2.4624  0.8233
19329TIP3    H279479   5.025   0.587  17.004  2.1770  2.0272  2.6292
19330TIP3   OH279480   4.298   0.053   6.735 -1.1781 -0.2930  0.3283
19330TIP3    H179481   4.239   0.039   6.661  2.6538 -0.3662 -3.0295
19330TIP3    H279482   4.333   0.141   6.721  0.3059 -0.6514  1.5130
19331TIP3   OH279483   1.723   5.637  16.152 -0.2480  0.4248 -0.1729
19331TIP3    H179484   1.783   5.699  16.109  0.8278 -1.3615 -1.3714
19331TIP3    H279485   1.699   5.576  16.083 -0.7216 -0.9148  1.1424
19332TIP3   OH279486   1.803   0.048   0.833  0.0646  0.0541 -0.5112
19332TIP3    H179487   1.755  -0.028   0.800 -0.4304  0.7888 -1.5012
19332TIP3    H279488   1.890   0.040   0.793  0.2300 -0.3309 -0.0921
19333TIP3   OH279489   5.161   6.254   4.096  0.2875 -0.3584  0.6025
19333TIP3    H179490   5.095   6.185   4.109 -1.5731  1.3079  0.4929
19333TIP3    H279491   5.242   6.206   4.077 -0.9717 -2.5101  0.2727
19334TIP3   OH279492   0.546   6.274  12.381 -0.1387 -0.3369 -0.5821
19334TIP3    H179493   0.629   6.322  12.379  0.5285 -1.4140  0.1901
19334TIP3    H279494   0.571   6.182  12.369 -1.1618 -0.7425  0.2622
19335TIP3   OH279495   4.144   1.502  12.998  0.0271  0.1403  0.1411
19335TIP3    H179496   4.079   1.554  13.046 -1.1020 -0.0683 -1.1101
19335TIP3    H279497   4.118   1.411  13.013  0.9495 -0.0118  0.8775
19336TIP3   OH279498   0.833   2.937  14.817 -0.2700  0.0007  0.1020
19336TIP3    H179499   0.894   2.964  14.748  0.1709 -0.3469  0.3438
19336TIP3    H279500   0.750   2.921  14.771  0.9982 -4.4412 -1.2339
19337TIP3   OH279501   1.378   3.031   1.702 -0.5707 -0.3652  0.0392
19337TIP3    H179502   1.332   2.967   1.756 -1.5377  1.5360  1.5949
19337TIP3    H279503   1.467   2.996   1.692 -1.0888 -1.9500  0.7761
19338TIP3   OH279504   4.287   6.798  15.156  0.3915 -0.1549 -0.0369
19338TIP3    H179505   4.323   6.792  15.244 -1.3461 -1.5227  0.6358
19338TIP3    H279506   4.203   6.842  15.167  0.6840  0.7575 -1.2078
19339TIP3   OH279507   1.166   3.560   2.937 -0.0120 -0.5156  0.0232
19339TIP3    H179508   1.104   3.489   2.920 -0.6815  0.3157 -1.1825
19339TIP3    H279509   1.197   3.587   2.851 -0.8558  1.5667  0.3007
19340TIP3   OH279510   1.667   5.373   6.134 -0.0272  0.0680  0.2768
19340TIP3    H179511   1.714   5.290   6.125  2.8283  1.7309 -2.0876
19340TIP3    H279512   1.724   5.427   6.188  0.1643  1.6975 -1.4631
19341TIP3   OH279513   2.367   5.354   1.235  0.3394  0.6221 -0.4232
19341TIP3    H179514   2.310   5.424   1.267  0.5297  1.3136 -1.5381
19341TIP3    H279515   2.417   5.395   1.165  3.1146  0.3968  1.2752
19342TIP3   OH279516   4.081   0.621  14.993 -0.0510 -0.4189 -0.8234
19342TIP3    H179517   4.108   0.592  14.906  1.8124  0.5271 -0.6117
19342TIP3    H279518   4.131   0.566  15.053  0.5059  0.5474 -0.3865
19343TIP3   OH279519   3.903   2.820  12.158 -0.1075 -0.1570 -0.6038
19343TIP3    H179520   3.871   2.825  12.068 -2.0374 -0.5581  0.0252
19343TIP3    H279521   3.883   2.731  12.186  1.5246 -0.4030 -0.1204
19344TIP3   OH279522   1.305   2.941   5.175  0.5440  0.8904 -0.1060
19344TIP3    H179523   1.264   3.012   5.224 -0.6224  0.5830 -0.5994
19344TIP3    H279524   1.322   2.979   5.089 -0.6984  0.4154 -0.5921
19345TIP3   OH279525   4.530   4.827   1.901  0.6486 -0.1691 -0.1630
19345TIP3    H179526   4.599   4.893   1.910 -0.8599  1.6227 -0.9588
19345TIP3    H279527   4.507   4.804   1.991  1.9379 -0.4543  0.1130
19346TIP3   OH279528   6.059   5.719   4.435  0.1902  0.2306 -0.6421
19346TIP3    H179529   6.098   5.794   4.480 -0.0426  0.1489 -0.3010
19346TIP3    H279530   5.976   5.703   4.481  0.9230 -1.1621  0.2455
19347TIP3   OH279531   0.045   4.831   3.216 -0.4580 -0.6193  0.3299
19347TIP3    H179532   0.106   4.868   3.280  1.9924 -1.9494 -1.0686
19347TIP3    H279533   0.079   4.743   3.199 -1.6210 -0.6986 -1.9950
19348TIP3   OH279534   2.278   4.587   1.208 -0.0577  0.3146  0.3619
19348TIP3    H179535   2.324   4.512   1.247 -1.2432 -0.3439  0.5417
19348TIP3    H279536   2.194   4.551   1.180 -0.0448  1.2580 -0.9442
19349TIP3   OH279537   2.752   1.486  11.682  0.3877 -0.3832  0.5614
19349TIP3    H179538   2.678   1.456  11.630 -0.1122  1.1824  0.3344
19349TIP3    H279539   2.803   1.407  11.698 -1.7786 -1.6802  1.5013
19350TIP3   OH279540   1.458   2.763  15.445 -0.2796 -0.2611  0.6598
19350TIP3    H179541   1.530   2.710  15.481  1.5261  2.4088  1.2591
19350TIP3    H279542   1.481   2.853  15.468 -2.5272  0.9425 -1.4167
19351TIP3   OH279543   4.557   0.208  10.630 -0.4922  0.3770 -0.0355
19351TIP3    H179544   4.565   0.261  10.551 -0.2260  3.0317  1.6623
19351TIP3    H279545   4.646   0.198  10.662 -0.4414 -1.8118 -0.6647
19352TIP3   OH279546   3.859   4.450  16.321  0.0254 -0.1373  0.1373
19352TIP3    H179547   3.811   4.381  16.276 -0.0441 -0.6914  1.0265
19352TIP3    H279548   3.802   4.527  16.317 -0.3681 -0.4337  0.0742
19353TIP3   OH279549   5.753   0.602  13.670  0.4445 -0.5514  0.1650
19353TIP3    H179550   5.767   0.679  13.725 -0.3412 -1.4023  1.6200
19353TIP3    H279551   5.678   0.626  13.615 -0.3922 -0.5747  1.2551
19354TIP3   OH279552   2.368   2.738   3.135  0.4814  0.8049  0.6218
19354TIP3    H179553   2.392   2.682   3.208  0.8479 -2.2899 -1.6797
19354TIP3    H279554   2.448   2.744   3.082 -0.5567  0.3256 -1.0726
19355TIP3   OH279555   6.578   2.860  13.007 -0.5949  0.1767 -0.1306
19355TIP3    H179556   6.643   2.900  12.950  0.6602 -1.2776  0.1901
19355TIP3    H279557   6.612   2.772  13.023 -2.0452 -0.2111  1.0552
19356TIP3   OH279558   2.328   1.301  14.894  0.2151 -0.1001 -0.4787
19356TIP3    H179559   2.375   1.231  14.849  0.7569  0.7665 -1.3074
19356TIP3    H279560   2.373   1.381  14.867  0.2688  0.4987  1.2699
19357TIP3   OH279561   4.472   2.374  11.643  0.2308 -0.1319 -0.1941
19357TIP3    H179562   4.479   2.289  11.601  1.1221 -0.3259  0.3452
19357TIP3    H279563   4.556   2.388  11.687 -0.7527 -0.0750  1.7985
19358TIP3   OH279564   5.892   5.213  14.197 -0.2809 -0.2342 -0.1393
19358TIP3    H179565   5.829   5.284  14.185 -1.0128 -0.3219  2.5202
19358TIP3    H279566   5.849   5.135  14.162 -0.0438  0.3328 -1.7795
19359TIP3   OH279567   4.222   5.120  11.400 -0.1517  0.5772  0.1238
19359TIP3    H179568   4.304   5.145  11.357 -0.1344 -0.3196 -0.3785
19359TIP3    H279569   4.163   5.193  11.382 -0.0192  0.4082 -1.1039
19360TIP3   OH279570   3.194   3.176  11.765 -0.4301 -0.2968 -0.1619
19360TIP3    H179571   3.237   3.173  11.679 -1.0701  1.3892 -0.5758
19360TIP3    H279572   3.101   3.179  11.745 -0.6399 -1.1138  0.6446
19361TIP3   OH279573   5.472   4.352  16.587  0.0042  0.4794 -0.1601
19361TIP3    H179574   5.421   4.432  16.595 -0.2658  0.3990 -0.9740
19361TIP3    H279575   5.494   4.346  16.494  2.0872  0.8596  0.2540
19362TIP3   OH279576   0.589   4.111  12.562  0.0906 -0.2418 -0.5434
19362TIP3    H179577   0.629   4.104  12.649 -0.4562  0.6392 -0.2050
19362TIP3    H279578   0.500   4.077  12.574  0.1264 -0.4435 -0.8434
19363TIP3   OH279579   2.300   3.382  10.809  0.1870  0.1649 -0.6454
19363TIP3    H179580   2.346   3.466  10.802 -0.6331  0.5414 -2.2005
19363TIP3    H279581   2.368   3.318  10.828  0.7646  1.2307  1.1152
19364TIP3   OH279582   1.145   3.174  12.333  0.3525 -0.0745  0.4480
19364TIP3    H179583   1.221   3.150  12.386  0.6093  1.8868  1.0497
19364TIP3    H279584   1.178   3.239  12.271 -0.0987 -1.7935 -1.7479
19365TIP3   OH279585   2.183   1.342  12.446  0.2817  0.4871 -0.1585
19365TIP3    H179586   2.200   1.274  12.511 -0.0564  0.6442  0.0967
19365TIP3    H279587   2.263   1.345  12.394  0.1460 -0.3812 -0.4288
19366TIP3   OH279588   6.410   0.894  16.751 -0.1361  0.5215 -0.2619
19366TIP3    H179589   6.412   0.846  16.834  0.8229  2.0729  0.6625
19366TIP3    H279590   6.332   0.949  16.757 -1.2989 -0.9291 -1.3697
19367TIP3   OH279591   0.470   2.358  14.843  0.1037  0.2740 -0.2962
19367TIP3    H179592   0.493   2.415  14.769  0.2363  1.0130  0.2969
19367TIP3    H279593   0.551   2.350  14.893 -0.4414  1.4545  0.8520
19368TIP3   OH279594   4.944   1.390   3.332  0.1241  0.3437 -0.3380
19368TIP3    H179595   4.868   1.409   3.387 -0.1459 -1.0810 -0.1712
19368TIP3    H279596   5.003   1.342   3.390 -0.4847 -1.8499 -1.4143
19369TIP3   OH279597   4.829   3.440   4.954 -0.1879  0.3402 -0.4857
19369TIP3    H179598   4.792   3.468   4.870 -0.2615  0.4696 -0.4122
19369TIP3    H279599   4.777   3.487   5.019  2.1826  3.2069 -0.4248
19370TIP3   OH279600   1.465   0.976   1.831  0.4886 -0.3310  0.4995
19370TIP3    H179601   1.459   0.898   1.775  1.5855  0.5559 -0.9576
19370TIP3    H279602   1.549   0.967   1.876  1.0601  0.3764 -0.3602
19371TIP3   OH279603   6.328   1.171   2.925  0.0001 -0.7012  0.0195
19371TIP3    H179604   6.372   1.087   2.917  1.4417 -0.1166  1.2082
19371TIP3    H279605   6.271   1.161   3.001  0.2798 -0.5799  0.2497
19372TIP3   OH279606   3.015   4.900  14.590  0.3572 -0.2852 -0.0725
19372TIP3    H179607   3.029   4.911  14.496  0.1196 -1.5564 -0.2766
19372TIP3    H279608   2.946   4.833  14.596  0.5766 -0.4381  1.0021
19373TIP3   OH279609   2.799   4.729  14.511 -0.2730  0.0927  0.1962
19373TIP3    H179610   2.840   4.643  14.515 -0.6270 -0.1173 -0.5252
19373TIP3    H279611   2.714   4.717  14.554  0.5211  0.6065  1.9850
19374TIP3   OH279612   3.298   0.189   2.513 -0.9448  0.2877  0.1410
19374TIP3    H179613   3.319   0.192   2.420 -1.6009  0.2182 -0.0127
19374TIP3    H279614   3.222   0.246   2.523 -0.6391  0.6089  0.7044
19375TIP3   OH279615   4.535   2.146  15.052 -0.2019 -0.1549  0.0329
19375TIP3    H179616   4.496   2.221  15.096 -1.5046 -0.8666  0.1543
19375TIP3    H279617   4.500   2.149  14.963  0.6189 -0.0094 -0.2956
19376TIP3   OH279618   5.279   5.674  14.005 -0.0345 -0.4784  0.8228
19376TIP3    H179619   5.288   5.727  13.926  0.4350 -1.4162  0.2255
19376TIP3    H279620   5.231   5.729  14.066 -1.7449 -0.2764 -0.6242
19377TIP3   OH279621   0.099   1.221   0.425 -0.0786  0.0207  0.0014
19377TIP3    H179622   0.082   1.162   0.351 -0.7916  0.1966  0.0196
19377TIP3    H279623   0.021   1.214   0.480  0.2229  0.2940  0.4729
19378TIP3   OH279624   0.765   0.456  10.653 -0.2468 -0.2264  0.2652
19378TIP3    H179625   0.777   0.362  10.667 -2.4313 -0.5029  0.6968
19378TIP3    H279626   0.687   0.462  10.598 -0.3053  1.3443  0.4710
19379TIP3   OH279627   0.048   4.171  12.071  0.0513  0.2062 -0.7542
19379TIP3    H179628   0.025   4.149  12.162  1.2037 -0.1838 -0.5460
19379TIP3    H279629   0.085   4.259  12.077 -0.1425  0.2985 -0.8987
19380TIP3   OH279630   4.338   5.596   1.635 -0.0084 -0.3421 -0.1431
19380TIP3    H179631   4.366   5.575   1.724  0.5833 -0.5755 -0.3801
19380TIP3    H279632   4.257   5.548   1.624 -0.9749  0.9677  0.8319
19381TIP3   OH279633   2.416   3.151  12.166 -0.0936  0.2194  0.3024
19381TIP3    H179634   2.435   3.191  12.251 -2.7718 -0.8978  1.5331
19381TIP3    H279635   2.351   3.209  12.126 -0.4982 -0.4355  0.0075
19382TIP3   OH279636   1.867   6.718   1.497  0.0069  0.0206  0.2806
19382TIP3    H179637   1.923   6.737   1.572  2.0686 -1.5163 -0.7716
19382TIP3    H279638   1.789   6.677   1.534  1.1301 -1.0003  1.5974
19383TIP3   OH279639   4.985   2.010   1.145 -0.3793 -0.5441  0.7550
19383TIP3    H179640   4.993   1.928   1.194 -1.3920 -0.9391  0.2886
19383TIP3    H279641   4.891   2.023   1.134 -0.1965 -0.0984 -0.4562
19384TIP3   OH279642   6.758   5.254  11.276 -0.1822  0.1684  0.3442
19384TIP3    H179643   6.820   5.233  11.206  0.0073 -0.2107  0.6246
19384TIP3    H279644   6.770   5.184  11.340 -1.2956 -0.2271  0.1410
19385TIP3   OH279645   2.694   0.020   1.634  0.0349  0.0118  0.1119
19385TIP3    H179646   2.767  -0.040   1.621 -0.0651  0.3403 -2.3698
19385TIP3    H279647   2.617  -0.029   1.604 -0.5998  0.2003  1.3272
19386TIP3   OH279648   3.197   3.193   0.444  0.2315  0.0631 -0.1181
19386TIP3    H179649   3.118   3.160   0.486  0.6402 -1.4338 -0.4808
19386TIP3    H279650   3.169   3.273   0.399 -1.0678 -0.4468 -0.2528
19387TIP3   OH279651   1.691   6.499  11.745 -0.3932  0.5555 -0.2210
19387TIP3    H179652   1.600   6.490  11.771 -0.7301  1.0867 -1.1445
19387TIP3    H279653   1.701   6.438  11.671  0.8187 -1.7310  1.6819
19388TIP3   OH279654   2.277   0.145  12.353  0.0003 -0.0394 -0.7507
19388TIP3    H179655   2.284   0.142  12.448  0.3297  0.1368 -0.7670
19388TIP3    H279656   2.343   0.208  12.326 -0.0298 -0.1540 -1.1035
19389TIP3   OH279657   4.473   2.611   4.889 -0.1041 -0.0889  0.0570
19389TIP3    H179658   4.568   2.602   4.896 -0.2031 -3.6370 -1.1514
19389TIP3    H279659   4.445   2.646   4.974  2.1650  0.1695  0.7514
19390TIP3   OH279660   6.530   6.213  16.267 -0.1256  0.3303 -0.4776
19390TIP3    H179661   6.536   6.223  16.172  1.4225  0.8159 -0.3534
19390TIP3    H279662   6.619   6.192  16.295 -0.6058 -0.0363  0.8503
19391TIP3   OH279663   6.714   5.170  13.164 -0.4973 -0.6145  0.2965
19391TIP3    H179664   6.667   5.253  13.170 -0.1167 -0.4017  0.4087
19391TIP3    H279665   6.766   5.166  13.244  0.3107 -0.4406 -0.2002
19392TIP3   OH279666   6.210   6.793   0.808  0.5770  0.0796  0.1968
19392TIP3    H179667   6.239   6.825   0.893  1.6324 -2.8918  1.0480
19392TIP3    H279668   6.115   6.790   0.815  0.6969 -1.1531  1.6985
19393TIP3   OH279669   0.899   2.621  17.066  0.0107 -0.5308 -0.0669
19393TIP3    H179670   0.982   2.644  17.106  0.1034 -0.4627 -0.2973
19393TIP3    H279671   0.908   2.649  16.974 -0.1377 -0.8226 -0.1737
19394TIP3   OH279672   6.024   5.589   5.132 -0.2256 -0.0177 -0.0597
19394TIP3    H179673   6.015   5.613   5.040  1.0756  1.2401  0.0990
19394TIP3    H279674   6.088   5.517   5.132  1.8335  1.6953 -0.0170
19395TIP3   OH279675   4.636   1.402  13.715  0.0625  0.0975  0.5010
19395TIP3    H179676   4.586   1.438  13.788 -1.2497 -0.9924  0.1866
19395TIP3    H279677   4.676   1.478  13.673 -2.5502  1.2593 -0.0900
19396TIP3   OH279678   5.080   4.956  14.683 -0.0352 -0.5512  0.2371
19396TIP3    H179679   5.030   4.881  14.714 -0.6366 -1.0868 -1.8236
19396TIP3    H279680   5.049   4.969  14.593  0.0226  2.1847  0.5084
19397TIP3   OH279681   6.325   2.250  11.461 -0.7009 -0.7156  0.6397
19397TIP3    H179682   6.405   2.265  11.410 -1.2681 -0.0094 -0.0673
19397TIP3    H279683   6.343   2.290  11.545  0.3954 -2.2227  1.1846
19398TIP3   OH279684   5.345   5.229   3.268  0.1304 -0.8634 -0.0717
19398TIP3    H179685   5.360   5.211   3.175 -0.0478 -2.3364  0.1625
19398TIP3    H279686   5.253   5.209   3.282 -0.4603  1.5793 -0.0332
19399TIP3   OH279687   0.406   0.484   4.191 -0.5988 -0.3265  0.0638
19399TIP3    H179688   0.402   0.543   4.117 -1.7825  0.8062  0.9929
19399TIP3    H279689   0.316   0.454   4.203 -0.4003 -0.5990  0.9492
19400TIP3   OH279690   6.171   0.395  15.878  0.3006 -0.2315 -0.2069
19400TIP3    H179691   6.263   0.371  15.889  0.5592  0.4523 -0.8084
19400TIP3    H279692   6.158   0.467  15.939  0.5369  0.5623 -1.0623
19401TIP3   OH279693   3.191   0.147  15.371  1.0052  0.4318  0.6357
19401TIP3    H179694   3.103   0.135  15.407  0.9563  0.7061  0.6036
19401TIP3    H279695   3.224   0.057  15.360 -0.1875  0.1794 -1.6095
19402TIP3   OH279696   5.500   2.075  11.947 -0.7930 -0.4159 -0.1399
19402TIP3    H179697   5.451   2.143  11.902 -1.7883 -1.9493 -1.4940
19402TIP3    H279698   5.565   2.046  11.882 -0.7765 -1.1511  0.1955
19403TIP3   OH279699   5.345   1.446   1.115  0.6034 -0.1699  0.6585
19403TIP3    H179700   5.384   1.359   1.113 -0.4083 -0.6368  0.6056
19403TIP3    H279701   5.255   1.432   1.087 -0.2222  0.5466  2.7790
19404TIP3   OH279702   3.171   1.603   5.783  0.6750 -0.0291 -0.0693
19404TIP3    H179703   3.166   1.602   5.879  0.0900  0.2860 -0.0911
19404TIP3    H279704   3.122   1.525   5.756  1.6934 -0.6797 -0.0885
19405TIP3   OH279705   2.337   1.158   5.419 -0.3927 -0.0147  0.5739
19405TIP3    H179706   2.339   1.072   5.378  0.2533  0.3453 -0.1846
19405TIP3    H279707   2.404   1.208   5.372 -1.1551  1.0763  0.6181
19406TIP3   OH279708   3.235   4.440  14.389  0.8249 -0.0119  0.7007
19406TIP3    H179709   3.190   4.355  14.397 -1.9937  1.3138  0.0377
19406TIP3    H279710   3.328   4.417  14.392  0.2043 -2.8870  2.8817
19407TIP3   OH279711   3.548   6.320   0.640  1.1364 -0.5479  0.1111
19407TIP3    H179712   3.617   6.356   0.696  0.7805  0.7446 -0.2360
19407TIP3    H279713   3.530   6.390   0.577 -0.4057 -0.9100  0.1169
19408TIP3   OH279714   6.212   2.175   0.154  0.3268 -0.1557 -0.7924
19408TIP3    H179715   6.260   2.240   0.204  0.0492  0.4945 -1.3468
19408TIP3    H279716   6.231   2.197   0.062  1.9849 -2.1804 -1.0117
19409TIP3   OH279717   4.396   3.290  10.547 -0.3282 -0.4705 -0.5294
19409TIP3    H179718   4.488   3.295  10.573 -0.1005 -1.2757 -1.1334
19409TIP3    H279719   4.371   3.199  10.564 -1.3352 -0.0061  0.6385
19410TIP3   OH279720   5.646   4.529  13.600 -0.3657 -0.3947 -0.2372
19410TIP3    H179721   5.567   4.580  13.617  0.3490 -0.1793  2.9121
19410TIP3    H279722   5.629   4.444  13.641  0.4100 -0.9361 -1.0050
19411TIP3   OH279723   0.088   1.816   1.297  0.2878 -0.4317  0.0440
19411TIP3    H179724   0.105   1.835   1.389  1.9001 -1.9677  0.1343
19411TIP3    H279725   0.172   1.782   1.264 -0.7206 -1.5676 -1.5160
19412TIP3   OH279726   6.298   1.066   5.234 -0.2517  0.0122  0.2778
19412TIP3    H179727   6.207   1.091   5.250 -0.4642 -0.5665 -0.0023
19412TIP3    H279728   6.337   1.143   5.193 -0.6637  0.1967  0.2260
19413TIP3   OH279729   5.060   5.464   0.461  0.1966 -0.0474 -0.4388
19413TIP3    H179730   5.014   5.548   0.470  0.0238 -0.1579 -0.2683
19413TIP3    H279731   5.029   5.412   0.536 -2.5339 -1.6060 -2.4833
19414TIP3   OH279732   0.532   3.158   1.404  0.2788  0.6128 -0.3427
19414TIP3    H179733   0.620   3.121   1.400 -0.0059 -0.1202  0.0107
19414TIP3    H279734   0.540   3.242   1.359  1.2301  0.7042 -0.0338
19415TIP3   OH279735   5.504   3.141  10.901 -0.0696  0.2067 -0.3578
19415TIP3    H179736   5.428   3.107  10.854  1.5844 -2.1815 -1.4963
19415TIP3    H279737   5.553   3.063  10.928  1.6614  1.6338  0.9191
19416TIP3   OH279738   1.477   1.126  14.451  0.7143 -0.2106  0.1621
19416TIP3    H179739   1.416   1.061  14.483  1.5690 -0.3949  1.4885
19416TIP3    H279740   1.544   1.076  14.405  0.4206 -0.0999 -0.3937
19417TIP3   OH279741   6.482   2.599   1.614  0.1024  0.2394 -0.4244
19417TIP3    H179742   6.462   2.506   1.624  0.2018  0.2744  0.0982
19417TIP3    H279743   6.577   2.605   1.624 -0.1034  0.6547  1.6275
19418TIP3   OH279744   0.929   6.029  16.820 -0.6107 -0.0848 -0.7128
19418TIP3    H179745   0.913   5.981  16.902  0.4341  2.3277  1.0215
19418TIP3    H279746   0.970   5.965  16.762  1.2836 -1.1908  1.6780
19419TIP3   OH279747   4.958   5.553   6.223  0.0505  0.4398 -0.2133
19419TIP3    H179748   4.964   5.632   6.277  0.3416  0.9700 -1.0134
19419TIP3    H279749   4.882   5.567   6.167 -0.8763 -0.5567  0.7458
19420TIP3   OH279750   6.783   6.397   3.088 -0.7448 -0.2946  0.0446
19420TIP3    H179751   6.774   6.490   3.069 -3.1788 -0.4434  0.1389
19420TIP3    H279752   6.861   6.370   3.039 -0.5237  1.5935 -0.7242
19421TIP3   OH279753   2.797   3.114  14.107 -0.3132  0.2882  0.2298
19421TIP3    H179754   2.793   3.067  14.190 -1.4287 -0.6965 -0.3635
19421TIP3    H279755   2.889   3.142  14.101 -0.4857  1.5970  2.4179
19422TIP3   OH279756   4.043   4.525   0.103 -0.3313  0.2546  0.3335
19422TIP3    H179757   4.079   4.602   0.061  2.1442  0.6480  2.8870
19422TIP3    H279758   4.057   4.540   0.197 -0.6200 -2.8664  0.9920
19423TIP3   OH279759   4.654   5.961  11.224  0.1286 -0.1712 -0.1445
19423TIP3    H179760   4.724   5.941  11.161  1.5178 -1.9166  1.8162
19423TIP3    H279761   4.680   5.916  11.304 -1.8801  1.4474  1.5349
19424TIP3   OH279762   6.576   6.821  10.741  0.0883 -0.6040 -0.1604
19424TIP3    H179763   6.561   6.827  10.647 -0.9184  0.6719  0.0495
19424TIP3    H279764   6.520   6.749  10.770 -0.7307 -0.0540 -0.3418
19425TIP3   OH279765   5.931   1.519   0.750 -0.4522  0.3275 -0.1426
19425TIP3    H179766   5.987   1.442   0.757 -0.4796  0.3742  0.8056
19425TIP3    H279767   5.983   1.584   0.702 -0.3508 -0.2093 -0.7584
19426TIP3   OH279768   4.001   6.407   4.729 -0.3072 -0.2142  0.2898
19426TIP3    H179769   3.950   6.373   4.802  0.4219  0.4941  1.1362
19426TIP3    H279770   4.066   6.339   4.711 -0.2437 -0.2168  0.5367
19427TIP3   OH279771   0.070   0.852   3.827 -0.2389  0.6747  0.1328
19427TIP3    H179772  -0.012   0.805   3.839  0.8649 -0.9893  1.6248
19427TIP3    H279773   0.053   0.939   3.862 -1.9116  1.0132 -1.3800
19428TIP3   OH279774   5.995   5.387   5.953 -0.1065  0.7214 -0.6694
19428TIP3    H179775   5.906   5.362   5.931 -0.0544  0.9036 -1.1044
19428TIP3    H279776   6.037   5.403   5.868  1.3064 -2.5723 -0.7223
19429TIP3   OH279777   0.753   4.568  13.601 -0.4322 -0.5373 -0.3734
19429TIP3    H179778   0.756   4.614  13.516  1.0362 -1.4434 -0.8397
19429TIP3    H279779   0.817   4.498  13.592 -0.9416 -1.2229  1.1790
19430TIP3   OH279780   5.387   5.502   2.820 -0.5557  0.0089  0.5356
19430TIP3    H179781   5.461   5.475   2.875 -0.7126 -1.4924  0.0679
19430TIP3    H279782   5.310   5.469   2.865 -0.8478  0.4831  0.3896
19431TIP3   OH279783   1.366   2.402  15.091  0.6962 -0.1360 -0.2879
19431TIP3    H179784   1.343   2.482  15.139  0.2089 -0.6778  0.4094
19431TIP3    H279785   1.340   2.421  15.000 -1.9458 -0.4305  0.3142
19432TIP3   OH279786   0.998   2.846   5.813 -0.4116 -0.3651 -0.5051
19432TIP3    H179787   0.943   2.835   5.890 -1.1226 -1.2869 -1.1198
19432TIP3    H279788   1.016   2.757   5.782  1.0309 -0.0636 -0.6082
19433TIP3   OH279789   5.573   5.080  13.774 -0.1591  0.3542 -0.0306
19433TIP3    H179790   5.514   5.079  13.699 -2.1351 -1.3396  1.4553
19433TIP3    H279791   5.593   4.988  13.790  2.9861  0.8456 -0.4542
19434TIP3   OH279792   2.523   4.005  11.901  0.6585  0.3782  0.0221
19434TIP3    H179793   2.542   3.953  11.823 -0.9258 -0.2756  0.0283
19434TIP3    H279794   2.557   4.092  11.881  0.5658  0.1374 -1.2737
19435TIP3   OH279795   6.396   3.219   3.056  0.9762  0.2462  0.3865
19435TIP3    H179796   6.318   3.249   3.103  0.6255  0.7657 -0.5115
19435TIP3    H279797   6.444   3.299   3.035  0.4475  0.1598 -1.2996
19436TIP3   OH279798   5.468   3.769   0.949  0.2879  0.5563  0.2168
19436TIP3    H179799   5.426   3.775   1.035 -0.5033 -0.8534 -0.0485
19436TIP3    H279800   5.409   3.716   0.897  1.6783 -0.2119 -0.6321
19437TIP3   OH279801   3.456   3.867   3.410  0.4152 -0.4203  0.2305
19437TIP3    H179802   3.434   3.937   3.349  0.5956 -0.6475 -0.0947
19437TIP3    H279803   3.491   3.912   3.487 -0.7000 -0.0779  0.5589
19438TIP3   OH279804   0.469   0.277  13.369  0.0762 -0.5547  0.1216
19438TIP3    H179805   0.539   0.218  13.342 -0.2973 -1.2156  0.5401
19438TIP3    H279806   0.396   0.218  13.390 -0.1034  0.0112  1.1651
19439TIP3   OH279807   3.088   6.700   6.310 -0.3952  0.1070 -0.6364
19439TIP3    H179808   3.149   6.750   6.364 -1.5784 -0.1891  1.0143
19439TIP3    H279809   3.107   6.730   6.220  2.9231 -0.7429 -0.3745
19440TIP3   OH279810   6.831   0.613  11.153  0.3971  0.5801  0.2683
19440TIP3    H179811   6.896   0.544  11.153 -0.5343 -0.3751 -1.6837
19440TIP3    H279812   6.753   0.573  11.191  0.1779  0.9011  0.1639
19441TIP3   OH279813   1.393   4.924   2.042  0.0230  0.2494 -0.5429
19441TIP3    H179814   1.386   4.841   1.995  1.5198 -1.0909  1.4589
19441TIP3    H279815   1.480   4.957   2.020  0.7571 -0.4097  1.2047
19442TIP3   OH279816   4.827   3.173   2.625 -0.2986  0.0452 -0.3706
19442TIP3    H179817   4.875   3.210   2.551 -1.1577  1.6954 -0.1558
19442TIP3    H279818   4.736   3.173   2.597 -0.6252  0.6090  0.6389
19443TIP3   OH279819   6.240   1.809  13.702  0.1105  0.1520 -0.3174
19443TIP3    H179820   6.207   1.883  13.754 -1.2573 -0.8422  0.2793
19443TIP3    H279821   6.164   1.753  13.689  0.6516 -0.1569 -2.5615
19444TIP3   OH279822   2.693   4.511   5.601  0.0223  0.0121  0.2356
19444TIP3    H179823   2.690   4.457   5.521 -0.2019  1.7693 -0.9955
19444TIP3    H279824   2.760   4.469   5.655 -0.1569 -1.5114 -0.6450
19445TIP3   OH279825   2.328   0.999   1.519 -0.2678  0.1946  0.2002
19445TIP3    H179826   2.400   0.976   1.461  0.5700  0.0325  1.2625
19445TIP3    H279827   2.264   1.042   1.463  0.9595  0.9763 -0.6403
19446TIP3   OH279828   2.565   4.789  12.600  0.0357  0.3173 -0.2348
19446TIP3    H179829   2.500   4.723  12.624 -1.0910  0.7257 -2.0205
19446TIP3    H279830   2.540   4.867  12.649 -0.1806  0.1628 -0.0987
19447TIP3   OH279831   4.277   3.236  15.649 -0.2598 -0.3474 -0.0447
19447TIP3    H179832   4.270   3.206  15.559  0.3513  0.3938 -0.3437
19447TIP3    H279833   4.315   3.323  15.643  0.2510 -0.4833  0.9587
19448TIP3   OH279834   1.671   1.236   3.001  0.5971  0.1844 -0.3338
19448TIP3    H179835   1.639   1.319   2.966  0.9691  0.1844 -0.6929
19448TIP3    H279836   1.592   1.186   3.022  0.3693  0.4524 -0.5448
19449TIP3   OH279837   0.483   4.706   4.476  0.5293 -0.0213  0.3860
19449TIP3    H179838   0.397   4.703   4.519  0.3342 -1.0902 -0.0416
19449TIP3    H279839   0.463   4.714   4.383  0.9156  0.3879  0.3339
19450TIP3   OH279840   1.850   0.429   5.614 -0.2017 -0.3106 -1.1682
19450TIP3    H179841   1.837   0.477   5.696  1.9593 -0.4777 -0.6688
19450TIP3    H279842   1.894   0.492   5.557 -1.8384 -0.1446 -2.2974
19451TIP3   OH279843   0.917   4.653   4.893  0.1795  0.3617  0.5169
19451TIP3    H179844   0.920   4.747   4.911 -0.1457  0.5051 -0.1657
19451TIP3    H279845   1.008   4.629   4.878  0.1164  0.8669 -0.7839
19452TIP3   OH279846   1.285   5.227  15.111 -0.2851 -0.7549  0.2501
19452TIP3    H179847   1.283   5.293  15.041  1.8131 -1.7783 -0.8815
19452TIP3    H279848   1.200   5.233  15.153 -1.2429  0.6113 -1.7599
19453TIP3   OH279849   5.443   3.833  11.341  0.0626  0.2845 -0.3674
19453TIP3    H179850   5.483   3.876  11.416  0.7151  1.0864 -1.1577
19453TIP3    H279851   5.513   3.779  11.304 -1.0290 -2.4747  1.2758
19454TIP3   OH279852   2.862   4.727   1.897 -0.0403  0.0185 -0.4370
19454TIP3    H179853   2.945   4.706   1.939 -0.1575 -1.2078 -0.7906
19454TIP3    H279854   2.809   4.766   1.967  0.5879  0.1662 -0.0375
19455TIP3   OH279855   2.458   5.694  14.844 -0.1386  0.2399  0.2751
19455TIP3    H179856   2.538   5.670  14.798  0.5606  1.0437  1.0368
19455TIP3    H279857   2.488   5.750  14.916 -1.1364 -1.3055  1.9682
19456TIP3   OH279858   5.123   4.270  13.501  0.4132  0.3711  0.1433
19456TIP3    H179859   5.217   4.289  13.497  0.7855 -1.4145 -0.1953
19456TIP3    H279860   5.091   4.294  13.414  0.7172  0.1963 -0.0186
19457TIP3   OH279861   3.936   1.690  11.408  0.0433  0.5302  0.2167
19457TIP3    H179862   3.876   1.621  11.437  0.2441  0.2846  0.0541
19457TIP3    H279863   3.953   1.670  11.316  1.6842 -0.3894  0.6818
19458TIP3   OH279864   2.729   0.425  17.084  0.4268 -0.4602  0.6165
19458TIP3    H179865   2.708   0.515  17.109 -1.9722 -0.7294 -0.1506
19458TIP3    H279866   2.783   0.392  17.155  0.4396  1.2616  1.4408
19459TIP3   OH279867   0.760   3.172  11.518  0.0348 -0.4969 -0.1460
19459TIP3    H179868   0.834   3.168  11.578 -0.9732  0.5084  1.2168
19459TIP3    H279869   0.685   3.145  11.570 -0.6679 -0.9500 -1.3473
19460TIP3   OH279870   5.506   6.351  12.429  0.8880  0.0978  0.2196
19460TIP3    H179871   5.544   6.287  12.489  2.1270 -0.2822 -0.9145
19460TIP3    H279872   5.581   6.387  12.381 -0.0578  0.2114 -1.2687
19461TIP3   OH279873   4.499   6.382   1.774  0.2813 -0.0945  0.0150
19461TIP3    H179874   4.580   6.384   1.724  1.6126  1.4619  2.0666
19461TIP3    H279875   4.519   6.330   1.852 -1.0857 -0.7190 -0.0168
19462TIP3   OH279876   4.541   5.548   5.629 -0.5617  0.3517  0.3901
19462TIP3    H179877   4.501   5.476   5.580  0.6372  0.2195 -0.4424
19462TIP3    H279878   4.487   5.624   5.608 -2.3868 -0.4358  1.9997
19463TIP3   OH279879   2.222   3.683  14.300  0.0456 -0.0825  0.4181
19463TIP3    H179880   2.236   3.691  14.394  0.8530  0.4940  0.2596
19463TIP3    H279881   2.286   3.744  14.261 -2.7557  2.5939 -0.3812
19464TIP3   OH279882   3.807   3.846  14.527  1.2610 -0.3767 -0.3417
19464TIP3    H179883   3.831   3.756  14.508 -0.1930 -0.8208 -0.1932
19464TIP3    H279884   3.875   3.877  14.588  0.5496 -2.1286  1.4569
19465TIP3   OH279885   2.085   2.287  16.966 -0.1661  0.2148  0.2255
19465TIP3    H179886   2.030   2.213  16.941  1.0620 -0.5786 -0.2242
19465TIP3    H279887   2.165   2.276  16.914  0.6230  1.0565  1.2198
19466TIP3   OH279888   0.506   3.014   4.173  0.8174 -0.1959 -0.2703
19466TIP3    H179889   0.464   3.040   4.092  0.1644 -0.6953 -0.0985
19466TIP3    H279890   0.513   2.918   4.167 -0.3944 -0.3775  0.7961
19467TIP3   OH279891   5.530   0.350   0.016 -0.2684 -0.5627 -0.0063
19467TIP3    H179892   5.453   0.392  -0.022  1.0127 -0.5187 -2.8206
19467TIP3    H279893   5.550   0.401   0.094 -1.5431  1.0477 -0.6861
19468TIP3   OH279894   3.377   2.451  15.019 -0.1525 -0.1934 -0.1218
19468TIP3    H179895   3.339   2.478  15.103 -1.2456 -1.3820 -0.2185
19468TIP3    H279896   3.422   2.530  14.987 -1.3700  0.8545  0.6436
19469TIP3   OH279897   2.442   3.295   4.510 -0.1133 -0.6129  0.3696
19469TIP3    H179898   2.446   3.214   4.459  2.9582  0.2182 -0.9679
19469TIP3    H279899   2.398   3.357   4.453 -0.1168 -0.6613  0.3190
19470TIP3   OH279900   0.417   6.082  15.361 -0.1635  0.2107  0.1402
19470TIP3    H179901   0.432   6.017  15.430 -0.3854  0.5260  0.4864
19470TIP3    H279902   0.479   6.057  15.292 -1.3226 -1.3121 -0.3932
19471TIP3   OH279903   4.762   6.217   0.181 -0.1931  0.5439 -0.5611
19471TIP3    H179904   4.830   6.202   0.116  0.4172  1.8038 -0.2437
19471TIP3    H279905   4.797   6.287   0.236 -0.3457 -1.0103  1.6298
19472TIP3   OH279906   1.579   6.772   2.702  0.4554 -0.1075 -0.1894
19472TIP3    H179907   1.552   6.683   2.727  1.3626  0.2245  2.1237
19472TIP3    H279908   1.560   6.825   2.779 -0.2628  1.7989 -1.6104
19473TIP3   OH279909   6.148   2.939   5.189 -0.0985 -0.1090 -0.0447
19473TIP3    H179910   6.136   2.878   5.262 -1.0555  0.3590  0.1970
19473TIP3    H279911   6.243   2.949   5.183  0.0204 -0.6215  0.7409
19474TIP3   OH279912   1.264   1.250   2.718 -0.0887  0.0421 -0.4754
19474TIP3    H179913   1.192   1.267   2.657 -1.2308 -1.2447  0.4334
19474TIP3    H279914   1.283   1.335   2.757 -1.6592  0.3021 -0.1937
19475TIP3   OH279915   5.501   1.470  10.889  0.0057  0.6708  0.0291
19475TIP3    H179916   5.450   1.455  10.968  0.3130  1.4241  0.3812
19475TIP3    H279917   5.516   1.383  10.853 -1.2563  0.4056  0.0793
19476TIP3   OH279918   1.363   1.644  10.364  0.9272 -0.1865  0.1111
19476TIP3    H179919   1.340   1.602  10.282 -2.6344 -0.3508  1.0497
19476TIP3    H279920   1.368   1.573  10.428 -1.5135  0.3452  0.9856
19477TIP3   OH279921   1.091   2.726  11.274 -0.5233 -0.4558  0.7085
19477TIP3    H179922   1.140   2.646  11.258  0.6780  0.5087 -0.6115
19477TIP3    H279923   1.091   2.772  11.190 -0.2540  1.4278  1.7003
19478TIP3   OH279924   0.411   5.115  13.181 -0.8232  0.1227  0.7053
19478TIP3    H179925   0.410   5.141  13.089  0.6470  1.4192  1.0098
19478TIP3    H279926   0.319   5.111  13.207 -1.2978 -1.0126 -0.9939
19479TIP3   OH279927   6.033   0.484  15.021  0.0336  0.1072  0.5472
19479TIP3    H179928   6.120   0.450  15.001 -0.5731 -1.8275  1.0413
19479TIP3    H279929   5.991   0.492  14.936  0.3154  0.0148  0.3963
19480TIP3   OH279930   2.414   3.049  13.805  0.0419 -0.0837 -0.1970
19480TIP3    H179931   2.336   3.043  13.750 -1.4050 -0.1610  1.7402
19480TIP3    H279932   2.440   2.958  13.820 -1.2345 -0.2241  1.4156
19481TIP3   OH279933   5.060   4.232   2.872  0.4438  0.3795  0.4151
19481TIP3    H179934   5.099   4.218   2.959  0.6249 -2.6313 -0.0389
19481TIP3    H279935   4.969   4.204   2.882  0.0591  1.4300 -0.0430
19482TIP3   OH279936   0.539   0.146   1.591  0.7614  0.1033 -0.2456
19482TIP3    H179937   0.481   0.086   1.544 -1.0742  0.8527  0.9484
19482TIP3    H279938   0.573   0.093   1.664 -0.6435  0.3922  0.6504
19483TIP3   OH279939   5.602   0.406  12.858  0.2486 -0.0585  0.0294
19483TIP3    H179940   5.566   0.464  12.791  1.5027 -1.7627 -2.2482
19483TIP3    H279941   5.527   0.353  12.886 -0.5971  1.6146  1.1174
19484TIP3   OH279942   3.068   5.923   2.836 -0.1470 -0.2186 -0.0905
19484TIP3    H179943   3.025   5.929   2.751  0.8123  0.2508 -0.5537
19484TIP3    H279944   3.055   6.010   2.875 -1.9628 -0.8975  0.9517
19485TIP3   OH279945   3.470   5.875  13.492 -0.1884  0.3981  0.1522
19485TIP3    H179946   3.506   5.804  13.439 -1.3392  0.4697 -0.7713
19485TIP3    H279947   3.454   5.835  13.578  1.0553  0.1009  0.2740
19486TIP3   OH279948   0.261   6.247   4.967 -0.3906 -0.2244 -0.2211
19486TIP3    H179949   0.215   6.164   4.953 -2.8208  1.0356 -0.2743
19486TIP3    H279950   0.216   6.309   4.910  0.6995  1.3593  0.5691
19487TIP3   OH279951   1.979   6.748   1.001 -0.0643 -0.4858 -0.0249
19487TIP3    H179952   1.899   6.780   0.960 -1.4138 -2.1460  1.1868
19487TIP3    H279953   1.994   6.662   0.961  0.0700 -0.9821  1.0589
19488TIP3   OH279954   2.815   5.722  11.485 -0.3996  0.7050  0.7195
19488TIP3    H179955   2.801   5.698  11.577 -0.0662 -0.7925  0.4101
19488TIP3    H279956   2.758   5.663  11.436  1.4368 -0.4135 -0.1628
19489TIP3   OH279957   5.594   5.838  16.872 -0.0164 -0.0298 -1.1073
19489TIP3    H179958   5.602   5.779  16.947 -2.0117 -0.2030 -0.9688
19489TIP3    H279959   5.610   5.781  16.796 -1.8861 -0.8228 -0.9745
19490TIP3   OH279960   3.494   4.651   3.081  0.4883 -0.3756  0.6378
19490TIP3    H179961   3.568   4.674   3.137  0.1642 -0.8319  1.2742
19490TIP3    H279962   3.419   4.696   3.121  0.3267 -0.3684  0.3287
19491TIP3   OH279963   2.027   5.802   5.666  0.2969  0.0477  0.2494
19491TIP3    H179964   1.938   5.826   5.640  0.0589 -1.0275  0.0354
19491TIP3    H279965   2.034   5.708   5.647  1.4352  0.0855  0.3827
19492TIP3   OH279966   0.219   2.915   2.135  0.3137 -0.1642  0.2114
19492TIP3    H179967   0.259   2.932   2.221 -1.3292  0.9553  0.7956
19492TIP3    H279968   0.145   2.858   2.154  0.1233 -0.1706 -0.5239
19493TIP3   OH279969   6.549   0.676  16.623 -0.1302  0.1492  0.4599
19493TIP3    H179970   6.499   0.748  16.661  0.0184  0.7313 -0.4324
19493TIP3    H279971   6.483   0.611  16.600 -0.4356  0.6918 -0.2259
19494TIP3   OH279972   5.181   6.842  15.902 -0.3392  0.2532 -0.5997
19494TIP3    H179973   5.120   6.848  15.828 -0.2167  0.9821 -0.6538
19494TIP3    H279974   5.152   6.911  15.962 -1.4224 -1.3335  0.8073
19495TIP3   OH279975   5.996   1.671  12.473 -0.2176  0.0583 -0.5983
19495TIP3    H179976   5.969   1.763  12.476 -0.4171  0.0017  2.2955
19495TIP3    H279977   6.091   1.674  12.482 -0.1525 -0.0190 -1.2188
19496TIP3   OH279978   1.916   1.931  16.014 -0.0695  0.0215  0.4878
19496TIP3    H179979   1.830   1.946  15.975  0.0330 -0.8093 -0.0783
19496TIP3    H279980   1.971   1.905  15.941 -0.1360 -2.6985  1.2846
19497TIP3   OH279981   6.741   4.562   5.980 -1.0572 -0.5252 -0.1004
19497TIP3    H179982   6.822   4.556   6.030 -0.4892 -2.6986 -1.1725
19497TIP3    H279983   6.672   4.558   6.046 -0.3162 -2.6611  0.6256
19498TIP3   OH279984   2.440   5.499  14.597  0.5115  0.3443 -0.0785
19498TIP3    H179985   2.479   5.434  14.538  1.0579  0.1823  0.4560
19498TIP3    H279986   2.514   5.538  14.643  0.1351  0.9022  0.0720
19499TIP3   OH279987   5.269   5.728   5.576 -0.1792 -0.0801 -0.0251
19499TIP3    H179988   5.305   5.789   5.510 -0.1597  1.9994  1.7910
19499TIP3    H279989   5.224   5.661   5.524 -1.3939  2.2106 -2.1750
19500TIP3   OH279990   3.406   0.258  10.959  0.0261 -0.1075 -0.8435
19500TIP3    H179991   3.392   0.271  10.865 -1.6128 -0.8206 -0.7371
19500TIP3    H279992   3.401   0.346  10.997 -2.8766 -0.0759 -1.0500
19501TIP3   OH279993   6.207   6.293  11.611 -0.0527  0.3106  0.6454
19501TIP3    H179994   6.297   6.323  11.627  0.0946 -0.2773  0.9615
19501TIP3    H279995   6.164   6.368  11.570  1.0968 -0.0225 -1.2991
19502TIP3   OH279996   1.178   2.748  15.527 -0.2524 -0.4136 -0.0321
19502TIP3    H179997   1.250   2.795  15.486 -0.9449  0.6683 -0.0510
19502TIP3    H279998   1.103   2.762  15.468 -0.5317 -1.3419  0.0906
19503TIP3   OH279999   1.216   4.167  16.188 -0.1618  0.0161  0.2428
19503TIP3    H180000   1.252   4.140  16.104  0.3368 -1.1865  0.8082
19503TIP3    H280001   1.127   4.196  16.168 -0.8926 -2.4409 -0.4266
19504TIP3   OH280002   4.841   3.118  14.930  0.5369 -0.6648 -0.1905
19504TIP3    H180003   4.795   3.034  14.929  0.2504 -0.5064 -0.8909
19504TIP3    H280004   4.920   3.102  14.982  0.7771 -1.5312 -0.7902
19505TIP3   OH280005   3.924   6.425   2.376  0.4979 -0.1742  0.0669
19505TIP3    H180006   3.979   6.397   2.303  0.3247 -2.9703  0.9143
19505TIP3    H280007   3.983   6.430   2.451  0.1197 -0.4423  0.3920
19506TIP3   OH280008   6.372   2.196  13.164 -0.0330  0.1156 -0.1659
19506TIP3    H180009   6.422   2.277  13.153 -0.3501  0.7581  2.3913
19506TIP3    H280010   6.421   2.147  13.231 -1.5099 -0.3528  0.6064
19507TIP3   OH280011   1.575   2.176  12.163  0.1553 -0.2434  0.1064
19507TIP3    H180012   1.581   2.152  12.256  1.1416  0.3806  0.2146
19507TIP3    H280013   1.487   2.213  12.154 -0.0713 -0.6047  0.7146
19508TIP3   OH280014   6.504   5.728   6.236 -0.0741  0.1695  0.2376
19508TIP3    H180015   6.445   5.785   6.285  2.8194  2.9268  0.7958
19508TIP3    H280016   6.558   5.685   6.302 -0.3640 -1.1426 -0.3287
19509TIP3   OH280017   2.657   5.442   4.337 -0.1998 -0.6659  0.0677
19509TIP3    H180018   2.748   5.460   4.314 -0.3218 -2.6464 -2.2978
19509TIP3    H280019   2.605   5.489   4.272 -0.7697 -1.6656 -0.2180
19510TIP3   OH280020   0.969   3.262   6.491 -0.1729  0.1528  0.0907
19510TIP3    H180021   1.023   3.312   6.552  1.2096 -2.2984  0.9889
19510TIP3    H280022   1.027   3.244   6.417 -0.0107 -1.6950  0.6358
19511TIP3   OH280023   4.603   2.101  16.771 -0.5994 -0.5087  0.3231
19511TIP3    H180024   4.643   2.101  16.683 -1.2519 -0.0493  0.0200
19511TIP3    H280025   4.635   2.020  16.811 -1.5646 -1.5599 -0.9304
19512TIP3   OH280026   5.710   0.119   0.441  0.2726 -0.2760 -0.6850
19512TIP3    H180027   5.779   0.058   0.466 -0.8815 -2.1469 -1.8053
19512TIP3    H280028   5.747   0.206   0.458  2.4909 -1.2271 -0.3224
19513TIP3   OH280029   5.177   3.256   3.214 -0.3623  0.5546 -0.2812
19513TIP3    H180030   5.153   3.196   3.285 -2.6481 -1.3844 -2.5047
19513TIP3    H280031   5.104   3.316   3.208  1.2638  2.8181  0.9540
19514TIP3   OH280032   2.175   4.865  15.807  0.1168 -0.6610  0.3557
19514TIP3    H180033   2.127   4.798  15.856  1.4196 -1.9401 -0.0314
19514TIP3    H280034   2.180   4.939  15.868 -2.9874 -0.1135  0.1135
19515TIP3   OH280035   4.679   4.839  16.811  0.0788  0.0146 -0.1062
19515TIP3    H180036   4.604   4.885  16.849  0.7421  0.9853  0.0656
19515TIP3    H280037   4.682   4.756  16.858 -2.2827 -1.0996 -1.6996
19516TIP3   OH280038   6.175   4.747   5.594  0.0668 -0.3809 -0.0965
19516TIP3    H180039   6.099   4.717   5.643  1.5140 -1.7526  1.4563
19516TIP3    H280040   6.166   4.706   5.508  0.2794 -2.6559  0.8900
19517TIP3   OH280041   5.382   2.271   2.610 -0.0356  0.1678  0.8816
19517TIP3    H180042   5.371   2.350   2.663  0.8204  0.3804  0.7474
19517TIP3    H280043   5.447   2.294   2.544 -0.6341 -0.2868  0.1099
19518TIP3   OH280044   3.302   0.309  11.321 -0.1501 -0.0468  0.3115
19518TIP3    H180045   3.380   0.266  11.357  1.1608  0.9278 -1.2096
19518TIP3    H280046   3.329   0.400  11.309 -2.3287  0.8984  1.9496
19519TIP3   OH280047   4.479   6.465   2.689 -0.3712 -0.1109  0.2145
19519TIP3    H180048   4.469   6.497   2.779  3.7071 -2.5861  1.8035
19519TIP3    H280049   4.389   6.460   2.656 -2.0593  1.2653  3.9629
19520TIP3   OH280050   1.762   5.099  12.384 -0.0600 -0.1402  0.3361
19520TIP3    H180051   1.703   5.083  12.311  1.0685 -0.2532 -0.5936
19520TIP3    H280052   1.706   5.130  12.455 -0.9271  2.2590 -1.2840
19521TIP3   OH280053   4.637   1.044   3.273 -0.1866 -0.0567  0.3993
19521TIP3    H180054   4.639   1.136   3.246 -0.2938 -0.2890 -0.4343
19521TIP3    H280055   4.545   1.020   3.270 -0.0994 -0.3581 -0.0025
19522TIP3   OH280056   2.579   2.566  13.137  0.0187 -0.3118  0.3772
19522TIP3    H180057   2.487   2.538  13.141  0.4260 -1.7638  0.3316
19522TIP3    H280058   2.619   2.506  13.075  1.3626 -0.8144  1.6819
19523TIP3   OH280059   3.504   5.101  10.474  1.1324  0.4827  0.5447
19523TIP3    H180060   3.476   5.027  10.419  1.6665  0.2395  0.5931
19523TIP3    H280061   3.540   5.059  10.552  3.5103  0.6893 -0.3698
19524TIP3   OH280062   6.021   0.306  14.597  0.0721  0.0694 -0.1583
19524TIP3    H180063   6.029   0.211  14.602 -1.1168  0.0135  1.5803
19524TIP3    H280064   6.109   0.336  14.573  0.6568 -1.4229  0.0012
19525TIP3   OH280065   2.953   2.935   6.085 -0.5489 -0.5678  0.4484
19525TIP3    H180066   2.885   2.979   6.135 -0.4624 -0.3036  0.3358
19525TIP3    H280067   3.028   2.930   6.145  0.2522  1.5779 -0.2863
19526TIP3   OH280068   0.901   2.704   0.505  0.2072 -0.5328  0.1161
19526TIP3    H180069   0.953   2.784   0.515  1.1001 -1.3809  3.1877
19526TIP3    H280070   0.947   2.653   0.439 -0.7316  1.6364 -2.4084
19527TIP3   OH280071   1.377   1.909  12.328 -0.2793  0.2638 -0.2441
19527TIP3    H180072   1.395   1.999  12.356 -0.2906  0.2713 -0.2616
19527TIP3    H280073   1.352   1.917  12.236  1.4245  0.0498 -0.7534
19528TIP3   OH280074   1.593   4.469   4.415  0.3441 -0.4836 -0.0274
19528TIP3    H180075   1.525   4.437   4.355 -2.5183 -1.5921  3.4873
19528TIP3    H280076   1.563   4.556   4.441  1.1478 -0.3150  0.3696
19529TIP3   OH280077   3.735   4.585   0.108  0.8319  0.1799  0.1735
19529TIP3    H180078   3.761   4.673   0.082  1.1449 -0.0229 -0.2125
19529TIP3    H280079   3.816   4.534   0.107  0.4322 -0.4805 -1.1238
19530TIP3   OH280080   4.430   6.750  15.405 -0.1029 -0.3317  0.1741
19530TIP3    H180081   4.482   6.670  15.409  0.8991  0.0541 -2.6972
19530TIP3    H280082   4.474   6.810  15.466  0.9134 -1.0365  0.1610
19531TIP3   OH280083   5.736   0.060  13.029  0.1958  0.1653  0.0027
19531TIP3    H180084   5.665   0.109  13.070  1.2475 -0.0535  2.2066
19531TIP3    H280085   5.718   0.067  12.935 -2.1233  0.9970  0.4309
19532TIP3   OH280086   2.130   5.505  12.969  0.3734  0.4415 -0.4962
19532TIP3    H180087   2.050   5.522  12.919  0.2220  0.7522 -0.1567
19532TIP3    H280088   2.201   5.528  12.909  0.2504 -1.1202 -1.2712
19533TIP3   OH280089   6.345   5.925   2.927  0.0683  0.2505 -0.4320
19533TIP3    H180090   6.267   5.940   2.980  0.5269  1.2970 -0.0198
19533TIP3    H280091   6.345   5.996   2.862  1.6412  1.4251  0.7611
19534TIP3   OH280092   6.697   2.592  16.127 -0.5793 -0.1585 -0.3329
19534TIP3    H180093   6.743   2.587  16.043  0.2461  0.0916  0.0971
19534TIP3    H280094   6.767   2.591  16.193 -1.0715  1.9136  0.2894
19535TIP3   OH280095   2.992   0.357  13.507 -0.7430 -0.1195 -0.2566
19535TIP3    H180096   2.941   0.298  13.452 -1.7806 -0.6920  1.2419
19535TIP3    H280097   2.935   0.374  13.582  1.0389 -0.3306  1.2131
19536TIP3   OH280098   1.555   5.814  11.704 -0.3145 -0.0982 -0.0781
19536TIP3    H180099   1.562   5.724  11.737 -2.0757  0.1841  1.1567
19536TIP3    H280100   1.462   5.826  11.687 -0.1082  1.5231 -0.1718
19537TIP3   OH280101   5.061   1.648   3.909 -0.2996 -0.1988  0.8797
19537TIP3    H180102   5.029   1.690   3.829 -1.4381 -0.9967  0.8940
19537TIP3    H280103   5.139   1.600   3.880 -0.5176 -0.2220  0.3162
19538TIP3   OH280104   0.427   2.458  10.677 -0.4192  0.2279  0.8724
19538TIP3    H180105   0.435   2.399  10.602 -2.2879 -0.6993  1.3288
19538TIP3    H280106   0.470   2.538  10.649  1.5932 -1.0875 -0.0301
19539TIP3   OH280107   3.009   0.815  13.465 -0.1448 -0.3639  0.2714
19539TIP3    H180108   3.026   0.744  13.528 -2.1560 -2.5643 -1.4834
19539TIP3    H280109   2.915   0.829  13.470 -0.4568 -0.9530 -2.4998
19540TIP3   OH280110   5.620   6.623   0.115  0.1570  0.4493  0.4571
19540TIP3    H180111   5.596   6.608   0.024 -1.4662 -3.7611  1.3857
19540TIP3    H280112   5.707   6.583   0.124 -0.3519 -0.5653  1.0374
19541TIP3   OH280113   5.137   0.770  15.415 -0.1942 -0.4359 -0.0923
19541TIP3    H180114   5.228   0.743  15.431  0.1454  1.8191  2.3557
19541TIP3    H280115   5.090   0.741  15.493 -1.0118  0.6601 -0.1622
19542TIP3   OH280116   4.538   2.894  14.063  0.2457 -0.2271  0.7348
19542TIP3    H180117   4.583   2.967  14.107  0.5813 -0.1212  0.2212
19542TIP3    H280118   4.588   2.816  14.088 -1.0663 -0.5257  2.6206
19543TIP3   OH280119   4.974   0.923  12.642 -0.7330 -0.4335  0.2120
19543TIP3    H180120   4.972   0.843  12.695 -0.5633  0.2066  1.2119
19543TIP3    H280121   5.054   0.916  12.591 -0.2146 -0.4782  1.0065
19544TIP3   OH280122   0.612   4.916  13.167 -0.6300  0.5012  0.2060
19544TIP3    H180123   0.545   4.984  13.175 -1.2019  0.1278 -1.0761
19544TIP3    H280124   0.597   4.859  13.242 -1.4995  0.6559  0.1649
19545TIP3   OH280125   2.616   4.853  13.268 -0.2951  0.1967 -0.1317
19545TIP3    H180126   2.637   4.761  13.252 -1.9707 -0.4792  1.2093
19545TIP3    H280127   2.663   4.874  13.348  0.7591  0.8003 -0.8831
19546TIP3   OH280128   5.500   5.343  15.221  0.5427  0.1718  0.7273
19546TIP3    H180129   5.472   5.293  15.298 -1.1745 -1.3156 -0.7980
19546TIP3    H280130   5.486   5.434  15.246 -1.0461 -0.3258  1.8094
19547TIP3   OH280131   2.568   4.424  14.164  0.1064 -0.4123 -0.4822
19547TIP3    H180132   2.644   4.441  14.108  0.8056  1.4370  0.8843
19547TIP3    H280133   2.550   4.509  14.205 -2.2615 -0.9833 -0.2002
19548TIP3   OH280134   1.795   1.969   4.952  0.0247 -0.0586 -0.4511
19548TIP3    H180135   1.781   1.886   4.907 -0.0080 -0.9154  1.0627
19548TIP3    H280136   1.864   2.012   4.903  2.3870 -2.4476  0.5304
19549TIP3   OH280137   2.345   0.202   5.459 -0.0994  0.1977  0.4006
19549TIP3    H180138   2.304   0.244   5.384 -0.7092  0.4815  0.8836
19549TIP3    H280139   2.381   0.275   5.510  0.3454  0.0049  0.3660
19550TIP3   OH280140   1.739   6.486   1.802  0.2166  0.1014 -0.3163
19550TIP3    H180141   1.736   6.394   1.777  2.7260 -0.0354 -0.3794
19550TIP3    H280142   1.727   6.485   1.897 -1.2187 -0.1255 -0.4823
19551TIP3   OH280143   5.141   6.141  15.959  0.1865 -0.2099  0.0900
19551TIP3    H180144   5.167   6.233  15.948  1.3850 -0.5540 -0.0181
19551TIP3    H280145   5.045   6.143  15.954  0.1691  1.0963  0.6058
19552TIP3   OH280146   6.338   5.839  14.070  0.3708 -0.4490  0.1225
19552TIP3    H180147   6.327   5.745  14.082  1.0764 -0.3102  2.2028
19552TIP3    H280148   6.261   5.877  14.113  0.6979 -0.0469  0.3548
19553TIP3   OH280149   0.683   0.759  13.478  0.1763 -0.0358 -0.0797
19553TIP3    H180150   0.695   0.783  13.570 -0.6082  0.5183 -0.1092
19553TIP3    H280151   0.599   0.715  13.475  1.1893 -2.0586 -0.1923
19554TIP3   OH280152   2.196   3.757  12.457  0.1942 -0.5802  0.2285
19554TIP3    H180153   2.135   3.786  12.525 -0.8184 -1.2433 -0.3566
19554TIP3    H280154   2.205   3.832  12.398  0.1604 -0.3873  0.4678
19555TIP3   OH280155   4.949   6.196  11.553 -0.2239 -0.1807 -0.2228
19555TIP3    H180156   4.856   6.198  11.534  0.0898 -1.3332 -2.1323
19555TIP3    H280157   4.975   6.289  11.554 -1.1175  0.0936 -1.1082
19556TIP3   OH280158   0.062   0.358  15.086 -0.1537  0.1882 -0.3078
19556TIP3    H180159  -0.005   0.405  15.036  0.2132  1.9112  0.7456
19556TIP3    H280160   0.143   0.408  15.072  0.2480 -0.0899  0.8818
19557TIP3   OH280161   5.324   6.130   2.666  0.1102 -0.2543  0.3402
19557TIP3    H180162   5.316   6.160   2.756 -0.4785  0.4110  0.0731
19557TIP3    H280163   5.331   6.035   2.673 -0.3665 -0.2447  1.0623
19558TIP3   OH280164   1.097   5.051  16.168 -0.1206  0.1253  0.4875
19558TIP3    H180165   1.142   5.131  16.194  2.2546 -0.3404 -1.7139
19558TIP3    H280166   1.034   5.079  16.102  1.2004  0.1944 -0.8040
19559TIP3   OH280167   4.883   5.768   4.387  0.2078  0.2204 -0.1974
19559TIP3    H180168   4.854   5.701   4.325 -0.7336  0.3523  0.0883
19559TIP3    H280169   4.966   5.799   4.351  0.6723 -1.1074 -0.3265
19560TIP3   OH280170   1.728   0.168  11.964  0.0886 -0.6222 -0.3578
19560TIP3    H180171   1.784   0.096  11.994 -1.0021 -0.7446  1.5788
19560TIP3    H280172   1.787   0.225  11.915  1.7890 -1.0669  1.0485
19561TIP3   OH280173   2.651   5.027  15.534  0.5992  0.8360 -0.1568
19561TIP3    H180174   2.676   4.990  15.450  1.1576 -1.4302  0.9186
19561TIP3    H280175   2.559   5.005  15.544  0.0163  2.7519 -0.9365
19562TIP3   OH280176   0.517   0.219  10.798 -0.6814 -0.0613 -0.5895
19562TIP3    H180177   0.472   0.280  10.740 -2.0697  0.5516  1.0390
19562TIP3    H280178   0.601   0.202  10.756 -1.2287  1.1366 -2.2394
19563TIP3   OH280179   2.010   6.691  15.501  0.3543 -0.0524  0.8229
19563TIP3    H180180   2.048   6.766  15.546  0.4822  0.3394  0.0743
19563TIP3    H280181   1.984   6.631  15.571 -1.4266  1.4851  1.5547
19564TIP3   OH280182   5.305   6.261  13.496  0.5085  0.0810 -0.1385
19564TIP3    H180183   5.368   6.280  13.565  0.5065  1.5764 -0.5147
19564TIP3    H280184   5.272   6.347  13.468 -1.2838 -0.6131 -0.3439
19565TIP3   OH280185   3.644   0.566  13.326  0.2567 -0.3586  0.7103
19565TIP3    H180186   3.581   0.599  13.391  0.6878 -1.3703  1.6754
19565TIP3    H280187   3.687   0.645  13.292  0.0837  0.1963  1.7307
19566TIP3   OH280188   4.758   4.934   5.561 -0.3427  0.2192  0.1097
19566TIP3    H180189   4.746   4.955   5.654 -0.6169  0.4533  0.0191
19566TIP3    H280190   4.814   5.004   5.528 -0.3545  0.2076  0.0651
19567TIP3   OH280191   2.501   2.879  10.395  0.8137  0.4730 -0.2849
19567TIP3    H180192   2.439   2.812  10.426 -0.5409  1.8059 -0.0094
19567TIP3    H280193   2.580   2.865  10.447  0.2144 -0.2943  0.4383
19568TIP3   OH280194   1.642   6.181  15.484  0.3886  0.1676  0.4016
19568TIP3    H180195   1.568   6.235  15.455 -0.6470 -1.2769  0.2295
19568TIP3    H280196   1.701   6.180  15.409 -1.7486 -2.6303 -1.4873
19569TIP3   OH280197   3.816   6.091  12.766 -0.2088 -0.0286 -0.4170
19569TIP3    H180198   3.750   6.092  12.697  0.2761  0.8630 -0.8891
19569TIP3    H280199   3.796   6.013  12.818 -1.2780 -0.0820 -0.8858
19570TIP3   OH280200   2.114   4.740  13.428  0.2021  0.6517 -0.2162
19570TIP3    H180201   2.044   4.782  13.477 -2.5618 -1.7998 -1.7161
19570TIP3    H280202   2.182   4.807  13.420 -1.7444  3.0396  1.7344
19571TIP3   OH280203   6.559   3.474   5.843  0.3535  0.0574  0.7320
19571TIP3    H180204   6.614   3.548   5.868  1.4463 -0.7518  0.7853
19571TIP3    H280205   6.590   3.449   5.756  0.9453 -1.1894  1.2762
19572TIP3   OH280206   5.833   2.670  14.926  0.2051  0.1826 -0.0413
19572TIP3    H180207   5.846   2.747  14.871 -0.0994  1.5685  1.7354
19572TIP3    H280208   5.920   2.629  14.930  0.5178  0.7782 -0.5152
19573TIP3   OH280209   3.489   0.174   1.609 -0.7525 -0.2183 -0.1993
19573TIP3    H180210   3.422   0.219   1.557  0.1621  0.6445 -0.6614
19573TIP3    H280211   3.541   0.244   1.648 -0.1962 -0.8715  0.2686
19574TIP3   OH280212   3.561   1.326   1.506  0.3165  0.7505  0.1682
19574TIP3    H180213   3.605   1.366   1.431  0.9244  1.8764  1.0889
19574TIP3    H280214   3.627   1.267   1.543 -1.7293 -4.6600 -3.5145
19575TIP3   OH280215   2.949   4.887   3.661 -0.7889  0.0926  0.2123
19575TIP3    H180216   2.942   4.838   3.742 -1.4462  0.0885  0.1591
19575TIP3    H280217   2.860   4.890   3.627 -0.3430 -1.0604 -1.1911
19576TIP3   OH280218   0.991   3.782  14.840 -0.8317 -0.4168  0.6150
19576TIP3    H180219   0.977   3.819  14.753  2.4811  1.2182  0.6129
19576TIP3    H280220   0.937   3.837  14.898  1.1266  2.2388  0.1337
19577TIP3   OH280221   0.038   1.085  13.653  0.6882 -0.1027 -0.2323
19577TIP3    H180222   0.132   1.078  13.635  0.9376  1.1651  0.4248
19577TIP3    H280223   0.032   1.150  13.723 -0.6681 -0.3340 -0.1080
19578TIP3   OH280224   2.956   3.241  16.268  0.4866 -0.3801 -0.3543
19578TIP3    H180225   2.951   3.248  16.363  1.1460  2.4208 -0.4307
19578TIP3    H280226   2.864   3.237  16.240  0.2003  0.6219  0.3602
19579TIP3   OH280227   5.697   5.755  15.113 -0.5739 -0.0176 -0.3669
19579TIP3    H180228   5.790   5.741  15.129 -0.7487 -0.4922  0.2703
19579TIP3    H280229   5.656   5.742  15.199 -1.1453  0.9349 -0.4739
19580TIP3   OH280230   5.259   0.462  10.740  0.1296 -0.8901  0.6503
19580TIP3    H180231   5.241   0.530  10.675  2.9390  0.4155  1.0980
19580TIP3    H280232   5.174   0.419  10.753 -1.4174  1.4443 -0.8443
19581TIP3   OH280233   5.876   2.110   6.258 -0.0599  0.3920 -0.3665
19581TIP3    H180234   5.797   2.064   6.229 -0.0632 -0.8791  1.4881
19581TIP3    H280235   5.938   2.041   6.280  0.3049  1.2572  1.5433
19582TIP3   OH280236   1.531   0.605   2.081 -0.3099  0.6719  0.3895
19582TIP3    H180237   1.513   0.645   2.166  3.4449  1.0978  1.1652
19582TIP3    H280238   1.561   0.678   2.027  0.1480 -0.0594 -0.3577
19583TIP3   OH280239   2.199   4.832   0.983  0.0525  0.1958 -0.3398
19583TIP3    H180240   2.243   4.910   1.019 -0.5587  1.3713 -2.0111
19583TIP3    H280241   2.192   4.773   1.058  3.1043  0.5202  0.3712
19584TIP3   OH280242   1.447   1.764   1.915 -0.4528 -0.2611 -0.0413
19584TIP3    H180243   1.389   1.769   1.992 -0.1474  0.1038  0.1688
19584TIP3    H280244   1.387   1.763   1.841 -0.8386 -2.4423  0.2316
19585TIP3   OH280245   4.551   1.820  14.263 -0.1052 -0.1759  0.1710
19585TIP3    H180246   4.647   1.823  14.270  0.0031 -0.5159 -0.9751
19585TIP3    H280247   4.534   1.815  14.169 -1.1887 -1.9188  0.4140
19586TIP3   OH280248   6.366   5.658   2.972  0.3673  1.1807 -0.0033
19586TIP3    H180249   6.345   5.645   2.880  1.8137  1.5513 -0.4119
19586TIP3    H280250   6.384   5.751   2.980  2.1513  0.8447  0.2191
19587TIP3   OH280251   2.176   4.466   5.571 -0.2326 -0.0360 -0.3281
19587TIP3    H180252   2.209   4.425   5.491  1.5655  1.2198 -0.2877
19587TIP3    H280253   2.246   4.527   5.598 -1.1854  0.2618  1.6786
19588TIP3   OH280254   5.037   1.370   0.804  0.2750 -0.0677 -0.0950
19588TIP3    H180255   5.063   1.430   0.875 -1.2844 -0.2903  0.7169
19588TIP3    H280256   5.090   1.292   0.819  2.1347  0.9718 -1.0027
19589TIP3   OH280257   3.111   0.407   2.575 -0.2251  0.0512  0.1520
19589TIP3    H180258   3.074   0.376   2.658 -0.0518 -0.3581  0.0775
19589TIP3    H280259   3.078   0.346   2.509  0.2631 -0.0880  0.0305
19590TIP3   OH280260   1.444   6.222  11.495  0.2388 -0.6610  0.4341
19590TIP3    H180261   1.436   6.316  11.476 -0.1564 -1.3219 -3.3870
19590TIP3    H280262   1.365   6.201  11.546 -0.4284  0.7990  0.0629
19591TIP3   OH280263   6.090   6.121   2.833  0.2905 -0.5925  0.2742
19591TIP3    H180264   6.062   6.133   2.924 -0.5895  0.9039 -0.1675
19591TIP3    H280265   6.175   6.164   2.829  1.2116 -2.2610  0.7999
19592TIP3   OH280266   5.555   2.047  14.079 -0.2032 -0.4560  0.8292
19592TIP3    H180267   5.626   2.014  14.024  0.2098 -1.4300  1.9118
19592TIP3    H280268   5.481   2.058  14.019  0.7893  0.3789 -0.2706
19593TIP3   OH280269   4.971   0.339  12.024  0.5649  0.6764 -0.6805
19593TIP3    H180270   4.946   0.417  11.974  0.4689  0.4948 -0.9136
19593TIP3    H280271   4.889   0.296  12.046  0.6774 -0.3059 -2.0601
19594TIP3   OH280272   2.462   0.601   1.095 -0.0684 -0.0052 -0.8638
19594TIP3    H180273   2.475   0.508   1.116 -1.0542 -0.0760 -0.4921
19594TIP3    H280274   2.543   0.628   1.052  0.6796 -0.7521  0.0275
19595TIP3   OH280275   4.981   3.556  12.642 -0.0842  0.2526  0.0521
19595TIP3    H180276   4.965   3.540  12.549  2.2699  0.7135 -0.5022
19595TIP3    H280277   4.945   3.479  12.686  1.2293 -1.3484 -1.5071
19596TIP3   OH280278   0.675   6.039   1.127  0.1055  0.2555 -0.2256
19596TIP3    H180279   0.673   6.059   1.221  1.3210 -3.5431  0.8027
19596TIP3    H280280   0.735   6.104   1.090 -1.3859  2.6487  1.2878
19597TIP3   OH280281   2.861   1.129   4.279  0.0270  0.8527 -0.3454
19597TIP3    H180282   2.793   1.195   4.298  0.5506  0.9689  1.2527
19597TIP3    H280283   2.817   1.045   4.293  0.5082  0.9286  2.0881
19598TIP3   OH280284   0.646   0.873  14.859  0.6671  0.0939  0.3105
19598TIP3    H180285   0.721   0.834  14.905 -0.0578 -0.8731  0.6983
19598TIP3    H280286   0.670   0.868  14.766  0.4678 -1.6261  0.3099
19599TIP3   OH280287   0.739   5.077  12.982 -0.0329  0.5009  0.0192
19599TIP3    H180288   0.677   5.087  12.909 -0.5004  0.2964  0.3867
19599TIP3    H280289   0.690   5.032  13.050  0.4222  0.6312  0.4434
19600TIP3   OH280290   1.838   4.372   5.063  0.2721  0.0957  0.2452
19600TIP3    H180291   1.892   4.316   5.006 -4.6029 -2.8875 -2.1098
19600TIP3    H280292   1.826   4.452   5.012  0.1868 -0.3971 -0.5307
19601TIP3   OH280293   0.019   4.740  13.718  0.0173  0.3549 -0.3912
19601TIP3    H180294   0.102   4.695  13.704  0.3681  1.5873 -2.9367
19601TIP3    H280295   0.044   4.828  13.746 -0.5461  0.0842  1.0563
19602TIP3   OH280296   0.108   0.351  11.159  0.1333 -0.2606  0.3347
19602TIP3    H180297   0.153   0.327  11.078 -2.7262  0.3171 -1.5848
19602TIP3    H280298   0.128   0.280  11.220  3.2475 -0.1825 -0.4059
19603TIP3   OH280299   4.889   5.324  14.411 -0.1071  0.0895  0.1483
19603TIP3    H180300   4.899   5.418  14.392  2.4682 -0.0417  0.5145
19603TIP3    H280301   4.960   5.305  14.472 -1.1352 -1.9502  0.7748
19604TIP3   OH280302   1.684   5.724  11.402 -0.0447  0.7846 -0.0960
19604TIP3    H180303   1.692   5.631  11.423 -0.8174  0.3909 -1.4237
19604TIP3    H280304   1.590   5.740  11.399  0.0779  1.6767  0.3272
19605TIP3   OH280305   0.226   2.651   4.579 -0.0647  0.3512 -0.4249
19605TIP3    H180306   0.158   2.675   4.643  1.6435 -0.7071  1.9551
19605TIP3    H280307   0.220   2.555   4.573 -0.0100  0.4147 -1.6640
19606TIP3   OH280308   2.699   5.919   0.735 -0.0445  0.0189  0.0311
19606TIP3    H180309   2.756   5.897   0.661  2.4983 -2.0798  2.4069
19606TIP3    H280310   2.630   5.852   0.733 -0.6299  0.6200 -0.9837
19607TIP3   OH280311   2.202   1.267   2.408  0.0726  0.0817 -0.4268
19607TIP3    H180312   2.140   1.294   2.476 -0.9028  1.8288 -1.9221
19607TIP3    H280313   2.277   1.232   2.456 -1.4680 -0.8035  1.4712
19608TIP3   OH280314   3.166   3.204   4.085 -0.2721 -0.3058 -0.3689
19608TIP3    H180315   3.132   3.157   4.009 -0.1338 -0.1425 -0.5342
19608TIP3    H280316   3.188   3.291   4.051 -1.0366  0.0633  0.0540
19609TIP3   OH280317   0.468   2.678   3.489 -0.0473  0.3742 -0.4037
19609TIP3    H180318   0.391   2.623   3.505 -1.0307  1.8861  0.2704
19609TIP3    H280319   0.434   2.767   3.483  1.7821  1.2912  1.4550
19610TIP3   OH280320   5.502   1.689   1.685  0.2087 -0.1404  0.0582
19610TIP3    H180321   5.582   1.639   1.699  0.3199  0.1580  0.5189
19610TIP3    H280322   5.439   1.651   1.746  0.3831  0.4711  0.6335
19611TIP3   OH280323   2.265   0.734   3.101  0.2819 -0.2434  0.4972
19611TIP3    H180324   2.258   0.660   3.040 -1.3180  1.0417 -0.9685
19611TIP3    H280325   2.208   0.711   3.174 -3.0974  0.9231 -1.5591
19612TIP3   OH280326   1.919   3.926  17.096  0.1830  0.2725 -0.8662
19612TIP3    H180327   1.952   3.839  17.074  0.2400 -0.2326  1.0409
19612TIP3    H280328   1.989   3.967  17.146 -0.1478  1.1364 -1.0898
19613TIP3   OH280329   0.943   0.773   0.638 -0.0272  0.5348 -0.1720
19613TIP3    H180330   0.869   0.782   0.578  1.7979  1.4487 -2.4649
19613TIP3    H280331   1.011   0.830   0.601  2.5358 -1.7852  0.6175
19614TIP3   OH280332   2.641   1.681  16.975 -0.0798  0.4278  0.3380
19614TIP3    H180333   2.583   1.615  17.013  0.9330 -0.8994 -0.3053
19614TIP3    H280334   2.584   1.754  16.952 -0.9256  0.6972  3.0170
19615TIP3   OH280335   4.413   5.953  11.346 -0.4272  0.5605  0.3788
19615TIP3    H180336   4.497   5.976  11.307  0.1398 -0.7884  0.7210
19615TIP3    H280337   4.365   5.910  11.275  0.2546 -1.0855  0.8635
19616TIP3   OH280338   4.972   2.037  15.253  0.2844 -0.5258 -0.0462
19616TIP3    H180339   4.913   2.041  15.178 -0.0032 -0.8242  0.1622
19616TIP3    H280340   5.023   2.118  15.248 -0.5482  0.0175  0.1127
19617TIP3   OH280341   1.305   3.844  16.666 -0.3504 -0.3395 -0.1264
19617TIP3    H180342   1.284   3.757  16.700  2.7621 -1.2211 -0.0988
19617TIP3    H280343   1.289   3.903  16.739 -1.4873 -1.0246  0.2064
19618TIP3   OH280344   3.138   5.937  13.476  0.4155  0.7631  0.1290
19618TIP3    H180345   3.142   6.014  13.534 -1.3428  1.4271 -0.5439
19618TIP3    H280346   3.227   5.904  13.473  0.8905  1.7493  1.8226
19619TIP3   OH280347   0.537   4.537  13.288  0.8885  0.3273  0.5907
19619TIP3    H180348   0.551   4.458  13.340 -0.4816 -0.8545 -0.7202
19619TIP3    H280349   0.523   4.606  13.352 -2.2484 -1.3422  1.9386
19620TIP3   OH280350   0.028   0.160  14.454 -0.0679 -0.2582  0.1677
19620TIP3    H180351   0.038   0.223  14.526  2.5874 -0.4970  0.1077
19620TIP3    H280352   0.003   0.078  14.497  0.3006 -0.0964  0.7023
19621TIP3   OH280353   5.636   4.614   2.980  0.0610  0.3078  0.4520
19621TIP3    H180354   5.611   4.526   2.952 -0.7154  1.0359 -1.2391
19621TIP3    H280355   5.681   4.653   2.905 -0.9109  1.8555  0.6172
19622TIP3   OH280356   5.509   5.770   0.077  1.0948  0.0037 -0.2110
19622TIP3    H180357   5.417   5.791   0.061  1.5414  0.8315 -1.9362
19622TIP3    H280358   5.543   5.845   0.126  1.0980  0.2172 -0.5352
19623TIP3   OH280359   5.882   3.325  16.783 -0.5246 -0.0355  0.6745
19623TIP3    H180360   5.908   3.317  16.691 -2.6143 -0.1100  0.0455
19623TIP3    H280361   5.932   3.399  16.816 -0.4843  0.6279 -0.8048
19624TIP3   OH280362   6.258   0.942  12.883 -0.6670 -0.5672  0.1609
19624TIP3    H180363   6.221   0.855  12.871 -0.3123 -0.5983 -0.8357
19624TIP3    H280364   6.187   0.994  12.919 -1.3664 -0.8867 -0.7375
19625TIP3   OH280365   5.857   5.626  11.372  0.2995  0.2594 -0.1224
19625TIP3    H180366   5.848   5.587  11.285  1.4640  1.3142 -0.7556
19625TIP3    H280367   5.836   5.719  11.359 -0.7593  0.1900  0.9965
19626TIP3   OH280368   2.067   6.811   5.034 -0.6135 -0.0512  0.0054
19626TIP3    H180369   2.103   6.723   5.040 -1.7550 -0.6116 -0.9050
19626TIP3    H280370   2.079   6.848   5.121  1.8899 -0.2652 -0.1833
19627TIP3   OH280371   0.408   4.001   0.283  1.2620  0.7867  0.2290
19627TIP3    H180372   0.481   4.018   0.343  1.3193  1.1954  0.0473
19627TIP3    H280373   0.449   3.996   0.197  0.8865  2.8044 -0.1202
19628TIP3   OH280374   5.133   3.888  16.622  0.0478 -0.3649 -0.5410
19628TIP3    H180375   5.220   3.871  16.585  0.1557  0.3398 -0.6200
19628TIP3    H280376   5.116   3.812  16.678  0.3574 -0.9045 -1.1641
19629TIP3   OH280377   0.667   6.280  10.328 -0.6790  0.1490 -0.4373
19629TIP3    H180378   0.605   6.293  10.399 -1.4182 -1.2927 -0.7901
19629TIP3    H280379   0.742   6.335  10.351 -0.6023 -0.8121  1.8036
19630TIP3   OH280380   4.368   1.395   4.838 -0.3519 -0.4443  0.1745
19630TIP3    H180381   4.417   1.447   4.902  0.4897  1.0628 -1.5904
19630TIP3    H280382   4.315   1.336   4.891  1.1909 -0.1229  2.2361
19631TIP3   OH280383   1.326   3.422  15.687 -0.6988  0.5079  0.1403
19631TIP3    H180384   1.340   3.480  15.612 -0.0601  0.3220  0.1142
19631TIP3    H280385   1.405   3.431  15.739 -0.8890  0.1764  0.4883
19632TIP3   OH280386   1.849   5.032   5.821  0.1329  0.0722  0.2927
19632TIP3    H180387   1.832   5.106   5.879 -2.2708  0.1830 -0.4185
19632TIP3    H280388   1.903   5.067   5.751 -2.5713  1.8310 -1.1073
19633TIP3   OH280389   5.262   2.981   5.968 -0.5081 -0.3542 -0.1094
19633TIP3    H180390   5.221   2.897   5.984  1.5405 -1.5281 -0.6090
19633TIP3    H280391   5.355   2.966   5.983  0.0443  1.5515 -1.1885
19634TIP3   OH280392   4.946   5.715  10.420  0.0590 -0.7277  0.4509
19634TIP3    H180393   4.856   5.712  10.390 -0.5510  2.7611  1.4700
19634TIP3    H280394   4.940   5.716  10.516  1.0085  1.0404  0.5373
19635TIP3   OH280395   1.997   5.740   4.621 -0.4979  0.2558  0.1310
19635TIP3    H180396   1.922   5.693   4.583  0.3462  1.1425 -2.8840
19635TIP3    H280397   2.028   5.797   4.550  1.9410  1.2438  1.8708
19636TIP3   OH280398   1.601   1.095  15.171  0.4923  0.8100 -0.2236
19636TIP3    H180399   1.544   1.109  15.095 -0.4329 -0.9264  0.1087
19636TIP3    H280400   1.667   1.164  15.164 -0.7535  1.9371 -1.4700
19637TIP3   OH280401   5.826   0.000  17.042  0.9238  0.1406 -0.7266
19637TIP3    H180402   5.878   0.047  17.107 -0.1308  1.4605 -0.7810
19637TIP3    H280403   5.750   0.057  17.027 -0.9161 -2.0218 -0.1282
19638TIP3   OH280404   6.822   0.802  12.340  0.8002  0.2265 -0.2787
19638TIP3    H180405   6.803   0.736  12.273 -0.0582 -2.3146  2.2724
19638TIP3    H280406   6.917   0.805  12.345  0.8541 -0.5083 -0.7225
19639TIP3   OH280407   4.113   6.204  11.253 -0.0396  0.8322  0.3194
19639TIP3    H180408   4.031   6.239  11.289 -0.2231  0.9942 -0.2397
19639TIP3    H280409   4.092   6.185  11.161  0.2561 -0.1037  0.4378
19640TIP3   OH280410   1.728   1.407   4.445 -0.3699  0.5342  0.1595
19640TIP3    H180411   1.655   1.353   4.416  0.5622 -1.0422  0.6185
19640TIP3    H280412   1.791   1.402   4.373 -0.7338  1.9618 -0.2751
19641TIP3   OH280413   6.501   4.968  13.714  0.6019  0.5789  0.5385
19641TIP3    H180414   6.523   4.989  13.623 -0.6635 -2.1792 -0.5130
19641TIP3    H280415   6.409   4.994  13.723 -0.1549 -1.6698  0.0462
19642TIP3   OH280416   6.684   1.134  15.325 -0.0282 -0.1957  0.5006
19642TIP3    H180417   6.706   1.042  15.308 -1.3498 -0.3684 -0.4454
19642TIP3    H280418   6.764   1.182  15.307 -0.1508 -0.8394 -2.1908
19643TIP3   OH280419   5.307   1.194  14.821 -0.1849 -0.3739 -0.3531
19643TIP3    H180420   5.373   1.243  14.871  1.1630  1.1732 -3.3847
19643TIP3    H280421   5.244   1.262  14.793 -0.3528 -1.0058 -1.5489
19644TIP3   OH280422   5.377   4.666   3.464  0.3021  0.3711 -0.1856
19644TIP3    H180423   5.339   4.748   3.433  0.5245  1.1454  1.4215
19644TIP3    H280424   5.461   4.660   3.418 -0.3259  0.3274 -1.3395
19645TIP3   OH280425   6.775   0.857   3.339 -0.2156 -0.3482  0.7984
19645TIP3    H180426   6.743   0.778   3.382 -1.0031  0.2453  1.3247
19645TIP3    H280427   6.837   0.895   3.402 -1.6972  0.7571  1.6709
19646TIP3   OH280428   6.273   3.348   5.336  0.1670 -0.3553 -0.3590
19646TIP3    H180429   6.202   3.284   5.346 -0.1092 -0.3315 -1.8663
19646TIP3    H280430   6.234   3.432   5.360 -0.4330 -0.2980 -1.4535
19647TIP3   OH280431   1.999   6.396   1.866  0.1350 -0.1709  0.0758
19647TIP3    H180432   1.971   6.488   1.871 -1.0589 -0.4442 -1.1116
19647TIP3    H280433   1.966   6.365   1.782  0.8589 -1.5950  0.2832
19648TIP3   OH280434   3.434   4.899   5.427 -0.2044 -0.3687 -0.0857
19648TIP3    H180435   3.438   4.808   5.457 -0.6573 -0.2386  0.3742
19648TIP3    H280436   3.476   4.949   5.496  0.0849 -0.2295 -0.3609
19649TIP3   OH280437   2.013   3.780   6.275 -0.3361  0.8340 -0.3156
19649TIP3    H180438   2.024   3.809   6.184 -3.0603  1.4426 -0.5310
19649TIP3    H280439   1.976   3.856   6.320 -0.0340  0.1880  1.0534
19650TIP3   OH280440   2.085   0.452   1.178  0.3138  0.5167  0.4038
19650TIP3    H180441   2.012   0.424   1.123  1.1715  0.8231 -0.9346
19650TIP3    H280442   2.113   0.373   1.223  2.0221 -0.7154 -2.5157
19651TIP3   OH280443   5.167   3.820  14.923 -0.0576  0.1147  0.2182
19651TIP3    H180444   5.229   3.769  14.871 -0.6091  0.5963 -0.9497
19651TIP3    H280445   5.150   3.898  14.870 -1.9803 -0.2049  0.2893
19652TIP3   OH280446   2.968   6.522   2.340 -0.3369 -0.2166 -0.3073
19652TIP3    H180447   2.997   6.594   2.285  1.0021 -1.5247 -1.3996
19652TIP3    H280448   2.964   6.559   2.428  0.0763  1.2420 -0.8769
19653TIP3   OH280449   5.301   3.265   3.745 -0.3353  0.3228  0.5664
19653TIP3    H180450   5.249   3.325   3.691  0.1762 -0.3189 -0.6884
19653TIP3    H280451   5.237   3.216   3.795 -1.0513 -0.9783 -1.5033
19654TIP3   OH280452   4.266   4.921   5.309  0.3737  0.5255  0.1934
19654TIP3    H180453   4.234   4.903   5.221  0.4520 -0.7617  0.4078
19654TIP3    H280454   4.305   5.008   5.303  1.6648 -0.1010 -1.4214
19655TIP3   OH280455   5.702   3.238   0.140  0.0758  0.3275  0.3295
19655TIP3    H180456   5.678   3.312   0.084  3.3392  1.2117 -0.1000
19655TIP3    H280457   5.702   3.162   0.081 -0.7135  0.4453  0.1671
19656TIP3   OH280458   1.066   2.316  12.843 -0.0716 -0.1553  0.7223
19656TIP3    H180459   0.981   2.358  12.860 -0.2577  0.2670 -1.0254
19656TIP3    H280460   1.080   2.259  12.918 -0.9924  1.2034  1.9827
19657TIP3   OH280461   3.790   1.659  13.316  0.7049  0.0447 -0.2665
19657TIP3    H180462   3.772   1.581  13.369  0.7070  0.2235 -0.0063
19657TIP3    H280463   3.879   1.685  13.341  0.4601  0.5155  0.1222
19658TIP3   OH280464   6.315   1.594  16.597 -0.9280  0.3123 -0.0155
19658TIP3    H180465   6.310   1.666  16.659  0.3749  1.1381 -0.8264
19658TIP3    H280466   6.350   1.633  16.517 -0.9705 -1.0558 -0.7358
19659TIP3   OH280467   0.503   1.825  11.816  0.6757 -0.0566 -0.0821
19659TIP3    H180468   0.594   1.829  11.787  0.4977  1.3273 -0.5157
19659TIP3    H280469   0.499   1.885  11.890  0.1886 -0.4290  0.2042
19660TIP3   OH280470   0.151   5.516  14.159 -0.2423 -0.2124 -0.2447
19660TIP3    H180471   0.093   5.521  14.083 -0.9078  0.4225  0.3037
19660TIP3    H280472   0.093   5.509  14.234  0.3924  0.2515  0.3020
19661TIP3   OH280473   6.419   5.240   6.262  0.0752 -0.1857 -0.0047
19661TIP3    H180474   6.455   5.309   6.317 -0.9616  1.0349 -0.8126
19661TIP3    H280475   6.352   5.198   6.316  0.3959 -0.2731  0.3273
19662TIP3   OH280476   2.928   6.209  13.691 -0.3264  0.4249  0.0224
19662TIP3    H180477   2.916   6.155  13.769 -1.8982  0.0642 -0.4244
19662TIP3    H280478   2.999   6.167  13.643 -1.3135 -1.1092 -0.1663
19663TIP3   OH280479   0.621   0.138   6.500  0.0576  0.1453  0.0391
19663TIP3    H180480   0.577   0.056   6.477 -0.5216  0.1854  0.9641
19663TIP3    H280481   0.563   0.207   6.468  1.0121  0.2354 -1.6333
19664TIP3   OH280482   5.384   1.159   1.109  0.3905  0.4150  0.3046
19664TIP3    H180483   5.435   1.081   1.086 -0.9560 -0.7284  1.0610
19664TIP3    H280484   5.302   1.148   1.062  0.0568  1.2251  0.6844
19665TIP3   OH280485   4.858   2.389  16.306 -0.0763  0.3816 -0.8006
19665TIP3    H180486   4.925   2.414  16.243 -0.1585  1.3181 -0.5302
19665TIP3    H280487   4.781   2.369  16.252  0.3203 -0.4044 -1.0895
19666TIP3   OH280488   6.276   3.977   1.072  0.6687 -0.0580 -0.3043
19666TIP3    H180489   6.259   3.886   1.097  0.1065 -0.0524 -0.6382
19666TIP3    H280490   6.203   3.999   1.014  2.2536 -0.3067 -2.5279
19667TIP3   OH280491   4.534   4.705  14.360  0.1097 -0.5852 -0.5491
19667TIP3    H180492   4.509   4.658  14.281 -1.9994 -1.5016  0.6090
19667TIP3    H280493   4.481   4.785  14.358 -1.1619 -1.3633  0.6879
19668TIP3   OH280494   5.373   0.370   1.152 -0.2611 -0.0683 -0.0224
19668TIP3    H180495   5.423   0.404   1.226 -1.9125 -2.3873  2.3147
19668TIP3    H280496   5.358   0.278   1.172 -0.0347 -1.0826 -3.7364
19669TIP3   OH280497   4.904   4.536   4.519 -0.1410  0.4554 -0.5950
19669TIP3    H180498   4.816   4.523   4.556  0.6915  0.2517  1.4264
19669TIP3    H280499   4.898   4.618   4.470 -1.6682 -0.0126 -1.2693
19670TIP3   OH280500   4.152   2.940   4.523  0.3018  0.5348 -0.6663
19670TIP3    H180501   4.235   2.898   4.498  1.1953  2.0191 -0.3080
19670TIP3    H280502   4.101   2.869   4.563  2.5430  0.1022  1.7878
19671TIP3   OH280503   6.724   3.220   1.331 -0.4489  0.0670 -0.6000
19671TIP3    H180504   6.787   3.159   1.292 -0.1078  0.1934 -0.2477
19671TIP3    H280505   6.657   3.232   1.263  0.6970  1.1411 -1.5880
19672TIP3   OH280506   1.238   6.568   3.924  0.0835  0.1070  0.2654
19672TIP3    H180507   1.306   6.634   3.914 -0.2462  0.1477 -2.9289
19672TIP3    H280508   1.156   6.616   3.911 -0.5863 -0.1089  3.1215
19673TIP3   OH280509   5.220   2.946   6.270 -0.0791  0.4217 -0.5127
19673TIP3    H180510   5.213   2.925   6.363 -0.0151 -2.4844 -1.0683
19673TIP3    H280511   5.306   2.913   6.244  0.5822  2.6283 -1.3263
19674TIP3   OH280512   0.845   3.867  12.500  0.0306 -0.4999  0.2673
19674TIP3    H180513   0.833   3.921  12.421  1.2679 -2.2458 -1.1882
19674TIP3    H280514   0.907   3.917  12.554 -1.6250  1.2188  0.7108
19675TIP3   OH280515   5.178   1.918  14.114 -0.1902  0.2797 -0.5514
19675TIP3    H180516   5.217   1.888  14.196 -0.1328 -1.9820 -1.3261
19675TIP3    H280517   5.128   1.842  14.082  0.9744  0.5597 -3.3053
19676TIP3   OH280518   6.034   1.964   5.173  0.1533  0.4597 -0.0652
19676TIP3    H180519   6.069   1.927   5.092  1.5442  0.6766  0.4045
19676TIP3    H280520   5.939   1.965   5.160  0.1479 -1.8786 -0.6763
19677TIP3   OH280521   3.090   4.923   0.606  0.7376 -0.1934  0.4850
19677TIP3    H180522   3.010   4.871   0.611  1.0865 -1.0485 -1.4967
19677TIP3    H280523   3.059   5.014   0.598 -0.1545 -0.5907 -1.3634
19678TIP3   OH280524   1.331   5.324  11.887 -0.1270  0.8979  0.0809
19678TIP3    H180525   1.301   5.260  11.822 -0.1070  1.6162 -0.6573
19678TIP3    H280526   1.361   5.271  11.961 -0.4430  0.0707 -0.3653
19679TIP3   OH280527   4.631   4.541   2.090 -0.1148  0.9536 -0.1257
19679TIP3    H180528   4.614   4.635   2.094 -0.4244  0.8808  0.3546
19679TIP3    H280529   4.565   4.507   2.030  0.9017  1.2385 -1.4318
19680TIP3   OH280530   0.822   6.321   3.060 -0.1720 -0.0175 -0.0200
19680TIP3    H180531   0.893   6.290   3.003  1.6409  1.4929  1.2794
19680TIP3    H280532   0.793   6.402   3.019 -0.7669 -0.3284 -0.2266
19681TIP3   OH280533   4.409   4.429   1.974  0.1818 -0.3454 -0.3030
19681TIP3    H180534   4.373   4.344   2.000 -0.1217  0.4574  2.1349
19681TIP3    H280535   4.379   4.442   1.884 -0.2889 -2.5196 -0.5063
19682TIP3   OH280536   5.458   6.680   2.006  0.3207 -0.2282 -0.0743
19682TIP3    H180537   5.552   6.680   1.986 -0.0142 -0.0264 -1.7990
19682TIP3    H280538   5.423   6.753   1.955 -0.6060  0.5313  1.5718
19683TIP3   OH280539   4.071   1.917  13.448  0.4817  0.4010  0.2182
19683TIP3    H180540   4.136   1.848  13.434  0.1983  0.5722 -2.3837
19683TIP3    H280541   4.007   1.878  13.508  0.8621 -1.2294 -0.3712
19684TIP3   OH280542   6.769   1.391   2.055 -0.0563  0.1249 -0.6193
19684TIP3    H180543   6.728   1.456   1.998 -0.2710  0.8336  0.3118
19684TIP3    H280544   6.698   1.332   2.078 -0.2936  0.6318 -0.0080
19685TIP3   OH280545   3.981   5.982   6.144  0.9677  0.0190 -0.4199
19685TIP3    H180546   4.007   5.996   6.235  1.2989  0.5904 -0.5930
19685TIP3    H280547   3.904   6.037   6.134 -1.3588 -2.8144  0.5215
19686TIP3   OH280548   6.243   1.803  14.870 -0.1241 -0.4258 -0.3304
19686TIP3    H180549   6.233   1.892  14.903  0.1590  0.3263 -2.1219
19686TIP3    H280550   6.167   1.756  14.904 -0.6010  0.6598  0.1568
19687TIP3   OH280551   2.366   2.799  13.289 -0.0260  0.0193 -0.3384
19687TIP3    H180552   2.349   2.761  13.203  1.2416 -1.1315 -0.1081
19687TIP3    H280553   2.461   2.796  13.298 -0.0496  1.3108  0.5876
19688TIP3   OH280554   0.857   2.386  15.869  0.0243  0.0219 -0.0424
19688TIP3    H180555   0.849   2.460  15.809 -2.4171  1.4624  1.8715
19688TIP3    H280556   0.816   2.313  15.823  4.7991 -1.2054 -3.1024
19689TIP3   OH280557   4.722   4.730  14.859 -0.1625 -0.1766 -0.5306
19689TIP3    H180558   4.700   4.638  14.872  0.1089 -0.3455 -1.2375
19689TIP3    H280559   4.816   4.735  14.877  0.3665 -0.5385 -2.9207
19690TIP3   OH280560   4.273   1.312  11.718  0.0907 -0.0781 -0.3812
19690TIP3    H180561   4.267   1.246  11.786  0.1098  1.2123  0.9166
19690TIP3    H280562   4.367   1.323  11.702  0.1371  0.4334  0.2204
19691TIP3   OH280563   5.175   0.329   2.582  0.3168  0.3465 -0.3006
19691TIP3    H180564   5.187   0.401   2.644  0.0859 -0.0736  0.2412
19691TIP3    H280565   5.096   0.352   2.533 -1.6705 -1.0000  2.0172
19692TIP3   OH280566   3.659   0.027   0.982  0.1078 -0.8034 -0.5101
19692TIP3    H180567   3.684   0.007   0.892  1.1253  0.2492 -0.4900
19692TIP3    H280568   3.611   0.110   0.975  0.4451 -0.5643 -0.0673
19693TIP3   OH280569   5.410   2.948   3.387  0.2736  0.2324 -0.7725
19693TIP3    H180570   5.317   2.961   3.368 -0.1813 -1.0892  0.3294
19693TIP3    H280571   5.431   2.864   3.346  0.7787  0.1758 -0.4114
19694TIP3   OH280572   6.654   1.073   3.193 -0.0396  0.3917  0.2548
19694TIP3    H180573   6.720   1.033   3.249 -2.7065 -3.1672  1.1887
19694TIP3    H280574   6.685   1.056   3.104  0.4155 -1.0641  0.6702
19695TIP3   OH280575   5.454   0.072   1.084 -0.1214  0.3878 -0.0256
19695TIP3    H180576   5.400   0.101   1.157  0.0161 -2.7782  1.4931
19695TIP3    H280577   5.543   0.074   1.118  0.3381  1.8118 -1.2084
19696TIP3   OH280578   1.544   5.480   3.891  0.1943 -0.4551  0.0438
19696TIP3    H180579   1.548   5.422   3.967 -5.1647  1.3292  2.1782
19696TIP3    H280580   1.588   5.560   3.919  0.0490 -0.5298  0.4920
19697TIP3   OH280581   2.515   0.933   4.889  0.9183 -0.4911 -0.1784
19697TIP3    H180582   2.603   0.915   4.921  1.4180 -0.7890 -1.6380
19697TIP3    H280583   2.496   1.022   4.919  1.7610 -0.3806  0.0426
19698TIP3   OH280584   4.905   2.346   4.252 -0.7146 -0.8861  0.4425
19698TIP3    H180585   4.853   2.276   4.292  0.7028 -1.1740  1.9096
19698TIP3    H280586   4.851   2.424   4.260 -0.9186 -1.1443  2.0395
19699TIP3   OH280587   6.209   3.187   4.397  0.6263 -0.2589 -1.0193
19699TIP3    H180588   6.155   3.201   4.475  1.4212 -1.6342 -0.1711
19699TIP3    H280589   6.298   3.207   4.425  0.7579  0.6916 -2.0295
19700TIP3   OH280590   0.397   0.798   5.769  0.1838  0.7388 -0.2256
19700TIP3    H180591   0.391   0.798   5.674  0.6496  2.2465 -0.2935
19700TIP3    H280592   0.337   0.867   5.797 -0.3045 -0.0023  0.6177
19701TIP3   OH280593   5.439   2.456  11.738  0.3524 -0.3997 -0.1163
19701TIP3    H180594   5.482   2.415  11.813  0.8403 -2.0373 -1.2256
19701TIP3    H280595   5.366   2.504  11.775  1.0572 -0.4935  1.4789
19702TIP3   OH280596   0.606   1.509  14.070 -0.1734 -0.0855  0.3503
19702TIP3    H180597   0.577   1.489  14.158  1.1987 -0.0262  0.8433
19702TIP3    H280598   0.693   1.547  14.081 -0.1260  0.2715 -1.0005
19703TIP3   OH280599   3.559   2.990  13.084 -0.0129 -0.0690  0.4433
19703TIP3    H180600   3.564   2.956  13.174 -1.2911 -0.8436  0.2486
19703TIP3    H280601   3.478   3.041  13.083 -0.3540 -0.6133 -0.4393
19704TIP3   OH280602   4.830   3.384  12.812 -0.4247 -0.2641  0.3366
19704TIP3    H180603   4.765   3.410  12.876 -0.1195  2.4553 -0.3497
19704TIP3    H280604   4.790   3.310  12.766 -2.5140  0.5655  0.7354
19705TIP3   OH280605   5.018   1.559  13.127  0.3329  0.7927 -0.3762
19705TIP3    H180606   5.044   1.644  13.163  0.8774  0.8559 -0.9077
19705TIP3    H280607   5.014   1.572  13.033 -0.3509  0.4270 -0.4098
19706TIP3   OH280608   4.529   2.925   4.079 -0.3593 -0.3212  0.1554
19706TIP3    H180609   4.512   2.882   4.163 -0.2036  0.3448  0.5336
19706TIP3    H280610   4.501   2.861   4.013 -1.7915 -0.3102  0.7223
19707TIP3   OH280611   2.989   1.785  14.173  0.1308  0.0314 -0.2711
19707TIP3    H180612   2.939   1.704  14.160  0.4122 -0.3306  0.7636
19707TIP3    H280613   3.004   1.789  14.267  0.3583  1.1627 -0.3393
19708TIP3   OH280614   5.977   6.209   5.513 -0.2782 -0.3190 -0.7624
19708TIP3    H180615   6.062   6.213   5.469 -0.5083 -2.0536 -1.4580
19708TIP3    H280616   5.947   6.300   5.515  1.3359  0.2491 -1.0065
19709TIP3   OH280617   0.794   5.272   0.436  0.2161 -0.2698  0.6274
19709TIP3    H180618   0.819   5.207   0.502 -0.3770  0.4322  1.5794
19709TIP3    H280619   0.747   5.339   0.486  0.4579  0.6866 -0.3947
19710TIP3   OH280620   1.408   3.794   5.682  0.5068 -0.3821 -0.3567
19710TIP3    H180621   1.463   3.734   5.732  1.0535 -0.8456 -1.4742
19710TIP3    H280622   1.346   3.737   5.636  2.5981 -0.4814 -3.4337
19711TIP3   OH280623   6.212   4.116  13.700  0.1214 -0.4322  0.5617
19711TIP3    H180624   6.181   4.199  13.736  0.5933 -0.2036  0.4532
19711TIP3    H280625   6.169   4.110  13.615 -0.7571 -0.8274  1.0187
19712TIP3   OH280626   5.860   3.357  16.011 -0.6588 -0.1858  0.0811
19712TIP3    H180627   5.897   3.327  15.928 -1.2425  0.0624 -0.2721
19712TIP3    H280628   5.823   3.278  16.051  1.5023 -0.7627  1.1447
19713TIP3   OH280629   6.012   6.381   3.220  0.0320  0.2890  0.3559
19713TIP3    H180630   5.981   6.306   3.270 -1.2540  0.5129 -0.0437
19713TIP3    H280631   5.941   6.398   3.158 -0.4252  2.7874  1.4522
19714TIP3   OH280632   4.760   5.480   0.627 -0.2685  0.0946  0.3776
19714TIP3    H180633   4.823   5.552   0.635 -1.4792  1.2598 -0.0044
19714TIP3    H280634   4.687   5.507   0.683  0.5791 -2.4513  2.9339
19715TIP3   OH280635   3.823   5.487   0.647  0.3093 -0.2797 -0.3310
19715TIP3    H180636   3.840   5.405   0.694  1.3440 -0.7293 -1.4436
19715TIP3    H280637   3.854   5.556   0.706 -1.1181 -0.6109  0.8752
19716TIP3   OH280638   1.122   2.557  15.033  0.1961  0.0249  0.1520
19716TIP3    H180639   1.086   2.625  14.975 -0.7569 -0.8355 -0.2901
19716TIP3    H280640   1.164   2.606  15.103  0.0574  1.0843 -0.4832
19717TIP3   OH280641   1.800   2.324  15.005  0.2574  0.1374 -0.3851
19717TIP3    H180642   1.802   2.387  15.077 -0.6526  1.2213 -1.2527
19717TIP3    H280643   1.759   2.372  14.933  1.7819 -0.6747 -1.8664
19718TIP3   OH280644   6.564   6.663  15.388  0.1417 -0.0623 -0.0005
19718TIP3    H180645   6.623   6.640  15.316 -1.3663  1.4078 -1.8145
19718TIP3    H280646   6.590   6.606  15.460  1.3942 -1.9711 -1.8636
19719TIP3   OH280647   4.801   2.111  12.892  0.0571 -0.4191 -0.2046
19719TIP3    H180648   4.776   2.187  12.945 -0.9492  0.0135 -1.2429
19719TIP3    H280649   4.867   2.145  12.831  2.0102 -1.1604  1.4004
19720TIP3   OH280650   2.162   0.092  15.542  0.2978  0.4532  0.4640
19720TIP3    H180651   2.204   0.176  15.525  0.0008  0.1002 -2.5835
19720TIP3    H280652   2.220   0.027  15.503 -0.0859 -0.6619  1.6743
19721TIP3   OH280653   1.277   6.331   0.539  0.1947  0.2438 -0.2607
19721TIP3    H180654   1.183   6.351   0.537  0.2175  0.5479  1.0861
19721TIP3    H280655   1.282   6.245   0.581  0.3134 -1.4643 -3.4131
19722TIP3   OH280656   1.504   3.236  14.289 -0.4546 -0.0101 -0.0824
19722TIP3    H180657   1.578   3.258  14.232 -0.6549 -0.2567 -0.4409
19722TIP3    H280658   1.435   3.209  14.229 -0.8929  0.3697  0.2400
19723TIP3   OH280659   5.702   1.058  14.460  0.3728  0.2464  0.5084
19723TIP3    H180660   5.683   1.090  14.371 -0.8050  0.5740  0.8664
19723TIP3    H280661   5.786   1.099  14.482  1.3522 -0.8914 -0.9498
19724TIP3   OH280662   2.881   3.497   3.735 -0.4767 -0.4519  0.2754
19724TIP3    H180663   2.871   3.402   3.729 -1.4339 -0.3034 -0.9496
19724TIP3    H280664   2.796   3.532   3.709 -0.3030  0.7424  1.2342
19725TIP3   OH280665   6.777   0.162   0.215  0.1356 -0.7247 -0.1262
19725TIP3    H180666   6.711   0.184   0.149 -0.0854  0.0878  0.3635
19725TIP3    H280667   6.860   0.189   0.176  0.0233 -0.3968 -0.1385
19726TIP3   OH280668   4.096   0.908   4.516  0.3824  0.2714 -0.1638
19726TIP3    H180669   4.019   0.859   4.491 -0.0662 -0.3898  2.2414
19726TIP3    H280670   4.141   0.928   4.433 -1.7357 -0.3059 -1.5123
19727TIP3   OH280671   3.317   2.648  11.852  0.0920  0.4501  0.4953
19727TIP3    H180672   3.325   2.680  11.941  1.8190 -0.0575  0.5479
19727TIP3    H280673   3.286   2.723  11.802 -2.4116  0.3535  1.7383
19728TIP3   OH280674   4.258   1.588  15.936 -0.1992  0.6808 -0.3918
19728TIP3    H180675   4.213   1.538  15.868 -0.1822 -0.9083  0.6933
19728TIP3    H280676   4.316   1.524  15.978 -2.1913  0.8035  2.9096
19729TIP3   OH280677   5.830   6.132  11.247 -0.1041  0.0807  0.0003
19729TIP3    H180678   5.821   6.205  11.186 -0.6831  0.4344  0.5005
19729TIP3    H280679   5.771   6.065  11.213  1.9807 -1.0286 -1.6730
19730TIP3   OH280680   4.345   2.647  11.263  0.3768 -0.4929  0.3973
19730TIP3    H180681   4.399   2.707  11.314  3.1650 -2.0056 -0.5636
19730TIP3    H280682   4.313   2.583  11.327  1.0239 -0.4566  0.7578
19731TIP3   OH280683   2.108   2.618   4.592  0.5558 -0.5002  0.1177
19731TIP3    H180684   2.157   2.655   4.665  0.7531 -0.9259  0.2042
19731TIP3    H280685   2.091   2.693   4.535 -0.3751  0.0053  1.0223
19732TIP3   OH280686   0.642   5.167   1.716  0.3362 -0.2927  0.4280
19732TIP3    H180687   0.703   5.183   1.789  0.3768  0.5941  0.2136
19732TIP3    H280688   0.632   5.072   1.714 -0.1023 -0.3026  1.9408
19733TIP3   OH280689   0.392   2.292   4.837  0.6060  0.6458  0.6581
19733TIP3    H180690   0.464   2.349   4.813  0.2675  0.4929 -0.8221
19733TIP3    H280691   0.318   2.351   4.852  0.0716  0.6157 -1.5549
19734TIP3   OH280692   4.537   0.664  15.978 -0.2274  0.5888 -0.2772
19734TIP3    H180693   4.632   0.658  15.984 -0.3163 -3.5372  0.3496
19734TIP3    H280694   4.508   0.671  16.069 -0.5530  1.8526 -0.4661
19735TIP3   OH280695   1.738   3.725   4.094 -0.3950 -0.3327 -0.5506
19735TIP3    H180696   1.743   3.701   4.186 -2.2050 -0.9911 -0.5897
19735TIP3    H280697   1.829   3.742   4.069  0.2097 -0.8524  1.1529
19736TIP3   OH280698   1.638   1.236   5.372 -0.1300 -0.4307 -0.6396
19736TIP3    H180699   1.595   1.186   5.303 -1.5945  1.7026 -1.3996
19736TIP3    H280700   1.718   1.270   5.330  0.4733 -1.4618 -0.3543
19737TIP3   OH280701   6.500   3.161   2.640 -0.2144  0.3788  0.3675
19737TIP3    H180702   6.539   3.126   2.720 -0.0707 -0.7260 -0.1688
19737TIP3    H280703   6.568   3.217   2.603  0.4047 -0.5287  0.0987
19738TIP3   OH280704   6.818   0.211  12.278 -0.2382 -0.3081 -0.8134
19738TIP3    H180705   6.816   0.240  12.187 -0.5641 -0.3901 -0.8360
19738TIP3    H280706   6.851   0.121  12.275  1.4656  0.2786 -0.6735
19739TIP3   OH280707   5.226   5.784  13.264 -0.4677  0.2225 -0.0862
19739TIP3    H180708   5.137   5.763  13.291 -0.7977  0.5045 -0.9043
19739TIP3    H280709   5.244   5.870  13.304 -0.1751 -0.2855  0.9068
19740TIP3   OH280710   0.248   4.761   0.315 -0.1087  0.2835 -0.0562
19740TIP3    H180711   0.248   4.734   0.407  2.2444  1.8124  0.4651
19740TIP3    H280712   0.202   4.845   0.314 -0.7932 -0.0852 -0.4279
19741TIP3   OH280713   1.377   3.719  11.307 -0.2356 -0.4491 -0.1750
19741TIP3    H180714   1.443   3.760  11.249 -0.2150 -0.8753 -0.4570
19741TIP3    H280715   1.409   3.736  11.395 -0.6403  0.8542 -0.2477
19742TIP3   OH280716   5.218   5.681  12.967 -0.1358 -0.2048 -0.7941
19742TIP3    H180717   5.212   5.709  13.058 -0.5678  0.1899 -0.9361
19742TIP3    H280718   5.308   5.700  12.942  0.0867 -0.6541 -0.3420
19743TIP3   OH280719   6.262   0.052   5.385 -0.2066 -0.1304  0.6947
19743TIP3    H180720   6.216   0.029   5.465 -1.5823  3.2646  1.0396
19743TIP3    H280721   6.353   0.061   5.411 -0.6741  1.1988  2.0150
19744TIP3   OH280722   5.031   1.551   2.846  0.4855 -0.2408  0.3668
19744TIP3    H180723   5.056   1.535   2.755  1.4652 -0.4622  0.6697
19744TIP3    H280724   4.949   1.502   2.856 -1.4948  2.4287 -1.3116
19745TIP3   OH280725   3.287   0.766   5.142 -0.0497  0.0479  0.1202
19745TIP3    H180726   3.258   0.696   5.082  2.6541  0.3678 -1.7485
19745TIP3    H280727   3.371   0.735   5.176 -0.6374  0.7502  2.3128
19746TIP3   OH280728   3.096   3.794   4.415 -0.0778 -0.4258  0.5992
19746TIP3    H180729   3.087   3.885   4.388  0.2237 -0.9716 -1.4677
19746TIP3    H280730   3.008   3.758   4.407 -0.0094 -0.5614  0.4505
19747TIP3   OH280731   6.288   2.728   3.065  0.7480  0.1801  0.6408
19747TIP3    H180732   6.350   2.800   3.054 -0.3367  1.0126 -0.2989
19747TIP3    H280733   6.205   2.771   3.085  0.2026 -0.8474  0.6624
19748TIP3   OH280734   6.433   0.183   2.885 -0.0378  0.0075  0.2889
19748TIP3    H180735   6.373   0.233   2.829  0.6929  2.7596  1.7668
19748TIP3    H280736   6.439   0.235   2.965  2.2125 -1.5919  1.2510
19749TIP3   OH280737   1.725   2.426  14.571 -0.2463  0.4580  0.3386
19749TIP3    H180738   1.781   2.360  14.530  0.5746  0.8779  0.7674
19749TIP3    H280739   1.694   2.480  14.499 -3.3367 -2.0585 -0.4848
19750TIP3   OH280740   2.103   6.483   1.599 -0.4008  0.1153  0.7831
19750TIP3    H180741   2.073   6.568   1.630 -3.3426  0.1049 -1.5536
19750TIP3    H280742   2.108   6.492   1.504  0.8892 -1.8850  0.5815
19751TIP3   OH280743   0.156   1.070  16.429  0.1299  0.3640  0.0333
19751TIP3    H180744   0.159   0.976  16.445 -1.3462  0.5906  2.0549
19751TIP3    H280745   0.194   1.108  16.508  0.4321  1.4894 -0.6303
19752TIP3   OH280746   1.834   4.309   1.105  0.4925  0.0901 -0.2645
19752TIP3    H180747   1.802   4.271   1.186  1.7598 -0.7168 -0.1149
19752TIP3    H280748   1.777   4.385   1.090  0.5671  0.5954  1.6685
19753TIP3   OH280749   3.313   0.279   1.420  0.5009  0.0026 -0.1827
19753TIP3    H180750   3.305   0.355   1.362 -0.1145 -2.4926 -3.6813
19753TIP3    H280751   3.225   0.242   1.425  1.2708 -2.0903 -1.0235
19754TIP3   OH280752   3.539   3.752  15.348  0.0026 -0.6665  0.0304
19754TIP3    H180753   3.579   3.836  15.372 -0.4580 -0.8211  1.4867
19754TIP3    H280754   3.555   3.743  15.254 -0.4811  1.3655 -0.3004
19755TIP3   OH280755   3.376   1.551  14.738 -0.2143  0.2389  0.0244
19755TIP3    H180756   3.400   1.625  14.794  0.0436 -0.4228  0.8040
19755TIP3    H280757   3.454   1.535  14.684  0.1474 -0.1886  0.6633
19756TIP3   OH280758   3.968   3.206  15.779  0.4025 -0.0899  0.1285
19756TIP3    H180759   4.018   3.256  15.715 -0.2866  0.5275  0.0646
19756TIP3    H280760   3.920   3.141  15.727  0.4152 -0.0708  0.0926
19757TIP3   OH280761   4.201   2.892   1.023  0.1734  0.2233 -0.2143
19757TIP3    H180762   4.113   2.856   1.014 -0.1247  0.3198  1.8896
19757TIP3    H280763   4.216   2.941   0.942 -2.7380  2.4255  0.4480
19758TIP3   OH280764   4.999   1.267   4.792 -0.2718  0.1199  0.0400
19758TIP3    H180765   4.993   1.195   4.855  0.8540  1.1064  1.3548
19758TIP3    H280766   4.936   1.332   4.824 -0.1339  0.3736 -0.1993
19759TIP3   OH280767   5.276   4.368   3.977  0.4670 -0.2613  0.4132
19759TIP3    H180768   5.370   4.355   3.962  0.0485 -1.6590 -1.2951
19759TIP3    H280769   5.248   4.424   3.904  0.0250  0.5393  1.1720
19760TIP3   OH280770   1.134   5.155   0.285  0.1513 -0.0515  0.4260
19760TIP3    H180771   1.134   5.137   0.379 -1.6563  1.9875  0.8938
19760TIP3    H280772   1.091   5.240   0.277 -0.1870 -0.3999 -2.3039
19761TIP3   OH280773   6.728   1.711   1.495  0.0785 -0.2268  0.3422
19761TIP3    H180774   6.752   1.733   1.404 -0.2438 -0.7250  0.1327
19761TIP3    H280775   6.775   1.630   1.513  1.4886  0.7287  1.2111
19762TIP3   OH280776   4.496   1.892   2.028 -0.0011  0.5786  0.4930
19762TIP3    H180777   4.419   1.847   2.061  1.0176 -0.6419  1.3122
19762TIP3    H280778   4.526   1.946   2.102  2.6003 -2.5756  2.0058
19763TIP3   OH280779   3.021   3.838   6.530 -0.9567 -0.4056  0.1456
19763TIP3    H180780   2.945   3.892   6.508 -0.0994  1.5897  1.6849
19763TIP3    H280781   2.998   3.799   6.615  0.3642  1.7891  1.6312
19764TIP3   OH280782   4.362   3.749  12.270  0.0682 -0.0340 -0.6579
19764TIP3    H180783   4.349   3.824  12.327 -0.4622  0.2083 -1.0927
19764TIP3    H280784   4.403   3.683  12.327 -3.6036 -1.1180  1.0696
19765TIP3   OH280785   4.384   4.504   1.670  0.6119  0.6371  0.4989
19765TIP3    H180786   4.479   4.496   1.676  0.7248  0.1957 -1.3464
19765TIP3    H280787   4.360   4.452   1.593 -1.2821 -0.3280  1.6381
19766TIP3   OH280788   0.800   4.657   2.708 -0.3761  0.4206  0.4385
19766TIP3    H180789   0.705   4.662   2.711 -0.3184  1.5274  1.6205
19766TIP3    H280790   0.829   4.747   2.727  0.9019  0.0505  0.3512
19767TIP3   OH280791   2.636   5.366  16.141  0.4531 -0.0332  0.4916
19767TIP3    H180792   2.684   5.295  16.098  2.7261  0.3792  2.1639
19767TIP3    H280793   2.558   5.323  16.177  1.6592 -1.6804  1.2915
19768TIP3   OH280794   0.942   3.083  11.340 -0.3313  0.3230  0.1187
19768TIP3    H180795   0.872   3.128  11.387 -0.6999  0.3151 -0.4189
19768TIP3    H280796   0.919   2.990  11.344 -2.0018  0.5170 -2.6457
19769TIP3   OH280797   2.540   4.538   4.523 -0.9192  0.0368 -0.1115
19769TIP3    H180798   2.605   4.576   4.465 -1.6110  0.8638 -0.3633
19769TIP3    H280799   2.456   4.566   4.487 -1.3920 -0.2897  0.7005
19770TIP3   OH280800   5.611   4.057   2.828  0.2575 -0.2090 -0.6896
19770TIP3    H180801   5.518   4.038   2.815  0.0575 -1.6207  2.0702
19770TIP3    H280802   5.657   3.985   2.785  0.0761  0.1063 -1.4283
19771TIP3   OH280803   2.277   2.759   5.308 -0.4442 -0.0180  0.4094
19771TIP3    H180804   2.239   2.758   5.221 -1.2135 -1.9643  0.7087
19771TIP3    H280805   2.369   2.781   5.294 -0.1521 -1.9514 -1.1118
19772TIP3   OH280806   3.746   3.962  17.159  0.2404  0.3885 -0.0458
19772TIP3    H180807   3.665   3.971  17.210  0.2138  1.7251 -0.2995
19772TIP3    H280808   3.776   3.873  17.179 -1.8452 -0.5424 -0.8010
19773TIP3   OH280809   1.690   1.401   0.407  0.1470 -0.2877  0.1242
19773TIP3    H180810   1.616   1.391   0.467  0.9703 -1.7928  0.9567
19773TIP3    H280811   1.658   1.366   0.324  0.2147 -1.9688  0.7608
19774TIP3   OH280812   3.120   6.307   1.976  0.3546 -0.4201  0.0301
19774TIP3    H180813   3.212   6.284   1.962 -0.7202 -5.1223 -0.7968
19774TIP3    H280814   3.103   6.285   2.067 -0.4464 -1.8260 -0.4371
19775TIP3   OH280815   2.667   5.218  13.469  0.4981 -0.0464  0.0568
19775TIP3    H180816   2.605   5.206  13.540  1.4544 -1.6191  0.6946
19775TIP3    H280817   2.714   5.299  13.491 -1.2898  1.1845 -0.4638
19776TIP3   OH280818   4.432   2.593  11.913 -0.0366  0.1576 -0.7363
19776TIP3    H180819   4.436   2.511  11.962  1.0041 -0.5602 -1.9555
19776TIP3    H280820   4.339   2.602  11.890 -0.0570 -1.1217 -1.2716
19777TIP3   OH280821   1.527   3.981   6.048 -0.4924 -0.3678  0.3574
19777TIP3    H180822   1.433   3.993   6.063 -0.2999  1.0843  0.5584
19777TIP3    H280823   1.568   4.012   6.129  0.1918 -0.4099  0.0319
19778TIP3   OH280824   4.917   5.704  15.082 -0.0026  0.3149  0.3612
19778TIP3    H180825   4.877   5.672  15.001  0.3631 -0.1979  0.3725
19778TIP3    H280826   5.002   5.738  15.054  1.1336 -1.9496  0.7959
19779TIP3   OH280827   4.636   5.367   2.921 -0.2333 -0.0023 -0.1613
19779TIP3    H180828   4.731   5.377   2.925 -0.0863 -0.2562 -1.9717
19779TIP3    H280829   4.601   5.440   2.972  0.9394  1.6470 -1.6044
19780TIP3   OH280830   6.390   6.045   2.412  0.2276  0.5603 -0.3324
19780TIP3    H180831   6.386   5.985   2.486 -2.2370  1.6735  0.5394
19780TIP3    H280832   6.406   6.131   2.451  1.6453  0.8101 -1.3743
19781TIP3   OH280833   3.486   1.247   2.038 -0.3021  0.0602 -0.2255
19781TIP3    H180834   3.486   1.208   2.126  1.2173 -1.4748 -0.8555
19781TIP3    H280835   3.397   1.232   2.005 -0.9405  0.7985  1.0809
19782TIP3   OH280836   3.934   5.290   2.495 -0.0686  0.3222 -0.4648
19782TIP3    H180837   4.024   5.285   2.463  0.1402 -0.7636  0.2424
19782TIP3    H280838   3.915   5.384   2.496  1.3379  0.6320  0.1274
19783TIP3   OH280839   5.387   2.117   1.326 -0.9441 -0.2379 -0.5594
19783TIP3    H180840   5.446   2.181   1.365 -1.8051  0.9528 -1.1473
19783TIP3    H280841   5.429   2.032   1.343  0.5467  0.5095 -0.3366
19784TIP3   OH280842   6.562   4.804  12.663 -0.3527  0.5886 -0.5618
19784TIP3    H180843   6.616   4.863  12.611  1.5182 -0.5038  0.0589
19784TIP3    H280844   6.611   4.723  12.666 -1.3614 -0.0090  1.2408
19785TIP3   OH280845   6.451   6.166  15.237 -0.2798  0.5569 -0.3564
19785TIP3    H180846   6.492   6.161  15.324  0.9791  0.2470 -0.9384
19785TIP3    H280847   6.358   6.174  15.254 -0.0092  0.9370  1.0364
19786TIP3   OH280848   2.902   5.439   1.059  0.3971 -0.1839 -0.5744
19786TIP3    H180849   2.888   5.416   1.152 -1.0560  0.0084 -0.7280
19786TIP3    H280850   2.898   5.355   1.014 -0.9991 -0.0671 -0.6903
19787TIP3   OH280851   2.026   5.727  13.971 -0.1029  0.4090  0.7805
19787TIP3    H180852   2.018   5.769  14.057  0.7483  0.8406  0.6646
19787TIP3    H280853   2.094   5.778  13.926 -0.2561 -0.0609 -0.0001
19788TIP3   OH280854   2.648   3.359  10.779  0.1306  0.1594 -0.2802
19788TIP3    H180855   2.575   3.422  10.781 -0.9942 -1.1330  1.2679
19788TIP3    H280856   2.713   3.396  10.838 -2.5967 -2.3439  4.8768
19789TIP3   OH280857   1.788   2.780   1.060 -0.2955  0.5707  0.4616
19789TIP3    H180858   1.836   2.708   1.019 -1.0998 -0.4988  1.3320
19789TIP3    H280859   1.855   2.846   1.080  0.6101 -0.3562  0.5488
19790TIP3   OH280860   0.198   3.698  15.323  0.1606  0.0276  0.4891
19790TIP3    H180861   0.197   3.618  15.270  1.3535  0.2362  0.1174
19790TIP3    H280862   0.107   3.708  15.353 -0.3388 -0.6209 -0.7228
19791TIP3   OH280863   4.337   2.198   5.803  0.6426  0.5477  0.1930
19791TIP3    H180864   4.339   2.228   5.894  0.7438  2.4894 -0.4051
19791TIP3    H280865   4.250   2.161   5.792  1.3123 -1.6409  1.6128
19792TIP3   OH280866   4.116   2.929   1.860 -0.2690  0.5305  0.3694
19792TIP3    H180867   4.060   2.997   1.822  0.7523  1.0237 -0.2955
19792TIP3    H280868   4.067   2.848   1.847  0.2421  0.5869 -2.5804
19793TIP3   OH280869   0.852   0.636   5.116 -0.0461 -0.2705  0.0270
19793TIP3    H180870   0.856   0.691   5.038  2.2081 -1.3856 -0.7142
19793TIP3    H280871   0.783   0.676   5.169 -0.5507  1.4639 -1.7948
19794TIP3   OH280872   0.165   4.804   4.519 -0.4004  0.4994  0.2075
19794TIP3    H180873   0.194   4.844   4.437  0.3439  2.1438  1.2238
19794TIP3    H280874   0.219   4.845   4.586 -0.9502 -0.8581  1.5383
19795TIP3   OH280875   2.860   3.569  16.503 -0.5742  0.0040  0.1608
19795TIP3    H180876   2.898   3.657  16.497 -0.3159 -0.1157  0.0888
19795TIP3    H280877   2.799   3.564  16.429  0.8807 -0.6143 -1.0323
19796TIP3   OH280878   2.067   4.160   3.397 -0.1138  0.0945 -0.1331
19796TIP3    H180879   2.118   4.183   3.474  1.1241 -0.8255 -0.6363
19796TIP3    H280880   2.076   4.065   3.389 -1.4824 -0.0256 -0.5563
19797TIP3   OH280881   0.748   5.673   0.297 -0.0205  0.5378  0.3103
19797TIP3    H180882   0.754   5.711   0.384  0.4375  2.2954 -0.4473
19797TIP3    H280883   0.783   5.740   0.239  0.7780 -1.0440 -1.1219
19798TIP3   OH280884   3.598   0.333   6.553 -0.0215  0.0380 -0.2535
19798TIP3    H180885   3.515   0.316   6.598 -0.0051  1.5995  0.4370
19798TIP3    H280886   3.662   0.277   6.597 -0.8541 -1.9620 -1.4676
19799TIP3   OH280887   0.261   0.581  15.022 -0.4987 -0.6127  0.7740
19799TIP3    H180888   0.312   0.634  14.961 -1.0054 -0.8554  0.1261
19799TIP3    H280889   0.324   0.521  15.061 -0.3232 -1.1451 -0.2733
19800TIP3   OH280890   3.850   5.465   2.776  0.3538  0.0389  0.2869
19800TIP3    H180891   3.885   5.463   2.686 -1.3488  0.9267 -0.4421
19800TIP3    H280892   3.806   5.381   2.786 -0.8364  0.5705 -0.3238
19801TIP3   OH280893   5.451   5.416  16.208 -0.6517 -0.5116  0.3832
19801TIP3    H180894   5.388   5.350  16.179 -0.9934  0.6501 -1.6749
19801TIP3    H280895   5.503   5.435  16.130 -0.0739  1.1234  1.1341
19802TIP3   OH280896   5.188   6.159   4.415 -0.3448  0.1944 -0.4547
19802TIP3    H180897   5.283   6.151   4.419 -0.4009 -0.0239  1.5464
19802TIP3    H280898   5.170   6.252   4.425 -0.3463  0.2498 -0.9544
19803TIP3   OH280899   3.879   1.393  16.729  0.0503 -0.0259  0.3785
19803TIP3    H180900   3.968   1.407  16.698  0.7439 -1.0735  1.7471
19803TIP3    H280901   3.824   1.449  16.674  1.4657  0.1250 -0.9350
19804TIP3   OH280902   0.587   3.726   5.790  0.6051 -0.5277 -0.2997
19804TIP3    H180903   0.538   3.676   5.856  0.2575 -1.3970 -1.1808
19804TIP3    H280904   0.678   3.723   5.821  0.2719  0.1684  0.7893
19805TIP3   OH280905   0.558   3.569  11.997  0.3508  0.1554 -0.6404
19805TIP3    H180906   0.582   3.599  12.085 -0.2591  0.3722 -0.5426
19805TIP3    H280907   0.603   3.629  11.938 -0.0105  0.6045 -0.4605
19806TIP3   OH280908   0.065   3.450  11.325 -0.2294 -0.9733 -0.7131
19806TIP3    H180909   0.004   3.397  11.376 -0.5681 -0.8540 -0.9958
19806TIP3    H280910   0.151   3.418  11.351 -0.4125 -1.2223 -0.4006
19807TIP3   OH280911   2.493   6.473   5.943  0.0323 -0.0271 -0.5021
19807TIP3    H180912   2.582   6.463   5.977 -0.6712  0.6737  1.6499
19807TIP3    H280913   2.449   6.392   5.967 -0.1473 -0.0373 -0.8612
19808TIP3   OH280914   2.580   1.953  11.924  0.5016  0.0849  0.3110
19808TIP3    H180915   2.639   2.024  11.950 -0.0811  0.5312  0.4336
19808TIP3    H280916   2.587   1.948  11.829 -0.3812  1.1489  0.1704
19809TIP3   OH280917   0.005   5.750   1.368  0.1755  0.1801 -0.1107
19809TIP3    H180918   0.012   5.844   1.351 -0.5384  0.1335 -0.7022
19809TIP3    H280919  -0.052   5.717   1.299 -0.8454 -0.4290  0.9778
19810TIP3   OH280920   6.034   4.347   0.493 -0.6773  0.1843 -0.6295
19810TIP3    H180921   5.946   4.317   0.470 -0.1982 -2.1948  0.3348
19810TIP3    H280922   6.089   4.269   0.483  0.9764  1.1592  0.5074
19811TIP3   OH280923   3.436   3.074   0.240  0.2852  0.5292 -1.0878
19811TIP3    H180924   3.478   3.028   0.167  0.3330  0.4649 -1.0190
19811TIP3    H280925   3.509   3.111   0.290  0.2279  1.1791 -1.4731
19812TIP3   OH280926   0.259   5.277   2.872 -0.4414 -0.1385 -0.6515
19812TIP3    H180927   0.240   5.245   2.960 -0.1381 -0.4731 -0.7064
19812TIP3    H280928   0.200   5.351   2.860 -0.9711 -0.5148 -0.4240
19813TIP3   OH280929   0.498   4.924  12.548  0.2753 -0.5352 -0.3180
19813TIP3    H180930   0.462   4.924  12.460  1.6234 -0.9087 -0.9069
19813TIP3    H280931   0.490   4.833  12.578 -1.3314 -0.1616  0.4697
19814TIP3   OH280932   0.193   6.321   2.963 -0.3108 -0.5375  0.0848
19814TIP3    H180933   0.212   6.296   2.873  1.4056 -0.9403  0.5168
19814TIP3    H280934   0.207   6.241   3.014  0.5617  0.1165  0.9095
19815TIP3   OH280935   2.230   1.365   3.942 -0.0302 -0.2559 -0.2009
19815TIP3    H180936   2.312   1.391   3.902 -0.3926 -0.0731 -0.8390
19815TIP3    H280937   2.254   1.336   4.030  0.8680 -1.3892 -0.8079
19816TIP3   OH280938   3.490   5.435  10.345  0.3272  0.2235  0.6425
19816TIP3    H180939   3.445   5.399  10.421 -1.0679 -0.7140 -0.5667
19816TIP3    H280940   3.579   5.402  10.352  0.3186  0.4279  2.0225
19817TIP3   OH280941   5.184   6.497   0.722  0.7542 -0.3694  0.5793
19817TIP3    H180942   5.095   6.517   0.751  0.5709 -0.2045 -0.0745
19817TIP3    H280943   5.179   6.407   0.689  0.6860 -0.1635  0.0086
19818TIP3   OH280944   1.912   3.221  16.722 -0.4234  0.3111 -0.0979
19818TIP3    H180945   1.863   3.138  16.720  0.9111 -0.4895 -0.6431
19818TIP3    H280946   1.876   3.271  16.648 -1.3937  0.3286  0.3686
19819TIP3   OH280947   5.070   0.897  11.513  1.0012  0.6919  0.1225
19819TIP3    H180948   5.024   0.857  11.440  0.9758  0.5718  0.2027
19819TIP3    H280949   5.035   0.853  11.591  0.4583  1.3722  0.2655
19820TIP3   OH280950   0.320   5.717  15.436  0.0498 -0.2714 -0.0875
19820TIP3    H180951   0.342   5.749  15.349 -2.9293  2.3546 -0.0484
19820TIP3    H280952   0.272   5.789  15.477 -1.0407 -2.3919  2.7360
19821TIP3   OH280953   1.718   2.834  13.417  1.2134  0.8744  0.1863
19821TIP3    H180954   1.660   2.829  13.341  0.6017  1.5485  0.5950
19821TIP3    H280955   1.802   2.861  13.381  0.9236  1.2167 -0.2459
19822TIP3   OH280956   1.629   6.762   3.190  0.3190 -0.3976  0.2624
19822TIP3    H180957   1.620   6.813   3.110  0.9836  0.2662  0.6010
19822TIP3    H280958   1.723   6.752   3.203  0.2248 -0.3510  1.0516
19823TIP3   OH280959   5.337   1.194   2.971 -0.1757 -0.4023 -0.3259
19823TIP3    H180960   5.244   1.182   2.950 -0.6756  0.5839  1.1991
19823TIP3    H280961   5.338   1.230   3.059  1.6848 -0.5649 -0.2300
19824TIP3   OH280962   6.656   2.320  13.636 -0.1767 -0.4520 -1.0758
19824TIP3    H180963   6.736   2.352  13.678  0.4611 -0.0373 -2.5459
19824TIP3    H280964   6.674   2.327  13.542 -2.3850  0.7722 -1.4688
19825TIP3   OH280965   3.537   1.458   1.754  0.2840  0.2684  0.3566
19825TIP3    H180966   3.441   1.459   1.750  0.0424 -2.0355  2.9339
19825TIP3    H280967   3.563   1.401   1.682 -0.5682 -1.6788  1.5063
19826TIP3   OH280968   2.189   3.193  13.488 -0.5184  0.5313  0.4546
19826TIP3    H180969   2.223   3.138  13.417  0.6566  0.0683  1.3330
19826TIP3    H280970   2.166   3.131  13.557  1.9131  1.1345  1.9103
19827TIP3   OH280971   5.897   6.301   1.897  0.2134 -0.1886  0.2892
19827TIP3    H180972   5.986   6.298   1.933 -0.7906  0.6796  3.0601
19827TIP3    H280973   5.840   6.301   1.973 -2.1640  0.5280 -1.3772
19828TIP3   OH280974   1.633   0.077   2.950 -0.1791  1.0925  0.7862
19828TIP3    H180975   1.716   0.065   2.904  0.7881  0.9400  2.4962
19828TIP3    H280976   1.622   0.172   2.956 -0.0529  1.1129  0.6946
19829TIP3   OH280977   3.877   0.659  12.946 -0.5028 -0.6101  0.1223
19829TIP3    H180978   3.878   0.743  12.992 -0.4724 -1.1944  1.2326
19829TIP3    H280979   3.831   0.600  13.006 -0.3110 -1.4462 -0.5348
19830TIP3   OH280980   5.217   6.534  11.145  0.3930  0.1564 -0.0563
19830TIP3    H180981   5.219   6.525  11.240  2.3547 -2.2287 -0.2429
19830TIP3    H280982   5.289   6.594  11.124  1.2489 -0.8864 -0.1398
19831TIP3   OH280983   0.225   1.804   0.504  0.0123 -0.4067 -0.3513
19831TIP3    H180984   0.143   1.795   0.457  0.7252 -0.6194 -1.6038
19831TIP3    H280985   0.231   1.725   0.559  0.1252 -1.2005 -1.4727
19832TIP3   OH280986   4.372   1.630   5.386 -0.4292 -0.5361  0.3319
19832TIP3    H180987   4.417   1.548   5.371 -1.6768 -1.1099 -0.4826
19832TIP3    H280988   4.300   1.630   5.323 -0.7574  0.9478  0.6575
19833TIP3   OH280989   4.803   6.107  13.988  0.2167  0.4496  0.1168
19833TIP3    H180990   4.815   6.147  13.901  1.7961 -0.0052  0.0871
19833TIP3    H280991   4.872   6.146  14.042 -0.5931  0.5340  1.1051
19834TIP3   OH280992   0.709   3.528   1.878 -0.3997 -0.2759 -0.1766
19834TIP3    H180993   0.723   3.614   1.916 -0.1246 -0.4010  0.0098
19834TIP3    H280994   0.697   3.545   1.784 -0.0483 -0.0619 -0.1835
19835TIP3   OH280995   5.163   2.149  14.443  0.3803  0.1795  0.1915
19835TIP3    H180996   5.088   2.093  14.463  0.0914  0.8420  1.0599
19835TIP3    H280997   5.164   2.154  14.347 -1.4749  1.1607  0.1607
19836TIP3   OH280998   3.335   3.685   4.304  0.0672 -0.2492 -0.1771
19836TIP3    H180999   3.325   3.592   4.284 -0.1521 -0.2955  0.1347
19836TIP3    H281000   3.264   3.704   4.366  0.7809 -0.1279  0.6077
19837TIP3   OH281001   6.661   3.515  11.176  0.4779  0.4531  0.0299
19837TIP3    H181002   6.733   3.454  11.159  0.2161 -0.0244  0.5949
19837TIP3    H281003   6.675   3.543  11.266 -0.6560 -0.4974  0.5233
19838TIP3   OH281004   4.981   1.731  15.678 -0.1610  0.1245 -0.0127
19838TIP3    H181005   5.039   1.801  15.708 -0.2392 -0.4454  1.5805
19838TIP3    H281006   5.028   1.689  15.606  0.9785  0.2916  0.6210
19839TIP3   OH281007   5.892   0.345   3.701  0.5426 -0.0890  0.2873
19839TIP3    H181008   5.859   0.284   3.767 -1.8341 -0.4070 -1.0748
19839TIP3    H281009   5.923   0.421   3.751  1.2195 -1.3536  1.8585
19840TIP3   OH281010   2.158   1.364   2.922  0.3596 -0.1330 -0.0742
19840TIP3    H181011   2.207   1.286   2.896 -0.0993 -0.3737 -0.2189
19840TIP3    H281012   2.189   1.383   3.011 -0.3811 -1.1761  0.4256
19841TIP3   OH281013   5.780   0.529   3.403 -0.2887  0.2300 -0.0541
19841TIP3    H181014   5.824   0.561   3.324 -0.3423  0.6165  0.0677
19841TIP3    H281015   5.820   0.579   3.474 -0.3478 -0.0068  0.1463
19842TIP3   OH281016   2.505   1.508  12.991  0.5321  0.2030 -0.2358
19842TIP3    H181017   2.471   1.585  13.035  0.0834  0.4063 -0.9205
19842TIP3    H281018   2.448   1.497  12.914  1.6716  0.2444 -1.1159
19843TIP3   OH281019   1.147   6.181   6.163  0.1884 -0.4827  0.8480
19843TIP3    H181020   1.062   6.178   6.208 -0.0244  0.9190  0.5863
19843TIP3    H281021   1.210   6.187   6.235  0.0715 -1.4626  1.0436
19844TIP3   OH281022   3.137   1.827  11.381  0.8251 -0.2298  0.2659
19844TIP3    H181023   3.177   1.848  11.297 -0.2093  0.7363 -0.0160
19844TIP3    H281024   3.124   1.732  11.379  0.7626 -0.2122 -0.6877
19845TIP3   OH281025   0.141   3.773   0.210  0.6614 -0.3374 -0.2954
19845TIP3    H181026   0.159   3.693   0.162 -0.5903 -2.3730  2.3710
19845TIP3    H281027   0.169   3.755   0.300 -0.1312  2.0175  0.5256
19846TIP3   OH281028   6.739   1.757  11.719  0.0431  0.0452 -0.0131
19846TIP3    H181029   6.711   1.667  11.701  0.6065  0.2665 -2.1999
19846TIP3    H281030   6.780   1.787  11.638 -1.4522  2.8098  0.1390
19847TIP3   OH281031   4.605   2.132  14.723  0.1704 -0.0285  0.3145
19847TIP3    H181032   4.563   2.205  14.677  0.5654 -0.8699 -1.4626
19847TIP3    H281033   4.698   2.143  14.704  0.1288 -1.5998 -0.9010
19848TIP3   OH281034   3.321   6.128  15.890 -0.4394 -0.0798  0.6876
19848TIP3    H181035   3.313   6.105  15.798 -0.0049 -0.3791  0.7238
19848TIP3    H281036   3.408   6.168  15.898 -0.4154 -0.1908  0.9940
19849TIP3   OH281037   1.898   2.335   2.584  0.1740 -0.5425 -0.0639
19849TIP3    H181038   1.958   2.275   2.541  2.2821  1.5732 -0.3254
19849TIP3    H281039   1.896   2.306   2.675  3.4238  0.4839  0.4775
19850TIP3   OH281040   0.861   3.098  14.565 -0.4307 -0.0082 -0.1331
19850TIP3    H181041   0.791   3.159  14.545  0.9867  1.0411 -2.1869
19850TIP3    H281042   0.941   3.147  14.550  0.7769 -1.4489  1.2485
19851TIP3   OH281043   6.588   6.573   5.241 -0.1112 -0.0089 -0.2346
19851TIP3    H181044   6.577   6.545   5.151  0.3998  1.2048 -0.6955
19851TIP3    H281045   6.532   6.650   5.249  0.2924  0.2362  0.3101
19852TIP3   OH281046   2.581   2.444   5.862 -0.4566 -0.5144 -0.4573
19852TIP3    H181047   2.554   2.495   5.786 -0.2325  0.6451  0.2120
19852TIP3    H281048   2.530   2.479   5.935  0.6516 -0.3273  0.2651
19853TIP3   OH281049   0.038   2.389  13.777  0.2710 -0.4504  0.6550
19853TIP3    H181050   0.023   2.464  13.833  0.1958 -0.3738  0.5329
19853TIP3    H281051   0.099   2.334  13.826  1.4603  0.3596  0.1560
19854TIP3   OH281052   6.633   1.740  17.068  0.2072  0.5565 -0.1564
19854TIP3    H181053   6.657   1.828  17.098  1.2040  0.8487 -1.7203
19854TIP3    H281054   6.704   1.714  17.010 -0.4970 -0.9468 -0.3927
19855TIP3   OH281055   6.523   2.833   5.496 -0.0355 -0.4659  0.3229
19855TIP3    H181056   6.493   2.757   5.447  0.0823  0.1274 -0.7087
19855TIP3    H281057   6.502   2.908   5.440  0.9303  0.1702  0.7669
19856TIP3   OH281058   6.418   2.670  13.854 -0.2813  0.0702  0.2447
19856TIP3    H181059   6.460   2.757  13.857  1.9783 -0.8892 -0.8686
19856TIP3    H281060   6.363   2.673  13.776 -0.8420  0.7538  0.6585
19857TIP3   OH281061   6.648   0.767   2.219 -0.2119 -0.4265 -0.3082
19857TIP3    H181062   6.588   0.812   2.278  0.1871 -0.2898 -0.0043
19857TIP3    H281063   6.681   0.836   2.161 -0.3534 -0.5024 -0.4790
19858TIP3   OH281064   3.664   2.670  16.611  0.9338  0.3355 -0.2540
19858TIP3    H181065   3.663   2.757  16.571 -0.8818  0.7908  0.6773
19858TIP3    H281066   3.605   2.617  16.557  0.7550  0.1477  0.1156
19859TIP3   OH281067   6.461   1.074   5.526  0.3519  0.0860  0.8155
19859TIP3    H181068   6.440   1.099   5.436  1.8322 -0.7727  0.1831
19859TIP3    H281069   6.526   1.004   5.516  1.7956  1.1059  2.5381
19860TIP3   OH281070   3.947   0.320  12.855  0.8171 -0.0528 -0.3743
19860TIP3    H181071   3.862   0.278  12.846  0.2164  0.5302  1.9487
19860TIP3    H281072   3.997   0.261  12.912  1.4060  0.4044 -0.4017
19861TIP3   OH281073   0.555   0.640   3.909  0.3796  0.1252 -0.3531
19861TIP3    H181074   0.467   0.660   3.939 -0.2280 -2.0105 -0.5807
19861TIP3    H281075   0.544   0.612   3.819  1.4782  1.0347 -0.7952
19862TIP3   OH281076   2.379   3.064  15.057 -0.3102 -0.4281 -0.2880
19862TIP3    H181077   2.353   2.979  15.093 -1.5319 -0.8911 -2.1176
19862TIP3    H281078   2.299   3.099  15.018  0.0736  1.7967  0.7977
19863TIP3   OH281079   0.503   0.356   6.393 -0.3090 -0.1957  0.1910
19863TIP3    H181080   0.518   0.336   6.301  2.1921 -1.6514  0.7994
19863TIP3    H281081   0.562   0.429   6.411  1.2291 -1.5802  1.1330
19864TIP3   OH281082   2.389   2.053   2.273  0.2771 -0.5954  0.5650
19864TIP3    H181083   2.321   2.010   2.220 -0.0022 -0.4951  0.8424
19864TIP3    H281084   2.455   1.985   2.287  0.5276 -0.5297 -0.2035
19865TIP3   OH281085   6.685   3.396   5.619  0.3579 -0.1901 -0.4512
19865TIP3    H181086   6.752   3.463   5.605 -1.5335  2.4417  1.8847
19865TIP3    H281087   6.619   3.414   5.552  0.0849  0.0188 -0.1349
19866TIP3   OH281088   5.263   3.866   2.108  0.0231 -0.4833 -0.4706
19866TIP3    H181089   5.219   3.837   2.028  1.2877 -1.0224 -1.0117
19866TIP3    H281090   5.278   3.959   2.094  0.8781 -0.7118 -1.2156
19867TIP3   OH281091   1.337   6.353   3.208 -0.0098  0.2376  0.2219
19867TIP3    H181092   1.365   6.275   3.255  1.1724 -0.1120 -0.9887
19867TIP3    H281093   1.414   6.410   3.207 -0.7935  1.3556  0.9054
19868TIP3   OH281094   1.310   2.655  13.008 -0.0173 -0.0512 -0.0576
19868TIP3    H181095   1.246   2.585  13.017  0.3650 -0.5896 -1.3048
19868TIP3    H281096   1.359   2.654  13.090 -1.5741  0.3829  0.9332
19869TIP3   OH281097   6.576   3.495  12.317 -0.2051  0.0147  0.4868
19869TIP3    H181098   6.559   3.588  12.333  3.4165  1.0650 -0.8942
19869TIP3    H281099   6.525   3.474  12.239  0.2202  1.3207 -0.1630
19870TIP3   OH281100   4.702   5.728   3.647 -0.0582  0.4506 -0.1025
19870TIP3    H181101   4.736   5.803   3.597 -0.2648 -0.2686 -1.3718
19870TIP3    H281102   4.773   5.665   3.648 -0.5910 -0.1948 -0.9229
19871TIP3   OH281103   2.008   4.750   0.805 -0.7490 -0.4431 -0.3937
19871TIP3    H181104   2.076   4.802   0.848  0.5215 -2.0350 -0.3723
19871TIP3    H281105   1.973   4.806   0.736  1.1972  0.1313 -0.9589
19872TIP3   OH281106   3.639   5.755   1.293  0.2261  0.7693 -0.5348
19872TIP3    H181107   3.586   5.827   1.326 -0.5787 -0.7713  1.7200
19872TIP3    H281108   3.710   5.747   1.356 -0.6347 -1.4464  0.2304
19873TIP3   OH281109   6.733   3.864   0.317 -0.2215  0.2431  0.1935
19873TIP3    H181110   6.805   3.922   0.343 -0.5285  0.4639  0.5700
19873TIP3    H281111   6.761   3.827   0.233  0.4909  0.0477  0.5026
19874TIP3   OH281112   6.026   4.299  12.038 -0.2014  0.1456  0.5460
19874TIP3    H181113   6.013   4.326  12.129  1.5718 -1.4186  1.3386
19874TIP3    H281114   6.065   4.377  11.996 -0.9772  0.8599  1.1227
19875TIP3   OH281115   0.082   0.097   3.698 -0.1731  0.3665 -0.1782
19875TIP3    H181116   0.087   0.169   3.636  0.9550  0.6261  0.1828
19875TIP3    H281117   0.088   0.018   3.644 -1.6832  0.5147 -0.5973
19876TIP3   OH281118   6.480   2.523  16.889  0.4529  0.1730  0.5757
19876TIP3    H181119   6.550   2.566  16.937 -0.4849  3.6379 -0.8556
19876TIP3    H281120   6.433   2.594  16.844 -0.8897 -2.3995 -2.5870
19877TIP3   OH281121   1.786   6.374  10.181  0.6932  0.6528 -0.5699
19877TIP3    H181122   1.723   6.419  10.124  0.0828  0.3283 -0.1640
19877TIP3    H281123   1.761   6.282  10.176 -0.9813  0.8411  2.1028
19878TIP3   OH281124   4.744   4.137  15.629  0.4354 -0.1028 -0.1890
19878TIP3    H181125   4.674   4.088  15.585  0.4232 -0.2894  0.0395
19878TIP3    H281126   4.774   4.199  15.563  1.7576 -1.6720 -1.1277
19879TIP3   OH281127   4.097   6.761  12.920 -0.2226  0.9755  0.0911
19879TIP3    H181128   4.055   6.679  12.947 -0.9508  0.5247 -2.1852
19879TIP3    H281129   4.069   6.825  12.985 -0.0115 -0.4688  1.6648
19880TIP3   OH281130   4.272   5.769   4.710 -0.7997 -0.0828  0.1161
19880TIP3    H181131   4.270   5.691   4.766 -0.8837 -1.1643 -1.3287
19880TIP3    H281132   4.181   5.786   4.689 -0.7722  0.3571  0.3432
19881TIP3   OH281133   0.613   6.145   1.382  0.1655 -0.2085 -0.2043
19881TIP3    H181134   0.536   6.176   1.333  0.4545  0.1924 -0.4139
19881TIP3    H281135   0.645   6.223   1.427  0.0023 -0.5397  0.4973
19882TIP3   OH281136   5.754   3.725   1.142  0.8892  0.0433 -0.6350
19882TIP3    H181137   5.666   3.707   1.111  0.5706  2.0262 -1.0088
19882TIP3    H281138   5.810   3.715   1.065  0.7051  0.7072 -0.8595
19883TIP3   OH281139   5.073   3.046  15.030 -0.1802  0.4197  0.3621
19883TIP3    H181140   5.102   3.110  15.095  0.5664 -0.2699  0.7209
19883TIP3    H281141   5.133   2.972  15.040  0.0054  0.3285 -1.1733
19884TIP3   OH281142   3.150   5.024   1.618  0.1363  0.3463  0.5263
19884TIP3    H181143   3.238   4.987   1.631  0.2216  0.4290  0.1995
19884TIP3    H281144   3.161   5.118   1.631 -0.1519  0.2283  1.7108
19885TIP3   OH281145   6.119   2.677   1.341  0.4374  0.0103 -0.3575
19885TIP3    H181146   6.198   2.655   1.291  0.1983 -0.0671 -0.7017
19885TIP3    H281147   6.152   2.707   1.425  0.8941  1.3406 -0.9900
19886TIP3   OH281148   0.712   5.784   3.826 -0.2509 -0.1988 -0.3733
19886TIP3    H181149   0.722   5.785   3.921  2.1653  0.5637 -0.5688
19886TIP3    H281150   0.637   5.727   3.810  1.1562 -2.9473  1.8596
19887TIP3   OH281151   4.212   4.555  12.249  0.7008 -0.1348 -0.8254
19887TIP3    H181152   4.121   4.553  12.222  0.5794  0.3109 -0.4717
19887TIP3    H281153   4.218   4.631  12.306  1.9121  1.5115 -3.0024
19888TIP3   OH281154   0.047   6.739  14.542 -0.6468 -0.3765 -0.3284
19888TIP3    H181155   0.123   6.723  14.599  0.1697  1.8543 -0.6994
19888TIP3    H281156   0.037   6.658  14.493  0.5701 -1.2474  0.7811
19889TIP3   OH281157   4.856   1.807   0.812 -0.1439  0.2691  0.2952
19889TIP3    H181158   4.823   1.790   0.900 -1.4824  2.0509  0.1888
19889TIP3    H281159   4.813   1.888   0.785  0.4951 -0.0433 -1.8750
19890TIP3   OH281160   5.571   4.475  12.320  0.1779 -0.1085  0.2631
19890TIP3    H181161   5.610   4.472  12.407  2.9429  1.0096 -0.8220
19890TIP3    H281162   5.544   4.385  12.302  0.9538 -0.6519  1.6637
19891TIP3   OH281163   3.082   0.825   4.018  0.2807 -0.6709  0.0189
19891TIP3    H181164   3.059   0.761   4.086  0.5452  0.6088  1.3735
19891TIP3    H281165   3.008   0.822   3.956 -0.5590 -1.0278  1.0031
19892TIP3   OH281166   6.691   6.519   0.357 -0.0468 -0.2217  0.1414
19892TIP3    H181167   6.689   6.597   0.301 -4.4508 -0.9487 -1.1154
19892TIP3    H281168   6.706   6.446   0.297 -1.0574 -0.7004  0.4381
19893TIP3   OH281169   3.065   4.436  16.192 -0.3512  0.1764  0.4619
19893TIP3    H181170   3.132   4.370  16.209 -1.0955 -0.0887  2.7275
19893TIP3    H281171   3.103   4.517  16.226 -0.7120  0.2409  0.7205
19894TIP3   OH281172   4.064   4.221  14.522 -0.3143 -0.6294 -0.5499
19894TIP3    H181173   4.062   4.137  14.568 -0.2809 -0.1132  0.4198
19894TIP3    H281174   4.156   4.231  14.494 -0.4171 -1.1225 -1.0807
19895TIP3   OH281175   2.637   0.318  16.014 -0.4319  0.3959  0.0455
19895TIP3    H181176   2.569   0.264  15.975 -2.0044  0.9313  1.8915
19895TIP3    H281177   2.715   0.262  16.015 -0.9287 -0.3907 -1.6770
19896TIP3   OH281178   4.999   4.308  13.246 -0.0591  0.0638  0.3640
19896TIP3    H181179   5.034   4.281  13.161 -1.3759  1.1697 -0.5942
19896TIP3    H281180   4.924   4.250  13.261 -0.0927  0.1568  0.5642
19897TIP3   OH281181   5.468   3.200  13.109 -0.0591  0.0127  0.0746
19897TIP3    H181182   5.557   3.168  13.124  0.8324  2.3290  0.1512
19897TIP3    H281183   5.475   3.254  13.030 -1.3322  0.4857  0.2626
19898TIP3   OH281184   2.391   4.599  14.541  0.1291  0.3456 -0.6471
19898TIP3    H181185   2.358   4.514  14.511  2.4311 -1.0786  0.6010
19898TIP3    H281186   2.380   4.596  14.636  1.4834  0.8709 -0.4596
19899TIP3   OH281187   4.271   0.405  15.637 -0.9270  0.6068  0.4253
19899TIP3    H181188   4.246   0.487  15.594 -0.4346  1.5562  1.8511
19899TIP3    H281189   4.347   0.429  15.691 -0.8647 -0.7620  0.9852
19900TIP3   OH281190   0.815   5.737  14.109 -0.1363 -0.2420 -0.6615
19900TIP3    H181191   0.879   5.669  14.090  0.5682  0.7566 -2.0694
19900TIP3    H281192   0.745   5.724  14.046 -1.8712 -1.8837  1.4425
19901TIP3   OH281193   2.094   0.144   0.048  0.4078  0.1081  0.6605
19901TIP3    H181194   2.153   0.069   0.040  1.3914  0.9217  0.0183
19901TIP3    H281195   2.012   0.115   0.007  1.3702 -0.0055 -1.3056
19902TIP3   OH281196   1.836   2.965  11.588  0.2448 -0.1889 -0.1710
19902TIP3    H181197   1.910   2.957  11.649  0.6660 -2.0216 -0.8555
19902TIP3    H281198   1.876   2.964  11.502 -0.3378  2.5567 -0.5679
19903TIP3   OH281199   4.688   5.703   2.914  0.1124  0.5379 -0.0060
19903TIP3    H181200   4.631   5.661   2.978  0.1111  1.0470  0.3354
19903TIP3    H281201   4.630   5.756   2.860 -0.0671 -0.8907 -1.2847
19904TIP3   OH281202   1.934   3.997  15.006 -0.3163  0.6515 -0.4985
19904TIP3    H181203   1.939   3.983  14.912 -1.4705 -1.0002 -0.3567
19904TIP3    H281204   1.994   3.933  15.044  0.2566  1.4057 -0.0923
19905TIP3   OH281205   4.795   0.285   3.316 -0.2431 -0.3420  0.3014
19905TIP3    H181206   4.700   0.279   3.304 -0.1120 -0.1239 -1.0145
19905TIP3    H281207   4.809   0.368   3.361 -0.8627 -1.7512  3.3332
19906TIP3   OH281208   3.771   3.531  17.069  0.1669  0.0162 -0.2317
19906TIP3    H181209   3.709   3.592  17.029 -1.0313 -1.8794 -1.4270
19906TIP3    H281210   3.791   3.570  17.154 -1.4808  1.4491 -0.4381
19907TIP3   OH281211   2.577   5.721  10.891  0.0468 -0.2441  0.3254
19907TIP3    H181212   2.621   5.772  10.959  0.9429  0.6731 -0.8949
19907TIP3    H281213   2.494   5.768  10.876  0.8379  0.9014 -0.7464
19908TIP3   OH281214   1.956   1.000   1.067  0.1628 -0.3472  0.4701
19908TIP3    H181215   1.887   1.014   1.003  2.6041 -0.1528 -2.3692
19908TIP3    H281216   1.912   0.961   1.142 -2.8603 -0.9412 -1.4347
19909TIP3   OH281217   1.081   2.031   0.496 -0.3581  0.0027 -0.5965
19909TIP3    H181218   1.026   1.976   0.441 -2.1401  0.7052  0.4028
19909TIP3    H281219   1.080   1.989   0.582 -0.7161  0.9159 -0.1397
19910TIP3   OH281220   0.790   3.753  16.065 -0.2851  0.3378  0.2167
19910TIP3    H181221   0.864   3.767  16.124  0.0254 -1.4245  0.3102
19910TIP3    H281222   0.737   3.832  16.074  1.2335  1.3619  0.6445
19911TIP3   OH281223   0.135   4.566  12.953  0.1549 -0.6252 -0.4236
19911TIP3    H181224   0.189   4.560  12.874 -0.4620 -4.5070 -0.7484
19911TIP3    H281225   0.186   4.523  13.021 -1.2668 -1.6590  0.0361
19912TIP3   OH281226   4.996   4.778   5.955  0.3251 -0.2070  0.4040
19912TIP3    H181227   5.054   4.779   5.879  0.6999 -1.8891  0.6251
19912TIP3    H281228   4.908   4.779   5.918  0.5027  0.0115 -0.0177
19913TIP3   OH281229   3.843   0.964   0.656 -0.1735  0.1711 -0.1391
19913TIP3    H181230   3.923   0.965   0.604  0.2911  1.6758  0.5453
19913TIP3    H281231   3.781   1.016   0.607  0.7135  2.8478  1.3616
19914TIP3   OH281232   6.304   3.199  16.570 -0.1400  0.0875 -0.0789
19914TIP3    H181233   6.269   3.278  16.528  0.4271  0.6178  0.4128
19914TIP3    H281234   6.302   3.220  16.664 -0.6298 -0.7582  0.1052
19915TIP3   OH281235   3.894   3.692  14.215 -0.3108 -0.6300 -0.3031
19915TIP3    H181236   3.870   3.632  14.285  1.5760 -1.3038 -0.1880
19915TIP3    H281237   3.945   3.639  14.154  1.0650  0.7351 -0.4047
19916TIP3   OH281238   1.381   1.772  16.756 -0.2987 -0.0835  0.2423
19916TIP3    H181239   1.314   1.753  16.691 -0.1482  1.1380 -0.2903
19916TIP3    H281240   1.410   1.861  16.736  1.5112 -0.5877  0.4289
19917TIP3   OH281241   1.697   5.431  12.497 -0.0991  0.0672  0.2258
19917TIP3    H181242   1.766   5.497  12.494  0.0591 -0.0915  0.3476
19917TIP3    H281243   1.694   5.402  12.588 -0.8480  0.6144  0.3827
19918TIP3   OH281244   1.360   3.743  12.684  0.2701  0.4011 -0.5772
19918TIP3    H181245   1.282   3.689  12.672  0.8093 -0.8395  1.1431
19918TIP3    H281246   1.326   3.832  12.696 -0.9433 -0.1814  0.5618
19919TIP3   OH281247   3.263   6.245  14.678 -0.0611  0.3675 -0.2464
19919TIP3    H181248   3.319   6.191  14.733 -2.3330 -1.7011  0.2055
19919TIP3    H281249   3.324   6.297  14.626  2.3816 -2.9119 -1.0161
19920TIP3   OH281250   0.183   1.679  11.568  0.5197 -0.3753  0.4162
19920TIP3    H181251   0.170   1.770  11.539  0.7598 -0.9241 -1.5430
19920TIP3    H281252   0.232   1.638  11.497  0.6151 -2.0001  1.3730
19921TIP3   OH281253   3.479   6.701  15.663 -0.1312 -0.0440  0.2022
19921TIP3    H181254   3.539   6.667  15.597 -0.4657 -2.2136  0.9541
19921TIP3    H281255   3.533   6.710  15.742 -0.3329 -0.0674  0.3442
19922TIP3   OH281256   3.979   3.891   1.067  0.4502  0.0132 -0.4956
19922TIP3    H181257   3.932   3.910   0.986 -0.7892  1.0777  0.4386
19922TIP3    H281258   3.990   3.976   1.110 -0.5975 -0.7088  1.3421
19923TIP3   OH281259   4.767   0.650  15.476  0.1933  0.4227  0.2296
19923TIP3    H181260   4.791   0.637  15.567 -0.7304  0.9497  0.5627
19923TIP3    H281261   4.686   0.600  15.464  0.7392 -0.3192 -0.5355
19924TIP3   OH281262   2.439   6.628   3.051  0.4675 -0.2503  0.5465
19924TIP3    H181263   2.407   6.557   3.106 -1.2748 -0.5065 -0.7073
19924TIP3    H281264   2.485   6.585   2.979 -0.4956 -0.1210 -0.1575
19925TIP3   OH281265   3.149   0.549  12.064 -0.2576 -0.2342 -0.1379
19925TIP3    H181266   3.091   0.474  12.077  0.8090 -0.9381  0.8487
19925TIP3    H281267   3.147   0.566  11.970 -1.9283 -0.3200 -0.1338
19926TIP3   OH281268   2.709   2.198  16.727 -0.4185 -0.5518  0.5891
19926TIP3    H181269   2.785   2.201  16.785 -0.7057 -0.5942  0.9728
19926TIP3    H281270   2.673   2.110  16.738  0.1092 -0.9111 -0.4230
19927TIP3   OH281271   6.350   2.174   5.798 -0.4384  0.4692  0.1910
19927TIP3    H181272   6.420   2.200   5.738  0.3460  0.3091  1.0113
19927TIP3    H281273   6.272   2.170   5.743  0.2289  0.4614 -0.7861
19928TIP3   OH281274   4.349   4.205  16.292  0.2630 -0.3134 -0.6088
19928TIP3    H181275   4.442   4.231  16.295  0.9449 -2.5922  2.0169
19928TIP3    H281276   4.326   4.213  16.199  3.5163 -0.9654 -1.6297
19929TIP3   OH281277   3.008   5.771  11.684 -0.8325 -0.5213 -0.1464
19929TIP3    H181278   2.951   5.798  11.755 -1.1382 -2.5791  0.4573
19929TIP3    H281279   3.038   5.683  11.709  1.3398 -0.1590 -1.1960
19930TIP3   OH281280   0.605   1.840   2.538 -0.0811  0.6109 -0.1651
19930TIP3    H181281   0.641   1.888   2.464  0.0152  0.9725  0.1139
19930TIP3    H281282   0.670   1.849   2.607 -0.9193  1.7255  0.5179
19931TIP3   OH281283   2.568   2.303   0.221 -0.9629  0.2851  0.1821
19931TIP3    H181284   2.622   2.299   0.300  0.1378 -2.2252 -0.6002
19931TIP3    H281285   2.481   2.275   0.250 -1.5692  2.8504  1.1326
19932TIP3   OH281286   1.653   2.635   4.082  0.4404 -0.5797  0.2353
19932TIP3    H181287   1.565   2.665   4.106  0.0361 -0.6576 -1.0781
19932TIP3    H281288   1.711   2.705   4.113 -0.4331  1.3753 -2.1917
19933TIP3   OH281289   1.759   5.944   5.438  0.0164 -0.0179  0.4164
19933TIP3    H181290   1.776   5.856   5.405 -0.0229  0.0019  0.3413
19933TIP3    H281291   1.740   5.932   5.531 -0.8420 -0.1948  0.2272
19934TIP3   OH281292   2.024   6.537  11.817 -0.0348 -0.1397  0.4664
19934TIP3    H181293   1.956   6.602  11.832 -0.4262 -0.4906  0.2168
19934TIP3    H281294   1.995   6.460  11.867 -0.9124 -1.0262 -1.3177
19935TIP3   OH281295   2.819   0.286   2.593  0.3554 -0.2387 -0.6387
19935TIP3    H181296   2.866   0.267   2.674  0.6813  0.3744 -0.6769
19935TIP3    H281297   2.769   0.207   2.575 -2.4164  0.7129  1.9680
19936TIP3   OH281298   4.172   6.745   6.510 -0.3663  0.5533  0.3859
19936TIP3    H181299   4.131   6.690   6.577 -1.8729  0.6733 -0.3941
19936TIP3    H281300   4.105   6.809   6.487 -0.0145  0.3320 -1.4460
19937TIP3   OH281301   6.389   1.197   3.599  0.1036 -0.4529 -0.4104
19937TIP3    H181302   6.418   1.151   3.520  3.3337  0.6490  0.0150
19937TIP3    H281303   6.438   1.155   3.670 -1.6445 -0.4501  0.8595
19938TIP3   OH281304   2.625   0.589   3.332  0.2319  0.5299 -0.1797
19938TIP3    H181305   2.561   0.555   3.394  0.4766 -1.4547 -0.9428
19938TIP3    H281306   2.581   0.663   3.290  0.0644  1.9369  2.2915
19939TIP3   OH281307   0.890   1.097  14.639 -0.0142 -0.3488 -0.3658
19939TIP3    H181308   0.977   1.120  14.605  0.4331  2.8533  2.3833
19939TIP3    H281309   0.833   1.168  14.611  0.0858  1.7184  3.8926
19940TIP3   OH281310   1.474   3.536  10.947  0.5390  0.7511 -0.1397
19940TIP3    H181311   1.486   3.443  10.967  1.8571  1.0836  0.7947
19940TIP3    H281312   1.380   3.545  10.932 -0.0620 -0.2755  2.3317
19941TIP3   OH281313   3.585   0.303   0.990 -0.4732  0.1480 -0.3266
19941TIP3    H181314   3.621   0.303   1.079 -1.5832 -0.5736  0.1420
19941TIP3    H281315   3.517   0.370   0.992 -0.8386 -0.2110 -0.4759
19942TIP3   OH281316   1.192   2.861  13.554 -0.3144  0.6960  0.2638
19942TIP3    H181317   1.115   2.911  13.582 -0.3321  1.4110 -0.9887
19942TIP3    H281318   1.267   2.911  13.587 -0.3665  0.3452  0.9257
19943TIP3   OH281319   0.409   2.773  14.275  0.8752  0.3291 -0.1036
19943TIP3    H181320   0.467   2.815  14.339  2.1253  0.6937 -1.4213
19943TIP3    H281321   0.468   2.732  14.212 -0.3254 -0.5592 -0.6818
19944TIP3   OH281322   5.694   0.797  16.200  0.1045 -0.0537 -0.3303
19944TIP3    H181323   5.780   0.839  16.203  0.6892 -1.2068 -0.3769
19944TIP3    H281324   5.656   0.826  16.117  0.2931  0.7431 -0.1464
19945TIP3   OH281325   4.122   6.150  17.038  0.0020 -0.2854 -0.0733
19945TIP3    H181326   4.103   6.134  16.946 -1.4599  2.4632 -0.3371
19945TIP3    H281327   4.058   6.097  17.086 -0.9711  0.3018 -0.7105
19946TIP3   OH281328   0.828   4.798  17.024 -0.1935 -0.1624 -0.1255
19946TIP3    H181329   0.867   4.718  16.990  1.5762  0.8080 -0.5100
19946TIP3    H281330   0.751   4.813  16.969  0.3957 -0.7277 -1.1183
19947TIP3   OH281331   1.120   6.060   3.120  0.3527 -0.6785  0.2488
19947TIP3    H181332   1.150   6.017   3.040 -1.2142  0.8529 -1.2455
19947TIP3    H281333   1.119   6.153   3.098 -0.0455 -0.2109  2.0891
19948TIP3   OH281334   1.151   0.789  11.971 -0.0454  0.0156  0.4383
19948TIP3    H181335   1.123   0.851  11.903 -0.8270 -0.4116  0.3557
19948TIP3    H281336   1.228   0.830  12.010  0.0347  0.5708 -0.2781
19949TIP3   OH281337   0.203   3.845   3.692  0.5360 -0.4115 -0.4014
19949TIP3    H181338   0.108   3.838   3.685  0.0593  2.1403  1.6957
19949TIP3    H281339   0.228   3.902   3.619 -0.0994  1.5171  0.7839
19950TIP3   OH281340   2.993   2.313   5.048  0.1334 -0.1041 -0.3458
19950TIP3    H181341   3.017   2.226   5.017 -1.2775 -0.4181 -0.6112
19950TIP3    H281342   2.977   2.364   4.969  2.5922  0.9312 -0.2493
19951TIP3   OH281343   3.409   3.450  16.714  0.5496 -0.2308  0.6468
19951TIP3    H181344   3.489   3.416  16.673  1.2507  0.3968  1.4544
19951TIP3    H281345   3.384   3.381  16.776  0.0669 -0.7244 -0.0744
19952TIP3   OH281346   5.280   1.148  11.240  0.1012  0.1922 -0.0358
19952TIP3    H181347   5.188   1.134  11.217  0.0971 -1.8301  1.0071
19952TIP3    H281348   5.329   1.096  11.176  0.2575 -2.1295  1.8011
19953TIP3   OH281349   4.745   6.407   5.377  0.2842 -0.0473  0.3542
19953TIP3    H181350   4.783   6.492   5.356  2.1239 -0.9221 -0.0315
19953TIP3    H281351   4.806   6.367   5.437  0.0812 -1.5836 -0.4106
19954TIP3   OH281352   1.792   4.999   0.005  0.2051  0.0986  0.1364
19954TIP3    H181353   1.710   4.996   0.055 -0.3856  1.8656 -0.6578
19954TIP3    H281354   1.851   4.941   0.054 -0.9775  0.1347  1.7015
19955TIP3   OH281355   2.365   0.835   0.234  0.2254 -0.0574  0.3037
19955TIP3    H181356   2.403   0.866   0.316  1.9573  0.4649 -0.6343
19955TIP3    H281357   2.295   0.896   0.214 -1.4423 -1.2147  2.2451
19956TIP3   OH281358   6.643   2.698   4.112 -0.1022 -0.0892  0.3518
19956TIP3    H181359   6.587   2.695   4.035 -0.6598  0.4413  0.7247
19956TIP3    H281360   6.621   2.619   4.162 -0.3310 -0.0116  0.3724
19957TIP3   OH281361   1.767   2.852   0.170  0.5167  0.3576 -0.4032
19957TIP3    H181362   1.834   2.912   0.137 -0.2917 -0.2925 -3.6155
19957TIP3    H281363   1.749   2.794   0.096 -4.0121  0.8730  0.0320
19958TIP3   OH281364   2.708   2.326  13.881  0.7211 -0.2790  0.1380
19958TIP3    H181365   2.659   2.365  13.808 -0.2020  1.2348  1.4989
19958TIP3    H281366   2.775   2.392  13.903 -0.5737  0.4452  2.1921
19959TIP3   OH281367   4.575   0.348  11.664  0.5729 -0.1232  0.6368
19959TIP3    H181368   4.573   0.443  11.678  0.8102  0.0518 -0.4393
19959TIP3    H281369   4.537   0.311  11.744 -1.0672  0.9598  0.4097
19960TIP3   OH281370   6.638   4.392  15.863  0.2055  0.4890  0.0670
19960TIP3    H181371   6.593   4.307  15.863  0.4110  0.3688 -0.5831
19960TIP3    H281372   6.656   4.409  15.770 -0.6487  1.6758  0.0973
19961TIP3   OH281373   6.612   5.420   3.569  0.2748 -0.2084  0.0728
19961TIP3    H181374   6.572   5.430   3.482 -0.3764 -0.6268  0.3153
19961TIP3    H281375   6.706   5.418   3.552  0.3128  2.1926 -0.3964
19962TIP3   OH281376   0.985   0.589   1.081 -0.0269  0.2051 -0.0173
19962TIP3    H181377   0.979   0.620   1.172 -1.4037  0.2773 -0.1111
19962TIP3    H281378   0.983   0.494   1.088 -0.3857  0.2130  0.0246
19963TIP3   OH281379   6.436   6.672   1.985  0.2435 -0.1889  0.7163
19963TIP3    H181380   6.383   6.670   2.064 -1.3760 -0.5220 -0.3186
19963TIP3    H281381   6.373   6.659   1.914  1.5924  0.3992 -0.6509
19964TIP3   OH281382   4.779   0.938  15.376 -0.6198  0.2947 -0.7272
19964TIP3    H181383   4.773   0.912  15.467 -0.0839  0.5342 -0.6230
19964TIP3    H281384   4.806   0.859  15.329  1.4300  0.7339 -0.3549
19965TIP3   OH281385   6.229   2.369  15.849  0.0459 -0.0394  0.5115
19965TIP3    H181386   6.270   2.306  15.791 -0.8601 -0.3447  0.1893
19965TIP3    H281387   6.187   2.315  15.917  1.8127  0.3217  1.9934
19966TIP3   OH281388   1.056   1.658   3.728 -0.4214  0.0816 -0.2615
19966TIP3    H181389   1.094   1.627   3.810 -0.5251 -1.0905 -0.6498
19966TIP3    H281390   1.043   1.580   3.675 -1.0808  0.7328 -1.1063
19967TIP3   OH281391   6.380   1.532   4.441  0.2210  0.1115 -0.4580
19967TIP3    H181392   6.342   1.586   4.509 -0.6015 -0.5853 -0.3505
19967TIP3    H281393   6.306   1.504   4.387  0.7217 -0.2572 -0.9733
19968TIP3   OH281394   2.428   0.028   3.174 -0.5837  0.3910  0.3692
19968TIP3    H181395   2.457  -0.061   3.150 -0.3759  0.7109 -0.6092
19968TIP3    H281396   2.504   0.066   3.217 -0.8601 -0.0890  1.3112
19969TIP3   OH281397   3.716   6.165  17.025 -0.0718  0.0754  0.1909
19969TIP3    H181398   3.766   6.108  17.083  0.7949 -0.2871 -0.8795
19969TIP3    H281399   3.762   6.249  17.028 -0.3837  0.2406  0.4839
19970TIP3   OH281400   4.164   1.997   0.184  0.1783 -0.0630  0.9068
19970TIP3    H181401   4.116   1.959   0.110  0.2898  0.1078  0.7451
19970TIP3    H281402   4.182   2.087   0.156  0.9019 -0.2322  0.8156
19971TIP3   OH281403   2.257   5.637   5.525  0.2016 -0.0446 -0.1074
19971TIP3    H181404   2.344   5.615   5.558  0.2261  0.6968  0.3399
19971TIP3    H281405   2.204   5.559   5.544  0.3960  0.0827  1.0274
19972TIP3   OH281406   2.565   6.355  12.708  0.5069  0.1758 -0.2938
19972TIP3    H181407   2.615   6.434  12.687  0.3387 -0.1075 -1.9155
19972TIP3    H281408   2.619   6.308  12.771  0.1850  2.0072  1.4449
19973TIP3   OH281409   3.598   0.273  13.974 -0.0040 -0.2748 -0.6875
19973TIP3    H181410   3.591   0.344  13.910  1.2616 -0.1145 -0.6749
19973TIP3    H281411   3.680   0.290  14.020 -0.9865 -0.2503  1.1665
19974TIP3   OH281412   2.903   5.672  10.750  0.4956  0.7194  0.4080
19974TIP3    H181413   2.966   5.676  10.822 -0.0847 -0.9480  1.0744
19974TIP3    H281414   2.887   5.763  10.727  2.2267  1.2203  1.0281
19975TIP3   OH281415   5.148   2.716   0.368  0.4832  0.1752  0.3093
19975TIP3    H181416   5.142   2.782   0.437  0.4997 -0.1289  0.6044
19975TIP3    H281417   5.126   2.634   0.411  1.5800 -0.1830  0.2194
19976TIP3   OH281418   1.406   3.844  13.610  0.6476 -0.8649  0.7352
19976TIP3    H181419   1.461   3.766  13.617  0.3115 -1.1294  0.4704
19976TIP3    H281420   1.321   3.811  13.581  0.7360 -0.3125 -0.1993
19977TIP3   OH281421   0.011   5.748  15.365  0.0807  0.3703 -0.0388
19977TIP3    H181422  -0.054   5.710  15.424  0.4773 -0.7025 -0.2714
19977TIP3    H281423   0.076   5.787  15.423  0.3266 -0.4398  0.2456
19978TIP3   OH281424   0.717   3.346  15.941  0.1849 -0.3736 -0.1930
19978TIP3    H181425   0.804   3.308  15.954  0.6119  0.0834 -1.5630
19978TIP3    H281426   0.724   3.394  15.859 -0.5968  1.9800  1.0283
19979TIP3   OH281427   4.970   4.111   6.232  0.1729  0.1436  0.0572
19979TIP3    H181428   5.024   4.190   6.232 -0.3963  0.5650  1.7509
19979TIP3    H281429   4.886   4.140   6.267 -0.2064 -1.1233  0.2197
19980TIP3   OH281430   4.294   2.936  11.426 -0.5585  0.4650  0.0213
19980TIP3    H181431   4.318   2.994  11.499  0.8612 -1.1823  0.9453
19980TIP3    H281432   4.327   2.981  11.348 -0.7243  1.5353  0.5365
19981TIP3   OH281433   6.322   4.620  15.336  0.2344 -0.4404  0.0668
19981TIP3    H181434   6.313   4.650  15.245 -0.4295 -0.8292 -0.0049
19981TIP3    H281435   6.265   4.543  15.341 -0.1950 -0.0807  0.9641
19982TIP3   OH281436   4.755   1.112   5.244  0.1230 -0.1911  0.6032
19982TIP3    H181437   4.689   1.179   5.261 -0.6954 -0.3881 -1.4749
19982TIP3    H281438   4.758   1.059   5.324 -1.0787  0.7715  1.3120
19983TIP3   OH281439   0.906   1.072  16.469 -1.1267 -0.1334 -0.2525
19983TIP3    H181440   0.909   1.147  16.528 -1.7853  0.4835 -0.9866
19983TIP3    H281441   0.927   0.997  16.525 -1.2137  0.5024  0.6528
19984TIP3   OH281442   1.808   3.285  10.943  0.2014 -0.2127  0.4216
19984TIP3    H181443   1.804   3.380  10.953  1.6624  0.1213 -1.5344
19984TIP3    H281444   1.724   3.262  10.902 -0.1975  0.2134  0.9898
19985TIP3   OH281445   6.654   5.622   0.857  0.0612 -0.1944 -0.4296
19985TIP3    H181446   6.571   5.575   0.868  0.0986 -0.4890 -1.2660
19985TIP3    H281447   6.628   5.711   0.834 -0.0155  0.4614  1.9328
19986TIP3   OH281448   0.237   3.092  14.010  0.4533  0.5665  0.2267
19986TIP3    H181449   0.195   3.129  13.933  1.2073  0.6433 -0.1586
19986TIP3    H281450   0.165   3.058  14.063 -0.3329  2.8816  0.7829
19987TIP3   OH281451   4.959   0.576   3.656  0.5965 -0.0415 -0.2325
19987TIP3    H181452   5.014   0.508   3.616  0.9025  0.4144 -0.5974
19987TIP3    H281453   4.874   0.533   3.669  0.5458 -0.2658 -1.2088
19988TIP3   OH281454   5.576   1.472   5.895  0.4181 -0.3859  0.1708
19988TIP3    H181455   5.586   1.415   5.819  0.1266 -0.1137 -0.0755
19988TIP3    H281456   5.648   1.535   5.887 -0.2750  0.3464 -0.5129
19989TIP3   OH281457   4.650   0.232  14.489  0.2725 -0.2399 -0.0119
19989TIP3    H181458   4.620   0.281  14.565 -0.0421 -2.8121  1.6468
19989TIP3    H281459   4.701   0.294  14.438 -0.7370  1.9595  1.5230
19990TIP3   OH281460   4.828   4.005   0.222 -0.4978  0.2900  0.3709
19990TIP3    H181461   4.753   3.976   0.170  0.4909 -0.1199 -0.9042
19990TIP3    H281462   4.829   4.101   0.211 -2.1075  0.5760  2.2507
19991TIP3   OH281463   2.050   2.798  13.898  0.0705 -0.2703 -0.4624
19991TIP3    H181464   2.092   2.852  13.964 -0.5978  0.4497 -0.6164
19991TIP3    H281465   1.957   2.818  13.906 -0.3936 -2.4141  0.4149
19992TIP3   OH281466   4.514   3.990  16.426  0.3535 -0.2104  0.1261
19992TIP3    H181467   4.577   4.057  16.402  0.1095  1.0911  2.7686
19992TIP3    H281468   4.430   4.022  16.392  0.1411  1.1959  1.8494
19993TIP3   OH281469   5.740   6.424   4.393  0.1217  0.6940 -0.4335
19993TIP3    H181470   5.741   6.428   4.298  1.9176  2.3220 -0.4030
19993TIP3    H281471   5.647   6.424   4.416 -0.3403  2.0138 -2.1261
19994TIP3   OH281472   0.228   3.815   1.160 -0.6923 -0.1866  0.6112
19994TIP3    H181473   0.167   3.746   1.135  0.3685 -0.7447 -0.5768
19994TIP3    H281474   0.225   3.878   1.087 -1.1912  0.7119  1.3937
19995TIP3   OH281475   1.170   2.792   0.814  0.2343  0.4112 -0.3099
19995TIP3    H181476   1.121   2.838   0.746  0.1511 -0.6974 -1.0301
19995TIP3    H281477   1.262   2.810   0.793  0.2102  0.0297 -0.7569
19996TIP3   OH281478   1.287   2.519  11.260  0.7643  0.3256 -0.0495
19996TIP3    H181479   1.310   2.434  11.297  2.7068 -0.1341 -2.1156
19996TIP3    H281480   1.370   2.568  11.258 -0.1054  1.8837  0.0769
19997TIP3   OH281481   4.505   2.103   3.715  0.3825 -0.0678 -0.2775
19997TIP3    H181482   4.470   2.177   3.665  1.6630 -0.3401 -1.6686
19997TIP3    H281483   4.495   2.129   3.806  0.3842  1.6514 -0.7270
19998TIP3   OH281484   6.487   0.669  13.336  0.5820  0.5887 -0.0446
19998TIP3    H181485   6.456   0.675  13.245  1.5796 -0.3759 -0.4773
19998TIP3    H281486   6.451   0.747  13.379  1.0361  1.6905 -1.5593
19999TIP3   OH281487   1.679   1.781   0.611  0.5179 -0.2309  0.4209
19999TIP3    H181488   1.608   1.722   0.584 -0.8807  1.4145  0.3136
19999TIP3    H281489   1.720   1.808   0.529  0.1204  0.1552  0.3425
20000TIP3   OH281490   6.543   2.582  12.917  0.2251  0.0776  0.2136
20000TIP3    H181491   6.531   2.501  12.867  0.1980 -0.0288  0.3900
20000TIP3    H281492   6.469   2.637  12.892  0.1261 -0.0365  0.2514
20001TIP3   OH281493   3.669   5.244   2.852  0.2657  0.5303  0.5065
20001TIP3    H181494   3.596   5.197   2.893  0.2759  2.7990  3.4914
20001TIP3    H281495   3.728   5.175   2.824 -2.1312 -1.3409 -0.3296
20002TIP3   OH281496   5.762   3.624  14.043  0.3172  0.2971  0.0095
20002TIP3    H181497   5.778   3.615  14.137  0.7443 -1.3232 -0.1820
20002TIP3    H281498   5.817   3.557  14.003 -0.1267  0.7246 -1.3789
20003TIP3   OH281499   6.063   6.365   4.829  0.2214  0.5710  0.1999
20003TIP3    H181500   6.155   6.387   4.812 -0.3237  1.7192 -1.6131
20003TIP3    H281501   6.014   6.436   4.788 -1.5873 -1.8969 -2.2987
20004TIP3   OH281502   2.375   3.772   5.977  0.3153 -0.1537 -0.2817
20004TIP3    H181503   2.388   3.740   6.066  0.2351  1.1827  0.2298
20004TIP3    H281504   2.280   3.788   5.970  0.3055 -0.3392 -0.6490
20005TIP3   OH281505   3.379   6.737   3.953 -0.0908 -0.0814 -0.3128
20005TIP3    H181506   3.405   6.677   4.024 -0.9952 -2.4229 -1.8355
20005TIP3    H281507   3.431   6.708   3.878 -1.0671  0.5947 -1.2686
20006TIP3   OH281508   1.969   3.811  11.012 -0.4275  0.7078  0.6134
20006TIP3    H181509   1.890   3.835  10.964  0.0689 -0.3255 -0.7787
20006TIP3    H281510   2.041   3.834  10.952  0.1739 -1.4936  0.4334
20007TIP3   OH281511   0.222   2.109  13.185  0.3739 -0.0112  0.1653
20007TIP3    H181512   0.268   2.076  13.108  1.7572 -0.4812  1.1423
20007TIP3    H281513   0.246   2.048  13.255  1.1695  1.7621  1.5168
20008TIP3   OH281514   6.308   2.379   3.732 -0.4314 -0.5607  0.0056
20008TIP3    H181515   6.307   2.355   3.640 -0.3228  0.5638 -0.2988
20008TIP3    H281516   6.382   2.438   3.741  0.6193 -1.9808  1.1796
20009TIP3   OH281517   0.202   1.245  13.390 -0.0887  0.1964  0.2090
20009TIP3    H181518   0.109   1.269  13.397  0.2813  1.7234  0.2100
20009TIP3    H281519   0.249   1.327  13.404  1.3056 -0.6933  0.9739
20010TIP3   OH281520   3.335   0.482  13.692  0.3760  0.1925 -0.5671
20010TIP3    H181521   3.375   0.567  13.710 -0.8039  0.8265 -0.8438
20010TIP3    H281522   3.336   0.437  13.777  0.6695  0.6256 -0.3347
20011TIP3   OH281523   4.775   2.529  12.652  0.0254  0.1037 -0.5984
20011TIP3    H181524   4.766   2.470  12.577  4.0076 -1.9518  0.2770
20011TIP3    H281525   4.705   2.504  12.712 -0.3740 -1.4422 -1.6700
20012TIP3   OH281526   0.135   5.290   6.765 -0.2926 -0.0799 -0.0684
20012TIP3    H181527   0.173   5.299   6.677 -0.3988  0.4284 -0.0687
20012TIP3    H281528   0.065   5.356   6.767 -1.7739 -1.5583 -0.3716
20013TIP3   OH281529   1.980   1.477   0.926 -0.2838 -0.2601  0.1135
20013TIP3    H181530   2.039   1.468   0.852  0.0119 -0.9104  0.4204
20013TIP3    H281531   1.935   1.561   0.911  1.9559  1.1281  0.7837
20014TIP3   OH281532   5.636   0.116   3.711 -0.2600 -0.3047 -0.4547
20014TIP3    H181533   5.707   0.099   3.774 -0.0354 -2.7681 -1.2528
20014TIP3    H281534   5.626   0.033   3.664 -1.3566  1.0256 -2.7395
20015TIP3   OH281535   5.770   3.273  14.630  0.0707 -0.1534  0.5408
20015TIP3    H181536   5.750   3.366  14.638 -0.3813 -0.1697 -0.3238
20015TIP3    H281537   5.698   3.237  14.579  0.6581 -0.8230  0.1615
20016TIP3   OH281538   5.418   5.929  15.015  0.6670 -0.4911 -0.4552
20016TIP3    H181539   5.499   5.882  15.033  1.3344  0.4956 -0.7810
20016TIP3    H281540   5.447   6.017  14.989 -0.5434  0.2416  0.5535
20017TIP3   OH281541   3.419   4.377  12.106  0.3646 -0.0445  0.2152
20017TIP3    H181542   3.455   4.288  12.102 -2.1151 -1.1710  1.2267
20017TIP3    H281543   3.338   4.372  12.055 -0.3818  1.3432  1.2177
20018TIP3   OH281544   0.355   1.013   0.203  0.1609  0.5659 -0.1281
20018TIP3    H181545   0.389   1.074   0.137 -0.8092  1.9014  0.5533
20018TIP3    H281546   0.421   1.014   0.272  0.0325  1.0635 -0.0067
20019TIP3   OH281547   6.634   2.543   3.165 -0.5196  0.0586 -0.5397
20019TIP3    H181548   6.714   2.489   3.168  0.4731  1.3777 -1.9533
20019TIP3    H281549   6.666   2.633   3.168 -1.9618  0.6145 -1.3075
20020TIP3   OH281550   0.345   1.690  16.703 -0.5108 -0.1287 -0.4301
20020TIP3    H181551   0.275   1.626  16.693  0.3494 -1.4741  1.4859
20020TIP3    H281552   0.424   1.644  16.672 -0.1770  0.6979 -0.8372
20021TIP3   OH281553   1.041   3.839  13.846 -0.4520 -0.5073 -0.0267
20021TIP3    H181554   0.946   3.844  13.858 -0.2600  0.5424  1.1574
20021TIP3    H281555   1.058   3.896  13.771 -0.6347  0.2775  0.5150
20022TIP3   OH281556   0.690   3.448   0.372 -0.1035  0.4809  0.7723
20022TIP3    H181557   0.748   3.456   0.447 -0.9691  0.2582  1.4875
20022TIP3    H281558   0.665   3.538   0.350  0.1604  0.5465  0.7479
20023TIP3   OH281559   5.794   5.969   4.089 -0.3994  0.2173  0.3392
20023TIP3    H181560   5.835   6.053   4.071 -0.6184  0.4112  0.7358
20023TIP3    H281561   5.702   5.982   4.065 -0.2027 -0.2769 -0.7469
20024TIP3   OH281562   2.266   1.116   2.903  0.2116  0.5166 -0.0021
20024TIP3    H181563   2.196   1.058   2.931  1.2434 -0.1519  1.3074
20024TIP3    H281564   2.333   1.108   2.971  1.7575  0.7755 -1.4145
20025TIP3   OH281565   1.527   3.933  16.230  0.7128 -0.0560 -0.3414
20025TIP3    H181566   1.577   3.864  16.274 -0.1365 -0.7637 -0.4543
20025TIP3    H281567   1.569   3.941  16.144  2.9974  2.0175  0.8575
20026TIP3   OH281568   1.853   0.484  14.451  0.4937 -0.2790 -0.4548
20026TIP3    H181569   1.818   0.540  14.381 -0.6799 -0.4529 -0.0281
20026TIP3    H281570   1.882   0.546  14.518  0.1328 -0.1548 -0.4118
20027TIP3   OH281571   6.526   0.466  15.536  0.2254  0.0170 -0.1459
20027TIP3    H181572   6.488   0.500  15.455  1.2261 -1.2097 -1.1707
20027TIP3    H281573   6.535   0.543  15.592  1.0577  1.2051 -1.8359
20028TIP3   OH281574   6.170   5.330  15.961 -0.0750 -0.4259 -0.0232
20028TIP3    H181575   6.230   5.319  15.888 -0.9785  0.9308 -1.0120
20028TIP3    H281576   6.111   5.255  15.956  0.6389 -1.0027  0.0929
20029TIP3   OH281577   2.873   2.102   4.495 -0.0205 -0.1215  0.2172
20029TIP3    H181578   2.908   2.162   4.428  0.3830  1.3053  1.6453
20029TIP3    H281579   2.868   2.155   4.574 -0.9574 -1.6359  1.2189
20030TIP3   OH281580   3.702   0.750   4.552 -0.6058 -0.3123 -0.2948
20030TIP3    H181581   3.622   0.738   4.501 -0.9435  0.5938 -0.0055
20030TIP3    H281582   3.686   0.830   4.602  0.1429 -0.5973  0.4178
20031TIP3   OH281583   5.385   1.593   5.244  0.4091  0.5342 -0.6454
20031TIP3    H181584   5.310   1.648   5.223 -0.5123 -1.3265 -2.7551
20031TIP3    H281585   5.347   1.518   5.291  1.7418  1.9174  2.9958
20032TIP3   OH281586   0.598   0.688   1.409 -0.3491  0.2555  0.3809
20032TIP3    H181587   0.583   0.613   1.467  2.4510  0.4097  1.4179
20032TIP3    H281588   0.614   0.762   1.467  0.7068  0.8164 -0.5739
20033TIP3   OH281589   3.055   2.674   4.309  0.2288 -0.0221  0.2964
20033TIP3    H181590   2.992   2.605   4.333  0.9661 -0.1008  2.2022
20033TIP3    H281591   3.038   2.744   4.372  0.7376  0.7691 -0.4342
20034TIP3   OH281592   4.615   0.901  16.229  0.5362  0.3201 -0.1032
20034TIP3    H181593   4.650   0.975  16.278  0.3040 -0.4872  1.3397
20034TIP3    H281594   4.690   0.842  16.216  0.0620 -0.8564  1.9621
20035TIP3   OH281595   6.073   2.022  12.652  0.5734  0.0315 -0.3801
20035TIP3    H181596   6.165   2.025  12.626  0.2618  0.3401 -1.5015
20035TIP3    H281597   6.069   1.956  12.721  1.5568 -0.3067 -0.6372
20036TIP3   OH281598   0.265   6.451   4.660  0.5959 -0.0509  0.5762
20036TIP3    H181599   0.242   6.387   4.592 -2.3423 -0.0469  1.4332
20036TIP3    H281600   0.322   6.513   4.615 -0.3141 -0.6830 -1.6018
20037TIP3   OH281601   3.038   1.166   1.165  0.0462 -0.3214 -0.1268
20037TIP3    H181602   2.997   1.197   1.246  1.0028 -0.7832  0.5626
20037TIP3    H281603   2.965   1.145   1.107 -0.6501  0.2482  0.5308
20038TIP3   OH281604   5.567   1.161   5.249 -0.3587  0.5997 -0.2226
20038TIP3    H181605   5.617   1.149   5.168  0.9626  0.6900  0.5550
20038TIP3    H281606   5.587   1.083   5.301 -2.3425 -0.1856 -0.5077
20039TIP3   OH281607   4.409   0.181  14.010  0.0604  0.1335 -0.2868
20039TIP3    H181608   4.499   0.170  13.981 -0.4944 -0.6172 -1.8437
20039TIP3    H281609   4.414   0.245  14.081  1.6651  1.0716 -1.1895
20040TIP3   OH281610   1.155   6.523   6.109 -0.1817 -0.0992 -0.0357
20040TIP3    H181611   1.073   6.570   6.092 -1.1348 -1.3702  0.8566
20040TIP3    H281612   1.169   6.531   6.203  0.2463 -0.6334 -0.0458
20041TIP3   OH281613   1.944   5.487  16.941  0.0515 -0.8743 -0.4985
20041TIP3    H181614   1.883   5.555  16.968 -1.6956 -2.1935 -1.0009
20041TIP3    H281615   1.977   5.449  17.022 -0.1617 -0.4685 -0.2224
20042TIP3   OH281616   4.949   6.020  12.955 -1.0112 -0.5177  0.2540
20042TIP3    H181617   5.023   6.080  12.945 -0.8808 -0.4300  1.5165
20042TIP3    H281618   4.959   5.957  12.884 -1.4907  1.2753 -1.4834
20043TIP3   OH281619   0.328   6.607   1.317 -0.2210 -0.2626  0.2576
20043TIP3    H181620   0.412   6.634   1.280  0.1853 -1.4487  0.2674
20043TIP3    H281621   0.320   6.658   1.397  0.6955 -0.4315  0.4752
20044TIP3   OH281622   4.360   1.325  16.039 -0.7382  0.0590 -0.6292
20044TIP3    H181623   4.383   1.278  16.119 -0.2531  0.1841 -0.6914
20044TIP3    H281624   4.434   1.311  15.980 -0.5067  1.0230 -0.5938
20045TIP3   OH281625   5.424   3.078  16.774 -0.0646  0.1105 -0.0572
20045TIP3    H181626   5.513   3.092  16.807  0.0978  0.9646 -0.8314
20045TIP3    H281627   5.380   3.163  16.786 -1.1872 -0.6338  1.4860
20046TIP3   OH281628   2.578   1.556  15.935  0.0754 -0.3072  0.3165
20046TIP3    H181629   2.578   1.491  16.005 -0.1345 -1.4791 -0.7251
20046TIP3    H281630   2.487   1.585  15.929 -0.6208 -2.5869 -1.5286
20047TIP3   OH281631   1.669   3.778   3.561 -0.1827  0.3480  0.6388
20047TIP3    H181632   1.677   3.792   3.655 -2.3329 -0.5724  1.0152
20047TIP3    H281633   1.663   3.683   3.551  0.2054  0.4183 -0.4617
20048TIP3   OH281634   1.571   4.570   6.765 -0.1812  0.7419 -0.4083
20048TIP3    H181635   1.502   4.527   6.816 -0.9487 -0.4190 -2.3262
20048TIP3    H281636   1.552   4.663   6.773 -1.9096  0.4556 -0.7523
20049TIP3   OH281637   6.561   5.216   1.635  0.4908 -0.4833 -0.6523
20049TIP3    H181638   6.580   5.155   1.707  0.8332 -1.3093 -1.4275
20049TIP3    H281639   6.647   5.244   1.604  0.3456 -0.1830 -0.7902
20050TIP3   OH281640   3.397   5.684   1.826 -0.1828  0.2144  0.0374
20050TIP3    H181641   3.449   5.658   1.902 -0.5978  0.2332  0.3316
20050TIP3    H281642   3.365   5.772   1.848 -0.8701 -0.0543  0.1444
20051TIP3   OH281643   1.000   6.210   5.731  0.1894 -0.3055 -0.3901
20051TIP3    H181644   1.006   6.118   5.706  0.0439 -0.0694 -1.3414
20051TIP3    H281645   0.907   6.225   5.745  0.3049 -0.5228  0.6760
20052TIP3   OH281646   3.189   4.626  12.779 -0.8123 -0.2554  0.1414
20052TIP3    H181647   3.232   4.614  12.864 -0.7108 -0.4672  0.0595
20052TIP3    H281648   3.165   4.719  12.778  0.7858  0.1842 -0.3471
20053TIP3   OH281649   5.373   6.501   6.836  0.0972 -0.9434 -0.6716
20053TIP3    H181650   5.458   6.523   6.874 -0.6607 -1.6005  1.5863
20053TIP3    H281651   5.351   6.577   6.782 -0.8709  2.5880  4.0701
20054TIP3   OH281652   2.417   0.518   2.208 -0.5959 -0.3307 -0.2212
20054TIP3    H181653   2.327   0.541   2.227 -0.7175 -0.9814  0.0212
20054TIP3    H281654   2.467   0.598   2.224 -0.9050 -0.4266  1.2784
20055TIP3   OH281655   3.187   5.103   1.236  0.2460  0.1750  0.0949
20055TIP3    H181656   3.283   5.107   1.242  0.1966  1.2162  0.4044
20055TIP3    H281657   3.162   5.032   1.295  0.9181 -1.1749 -1.1709
20056TIP3   OH281658   2.744   4.233   3.097 -0.0962 -0.1656  0.0808
20056TIP3    H181659   2.799   4.290   3.043 -2.0636  1.4685 -0.3198
20056TIP3    H281660   2.805   4.194   3.160  1.4037  2.3643  0.3492
20057TIP3   OH281661   4.172   4.152   5.632 -0.0142 -0.0472 -0.7435
20057TIP3    H181662   4.255   4.145   5.678 -0.6826 -1.4493  0.3415
20057TIP3    H281663   4.123   4.219   5.680  1.4012  2.7544 -2.9792
20058TIP3   OH281664   4.981   3.035   2.263  0.0969 -0.1515  0.3611
20058TIP3    H181665   4.963   3.067   2.351 -0.5945  2.1924 -0.5710
20058TIP3    H281666   5.068   3.069   2.242 -0.4044  0.6633 -0.4442
20059TIP3   OH281667   0.410   5.296   6.874  0.5793 -0.2759  0.0785
20059TIP3    H181668   0.424   5.230   6.942  1.8196  0.6777  0.7904
20059TIP3    H281669   0.323   5.276   6.839  1.6506 -3.4928 -1.1098
20060TIP3   OH281670   2.519   3.439  11.768  0.1244 -0.1385 -0.6221
20060TIP3    H181671   2.470   3.495  11.828  1.8602  0.2046  0.5435
20060TIP3    H281672   2.464   3.434  11.689 -2.3136 -0.7497  1.0088
20061TIP3   OH281673   3.630   6.830  13.894 -0.0052 -0.6194 -0.3531
20061TIP3    H181674   3.633   6.858  13.802  0.1001  1.4742  0.2314
20061TIP3    H281675   3.615   6.911  13.943  1.1697 -1.5084  1.5849
20062TIP3   OH281676   0.426   1.087  15.109 -0.4174 -0.1372 -0.3528
20062TIP3    H181677   0.444   1.180  15.125  1.0113 -0.6457  1.2637
20062TIP3    H281678   0.336   1.086  15.076 -1.2487  1.6561  1.6225
20063TIP3   OH281679   0.083   3.855   0.604  0.2934  0.0550 -0.5343
20063TIP3    H181680   0.036   3.782   0.645 -0.0367  0.2439 -0.5754
20063TIP3    H281681   0.014   3.909   0.566  0.5834  0.0399 -1.0799
20064TIP3   OH281682   3.618   1.103  12.392 -0.5275 -0.7322 -0.1490
20064TIP3    H181683   3.681   1.051  12.341 -2.0906 -0.7088 -2.2406
20064TIP3    H281684   3.546   1.042  12.409 -0.5628 -0.3780  1.0308
20065TIP3   OH281685   5.484   5.608  14.998  0.2874 -0.6025  0.3696
20065TIP3    H181686   5.553   5.660  15.039 -0.2823  0.5491 -0.0874
20065TIP3    H281687   5.414   5.605  15.063 -0.3996  0.7664 -0.2641
20066TIP3   OH281688   6.110   5.604  16.809 -0.8621 -0.1634 -0.3827
20066TIP3    H181689   6.192   5.568  16.843 -0.4419  1.5857  0.5112
20066TIP3    H281690   6.136   5.678  16.755 -1.8857  0.8983  0.5322
20067TIP3   OH281691   1.258   0.886   3.789  0.2661  0.4499 -0.1577
20067TIP3    H181692   1.326   0.825   3.820 -0.6435  0.1722  1.4382
20067TIP3    H281693   1.188   0.877   3.854 -2.4160 -1.1219 -2.9893
20068TIP3   OH281694   4.482   6.232   6.512  0.3241 -0.0761 -0.2650
20068TIP3    H181695   4.461   6.289   6.586  0.6005 -0.2734 -0.0353
20068TIP3    H281696   4.402   6.180   6.498 -0.1323  0.7438 -0.8295
20069TIP3   OH281697   6.464   4.604   4.909 -0.5169  0.4087 -0.0512
20069TIP3    H181698   6.494   4.685   4.951  0.7562  0.0527 -0.2317
20069TIP3    H281699   6.396   4.570   4.967 -1.9580  2.2201 -0.5833
20070TIP3   OH281700   2.194   5.962   3.653 -0.5201  0.2356 -0.2503
20070TIP3    H181701   2.220   6.053   3.641 -1.9512  0.8592  1.1021
20070TIP3    H281702   2.268   5.921   3.697 -1.0018  1.5040  1.8550
20071TIP3   OH281703   3.510   5.227   5.302 -0.6536  0.4614  0.9552
20071TIP3    H181704   3.501   5.135   5.328  0.5661 -0.4969 -1.6434
20071TIP3    H281705   3.583   5.260   5.355 -1.0812 -0.0474  1.8831
20072TIP3   OH281706   0.433   5.032   3.384 -0.5464  0.6362 -0.2354
20072TIP3    H181707   0.475   5.107   3.341 -3.4655  1.3942 -2.0164
20072TIP3    H281708   0.484   4.957   3.354  2.4306  1.7596  1.5558
20073TIP3   OH281709   3.382   1.922   5.936  0.0842  0.4582 -0.7454
20073TIP3    H181710   3.359   1.848   5.992 -0.8381 -0.1264 -1.8423
20073TIP3    H281711   3.419   1.987   5.995 -0.8619 -0.1292  0.5349
20074TIP3   OH281712   4.932   1.722   4.245 -1.0156  0.3940  0.4700
20074TIP3    H181713   4.974   1.656   4.189  2.7085  3.1753 -0.4410
20074TIP3    H281714   4.937   1.685   4.333  1.0963 -0.5662  0.0193
20075TIP3   OH281715   2.444   4.682  11.302  0.5191 -0.1064 -0.4803
20075TIP3    H181716   2.465   4.736  11.225  0.6052  1.2784  0.4853
20075TIP3    H281717   2.352   4.658  11.289 -0.0587  1.7415 -0.1011
20076TIP3   OH281718   6.161   3.003   5.497  0.0472 -0.1885 -0.3323
20076TIP3    H181719   6.149   2.926   5.553 -1.5158 -1.0156 -1.7327
20076TIP3    H281720   6.073   3.030   5.473  0.6446  0.2226 -2.2645
20077TIP3   OH281721   4.937   6.323  17.211  0.3519 -0.0317  0.3081
20077TIP3    H181722   4.998   6.373  17.156 -0.5874 -0.8713 -1.5861
20077TIP3    H281723   4.949   6.232  17.183 -1.2792 -0.2898  0.3524
20078TIP3   OH281724   3.009   2.361   6.477  0.0118 -0.0660 -0.0205
20078TIP3    H181725   2.918   2.376   6.503  0.1784  0.2067  0.4272
20078TIP3    H281726   3.008   2.363   6.381 -0.4438 -0.0105 -0.0157
20079TIP3   OH281727   2.356   3.330   2.713  0.0669  0.3262 -0.5215
20079TIP3    H181728   2.412   3.254   2.727 -0.4618 -0.3439 -1.9297
20079TIP3    H281729   2.330   3.325   2.621 -1.0892  1.4555 -0.2860
20080TIP3   OH281730   1.078   1.129  13.208 -0.0517 -0.5918 -0.1080
20080TIP3    H181731   1.046   1.098  13.123 -1.1053  1.0013 -0.3424
20080TIP3    H281732   1.165   1.163  13.190  0.6725 -2.3586 -0.0593
20081TIP3   OH281733   5.652   2.528  14.404  0.2706  0.2397  0.3988
20081TIP3    H181734   5.597   2.521  14.482  1.3701 -1.5010  1.0920
20081TIP3    H281735   5.635   2.447  14.355 -1.3576  1.8436 -1.9175
20082TIP3   OH281736   5.608   5.043   1.302  0.3967 -0.4383  0.5091
20082TIP3    H181737   5.612   4.948   1.306  1.1246 -0.4069  0.6122
20082TIP3    H281738   5.643   5.065   1.216  0.7529 -0.2340  0.7062
20083TIP3   OH281739   5.064   6.038   0.458  0.1586 -0.2001  0.2735
20083TIP3    H181740   5.065   6.104   0.389 -0.9663  0.9832  1.3334
20083TIP3    H281741   5.018   5.963   0.420  2.8493 -1.1116 -1.5062
20084TIP3   OH281742   4.093   6.732  11.971  0.4251  0.0668  0.4506
20084TIP3    H181743   4.071   6.707  12.060  0.3576  1.4854  0.8586
20084TIP3    H281744   4.089   6.828  11.971 -0.9130  0.0706 -1.4111
20085TIP3   OH281745   4.111   1.843  15.044  0.5418 -0.4140 -0.3859
20085TIP3    H181746   4.123   1.750  15.065  1.6519 -0.0592  0.6684
20085TIP3    H281747   4.184   1.864  14.985  0.4489 -0.1405 -0.4067
20086TIP3   OH281748   6.358   3.519  16.683 -0.5449 -0.0492 -0.1082
20086TIP3    H181749   6.425   3.572  16.726  1.5983 -1.3568 -1.6323
20086TIP3    H281750   6.335   3.453  16.748 -0.5419  0.5662  0.5270
20087TIP3   OH281751   1.875   5.838  16.036 -0.0629 -0.6961  0.4431
20087TIP3    H181752   1.905   5.927  16.054 -0.7687 -0.3495 -0.0354
20087TIP3    H281753   1.918   5.815  15.954 -1.5713  0.0570 -0.6008
20088TIP3   OH281754   5.237   6.431   5.886  0.0903  0.3720 -0.2021
20088TIP3    H181755   5.229   6.512   5.938 -0.7624 -0.3738  0.8944
20088TIP3    H281756   5.232   6.361   5.951 -2.7565 -0.6716 -1.3877
20089TIP3   OH281757   0.206   0.803  14.414  0.1122  0.2056  0.2869
20089TIP3    H181758   0.123   0.755  14.417  0.3185 -0.1454  0.5129
20089TIP3    H281759   0.193   0.877  14.474 -0.1687  0.3774  0.0213
20090TIP3   OH281760   0.574   0.125  16.137 -0.1708  0.2637  0.2987
20090TIP3    H181761   0.657   0.172  16.123 -0.6236  1.0334  0.1742
20090TIP3    H281762   0.539   0.112  16.049 -0.8463  1.1535  0.4257
20091TIP3   OH281763   3.978   1.442   5.753  0.1627 -0.7385 -0.3506
20091TIP3    H181764   4.017   1.479   5.674  0.0676  1.0959  0.4192
20091TIP3    H281765   4.038   1.370   5.777  1.8449  0.5619 -0.4640
20092TIP3   OH281766   0.638   0.414   3.406  0.1956 -0.1453 -0.4237
20092TIP3    H181767   0.707   0.446   3.347 -0.7482  1.4479 -0.7308
20092TIP3    H281768   0.584   0.358   3.351 -0.4800  1.0552 -1.0173
20093TIP3   OH281769   1.311   3.875   1.594  0.6043 -0.4690  0.8401
20093TIP3    H181770   1.275   3.882   1.682 -0.9098 -0.8734  0.2828
20093TIP3    H281771   1.239   3.900   1.536  1.4023 -0.7369 -0.3097
20094TIP3   OH281772   2.627   4.773   0.278 -0.1937  0.7864  1.0079
20094TIP3    H181773   2.585   4.827   0.211  0.2084 -0.6546 -0.4919
20094TIP3    H281774   2.716   4.808   0.284  0.1860  0.1224 -0.2381
20095TIP3   OH281775   3.044   0.198   2.402  0.4482 -0.1107  0.1291
20095TIP3    H181776   3.003   0.257   2.339 -0.1351  0.5681  1.1105
20095TIP3    H281777   2.972   0.143   2.434  0.7814 -0.6107  0.0233
20096TIP3   OH281778   1.922   2.708  16.373 -0.0679 -0.7013  0.5001
20096TIP3    H181779   1.904   2.664  16.290 -0.2243 -0.5590  0.4592
20096TIP3    H281780   1.987   2.775  16.351 -0.6536 -0.1760  0.3516
20097TIP3   OH281781   1.464   2.888  12.104  0.0862 -0.0600  0.4120
20097TIP3    H181782   1.376   2.924  12.094  0.0624  0.1220  1.2022
20097TIP3    H281783   1.500   2.888  12.016 -0.5326  0.3078  0.1506
20098TIP3   OH281784   6.803   4.878  11.124  0.3627  0.0659 -0.1027
20098TIP3    H181785   6.735   4.928  11.167 -0.1021 -0.7603  0.1406
20098TIP3    H281786   6.758   4.801  11.089  0.6555  0.8578 -2.3676
20099TIP3   OH281787   0.755   0.120  14.808  0.2407  0.3932  0.5417
20099TIP3    H181788   0.793   0.045  14.854 -0.2804  0.7615  1.5922
20099TIP3    H281789   0.684   0.150  14.865 -2.1066 -0.6608 -1.5970
20100TIP3   OH281790   4.086   4.641  11.945  0.0433  0.2877 -0.3095
20100TIP3    H181791   4.153   4.574  11.935 -0.1751 -0.2289  1.4139
20100TIP3    H281792   4.012   4.610  11.892 -0.0794 -0.8808  0.5174
20101TIP3   OH281793   2.788   2.093  15.747  0.4821  0.1927  0.4165
20101TIP3    H181794   2.799   1.998  15.754 -0.7047  0.1893  3.1397
20101TIP3    H281795   2.719   2.104  15.682  0.8597 -0.7511 -0.1792
20102TIP3   OH281796   5.042   5.501   0.827  0.3742  0.1977 -0.2562
20102TIP3    H181797   5.099   5.463   0.893  0.9247  0.4746 -0.5610
20102TIP3    H281798   4.986   5.562   0.875  0.3820 -0.0305  0.0391
20103TIP3   OH281799   5.362   3.257   3.002  0.9808 -0.2948 -1.1753
20103TIP3    H181800   5.305   3.258   3.079  0.2068 -4.3534 -1.4767
20103TIP3    H281801   5.448   3.282   3.035 -0.0331  1.7222  0.1525
20104TIP3   OH281802   3.419   5.681   4.131  0.1486 -0.2216  0.1605
20104TIP3    H181803   3.404   5.628   4.053  0.5995 -0.3386  0.1531
20104TIP3    H281804   3.380   5.630   4.203  1.2018 -0.9046  0.2625
20105TIP3   OH281805   0.952   0.385  14.244  0.1650  0.3115 -0.3434
20105TIP3    H181806   0.969   0.390  14.338 -0.5762  0.4414 -0.2152
20105TIP3    H281807   0.871   0.435  14.231 -0.3226 -0.6099 -0.9006
20106TIP3   OH281808   6.128   5.183   3.819  0.3240  0.3288 -0.8697
20106TIP3    H181809   6.042   5.204   3.782  0.4874  1.0755 -0.8380
20106TIP3    H281810   6.152   5.260   3.870 -0.5079 -1.1724  1.9936
20107TIP3   OH281811   5.869   0.378   4.288  0.4073  0.4180 -0.1264
20107TIP3    H181812   5.807   0.421   4.348  1.4736  2.1900 -0.2470
20107TIP3    H281813   5.937   0.343   4.346 -0.3468 -1.0367 -0.0480
20108TIP3   OH281814   2.797   4.882   4.780 -0.1808 -0.6060  0.1801
20108TIP3    H181815   2.796   4.787   4.785  1.0092 -0.5389  3.0625
20108TIP3    H281816   2.740   4.902   4.705  1.0085 -3.5877 -1.7023
20109TIP3   OH281817   6.328   1.915   5.921  0.5232 -0.9586 -0.4128
20109TIP3    H181818   6.340   2.010   5.921 -0.0807 -0.8765 -0.6548
20109TIP3    H281819   6.378   1.884   5.996  0.6553 -0.4383 -0.2857
20110TIP3   OH281820   2.506   1.093  14.810 -0.0344  0.0127  0.1461
20110TIP3    H181821   2.581   1.146  14.835 -0.4773  0.7481 -0.0457
20110TIP3    H281822   2.543   1.008  14.785  0.5254 -0.4635  2.3376
20111TIP3   OH281823   1.642   4.687  15.416  0.0580  0.2667  0.1121
20111TIP3    H181824   1.697   4.698  15.493 -0.4831 -1.5077  0.8096
20111TIP3    H281825   1.703   4.669  15.344  0.5751  2.1130  0.0335
20112TIP3   OH281826   4.342   4.446  14.234  0.3554  0.1346  0.2304
20112TIP3    H181827   4.362   4.448  14.140  2.1054  0.8239  0.5854
20112TIP3    H281828   4.312   4.535  14.254  0.1619  0.0400  0.3656
20113TIP3   OH281829   5.083   1.307  12.639  0.4658 -0.3370 -0.0302
20113TIP3    H181830   5.024   1.242  12.678 -0.3488  0.5174  0.1885
20113TIP3    H281831   5.125   1.260  12.566 -0.3221 -1.0244 -0.0605
20114TIP3   OH281832   3.877   3.977   0.833 -0.2461  0.1971  0.2369
20114TIP3    H181833   3.950   3.997   0.775  1.1373 -0.0510  1.8341
20114TIP3    H281834   3.800   4.010   0.786  0.8125  0.1737 -1.6339
20115TIP3   OH281835   4.793   0.949   5.461 -0.0135 -0.3570 -0.2511
20115TIP3    H181836   4.764   0.858   5.464 -2.6832  0.4106  0.7477
20115TIP3    H281837   4.801   0.975   5.552  2.2005  0.0447 -0.5144
20116TIP3   OH281838   6.634   6.718   1.541  0.1244 -0.0217 -0.2075
20116TIP3    H181839   6.620   6.624   1.551 -2.4830  0.2834 -0.2975
20116TIP3    H281840   6.658   6.730   1.449  0.1238 -0.5807 -0.2811
20117TIP3   OH281841   0.868   4.172  14.873  0.6563  0.0448  0.0603
20117TIP3    H181842   0.804   4.242  14.867  0.8613  0.1317 -2.1167
20117TIP3    H281843   0.920   4.192  14.950 -0.9748  0.7751  1.0156
20118TIP3   OH281844   3.718   6.256  16.042  0.3168 -0.1183  0.2519
20118TIP3    H181845   3.680   6.170  16.059  0.7090  0.0573  2.2884
20118TIP3    H281846   3.812   6.240  16.037  0.3097  0.0393 -0.6467
20119TIP3   OH281847   6.506   5.344  14.261 -0.4746  0.1235  0.8541
20119TIP3    H181848   6.432   5.346  14.200 -0.2828  1.3827  0.6404
20119TIP3    H281849   6.564   5.277  14.226 -1.3354 -0.6321  0.8220
20120TIP3   OH281850   3.562   5.269   6.588 -0.0005 -0.3392  0.6168
20120TIP3    H181851   3.626   5.211   6.546 -0.4562 -0.9582  0.7662
20120TIP3    H281852   3.477   5.230   6.567 -0.3320  0.4555  0.4508
20121TIP3   OH281853   6.213   0.440   5.449  0.0349 -0.3112 -0.3145
20121TIP3    H181854   6.156   0.470   5.378 -1.7017 -2.1317  0.2168
20121TIP3    H281855   6.155   0.391   5.507  1.5495  0.5482  2.0319
20122TIP3   OH281856   0.589   2.033   4.645  0.2856 -0.2758 -0.6493
20122TIP3    H181857   0.554   2.116   4.612  0.5045  0.1792  0.2414
20122TIP3    H281858   0.632   1.994   4.570  0.6382  0.6653 -0.9503
20123TIP3   OH281859   5.822   4.997  11.589 -0.0348  0.3420 -0.0412
20123TIP3    H181860   5.897   5.056  11.581 -0.7781  1.5504  1.3470
20123TIP3    H281861   5.764   5.023  11.517  0.0372  0.6994  0.0290
20124TIP3   OH281862   2.700   1.946  15.485  0.1088  0.0324  0.2449
20124TIP3    H181863   2.629   1.950  15.549 -0.6723 -2.0831 -0.4373
20124TIP3    H281864   2.698   2.033  15.444 -1.4004  0.3736  0.9345
20125TIP3   OH281865   5.253   5.454   5.770 -0.0088  0.5253  0.3137
20125TIP3    H181866   5.224   5.462   5.679  0.4732  0.7327  0.1779
20125TIP3    H281867   5.176   5.422   5.817 -0.2608  0.4249 -0.1666
20126TIP3   OH281868   6.110   2.072  14.825 -0.3466  0.0062  0.0143
20126TIP3    H181869   6.123   2.049  14.733 -0.8634 -1.9436  0.3808
20126TIP3    H281870   6.065   2.157  14.822 -0.1786  0.0797 -1.5157
20127TIP3   OH281871   0.187   6.540  17.195 -0.7453 -0.6625 -0.2767
20127TIP3    H181872   0.195   6.483  17.118  0.4488 -2.5405  1.1368
20127TIP3    H281873   0.278   6.564  17.216 -0.9076 -1.3588  1.3505
20128TIP3   OH281874   0.830   4.211   5.571 -0.9795  1.0328 -0.0586
20128TIP3    H181875   0.748   4.206   5.521 -1.2780  0.1540  0.5010
20128TIP3    H281876   0.891   4.256   5.512 -1.6169  0.9373 -0.8074
20129TIP3   OH281877   3.594   4.657   6.329  0.0748  0.3078  0.2144
20129TIP3    H181878   3.557   4.726   6.385  0.0571  2.7544 -2.5420
20129TIP3    H281879   3.525   4.590   6.326 -1.4370  1.7857  0.2710
20130TIP3   OH281880   3.707   3.639  13.940  0.3609 -0.4051 -0.5502
20130TIP3    H181881   3.671   3.560  13.980  0.9951  1.1888  3.7450
20130TIP3    H281882   3.662   3.711  13.985  2.2300  1.6646 -1.7966
20131TIP3   OH281883   4.328   3.055  10.781  0.3262  0.0052 -0.0588
20131TIP3    H181884   4.252   3.033  10.728  0.2788  2.7626 -1.3148
20131TIP3    H281885   4.298   3.127  10.837  1.0485 -1.2783  2.1051
20132TIP3   OH281886   6.078   6.366  13.107  0.1846 -0.2911  0.4879
20132TIP3    H181887   6.040   6.453  13.101 -1.0083 -0.6141  2.4311
20132TIP3    H281888   6.168   6.377  13.076 -0.0834  1.5170  0.2290
20133TIP3   OH281889   6.516   6.716  17.214 -0.6137 -0.2777  0.6178
20133TIP3    H181890   6.609   6.709  17.235 -0.4957  0.4703  0.3589
20133TIP3    H281891   6.506   6.669  17.132  0.1213  2.1366 -0.9624
20134TIP3   OH281892   1.516   4.878  12.800  0.3101 -0.2905  0.0687
20134TIP3    H181893   1.488   4.933  12.727 -0.9521 -2.1884 -0.9727
20134TIP3    H281894   1.460   4.904  12.873 -0.1070 -0.0249 -0.3433
20135TIP3   OH281895   4.123   1.308  14.288  0.2989  0.4653 -0.2380
20135TIP3    H181896   4.142   1.215  14.298  1.1333  0.6999  0.4390
20135TIP3    H281897   4.090   1.336  14.373 -1.6521  0.4190 -0.9356
20136TIP3   OH281898   0.552   6.584   0.456  0.5186 -0.1606  0.1258
20136TIP3    H181899   0.547   6.678   0.477 -1.8412 -0.3561  0.7675
20136TIP3    H281900   0.505   6.542   0.528 -1.1475 -1.5589 -1.6928
20137TIP3   OH281901   3.920   3.493  11.827  0.7950  0.7336  0.2914
20137TIP3    H181902   3.907   3.471  11.919  1.7630  0.0403  0.2870
20137TIP3    H281903   3.833   3.516  11.795  0.1779 -0.4907  1.0011
20138TIP3   OH281904   3.544   6.159  13.512 -0.3905 -0.3834  0.2600
20138TIP3    H181905   3.510   6.070  13.527  0.3425 -0.6499  0.3932
20138TIP3    H281906   3.624   6.145  13.461 -0.8398  0.2758 -0.6417
20139TIP3   OH281907   3.448   4.236  15.759 -0.1188 -0.2169 -0.1714
20139TIP3    H181908   3.378   4.233  15.824 -0.1722  1.2828 -0.1178
20139TIP3    H281909   3.483   4.147  15.757 -0.4287 -0.4090  1.5614
20140TIP3   OH281910   6.752   0.179   0.471 -0.0653 -0.0618 -0.0476
20140TIP3    H181911   6.771   0.185   0.377  2.2839  0.3317  0.3963
20140TIP3    H281912   6.680   0.115   0.476  1.1504 -1.7241 -1.9811
20141TIP3   OH281913   3.915   1.007  10.870 -0.1230  0.2457 -0.2551
20141TIP3    H181914   3.930   0.968  10.956  0.1224  0.8569 -0.0143
20141TIP3    H281915   3.984   1.073  10.861  1.3241 -1.4000 -1.9293
20142TIP3   OH281916   6.712   3.532   0.868  0.1921 -0.2757  0.1882
20142TIP3    H181917   6.700   3.569   0.955  0.1646 -0.8823  0.4490
20142TIP3    H281918   6.628   3.490   0.848  0.1189  0.0631 -0.2308
20143TIP3   OH281919   4.068   2.575   1.852 -0.0580  0.0323 -0.1480
20143TIP3    H181920   4.095   2.540   1.937  0.0550 -0.1076 -0.2417
20143TIP3    H281921   4.150   2.585   1.803 -0.2460 -1.3568 -0.8019
20144TIP3   OH281922   0.431   1.582  11.172 -0.3543  0.8450  0.5467
20144TIP3    H181923   0.473   1.632  11.103 -0.3160 -0.8629 -0.7417
20144TIP3    H281924   0.338   1.584  11.149 -0.3720  0.4889  0.5797
20145TIP3   OH281925   2.368   3.438   0.401 -0.5798 -0.0190 -0.1849
20145TIP3    H181926   2.365   3.527   0.367  1.7397 -0.4004 -1.6243
20145TIP3    H281927   2.417   3.445   0.482  0.1101 -0.0343 -0.5923
20146TIP3   OH281928   0.592   1.229   3.642 -0.3705 -0.0868 -0.0952
20146TIP3    H181929   0.530   1.162   3.615  0.5153 -0.4747 -1.2264
20146TIP3    H281930   0.639   1.253   3.562  1.5205 -0.3999  0.8633
20147TIP3   OH281931   1.952   0.324   4.303  0.0853  0.1630 -0.2420
20147TIP3    H181932   1.883   0.389   4.288  0.7038  0.6982 -0.8545
20147TIP3    H281933   1.913   0.260   4.362 -0.6366  0.9452  0.1499
20148TIP3   OH281934   3.512   5.296  16.689 -0.1464 -0.6285 -0.3088
20148TIP3    H181935   3.458   5.346  16.628  1.1192 -0.0807 -1.0300
20148TIP3    H281936   3.493   5.204  16.668 -0.1785 -0.4457 -1.1287
20149TIP3   OH281937   2.376   4.040  13.643  0.4470 -0.6663  0.1479
20149TIP3    H181938   2.357   4.058  13.551  0.7222 -2.0920 -0.2091
20149TIP3    H281939   2.303   3.984  13.671 -0.0265  0.3536  1.0210
20150TIP3   OH281940   1.077   4.650  12.311 -0.3482 -0.2282 -0.5129
20150TIP3    H181941   1.101   4.743  12.313 -1.2905  0.0368 -0.8255
20150TIP3    H281942   1.156   4.604  12.337 -0.2070  0.7292  0.8655
20151TIP3   OH281943   0.909   2.458  15.252  0.3423 -0.3911 -0.2291
20151TIP3    H181944   0.965   2.433  15.326  1.0348  0.6708 -0.3691
20151TIP3    H281945   0.941   2.406  15.178 -2.0722 -3.5285  0.6948
20152TIP3   OH281946   4.413   2.488  13.838  0.2590 -0.2269  0.0822
20152TIP3    H181947   4.382   2.415  13.784  0.7840 -0.5340  0.1953
20152TIP3    H281948   4.410   2.454  13.927 -0.9042  0.3825  0.2959
20153TIP3   OH281949   4.577   4.918  11.880 -0.2714 -0.1493  0.1789
20153TIP3    H181950   4.605   4.977  11.950  0.8859 -0.2309 -0.1957
20153TIP3    H281951   4.517   4.970  11.828 -3.1380 -0.8005  2.5428
20154TIP3   OH281952   3.471   4.756   2.330 -0.0028 -0.0217  0.4134
20154TIP3    H181953   3.530   4.747   2.405 -1.3000 -0.3974  1.4293
20154TIP3    H281954   3.529   4.775   2.256  1.2405  1.5051  1.7021
20155TIP3   OH281955   6.440   0.748   3.576 -0.2174 -0.1440  0.4829
20155TIP3    H181956   6.386   0.753   3.497  0.2636  0.7798  0.2019
20155TIP3    H281957   6.439   0.837   3.612 -0.1386 -0.4736  1.3229
20156TIP3   OH281958   5.073   3.317  11.357  0.6955 -0.0227 -0.6930
20156TIP3    H181959   5.056   3.336  11.265  0.4769  1.4249 -0.3884
20156TIP3    H281960   4.986   3.310  11.397  0.7679 -1.7293 -0.7663
20157TIP3   OH281961   1.577   5.262   0.394  0.6588  0.3364  0.1729
20157TIP3    H181962   1.665   5.291   0.418  1.1124 -0.4765 -0.4649
20157TIP3    H281963   1.563   5.297   0.307  0.6205 -0.0969  0.0018
20158TIP3   OH281964   2.828   5.939   5.569 -0.0098  0.1289 -0.0019
20158TIP3    H181965   2.815   6.032   5.551  2.2049  0.5769  0.4253
20158TIP3    H281966   2.840   5.935   5.664  1.7264 -0.3102 -0.2133
20159TIP3   OH281967   1.059   4.840   0.237  0.9681  0.2144 -0.0763
20159TIP3    H181968   0.973   4.850   0.279  0.9844  0.6466 -0.1393
20159TIP3    H281969   1.103   4.923   0.254  0.5587  0.8460 -1.8903
20160TIP3   OH281970   0.413   3.858  11.348 -0.3634 -0.6196  0.5375
20160TIP3    H181971   0.506   3.834  11.346  0.0101  0.5574  1.6937
20160TIP3    H281972   0.411   3.947  11.311 -1.1504 -0.9075 -0.1472
20161TIP3   OH281973   3.170   2.978   5.371 -0.3644 -0.3247 -0.0243
20161TIP3    H181974   3.081   2.999   5.342 -0.2118  1.4716  0.6833
20161TIP3    H281975   3.206   2.923   5.301 -1.5669  0.0331 -0.9563
20162TIP3   OH281976   6.284   0.906  12.492 -0.0310  0.3677 -0.0966
20162TIP3    H181977   6.338   0.839  12.450 -0.4349  0.7722 -1.3126
20162TIP3    H281978   6.198   0.866  12.501 -0.2617  0.6786 -0.7853
20163TIP3   OH281979   3.155   5.535   0.959  0.0170  0.4269 -0.8617
20163TIP3    H181980   3.128   5.619   0.995  2.2579  1.3473 -1.1566
20163TIP3    H281981   3.156   5.476   1.035 -0.5350  0.9416 -0.4433
20164TIP3   OH281982   1.334   2.826   2.681  0.3633 -0.0227  0.0869
20164TIP3    H181983   1.429   2.839   2.681  0.6477 -1.9266  0.4001
20164TIP3    H281984   1.301   2.894   2.740  1.5116  0.6135  0.0384
20165TIP3   OH281985   1.003   6.368   4.624 -0.4524  0.4661 -0.1904
20165TIP3    H181986   1.082   6.326   4.591 -0.8810 -2.4795  2.1654
20165TIP3    H281987   0.932   6.330   4.573 -0.7440 -0.9720  1.2120
20166TIP3   OH281988   6.689   2.585  15.662  0.5837  0.2781  0.3351
20166TIP3    H181989   6.708   2.533  15.740  0.1951 -1.7738 -0.8546
20166TIP3    H281990   6.595   2.603  15.668  0.4376 -0.3744  0.0766
20167TIP3   OH281991   6.327   0.912  15.508  0.1788 -0.5298  0.3728
20167TIP3    H181992   6.334   0.942  15.598 -0.7008 -0.6746  0.4995
20167TIP3    H281993   6.238   0.877  15.501  0.8475 -2.2972 -0.0112
20168TIP3   OH281994   3.460   1.861  15.225  0.1385 -0.0343 -0.2367
20168TIP3    H181995   3.366   1.856  15.205 -0.1418  0.2557  0.9310
20168TIP3    H281996   3.502   1.808  15.157 -0.9183 -0.6483 -0.4329
20169TIP3   OH281997   2.408   4.876  16.393  0.0892 -0.1630 -0.1870
20169TIP3    H181998   2.438   4.793  16.428 -2.6502 -1.0413  0.3116
20169TIP3    H281999   2.443   4.942  16.453  1.4557 -1.0029 -0.0281
20170TIP3   OH282000   4.265   3.918  15.668 -0.2937 -0.0205  0.1479
20170TIP3    H182001   4.195   3.920  15.733 -0.6839  0.8059 -0.2917
20170TIP3    H282002   4.306   4.004  15.673 -1.3144  0.6316 -1.7595
20171TIP3   OH282003   6.176   5.631  15.423 -0.4365  0.3629  0.3371
20171TIP3    H182004   6.211   5.720  15.424 -0.5082  0.3871  0.5880
20171TIP3    H282005   6.091   5.638  15.464  0.1447 -0.0674  1.6604
20172TIP3   OH282006   1.213   5.752  16.538 -0.2266  0.7435 -0.2321
20172TIP3    H182007   1.261   5.696  16.478 -0.1309 -1.1537  1.5245
20172TIP3    H282008   1.281   5.806  16.579 -0.0573  0.6242 -0.3504
20173TIP3   OH282009   6.500   4.877   4.988 -0.3435  0.1299 -0.0384
20173TIP3    H182010   6.535   4.910   5.072  0.8285 -1.0954 -0.0062
20173TIP3    H282011   6.436   4.943   4.962  1.2765  2.0037  0.4294
20174TIP3   OH282012   0.035   4.177  15.320  0.3562 -0.5196  0.1790
20174TIP3    H182013  -0.014   4.213  15.245  0.9849 -1.9054 -0.9282
20174TIP3    H282014   0.125   4.205  15.305  0.6293 -1.4889 -0.0330
20175TIP3   OH282015   0.437   4.499  15.619 -0.3181 -0.2991 -0.0220
20175TIP3    H182016   0.464   4.422  15.669  1.7385  1.4603  1.7826
20175TIP3    H282017   0.373   4.543  15.676 -0.1581  0.2234 -0.2435
20176TIP3   OH282018   0.016   5.869  10.762 -0.0205 -0.3244  0.4616
20176TIP3    H182019   0.079   5.893  10.830 -0.8983  0.0830  1.1521
20176TIP3    H282020   0.010   5.946  10.706 -1.7190  0.6086  1.8201
20177TIP3   OH282021   1.114   1.642   4.292  0.0386 -0.4525 -0.1187
20177TIP3    H182022   1.027   1.674   4.317 -1.0154 -0.8260 -2.9824
20177TIP3    H282023   1.097   1.557   4.252  1.9396 -1.1871  0.5282
20178TIP3   OH282024   1.455   0.717   0.369 -0.2083 -0.7669 -0.2891
20178TIP3    H182025   1.528   0.764   0.409 -0.7639  0.3381 -0.5393
20178TIP3    H282026   1.496   0.649   0.316  0.6239 -0.4707 -0.0310
20179TIP3   OH282027   1.987   5.150   6.339  1.0022 -0.1636 -0.1611
20179TIP3    H182028   2.072   5.152   6.383  0.8950 -1.2871  0.1427
20179TIP3    H282029   1.963   5.242   6.328  0.4140  0.2414  3.3450
20180TIP3   OH282030   4.822   3.316   2.118 -0.0072 -0.3663  0.2959
20180TIP3    H182031   4.914   3.340   2.123 -0.6092  3.2405 -1.7305
20180TIP3    H282032   4.821   3.236   2.065  1.9483 -0.3769  0.1968
20181TIP3   OH282033   5.074   6.146   0.224 -0.0656  0.3070 -0.2781
20181TIP3    H182034   5.051   6.148   0.131  0.9483  2.3205 -0.5387
20181TIP3    H282035   5.169   6.136   0.225 -0.2766 -2.1765  0.6459
20182TIP3   OH282036   1.721   5.955  13.400  0.1075  0.2641 -0.3835
20182TIP3    H182037   1.766   5.895  13.341 -1.1293 -0.2170 -0.8857
20182TIP3    H282038   1.641   5.908  13.425 -0.6965  1.5463 -0.4653
20183TIP3   OH282039   4.701   6.429  14.474  0.1319  0.1627 -0.4826
20183TIP3    H182040   4.751   6.354  14.506 -0.7242 -0.0523  0.3989
20183TIP3    H282041   4.671   6.403  14.387 -1.0284 -0.9737  0.2112
20184TIP3   OH282042   0.176   6.084   4.722  0.0030 -0.7745  0.7246
20184TIP3    H182043   0.216   5.997   4.717 -0.5034 -0.9415 -1.6668
20184TIP3    H282044   0.214   6.132   4.648 -1.1868  0.3818  0.8287
20185TIP3   OH282045   4.250   1.017   4.302  0.3656 -0.0331 -0.6477
20185TIP3    H182046   4.247   1.020   4.206 -0.8007  1.5614 -0.5992
20185TIP3    H282047   4.237   1.108   4.329  2.6165 -0.1237  1.0161
20186TIP3   OH282048   6.006   5.257  13.949  0.0263  0.8487 -1.0092
20186TIP3    H182049   6.008   5.212  14.033  0.1441 -1.4338 -2.1673
20186TIP3    H282050   6.060   5.336  13.963 -0.1398  0.6548  1.0792
20187TIP3   OH282051   5.807   2.076   3.058 -0.2608 -0.7909 -0.2313
20187TIP3    H182052   5.775   1.986   3.060  2.5665 -1.8954  0.6653
20187TIP3    H282053   5.867   2.079   2.984  0.2006  0.1395  0.1565
20188TIP3   OH282054   3.952   1.781   4.851  0.0424 -0.5350  0.1761
20188TIP3    H182055   3.952   1.863   4.901 -1.4866  0.2020 -0.9626
20188TIP3    H282056   3.860   1.757   4.844  0.2827 -1.0854 -1.4900
20189TIP3   OH282057   2.045   2.670   2.588 -0.5010  0.0116 -0.6355
20189TIP3    H182058   2.086   2.662   2.674  3.0028  0.7681 -2.0338
20189TIP3    H282059   2.024   2.580   2.564  0.1390 -0.4129  0.3127
20190TIP3   OH282060   0.526   4.764  13.434 -0.2035 -0.4882  0.1408
20190TIP3    H182061   0.433   4.785  13.438 -0.3866 -1.3479  0.6013
20190TIP3    H282062   0.567   4.831  13.490 -0.5021  0.0645 -0.2872
20191TIP3   OH282063   3.504   2.927  11.852 -0.0592  0.1188 -0.1677
20191TIP3    H182064   3.585   2.890  11.888 -0.6580  0.2219  1.3716
20191TIP3    H282065   3.501   2.895  11.762  0.8610 -1.2522  0.2570
20192TIP3   OH282066   5.003   1.910  14.475 -0.1897 -0.3902 -0.3097
20192TIP3    H182067   5.069   1.854  14.516  0.4357 -0.5252 -1.4698
20192TIP3    H282068   4.967   1.857  14.404 -0.0515  0.4189 -1.0077
20193TIP3   OH282069   2.174   2.678  12.856  0.3928 -0.3749 -0.3179
20193TIP3    H182070   2.156   2.603  12.798 -0.1264 -1.1500  0.8117
20193TIP3    H282071   2.265   2.702  12.836  0.3180 -0.7930 -1.2462
20194TIP3   OH282072   5.566   4.415  11.545 -0.0278 -0.0909 -0.0014
20194TIP3    H182073   5.636   4.378  11.599 -0.3724 -2.5677 -1.1554
20194TIP3    H282074   5.581   4.510  11.550  2.7583 -0.4680  0.6306
20195TIP3   OH282075   1.319   6.205   1.829 -0.4338 -0.1129  0.2804
20195TIP3    H182076   1.392   6.152   1.862 -0.5065 -0.1671  0.3566
20195TIP3    H282077   1.359   6.268   1.770 -0.4215 -0.6597 -0.3052
20196TIP3   OH282078   3.689   5.474  14.886 -0.0894  0.0808 -0.1896
20196TIP3    H182079   3.630   5.536  14.928 -2.8352 -1.4809 -1.5021
20196TIP3    H282080   3.632   5.415  14.837  2.5866 -1.5508 -1.5963
20197TIP3   OH282081   4.310   0.752  13.182  0.8002 -0.0866  0.0004
20197TIP3    H182082   4.375   0.743  13.112  2.4353 -1.2611  1.5755
20197TIP3    H282083   4.280   0.662  13.197 -0.4917  0.3285 -0.0431
20198TIP3   OH282084   5.990   2.455   5.745 -0.4217 -0.0978 -0.0570
20198TIP3    H182085   5.965   2.368   5.715 -0.8083 -0.3574  0.9581
20198TIP3    H282086   5.909   2.494   5.778 -0.1219  0.3563  0.1616
20199TIP3   OH282087   2.632   6.029  10.911  0.0084 -0.0490 -0.0601
20199TIP3    H182088   2.702   6.084  10.877 -0.0077 -0.4146 -0.7093
20199TIP3    H282089   2.570   6.021  10.838 -0.3150 -0.3827  0.2442
20200TIP3   OH282090   5.541   4.236  13.374  0.7268  0.1602  0.0253
20200TIP3    H182091   5.567   4.293  13.302  0.4819 -0.8733 -0.9159
20200TIP3    H282092   5.624   4.201  13.408  0.7753 -1.6986 -1.7752
20201TIP3   OH282093   4.939   3.909  12.344  0.2107 -0.1668 -0.1437
20201TIP3    H182094   4.947   3.855  12.265 -2.6750  0.7241 -1.1971
20201TIP3    H282095   4.858   3.879  12.385  0.4814  0.9260  1.2738
20202TIP3   OH282096   0.090   5.147   1.700 -0.4366  0.6343  0.0426
20202TIP3    H182097   0.184   5.130   1.695 -0.4176  0.6419  0.3502
20202TIP3    H282098   0.082   5.242   1.702 -0.3622  0.6296  1.4958
20203TIP3   OH282099   4.439   2.113   3.970  0.3996  0.0586  0.2583
20203TIP3    H182100   4.472   2.027   3.996  2.2394  0.0570 -1.7955
20203TIP3    H282101   4.346   2.111   3.993 -0.1553 -3.3213 -1.6855
20204TIP3   OH282102   2.358   1.114   2.648  0.1225  0.3315 -0.3955
20204TIP3    H182103   2.342   1.118   2.743  0.5505  1.6727 -0.3719
20204TIP3    H282104   2.297   1.047   2.617 -0.6838  0.5319  0.6993
20205TIP3   OH282105   0.977   5.256  11.954  0.6822  0.5324 -0.3696
20205TIP3    H182106   0.999   5.211  11.872 -0.7014 -1.3794  0.2391
20205TIP3    H282107   0.915   5.198  11.997  0.5413  2.0190  1.5546
20206TIP3   OH282108   3.240   4.516  15.805  0.0566  0.3065 -0.5503
20206TIP3    H182109   3.212   4.426  15.825  0.6671 -0.0636 -1.2966
20206TIP3    H282110   3.173   4.571  15.844 -0.5865 -0.4944 -0.4912
20207TIP3   OH282111   2.881   4.879  16.177  0.0841  0.3999  0.1058
20207TIP3    H182112   2.974   4.893  16.197  0.3134 -2.1591  1.1421
20207TIP3    H282113   2.869   4.785  16.184 -2.7488  0.7268  0.6208
20208TIP3   OH282114   5.061   1.940  14.865 -0.1412  0.4758 -0.4012
20208TIP3    H182115   5.025   1.880  14.931  1.4183  0.1773  0.2351
20208TIP3    H282116   5.091   2.016  14.915 -0.0428  0.7842 -0.9234
20209TIP3   OH282117   3.445   4.652   5.542 -0.1196  0.1420  0.1073
20209TIP3    H182118   3.402   4.569   5.522  0.1591  0.4174 -1.8403
20209TIP3    H282119   3.538   4.629   5.547 -0.0423  0.3290 -0.4365
20210TIP3   OH282120   4.603   0.403  14.684  0.2223 -0.0677 -0.4535
20210TIP3    H182121   4.647   0.482  14.714  0.0771 -0.1662  0.0297
20210TIP3    H282122   4.532   0.390  14.747  0.1626 -0.5064 -0.6086
20211TIP3   OH282123   2.610   5.240  16.925  0.5833  0.3446  0.3677
20211TIP3    H182124   2.536   5.210  16.872 -0.9932  1.5136  1.7719
20211TIP3    H282125   2.651   5.308  16.873 -0.4179  0.8791  0.2444
20212TIP3   OH282126   3.750   0.148  14.228 -0.0368  0.0781  0.6833
20212TIP3    H182127   3.719   0.058  14.212  0.8549 -0.2048  0.5023
20212TIP3    H282128   3.814   0.163  14.159  0.8221  0.3638  1.5314
20213TIP3   OH282129   2.426   6.333  15.168 -0.3983 -0.2735  0.6610
20213TIP3    H182130   2.393   6.418  15.139 -0.6509 -0.3341  0.7674
20213TIP3    H282131   2.448   6.286  15.088 -0.6700 -0.2726  0.5866
20214TIP3   OH282132   3.504   2.702  16.849 -0.0356  0.0130  0.2486
20214TIP3    H182133   3.542   2.716  16.762 -0.5526  1.2571  0.2015
20214TIP3    H282134   3.460   2.617  16.842 -1.0658  0.5985 -1.0964
20215TIP3   OH282135   6.331   2.264   0.846  0.1302 -0.3714 -0.7892
20215TIP3    H182136   6.305   2.184   0.890  0.4159  1.0357  2.1799
20215TIP3    H282137   6.254   2.320   0.849  0.0349 -0.3442 -2.5309
20216TIP3   OH282138   1.618   2.002   3.374 -0.0780  0.3528  0.3662
20216TIP3    H182139   1.700   2.034   3.337 -0.3207  1.1033  0.4468
20216TIP3    H282140   1.599   1.921   3.327  0.0335  0.8642 -0.5836
20217TIP3   OH282141   6.680   2.383  15.858  0.3346  0.0084  0.3457
20217TIP3    H182142   6.703   2.295  15.828  1.2398  0.1064  0.7095
20217TIP3    H282143   6.593   2.399  15.823  0.8830 -0.3317 -1.2369
20218TIP3   OH282144   0.941   2.983   1.703 -0.1056  0.5037 -0.9542
20218TIP3    H182145   0.889   2.930   1.764  0.1069  1.5800  0.2071
20218TIP3    H282146   0.908   2.959   1.616  0.8801 -2.4841 -0.6241
20219TIP3   OH282147   6.087   5.289  15.024 -0.1472 -0.4017 -0.3803
20219TIP3    H182148   6.055   5.348  14.957 -1.8601 -0.8142  0.0255
20219TIP3    H282149   6.122   5.214  14.975  1.5196  0.6364 -0.8697
20220TIP3   OH282150   6.358   1.677  15.131  0.5420 -0.3302  0.1451
20220TIP3    H182151   6.326   1.630  15.054  0.0229 -0.0226  0.1665
20220TIP3    H282152   6.281   1.722  15.165  0.8146 -0.2853  0.7183
20221TIP3   OH282153   5.011   5.375   3.427 -0.3313  0.1251 -0.2936
20221TIP3    H182154   5.017   5.447   3.365 -0.3795  0.8671  0.5460
20221TIP3    H282155   4.947   5.405   3.493 -1.4332 -1.2531 -0.6875
20222TIP3   OH282156   6.283   5.024  14.088  0.2257  0.4061  0.0221
20222TIP3    H182157   6.292   5.047  14.181 -0.4431 -1.2096  0.5406
20222TIP3    H282158   6.210   4.962  14.087  0.1236  0.5228 -1.6256
20223TIP3   OH282159   5.409   3.824   0.104 -0.3284 -0.1011  0.0663
20223TIP3    H182160   5.358   3.870   0.038  0.9847  2.0491  0.4648
20223TIP3    H282161   5.500   3.836   0.078  0.1465 -0.6596  1.3485
20224TIP3   OH282162   4.459   3.729   0.639  0.0517 -0.1782  0.0516
20224TIP3    H182163   4.418   3.813   0.619  0.0219  0.3333  2.0752
20224TIP3    H282164   4.473   3.688   0.553 -1.1666  1.2884 -0.8933
20225TIP3   OH282165   1.042   1.930  15.398 -0.5078 -0.2785  0.5272
20225TIP3    H182166   0.972   1.984  15.435 -1.3396 -1.5210  0.7874
20225TIP3    H282167   0.998   1.861  15.350  0.5487  0.5346 -1.7934
20226TIP3   OH282168   2.702   3.678  13.688 -0.1117  0.5236 -0.6029
20226TIP3    H182169   2.796   3.691  13.702 -0.0570  0.1370 -0.5932
20226TIP3    H282170   2.689   3.583  13.697 -0.6311  0.6558  0.1561
20227TIP3   OH282171   2.813   3.864   1.210 -0.7208  0.5181 -0.8259
20227TIP3    H182172   2.817   3.909   1.125  0.0633  1.9878 -0.0464
20227TIP3    H282173   2.896   3.887   1.253 -0.8172 -0.7357  0.0954
20228TIP3   OH282174   6.667   3.982   3.301  0.5758  0.1484  0.0492
20228TIP3    H182175   6.704   3.950   3.383  0.2069  0.2317  0.2520
20228TIP3    H282176   6.743   4.000   3.246  0.9289  1.6237  0.9397
20229TIP3   OH282177   1.419   6.027  11.259  0.4164 -0.5214 -0.7345
20229TIP3    H182178   1.351   6.072  11.210  1.2584 -0.0994 -1.5286
20229TIP3    H282179   1.421   6.072  11.343  0.8181  0.5221 -1.2895
20230TIP3   OH282180   5.010   5.698  11.796  0.1055  0.5347  0.3184
20230TIP3    H182181   5.105   5.682  11.797  0.1967  0.5026 -2.4028
20230TIP3    H282182   4.999   5.772  11.737 -1.5983  0.4222  0.4545
20231TIP3   OH282183   4.959   2.651  15.897  0.1225  0.3167 -0.1348
20231TIP3    H182184   4.938   2.557  15.893  0.6446  0.2244 -0.8773
20231TIP3    H282185   4.931   2.677  15.985 -0.5205 -0.4126 -0.1018
20232TIP3   OH282186   5.652   2.579  11.155 -0.2533 -0.1374  0.3105
20232TIP3    H182187   5.586   2.616  11.097  1.8446  0.0338 -2.1398
20232TIP3    H282188   5.668   2.648  11.220 -0.0504  1.2277 -1.1289
20233TIP3   OH282189   0.157   1.296   3.018  0.0447 -0.0670 -0.3357
20233TIP3    H182190   0.088   1.263   2.960 -0.0408 -0.4261 -0.0365
20233TIP3    H282191   0.175   1.223   3.077 -1.3350  0.9477  1.4442
20234TIP3   OH282192   0.813   5.516  13.715  0.2733 -0.0464 -0.0799
20234TIP3    H182193   0.818   5.596  13.768 -1.1316  1.3894 -1.9818
20234TIP3    H282194   0.730   5.475  13.740  0.1362  0.0482 -0.3765
20235TIP3   OH282195   6.376   1.788   5.331 -0.2806 -0.5323 -0.1133
20235TIP3    H182196   6.432   1.720   5.293 -0.4529 -0.5632 -0.3164
20235TIP3    H282197   6.304   1.798   5.267 -0.5738 -0.5854  0.2069
20236TIP3   OH282198   1.858   4.359   2.183 -0.2288 -0.1475  0.1225
20236TIP3    H182199   1.782   4.320   2.139  0.5435 -0.0551 -1.3888
20236TIP3    H282200   1.915   4.285   2.203 -0.1877 -0.1090  0.1483
20237TIP3   OH282201   4.344   3.400   0.669  0.2663  0.4253  0.0277
20237TIP3    H182202   4.345   3.328   0.606 -1.8559  0.4325 -0.0951
20237TIP3    H282203   4.344   3.479   0.616  0.8451  0.4873  0.1149
20238TIP3   OH282204   5.064   5.028   2.034 -0.4958  0.2221 -0.3717
20238TIP3    H182205   5.068   5.036   1.939 -0.7874 -2.3907 -0.6848
20238TIP3    H282206   5.154   5.005   2.060 -0.8865 -1.5285 -0.3926
20239TIP3   OH282207   3.541   1.612  15.865 -0.2053 -0.5058  0.2593
20239TIP3    H182208   3.506   1.558  15.795 -0.1286  0.1283 -0.2750
20239TIP3    H282209   3.472   1.677  15.881  1.1514  1.4965 -1.6142
20240TIP3   OH282210   6.536   1.465  15.231 -0.5576  0.1704  0.3684
20240TIP3    H182211   6.498   1.536  15.179  1.1147  0.0979 -1.0629
20240TIP3    H282212   6.549   1.394  15.169  2.0272  0.2716  0.6755
20241TIP3   OH282213   1.362   1.123  12.918  1.0587  0.2053 -0.6053
20241TIP3    H182214   1.303   1.050  12.905 -0.0693  1.0618 -0.3962
20241TIP3    H282215   1.407   1.104  13.000  0.1458  0.1591 -0.1090
20242TIP3   OH282216   5.866   4.218  14.693 -0.2611  0.3790 -0.1195
20242TIP3    H182217   5.799   4.198  14.758 -0.9498 -0.6539 -1.1222
20242TIP3    H282218   5.860   4.148  14.628 -0.4702  2.0318 -1.9844
20243TIP3   OH282219   5.332   3.579  13.119 -0.0697  0.7140  0.1600
20243TIP3    H182220   5.314   3.644  13.187 -0.5843 -1.5749  2.3598
20243TIP3    H282221   5.246   3.555  13.085 -0.1413 -0.6078  1.1941
20244TIP3   OH282222   1.701   5.552  15.193  0.7171 -0.1905 -0.1349
20244TIP3    H182223   1.686   5.626  15.252  1.0162  0.3943 -0.7858
20244TIP3    H282224   1.631   5.558  15.128  0.0687 -1.1444  0.4438
20245CLA    CLA82225   4.632   1.645  12.002 -0.4073 -0.1899  0.2544
20246LIG     O182226   3.105   2.986   0.698  0.1200  0.3769  0.3108
20246LIG     O282227   3.426   2.918   0.660 -0.0433 -0.5908  0.3263
20246LIG     O382228   3.678   2.932   0.923 -0.1642 -1.0074  0.1766
20246LIG     O482229   3.643   2.860   0.636 -0.0265 -0.4764  0.1733
20246LIG      N82230   3.157   2.797   0.558 -0.5995 -0.3565  0.9406
20246LIG     C182231   3.263   2.884   0.487 -0.0935  0.2044  0.1394
20246LIG     C282232   3.032   2.827   0.475 -0.1026  0.1702  0.7176
20246LIG     C382233   3.190   2.651   0.551 -0.1618 -0.2304 -0.4736
20246LIG     C482234   3.130   2.846   0.698 -1.1686 -0.3238 -0.1382
20246LIG     C582235   3.411   2.866   0.526 -0.1645  0.2392 -0.0100
20246LIG     C682236   3.034   2.800   0.319  0.0417 -0.0263  0.0044
20246LIG     C782237   3.088   2.557   0.604  0.0716 -0.8325 -0.6074
20246LIG     C882238   3.568   2.978   0.849  1.2229  0.1233  0.4590
20246LIG     C982239   3.552   2.911   0.703 -0.1564 -0.5297 -0.0798
20246LIG    C1082240   2.997   3.010   0.784  0.7076  0.1261 -0.0831
20246LIG    C1182241   3.440   2.946   0.938 -0.2639 -0.2615 -0.2750
20246LIG    C1282242   3.578   3.130   0.806 -0.3134  0.3489  0.9212
20246LIG    C1382243   3.398   2.815   0.947 -0.0126 -0.0928 -0.4690
20246LIG    C1482244   3.469   3.194   0.749  0.9076 -0.1934  0.5048
20246LIG    C1582245   3.362   3.045   1.003  0.4720  0.6604  0.3733
20246LIG    C1682246   3.702   3.192   0.795  0.1000  0.7964 -0.0849
20246LIG    C1782247   3.275   2.779   1.004 -0.7727 -0.8720 -1.4649
20246LIG    C1882248   3.473   3.319   0.683 -0.0300 -0.1199 -0.5298
20246LIG    C1982249   3.231   3.011   1.052 -0.1825 -0.2001 -0.0976
20246LIG    C2082250   3.710   3.325   0.751  0.2148  0.1358  0.6336
20246LIG    C2182251   3.191   2.876   1.058 -0.5327  0.1198 -0.4895
20246LIG    C2282252   3.594   3.385   0.691 -0.7669 -0.2919 -0.7238
20246LIG     H182253   3.240   2.988   0.503 -0.9908 -0.0614  0.6087
20246LIG     H282254   3.269   2.873   0.380  0.6968  0.6116  0.1371
20246LIG     H382255   3.005   2.931   0.489 -3.3798 -0.7175  1.9599
20246LIG     H482256   2.945   2.777   0.516 -0.7997 -1.0942 -2.0762
20246LIG     H582257   3.283   2.635   0.603 -1.6942 -3.3575  1.6266
20246LIG     H682258   3.216   2.623   0.450  1.7873 -1.2322  0.2377
20246LIG     H782259   3.044   2.793   0.736  0.7830 -3.2497  0.5294
20246LIG     H882260   3.213   2.819   0.762 -1.8670 -0.2811  0.8109
20246LIG     H982261   3.437   2.758   0.529 -2.3779 -0.3454 -0.1343
20246LIG    H1082262   3.481   2.911   0.452 -2.5516  0.7040 -2.1565
20246LIG    H1182263   3.124   2.834   0.265  0.7716 -1.1578  0.4770
20246LIG    H1282264   2.952   2.853   0.265  2.2197  3.7663  0.1503
20246LIG    H1382265   3.026   2.691   0.298  0.3298  0.2513 -1.6364
20246LIG    H1482266   3.117   2.450   0.594  0.9811 -0.8158  1.2939
20246LIG    H1582267   2.994   2.574   0.548 -0.1457  0.3126  0.0684
20246LIG    H1682268   3.075   2.580   0.712  0.8570 -1.8040 -0.2875
20246LIG    H1782269   2.999   3.113   0.826  0.2510  1.8865 -3.9021
20246LIG    H1882270   3.003   2.934   0.864  0.3733  1.4353  1.2329
20246LIG    H1982271   2.897   2.993   0.739 -0.1486 -0.6801  2.0197
20246LIG    H2082272   3.689   3.003   0.987 -1.8136 -1.2563  0.7873
20246LIG    H2182273   3.449   2.731   0.902 -2.0934 -0.9106 -1.4003
20246LIG    H2282274   3.371   3.149   0.759 -0.0361  1.8388  1.0040
20246LIG    H2382275   3.386   3.150   1.010 -3.0392  1.5137  1.2441
20246LIG    H2482276   3.792   3.158   0.844 -0.8758  1.5540  2.3497
20246LIG    H2582277   3.240   2.677   0.999 -0.4865 -1.0564 -0.0607
20246LIG    H2682278   3.391   3.368   0.634 -0.3488 -0.2039 -0.0884
20246LIG    H2782279   3.169   3.090   1.092 -1.0585  0.0079 -1.7889
20246LIG    H2882280   3.802   3.382   0.759  0.1265  0.1510  1.7279
20246LIG    H2982281   3.094   2.855   1.099 -1.5858  0.3865 -2.7469
20246LIG    H3082282   3.606   3.485   0.652 -2.2185  0.7924  1.4195
   6.84217   6.84217  17.21876
