Title
55513
    1DOPE     N    1   3.831   2.796   7.035  0.0941  0.0841 -0.2137
    1DOPE   HN1    2   3.915   2.777   7.093 -2.2231 -3.3891  2.4065
    1DOPE   HN2    3   3.768   2.852   7.096  1.9668  2.1449 -0.0551
    1DOPE   HN3    4   3.784   2.704   7.022  2.4494 -1.1921 -0.2040
    1DOPE   C12    5   3.875   2.874   6.916  0.4177  0.2684 -0.4591
    1DOPE  H12A    6   3.964   2.822   6.876  1.8997  0.3658  2.4401
    1DOPE  H12B    7   3.903   2.974   6.955  1.1073 -0.2722  0.4787
    1DOPE   C11    8   3.772   2.895   6.805 -0.6904 -0.2751  0.0950
    1DOPE  H11A    9   3.722   2.810   6.753  0.9688 -1.4541  0.3367
    1DOPE  H11B   10   3.822   2.953   6.724 -1.1695  3.0266  1.9958
    1DOPE     P   11   3.651   3.129   6.820  0.1322  0.4123  0.3682
    1DOPE   O13   12   3.784   3.200   6.831 -0.0874  0.2581  0.3062
    1DOPE   O14   13   3.539   3.177   6.902 -0.4051  0.4403  0.3895
    1DOPE   O11   14   3.620   3.120   6.667 -0.1088 -0.0212 -0.0813
    1DOPE   O12   15   3.672   2.974   6.865 -0.7415  0.1734  0.6014
    1DOPE    C1   16   3.503   3.054   6.615 -0.0977  0.0859 -0.2149
    1DOPE    HA   17   3.404   3.094   6.646  0.7003  0.8130  1.4823
    1DOPE    HB   18   3.513   2.945   6.635 -0.6086  0.3607  1.7022
    1DOPE    C2   19   3.504   3.060   6.463 -0.4499  0.2800 -0.1707
    1DOPE    HS   20   3.411   3.009   6.428 -0.1061  0.8813 -2.1008
    1DOPE   O21   21   3.627   3.006   6.412  0.6227 -0.2199  0.3221
    1DOPE   C21   22   3.626   2.875   6.398  0.0472 -0.0012 -0.0018
    1DOPE   O22   23   3.536   2.799   6.424  0.5586  0.0059 -0.4820
    1DOPE   C22   24   3.760   2.828   6.340  0.5430 -0.9527  0.6671
    1DOPE   H2R   25   3.837   2.876   6.405  0.3487  0.1380  0.1253
    1DOPE   H2S   26   3.769   2.885   6.245 -1.1739 -0.4589  0.7601
    1DOPE    C3   27   3.492   3.199   6.427  0.2008 -0.0974 -0.5659
    1DOPE    HX   28   3.564   3.261   6.484 -0.4283 -0.3545  0.5541
    1DOPE    HY   29   3.394   3.227   6.472 -0.1134 -2.2746  0.2306
    1DOPE   O31   30   3.502   3.224   6.280 -0.6102  0.2796  0.2980
    1DOPE   C31   31   3.409   3.309   6.233 -0.5054 -0.4615  0.7158
    1DOPE   O32   32   3.302   3.341   6.283 -0.4981  0.4362  0.5071
    1DOPE   C32   33   3.461   3.349   6.101 -0.3422 -0.5334 -0.4149
    1DOPE   H2X   34   3.561   3.396   6.114 -1.6104  1.6354  2.8114
    1DOPE   H2Y   35   3.488   3.263   6.036  0.6763  2.1302 -3.7814
    1DOPE   C23   36   3.770   2.676   6.334  0.4877 -0.7524  0.3091
    1DOPE   H3R   37   3.683   2.621   6.291 -0.1824  0.0948  0.5596
    1DOPE   H3S   38   3.781   2.650   6.441  1.3865  1.3472  0.7674
    1DOPE   C24   39   3.901   2.627   6.272 -0.4161  0.1662  0.8367
    1DOPE   H4R   40   3.917   2.520   6.295  0.8191  0.1001 -0.1911
    1DOPE   H4S   41   3.986   2.680   6.319 -0.8187  1.3542  0.2761
    1DOPE   C25   42   3.909   2.631   6.111  0.0139  0.2377  0.2142
    1DOPE   H5R   43   3.813   2.605   6.062  0.0329  1.7376 -0.6531
    1DOPE   H5S   44   3.972   2.543   6.083 -0.9838 -0.5763  0.4792
    1DOPE   C26   45   3.958   2.769   6.070 -0.2942  0.2278  0.3801
    1DOPE   H6R   46   4.047   2.799   6.130  0.5344  2.9510 -1.9652
    1DOPE   H6S   47   3.881   2.847   6.086  0.0811  0.9302 -1.0434
    1DOPE   C27   48   3.999   2.758   5.924 -0.4877  0.3976 -0.4617
    1DOPE   H7R   49   4.068   2.673   5.909  2.1927  1.8876  2.3421
    1DOPE   H7S   50   4.061   2.847   5.899 -0.1360  0.2837 -0.0151
    1DOPE   C28   51   3.886   2.750   5.825  0.6671 -0.5947 -0.0460
    1DOPE   H8R   52   3.824   2.662   5.855 -0.8469  0.6658  0.7107
    1DOPE   H8S   53   3.937   2.720   5.731  2.3333 -3.5227  1.6658
    1DOPE   C29   54   3.799   2.871   5.806 -0.6919  0.6487 -0.1528
    1DOPE   H9R   55   3.770   2.920   5.901 -2.6191  1.1961 -0.9798
    1DOPE  C210   56   3.773   2.933   5.698 -0.3161 -0.3963  0.5930
    1DOPE  H10R   57   3.720   3.029   5.699 -0.5412 -0.5174  1.7423
    1DOPE  C211   58   3.828   2.892   5.563 -0.0381  0.2095  0.4748
    1DOPE  H11R   59   3.760   2.923   5.480 -1.8187 -2.4791  0.8012
    1DOPE  H11S   60   3.839   2.781   5.565 -1.8322 -0.0308 -0.6095
    1DOPE  C212   61   3.974   2.938   5.525  0.1943 -0.4073  0.2550
    1DOPE  H12R   62   4.044   2.899   5.602  1.4902 -1.5160 -1.4162
    1DOPE  H12S   63   3.971   3.048   5.540  1.4887 -0.2309 -0.5881
    1DOPE  C213   64   4.038   2.899   5.386 -0.3929  0.1796  0.5414
    1DOPE  H13R   65   4.143   2.934   5.376 -0.3441 -0.5373 -2.2810
    1DOPE  H13S   66   3.977   2.947   5.307  2.3039  0.0581 -1.7405
    1DOPE  C214   67   4.043   2.748   5.361 -0.1602 -0.1852 -0.8019
    1DOPE  H14R   68   3.939   2.708   5.363 -0.5946  0.8517 -1.6729
    1DOPE  H14S   69   4.107   2.701   5.439 -0.5695 -0.1790 -0.4533
    1DOPE  C215   70   4.108   2.698   5.231 -0.6372 -0.2574  0.4093
    1DOPE  H15R   71   4.126   2.589   5.234 -2.8705 -0.7635 -1.9611
    1DOPE  H15S   72   4.210   2.743   5.241 -0.7856  0.1878 -0.0405
    1DOPE  C216   73   4.031   2.728   5.103  0.9676  0.3202 -0.5782
    1DOPE  H16R   74   4.009   2.837   5.097 -0.4337  0.2286  1.5592
    1DOPE  H16S   75   3.934   2.675   5.116  0.2881  1.5485 -0.4965
    1DOPE  C217   76   4.101   2.672   4.982 -0.8245  0.3833 -0.2800
    1DOPE  H17R   77   4.135   2.571   5.013  2.0995  1.1658 -0.5732
    1DOPE  H17S   78   4.184   2.745   4.968 -0.3417  0.4338  2.4620
    1DOPE  C218   79   4.024   2.671   4.854  0.2434  0.2300 -0.6369
    1DOPE  H18R   80   4.089   2.615   4.783 -0.8576 -0.8433 -0.8211
    1DOPE  H18S   81   4.002   2.775   4.821 -0.3987  0.0719 -0.7080
    1DOPE  H18T   82   3.930   2.613   4.861  0.5935 -0.2054  0.9225
    1DOPE   C33   83   3.370   3.438   6.026 -0.3418 -0.5754 -0.6232
    1DOPE   H3X   84   3.304   3.512   6.075 -2.0996 -2.0321 -0.6610
    1DOPE   H3Y   85   3.288   3.377   5.982  1.0224 -1.9144 -1.4255
    1DOPE   C34   86   3.438   3.485   5.897 -0.2095  0.6047 -0.0017
    1DOPE   H4X   87   3.498   3.577   5.917  3.3799 -1.6243  0.3672
    1DOPE   H4Y   88   3.512   3.410   5.863 -1.7399 -1.0806  0.2573
    1DOPE   C35   89   3.342   3.522   5.783 -0.2856  0.1333 -0.1703
    1DOPE   H5X   90   3.274   3.596   5.830  0.3246  1.3002 -1.0640
    1DOPE   H5Y   91   3.281   3.435   5.751  0.5165  0.2565 -2.1767
    1DOPE   C36   92   3.406   3.602   5.670  0.1323  0.5217  0.0685
    1DOPE   H6X   93   3.468   3.533   5.609  0.2662 -0.5059  1.3115
    1DOPE   H6Y   94   3.474   3.678   5.714 -0.5060  0.0131  2.0366
    1DOPE   C37   95   3.299   3.663   5.573  0.4036 -0.3576  0.2086
    1DOPE   H7X   96   3.216   3.592   5.554 -0.0109 -0.0666  0.9086
    1DOPE   H7Y   97   3.248   3.744   5.629 -0.0339  0.0769 -0.7764
    1DOPE   C38   98   3.355   3.729   5.445 -0.4403 -0.2764 -0.6225
    1DOPE   H8X   99   3.430   3.809   5.462  1.0176 -1.3872 -1.6062
    1DOPE   H8Y  100   3.269   3.779   5.395  0.4713  0.3467 -1.6055
    1DOPE   C39  101   3.416   3.616   5.360  0.9950  0.2656  0.5659
    1DOPE   H9X  102   3.496   3.563   5.413 -1.0148 -0.1073  3.4675
    1DOPE  C310  103   3.376   3.586   5.232 -0.4193 -0.8148 -0.0267
    1DOPE  H10X  104   3.416   3.498   5.179 -1.0196 -0.3266 -1.3427
    1DOPE  C311  105   3.262   3.652   5.155  0.0585 -0.1371  0.4136
    1DOPE  H11X  106   3.218   3.738   5.210 -0.8324 -0.3422  0.0461
    1DOPE  H11Y  107   3.296   3.698   5.060  3.4700 -0.8146  1.1713
    1DOPE  C312  108   3.148   3.555   5.129  0.2541 -0.1269  0.4096
    1DOPE  H12X  109   3.113   3.512   5.225  1.0831 -4.1152 -0.8804
    1DOPE  H12Y  110   3.171   3.475   5.055  2.0658 -1.0293  1.8515
    1DOPE  C313  111   3.027   3.630   5.074 -0.4650  0.1782 -0.0550
    1DOPE  H13X  112   3.006   3.716   5.141  3.3692  0.7009  0.7131
    1DOPE  H13Y  113   3.043   3.682   4.977 -0.3596  0.2917  0.0232
    1DOPE  C314  114   2.905   3.541   5.054 -0.4762 -0.1166  0.3271
    1DOPE  H14X  115   2.836   3.608   4.998  0.8668  0.4830 -0.6857
    1DOPE  H14Y  116   2.857   3.510   5.149  1.4501 -2.1321  0.7336
    1DOPE  C315  117   2.941   3.413   4.976 -0.4142 -0.2081 -0.2143
    1DOPE  H15X  118   2.850   3.349   4.968 -1.9708  2.0619 -1.6897
    1DOPE  H15Y  119   3.011   3.349   5.034 -0.7254 -1.1202 -0.8218
    1DOPE  C316  120   3.000   3.456   4.840  0.0127 -0.0310  0.4485
    1DOPE  H16X  121   3.094   3.515   4.854  0.1916 -0.2145  0.0421
    1DOPE  H16Y  122   2.933   3.538   4.807  0.4751  0.4158  0.5970
    1DOPE  C317  123   3.007   3.353   4.731 -0.1410 -0.3882  0.5664
    1DOPE  H17X  124   3.032   3.407   4.637  1.2934  0.2597  1.2916
    1DOPE  H17Y  125   3.100   3.293   4.743  0.1832  0.3173  1.8048
    1DOPE  C318  126   2.891   3.258   4.707 -0.3766 -0.5058 -0.4557
    1DOPE  H18X  127   2.790   3.301   4.725 -0.0272 -0.4452  1.5614
    1DOPE  H18Y  128   2.887   3.228   4.600 -0.9965 -0.8614 -0.3341
    1DOPE  H18Z  129   2.901   3.165   4.766  0.0864  0.8328  1.6966
    2DOPE     N  130   2.902   4.751   7.018  0.2469  0.7481  0.1177
    2DOPE   HN1  131   2.943   4.692   6.943  2.4047  2.5070 -0.1802
    2DOPE   HN2  132   2.858   4.693   7.092  0.0604  1.0682  0.2628
    2DOPE   HN3  133   2.826   4.802   6.967  0.0681 -0.2828 -0.6953
    2DOPE   C12  134   3.007   4.827   7.094  0.4333  0.1735  0.0004
    2DOPE  H12A  135   2.973   4.829   7.200  2.2264 -0.2610  0.6143
    2DOPE  H12B  136   3.024   4.923   7.040  1.3548  0.1352  0.2135
    2DOPE   C11  137   3.150   4.761   7.096 -0.1752  0.2524  0.2684
    2DOPE  H11A  138   3.209   4.811   7.176 -1.3439  0.3584  1.0781
    2DOPE  H11B  139   3.203   4.773   6.999 -0.2780 -0.7887  0.0744
    2DOPE     P  140   3.249   4.520   7.139 -0.6723 -0.4472 -0.0900
    2DOPE   O13  141   3.189   4.393   7.177  0.1216 -0.1998 -0.4025
    2DOPE   O14  142   3.360   4.574   7.222 -0.1307 -0.2650 -0.2730
    2DOPE   O11  143   3.303   4.501   6.993  0.3002  0.5136  0.7306
    2DOPE   O12  144   3.135   4.626   7.136 -0.4787  0.3195  0.3134
    2DOPE    C1  145   3.212   4.480   6.889  0.2424 -0.4226  0.3789
    2DOPE    HA  146   3.138   4.563   6.891  3.0424  2.2413 -0.1155
    2DOPE    HB  147   3.156   4.385   6.905  0.2339 -0.2724  1.3267
    2DOPE    C2  148   3.273   4.495   6.745 -0.6403 -0.9988 -0.9336
    2DOPE    HS  149   3.189   4.491   6.672 -0.9384 -1.9742 -0.5519
    2DOPE   O21  150   3.364   4.390   6.730 -0.1919 -0.2091  0.2679
    2DOPE   C21  151   3.315   4.274   6.685  0.1595 -0.1980  0.5285
    2DOPE   O22  152   3.197   4.250   6.670  0.4514  0.0228  0.7969
    2DOPE   C22  153   3.433   4.179   6.655  0.6862 -0.0160 -0.9580
    2DOPE   H2R  154   3.484   4.165   6.753  0.8183 -2.3614 -1.3168
    2DOPE   H2S  155   3.507   4.238   6.597  0.7216  1.3009  0.3589
    2DOPE    C3  156   3.336   4.636   6.728 -0.0546  0.1449 -0.6894
    2DOPE    HX  157   3.431   4.619   6.782  0.7286  0.0163 -2.0652
    2DOPE    HY  158   3.261   4.707   6.769 -0.4483 -0.1103 -0.9537
    2DOPE   O31  159   3.362   4.656   6.590  0.2646 -0.8823 -0.6963
    2DOPE   C31  160   3.463   4.588   6.529 -0.1156 -1.3389 -0.1687
    2DOPE   O32  161   3.558   4.538   6.581  0.4925  0.0239  0.1836
    2DOPE   C32  162   3.435   4.582   6.378 -0.3227 -0.1959 -0.0454
    2DOPE   H2X  163   3.420   4.473   6.362 -1.4397 -0.2133  0.9599
    2DOPE   H2Y  164   3.338   4.631   6.356  0.5017  1.1418 -0.8482
    2DOPE   C23  165   3.397   4.050   6.587  0.2249 -0.8687  0.8256
    2DOPE   H3R  166   3.307   4.002   6.631  0.1458 -2.2796 -0.7769
    2DOPE   H3S  167   3.485   3.982   6.592  2.2113  1.4264 -0.6293
    2DOPE   C24  168   3.379   4.061   6.435  0.2913  0.0280 -0.0745
    2DOPE   H4R  169   3.477   4.070   6.384  1.3054 -3.0905  1.0825
    2DOPE   H4S  170   3.321   4.153   6.412  2.1724  0.5761 -3.2561
    2DOPE   C25  171   3.302   3.937   6.380  0.0991 -0.3731  0.4775
    2DOPE   H5R  172   3.234   3.905   6.462  1.6842 -1.6109  1.3713
    2DOPE   H5S  173   3.370   3.853   6.356 -1.0919 -1.2782  0.1984
    2DOPE   C26  174   3.224   3.963   6.252  0.7328  0.5425 -0.3842
    2DOPE   H6R  175   3.289   4.026   6.187  1.6194 -0.1280 -0.1672
    2DOPE   H6S  176   3.134   4.021   6.281 -0.3037 -1.6265  0.9608
    2DOPE   C27  177   3.176   3.828   6.197  0.0554 -0.5118  0.4107
    2DOPE   H7R  178   3.119   3.767   6.270 -0.7741 -0.2677 -0.0324
    2DOPE   H7S  179   3.264   3.765   6.170 -0.6288 -1.3534  0.0979
    2DOPE   C28  180   3.091   3.846   6.074  0.4892  0.0779 -0.2590
    2DOPE   H8R  181   3.008   3.911   6.107  0.7566  0.8938 -1.1541
    2DOPE   H8S  182   3.039   3.752   6.045 -0.2070  0.3973 -0.0452
    2DOPE   C29  183   3.156   3.907   5.952 -0.2431  0.4690 -0.1267
    2DOPE   H9R  184   3.264   3.927   5.956 -0.7172  3.3223  0.7815
    2DOPE  C210  185   3.099   3.917   5.831 -0.3319  0.4755  0.2190
    2DOPE  H10R  186   3.150   3.952   5.740 -2.5521 -1.9028 -2.1099
    2DOPE  C211  187   2.961   3.873   5.786 -0.1444 -0.6704 -0.4516
    2DOPE  H11R  188   2.922   3.938   5.704 -1.1864 -1.8605 -0.9313
    2DOPE  H11S  189   2.897   3.866   5.877  3.0147 -0.0005  2.0168
    2DOPE  C212  190   2.977   3.740   5.710  0.4925  0.0209  0.5283
    2DOPE  H12R  191   3.046   3.670   5.762 -1.8821 -1.1647  2.2716
    2DOPE  H12S  192   3.015   3.757   5.607  0.7911  0.9851  0.7824
    2DOPE  C213  193   2.841   3.662   5.701 -0.1685  0.3384  0.9571
    2DOPE  H13R  194   2.775   3.713   5.628 -0.3966 -0.4074  0.6315
    2DOPE  H13S  195   2.792   3.669   5.801 -2.2903 -0.6787  0.0448
    2DOPE  C214  196   2.849   3.511   5.658  0.1101  0.0170 -0.3740
    2DOPE  H14R  197   2.917   3.501   5.570  0.2190 -0.6698 -0.2164
    2DOPE  H14S  198   2.751   3.462   5.637 -0.2198 -0.0770  1.2990
    2DOPE  C215  199   2.911   3.426   5.768 -0.3955 -0.4438 -0.2979
    2DOPE  H15R  200   2.860   3.444   5.865 -3.1412 -0.4857 -1.6222
    2DOPE  H15S  201   3.013   3.467   5.785 -1.2259  1.1519  1.1211
    2DOPE  C216  202   2.911   3.275   5.735 -0.3039 -0.6157  0.5081
    2DOPE  H16R  203   2.810   3.239   5.706 -0.3098  1.4482 -2.4647
    2DOPE  H16S  204   2.959   3.213   5.813  1.0346 -0.7603 -0.3930
    2DOPE  C217  205   3.016   3.249   5.619  0.2753  0.4577  0.3468
    2DOPE  H17R  206   3.103   3.317   5.635 -0.3656  1.2271  0.6377
    2DOPE  H17S  207   2.969   3.278   5.523  1.5948  0.3932 -0.3457
    2DOPE  C218  208   3.046   3.099   5.607  0.5843  0.0159 -0.3106
    2DOPE  H18R  209   2.957   3.033   5.603 -0.8294  1.8738 -1.4006
    2DOPE  H18S  210   3.102   3.063   5.696 -1.9222 -3.0214  0.1869
    2DOPE  H18T  211   3.102   3.076   5.513  0.1730  0.8621 -0.7770
    2DOPE   C33  212   3.560   4.624   6.293 -0.4379  0.1641 -0.6983
    2DOPE   H3X  213   3.652   4.580   6.338 -1.0175  1.0040  1.4407
    2DOPE   H3Y  214   3.583   4.732   6.305 -0.5414  0.0377  0.8217
    2DOPE   C34  215   3.553   4.566   6.152 -0.1507  0.3068  0.4058
    2DOPE   H4X  216   3.591   4.461   6.151 -0.4006  0.2170 -0.1781
    2DOPE   H4Y  217   3.447   4.564   6.119  0.1756  1.1970 -0.7949
    2DOPE   C35  218   3.628   4.660   6.050  0.3275 -0.0012 -0.3006
    2DOPE   H5X  219   3.736   4.669   6.073  0.3639  0.5235 -0.6682
    2DOPE   H5Y  220   3.599   4.767   6.053 -0.8934 -0.3166 -0.3335
    2DOPE   C36  221   3.618   4.599   5.913  0.4014 -0.1169 -0.4525
    2DOPE   H6X  222   3.508   4.590   5.900  0.4858 -0.3458 -0.9951
    2DOPE   H6Y  223   3.653   4.494   5.913 -0.1035 -0.2958  0.2297
    2DOPE   C37  224   3.691   4.677   5.804 -0.0633 -0.0649  0.1623
    2DOPE   H7X  225   3.650   4.780   5.802  0.2518  0.0858  1.0580
    2DOPE   H7Y  226   3.797   4.682   5.836  0.0467 -0.3199 -0.1573
    2DOPE   C38  227   3.668   4.604   5.668 -0.2567  0.6807 -0.1374
    2DOPE   H8X  228   3.562   4.574   5.655 -0.4758  0.6481  1.4393
    2DOPE   H8Y  229   3.726   4.509   5.669  1.9284  1.8760 -2.0786
    2DOPE   C39  230   3.727   4.686   5.553  0.1155 -0.1203 -0.0316
    2DOPE   H9X  231   3.834   4.707   5.564 -0.1954  1.4495  0.1755
    2DOPE  C310  232   3.666   4.733   5.439 -0.2247 -0.2017 -0.1011
    2DOPE  H10X  233   3.721   4.790   5.362  0.9423 -1.0189  0.1117
    2DOPE  C311  234   3.515   4.720   5.405  0.9110  0.2143 -0.6084
    2DOPE  H11X  235   3.487   4.664   5.313  1.9675 -1.5203  0.0614
    2DOPE  H11Y  236   3.473   4.676   5.499  2.3058 -0.9677 -0.4945
    2DOPE  C312  237   3.469   4.862   5.400  0.1371  0.2346  0.0318
    2DOPE  H12X  238   3.505   4.909   5.306  2.1075 -0.1619  0.5322
    2DOPE  H12Y  239   3.512   4.918   5.486  0.4958  1.8595 -1.1539
    2DOPE  C313  240   3.320   4.873   5.407 -0.0170  0.7412  0.4527
    2DOPE  H13X  241   3.275   4.802   5.479  1.1486  0.5277  0.9993
    2DOPE  H13Y  242   3.296   4.978   5.433  0.5663  1.3996 -1.5053
    2DOPE  C314  243   3.237   4.849   5.275 -0.0358  0.2457  0.1408
    2DOPE  H14X  244   3.273   4.760   5.218 -0.1928 -0.0524  0.5051
    2DOPE  H14Y  245   3.257   4.926   5.197 -1.3584  0.8995  0.4374
    2DOPE  C315  246   3.087   4.828   5.304  0.3646  0.3314  0.1467
    2DOPE  H15X  247   3.064   4.925   5.353 -0.2353 -0.6795  1.9328
    2DOPE  H15Y  248   3.073   4.750   5.382 -2.5879  1.2615  0.6708
    2DOPE  C316  249   3.006   4.806   5.175  0.5185  0.1990  0.3383
    2DOPE  H16X  250   3.029   4.716   5.114  0.8328  0.0750  0.6398
    2DOPE  H16Y  251   3.031   4.890   5.107 -0.7701 -0.0750 -0.5253
    2DOPE  C317  252   2.852   4.827   5.183 -0.8550 -0.2986  0.0901
    2DOPE  H17X  253   2.823   4.755   5.263 -3.0670  1.3206  0.8628
    2DOPE  H17Y  254   2.839   4.934   5.208 -0.0600 -0.2823  0.4847
    2DOPE  C318  255   2.782   4.796   5.048 -0.1369  0.1435  0.3743
    2DOPE  H18X  256   2.816   4.874   4.976 -0.5539  1.1376  1.2389
    2DOPE  H18Y  257   2.829   4.702   5.010  0.3061  0.6549 -0.3681
    2DOPE  H18Z  258   2.673   4.783   5.063 -0.4269  1.0467 -0.7752
    3DOPE     N  259   3.042   4.045   6.779 -0.4806  0.0170 -0.9560
    3DOPE   HN1  260   3.099   4.129   6.754  0.8539 -0.5004  0.1854
    3DOPE   HN2  261   3.108   3.982   6.830  1.7416  1.1412 -2.2657
    3DOPE   HN3  262   3.004   3.999   6.694  0.5413 -0.5374 -1.1360
    3DOPE   C12  263   2.932   4.075   6.876 -0.1158  0.2678 -0.0204
    3DOPE  H12A  264   2.980   4.096   6.974  0.7955 -1.2408 -0.1168
    3DOPE  H12B  265   2.889   3.975   6.900  0.7546 -0.1847 -0.3107
    3DOPE   C11  266   2.842   4.180   6.821  0.5647 -0.8927  1.0098
    3DOPE  H11A  267   2.739   4.160   6.857  1.2762 -3.5255  1.7728
    3DOPE  H11B  268   2.847   4.157   6.712  1.0041 -0.7157  0.9910
    3DOPE     P  269   2.829   4.430   6.780 -0.3923  0.1274  0.2632
    3DOPE   O13  270   2.908   4.550   6.811  0.0644  0.2387 -0.2102
    3DOPE   O14  271   2.690   4.439   6.822  0.7060  0.3833  0.2262
    3DOPE   O11  272   2.846   4.392   6.631  0.2166 -0.1650 -0.0771
    3DOPE   O12  273   2.894   4.312   6.858  0.5061  0.3768 -0.7435
    3DOPE    C1  274   2.909   4.493   6.550  0.3061  0.2863  0.5623
    3DOPE    HA  275   3.010   4.507   6.594  0.2245 -0.9640  1.1968
    3DOPE    HB  276   2.859   4.592   6.543  0.7118  0.4219 -0.4820
    3DOPE    C2  277   2.950   4.439   6.410  0.1205 -0.2252 -0.2561
    3DOPE    HS  278   3.016   4.515   6.362 -0.5947  0.5836  0.0172
    3DOPE   O21  279   2.832   4.397   6.337  0.0334 -0.2480 -0.2511
    3DOPE   C21  280   2.743   4.494   6.314  0.5161 -1.2994 -0.2570
    3DOPE   O22  281   2.773   4.613   6.336  0.0437 -0.4238  0.3976
    3DOPE   C22  282   2.611   4.447   6.261  0.1535 -0.4554  0.4336
    3DOPE   H2R  283   2.534   4.433   6.340 -0.7199  0.7203 -0.1818
    3DOPE   H2S  284   2.620   4.341   6.227  0.0227 -0.4938  0.5167
    3DOPE    C3  285   3.041   4.308   6.419 -0.1695 -0.1308 -0.3665
    3DOPE    HX  286   2.986   4.240   6.488 -1.4566  0.8070 -0.4221
    3DOPE    HY  287   3.136   4.339   6.467 -0.2491  0.3501 -0.5105
    3DOPE   O31  288   3.072   4.246   6.293  0.3478  0.3518 -0.2659
    3DOPE   C31  289   3.132   4.311   6.193  0.8399  1.0100 -0.4477
    3DOPE   O32  290   3.183   4.422   6.204 -0.0432  0.1515  0.3317
    3DOPE   C32  291   3.120   4.226   6.065 -0.0636 -0.0480 -0.4555
    3DOPE   H2X  292   3.216   4.180   6.032  0.4025 -0.0490  0.8124
    3DOPE   H2Y  293   3.049   4.144   6.090  1.0738 -1.8663 -2.7921
    3DOPE   C23  294   2.559   4.534   6.139  0.4676  0.5213  0.5141
    3DOPE   H3R  295   2.642   4.520   6.067  0.5714 -0.3303  0.7962
    3DOPE   H3S  296   2.527   4.638   6.166 -3.7302 -0.2838 -0.5986
    3DOPE   C24  297   2.435   4.464   6.076 -0.1333 -0.1840 -0.6340
    3DOPE   H4R  298   2.367   4.423   6.154 -0.8233  0.6218 -0.7968
    3DOPE   H4S  299   2.472   4.380   6.014 -0.3002  0.2507 -1.3274
    3DOPE   C25  300   2.357   4.541   5.973  0.2271  0.3041 -0.3592
    3DOPE   H5R  301   2.405   4.637   5.946  0.0821  0.6071  0.4328
    3DOPE   H5S  302   2.253   4.565   6.005 -0.7923 -0.7871 -2.5817
    3DOPE   C26  303   2.339   4.460   5.839  0.3540  0.2184  0.3248
    3DOPE   H6R  304   2.279   4.371   5.867  0.5249 -1.0006 -2.7746
    3DOPE   H6S  305   2.435   4.429   5.793  0.5207  3.1321 -1.5891
    3DOPE   C27  306   2.263   4.543   5.731 -0.2536  0.2649  0.0242
    3DOPE   H7R  307   2.339   4.616   5.695  0.0453  0.0415  0.1943
    3DOPE   H7S  308   2.185   4.604   5.780 -1.6160  0.8013 -2.6058
    3DOPE   C28  309   2.200   4.468   5.617  0.4398 -0.0264  0.7836
    3DOPE   H8R  310   2.144   4.541   5.555  0.9834 -0.4328 -0.2025
    3DOPE   H8S  311   2.111   4.411   5.650  0.8309 -0.2580  1.4602
    3DOPE   C29  312   2.292   4.372   5.538 -0.3834 -0.7030  0.3031
    3DOPE   H9R  313   2.340   4.295   5.600 -0.1156 -0.2873  0.6160
    3DOPE  C210  314   2.298   4.359   5.406 -0.6442  0.5615 -0.5305
    3DOPE  H10R  315   2.380   4.303   5.359 -0.5801  0.0058  0.2239
    3DOPE  C211  316   2.218   4.432   5.302 -0.3337  0.0189  0.4102
    3DOPE  H11R  317   2.289   4.480   5.232  1.2222 -2.6985 -0.0443
    3DOPE  H11S  318   2.147   4.500   5.353 -0.9893 -0.3925  0.0610
    3DOPE  C212  319   2.139   4.331   5.214  0.0105  0.3832  0.6338
    3DOPE  H12R  320   2.082   4.269   5.287  0.2437  2.5758  2.8194
    3DOPE  H12S  321   2.213   4.271   5.158  0.1476  0.5215  0.6674
    3DOPE  C213  322   2.033   4.392   5.107 -0.0961 -0.0541 -0.3737
    3DOPE  H13R  323   2.102   4.453   5.044 -1.1757  1.4093 -0.1983
    3DOPE  H13S  324   1.969   4.473   5.148  0.0921 -1.3788  2.7455
    3DOPE  C214  325   1.969   4.280   5.026  0.1749 -0.3083  0.5252
    3DOPE  H14R  326   1.911   4.224   5.103  0.3683  0.2170  1.0613
    3DOPE  H14S  327   2.049   4.213   4.987  0.4522  0.4192 -0.1866
    3DOPE  C215  328   1.877   4.332   4.912  0.1274  0.1417  0.0308
    3DOPE  H15R  329   1.933   4.404   4.850  0.9157  1.0325  1.6963
    3DOPE  H15S  330   1.790   4.391   4.947 -2.1167 -1.8709 -1.8506
    3DOPE  C216  331   1.829   4.214   4.833 -0.0896  0.0952 -0.1466
    3DOPE  H16R  332   1.822   4.130   4.906  0.3280  2.3482  2.6408
    3DOPE  H16S  333   1.907   4.180   4.762  0.4132 -0.0411  0.4586
    3DOPE  C217  334   1.697   4.251   4.764  0.3967  0.4661 -0.2757
    3DOPE  H17R  335   1.718   4.351   4.721 -0.8260  0.7668 -0.2273
    3DOPE  H17S  336   1.621   4.270   4.843  2.1278 -1.4306  2.0020
    3DOPE  C218  337   1.640   4.156   4.655 -0.5518 -0.3643 -0.0744
    3DOPE  H18R  338   1.630   4.051   4.691  1.1937 -0.1270  1.1871
    3DOPE  H18S  339   1.710   4.146   4.569  0.6765  1.2302  0.7068
    3DOPE  H18T  340   1.540   4.197   4.628 -1.2656 -0.8913  1.6393
    3DOPE   C33  341   3.062   4.310   5.950 -0.7060  0.6396 -0.1264
    3DOPE   H3X  342   3.071   4.248   5.858 -2.1445  1.9495 -1.2096
    3DOPE   H3Y  343   3.135   4.392   5.934  0.5517 -0.3401  0.4102
    3DOPE   C34  344   2.919   4.364   5.966 -0.6705 -0.2462  0.3624
    3DOPE   H4X  345   2.897   4.377   6.075 -0.2720  0.1564  0.3984
    3DOPE   H4Y  346   2.920   4.463   5.914  2.0576 -0.4739 -0.1996
    3DOPE   C35  347   2.798   4.280   5.924  0.3233 -0.4376 -0.1442
    3DOPE   H5X  348   2.707   4.331   5.961  0.5190 -0.4859  0.4301
    3DOPE   H5Y  349   2.794   4.178   5.970 -0.3982 -0.1552  0.4335
    3DOPE   C36  350   2.781   4.257   5.773  0.3969  0.2228  1.0339
    3DOPE   H6X  351   2.882   4.251   5.727 -0.3352 -0.0781 -0.6047
    3DOPE   H6Y  352   2.725   4.346   5.738  0.1274  0.2728  1.5821
    3DOPE   C37  353   2.697   4.135   5.740  0.2192  0.2290 -0.0548
    3DOPE   H7X  354   2.755   4.048   5.779  0.1963 -0.5946 -1.7689
    3DOPE   H7Y  355   2.601   4.141   5.795 -0.4494 -0.5007 -1.1005
    3DOPE   C38  356   2.675   4.118   5.586 -0.1499  0.4663 -0.7909
    3DOPE   H8X  357   2.770   4.095   5.532  0.8658 -1.5134  1.6489
    3DOPE   H8Y  358   2.634   4.216   5.554  0.6841  0.7553 -1.0152
    3DOPE   C39  359   2.568   4.011   5.559 -0.0965  0.2548 -0.3673
    3DOPE   H9X  360   2.495   4.007   5.641  1.6099  0.8896  1.2673
    3DOPE  C310  361   2.561   3.917   5.463 -0.4886 -0.0644  0.6831
    3DOPE  H10X  362   2.465   3.865   5.454 -1.0473  0.2885  3.6025
    3DOPE  C311  363   2.666   3.896   5.349 -0.0771 -0.0658 -0.0654
    3DOPE  H11X  364   2.765   3.929   5.388  0.6387 -0.0640 -1.7722
    3DOPE  H11Y  365   2.688   3.789   5.330  2.4772  0.4731 -0.5539
    3DOPE  C312  366   2.644   3.965   5.216 -0.2577 -0.1165 -0.2757
    3DOPE  H12X  367   2.745   3.982   5.173 -0.0650  2.5795  1.0513
    3DOPE  H12Y  368   2.591   4.062   5.215 -1.6282 -0.8395 -1.6137
    3DOPE  C313  369   2.565   3.884   5.119  0.0000  0.1392  0.5452
    3DOPE  H13X  370   2.613   3.785   5.101 -2.5583 -1.2430  0.7973
    3DOPE  H13Y  371   2.465   3.862   5.163  0.6852  0.3497  2.2981
    3DOPE  C314  372   2.555   3.948   4.977 -0.0451 -0.7851  0.3217
    3DOPE  H14X  373   2.661   3.970   4.952  0.0154 -0.6069  0.7187
    3DOPE  H14Y  374   2.501   4.045   4.970  0.3892 -0.5308  0.4450
    3DOPE  C315  375   2.495   3.864   4.867  1.1954  0.7491  0.6609
    3DOPE  H15X  376   2.391   3.839   4.896  1.2804  0.9165  1.1316
    3DOPE  H15Y  377   2.551   3.769   4.859  0.7860  0.4363  1.3998
    3DOPE  C316  378   2.493   3.938   4.736 -0.2999  0.0422  0.3453
    3DOPE  H16X  379   2.595   3.944   4.693 -0.0199 -0.8199  0.8503
    3DOPE  H16Y  380   2.457   4.041   4.758  0.7341  0.2439  1.2074
    3DOPE  C317  381   2.411   3.868   4.631  0.2553  0.1527  0.2314
    3DOPE  H17X  382   2.459   3.769   4.610  0.5003 -0.0833  1.8145
    3DOPE  H17Y  383   2.308   3.856   4.671 -0.5242  1.6345 -1.1944
    3DOPE  C318  384   2.401   3.942   4.491 -0.1184  0.4439 -0.2300
    3DOPE  H18X  385   2.353   3.869   4.423  1.5564 -1.5029  0.5691
    3DOPE  H18Y  386   2.358   4.044   4.494 -0.4124  0.3108  2.5827
    3DOPE  H18Z  387   2.501   3.954   4.444  0.2811  0.3338  0.5717
    4DOPE     N  388   3.678   2.187   7.274 -0.2506  0.9605  0.2227
    4DOPE   HN1  389   3.748   2.123   7.316  0.9061  0.1261 -2.7064
    4DOPE   HN2  390   3.724   2.279   7.257 -1.0862  1.3989  0.2682
    4DOPE   HN3  391   3.593   2.199   7.332 -1.9788  0.2031 -1.9923
    4DOPE   C12  392   3.635   2.123   7.149  0.6247 -0.2945 -0.2520
    4DOPE  H12A  393   3.576   2.033   7.175 -1.3200  0.8888 -0.4173
    4DOPE  H12B  394   3.729   2.085   7.102  1.1360  0.6806 -0.0348
    4DOPE   C11  395   3.556   2.217   7.057  0.5034  0.7058  0.2895
    4DOPE  H11A  396   3.475   2.258   7.121  0.1092 -1.0529  0.9810
    4DOPE  H11B  397   3.511   2.157   6.975 -0.5618 -1.3973  2.3065
    4DOPE     P  398   3.588   2.462   6.999 -0.1398  0.1664  0.0319
    4DOPE   O13  399   3.702   2.553   6.969  0.8629  0.1749 -0.3160
    4DOPE   O14  400   3.518   2.488   7.121  0.3757 -0.2345 -0.0608
    4DOPE   O11  401   3.490   2.455   6.885 -0.0387 -0.4862 -0.2160
    4DOPE   O12  402   3.643   2.311   7.004  0.1870 -0.5848 -0.7097
    4DOPE    C1  403   3.492   2.527   6.762 -0.0420  0.4721 -0.3490
    4DOPE    HA  404   3.583   2.590   6.754  1.1937 -1.3272 -1.0872
    4DOPE    HB  405   3.396   2.583   6.765 -0.9054 -0.9570  2.7684
    4DOPE    C2  406   3.477   2.432   6.637 -0.2691 -0.1288  0.0586
    4DOPE    HS  407   3.386   2.372   6.661  0.5503 -1.1733  0.6198
    4DOPE   O21  408   3.594   2.356   6.631  0.2887 -0.2389  0.3905
    4DOPE   C21  409   3.605   2.228   6.601 -0.1260  0.2084 -0.2596
    4DOPE   O22  410   3.505   2.158   6.577 -1.4723 -0.0497 -0.0572
    4DOPE   C22  411   3.749   2.179   6.591  0.0908  0.5034  0.6135
    4DOPE   H2R  412   3.745   2.072   6.561 -2.0869  0.5647  0.5670
    4DOPE   H2S  413   3.800   2.189   6.689 -1.2728 -0.9092  1.5082
    4DOPE    C3  414   3.460   2.515   6.505  0.6344 -0.4025 -0.0244
    4DOPE    HX  415   3.556   2.570   6.498 -0.3360  1.6355  1.5798
    4DOPE    HY  416   3.392   2.600   6.523  1.6103  0.2392  0.6879
    4DOPE   O31  417   3.427   2.436   6.386  1.0237 -0.1561  0.1169
    4DOPE   C31  418   3.317   2.362   6.396  0.3295  0.5465  0.6253
    4DOPE   O32  419   3.230   2.362   6.480 -0.3660  0.2064  0.6753
    4DOPE   C32  420   3.321   2.264   6.274 -0.0781  0.4047 -0.0558
    4DOPE   H2X  421   3.377   2.308   6.189  1.9448 -1.9473 -0.0594
    4DOPE   H2Y  422   3.371   2.177   6.321 -2.9897 -0.0940  2.4791
    4DOPE   C23  423   3.812   2.256   6.470 -0.1455  0.6618 -0.5449
    4DOPE   H3R  424   3.920   2.233   6.452 -0.5496 -0.6709 -1.4315
    4DOPE   H3S  425   3.796   2.364   6.487  0.1674  0.4047  1.6340
    4DOPE   C24  426   3.745   2.209   6.338  0.3251  0.0467  0.0149
    4DOPE   H4R  427   3.634   2.212   6.343  0.2450  1.5373 -1.5044
    4DOPE   H4S  428   3.787   2.107   6.326  3.2557  0.9754  1.4093
    4DOPE   C25  429   3.789   2.287   6.211  0.3108  0.3340 -0.4768
    4DOPE   H5R  430   3.899   2.299   6.204  0.3274  0.8728  0.6114
    4DOPE   H5S  431   3.752   2.391   6.220  2.3556  1.0600 -0.0067
    4DOPE   C26  432   3.731   2.204   6.093  0.1463 -0.3547  0.0658
    4DOPE   H6R  433   3.621   2.217   6.099  0.1870 -0.7225  3.3913
    4DOPE   H6S  434   3.752   2.096   6.112  2.3694  0.2752  1.6499
    4DOPE   C27  435   3.801   2.251   5.969  0.5411 -0.4020  0.4699
    4DOPE   H7R  436   3.912   2.247   5.975  0.5169 -2.0007  0.4137
    4DOPE   H7S  437   3.761   2.352   5.947 -0.0297 -0.1220  2.5853
    4DOPE   C28  438   3.757   2.159   5.850  0.1201 -0.0639 -0.3106
    4DOPE   H8R  439   3.805   2.203   5.760 -0.7504  0.9893 -0.2851
    4DOPE   H8S  440   3.649   2.180   5.833  0.2106 -0.5701 -1.6196
    4DOPE   C29  441   3.794   2.015   5.864  0.2413 -0.6611 -0.1254
    4DOPE   H9R  442   3.902   1.995   5.873  0.3902  0.2909  0.3445
    4DOPE  C210  443   3.700   1.921   5.883 -0.1479 -0.3030 -0.7674
    4DOPE  H10R  444   3.728   1.815   5.897 -0.7120 -0.3472  0.1074
    4DOPE  C211  445   3.547   1.927   5.891  0.3731  0.1202  0.2056
    4DOPE  H11R  446   3.501   2.023   5.921 -0.8657 -0.5142  0.3826
    4DOPE  H11S  447   3.509   1.858   5.970 -2.5860  2.6918  1.2266
    4DOPE  C212  448   3.460   1.885   5.773  0.5634  0.2187 -0.5139
    4DOPE  H12R  449   3.353   1.903   5.799  0.0923 -0.4718 -1.8671
    4DOPE  H12S  450   3.466   1.774   5.768  1.8103  0.2034  0.7635
    4DOPE  C213  451   3.484   1.962   5.645  0.3853 -0.2019 -0.0472
    4DOPE  H13R  452   3.592   1.960   5.622  0.0615 -1.9110 -1.6865
    4DOPE  H13S  453   3.444   2.064   5.662  2.3894  0.7784 -0.9413
    4DOPE  C214  454   3.415   1.913   5.520  0.1139 -0.4448 -0.5855
    4DOPE  H14R  455   3.450   1.811   5.493  2.0278  0.5156 -1.9901
    4DOPE  H14S  456   3.431   1.982   5.434  1.0804  0.5015  0.3352
    4DOPE  C215  457   3.268   1.878   5.546  0.2014  0.3729  0.1465
    4DOPE  H15R  458   3.264   1.801   5.626  0.8505 -0.4454 -0.5910
    4DOPE  H15S  459   3.227   1.832   5.454  2.4873 -0.8802 -0.3251
    4DOPE  C216  460   3.173   1.997   5.581 -0.1870 -0.0721  0.1459
    4DOPE  H16R  461   3.150   2.059   5.492  0.1846  0.0696  0.1480
    4DOPE  H16S  462   3.235   2.052   5.654  2.0061 -1.1157 -0.8459
    4DOPE  C217  463   3.045   1.950   5.643  0.7372  0.1184 -0.2722
    4DOPE  H17R  464   2.992   2.040   5.679  0.5459  0.3948 -1.2313
    4DOPE  H17S  465   3.079   1.880   5.722  4.6172 -1.7374 -3.2159
    4DOPE  C218  466   2.952   1.877   5.552  0.1843  0.4437 -0.0599
    4DOPE  H18R  467   2.918   1.932   5.463 -0.3185  0.9389  0.4357
    4DOPE  H18S  468   2.864   1.846   5.613 -0.9121  1.3409 -1.1525
    4DOPE  H18T  469   3.002   1.779   5.532 -2.6037 -1.2656  0.6956
    4DOPE   C33  470   3.176   2.217   6.237  0.2821  0.6851  0.1437
    4DOPE   H3X  471   3.113   2.214   6.329 -1.0022  3.2693 -0.5581
    4DOPE   H3Y  472   3.191   2.115   6.193  1.5594  0.4193  1.1191
    4DOPE   C34  473   3.110   2.319   6.139 -0.0607 -0.2904 -0.6265
    4DOPE   H4X  474   3.000   2.324   6.151 -0.4168  3.1595 -3.5295
    4DOPE   H4Y  475   3.139   2.424   6.166  0.8661 -0.9769  1.2404
    4DOPE   C35  476   3.138   2.286   5.995  0.1063 -0.5349 -0.3922
    4DOPE   H5X  477   3.107   2.184   5.965  1.5604 -1.1750  0.1544
    4DOPE   H5Y  478   3.248   2.291   5.983 -0.0095 -0.7218 -1.6240
    4DOPE   C36  479   3.077   2.391   5.897 -0.4574  0.4806  0.2151
    4DOPE   H6X  480   3.104   2.495   5.924  3.1670 -0.5834  1.2682
    4DOPE   H6Y  481   2.966   2.383   5.895 -0.3787 -1.0144 -2.0134
    4DOPE   C37  482   3.125   2.372   5.749  0.6162 -0.6176 -0.4528
    4DOPE   H7X  483   3.107   2.266   5.719 -0.8420 -1.3390  2.6052
    4DOPE   H7Y  484   3.061   2.426   5.676 -0.0303 -1.5752 -0.6174
    4DOPE   C38  485   3.280   2.387   5.721 -0.5750 -0.2070 -0.2218
    4DOPE   H8X  486   3.289   2.372   5.611  1.1258 -1.1218  0.0152
    4DOPE   H8Y  487   3.332   2.304   5.775 -0.2626  0.8872  1.2170
    4DOPE   C39  488   3.351   2.518   5.766  0.2549  0.3492 -0.1777
    4DOPE   H9X  489   3.284   2.593   5.810 -3.0264 -1.3703 -1.8958
    4DOPE  C310  490   3.476   2.549   5.759 -0.7622 -0.5169 -0.7201
    4DOPE  H10X  491   3.507   2.652   5.783 -2.4368  0.3313 -1.9685
    4DOPE  C311  492   3.584   2.461   5.699  0.0715 -0.5234 -0.4617
    4DOPE  H11X  493   3.671   2.451   5.768  0.0721 -0.4525 -0.4512
    4DOPE  H11Y  494   3.551   2.356   5.689  0.0500 -0.5741  0.1046
    4DOPE  C312  495   3.630   2.507   5.551  0.1133  0.4936 -0.2931
    4DOPE  H12X  496   3.732   2.465   5.538  1.0138  1.1786  3.2704
    4DOPE  H12Y  497   3.630   2.618   5.549  0.2867  0.5294  0.9815
    4DOPE  C313  498   3.538   2.444   5.453 -0.1582 -0.2908 -0.1636
    4DOPE  H13X  499   3.546   2.334   5.465 -2.3235 -0.3701  1.0731
    4DOPE  H13Y  500   3.430   2.450   5.478 -0.2550 -1.9717 -0.0795
    4DOPE  C314  501   3.567   2.472   5.306 -0.5676 -0.7452  0.0072
    4DOPE  H14X  502   3.676   2.484   5.286 -0.6026  0.6195  0.5448
    4DOPE  H14Y  503   3.528   2.572   5.275 -0.2585  0.0722  2.1025
    4DOPE  C315  504   3.524   2.364   5.214  0.4145  0.5451  0.1952
    4DOPE  H15X  505   3.420   2.331   5.235  0.7063  0.2613  1.2259
    4DOPE  H15Y  506   3.604   2.288   5.201 -0.7045 -0.4108 -1.5195
    4DOPE  C316  507   3.512   2.417   5.070 -0.3344  0.1057  0.1875
    4DOPE  H16X  508   3.606   2.469   5.042  0.4435 -1.3114  0.0721
    4DOPE  H16Y  509   3.432   2.494   5.068 -1.8834 -1.3465  1.8967
    4DOPE  C317  510   3.498   2.301   4.970  0.9079  0.2380 -0.5375
    4DOPE  H17X  511   3.572   2.220   4.954  0.0318 -0.7184  0.1626
    4DOPE  H17Y  512   3.403   2.255   5.004  2.0786 -1.8126  0.1531
    4DOPE  C318  513   3.476   2.351   4.828 -0.2019  0.0398 -0.0085
    4DOPE  H18X  514   3.421   2.447   4.823 -1.9039 -0.9265 -0.6566
    4DOPE  H18Y  515   3.577   2.375   4.788 -0.6717 -0.4788 -1.5743
    4DOPE  H18Z  516   3.428   2.278   4.760  0.0512  0.9613 -1.2074
    5DOPE     N  517   2.021   3.581   6.905 -0.4154  0.3366 -0.2160
    5DOPE   HN1  518   1.923   3.549   6.914  0.3653 -1.6967  2.2243
    5DOPE   HN2  519   2.087   3.518   6.854  1.6297  2.2783 -0.1368
    5DOPE   HN3  520   2.058   3.591   7.001 -2.1317  1.8676  0.3365
    5DOPE   C12  521   2.014   3.718   6.851  0.5498  0.6933 -0.9684
    5DOPE  H12A  522   1.981   3.705   6.746 -1.6245  0.9776 -0.3619
    5DOPE  H12B  523   2.114   3.767   6.857  0.3475  0.9636  0.7067
    5DOPE   C11  524   1.911   3.799   6.933  0.3764 -0.1822  0.5734
    5DOPE  H11A  525   1.908   3.906   6.906  1.2169  0.0225  1.2752
    5DOPE  H11B  526   1.929   3.797   7.043 -1.8917  0.1119  1.0125
    5DOPE     P  527   1.647   3.783   6.948  0.1949  0.0525 -0.0712
    5DOPE   O13  528   1.653   3.924   6.899 -0.6603  0.1674  0.0677
    5DOPE   O14  529   1.623   3.766   7.092  0.5618 -0.2437 -0.3788
    5DOPE   O11  530   1.542   3.698   6.866 -0.2261  0.0318 -0.3641
    5DOPE   O12  531   1.786   3.733   6.914  0.0943  0.1325  0.6887
    5DOPE    C1  532   1.582   3.624   6.747  0.6052 -0.0657 -0.3892
    5DOPE    HA  533   1.505   3.545   6.735  2.0001 -2.0766  2.7488
    5DOPE    HB  534   1.676   3.566   6.753 -0.0796 -1.0531  1.7091
    5DOPE    C2  535   1.589   3.712   6.616  0.1498  0.4930 -0.1861
    5DOPE    HS  536   1.645   3.799   6.657 -2.0907  2.5102 -1.1541
    5DOPE   O21  537   1.459   3.746   6.571 -0.5130  0.0708  0.8475
    5DOPE   C21  538   1.459   3.865   6.517 -0.5744  0.2350  0.0728
    5DOPE   O22  539   1.553   3.946   6.523 -0.2448 -0.2105 -0.0272
    5DOPE   C22  540   1.326   3.884   6.438  0.0292 -0.1134  0.0270
    5DOPE   H2R  541   1.310   3.788   6.385  1.9780  0.2632 -1.3557
    5DOPE   H2S  542   1.343   3.955   6.354 -0.1402  0.2361  0.2884
    5DOPE    C3  543   1.665   3.641   6.502 -0.4858 -0.6670 -0.3480
    5DOPE    HX  544   1.618   3.543   6.479  0.7062 -1.4170  0.3031
    5DOPE    HY  545   1.764   3.611   6.542 -0.3349 -0.7827 -0.7998
    5DOPE   O31  546   1.670   3.728   6.378 -0.0872  0.4928 -0.1419
    5DOPE   C31  547   1.764   3.820   6.376 -0.4684 -0.1112 -0.1048
    5DOPE   O32  548   1.858   3.830   6.456 -0.6605 -0.4585  0.4630
    5DOPE   C32  549   1.727   3.910   6.257 -0.1867  0.4199 -0.5111
    5DOPE   H2X  550   1.732   3.840   6.170 -1.9833  0.3324 -0.5922
    5DOPE   H2Y  551   1.621   3.941   6.270  0.1405  0.7863  1.5578
    5DOPE   C23  552   1.205   3.924   6.524 -0.4361  0.0059  0.6613
    5DOPE   H3R  553   1.230   4.019   6.577  0.2653  0.8716 -1.1455
    5DOPE   H3S  554   1.176   3.843   6.594  1.5206 -0.7237  0.7008
    5DOPE   C24  555   1.079   3.947   6.446  0.3864 -0.3463  0.3390
    5DOPE   H4R  556   1.087   4.050   6.406  0.1669  0.4701  2.2929
    5DOPE   H4S  557   0.995   3.943   6.519  0.3710  1.0775  0.4250
    5DOPE   C25  558   1.049   3.862   6.320 -0.0615  0.0931 -0.0695
    5DOPE   H5R  559   1.026   3.756   6.342  1.1411 -0.0637  0.5401
    5DOPE   H5S  560   1.137   3.869   6.252  1.1684  0.6838  1.5164
    5DOPE   C26  561   0.932   3.923   6.242  0.1204  0.5737 -0.3150
    5DOPE   H6R  562   0.951   4.031   6.224  4.4754 -0.2884 -2.3511
    5DOPE   H6S  563   0.836   3.919   6.298 -0.6875  3.0353 -1.3933
    5DOPE   C27  564   0.911   3.848   6.112 -0.3933  1.2375 -0.3391
    5DOPE   H7R  565   0.878   3.747   6.143  0.7353  0.9274 -0.0820
    5DOPE   H7S  566   1.005   3.822   6.058  0.2482 -1.0054  1.6955
    5DOPE   C28  567   0.795   3.896   6.029  0.1621 -0.0004 -0.1865
    5DOPE   H8R  568   0.702   3.891   6.090  0.5297 -2.0603  0.2709
    5DOPE   H8S  569   0.781   3.820   5.949  0.7704  1.1206 -1.4079
    5DOPE   C29  570   0.830   4.034   5.974 -0.2089  0.2689  0.0787
    5DOPE   H9R  571   0.931   4.045   5.932 -0.1716 -1.4854 -0.3612
    5DOPE  C210  572   0.746   4.137   5.959  0.6664 -1.0149  0.2086
    5DOPE  H10R  573   0.787   4.224   5.907 -0.6494 -0.8216 -0.5498
    5DOPE  C211  574   0.598   4.138   5.996  0.0412  0.1596  0.4504
    5DOPE  H11R  575   0.575   4.176   6.097  0.2870  1.0673  0.1789
    5DOPE  H11S  576   0.562   4.033   5.999 -1.3755  0.6687  2.6713
    5DOPE  C212  577   0.517   4.208   5.887  0.3567 -0.4906  0.5822
    5DOPE  H12R  578   0.526   4.169   5.783 -3.8333 -1.5867  0.4634
    5DOPE  H12S  579   0.547   4.315   5.886  0.6590 -0.5738 -0.1823
    5DOPE  C213  580   0.360   4.193   5.918 -0.6297 -0.7072  0.1436
    5DOPE  H13R  581   0.346   4.262   6.005 -1.7482 -0.1334 -0.4693
    5DOPE  H13S  582   0.343   4.089   5.953  0.2705 -0.2574  2.0772
    5DOPE  C214  583   0.263   4.234   5.809  0.3146 -0.2940 -0.0168
    5DOPE  H14R  584   0.301   4.322   5.751  1.6937 -0.6399  0.3160
    5DOPE  H14S  585   0.179   4.274   5.868  1.8453  0.4770  1.7534
    5DOPE  C215  586   0.217   4.107   5.726 -0.1158 -0.3506  0.1000
    5DOPE  H15R  587   0.196   4.022   5.794 -1.1076 -0.5801 -0.4772
    5DOPE  H15S  588   0.302   4.082   5.659  0.5035 -0.6396  0.9739
    5DOPE  C216  589   0.092   4.137   5.646 -0.5535 -0.3193  0.2489
    5DOPE  H16R  590   0.115   4.197   5.554  1.5519 -0.2437  0.7624
    5DOPE  H16S  591   0.016   4.207   5.687  0.6283  0.6969  0.7785
    5DOPE  C217  592   0.006   4.021   5.605  0.5214 -0.6338  0.3691
    5DOPE  H17R  593  -0.027   3.975   5.701  1.2396  0.5046  1.1787
    5DOPE  H17S  594   0.074   3.943   5.566 -0.1566 -0.6156 -0.8966
    5DOPE  C218  595  -0.111   4.052   5.517 -0.2124 -0.0855 -0.0207
    5DOPE  H18R  596  -0.197   3.992   5.553  0.0308 -0.8221 -0.6481
    5DOPE  H18S  597  -0.084   4.037   5.411  1.1546 -0.0973  0.3007
    5DOPE  H18T  598  -0.153   4.155   5.519  1.7677  0.7691  1.4222
    5DOPE   C33  599   1.816   4.034   6.247 -0.5868  0.4629 -0.6380
    5DOPE   H3X  600   1.918   3.999   6.223 -0.3748 -0.0138  0.8617
    5DOPE   H3Y  601   1.814   4.082   6.348  1.5155  1.1371 -0.8769
    5DOPE   C34  602   1.776   4.137   6.139 -0.0352 -0.7824 -0.5281
    5DOPE   H4X  603   1.788   4.097   6.037 -1.1153  0.4459 -1.1678
    5DOPE   H4Y  604   1.670   4.172   6.138  0.3263  0.3399 -1.1401
    5DOPE   C35  605   1.866   4.271   6.142  0.6902  0.5730 -0.0726
    5DOPE   H5X  606   1.972   4.247   6.123  0.7904  1.5587 -0.7953
    5DOPE   H5Y  607   1.871   4.330   6.236 -0.0099  0.9137 -0.2396
    5DOPE   C36  608   1.815   4.376   6.048  0.1918  0.0246 -0.2104
    5DOPE   H6X  609   1.714   4.411   6.076  0.5789  0.8717  0.1680
    5DOPE   H6Y  610   1.805   4.349   5.941 -0.9536  2.4039 -0.7912
    5DOPE   C37  611   1.890   4.511   6.040 -0.1094  0.2713  0.1445
    5DOPE   H7X  612   1.887   4.533   6.149 -0.7668 -0.6370  0.3196
    5DOPE   H7Y  613   1.996   4.509   6.006 -0.0606  0.2163  0.2962
    5DOPE   C38  614   1.807   4.627   5.976  0.0286  0.1437 -0.0885
    5DOPE   H8X  615   1.707   4.621   6.024  0.4651  2.7183  1.3530
    5DOPE   H8Y  616   1.796   4.587   5.873  2.6331 -0.2577 -0.2787
    5DOPE   C39  617   1.875   4.758   5.969  0.4715 -0.0302  0.0472
    5DOPE   H9X  618   1.846   4.826   6.051 -1.4654  0.0992 -0.6879
    5DOPE  C310  619   1.941   4.804   5.862 -0.0288  0.3240  0.7612
    5DOPE  H10X  620   1.972   4.909   5.854 -0.3743  0.4154  0.6045
    5DOPE  C311  621   1.962   4.735   5.730 -0.7647 -0.4407 -1.0336
    5DOPE  H11X  622   2.064   4.760   5.693  0.3064  0.2459  2.0823
    5DOPE  H11Y  623   1.976   4.625   5.741  1.0380 -0.4000 -2.4368
    5DOPE  C312  624   1.854   4.759   5.624  0.6424 -0.3714  0.4382
    5DOPE  H12X  625   1.755   4.721   5.657  1.5078 -2.4239  0.8544
    5DOPE  H12Y  626   1.875   4.700   5.532 -1.5922 -0.0229 -0.3603
    5DOPE  C313  627   1.839   4.903   5.587  0.8915 -0.1548 -0.4558
    5DOPE  H13X  628   1.779   4.954   5.666  1.0344 -0.1391 -0.3568
    5DOPE  H13Y  629   1.938   4.952   5.572  0.6429  0.3067 -0.5858
    5DOPE  C314  630   1.773   4.919   5.450 -0.3559  0.0794  0.6268
    5DOPE  H14X  631   1.703   4.842   5.412  1.6521  0.0554 -3.4880
    5DOPE  H14Y  632   1.853   4.908   5.374 -0.2962  0.0884  0.6871
    5DOPE  C315  633   1.700   5.056   5.440 -0.1972  0.6677  0.1775
    5DOPE  H15X  634   1.759   5.139   5.483  1.1597 -0.1980  0.0439
    5DOPE  H15Y  635   1.619   5.037   5.515 -0.4000 -2.9825 -0.7633
    5DOPE  C316  636   1.645   5.103   5.300  0.1752  0.4496 -0.5915
    5DOPE  H16X  637   1.738   5.114   5.241  0.6069 -0.1214 -0.0207
    5DOPE  H16Y  638   1.600   5.202   5.321 -0.3813  0.0832 -0.0396
    5DOPE  C317  639   1.549   5.008   5.234 -0.0197  0.4669 -0.2292
    5DOPE  H17X  640   1.583   4.903   5.243 -0.8198  0.2596  0.6372
    5DOPE  H17Y  641   1.459   5.005   5.300 -0.1395  0.9154 -0.3673
    5DOPE  C318  642   1.502   5.039   5.093 -0.4014 -0.0585 -0.1327
    5DOPE  H18X  643   1.575   5.024   5.011 -2.2625  2.5721 -2.4859
    5DOPE  H18Y  644   1.419   4.969   5.066  0.7598 -1.7980  0.6169
    5DOPE  H18Z  645   1.463   5.142   5.080 -1.8775 -0.4634  0.7573
    6DOPE     N  646   1.724   4.324   7.288 -0.3014 -0.6422  0.0557
    6DOPE   HN1  647   1.802   4.292   7.349 -0.1136 -0.8593 -0.2935
    6DOPE   HN2  648   1.666   4.385   7.348  0.5710  0.5613 -0.2774
    6DOPE   HN3  649   1.670   4.244   7.249  0.2664  0.0273 -2.3288
    6DOPE   C12  650   1.772   4.407   7.167 -0.0963 -0.1674 -0.0163
    6DOPE  H12A  651   1.698   4.400   7.085 -0.8875 -3.1154  0.8369
    6DOPE  H12B  652   1.864   4.361   7.125  0.1548 -0.9678  1.3472
    6DOPE   C11  653   1.804   4.550   7.202  0.3872  0.2119  0.0427
    6DOPE  H11A  654   1.876   4.559   7.287  0.4884 -2.2107  0.2788
    6DOPE  H11B  655   1.702   4.590   7.223 -0.0176 -0.5384 -0.4238
    6DOPE     P  656   1.897   4.755   7.087 -0.2119  0.6778  0.1183
    6DOPE   O13  657   2.036   4.778   7.054  0.3093 -0.7801 -0.0480
    6DOPE   O14  658   1.867   4.805   7.227 -0.6141 -0.5554 -0.2209
    6DOPE   O11  659   1.807   4.830   6.980 -0.2424  0.2343 -0.0313
    6DOPE   O12  660   1.864   4.600   7.083 -0.1324  0.4450 -0.2687
    6DOPE    C1  661   1.733   4.765   6.874 -0.8087  0.1591  0.1055
    6DOPE    HA  662   1.662   4.832   6.820 -0.7432  0.0593 -0.1062
    6DOPE    HB  663   1.665   4.692   6.922 -0.8395  1.2843  1.8590
    6DOPE    C2  664   1.831   4.694   6.766  0.5151  0.4792 -0.0868
    6DOPE    HS  665   1.895   4.631   6.832 -1.8138  0.0103  1.8537
    6DOPE   O21  666   1.902   4.800   6.706 -0.0655  0.1210 -0.0573
    6DOPE   C21  667   2.016   4.763   6.648  1.0221  0.0830  0.7224
    6DOPE   O22  668   2.060   4.651   6.647 -0.6375  0.2213  0.4949
    6DOPE   C22  669   2.090   4.886   6.599  0.2172 -0.2605  0.9338
    6DOPE   H2R  670   2.199   4.887   6.623  0.2268 -4.2746  1.6182
    6DOPE   H2S  671   2.050   4.976   6.651 -0.1801 -1.0400  1.9868
    6DOPE    C3  672   1.748   4.606   6.667 -0.9002  0.1479 -0.6458
    6DOPE    HX  673   1.701   4.539   6.742  1.3157  0.6402  1.3044
    6DOPE    HY  674   1.820   4.544   6.608  2.2718  0.8649  2.1735
    6DOPE   O31  675   1.660   4.682   6.578  0.7022  0.2755 -0.0977
    6DOPE   C31  676   1.625   4.617   6.461 -1.2458  0.0372  0.4369
    6DOPE   O32  677   1.654   4.498   6.436  0.4331 -0.5362  0.2591
    6DOPE   C32  678   1.565   4.723   6.365  0.5053  0.6853  0.2483
    6DOPE   H2X  679   1.514   4.806   6.419  1.6973  1.9398 -0.4906
    6DOPE   H2Y  680   1.646   4.758   6.298 -0.1330  1.5072 -0.1070
    6DOPE   C23  681   2.070   4.927   6.438 -0.1668 -0.1891 -0.0483
    6DOPE   H3R  682   2.002   5.015   6.436  0.5111  0.3420 -1.7797
    6DOPE   H3S  683   2.027   4.844   6.379 -0.7497  1.1378 -1.5681
    6DOPE   C24  684   2.195   4.986   6.370 -0.3739  0.3704 -0.3444
    6DOPE   H4R  685   2.232   5.064   6.441  0.8199 -1.2412  0.8727
    6DOPE   H4S  686   2.155   5.037   6.280 -1.3345 -1.4285 -0.9706
    6DOPE   C25  687   2.282   4.874   6.329  0.2715 -0.2042 -0.4582
    6DOPE   H5R  688   2.243   4.808   6.249  0.0659  1.5475 -1.8381
    6DOPE   H5S  689   2.306   4.822   6.425 -0.7285 -0.0819 -0.1306
    6DOPE   C26  690   2.416   4.915   6.266 -0.1097  0.5795  0.0398
    6DOPE   H6R  691   2.491   4.833   6.273 -0.4884 -0.0718 -2.6235
    6DOPE   H6S  692   2.452   5.000   6.328 -1.8859  0.5534  1.1869
    6DOPE   C27  693   2.399   4.969   6.123  0.2147  0.7310 -0.4565
    6DOPE   H7R  694   2.301   5.021   6.124 -0.7243 -0.8479  2.6660
    6DOPE   H7S  695   2.381   4.884   6.054  0.8085 -0.8112  1.1741
    6DOPE   C28  696   2.508   5.067   6.072  0.5152  0.2109 -0.3677
    6DOPE   H8R  697   2.498   5.159   6.133 -0.4571 -0.4811  0.5640
    6DOPE   H8S  698   2.480   5.069   5.965  2.1566  0.2479 -0.8299
    6DOPE   C29  699   2.638   4.991   6.084 -0.7670 -0.4624 -0.1990
    6DOPE   H9R  700   2.705   5.013   6.168 -2.0299 -2.1971  1.3603
    6DOPE  C210  701   2.692   4.907   5.999  0.6558  0.1337 -0.7206
    6DOPE  H10R  702   2.797   4.878   6.018  0.4106  0.1799  0.7996
    6DOPE  C211  703   2.637   4.863   5.867  0.1773  0.2380 -0.2746
    6DOPE  H11R  704   2.534   4.902   5.848  0.0393 -0.7190 -1.5715
    6DOPE  H11S  705   2.619   4.754   5.864  0.5059  0.2106 -1.8330
    6DOPE  C212  706   2.726   4.905   5.748 -0.0319 -0.2722  0.9552
    6DOPE  H12R  707   2.683   4.887   5.648  1.0643  3.2564 -0.2939
    6DOPE  H12S  708   2.819   4.844   5.748 -0.9038 -1.6623  1.2482
    6DOPE  C213  709   2.770   5.055   5.748 -0.5508 -0.0040 -0.2695
    6DOPE  H13R  710   2.800   5.089   5.850  0.2514 -0.7381 -0.2484
    6DOPE  H13S  711   2.684   5.114   5.712 -2.8385 -1.4263  2.4866
    6DOPE  C214  712   2.885   5.093   5.655  0.2580  0.5784  0.8034
    6DOPE  H14R  713   2.855   5.064   5.552  1.8619 -2.1202  1.0022
    6DOPE  H14S  714   2.971   5.030   5.685  0.5961  0.7789  0.2856
    6DOPE  C215  715   2.927   5.235   5.652 -0.1328 -0.4580  0.4355
    6DOPE  H15R  716   2.955   5.280   5.750 -0.1325  2.4551 -0.7895
    6DOPE  H15S  717   2.856   5.309   5.609 -1.6222 -1.4401  1.1126
    6DOPE  C216  718   3.062   5.270   5.580  0.0685  0.0917  0.0881
    6DOPE  H16R  719   3.079   5.380   5.585 -0.6787  0.1671  1.4215
    6DOPE  H16S  720   3.050   5.242   5.473 -4.4378  2.4214 -0.2714
    6DOPE  C217  721   3.185   5.187   5.617 -0.1350  0.2731 -0.2331
    6DOPE  H17R  722   3.166   5.083   5.580  0.1585  0.4629 -0.9474
    6DOPE  H17S  723   3.185   5.200   5.727 -0.6210 -0.7669 -0.0971
    6DOPE  C218  724   3.317   5.233   5.550 -0.3463 -0.1546 -0.2480
    6DOPE  H18R  725   3.318   5.230   5.439  1.2020 -0.4758 -0.2567
    6DOPE  H18S  726   3.396   5.167   5.593  1.8163  1.3986 -1.6660
    6DOPE  H18T  727   3.348   5.333   5.587  0.8017 -1.6481  3.3159
    6DOPE   C33  728   1.454   4.670   6.264  0.8789 -0.3560  0.0522
    6DOPE   H3X  729   1.357   4.645   6.312  1.0045 -1.8980 -0.4415
    6DOPE   H3Y  730   1.478   4.570   6.222 -2.5702 -1.6004  0.6911
    6DOPE   C34  731   1.441   4.750   6.138  0.0660  0.0914  0.0401
    6DOPE   H4X  732   1.389   4.845   6.163 -1.3871 -0.0710 -2.0686
    6DOPE   H4Y  733   1.544   4.772   6.104  0.5099 -0.6058  0.8862
    6DOPE   C35  734   1.378   4.670   6.021 -0.5811 -0.1726 -0.5194
    6DOPE   H5X  735   1.271   4.646   6.040 -0.6058  0.0379 -0.3867
    6DOPE   H5Y  736   1.437   4.577   6.005 -0.2091  0.2518 -1.6920
    6DOPE   C36  737   1.375   4.749   5.888  0.4999 -0.1724 -0.4866
    6DOPE   H6X  738   1.461   4.816   5.905  0.9111 -0.8408  0.1304
    6DOPE   H6Y  739   1.282   4.808   5.878 -0.1634 -1.3562 -1.6152
    6DOPE   C37  740   1.403   4.668   5.766 -0.3661 -0.0790 -0.1969
    6DOPE   H7X  741   1.486   4.595   5.783  0.2101  0.5292 -0.3378
    6DOPE   H7Y  742   1.309   4.615   5.741 -1.4016  1.8659 -0.6114
    6DOPE   C38  743   1.432   4.740   5.636  0.2949  0.2487 -0.6524
    6DOPE   H8X  744   1.467   4.664   5.563  1.0310  1.0794 -1.1880
    6DOPE   H8Y  745   1.519   4.805   5.661  1.9524 -1.4475 -1.7376
    6DOPE   C39  746   1.322   4.825   5.581  0.1154 -0.0438 -0.0379
    6DOPE   H9X  747   1.277   4.888   5.659 -1.0093 -0.8483 -0.0012
    6DOPE  C310  748   1.260   4.827   5.465  0.1634  0.1871  0.8803
    6DOPE  H10X  749   1.173   4.893   5.452 -1.4787 -1.5636  2.4555
    6DOPE  C311  750   1.292   4.732   5.349  0.0665  0.5299 -0.0503
    6DOPE  H11X  751   1.374   4.773   5.287 -0.7253  0.7919 -0.9390
    6DOPE  H11Y  752   1.312   4.630   5.389 -0.6145  0.1317 -0.6910
    6DOPE  C312  753   1.176   4.704   5.253  0.0470 -0.9908  0.4944
    6DOPE  H12X  754   1.225   4.707   5.154  1.2529 -0.4560  1.0833
    6DOPE  H12Y  755   1.110   4.792   5.236  3.2937  1.3961 -0.8410
    6DOPE  C313  756   1.081   4.586   5.279 -0.1469  0.6340  0.7181
    6DOPE  H13X  757   1.057   4.586   5.387 -1.0485  0.6255  0.5241
    6DOPE  H13Y  758   0.993   4.599   5.212  0.4576 -1.8559 -0.6867
    6DOPE  C314  759   1.150   4.460   5.233 -0.1663  0.4977 -0.9311
    6DOPE  H14X  760   1.226   4.435   5.310 -1.8198 -1.2373  0.2138
    6DOPE  H14Y  761   1.203   4.476   5.136  0.7901 -2.4184 -1.0047
    6DOPE  C315  762   1.053   4.347   5.212 -0.5653 -0.3268  0.4043
    6DOPE  H15X  763   1.114   4.258   5.187  1.2046  0.3128  2.1986
    6DOPE  H15Y  764   0.981   4.363   5.128  0.0423 -1.1174 -0.2741
    6DOPE  C316  765   0.973   4.329   5.340 -0.1049 -0.0360 -0.8778
    6DOPE  H16X  766   0.886   4.397   5.350  0.3978  0.3780  1.1518
    6DOPE  H16Y  767   1.038   4.346   5.428  0.8390 -0.7334 -1.4227
    6DOPE  C317  768   0.927   4.178   5.354 -0.8059  0.2094 -0.2340
    6DOPE  H17X  769   1.008   4.103   5.354 -0.2984  0.7423  0.2054
    6DOPE  H17Y  770   0.877   4.177   5.453  0.0231 -1.3548  0.1886
    6DOPE  C318  771   0.824   4.144   5.249 -0.7497  0.1552 -0.3507
    6DOPE  H18X  772   0.727   4.195   5.269  0.3581  2.9821 -1.6657
    6DOPE  H18Y  773   0.864   4.170   5.149 -0.3461  0.5028 -0.1003
    6DOPE  H18Z  774   0.806   4.035   5.254  0.9423 -0.1141  0.6988
    7DOPE     N  775   4.840   4.347   7.677  0.1099 -0.1828 -0.0872
    7DOPE   HN1  776   4.756   4.289   7.697 -0.1702  0.4479  0.6019
    7DOPE   HN2  777   4.897   4.333   7.763  0.6422  0.2286 -0.3654
    7DOPE   HN3  778   4.812   4.445   7.661  0.3806 -0.1011 -0.0530
    7DOPE   C12  779   4.904   4.296   7.553  0.0757  0.3725 -0.2561
    7DOPE  H12A  780   5.014   4.305   7.564 -0.0409  2.1758 -0.3067
    7DOPE  H12B  781   4.874   4.359   7.466  0.4246  1.7993  0.6272
    7DOPE   C11  782   4.877   4.147   7.537  0.0886  1.2689 -0.6048
    7DOPE  H11A  783   4.937   4.088   7.609  1.0681  0.9905 -1.6222
    7DOPE  H11B  784   4.919   4.126   7.436 -1.0101  0.0111 -0.8299
    7DOPE     P  785   4.642   4.073   7.438 -0.0476  0.2765  0.3640
    7DOPE   O13  786   4.513   4.123   7.479 -0.2924  0.0228 -0.1543
    7DOPE   O14  787   4.660   3.926   7.402 -0.0601  0.5648  0.5218
    7DOPE   O11  788   4.686   4.159   7.314 -0.3514  1.3690  0.1587
    7DOPE   O12  789   4.740   4.113   7.550 -0.1545  0.3725 -0.3334
    7DOPE    C1  790   4.587   4.224   7.234  0.7493  0.1855 -0.1641
    7DOPE    HA  791   4.549   4.320   7.276 -0.8239 -0.1554 -0.7479
    7DOPE    HB  792   4.493   4.169   7.215  0.1141  0.4738  1.9746
    7DOPE    C2  793   4.647   4.268   7.097 -0.3380 -0.5731 -0.1908
    7DOPE    HS  794   4.599   4.364   7.068 -0.3809 -0.1102  1.3495
    7DOPE   O21  795   4.637   4.167   6.992 -0.0768  0.0324 -0.5177
    7DOPE   C21  796   4.515   4.162   6.938 -0.5754  0.3403  0.4454
    7DOPE   O22  797   4.420   4.235   6.965 -0.1667  0.6692  0.5017
    7DOPE   C22  798   4.516   4.041   6.846 -0.2037  0.6410  0.2673
    7DOPE   H2R  799   4.480   3.955   6.905  0.1846 -0.1090 -0.5637
    7DOPE   H2S  800   4.625   4.027   6.829  0.0166  2.0833  0.3835
    7DOPE    C3  801   4.796   4.310   7.120  0.2021  0.6937 -0.8928
    7DOPE    HX  802   4.867   4.225   7.125  0.0350  0.6315  0.8798
    7DOPE    HY  803   4.783   4.351   7.222 -2.7274  1.8294 -1.6148
    7DOPE   O31  804   4.839   4.404   7.020 -0.7585  0.2894 -0.2519
    7DOPE   C31  805   4.919   4.496   7.065 -0.0097  0.4256 -0.4080
    7DOPE   O32  806   4.949   4.517   7.183  0.7140  0.1556 -0.0721
    7DOPE   C32  807   4.992   4.569   6.953 -0.5083 -0.1294  0.6004
    7DOPE   H2X  808   5.099   4.582   6.981 -0.4806  1.3081 -0.0773
    7DOPE   H2Y  809   4.990   4.508   6.860  1.5014  0.3998  0.1794
    7DOPE   C23  810   4.431   4.029   6.712 -0.4598  0.2687  0.0011
    7DOPE   H3R  811   4.323   4.039   6.732 -0.0838  0.5754  2.0443
    7DOPE   H3S  812   4.442   3.930   6.663 -0.0429 -0.0742  0.7724
    7DOPE   C24  813   4.455   4.147   6.611 -0.5714  0.3694  0.4142
    7DOPE   H4R  814   4.562   4.162   6.587 -0.2541 -1.2168  0.7178
    7DOPE   H4S  815   4.418   4.240   6.658 -0.1052  0.0580  1.4117
    7DOPE   C25  816   4.386   4.122   6.470 -0.1110  0.2045 -0.3023
    7DOPE   H5R  817   4.286   4.074   6.481  0.9168 -1.7395  1.1108
    7DOPE   H5S  818   4.451   4.048   6.419 -0.1671  2.0242 -3.2357
    7DOPE   C26  819   4.391   4.246   6.393  0.8366  0.0311 -0.6645
    7DOPE   H6R  820   4.495   4.273   6.366  1.2173 -1.7080 -1.0868
    7DOPE   H6S  821   4.339   4.323   6.453 -2.7052 -0.9598 -2.1937
    7DOPE   C27  822   4.307   4.229   6.264  1.0190  0.0660 -0.2584
    7DOPE   H7R  823   4.286   4.331   6.226  0.0434  0.6710  1.7420
    7DOPE   H7S  824   4.210   4.177   6.279  0.3063  0.6901 -2.3668
    7DOPE   C28  825   4.380   4.162   6.145  0.0836 -0.5522  0.5022
    7DOPE   H8R  826   4.326   4.205   6.059  2.3535  2.5486  0.4354
    7DOPE   H8S  827   4.373   4.051   6.146  4.0299 -0.9650  0.0346
    7DOPE   C29  828   4.531   4.175   6.134 -0.1829 -0.1506 -0.5246
    7DOPE   H9R  829   4.592   4.130   6.213  1.4640  0.0362 -1.6317
    7DOPE  C210  830   4.597   4.236   6.033 -0.2722 -0.0904 -0.0639
    7DOPE  H10R  831   4.707   4.243   6.029 -0.3351  0.6782 -2.9281
    7DOPE  C211  832   4.539   4.302   5.913 -0.5936 -0.1664  0.6105
    7DOPE  H11R  833   4.627   4.363   5.884  0.7838 -1.9396  0.9051
    7DOPE  H11S  834   4.460   4.377   5.933 -1.1440 -0.5514 -0.0628
    7DOPE  C212  835   4.492   4.198   5.808  0.3489 -0.2789  0.5620
    7DOPE  H12R  836   4.404   4.151   5.856  0.5848  0.2832  1.5620
    7DOPE  H12S  837   4.570   4.125   5.777  1.1858  1.9374 -3.1874
    7DOPE  C213  838   4.437   4.258   5.671  0.9421 -0.3371  0.1966
    7DOPE  H13R  839   4.371   4.344   5.698  0.1004 -0.1628 -2.2318
    7DOPE  H13S  840   4.377   4.177   5.623  0.2246  1.3057 -1.7992
    7DOPE  C214  841   4.545   4.303   5.578  0.2165 -0.7553  0.0463
    7DOPE  H14R  842   4.624   4.226   5.564  1.9766  1.0662 -0.7183
    7DOPE  H14S  843   4.597   4.389   5.626 -1.5224  1.4003 -1.6769
    7DOPE  C215  844   4.489   4.367   5.453 -0.2395  0.5075 -0.2026
    7DOPE  H15R  845   4.565   4.392   5.375 -1.1151 -0.2198 -1.3212
    7DOPE  H15S  846   4.450   4.466   5.484  0.1814  0.5483  0.2098
    7DOPE  C216  847   4.377   4.297   5.374 -1.1020  0.3127 -0.2350
    7DOPE  H16R  848   4.282   4.282   5.429  1.0097 -2.8010  3.0345
    7DOPE  H16S  849   4.418   4.198   5.343 -0.5520  0.8827 -1.4121
    7DOPE  C217  850   4.339   4.380   5.251 -0.1081 -0.6490 -0.0744
    7DOPE  H17R  851   4.431   4.426   5.210 -1.4875 -0.4389 -3.2501
    7DOPE  H17S  852   4.281   4.471   5.276  2.3685  1.0521 -0.1969
    7DOPE  C218  853   4.291   4.308   5.127 -0.6888  0.8349  0.2895
    7DOPE  H18R  854   4.372   4.241   5.091 -1.8882 -0.8009  0.5568
    7DOPE  H18S  855   4.272   4.374   5.040 -1.5085  2.4789  1.6481
    7DOPE  H18T  856   4.202   4.246   5.152 -0.0145 -0.0191  0.6119
    7DOPE   C33  857   4.938   4.714   6.926 -0.6861  0.2006 -0.1330
    7DOPE   H3X  858   4.972   4.776   7.012  0.3402  1.7038 -1.5742
    7DOPE   H3Y  859   4.829   4.715   6.907 -0.4221 -0.0880 -1.8121
    7DOPE   C34  860   5.009   4.774   6.804 -0.4267  0.7131  0.2484
    7DOPE   H4X  861   4.971   4.877   6.819  0.5848  1.0037  0.9425
    7DOPE   H4Y  862   5.118   4.770   6.823 -0.0626 -0.7286 -1.8049
    7DOPE   C35  863   4.981   4.710   6.665  0.0030 -0.3490  0.9874
    7DOPE   H5X  864   4.875   4.719   6.634  0.6302 -0.5112 -1.3798
    7DOPE   H5Y  865   4.998   4.601   6.680 -2.7132 -0.7052  1.9872
    7DOPE   C36  866   5.084   4.754   6.564 -0.2347 -0.5042  0.4341
    7DOPE   H6X  867   5.183   4.715   6.596 -0.4170  0.1600  1.8656
    7DOPE   H6Y  868   5.094   4.864   6.565  1.8511 -0.6675  1.2174
    7DOPE   C37  869   5.057   4.700   6.424  1.5114  0.7593  0.3228
    7DOPE   H7X  870   5.046   4.590   6.432  2.2739  0.6886  0.4618
    7DOPE   H7Y  871   4.961   4.746   6.392  1.3149 -0.0861 -0.3568
    7DOPE   C38  872   5.171   4.742   6.335 -0.6468  0.1183  0.3495
    7DOPE   H8X  873   5.262   4.714   6.393  0.5483 -0.6463 -1.7683
    7DOPE   H8Y  874   5.159   4.852   6.328  2.0725  0.5511  1.2855
    7DOPE   C39  875   5.158   4.685   6.194  0.6485 -0.2601  0.2716
    7DOPE   H9X  876   5.087   4.728   6.122  1.0596  0.3149  0.2092
    7DOPE  C310  877   5.222   4.572   6.152  0.1107  0.3025 -0.2928
    7DOPE  H10X  878   5.235   4.563   6.043  1.3240  2.4179 -0.3895
    7DOPE  C311  879   5.319   4.497   6.243 -0.1415 -0.2874 -0.6582
    7DOPE  H11X  880   5.303   4.507   6.353  0.3639 -1.2468 -0.4847
    7DOPE  H11Y  881   5.325   4.387   6.232 -1.0322 -0.1928 -2.3059
    7DOPE  C312  882   5.460   4.541   6.212  0.0152 -0.8827  0.3425
    7DOPE  H12X  883   5.528   4.483   6.278  0.3771 -0.9464 -0.0771
    7DOPE  H12Y  884   5.475   4.651   6.217 -4.4045  0.2294 -3.3930
    7DOPE  C313  885   5.509   4.481   6.079 -0.1692 -0.4770 -0.6876
    7DOPE  H13X  886   5.479   4.374   6.082  3.8814 -1.7725  1.0186
    7DOPE  H13Y  887   5.455   4.531   5.996  0.4966  0.9021 -0.3220
    7DOPE  C314  888   5.662   4.498   6.053  0.5617  0.0174  0.3316
    7DOPE  H14X  889   5.720   4.434   6.122  0.1220 -1.1220 -0.3326
    7DOPE  H14Y  890   5.689   4.603   6.076  0.6820  0.1004 -0.1640
    7DOPE  C315  891   5.710   4.462   5.908 -0.0337 -0.4999  0.1028
    7DOPE  H15X  892   5.676   4.360   5.880  0.4055 -0.0412 -2.3403
    7DOPE  H15Y  893   5.821   4.458   5.906  0.1850  2.7791 -1.0493
    7DOPE  C316  894   5.669   4.572   5.806 -0.6580 -0.2991  0.8400
    7DOPE  H16X  895   5.724   4.660   5.846  0.4434 -0.7867  0.4429
    7DOPE  H16Y  896   5.558   4.580   5.808 -0.6831  0.6526 -1.2431
    7DOPE  C317  897   5.719   4.535   5.661  0.1493  0.1608  0.3081
    7DOPE  H17X  898   5.830   4.531   5.661  0.2924  1.6210 -2.7377
    7DOPE  H17Y  899   5.688   4.430   5.643 -0.0523  0.2373  0.2172
    7DOPE  C318  900   5.685   4.642   5.555 -0.0214  0.0853 -0.2291
    7DOPE  H18X  901   5.721   4.740   5.593  0.8630 -0.1883 -0.3347
    7DOPE  H18Y  902   5.738   4.620   5.460  0.9513 -1.8894  0.7235
    7DOPE  H18Z  903   5.574   4.644   5.559 -0.0312  1.7418  4.7585
    8DOPE     N  904   4.822   4.719   7.898  0.2358 -0.1995 -0.1803
    8DOPE   HN1  905   4.796   4.626   7.937  1.5941 -0.2907  0.5967
    8DOPE   HN2  906   4.740   4.749   7.842  1.4921 -0.3130 -2.1645
    8DOPE   HN3  907   4.906   4.710   7.838  1.0566  4.2995 -0.0519
    8DOPE   C12  908   4.857   4.803   8.022 -0.0171  0.1847 -0.0015
    8DOPE  H12A  909   4.771   4.801   8.092  1.4226 -0.8106  1.8153
    8DOPE  H12B  910   4.870   4.904   7.977  3.8258 -0.1389  0.1078
    8DOPE   C11  911   4.987   4.761   8.095 -0.1977  0.3431 -0.2966
    8DOPE  H11A  912   4.978   4.656   8.129 -3.1310  1.1231  1.7146
    8DOPE  H11B  913   4.993   4.822   8.188 -1.2305  0.6995 -0.4507
    8DOPE     P  914   5.192   4.909   8.005 -0.1012  0.2531 -0.1570
    8DOPE   O13  915   5.314   4.879   8.080 -0.2615  0.0184 -1.4218
    8DOPE   O14  916   5.117   5.029   8.049  0.1964  0.8245  0.3488
    8DOPE   O11  917   5.230   4.940   7.860  0.6057 -0.0631 -0.4444
    8DOPE   O12  918   5.094   4.778   8.009 -0.3159 -0.0448 -0.1428
    8DOPE    C1  919   5.270   4.838   7.763  0.6097  0.3537  0.3061
    8DOPE    HA  920   5.203   4.844   7.674 -2.3269  0.7847  2.3736
    8DOPE    HB  921   5.261   4.735   7.801  0.2828 -0.0209 -0.7314
    8DOPE    C2  922   5.407   4.873   7.722  0.1057  0.4390 -0.1233
    8DOPE    HS  923   5.471   4.882   7.812 -1.0346 -1.7189  0.9836
    8DOPE   O21  924   5.399   5.001   7.648  0.1296  0.6372 -0.2691
    8DOPE   C21  925   5.513   5.064   7.636  0.6283  0.4234  0.7295
    8DOPE   O22  926   5.622   5.035   7.682  0.4730  0.3290  0.0950
    8DOPE   C22  927   5.492   5.187   7.550  0.1009  0.2866 -0.0083
    8DOPE   H2R  928   5.530   5.269   7.615  1.1936  0.2378 -0.5666
    8DOPE   H2S  929   5.385   5.211   7.531 -0.7756 -2.5381  0.8669
    8DOPE    C3  930   5.463   4.754   7.637  0.6263  0.4915 -0.2301
    8DOPE    HX  931   5.474   4.679   7.719 -1.9264  1.7683  1.4230
    8DOPE    HY  932   5.566   4.779   7.605  1.2249 -1.8610 -0.3374
    8DOPE   O31  933   5.382   4.710   7.525 -0.7766  0.5471 -0.1710
    8DOPE   C31  934   5.377   4.580   7.503 -0.4012 -0.4049  0.2452
    8DOPE   O32  935   5.429   4.491   7.574 -0.7450  0.8582 -0.7187
    8DOPE   C32  936   5.301   4.555   7.368 -0.2817 -0.5167 -0.2759
    8DOPE   H2X  937   5.201   4.603   7.373  0.0711  0.2176 -0.0801
    8DOPE   H2Y  938   5.355   4.608   7.286 -3.2919  1.0581 -1.3748
    8DOPE   C23  939   5.564   5.183   7.407 -0.0803  0.5191 -0.4690
    8DOPE   H3R  940   5.542   5.084   7.362  0.3978 -0.6238  1.6949
    8DOPE   H3S  941   5.674   5.181   7.422  0.0898 -1.5414 -1.6406
    8DOPE   C24  942   5.514   5.299   7.315  0.3712  0.2934 -0.0585
    8DOPE   H4R  943   5.512   5.399   7.365  0.0018  0.1803  0.1553
    8DOPE   H4S  944   5.410   5.271   7.289  1.1441 -1.3031 -1.6324
    8DOPE   C25  945   5.587   5.300   7.183 -0.1675 -0.2951  0.1120
    8DOPE   H5R  946   5.628   5.198   7.169 -0.1694 -0.2297 -0.4066
    8DOPE   H5S  947   5.661   5.382   7.195 -1.8621  1.6743 -2.0692
    8DOPE   C26  948   5.507   5.344   7.061  0.4757  0.0941 -0.9178
    8DOPE   H6R  949   5.585   5.381   6.990  1.5339  2.6464  1.3917
    8DOPE   H6S  950   5.433   5.427   7.066 -0.8422 -0.9207 -2.3531
    8DOPE   C27  951   5.441   5.222   6.996  0.0199  0.4150  0.5205
    8DOPE   H7R  952   5.378   5.174   7.073  0.1205 -1.5941 -0.5797
    8DOPE   H7S  953   5.526   5.154   6.973 -0.2417  0.0458  0.6335
    8DOPE   C28  954   5.360   5.268   6.867  0.4664  0.0000 -0.2491
    8DOPE   H8R  955   5.417   5.330   6.795 -0.5366 -0.1263 -1.1812
    8DOPE   H8S  956   5.287   5.345   6.901 -2.1601 -1.5149 -2.1447
    8DOPE   C29  957   5.268   5.164   6.801 -0.1288 -0.6074 -0.2604
    8DOPE   H9R  958   5.237   5.083   6.869 -0.0287 -0.6285 -0.2388
    8DOPE  C210  959   5.217   5.189   6.677 -0.5495 -0.0570 -0.2027
    8DOPE  H10R  960   5.149   5.116   6.631 -0.6086 -0.3307  0.3107
    8DOPE  C211  961   5.231   5.311   6.587  0.1509 -0.4439  0.2875
    8DOPE  H11R  962   5.273   5.398   6.641  3.1517 -1.0015 -0.9625
    8DOPE  H11S  963   5.131   5.341   6.548  0.0068 -0.2479  0.7953
    8DOPE  C212  964   5.318   5.280   6.462  0.0660 -0.4825 -0.0899
    8DOPE  H12R  965   5.421   5.245   6.480  0.1596 -1.1504 -1.6759
    8DOPE  H12S  966   5.317   5.379   6.411 -1.4107  0.9724  2.5535
    8DOPE  C213  967   5.269   5.182   6.362 -0.0377  0.4686  0.1262
    8DOPE  H13R  968   5.246   5.085   6.413  1.1267 -0.4538 -1.0403
    8DOPE  H13S  969   5.344   5.145   6.290 -1.4928 -0.2826 -1.0645
    8DOPE  C214  970   5.140   5.228   6.285  0.1905 -0.1726  0.0298
    8DOPE  H14R  971   5.162   5.328   6.241 -1.5464 -0.2766 -1.1601
    8DOPE  H14S  972   5.054   5.226   6.355 -0.4588 -0.7627 -0.7708
    8DOPE  C215  973   5.119   5.129   6.175 -0.1872  0.6207 -0.0976
    8DOPE  H15R  974   5.116   5.027   6.219  0.5656  0.4099 -0.5054
    8DOPE  H15S  975   5.214   5.127   6.116 -0.6219  1.6314 -0.8754
    8DOPE  C216  976   4.994   5.143   6.089 -0.1796  0.1227 -0.3089
    8DOPE  H16R  977   4.989   5.253   6.069  0.0831  0.5683  1.8857
    8DOPE  H16S  978   4.908   5.118   6.155 -0.0102  0.7388  0.1541
    8DOPE  C217  979   4.984   5.061   5.962  0.2821  0.2115 -0.1678
    8DOPE  H17R  980   5.018   4.961   5.997  0.9394  0.8380  1.0881
    8DOPE  H17S  981   5.050   5.108   5.887 -0.4796 -0.1750 -1.1116
    8DOPE  C218  982   4.836   5.055   5.908 -0.7789  0.1057 -0.7091
    8DOPE  H18R  983   4.775   4.978   5.960 -0.8187  0.7633  0.2451
    8DOPE  H18S  984   4.845   5.022   5.802  2.4689  2.8317 -1.4444
    8DOPE  H18T  985   4.774   5.148   5.915 -0.3561  0.4503 -1.4544
    8DOPE   C33  986   5.280   4.407   7.330 -0.2141 -0.3478 -0.2536
    8DOPE   H3X  987   5.195   4.363   7.387 -0.0240 -1.1205 -0.5566
    8DOPE   H3Y  988   5.377   4.360   7.357  0.4486  1.7174  1.1465
    8DOPE   C34  989   5.274   4.401   7.177  0.1095  0.0232  0.9252
    8DOPE   H4X  990   5.264   4.294   7.151  0.8507  0.0956  0.3029
    8DOPE   H4Y  991   5.193   4.461   7.130 -0.7332 -2.3140 -0.8071
    8DOPE   C35  992   5.405   4.432   7.101  0.6462  1.1198  0.4962
    8DOPE   H5X  993   5.495   4.398   7.157  0.0650  0.3596  1.0011
    8DOPE   H5Y  994   5.412   4.542   7.088 -1.0557  1.1106 -0.8262
    8DOPE   C36  995   5.421   4.354   6.967  0.0006 -0.3400 -0.1796
    8DOPE   H6X  996   5.439   4.244   6.973  0.7529 -0.6398 -4.5740
    8DOPE   H6Y  997   5.513   4.396   6.922  0.1767 -1.4156 -0.8600
    8DOPE   C37  998   5.311   4.370   6.857 -0.2208 -0.1647  0.3030
    8DOPE   H7X  999   5.211   4.335   6.892 -1.4618  1.2763 -1.6045
    8DOPE   H7Y 1000   5.316   4.479   6.837  2.3588  0.4211  3.2399
    8DOPE   C38 1001   5.343   4.301   6.726  0.7510  0.4774  0.1334
    8DOPE   H8X 1002   5.312   4.196   6.743  2.8192 -0.2557 -0.3578
    8DOPE   H8Y 1003   5.453   4.299   6.715  0.7435  1.6530 -0.2988
    8DOPE   C39 1004   5.268   4.361   6.610  0.3744  0.4686 -0.2548
    8DOPE   H9X 1005   5.278   4.470   6.608  0.6947  0.4350 -1.3740
    8DOPE  C310 1006   5.191   4.306   6.520  0.4202  0.5335  0.3528
    8DOPE  H10X 1007   5.131   4.377   6.462  0.2048 -1.7094 -2.3747
    8DOPE  C311 1008   5.153   4.156   6.501  0.6187  0.5476  0.2199
    8DOPE  H11X 1009   5.204   4.098   6.581  0.3195  2.1459  1.6203
    8DOPE  H11Y 1010   5.044   4.133   6.505  0.9660 -1.6223 -1.2403
    8DOPE  C312 1011   5.199   4.110   6.361 -0.2208 -0.0043  1.2261
    8DOPE  H12X 1012   5.193   4.000   6.345 -0.0626  0.3184 -1.5928
    8DOPE  H12Y 1013   5.306   4.137   6.347 -0.6418  1.0422 -0.1595
    8DOPE  C313 1014   5.114   4.171   6.245  0.1527  0.4991 -0.4321
    8DOPE  H13X 1015   5.010   4.138   6.267  1.2328 -1.7839  1.8982
    8DOPE  H13Y 1016   5.104   4.280   6.261 -1.6565 -0.0683  3.7976
    8DOPE  C314 1017   5.156   4.146   6.102  0.2750 -0.4568 -0.1448
    8DOPE  H14X 1018   5.156   4.038   6.076  4.6505 -1.0315  1.3878
    8DOPE  H14Y 1019   5.263   4.170   6.090  0.4978 -1.9637 -1.5644
    8DOPE  C315 1020   5.067   4.215   5.993 -0.7081  0.6840 -0.3014
    8DOPE  H15X 1021   5.059   4.324   6.016 -0.3050  0.5106  0.6932
    8DOPE  H15Y 1022   4.971   4.161   6.010 -0.3014 -1.1328 -3.1226
    8DOPE  C316 1023   5.115   4.187   5.847  0.2383  0.0887 -0.1202
    8DOPE  H16X 1024   5.147   4.081   5.840  0.9996  0.1690  1.6901
    8DOPE  H16Y 1025   5.210   4.241   5.827  0.9809 -0.2442  2.2323
    8DOPE  C317 1026   5.016   4.226   5.732 -0.5931 -0.1715  0.3397
    8DOPE  H17X 1027   4.992   4.333   5.750  1.1460  0.3693 -0.2823
    8DOPE  H17Y 1028   5.062   4.217   5.631 -0.9489 -1.7246  0.2851
    8DOPE  C318 1029   4.889   4.141   5.722 -0.0206  0.1798  0.4650
    8DOPE  H18X 1030   4.920   4.035   5.713  1.3737  0.5680  0.5431
    8DOPE  H18Y 1031   4.842   4.159   5.623 -0.3057  1.0696  0.7507
    8DOPE  H18Z 1032   4.811   4.157   5.800 -2.1332  0.7274 -1.6356
    9DOPE     N 1033   1.752   5.034   7.283 -0.6061 -0.6292  0.2104
    9DOPE   HN1 1034   1.833   5.097   7.267 -0.0559 -1.1171  0.9726
    9DOPE   HN2 1035   1.730   5.027   7.385 -2.4288 -0.5007 -0.1530
    9DOPE   HN3 1036   1.779   4.935   7.269 -2.0018 -1.0421  0.2884
    9DOPE   C12 1037   1.639   5.080   7.196  0.2222  0.2529  0.2322
    9DOPE  H12A 1038   1.674   5.076   7.091  0.4221 -0.6499  0.3216
    9DOPE  H12B 1039   1.616   5.185   7.223 -1.7818 -0.5093  1.8811
    9DOPE   C11 1040   1.512   4.987   7.216  0.2164 -0.4771 -0.0071
    9DOPE  H11A 1041   1.535   4.906   7.144  2.3300  0.0372 -0.0023
    9DOPE  H11B 1042   1.419   5.040   7.186  0.1878 -0.9041 -0.6828
    9DOPE     P 1043   1.468   4.783   7.387  0.2453  0.2584 -0.4775
    9DOPE   O13 1044   1.352   4.776   7.482  0.0900 -0.1857  0.3553
    9DOPE   O14 1045   1.597   4.713   7.427  0.0359 -0.1064  0.1288
    9DOPE   O11 1046   1.424   4.722   7.249 -0.6868 -0.1181 -0.0660
    9DOPE   O12 1047   1.505   4.937   7.348 -0.0479  0.0510  0.4017
    9DOPE    C1 1048   1.290   4.730   7.204  0.0775 -0.6672 -0.7102
    9DOPE    HA 1049   1.258   4.836   7.201  0.6303 -0.5169 -1.4738
    9DOPE    HB 1050   1.220   4.670   7.266 -0.5502 -0.1532 -0.9173
    9DOPE    C2 1051   1.272   4.689   7.053 -0.2766 -1.2024 -0.6923
    9DOPE    HS 1052   1.165   4.706   7.031  0.0084 -0.0308 -1.2293
    9DOPE   O21 1053   1.306   4.550   7.047 -0.7153  0.3110  0.3021
    9DOPE   C21 1054   1.251   4.488   6.946  0.4465  0.3712 -0.3514
    9DOPE   O22 1055   1.156   4.532   6.884 -0.0314  0.3665  0.6675
    9DOPE   C22 1056   1.317   4.353   6.928 -0.7971 -0.0950 -0.5685
    9DOPE   H2R 1057   1.235   4.277   6.922  0.7243 -1.8886  0.3693
    9DOPE   H2S 1058   1.366   4.325   7.023 -0.3467 -0.9753 -1.0440
    9DOPE    C3 1059   1.362   4.779   6.961 -0.1491  0.2264 -0.6140
    9DOPE    HX 1060   1.465   4.748   6.989  0.0654 -0.3476 -1.9451
    9DOPE    HY 1061   1.344   4.886   6.988  1.8411  0.2303  1.0035
    9DOPE   O31 1062   1.344   4.751   6.820 -0.2781 -0.6911 -0.0236
    9DOPE   C31 1063   1.236   4.793   6.760 -0.3406 -0.8534  0.1314
    9DOPE   O32 1064   1.161   4.874   6.811 -0.2496  0.4363  0.7375
    9DOPE   C32 1065   1.222   4.737   6.618 -0.2065  0.0888 -0.2597
    9DOPE   H2X 1066   1.280   4.791   6.541  1.1587 -1.2998 -0.2542
    9DOPE   H2Y 1067   1.251   4.630   6.619 -1.5156 -0.2810 -0.4096
    9DOPE   C23 1068   1.407   4.346   6.804 -0.2239  0.5542 -0.7639
    9DOPE   H3R 1069   1.491   4.276   6.826  0.6586  1.3610 -1.4725
    9DOPE   H3S 1070   1.448   4.448   6.788 -0.4937  0.8507  0.3641
    9DOPE   C24 1071   1.321   4.299   6.682  0.1732  0.3078 -0.6100
    9DOPE   H4R 1072   1.234   4.362   6.655 -2.7681 -2.9491  0.4181
    9DOPE   H4S 1073   1.282   4.198   6.709  0.7464  0.4314  0.7616
    9DOPE   C25 1074   1.409   4.293   6.563 -0.5711 -0.9406 -0.6936
    9DOPE   H5R 1075   1.471   4.201   6.559  0.4866 -0.2249 -2.6997
    9DOPE   H5S 1076   1.486   4.373   6.562 -1.0108 -0.4613  1.0940
    9DOPE   C26 1077   1.326   4.290   6.429 -0.1712 -0.2670 -0.8996
    9DOPE   H6R 1078   1.280   4.390   6.420 -0.5436 -0.4069 -0.5479
    9DOPE   H6S 1079   1.247   4.212   6.437  1.1160 -1.4488  1.0116
    9DOPE   C27 1080   1.411   4.262   6.302  0.1698 -0.0526 -0.1576
    9DOPE   H7R 1081   1.480   4.177   6.321 -0.0523  0.1653  1.8658
    9DOPE   H7S 1082   1.470   4.353   6.277 -0.0779 -0.2404 -1.4701
    9DOPE   C28 1083   1.327   4.226   6.181  0.0837  0.3142  0.3982
    9DOPE   H8R 1084   1.276   4.130   6.204  0.7594  0.4208  2.6430
    9DOPE   H8S 1085   1.391   4.208   6.092 -1.5974  0.9109 -0.9794
    9DOPE   C29 1086   1.228   4.331   6.136  0.3976  0.0954 -0.4707
    9DOPE   H9R 1087   1.201   4.405   6.212  0.9826 -1.2719  1.1179
    9DOPE  C210 1088   1.172   4.345   6.019 -0.1487  0.2184  0.2398
    9DOPE  H10R 1089   1.105   4.429   5.997  0.2244  0.3239 -0.5078
    9DOPE  C211 1090   1.197   4.255   5.900 -0.3373 -0.8108  0.0823
    9DOPE  H11R 1091   1.101   4.263   5.845  0.8554 -1.4776 -2.2084
    9DOPE  H11S 1092   1.206   4.150   5.937  0.4835 -0.7119  0.1770
    9DOPE  C212 1093   1.315   4.282   5.807  0.2514  0.1447  0.7783
    9DOPE  H12R 1094   1.412   4.291   5.861 -0.5612  0.2679  2.2518
    9DOPE  H12S 1095   1.309   4.376   5.748 -0.7516 -1.3347 -1.6344
    9DOPE  C213 1096   1.333   4.176   5.695 -0.3171  0.0486 -0.3876
    9DOPE  H13R 1097   1.239   4.155   5.639 -0.5284 -0.7100  0.2297
    9DOPE  H13S 1098   1.358   4.079   5.743  0.5403 -0.3023 -1.5000
    9DOPE  C214 1099   1.447   4.208   5.594  0.2957  0.0765  0.6572
    9DOPE  H14R 1100   1.461   4.117   5.531  2.2865  0.0338  1.1046
    9DOPE  H14S 1101   1.547   4.223   5.640  1.2107 -1.5361 -0.6718
    9DOPE  C215 1102   1.417   4.326   5.505  0.4618  0.3536 -0.0064
    9DOPE  H15R 1103   1.414   4.421   5.562 -0.6361 -0.1425  0.8005
    9DOPE  H15S 1104   1.316   4.316   5.460 -0.2806  0.4308  1.5585
    9DOPE  C216 1105   1.512   4.331   5.382  0.2361 -0.7041 -0.5036
    9DOPE  H16R 1106   1.485   4.427   5.333 -1.9290 -0.3197  1.2644
    9DOPE  H16S 1107   1.485   4.255   5.307  0.2863 -0.5939 -0.6338
    9DOPE  C217 1108   1.657   4.320   5.424  0.0714 -0.0818  0.0816
    9DOPE  H17R 1109   1.667   4.214   5.458 -0.6087 -1.1625 -2.7837
    9DOPE  H17S 1110   1.673   4.384   5.514 -2.2830  1.3565 -0.4546
    9DOPE  C218 1111   1.750   4.345   5.308 -0.0755  0.4075  0.4501
    9DOPE  H18R 1112   1.746   4.257   5.240 -2.5766  0.0850  0.9243
    9DOPE  H18S 1113   1.854   4.363   5.342 -0.5626  1.4195  1.4693
    9DOPE  H18T 1114   1.721   4.435   5.250 -1.1692  0.3053  0.8282
    9DOPE   C33 1115   1.071   4.729   6.580 -0.2996 -0.0131 -0.4297
    9DOPE   H3X 1116   1.034   4.833   6.576 -0.3314 -0.0279 -0.5256
    9DOPE   H3Y 1117   1.026   4.672   6.664 -0.6482  1.0290  0.0976
    9DOPE   C34 1118   1.048   4.663   6.444  0.3843 -0.4621  0.5677
    9DOPE   H4X 1119   1.120   4.697   6.368 -1.0199 -1.6141 -1.3793
    9DOPE   H4Y 1120   1.067   4.554   6.435 -2.1956 -1.1946  2.5819
    9DOPE   C35 1121   0.903   4.681   6.397 -0.2301  0.0163  0.2914
    9DOPE   H5X 1122   0.869   4.787   6.389 -0.7067 -0.1658 -0.1704
    9DOPE   H5Y 1123   0.838   4.628   6.469  1.4202 -1.3415  0.8268
    9DOPE   C36 1124   0.873   4.615   6.261  0.4845  0.4369 -0.5476
    9DOPE   H6X 1125   0.927   4.518   6.262  0.4208  0.3961 -0.8900
    9DOPE   H6Y 1126   0.920   4.677   6.182  3.5958 -0.6351  0.3344
    9DOPE   C37 1127   0.728   4.586   6.218 -0.2575  0.5081  0.0151
    9DOPE   H7X 1128   0.674   4.536   6.302  0.1591 -1.1870 -0.6722
    9DOPE   H7Y 1129   0.679   4.685   6.204 -3.5030 -0.7282  1.5469
    9DOPE   C38 1130   0.702   4.508   6.092 -0.0102  0.2142  0.0740
    9DOPE   H8X 1131   0.593   4.487   6.090 -0.6627  3.2542 -0.4972
    9DOPE   H8Y 1132   0.761   4.416   6.074  2.2085  1.5163  0.3655
    9DOPE   C39 1133   0.743   4.604   5.982 -0.3042  0.7741 -0.6961
    9DOPE   H9X 1134   0.850   4.629   5.976  0.4719 -1.8898  0.3420
    9DOPE  C310 1135   0.671   4.660   5.883  0.5102  0.3260 -0.2450
    9DOPE  H10X 1136   0.706   4.741   5.818  1.3506  0.7043  0.6551
    9DOPE  C311 1137   0.522   4.635   5.867 -0.1132  0.2202  0.4630
    9DOPE  H11X 1138   0.510   4.525   5.860 -0.0160  0.0574  2.3450
    9DOPE  H11Y 1139   0.460   4.663   5.955 -0.4478 -0.6251  0.5095
    9DOPE  C312 1140   0.473   4.705   5.737  0.5405  0.9415  0.5353
    9DOPE  H12X 1141   0.485   4.815   5.746  1.2843  0.9233 -0.1516
    9DOPE  H12Y 1142   0.366   4.674   5.744  0.4859  0.9054 -0.3784
    9DOPE  C313 1143   0.537   4.658   5.605  0.7641 -0.4016 -0.1206
    9DOPE  H13X 1144   0.489   4.719   5.526  0.1482 -0.8030 -0.0697
    9DOPE  H13Y 1145   0.644   4.685   5.617  0.2030  1.8963  0.0128
    9DOPE  C314 1146   0.521   4.512   5.563 -0.3862  0.4778  0.2011
    9DOPE  H14X 1147   0.427   4.479   5.611  0.7870  1.4739  3.4399
    9DOPE  H14Y 1148   0.600   4.448   5.608 -2.2721 -1.6365  0.6848
    9DOPE  C315 1149   0.510   4.489   5.413  0.3798  0.4138  0.1084
    9DOPE  H15X 1150   0.610   4.525   5.378  0.8990 -0.5040  0.6132
    9DOPE  H15Y 1151   0.433   4.554   5.367  1.6690  1.2682 -0.9330
    9DOPE  C316 1152   0.505   4.340   5.371 -0.2417 -0.2463  0.5229
    9DOPE  H16X 1153   0.567   4.271   5.431 -0.2834 -1.0327 -0.3227
    9DOPE  H16Y 1154   0.560   4.331   5.275 -1.0479 -2.1158  0.1933
    9DOPE  C317 1155   0.366   4.271   5.356 -0.1317  0.0815 -0.1774
    9DOPE  H17X 1156   0.385   4.162   5.342  0.8457 -0.1234  2.1339
    9DOPE  H17Y 1157   0.320   4.275   5.457 -0.3364 -2.5881 -0.0834
    9DOPE  C318 1158   0.286   4.319   5.235  0.1688  0.5062  0.0623
    9DOPE  H18X 1159   0.190   4.265   5.228  0.6193 -0.1399 -1.4798
    9DOPE  H18Y 1160   0.267   4.428   5.240  0.9905  0.7624 -1.6473
    9DOPE  H18Z 1161   0.348   4.289   5.148  0.4109 -1.9459  0.9916
   10DOPE     N 1162   2.568   5.537   7.083  0.3172  0.4339  0.1639
   10DOPE   HN1 1163   2.475   5.493   7.066 -1.2491  2.5542  2.5439
   10DOPE   HN2 1164   2.627   5.468   7.134 -1.1422  0.3698  1.8698
   10DOPE   HN3 1165   2.541   5.615   7.147 -1.9119  0.9130 -1.2557
   10DOPE   C12 1166   2.630   5.589   6.954  0.0338 -0.1177  0.1443
   10DOPE  H12A 1167   2.673   5.513   6.886 -0.7999 -0.8344  0.3998
   10DOPE  H12B 1168   2.710   5.656   6.991 -0.2046 -0.5947  1.5548
   10DOPE   C11 1169   2.519   5.662   6.876  0.2635  0.0555 -0.1017
   10DOPE  H11A 1170   2.560   5.700   6.780  2.5608  1.9388  1.5358
   10DOPE  H11B 1171   2.488   5.757   6.925 -3.1072 -0.8241 -0.2497
   10DOPE     P 1172   2.411   5.453   6.751  0.1296 -0.0254  0.3187
   10DOPE   O13 1173   2.276   5.445   6.686  0.3610  0.3489 -0.3355
   10DOPE   O14 1174   2.451   5.326   6.814  0.0583  0.4496 -0.2439
   10DOPE   O11 1175   2.521   5.495   6.638 -0.3393 -0.3532  0.5583
   10DOPE   O12 1176   2.406   5.573   6.855  1.1030  0.0709 -0.3264
   10DOPE    C1 1177   2.484   5.576   6.523  0.0117 -0.4909  0.7125
   10DOPE    HA 1178   2.568   5.643   6.498  0.0518 -0.7068  0.2600
   10DOPE    HB 1179   2.396   5.637   6.553 -0.6785 -1.3065  0.4048
   10DOPE    C2 1180   2.460   5.484   6.397 -0.1787 -0.5642 -0.8493
   10DOPE    HS 1181   2.511   5.389   6.423  0.0706  0.6027  3.8345
   10DOPE   O21 1182   2.517   5.546   6.279 -0.2260 -0.9060  0.0539
   10DOPE   C21 1183   2.582   5.462   6.204 -0.6067  0.2475 -0.1581
   10DOPE   O22 1184   2.631   5.358   6.233 -0.5719  1.1330 -0.7324
   10DOPE   C22 1185   2.585   5.520   6.057 -0.6679  0.1180  0.0015
   10DOPE   H2R 1186   2.691   5.550   6.042 -0.2385 -0.3105  1.8507
   10DOPE   H2S 1187   2.520   5.610   6.053 -3.5215 -1.8656 -1.8473
   10DOPE    C3 1188   2.314   5.457   6.368  0.0742  0.1065  0.1347
   10DOPE    HX 1189   2.273   5.560   6.367 -0.4633  0.0467 -4.3493
   10DOPE    HY 1190   2.279   5.399   6.456  0.2431  0.1675  0.2414
   10DOPE   O31 1191   2.298   5.392   6.242  0.4182  0.1623  0.3013
   10DOPE   C31 1192   2.174   5.339   6.223  0.4495  0.1599 -0.2478
   10DOPE   O32 1193   2.096   5.304   6.311 -0.0462  0.6877  0.0632
   10DOPE   C32 1194   2.156   5.334   6.063  0.0880  0.2280 -0.6307
   10DOPE   H2X 1195   2.120   5.434   6.031 -0.4996 -0.6421 -2.8931
   10DOPE   H2Y 1196   2.259   5.315   6.026  1.8490  0.5987  3.5034
   10DOPE   C23 1197   2.519   5.426   5.949  0.9581 -0.5644  0.4113
   10DOPE   H3R 1198   2.410   5.447   5.960  0.6019 -1.5186 -1.1358
   10DOPE   H3S 1199   2.539   5.318   5.968 -0.9921 -0.8377  1.1748
   10DOPE   C24 1200   2.572   5.460   5.810 -0.0281 -0.3338 -0.2060
   10DOPE   H4R 1201   2.683   5.448   5.809 -0.0209 -0.3360  0.3761
   10DOPE   H4S 1202   2.540   5.563   5.784  0.0247  0.0227  1.0476
   10DOPE   C25 1203   2.530   5.368   5.692 -0.2349 -0.0863  0.6376
   10DOPE   H5R 1204   2.419   5.371   5.689 -0.2127  1.6533  0.8237
   10DOPE   H5S 1205   2.574   5.268   5.714  2.0581  0.5992 -0.5414
   10DOPE   C26 1206   2.590   5.403   5.554 -0.8741 -0.0966 -0.1869
   10DOPE   H6R 1207   2.700   5.419   5.560 -1.1462  1.5466  1.1090
   10DOPE   H6S 1208   2.555   5.504   5.526  0.9633  1.5437  2.9049
   10DOPE   C27 1209   2.569   5.311   5.436 -0.4888 -0.0474  0.1392
   10DOPE   H7R 1210   2.463   5.287   5.415 -0.4207 -1.3574  1.1659
   10DOPE   H7S 1211   2.626   5.221   5.467  0.3747  0.2930 -0.4218
   10DOPE   C28 1212   2.637   5.363   5.307  0.6886 -0.1014 -0.4776
   10DOPE   H8R 1213   2.742   5.393   5.325  0.2707 -0.7346  4.1519
   10DOPE   H8S 1214   2.572   5.446   5.271  0.5453 -1.1954 -2.8940
   10DOPE   C29 1215   2.625   5.271   5.187  0.3675  0.0137  0.0153
   10DOPE   H9R 1216   2.526   5.277   5.140  1.3209  1.6580 -1.8930
   10DOPE  C210 1217   2.721   5.201   5.127  0.9204  0.4586  0.7022
   10DOPE  H10R 1218   2.693   5.140   5.040  0.0500 -0.5547  1.6458
   10DOPE  C211 1219   2.866   5.204   5.171 -0.2337 -0.1617 -0.1167
   10DOPE  H11R 1220   2.894   5.125   5.245 -0.5980  1.1090  1.4318
   10DOPE  H11S 1221   2.897   5.297   5.223  0.3771 -0.3292 -0.1735
   10DOPE  C212 1222   2.963   5.184   5.046  0.5652  1.2372 -0.0355
   10DOPE  H12R 1223   2.932   5.255   4.967 -0.5114  0.2599 -0.5274
   10DOPE  H12S 1224   2.951   5.081   5.006  0.3058  1.3719 -0.3098
   10DOPE  C213 1225   3.113   5.207   5.078  0.6815  0.4502  0.2146
   10DOPE  H13R 1226   3.133   5.136   5.161  1.6194 -1.5368 -1.5995
   10DOPE  H13S 1227   3.128   5.308   5.120 -1.5724  1.4178 -1.0848
   10DOPE  C214 1228   3.210   5.182   4.964  0.1423 -0.2140  0.4936
   10DOPE  H14R 1229   3.189   5.234   4.869 -1.4074 -0.8662  0.4538
   10DOPE  H14S 1230   3.213   5.074   4.937 -0.6004 -0.2367  0.4829
   10DOPE  C215 1231   3.349   5.229   5.002  0.8317  0.1525  0.7937
   10DOPE  H15R 1232   3.351   5.336   5.034  0.5832  0.3796  0.0640
   10DOPE  H15S 1233   3.417   5.224   4.915  1.3668 -0.3029  1.2324
   10DOPE  C216 1234   3.409   5.154   5.113  0.1198 -0.6173 -0.0965
   10DOPE  H16R 1235   3.436   5.054   5.073  1.2274  0.1454 -1.3134
   10DOPE  H16S 1236   3.356   5.151   5.211 -0.0080  1.0274 -0.0761
   10DOPE  C217 1237   3.538   5.231   5.158  0.2948 -0.0127  0.4288
   10DOPE  H17R 1238   3.503   5.332   5.187  2.9051  0.8537  0.7850
   10DOPE  H17S 1239   3.615   5.242   5.079  0.7302 -0.6562  0.7536
   10DOPE  C218 1240   3.610   5.168   5.273  0.8845 -0.1813  0.3554
   10DOPE  H18R 1241   3.685   5.240   5.312 -1.6799  2.0861  1.4887
   10DOPE  H18S 1242   3.665   5.080   5.235  0.1148 -0.3742 -0.3357
   10DOPE  H18T 1243   3.539   5.143   5.355  0.6555 -3.2949 -0.6778
   10DOPE   C33 1244   2.064   5.224   6.019  1.0845  0.2609 -0.3000
   10DOPE   H3X 1245   1.960   5.253   6.044  1.4517  1.5051 -0.1476
   10DOPE   H3Y 1246   2.085   5.125   6.065  0.7217 -0.4688 -1.6393
   10DOPE   C34 1247   2.065   5.206   5.863 -0.1797  0.8890  0.3525
   10DOPE   H4X 1248   1.987   5.130   5.844  2.5710 -2.0600 -0.0635
   10DOPE   H4Y 1249   2.036   5.302   5.816  0.5477  1.5782  1.2734
   10DOPE   C35 1250   2.194   5.145   5.818 -0.0662  0.1388  0.6662
   10DOPE   H5X 1251   2.218   5.071   5.897  2.4011  1.0228  0.8621
   10DOPE   H5Y 1252   2.281   5.214   5.808  0.8434 -1.1192 -0.5852
   10DOPE   C36 1253   2.201   5.064   5.680 -0.2740 -0.2141  0.0721
   10DOPE   H6X 1254   2.122   4.986   5.681 -1.0088  0.5206  0.4534
   10DOPE   H6Y 1255   2.295   5.005   5.677 -0.6962 -0.8813 -0.4092
   10DOPE   C37 1256   2.177   5.147   5.553  0.0128 -0.3302  0.0939
   10DOPE   H7X 1257   2.078   5.197   5.559  1.0426  1.7567  0.4238
   10DOPE   H7Y 1258   2.243   5.236   5.555  1.0196 -1.0595  0.2147
   10DOPE   C38 1259   2.178   5.066   5.426  0.2057 -0.5156  0.4090
   10DOPE   H8X 1260   2.110   5.103   5.346 -0.5328 -1.5339  0.5448
   10DOPE   H8Y 1261   2.124   4.971   5.448  0.7318 -1.0091 -0.3769
   10DOPE   C39 1262   2.316   5.055   5.364  0.2615  0.2514  0.2738
   10DOPE   H9X 1263   2.356   5.152   5.333  0.9075 -0.0416  0.1836
   10DOPE  C310 1264   2.376   4.935   5.336 -0.4503 -0.0798 -0.1566
   10DOPE  H10X 1265   2.479   4.946   5.299  0.1119 -0.7218  1.1706
   10DOPE  C311 1266   2.330   4.790   5.361  0.3961 -0.3332 -0.7866
   10DOPE  H11X 1267   2.234   4.776   5.416  0.9766 -0.1050  0.3130
   10DOPE  H11Y 1268   2.311   4.739   5.265 -2.1201 -0.0710 -0.4983
   10DOPE  C312 1269   2.424   4.720   5.460 -0.0781  0.2474 -0.8736
   10DOPE  H12X 1270   2.386   4.617   5.475 -0.1747  0.3243 -0.5940
   10DOPE  H12Y 1271   2.417   4.768   5.560 -0.2205 -0.1564 -0.6889
   10DOPE  C313 1272   2.566   4.699   5.409 -0.1491 -0.3359  0.1470
   10DOPE  H13X 1273   2.557   4.651   5.310 -0.8562 -0.7103  0.3846
   10DOPE  H13Y 1274   2.618   4.796   5.396 -1.1139  0.0243 -1.2526
   10DOPE  C314 1275   2.635   4.603   5.502  0.4053 -0.1144  0.3025
   10DOPE  H14X 1276   2.587   4.503   5.506  1.8798 -0.8705 -0.0662
   10DOPE  H14Y 1277   2.646   4.654   5.600  0.8355 -0.6566  0.5436
   10DOPE  C315 1278   2.777   4.570   5.460  0.0633 -0.3310 -0.7085
   10DOPE  H15X 1279   2.832   4.510   5.536  0.9294 -0.1076 -1.1532
   10DOPE  H15Y 1280   2.837   4.662   5.447 -0.0116 -0.0973  0.4878
   10DOPE  C316 1281   2.783   4.487   5.335  0.3502 -0.4407 -0.8658
   10DOPE  H16X 1282   2.738   4.554   5.258 -0.5689  1.2974  1.0810
   10DOPE  H16Y 1283   2.706   4.407   5.331 -0.9069  0.7576 -1.4647
   10DOPE  C317 1284   2.918   4.442   5.300  0.2240  0.1687  0.4684
   10DOPE  H17X 1285   2.989   4.527   5.296  1.6906 -1.0428 -2.2718
   10DOPE  H17Y 1286   2.951   4.374   5.381  1.0580  1.4088  1.2089
   10DOPE  C318 1287   2.918   4.366   5.159 -0.3571 -0.3886  0.3001
   10DOPE  H18X 1288   2.908   4.449   5.085  0.9369  1.8219  2.4565
   10DOPE  H18Y 1289   3.016   4.317   5.141  0.4559  1.8916 -2.1324
   10DOPE  H18Z 1290   2.838   4.290   5.163 -1.0222  0.3684  2.5260
   11DOPE     N 1291   0.422   3.529   7.614 -0.1728 -0.1542  0.4023
   11DOPE   HN1 1292   0.476   3.581   7.685  1.3613 -0.8083 -0.2500
   11DOPE   HN2 1293   0.334   3.499   7.661 -0.0216  0.6765  1.2451
   11DOPE   HN3 1294   0.485   3.451   7.588  1.0926  1.4761 -1.6772
   11DOPE   C12 1295   0.410   3.623   7.499  0.9994  0.2855 -0.6458
   11DOPE  H12A 1296   0.348   3.579   7.419  0.7096 -0.3784 -0.0658
   11DOPE  H12B 1297   0.510   3.652   7.460  0.3616  4.2072  0.1829
   11DOPE   C11 1298   0.332   3.752   7.539 -0.4376  0.4794  0.1264
   11DOPE  H11A 1299   0.236   3.721   7.586 -0.1542 -0.1794  0.2768
   11DOPE  H11B 1300   0.315   3.802   7.441  2.2891  1.5073  0.1114
   11DOPE     P 1301   0.379   3.980   7.661  0.4484  0.0219  0.0114
   11DOPE   O13 1302   0.500   4.031   7.727 -0.2978  0.0732  0.3834
   11DOPE   O14 1303   0.252   3.981   7.730  0.1126 -0.1131 -0.1060
   11DOPE   O11 1304   0.361   4.055   7.524  0.1420  0.2498 -0.2335
   11DOPE   O12 1305   0.414   3.835   7.624  0.0075  0.0760  0.2044
   11DOPE    C1 1306   0.286   4.178   7.513  0.5307  0.1832 -0.6960
   11DOPE    HA 1307   0.262   4.227   7.610 -1.0686 -0.3745 -0.7800
   11DOPE    HB 1308   0.179   4.153   7.499  0.4614 -0.9997  1.5510
   11DOPE    C2 1309   0.346   4.278   7.409  0.5741 -0.2662  0.0204
   11DOPE    HS 1310   0.270   4.358   7.400  2.0587  1.2249  0.2332
   11DOPE   O21 1311   0.369   4.211   7.288  0.0017  0.4265 -0.2021
   11DOPE   C21 1312   0.258   4.176   7.218  0.2611 -1.1504 -0.6725
   11DOPE   O22 1313   0.142   4.191   7.261  0.0884  0.2715  0.3339
   11DOPE   C22 1314   0.302   4.118   7.086 -0.2240 -0.1243 -0.4071
   11DOPE   H2R 1315   0.294   4.008   7.090  0.3150 -0.1220  1.8644
   11DOPE   H2S 1316   0.409   4.141   7.068 -0.3454  1.1704  0.4095
   11DOPE    C3 1317   0.476   4.355   7.458  0.3234  0.8084 -0.2350
   11DOPE    HX 1318   0.559   4.282   7.470 -0.4213  0.0262  0.3455
   11DOPE    HY 1319   0.454   4.408   7.553  0.4640 -0.7985  0.7393
   11DOPE   O31 1320   0.506   4.457   7.365  0.0169  0.7856 -0.4640
   11DOPE   C31 1321   0.579   4.417   7.254  0.3543 -0.0617 -0.0831
   11DOPE   O32 1322   0.615   4.304   7.229 -0.2758  0.0750 -0.0058
   11DOPE   C32 1323   0.596   4.526   7.155 -0.1104 -0.4487 -0.4277
   11DOPE   H2X 1324   0.528   4.612   7.176  2.1242  1.3657 -0.2316
   11DOPE   H2Y 1325   0.700   4.560   7.174  0.1486  0.2234 -2.7352
   11DOPE   C23 1326   0.220   4.177   6.974  0.1159 -0.1914  0.2519
   11DOPE   H3R 1327   0.241   4.286   6.967  0.9536 -0.3413  0.3682
   11DOPE   H3S 1328   0.110   4.166   6.986  0.0222  1.6325  1.5332
   11DOPE   C24 1329   0.266   4.120   6.832  0.6736 -0.2054 -0.0897
   11DOPE   H4R 1330   0.277   4.010   6.843 -0.5511 -0.5187 -1.6727
   11DOPE   H4S 1331   0.357   4.178   6.805  0.6440 -0.0979  0.0387
   11DOPE   C25 1332   0.157   4.144   6.725 -0.4679 -0.0767  0.1106
   11DOPE   H5R 1333   0.185   4.129   6.619 -0.5822 -0.8567  0.1862
   11DOPE   H5S 1334   0.114   4.243   6.751 -0.6622 -0.3690  0.9560
   11DOPE   C26 1335   0.042   4.046   6.734  0.3208  0.7570 -0.5003
   11DOPE   H6R 1336   0.028   4.014   6.840  1.0228  0.4392 -0.4957
   11DOPE   H6S 1337   0.060   3.945   6.693  1.5176  0.6384  0.2439
   11DOPE   C27 1338  -0.090   4.108   6.706 -0.6221  0.3300  0.2787
   11DOPE   H7R 1339  -0.103   4.182   6.788 -0.3221  0.1269  0.5122
   11DOPE   H7S 1340  -0.166   4.027   6.713  0.5373 -0.8263 -0.0190
   11DOPE   C28 1341  -0.102   4.185   6.573  0.1466  0.0483 -0.0653
   11DOPE   H8R 1342  -0.023   4.262   6.579 -1.2829  1.4982  0.9344
   11DOPE   H8S 1343  -0.200   4.236   6.564  1.4526  2.4146 -1.6814
   11DOPE   C29 1344  -0.077   4.087   6.462 -0.5583 -0.9136  0.2129
   11DOPE   H9R 1345  -0.001   4.011   6.484 -0.6028 -0.8711  0.5079
   11DOPE  C210 1346  -0.119   4.091   6.335 -0.5954 -0.8420  0.2231
   11DOPE  H10R 1347  -0.071   4.022   6.263 -1.4341 -0.9110 -0.2777
   11DOPE  C211 1348  -0.208   4.195   6.285 -0.8445 -0.0408 -0.8617
   11DOPE  H11R 1349  -0.166   4.293   6.316  2.0038 -0.8541 -1.8069
   11DOPE  H11S 1350  -0.305   4.173   6.333  0.0129  0.9409  1.4725
   11DOPE  C212 1351  -0.220   4.193   6.127  0.1352 -0.8305 -0.1552
   11DOPE  H12R 1352  -0.259   4.093   6.098 -0.6461 -0.5258 -0.1959
   11DOPE  H12S 1353  -0.129   4.212   6.067  0.7777 -1.6714  0.5268
   11DOPE  C213 1354  -0.330   4.292   6.078 -1.3120  0.0364  0.5145
   11DOPE  H13R 1355  -0.310   4.390   6.127  1.7014  0.8019 -1.9044
   11DOPE  H13S 1356  -0.429   4.256   6.113 -1.8150  1.8225  1.0040
   11DOPE  C214 1357  -0.337   4.294   5.930 -0.8297 -0.1473  0.1033
   11DOPE  H14R 1358  -0.245   4.268   5.874 -0.1997 -0.1122  1.0961
   11DOPE  H14S 1359  -0.365   4.399   5.907 -0.2800  0.4809  2.0979
   11DOPE  C215 1360  -0.445   4.193   5.884  0.5134  0.3505  0.0213
   11DOPE  H15R 1361  -0.544   4.217   5.927  0.5945 -0.5935  0.7641
   11DOPE  H15S 1362  -0.414   4.093   5.921 -0.9615 -0.6140 -1.2308
   11DOPE  C216 1363  -0.450   4.179   5.726 -0.9665 -0.1269 -0.2662
   11DOPE  H16R 1364  -0.346   4.172   5.687 -0.2117  0.7046  1.5132
   11DOPE  H16S 1365  -0.515   4.264   5.694 -0.2947 -0.0051 -1.3576
   11DOPE  C217 1366  -0.523   4.056   5.677  0.6086 -0.3044  0.4491
   11DOPE  H17R 1367  -0.616   4.053   5.738  0.0350  2.7847 -0.1465
   11DOPE  H17S 1368  -0.465   3.962   5.690 -0.4546 -1.0226  0.1359
   11DOPE  C218 1369  -0.562   4.075   5.533  0.1693 -0.3819 -0.3641
   11DOPE  H18R 1370  -0.635   3.994   5.513  0.5343 -0.5779 -0.9121
   11DOPE  H18S 1371  -0.476   4.069   5.462  1.4010 -0.4094  1.0757
   11DOPE  H18T 1372  -0.605   4.174   5.509  1.4865  0.2990 -0.0047
   11DOPE   C33 1373   0.602   4.475   7.007 -0.5614 -0.4126 -0.3476
   11DOPE   H3X 1374   0.654   4.377   6.998 -1.1761 -0.7875  0.0688
   11DOPE   H3Y 1375   0.666   4.546   6.951 -1.6964 -0.2028 -1.4100
   11DOPE   C34 1376   0.468   4.483   6.936  0.2539 -0.5484  0.1966
   11DOPE   H4X 1377   0.409   4.402   6.986 -2.8542  1.8359  0.7386
   11DOPE   H4Y 1378   0.416   4.579   6.957 -3.2176 -2.3994  0.9440
   11DOPE   C35 1379   0.478   4.466   6.783 -0.1203 -0.4128 -0.6003
   11DOPE   H5X 1380   0.523   4.367   6.760  1.3481 -0.1015  0.7300
   11DOPE   H5Y 1381   0.547   4.545   6.746 -0.1162 -1.1408 -2.2139
   11DOPE   C36 1382   0.340   4.460   6.716 -0.3126  0.2276  0.2703
   11DOPE   H6X 1383   0.293   4.561   6.725 -0.3115  0.1341  1.5193
   11DOPE   H6Y 1384   0.286   4.384   6.777  0.5947 -0.7159 -0.0766
   11DOPE   C37 1385   0.350   4.434   6.566  0.3445 -0.4102  0.4146
   11DOPE   H7X 1386   0.393   4.332   6.556  1.6438  0.1812 -0.2387
   11DOPE   H7Y 1387   0.243   4.437   6.535  0.3487  0.8972  0.4930
   11DOPE   C38 1388   0.432   4.542   6.482 -0.2844 -0.3111 -0.3171
   11DOPE   H8X 1389   0.440   4.491   6.383 -0.4202 -3.3530  1.1153
   11DOPE   H8Y 1390   0.536   4.553   6.518 -0.1804  0.3691 -0.8061
   11DOPE   C39 1391   0.357   4.672   6.468 -0.0864 -0.4953  0.0274
   11DOPE   H9X 1392   0.372   4.739   6.554  2.1244  0.0030 -0.6703
   11DOPE  C310 1393   0.276   4.693   6.366 -0.5332  0.2721 -0.2969
   11DOPE  H10X 1394   0.232   4.793   6.349  0.6384  0.6755 -1.1286
   11DOPE  C311 1395   0.253   4.601   6.251 -0.2251  0.3938 -0.1883
   11DOPE  H11X 1396   0.353   4.598   6.203 -0.3530 -2.1400 -0.4595
   11DOPE  H11Y 1397   0.233   4.497   6.285  1.4628 -0.0316 -0.3840
   11DOPE  C312 1398   0.140   4.655   6.165 -0.2535 -0.3617 -0.0783
   11DOPE  H12X 1399   0.178   4.747   6.116  0.2810 -0.9116 -0.6914
   11DOPE  H12Y 1400   0.053   4.683   6.229  1.2339  1.5578  1.2377
   11DOPE  C313 1401   0.086   4.569   6.053 -0.2467 -0.4249 -0.2962
   11DOPE  H13X 1402   0.172   4.531   5.994  0.0200 -1.1375  0.5212
   11DOPE  H13Y 1403   0.032   4.480   6.091  1.1615 -1.1427  0.0988
   11DOPE  C314 1404  -0.009   4.635   5.947 -0.4582  0.2137 -0.8041
   11DOPE  H14X 1405   0.037   4.733   5.921 -0.1796  0.4674  0.5687
   11DOPE  H14Y 1406  -0.103   4.634   6.006 -0.3288  1.3843 -0.5428
   11DOPE  C315 1407  -0.007   4.558   5.817 -0.8073  0.0112 -0.7332
   11DOPE  H15X 1408  -0.055   4.460   5.840 -2.4130  0.8504 -0.3741
   11DOPE  H15Y 1409   0.094   4.553   5.771 -0.5339 -0.3362 -0.1062
   11DOPE  C316 1410  -0.080   4.621   5.700  0.0977  0.0234 -0.5793
   11DOPE  H16X 1411  -0.034   4.721   5.680 -0.0232  0.0753 -0.5978
   11DOPE  H16Y 1412  -0.182   4.639   5.739  1.1383  0.2712  2.2306
   11DOPE  C317 1413  -0.063   4.544   5.570  0.4753 -0.1271 -0.1089
   11DOPE  H17X 1414   0.044   4.545   5.540  0.6348  0.2046  0.4527
   11DOPE  H17Y 1415  -0.101   4.442   5.591 -1.6955  0.7097  0.2167
   11DOPE  C318 1416  -0.127   4.592   5.449  0.2179 -0.5526 -0.0782
   11DOPE  H18X 1417  -0.082   4.555   5.354 -1.7597 -3.1326 -0.1227
   11DOPE  H18Y 1418  -0.236   4.575   5.444 -0.1878  2.0318 -1.4569
   11DOPE  H18Z 1419  -0.120   4.703   5.458  0.5034 -0.6094  0.5176
   12DOPE     N 1420   3.609   6.534   6.640  0.1482 -0.2289 -0.1840
   12DOPE   HN1 1421   3.509   6.560   6.657  0.0151 -0.5356 -0.4783
   12DOPE   HN2 1422   3.664   6.622   6.627 -0.1300  0.0368  0.3877
   12DOPE   HN3 1423   3.608   6.475   6.554  0.1649 -1.1155  0.4094
   12DOPE   C12 1424   3.663   6.442   6.752  0.0748 -0.1595  0.3438
   12DOPE  H12A 1425   3.603   6.349   6.747  1.0789 -0.7838 -0.8820
   12DOPE  H12B 1426   3.639   6.486   6.851 -1.3983 -3.7217  1.7523
   12DOPE   C11 1427   3.811   6.433   6.754  0.0504 -0.3759 -0.3246
   12DOPE  H11A 1428   3.855   6.407   6.656 -1.2461  1.2455 -1.3864
   12DOPE  H11B 1429   3.843   6.346   6.815  0.8564 -0.0901 -0.3352
   12DOPE     P 1430   3.945   6.664   6.741  0.0663  0.3226  0.0707
   12DOPE   O13 1431   4.069   6.614   6.675  0.0460 -0.2325  0.2172
   12DOPE   O14 1432   3.964   6.771   6.838  0.1502 -0.5153 -0.2201
   12DOPE   O11 1433   3.835   6.707   6.631  0.1258 -0.1456 -0.0592
   12DOPE   O12 1434   3.873   6.549   6.811 -0.1121 -0.8241 -0.1328
   12DOPE    C1 1435   3.851   6.807   6.538  0.2252 -0.1291 -0.0594
   12DOPE    HA 1436   3.947   6.861   6.553  0.6638 -1.4967  2.8191
   12DOPE    HB 1437   3.775   6.882   6.568  2.5577  1.4605  2.4112
   12DOPE    C2 1438   3.834   6.771   6.384 -0.4012 -0.8746  0.6607
   12DOPE    HS 1439   3.875   6.854   6.324 -1.3019  1.1317  2.6721
   12DOPE   O21 1440   3.702   6.742   6.342  0.3799  0.6213 -0.2042
   12DOPE   C21 1441   3.623   6.843   6.329 -0.1298  0.3694 -0.4142
   12DOPE   O22 1442   3.651   6.963   6.348 -0.2499  0.0080 -0.0541
   12DOPE   C22 1443   3.490   6.777   6.300 -0.0590  0.5399  0.3333
   12DOPE   H2R 1444   3.462   6.720   6.391 -0.2694  1.1682  0.6748
   12DOPE   H2S 1445   3.505   6.695   6.228  0.1393  0.5937  0.3124
   12DOPE    C3 1446   3.919   6.640   6.362  0.2492 -0.3196  0.7178
   12DOPE    HX 1447   3.866   6.556   6.411  0.1565 -0.8309 -0.2392
   12DOPE    HY 1448   4.015   6.667   6.412  0.0094  3.4684 -0.5715
   12DOPE   O31 1449   3.932   6.619   6.224  0.3520 -0.0715  0.5846
   12DOPE   C31 1450   3.992   6.504   6.184  0.0831 -0.4457 -0.5907
   12DOPE   O32 1451   4.028   6.409   6.256  0.1723  0.4566 -0.2854
   12DOPE   C32 1452   4.016   6.515   6.037 -0.6587  0.2653  0.5032
   12DOPE   H2X 1453   3.951   6.591   5.989 -0.3840  0.1811 -0.0117
   12DOPE   H2Y 1454   4.117   6.552   6.007 -1.6667  1.5364 -1.4838
   12DOPE   C23 1455   3.383   6.872   6.247 -0.1107 -0.1185  0.1656
   12DOPE   H3R 1456   3.411   6.974   6.281  0.1984  0.3629 -1.4537
   12DOPE   H3S 1457   3.285   6.855   6.297 -1.5075 -1.1281 -2.7087
   12DOPE   C24 1458   3.365   6.867   6.093 -0.3283 -0.0303  0.6554
   12DOPE   H4R 1459   3.271   6.917   6.060  0.1892  0.0072 -0.7960
   12DOPE   H4S 1460   3.366   6.760   6.063  1.3744  0.4680 -1.2326
   12DOPE   C25 1461   3.493   6.929   6.021 -0.3365 -1.1744 -0.5412
   12DOPE   H5R 1462   3.579   6.869   6.057  1.7609  2.0534  0.2507
   12DOPE   H5S 1463   3.504   7.033   6.059 -1.8502 -0.2805 -2.4336
   12DOPE   C26 1464   3.485   6.936   5.867 -0.0329 -0.3304  0.0555
   12DOPE   H6R 1465   3.578   6.972   5.817  0.1420 -1.6658 -0.6313
   12DOPE   H6S 1466   3.394   6.995   5.842  0.2701 -0.0250 -0.3442
   12DOPE   C27 1467   3.470   6.792   5.800 -0.4893 -1.4473  0.0430
   12DOPE   H7R 1468   3.381   6.742   5.842 -1.4900 -1.4682 -1.9657
   12DOPE   H7S 1469   3.556   6.724   5.817  0.2796 -0.8646 -1.3134
   12DOPE   C28 1470   3.453   6.801   5.649 -0.1929  0.0438 -0.8430
   12DOPE   H8R 1471   3.358   6.856   5.631  0.3318  1.7995  1.3348
   12DOPE   H8S 1472   3.450   6.693   5.621  2.6602 -0.0868 -0.9905
   12DOPE   C29 1473   3.570   6.853   5.573  0.1290 -0.6716  0.1664
   12DOPE   H9R 1474   3.668   6.836   5.620  0.2936  0.7412  0.3509
   12DOPE  C210 1475   3.565   6.930   5.454  0.0504  0.7201 -0.3916
   12DOPE  H10R 1476   3.660   6.942   5.401 -0.5658 -0.1355 -1.7409
   12DOPE  C211 1477   3.444   6.971   5.387  0.1934  0.7702  1.3574
   12DOPE  H11R 1478   3.401   7.065   5.428 -2.8466  0.0600  0.1204
   12DOPE  H11S 1479   3.360   6.898   5.393 -1.0157  2.0699  0.8475
   12DOPE  C212 1480   3.470   6.989   5.234 -0.0792 -0.2692  0.1325
   12DOPE  H12R 1481   3.555   7.060   5.222 -0.5867  0.2468 -0.5706
   12DOPE  H12S 1482   3.379   7.036   5.190 -1.2215 -2.3918  0.1377
   12DOPE  C213 1483   3.527   6.875   5.157  0.1099 -0.1688  0.3520
   12DOPE  H13R 1484   3.457   6.794   5.186 -0.3673  0.1208  0.0196
   12DOPE  H13S 1485   3.630   6.839   5.178 -0.6549 -3.4534 -0.9619
   12DOPE  C214 1486   3.534   6.909   5.005 -0.3381  0.0285  0.3864
   12DOPE  H14R 1487   3.585   6.818   4.966  2.1633  0.8392  1.6074
   12DOPE  H14S 1488   3.597   7.000   4.995 -1.4708  1.0211  1.9350
   12DOPE  C215 1489   3.389   6.926   4.941 -0.5107  0.0876 -0.7956
   12DOPE  H15R 1490   3.343   7.019   4.980  1.4205  0.7232  0.1066
   12DOPE  H15S 1491   3.331   6.841   4.983  1.1065 -0.1178  1.1802
   12DOPE  C216 1492   3.390   6.928   4.784  0.1817 -0.2436 -1.0606
   12DOPE  H16R 1493   3.451   6.842   4.749  2.4444  0.7654  0.1510
   12DOPE  H16S 1494   3.446   7.024   4.775  0.0472  0.0649  0.9913
   12DOPE  C217 1495   3.259   6.933   4.704  0.3730  0.7908  0.2753
   12DOPE  H17R 1496   3.233   7.040   4.691 -0.0920  0.9119  1.9134
   12DOPE  H17S 1497   3.189   6.875   4.769 -0.2662  0.6164 -0.5588
   12DOPE  C218 1498   3.261   6.868   4.566 -0.0547 -0.6731  0.5242
   12DOPE  H18R 1499   3.336   6.919   4.502  1.3705 -1.7584  1.2722
   12DOPE  H18S 1500   3.159   6.875   4.523  0.4118  0.2383 -0.4958
   12DOPE  H18T 1501   3.290   6.761   4.565  1.1363 -0.3683 -0.7364
   12DOPE   C33 1502   4.004   6.384   5.958 -0.9715  0.5837  0.7595
   12DOPE   H3X 1503   3.915   6.321   5.980 -0.2082 -1.1554 -0.8213
   12DOPE   H3Y 1504   4.097   6.324   5.953 -1.7268 -0.5081 -1.9801
   12DOPE   C34 1505   3.995   6.421   5.808  0.1273  0.3252  0.2016
   12DOPE   H4X 1506   3.907   6.485   5.787 -1.9599 -2.5328 -0.2625
   12DOPE   H4Y 1507   4.084   6.479   5.775  0.0684 -0.1077 -0.7529
   12DOPE   C35 1508   3.991   6.296   5.717 -0.2686  0.1264 -0.8462
   12DOPE   H5X 1509   3.906   6.236   5.754 -1.0643  1.0846 -1.0739
   12DOPE   H5Y 1510   4.083   6.236   5.735 -0.8590  0.1266  2.9162
   12DOPE   C36 1511   3.974   6.319   5.565  0.3574  0.0086 -0.2513
   12DOPE   H6X 1512   4.057   6.384   5.529  1.0383  0.2568  1.6486
   12DOPE   H6Y 1513   3.888   6.388   5.553 -0.6493 -0.9913  0.9135
   12DOPE   C37 1514   3.969   6.204   5.475  0.1490  0.3243 -0.3006
   12DOPE   H7X 1515   4.003   6.229   5.372  2.1711 -0.3760  0.1499
   12DOPE   H7Y 1516   4.053   6.138   5.504 -0.8012 -1.0752 -0.6092
   12DOPE   C38 1517   3.834   6.143   5.476  0.5463  0.4531 -0.2260
   12DOPE   H8X 1518   3.772   6.211   5.414 -1.5544 -0.2376  0.9958
   12DOPE   H8Y 1519   3.784   6.141   5.575 -1.2054 -0.1701 -1.0815
   12DOPE   C39 1520   3.840   6.003   5.415 -0.5722 -0.2974 -0.1533
   12DOPE   H9X 1521   3.897   5.938   5.483  3.8696  0.4314 -2.7407
   12DOPE  C310 1522   3.797   5.969   5.295  0.6005  0.1204 -0.1419
   12DOPE  H10X 1523   3.820   5.868   5.258 -1.7979  0.2638 -2.3093
   12DOPE  C311 1524   3.729   6.052   5.188 -1.0388  0.1957 -1.2459
   12DOPE  H11X 1525   3.638   5.992   5.167  0.1555 -2.6183  1.0766
   12DOPE  H11Y 1526   3.718   6.156   5.226  3.0494 -0.7057  3.3387
   12DOPE  C312 1527   3.818   6.063   5.058  0.3128 -0.8175 -0.0615
   12DOPE  H12X 1528   3.846   5.960   5.026  2.5593 -0.2460 -0.1106
   12DOPE  H12Y 1529   3.913   6.114   5.085 -1.3046  2.3655  0.0815
   12DOPE  C313 1530   3.758   6.131   4.932  0.1265  0.7089  0.0102
   12DOPE  H13X 1531   3.657   6.089   4.911  0.2900 -0.9202  2.0740
   12DOPE  H13Y 1532   3.742   6.239   4.952  2.0707  1.0063  0.1406
   12DOPE  C314 1533   3.849   6.120   4.805 -0.6161  0.7714 -1.0481
   12DOPE  H14X 1534   3.843   6.017   4.763 -1.8729  0.9405 -1.3107
   12DOPE  H14Y 1535   3.954   6.130   4.841  0.1504 -0.7812 -2.7084
   12DOPE  C315 1536   3.817   6.223   4.696  0.5838 -0.3537 -0.0047
   12DOPE  H15X 1537   3.787   6.315   4.751 -1.2259 -1.1352  0.3822
   12DOPE  H15Y 1538   3.725   6.202   4.638 -0.1154  2.1336  0.0994
   12DOPE  C316 1539   3.936   6.250   4.606 -0.2135 -0.5657  0.0627
   12DOPE  H16X 1540   3.930   6.171   4.529  0.0377 -0.1540 -0.3860
   12DOPE  H16Y 1541   4.031   6.256   4.663  0.3957  0.2450 -0.9960
   12DOPE  C317 1542   3.918   6.386   4.537  0.5166  0.0839 -0.2616
   12DOPE  H17X 1543   3.817   6.395   4.490 -0.5945  0.2972  2.0346
   12DOPE  H17Y 1544   3.933   6.471   4.606  1.0381 -1.1953  1.2525
   12DOPE  C318 1545   4.023   6.409   4.428 -0.0911 -0.4024  0.2612
   12DOPE  H18X 1546   4.006   6.496   4.361  1.2661  0.1052  0.5365
   12DOPE  H18Y 1547   4.121   6.415   4.480  0.2992 -0.9936 -0.3961
   12DOPE  H18Z 1548   4.034   6.315   4.370  0.7050 -1.1171  1.5091
   13DOPE     N 1549   1.170   0.813   7.028 -0.0910 -0.0435  0.3915
   13DOPE   HN1 1550   1.150   0.716   6.996 -0.3326  0.1066  0.0800
   13DOPE   HN2 1551   1.251   0.801   7.091  0.3432  0.3406 -0.0878
   13DOPE   HN3 1552   1.086   0.842   7.083  0.4512  1.9694  0.2541
   13DOPE   C12 1553   1.209   0.905   6.913 -0.3868  0.0695 -0.1486
   13DOPE  H12A 1554   1.206   1.008   6.954 -0.9411  0.1435 -0.3682
   13DOPE  H12B 1555   1.132   0.897   6.833  0.0990 -0.6532 -0.5526
   13DOPE   C11 1556   1.353   0.884   6.860  0.0776  0.1441  1.2332
   13DOPE  H11A 1557   1.383   0.951   6.777  0.3578 -0.3567  0.9298
   13DOPE  H11B 1558   1.353   0.781   6.820 -1.2509  1.4701 -2.5939
   13DOPE     P 1559   1.545   1.014   6.998  0.0891  0.6353  0.2715
   13DOPE   O13 1560   1.634   0.991   7.113 -0.0125 -0.1973 -0.0130
   13DOPE   O14 1561   1.486   1.150   7.002  0.3882  0.2288  0.7611
   13DOPE   O11 1562   1.626   0.999   6.865 -0.8054  0.1431 -0.0407
   13DOPE   O12 1563   1.440   0.898   6.979 -0.0506  0.3386  0.3362
   13DOPE    C1 1564   1.698   1.106   6.813 -0.0183 -0.1218 -0.2642
   13DOPE    HA 1565   1.791   1.123   6.872  0.5887  0.9016 -1.4643
   13DOPE    HB 1566   1.632   1.194   6.807 -2.0995 -1.6932 -2.5515
   13DOPE    C2 1567   1.731   1.070   6.664  0.1715 -0.2491 -0.5493
   13DOPE    HS 1568   1.799   0.982   6.673  1.3298  0.7081  0.6253
   13DOPE   O21 1569   1.793   1.187   6.606 -0.1202 -0.2753 -0.3879
   13DOPE   C21 1570   1.888   1.167   6.516  0.3433  0.1123  0.6232
   13DOPE   O22 1571   1.936   1.058   6.485  0.3184  0.3104 -0.0204
   13DOPE   C22 1572   1.932   1.295   6.448  0.2927  0.1860  0.0964
   13DOPE   H2R 1573   1.923   1.383   6.515  0.8478 -0.4932  1.0917
   13DOPE   H2S 1574   1.872   1.310   6.356  0.8486 -0.0068 -0.3041
   13DOPE    C3 1575   1.607   1.021   6.591  0.4470  0.8590  0.8060
   13DOPE    HX 1576   1.527   1.098   6.601  0.7995  1.3566 -0.1748
   13DOPE    HY 1577   1.563   0.928   6.633  0.7094  0.7602  0.8605
   13DOPE   O31 1578   1.629   1.001   6.450  0.0490 -0.0717  0.2522
   13DOPE   C31 1579   1.672   0.875   6.413 -0.0559 -0.9781 -0.6029
   13DOPE   O32 1580   1.690   0.785   6.492  0.4805  0.7917 -0.0143
   13DOPE   C32 1581   1.689   0.861   6.263  0.0394 -0.0217  0.5229
   13DOPE   H2X 1582   1.614   0.798   6.211  1.4092 -1.8093  0.5895
   13DOPE   H2Y 1583   1.689   0.962   6.216  0.3660  0.3128  1.2286
   13DOPE   C23 1584   2.078   1.310   6.407  0.0501  0.4777 -0.3411
   13DOPE   H3R 1585   2.145   1.267   6.485 -0.6847  0.3032  0.2026
   13DOPE   H3S 1586   2.104   1.418   6.399 -1.7860  1.1909  2.1042
   13DOPE   C24 1587   2.103   1.249   6.273  0.8154 -0.4005  0.1558
   13DOPE   H4R 1588   2.070   1.143   6.269 -0.7592  0.0039  1.1732
   13DOPE   H4S 1589   2.213   1.242   6.264  0.7958 -0.3532 -0.1201
   13DOPE   C25 1590   2.077   1.334   6.146  0.8736 -0.3507  0.6686
   13DOPE   H5R 1591   2.137   1.296   6.061 -0.6927 -0.0037 -0.6545
   13DOPE   H5S 1592   2.105   1.439   6.170 -0.0170 -0.7505  3.9475
   13DOPE   C26 1593   1.928   1.319   6.094 -0.5819  1.3977  0.1136
   13DOPE   H6R 1594   1.915   1.381   6.003 -1.8612  2.2029  0.8222
   13DOPE   H6S 1595   1.861   1.364   6.170 -3.0595 -1.0464 -0.4489
   13DOPE   C27 1596   1.867   1.176   6.070  0.3628  0.7260  0.3263
   13DOPE   H7R 1597   1.855   1.134   6.173 -1.0543 -0.6350 -0.3521
   13DOPE   H7S 1598   1.934   1.114   6.007 -0.3561 -1.0732  1.2657
   13DOPE   C28 1599   1.738   1.174   5.995 -0.2401 -0.0804 -0.0508
   13DOPE   H8R 1600   1.708   1.068   5.977 -3.3137  1.0163 -2.1526
   13DOPE   H8S 1601   1.742   1.224   5.896 -0.4784  1.3588  0.6511
   13DOPE   C29 1602   1.634   1.233   6.081  0.4125  0.0338 -0.6153
   13DOPE   H9R 1603   1.641   1.204   6.186 -1.5916 -0.4376 -0.5631
   13DOPE  C210 1604   1.538   1.317   6.045 -0.3338  0.4752 -0.2391
   13DOPE  H10R 1605   1.464   1.343   6.122 -1.0173  1.1115 -1.0906
   13DOPE  C211 1606   1.510   1.361   5.908  0.0807 -0.2396  0.2595
   13DOPE  H11R 1607   1.405   1.397   5.897  0.2988  0.3316  0.0499
   13DOPE  H11S 1608   1.521   1.279   5.834  0.6801  1.1102 -1.2024
   13DOPE  C212 1609   1.610   1.472   5.868  0.4792  0.0357 -0.3601
   13DOPE  H12R 1610   1.708   1.431   5.836  0.5577  0.8849 -1.2627
   13DOPE  H12S 1611   1.623   1.543   5.952  1.2458 -0.0663 -0.3886
   13DOPE  C213 1612   1.564   1.556   5.745 -0.1407  0.2536 -0.5900
   13DOPE  H13R 1613   1.553   1.488   5.657 -0.3045 -2.5716  1.4539
   13DOPE  H13S 1614   1.638   1.631   5.712 -0.6644  0.4435 -1.3489
   13DOPE  C214 1615   1.433   1.637   5.755 -0.1560  0.4144  0.0783
   13DOPE  H14R 1616   1.430   1.708   5.841  0.1820 -1.1572  1.4379
   13DOPE  H14S 1617   1.345   1.572   5.774 -0.9380  1.2478 -0.5781
   13DOPE  C215 1618   1.415   1.712   5.622  0.1758 -0.3659  0.9223
   13DOPE  H15R 1619   1.510   1.766   5.605 -0.3744  0.1144 -0.8009
   13DOPE  H15S 1620   1.339   1.791   5.640  0.9730  0.9773 -1.3053
   13DOPE  C216 1621   1.375   1.626   5.499  0.2099  0.3453 -0.4069
   13DOPE  H16R 1622   1.278   1.577   5.519 -0.1065  1.2411  0.3294
   13DOPE  H16S 1623   1.456   1.551   5.484  0.4239 -0.4211  3.4781
   13DOPE  C217 1624   1.353   1.704   5.373  0.5433 -0.2475 -0.6021
   13DOPE  H17R 1625   1.264   1.770   5.384 -0.5065 -1.4647 -1.4455
   13DOPE  H17S 1626   1.325   1.623   5.302 -0.8548 -1.3082  1.0843
   13DOPE  C218 1627   1.478   1.761   5.309  0.1704  0.9468 -0.1535
   13DOPE  H18R 1628   1.571   1.703   5.327 -0.7119 -0.0159  1.6738
   13DOPE  H18S 1629   1.498   1.857   5.362 -0.5966  1.3101 -0.5092
   13DOPE  H18T 1630   1.457   1.782   5.202  0.1368  1.7769  0.0097
   13DOPE   C33 1631   1.828   0.795   6.230 -0.5450 -0.2907  0.2753
   13DOPE   H3X 1632   1.904   0.850   6.289  1.5915 -1.0301 -1.6363
   13DOPE   H3Y 1633   1.852   0.819   6.124 -2.6703  2.0417  0.2340
   13DOPE   C34 1634   1.836   0.648   6.263  0.3694 -0.3951  0.3582
   13DOPE   H4X 1635   1.923   0.627   6.329  2.5271 -0.9283 -2.4459
   13DOPE   H4Y 1636   1.746   0.617   6.321  1.4401 -2.3409  1.1091
   13DOPE   C35 1637   1.838   0.553   6.135 -0.0895  0.1089  0.5727
   13DOPE   H5X 1638   1.852   0.445   6.157  1.1394 -0.7460 -3.5989
   13DOPE   H5Y 1639   1.929   0.576   6.076 -1.0172  3.0521  0.1310
   13DOPE   C36 1640   1.720   0.580   6.042 -0.1077  0.0787  0.6509
   13DOPE   H6X 1641   1.747   0.535   5.944  0.1788  0.2855  0.6310
   13DOPE   H6Y 1642   1.698   0.689   6.034  0.1656  0.2287  1.8045
   13DOPE   C37 1643   1.582   0.514   6.083 -0.2921 -0.2318 -0.4502
   13DOPE   H7X 1644   1.576   0.404   6.089 -3.7837 -0.2142 -1.5049
   13DOPE   H7Y 1645   1.570   0.548   6.188 -0.0096 -0.1797 -0.4359
   13DOPE   C38 1646   1.453   0.577   6.018  0.1531  0.0048  0.0677
   13DOPE   H8X 1647   1.442   0.677   6.066  1.3859 -0.3644  1.1530
   13DOPE   H8Y 1648   1.357   0.535   6.054  0.6521 -1.6292 -0.4537
   13DOPE   C39 1649   1.460   0.581   5.870  0.3077 -0.2144 -0.4367
   13DOPE   H9X 1650   1.509   0.500   5.814  1.8386  0.2126  0.2416
   13DOPE  C310 1651   1.415   0.693   5.804  0.1115 -0.0247 -0.5944
   13DOPE  H10X 1652   1.426   0.694   5.695 -0.0954 -0.6021 -0.6244
   13DOPE  C311 1653   1.350   0.818   5.868 -0.0676 -0.2309 -0.1501
   13DOPE  H11X 1654   1.260   0.796   5.928 -0.1083  1.4106  0.4227
   13DOPE  H11Y 1655   1.425   0.858   5.940  0.2221  0.4249 -0.7980
   13DOPE  C312 1656   1.329   0.929   5.770 -0.2822 -0.0208  0.1638
   13DOPE  H12X 1657   1.297   1.018   5.827 -0.5901  1.4319 -2.1262
   13DOPE  H12Y 1658   1.243   0.915   5.700  1.6052 -0.8006 -2.1361
   13DOPE  C313 1659   1.458   0.974   5.684 -0.0375 -0.0191  0.1499
   13DOPE  H13X 1660   1.539   1.005   5.755 -0.4200 -3.0296  2.0836
   13DOPE  H13Y 1661   1.491   0.892   5.617 -1.1245 -1.0084  0.7962
   13DOPE  C314 1662   1.410   1.087   5.587  0.1751  0.4358 -0.4063
   13DOPE  H14X 1663   1.417   1.183   5.642  2.0675 -0.1613  0.4608
   13DOPE  H14Y 1664   1.304   1.064   5.563 -0.0896 -0.7106  1.6626
   13DOPE  C315 1665   1.514   1.108   5.478  0.4855 -0.0786  0.6769
   13DOPE  H15X 1666   1.551   1.014   5.433 -0.2703 -0.0344 -0.0662
   13DOPE  H15Y 1667   1.603   1.145   5.532  0.1087 -0.2022  1.4014
   13DOPE  C316 1668   1.476   1.202   5.364 -0.5684 -0.1397  0.2307
   13DOPE  H16X 1669   1.564   1.216   5.298 -1.7548  1.6643 -1.0454
   13DOPE  H16Y 1670   1.445   1.305   5.391 -1.7090 -0.2310 -0.6905
   13DOPE  C317 1671   1.358   1.155   5.286  0.0477  0.0232  0.2467
   13DOPE  H17X 1672   1.370   1.045   5.274  1.5285  0.1139  0.6560
   13DOPE  H17Y 1673   1.261   1.179   5.333  1.1490  1.7341  1.8055
   13DOPE  C318 1674   1.368   1.227   5.154 -0.6911 -0.1178  0.0082
   13DOPE  H18X 1675   1.287   1.195   5.085 -0.8696  1.6189 -0.6456
   13DOPE  H18Y 1676   1.360   1.337   5.165  1.1987  0.1321 -0.7028
   13DOPE  H18Z 1677   1.464   1.205   5.103  0.7299  2.7977  1.2011
   14DOPE     N 1678   7.014   4.145   7.805 -0.4053 -0.0770  0.1426
   14DOPE   HN1 1679   7.056   4.222   7.750  2.7590  0.0758  2.4963
   14DOPE   HN2 1680   7.085   4.103   7.868 -0.3737 -0.0607  0.1179
   14DOPE   HN3 1681   6.983   4.075   7.735 -1.3955  0.9566 -0.4866
   14DOPE   C12 1682   6.905   4.213   7.882 -0.3321 -0.6739  0.2477
   14DOPE  H12A 1683   6.950   4.289   7.950 -2.3700 -0.6120  1.6137
   14DOPE  H12B 1684   6.859   4.127   7.935  1.7990 -0.7564  2.1026
   14DOPE   C11 1685   6.809   4.285   7.783 -0.6940 -0.9120  0.5274
   14DOPE  H11A 1686   6.734   4.344   7.840 -0.1161  1.5138 -1.0622
   14DOPE  H11B 1687   6.750   4.203   7.736  2.2498 -3.3826  0.7919
   14DOPE     P 1688   6.812   4.414   7.563  0.0760 -0.1450 -0.1862
   14DOPE   O13 1689   6.901   4.510   7.496 -0.4008 -0.2166 -0.0138
   14DOPE   O14 1690   6.674   4.458   7.589  0.1354 -0.5334 -0.3482
   14DOPE   O11 1691   6.797   4.280   7.471 -0.3052  0.0356 -0.2560
   14DOPE   O12 1692   6.883   4.362   7.691  0.0018 -0.3229 -0.3538
   14DOPE    C1 1693   6.899   4.220   7.391  0.1655 -0.0239  0.7447
   14DOPE    HA 1694   6.908   4.109   7.395 -0.3065 -0.3672 -3.3934
   14DOPE    HB 1695   7.001   4.259   7.412  0.1043  0.5514 -0.0091
   14DOPE    C2 1696   6.860   4.257   7.245  0.0136 -0.3373  0.0719
   14DOPE    HS 1697   6.938   4.223   7.173  0.0244  2.7233 -1.5598
   14DOPE   O21 1698   6.836   4.403   7.228 -0.1619 -0.3877  0.1759
   14DOPE   C21 1699   6.937   4.480   7.182 -0.5508  1.1356 -0.5492
   14DOPE   O22 1700   7.053   4.437   7.193 -0.1707 -0.0750  0.8276
   14DOPE   C22 1701   6.885   4.614   7.148  0.4272  0.9443 -0.1175
   14DOPE   H2R 1702   6.852   4.660   7.244  1.0958  1.0471  0.0690
   14DOPE   H2S 1703   6.796   4.608   7.082 -0.3450 -0.6414  1.0045
   14DOPE    C3 1704   6.729   4.188   7.209  1.2955  0.4380 -0.1811
   14DOPE    HX 1705   6.648   4.245   7.260 -0.0090  0.1355 -1.8240
   14DOPE    HY 1706   6.742   4.085   7.249 -1.4121 -0.4241 -1.3144
   14DOPE   O31 1707   6.713   4.187   7.070  0.0848  0.4033 -0.2095
   14DOPE   C31 1708   6.607   4.120   7.020  0.9778 -0.1789  0.1624
   14DOPE   O32 1709   6.533   4.051   7.092 -0.5371 -0.2509 -0.2526
   14DOPE   C32 1710   6.588   4.144   6.874  0.5407  0.2000  0.5135
   14DOPE   H2X 1711   6.661   4.210   6.823  0.9666 -1.8659 -1.7418
   14DOPE   H2Y 1712   6.631   4.051   6.830  2.8303  1.3441  0.1737
   14DOPE   C23 1713   6.995   4.706   7.082  0.2667  0.1978 -0.1551
   14DOPE   H3R 1714   7.029   4.670   6.982 -2.6288  0.9031 -1.4971
   14DOPE   H3S 1715   7.076   4.701   7.158  0.1100 -0.3501 -0.0137
   14DOPE   C24 1716   6.947   4.847   7.061 -0.2862 -0.1764  0.3291
   14DOPE   H4R 1717   6.937   4.902   7.157  1.1484  0.1607  0.3137
   14DOPE   H4S 1718   6.844   4.840   7.022  0.1522 -2.4704 -0.5458
   14DOPE   C25 1719   7.038   4.920   6.961 -0.0784 -0.1295 -0.7830
   14DOPE   H5R 1720   7.142   4.908   6.999 -0.0629 -0.0289 -0.7906
   14DOPE   H5S 1721   7.029   5.027   6.990  1.6645 -0.4035  0.9874
   14DOPE   C26 1722   7.011   4.902   6.809 -0.0172  0.5733  0.3308
   14DOPE   H6R 1723   6.988   4.799   6.774  2.8639  0.8015 -2.7159
   14DOPE   H6S 1724   7.102   4.931   6.753 -0.0470  0.5548  0.2722
   14DOPE   C27 1725   6.896   4.994   6.770 -0.5913 -0.1902  0.6928
   14DOPE   H7R 1726   6.933   5.099   6.772 -0.9979  0.0973 -2.3177
   14DOPE   H7S 1727   6.813   4.976   6.840  0.4023 -1.1454  1.6689
   14DOPE   C28 1728   6.831   4.970   6.635 -0.0917  0.0039 -0.3843
   14DOPE   H8R 1729   6.781   4.871   6.630 -1.7806  0.6809  1.7639
   14DOPE   H8S 1730   6.904   4.980   6.551  0.4624 -0.4563  0.0320
   14DOPE   C29 1731   6.723   5.074   6.611  0.0672 -0.4264  0.8881
   14DOPE   H9R 1732   6.730   5.162   6.677 -0.6245 -0.4960  1.0643
   14DOPE  C210 1733   6.638   5.079   6.507  1.2982 -0.0789 -0.0114
   14DOPE  H10R 1734   6.560   5.155   6.502  1.8529  0.5285  0.4789
   14DOPE  C211 1735   6.631   4.983   6.389 -0.4571  0.1266 -0.1082
   14DOPE  H11R 1736   6.560   4.905   6.426  1.6329 -1.7035  0.2664
   14DOPE  H11S 1737   6.731   4.937   6.375 -0.0140  0.5943  1.3533
   14DOPE  C212 1738   6.588   5.068   6.265  0.0141 -0.3541  0.4916
   14DOPE  H12R 1739   6.605   5.009   6.172 -1.5112  0.2250 -0.1854
   14DOPE  H12S 1740   6.656   5.156   6.266 -2.0947  1.3582  1.2938
   14DOPE  C213 1741   6.443   5.110   6.261 -0.4440  0.3797  0.1328
   14DOPE  H13R 1742   6.421   5.174   6.349 -0.0246  0.5337  0.1296
   14DOPE  H13S 1743   6.377   5.021   6.262  2.5794 -2.0219  1.5470
   14DOPE  C214 1744   6.409   5.190   6.129 -0.1326  0.2325 -0.0058
   14DOPE  H14R 1745   6.457   5.132   6.047 -0.0876  0.3290 -0.0474
   14DOPE  H14S 1746   6.461   5.288   6.122 -0.3344  0.3447  0.0720
   14DOPE  C215 1747   6.260   5.204   6.096  0.2518 -0.1929  0.7468
   14DOPE  H15R 1748   6.215   5.282   6.161  0.0693 -0.2380  0.6760
   14DOPE  H15S 1749   6.212   5.109   6.128 -0.1249 -0.1006  0.4723
   14DOPE  C216 1750   6.226   5.223   5.952  0.0177 -0.5407  0.3128
   14DOPE  H16R 1751   6.118   5.244   5.944  0.1455  0.2678  0.6492
   14DOPE  H16S 1752   6.245   5.123   5.906  2.6004 -0.9385  2.0133
   14DOPE  C217 1753   6.304   5.326   5.870 -0.6775 -0.4743 -0.3399
   14DOPE  H17R 1754   6.413   5.307   5.886 -0.4716  0.5550 -0.4549
   14DOPE  H17S 1755   6.280   5.426   5.911 -0.3180 -0.6007  0.1992
   14DOPE  C218 1756   6.272   5.313   5.725  0.1555  0.6386 -0.4285
   14DOPE  H18R 1757   6.344   5.371   5.662  0.9018  0.6510  0.4233
   14DOPE  H18S 1758   6.170   5.351   5.705 -1.2466 -1.6903  1.7664
   14DOPE  H18T 1759   6.278   5.207   5.690 -0.2682 -0.4441  2.5127
   14DOPE   C33 1760   6.444   4.175   6.825  0.2303  0.1801  0.2268
   14DOPE   H3X 1761   6.404   4.260   6.884  0.1782 -0.0434  0.5200
   14DOPE   H3Y 1762   6.369   4.093   6.833 -0.6879  0.9549 -0.1655
   14DOPE   C34 1763   6.441   4.211   6.673  0.4759  0.1897  0.3334
   14DOPE   H4X 1764   6.349   4.273   6.671 -0.2346 -0.8523 -2.1125
   14DOPE   H4Y 1765   6.534   4.265   6.645  2.6521 -3.1500  0.5139
   14DOPE   C35 1766   6.419   4.091   6.577 -0.3286  0.4533 -0.1123
   14DOPE   H5X 1767   6.477   4.002   6.610  0.5082  1.4804  1.3119
   14DOPE   H5Y 1768   6.453   4.118   6.475  0.0006 -0.9886 -0.4116
   14DOPE   C36 1769   6.270   4.043   6.551  0.0343  0.8169  0.5471
   14DOPE   H6X 1770   6.226   4.116   6.480  1.2907 -0.2167 -1.3509
   14DOPE   H6Y 1771   6.232   4.036   6.656  1.0664 -0.8851  0.8507
   14DOPE   C37 1772   6.273   3.905   6.489 -0.1279 -0.2499  0.1499
   14DOPE   H7X 1773   6.319   3.908   6.388 -0.2093 -1.3507  0.0677
   14DOPE   H7Y 1774   6.315   3.830   6.559 -0.6781 -0.7473 -0.0459
   14DOPE   C38 1775   6.129   3.849   6.479 -0.7343  0.0372 -0.5111
   14DOPE   H8X 1776   6.078   3.907   6.399  1.2376  0.0302 -1.8364
   14DOPE   H8Y 1777   6.078   3.873   6.575  0.0977  2.6252 -0.6372
   14DOPE   C39 1778   6.115   3.707   6.446  0.6200 -0.3339 -0.5383
   14DOPE   H9X 1779   6.149   3.631   6.518  2.4942  2.3600  1.6388
   14DOPE  C310 1780   6.068   3.652   6.326 -0.2439 -0.2848 -1.0742
   14DOPE  H10X 1781   6.059   3.543   6.325 -0.5792 -0.2664 -0.3861
   14DOPE  C311 1782   6.011   3.725   6.205 -0.2670 -0.4005 -0.5619
   14DOPE  H11X 1783   5.912   3.678   6.186 -1.1547  0.2270  2.1536
   14DOPE  H11Y 1784   6.000   3.835   6.216 -1.8475 -0.6599  0.9636
   14DOPE  C312 1785   6.109   3.710   6.085  0.7125  0.7500 -0.4588
   14DOPE  H12X 1786   6.053   3.760   6.003 -0.7259 -1.7627 -1.1540
   14DOPE  H12Y 1787   6.113   3.600   6.067 -1.8627  0.6028 -0.5938
   14DOPE  C313 1788   6.239   3.776   6.106  0.1442 -0.0071  0.1119
   14DOPE  H13X 1789   6.226   3.885   6.127  0.3062 -0.0955  0.6785
   14DOPE  H13Y 1790   6.289   3.734   6.195 -0.1122  0.9443  0.7217
   14DOPE  C314 1791   6.338   3.746   5.986 -0.3463 -0.0944 -0.0200
   14DOPE  H14X 1792   6.301   3.785   5.888 -1.4696 -2.3845 -0.5789
   14DOPE  H14Y 1793   6.337   3.636   5.976 -2.6618 -0.1494  0.1179
   14DOPE  C315 1794   6.467   3.818   6.019 -0.5511  0.3303 -0.1097
   14DOPE  H15X 1795   6.489   3.819   6.127  2.2298  0.6335 -0.5998
   14DOPE  H15Y 1796   6.447   3.923   5.986 -1.5077  0.0151 -0.5991
   14DOPE  C316 1797   6.583   3.764   5.927 -0.4250  0.0314 -0.1479
   14DOPE  H16X 1798   6.539   3.755   5.825 -0.2977  2.5808 -0.4807
   14DOPE  H16Y 1799   6.610   3.664   5.967  0.3828  0.4951  0.4925
   14DOPE  C317 1800   6.711   3.853   5.913 -0.0335 -0.3304  0.2301
   14DOPE  H17X 1801   6.757   3.844   5.813  0.7364  1.9144  0.3161
   14DOPE  H17Y 1802   6.693   3.963   5.924 -0.7330 -0.4139 -0.0358
   14DOPE  C318 1803   6.814   3.806   6.025 -0.2190  0.4876 -0.3346
   14DOPE  H18X 1804   6.907   3.865   6.012 -1.2317  1.6350 -3.0530
   14DOPE  H18Y 1805   6.776   3.825   6.128 -2.0316  0.6434 -0.9998
   14DOPE  H18Z 1806   6.822   3.695   6.014 -1.3773  0.3639 -0.0902
   15DOPE     N 1807   0.110   1.723   7.692  0.5392 -0.0732  0.6446
   15DOPE   HN1 1808   0.109   1.642   7.627  0.8729 -1.3547  2.1798
   15DOPE   HN2 1809   0.074   1.704   7.788  0.5649  0.7825  0.8351
   15DOPE   HN3 1810   0.046   1.797   7.656 -0.7345 -1.3222  0.2222
   15DOPE   C12 1811   0.245   1.779   7.706 -0.7660  0.1791 -0.2473
   15DOPE  H12A 1812   0.247   1.854   7.788  1.3698 -1.2639  1.1225
   15DOPE  H12B 1813   0.282   1.818   7.609 -1.7066 -1.7040 -1.4039
   15DOPE   C11 1814   0.344   1.659   7.749  0.1607  0.2159 -0.1020
   15DOPE  H11A 1815   0.298   1.612   7.839 -0.3078  0.5509 -0.1623
   15DOPE  H11B 1816   0.432   1.719   7.780 -1.2219  2.1600  0.2677
   15DOPE     P 1817   0.484   1.574   7.542  0.0630  0.1892  0.3038
   15DOPE   O13 1818   0.492   1.446   7.479  0.1494  0.3461  0.3869
   15DOPE   O14 1819   0.612   1.629   7.589  0.3356  0.4215  0.7175
   15DOPE   O11 1820   0.419   1.681   7.442 -0.0153  0.2511  0.0121
   15DOPE   O12 1821   0.370   1.561   7.647  0.0949  0.2305  0.0683
   15DOPE    C1 1822   0.310   1.630   7.363  0.0945  0.1467  0.3048
   15DOPE    HA 1823   0.233   1.711   7.359 -1.6737 -1.4937 -1.8680
   15DOPE    HB 1824   0.263   1.535   7.396 -1.5372 -0.4856 -3.2756
   15DOPE    C2 1825   0.339   1.600   7.211 -0.2427 -0.4742 -0.5768
   15DOPE    HS 1826   0.422   1.526   7.202  0.5384 -0.0582  2.2651
   15DOPE   O21 1827   0.380   1.734   7.158 -0.0169 -0.3083  0.5028
   15DOPE   C21 1828   0.433   1.732   7.034 -0.8060  0.4583  0.8636
   15DOPE   O22 1829   0.475   1.636   6.969  0.1872 -0.4100  0.1951
   15DOPE   C22 1830   0.424   1.875   6.983 -0.2778  0.0165 -0.3084
   15DOPE   H2R 1831   0.488   1.939   7.048 -0.0107 -0.9983  0.4487
   15DOPE   H2S 1832   0.318   1.906   6.996 -0.2283  0.1616 -0.2421
   15DOPE    C3 1833   0.220   1.544   7.133 -0.5115 -0.4345 -0.5531
   15DOPE    HX 1834   0.139   1.618   7.114 -1.7848 -1.5368  0.3299
   15DOPE    HY 1835   0.171   1.462   7.192 -0.6629 -0.2656 -0.4423
   15DOPE   O31 1836   0.252   1.493   6.998 -0.2926 -0.4177  0.0369
   15DOPE   C31 1837   0.310   1.373   6.989 -0.3903 -0.2515 -0.5129
   15DOPE   O32 1838   0.346   1.303   7.084 -0.5166  0.1381 -0.4198
   15DOPE   C32 1839   0.302   1.334   6.844 -0.0847  0.2946  0.5786
   15DOPE   H2X 1840   0.365   1.243   6.831  0.6120  0.7410  0.7816
   15DOPE   H2Y 1841   0.196   1.318   6.817 -0.1200  1.2511  0.1087
   15DOPE   C23 1842   0.449   1.895   6.830 -0.1679  0.1635  0.3226
   15DOPE   H3R 1843   0.423   2.000   6.803  0.2563  0.2170  0.1190
   15DOPE   H3S 1844   0.374   1.836   6.773  0.1053  0.4140 -0.3040
   15DOPE   C24 1845   0.587   1.856   6.785 -0.6059  0.1280 -0.7842
   15DOPE   H4R 1846   0.627   1.767   6.838 -0.7921 -0.3787 -1.4776
   15DOPE   H4S 1847   0.658   1.940   6.799 -0.1575 -0.4813  0.7921
   15DOPE   C25 1848   0.592   1.820   6.636 -0.2818  0.2848  0.1089
   15DOPE   H5R 1849   0.553   1.905   6.577 -0.1872 -1.0078 -1.9323
   15DOPE   H5S 1850   0.517   1.740   6.618 -0.5240  0.3665  0.7283
   15DOPE   C26 1851   0.734   1.780   6.596  0.1952 -0.4459 -0.5578
   15DOPE   H6R 1852   0.778   1.703   6.664 -3.3046  0.1748  2.7504
   15DOPE   H6S 1853   0.798   1.870   6.597  0.4436 -0.6226 -0.2763
   15DOPE   C27 1854   0.736   1.728   6.448 -0.1011  0.0030 -0.0790
   15DOPE   H7R 1855   0.667   1.641   6.438  0.0393  0.0157 -1.4031
   15DOPE   H7S 1856   0.840   1.694   6.429 -0.0225  1.1018 -1.9255
   15DOPE   C28 1857   0.722   1.837   6.336  0.2475  1.0557  0.1766
   15DOPE   H8R 1858   0.804   1.838   6.261 -0.4300  0.4582 -0.5961
   15DOPE   H8S 1859   0.730   1.937   6.383 -0.2778  0.8250  0.7728
   15DOPE   C29 1860   0.586   1.828   6.270 -0.2512 -0.3555 -0.4395
   15DOPE   H9R 1861   0.513   1.885   6.330  0.2379  0.1748 -0.3423
   15DOPE  C210 1862   0.543   1.772   6.157  0.3609  0.6126  0.1301
   15DOPE  H10R 1863   0.440   1.789   6.122 -0.9944  1.4021  3.9886
   15DOPE  C211 1864   0.631   1.696   6.058  0.3252  0.0217  0.2062
   15DOPE  H11R 1865   0.723   1.754   6.038  0.0144  0.1934 -0.7821
   15DOPE  H11S 1866   0.578   1.691   5.961 -0.8121 -1.0675  0.8577
   15DOPE  C212 1867   0.667   1.549   6.101 -0.1989 -0.2465 -0.1699
   15DOPE  H12R 1868   0.573   1.493   6.119 -1.2991  0.7583 -2.3450
   15DOPE  H12S 1869   0.723   1.552   6.197  1.8601  0.6435 -1.3286
   15DOPE  C213 1870   0.757   1.482   6.001 -0.1349 -0.5231  0.7366
   15DOPE  H13R 1871   0.696   1.455   5.912  1.8914  1.0420 -1.2490
   15DOPE  H13S 1872   0.804   1.391   6.045 -1.1542 -1.0744  0.7104
   15DOPE  C214 1873   0.872   1.572   5.956 -0.8134  0.0120 -0.6439
   15DOPE  H14R 1874   0.900   1.631   6.046 -0.5954 -0.1956 -0.5748
   15DOPE  H14S 1875   0.840   1.652   5.887 -2.7441 -0.2131 -0.0597
   15DOPE  C215 1876   1.000   1.511   5.898  0.2247  0.8628 -0.2795
   15DOPE  H15R 1877   1.045   1.434   5.965  2.4481  1.8003 -0.5813
   15DOPE  H15S 1878   1.076   1.590   5.879 -0.3855  1.5597  0.1649
   15DOPE  C216 1879   0.977   1.452   5.757  0.7614 -0.7466  0.1782
   15DOPE  H16R 1880   0.952   1.536   5.689  0.3429 -1.2321 -0.2804
   15DOPE  H16S 1881   0.880   1.398   5.761  0.2888 -0.1594 -1.8631
   15DOPE  C217 1882   1.099   1.371   5.711 -0.4644  0.6519 -0.0569
   15DOPE  H17R 1883   1.097   1.284   5.780  1.5605  1.0136  0.5219
   15DOPE  H17S 1884   1.199   1.418   5.721  0.0674 -0.6744  1.3689
   15DOPE  C218 1885   1.079   1.331   5.566 -0.0861  0.1543  0.2048
   15DOPE  H18R 1886   0.996   1.260   5.549 -0.3416  0.8259 -1.4971
   15DOPE  H18S 1887   1.167   1.290   5.512 -0.2776  0.9019 -0.6964
   15DOPE  H18T 1888   1.032   1.421   5.521 -2.8362 -1.0657  0.4377
   15DOPE   C33 1889   0.366   1.446   6.757 -0.1333 -0.8516  0.0288
   15DOPE   H3X 1890   0.469   1.465   6.796  0.6377 -2.3088 -1.1812
   15DOPE   H3Y 1891   0.314   1.543   6.771 -0.1662 -1.1484  2.3829
   15DOPE   C34 1892   0.373   1.408   6.607 -0.1184 -0.5129  0.5627
   15DOPE   H4X 1893   0.450   1.475   6.564  1.3509 -1.3478  1.7753
   15DOPE   H4Y 1894   0.422   1.311   6.587  1.3437  0.2746  0.1678
   15DOPE   C35 1895   0.255   1.433   6.515  0.6847 -0.5948 -0.0497
   15DOPE   H5X 1896   0.225   1.538   6.537 -0.0563 -0.5856 -1.0775
   15DOPE   H5Y 1897   0.175   1.361   6.538  0.3698 -0.7624 -1.5947
   15DOPE   C36 1898   0.281   1.432   6.362  0.4754 -1.0965 -0.2965
   15DOPE   H6X 1899   0.325   1.335   6.329  1.3916 -0.4105 -1.1568
   15DOPE   H6Y 1900   0.357   1.506   6.331 -2.2270  2.5273  1.0749
   15DOPE   C37 1901   0.147   1.455   6.286 -0.0210 -0.4868  0.1079
   15DOPE   H7X 1902   0.077   1.379   6.327 -0.7195  1.0987  2.0091
   15DOPE   H7Y 1903   0.108   1.552   6.322  0.0327  1.1828 -3.9153
   15DOPE   C38 1904   0.163   1.443   6.136  0.9035 -0.4375  0.3592
   15DOPE   H8X 1905   0.142   1.336   6.115 -0.0138  0.4298 -4.1188
   15DOPE   H8Y 1906   0.267   1.470   6.107 -0.3150  2.4707 -1.7621
   15DOPE   C39 1907   0.063   1.524   6.061 -0.9181  0.1182  0.2647
   15DOPE   H9X 1908  -0.035   1.473   6.062 -0.0415 -1.6426 -0.4706
   15DOPE  C310 1909   0.085   1.633   5.988  1.0624 -0.2091  0.5950
   15DOPE  H10X 1910  -0.005   1.673   5.938  2.1420 -0.6153 -1.8009
   15DOPE  C311 1911   0.214   1.712   5.961 -0.2885  0.0303 -0.3012
   15DOPE  H11X 1912   0.209   1.819   5.991 -0.2144 -0.0633  0.0536
   15DOPE  H11Y 1913   0.291   1.668   6.029 -1.1332 -1.1732 -0.0840
   15DOPE  C312 1914   0.288   1.706   5.824  0.2547 -0.7377  0.2526
   15DOPE  H12X 1915   0.309   1.599   5.798 -1.6800 -0.9237 -0.7165
   15DOPE  H12Y 1916   0.386   1.759   5.824 -1.0170  1.7687 -0.4646
   15DOPE  C313 1917   0.206   1.754   5.700  0.2017 -1.0826 -0.3295
   15DOPE  H13X 1918   0.101   1.720   5.714  0.0589 -0.3746  0.3661
   15DOPE  H13Y 1919   0.194   1.865   5.705 -0.1525 -1.0373 -1.7697
   15DOPE  C314 1920   0.264   1.720   5.566 -0.1969 -0.1895  0.0567
   15DOPE  H14X 1921   0.205   1.772   5.488 -0.4583  0.3464  0.6009
   15DOPE  H14Y 1922   0.261   1.611   5.544 -1.0093 -0.2127  0.2745
   15DOPE  C315 1923   0.417   1.756   5.552  0.5385 -0.6359 -0.4818
   15DOPE  H15X 1924   0.451   1.750   5.447 -0.3144  0.3960 -0.8411
   15DOPE  H15Y 1925   0.476   1.684   5.613  0.7455  2.3218  3.2537
   15DOPE  C316 1926   0.444   1.903   5.593 -0.0002  0.2237 -0.2856
   15DOPE  H16X 1927   0.396   1.930   5.690 -0.2958  1.2807 -0.7121
   15DOPE  H16Y 1928   0.380   1.952   5.516 -0.0028 -0.5961 -0.8202
   15DOPE  C317 1929   0.592   1.943   5.582  0.4701 -0.0211  0.6447
   15DOPE  H17X 1930   0.652   1.919   5.671  0.6620 -1.7873  0.0749
   15DOPE  H17Y 1931   0.642   1.890   5.498 -0.7375 -2.8820  1.5932
   15DOPE  C318 1932   0.604   2.093   5.564  0.2079  0.0090 -0.6395
   15DOPE  H18X 1933   0.551   2.120   5.470 -1.0538  1.1807  0.3693
   15DOPE  H18Y 1934   0.560   2.147   5.650  1.6076 -0.1318  0.1979
   15DOPE  H18Z 1935   0.711   2.121   5.559  0.3967 -0.8547 -1.7523
   16DOPE     N 1936   6.951   3.365   7.807 -0.0392 -0.1724  0.3138
   16DOPE   HN1 1937   6.855   3.400   7.790 -0.3049 -1.3943 -0.8165
   16DOPE   HN2 1938   6.980   3.335   7.712  2.2261  2.0438  0.1995
   16DOPE   HN3 1939   6.954   3.276   7.861 -1.1068 -0.8704 -0.7477
   16DOPE   C12 1940   7.036   3.468   7.870  0.3989 -0.1022  0.4570
   16DOPE  H12A 1941   6.978   3.489   7.962 -1.3118  0.2022 -0.6380
   16DOPE  H12B 1942   7.042   3.556   7.802 -1.1469 -0.2313  0.1153
   16DOPE   C11 1943   7.176   3.400   7.908  0.1757  0.7995 -0.2262
   16DOPE  H11A 1944   7.161   3.313   7.975  0.2242  1.4464  0.6487
   16DOPE  H11B 1945   7.237   3.469   7.970  0.7560 -0.3788  0.5398
   16DOPE     P 1946   7.373   3.287   7.793  0.0952  0.1984 -0.1098
   16DOPE   O13 1947   7.343   3.153   7.841  0.1384 -0.1589  0.2069
   16DOPE   O14 1948   7.472   3.371   7.864  0.0196  0.0571  0.1809
   16DOPE   O11 1949   7.424   3.272   7.642  0.4592  0.2942 -0.4710
   16DOPE   O12 1950   7.234   3.366   7.779 -0.4916  0.4633 -0.5939
   16DOPE    C1 1951   7.326   3.243   7.538  0.2761  0.1581 -0.6828
   16DOPE    HA 1952   7.235   3.305   7.550  1.1995  1.3555  0.4828
   16DOPE    HB 1953   7.284   3.140   7.545 -1.8174  1.0543  1.0768
   16DOPE    C2 1954   7.388   3.251   7.404 -0.2903 -0.4428 -0.3704
   16DOPE    HS 1955   7.454   3.340   7.412  0.6424 -1.2712  2.3553
   16DOPE   O21 1956   7.275   3.263   7.313  0.0347  0.1810  0.5957
   16DOPE   C21 1957   7.303   3.348   7.216  0.5669  0.3776 -0.1445
   16DOPE   O22 1958   7.401   3.417   7.202 -0.1329  0.5523 -0.5816
   16DOPE   C22 1959   7.196   3.338   7.102  0.2388  0.2798 -0.7315
   16DOPE   H2R 1960   7.102   3.349   7.159  0.2536  2.6040 -1.0514
   16DOPE   H2S 1961   7.209   3.234   7.065 -0.5997 -0.2066  0.2837
   16DOPE    C3 1962   7.475   3.126   7.375 -0.1102  0.8945  0.5749
   16DOPE    HX 1963   7.407   3.039   7.371 -0.1590  0.9302  0.6251
   16DOPE    HY 1964   7.543   3.114   7.462  1.8644 -1.5861 -1.1567
   16DOPE   O31 1965   7.551   3.124   7.250 -0.4524  0.2357  0.4989
   16DOPE   C31 1966   7.666   3.185   7.252 -0.2569  0.0333  0.0056
   16DOPE   O32 1967   7.719   3.233   7.349  0.1533  0.5481 -0.1383
   16DOPE   C32 1968   7.736   3.190   7.110 -0.4103  0.1804  0.0309
   16DOPE   H2X 1969   7.726   3.290   7.061  0.2327  0.8756  1.2835
   16DOPE   H2Y 1970   7.845   3.172   7.125  0.2531  3.7790  0.4112
   16DOPE   C23 1971   7.220   3.436   6.989  0.2101  0.2861 -0.7103
   16DOPE   H3R 1972   7.325   3.424   6.954 -0.1005 -2.2524 -1.0032
   16DOPE   H3S 1973   7.212   3.537   7.034  0.5688  0.9176 -2.0457
   16DOPE   C24 1974   7.121   3.427   6.875  0.2991  0.3940  0.1275
   16DOPE   H4R 1975   7.022   3.432   6.925 -0.4089  0.3196 -1.2405
   16DOPE   H4S 1976   7.129   3.329   6.824  0.2494 -0.5399  1.8447
   16DOPE   C25 1977   7.124   3.541   6.777 -0.5304 -0.2535  0.0255
   16DOPE   H5R 1978   7.106   3.641   6.821 -2.8506  0.2409 -1.8627
   16DOPE   H5S 1979   7.038   3.519   6.711  0.7509 -0.0474 -1.7858
   16DOPE   C26 1980   7.253   3.542   6.682 -0.6479  0.1862 -0.1615
   16DOPE   H6R 1981   7.255   3.446   6.625 -0.5659  0.1692 -0.1295
   16DOPE   H6S 1982   7.343   3.545   6.746 -0.1650 -1.6461 -0.6810
   16DOPE   C27 1983   7.264   3.662   6.592  0.2058 -0.3773 -0.7466
   16DOPE   H7R 1984   7.248   3.752   6.655  2.0511 -1.1359  0.9318
   16DOPE   H7S 1985   7.177   3.658   6.523 -0.6024 -2.1286  0.3165
   16DOPE   C28 1986   7.401   3.675   6.519  0.4349  0.4155 -0.7574
   16DOPE   H8R 1987   7.477   3.715   6.590  0.6919 -1.5114  0.1185
   16DOPE   H8S 1988   7.401   3.748   6.435  4.0501 -1.1427 -2.2962
   16DOPE   C29 1989   7.430   3.540   6.463 -0.8542  0.0921  0.3803
   16DOPE   H9R 1990   7.343   3.498   6.412 -0.2367  0.3139 -0.8864
   16DOPE  C210 1991   7.550   3.471   6.465  0.5805  0.2131 -0.0204
   16DOPE  H10R 1992   7.559   3.375   6.413  3.3872  0.2210  0.2871
   16DOPE  C211 1993   7.675   3.513   6.522  0.3405 -0.5402 -0.9488
   16DOPE  H11R 1994   7.673   3.612   6.573  0.8790 -0.9582 -0.1026
   16DOPE  H11S 1995   7.758   3.532   6.450  1.0788 -0.5826 -0.1153
   16DOPE  C212 1996   7.733   3.413   6.628 -0.3964  0.4077  0.0048
   16DOPE  H12R 1997   7.764   3.318   6.578  1.4832  1.4474 -0.9000
   16DOPE  H12S 1998   7.668   3.392   6.716  0.6359 -0.3371  0.6184
   16DOPE  C213 1999   7.856   3.479   6.690  0.6656  0.1617  0.1917
   16DOPE  H13R 2000   7.916   3.514   6.603 -0.9032 -1.6310 -1.7060
   16DOPE  H13S 2001   7.910   3.405   6.752 -1.1311 -0.1664  1.4440
   16DOPE  C214 2002   7.832   3.605   6.774 -0.5027  0.3406  0.5158
   16DOPE  H14R 2003   7.800   3.686   6.704 -2.1646 -1.6201 -1.1195
   16DOPE  H14S 2004   7.932   3.643   6.803  0.1765 -0.0106 -1.2441
   16DOPE  C215 2005   7.723   3.591   6.881 -0.4644  0.4143  0.7392
   16DOPE  H15R 2006   7.758   3.513   6.951  1.2258  0.0539 -0.4355
   16DOPE  H15S 2007   7.628   3.553   6.838  0.1245 -1.5539  1.1160
   16DOPE  C216 2008   7.689   3.725   6.953 -0.6786 -0.2119 -0.8352
   16DOPE  H16R 2009   7.642   3.805   6.892 -2.1846  1.4196  2.2114
   16DOPE  H16S 2010   7.777   3.766   7.007  0.7721 -2.4457 -1.3836
   16DOPE  C217 2011   7.586   3.694   7.061 -0.1058 -0.5998  0.1769
   16DOPE  H17R 2012   7.619   3.621   7.138 -1.5605 -0.8538  0.5773
   16DOPE  H17S 2013   7.496   3.657   7.008 -0.9276  0.7567  0.5715
   16DOPE  C218 2014   7.543   3.822   7.130 -0.0010  0.2882 -0.3091
   16DOPE  H18R 2015   7.467   3.797   7.208  0.2344  1.7993  0.4412
   16DOPE  H18S 2016   7.491   3.889   7.059 -1.3956  1.8024  1.9750
   16DOPE  H18T 2017   7.632   3.873   7.174  0.9963 -2.1004  0.6152
   16DOPE   C33 2018   7.684   3.078   7.010  0.5837 -1.1995  0.8100
   16DOPE   H3X 2019   7.698   2.980   7.060  2.5555 -1.7265 -0.6314
   16DOPE   H3Y 2020   7.750   3.078   6.921  0.9930  2.3182  0.9773
   16DOPE   C34 2021   7.544   3.116   6.952  0.1792  0.2997 -0.7930
   16DOPE   H4X 2022   7.471   3.125   7.035  0.5236 -0.2727 -0.4223
   16DOPE   H4Y 2023   7.548   3.222   6.918 -0.1885  1.3728  2.2146
   16DOPE   C35 2024   7.507   3.036   6.830 -0.2535 -0.0554 -0.5728
   16DOPE   H5X 2025   7.501   2.929   6.861 -2.2953  0.0799 -0.3606
   16DOPE   H5Y 2026   7.591   3.043   6.758  0.0449 -1.9164 -0.4548
   16DOPE   C36 2027   7.372   3.078   6.768 -0.3955 -0.0567 -0.4866
   16DOPE   H6X 2028   7.388   3.185   6.743  0.3446  0.5273  2.2230
   16DOPE   H6Y 2029   7.289   3.075   6.841 -0.1476  2.1283 -0.0485
   16DOPE   C37 2030   7.341   2.991   6.644  0.6138  0.7219  0.9597
   16DOPE   H7X 2031   7.420   3.007   6.568 -0.3157 -1.7627 -0.6679
   16DOPE   H7Y 2032   7.347   2.884   6.673 -1.9124  0.1781 -0.2807
   16DOPE   C38 2033   7.209   3.033   6.580  0.2586  0.3183  0.4095
   16DOPE   H8X 2034   7.199   3.142   6.594  1.7429  0.4227  0.8263
   16DOPE   H8Y 2035   7.124   3.011   6.648 -0.2435  0.0555 -0.2943
   16DOPE   C39 2036   7.181   2.989   6.441 -0.1600 -0.5422 -0.2626
   16DOPE   H9X 2037   7.138   2.888   6.444  0.7762 -0.9543 -0.3982
   16DOPE  C310 2038   7.201   3.047   6.320  0.3368  0.8065 -0.7834
   16DOPE  H10X 2039   7.189   2.980   6.233 -0.0791  1.0452 -0.9159
   16DOPE  C311 2040   7.265   3.183   6.290  0.1454  0.1741  0.2189
   16DOPE  H11X 2041   7.204   3.248   6.225 -0.7263  0.7056  1.5387
   16DOPE  H11Y 2042   7.287   3.250   6.375  0.5864  0.6654 -0.2666
   16DOPE  C312 2043   7.405   3.160   6.223 -0.4555 -0.3200 -0.3952
   16DOPE  H12X 2044   7.463   3.090   6.287 -0.7075 -0.8706 -0.7634
   16DOPE  H12Y 2045   7.454   3.259   6.213  1.1364 -1.2910 -3.7690
   16DOPE  C313 2046   7.404   3.114   6.078 -0.4272 -0.6564  0.8789
   16DOPE  H13X 2047   7.490   3.054   6.042 -2.0028 -1.0329 -2.6291
   16DOPE  H13Y 2048   7.324   3.040   6.060 -0.6143  0.0161 -1.3068
   16DOPE  C314 2049   7.385   3.221   5.973  0.3237  0.1571  0.4233
   16DOPE  H14X 2050   7.464   3.300   5.976 -0.0467  0.5364  0.2579
   16DOPE  H14Y 2051   7.293   3.281   5.988  1.3574  1.5500  1.5305
   16DOPE  C315 2052   7.388   3.166   5.832 -0.3448 -0.1658 -1.0473
   16DOPE  H15X 2053   7.300   3.100   5.817 -0.3053 -0.1191 -1.4869
   16DOPE  H15Y 2054   7.479   3.103   5.821  1.2995  1.1949  3.0520
   16DOPE  C316 2055   7.399   3.278   5.726 -0.0361 -0.5708  0.4419
   16DOPE  H16X 2056   7.503   3.314   5.710 -0.2308 -0.0856  0.2343
   16DOPE  H16Y 2057   7.346   3.369   5.761 -0.4066 -0.1566 -1.1131
   16DOPE  C317 2058   7.348   3.240   5.581  0.2753  0.5541 -0.4662
   16DOPE  H17X 2059   7.419   3.163   5.543  1.4330  0.9344  0.8395
   16DOPE  H17Y 2060   7.246   3.198   5.578  0.2847  0.4490  0.4291
   16DOPE  C318 2061   7.352   3.360   5.493  0.5686 -0.6050  0.0896
   16DOPE  H18X 2062   7.337   3.330   5.387 -0.1744 -2.9043  0.7751
   16DOPE  H18Y 2063   7.277   3.437   5.521 -1.8121 -2.5874 -0.5535
   16DOPE  H18Z 2064   7.451   3.410   5.496  0.6190 -0.6311  3.8680
   17DOPE     N 2065   2.624   6.980   6.955  0.0763  0.3756  0.9296
   17DOPE   HN1 2066   2.567   7.064   6.979 -0.7856  0.6953 -1.9200
   17DOPE   HN2 2067   2.573   6.927   6.881  1.6886  0.1103 -0.0436
   17DOPE   HN3 2068   2.635   6.915   7.035  1.3822 -0.8590 -0.1971
   17DOPE   C12 2069   2.749   7.036   6.889 -0.0911  0.1010 -0.2216
   17DOPE  H12A 2070   2.785   7.121   6.950  0.6087  0.7509 -1.4828
   17DOPE  H12B 2071   2.710   7.074   6.792 -0.6685 -1.9950 -0.8850
   17DOPE   C11 2072   2.856   6.926   6.864  0.0025  0.2252 -0.4802
   17DOPE  H11A 2073   2.912   6.890   6.954  2.8722  0.4440 -2.0618
   17DOPE  H11B 2074   2.927   6.965   6.788  0.8243 -0.3351 -0.0127
   17DOPE     P 2075   2.853   6.681   6.762 -0.1816 -0.5685 -0.5199
   17DOPE   O13 2076   2.760   6.605   6.676 -0.1338  0.0133 -0.2374
   17DOPE   O14 2077   2.914   6.609   6.875 -0.2989 -0.1213  0.2687
   17DOPE   O11 2078   2.973   6.726   6.671  0.2592  0.4705  0.2622
   17DOPE   O12 2079   2.788   6.816   6.809  0.3524  0.4218  0.0134
   17DOPE    C1 2080   2.948   6.810   6.559  0.4177  0.4712 -0.2079
   17DOPE    HA 2081   3.044   6.864   6.543  1.5487 -1.2700  0.3877
   17DOPE    HB 2082   2.873   6.889   6.582  0.4098  0.5700 -0.5645
   17DOPE    C2 2083   2.914   6.740   6.429  0.6843  0.5581 -0.2148
   17DOPE    HS 2084   2.829   6.671   6.443  1.0651 -0.0610 -0.8803
   17DOPE   O21 2085   3.035   6.670   6.391  0.2581 -0.2933  0.2454
   17DOPE   C21 2086   3.017   6.557   6.328 -0.8209 -0.0456  0.8260
   17DOPE   O22 2087   2.911   6.513   6.294 -0.2322 -0.2740  0.3758
   17DOPE   C22 2088   3.146   6.498   6.288 -0.1654 -0.8005 -0.2004
   17DOPE   H2R 2089   3.157   6.409   6.354  0.1423  0.4692  1.5329
   17DOPE   H2S 2090   3.232   6.566   6.308 -3.0151  3.0712 -0.0999
   17DOPE    C3 2091   2.875   6.856   6.337 -0.1183 -0.2711  0.3686
   17DOPE    HX 2092   2.951   6.937   6.335  1.7843 -1.9437 -2.6657
   17DOPE    HY 2093   2.779   6.902   6.367 -0.2128 -1.5399  2.1815
   17DOPE   O31 2094   2.866   6.799   6.203  0.1130 -0.7736  0.5254
   17DOPE   C31 2095   2.746   6.752   6.182 -0.0945  0.9276 -0.1496
   17DOPE   O32 2096   2.653   6.757   6.259  0.1248  0.2349 -0.3293
   17DOPE   C32 2097   2.735   6.702   6.039  0.0192  0.3354  0.3572
   17DOPE   H2X 2098   2.820   6.746   5.984 -1.2587  2.2765 -0.1839
   17DOPE   H2Y 2099   2.748   6.592   6.045  0.9706  0.4404  0.2706
   17DOPE   C23 2100   3.154   6.466   6.141 -0.0602  0.6774  0.0628
   17DOPE   H3R 2101   3.105   6.369   6.119  0.0951  0.2606  1.5103
   17DOPE   H3S 2102   3.260   6.441   6.116 -0.5494 -0.3839 -1.0385
   17DOPE   C24 2103   3.105   6.581   6.049  0.2055  0.3264 -0.1839
   17DOPE   H4R 2104   3.168   6.668   6.075  1.5510 -0.1195 -1.7807
   17DOPE   H4S 2105   2.995   6.597   6.051 -0.0829 -1.5032  0.8310
   17DOPE   C25 2106   3.144   6.565   5.903  0.8404 -0.2491  0.2264
   17DOPE   H5R 2107   3.101   6.470   5.864 -0.8482  0.8208 -0.6303
   17DOPE   H5S 2108   3.255   6.556   5.905  0.8061 -0.5627  1.0595
   17DOPE   C26 2109   3.092   6.675   5.804  0.5169  0.0834 -0.1819
   17DOPE   H6R 2110   3.115   6.779   5.835  1.2736 -0.4688  1.1798
   17DOPE   H6S 2111   2.981   6.670   5.799  0.5787 -0.7281 -1.0814
   17DOPE   C27 2112   3.144   6.642   5.667 -0.3625 -0.3481  0.2935
   17DOPE   H7R 2113   3.248   6.606   5.683 -0.1782  1.1729  3.0193
   17DOPE   H7S 2114   3.159   6.726   5.595  0.4934 -0.0973  0.7520
   17DOPE   C28 2115   3.060   6.543   5.587  0.0781 -0.3192 -0.0393
   17DOPE   H8R 2116   3.038   6.453   5.648 -3.2937  0.0217 -0.5652
   17DOPE   H8S 2117   3.119   6.516   5.497 -0.5338  0.2491 -0.6176
   17DOPE   C29 2118   2.920   6.600   5.551 -0.3291  0.1318 -0.5028
   17DOPE   H9R 2119   2.886   6.680   5.618 -0.7176  0.4739 -1.0994
   17DOPE  C210 2120   2.846   6.577   5.442  0.2376 -0.0870 -0.0191
   17DOPE  H10R 2121   2.754   6.635   5.426  0.9907  1.2075  0.1904
   17DOPE  C211 2122   2.891   6.483   5.333  0.0404  0.2584  0.2423
   17DOPE  H11R 2123   2.989   6.435   5.353  0.1613 -0.8460 -2.5973
   17DOPE  H11S 2124   2.891   6.530   5.232 -0.1416 -1.7712 -0.7556
   17DOPE  C212 2125   2.801   6.357   5.314 -0.0389  0.6604  0.7128
   17DOPE  H12R 2126   2.696   6.391   5.301 -0.3233 -0.2307  0.5608
   17DOPE  H12S 2127   2.810   6.296   5.406 -0.9583  0.0012  0.3836
   17DOPE  C213 2128   2.849   6.267   5.206 -0.2167  0.4275  0.5793
   17DOPE  H13R 2129   2.957   6.259   5.230  0.3007  3.1663 -0.4356
   17DOPE  H13S 2130   2.847   6.313   5.105 -3.4714 -1.5547 -0.4030
   17DOPE  C214 2131   2.785   6.125   5.191 -0.2432  0.8478 -0.4629
   17DOPE  H14R 2132   2.676   6.135   5.173 -0.4358 -0.3269 -0.0451
   17DOPE  H14S 2133   2.801   6.082   5.292 -2.4783 -0.0096 -0.4253
   17DOPE  C215 2134   2.845   6.038   5.078 -0.7024 -0.7686  0.0646
   17DOPE  H15R 2135   2.955   6.053   5.083 -0.9652  1.1625  1.2112
   17DOPE  H15S 2136   2.806   6.065   4.977  1.9392 -0.0523 -0.8595
   17DOPE  C216 2137   2.819   5.890   5.101 -0.0267  0.0175  0.5071
   17DOPE  H16R 2138   2.859   5.884   5.204  0.1726 -0.1920  0.4186
   17DOPE  H16S 2139   2.887   5.837   5.030  1.8440  0.6991  1.7209
   17DOPE  C217 2140   2.671   5.845   5.100 -0.4193  0.0267 -0.0617
   17DOPE  H17R 2141   2.631   5.849   4.997 -3.1628  0.6595  0.9509
   17DOPE  H17S 2142   2.616   5.925   5.154 -0.2118 -0.8296  1.4716
   17DOPE  C218 2143   2.653   5.699   5.144 -0.3343  0.1462 -0.9897
   17DOPE  H18R 2144   2.717   5.634   5.080  0.0383  1.5740 -2.0958
   17DOPE  H18S 2145   2.551   5.655   5.135 -0.0691 -0.9100  0.6571
   17DOPE  H18T 2146   2.681   5.688   5.251 -0.1916  0.2066 -1.0208
   17DOPE   C33 2147   2.604   6.747   5.968 -0.3044  0.0509  0.2959
   17DOPE   H3X 2148   2.591   6.857   5.982  0.8558 -0.1155  3.5592
   17DOPE   H3Y 2149   2.522   6.698   6.024  0.0316  0.2248  0.9447
   17DOPE   C34 2150   2.599   6.707   5.823 -0.3098  0.4009  0.6320
   17DOPE   H4X 2151   2.650   6.786   5.763 -0.0789 -0.6000 -0.5188
   17DOPE   H4Y 2152   2.652   6.611   5.807  1.8170  1.2280  2.2525
   17DOPE   C35 2153   2.461   6.677   5.768  0.4040 -0.3525  0.9319
   17DOPE   H5X 2154   2.395   6.766   5.773  0.1989 -0.5017  0.8859
   17DOPE   H5Y 2155   2.428   6.606   5.847  1.6212 -0.0702  1.7300
   17DOPE   C36 2156   2.456   6.612   5.630  0.7799 -0.0684  0.1702
   17DOPE   H6X 2157   2.352   6.586   5.603  1.7854 -1.7186 -2.5761
   17DOPE   H6Y 2158   2.525   6.525   5.627  0.9514  0.0811 -1.3039
   17DOPE   C37 2159   2.486   6.716   5.517  0.3591 -0.1384  0.4423
   17DOPE   H7X 2160   2.444   6.814   5.545  0.6239 -0.0314  0.4681
   17DOPE   H7Y 2161   2.594   6.740   5.505 -0.0281  0.6937 -1.9783
   17DOPE   C38 2162   2.421   6.669   5.385 -0.1944  0.3008  0.3682
   17DOPE   H8X 2163   2.318   6.630   5.399  0.2563 -0.8677  0.4566
   17DOPE   H8Y 2164   2.486   6.588   5.347 -0.7493  0.1367 -0.2560
   17DOPE   C39 2165   2.427   6.778   5.281 -0.0959 -0.2218  0.1697
   17DOPE   H9X 2166   2.401   6.880   5.314 -2.3535 -0.4493 -0.7411
   17DOPE  C310 2167   2.498   6.774   5.162 -0.4482  0.9835 -0.7409
   17DOPE  H10X 2168   2.511   6.867   5.105 -1.9364  0.4566 -2.0226
   17DOPE  C311 2169   2.583   6.661   5.110  0.4188 -0.0918  0.2972
   17DOPE  H11X 2170   2.672   6.703   5.057  0.8592 -2.1175 -0.6817
   17DOPE  H11Y 2171   2.626   6.594   5.188  3.7647 -1.5839 -2.5576
   17DOPE  C312 2172   2.519   6.564   5.010 -0.5730 -0.0762  0.6614
   17DOPE  H12X 2173   2.449   6.619   4.943  0.0192 -0.2809 -0.1435
   17DOPE  H12Y 2174   2.448   6.496   5.062 -0.9172  0.5712  1.0497
   17DOPE  C313 2175   2.611   6.481   4.922 -0.0276 -0.1540  0.2635
   17DOPE  H13X 2176   2.711   6.524   4.898 -0.4228  0.1112 -0.9840
   17DOPE  H13Y 2177   2.631   6.382   4.970  1.8465  1.2094  2.5071
   17DOPE  C314 2178   2.548   6.452   4.783 -0.3140 -0.0491  0.0829
   17DOPE  H14X 2179   2.533   6.546   4.727  1.0341 -0.0311 -0.3010
   17DOPE  H14Y 2180   2.448   6.404   4.788 -0.3705 -0.0827 -1.0309
   17DOPE  C315 2181   2.636   6.363   4.698 -0.3757  0.0815 -0.2966
   17DOPE  H15X 2182   2.628   6.261   4.741  0.3919  0.1226 -0.0393
   17DOPE  H15Y 2183   2.744   6.387   4.712 -0.9771  1.8620  1.6318
   17DOPE  C316 2184   2.595   6.345   4.552 -0.6535 -0.5348  0.0587
   17DOPE  H16X 2185   2.647   6.418   4.486 -1.4300 -0.5901 -0.6228
   17DOPE  H16Y 2186   2.486   6.365   4.541 -0.6659 -0.1236  0.8742
   17DOPE  C317 2187   2.622   6.205   4.498  0.5447 -0.4097 -0.2294
   17DOPE  H17X 2188   2.731   6.195   4.519  0.3226 -0.6661  0.8976
   17DOPE  H17Y 2189   2.573   6.123   4.554 -2.2067  0.5695 -1.0554
   17DOPE  C318 2190   2.585   6.190   4.350  0.1567  0.3257 -0.9338
   17DOPE  H18X 2191   2.608   6.086   4.318  1.9073  0.8208 -1.4064
   17DOPE  H18Y 2192   2.476   6.203   4.340  0.2733  2.4696 -0.0227
   17DOPE  H18Z 2193   2.647   6.260   4.290  0.8834  0.0186 -0.5553
   18DOPE     N 2194   6.312   2.881   8.142  0.0148 -0.1797  0.7838
   18DOPE   HN1 2195   6.258   2.967   8.163 -1.2290 -0.3419 -1.5163
   18DOPE   HN2 2196   6.266   2.840   8.059 -0.5567  1.2162  0.3801
   18DOPE   HN3 2197   6.297   2.818   8.224  0.7743  0.5489  1.5075
   18DOPE   C12 2198   6.457   2.911   8.100 -0.0923  0.4404  0.1422
   18DOPE  H12A 2199   6.503   2.813   8.078 -3.2017 -0.8797 -1.0520
   18DOPE  H12B 2200   6.507   2.959   8.187  0.4799 -0.8948  0.5675
   18DOPE   C11 2201   6.481   3.007   7.977 -0.0680 -0.3462  0.6015
   18DOPE  H11A 2202   6.590   3.022   7.975  0.2928 -2.4296  1.3660
   18DOPE  H11B 2203   6.430   3.102   8.003 -1.3971 -0.5881 -0.9293
   18DOPE     P 2204   6.500   2.884   7.751 -0.1461 -0.4246 -0.0859
   18DOPE   O13 2205   6.576   2.766   7.805 -0.2392 -0.1285  0.4629
   18DOPE   O14 2206   6.595   2.981   7.696  0.2503 -0.6765 -0.0885
   18DOPE   O11 2207   6.395   2.828   7.648  0.2506  0.1233  0.4844
   18DOPE   O12 2208   6.411   2.954   7.862 -0.5506  0.5994 -0.3460
   18DOPE    C1 2209   6.297   2.906   7.574  0.1998 -0.3864 -0.3620
   18DOPE    HA 2210   6.273   3.001   7.625 -2.1231 -0.5210 -1.0799
   18DOPE    HB 2211   6.200   2.853   7.560 -1.0114  1.4855  0.5018
   18DOPE    C2 2212   6.346   2.958   7.440 -0.0597  0.1127 -0.2092
   18DOPE    HS 2213   6.438   3.018   7.455 -1.2015  1.7831  0.5396
   18DOPE   O21 2214   6.239   3.028   7.375 -0.1421 -0.8286  0.1600
   18DOPE   C21 2215   6.263   3.158   7.365  0.3449  0.0740 -0.3842
   18DOPE   O22 2216   6.355   3.218   7.420 -0.0261  0.4959  0.1305
   18DOPE   C22 2217   6.157   3.221   7.272  0.3206 -0.2309 -0.0895
   18DOPE   H2R 2218   6.058   3.207   7.320  0.5482  1.5447  1.0150
   18DOPE   H2S 2219   6.167   3.162   7.178  0.1624  1.1299 -0.9923
   18DOPE    C3 2220   6.390   2.835   7.351 -0.5335 -0.2818  0.6579
   18DOPE    HX 2221   6.292   2.783   7.334 -0.7018  0.1889  0.1631
   18DOPE    HY 2222   6.465   2.766   7.395  0.3454  1.2823  1.7249
   18DOPE   O31 2223   6.429   2.875   7.221 -0.2765  0.1121 -0.1138
   18DOPE   C31 2224   6.549   2.929   7.206  0.5051  0.4326  0.2728
   18DOPE   O32 2225   6.639   2.942   7.291 -0.1916  0.2956 -0.2484
   18DOPE   C32 2226   6.550   2.986   7.059 -0.0659  0.3585  0.0628
   18DOPE   H2X 2227   6.614   2.920   6.997 -0.2023 -0.9261  1.2407
   18DOPE   H2Y 2228   6.445   2.980   7.022 -0.0535 -2.0509  0.2533
   18DOPE   C23 2229   6.189   3.367   7.243  0.3288 -0.4845  0.6873
   18DOPE   H3R 2230   6.203   3.429   7.334  0.5128 -2.0386  1.7655
   18DOPE   H3S 2231   6.102   3.413   7.191  0.2125 -0.1322  1.1900
   18DOPE   C24 2232   6.311   3.383   7.146  0.0019 -0.3401  0.8470
   18DOPE   H4R 2233   6.308   3.310   7.062  1.5867  0.5593 -0.0528
   18DOPE   H4S 2234   6.410   3.375   7.196  0.4342 -0.3144  0.0242
   18DOPE   C25 2235   6.296   3.523   7.073 -0.2416 -0.2529 -0.5111
   18DOPE   H5R 2236   6.321   3.588   7.159  0.9962 -0.6835 -0.5189
   18DOPE   H5S 2237   6.201   3.539   7.019  0.5682  0.8451 -1.6775
   18DOPE   C26 2238   6.403   3.543   6.962 -0.4673  0.4006  1.1601
   18DOPE   H6R 2239   6.406   3.452   6.899 -0.4223 -0.1585  1.9613
   18DOPE   H6S 2240   6.505   3.554   7.003  0.5398  1.1846 -1.3726
   18DOPE   C27 2241   6.369   3.661   6.867  0.0845  0.0005  0.0308
   18DOPE   H7R 2242   6.265   3.641   6.832 -0.7279  0.3760  2.1328
   18DOPE   H7S 2243   6.440   3.659   6.781 -0.4511  1.6963 -0.4972
   18DOPE   C28 2244   6.372   3.805   6.922  0.0160  0.3166  0.6422
   18DOPE   H8R 2245   6.361   3.869   6.832  0.1409 -0.1985  0.2568
   18DOPE   H8S 2246   6.479   3.826   6.945  0.6057 -0.9511 -0.7753
   18DOPE   C29 2247   6.275   3.831   7.040 -0.7811 -0.2786  0.6684
   18DOPE   H9R 2248   6.321   3.808   7.137  3.0804  2.0037 -0.3798
   18DOPE  C210 2249   6.159   3.890   7.034 -0.4443  0.4559 -0.2163
   18DOPE  H10R 2250   6.118   3.904   7.135 -1.3269 -0.1617 -0.4819
   18DOPE  C211 2251   6.082   3.945   6.923 -0.3053 -0.3830  1.0152
   18DOPE  H11R 2252   5.980   3.905   6.906 -0.5209  0.7687 -0.6903
   18DOPE  H11S 2253   6.140   3.943   6.828 -0.3826  0.3796  0.9406
   18DOPE  C212 2254   6.054   4.096   6.956 -0.5794  0.0782  0.0688
   18DOPE  H12R 2255   6.154   4.145   6.956 -0.4993 -0.0484  1.4677
   18DOPE  H12S 2256   6.011   4.111   7.057 -1.0915  2.2639 -0.4343
   18DOPE  C213 2257   5.962   4.151   6.850  1.0255 -0.3555  0.1424
   18DOPE  H13R 2258   5.855   4.130   6.875  0.3864  1.4883 -0.8655
   18DOPE  H13S 2259   5.985   4.102   6.753  2.4209 -4.9984  2.5368
   18DOPE  C214 2260   5.968   4.311   6.855 -0.5543 -0.3788 -0.0520
   18DOPE  H14R 2261   6.069   4.350   6.831 -1.2904  1.2147 -0.7323
   18DOPE  H14S 2262   5.945   4.334   6.961  2.2246  0.8094  0.3965
   18DOPE  C215 2263   5.859   4.385   6.771 -0.4171 -0.6293 -0.2485
   18DOPE  H15R 2264   5.844   4.485   6.817  0.4823 -0.5573 -0.1077
   18DOPE  H15S 2265   5.768   4.322   6.781 -1.2958  0.8958  3.2261
   18DOPE  C216 2266   5.917   4.416   6.627 -0.0724 -0.0929 -0.7588
   18DOPE  H16R 2267   5.988   4.340   6.590 -0.7032 -0.1690 -1.8691
   18DOPE  H16S 2268   5.981   4.507   6.624  1.9414 -1.3747  1.1050
   18DOPE  C217 2269   5.802   4.431   6.530  0.2939 -0.6067  0.2104
   18DOPE  H17R 2270   5.738   4.507   6.582 -0.7562 -0.9463 -0.5596
   18DOPE  H17S 2271   5.737   4.342   6.514  0.3543 -1.2907  3.0770
   18DOPE  C218 2272   5.839   4.480   6.397 -0.0959 -0.5490 -0.4503
   18DOPE  H18R 2273   5.744   4.494   6.343 -0.3166 -1.1671 -0.2307
   18DOPE  H18S 2274   5.889   4.398   6.341 -2.5882 -2.8514  0.4968
   18DOPE  H18T 2275   5.896   4.575   6.409  0.3322 -0.6185 -1.7515
   18DOPE   C33 2276   6.595   3.135   7.053  0.4499  0.4966 -0.1466
   18DOPE   H3X 2277   6.691   3.145   7.110  1.1468  3.0938 -1.5702
   18DOPE   H3Y 2278   6.520   3.201   7.102 -1.0017  1.0637 -2.9137
   18DOPE   C34 2279   6.636   3.168   6.906 -0.0936 -0.3049  0.2670
   18DOPE   H4X 2280   6.714   3.097   6.870  1.1131  0.1222  1.8641
   18DOPE   H4Y 2281   6.543   3.164   6.847 -1.5060  2.1969  2.1282
   18DOPE   C35 2282   6.702   3.311   6.901  0.5355 -0.0726  0.6458
   18DOPE   H5X 2283   6.803   3.311   6.947  0.9621 -2.7194 -0.1318
   18DOPE   H5Y 2284   6.641   3.387   6.955 -0.0276 -0.0901  0.0404
   18DOPE   C36 2285   6.719   3.363   6.762 -0.6434 -0.0605 -0.2898
   18DOPE   H6X 2286   6.786   3.450   6.781  2.0680 -1.9328 -0.7381
   18DOPE   H6Y 2287   6.626   3.394   6.711  0.2236  1.4871 -1.0158
   18DOPE   C37 2288   6.787   3.262   6.660 -0.2618  0.3093  0.1162
   18DOPE   H7X 2289   6.872   3.211   6.711 -0.6583 -1.3897 -0.8641
   18DOPE   H7Y 2290   6.711   3.189   6.628 -0.3940  0.2234  0.6173
   18DOPE   C38 2291   6.852   3.331   6.529  0.4905  0.2334  0.7094
   18DOPE   H8X 2292   6.930   3.401   6.565 -0.4704  2.2499 -0.9193
   18DOPE   H8Y 2293   6.772   3.399   6.493 -0.1638  0.4590  2.4644
   18DOPE   C39 2294   6.894   3.215   6.439  0.0169 -0.3501  0.0329
   18DOPE   H9X 2295   6.942   3.130   6.489  0.7142  0.1922  0.3071
   18DOPE  C310 2296   6.893   3.211   6.305  0.1166  0.6112  0.0067
   18DOPE  H10X 2297   6.922   3.117   6.257 -0.8587  0.2353  0.1515
   18DOPE  C311 2298   6.844   3.323   6.222  0.1210 -0.0791 -0.5481
   18DOPE  H11X 2299   6.766   3.288   6.151 -0.6012  2.4592 -1.1095
   18DOPE  H11Y 2300   6.781   3.398   6.274  0.5896  0.4226 -0.6916
   18DOPE  C312 2301   6.957   3.404   6.149  0.5328  0.2650 -0.1241
   18DOPE  H12X 2302   6.915   3.470   6.070 -0.6165 -0.1383  0.1293
   18DOPE  H12Y 2303   7.015   3.328   6.092  0.0760 -1.8971  2.1254
   18DOPE  C313 2304   7.035   3.491   6.248  0.5758  0.1318  0.0249
   18DOPE  H13X 2305   6.974   3.577   6.284  1.3471  0.3688  0.8204
   18DOPE  H13Y 2306   7.070   3.432   6.335  0.8773  2.0543  1.2563
   18DOPE  C314 2307   7.158   3.565   6.189  0.4949 -0.0947 -0.5284
   18DOPE  H14X 2308   7.240   3.494   6.167  1.3089  0.5619  0.3069
   18DOPE  H14Y 2309   7.200   3.620   6.276  1.5820 -3.8108  1.5430
   18DOPE  C315 2310   7.127   3.649   6.069 -0.9918  0.1860  0.0904
   18DOPE  H15X 2311   7.041   3.715   6.096 -0.9112  0.5674 -0.5618
   18DOPE  H15Y 2312   7.098   3.586   5.983  1.1231 -2.3183  1.0928
   18DOPE  C316 2313   7.249   3.741   6.028  0.3884 -0.1289 -0.1504
   18DOPE  H16X 2314   7.341   3.680   6.027  1.4430  1.4063 -0.8837
   18DOPE  H16Y 2315   7.262   3.808   6.115  0.0244 -1.9713  1.3874
   18DOPE  C317 2316   7.227   3.813   5.892  0.0037 -0.0151 -0.6447
   18DOPE  H17X 2317   7.121   3.847   5.890  0.0994  0.2419 -1.3855
   18DOPE  H17Y 2318   7.298   3.897   5.877 -1.4635  2.0642  2.7999
   18DOPE  C318 2319   7.248   3.717   5.768 -0.6386 -0.0784 -1.1201
   18DOPE  H18X 2320   7.358   3.697   5.765 -0.4866  0.3198  0.7955
   18DOPE  H18Y 2321   7.191   3.621   5.775  2.2124 -1.9289 -1.4718
   18DOPE  H18Z 2322   7.222   3.775   5.677 -0.2420  2.0094  0.0446
   19DOPE     N 2323   5.621   3.344   7.914  0.3821  0.5608  0.2938
   19DOPE   HN1 2324   5.715   3.312   7.945  0.0203 -1.9189 -0.9566
   19DOPE   HN2 2325   5.598   3.432   7.965 -0.3001  0.0332  0.9286
   19DOPE   HN3 2326   5.549   3.272   7.936 -0.2436  1.3686  0.9750
   19DOPE   C12 2327   5.647   3.375   7.766  0.4210 -0.7854 -0.2166
   19DOPE  H12A 2328   5.738   3.439   7.764  0.7420 -1.2553 -1.5612
   19DOPE  H12B 2329   5.559   3.435   7.734  0.9089  0.1086  0.0702
   19DOPE   C11 2330   5.663   3.239   7.689  0.2942 -0.5951 -1.1128
   19DOPE  H11A 2331   5.696   3.251   7.583 -1.1383 -1.7446 -1.7283
   19DOPE  H11B 2332   5.560   3.199   7.678  0.2609 -0.6571 -0.5597
   19DOPE     P 2333   5.735   2.997   7.759 -0.3543 -0.5631  0.0881
   19DOPE   O13 2334   5.592   2.973   7.785  0.4244 -0.2571 -0.3711
   19DOPE   O14 2335   5.841   2.944   7.855 -0.9423  0.0159  0.3726
   19DOPE   O11 2336   5.775   2.961   7.606 -0.0570 -0.4158 -0.5086
   19DOPE   O12 2337   5.755   3.160   7.764 -0.2248  0.0805 -0.1442
   19DOPE    C1 2338   5.910   2.971   7.569 -0.9441  0.2716  1.0981
   19DOPE    HA 2339   5.991   2.941   7.639 -1.5103 -1.0160  1.2134
   19DOPE    HB 2340   5.922   3.079   7.545 -2.5638  0.6187  1.7025
   19DOPE    C2 2341   5.932   2.897   7.435 -0.1904  0.2131  0.2382
   19DOPE    HS 2342   6.041   2.892   7.416 -0.2064 -0.1981  0.2508
   19DOPE   O21 2343   5.868   2.979   7.335  0.3538 -0.1370  0.5280
   19DOPE   C21 2344   5.911   2.964   7.210  0.6545  0.4318 -0.8547
   19DOPE   O22 2345   6.015   2.901   7.173 -0.0318 -0.1953  0.3148
   19DOPE   C22 2346   5.803   3.014   7.116 -0.4594  0.4989 -0.3793
   19DOPE   H2R 2347   5.739   3.095   7.157 -0.8717 -0.2214  0.4348
   19DOPE   H2S 2348   5.737   2.926   7.100 -1.0932  0.1897  3.1853
   19DOPE    C3 2349   5.875   2.755   7.441 -0.4205  0.5067  0.2151
   19DOPE    HX 2350   5.765   2.771   7.440 -0.4904  0.3922  2.3177
   19DOPE    HY 2351   5.905   2.709   7.537  2.3293  1.3008 -0.1624
   19DOPE   O31 2352   5.916   2.671   7.331 -0.0462  0.4158 -0.3233
   19DOPE   C31 2353   6.040   2.620   7.345  0.3750  0.2846 -0.5115
   19DOPE   O32 2354   6.118   2.646   7.435 -0.1471  0.6097 -0.7025
   19DOPE   C32 2355   6.067   2.506   7.248  0.0266 -0.3220  0.3716
   19DOPE   H2X 2356   6.142   2.537   7.172 -0.2025 -0.9572 -0.1262
   19DOPE   H2Y 2357   6.104   2.419   7.307  2.4494 -0.5750 -1.3695
   19DOPE   C23 2358   5.844   3.046   6.971 -0.2225 -0.0522  0.1250
   19DOPE   H3R 2359   5.751   3.048   6.910 -0.5568  0.1776  0.6305
   19DOPE   H3S 2360   5.900   2.957   6.936  1.9960  0.2312  2.6385
   19DOPE   C24 2361   5.931   3.171   6.949 -0.3891  0.2290 -0.0026
   19DOPE   H4R 2362   6.006   3.180   7.031 -0.9620  1.9898  0.3622
   19DOPE   H4S 2363   5.868   3.260   6.970  0.5322  1.0236 -0.5088
   19DOPE   C25 2364   5.996   3.165   6.812 -0.2891  0.7737  0.5990
   19DOPE   H5R 2365   5.916   3.167   6.735 -0.4460  1.4125  0.7745
   19DOPE   H5S 2366   6.054   3.070   6.800  0.3874  1.2007  0.4317
   19DOPE   C26 2367   6.089   3.293   6.781 -0.3450 -0.1613  0.3200
   19DOPE   H6R 2368   6.182   3.287   6.842 -0.1999  0.6343  0.1903
   19DOPE   H6S 2369   6.033   3.384   6.812 -3.6899 -1.4889 -1.3226
   19DOPE   C27 2370   6.112   3.304   6.629  0.0728 -0.2534 -0.0847
   19DOPE   H7R 2371   6.140   3.404   6.590 -1.1104 -0.5078 -1.7294
   19DOPE   H7S 2372   6.015   3.279   6.581 -0.4385  0.2629  0.6755
   19DOPE   C28 2373   6.215   3.203   6.583 -0.3182 -0.8748 -0.6287
   19DOPE   H8R 2374   6.192   3.210   6.475 -0.5561  3.3124 -0.4704
   19DOPE   H8S 2375   6.189   3.102   6.622  0.8231 -1.0712 -0.3403
   19DOPE   C29 2376   6.360   3.227   6.599 -0.1377 -0.1588 -0.8362
   19DOPE   H9R 2377   6.389   3.232   6.704  1.5612  0.5588 -1.3047
   19DOPE  C210 2378   6.450   3.243   6.500  0.4126 -0.4014 -0.0593
   19DOPE  H10R 2379   6.549   3.272   6.538  0.4351 -0.9303  0.2969
   19DOPE  C211 2380   6.431   3.242   6.350 -0.3149 -0.2363  0.5013
   19DOPE  H11R 2381   6.348   3.172   6.325  0.0423 -0.3003 -0.5619
   19DOPE  H11S 2382   6.526   3.197   6.313 -0.0226  0.9459 -0.2445
   19DOPE  C212 2383   6.426   3.376   6.278 -0.2090 -0.1776  0.5667
   19DOPE  H12R 2384   6.525   3.427   6.277 -0.3072  0.0501 -1.1341
   19DOPE  H12S 2385   6.352   3.433   6.336 -1.3405 -0.8412 -0.1780
   19DOPE  C213 2386   6.371   3.345   6.142 -0.5263 -0.2410  0.6717
   19DOPE  H13R 2387   6.281   3.409   6.132 -2.1821 -2.0432  3.0450
   19DOPE  H13S 2388   6.330   3.243   6.135  0.1372 -0.6249  2.0388
   19DOPE  C214 2389   6.476   3.367   6.029  0.7132 -0.0306  0.2309
   19DOPE  H14R 2390   6.561   3.298   6.049  1.9270  1.8609  1.9626
   19DOPE  H14S 2391   6.514   3.471   6.033 -1.0099  0.6482 -0.0764
   19DOPE  C215 2392   6.424   3.339   5.886  0.3696 -0.0128  0.4377
   19DOPE  H15R 2393   6.319   3.372   5.871  0.5745  0.5020  0.0771
   19DOPE  H15S 2394   6.418   3.230   5.866  0.7597  0.2067 -1.0791
   19DOPE  C216 2395   6.505   3.409   5.775 -0.2356 -0.6823  0.2510
   19DOPE  H16R 2396   6.615   3.395   5.774 -0.3923 -2.1464  0.2791
   19DOPE  H16S 2397   6.500   3.519   5.789  1.0716  0.2185 -4.5594
   19DOPE  C217 2398   6.452   3.381   5.631  0.2365 -0.0358  0.0688
   19DOPE  H17R 2399   6.472   3.274   5.606 -1.3882 -0.3267 -0.0801
   19DOPE  H17S 2400   6.504   3.443   5.554  0.4333 -0.2745  0.0090
   19DOPE  C218 2401   6.301   3.410   5.616  0.0606  0.5708 -0.0584
   19DOPE  H18R 2402   6.235   3.332   5.657 -0.5383 -0.1386 -2.2288
   19DOPE  H18S 2403   6.278   3.413   5.507 -0.1371  0.5593 -0.0164
   19DOPE  H18T 2404   6.272   3.506   5.663 -0.1510  0.5139 -0.0722
   19DOPE   C33 2405   5.948   2.455   7.153  0.7299  0.8355  0.6814
   19DOPE   H3X 2406   5.922   2.547   7.097  1.4840  0.2389 -0.6850
   19DOPE   H3Y 2407   5.870   2.426   7.226 -1.6710  1.4976 -1.4853
   19DOPE   C34 2408   5.995   2.339   7.061 -0.3952  0.3210 -0.9098
   19DOPE   H4X 2409   6.074   2.377   6.993  1.6104 -0.1152  1.0613
   19DOPE   H4Y 2410   6.032   2.254   7.123  2.0675 -0.5220 -3.3230
   19DOPE   C35 2411   5.878   2.303   6.959  0.3733 -0.1953 -0.3556
   19DOPE   H5X 2412   5.844   2.403   6.923  2.5292  0.7172 -0.0008
   19DOPE   H5Y 2413   5.798   2.267   7.027  0.2209 -0.2129 -0.5438
   19DOPE   C36 2414   5.917   2.203   6.849  0.0381  0.4760  0.6536
   19DOPE   H6X 2415   5.940   2.104   6.894 -0.9840  0.4913  1.2371
   19DOPE   H6Y 2416   6.009   2.237   6.797  0.1445 -1.7530 -0.7425
   19DOPE   C37 2417   5.818   2.190   6.738  0.4507 -0.1653  0.5752
   19DOPE   H7X 2418   5.727   2.145   6.784  0.4729 -0.2849  0.5025
   19DOPE   H7Y 2419   5.789   2.293   6.712  0.6258 -0.3160 -0.2403
   19DOPE   C38 2420   5.874   2.111   6.623 -0.6658  0.0271 -0.1714
   19DOPE   H8X 2421   5.934   2.027   6.665 -1.8439 -2.2287 -2.7295
   19DOPE   H8Y 2422   5.941   2.175   6.561  1.2978 -1.2178  0.5861
   19DOPE   C39 2423   5.767   2.044   6.550  0.0489  0.0808 -0.1889
   19DOPE   H9X 2424   5.686   2.013   6.618  0.7219 -1.1319  0.0862
   19DOPE  C310 2425   5.756   2.017   6.420 -0.3378 -0.7636  0.0847
   19DOPE  H10X 2426   5.662   1.972   6.385 -2.3368  1.4340  2.2975
   19DOPE  C311 2427   5.856   2.054   6.309 -0.7234  0.8552  0.4070
   19DOPE  H11X 2428   5.941   2.115   6.347  0.4345  0.4986 -1.4947
   19DOPE  H11Y 2429   5.900   1.959   6.272 -1.5167  0.6884 -0.1177
   19DOPE  C312 2430   5.792   2.144   6.210 -0.3622 -0.4181  0.3773
   19DOPE  H12X 2431   5.867   2.187   6.140 -1.1492  0.0796 -0.1663
   19DOPE  H12Y 2432   5.740   2.227   6.262 -2.9482 -2.0709  0.6168
   19DOPE  C313 2433   5.697   2.073   6.113 -0.3621 -0.6473 -0.0683
   19DOPE  H13X 2434   5.754   1.985   6.080  1.7216  1.4086 -2.3616
   19DOPE  H13Y 2435   5.621   2.033   6.184  0.1889 -2.1484 -0.3091
   19DOPE  C314 2436   5.628   2.150   6.000  0.2265 -0.2498 -0.5153
   19DOPE  H14X 2437   5.694   2.162   5.911 -0.7600  0.8650 -1.1335
   19DOPE  H14Y 2438   5.613   2.255   6.035  2.4407 -0.4010  1.1245
   19DOPE  C315 2439   5.498   2.084   5.947  0.1431  0.1504  0.0775
   19DOPE  H15X 2440   5.440   2.080   6.042 -0.0664  1.0193 -0.0008
   19DOPE  H15Y 2441   5.516   1.980   5.915 -0.6182  0.2804 -0.8148
   19DOPE  C316 2442   5.413   2.162   5.842 -0.5408  0.5549 -0.0668
   19DOPE  H16X 2443   5.473   2.175   5.750  1.5658  2.1088  1.4294
   19DOPE  H16Y 2444   5.387   2.265   5.876  1.6476  0.7568  1.1420
   19DOPE  C317 2445   5.281   2.090   5.824 -0.0741 -0.0932 -0.0209
   19DOPE  H17X 2446   5.308   1.985   5.800  1.1558 -0.2688  1.9157
   19DOPE  H17Y 2447   5.231   2.098   5.924 -0.7830 -2.8963 -0.0701
   19DOPE  C318 2448   5.194   2.165   5.724 -0.2059 -0.4468 -0.1693
   19DOPE  H18X 2449   5.087   2.134   5.729 -0.7659  1.5349  1.2636
   19DOPE  H18Y 2450   5.199   2.275   5.734  2.5548 -0.5783  0.7243
   19DOPE  H18Z 2451   5.234   2.142   5.622 -1.4815  0.4277 -0.8975
   20DOPE     N 2452   5.147   6.751   7.402 -0.0278  0.3067  0.2171
   20DOPE   HN1 2453   5.123   6.821   7.329  0.5128 -1.4115 -1.6736
   20DOPE   HN2 2454   5.081   6.747   7.483 -0.3812 -2.2372 -0.0975
   20DOPE   HN3 2455   5.245   6.775   7.426  0.1428  0.1495 -0.3191
   20DOPE   C12 2456   5.128   6.619   7.340  0.1624  1.2119  0.3080
   20DOPE  H12A 2457   5.187   6.616   7.245 -0.2313  1.1010  0.0657
   20DOPE  H12B 2458   5.022   6.603   7.312  0.7182  0.1293 -1.3494
   20DOPE   C11 2459   5.185   6.510   7.424  0.5371 -0.0236  0.2576
   20DOPE  H11A 2460   5.133   6.505   7.522  2.4101  0.7443  1.3553
   20DOPE  H11B 2461   5.292   6.533   7.445  0.3027  1.5735 -0.1481
   20DOPE     P 2462   5.231   6.247   7.400  0.0714 -0.2164  0.1970
   20DOPE   O13 2463   5.107   6.169   7.437 -0.3081  1.1107  0.2323
   20DOPE   O14 2464   5.326   6.262   7.510 -0.2724 -0.0321  0.1352
   20DOPE   O11 2465   5.311   6.189   7.274 -0.6746  0.1341  0.1561
   20DOPE   O12 2466   5.188   6.383   7.347 -0.0047 -0.3698 -1.0374
   20DOPE    C1 2467   5.418   6.268   7.220  0.0482  0.5834  0.1313
   20DOPE    HA 2468   5.494   6.302   7.292  1.1894  1.4567 -1.4251
   20DOPE    HB 2469   5.377   6.361   7.176  1.4499 -0.4694 -3.7868
   20DOPE    C2 2470   5.500   6.189   7.111  0.1814 -0.0394 -0.3940
   20DOPE    HS 2471   5.557   6.272   7.065  0.2153  0.2837  0.2198
   20DOPE   O21 2472   5.415   6.103   7.027 -0.4060  0.3434 -0.4006
   20DOPE   C21 2473   5.457   6.093   6.903 -0.4492  0.1730 -0.0379
   20DOPE   O22 2474   5.544   6.157   6.849 -0.2063 -0.0972 -0.0716
   20DOPE   C22 2475   5.376   5.981   6.837  1.3082  0.0275 -0.3139
   20DOPE   H2R 2476   5.266   5.992   6.854  1.1395  0.2028 -1.4121
   20DOPE   H2S 2477   5.410   5.884   6.878  0.4105  0.5643  1.8778
   20DOPE    C3 2478   5.599   6.096   7.189 -0.2052 -0.4868 -0.0294
   20DOPE    HX 2479   5.540   6.034   7.261  0.3594 -3.3370 -1.8379
   20DOPE    HY 2480   5.665   6.164   7.246  0.3806 -1.8844  1.0313
   20DOPE   O31 2481   5.687   6.013   7.105 -0.3526  0.2342 -0.1810
   20DOPE   C31 2482   5.798   6.075   7.064  0.9281 -0.0606 -0.7033
   20DOPE   O32 2483   5.817   6.193   7.082  0.1384 -0.2049 -0.0141
   20DOPE   C32 2484   5.900   5.978   7.004 -0.4301  0.5840 -0.2785
   20DOPE   H2X 2485   5.986   5.980   7.074 -1.1126  2.5221  0.5992
   20DOPE   H2Y 2486   5.857   5.876   7.008 -1.4766  1.0418  1.1702
   20DOPE   C23 2487   5.398   5.970   6.684 -0.1694 -0.0469  0.0127
   20DOPE   H3R 2488   5.502   5.931   6.679  0.1180  0.4823  1.2941
   20DOPE   H3S 2489   5.395   6.068   6.634  0.2531 -0.9753 -1.9177
   20DOPE   C24 2490   5.299   5.884   6.612 -0.4583  0.3216  0.6417
   20DOPE   H4R 2491   5.195   5.915   6.637 -0.4397 -0.0551  1.2055
   20DOPE   H4S 2492   5.319   5.780   6.646 -2.8281 -0.2903  0.3269
   20DOPE   C25 2493   5.320   5.876   6.458 -0.5526  0.2167 -0.1942
   20DOPE   H5R 2494   5.426   5.849   6.441 -0.0908 -0.5897  3.1916
   20DOPE   H5S 2495   5.304   5.980   6.421  1.5557  0.6779  0.0817
   20DOPE   C26 2496   5.220   5.783   6.386 -0.3385 -0.5408 -0.3217
   20DOPE   H6R 2497   5.119   5.823   6.407  0.8577  1.4569  2.1256
   20DOPE   H6S 2498   5.216   5.676   6.418  1.6600 -0.9081 -1.0895
   20DOPE   C27 2499   5.221   5.792   6.232  0.0616 -0.3951  0.1492
   20DOPE   H7R 2500   5.214   5.895   6.190 -1.2482 -0.5511 -0.0740
   20DOPE   H7S 2501   5.130   5.736   6.202  0.3535 -0.4650 -0.6229
   20DOPE   C28 2502   5.343   5.725   6.158 -0.4692  0.5081 -1.0295
   20DOPE   H8R 2503   5.333   5.616   6.177  0.7473  0.2828 -1.5950
   20DOPE   H8S 2504   5.431   5.756   6.218 -0.9066 -1.7024  0.9420
   20DOPE   C29 2505   5.355   5.755   6.009  0.3300 -0.3228  0.1658
   20DOPE   H9R 2506   5.392   5.856   5.984  0.2560 -0.9588 -3.0043
   20DOPE  C210 2507   5.308   5.682   5.906 -0.3190  0.8016 -0.0756
   20DOPE  H10R 2508   5.336   5.714   5.805  4.5919  0.1586  0.8202
   20DOPE  C211 2509   5.229   5.546   5.912  0.3660  0.4764 -0.1589
   20DOPE  H11R 2510   5.122   5.553   5.881 -0.0731 -0.1425  1.1420
   20DOPE  H11S 2511   5.239   5.509   6.016  1.6283 -1.2740 -0.8507
   20DOPE  C212 2512   5.295   5.449   5.819 -0.1374 -0.2714  0.9502
   20DOPE  H12R 2513   5.396   5.427   5.859  0.2744  0.1018  0.1440
   20DOPE  H12S 2514   5.308   5.492   5.717 -0.3753  0.1559  1.0995
   20DOPE  C213 2515   5.220   5.315   5.827  0.1606  0.7358 -0.0531
   20DOPE  H13R 2516   5.112   5.336   5.816  0.1877  1.2316  0.5332
   20DOPE  H13S 2517   5.232   5.276   5.930 -1.3357 -2.1670 -0.8801
   20DOPE  C214 2518   5.268   5.216   5.725  0.3900 -0.4796  0.3211
   20DOPE  H14R 2519   5.211   5.122   5.742 -1.2302  0.2773 -0.7092
   20DOPE  H14S 2520   5.376   5.192   5.723  0.5175  0.0975  0.2537
   20DOPE  C215 2521   5.222   5.254   5.585  0.4596  0.0230 -0.4157
   20DOPE  H15R 2522   5.284   5.337   5.544 -0.2549  0.2697 -1.0187
   20DOPE  H15S 2523   5.118   5.292   5.589  0.6212  0.3741  0.9887
   20DOPE  C216 2524   5.245   5.127   5.497 -0.2433  0.5770  0.5442
   20DOPE  H16R 2525   5.191   5.035   5.528 -0.3140 -0.2947 -1.9730
   20DOPE  H16S 2526   5.351   5.095   5.495 -0.9602 -2.0721 -1.7725
   20DOPE  C217 2527   5.199   5.173   5.354 -0.1257  0.0058  0.2261
   20DOPE  H17R 2528   5.240   5.271   5.322 -0.4936  0.5662  1.4191
   20DOPE  H17S 2529   5.088   5.182   5.360 -0.1268 -0.7919  1.9611
   20DOPE  C218 2530   5.235   5.071   5.245  0.4408  0.1055 -1.0193
   20DOPE  H18R 2531   5.345   5.070   5.228  0.5942 -0.4027 -0.0403
   20DOPE  H18S 2532   5.189   5.106   5.150 -0.4611  2.5822  0.2452
   20DOPE  H18T 2533   5.204   4.967   5.271 -1.5019  1.3637  2.2082
   20DOPE   C33 2534   5.947   6.019   6.871 -0.4667 -0.6010  1.0661
   20DOPE   H3X 2535   6.029   5.953   6.835  0.4879  0.2605  1.6083
   20DOPE   H3Y 2536   5.988   6.122   6.880  1.5464 -0.9431 -2.4190
   20DOPE   C34 2537   5.846   6.026   6.756  0.2212  0.4006 -0.3235
   20DOPE   H4X 2538   5.784   5.936   6.775  0.5807  0.1943 -0.1115
   20DOPE   H4Y 2539   5.777   6.112   6.771  1.5496  1.5893 -0.7313
   20DOPE   C35 2540   5.911   6.033   6.617  0.0778 -0.1882  0.5371
   20DOPE   H5X 2541   6.001   5.968   6.615 -0.7003 -1.3234  1.1489
   20DOPE   H5Y 2542   5.956   6.134   6.612 -1.1242  0.4744  2.1885
   20DOPE   C36 2543   5.809   5.977   6.518  0.8541 -0.0785 -0.5133
   20DOPE   H6X 2544   5.731   6.055   6.510  2.7190  1.9211 -0.2812
   20DOPE   H6Y 2545   5.756   5.884   6.549 -1.4191  0.7666 -1.7145
   20DOPE   C37 2546   5.874   5.951   6.380 -0.6031 -0.5047 -0.5629
   20DOPE   H7X 2547   5.931   6.040   6.344  0.1646 -0.8853 -0.3057
   20DOPE   H7Y 2548   5.939   5.861   6.381 -0.5483 -0.4661 -0.0859
   20DOPE   C38 2549   5.763   5.912   6.279 -0.1687 -0.1499 -0.5904
   20DOPE   H8X 2550   5.717   5.818   6.317 -1.3726  0.8198  0.4596
   20DOPE   H8Y 2551   5.815   5.866   6.193  0.2842 -0.1748 -0.3032
   20DOPE   C39 2552   5.660   6.006   6.236 -0.4682  1.0196 -0.5682
   20DOPE   H9X 2553   5.581   6.008   6.312  0.5344 -1.0578  0.6042
   20DOPE  C310 2554   5.659   6.091   6.129 -0.4495  0.3341 -0.2313
   20DOPE  H10X 2555   5.568   6.147   6.105 -0.0011  0.4275 -1.8781
   20DOPE  C311 2556   5.774   6.098   6.031  0.0824 -0.0161 -0.4079
   20DOPE  H11X 2557   5.781   6.204   5.999  0.5573  1.1775  3.2011
   20DOPE  H11Y 2558   5.872   6.107   6.082 -1.2721 -0.1405  2.3961
   20DOPE  C312 2559   5.783   5.998   5.916  0.0761 -0.3723 -0.1863
   20DOPE  H12X 2560   5.829   5.908   5.962  2.8385  1.8123  1.6794
   20DOPE  H12Y 2561   5.858   6.048   5.851 -0.2037  0.8265  0.3816
   20DOPE  C313 2562   5.663   5.970   5.831  0.3969  0.7367 -0.2199
   20DOPE  H13X 2563   5.577   5.951   5.898  0.2886  0.2066 -0.5005
   20DOPE  H13Y 2564   5.645   6.057   5.764  0.2634  1.3586  0.6070
   20DOPE  C314 2565   5.693   5.853   5.729 -0.4122 -0.3580 -0.2589
   20DOPE  H14X 2566   5.724   5.767   5.791  2.4659  1.3257  0.8194
   20DOPE  H14Y 2567   5.790   5.879   5.681  0.3445  1.0537  1.9026
   20DOPE  C315 2568   5.578   5.816   5.632 -0.6422  0.1674 -0.2781
   20DOPE  H15X 2569   5.578   5.886   5.545  0.1895  1.1803  0.5032
   20DOPE  H15Y 2570   5.477   5.830   5.676  0.0257  0.2902  1.2781
   20DOPE  C316 2571   5.597   5.661   5.589  0.3001 -1.0625 -0.2857
   20DOPE  H16X 2572   5.602   5.607   5.687  3.5968  2.8043  1.9787
   20DOPE  H16Y 2573   5.692   5.657   5.532  0.0481 -1.6277 -0.6716
   20DOPE  C317 2574   5.478   5.624   5.504  0.9613 -0.3042  0.3409
   20DOPE  H17X 2575   5.385   5.609   5.561  1.0337  2.1277  1.2338
   20DOPE  H17Y 2576   5.468   5.702   5.425  1.4327 -1.7363 -1.1925
   20DOPE  C318 2577   5.495   5.496   5.421 -0.5080 -0.8726  0.5562
   20DOPE  H18X 2578   5.591   5.515   5.367 -0.0681  3.3304  2.4451
   20DOPE  H18Y 2579   5.515   5.408   5.485 -0.4782 -1.4195 -0.1869
   20DOPE  H18Z 2580   5.408   5.489   5.353 -0.3850  0.2661  0.2707
   21DOPE     N 2581   3.955   0.510   6.949  0.8455 -0.2816  0.4915
   21DOPE   HN1 2582   3.871   0.521   7.010  0.1885  0.2254 -0.4585
   21DOPE   HN2 2583   4.042   0.542   6.995  0.4657 -0.8519  1.6348
   21DOPE   HN3 2584   3.947   0.562   6.859  0.2960 -1.5745 -0.2347
   21DOPE   C12 2585   3.967   0.365   6.920 -0.7046 -0.0804  0.1240
   21DOPE  H12A 2586   3.955   0.302   7.010 -1.9569 -0.0716 -0.0181
   21DOPE  H12B 2587   4.070   0.356   6.880 -0.2126 -0.6695  1.4798
   21DOPE   C11 2588   3.866   0.323   6.812  0.2574  0.1193 -0.5005
   21DOPE  H11A 2589   3.897   0.232   6.757  0.4189 -0.7099  0.8981
   21DOPE  H11B 2590   3.859   0.404   6.737  0.3398 -1.6425 -2.5150
   21DOPE     P 2591   3.648   0.178   6.877  0.3975  0.2406  0.3476
   21DOPE   O13 2592   3.507   0.220   6.905  0.1538  0.2369  0.2743
   21DOPE   O14 2593   3.714   0.087   6.968  0.3477 -0.0487 -0.1122
   21DOPE   O11 2594   3.655   0.127   6.734  0.5101  0.8944 -0.5790
   21DOPE   O12 2595   3.730   0.308   6.864 -0.3567 -0.0808  0.3923
   21DOPE    C1 2596   3.595   0.205   6.627 -0.2992  0.1761 -0.0308
   21DOPE    HA 2597   3.651   0.191   6.532 -2.1050  0.4265 -1.1755
   21DOPE    HB 2598   3.589   0.312   6.655  1.7955  0.0228  1.2681
   21DOPE    C2 2599   3.446   0.169   6.610 -0.4430 -0.0560  0.5058
   21DOPE    HS 2600   3.391   0.187   6.705 -0.8279  1.7402 -0.0262
   21DOPE   O21 2601   3.442   0.026   6.584  0.2112 -0.2524 -0.0439
   21DOPE   C21 2602   3.322  -0.038   6.589 -0.3617  1.0325 -0.1372
   21DOPE   O22 2603   3.221   0.009   6.644 -0.7362 -0.1250  0.2891
   21DOPE   C22 2604   3.334  -0.186   6.542  0.0459 -0.7631 -0.9048
   21DOPE   H2R 2605   3.372  -0.235   6.633 -1.0995 -2.6455 -1.3937
   21DOPE   H2S 2606   3.409  -0.192   6.460 -0.3039 -1.0090 -1.2118
   21DOPE    C3 2607   3.377   0.251   6.497 -0.6501 -0.1609  0.4133
   21DOPE    HX 2608   3.358   0.353   6.536 -0.8733  0.1171 -0.4066
   21DOPE    HY 2609   3.275   0.214   6.475 -0.3142  0.9903 -4.1500
   21DOPE   O31 2610   3.459   0.252   6.372  0.1153  0.1098 -0.5665
   21DOPE   C31 2611   3.446   0.151   6.286 -0.0776  0.5052  0.8060
   21DOPE   O32 2612   3.365   0.058   6.296 -0.2707 -0.5289 -0.2490
   21DOPE   C32 2613   3.552   0.153   6.174  0.1690  0.2079 -0.5113
   21DOPE   H2X 2614   3.593   0.255   6.153 -0.2055  0.2084 -1.2953
   21DOPE   H2Y 2615   3.633   0.094   6.220 -1.1078 -0.1177  1.4330
   21DOPE   C23 2616   3.205  -0.268   6.522  0.5573 -0.3950  0.5561
   21DOPE   H3R 2617   3.149  -0.238   6.613  1.5134  2.3370  0.3360
   21DOPE   H3S 2618   3.225  -0.377   6.530  0.1105 -0.4298  1.2474
   21DOPE   C24 2619   3.109  -0.248   6.402 -0.2161 -0.4166 -0.5753
   21DOPE   H4R 2620   3.075  -0.143   6.384 -1.8114 -0.5531  1.3148
   21DOPE   H4S 2621   3.014  -0.298   6.432 -0.6789 -0.0542 -1.4061
   21DOPE   C25 2622   3.153  -0.314   6.268 -0.1005 -0.3567  0.6309
   21DOPE   H5R 2623   3.164  -0.422   6.289 -2.2483 -0.9568 -0.9803
   21DOPE   H5S 2624   3.251  -0.280   6.228 -0.4000 -1.4735 -1.1724
   21DOPE   C26 2625   3.038  -0.298   6.158 -0.2415 -0.5818 -0.3440
   21DOPE   H6R 2626   3.041  -0.194   6.120 -0.7162 -0.3702  0.1858
   21DOPE   H6S 2627   2.941  -0.321   6.208  0.2486 -0.0318  0.9019
   21DOPE   C27 2628   3.051  -0.394   6.034  0.5128  0.1977  0.5412
   21DOPE   H7R 2629   3.062  -0.502   6.062 -1.8605 -0.4437 -0.7595
   21DOPE   H7S 2630   3.150  -0.378   5.986 -0.5941  2.0285 -1.2539
   21DOPE   C28 2631   2.924  -0.390   5.947  0.3016 -0.2916  0.0681
   21DOPE   H8R 2632   2.899  -0.286   5.918  1.0615 -0.0860  0.1402
   21DOPE   H8S 2633   2.850  -0.430   6.020  1.8106 -0.6104  1.4650
   21DOPE   C29 2634   2.939  -0.494   5.842  0.4560 -0.6042  0.0116
   21DOPE   H9R 2635   2.942  -0.598   5.879  0.3012 -1.1012 -1.3240
   21DOPE  C210 2636   2.950  -0.476   5.705  0.0388 -0.4185 -0.5798
   21DOPE  H10R 2637   2.962  -0.565   5.642 -2.4329 -0.2334 -1.4205
   21DOPE  C211 2638   2.953  -0.338   5.629  0.5136  0.0280 -0.1713
   21DOPE  H11R 2639   2.952  -0.251   5.698 -0.6754 -0.2172  0.1476
   21DOPE  H11S 2640   2.861  -0.335   5.566  1.0578  1.9039 -0.9277
   21DOPE  C212 2641   3.074  -0.327   5.534 -0.3208  0.2782  0.1318
   21DOPE  H12R 2642   3.161  -0.350   5.599 -1.2895 -0.8991  1.0630
   21DOPE  H12S 2643   3.088  -0.227   5.486 -1.7204 -0.0327 -0.9913
   21DOPE  C213 2644   3.069  -0.432   5.420  0.3074 -0.6485  0.3998
   21DOPE  H13R 2645   3.017  -0.519   5.464 -1.1913  0.5538  1.1163
   21DOPE  H13S 2646   3.172  -0.465   5.394  0.4171 -0.3907  0.5006
   21DOPE  C214 2647   2.971  -0.395   5.308 -0.6620  0.2937  0.5548
   21DOPE  H14R 2648   2.986  -0.287   5.285  1.7227  0.2257  1.5245
   21DOPE  H14S 2649   2.863  -0.405   5.334 -0.8525 -3.2186 -1.0531
   21DOPE  C215 2650   2.977  -0.502   5.189 -0.2232 -0.4014 -0.0970
   21DOPE  H15R 2651   2.959  -0.597   5.245 -0.7256  1.0799  2.3852
   21DOPE  H15S 2652   3.076  -0.505   5.138  0.2740  2.0823  0.6062
   21DOPE  C216 2653   2.863  -0.480   5.095 -0.3327 -0.3809 -0.7159
   21DOPE  H16R 2654   2.762  -0.475   5.142 -0.1579  1.9465 -0.4642
   21DOPE  H16S 2655   2.863  -0.568   5.028  2.1196 -0.0141 -1.3112
   21DOPE  C217 2656   2.876  -0.350   5.009  0.1943  0.8222 -0.4279
   21DOPE  H17R 2657   2.858  -0.256   5.066 -0.3003  1.7814 -2.1072
   21DOPE  H17S 2658   2.795  -0.348   4.934 -2.7503  0.0935  2.5009
   21DOPE  C218 2659   3.003  -0.328   4.935  0.6334  0.3277  0.0848
   21DOPE  H18R 2660   3.091  -0.366   4.992 -0.3176 -0.7869  0.8625
   21DOPE  H18S 2661   3.020  -0.225   4.897  1.6024  0.1027 -0.1314
   21DOPE  H18T 2662   2.998  -0.389   4.842  0.2985  0.5842 -0.0662
   21DOPE   C33 2663   3.495   0.089   6.046  0.0487  0.2474  0.2544
   21DOPE   H3X 2664   3.408   0.148   6.009 -0.0181  0.1235  0.2134
   21DOPE   H3Y 2665   3.462  -0.016   6.065  0.7853 -0.3252 -1.4320
   21DOPE   C34 2666   3.600   0.071   5.931 -0.2861 -0.5440  0.2199
   21DOPE   H4X 2667   3.692   0.024   5.970 -0.1960 -1.2800 -0.8509
   21DOPE   H4Y 2668   3.556   0.006   5.853 -1.0369 -0.9944  0.9992
   21DOPE   C35 2669   3.629   0.210   5.863 -0.7585  0.5077 -0.2895
   21DOPE   H5X 2670   3.664   0.287   5.936 -0.7610 -1.7021  2.2035
   21DOPE   H5Y 2671   3.536   0.240   5.810 -0.7711  0.4729 -0.2870
   21DOPE   C36 2672   3.733   0.206   5.752  0.5501  0.8199 -0.6033
   21DOPE   H6X 2673   3.694   0.147   5.666  0.0429 -0.5246  0.5221
   21DOPE   H6Y 2674   3.819   0.151   5.795 -0.4121  0.9198  1.5535
   21DOPE   C37 2675   3.783   0.340   5.706  0.6035 -0.4854  0.4513
   21DOPE   H7X 2676   3.699   0.396   5.659  0.6198  0.8345  1.9001
   21DOPE   H7Y 2677   3.813   0.404   5.792  0.5275 -1.1734  0.9969
   21DOPE   C38 2678   3.887   0.334   5.595  0.0648  0.0611  0.0098
   21DOPE   H8X 2679   3.977   0.281   5.632 -0.3670 -1.6386 -1.1937
   21DOPE   H8Y 2680   3.919   0.438   5.575  0.8233 -0.1538  0.0847
   21DOPE   C39 2681   3.842   0.265   5.470  0.3719  0.5117  0.0760
   21DOPE   H9X 2682   3.824   0.157   5.483  1.9109  0.0355 -1.4352
   21DOPE  C310 2683   3.830   0.320   5.352  0.1767  0.7399 -0.7788
   21DOPE  H10X 2684   3.801   0.251   5.272  0.3260 -1.9229  1.3150
   21DOPE  C311 2685   3.862   0.464   5.318  0.4493  0.5800 -0.7726
   21DOPE  H11X 2686   3.789   0.502   5.243 -1.0806  1.1166  0.9164
   21DOPE  H11Y 2687   3.837   0.530   5.404 -0.2257  0.3324 -0.7765
   21DOPE  C312 2688   3.998   0.491   5.258 -0.3419  0.0515  0.2542
   21DOPE  H12X 2689   4.004   0.601   5.244 -0.5215  0.2993  1.9327
   21DOPE  H12Y 2690   3.993   0.462   5.151 -3.0429  0.6822  0.1262
   21DOPE  C313 2691   4.114   0.422   5.328 -0.2998  0.2984  0.1875
   21DOPE  H13X 2692   4.109   0.465   5.430 -2.6150  2.2317 -0.6391
   21DOPE  H13Y 2693   4.096   0.313   5.331  1.4606 -0.2804 -3.8504
   21DOPE  C314 2694   4.249   0.459   5.266 -1.1836  0.2110  0.4716
   21DOPE  H14X 2695   4.327   0.445   5.344 -0.1685  0.1176 -0.5343
   21DOPE  H14Y 2696   4.231   0.568   5.248 -0.4079  0.5539  1.6677
   21DOPE  C315 2697   4.287   0.376   5.143  0.1745 -0.5331  0.2588
   21DOPE  H15X 2698   4.196   0.366   5.080  0.3345 -1.6767  0.1780
   21DOPE  H15Y 2699   4.307   0.276   5.188 -1.2556 -0.9208  0.0848
   21DOPE  C316 2700   4.411   0.431   5.068  0.3966 -0.2798 -0.3476
   21DOPE  H16X 2701   4.459   0.341   5.024  0.7149 -0.1619 -0.2468
   21DOPE  H16Y 2702   4.485   0.479   5.136 -2.1953  1.7194  1.2678
   21DOPE  C317 2703   4.369   0.517   4.953 -0.1849 -0.0308 -0.0882
   21DOPE  H17X 2704   4.289   0.460   4.902 -0.0171 -1.0224  0.7207
   21DOPE  H17Y 2705   4.316   0.608   4.990 -1.8974 -0.6296 -0.9719
   21DOPE  C318 2706   4.480   0.554   4.858 -0.3510  0.5278  0.0466
   21DOPE  H18X 2707   4.494   0.465   4.793  0.0628  1.4394 -1.1357
   21DOPE  H18Y 2708   4.440   0.636   4.794  1.1397  1.2330 -0.0200
   21DOPE  H18Z 2709   4.574   0.581   4.910  0.6753 -2.0120 -0.3755
   22DOPE     N 2710   0.112   4.169   7.858 -0.3848  0.2357 -0.2057
   22DOPE   HN1 2711   0.074   4.132   7.947  0.1546  1.7240  0.6936
   22DOPE   HN2 2712   0.175   4.096   7.818 -0.1123 -0.7610  1.9232
   22DOPE   HN3 2713   0.167   4.258   7.860  0.5575 -0.3381  0.0100
   22DOPE   C12 2714  -0.012   4.185   7.775 -0.0871 -0.3934  0.2692
   22DOPE  H12A 2715  -0.000   4.256   7.691 -1.0701 -0.1549  0.3159
   22DOPE  H12B 2716  -0.095   4.216   7.843 -0.8978 -1.7525 -0.0704
   22DOPE   C11 2717  -0.054   4.051   7.710 -0.4622 -0.7762  0.3225
   22DOPE  H11A 2718   0.010   4.032   7.621 -1.2015  0.1015 -0.4171
   22DOPE  H11B 2719  -0.156   4.066   7.668  0.4328  2.7495 -1.0162
   22DOPE     P 2720  -0.183   3.879   7.863 -0.0135  0.1876  0.1055
   22DOPE   O13 2721  -0.281   3.979   7.913 -0.3407  0.4976  0.3868
   22DOPE   O14 2722  -0.140   3.777   7.956 -0.2505 -0.9900  0.4364
   22DOPE   O11 2723  -0.248   3.804   7.751  0.2071  0.0966 -0.5135
   22DOPE   O12 2724  -0.057   3.946   7.800 -0.1795  0.2864 -0.2665
   22DOPE    C1 2725  -0.172   3.708   7.671 -0.3586 -0.0985  0.0263
   22DOPE    HA 2726  -0.164   3.605   7.711  1.0414 -0.4968 -1.2122
   22DOPE    HB 2727  -0.064   3.732   7.662  0.0378 -2.1875 -1.4384
   22DOPE    C2 2728  -0.212   3.698   7.516  0.5983  0.6529  0.5820
   22DOPE    HS 2729  -0.134   3.634   7.470 -1.6726 -0.6343 -1.7102
   22DOPE   O21 2730  -0.236   3.831   7.455  0.0374  0.1934 -0.2415
   22DOPE   C21 2731  -0.118   3.891   7.423  0.4735 -0.2988 -0.2552
   22DOPE   O22 2732  -0.008   3.844   7.447 -0.0758  0.7103 -0.3137
   22DOPE   C22 2733  -0.147   4.015   7.339  0.7014 -0.3662  0.4919
   22DOPE   H2R 2734  -0.057   4.032   7.277  0.6732  2.3407  1.0510
   22DOPE   H2S 2735  -0.173   4.107   7.396 -1.8247 -0.0576 -0.9843
   22DOPE    C3 2736  -0.343   3.615   7.507  0.3923  0.2263 -0.3821
   22DOPE    HX 2737  -0.406   3.658   7.588  0.6812 -2.1232  1.1970
   22DOPE    HY 2738  -0.312   3.512   7.535  1.5481  0.2721 -1.4253
   22DOPE   O31 2739  -0.392   3.609   7.372  0.2895  0.9905 -0.1215
   22DOPE   C31 2740  -0.498   3.693   7.348  0.0625  0.0488  0.1535
   22DOPE   O32 2741  -0.544   3.759   7.439  0.2347 -0.0556  0.5560
   22DOPE   C32 2742  -0.542   3.680   7.199  0.0121  0.3293 -0.0888
   22DOPE   H2X 2743  -0.445   3.687   7.145  1.4724 -0.6608  2.2358
   22DOPE   H2Y 2744  -0.568   3.574   7.183  2.8254 -0.7367  1.5792
   22DOPE   C23 2745  -0.254   3.983   7.223 -0.0228 -0.1565  0.8627
   22DOPE   H3R 2746  -0.351   3.972   7.275 -0.1600  1.9724  1.1626
   22DOPE   H3S 2747  -0.226   3.890   7.169 -3.1649 -0.7972  0.1390
   22DOPE   C24 2748  -0.272   4.097   7.122 -0.3372 -0.2731  0.4171
   22DOPE   H4R 2749  -0.175   4.123   7.075 -0.4162  0.0965  0.4617
   22DOPE   H4S 2750  -0.295   4.192   7.175  1.3582  0.4954 -0.1799
   22DOPE   C25 2751  -0.362   4.071   7.010  0.1118 -0.3579  0.4624
   22DOPE   H5R 2752  -0.463   4.043   7.045 -0.0133 -0.1653  0.2551
   22DOPE   H5S 2753  -0.326   3.991   6.942 -0.8879 -0.2247 -0.2382
   22DOPE   C26 2754  -0.383   4.191   6.918 -0.7002 -0.2909  0.1161
   22DOPE   H6R 2755  -0.289   4.248   6.909 -0.0565 -1.5023 -1.1566
   22DOPE   H6S 2756  -0.442   4.252   6.990 -1.5431  1.0283 -1.6271
   22DOPE   C27 2757  -0.466   4.173   6.792 -0.0700 -0.4287 -0.2130
   22DOPE   H7R 2758  -0.569   4.137   6.812 -1.0106 -0.0713 -3.7389
   22DOPE   H7S 2759  -0.437   4.087   6.729 -0.4267 -0.8196  0.1555
   22DOPE   C28 2760  -0.476   4.307   6.716 -0.3231  0.1646 -0.3710
   22DOPE   H8R 2761  -0.534   4.290   6.624 -0.5539 -0.5894 -0.0920
   22DOPE   H8S 2762  -0.370   4.324   6.685 -0.5766 -0.7089 -1.7786
   22DOPE   C29 2763  -0.521   4.425   6.794 -0.1735  0.2066 -0.0358
   22DOPE   H9R 2764  -0.450   4.456   6.872 -1.4926  1.0338  0.8827
   22DOPE  C210 2765  -0.623   4.509   6.774 -0.2988  0.0574 -0.5459
   22DOPE  H10R 2766  -0.638   4.588   6.849  1.1396 -0.0021 -0.1560
   22DOPE  C211 2767  -0.726   4.501   6.663  0.6996  0.2771  0.0005
   22DOPE  H11R 2768  -0.813   4.567   6.683 -1.4381 -2.6061  0.8951
   22DOPE  H11S 2769  -0.758   4.395   6.660  3.7257 -0.7442  0.3932
   22DOPE  C212 2770  -0.675   4.551   6.531  0.1005 -0.3208 -0.0784
   22DOPE  H12R 2771  -0.580   4.502   6.503  1.3079  0.9685  1.5323
   22DOPE  H12S 2772  -0.640   4.656   6.537  1.3154 -0.6400 -1.1676
   22DOPE  C213 2773  -0.783   4.532   6.421  0.8692 -0.1281 -0.5603
   22DOPE  H13R 2774  -0.865   4.587   6.471  1.1923 -0.3437  0.2200
   22DOPE  H13S 2775  -0.819   4.427   6.411 -0.4162  0.3408 -0.9851
   22DOPE  C214 2776  -0.751   4.595   6.287  0.1184 -0.0696 -0.5470
   22DOPE  H14R 2777  -0.664   4.544   6.242  0.2137 -1.7569  1.4201
   22DOPE  H14S 2778  -0.712   4.698   6.306  0.3694 -0.0242 -1.2949
   22DOPE  C215 2779  -0.879   4.633   6.210 -0.0049  0.7237 -0.1495
   22DOPE  H15R 2780  -0.955   4.695   6.262 -0.9212 -0.0646 -0.5237
   22DOPE  H15S 2781  -0.939   4.542   6.189  1.1793  0.1958 -1.3760
   22DOPE  C216 2782  -0.852   4.712   6.085  0.2622  0.7867  0.7430
   22DOPE  H16R 2783  -0.807   4.643   6.011 -0.8657 -1.6975  2.2757
   22DOPE  H16S 2784  -0.772   4.787   6.103  1.1876 -0.3091  1.2798
   22DOPE  C217 2785  -0.980   4.788   6.029  0.5648 -0.5283  0.2373
   22DOPE  H17R 2786  -1.019   4.855   6.109  0.7047  0.4823 -0.5258
   22DOPE  H17S 2787  -1.061   4.715   6.010  0.0583 -0.0851  0.6674
   22DOPE  C218 2788  -0.955   4.872   5.904 -0.2935  0.6166 -0.5759
   22DOPE  H18R 2789  -0.875   4.947   5.923  0.3992 -0.0916 -0.6711
   22DOPE  H18S 2790  -1.046   4.923   5.867 -1.4858 -1.5577 -0.7964
   22DOPE  H18T 2791  -0.917   4.801   5.827 -3.0598 -2.1474  0.3978
   22DOPE   C33 2792  -0.636   3.788   7.158  0.0393 -0.0266  0.3560
   22DOPE   H3X 2793  -0.583   3.886   7.148  0.9919 -0.4676  0.9523
   22DOPE   H3Y 2794  -0.721   3.794   7.229 -1.2435 -1.6750 -0.9735
   22DOPE   C34 2795  -0.688   3.744   7.021  0.1950 -0.3253  0.5007
   22DOPE   H4X 2796  -0.662   3.640   6.992 -0.1728 -0.9342  2.1902
   22DOPE   H4Y 2797  -0.797   3.755   7.005  0.0002 -1.9504  0.5484
   22DOPE   C35 2798  -0.626   3.829   6.906 -1.0188  0.4594 -0.2426
   22DOPE   H5X 2799  -0.516   3.817   6.908 -0.7420  2.6219  0.0403
   22DOPE   H5Y 2800  -0.641   3.937   6.925 -0.1591  1.0035 -2.3470
   22DOPE   C36 2801  -0.682   3.787   6.764  0.3810 -0.1096 -0.0869
   22DOPE   H6X 2802  -0.792   3.798   6.759  0.3025  0.2961  1.8378
   22DOPE   H6Y 2803  -0.661   3.679   6.749  1.5645  0.1850 -0.7748
   22DOPE   C37 2804  -0.624   3.882   6.655 -0.3807 -0.1949 -0.5446
   22DOPE   H7X 2805  -0.655   3.984   6.686 -0.8040 -0.6929  0.7713
   22DOPE   H7Y 2806  -0.513   3.878   6.660 -0.3922  0.2576  0.2805
   22DOPE   C38 2807  -0.681   3.861   6.514  0.0627  0.2753 -0.2233
   22DOPE   H8X 2808  -0.786   3.896   6.511  0.3106  0.9877 -0.7013
   22DOPE   H8Y 2809  -0.677   3.751   6.494  1.1218  0.4165 -0.8583
   22DOPE   C39 2810  -0.590   3.942   6.427  0.1369  0.3915  0.2174
   22DOPE   H9X 2811  -0.487   3.903   6.427 -0.1678 -0.4346 -0.9467
   22DOPE  C310 2812  -0.621   4.065   6.376  0.9749 -0.0666 -0.3584
   22DOPE  H10X 2813  -0.539   4.115   6.322  0.8627  0.2942 -0.1932
   22DOPE  C311 2814  -0.752   4.141   6.393  0.3067  0.3121 -0.5627
   22DOPE  H11X 2815  -0.806   4.115   6.486 -0.2421 -0.5618 -1.1089
   22DOPE  H11Y 2816  -0.722   4.247   6.411  0.0468  0.4241 -0.7778
   22DOPE  C312 2817  -0.852   4.151   6.275  0.0359 -0.4662  0.6071
   22DOPE  H12X 2818  -0.936   4.214   6.311 -0.6501 -1.0512  0.0803
   22DOPE  H12Y 2819  -0.879   4.047   6.243 -0.9080 -0.0662  0.0398
   22DOPE  C313 2820  -0.792   4.226   6.153 -0.6202  0.7947  0.3018
   22DOPE  H13X 2821  -0.772   4.329   6.191 -1.7940  0.3597  2.2391
   22DOPE  H13Y 2822  -0.695   4.179   6.125 -0.6608 -0.1357  1.6142
   22DOPE  C314 2823  -0.879   4.239   6.030  0.5615  0.3053 -0.7517
   22DOPE  H14X 2824  -0.982   4.251   6.069  1.4298  0.5216  1.6744
   22DOPE  H14Y 2825  -0.875   4.146   5.970 -2.4807  0.1732 -0.8893
   22DOPE  C315 2826  -0.840   4.350   5.932  0.2621 -0.1236 -1.0246
   22DOPE  H15X 2827  -0.736   4.337   5.895  0.6183  2.1713 -0.9548
   22DOPE  H15Y 2828  -0.830   4.442   5.992 -0.8735 -1.2094  0.9256
   22DOPE  C316 2829  -0.939   4.385   5.827 -0.3819  0.4232  0.4632
   22DOPE  H16X 2830  -0.934   4.491   5.793 -1.7792  0.2023 -0.4881
   22DOPE  H16Y 2831  -1.041   4.386   5.871 -2.3073 -0.9985 -3.5571
   22DOPE  C317 2832  -0.938   4.290   5.708 -1.0387 -0.2941 -0.5219
   22DOPE  H17X 2833  -0.831   4.286   5.678 -0.1494 -2.6332  2.3836
   22DOPE  H17Y 2834  -0.971   4.187   5.733 -0.6276 -0.0882  0.9427
   22DOPE  C318 2835  -1.029   4.342   5.596 -0.7293 -0.0191 -0.5605
   22DOPE  H18X 2836  -1.132   4.345   5.636  0.1124  0.1698  1.7613
   22DOPE  H18Y 2837  -1.007   4.449   5.573 -1.7211  0.5744  1.0770
   22DOPE  H18Z 2838  -1.044   4.277   5.507 -1.4082  0.4212 -0.7765
   23DOPE     N 2839   5.857   6.603   7.293 -0.3539  0.3869  0.1133
   23DOPE   HN1 2840   5.843   6.700   7.257 -0.1186  0.2599 -0.3369
   23DOPE   HN2 2841   5.951   6.599   7.337  0.3043  2.6378 -0.9265
   23DOPE   HN3 2842   5.851   6.549   7.204 -0.7667 -0.3697  0.5948
   23DOPE   C12 2843   5.758   6.563   7.396  0.4222 -0.2044  0.2992
   23DOPE  H12A 2844   5.766   6.631   7.484  0.5244 -2.2090  1.9112
   23DOPE  H12B 2845   5.790   6.467   7.442 -1.1519  0.1658  2.2584
   23DOPE   C11 2846   5.615   6.565   7.331 -0.4423 -0.4514 -0.0620
   23DOPE  H11A 2847   5.546   6.527   7.410 -0.1458 -0.3626  0.2419
   23DOPE  H11B 2848   5.615   6.491   7.248  3.4401 -0.0691 -0.5779
   23DOPE     P 2849   5.541   6.816   7.373 -0.4418  0.2393  0.6060
   23DOPE   O13 2850   5.657   6.856   7.460  0.1206  0.2457  0.1389
   23DOPE   O14 2851   5.406   6.779   7.438 -0.2174 -0.6629 -0.3099
   23DOPE   O11 2852   5.524   6.928   7.266 -0.2858  0.3772 -0.1087
   23DOPE   O12 2853   5.574   6.691   7.282  0.4505 -0.5665  0.1173
   23DOPE    C1 2854   5.400   6.978   7.213 -0.8519 -1.0297 -0.2387
   23DOPE    HA 2855   5.380   7.080   7.252  3.6868 -0.4215  1.0378
   23DOPE    HB 2856   5.315   6.913   7.245 -0.0114 -1.0380  2.1899
   23DOPE    C2 2857   5.394   6.980   7.052  0.6106  0.6179  0.2267
   23DOPE    HS 2858   5.286   6.972   7.029  1.3095  0.6345 -3.5529
   23DOPE   O21 2859   5.476   6.869   7.008  0.0744  0.3241 -0.5041
   23DOPE   C21 2860   5.421   6.753   7.013 -0.0653  0.6183  0.9508
   23DOPE   O22 2861   5.313   6.725   7.066 -0.3485 -0.6852 -0.2401
   23DOPE   C22 2862   5.527   6.648   6.958  0.3334 -0.7827  0.2879
   23DOPE   H2R 2863   5.602   6.630   7.038  0.7676 -1.1357 -0.1975
   23DOPE   H2S 2864   5.573   6.691   6.867  0.6960 -2.4760 -0.3572
   23DOPE    C3 2865   5.457   7.103   6.990 -0.4467  0.4922  0.1729
   23DOPE    HX 2866   5.566   7.100   7.010 -0.4074  0.6537 -0.0090
   23DOPE    HY 2867   5.426   7.198   7.038 -2.2983  0.9016 -1.6756
   23DOPE   O31 2868   5.427   7.113   6.851 -0.8820 -0.1493 -0.0448
   23DOPE   C31 2869   5.520   7.057   6.767  0.8423 -0.6489 -0.3509
   23DOPE   O32 2870   5.616   6.992   6.793 -1.2214 -0.3658  0.3451
   23DOPE   C32 2871   5.486   7.107   6.626  0.3673  0.2442 -0.0417
   23DOPE   H2X 2872   5.581   7.139   6.580 -0.2682  2.3091 -0.0216
   23DOPE   H2Y 2873   5.441   7.019   6.575 -0.8469  0.3871  0.7310
   23DOPE   C23 2874   5.457   6.516   6.926 -0.2310  0.2485  0.2385
   23DOPE   H3R 2875   5.405   6.475   7.015  0.3223 -0.5204  0.2235
   23DOPE   H3S 2876   5.535   6.440   6.902 -0.3336 -0.0930  0.9740
   23DOPE   C24 2877   5.361   6.516   6.800 -0.4200  0.1685  0.0314
   23DOPE   H4R 2878   5.410   6.557   6.709  0.9400  1.4442  1.2865
   23DOPE   H4S 2879   5.266   6.572   6.814  0.2725  1.5017 -0.4649
   23DOPE   C25 2880   5.323   6.376   6.767 -0.3109  0.4230  0.1129
   23DOPE   H5R 2881   5.289   6.331   6.863  1.5165 -2.5233 -0.4884
   23DOPE   H5S 2882   5.411   6.320   6.728 -0.4277  0.7114 -0.5781
   23DOPE   C26 2883   5.201   6.355   6.675 -0.1390 -0.2951 -0.6451
   23DOPE   H6R 2884   5.108   6.398   6.720  1.3288  1.2043  1.1230
   23DOPE   H6S 2885   5.192   6.245   6.660  1.0455 -0.6270  0.7506
   23DOPE   C27 2886   5.226   6.422   6.535  0.2301  0.7547 -0.5872
   23DOPE   H7R 2887   5.317   6.369   6.500  0.1434  0.8610 -0.9796
   23DOPE   H7S 2888   5.246   6.530   6.550 -0.0808  0.9525 -1.4990
   23DOPE   C28 2889   5.115   6.410   6.424  0.0774  0.1009  0.2041
   23DOPE   H8R 2890   5.086   6.303   6.421  3.6504 -0.9588 -1.2468
   23DOPE   H8S 2891   5.172   6.422   6.329  2.5012 -2.4167  1.1926
   23DOPE   C29 2892   5.005   6.511   6.448  1.0631  0.3413  0.0700
   23DOPE   H9R 2893   4.988   6.531   6.555  1.4335  0.8197  0.0464
   23DOPE  C210 2894   4.935   6.586   6.355 -0.4950  0.7277  0.3660
   23DOPE  H10R 2895   4.840   6.631   6.387 -0.7445  0.2538  0.3032
   23DOPE  C211 2896   4.955   6.579   6.204  0.2819 -0.1751  0.0604
   23DOPE  H11R 2897   5.060   6.560   6.175  0.3637 -0.6377  0.6460
   23DOPE  H11S 2898   4.917   6.678   6.169 -2.0433 -1.0576 -0.1388
   23DOPE  C212 2899   4.865   6.468   6.145  0.3500  0.1887  0.1472
   23DOPE  H12R 2900   4.759   6.483   6.175  0.4754 -0.8168  1.1668
   23DOPE  H12S 2901   4.902   6.372   6.185  1.5202  0.5730  0.0393
   23DOPE  C213 2902   4.867   6.455   5.992 -0.3833 -0.5870  0.3617
   23DOPE  H13R 2903   4.862   6.559   5.953 -3.1146 -0.6077  0.4933
   23DOPE  H13S 2904   4.777   6.396   5.965 -0.9746  1.3110 -2.2058
   23DOPE  C214 2905   4.998   6.393   5.934  0.0940 -0.1752 -0.3624
   23DOPE  H14R 2906   5.053   6.327   6.005 -0.6776 -3.2693 -2.4505
   23DOPE  H14S 2907   5.075   6.470   5.911 -1.5422  2.0930  1.2937
   23DOPE  C215 2908   4.979   6.310   5.803  0.0499 -0.0567 -0.2065
   23DOPE  H15R 2909   4.960   6.372   5.713 -1.0326  1.6161  1.1275
   23DOPE  H15S 2910   4.892   6.244   5.819  0.2200 -0.4092 -0.7135
   23DOPE  C216 2911   5.108   6.221   5.779  0.1139  0.4272  0.9549
   23DOPE  H16R 2912   5.113   6.138   5.852  0.4485 -0.4730 -0.0590
   23DOPE  H16S 2913   5.196   6.288   5.792 -0.2596  1.0702  0.3093
   23DOPE  C217 2914   5.114   6.167   5.635 -0.0207  0.2101 -0.0000
   23DOPE  H17R 2915   5.083   6.235   5.553 -0.0644  0.7835  0.4837
   23DOPE  H17S 2916   5.046   6.079   5.637 -2.0868  1.7269  1.9626
   23DOPE  C218 2917   5.261   6.118   5.592  0.8743 -0.0458  0.3340
   23DOPE  H18R 2918   5.323   6.210   5.586 -1.0605  1.3118  0.1163
   23DOPE  H18S 2919   5.253   6.079   5.488 -0.7489  1.7735 -0.2876
   23DOPE  H18T 2920   5.308   6.049   5.665 -0.6754 -1.8249 -0.2544
   23DOPE   C33 2921   5.376   7.210   6.622  0.3110 -0.4022 -0.0741
   23DOPE   H3X 2922   5.405   7.295   6.687  1.1913 -1.7088  1.3018
   23DOPE   H3Y 2923   5.282   7.179   6.672 -0.0421  0.3529 -0.2508
   23DOPE   C34 2924   5.345   7.259   6.478 -0.0437  0.7290 -0.0861
   23DOPE   H4X 2925   5.441   7.278   6.425  1.1416  2.1014  2.3860
   23DOPE   H4Y 2926   5.298   7.174   6.423  0.6673 -0.1345  0.5978
   23DOPE   C35 2927   5.248   7.381   6.480  0.4823 -0.2358  0.3766
   23DOPE   H5X 2928   5.307   7.461   6.530  2.6087 -0.6626 -1.2833
   23DOPE   H5Y 2929   5.160   7.361   6.545 -0.1718 -0.6224 -0.6018
   23DOPE   C36 2930   5.201   7.435   6.346  0.0083  0.0624 -0.2053
   23DOPE   H6X 2931   5.116   7.504   6.360  0.2293  0.3903 -0.4671
   23DOPE   H6Y 2932   5.143   7.356   6.296 -0.5379 -0.4373  1.1563
   23DOPE   C37 2933   5.310   7.502   6.266  0.0913  0.3516 -0.2785
   23DOPE   H7X 2934   5.396   7.447   6.310  1.7991  3.5751  0.7107
   23DOPE   H7Y 2935   5.296   7.484   6.157 -1.6358 -1.0946  0.1385
   23DOPE   C38 2936   5.308   7.653   6.290 -0.6231  0.3936 -0.0354
   23DOPE   H8X 2937   5.294   7.658   6.400  0.3985  1.0698  0.0788
   23DOPE   H8Y 2938   5.216   7.700   6.249  0.1167  0.3742 -1.7827
   23DOPE   C39 2939   5.434   7.714   6.237 -0.6994 -0.7144  0.2928
   23DOPE   H9X 2940   5.514   7.708   6.312 -0.2616  2.7670  0.2652
   23DOPE  C310 2941   5.457   7.778   6.128 -0.5108 -0.2788  0.3754
   23DOPE  H10X 2942   5.551   7.830   6.103 -0.1440 -0.8072  0.6463
   23DOPE  C311 2943   5.358   7.815   6.014 -0.4855 -0.4622 -0.0013
   23DOPE  H11X 2944   5.382   7.768   5.917 -1.1215  0.3437 -0.5586
   23DOPE  H11Y 2945   5.256   7.776   6.035 -0.0959 -1.2558  0.4818
   23DOPE  C312 2946   5.354   7.968   5.993  0.5578  0.5725  0.1242
   23DOPE  H12X 2947   5.458   8.008   5.986  1.3128 -1.4623 -1.0726
   23DOPE  H12Y 2948   5.304   8.025   6.075 -2.9931 -1.3425 -0.5333
   23DOPE  C313 2949   5.280   8.017   5.866 -0.4032  0.3644  0.2969
   23DOPE  H13X 2950   5.172   8.010   5.892 -0.0527 -1.4761  1.4149
   23DOPE  H13Y 2951   5.315   8.121   5.852 -0.6144  0.2159 -1.6294
   23DOPE  C314 2952   5.303   7.935   5.742 -0.3056  0.2564  0.3035
   23DOPE  H14X 2953   5.257   7.834   5.748 -1.0306  0.5569 -0.0450
   23DOPE  H14Y 2954   5.413   7.931   5.726 -0.2853  1.9544 -0.1378
   23DOPE  C315 2955   5.247   7.988   5.610  0.3274 -1.6861  0.4361
   23DOPE  H15X 2956   5.290   8.087   5.584  0.9843 -2.5480 -2.0827
   23DOPE  H15Y 2957   5.138   8.005   5.625  0.5225  1.0884 -0.7136
   23DOPE  C316 2958   5.260   7.900   5.496  0.1873  0.2328 -0.5288
   23DOPE  H16X 2959   5.205   7.805   5.514 -0.3822  0.8407  1.0960
   23DOPE  H16Y 2960   5.367   7.870   5.494 -0.0063 -0.6238  0.6577
   23DOPE  C317 2961   5.210   7.962   5.366  0.3917  0.2463  0.6138
   23DOPE  H17X 2962   5.100   7.955   5.360  0.4882 -0.3857 -0.4885
   23DOPE  H17Y 2963   5.235   8.070   5.356  0.2024  0.2767  0.4648
   23DOPE  C318 2964   5.265   7.887   5.241 -0.0524 -0.5567  0.0611
   23DOPE  H18X 2965   5.371   7.914   5.227 -0.5804  1.1214 -0.9997
   23DOPE  H18Y 2966   5.268   7.776   5.248  1.1506 -0.5453 -0.0749
   23DOPE  H18Z 2967   5.209   7.917   5.149  1.0567  0.9327 -0.1696
   24DOPE     N 2968   6.701   4.955   7.825  0.3950 -0.2512 -0.2358
   24DOPE   HN1 2969   6.716   4.870   7.884  0.4103  0.6069  1.0203
   24DOPE   HN2 2970   6.790   5.008   7.829  0.3288 -0.1483 -0.1553
   24DOPE   HN3 2971   6.625   5.007   7.873  0.4845  0.2373 -0.6211
   24DOPE   C12 2972   6.667   4.932   7.682  0.0447  0.2894 -0.3894
   24DOPE  H12A 2973   6.578   4.866   7.668  0.5575 -0.3395 -0.7349
   24DOPE  H12B 2974   6.751   4.883   7.629  0.4845  1.0073 -0.3678
   24DOPE   C11 2975   6.631   5.066   7.619 -0.1569 -0.1651 -0.2751
   24DOPE  H11A 2976   6.608   5.060   7.510 -2.8932 -0.0143  0.2353
   24DOPE  H11B 2977   6.725   5.125   7.628 -0.9152  1.0732 -0.2866
   24DOPE     P 2978   6.526   5.285   7.712  0.2210 -0.0306 -0.6729
   24DOPE   O13 2979   6.665   5.321   7.755 -0.0328  0.5494  0.4950
   24DOPE   O14 2980   6.426   5.330   7.809  0.3251 -0.5475  0.2600
   24DOPE   O11 2981   6.496   5.346   7.566 -0.5269  0.3357  0.4618
   24DOPE   O12 2982   6.529   5.124   7.695  0.5722 -0.1923 -0.1148
   24DOPE    C1 2983   6.372   5.323   7.512  0.5003  0.2159 -0.1583
   24DOPE    HA 2984   6.283   5.356   7.569 -1.9750 -1.2814 -2.8786
   24DOPE    HB 2985   6.356   5.214   7.501 -2.3139  0.6111 -0.6927
   24DOPE    C2 2986   6.359   5.382   7.371 -0.4496 -0.0526  0.1070
   24DOPE    HS 2987   6.255   5.367   7.334  0.2903 -0.0866 -2.1283
   24DOPE   O21 2988   6.456   5.330   7.272 -0.2733 -0.0629  0.4975
   24DOPE   C21 2989   6.462   5.202   7.263 -0.2543  0.1225  0.1229
   24DOPE   O22 2990   6.377   5.123   7.300 -0.1429  0.8747  0.1124
   24DOPE   C22 2991   6.600   5.172   7.212 -0.5567 -0.5741  0.1579
   24DOPE   H2R 2992   6.670   5.152   7.297 -0.6118  1.1871  0.6547
   24DOPE   H2S 2993   6.645   5.259   7.160 -0.8278  0.4354  1.5550
   24DOPE    C3 2994   6.382   5.536   7.387  0.1888 -0.2020 -0.6916
   24DOPE    HX 2995   6.448   5.553   7.474 -0.0689 -1.5992 -0.2088
   24DOPE    HY 2996   6.290   5.588   7.422 -0.1636 -0.5498 -1.0876
   24DOPE   O31 2997   6.424   5.597   7.263  0.6656 -0.7240  0.8363
   24DOPE   C31 2998   6.547   5.639   7.250 -0.1437  0.2419  0.0110
   24DOPE   O32 2999   6.637   5.610   7.330 -0.0979  0.3900 -0.0060
   24DOPE   C32 3000   6.557   5.726   7.122  0.7375  1.1501  0.4725
   24DOPE   H2X 3001   6.564   5.657   7.034 -2.1567 -0.2402  1.2024
   24DOPE   H2Y 3002   6.471   5.793   7.104  0.5712  0.4051 -1.8581
   24DOPE   C23 3003   6.602   5.049   7.118 -0.0105  0.0596 -0.6094
   24DOPE   H3R 3004   6.596   4.963   7.188 -0.6278  0.2837 -0.3843
   24DOPE   H3S 3005   6.705   5.051   7.075  0.4119 -1.3077  0.2754
   24DOPE   C24 3006   6.496   5.042   7.007  0.1837  0.5470 -0.2513
   24DOPE   H4R 3007   6.502   5.134   6.946 -0.5262  0.2641 -0.7708
   24DOPE   H4S 3008   6.396   5.037   7.055  0.1410 -2.9325 -0.3860
   24DOPE   C25 3009   6.522   4.927   6.916  0.6891 -0.3048 -0.7903
   24DOPE   H5R 3010   6.543   4.840   6.981 -0.9331  0.1804  0.4513
   24DOPE   H5S 3011   6.611   4.948   6.853  2.5541 -3.2867  0.6441
   24DOPE   C26 3012   6.414   4.893   6.823 -0.3447 -0.2510 -0.5428
   24DOPE   H6R 3013   6.398   4.976   6.752  1.7006 -0.0880 -0.8852
   24DOPE   H6S 3014   6.317   4.876   6.874  0.6837 -0.8367  1.3477
   24DOPE   C27 3015   6.448   4.760   6.744  0.1747 -0.5789 -0.2130
   24DOPE   H7R 3016   6.489   4.689   6.819 -1.2287 -3.0131 -1.6191
   24DOPE   H7S 3017   6.524   4.788   6.668  0.5351  5.5077  1.8558
   24DOPE   C28 3018   6.321   4.698   6.678  0.4212 -0.1018 -0.3329
   24DOPE   H8R 3019   6.298   4.759   6.588  1.9455 -0.9083 -1.2985
   24DOPE   H8S 3020   6.231   4.696   6.743 -0.7606 -0.4347 -1.9111
   24DOPE   C29 3021   6.359   4.563   6.621  0.3936 -0.5943  0.5376
   24DOPE   H9R 3022   6.419   4.502   6.689  0.8377  0.3877  1.0426
   24DOPE  C210 3023   6.328   4.516   6.499 -0.3754  0.2649 -0.7187
   24DOPE  H10R 3024   6.362   4.418   6.461  0.0835  0.1080  0.0657
   24DOPE  C211 3025   6.240   4.589   6.398  0.2891 -0.2468 -0.5980
   24DOPE  H11R 3026   6.314   4.652   6.345  1.7062 -0.3405  1.1476
   24DOPE  H11S 3027   6.163   4.653   6.445  0.5253 -1.6059  1.8513
   24DOPE  C212 3028   6.178   4.494   6.290 -0.1670  0.3053  0.0644
   24DOPE  H12R 3029   6.113   4.559   6.228 -1.4376 -0.9008  0.1066
   24DOPE  H12S 3030   6.116   4.417   6.341  0.1504  1.4510  2.3328
   24DOPE  C213 3031   6.281   4.420   6.203  0.3670  0.8302  1.0807
   24DOPE  H13R 3032   6.368   4.386   6.262 -0.0916 -1.3597  0.5617
   24DOPE  H13S 3033   6.329   4.491   6.132 -0.4728  1.3744  1.0322
   24DOPE  C214 3034   6.222   4.290   6.131  0.3276 -0.2334 -0.0034
   24DOPE  H14R 3035   6.195   4.216   6.210  1.4152 -1.5514 -0.8136
   24DOPE  H14S 3036   6.292   4.233   6.067 -1.9452 -0.3306 -2.5714
   24DOPE  C215 3037   6.108   4.318   6.041 -0.0769  1.0882 -0.6358
   24DOPE  H15R 3038   6.133   4.415   5.993 -0.5822  2.0569  0.9537
   24DOPE  H15S 3039   6.020   4.343   6.105  0.3993 -0.1114  0.5182
   24DOPE  C216 3040   6.082   4.207   5.937 -1.3595  0.4093 -0.2733
   24DOPE  H16R 3041   5.974   4.212   5.915 -1.5510 -0.3128  0.4676
   24DOPE  H16S 3042   6.115   4.108   5.975  0.2528  0.8559 -0.3944
   24DOPE  C217 3043   6.164   4.227   5.804  0.2845  0.1234 -0.6725
   24DOPE  H17R 3044   6.269   4.232   5.841 -0.5213  1.9962  1.6664
   24DOPE  H17S 3045   6.148   4.328   5.761 -1.2991 -0.6791 -2.0669
   24DOPE  C218 3046   6.149   4.127   5.698  0.1226  0.1721  1.1512
   24DOPE  H18R 3047   6.039   4.117   5.680 -0.0290  1.0858  1.5176
   24DOPE  H18S 3048   6.184   4.026   5.727  1.4529 -0.0105 -0.9108
   24DOPE  H18T 3049   6.205   4.151   5.605 -0.5480 -2.3903 -0.0112
   24DOPE   C33 3050   6.687   5.812   7.115  0.4879  0.1564  0.3132
   24DOPE   H3X 3051   6.769   5.739   7.131  1.1992  0.4038 -1.9409
   24DOPE   H3Y 3052   6.692   5.897   7.187  1.1562  0.1229  0.3128
   24DOPE   C34 3053   6.707   5.868   6.970 -0.3877  0.0924 -0.4942
   24DOPE   H4X 3054   6.707   5.781   6.902  0.0914 -1.2273  1.1128
   24DOPE   H4Y 3055   6.623   5.938   6.948  0.9559  1.0098 -3.0482
   24DOPE   C35 3056   6.831   5.958   6.967  0.1989 -0.1953  0.5150
   24DOPE   H5X 3057   6.924   5.904   6.997 -0.6980 -2.3831 -0.4026
   24DOPE   H5Y 3058   6.822   6.031   7.050  1.0461 -0.0243  0.4611
   24DOPE   C36 3059   6.850   6.038   6.839  0.5023  0.0945 -0.4006
   24DOPE   H6X 3060   6.785   6.128   6.847 -0.4096 -0.4917 -1.0668
   24DOPE   H6Y 3061   6.821   5.965   6.760  0.6238 -0.9172  0.4631
   24DOPE   C37 3062   6.996   6.080   6.808 -0.1569  0.6302 -0.3056
   24DOPE   H7X 3063   7.043   6.137   6.891  0.4731  4.0336 -2.8099
   24DOPE   H7Y 3064   7.065   5.993   6.801 -1.3645 -0.3004 -1.1748
   24DOPE   C38 3065   7.005   6.150   6.673  0.1827 -0.2576  0.0222
   24DOPE   H8X 3066   6.978   6.083   6.589 -0.1060 -1.8704  1.3466
   24DOPE   H8Y 3067   7.116   6.159   6.663  0.3314 -1.8337 -0.0787
   24DOPE   C39 3068   6.951   6.288   6.661 -0.0351 -0.0574  0.0461
   24DOPE   H9X 3069   6.964   6.354   6.748  0.8680 -0.7559  0.4477
   24DOPE  C310 3070   6.868   6.333   6.561 -0.3422 -0.3831  0.6976
   24DOPE  H10X 3071   6.810   6.423   6.584  2.4428  1.7508 -0.0197
   24DOPE  C311 3072   6.815   6.257   6.438  0.1535 -0.0579 -0.5616
   24DOPE  H11X 3073   6.829   6.147   6.442 -2.6649 -0.4556  1.4819
   24DOPE  H11Y 3074   6.705   6.273   6.432  0.1478 -0.1469 -0.7028
   24DOPE  C312 3075   6.884   6.295   6.304  0.1356  0.6878  0.4801
   24DOPE  H12X 3076   6.993   6.276   6.310  0.3449  1.7188  0.2101
   24DOPE  H12Y 3077   6.897   6.404   6.284  1.5288  0.3359 -0.7588
   24DOPE  C313 3078   6.822   6.219   6.185 -0.2801 -0.0546  0.1898
   24DOPE  H13X 3079   6.774   6.123   6.214 -1.4008  0.2212 -0.6633
   24DOPE  H13Y 3080   6.743   6.280   6.136 -0.0336  1.4936  1.6482
   24DOPE  C314 3081   6.941   6.182   6.088 -0.2683  0.5062 -0.3542
   24DOPE  H14X 3082   7.009   6.110   6.137  0.7298  2.0353  0.5933
   24DOPE  H14Y 3083   6.981   6.281   6.059 -1.6926  0.8992 -1.0905
   24DOPE  C315 3084   6.897   6.112   5.959  0.1817 -0.0574  0.0580
   24DOPE  H15X 3085   6.808   6.165   5.917 -1.5568 -0.6970  2.6921
   24DOPE  H15Y 3086   6.863   6.008   5.976 -0.6780  0.6194  3.0748
   24DOPE  C316 3087   7.004   6.122   5.848 -0.0329 -0.1621  0.0015
   24DOPE  H16X 3088   7.094   6.075   5.892 -1.2865 -2.8531 -0.0768
   24DOPE  H16Y 3089   7.025   6.230   5.830  0.5882 -0.2362  0.2520
   24DOPE  C317 3090   6.973   6.050   5.723 -0.8007  0.7167 -0.2624
   24DOPE  H17X 3091   6.925   5.951   5.741  0.2889  0.2320  0.0404
   24DOPE  H17Y 3092   6.915   6.113   5.652 -0.9965 -0.3966 -1.1206
   24DOPE  C318 3093   7.107   5.997   5.670 -0.1739 -1.3277  0.5558
   24DOPE  H18X 3094   7.129   5.907   5.731  0.0794 -2.4216 -1.0801
   24DOPE  H18Y 3095   7.096   5.955   5.568  3.3839 -1.5957  0.1454
   24DOPE  H18Z 3096   7.189   6.070   5.684 -1.5677  0.3467  0.3484
   25DOPE     N 3097   0.468   5.696   7.658  0.1078 -0.1875  0.5930
   25DOPE   HN1 3098   0.553   5.733   7.609  0.0181  0.9243  1.2452
   25DOPE   HN2 3099   0.482   5.599   7.692  0.5950 -0.6180 -0.7634
   25DOPE   HN3 3100   0.403   5.684   7.578  4.1661  0.6068 -3.1853
   25DOPE   C12 3101   0.397   5.798   7.744 -0.2714  0.0924  0.1997
   25DOPE  H12A 3102   0.401   5.894   7.689 -3.9028 -0.0616 -0.6354
   25DOPE  H12B 3103   0.457   5.813   7.836  2.6252  4.5276 -2.0658
   25DOPE   C11 3104   0.252   5.755   7.767 -0.1255  0.8075 -0.5529
   25DOPE  H11A 3105   0.202   5.733   7.670 -1.2519  2.7852 -0.4633
   25DOPE  H11B 3106   0.199   5.842   7.811 -0.0008 -0.2590  1.8863
   25DOPE     P 3107   0.086   5.592   7.874  0.6235 -0.1104  0.1141
   25DOPE   O13 3108   0.015   5.711   7.939  0.1662  0.2912 -0.2400
   25DOPE   O14 3109   0.076   5.467   7.945  0.6755  0.1015  0.2943
   25DOPE   O11 3110   0.036   5.582   7.723  0.9426 -0.2178 -0.2565
   25DOPE   O12 3111   0.235   5.635   7.846 -0.4773  0.3474 -0.5375
   25DOPE    C1 3112   0.085   5.468   7.653 -0.7042  1.9349 -0.0414
   25DOPE    HA 3113   0.047   5.372   7.693  1.7369  0.6288 -0.6937
   25DOPE    HB 3114   0.196   5.467   7.649 -0.4874 -1.3198  2.6205
   25DOPE    C2 3115   0.043   5.469   7.507 -0.0398 -0.1838 -0.0798
   25DOPE    HS 3116   0.077   5.571   7.477  1.9576 -0.5189  0.8644
   25DOPE   O21 3117  -0.102   5.456   7.499  0.2501 -0.3663 -0.0359
   25DOPE   C21 3118  -0.150   5.516   7.394 -0.1130  0.0499  0.2402
   25DOPE   O22 3119  -0.084   5.567   7.308  0.0494 -0.5191 -0.1769
   25DOPE   C22 3120  -0.298   5.487   7.373 -0.1086  0.1011 -0.2098
   25DOPE   H2R 3121  -0.360   5.555   7.435 -1.8890 -2.8748  1.5097
   25DOPE   H2S 3122  -0.306   5.382   7.409  1.7818 -0.8652 -2.3615
   25DOPE    C3 3123   0.115   5.364   7.420  0.2280 -0.2431  0.5869
   25DOPE    HX 3124   0.108   5.263   7.467  0.8516  0.0097  1.2438
   25DOPE    HY 3125   0.222   5.393   7.427 -0.5281  3.2196 -0.5766
   25DOPE   O31 3126   0.081   5.352   7.280  0.2936 -0.0963 -0.3209
   25DOPE   C31 3127   0.138   5.430   7.187  0.4479  0.7495  0.0138
   25DOPE   O32 3128   0.221   5.516   7.212  0.2939 -0.5166 -0.8688
   25DOPE   C32 3129   0.096   5.392   7.043  0.1815  0.0435 -0.5145
   25DOPE   H2X 3130   0.127   5.286   7.027 -1.3131 -0.2927 -1.4406
   25DOPE   H2Y 3131  -0.013   5.414   7.041  0.2519  0.3476 -1.1894
   25DOPE   C23 3132  -0.335   5.493   7.215 -0.5982  0.0773 -0.0640
   25DOPE   H3R 3133  -0.268   5.426   7.157 -1.2939  0.3179 -1.1826
   25DOPE   H3S 3134  -0.310   5.598   7.188  2.0167 -1.0484 -2.6413
   25DOPE   C24 3135  -0.486   5.474   7.181 -0.5047  0.1348 -0.0119
   25DOPE   H4R 3136  -0.543   5.522   7.263 -0.3405  0.1770  0.0780
   25DOPE   H4S 3137  -0.503   5.365   7.194 -0.9437  0.3998  2.0267
   25DOPE   C25 3138  -0.519   5.505   7.035  0.9263 -0.4210  0.0128
   25DOPE   H5R 3139  -0.432   5.481   6.970  0.5096  0.2616 -0.8149
   25DOPE   H5S 3140  -0.553   5.610   7.028 -1.3099 -0.9578  1.4320
   25DOPE   C26 3141  -0.647   5.423   6.989 -0.7556 -0.3408 -0.6108
   25DOPE   H6R 3142  -0.738   5.454   7.045  1.5769  1.4859  2.5434
   25DOPE   H6S 3143  -0.632   5.318   7.024 -1.6533 -0.3084 -0.0967
   25DOPE   C27 3144  -0.667   5.448   6.841 -0.0631  0.0341  0.5949
   25DOPE   H7R 3145  -0.578   5.407   6.789  0.7545  2.3528  0.0519
   25DOPE   H7S 3146  -0.678   5.557   6.819 -0.2518 -0.3024 -1.1475
   25DOPE   C28 3147  -0.804   5.387   6.794 -0.3765 -0.3192  0.3856
   25DOPE   H8R 3148  -0.890   5.418   6.857 -0.5579  0.1143 -0.0659
   25DOPE   H8S 3149  -0.794   5.277   6.810  1.2931 -0.1828  0.4656
   25DOPE   C29 3150  -0.828   5.423   6.650  0.3442 -0.0896 -0.2968
   25DOPE   H9R 3151  -0.780   5.357   6.576  1.1133 -2.2603  1.9845
   25DOPE  C210 3152  -0.903   5.524   6.608  1.0569  0.1488  0.5696
   25DOPE  H10R 3153  -0.914   5.551   6.502  0.5577  0.6868  0.7505
   25DOPE  C211 3154  -0.971   5.615   6.700  0.2102 -0.4218 -0.1701
   25DOPE  H11R 3155  -0.924   5.608   6.801  1.4545 -1.5434 -0.8019
   25DOPE  H11S 3156  -1.076   5.587   6.722 -0.0631 -0.9589 -2.0559
   25DOPE  C212 3157  -0.973   5.762   6.652  0.4909 -0.0043 -0.0228
   25DOPE  H12R 3158  -0.865   5.788   6.651  0.5262  0.9235  4.6444
   25DOPE  H12S 3159  -1.020   5.811   6.740  0.8602 -1.0466  0.7670
   25DOPE  C213 3160  -1.059   5.795   6.529  0.3622  0.1914  0.4019
   25DOPE  H13R 3161  -1.164   5.759   6.532  0.6375 -0.5539  1.7484
   25DOPE  H13S 3162  -1.011   5.752   6.438  1.0951  2.8075 -0.5615
   25DOPE  C214 3163  -1.059   5.950   6.519 -0.7920 -0.3004 -0.2503
   25DOPE  H14R 3164  -0.958   5.990   6.541 -0.8915 -0.0446 -0.2551
   25DOPE  H14S 3165  -1.127   5.989   6.598 -1.7713 -2.7375  0.2054
   25DOPE  C215 3166  -1.111   5.998   6.378  0.1147  0.1074 -0.3245
   25DOPE  H15R 3167  -1.211   5.952   6.357 -0.1982 -1.0811  3.0960
   25DOPE  H15S 3168  -1.041   5.961   6.301  1.0102  0.9265  0.0858
   25DOPE  C216 3169  -1.108   6.148   6.361  0.5279  0.0291  0.1158
   25DOPE  H16R 3170  -1.002   6.181   6.351 -0.0560  1.2710 -2.7565
   25DOPE  H16S 3171  -1.162   6.188   6.449 -2.5255  1.3420 -2.2118
   25DOPE  C217 3172  -1.183   6.188   6.229 -0.0122  0.2701 -0.1525
   25DOPE  H17R 3173  -1.209   6.295   6.241 -0.1539  0.4431 -1.7121
   25DOPE  H17S 3174  -1.286   6.147   6.233 -0.9433  2.4550 -0.4430
   25DOPE  C218 3175  -1.121   6.176   6.084  0.3119 -0.4064 -0.3157
   25DOPE  H18R 3176  -1.103   6.068   6.061  0.5465  0.0512 -2.5273
   25DOPE  H18S 3177  -1.020   6.220   6.074  1.7849 -3.5887 -0.8084
   25DOPE  H18T 3178  -1.191   6.214   6.007 -0.2116  0.4080  0.5468
   25DOPE   C33 3179   0.173   5.475   6.937  0.5305 -0.3950 -0.1718
   25DOPE   H3X 3180   0.267   5.420   6.914  1.0914  0.6223 -0.3800
   25DOPE   H3Y 3181   0.201   5.578   6.965 -2.0380 -0.0425  1.4429
   25DOPE   C34 3182   0.085   5.491   6.812 -0.4867 -0.1365 -0.0370
   25DOPE   H4X 3183   0.009   5.410   6.800 -1.1669  0.6109 -0.9597
   25DOPE   H4Y 3184   0.020   5.580   6.827 -2.5059 -1.4118 -0.8029
   25DOPE   C35 3185   0.157   5.504   6.675  0.7968  0.2786  0.7925
   25DOPE   H5X 3186   0.210   5.407   6.665  1.4112  0.5115  1.6424
   25DOPE   H5Y 3187   0.234   5.584   6.688 -0.4722  1.6436  0.2135
   25DOPE   C36 3188   0.065   5.544   6.558  0.0613  0.1291  0.1631
   25DOPE   H6X 3189   0.058   5.655   6.558 -1.6992  0.0489  0.2965
   25DOPE   H6Y 3190  -0.038   5.502   6.569 -0.3076  0.8026 -0.5975
   25DOPE   C37 3191   0.112   5.482   6.424 -0.2387  0.2204 -0.1340
   25DOPE   H7X 3192   0.127   5.373   6.435  0.1539  0.1141 -1.5282
   25DOPE   H7Y 3193   0.030   5.499   6.351 -0.7599 -0.3681  0.2992
   25DOPE   C38 3194   0.238   5.545   6.370 -0.2566 -0.4247  0.1242
   25DOPE   H8X 3195   0.324   5.546   6.440 -0.2265  0.6497  0.0967
   25DOPE   H8Y 3196   0.201   5.647   6.346  0.4806  0.0206  0.8362
   25DOPE   C39 3197   0.276   5.481   6.240 -0.3009  0.8962 -0.6033
   25DOPE   H9X 3198   0.309   5.376   6.252  0.8998  1.4270  1.1686
   25DOPE  C310 3199   0.289   5.543   6.117  0.6414 -0.1340  0.0026
   25DOPE  H10X 3200   0.347   5.481   6.048  1.1568 -1.6875  1.7295
   25DOPE  C311 3201   0.257   5.683   6.083  0.4894  0.4641  0.6340
   25DOPE  H11X 3202   0.201   5.732   6.166  1.1187 -0.2047  1.4654
   25DOPE  H11Y 3203   0.352   5.741   6.080  0.1879  0.9565 -2.2814
   25DOPE  C312 3204   0.182   5.685   5.951  0.2929  0.1613 -0.6905
   25DOPE  H12X 3205   0.081   5.647   5.976  1.5183 -1.2009  2.9099
   25DOPE  H12Y 3206   0.232   5.619   5.876  0.6265 -1.5143  0.9504
   25DOPE  C313 3207   0.182   5.823   5.881  0.3441  0.0935  0.4285
   25DOPE  H13X 3208   0.138   5.888   5.960  2.1490  0.0091  1.5494
   25DOPE  H13Y 3209   0.285   5.863   5.869 -0.5644  2.9540  1.2242
   25DOPE  C314 3210   0.100   5.834   5.757 -0.5835  0.8674 -0.2137
   25DOPE  H14X 3211   0.000   5.787   5.768 -0.6093  0.6438 -1.2622
   25DOPE  H14Y 3212   0.146   5.765   5.683  1.3079 -1.0529  2.5689
   25DOPE  C315 3213   0.083   5.970   5.694 -0.0321  0.2999  0.1394
   25DOPE  H15X 3214   0.182   6.018   5.714  0.5348 -0.7700 -0.0441
   25DOPE  H15Y 3215   0.015   6.026   5.760 -0.5147 -0.2227  0.0854
   25DOPE  C316 3216   0.040   5.977   5.549 -0.1417  0.2864 -0.4754
   25DOPE  H16X 3217  -0.034   5.895   5.548 -1.0465  0.9785  1.9572
   25DOPE  H16Y 3218   0.117   5.970   5.470 -1.2225  2.2137 -1.7881
   25DOPE  C317 3219  -0.023   6.115   5.524  0.8580  0.0862  0.2156
   25DOPE  H17X 3220  -0.089   6.141   5.610  1.3483  0.4076  0.5025
   25DOPE  H17Y 3221   0.058   6.191   5.525  0.2582  0.7786 -0.9978
   25DOPE  C318 3222  -0.111   6.123   5.401  0.0587 -0.2736  0.1426
   25DOPE  H18X 3223  -0.186   6.041   5.403  0.6820 -0.8499  0.0783
   25DOPE  H18Y 3224  -0.171   6.216   5.400 -0.3588 -0.5446 -0.0463
   25DOPE  H18Z 3225  -0.059   6.109   5.304  0.5051  0.1090  0.3232
   26DOPE     N 3226   1.371   5.497   7.168 -0.2816 -0.4119  0.4617
   26DOPE   HN1 3227   1.287   5.451   7.207 -0.8747 -0.1864 -0.5072
   26DOPE   HN2 3228   1.404   5.443   7.085 -2.4865 -1.8019  0.4000
   26DOPE   HN3 3229   1.443   5.493   7.243 -0.2079 -0.7185  0.3757
   26DOPE   C12 3230   1.343   5.635   7.119  0.1988 -0.0952  0.4785
   26DOPE  H12A 3231   1.420   5.666   7.046  0.7522 -0.0014  1.0852
   26DOPE  H12B 3232   1.345   5.712   7.199  1.0631 -0.2647  0.6266
   26DOPE   C11 3233   1.204   5.647   7.050  0.6085 -0.2741  0.0778
   26DOPE  H11A 3234   1.124   5.621   7.122  0.2762  0.6926  0.0723
   26DOPE  H11B 3235   1.208   5.569   6.970 -0.0020 -0.1673 -0.0625
   26DOPE     P 3236   1.124   5.893   7.084 -0.1965 -0.1655 -0.3447
   26DOPE   O13 3237   1.237   5.934   7.167  0.0385  0.2109  0.4924
   26DOPE   O14 3238   0.993   5.867   7.153  0.2511  0.3587  0.0675
   26DOPE   O11 3239   1.104   6.000   6.971 -0.1501  0.3574  0.8632
   26DOPE   O12 3240   1.174   5.771   6.998  0.0117 -0.2076 -0.4066
   26DOPE    C1 3241   0.969   6.052   6.952 -0.6881  0.0307  0.2149
   26DOPE    HA 3242   0.974   6.155   6.908  1.3502 -0.3017 -0.4276
   26DOPE    HB 3243   0.923   6.069   7.052  0.3988 -0.3532  0.7934
   26DOPE    C2 3244   0.884   5.968   6.865 -0.5205  0.9478  0.0997
   26DOPE    HS 3245   0.852   5.880   6.925 -2.4846  0.6443 -1.2744
   26DOPE   O21 3246   0.946   5.946   6.737 -0.2106  0.4378 -0.1999
   26DOPE   C21 3247   0.962   5.818   6.709 -0.2151 -0.0605  0.2526
   26DOPE   O22 3248   0.930   5.725   6.778  0.0244  0.6446  0.1624
   26DOPE   C22 3249   1.020   5.811   6.571 -0.5879  0.0653  0.4899
   26DOPE   H2R 3250   1.120   5.859   6.576  0.2987 -1.7416  0.9283
   26DOPE   H2S 3251   0.961   5.863   6.493 -1.0848 -0.7851  0.2871
   26DOPE    C3 3252   0.752   6.042   6.845 -0.2268 -0.0482 -0.1901
   26DOPE    HX 3253   0.772   6.148   6.818 -0.7406  0.7626  2.3455
   26DOPE    HY 3254   0.702   6.040   6.944 -3.4735  0.2464 -1.6711
   26DOPE   O31 3255   0.660   5.965   6.761  0.6949 -0.5512 -0.2213
   26DOPE   C31 3256   0.633   6.008   6.641 -1.2272 -0.0838 -0.0677
   26DOPE   O32 3257   0.656   6.117   6.593  0.0292  0.7599 -0.8858
   26DOPE   C32 3258   0.576   5.893   6.555 -0.1562  0.1679 -0.8117
   26DOPE   H2X 3259   0.658   5.819   6.541 -0.7273 -0.4473 -0.9335
   26DOPE   H2Y 3260   0.506   5.835   6.619 -2.4890  1.8788 -1.6782
   26DOPE   C23 3261   1.037   5.664   6.530 -0.4734  0.1704 -0.3081
   26DOPE   H3R 3262   0.939   5.613   6.541 -1.3934  1.9799  0.2233
   26DOPE   H3S 3263   1.107   5.612   6.598 -1.9361 -0.9867  0.3744
   26DOPE   C24 3264   1.083   5.650   6.381  0.0641  0.5531 -0.3270
   26DOPE   H4R 3265   1.007   5.688   6.309  0.0522 -0.2328 -0.7405
   26DOPE   H4S 3266   1.079   5.540   6.366 -1.5444  0.2684  1.7262
   26DOPE   C25 3267   1.227   5.697   6.337 -0.2001  0.1517  0.1713
   26DOPE   H5R 3268   1.301   5.642   6.400 -1.2930 -0.7926  0.6672
   26DOPE   H5S 3269   1.226   5.807   6.353  0.6699  0.4761 -1.7373
   26DOPE   C26 3270   1.254   5.681   6.182 -0.2290 -0.5961 -0.8493
   26DOPE   H6R 3271   1.187   5.749   6.125 -0.2762  0.5782  0.5726
   26DOPE   H6S 3272   1.242   5.572   6.161  0.2308 -1.1839  1.6550
   26DOPE   C27 3273   1.404   5.720   6.145  0.5230  0.2425  0.3724
   26DOPE   H7R 3274   1.465   5.628   6.147  0.6046  0.1064 -2.9540
   26DOPE   H7S 3275   1.444   5.795   6.216 -0.4096 -0.7568  2.0184
   26DOPE   C28 3276   1.408   5.787   6.002 -0.0729 -0.0096 -0.5701
   26DOPE   H8R 3277   1.517   5.785   5.978  0.0423 -1.7314 -0.0438
   26DOPE   H8S 3278   1.371   5.891   6.012 -2.3381 -0.8549  0.6883
   26DOPE   C29 3279   1.343   5.716   5.896 -0.0281  0.1869  0.0659
   26DOPE   H9R 3280   1.236   5.707   5.919  0.4427 -1.0825  2.0501
   26DOPE  C210 3281   1.391   5.673   5.773  0.2813  0.3336 -0.5998
   26DOPE  H10R 3282   1.315   5.609   5.726  0.7432 -1.7510  1.3367
   26DOPE  C211 3283   1.521   5.687   5.717  0.0311 -0.1042 -0.5927
   26DOPE  H11R 3284   1.572   5.592   5.741  1.4494  0.3167 -1.7877
   26DOPE  H11S 3285   1.577   5.760   5.779 -3.9971  1.8061  1.1390
   26DOPE  C212 3286   1.527   5.719   5.562  0.1411  0.9134 -0.1354
   26DOPE  H12R 3287   1.511   5.619   5.517 -0.1927  1.4050 -1.1373
   26DOPE  H12S 3288   1.632   5.740   5.531  0.0381  0.4309 -0.8342
   26DOPE  C213 3289   1.430   5.815   5.504  0.1526 -0.0091  0.1640
   26DOPE  H13R 3290   1.454   5.920   5.531 -0.2906  0.9466 -2.8064
   26DOPE  H13S 3291   1.331   5.793   5.550  0.2074  0.5813  0.5731
   26DOPE  C214 3292   1.413   5.809   5.349  0.1231 -0.5202  0.0029
   26DOPE  H14R 3293   1.404   5.708   5.304 -2.2058  0.1478 -1.2217
   26DOPE  H14S 3294   1.506   5.856   5.310  0.2690 -0.2740  0.6374
   26DOPE  C215 3295   1.299   5.891   5.297 -0.9196 -0.0018 -0.2143
   26DOPE  H15R 3296   1.284   5.996   5.333 -0.3742  1.0707 -2.8907
   26DOPE  H15S 3297   1.210   5.835   5.334 -0.8954  0.1331  0.0539
   26DOPE  C216 3298   1.304   5.922   5.150 -0.4014  0.3585  0.1357
   26DOPE  H16R 3299   1.397   5.978   5.125 -2.4780  3.0742 -2.1630
   26DOPE  H16S 3300   1.213   5.978   5.120  0.1413  0.9182 -0.5082
   26DOPE  C217 3301   1.297   5.790   5.058 -0.3317 -0.0831  0.3081
   26DOPE  H17R 3302   1.213   5.725   5.091 -0.8459  0.9669  1.1454
   26DOPE  H17S 3303   1.394   5.735   5.064 -0.6604 -0.6594  0.3738
   26DOPE  C218 3304   1.289   5.832   4.908  0.9541  0.1553 -0.2079
   26DOPE  H18R 3305   1.280   5.738   4.849  1.3298 -0.0251  0.0205
   26DOPE  H18S 3306   1.369   5.900   4.873  1.8040  0.4510  2.1334
   26DOPE  H18T 3307   1.192   5.885   4.905 -0.8280 -2.8462  0.5128
   26DOPE   C33 3308   0.510   5.914   6.421 -0.4439 -0.9321 -0.0914
   26DOPE   H3X 3309   0.440   6.000   6.421  1.8743  1.0881  0.7644
   26DOPE   H3Y 3310   0.445   5.824   6.410 -0.5817 -0.6283 -2.1253
   26DOPE   C34 3311   0.603   5.919   6.304  0.1990  0.5213  0.2664
   26DOPE   H4X 3312   0.684   5.988   6.335 -0.6333  2.5532 -1.7968
   26DOPE   H4Y 3313   0.659   5.828   6.272  0.4589  1.1552 -1.1572
   26DOPE   C35 3314   0.533   5.971   6.185  0.3169  0.2564  0.3528
   26DOPE   H5X 3315   0.531   6.081   6.201 -1.9784  0.1250  1.2969
   26DOPE   H5Y 3316   0.427   5.937   6.183 -0.4038  2.3641 -0.6269
   26DOPE   C36 3317   0.614   5.943   6.051 -0.9645 -0.3929  0.4801
   26DOPE   H6X 3318   0.610   5.833   6.036 -0.8555 -0.4633  0.9364
   26DOPE   H6Y 3319   0.718   5.980   6.066 -0.0966 -2.1452 -0.8143
   26DOPE   C37 3320   0.563   6.020   5.930 -0.1397 -0.4132  0.4529
   26DOPE   H7X 3321   0.453   6.001   5.923 -0.5356  1.9475 -1.1172
   26DOPE   H7Y 3322   0.584   6.129   5.941  1.0089 -0.3757 -1.6560
   26DOPE   C38 3323   0.638   5.985   5.799  0.1821  0.6848  0.3513
   26DOPE   H8X 3324   0.627   5.875   5.788 -0.5054  0.9463 -2.0785
   26DOPE   H8Y 3325   0.747   5.990   5.822  0.3365 -3.2189  1.2959
   26DOPE   C39 3326   0.588   6.052   5.679  0.1841  0.4787 -0.3521
   26DOPE   H9X 3327   0.603   6.161   5.691  1.1808  0.3531 -0.3713
   26DOPE  C310 3328   0.507   6.009   5.582  0.3414 -0.1674  0.4808
   26DOPE  H10X 3329   0.483   6.081   5.502  1.2802  0.5991  0.8531
   26DOPE  C311 3330   0.447   5.874   5.574  0.2261 -0.0539 -0.1925
   26DOPE  H11X 3331   0.464   5.806   5.660 -0.9902  0.2098  0.2739
   26DOPE  H11Y 3332   0.337   5.888   5.563  0.2605  2.0176  1.3260
   26DOPE  C312 3333   0.523   5.801   5.458 -0.5632 -1.0846  0.3582
   26DOPE  H12X 3334   0.622   5.758   5.482  0.7090  0.9604 -0.8973
   26DOPE  H12Y 3335   0.527   5.866   5.368 -1.1567  0.2145  1.2177
   26DOPE  C313 3336   0.428   5.681   5.424  0.3235 -0.1599  0.6464
   26DOPE  H13X 3337   0.386   5.636   5.517  0.8876 -1.7757  0.1566
   26DOPE  H13Y 3338   0.352   5.728   5.357  1.3483  1.6834  0.7344
   26DOPE  C314 3339   0.493   5.576   5.326  0.2578  0.1448 -0.3156
   26DOPE  H14X 3340   0.406   5.517   5.290  0.1586 -2.0996  3.0704
   26DOPE  H14Y 3341   0.550   5.505   5.390  1.8837  1.1658 -0.5800
   26DOPE  C315 3342   0.594   5.626   5.217  0.1382  0.4914  0.0844
   26DOPE  H15X 3343   0.672   5.694   5.257 -0.3447  1.7125 -0.9988
   26DOPE  H15Y 3344   0.524   5.677   5.147 -1.5964 -0.8192  0.7792
   26DOPE  C316 3345   0.642   5.511   5.132 -0.0915 -0.3633  0.0043
   26DOPE  H16X 3346   0.558   5.439   5.139 -1.8961  1.7565  2.2956
   26DOPE  H16Y 3347   0.727   5.458   5.181 -0.4431 -0.8932  0.0493
   26DOPE  C317 3348   0.663   5.538   4.983  0.3183  0.3452 -0.4948
   26DOPE  H17X 3349   0.685   5.445   4.927 -0.1499 -0.9958  1.4500
   26DOPE  H17Y 3350   0.576   5.581   4.931 -0.4609 -0.2934  0.2447
   26DOPE  C318 3351   0.788   5.631   4.967 -0.3418  0.1932 -0.1893
   26DOPE  H18X 3352   0.843   5.603   4.874 -0.1745  0.4152 -0.1588
   26DOPE  H18Y 3353   0.752   5.736   4.956  3.4058  1.5044 -1.8371
   26DOPE  H18Z 3354   0.855   5.619   5.055 -0.2508  0.6290 -0.1970
   27DOPE     N 3355   5.857   7.308   8.180  0.1981  0.3164  0.0171
   27DOPE   HN1 3356   5.795   7.234   8.142  0.6768 -0.7749  1.3015
   27DOPE   HN2 3357   5.875   7.295   8.281 -2.6378  1.1606  0.7217
   27DOPE   HN3 3358   5.818   7.404   8.168  1.2842  0.9821  1.5170
   27DOPE   C12 3359   5.995   7.311   8.120  0.4738  0.0895  0.1541
   27DOPE  H12A 3360   6.058   7.226   8.153  1.0146 -0.8821 -3.0473
   27DOPE  H12B 3361   6.052   7.404   8.143  2.5679 -0.8380 -1.0002
   27DOPE   C11 3362   5.976   7.297   7.967 -0.9671 -0.4744 -0.8356
   27DOPE  H11A 3363   6.071   7.288   7.910  0.5620 -0.6138  1.5806
   27DOPE  H11B 3364   5.946   7.400   7.936  4.9471  1.2865 -1.9071
   27DOPE     P 3365   5.915   7.079   7.836 -0.1619 -0.0655 -0.3320
   27DOPE   O13 3366   5.785   7.017   7.791  0.2024  0.1380 -0.1802
   27DOPE   O14 3367   5.995   6.996   7.925 -0.1780 -0.2648 -0.3760
   27DOPE   O11 3368   5.992   7.139   7.710  0.0324  0.0721 -0.2243
   27DOPE   O12 3369   5.874   7.204   7.924 -0.1742  0.3979  0.0707
   27DOPE    C1 3370   5.937   7.234   7.627  0.5503  0.0453 -1.0199
   27DOPE    HA 3371   5.982   7.332   7.653  2.8603 -0.6312 -2.1598
   27DOPE    HB 3372   5.827   7.245   7.634  0.7014  1.7306 -1.0339
   27DOPE    C2 3373   5.978   7.207   7.485  0.0892 -0.4623  0.5252
   27DOPE    HS 3374   5.943   7.103   7.463  0.6440 -0.3773 -0.8345
   27DOPE   O21 3375   6.118   7.216   7.482 -0.1698  0.2586 -0.1853
   27DOPE   C21 3376   6.181   7.144   7.383  0.3035 -0.2345  0.4068
   27DOPE   O22 3377   6.126   7.059   7.313  0.2969 -0.5032 -0.0833
   27DOPE   C22 3378   6.328   7.189   7.367 -0.1504 -0.4179  0.3444
   27DOPE   H2R 3379   6.376   7.181   7.467  0.7964  2.1338  0.1777
   27DOPE   H2S 3380   6.333   7.298   7.346 -3.6054  0.0475  1.3751
   27DOPE    C3 3381   5.908   7.305   7.384 -0.4521  0.9531 -0.1794
   27DOPE    HX 3382   5.962   7.402   7.393  1.8861  0.0329 -2.6357
   27DOPE    HY 3383   5.800   7.309   7.408 -0.1474 -0.9189  1.7625
   27DOPE   O31 3384   5.911   7.251   7.246  0.1181 -0.0978  0.1580
   27DOPE   C31 3385   5.992   7.308   7.171  0.2613  0.0164  0.0834
   27DOPE   O32 3386   6.097   7.365   7.202  0.2905 -0.2383 -0.6808
   27DOPE   C32 3387   5.942   7.285   7.028  0.3560 -0.0431  0.1499
   27DOPE   H2X 3388   5.836   7.253   7.038  0.6960 -1.0654  0.6675
   27DOPE   H2Y 3389   5.934   7.386   6.982  0.0558  0.3033  0.9409
   27DOPE   C23 3390   6.404   7.114   7.254  0.4523  0.4960 -0.9601
   27DOPE   H3R 3391   6.395   7.008   7.287 -1.7171  1.0504  0.4663
   27DOPE   H3S 3392   6.508   7.152   7.252  1.1082 -1.2289 -1.0717
   27DOPE   C24 3393   6.360   7.128   7.109 -0.5809  0.5593 -0.5952
   27DOPE   H4R 3394   6.345   7.235   7.082  0.9875  1.8601  3.0250
   27DOPE   H4S 3395   6.254   7.096   7.107 -0.5088  0.1388  1.0754
   27DOPE   C25 3396   6.456   7.055   7.002 -0.4842 -0.3869 -0.0137
   27DOPE   H5R 3397   6.496   6.960   7.043  1.2463  0.0537 -0.5793
   27DOPE   H5S 3398   6.540   7.128   7.001 -1.5540  0.8538 -0.3303
   27DOPE   C26 3399   6.403   7.044   6.859 -0.2512  0.4748  0.5943
   27DOPE   H6R 3400   6.375   7.148   6.832  1.3929  0.3882 -1.6841
   27DOPE   H6S 3401   6.313   6.978   6.864  0.6128 -0.6393  2.6876
   27DOPE   C27 3402   6.494   6.983   6.754 -0.4992  0.7920  0.7050
   27DOPE   H7R 3403   6.527   6.880   6.780  1.2958  1.3566  0.7511
   27DOPE   H7S 3404   6.586   7.044   6.757  0.8802 -1.1717  0.3953
   27DOPE   C28 3405   6.431   6.990   6.610  0.3973  0.0797  0.8082
   27DOPE   H8R 3406   6.382   7.090   6.604 -0.9523 -0.5480  0.8041
   27DOPE   H8S 3407   6.348   6.917   6.597  0.3665  0.5375 -2.4488
   27DOPE   C29 3408   6.536   6.968   6.511 -0.3962  0.3184  0.1390
   27DOPE   H9R 3409   6.620   6.900   6.536  0.6961  1.1508 -1.1366
   27DOPE  C210 3410   6.554   7.032   6.397 -0.2301 -0.0764  0.3356
   27DOPE  H10R 3411   6.633   7.004   6.327 -1.7481  2.7653 -2.7712
   27DOPE  C211 3412   6.471   7.144   6.340 -0.3363 -0.2221  0.1045
   27DOPE  H11R 3413   6.528   7.237   6.362 -1.5649  1.0043 -1.5857
   27DOPE  H11S 3414   6.370   7.163   6.385  0.5912  0.9966  1.8177
   27DOPE  C212 3415   6.460   7.140   6.189 -0.1103 -0.5702  0.7784
   27DOPE  H12R 3416   6.555   7.172   6.140 -1.1255 -1.2120 -1.8114
   27DOPE  H12S 3417   6.386   7.219   6.163  0.6754  1.1760  3.4247
   27DOPE  C213 3418   6.428   7.002   6.127  0.1542 -0.0001  0.6967
   27DOPE  H13R 3419   6.324   6.987   6.162  0.2376 -0.2865  0.8211
   27DOPE  H13S 3420   6.508   6.928   6.144  1.9825  1.4019 -1.2723
   27DOPE  C214 3421   6.423   7.019   5.971  0.0652  0.2108 -0.6034
   27DOPE  H14R 3422   6.525   7.031   5.930  0.8628 -0.1569  1.1741
   27DOPE  H14S 3423   6.362   7.112   5.964 -0.7464 -0.2817 -0.2731
   27DOPE  C215 3424   6.354   6.903   5.898 -0.4415  0.1796 -0.7224
   27DOPE  H15R 3425   6.259   6.884   5.953  0.4529  0.5254  0.9867
   27DOPE  H15S 3426   6.419   6.813   5.903  0.1310  0.6056 -0.4468
   27DOPE  C216 3427   6.326   6.928   5.751 -0.0795  0.3022 -0.8857
   27DOPE  H16R 3428   6.417   6.946   5.689  1.2109 -3.2105 -0.2378
   27DOPE  H16S 3429   6.255   7.014   5.749 -0.7118 -0.2147 -0.8322
   27DOPE  C217 3430   6.261   6.805   5.694  1.0577  0.0792  0.1099
   27DOPE  H17R 3431   6.194   6.752   5.765 -0.7808 -0.0719 -1.6514
   27DOPE  H17S 3432   6.330   6.720   5.674  2.2352  1.1549 -0.5508
   27DOPE  C218 3433   6.191   6.843   5.564 -0.2660  0.1299  0.2696
   27DOPE  H18R 3434   6.256   6.880   5.482 -0.2808 -2.3034 -0.9274
   27DOPE  H18S 3435   6.114   6.921   5.586  0.0071  0.8740 -1.2853
   27DOPE  H18T 3436   6.137   6.767   5.503 -2.5231  2.2652 -0.5698
   27DOPE   C33 3437   6.022   7.187   6.937  0.2763 -0.4472  0.0559
   27DOPE   H3X 3438   6.050   7.093   6.989 -0.1808 -1.2209 -1.0774
   27DOPE   H3Y 3439   6.113   7.240   6.902  0.8665 -2.0479 -0.9079
   27DOPE   C34 3440   5.946   7.147   6.810 -0.6233  0.0889 -0.2264
   27DOPE   H4X 3441   5.866   7.083   6.853 -1.7901  1.7984  0.2512
   27DOPE   H4Y 3442   5.895   7.236   6.768 -1.9411 -0.7632 -0.4838
   27DOPE   C35 3443   6.026   7.075   6.703  0.3652  0.3655  0.0731
   27DOPE   H5X 3444   6.027   6.965   6.717  2.0330  0.4897  1.0427
   27DOPE   H5Y 3445   6.128   7.116   6.691  0.6874  0.0355  1.4882
   27DOPE   C36 3446   5.953   7.092   6.565 -0.2917  0.2210  0.2085
   27DOPE   H6X 3447   5.903   7.188   6.543 -0.7400 -0.3256 -1.2596
   27DOPE   H6Y 3448   5.875   7.013   6.563 -2.0747  1.9006  1.1695
   27DOPE   C37 3449   6.042   7.069   6.447 -0.1050  0.4157  0.4272
   27DOPE   H7X 3450   6.115   7.153   6.439 -1.5499  1.5834 -1.3525
   27DOPE   H7Y 3451   6.080   6.966   6.465  0.8031  0.5797 -0.4278
   27DOPE   C38 3452   5.954   7.064   6.311 -0.1885 -0.4146  0.3610
   27DOPE   H8X 3453   5.883   7.146   6.334  2.4898  1.2983  3.2520
   27DOPE   H8Y 3454   5.897   6.972   6.284  0.6424 -0.7282 -0.3444
   27DOPE   C39 3455   6.024   7.116   6.189  0.0008  0.7792  0.0739
   27DOPE   H9X 3456   6.079   7.208   6.217 -0.1245  0.7073  0.5574
   27DOPE  C310 3457   6.033   7.059   6.067  0.4042 -0.5180 -0.1278
   27DOPE  H10X 3458   6.086   7.117   5.990  0.7854  0.1834  0.6418
   27DOPE  C311 3459   5.977   6.928   6.020 -0.7462  0.2733 -0.9529
   27DOPE  H11X 3460   6.058   6.871   5.969 -0.4862  0.8576 -1.2021
   27DOPE  H11Y 3461   5.933   6.872   6.105 -0.5431  1.6986  0.1204
   27DOPE  C312 3462   5.855   6.951   5.928  0.4861 -0.1478  0.1260
   27DOPE  H12X 3463   5.775   7.012   5.974 -0.0300 -0.2245 -0.6514
   27DOPE  H12Y 3464   5.811   6.851   5.908  0.0328 -0.3531  1.9676
   27DOPE  C313 3465   5.881   7.010   5.790  0.4829 -0.1104  0.1188
   27DOPE  H13X 3466   5.985   7.045   5.783  0.3327  0.5214  0.9366
   27DOPE  H13Y 3467   5.872   6.932   5.711  1.6477 -2.0220  1.7641
   27DOPE  C314 3468   5.796   7.134   5.769 -0.0426  0.4493  0.4763
   27DOPE  H14X 3469   5.811   7.191   5.863 -0.2969 -0.5648  1.1541
   27DOPE  H14Y 3470   5.687   7.116   5.778  0.1605 -0.3249  1.6953
   27DOPE  C315 3471   5.817   7.218   5.645 -0.2807 -0.5706 -0.4735
   27DOPE  H15X 3472   5.905   7.285   5.662 -1.2637  0.3981  1.0371
   27DOPE  H15Y 3473   5.724   7.279   5.647  1.1301  1.7516 -1.4154
   27DOPE  C316 3474   5.843   7.135   5.517  0.4962  0.2452 -0.1072
   27DOPE  H16X 3475   5.752   7.075   5.497  0.1482  0.3403  1.0896
   27DOPE  H16Y 3476   5.914   7.049   5.529  0.7399  0.5061  0.3574
   27DOPE  C317 3477   5.863   7.209   5.390 -0.3130 -0.1000 -0.6039
   27DOPE  H17X 3478   5.777   7.190   5.323 -1.6220 -2.0869  1.5103
   27DOPE  H17Y 3479   5.870   7.318   5.413 -2.3127 -0.3603  1.5446
   27DOPE  C318 3480   5.996   7.168   5.335 -1.0746  0.2191  0.1538
   27DOPE  H18X 3481   6.012   7.209   5.233  1.3905  0.3917  0.5546
   27DOPE  H18Y 3482   6.076   7.203   5.404 -1.8608 -1.2154  1.8997
   27DOPE  H18Z 3483   6.005   7.057   5.337  0.8564  0.3333  0.2506
   28DOPE     N 3484   7.451   6.249   7.871  0.2013 -0.6292  0.3496
   28DOPE   HN1 3485   7.356   6.247   7.912  0.0554  0.9307  0.1569
   28DOPE   HN2 3486   7.490   6.154   7.888  0.1535 -0.8487 -0.6936
   28DOPE   HN3 3487   7.511   6.314   7.925 -0.0202 -0.6159  0.5803
   28DOPE   C12 3488   7.452   6.279   7.727  0.0433 -0.1678  0.0046
   28DOPE  H12A 3489   7.545   6.235   7.685  0.6840  1.5511 -0.4428
   28DOPE  H12B 3490   7.453   6.388   7.710  0.2554 -0.2644 -0.6242
   28DOPE   C11 3491   7.334   6.211   7.663 -0.1280 -0.0567 -0.6758
   28DOPE  H11A 3492   7.346   6.102   7.677 -0.7118  0.0830  1.2838
   28DOPE  H11B 3493   7.341   6.225   7.553  0.0644  0.2057 -0.6319
   28DOPE     P 3494   7.129   6.377   7.682  0.0839  0.4075 -0.0496
   28DOPE   O13 3495   7.203   6.485   7.743 -0.2785 -0.0888  0.4584
   28DOPE   O14 3496   6.982   6.360   7.716 -0.2968 -0.1962 -0.0727
   28DOPE   O11 3497   7.141   6.393   7.525  0.0545 -0.0059 -0.4578
   28DOPE   O12 3498   7.205   6.241   7.718 -0.5574 -0.0878  0.5995
   28DOPE    C1 3499   7.067   6.302   7.436 -0.9698 -0.5956  0.2506
   28DOPE    HA 3500   6.980   6.352   7.389 -1.5268 -2.2550 -0.5827
   28DOPE    HB 3501   7.036   6.211   7.492  2.4840 -2.2002 -0.2041
   28DOPE    C2 3502   7.162   6.243   7.327  0.7296  0.0491  0.9856
   28DOPE    HS 3503   7.229   6.178   7.387 -1.2059 -1.2911  1.8207
   28DOPE   O21 3504   7.221   6.352   7.248 -0.7538  0.3949  0.1160
   28DOPE   C21 3505   7.351   6.374   7.275  0.3326 -0.3816  0.3523
   28DOPE   O22 3506   7.425   6.300   7.336  0.7185  0.4083  0.1949
   28DOPE   C22 3507   7.387   6.505   7.220  0.5210 -0.4005 -0.6139
   28DOPE   H2R 3508   7.360   6.583   7.294 -0.0603 -0.2934 -0.9331
   28DOPE   H2S 3509   7.327   6.527   7.129 -2.3011 -0.3335  1.1434
   28DOPE    C3 3510   7.092   6.140   7.232  0.0415  0.4017 -0.0002
   28DOPE    HX 3511   7.003   6.187   7.184  1.2230  0.9875 -1.7209
   28DOPE    HY 3512   7.045   6.054   7.285  1.3466  0.2598  0.9706
   28DOPE   O31 3513   7.177   6.096   7.121  0.2755 -0.1667 -0.0332
   28DOPE   C31 3514   7.245   5.988   7.141 -0.6139 -0.0777 -0.2557
   28DOPE   O32 3515   7.248   5.917   7.243  1.0014 -0.1904  0.5100
   28DOPE   C32 3516   7.324   5.962   7.015 -0.5774 -0.0629  0.6810
   28DOPE   H2X 3517   7.274   6.013   6.930 -0.6824 -0.9538  0.1956
   28DOPE   H2Y 3518   7.416   6.021   7.032 -1.2594  1.0767  0.5561
   28DOPE   C23 3519   7.531   6.524   7.172  0.9832  0.1480 -0.5739
   28DOPE   H3R 3520   7.596   6.536   7.261 -0.4078 -0.8669  0.6422
   28DOPE   H3S 3521   7.523   6.619   7.116 -1.9904  0.5911  0.3986
   28DOPE   C24 3522   7.586   6.420   7.076  0.0207  0.3133 -0.6254
   28DOPE   H4R 3523   7.615   6.328   7.131 -0.2039  0.4982 -0.1998
   28DOPE   H4S 3524   7.681   6.463   7.038  0.6422 -0.2772  0.2238
   28DOPE   C25 3525   7.501   6.380   6.962  0.4363 -0.4019  0.3188
   28DOPE   H5R 3526   7.408   6.330   6.997  1.1734 -0.6133  2.1161
   28DOPE   H5S 3527   7.557   6.298   6.911 -0.5470 -1.7626  1.3384
   28DOPE   C26 3528   7.475   6.490   6.853  0.4139  0.4603  0.0552
   28DOPE   H6R 3529   7.571   6.532   6.816  0.0980  1.5912  0.4591
   28DOPE   H6S 3530   7.424   6.568   6.914 -2.7636 -0.7172 -0.8727
   28DOPE   C27 3531   7.383   6.432   6.741 -0.2007 -0.0004 -0.2725
   28DOPE   H7R 3532   7.297   6.402   6.805  1.1686  0.7286  2.0346
   28DOPE   H7S 3533   7.432   6.343   6.697  1.4426  1.3246 -1.2475
   28DOPE   C28 3534   7.350   6.535   6.625  0.0042  0.2509 -0.3588
   28DOPE   H8R 3535   7.446   6.550   6.571 -0.6121  0.2165 -1.5096
   28DOPE   H8S 3536   7.331   6.637   6.665  1.2913  0.9770 -1.4896
   28DOPE   C29 3537   7.244   6.502   6.533  0.4196  0.0047  0.0083
   28DOPE   H9R 3538   7.146   6.501   6.584  1.4790  1.3575  2.1715
   28DOPE  C210 3539   7.247   6.486   6.398 -0.6697  0.5100 -0.3141
   28DOPE  H10R 3540   7.161   6.445   6.343 -0.4404 -0.7024  0.2013
   28DOPE  C211 3541   7.372   6.494   6.317 -0.0330  0.2230 -0.1611
   28DOPE  H11R 3542   7.401   6.400   6.265 -0.7228  1.0155 -2.0826
   28DOPE  H11S 3543   7.464   6.514   6.376 -0.2890 -1.5905  0.8927
   28DOPE  C212 3544   7.355   6.608   6.216 -0.4027 -1.0914 -0.1317
   28DOPE  H12R 3545   7.458   6.639   6.185 -0.0760 -0.7294  1.2286
   28DOPE  H12S 3546   7.315   6.700   6.265  0.6349 -0.5057 -0.3473
   28DOPE  C213 3547   7.269   6.573   6.097  0.1443  0.2871  0.1985
   28DOPE  H13R 3548   7.169   6.537   6.130  1.2461 -2.8015  0.4627
   28DOPE  H13S 3549   7.320   6.492   6.042  0.8890  2.1903 -2.0584
   28DOPE  C214 3550   7.259   6.683   5.989  0.0773  0.1922 -0.7790
   28DOPE  H14R 3551   7.360   6.721   5.963  0.0394  0.8782  0.0352
   28DOPE  H14S 3552   7.194   6.759   6.036  0.5358 -0.5592  1.1570
   28DOPE  C215 3553   7.188   6.613   5.871  0.2088  0.4988 -0.1330
   28DOPE  H15R 3554   7.089   6.581   5.909  0.7690  0.8259  1.7276
   28DOPE  H15S 3555   7.243   6.526   5.829 -2.7669 -0.4996 -2.2997
   28DOPE  C216 3556   7.175   6.714   5.754  0.3585  0.5334 -0.2603
   28DOPE  H16R 3557   7.280   6.746   5.737  1.9238 -2.3945  2.7323
   28DOPE  H16S 3558   7.111   6.795   5.796 -0.9406 -0.7507  0.3416
   28DOPE  C217 3559   7.121   6.645   5.628 -0.3380 -0.7942  0.5320
   28DOPE  H17R 3560   7.014   6.634   5.654 -0.1305  0.5884  2.1495
   28DOPE  H17S 3561   7.164   6.543   5.627 -0.3459 -0.7987  0.6344
   28DOPE  C218 3562   7.141   6.722   5.503  0.3051 -0.4358  0.3701
   28DOPE  H18R 3563   7.234   6.783   5.498  0.9946 -1.4757  0.1469
   28DOPE  H18S 3564   7.048   6.782   5.498 -0.0049 -0.9798 -2.5117
   28DOPE  H18T 3565   7.134   6.645   5.423 -2.5152 -1.2197  1.2814
   28DOPE   C33 3566   7.362   5.818   6.977  0.0231  0.6707 -0.0470
   28DOPE   H3X 3567   7.412   5.782   7.070 -0.2636  1.6485  0.4972
   28DOPE   H3Y 3568   7.444   5.815   6.903 -0.4380 -2.2168 -0.5755
   28DOPE   C34 3569   7.241   5.737   6.938  0.0073  1.1135 -0.4318
   28DOPE   H4X 3570   7.256   5.645   6.998  0.0009  0.8019 -0.8963
   28DOPE   H4Y 3571   7.151   5.791   6.974  0.8724  2.0534  0.3901
   28DOPE   C35 3572   7.238   5.719   6.786  0.1981 -0.2294  0.2793
   28DOPE   H5X 3573   7.311   5.643   6.751  2.3914  2.0450 -0.3521
   28DOPE   H5Y 3574   7.266   5.815   6.739  1.8073 -0.4903  0.6524
   28DOPE   C36 3575   7.103   5.689   6.729 -0.2366 -0.2106 -0.4641
   28DOPE   H6X 3576   7.041   5.779   6.750 -1.2389 -0.7729 -0.9220
   28DOPE   H6Y 3577   7.054   5.599   6.772 -1.7408  0.1277 -1.3984
   28DOPE   C37 3578   7.101   5.690   6.568 -0.5847 -0.8222 -0.3696
   28DOPE   H7X 3579   7.136   5.792   6.544 -1.2949 -0.1264  1.4250
   28DOPE   H7Y 3580   7.183   5.627   6.527 -0.7527 -0.0334 -1.9930
   28DOPE   C38 3581   6.978   5.645   6.497  0.0203 -0.2481  0.6315
   28DOPE   H8X 3582   6.940   5.546   6.530 -2.3566  1.0601  2.1408
   28DOPE   H8Y 3583   6.994   5.640   6.388  0.2130 -0.9552  0.6893
   28DOPE   C39 3584   6.869   5.749   6.520 -0.0618 -0.4348  0.1764
   28DOPE   H9X 3585   6.850   5.768   6.627  0.9733 -0.8152  0.4346
   28DOPE  C310 3586   6.792   5.813   6.424 -0.3534  0.3092 -0.2061
   28DOPE  H10X 3587   6.705   5.877   6.446 -0.5389  0.4857 -1.3798
   28DOPE  C311 3588   6.804   5.786   6.273 -0.4751  0.6490 -0.2809
   28DOPE  H11X 3589   6.792   5.889   6.235 -0.9499  1.1476  1.1413
   28DOPE  H11Y 3590   6.905   5.748   6.244  0.0853 -1.1034  3.2596
   28DOPE  C312 3591   6.712   5.695   6.204  0.9157  0.0809  0.2092
   28DOPE  H12X 3592   6.606   5.714   6.233  0.7488 -1.4372  0.6912
   28DOPE  H12Y 3593   6.734   5.588   6.225 -2.2922 -0.8324 -0.4934
   28DOPE  C313 3594   6.720   5.714   6.049  0.3668 -0.7417  0.2687
   28DOPE  H13X 3595   6.674   5.813   6.028  2.3281  0.4338  1.2221
   28DOPE  H13Y 3596   6.823   5.737   6.014 -0.8666  2.2473 -1.7912
   28DOPE  C314 3597   6.661   5.607   5.958 -0.5170 -0.2111 -0.5534
   28DOPE  H14X 3598   6.550   5.605   5.949 -0.6183 -4.4279 -0.6974
   28DOPE  H14Y 3599   6.673   5.507   6.007 -0.1890  0.7417  1.4149
   28DOPE  C315 3600   6.729   5.600   5.822 -1.3359 -0.5239 -0.7546
   28DOPE  H15X 3601   6.679   5.518   5.766 -0.8594  0.3411 -2.4825
   28DOPE  H15Y 3602   6.838   5.588   5.838 -1.4541 -0.4383  0.1753
   28DOPE  C316 3603   6.707   5.737   5.755  0.1327  0.1785 -0.1975
   28DOPE  H16X 3604   6.779   5.802   5.810  0.1606 -1.6615  2.0784
   28DOPE  H16Y 3605   6.605   5.772   5.778  0.7450  1.1847  1.0935
   28DOPE  C317 3606   6.737   5.734   5.606 -0.0062  0.0694  0.4645
   28DOPE  H17X 3607   6.661   5.677   5.549  0.9177  0.7145 -1.5032
   28DOPE  H17Y 3608   6.731   5.840   5.573 -1.0942 -0.5832 -1.6261
   28DOPE  C318 3609   6.876   5.687   5.570 -0.6414  0.0799 -0.4482
   28DOPE  H18X 3610   6.910   5.594   5.622 -2.1415 -0.7125 -0.8328
   28DOPE  H18Y 3611   6.874   5.655   5.464  0.5300 -1.3405 -0.0802
   28DOPE  H18Z 3612   6.953   5.766   5.579 -0.0371 -0.2952 -2.1057
   29DOPE     N 3613   0.391   0.631   7.322 -0.2673  0.0342  0.3790
   29DOPE   HN1 3614   0.432   0.727   7.318  1.4018 -0.6751 -1.8157
   29DOPE   HN2 3615   0.423   0.583   7.408 -0.9650 -0.1108  0.5634
   29DOPE   HN3 3616   0.444   0.589   7.244  0.2071 -1.4395  1.4613
   29DOPE   C12 3617   0.240   0.632   7.306  0.1003 -0.3359 -0.0415
   29DOPE  H12A 3618   0.208   0.526   7.313 -0.2969 -0.1418  1.2506
   29DOPE  H12B 3619   0.224   0.678   7.206 -1.2417  1.3276  0.8956
   29DOPE   C11 3620   0.181   0.728   7.417  0.2900 -0.3349  0.1131
   29DOPE  H11A 3621   0.244   0.819   7.422 -0.3278  0.1057 -0.0222
   29DOPE  H11B 3622   0.190   0.682   7.518 -0.0003 -0.9121 -0.1250
   29DOPE     P 3623  -0.072   0.675   7.362  0.0684  0.2452 -0.2931
   29DOPE   O13 3624  -0.192   0.752   7.335  0.3382  0.2115 -0.4110
   29DOPE   O14 3625  -0.085   0.574   7.471 -0.3166  0.1408  0.0488
   29DOPE   O11 3626  -0.030   0.595   7.230 -0.1083 -0.7147  0.3670
   29DOPE   O12 3627   0.050   0.776   7.388  0.1940  0.6990 -0.1591
   29DOPE    C1 3628  -0.094   0.473   7.202 -0.2227 -0.0689  0.3660
   29DOPE    HA 3629  -0.199   0.479   7.237 -1.1128  1.8566 -2.2909
   29DOPE    HB 3630  -0.053   0.390   7.263  0.8838  1.2843  1.5076
   29DOPE    C2 3631  -0.089   0.448   7.049 -0.2895  0.2015  0.1834
   29DOPE    HS 3632  -0.124   0.348   7.015  0.8933  0.1235 -0.8769
   29DOPE   O21 3633   0.041   0.469   6.999 -0.3716 -0.3561  0.2020
   29DOPE   C21 3634   0.120   0.365   7.000 -0.2860  0.4125 -1.0308
   29DOPE   O22 3635   0.086   0.257   7.049  0.1998  0.3629 -0.1299
   29DOPE   C22 3636   0.252   0.393   6.924 -0.0556 -0.7137  0.4519
   29DOPE   H2R 3637   0.335   0.400   6.998 -2.1064 -0.0451  2.8465
   29DOPE   H2S 3638   0.237   0.496   6.886 -0.0618 -1.0376 -0.4369
   29DOPE    C3 3639  -0.186   0.547   6.978 -0.2617  0.0719 -0.6544
   29DOPE    HX 3640  -0.128   0.642   6.970  0.9450 -0.4333  1.4067
   29DOPE    HY 3641  -0.268   0.556   7.052  0.8953 -0.8648  0.8046
   29DOPE   O31 3642  -0.245   0.500   6.854 -0.1049  0.5259 -0.1769
   29DOPE   C31 3643  -0.170   0.519   6.748  0.3666  0.0191 -0.3955
   29DOPE   O32 3644  -0.052   0.556   6.747 -0.1524 -0.1739 -0.3075
   29DOPE   C32 3645  -0.257   0.502   6.619  0.5884 -0.6187 -0.3960
   29DOPE   H2X 3646  -0.306   0.402   6.617  1.1837 -0.9417  0.4211
   29DOPE   H2Y 3647  -0.339   0.576   6.623  0.6686 -0.5690  1.3547
   29DOPE   C23 3648   0.284   0.308   6.807 -0.5649 -0.8902 -0.1195
   29DOPE   H3R 3649   0.292   0.199   6.826 -1.3874 -1.0123 -0.3986
   29DOPE   H3S 3650   0.388   0.332   6.775 -0.4869 -1.2511 -0.1349
   29DOPE   C24 3651   0.199   0.335   6.685  0.6709  0.0147  0.2009
   29DOPE   H4R 3652   0.190   0.446   6.683 -1.7266 -0.1169 -1.1390
   29DOPE   H4S 3653   0.096   0.293   6.687  0.0096  1.6181  1.3501
   29DOPE   C25 3654   0.265   0.304   6.554 -0.2326  0.2693 -0.2273
   29DOPE   H5R 3655   0.294   0.197   6.548 -1.1285 -0.0891  1.4388
   29DOPE   H5S 3656   0.352   0.372   6.541  0.3692 -0.3948  0.2859
   29DOPE   C26 3657   0.177   0.348   6.444  0.7529 -1.0868  0.6359
   29DOPE   H6R 3658   0.139   0.451   6.460 -0.3036 -1.3535 -0.0563
   29DOPE   H6S 3659   0.099   0.270   6.434  1.7612 -2.2531  1.5669
   29DOPE   C27 3660   0.246   0.326   6.310 -0.3762 -0.4299 -0.1528
   29DOPE   H7R 3661   0.304   0.232   6.317 -0.4535 -0.4368  0.4077
   29DOPE   H7S 3662   0.317   0.410   6.292 -1.6410  0.1353 -3.2873
   29DOPE   C28 3663   0.154   0.288   6.185 -1.1598  0.2087  0.0929
   29DOPE   H8R 3664   0.071   0.362   6.183 -1.3175  0.1170  2.0713
   29DOPE   H8S 3665   0.118   0.186   6.208 -0.0753 -0.2317 -0.1076
   29DOPE   C29 3666   0.215   0.273   6.049 -0.1970  0.2572 -0.0483
   29DOPE   H9R 3667   0.196   0.179   5.996 -1.0968  0.6527 -0.4597
   29DOPE  C210 3668   0.288   0.366   5.984  0.2000 -0.3570  0.0130
   29DOPE  H10R 3669   0.314   0.345   5.879  0.6530 -0.1663  0.0853
   29DOPE  C211 3670   0.327   0.506   6.025 -0.3777  0.6103  0.8078
   29DOPE  H11R 3671   0.403   0.509   6.107  0.3217  2.0985  0.1411
   29DOPE  H11S 3672   0.235   0.543   6.074 -1.2104 -0.3034 -0.0352
   29DOPE  C212 3673   0.370   0.613   5.922  0.2023  0.5037 -0.0734
   29DOPE  H12R 3674   0.399   0.706   5.976 -0.5324  1.7165 -1.6826
   29DOPE  H12S 3675   0.283   0.633   5.857  0.5744  1.0730 -0.4114
   29DOPE  C213 3676   0.487   0.579   5.829  0.8150 -0.5423 -0.4931
   29DOPE  H13R 3677   0.456   0.492   5.765 -1.6036  0.7853 -1.2624
   29DOPE  H13S 3678   0.578   0.539   5.877  1.5434  0.7562 -0.7701
   29DOPE  C214 3679   0.528   0.689   5.736 -0.4129 -0.7841 -0.2956
   29DOPE  H14R 3680   0.454   0.747   5.676  0.2643  1.1025  0.6293
   29DOPE  H14S 3681   0.599   0.648   5.661  1.9293  1.3472  0.6567
   29DOPE  C215 3682   0.622   0.784   5.814 -0.1635 -0.0969  0.5400
   29DOPE  H15R 3683   0.682   0.715   5.877  0.2355  0.4890  0.8117
   29DOPE  H15S 3684   0.552   0.850   5.869 -0.0312  0.5184 -0.0114
   29DOPE  C216 3685   0.715   0.865   5.728  0.0563 -1.2689 -0.1061
   29DOPE  H16R 3686   0.652   0.920   5.654 -1.0185  0.3274  1.9026
   29DOPE  H16S 3687   0.791   0.795   5.686  0.5560 -0.8063  0.0150
   29DOPE  C217 3688   0.803   0.960   5.807 -0.0613 -0.7733 -0.0062
   29DOPE  H17R 3689   0.842   0.909   5.897  2.6686 -0.6381 -1.0336
   29DOPE  H17S 3690   0.734   1.042   5.837  0.6248 -0.8011  1.7782
   29DOPE  C218 3691   0.923   1.022   5.725  0.6266  0.5981  0.1758
   29DOPE  H18R 3692   0.890   1.085   5.639 -0.3993 -0.7024 -0.4242
   29DOPE  H18S 3693   0.992   0.939   5.698  0.3883  0.0853  1.0765
   29DOPE  H18T 3694   0.977   1.081   5.801  0.7446 -0.2555  0.7686
   29DOPE   C33 3695  -0.184   0.519   6.494 -0.1964 -0.0194  0.4633
   29DOPE   H3X 3696  -0.120   0.428   6.492 -0.7707 -0.4234 -0.1146
   29DOPE   H3Y 3697  -0.122   0.611   6.497 -0.4324  0.1628 -0.2107
   29DOPE   C34 3698  -0.277   0.516   6.372 -0.1225 -0.2829 -0.2725
   29DOPE   H4X 3699  -0.322   0.414   6.368 -0.8027  0.0309 -0.7944
   29DOPE   H4Y 3700  -0.354   0.592   6.393  1.1530  0.9096  0.2686
   29DOPE   C35 3701  -0.198   0.555   6.248  0.6169 -0.0434 -0.0553
   29DOPE   H5X 3702  -0.125   0.477   6.221 -0.1377 -0.0362 -2.2909
   29DOPE   H5Y 3703  -0.141   0.643   6.286  0.2345 -0.9605  2.9209
   29DOPE   C36 3704  -0.300   0.583   6.134  0.1513 -0.8249  0.2466
   29DOPE   H6X 3705  -0.389   0.641   6.166  0.1972  0.2733 -1.4969
   29DOPE   H6Y 3706  -0.336   0.481   6.107 -0.1618 -1.0127  1.3382
   29DOPE   C37 3707  -0.257   0.648   5.995  0.1109  0.0209 -0.5485
   29DOPE   H7X 3708  -0.241   0.758   5.999 -2.5466  0.5721 -2.5817
   29DOPE   H7Y 3709  -0.160   0.600   5.968  0.0903 -0.0059 -0.5729
   29DOPE   C38 3710  -0.362   0.607   5.879 -0.2340 -0.0351  0.1131
   29DOPE   H8X 3711  -0.354   0.499   5.856  0.7295  0.0163  0.1673
   29DOPE   H8Y 3712  -0.334   0.654   5.782  0.9136 -0.5227  0.1887
   29DOPE   C39 3713  -0.506   0.630   5.922 -0.6935 -0.0261 -0.0641
   29DOPE   H9X 3714  -0.533   0.591   6.021 -0.6232 -0.2134 -0.1189
   29DOPE  C310 3715  -0.608   0.675   5.847  0.2393 -0.0862 -0.1854
   29DOPE  H10X 3716  -0.703   0.681   5.902  1.5645 -0.1167  2.2203
   29DOPE  C311 3717  -0.604   0.723   5.707  1.2388  0.2131 -0.2000
   29DOPE  H11X 3718  -0.669   0.812   5.697  0.5372 -0.2970 -0.3208
   29DOPE  H11Y 3719  -0.504   0.755   5.671  0.4826  0.6427 -2.0428
   29DOPE  C312 3720  -0.664   0.615   5.611 -0.3439  0.0305  0.0888
   29DOPE  H12X 3721  -0.595   0.528   5.604  0.2199  0.3118  1.6918
   29DOPE  H12Y 3722  -0.679   0.646   5.506 -1.0378 -0.8399 -0.0877
   29DOPE  C313 3723  -0.800   0.545   5.652 -0.9795 -0.1502 -0.4125
   29DOPE  H13X 3724  -0.822   0.474   5.569  2.2602 -1.9413  0.0745
   29DOPE  H13Y 3725  -0.781   0.489   5.746 -0.0919 -0.5732 -0.8300
   29DOPE  C314 3726  -0.915   0.641   5.671 -0.5302  0.2382 -0.2094
   29DOPE  H14X 3727  -0.915   0.726   5.600  0.4559  0.3689 -0.0627
   29DOPE  H14Y 3728  -0.893   0.683   5.771  1.2222 -2.3790  0.6296
   29DOPE  C315 3729  -1.051   0.568   5.692 -0.3158 -0.3669 -0.0430
   29DOPE  H15X 3730  -1.029   0.484   5.762 -0.6115  1.0556  1.8384
   29DOPE  H15Y 3731  -1.091   0.527   5.597  0.1998  1.0280 -0.8917
   29DOPE  C316 3732  -1.162   0.652   5.743 -0.2793 -0.5587  0.2206
   29DOPE  H16X 3733  -1.176   0.741   5.677  0.3521 -0.0462  0.7657
   29DOPE  H16Y 3734  -1.116   0.690   5.836  0.2703 -1.4646  0.3332
   29DOPE  C317 3735  -1.277   0.566   5.776 -1.1057  0.1269 -0.2962
   29DOPE  H17X 3736  -1.314   0.529   5.678  1.8461 -1.3748 -0.9495
   29DOPE  H17Y 3737  -1.229   0.478   5.824  0.4320  1.0275 -0.1239
   29DOPE  C318 3738  -1.389   0.632   5.856  0.5406  0.0960 -1.3177
   29DOPE  H18X 3739  -1.435   0.713   5.796 -2.8533 -2.2939 -2.2168
   29DOPE  H18Y 3740  -1.465   0.552   5.871 -0.6383  1.6697  2.1032
   29DOPE  H18Z 3741  -1.355   0.669   5.955 -1.4541 -0.2478 -0.4479
   30DOPE     N 3742   1.076   6.020   7.691  0.2115 -0.7575  0.1765
   30DOPE   HN1 3743   1.011   6.092   7.730  3.6971  2.9611 -0.1920
   30DOPE   HN2 3744   1.056   5.929   7.737  0.9557 -0.4434  1.1691
   30DOPE   HN3 3745   1.171   6.047   7.723  0.2188 -0.1672 -0.3181
   30DOPE   C12 3746   1.063   6.007   7.544 -0.2059 -0.1633 -1.1112
   30DOPE  H12A 3747   0.976   5.941   7.527 -1.3622  0.7611  0.9022
   30DOPE  H12B 3748   1.159   5.966   7.506  0.2582 -0.2007  0.0777
   30DOPE   C11 3749   1.044   6.134   7.466 -0.3262 -0.1497 -0.5671
   30DOPE  H11A 3750   1.045   6.122   7.355 -2.3972 -0.1657 -0.6128
   30DOPE  H11B 3751   1.138   6.191   7.486 -0.3712 -1.3240  3.9244
   30DOPE     P 3752   0.795   6.198   7.477  0.4893  0.2668  0.1204
   30DOPE   O13 3753   0.713   6.317   7.518  0.8225 -0.1606  0.1224
   30DOPE   O14 3754   0.755   6.069   7.542  0.0523 -0.3050  0.3592
   30DOPE   O11 3755   0.802   6.188   7.316 -0.0252  0.4495 -0.0639
   30DOPE   O12 3756   0.947   6.225   7.526  0.6722 -0.5433 -0.4060
   30DOPE    C1 3757   0.837   6.302   7.240 -0.4521 -0.9162  0.6871
   30DOPE    HA 3758   0.891   6.273   7.148 -1.2949  0.5686 -0.3200
   30DOPE    HB 3759   0.911   6.370   7.287  1.5124 -3.1108  0.9444
   30DOPE    C2 3760   0.706   6.383   7.194 -0.2340  0.0674  0.5144
   30DOPE    HS 3761   0.640   6.351   7.277  0.6514 -2.7060  0.2726
   30DOPE   O21 3762   0.659   6.339   7.063  0.4994  0.2816 -0.1267
   30DOPE   C21 3763   0.532   6.345   7.049  1.0119 -0.1850 -0.0221
   30DOPE   O22 3764   0.453   6.393   7.132  0.4057  0.5415 -0.2533
   30DOPE   C22 3765   0.487   6.303   6.909 -0.5284  0.3947 -0.8301
   30DOPE   H2R 3766   0.580   6.289   6.850  0.9251  0.5881  1.2935
   30DOPE   H2S 3767   0.430   6.392   6.875 -0.4132 -0.2728 -2.9275
   30DOPE    C3 3768   0.733   6.534   7.178 -0.4542  0.0229 -0.2439
   30DOPE    HX 3769   0.796   6.573   7.095  0.9823  3.6863  2.2762
   30DOPE    HY 3770   0.804   6.555   7.261  0.4371 -0.8464 -0.7627
   30DOPE   O31 3771   0.613   6.610   7.201 -0.2358  0.0244  0.2360
   30DOPE   C31 3772   0.560   6.657   7.088  0.3254 -0.1271 -0.6582
   30DOPE   O32 3773   0.597   6.639   6.974 -0.6894 -0.4632 -0.1249
   30DOPE   C32 3774   0.425   6.727   7.125  0.4998  0.5970  0.3851
   30DOPE   H2X 3775   0.367   6.649   7.179  1.9653  0.0332  1.1767
   30DOPE   H2Y 3776   0.450   6.804   7.200  1.1040  1.5436 -0.7551
   30DOPE   C23 3777   0.411   6.168   6.915  0.3786 -0.3294  0.4757
   30DOPE   H3R 3778   0.330   6.177   6.991  0.9810  2.0164  0.9149
   30DOPE   H3S 3779   0.473   6.078   6.936  0.7116  0.0473  1.1367
   30DOPE   C24 3780   0.336   6.143   6.783  0.0924  0.3571 -0.0848
   30DOPE   H4R 3781   0.407   6.159   6.700  0.6838  1.6930  0.6469
   30DOPE   H4S 3782   0.248   6.209   6.764  1.5406  2.0737 -1.2099
   30DOPE   C25 3783   0.273   5.999   6.789  0.9592  0.0411  0.0921
   30DOPE   H5R 3784   0.226   5.981   6.888 -2.2828 -1.1339 -1.5066
   30DOPE   H5S 3785   0.361   5.932   6.780  0.7105 -0.5237  1.5765
   30DOPE   C26 3786   0.164   5.974   6.692  0.1944 -0.2864  0.3727
   30DOPE   H6R 3787   0.129   5.870   6.709  0.1364  0.0331  2.4039
   30DOPE   H6S 3788   0.194   5.983   6.585 -0.0378  1.2421  0.4073
   30DOPE   C27 3789   0.039   6.062   6.716  0.6727 -0.2287  0.2162
   30DOPE   H7R 3790   0.066   6.170   6.718  0.3494 -0.1143 -0.8770
   30DOPE   H7S 3791  -0.001   6.038   6.817  0.2093  1.5830  0.4955
   30DOPE   C28 3792  -0.077   6.039   6.620 -0.5610 -0.5570  0.8922
   30DOPE   H8R 3793  -0.166   6.070   6.680 -1.1104 -0.7404  0.1847
   30DOPE   H8S 3794  -0.099   5.933   6.597 -0.1538 -0.8861  1.9768
   30DOPE   C29 3795  -0.070   6.126   6.498 -0.0318 -0.1565  0.5489
   30DOPE   H9R 3796  -0.102   6.230   6.514 -2.0425 -1.0439  3.0524
   30DOPE  C210 3797  -0.029   6.088   6.372 -0.0933 -0.2236  0.1534
   30DOPE  H10R 3798  -0.012   6.167   6.298 -1.2170  0.7529  0.9082
   30DOPE  C211 3799   0.020   5.951   6.332 -0.6951  0.5560 -0.2917
   30DOPE  H11R 3800   0.061   5.893   6.417  2.0929  1.1386 -1.1363
   30DOPE  H11S 3801   0.104   5.965   6.260 -0.8119  1.0336 -0.3390
   30DOPE  C212 3802  -0.080   5.854   6.253  0.2905 -0.1917 -0.0939
   30DOPE  H12R 3803  -0.148   5.800   6.322 -0.4354  1.8377  0.8931
   30DOPE  H12S 3804  -0.007   5.780   6.214  0.6210 -0.9321  1.7918
   30DOPE  C213 3805  -0.157   5.933   6.142  0.0695 -0.0863 -0.1616
   30DOPE  H13R 3806  -0.098   6.019   6.105  0.6126 -0.7334 -0.8482
   30DOPE  H13S 3807  -0.245   5.978   6.193 -2.0684 -1.8967 -2.0070
   30DOPE  C214 3808  -0.193   5.843   6.029 -0.4483 -0.3640 -0.2486
   30DOPE  H14R 3809  -0.103   5.783   6.006 -0.8128 -0.8529 -0.4238
   30DOPE  H14S 3810  -0.205   5.904   5.937 -0.1223  0.9171  0.5309
   30DOPE  C215 3811  -0.321   5.763   6.066  0.0767  0.1474 -0.0263
   30DOPE  H15R 3812  -0.401   5.830   6.105 -0.2593 -0.6159  0.6456
   30DOPE  H15S 3813  -0.288   5.702   6.153 -0.2427  2.7551  2.0322
   30DOPE  C216 3814  -0.364   5.675   5.949  0.0011 -0.2906  0.0087
   30DOPE  H16R 3815  -0.390   5.737   5.860  1.5885 -0.3480 -0.5210
   30DOPE  H16S 3816  -0.459   5.625   5.977  0.2499  0.1479  1.7058
   30DOPE  C217 3817  -0.251   5.579   5.901  0.0449  0.0312  0.7924
   30DOPE  H17R 3818  -0.175   5.640   5.847  0.1587  0.4019  1.3634
   30DOPE  H17S 3819  -0.305   5.517   5.826  1.3975 -0.0745 -0.1311
   30DOPE  C218 3820  -0.193   5.487   6.003 -0.4610  0.1771 -0.9317
   30DOPE  H18R 3821  -0.123   5.412   5.960  0.5461  0.5079  0.0558
   30DOPE  H18S 3822  -0.276   5.436   6.056  0.0200  0.4417  0.1180
   30DOPE  H18T 3823  -0.143   5.539   6.088 -0.3413 -0.6190 -0.5048
   30DOPE   C33 3824   0.346   6.801   7.008 -0.0366 -0.0672  0.2784
   30DOPE   H3X 3825   0.254   6.844   7.052 -0.4801  0.5306 -1.1847
   30DOPE   H3Y 3826   0.306   6.739   6.925  1.2524 -1.2327  0.4867
   30DOPE   C34 3827   0.427   6.925   6.956  0.4079  0.0842 -0.3863
   30DOPE   H4X 3828   0.430   6.996   7.041  0.6674  1.0473 -1.1850
   30DOPE   H4Y 3829   0.531   6.905   6.920  0.5728 -0.1177  0.2001
   30DOPE   C35 3830   0.353   6.993   6.839  0.6790 -0.0483 -0.0258
   30DOPE   H5X 3831   0.408   7.085   6.813 -1.2014  1.5417  1.3130
   30DOPE   H5Y 3832   0.248   7.022   6.864  0.5918 -0.6055  0.2783
   30DOPE   C36 3833   0.348   6.900   6.711  0.2019  0.1973  0.4456
   30DOPE   H6X 3834   0.280   6.813   6.717 -0.2216  0.3274 -1.5658
   30DOPE   H6Y 3835   0.452   6.866   6.693 -0.7168 -1.3569 -2.7987
   30DOPE   C37 3836   0.323   6.971   6.581  0.2815  0.1427  0.7378
   30DOPE   H7X 3837   0.228   7.029   6.580  0.4400  0.4100 -0.4648
   30DOPE   H7Y 3838   0.403   7.048   6.579  0.4439 -0.0122  1.1544
   30DOPE   C38 3839   0.330   6.884   6.445 -0.4214 -0.1263  0.4244
   30DOPE   H8X 3840   0.266   6.795   6.460  0.2806 -0.5919  0.7234
   30DOPE   H8Y 3841   0.434   6.852   6.421 -0.6755  0.9577 -2.4482
   30DOPE   C39 3842   0.287   6.974   6.331  0.2380 -0.0557 -0.3268
   30DOPE   H9X 3843   0.245   7.071   6.360  1.7327 -0.1144  2.3803
   30DOPE  C310 3844   0.250   6.933   6.210  0.3401  0.0734  0.4948
   30DOPE  H10X 3845   0.212   7.004   6.134  0.2931 -0.9613 -0.4687
   30DOPE  C311 3846   0.254   6.792   6.163 -0.2650 -0.1718 -0.0907
   30DOPE  H11X 3847   0.302   6.720   6.233  1.8562 -0.3390 -1.6125
   30DOPE  H11Y 3848   0.157   6.741   6.142 -0.6435  1.3094 -2.2634
   30DOPE  C312 3849   0.337   6.781   6.037 -0.2580  0.0858  0.5808
   30DOPE  H12X 3850   0.351   6.672   6.026  1.1948  0.2891  0.1674
   30DOPE  H12Y 3851   0.432   6.840   6.037  0.0954 -0.3918 -1.5967
   30DOPE  C313 3852   0.263   6.838   5.912 -0.2305  0.3333 -0.0824
   30DOPE  H13X 3853   0.167   6.783   5.899 -0.1868  0.3944 -0.7004
   30DOPE  H13Y 3854   0.226   6.941   5.928 -0.7096  0.0199  0.9231
   30DOPE  C314 3855   0.353   6.818   5.788 -0.2718  0.4457 -0.0133
   30DOPE  H14X 3856   0.369   6.709   5.772  1.9300  0.6416  0.6216
   30DOPE  H14Y 3857   0.453   6.858   5.814  1.3843 -1.7192 -2.5382
   30DOPE  C315 3858   0.281   6.868   5.667 -0.3692  0.0920 -0.5204
   30DOPE  H15X 3859   0.263   6.975   5.694  1.7660  0.1839  0.7740
   30DOPE  H15Y 3860   0.186   6.813   5.652 -0.3289 -0.7097  1.6864
   30DOPE  C316 3861   0.359   6.856   5.536 -0.1658 -0.1959 -0.1649
   30DOPE  H16X 3862   0.304   6.890   5.445  2.6731  2.6316 -0.9921
   30DOPE  H16Y 3863   0.408   6.757   5.529 -0.8979 -0.6100  0.4740
   30DOPE  C317 3864   0.481   6.960   5.542 -0.4705  0.2474  0.5670
   30DOPE  H17X 3865   0.454   7.065   5.567  1.9001  0.8977  0.6284
   30DOPE  H17Y 3866   0.551   6.927   5.623  0.8668  0.3949 -0.4964
   30DOPE  C318 3867   0.557   6.972   5.405 -0.1813 -0.4796  0.2131
   30DOPE  H18X 3868   0.606   6.882   5.363  0.8692  0.1038  0.1422
   30DOPE  H18Y 3869   0.489   7.006   5.323 -0.1253  3.1631  1.5125
   30DOPE  H18Z 3870   0.639   7.047   5.400  1.6143 -2.4383 -2.2099
   31DOPE     N 3871   2.456   3.919   2.736  0.3155 -0.6502  0.0564
   31DOPE   HN1 3872   2.509   3.857   2.672 -1.0292 -0.6496 -1.1158
   31DOPE   HN2 3873   2.355   3.898   2.717  0.4786  0.4408 -2.3029
   31DOPE   HN3 3874   2.470   4.018   2.708  0.8830 -1.3155 -2.1932
   31DOPE   C12 3875   2.496   3.892   2.882  0.0367 -0.4592  0.7325
   31DOPE  H12A 3876   2.447   3.798   2.912 -0.6518 -0.3806 -0.1222
   31DOPE  H12B 3877   2.450   3.975   2.939  0.5579 -0.2154  0.8106
   31DOPE   C11 3878   2.648   3.891   2.899 -0.0481  0.3482 -0.1411
   31DOPE  H11A 3879   2.666   3.858   3.003  0.0765 -0.0732 -0.2977
   31DOPE  H11B 3880   2.694   3.990   2.879  0.3525  0.3976  0.9603
   31DOPE     P 3881   2.777   3.658   2.839  0.2870 -0.5195 -0.0357
   31DOPE   O13 3882   2.924   3.670   2.832  0.0338 -0.0993  0.3317
   31DOPE   O14 3883   2.706   3.566   2.750 -0.3302 -0.2805  0.7874
   31DOPE   O11 3884   2.748   3.626   2.985  0.0208 -0.4621  0.2854
   31DOPE   O12 3885   2.714   3.803   2.803 -0.5209 -0.1917  0.1700
   31DOPE    C1 3886   2.764   3.503   3.039  0.9449  0.8196  0.1478
   31DOPE    HA 3887   2.851   3.442   3.007 -1.4504 -2.8410 -0.0607
   31DOPE    HB 3888   2.679   3.439   3.008  0.3148  0.0413  3.1251
   31DOPE    C2 3889   2.764   3.521   3.193  0.1537 -0.0609  0.3889
   31DOPE    HS 3890   2.863   3.553   3.230 -0.6682  0.2420  2.4702
   31DOPE   O21 3891   2.719   3.397   3.249  0.0022 -0.1988 -0.3781
   31DOPE   C21 3892   2.812   3.291   3.252 -0.1944 -0.7511 -0.4792
   31DOPE   O22 3893   2.932   3.311   3.232  0.3921  0.1926 -0.2397
   31DOPE   C22 3894   2.748   3.151   3.263 -0.0377 -0.2444  0.5748
   31DOPE   H2R 3895   2.709   3.134   3.161  1.0372 -1.5394  0.3542
   31DOPE   H2S 3896   2.656   3.154   3.325 -1.1525 -0.3556 -1.0103
   31DOPE    C3 3897   2.671   3.639   3.242 -0.1555 -0.1984  0.5953
   31DOPE    HX 3898   2.571   3.605   3.207  0.2728  1.2397 -2.2770
   31DOPE    HY 3899   2.689   3.737   3.195  0.0039 -1.2109 -1.5354
   31DOPE   O31 3900   2.675   3.646   3.388 -0.4486  0.8881 -0.4544
   31DOPE   C31 3901   2.569   3.681   3.443  0.3003 -0.2431 -0.3950
   31DOPE   O32 3902   2.465   3.720   3.381 -0.4984 -0.7506 -0.7487
   31DOPE   C32 3903   2.581   3.679   3.597  0.1488 -0.0198 -0.3043
   31DOPE   H2X 3904   2.642   3.589   3.621  2.9029  1.3601 -1.5651
   31DOPE   H2Y 3905   2.632   3.770   3.636 -2.8409  1.4695  0.3743
   31DOPE   C23 3906   2.830   3.034   3.300 -0.0378  0.2711 -0.0807
   31DOPE   H3R 3907   2.935   3.056   3.272 -0.6407  3.0556 -0.4716
   31DOPE   H3S 3908   2.793   2.943   3.249 -0.3749 -0.3953  1.3188
   31DOPE   C24 3909   2.814   2.985   3.444  0.4372  0.0594  0.3198
   31DOPE   H4R 3910   2.852   2.880   3.441 -1.0452 -0.5012  0.0890
   31DOPE   H4S 3911   2.703   2.975   3.446  0.2401  1.7888 -0.1440
   31DOPE   C25 3912   2.870   3.075   3.556 -0.8061 -1.0064 -0.0232
   31DOPE   H5R 3913   2.809   3.168   3.545  0.6386  0.0146  0.3552
   31DOPE   H5S 3914   2.974   3.100   3.528 -1.3313  0.9268 -0.4012
   31DOPE   C26 3915   2.869   3.014   3.693 -0.0251 -0.5261 -0.1320
   31DOPE   H6R 3916   2.920   2.915   3.697  0.5803 -0.3480 -2.2120
   31DOPE   H6S 3917   2.763   3.000   3.723 -0.1725  0.2167 -0.2812
   31DOPE   C27 3918   2.927   3.101   3.804  0.2630  0.1042 -0.4300
   31DOPE   H7R 3919   2.862   3.190   3.807  1.3087  0.9709 -1.9454
   31DOPE   H7S 3920   3.034   3.129   3.791  0.4489  0.0686  0.9121
   31DOPE   C28 3921   2.903   3.041   3.946  0.3955 -0.1506  0.1519
   31DOPE   H8R 3922   2.795   3.024   3.963  0.7716 -2.4506  0.5655
   31DOPE   H8S 3923   2.934   3.111   4.026  0.0028  1.4122 -1.0065
   31DOPE   C29 3924   2.968   2.903   3.970  0.3208  0.2085 -0.4386
   31DOPE   H9R 3925   3.071   2.906   3.931 -0.5910 -1.9619 -3.3903
   31DOPE  C210 3926   2.913   2.804   4.046  0.3944 -0.7736  0.9253
   31DOPE  H10R 3927   2.975   2.714   4.062 -1.2431 -2.4912 -1.6819
   31DOPE  C211 3928   2.782   2.795   4.123 -0.2781 -0.3468  0.2489
   31DOPE  H11R 3929   2.760   2.687   4.140  0.2792 -0.5428 -0.2523
   31DOPE  H11S 3930   2.698   2.823   4.056  0.4051  0.7974 -0.1630
   31DOPE  C212 3931   2.761   2.875   4.247  0.4443 -0.1216  0.4911
   31DOPE  H12R 3932   2.658   2.846   4.278  0.1137 -0.2800 -0.6932
   31DOPE  H12S 3933   2.738   2.983   4.231 -3.3606 -0.8910 -0.4105
   31DOPE  C213 3934   2.862   2.851   4.353  0.0898  0.1947  0.6459
   31DOPE  H13R 3935   2.968   2.874   4.325  0.0021  0.7808  0.7934
   31DOPE  H13S 3936   2.858   2.744   4.382 -2.5542  0.0299 -0.0677
   31DOPE  C214 3937   2.827   2.935   4.476 -0.4200  1.0206 -0.4149
   31DOPE  H14R 3938   2.731   2.897   4.516  0.5665  0.3917  1.4970
   31DOPE  H14S 3939   2.819   3.038   4.434  1.2009  2.8187  3.1958
   31DOPE  C215 3940   2.935   2.933   4.591  0.2912  0.0495  0.2355
   31DOPE  H15R 3941   2.885   2.982   4.677 -1.0036 -0.7119 -0.0594
   31DOPE  H15S 3942   3.023   2.995   4.564  1.3203 -1.6797 -0.6133
   31DOPE  C216 3943   2.968   2.786   4.627  0.4661  0.5923  0.1909
   31DOPE  H16R 3944   3.031   2.750   4.543 -1.0793  1.2976 -1.3572
   31DOPE  H16S 3945   2.871   2.732   4.634  0.4585  0.2303 -1.9333
   31DOPE  C217 3946   3.030   2.760   4.770  0.1413  0.4327  0.9925
   31DOPE  H17R 3947   3.046   2.650   4.767 -1.8168  0.1274 -0.4495
   31DOPE  H17S 3948   2.959   2.783   4.853 -1.2418 -0.0295 -0.0238
   31DOPE  C218 3949   3.152   2.846   4.798 -0.4550  0.5470  0.2354
   31DOPE  H18R 3950   3.130   2.950   4.832  1.7721  1.5578 -1.1648
   31DOPE  H18S 3951   3.218   2.857   4.709 -0.1888  0.6076  0.4371
   31DOPE  H18T 3952   3.219   2.801   4.875 -1.7667  0.5662  1.4381
   31DOPE   C33 3953   2.454   3.676   3.677  0.6704  0.1965 -0.7020
   31DOPE   H3X 3954   2.403   3.582   3.645  1.0209  0.0498 -0.8456
   31DOPE   H3Y 3955   2.393   3.765   3.654  3.0147  2.1927  0.3745
   31DOPE   C34 3956   2.479   3.673   3.832  0.0488  0.5481  0.3153
   31DOPE   H4X 3957   2.552   3.593   3.854 -0.2681  0.7033  2.0981
   31DOPE   H4Y 3958   2.523   3.769   3.869 -1.1052  0.7493  1.2388
   31DOPE   C35 3959   2.346   3.649   3.904 -0.0890  0.8183  0.3977
   31DOPE   H5X 3960   2.306   3.563   3.847  0.9692 -0.6882  1.8132
   31DOPE   H5Y 3961   2.278   3.735   3.885 -0.7262  0.1807 -0.2601
   31DOPE   C36 3962   2.354   3.609   4.056 -0.8019  0.1590 -0.5973
   31DOPE   H6X 3963   2.398   3.695   4.111 -3.6434  3.1021 -2.5714
   31DOPE   H6Y 3964   2.429   3.529   4.075 -0.2364  0.9133  0.4591
   31DOPE   C37 3965   2.218   3.585   4.114  0.2689 -0.5741  0.6847
   31DOPE   H7X 3966   2.148   3.654   4.064  2.6276  3.0168  1.9462
   31DOPE   H7Y 3967   2.181   3.486   4.078 -0.9926 -0.0489  0.4973
   31DOPE   C38 3968   2.217   3.599   4.264  0.0203 -0.2277  0.0905
   31DOPE   H8X 3969   2.204   3.706   4.294 -0.5278 -0.0464 -0.7808
   31DOPE   H8Y 3970   2.309   3.566   4.316  1.1180  2.7365  0.2620
   31DOPE   C39 3971   2.100   3.532   4.326  0.1164 -0.1839  0.3831
   31DOPE   H9X 3972   2.014   3.558   4.263  0.8462 -0.6873 -0.8344
   31DOPE  C310 3973   2.082   3.451   4.433  0.5556 -0.2934 -0.0067
   31DOPE  H10X 3974   1.981   3.406   4.435 -0.2359  1.3179 -1.0708
   31DOPE  C311 3975   2.178   3.398   4.532  0.5225  0.6717 -0.2678
   31DOPE  H11X 3976   2.158   3.290   4.546 -0.7583  0.6529 -1.9782
   31DOPE  H11Y 3977   2.282   3.426   4.504  1.2255 -0.8117  0.7366
   31DOPE  C312 3978   2.169   3.470   4.669  0.9639  0.1592 -0.7167
   31DOPE  H12X 3979   2.070   3.456   4.717  1.7905 -0.1303  0.9963
   31DOPE  H12Y 3980   2.167   3.579   4.648 -2.3271 -0.4678 -4.7650
   31DOPE  C313 3981   2.284   3.429   4.764  0.0133  0.8086  0.3753
   31DOPE  H13X 3982   2.291   3.320   4.779  2.0880  1.1031  1.9481
   31DOPE  H13Y 3983   2.377   3.465   4.715 -0.4991 -0.6509 -1.8055
   31DOPE  C314 3984   2.257   3.475   4.905  0.3678  0.3298  0.0489
   31DOPE  H14X 3985   2.157   3.433   4.932  0.7281  0.6141  1.9896
   31DOPE  H14Y 3986   2.260   3.586   4.902  2.1982  0.2863 -1.0684
   31DOPE  C315 3987   2.365   3.414   4.996 -0.0313 -0.8420 -0.9650
   31DOPE  H15X 3988   2.467   3.454   4.981  0.0737 -0.8850 -0.3521
   31DOPE  H15Y 3989   2.359   3.304   4.986 -2.9445 -0.7523 -1.0659
   31DOPE  C316 3990   2.331   3.428   5.151  0.5437  0.3115 -0.4745
   31DOPE  H16X 3991   2.413   3.373   5.203  0.8199  1.7622  0.6878
   31DOPE  H16Y 3992   2.231   3.387   5.178 -0.0244  1.5621 -0.6063
   31DOPE  C317 3993   2.338   3.564   5.220 -0.4321 -0.2779 -0.3199
   31DOPE  H17X 3994   2.438   3.610   5.207  0.8673 -2.5573  0.9908
   31DOPE  H17Y 3995   2.253   3.628   5.187  1.0918  1.8051 -0.4088
   31DOPE  C318 3996   2.331   3.546   5.369  0.7416  0.2440  0.1621
   31DOPE  H18X 3997   2.337   3.644   5.420  1.1343  0.7670 -0.8625
   31DOPE  H18Y 3998   2.237   3.492   5.392  0.4728  1.4867  2.1541
   31DOPE  H18Z 3999   2.416   3.480   5.396 -0.4508 -1.2326  0.4491
   32DOPE     N 4000   4.702   3.312   2.270 -0.0667 -0.4071 -0.3148
   32DOPE   HN1 4001   4.752   3.234   2.316 -1.7494 -1.8480 -0.8322
   32DOPE   HN2 4002   4.759   3.397   2.289 -1.0091  0.1244  0.1940
   32DOPE   HN3 4003   4.611   3.324   2.319  0.1412 -0.2220  0.0245
   32DOPE   C12 4004   4.676   3.294   2.126  0.8319  0.2303 -0.0854
   32DOPE  H12A 4005   4.609   3.206   2.111 -0.4489  1.1950 -0.1268
   32DOPE  H12B 4006   4.770   3.264   2.074  0.1826 -1.3325 -0.4313
   32DOPE   C11 4007   4.610   3.417   2.062 -0.4952 -0.3712  0.0432
   32DOPE  H11A 4008   4.631   3.405   1.954 -4.1925  1.0993 -0.9997
   32DOPE  H11B 4009   4.658   3.515   2.087 -0.5843 -0.6002  1.2048
   32DOPE     P 4010   4.374   3.469   2.180  0.5410  0.0248  0.2388
   32DOPE   O13 4011   4.241   3.405   2.165 -0.0311 -0.0515 -0.8707
   32DOPE   O14 4012   4.383   3.614   2.178 -0.1754 -0.2846 -0.0530
   32DOPE   O11 4013   4.448   3.408   2.299  0.4626  0.4918 -0.2440
   32DOPE   O12 4014   4.463   3.419   2.061  0.2261 -0.0787 -0.3253
   32DOPE    C1 4015   4.461   3.490   2.415  0.6885 -0.5633  0.0210
   32DOPE    HA 4016   4.376   3.560   2.424  0.0800 -1.4075  1.0390
   32DOPE    HB 4017   4.552   3.553   2.409 -0.5329  1.2720  0.1867
   32DOPE    C2 4018   4.459   3.413   2.556 -0.7166  0.4046  0.1399
   32DOPE    HS 4019   4.561   3.370   2.558 -1.1769 -0.7488 -0.4971
   32DOPE   O21 4020   4.352   3.320   2.575  0.4337 -0.0933  0.1211
   32DOPE   C21 4021   4.389   3.194   2.520  0.2563  0.6267 -0.6100
   32DOPE   O22 4022   4.491   3.170   2.464 -0.3890 -0.0585 -0.1078
   32DOPE   C22 4023   4.286   3.086   2.529 -0.4154 -0.1610  0.3470
   32DOPE   H2R 4024   4.276   3.054   2.423 -0.9053 -0.5168  0.4946
   32DOPE   H2S 4025   4.191   3.133   2.563 -0.9343  0.1617 -1.4546
   32DOPE    C3 4026   4.449   3.521   2.665  0.1696  0.1323 -0.1565
   32DOPE    HX 4027   4.350   3.570   2.659 -0.9192 -1.4559  3.0477
   32DOPE    HY 4028   4.526   3.599   2.645  0.5500 -0.3757 -0.7371
   32DOPE   O31 4029   4.474   3.467   2.797 -0.0315 -0.6642 -0.3176
   32DOPE   C31 4030   4.374   3.424   2.865 -0.8033  0.2129 -0.2803
   32DOPE   O32 4031   4.258   3.435   2.837 -0.4430 -0.5662  0.3358
   32DOPE   C32 4032   4.418   3.356   2.994  0.5468  0.8707 -0.5519
   32DOPE   H2X 4033   4.465   3.260   2.962 -1.0918 -0.1589  0.0112
   32DOPE   H2Y 4034   4.508   3.412   3.028  0.7277 -0.9238  2.2436
   32DOPE   C23 4035   4.319   2.957   2.605  0.6127 -0.2399  0.2127
   32DOPE   H3R 4036   4.409   2.901   2.572  0.5395 -1.9092  2.5553
   32DOPE   H3S 4037   4.231   2.890   2.589  0.6110 -0.7275  1.9579
   32DOPE   C24 4038   4.327   2.983   2.759  0.7651  0.1483 -0.0366
   32DOPE   H4R 4039   4.250   3.060   2.783 -0.3789 -0.9639  0.0026
   32DOPE   H4S 4040   4.428   3.017   2.787  2.4501 -2.2370 -2.6914
   32DOPE   C25 4041   4.289   2.869   2.854 -0.0407  0.5575  1.0321
   32DOPE   H5R 4042   4.353   2.781   2.830 -1.6996 -0.4699  0.1492
   32DOPE   H5S 4043   4.186   2.844   2.820  0.4390 -0.8933  0.5530
   32DOPE   C26 4044   4.299   2.901   3.004 -0.2304 -1.2021  0.1971
   32DOPE   H6R 4045   4.234   2.987   3.028 -1.3794 -1.6487 -1.1861
   32DOPE   H6S 4046   4.400   2.942   3.027 -0.1555  0.8436 -3.1240
   32DOPE   C27 4047   4.266   2.781   3.098  0.3464 -0.0349  0.4000
   32DOPE   H7R 4048   4.341   2.700   3.086  2.1114  1.7818 -1.9753
   32DOPE   H7S 4049   4.168   2.747   3.059  0.7251  1.3043 -1.9603
   32DOPE   C28 4050   4.248   2.824   3.245  0.1749 -0.1063 -0.3955
   32DOPE   H8R 4051   4.229   2.729   3.299 -1.5403  1.4506  1.9221
   32DOPE   H8S 4052   4.159   2.889   3.259 -0.1862 -0.4266 -1.1369
   32DOPE   C29 4053   4.380   2.884   3.298  0.0842  0.4459  0.2141
   32DOPE   H9R 4054   4.422   2.953   3.223  1.5873 -0.8589 -0.1882
   32DOPE  C210 4055   4.443   2.856   3.411 -0.1030 -0.1546  0.1134
   32DOPE  H10R 4056   4.529   2.921   3.434 -1.0886  1.4722 -0.6104
   32DOPE  C211 4057   4.397   2.756   3.517 -0.4823 -0.2035 -0.0448
   32DOPE  H11R 4058   4.290   2.729   3.510 -0.1224 -1.6649 -0.2692
   32DOPE  H11S 4059   4.405   2.800   3.619 -1.4904 -0.0079 -0.0473
   32DOPE  C212 4060   4.477   2.626   3.505 -0.0679  0.9258 -0.0332
   32DOPE  H12R 4061   4.464   2.592   3.400  0.6555  0.9495 -0.1357
   32DOPE  H12S 4062   4.438   2.552   3.578 -0.8537  1.3501 -0.0160
   32DOPE  C213 4063   4.623   2.649   3.535 -0.0677 -0.0342 -1.1351
   32DOPE  H13R 4064   4.678   2.720   3.469  1.9450 -0.9869 -0.5568
   32DOPE  H13S 4065   4.673   2.551   3.517 -0.1450 -0.2225 -0.3587
   32DOPE  C214 4066   4.651   2.696   3.683  0.3320 -0.0527  0.0932
   32DOPE  H14R 4067   4.599   2.789   3.715  2.4281  0.5399  2.0297
   32DOPE  H14S 4068   4.757   2.726   3.698  0.2709  0.1242  0.1803
   32DOPE  C215 4069   4.607   2.599   3.798  0.1627 -0.4398  0.4640
   32DOPE  H15R 4070   4.645   2.500   3.767 -1.5323 -0.4761 -1.8276
   32DOPE  H15S 4071   4.496   2.608   3.795  0.2148  0.0262 -1.8644
   32DOPE  C216 4072   4.651   2.650   3.930  0.2586  0.4466 -0.2250
   32DOPE  H16R 4073   4.671   2.758   3.914  0.3653  0.3802 -0.5464
   32DOPE  H16S 4074   4.748   2.604   3.959 -0.0244  0.5155  0.8678
   32DOPE  C217 4075   4.556   2.623   4.039  0.8377 -0.0938  0.3788
   32DOPE  H17R 4076   4.534   2.515   4.051 -0.7385 -0.0502 -1.5975
   32DOPE  H17S 4077   4.462   2.681   4.033  1.1334  0.5996  1.9014
   32DOPE  C218 4078   4.610   2.674   4.168 -0.4529 -0.7785 -0.5929
   32DOPE  H18R 4079   4.534   2.686   4.249 -0.0512  0.0724 -0.3364
   32DOPE  H18S 4080   4.641   2.780   4.160 -3.8689  0.7463  2.8119
   32DOPE  H18T 4081   4.690   2.606   4.203  0.7683  0.9469  0.1245
   32DOPE   C33 4082   4.312   3.333   3.108  0.0956 -0.1429 -0.5855
   32DOPE   H3X 4083   4.237   3.255   3.080 -0.0193  0.0221 -0.7404
   32DOPE   H3Y 4084   4.256   3.427   3.125 -1.3589 -1.0853  0.1103
   32DOPE   C34 4085   4.369   3.304   3.250  1.2056 -0.1215 -0.8652
   32DOPE   H4X 4086   4.412   3.202   3.240  0.7060 -0.2862 -1.3959
   32DOPE   H4Y 4087   4.456   3.366   3.282 -0.4052  2.2376 -0.7417
   32DOPE   C35 4088   4.259   3.293   3.360  0.0241  0.5956 -0.0981
   32DOPE   H5X 4089   4.180   3.246   3.297 -0.1395  2.3441 -1.2754
   32DOPE   H5Y 4090   4.221   3.390   3.399 -2.6271 -0.4114  0.0582
   32DOPE   C36 4091   4.303   3.199   3.474  0.3115  0.5543  0.3454
   32DOPE   H6X 4092   4.384   3.133   3.437  0.0485 -0.4461  1.4763
   32DOPE   H6Y 4093   4.223   3.123   3.493 -2.3305  2.6157 -1.7337
   32DOPE   C37 4094   4.349   3.258   3.605  0.6966 -0.0378  0.2437
   32DOPE   H7X 4095   4.426   3.336   3.586  0.7351 -0.6527 -2.6593
   32DOPE   H7Y 4096   4.267   3.309   3.660  0.9114  0.1889  0.3580
   32DOPE   C38 4097   4.418   3.162   3.705 -0.3083 -0.4134  0.2884
   32DOPE   H8X 4098   4.471   3.232   3.773  0.5245  1.0113 -1.7361
   32DOPE   H8Y 4099   4.498   3.107   3.651  0.2467  0.0523  0.6227
   32DOPE   C39 4100   4.310   3.083   3.776 -0.4094  0.3557 -0.2744
   32DOPE   H9X 4101   4.222   3.074   3.710  0.7853 -1.2472 -1.7567
   32DOPE  C310 4102   4.304   3.029   3.897 -0.2846 -0.0457  0.0050
   32DOPE  H10X 4103   4.218   2.967   3.929 -0.1280  0.2667  1.0782
   32DOPE  C311 4104   4.413   3.044   3.999  0.0611  0.3374  0.3017
   32DOPE  H11X 4105   4.457   2.949   4.037 -3.2517 -0.7006  1.8437
   32DOPE  H11Y 4106   4.492   3.106   3.951 -0.3587  1.7849  1.4318
   32DOPE  C312 4107   4.360   3.130   4.113 -0.8162  0.2577  1.0264
   32DOPE  H12X 4108   4.297   3.214   4.077  1.2920  1.6166  0.3283
   32DOPE  H12Y 4109   4.442   3.189   4.159  1.3668 -2.4023  0.8066
   32DOPE  C313 4110   4.281   3.042   4.218  0.0567 -0.1342  0.0954
   32DOPE  H13X 4111   4.179   3.024   4.176  0.6737 -0.0931 -1.4925
   32DOPE  H13Y 4112   4.331   2.943   4.225  0.3336 -0.0638 -0.8065
   32DOPE  C314 4113   4.279   3.097   4.362 -0.2486 -0.3855  0.1149
   32DOPE  H14X 4114   4.216   3.188   4.369  0.2740  0.1850 -1.7889
   32DOPE  H14Y 4115   4.379   3.131   4.397 -0.5561  1.1109 -0.3917
   32DOPE  C315 4116   4.224   2.991   4.464  0.6180 -0.0126 -0.2856
   32DOPE  H15X 4117   4.276   2.894   4.459  0.8958  0.1437 -0.4504
   32DOPE  H15Y 4118   4.118   2.964   4.448  0.4589 -3.0419  4.0575
   32DOPE  C316 4119   4.245   3.048   4.606  0.2441  0.0222 -0.8905
   32DOPE  H16X 4120   4.203   3.151   4.611 -0.2827 -0.0994 -2.3349
   32DOPE  H16Y 4121   4.353   3.068   4.620  0.3859 -0.8447 -0.6791
   32DOPE  C317 4122   4.192   2.960   4.720  0.0010 -0.5008 -0.2825
   32DOPE  H17X 4123   4.084   2.940   4.707 -0.8368  1.9203  2.1025
   32DOPE  H17Y 4124   4.244   2.862   4.724  0.0338 -0.4546  0.8634
   32DOPE  C318 4125   4.213   3.026   4.855  1.2854  0.0468  0.0274
   32DOPE  H18X 4126   4.177   3.129   4.833 -0.1884 -0.7433 -1.5698
   32DOPE  H18Y 4127   4.148   2.985   4.935  1.2590  0.2327  0.1021
   32DOPE  H18Z 4128   4.317   3.033   4.893  1.5682  0.7537 -0.8236
   33DOPE     N 4129   3.586   2.779   2.547 -0.0515 -0.8003  0.3240
   33DOPE   HN1 4130   3.531   2.846   2.490 -0.5150 -4.3540 -3.9772
   33DOPE   HN2 4131   3.680   2.815   2.573  1.1906 -2.7973 -1.0999
   33DOPE   HN3 4132   3.589   2.702   2.476 -2.3960  0.0393 -0.8219
   33DOPE   C12 4133   3.508   2.750   2.670 -0.1351  0.0270 -0.1242
   33DOPE  H12A 4134   3.573   2.685   2.733 -1.1988 -0.8269  0.1243
   33DOPE  H12B 4135   3.418   2.690   2.645 -1.1431  0.8610  1.3673
   33DOPE   C11 4136   3.475   2.883   2.731 -0.1051 -1.0692 -0.3887
   33DOPE  H11A 4137   3.565   2.946   2.745 -0.3758 -0.3102 -1.9463
   33DOPE  H11B 4138   3.443   2.851   2.833 -1.1269 -0.6372 -0.5683
   33DOPE     P 4139   3.215   2.904   2.663 -0.1495 -0.1401 -0.6632
   33DOPE   O13 4140   3.193   2.773   2.603  0.6633  0.3582 -0.0240
   33DOPE   O14 4141   3.139   3.021   2.608 -0.2480  0.3666 -0.2411
   33DOPE   O11 4142   3.193   2.894   2.816 -0.4347  0.1123  0.7940
   33DOPE   O12 4143   3.371   2.946   2.654  0.3407  0.2992  0.3484
   33DOPE    C1 4144   3.133   3.005   2.888 -0.4786  0.3052  0.0919
   33DOPE    HA 4145   3.028   3.005   2.852  0.8241 -0.0655 -4.1632
   33DOPE    HB 4146   3.169   3.105   2.859  0.7466 -0.0393  0.3620
   33DOPE    C2 4147   3.129   2.976   3.033 -0.2092 -0.0829  1.0486
   33DOPE    HS 4148   3.085   3.060   3.091  0.2587  0.7257  0.2692
   33DOPE   O21 4149   3.262   2.948   3.082  0.1692 -0.1373  0.1304
   33DOPE   C21 4150   3.341   3.050   3.072  0.3220  0.5488 -0.0066
   33DOPE   O22 4151   3.299   3.163   3.047  0.1864 -0.0876 -0.2313
   33DOPE   C22 4152   3.495   3.009   3.095  0.4315 -0.1069 -0.3561
   33DOPE   H2R 4153   3.542   2.999   2.995  0.0619  2.1944 -0.8257
   33DOPE   H2S 4154   3.502   2.914   3.152 -0.9722  0.8596  1.5570
   33DOPE    C3 4155   3.045   2.846   3.074  0.5127  0.4170  0.8802
   33DOPE    HX 4156   3.067   2.759   3.010  0.0211  0.1237  1.1007
   33DOPE    HY 4157   2.939   2.873   3.052  0.5111 -0.5150 -0.3425
   33DOPE   O31 4158   3.047   2.810   3.212  0.0405 -0.2447  0.2771
   33DOPE   C31 4159   3.144   2.728   3.256  0.0794  0.6557  0.6044
   33DOPE   O32 4160   3.247   2.698   3.191  0.2275 -0.3314 -0.3562
   33DOPE   C32 4161   3.111   2.662   3.383  0.5825  0.3688 -0.8366
   33DOPE   H2X 4162   3.016   2.705   3.421 -0.5108 -2.5944  0.0862
   33DOPE   H2Y 4163   3.095   2.554   3.365 -0.8175  0.3198  0.5147
   33DOPE   C23 4164   3.569   3.117   3.181 -0.2025  0.3667  0.2833
   33DOPE   H3R 4165   3.587   3.202   3.112  0.9796 -0.1785 -0.1083
   33DOPE   H3S 4166   3.669   3.073   3.204 -0.0150 -1.5036 -3.3668
   33DOPE   C24 4167   3.509   3.154   3.316 -0.3822 -0.1117 -0.0990
   33DOPE   H4R 4168   3.469   3.066   3.373  1.0697  0.3889  1.8017
   33DOPE   H4S 4169   3.420   3.218   3.303 -1.6454 -1.7233  0.2211
   33DOPE   C25 4170   3.600   3.220   3.411 -0.7028 -0.3258 -0.2865
   33DOPE   H5R 4171   3.543   3.275   3.488  0.6438  1.3377 -0.4165
   33DOPE   H5S 4172   3.666   3.298   3.367  0.1025  0.0075  1.4093
   33DOPE   C26 4173   3.703   3.137   3.487 -0.1923 -0.2990  0.1908
   33DOPE   H6R 4174   3.752   3.069   3.414 -0.8537 -2.9097  2.0303
   33DOPE   H6S 4175   3.647   3.064   3.549 -0.0094 -3.1152 -2.6699
   33DOPE   C27 4176   3.804   3.225   3.562 -0.0317  0.1104 -0.6480
   33DOPE   H7R 4177   3.742   3.278   3.637 -0.0942 -0.3303 -0.3874
   33DOPE   H7S 4178   3.838   3.315   3.506 -0.4707  0.8797  0.3055
   33DOPE   C28 4179   3.909   3.137   3.625 -0.4861 -0.6528 -0.0249
   33DOPE   H8R 4180   3.977   3.116   3.540  0.8526  1.0171  0.5753
   33DOPE   H8S 4181   3.870   3.038   3.657  1.0728 -1.5937 -0.8951
   33DOPE   C29 4182   3.963   3.216   3.744 -0.1540  0.2436 -0.2797
   33DOPE   H9R 4183   4.011   3.313   3.725  2.5698 -0.8601  0.3814
   33DOPE  C210 4184   3.951   3.171   3.871  0.0001 -0.1833  0.3071
   33DOPE  H10R 4185   3.999   3.235   3.945 -0.1524 -0.0991  0.3341
   33DOPE  C211 4186   3.888   3.047   3.930  0.2371 -0.8176  0.7740
   33DOPE  H11R 4187   3.955   3.014   4.012 -0.4839 -1.4087  1.1367
   33DOPE  H11S 4188   3.890   2.964   3.857  0.6334  0.5168 -0.8153
   33DOPE  C212 4189   3.751   3.077   3.999 -0.3846  0.4472  0.7292
   33DOPE  H12R 4190   3.680   3.121   3.925 -0.3899 -0.8624 -0.0730
   33DOPE  H12S 4191   3.768   3.153   4.078  0.2990 -0.2859  1.3039
   33DOPE  C213 4192   3.691   2.952   4.070  0.2904  0.4112  0.3519
   33DOPE  H13R 4193   3.782   2.897   4.103  0.1784  0.9947  1.7095
   33DOPE  H13S 4194   3.653   2.897   3.982  1.2499  2.2104 -1.2721
   33DOPE  C214 4195   3.594   2.972   4.179 -0.0491  0.8634 -0.0324
   33DOPE  H14R 4196   3.643   3.030   4.260  0.0454  0.0705  0.4881
   33DOPE  H14S 4197   3.562   2.878   4.229 -1.0175  0.5622 -1.1916
   33DOPE  C215 4198   3.472   3.060   4.138 -0.6318 -0.0748  0.1521
   33DOPE  H15R 4199   3.400   2.993   4.085 -0.0509 -0.8649  0.3427
   33DOPE  H15S 4200   3.491   3.149   4.075 -2.8817  0.5348  0.2286
   33DOPE  C216 4201   3.405   3.124   4.265  0.0626  0.1957  0.1590
   33DOPE  H16R 4202   3.326   3.191   4.227  1.4867  0.5581 -2.3727
   33DOPE  H16S 4203   3.482   3.190   4.312  0.1702 -1.1246  1.9309
   33DOPE  C217 4204   3.363   3.026   4.368  0.1484  0.3486  0.0168
   33DOPE  H17R 4205   3.314   3.084   4.450  0.3083  1.5312 -0.6974
   33DOPE  H17S 4206   3.456   2.980   4.408  0.6564  0.5161 -0.9505
   33DOPE  C218 4207   3.263   2.932   4.301 -0.3368 -0.3305 -0.1221
   33DOPE  H18R 4208   3.190   2.987   4.238  0.0694 -0.3344 -0.5958
   33DOPE  H18S 4209   3.201   2.873   4.372 -1.1994 -2.0215 -2.1596
   33DOPE  H18T 4210   3.308   2.861   4.229 -1.0831 -0.4537 -0.4725
   33DOPE   C33 4211   3.221   2.682   3.484 -0.5037 -0.3156  0.2753
   33DOPE   H3X 4212   3.316   2.648   3.436 -0.5804  0.4948 -0.4988
   33DOPE   H3Y 4213   3.213   2.614   3.571  1.6672 -0.5010  0.3906
   33DOPE   C34 4214   3.238   2.827   3.514 -0.1579  0.3962 -0.6741
   33DOPE   H4X 4215   3.289   2.874   3.427 -0.9435 -0.0118 -1.3632
   33DOPE   H4Y 4216   3.138   2.875   3.517 -0.5913 -0.4694 -1.0074
   33DOPE   C35 4217   3.309   2.857   3.641 -0.1432 -0.3469 -0.3739
   33DOPE   H5X 4218   3.410   2.811   3.640  0.5476  1.0604  1.1536
   33DOPE   H5Y 4219   3.249   2.816   3.726  0.3361 -0.3431 -0.0313
   33DOPE   C36 4220   3.325   3.009   3.667  0.4851 -0.4747  0.0723
   33DOPE   H6X 4221   3.220   3.044   3.673  1.1456  1.3750  2.7265
   33DOPE   H6Y 4222   3.385   3.044   3.580 -0.6515 -1.1304 -1.0062
   33DOPE   C37 4223   3.376   3.067   3.808 -0.2578  0.0742 -0.2248
   33DOPE   H7X 4224   3.346   2.998   3.889 -0.4456 -0.3093 -0.6159
   33DOPE   H7Y 4225   3.487   3.068   3.807 -0.2366 -0.6751  0.5253
   33DOPE   C38 4226   3.326   3.208   3.847 -0.5845 -0.2044  0.3874
   33DOPE   H8X 4227   3.338   3.207   3.957  0.4149 -0.3146  0.2856
   33DOPE   H8Y 4228   3.219   3.208   3.820 -0.6392 -1.0229  0.5755
   33DOPE   C39 4229   3.394   3.336   3.802 -0.5649  0.3636  0.3588
   33DOPE   H9X 4230   3.422   3.326   3.697  0.0246 -1.7125  0.6641
   33DOPE  C310 4231   3.443   3.439   3.877  0.0188 -0.2311 -0.1722
   33DOPE  H10X 4232   3.476   3.532   3.830  1.7299  0.7174  2.6661
   33DOPE  C311 4233   3.448   3.461   4.035  1.1929  0.0660  0.4434
   33DOPE  H11X 4234   3.437   3.362   4.084  0.3194  0.9857  2.1874
   33DOPE  H11Y 4235   3.546   3.501   4.070  0.9265  0.4991  0.6968
   33DOPE  C312 4236   3.333   3.544   4.083  0.1229 -0.2035  0.1159
   33DOPE  H12X 4237   3.230   3.516   4.053  0.1857 -0.8679  0.4874
   33DOPE  H12Y 4238   3.355   3.648   4.050  2.2094 -0.6932 -0.1785
   33DOPE  C313 4239   3.326   3.551   4.243  0.2960  0.3738  0.0063
   33DOPE  H13X 4240   3.288   3.455   4.283  1.0927 -0.0901 -0.3093
   33DOPE  H13Y 4241   3.431   3.551   4.280  0.0625  1.7997  0.7558
   33DOPE  C314 4242   3.251   3.677   4.301  0.6837 -0.0680  0.1800
   33DOPE  H14X 4243   3.167   3.690   4.229  0.6032 -0.4048  0.2099
   33DOPE  H14Y 4244   3.308   3.772   4.300  0.0591  0.3344 -1.5545
   33DOPE  C315 4245   3.202   3.674   4.447 -0.1691  0.0553 -0.5862
   33DOPE  H15X 4246   3.141   3.584   4.467  1.2599 -0.8561 -0.1738
   33DOPE  H15Y 4247   3.137   3.763   4.465 -1.8252 -0.9494 -1.4014
   33DOPE  C316 4248   3.318   3.667   4.538  0.8721 -0.6664 -0.0095
   33DOPE  H16X 4249   3.372   3.764   4.536 -2.4084  1.3217  0.2261
   33DOPE  H16Y 4250   3.391   3.597   4.493  1.6692  0.2613 -0.1898
   33DOPE  C317 4251   3.285   3.630   4.689  0.4309 -0.3190  0.0658
   33DOPE  H17X 4252   3.233   3.721   4.728  0.8166 -1.0167  2.3797
   33DOPE  H17Y 4253   3.216   3.543   4.682  0.3342 -0.1280 -5.5367
   33DOPE  C318 4254   3.402   3.607   4.783  0.2412 -0.5201 -0.1017
   33DOPE  H18X 4255   3.469   3.533   4.736 -0.4787 -1.3010  0.0729
   33DOPE  H18Y 4256   3.462   3.700   4.792 -0.5339  0.0459 -0.6760
   33DOPE  H18Z 4257   3.381   3.576   4.888  1.1265  0.4604  0.3864
   34DOPE     N 4258   2.249   4.141   2.384 -0.6038  0.3481 -0.6541
   34DOPE   HN1 4259   2.204   4.095   2.302 -2.4801 -0.5742  0.8155
   34DOPE   HN2 4260   2.351   4.129   2.373 -0.7426  0.3435 -2.2921
   34DOPE   HN3 4261   2.204   4.091   2.463  1.2200  1.7244  1.3838
   34DOPE   C12 4262   2.205   4.284   2.367 -0.0732 -0.1473  1.5189
   34DOPE  H12A 4263   2.099   4.285   2.334  1.0411  1.0259 -2.6502
   34DOPE  H12B 4264   2.249   4.327   2.275 -1.9160 -1.4012 -0.0381
   34DOPE   C11 4265   2.220   4.371   2.489 -0.3698 -0.3240  0.2705
   34DOPE  H11A 4266   2.143   4.347   2.566 -2.0861  0.3586 -1.1649
   34DOPE  H11B 4267   2.183   4.471   2.459 -1.9926 -0.4168  1.7780
   34DOPE     P 4268   2.393   4.313   2.680 -0.3411 -0.2272  0.1176
   34DOPE   O13 4269   2.435   4.173   2.659  0.4389  0.4593  0.0219
   34DOPE   O14 4270   2.288   4.335   2.785 -0.2021  0.5281  0.2542
   34DOPE   O11 4271   2.524   4.393   2.739  0.0501 -0.8666 -0.0985
   34DOPE   O12 4272   2.355   4.378   2.536  0.8871  0.3675 -0.6708
   34DOPE    C1 4273   2.570   4.375   2.874  0.6721  0.1241 -0.1100
   34DOPE    HA 4274   2.680   4.386   2.867  0.4639  2.5110 -0.6182
   34DOPE    HB 4275   2.550   4.273   2.912 -1.6882  0.3017 -0.7442
   34DOPE    C2 4276   2.517   4.486   2.964  0.2564 -0.7434 -0.2751
   34DOPE    HS 4277   2.407   4.474   2.957 -0.0577  2.0794 -1.7279
   34DOPE   O21 4278   2.562   4.618   2.913  0.2404  0.0186 -0.2810
   34DOPE   C21 4279   2.486   4.718   2.946 -0.3666 -0.3526  0.4134
   34DOPE   O22 4280   2.371   4.713   2.990  0.2295  0.1162  0.4680
   34DOPE   C22 4281   2.555   4.852   2.905 -0.0198  0.4329 -0.1344
   34DOPE   H2R 4282   2.507   4.890   2.812  1.5980  1.7968 -0.4614
   34DOPE   H2S 4283   2.662   4.823   2.899  0.3212  1.7901 -1.0526
   34DOPE    C3 4284   2.568   4.461   3.107  1.3426 -0.1161 -0.0589
   34DOPE    HX 4285   2.678   4.443   3.106  1.6977  1.7958 -1.9977
   34DOPE    HY 4286   2.518   4.366   3.137 -3.1560  1.6052 -1.3439
   34DOPE   O31 4287   2.540   4.560   3.204 -0.2263 -0.1091  0.1006
   34DOPE   C31 4288   2.415   4.563   3.239  0.2830  0.4485 -0.2384
   34DOPE   O32 4289   2.317   4.497   3.196 -0.0099 -0.3779  0.1714
   34DOPE   C32 4290   2.402   4.651   3.362 -0.0226 -0.4092 -0.9438
   34DOPE   H2X 4291   2.476   4.732   3.346  0.3916 -0.8564 -1.3011
   34DOPE   H2Y 4292   2.298   4.690   3.357  0.6587  1.3518 -2.7734
   34DOPE   C23 4293   2.531   4.967   3.004  0.3515  0.1916  0.0059
   34DOPE   H3R 4294   2.421   4.986   3.004  0.1977 -0.6615 -0.0083
   34DOPE   H3S 4295   2.576   5.053   2.951  1.3066 -0.1623  0.2293
   34DOPE   C24 4296   2.597   4.953   3.139 -0.2166  0.0024 -0.0651
   34DOPE   H4R 4297   2.692   4.896   3.130  0.3689  0.4407  2.4464
   34DOPE   H4S 4298   2.522   4.894   3.196 -0.4622  0.4623  0.0962
   34DOPE   C25 4299   2.625   5.085   3.209  0.7640  0.2574 -0.0128
   34DOPE   H5R 4300   2.525   5.131   3.224  0.4056 -0.3102 -0.5735
   34DOPE   H5S 4301   2.684   5.156   3.148 -0.1876  1.1290  0.0606
   34DOPE   C26 4302   2.690   5.084   3.352  1.2185  0.5145 -0.0683
   34DOPE   H6R 4303   2.683   5.184   3.400  1.6656  0.1339  0.8184
   34DOPE   H6S 4304   2.796   5.051   3.345  1.5457  1.4007  0.4152
   34DOPE   C27 4305   2.635   4.977   3.438 -0.0270  0.4881 -0.6853
   34DOPE   H7R 4306   2.655   4.874   3.402 -0.1607 -0.1015  0.8339
   34DOPE   H7S 4307   2.525   4.979   3.456 -0.0886 -0.9747 -0.7314
   34DOPE   C28 4308   2.693   4.985   3.577 -0.3039  0.1700  0.1316
   34DOPE   H8R 4309   2.677   5.086   3.621  1.7204  0.5402  0.1215
   34DOPE   H8S 4310   2.802   4.979   3.555 -0.7901 -0.1130 -2.5250
   34DOPE   C29 4311   2.652   4.876   3.672 -0.0546 -0.1896  0.2233
   34DOPE   H9R 4312   2.709   4.782   3.664  2.0903  0.9756  0.7721
   34DOPE  C210 4313   2.565   4.895   3.778 -0.3034  0.4518 -0.2648
   34DOPE  H10R 4314   2.534   4.806   3.836  1.1092 -0.0404 -0.2031
   34DOPE  C211 4315   2.495   5.015   3.827 -0.6143  0.5851 -0.1773
   34DOPE  H11R 4316   2.388   4.985   3.834 -0.8020  0.8195 -1.7155
   34DOPE  H11S 4317   2.506   5.098   3.754  0.3319  0.7492  0.1360
   34DOPE  C212 4318   2.543   5.044   3.973 -0.5762 -0.1899  0.3208
   34DOPE  H12R 4319   2.471   5.123   4.005  0.9980  1.3854  0.1085
   34DOPE  H12S 4320   2.645   5.087   3.963 -0.8430  0.5811  0.8333
   34DOPE  C213 4321   2.536   4.944   4.086  0.8407  0.0921  0.4294
   34DOPE  H13R 4322   2.598   4.857   4.057 -1.6582 -1.0938 -1.7543
   34DOPE  H13S 4323   2.431   4.912   4.096  0.5028  0.4059 -1.6411
   34DOPE  C214 4324   2.583   4.989   4.219  0.4044  0.4506 -0.6063
   34DOPE  H14R 4325   2.520   5.077   4.242  0.4506 -0.2712  2.8476
   34DOPE  H14S 4326   2.687   5.027   4.211 -0.5383  3.6828  0.8437
   34DOPE  C215 4327   2.563   4.887   4.328 -0.1346  0.1517 -0.4587
   34DOPE  H15R 4328   2.617   4.792   4.309 -0.4487 -0.0099 -0.5584
   34DOPE  H15S 4329   2.453   4.869   4.336  0.2168 -3.3146 -1.5887
   34DOPE  C216 4330   2.610   4.939   4.466  0.3944  0.1329  0.3170
   34DOPE  H16R 4331   2.571   5.044   4.466  2.6344  1.0162 -0.3432
   34DOPE  H16S 4332   2.721   4.948   4.468  0.5362 -1.1266  3.1910
   34DOPE  C217 4333   2.567   4.868   4.592  0.1234 -0.3888 -0.1583
   34DOPE  H17R 4334   2.615   4.768   4.593  0.8197 -0.1016 -1.8908
   34DOPE  H17S 4335   2.456   4.870   4.601  0.1604 -0.3501  0.3115
   34DOPE  C218 4336   2.607   4.945   4.722 -1.1680 -0.1209 -0.2609
   34DOPE  H18R 4337   2.567   5.049   4.718 -0.2204  0.2355 -0.5602
   34DOPE  H18S 4338   2.715   4.950   4.744 -1.1387 -1.0272 -0.1660
   34DOPE  H18T 4339   2.572   4.901   4.818  0.8869  2.6614  1.9384
   34DOPE   C33 4340   2.440   4.575   3.491  0.9437 -0.0766  0.0191
   34DOPE   H3X 4341   2.451   4.644   3.577 -0.0438  0.3219 -0.1599
   34DOPE   H3Y 4342   2.540   4.530   3.472  1.3494  0.6353  0.4499
   34DOPE   C34 4343   2.329   4.480   3.523  0.1561 -0.1272  0.3603
   34DOPE   H4X 4344   2.233   4.533   3.538  1.0599  1.3894  0.9895
   34DOPE   H4Y 4345   2.318   4.415   3.434 -0.2640 -0.1463  0.4234
   34DOPE   C35 4346   2.355   4.391   3.650 -0.9212  0.2954  0.2012
   34DOPE   H5X 4347   2.454   4.342   3.636 -0.5395  1.1774 -0.2919
   34DOPE   H5Y 4348   2.273   4.317   3.643  0.1457 -0.7746 -1.5783
   34DOPE   C36 4349   2.349   4.469   3.785  0.4623  0.3492 -0.4607
   34DOPE   H6X 4350   2.259   4.535   3.790 -0.0728 -0.3731 -0.4928
   34DOPE   H6Y 4351   2.427   4.548   3.780  1.5309 -0.6694 -0.1930
   34DOPE   C37 4352   2.369   4.379   3.907 -0.0192  0.1998  1.0857
   34DOPE   H7X 4353   2.268   4.352   3.944 -0.8671  1.2023 -0.3971
   34DOPE   H7Y 4354   2.416   4.286   3.869  0.8308  0.7664  0.7069
   34DOPE   C38 4355   2.453   4.431   4.025 -0.8211 -0.6395 -0.8427
   34DOPE   H8X 4356   2.562   4.443   4.004 -0.1168 -0.2870  2.4064
   34DOPE   H8Y 4357   2.448   4.345   4.095 -2.0650  0.7611  0.8662
   34DOPE   C39 4358   2.395   4.549   4.100 -0.2142  0.1116 -0.3100
   34DOPE   H9X 4359   2.411   4.645   4.048  1.4101 -0.1122 -0.2869
   34DOPE  C310 4360   2.344   4.540   4.224 -0.0013 -0.0013 -0.9619
   34DOPE  H10X 4361   2.293   4.630   4.262  0.4990 -0.7494  1.6694
   34DOPE  C311 4362   2.331   4.419   4.316  0.5630  0.4196 -1.0569
   34DOPE  H11X 4363   2.222   4.409   4.333  1.0381  0.6373  3.2150
   34DOPE  H11Y 4364   2.366   4.320   4.278 -1.5299 -0.6002 -0.4774
   34DOPE  C312 4365   2.385   4.459   4.454  0.5148  0.0997 -0.2912
   34DOPE  H12X 4366   2.346   4.374   4.514  0.1594  0.9791  0.7500
   34DOPE  H12Y 4367   2.331   4.551   4.486  0.1454  0.2839 -1.3986
   34DOPE  C313 4368   2.533   4.457   4.488 -1.0964 -0.1859 -0.2720
   34DOPE  H13X 4369   2.582   4.420   4.395 -1.4591 -0.2288 -0.4479
   34DOPE  H13Y 4370   2.576   4.559   4.497 -0.5954 -0.4460  0.4031
   34DOPE  C314 4371   2.565   4.374   4.613  0.1844 -0.2035 -0.1600
   34DOPE  H14X 4372   2.676   4.368   4.621  0.0290 -1.0902  1.9183
   34DOPE  H14Y 4373   2.519   4.274   4.601  1.7470 -1.2293  1.7329
   34DOPE  C315 4374   2.515   4.442   4.745 -0.6922 -0.1042  0.6978
   34DOPE  H15X 4375   2.406   4.447   4.729 -1.0030 -3.3337  1.0314
   34DOPE  H15Y 4376   2.571   4.538   4.748 -1.0181  0.1048  0.1473
   34DOPE  C316 4377   2.533   4.360   4.870  0.1260  0.4686 -0.3571
   34DOPE  H16X 4378   2.641   4.335   4.882  0.0142  0.8158  1.7931
   34DOPE  H16Y 4379   2.491   4.258   4.857  2.8061 -0.5675 -1.6968
   34DOPE  C317 4380   2.488   4.432   4.999 -0.4774 -1.1101  0.3398
   34DOPE  H17X 4381   2.535   4.533   4.991 -0.6872 -1.0892 -0.9565
   34DOPE  H17Y 4382   2.377   4.436   4.992 -0.4259 -2.0434 -2.9638
   34DOPE  C318 4383   2.540   4.368   5.119 -0.0302  0.5585 -0.0806
   34DOPE  H18X 4384   2.498   4.429   5.202  1.0714  1.3269 -0.0669
   34DOPE  H18Y 4385   2.521   4.259   5.134  1.9739  0.4966  3.0568
   34DOPE  H18Z 4386   2.651   4.377   5.118  0.0676 -0.1884  1.5406
   35DOPE     N 4387   5.985   3.581   2.254 -0.3845 -1.0009 -0.4581
   35DOPE   HN1 4388   5.954   3.488   2.287 -1.6101 -0.2875  0.4913
   35DOPE   HN2 4389   6.088   3.576   2.238  0.2161  1.6960  1.7538
   35DOPE   HN3 4390   5.972   3.648   2.332  0.4092 -1.5673  0.1702
   35DOPE   C12 4391   5.917   3.632   2.129 -0.1012 -0.0621  0.2387
   35DOPE  H12A 4392   5.968   3.588   2.041 -0.0921 -0.7879  0.5979
   35DOPE  H12B 4393   5.937   3.741   2.127  0.3492 -0.1486 -0.5555
   35DOPE   C11 4394   5.768   3.606   2.119 -0.8415 -0.1627 -0.2458
   35DOPE  H11A 4395   5.725   3.648   2.026 -1.8314 -0.5919 -0.0010
   35DOPE  H11B 4396   5.715   3.664   2.197  1.4916  1.6422  0.1081
   35DOPE     P 4397   5.733   3.370   2.004 -0.0574  0.2229 -0.0366
   35DOPE   O13 4398   5.867   3.344   1.949  0.0941  0.0172 -0.1719
   35DOPE   O14 4399   5.622   3.424   1.921  0.1165 -0.2637 -0.0623
   35DOPE   O11 4400   5.685   3.239   2.082  0.4849  0.2820  0.0720
   35DOPE   O12 4401   5.742   3.463   2.132 -0.0412 -0.4935 -0.4432
   35DOPE    C1 4402   5.762   3.167   2.179  0.5882  0.5821  0.3622
   35DOPE    HA 4403   5.869   3.192   2.165  0.2965  1.9349  0.3923
   35DOPE    HB 4404   5.753   3.057   2.163 -0.9109  0.8373 -0.7641
   35DOPE    C2 4405   5.716   3.187   2.329 -0.1680  0.1995  0.7541
   35DOPE    HS 4406   5.692   3.295   2.340 -0.8995  0.0799  0.4190
   35DOPE   O21 4407   5.826   3.143   2.411  0.3497 -0.3752 -0.2298
   35DOPE   C21 4408   5.927   3.234   2.421  0.6223  0.0919 -0.4844
   35DOPE   O22 4409   5.926   3.345   2.379  0.0354  0.0793  0.7012
   35DOPE   C22 4410   6.043   3.166   2.503  0.7785 -0.7962  0.1123
   35DOPE   H2R 4411   6.120   3.117   2.440  0.3790 -1.5685  0.2026
   35DOPE   H2S 4412   5.992   3.086   2.562  0.7629 -0.5910  0.3798
   35DOPE    C3 4413   5.585   3.118   2.361 -0.0495 -0.5865 -0.3118
   35DOPE    HX 4414   5.583   3.008   2.341 -0.6256 -0.5519 -0.4648
   35DOPE    HY 4415   5.508   3.142   2.284  0.2161 -0.8677 -0.6686
   35DOPE   O31 4416   5.531   3.154   2.490  0.0059 -0.1853  0.5387
   35DOPE   C31 4417   5.573   3.079   2.589  0.0147 -0.0681  0.7524
   35DOPE   O32 4418   5.656   2.986   2.578 -0.0452 -0.0266 -0.4825
   35DOPE   C32 4419   5.515   3.129   2.717  0.7161  0.2312 -0.6427
   35DOPE   H2X 4420   5.450   3.219   2.705 -0.5055 -0.5409 -0.0678
   35DOPE   H2Y 4421   5.442   3.051   2.746  0.9105  0.4391  0.4568
   35DOPE   C23 4422   6.112   3.254   2.613  0.1744 -0.0108  1.0573
   35DOPE   H3R 4423   6.170   3.337   2.567  2.2859 -2.1463 -0.3869
   35DOPE   H3S 4424   6.184   3.196   2.676  1.0593  1.2900  1.2930
   35DOPE   C24 4425   6.014   3.304   2.716 -0.2777 -0.8026 -0.4941
   35DOPE   H4R 4426   5.963   3.215   2.760 -1.1747 -0.0848 -0.0306
   35DOPE   H4S 4427   5.934   3.366   2.669  2.7042  2.6035 -1.5356
   35DOPE   C25 4428   6.083   3.382   2.828 -0.3431  0.4049  0.8122
   35DOPE   H5R 4429   6.113   3.480   2.785 -0.5036 -0.2674 -0.9391
   35DOPE   H5S 4430   6.175   3.325   2.852 -0.9829 -0.5656  0.9953
   35DOPE   C26 4431   5.983   3.408   2.939 -0.4563  0.2136  0.1309
   35DOPE   H6R 4432   5.884   3.424   2.891 -0.9268  1.3223  1.4403
   35DOPE   H6S 4433   6.013   3.499   2.993 -1.3117  1.1705 -0.9509
   35DOPE   C27 4434   5.978   3.293   3.044 -0.7544 -0.1412  0.2047
   35DOPE   H7R 4435   6.084   3.266   3.065 -1.2847 -1.3608  1.4746
   35DOPE   H7S 4436   5.937   3.201   2.997  0.1550 -0.8645  0.8011
   35DOPE   C28 4437   5.913   3.315   3.183 -0.5263  0.6914  0.2501
   35DOPE   H8R 4438   5.965   3.393   3.243  1.6455 -0.2350 -0.3339
   35DOPE   H8S 4439   5.931   3.215   3.228 -1.8422 -0.5356 -1.7746
   35DOPE   C29 4440   5.772   3.340   3.189 -0.6392 -0.4284  0.3417
   35DOPE   H9R 4441   5.726   3.358   3.091  0.2329 -0.5243 -0.1008
   35DOPE  C210 4442   5.701   3.339   3.300  0.8918 -0.2435 -0.7283
   35DOPE  H10R 4443   5.594   3.363   3.292  0.8323 -0.1188  0.2959
   35DOPE  C211 4444   5.748   3.325   3.442  0.5686  0.4619 -0.9938
   35DOPE  H11R 4445   5.859   3.329   3.450  0.6039 -0.3224 -0.9676
   35DOPE  H11S 4446   5.720   3.222   3.473  0.3073  0.3925 -1.4661
   35DOPE  C212 4447   5.707   3.422   3.549  0.4894  0.7855 -0.4446
   35DOPE  H12R 4448   5.603   3.455   3.529  0.8103 -0.4034 -5.3539
   35DOPE  H12S 4449   5.765   3.516   3.538  1.7359  0.1865  0.7109
   35DOPE  C213 4450   5.734   3.362   3.690  0.0191 -0.5033  0.1921
   35DOPE  H13R 4451   5.843   3.340   3.691  0.2477  0.5057 -1.0979
   35DOPE  H13S 4452   5.679   3.268   3.715 -0.8463 -0.2958 -0.8578
   35DOPE  C214 4453   5.717   3.459   3.803  0.4358  0.1257  0.0511
   35DOPE  H14R 4454   5.617   3.463   3.850  1.2660 -1.3468  2.0755
   35DOPE  H14S 4455   5.735   3.565   3.773 -3.0154  0.4768 -1.2651
   35DOPE  C215 4456   5.800   3.420   3.925 -0.2557 -0.4919  0.7134
   35DOPE  H15R 4457   5.906   3.442   3.900 -0.3990 -1.3087 -0.7474
   35DOPE  H15S 4458   5.801   3.310   3.942  2.4005 -0.5590  0.5309
   35DOPE  C216 4459   5.770   3.511   4.040  0.1082  0.5835 -0.0760
   35DOPE  H16R 4460   5.663   3.506   4.069 -0.5311  0.6612 -2.2176
   35DOPE  H16S 4461   5.794   3.617   4.016 -0.0864  0.7008  0.2470
   35DOPE  C217 4462   5.852   3.468   4.161 -0.1520 -0.5316  0.5945
   35DOPE  H17R 4463   5.960   3.473   4.135  0.0372  0.2978  1.4858
   35DOPE  H17S 4464   5.815   3.367   4.190 -0.4295 -0.2179  1.3606
   35DOPE  C218 4465   5.835   3.556   4.282 -0.7152  0.0232 -0.0908
   35DOPE  H18R 4466   5.730   3.558   4.320 -0.0483 -0.9049  1.9420
   35DOPE  H18S 4467   5.859   3.658   4.248 -0.8251 -0.4078 -1.5159
   35DOPE  H18T 4468   5.908   3.530   4.361 -0.6366  0.1008 -0.1385
   35DOPE   C33 4469   5.609   3.171   2.831  0.3907 -0.5198  0.0335
   35DOPE   H3X 4470   5.555   3.230   2.909  1.2872 -1.8378  1.7314
   35DOPE   H3Y 4471   5.678   3.246   2.787 -0.9085 -0.4482 -2.0058
   35DOPE   C34 4472   5.689   3.057   2.887  0.0042 -1.0601  0.0205
   35DOPE   H4X 4473   5.764   3.003   2.826  2.3180  0.1424  1.6752
   35DOPE   H4Y 4474   5.751   3.093   2.971  0.5505  0.8520 -1.1217
   35DOPE   C35 4475   5.596   2.942   2.938 -0.5004  0.7941 -1.1252
   35DOPE   H5X 4476   5.551   2.896   2.848 -2.5134 -0.3579  0.3677
   35DOPE   H5Y 4477   5.512   2.980   3.000 -0.6222 -1.2352  0.0510
   35DOPE   C36 4478   5.676   2.836   3.016 -0.4355 -0.5988 -0.1847
   35DOPE   H6X 4479   5.709   2.878   3.114  1.2035 -3.5690  0.6742
   35DOPE   H6Y 4480   5.756   2.813   2.943  0.2501 -1.0657  0.6801
   35DOPE   C37 4481   5.604   2.704   3.041  0.0979  0.0402 -0.7326
   35DOPE   H7X 4482   5.515   2.725   3.104  1.7088  3.0325  0.7442
   35DOPE   H7Y 4483   5.570   2.668   2.942  1.1754 -0.3233 -0.9848
   35DOPE   C38 4484   5.687   2.613   3.126  0.1995 -0.3704 -0.5065
   35DOPE   H8X 4485   5.691   2.653   3.230  2.8662  0.4715 -0.8643
   35DOPE   H8Y 4486   5.793   2.614   3.092  0.3354  1.4224 -0.1310
   35DOPE   C39 4487   5.625   2.475   3.113  0.2115 -0.1082  0.8093
   35DOPE   H9X 4488   5.659   2.418   3.025 -0.0472 -0.6937  1.0844
   35DOPE  C310 4489   5.530   2.432   3.195 -0.0525  0.0514  0.2378
   35DOPE  H10X 4490   5.500   2.327   3.189 -1.9568  0.5738 -0.0331
   35DOPE  C311 4491   5.464   2.503   3.314  0.0879 -0.0347 -0.2267
   35DOPE  H11X 4492   5.490   2.610   3.319 -3.6337  1.0579 -0.7936
   35DOPE  H11Y 4493   5.353   2.492   3.318 -0.0525  1.5308  1.5411
   35DOPE  C312 4494   5.527   2.469   3.443  0.0108 -1.0498 -0.2051
   35DOPE  H12X 4495   5.507   2.556   3.509  2.5040 -1.1100  0.7547
   35DOPE  H12Y 4496   5.637   2.463   3.429  0.0087 -1.6162  0.0119
   35DOPE  C313 4497   5.476   2.336   3.501  0.3853 -0.4905  0.7976
   35DOPE  H13X 4498   5.371   2.342   3.535  0.1666 -0.4713  0.1286
   35DOPE  H13Y 4499   5.472   2.253   3.427 -1.3772 -2.2703  2.7325
   35DOPE  C314 4500   5.550   2.288   3.621 -0.8352  0.5037 -0.0812
   35DOPE  H14X 4501   5.660   2.288   3.615 -0.8484  1.4338 -0.6106
   35DOPE  H14Y 4502   5.509   2.188   3.647 -0.6721  0.7618  1.2041
   35DOPE  C315 4503   5.522   2.391   3.737  0.8581  0.6054  0.0403
   35DOPE  H15X 4504   5.428   2.442   3.708  0.2177 -0.7486 -0.3533
   35DOPE  H15Y 4505   5.594   2.474   3.720 -0.5859  1.1791 -4.5982
   35DOPE  C316 4506   5.530   2.328   3.880 -0.4528 -0.6099  0.3050
   35DOPE  H16X 4507   5.624   2.271   3.896 -1.3974 -1.9885  1.0716
   35DOPE  H16Y 4508   5.452   2.250   3.888 -0.5341 -0.7259 -1.3208
   35DOPE  C317 4509   5.526   2.431   3.994  0.6976  0.0272  0.3562
   35DOPE  H17X 4510   5.584   2.525   3.979  0.2626  0.6311  2.1585
   35DOPE  H17Y 4511   5.418   2.452   4.008  0.1069 -1.1672 -1.9277
   35DOPE  C318 4512   5.585   2.375   4.121  0.2443 -0.1474  0.4649
   35DOPE  H18X 4513   5.578   2.455   4.198  2.2370 -0.1650  0.7180
   35DOPE  H18Y 4514   5.519   2.291   4.152 -0.1410 -0.6325 -1.4985
   35DOPE  H18Z 4515   5.693   2.351   4.123  0.3449  0.3242  0.7338
   36DOPE     N 4516   5.380   4.961   2.511  0.2914  0.2121  0.1505
   36DOPE   HN1 4517   5.448   4.894   2.554 -1.0401 -0.7942  0.7625
   36DOPE   HN2 4518   5.422   4.995   2.422 -1.0691  0.5800 -0.3639
   36DOPE   HN3 4519   5.385   5.041   2.577  1.0946  1.6861 -1.5846
   36DOPE   C12 4520   5.238   4.910   2.505 -0.2886  0.1521  0.1262
   36DOPE  H12A 4521   5.226   4.811   2.456 -2.3234 -1.1392  2.9241
   36DOPE  H12B 4522   5.175   4.987   2.457  1.9529  3.8592  2.5972
   36DOPE   C11 4523   5.172   4.881   2.640 -0.2044  0.7950 -0.3712
   36DOPE  H11A 4524   5.207   4.786   2.685 -1.7567 -0.0018 -0.7886
   36DOPE  H11B 4525   5.064   4.857   2.630 -0.7342  2.1905  1.3445
   36DOPE     P 4526   5.078   5.063   2.808 -0.0351  0.2744  0.1913
   36DOPE   O13 4527   4.997   5.142   2.714  0.2965  0.0205 -0.3071
   36DOPE   O14 4528   5.135   5.129   2.923  0.7203 -0.7394  0.1975
   36DOPE   O11 4529   4.996   4.940   2.854 -0.0214  0.1620  0.4657
   36DOPE   O12 4530   5.199   4.995   2.728 -0.0376  0.0558  0.6682
   36DOPE    C1 4531   5.033   4.836   2.940 -0.3594  0.1023 -1.2240
   36DOPE    HA 4532   5.141   4.814   2.930 -0.2039  1.0785 -1.8343
   36DOPE    HB 4533   4.993   4.738   2.906  1.8548 -1.4370  0.3371
   36DOPE    C2 4534   4.994   4.868   3.089  0.1663 -0.0768 -0.2905
   36DOPE    HS 4535   5.073   4.936   3.128 -1.5501  2.1580 -0.5231
   36DOPE   O21 4536   4.972   4.744   3.160 -0.1480  0.7193 -1.0661
   36DOPE   C21 4537   5.088   4.686   3.202  0.4300  0.7053 -0.0170
   36DOPE   O22 4538   5.196   4.735   3.183 -0.0852  0.3246  0.2863
   36DOPE   C22 4539   5.068   4.541   3.243  0.8279  0.0470 -0.2334
   36DOPE   H2R 4540   5.026   4.477   3.163 -0.1561 -0.5132  0.6958
   36DOPE   H2S 4541   4.992   4.547   3.324  1.0625 -1.7376  0.1621
   36DOPE    C3 4542   4.858   4.943   3.105 -0.3862 -0.8941 -0.3880
   36DOPE    HX 4543   4.778   4.884   3.054 -1.5233 -0.9653  1.3810
   36DOPE    HY 4544   4.864   5.042   3.054  0.6555 -0.1720  1.0800
   36DOPE   O31 4545   4.826   4.977   3.246 -0.2072  0.0942  0.1206
   36DOPE   C31 4546   4.751   4.890   3.301  0.3031  0.5300 -0.0865
   36DOPE   O32 4547   4.684   4.803   3.244 -0.2155  0.1889 -0.1347
   36DOPE   C32 4548   4.764   4.902   3.452 -0.6674  0.4575 -0.4010
   36DOPE   H2X 4549   4.868   4.930   3.478 -1.6358  5.4956 -0.9741
   36DOPE   H2Y 4550   4.711   4.986   3.500 -1.7768 -0.5526  0.2095
   36DOPE   C23 4551   5.191   4.462   3.295 -0.2827  0.2768 -0.6576
   36DOPE   H3R 4552   5.261   4.530   3.348  0.6518 -0.9049 -0.3057
   36DOPE   H3S 4553   5.247   4.431   3.204  0.3042  2.7618 -1.2097
   36DOPE   C24 4554   5.152   4.360   3.403  0.0071  0.7943 -0.6644
   36DOPE   H4R 4555   5.077   4.289   3.361 -0.1225  1.4105 -1.5059
   36DOPE   H4S 4556   5.105   4.405   3.492  3.0321 -1.0507  2.0994
   36DOPE   C25 4557   5.271   4.275   3.455  0.1283 -0.4624  0.4574
   36DOPE   H5R 4558   5.296   4.196   3.380 -2.0599  0.4866 -1.4106
   36DOPE   H5S 4559   5.235   4.228   3.549  1.7984 -2.2514  0.2492
   36DOPE   C26 4560   5.393   4.359   3.499 -0.1684 -0.6151 -0.1193
   36DOPE   H6R 4561   5.363   4.447   3.561  1.5951 -0.4000  0.4818
   36DOPE   H6S 4562   5.446   4.399   3.409  0.0917  0.5693  0.5344
   36DOPE   C27 4563   5.485   4.264   3.585  0.2564 -0.0543 -0.1700
   36DOPE   H7R 4564   5.506   4.177   3.519 -2.8165 -1.0801  0.0325
   36DOPE   H7S 4565   5.426   4.226   3.671 -1.8124 -0.2256 -1.5983
   36DOPE   C28 4566   5.614   4.339   3.624  0.1289 -0.0801  0.3138
   36DOPE   H8R 4567   5.584   4.438   3.664  0.6971 -0.7032  2.4194
   36DOPE   H8S 4568   5.669   4.347   3.527 -1.0913 -2.0650 -0.6054
   36DOPE   C29 4569   5.700   4.278   3.727  0.6495  0.2887 -0.0418
   36DOPE   H9R 4570   5.807   4.263   3.704  0.5249 -0.7312  0.0044
   36DOPE  C210 4571   5.670   4.232   3.850  0.3775  0.5160 -0.0986
   36DOPE  H10R 4572   5.754   4.180   3.900 -1.8983 -2.3394  1.0725
   36DOPE  C211 4573   5.547   4.218   3.936  0.2511  0.3440  0.7172
   36DOPE  H11R 4574   5.460   4.274   3.895 -0.8132 -2.2597 -0.8835
   36DOPE  H11S 4575   5.558   4.254   4.041  0.9018  0.0328  0.7642
   36DOPE  C212 4576   5.497   4.075   3.969 -0.2319  0.3151  0.2067
   36DOPE  H12R 4577   5.414   4.084   4.042  0.9629  0.6470  1.5762
   36DOPE  H12S 4578   5.586   4.020   4.008 -1.6466 -1.4947  1.0149
   36DOPE  C213 4579   5.434   4.007   3.843  0.0456  0.7322  0.6389
   36DOPE  H13R 4580   5.506   4.011   3.759  1.8782  1.3817  2.1749
   36DOPE  H13S 4581   5.348   4.073   3.818  1.4115  2.1616 -0.4147
   36DOPE  C214 4582   5.390   3.863   3.880 -0.1509 -0.2961  0.3898
   36DOPE  H14R 4583   5.337   3.864   3.978  0.5637  1.4193  0.8023
   36DOPE  H14S 4584   5.481   3.802   3.894  0.8161  1.2638  1.2572
   36DOPE  C215 4585   5.292   3.791   3.781 -0.2275  0.0448  0.0709
   36DOPE  H15R 4586   5.191   3.838   3.782 -0.5283 -0.5759  1.3459
   36DOPE  H15S 4587   5.266   3.690   3.819 -0.7017 -0.2978 -1.0903
   36DOPE  C216 4588   5.364   3.771   3.645  0.1848 -0.3912 -0.4112
   36DOPE  H16R 4589   5.474   3.754   3.649  0.2090 -0.0280  2.2711
   36DOPE  H16S 4590   5.363   3.872   3.598  0.4403  0.0350  0.4736
   36DOPE  C217 4591   5.302   3.672   3.554 -0.2825 -0.1569 -0.2397
   36DOPE  H17R 4592   5.192   3.687   3.548 -0.1351  0.8428 -0.5356
   36DOPE  H17S 4593   5.312   3.573   3.603  0.1605 -0.0424 -0.0950
   36DOPE  C218 4594   5.356   3.670   3.406 -0.4363  0.6826  0.0534
   36DOPE  H18R 4595   5.467   3.664   3.395 -0.7225 -3.9103 -3.3012
   36DOPE  H18S 4596   5.327   3.767   3.359 -0.4161 -0.2048 -1.8720
   36DOPE  H18T 4597   5.309   3.582   3.358 -0.3291  0.6575 -0.0060
   36DOPE   C33 4598   4.731   4.768   3.524 -0.0048 -0.1789 -0.0302
   36DOPE   H3X 4599   4.798   4.689   3.483 -0.3398  0.9517 -3.0437
   36DOPE   H3Y 4600   4.626   4.735   3.507  1.1089 -3.7973 -0.8030
   36DOPE   C34 4601   4.726   4.781   3.678 -0.0822  0.1625  0.0604
   36DOPE   H4X 4602   4.823   4.828   3.705  0.2695  0.3305 -1.3709
   36DOPE   H4Y 4603   4.638   4.846   3.699 -0.2699 -0.3354  0.8296
   36DOPE   C35 4604   4.713   4.648   3.748 -0.1481 -0.1071  0.1405
   36DOPE   H5X 4605   4.795   4.581   3.715  0.7752  1.0198  0.1004
   36DOPE   H5Y 4606   4.614   4.604   3.723 -0.2097  0.4888 -0.7074
   36DOPE   C36 4607   4.726   4.669   3.900  0.5895 -0.5541  0.9102
   36DOPE   H6X 4608   4.646   4.741   3.927 -0.0867 -0.7816 -0.4409
   36DOPE   H6Y 4609   4.827   4.712   3.921  0.5327  0.2005 -0.2774
   36DOPE   C37 4610   4.719   4.535   3.983 -0.1826 -0.4028 -0.2050
   36DOPE   H7X 4611   4.623   4.484   3.958 -0.4846  0.9468 -1.9589
   36DOPE   H7Y 4612   4.799   4.464   3.953 -0.2881 -0.3030 -0.7163
   36DOPE   C38 4613   4.727   4.564   4.140  0.0949 -0.6520  0.0917
   36DOPE   H8X 4614   4.659   4.652   4.148 -1.3097 -1.5013 -1.8207
   36DOPE   H8Y 4615   4.833   4.594   4.157 -0.0066  0.4777 -1.0489
   36DOPE   C39 4616   4.688   4.447   4.233 -0.1738 -0.2858  0.2492
   36DOPE   H9X 4617   4.757   4.362   4.226  1.4457  1.0940 -2.8696
   36DOPE  C310 4618   4.593   4.451   4.326 -0.4047 -0.1956  0.1002
   36DOPE  H10X 4619   4.589   4.367   4.396  0.6452 -0.4365 -0.1051
   36DOPE  C311 4620   4.500   4.564   4.365 -0.0746  0.2141 -0.0469
   36DOPE  H11X 4621   4.533   4.656   4.313 -0.9270 -0.7865 -2.4857
   36DOPE  H11Y 4622   4.397   4.540   4.330  0.5097 -1.2233 -0.8639
   36DOPE  C312 4623   4.501   4.587   4.519 -0.3684  0.1596  0.1689
   36DOPE  H12X 4624   4.434   4.672   4.543  0.0055  0.2552  0.8909
   36DOPE  H12Y 4625   4.600   4.616   4.562 -0.5577  0.9286  0.1043
   36DOPE  C313 4626   4.447   4.474   4.607  0.2964  0.2707 -0.3845
   36DOPE  H13X 4627   4.338   4.457   4.595  0.3109 -0.3652  0.3201
   36DOPE  H13Y 4628   4.494   4.380   4.571  0.7095  0.0625  0.6893
   36DOPE  C314 4629   4.474   4.489   4.756 -0.4104  0.1315  0.3453
   36DOPE  H14X 4630   4.583   4.480   4.775 -0.6802 -1.3615  1.3063
   36DOPE  H14Y 4631   4.423   4.410   4.815 -0.8682  0.0426 -0.1680
   36DOPE  C315 4632   4.424   4.624   4.813 -0.7610 -0.8351  0.3111
   36DOPE  H15X 4633   4.314   4.636   4.807 -0.6675  0.2058  0.6165
   36DOPE  H15Y 4634   4.462   4.711   4.755 -0.4665 -0.2092  1.4258
   36DOPE  C316 4635   4.462   4.643   4.955 -1.5489 -0.5594  0.4469
   36DOPE  H16X 4636   4.570   4.667   4.964 -1.8039 -0.0584  3.2100
   36DOPE  H16Y 4637   4.448   4.546   5.007  0.3070 -0.6421  0.8440
   36DOPE  C317 4638   4.395   4.760   5.030 -1.2927  0.1182  0.5920
   36DOPE  H17X 4639   4.419   4.862   4.992 -1.4962  0.1605  0.5758
   36DOPE  H17Y 4640   4.286   4.757   5.007 -1.0285 -1.4269 -0.5992
   36DOPE  C318 4641   4.422   4.763   5.180 -0.2838 -0.0903 -0.1586
   36DOPE  H18X 4642   4.404   4.669   5.235  0.1774  0.0083  0.1626
   36DOPE  H18Y 4643   4.530   4.786   5.183 -0.7789  3.4063 -2.7882
   36DOPE  H18Z 4644   4.371   4.847   5.232 -0.4093 -0.4231  0.2540
   37DOPE     N 4645   2.308   3.437   2.408  0.1657  0.2093 -0.3631
   37DOPE   HN1 4646   2.302   3.470   2.310 -2.3227  3.3635  0.7159
   37DOPE   HN2 4647   2.220   3.454   2.460  0.4524  1.5273 -0.2869
   37DOPE   HN3 4648   2.392   3.464   2.462  0.6743 -1.3563 -0.3023
   37DOPE   C12 4649   2.317   3.289   2.389 -0.3528  0.5782 -0.5481
   37DOPE  H12A 4650   2.371   3.249   2.477 -0.5405  0.8108 -0.3267
   37DOPE  H12B 4651   2.373   3.268   2.295 -1.3704 -3.5062 -0.3995
   37DOPE   C11 4652   2.179   3.224   2.380  0.0988 -0.6507 -0.1085
   37DOPE  H11A 4653   2.188   3.116   2.355  1.8613 -0.7962  0.9924
   37DOPE  H11B 4654   2.121   3.278   2.302 -0.3303 -1.3198 -0.2679
   37DOPE     P 4655   2.037   3.148   2.593  0.0175  0.6628 -0.0769
   37DOPE   O13 4656   1.970   3.047   2.514  0.2635 -0.4526  0.5383
   37DOPE   O14 4657   1.965   3.213   2.703 -0.5391  0.0698 -0.4231
   37DOPE   O11 4658   2.159   3.075   2.644 -0.3247  0.4309 -0.2992
   37DOPE   O12 4659   2.106   3.252   2.500  0.2715  0.1350 -0.1208
   37DOPE    C1 4660   2.263   3.128   2.726 -0.1343 -0.2987  0.1243
   37DOPE    HA 4661   2.282   3.234   2.701  1.9151 -0.6639 -0.0046
   37DOPE    HB 4662   2.360   3.080   2.704  0.4815  1.5424 -1.5526
   37DOPE    C2 4663   2.219   3.117   2.875  0.6962 -0.3718 -0.6176
   37DOPE    HS 4664   2.135   3.189   2.885  1.9108  1.1745 -1.2029
   37DOPE   O21 4665   2.331   3.159   2.959  0.0801  0.2967 -0.1514
   37DOPE   C21 4666   2.310   3.264   3.040  0.3058  0.3581  0.5814
   37DOPE   O22 4667   2.213   3.334   3.027  0.7087 -0.2991 -0.0318
   37DOPE   C22 4668   2.401   3.262   3.154 -1.0383 -0.4624 -0.6254
   37DOPE   H2R 4669   2.494   3.314   3.124 -1.4428  0.4989 -0.2389
   37DOPE   H2S 4670   2.415   3.154   3.176 -3.0466 -0.4307  1.0279
   37DOPE    C3 4671   2.176   2.969   2.909 -0.4055  0.4706 -0.3891
   37DOPE    HX 4672   2.257   2.910   2.862 -1.9957 -1.0578 -1.3310
   37DOPE    HY 4673   2.085   2.940   2.853  0.0964 -0.9254 -0.5254
   37DOPE   O31 4674   2.180   2.933   3.053 -0.1753 -0.0555  0.3583
   37DOPE   C31 4675   2.055   2.939   3.109  0.2228  0.2220  0.2044
   37DOPE   O32 4676   1.959   2.979   3.045  0.6491  0.2539 -0.1526
   37DOPE   C32 4677   2.073   2.921   3.259 -0.0759  0.2376 -0.3372
   37DOPE   H2X 4678   2.182   2.925   3.283 -0.4462  1.1703  1.4244
   37DOPE   H2Y 4679   2.031   3.007   3.316  0.7573 -1.2119  2.7292
   37DOPE   C23 4680   2.338   3.337   3.271 -0.1472 -0.5461 -0.2637
   37DOPE   H3R 4681   2.230   3.318   3.287 -0.4076  2.3248  2.3111
   37DOPE   H3S 4682   2.352   3.443   3.242  1.1454 -1.0540 -1.5981
   37DOPE   C24 4683   2.410   3.306   3.399 -0.2396 -0.2678 -0.1119
   37DOPE   H4R 4684   2.405   3.391   3.470  2.7257 -0.2232  0.1632
   37DOPE   H4S 4685   2.516   3.320   3.369 -0.6542  0.2028 -1.4468
   37DOPE   C25 4686   2.369   3.171   3.465  0.1917  0.0423  0.1060
   37DOPE   H5R 4687   2.411   3.097   3.394  1.3023  0.3687  0.4044
   37DOPE   H5S 4688   2.261   3.149   3.478 -0.3296  2.1976 -0.2303
   37DOPE   C26 4689   2.443   3.155   3.601 -0.4723  0.1401 -0.3367
   37DOPE   H6R 4690   2.413   3.237   3.669  1.3521 -1.9324  3.2412
   37DOPE   H6S 4691   2.553   3.170   3.590 -0.8245  2.2646 -1.4637
   37DOPE   C27 4692   2.403   3.036   3.693 -0.0025 -0.9508  0.4932
   37DOPE   H7R 4693   2.426   2.938   3.645 -3.0805 -1.2488 -0.5387
   37DOPE   H7S 4694   2.293   3.041   3.698 -0.3386 -1.6879 -3.1872
   37DOPE   C28 4695   2.456   3.061   3.836  0.2950 -0.2194  0.3787
   37DOPE   H8R 4696   2.437   3.164   3.871  1.7677 -0.3897  1.8060
   37DOPE   H8S 4697   2.564   3.037   3.835  0.3231 -0.0910  0.3633
   37DOPE   C29 4698   2.397   2.957   3.931 -0.7254  0.4706  0.5087
   37DOPE   H9R 4699   2.414   2.849   3.922 -1.1636  0.3349  1.1891
   37DOPE  C210 4700   2.334   2.986   4.045 -0.1506 -0.3447  0.7807
   37DOPE  H10R 4701   2.301   2.899   4.103  0.8758 -0.6584  0.9255
   37DOPE  C211 4702   2.297   3.122   4.106  0.2709 -0.1419 -0.2468
   37DOPE  H11R 4703   2.196   3.123   4.152 -0.3170 -0.9469 -1.4498
   37DOPE  H11S 4704   2.279   3.197   4.026  0.7429  0.2048 -0.0302
   37DOPE  C212 4705   2.401   3.164   4.201 -0.4085 -0.6607  0.8189
   37DOPE  H12R 4706   2.414   3.274   4.210 -0.7552 -0.5489 -0.0155
   37DOPE  H12S 4707   2.499   3.121   4.171 -0.4283 -0.3156  0.2509
   37DOPE  C213 4708   2.372   3.113   4.345 -0.1216  1.0772  0.7352
   37DOPE  H13R 4709   2.362   3.003   4.333 -1.3723  1.2507  0.0995
   37DOPE  H13S 4710   2.273   3.145   4.383  0.2577  1.5759  1.3351
   37DOPE  C214 4711   2.483   3.146   4.453 -0.5409  0.2592 -0.6082
   37DOPE  H14R 4712   2.510   3.254   4.459  1.7182 -0.3315  1.4668
   37DOPE  H14S 4713   2.571   3.094   4.410  0.1513 -0.6032  1.6645
   37DOPE  C215 4714   2.452   3.073   4.596 -0.2374  0.4957  0.1589
   37DOPE  H15R 4715   2.439   2.963   4.585 -0.5291  0.3166  1.9939
   37DOPE  H15S 4716   2.356   3.116   4.632  0.4097  0.5297  1.9147
   37DOPE  C216 4717   2.556   3.103   4.697  0.6680  0.0781 -0.0127
   37DOPE  H16R 4718   2.546   3.212   4.715 -1.7771 -0.2205  0.8041
   37DOPE  H16S 4719   2.661   3.083   4.665  1.1934 -0.2094  1.7604
   37DOPE  C217 4720   2.526   3.037   4.828 -0.0318 -0.2009  0.0210
   37DOPE  H17R 4721   2.531   2.926   4.822  0.0694 -0.2286  0.5937
   37DOPE  H17S 4722   2.423   3.070   4.852 -0.2778  0.5349 -1.8423
   37DOPE  C218 4723   2.622   3.076   4.942 -0.1217  0.0012 -0.3625
   37DOPE  H18R 4724   2.729   3.051   4.926  0.1610  0.8688  0.0859
   37DOPE  H18S 4725   2.579   3.030   5.033  0.9765 -1.0601 -0.3625
   37DOPE  H18T 4726   2.616   3.186   4.955  0.1925  0.1573 -1.4458
   37DOPE   C33 4727   1.999   2.794   3.300 -0.3334 -0.3580 -0.3850
   37DOPE   H3X 4728   2.016   2.694   3.254 -0.8450 -1.4140  1.5886
   37DOPE   H3Y 4729   1.889   2.805   3.294 -0.4354 -1.8555 -2.3301
   37DOPE   C34 4730   2.046   2.761   3.442  0.0318  0.1428  0.1610
   37DOPE   H4X 4731   2.011   2.658   3.465 -2.5723  0.8683 -0.2874
   37DOPE   H4Y 4732   2.156   2.747   3.434 -0.2286 -2.2693 -0.0677
   37DOPE   C35 4733   2.014   2.871   3.550 -0.5496 -0.2981 -0.4575
   37DOPE   H5X 4734   1.904   2.886   3.558 -0.5036 -0.4329  0.7132
   37DOPE   H5Y 4735   2.059   2.971   3.535  1.0158 -0.8991  0.0772
   37DOPE   C36 4736   2.071   2.837   3.692  0.5860 -0.3258  0.5370
   37DOPE   H6X 4737   2.072   2.928   3.756 -0.0912  0.7673 -0.9526
   37DOPE   H6Y 4738   2.177   2.805   3.684  0.5261 -0.9632  1.9278
   37DOPE   C37 4739   1.991   2.725   3.755  0.1722 -0.0416 -0.0877
   37DOPE   H7X 4740   1.882   2.745   3.762  0.4448  1.2292  0.6859
   37DOPE   H7Y 4741   2.001   2.637   3.688 -3.1214 -0.4171 -0.2885
   37DOPE   C38 4742   2.049   2.676   3.893  0.0946  0.3760  0.0987
   37DOPE   H8X 4743   2.156   2.648   3.882 -0.0053  0.0182  0.0361
   37DOPE   H8Y 4744   1.996   2.581   3.913  0.8156 -0.5557 -1.9960
   37DOPE   C39 4745   2.022   2.780   3.999 -0.5321 -0.7888 -0.4463
   37DOPE   H9X 4746   1.993   2.880   3.963  3.1569  0.3565 -0.6500
   37DOPE  C310 4747   2.007   2.754   4.135  0.0817  0.8551  0.1803
   37DOPE  H10X 4748   1.981   2.838   4.202  0.7649 -0.3887  2.0974
   37DOPE  C311 4749   2.018   2.618   4.208 -0.0886 -0.0695  0.9936
   37DOPE  H11X 4750   1.918   2.579   4.235 -0.1417 -0.1388  0.7001
   37DOPE  H11Y 4751   2.065   2.543   4.140  0.2151 -2.7581  3.9279
   37DOPE  C312 4752   2.099   2.632   4.336 -0.6355 -0.5799 -0.1503
   37DOPE  H12X 4753   2.182   2.704   4.316 -3.2310  2.4941 -0.5839
   37DOPE  H12Y 4754   2.149   2.534   4.355  1.4252  0.2794 -0.8559
   37DOPE  C313 4755   2.018   2.666   4.461 -0.1166 -0.3828 -0.4972
   37DOPE  H13X 4756   1.968   2.764   4.453  1.6392  0.3720 -3.4815
   37DOPE  H13Y 4757   1.931   2.598   4.474 -1.3843  0.5236 -3.5532
   37DOPE  C314 4758   2.103   2.667   4.587  0.6036  0.8273 -0.3375
   37DOPE  H14X 4759   2.204   2.711   4.569  0.1437  1.2196 -2.2295
   37DOPE  H14Y 4760   2.114   2.564   4.628 -1.5093  0.5207 -0.4520
   37DOPE  C315 4761   2.042   2.752   4.698  0.2298  0.0391  0.7568
   37DOPE  H15X 4762   1.932   2.739   4.703 -0.1366  1.0912 -2.1186
   37DOPE  H15Y 4763   2.041   2.855   4.655  0.2631 -0.3348 -0.1655
   37DOPE  C316 4764   2.122   2.765   4.831 -0.1250  0.7083  0.1798
   37DOPE  H16X 4765   2.229   2.746   4.807 -0.1608  0.6926  0.0326
   37DOPE  H16Y 4766   2.084   2.701   4.914 -0.5402  0.9026  0.1421
   37DOPE  C317 4767   2.113   2.909   4.888 -0.1363 -0.2204  0.3550
   37DOPE  H17X 4768   2.148   2.987   4.818 -0.3874 -0.7830 -0.4124
   37DOPE  H17Y 4769   2.008   2.940   4.907 -0.2729 -0.8586  0.6852
   37DOPE  C318 4770   2.194   2.909   5.013 -0.4114  0.0426 -0.0042
   37DOPE  H18X 4771   2.162   2.854   5.104  1.0519  0.0955  0.5772
   37DOPE  H18Y 4772   2.301   2.887   4.993 -0.1396  1.2322  0.1107
   37DOPE  H18Z 4773   2.201   3.012   5.053 -0.8780  0.1929 -0.2985
   38DOPE     N 4774   5.619   5.608   2.421 -0.1600  1.2826 -0.2553
   38DOPE   HN1 4775   5.650   5.689   2.478  1.6692 -0.1777  0.9296
   38DOPE   HN2 4776   5.708   5.557   2.408  0.7635  2.9624 -0.8712
   38DOPE   HN3 4777   5.593   5.634   2.323 -0.2035  0.3750 -0.4905
   38DOPE   C12 4778   5.509   5.520   2.484  0.2038 -1.1597 -0.5306
   38DOPE  H12A 4779   5.417   5.582   2.480  1.5851  1.1982  1.2879
   38DOPE  H12B 4780   5.535   5.491   2.589 -0.7295 -0.9772 -0.2418
   38DOPE   C11 4781   5.493   5.394   2.397 -0.4587 -0.4234 -0.3524
   38DOPE  H11A 4782   5.487   5.418   2.289  2.0593  0.0156 -0.4440
   38DOPE  H11B 4783   5.404   5.343   2.440  0.0762  0.9695  2.7324
   38DOPE     P 4784   5.647   5.189   2.334 -0.2065  0.3616 -0.3294
   38DOPE   O13 4785   5.666   5.246   2.203 -1.0048  0.3053 -0.0164
   38DOPE   O14 4786   5.556   5.072   2.335  0.1842  0.1692 -0.2106
   38DOPE   O11 4787   5.790   5.148   2.385  0.3150  0.0258  0.3516
   38DOPE   O12 4788   5.600   5.304   2.430  0.3852 -0.0290  0.0745
   38DOPE    C1 4789   5.837   5.207   2.505 -0.5005 -0.1034  0.3337
   38DOPE    HA 4790   5.763   5.228   2.585  0.7370  0.0735  1.4670
   38DOPE    HB 4791   5.881   5.304   2.474 -2.1619  0.6459  0.1982
   38DOPE    C2 4792   5.956   5.127   2.561 -0.3684 -1.0047  0.6067
   38DOPE    HS 4793   5.988   5.070   2.470  1.4879  2.1158 -0.9034
   38DOPE   O21 4794   5.906   5.042   2.671  0.2202 -0.4022  0.2441
   38DOPE   C21 4795   5.988   4.949   2.717  0.1227  0.3912  0.4007
   38DOPE   O22 4796   6.088   4.904   2.662 -0.2949  0.2744 -0.4925
   38DOPE   C22 4797   5.912   4.882   2.836 -0.2922 -0.0258 -0.0510
   38DOPE   H2R 4798   5.852   4.799   2.793 -1.6334  0.3056  1.1177
   38DOPE   H2S 4799   5.848   4.955   2.891 -0.4725  0.6524 -1.1304
   38DOPE    C3 4800   6.070   5.218   2.609 -0.5562 -0.0375 -0.1136
   38DOPE    HX 4801   6.122   5.266   2.524  1.4803  0.5613  1.4074
   38DOPE    HY 4802   6.150   5.157   2.654 -0.9882 -0.6289 -0.1365
   38DOPE   O31 4803   6.030   5.330   2.695 -0.3291 -0.1333 -0.2774
   38DOPE   C31 4804   6.049   5.288   2.829  0.4917  0.6317 -0.5206
   38DOPE   O32 4805   6.079   5.179   2.865 -0.3753  0.5709 -0.6237
   38DOPE   C32 4806   6.016   5.399   2.924 -0.0207 -0.7106  0.0648
   38DOPE   H2X 4807   5.950   5.473   2.874 -1.9017 -1.0987  1.8292
   38DOPE   H2Y 4808   5.954   5.361   3.008  1.0606 -3.7280 -0.3705
   38DOPE   C23 4809   6.014   4.817   2.939 -0.2839  0.0112  0.1672
   38DOPE   H3R 4810   6.092   4.894   2.959  0.9890 -0.4769 -2.4356
   38DOPE   H3S 4811   6.069   4.743   2.878 -1.4179 -0.8085  0.1059
   38DOPE   C24 4812   5.954   4.749   3.056 -0.1986  0.0185 -0.0246
   38DOPE   H4R 4813   5.922   4.836   3.118  0.7456  1.2100 -1.1399
   38DOPE   H4S 4814   6.037   4.710   3.117  0.2293  1.6431  0.4938
   38DOPE   C25 4815   5.832   4.659   3.033 -0.0327  0.6345 -0.3722
   38DOPE   H5R 4816   5.861   4.558   2.998 -0.8424  0.2784 -0.0599
   38DOPE   H5S 4817   5.765   4.713   2.963  0.4656 -0.0544 -1.4035
   38DOPE   C26 4818   5.751   4.628   3.165  0.4498 -0.1019 -0.2769
   38DOPE   H6R 4819   5.817   4.568   3.232  0.9390 -0.3125 -0.9442
   38DOPE   H6S 4820   5.663   4.563   3.146 -0.3624  0.7688  0.3975
   38DOPE   C27 4821   5.693   4.747   3.245 -0.0171 -0.2268  0.1374
   38DOPE   H7R 4822   5.634   4.805   3.170 -0.3262 -1.9616 -1.0162
   38DOPE   H7S 4823   5.770   4.821   3.273 -1.2270  1.4481 -0.7853
   38DOPE   C28 4824   5.612   4.715   3.376  0.3936 -0.5081  0.3614
   38DOPE   H8R 4825   5.657   4.622   3.418 -0.3429 -0.9992  0.0722
   38DOPE   H8S 4826   5.509   4.694   3.342  0.1758  2.2742 -0.9759
   38DOPE   C29 4827   5.631   4.829   3.477 -0.2692  0.0114 -0.4881
   38DOPE   H9R 4828   5.727   4.824   3.530 -0.6442 -1.0434  0.1244
   38DOPE  C210 4829   5.538   4.934   3.495 -0.5795  0.0021  0.5297
   38DOPE  H10R 4830   5.552   5.002   3.580  0.8564 -0.5524  0.7600
   38DOPE  C211 4831   5.404   4.952   3.424  0.3355 -0.4501  0.6687
   38DOPE  H11R 4832   5.386   4.873   3.349 -2.1044  0.0027  0.7102
   38DOPE  H11S 4833   5.392   5.056   3.387 -0.4157 -0.2689  1.3875
   38DOPE  C212 4834   5.295   4.934   3.532 -0.3104 -0.1115  0.3760
   38DOPE  H12R 4835   5.202   4.964   3.479  1.8184  0.9020 -3.1169
   38DOPE  H12S 4836   5.319   5.004   3.614 -1.0089 -0.9416  1.3289
   38DOPE  C213 4837   5.271   4.787   3.576  0.0950 -0.8295 -0.2537
   38DOPE  H13R 4838   5.371   4.755   3.613  0.5876  2.3788  1.5672
   38DOPE  H13S 4839   5.242   4.738   3.481  0.9738  0.3226 -1.1489
   38DOPE  C214 4840   5.167   4.783   3.689  0.2647 -0.1832  0.8416
   38DOPE  H14R 4841   5.064   4.806   3.655 -0.4987 -0.5003  2.8214
   38DOPE  H14S 4842   5.206   4.858   3.762  1.0104 -1.2886  1.6060
   38DOPE  C215 4843   5.148   4.647   3.762 -0.1705 -0.2510  0.0937
   38DOPE  H15R 4844   5.153   4.562   3.690 -0.2569  0.0553 -0.2786
   38DOPE  H15S 4845   5.047   4.637   3.808 -0.2718  0.7013  0.0883
   38DOPE  C216 4846   5.250   4.629   3.879  0.0396 -0.4602 -0.8774
   38DOPE  H16R 4847   5.218   4.698   3.960  0.2829 -3.2625  1.7900
   38DOPE  H16S 4848   5.357   4.657   3.862  0.9097 -1.1075  2.7514
   38DOPE  C217 4849   5.261   4.492   3.956  0.3970 -0.1290 -0.6643
   38DOPE  H17R 4850   5.321   4.513   4.046 -0.1662  1.6791 -0.6795
   38DOPE  H17S 4851   5.318   4.421   3.892 -0.1768  0.7611 -2.2095
   38DOPE  C218 4852   5.130   4.445   4.002  0.1381  0.4364 -0.8716
   38DOPE  H18R 4853   5.057   4.400   3.932 -1.1322  2.3969 -0.8715
   38DOPE  H18S 4854   5.067   4.504   4.072  1.4788  0.0190  0.7524
   38DOPE  H18T 4855   5.148   4.352   4.061 -0.9869  0.9891  0.4128
   38DOPE   C33 4856   6.133   5.476   2.980  0.2226  0.3449 -0.3436
   38DOPE   H3X 4857   6.089   5.559   3.040  0.9874  0.2164  0.4230
   38DOPE   H3Y 4858   6.191   5.516   2.895 -0.4077 -0.5931 -1.2397
   38DOPE   C34 4859   6.224   5.402   3.077  0.2883 -0.5241  0.5116
   38DOPE   H4X 4860   6.155   5.370   3.157  0.9642  1.3701  1.9386
   38DOPE   H4Y 4861   6.268   5.313   3.026  0.2123  0.5055 -1.4338
   38DOPE   C35 4862   6.331   5.481   3.143 -0.3180 -0.6652  0.1307
   38DOPE   H5X 4863   6.283   5.555   3.210 -0.5461 -0.2352 -0.5042
   38DOPE   H5Y 4864   6.390   5.531   3.064  2.3865 -0.2431  2.2311
   38DOPE   C36 4865   6.446   5.408   3.225 -0.1641 -0.3721  0.2142
   38DOPE   H6X 4866   6.529   5.479   3.246 -1.7629  1.0869  1.9204
   38DOPE   H6Y 4867   6.475   5.332   3.150 -0.5647  0.0113 -0.3408
   38DOPE   C37 4868   6.388   5.348   3.359  0.3402 -0.2858 -0.8372
   38DOPE   H7X 4869   6.364   5.437   3.420 -1.1447 -0.4888 -1.0923
   38DOPE   H7Y 4870   6.294   5.292   3.340  1.8751 -3.6748  0.6572
   38DOPE   C38 4871   6.479   5.253   3.436  0.0488  0.1439  0.1125
   38DOPE   H8X 4872   6.431   5.240   3.535  0.6398 -1.1798  0.2427
   38DOPE   H8Y 4873   6.571   5.312   3.457  0.8126 -1.1673  0.5516
   38DOPE   C39 4874   6.527   5.124   3.379  0.3131  0.2020  0.0411
   38DOPE   H9X 4875   6.620   5.131   3.320  0.2645  1.5682  0.0980
   38DOPE  C310 4876   6.493   4.996   3.423  0.0895 -0.1903  0.2105
   38DOPE  H10X 4877   6.538   4.910   3.371 -0.6675 -1.5154  1.6288
   38DOPE  C311 4878   6.403   4.955   3.536 -0.6066 -0.1897  0.4986
   38DOPE  H11X 4879   6.474   4.917   3.613 -1.0203 -1.3303  0.3379
   38DOPE  H11Y 4880   6.335   5.035   3.571 -0.6249  0.6342 -1.3192
   38DOPE  C312 4881   6.318   4.826   3.509  0.1511 -0.5311 -0.4895
   38DOPE  H12X 4882   6.385   4.740   3.487  0.4910 -1.2102  2.7727
   38DOPE  H12Y 4883   6.257   4.838   3.417  0.7183 -0.0717 -0.8163
   38DOPE  C313 4884   6.232   4.794   3.634  0.5383 -0.3811 -0.2291
   38DOPE  H13X 4885   6.297   4.789   3.724 -0.9536 -1.4823  0.8208
   38DOPE  H13Y 4886   6.147   4.866   3.638 -0.6353 -1.7638  0.8366
   38DOPE  C314 4887   6.168   4.658   3.618 -0.3449 -0.1212 -0.6160
   38DOPE  H14X 4888   6.243   4.581   3.590 -1.0551 -1.4141  0.8922
   38DOPE  H14Y 4889   6.102   4.664   3.529  0.5456 -0.1420 -1.2889
   38DOPE  C315 4890   6.101   4.618   3.750 -0.2756  0.2857 -0.1901
   38DOPE  H15X 4891   6.162   4.648   3.838 -0.5187  0.6988 -0.1627
   38DOPE  H15Y 4892   6.087   4.507   3.753 -0.6564  0.2877 -1.3462
   38DOPE  C316 4893   5.962   4.675   3.771  0.3654  0.1299 -0.0248
   38DOPE  H16X 4894   5.897   4.673   3.682 -0.5455  3.1336  0.4508
   38DOPE  H16Y 4895   5.972   4.786   3.780  1.6628 -0.1495  3.6955
   38DOPE  C317 4896   5.896   4.632   3.896 -0.1169  0.3501 -0.2996
   38DOPE  H17X 4897   5.889   4.521   3.894 -1.3603  0.4239 -1.0151
   38DOPE  H17Y 4898   5.955   4.667   3.983  0.2672 -1.7151  0.3251
   38DOPE  C318 4899   5.746   4.681   3.895 -0.6479  0.3214 -0.3842
   38DOPE  H18X 4900   5.734   4.791   3.903 -2.5570  0.1024  0.2914
   38DOPE  H18Y 4901   5.690   4.645   3.806  1.3431  1.3492 -2.1326
   38DOPE  H18Z 4902   5.698   4.633   3.983  0.2038 -0.7166 -0.4691
   39DOPE     N 4903   1.789   4.034   2.514 -0.0615  0.0588 -0.0815
   39DOPE   HN1 4904   1.866   3.990   2.460  0.2915  0.0029  0.4563
   39DOPE   HN2 4905   1.721   4.073   2.447  0.1140  0.7213  0.1201
   39DOPE   HN3 4906   1.828   4.115   2.567 -0.0362 -1.9812  3.3395
   39DOPE   C12 4907   1.731   3.943   2.617  0.6154 -0.3719  0.0915
   39DOPE  H12A 4908   1.681   3.859   2.565  1.3527 -2.2142  2.2160
   39DOPE  H12B 4909   1.654   3.995   2.678 -0.1374  0.1128 -1.2401
   39DOPE   C11 4910   1.836   3.896   2.724  0.2444 -0.5189  0.1761
   39DOPE  H11A 4911   1.787   3.815   2.782 -2.2398 -0.1755 -1.2963
   39DOPE  H11B 4912   1.846   3.971   2.805 -0.8144 -1.2090  0.9856
   39DOPE     P 4913   2.090   3.940   2.686  0.3661  0.0419  0.1705
   39DOPE   O13 4914   2.090   4.044   2.581 -0.4273 -0.6794  0.0448
   39DOPE   O14 4915   2.201   3.842   2.691 -0.3765  0.1891 -0.1921
   39DOPE   O11 4916   2.073   4.001   2.831 -0.7798 -0.0328  0.6074
   39DOPE   O12 4917   1.960   3.854   2.663 -0.0041 -0.0169 -0.0140
   39DOPE    C1 4918   2.101   3.906   2.937  0.4400 -0.4220  0.3516
   39DOPE    HA 4919   2.210   3.895   2.955  0.1567 -0.2432  2.3288
   39DOPE    HB 4920   2.051   3.810   2.914 -1.0273 -0.0824  1.9569
   39DOPE    C2 4921   2.022   3.936   3.067 -0.2324 -0.6006 -0.3578
   39DOPE    HS 4922   1.917   3.961   3.039 -0.7770 -2.0547  0.2630
   39DOPE   O21 4923   2.098   4.041   3.134  0.1499 -0.0663  0.6450
   39DOPE   C21 4924   2.021   4.118   3.206  0.2543 -0.0305  0.1469
   39DOPE   O22 4925   1.902   4.103   3.221  0.0733 -0.5689 -0.6035
   39DOPE   C22 4926   2.108   4.224   3.271 -0.0897 -0.5469 -0.3244
   39DOPE   H2R 4927   2.131   4.307   3.202  3.7490 -1.0516  0.1380
   39DOPE   H2S 4928   2.206   4.179   3.297 -0.4709 -0.7693  0.7906
   39DOPE    C3 4929   2.018   3.817   3.165  0.1333 -0.1336  0.4904
   39DOPE    HX 4930   2.120   3.791   3.199 -0.8525 -0.2207  3.7451
   39DOPE    HY 4931   1.981   3.731   3.105 -0.1980 -0.5542  1.2847
   39DOPE   O31 4932   1.933   3.833   3.277 -0.2584  0.0149  0.0725
   39DOPE   C31 4933   1.801   3.832   3.255 -0.6859  0.1553 -0.4528
   39DOPE   O32 4934   1.748   3.811   3.145 -0.5049  0.0727 -0.3665
   39DOPE   C32 4935   1.727   3.857   3.382  0.1148  0.4225  0.7002
   39DOPE   H2X 4936   1.751   3.783   3.461 -0.3581 -0.0108  0.4424
   39DOPE   H2Y 4937   1.766   3.957   3.413  1.8221  0.1214 -0.3674
   39DOPE   C23 4938   2.037   4.286   3.400  0.1544  0.1298 -0.5249
   39DOPE   H3R 4939   1.944   4.344   3.383 -0.9924 -0.5868  2.6293
   39DOPE   H3S 4940   2.109   4.366   3.427 -0.5948 -0.3908  3.5304
   39DOPE   C24 4941   2.035   4.197   3.519  0.0564 -0.7148  0.0568
   39DOPE   H4R 4942   2.133   4.146   3.526  0.3604 -0.4369 -1.7607
   39DOPE   H4S 4943   1.956   4.121   3.502 -1.8982  1.5236 -1.4534
   39DOPE   C25 4944   1.995   4.278   3.646  0.1214  0.4509  0.8542
   39DOPE   H5R 4945   1.896   4.326   3.626  0.0019 -0.8156 -2.2337
   39DOPE   H5S 4946   2.073   4.351   3.674  0.6236 -0.6500  2.4386
   39DOPE   C26 4947   1.987   4.186   3.775  0.0341  0.0193  0.6955
   39DOPE   H6R 4948   2.094   4.164   3.796  0.1144 -0.2597  0.0019
   39DOPE   H6S 4949   1.921   4.100   3.755 -0.3504  0.5169 -0.2114
   39DOPE   C27 4950   1.915   4.261   3.893  0.0456  0.4436 -0.1687
   39DOPE   H7R 4951   1.961   4.359   3.917 -1.1290  0.5697  1.6796
   39DOPE   H7S 4952   1.934   4.197   3.981 -0.2183  0.6214  0.0179
   39DOPE   C28 4953   1.760   4.277   3.889 -0.4481 -0.2920 -0.7061
   39DOPE   H8R 4954   1.714   4.181   3.860 -0.8536 -0.1628 -0.4937
   39DOPE   H8S 4955   1.745   4.361   3.817 -3.7062 -0.4858 -0.3912
   39DOPE   C29 4956   1.700   4.314   4.024 -0.7738  0.3537 -0.3144
   39DOPE   H9R 4957   1.666   4.418   4.037  1.5280  0.9444  1.6410
   39DOPE  C210 4958   1.677   4.239   4.132  0.2120  0.3989  0.5849
   39DOPE  H10R 4959   1.627   4.280   4.221 -0.4058  0.3439  0.2754
   39DOPE  C211 4960   1.721   4.092   4.137  0.5733  0.1040  0.1150
   39DOPE  H11R 4961   1.796   4.065   4.214  2.1486 -1.8207 -1.9961
   39DOPE  H11S 4962   1.751   4.050   4.039  0.5773 -0.7849  0.4904
   39DOPE  C212 4963   1.593   3.995   4.165  0.3668 -0.2030 -0.2694
   39DOPE  H12R 4964   1.634   3.892   4.160  0.4881 -0.1798  0.1823
   39DOPE  H12S 4965   1.510   3.995   4.091 -0.1660 -0.9279  0.3170
   39DOPE  C213 4966   1.529   4.020   4.300  0.1403  0.4471  0.1327
   39DOPE  H13R 4967   1.489   4.123   4.312 -1.9626  0.0626 -2.6286
   39DOPE  H13S 4968   1.604   4.007   4.380  3.5726 -0.0949 -2.9382
   39DOPE  C214 4969   1.406   3.933   4.330  0.4386 -0.1193  0.1313
   39DOPE  H14R 4970   1.423   3.825   4.308  1.8594  0.3540 -1.3490
   39DOPE  H14S 4971   1.320   3.967   4.269  1.2938  0.5767 -0.7229
   39DOPE  C215 4972   1.362   3.939   4.479 -0.0596 -0.1412  0.2244
   39DOPE  H15R 4973   1.353   4.049   4.496  1.3146  0.4436 -2.3245
   39DOPE  H15S 4974   1.451   3.908   4.537  0.6433 -0.0171 -0.7612
   39DOPE  C216 4975   1.238   3.853   4.526  0.6593  0.6008 -0.6335
   39DOPE  H16R 4976   1.146   3.891   4.477 -1.4415  1.9091  3.8462
   39DOPE  H16S 4977   1.216   3.870   4.633 -2.2750 -3.1017 -0.4239
   39DOPE  C217 4978   1.254   3.701   4.502  0.4420 -0.6262  0.4287
   39DOPE  H17R 4979   1.360   3.677   4.524  0.4792 -0.5172  0.3715
   39DOPE  H17S 4980   1.230   3.678   4.396 -0.5179 -0.6939  0.6513
   39DOPE  C218 4981   1.165   3.620   4.597 -0.1807 -0.8925 -0.5863
   39DOPE  H18R 4982   1.057   3.642   4.591 -0.2587 -0.4500  1.6831
   39DOPE  H18S 4983   1.197   3.651   4.699  0.7918  0.6316 -1.3263
   39DOPE  H18T 4984   1.182   3.510   4.588 -2.4995 -1.1911 -1.9530
   39DOPE   C33 4985   1.579   3.870   3.360 -0.0040  0.6140  0.2073
   39DOPE   H3X 4986   1.539   3.780   3.308 -0.0640  0.7078  0.0915
   39DOPE   H3Y 4987   1.560   3.962   3.301  0.3090  0.5625  0.0253
   39DOPE   C34 4988   1.488   3.860   3.481  0.2125 -0.1069 -0.1080
   39DOPE   H4X 4989   1.381   3.852   3.454  0.8663 -2.0825 -2.4041
   39DOPE   H4Y 4990   1.513   3.767   3.537 -0.8340 -0.4488 -0.1887
   39DOPE   C35 4991   1.486   3.980   3.579 -0.0603  0.4111  0.7691
   39DOPE   H5X 4992   1.452   4.073   3.529 -1.7712 -0.5373  0.0910
   39DOPE   H5Y 4993   1.586   4.000   3.622  0.5713  0.9954 -0.8974
   39DOPE   C36 4994   1.378   3.962   3.689  0.6200 -0.1713 -0.7684
   39DOPE   H6X 4995   1.392   3.868   3.747  0.8772  0.3980  0.1236
   39DOPE   H6Y 4996   1.285   3.941   3.632 -0.1024 -1.7255  0.8803
   39DOPE   C37 4997   1.371   4.082   3.782 -0.4642 -0.0632  0.2243
   39DOPE   H7X 4998   1.473   4.088   3.826 -0.0184 -0.9784 -0.6454
   39DOPE   H7Y 4999   1.345   4.163   3.711  0.2995 -0.7374 -0.8686
   39DOPE   C38 5000   1.276   4.057   3.897  0.8008 -0.4837  0.1147
   39DOPE   H8X 5001   1.301   3.963   3.952 -3.7046 -0.3165  2.9670
   39DOPE   H8Y 5002   1.181   4.030   3.847 -0.1568  1.0833  1.0083
   39DOPE   C39 5003   1.258   4.176   3.984 -0.7726 -0.4422 -0.4627
   39DOPE   H9X 5004   1.334   4.254   3.970 -0.9618 -0.3354 -0.9012
   39DOPE  C310 5005   1.171   4.185   4.085  0.0260  0.1664  0.0131
   39DOPE  H10X 5006   1.155   4.282   4.134 -1.8194 -0.0834 -0.0289
   39DOPE  C311 5007   1.074   4.074   4.116 -0.4353 -0.1848 -0.7595
   39DOPE  H11X 5008   1.061   4.011   4.026 -1.9010 -0.0376 -0.6664
   39DOPE  H11Y 5009   1.116   4.029   4.209 -0.5776  1.4373  0.1443
   39DOPE  C312 5010   0.949   4.146   4.149  0.6084 -0.0731  0.2680
   39DOPE  H12X 5011   0.862   4.077   4.151  2.3221 -2.3750 -0.7403
   39DOPE  H12Y 5012   0.923   4.222   4.071  1.6891 -0.1811 -0.2222
   39DOPE  C313 5013   0.936   4.218   4.286 -0.0531  0.1722  0.2204
   39DOPE  H13X 5014   1.023   4.286   4.305  0.6782 -0.8673  0.6964
   39DOPE  H13Y 5015   0.841   4.274   4.277 -0.6614 -0.9568 -0.6332
   39DOPE  C314 5016   0.922   4.135   4.414  0.5292 -0.7084 -0.4704
   39DOPE  H14X 5017   1.022   4.100   4.446  1.3694  0.7022 -1.4878
   39DOPE  H14Y 5018   0.860   4.046   4.388  0.2375 -0.5451 -0.3388
   39DOPE  C315 5019   0.847   4.215   4.527  0.1563 -0.3708 -0.0205
   39DOPE  H15X 5020   0.816   4.313   4.485  1.9266 -0.3990 -1.4986
   39DOPE  H15Y 5021   0.919   4.234   4.609  0.7385 -1.5830 -0.2183
   39DOPE  C316 5022   0.721   4.146   4.578  0.2313  0.9740 -0.1068
   39DOPE  H16X 5023   0.748   4.054   4.634  1.6238  1.2707 -0.2333
   39DOPE  H16Y 5024   0.669   4.106   4.489  0.7287 -1.6405  0.7144
   39DOPE  C317 5025   0.621   4.222   4.652  0.0976 -0.0015 -0.0366
   39DOPE  H17X 5026   0.665   4.285   4.732  0.1591  2.5358 -1.9439
   39DOPE  H17Y 5027   0.571   4.294   4.584 -0.9896  0.6572  1.4199
   39DOPE  C318 5028   0.509   4.129   4.704  0.3316 -0.2187  0.3306
   39DOPE  H18X 5029   0.418   4.184   4.739  1.4976  0.3581  2.6714
   39DOPE  H18Y 5030   0.475   4.068   4.617  1.0070  1.8434 -1.4740
   39DOPE  H18Z 5031   0.542   4.053   4.778 -0.1688 -1.0557 -0.2988
   40DOPE     N 5032   3.754   5.724   2.711 -0.0778 -0.0963  0.7500
   40DOPE   HN1 5033   3.722   5.629   2.739  0.3374 -0.2490  0.7180
   40DOPE   HN2 5034   3.849   5.737   2.751  0.4506 -0.2622 -0.4241
   40DOPE   HN3 5035   3.690   5.792   2.758 -1.2546  1.0255 -2.2232
   40DOPE   C12 5036   3.745   5.747   2.562  0.2810  0.1564 -0.1016
   40DOPE  H12A 5037   3.747   5.857   2.543 -0.2827  0.8332  3.2093
   40DOPE  H12B 5038   3.643   5.716   2.530 -0.4231  1.5979  0.6421
   40DOPE   C11 5039   3.842   5.662   2.479  0.3558  0.4735  0.2753
   40DOPE  H11A 5040   3.817   5.703   2.379 -1.6219  2.2776  1.4115
   40DOPE  H11B 5041   3.815   5.555   2.485  1.4091  0.1332 -0.7406
   40DOPE     P 5042   4.077   5.756   2.435 -0.0289  0.0023 -0.1471
   40DOPE   O13 5043   4.039   5.898   2.423 -0.4439 -0.1899 -0.1373
   40DOPE   O14 5044   4.095   5.670   2.313 -0.3293  0.2127 -0.2761
   40DOPE   O11 5045   4.214   5.752   2.509 -0.1463 -0.0847  0.2903
   40DOPE   O12 5046   3.969   5.680   2.523 -0.0352  0.4405  0.1381
   40DOPE    C1 5047   4.231   5.682   2.636 -0.2702 -0.1890 -0.6051
   40DOPE    HA 5048   4.322   5.618   2.628 -0.0055  0.0815  0.0941
   40DOPE    HB 5049   4.145   5.621   2.671  0.0739  0.4761  1.5733
   40DOPE    C2 5050   4.276   5.788   2.747  0.3071 -0.7371  0.1186
   40DOPE    HS 5051   4.182   5.841   2.774 -0.6525 -1.4484 -1.6223
   40DOPE   O21 5052   4.388   5.870   2.702  0.1645  0.2549  0.2469
   40DOPE   C21 5053   4.371   5.994   2.735  0.4024 -1.2545  0.1063
   40DOPE   O22 5054   4.279   6.041   2.800  0.4432  0.0550 -0.0245
   40DOPE   C22 5055   4.502   6.077   2.698  0.0105  0.7653  0.9596
   40DOPE   H2R 5056   4.464   6.167   2.645  1.4446  0.6911 -0.2884
   40DOPE   H2S 5057   4.557   6.002   2.636 -0.6393  1.2391 -0.2260
   40DOPE    C3 5058   4.312   5.708   2.877 -0.2132 -0.5900  0.2367
   40DOPE    HX 5059   4.390   5.632   2.856  1.3933  0.2227  2.8052
   40DOPE    HY 5060   4.218   5.658   2.908 -1.7079  0.7847 -1.7818
   40DOPE   O31 5061   4.371   5.789   2.976 -0.3318  0.1581 -0.5552
   40DOPE   C31 5062   4.293   5.850   3.061 -0.0321  0.5170  0.5133
   40DOPE   O32 5063   4.168   5.852   3.065  0.2260 -0.3440  0.4496
   40DOPE   C32 5064   4.369   5.918   3.170 -0.1291 -0.9132  0.1184
   40DOPE   H2X 5065   4.477   5.899   3.150  0.3496  0.3429  1.3377
   40DOPE   H2Y 5066   4.353   6.027   3.157 -2.8697 -1.2975 -0.3221
   40DOPE   C23 5067   4.581   6.121   2.819  0.4980 -0.2409  0.3311
   40DOPE   H3R 5068   4.530   6.205   2.871  0.4225 -0.0570 -0.0305
   40DOPE   H3S 5069   4.670   6.169   2.772  0.3257  1.1283  1.3396
   40DOPE   C24 5070   4.636   6.011   2.912  0.0678  0.5885  0.4645
   40DOPE   H4R 5071   4.694   5.944   2.845 -0.6369 -1.4658  1.8146
   40DOPE   H4S 5072   4.543   5.961   2.946 -0.9731  0.9778 -1.6348
   40DOPE   C25 5073   4.716   6.072   3.024 -0.3063  0.1545  0.1795
   40DOPE   H5R 5074   4.658   6.151   3.077 -1.5125  0.7037 -1.8306
   40DOPE   H5S 5075   4.804   6.127   2.986 -0.1088 -0.2802  0.0051
   40DOPE   C26 5076   4.764   5.962   3.126 -0.2194 -0.5593 -0.6593
   40DOPE   H6R 5077   4.808   5.881   3.065  1.8569 -0.2918  0.4191
   40DOPE   H6S 5078   4.677   5.916   3.177  0.5042 -1.2264 -0.0180
   40DOPE   C27 5079   4.857   6.018   3.236 -0.1469 -0.5031  0.6358
   40DOPE   H7R 5080   4.795   6.072   3.311  0.8313  2.4656 -0.5428
   40DOPE   H7S 5081   4.925   6.086   3.180 -0.0369 -1.8624 -0.9586
   40DOPE   C28 5082   4.916   5.906   3.320  0.4428 -0.0959 -0.0436
   40DOPE   H8R 5083   4.935   5.816   3.258 -0.1120 -0.3123  0.0977
   40DOPE   H8S 5084   4.834   5.866   3.384  0.8482  0.5521  0.9028
   40DOPE   C29 5085   5.040   5.930   3.405 -0.1995 -0.4242  0.1358
   40DOPE   H9R 5086   5.116   5.990   3.353 -0.3560 -1.1729 -0.9815
   40DOPE  C210 5087   5.052   5.902   3.534  0.2437 -0.2347  0.0223
   40DOPE  H10R 5088   5.141   5.935   3.588  0.0626  0.2199  0.0402
   40DOPE  C211 5089   4.948   5.846   3.629  0.5003  0.8745 -0.6774
   40DOPE  H11R 5090   4.969   5.746   3.672  1.5649  0.3920 -2.2399
   40DOPE  H11S 5091   4.844   5.847   3.590  0.0720 -0.9760  0.3085
   40DOPE  C212 5092   4.934   5.942   3.755 -0.1065 -0.8348 -0.4610
   40DOPE  H12R 5093   5.035   5.948   3.801  0.9012  0.6256 -2.7089
   40DOPE  H12S 5094   4.864   5.895   3.828 -0.3355 -0.4289 -0.4162
   40DOPE  C213 5095   4.869   6.077   3.724  0.3202 -0.0114 -0.2327
   40DOPE  H13R 5096   4.778   6.056   3.662  0.7476  0.1255 -0.9142
   40DOPE  H13S 5097   4.936   6.132   3.656 -1.5230 -0.6349 -2.7214
   40DOPE  C214 5098   4.829   6.165   3.848 -0.2147  0.4782  0.2633
   40DOPE  H14R 5099   4.921   6.180   3.909 -0.6920  3.1938  0.3984
   40DOPE  H14S 5100   4.757   6.107   3.910 -0.1953  2.1074  1.8855
   40DOPE  C215 5101   4.766   6.307   3.819 -0.5108 -0.2225  0.1591
   40DOPE  H15R 5102   4.820   6.372   3.747 -0.4449 -0.6665 -0.1964
   40DOPE  H15S 5103   4.773   6.368   3.912 -0.0184 -0.0647  0.0229
   40DOPE  C216 5104   4.619   6.302   3.770 -0.5046  0.6458 -0.1416
   40DOPE  H16R 5105   4.564   6.263   3.859 -0.9201  1.3656 -0.0760
   40DOPE  H16S 5106   4.608   6.232   3.686 -2.7608  0.6640  0.0824
   40DOPE  C217 5107   4.565   6.444   3.747 -0.4828 -0.1539 -0.6061
   40DOPE  H17R 5108   4.634   6.496   3.677 -0.4136  1.6851  0.7524
   40DOPE  H17S 5109   4.577   6.510   3.836  3.7151  0.0391 -1.1062
   40DOPE  C218 5110   4.425   6.453   3.695  0.2840 -0.3781  0.3551
   40DOPE  H18R 5111   4.393   6.559   3.689  0.5550 -0.3572 -0.8961
   40DOPE  H18S 5112   4.353   6.402   3.763 -0.3026  1.4852  1.2019
   40DOPE  H18T 5113   4.412   6.414   3.592  0.4658 -0.2620  0.2881
   40DOPE   C33 5114   4.333   5.870   3.311  0.0925 -0.1204  0.0053
   40DOPE   H3X 5115   4.360   5.762   3.321 -2.0520 -0.8388 -1.1390
   40DOPE   H3Y 5116   4.222   5.864   3.325 -0.0128 -1.4355 -1.1771
   40DOPE   C34 5117   4.397   5.963   3.416  0.5851  0.3398 -0.2377
   40DOPE   H4X 5118   4.506   5.968   3.396  0.3313  0.7948 -1.6812
   40DOPE   H4Y 5119   4.363   6.066   3.391 -2.4187 -0.3616  0.5813
   40DOPE   C35 5120   4.355   5.930   3.564 -0.3472  0.6383  0.6316
   40DOPE   H5X 5121   4.343   5.820   3.568  0.3010  0.5847  1.7417
   40DOPE   H5Y 5122   4.250   5.963   3.582  0.5601  3.2839  1.5474
   40DOPE   C36 5123   4.446   5.978   3.677 -0.5868 -0.5690 -0.0189
   40DOPE   H6X 5124   4.421   6.085   3.693 -0.8286 -0.9000  2.1404
   40DOPE   H6Y 5125   4.553   5.985   3.650 -0.0486  1.6313  2.3331
   40DOPE   C37 5126   4.432   5.894   3.803 -0.7056 -0.5205  0.0719
   40DOPE   H7X 5127   4.485   5.948   3.884  1.3072 -1.6452 -0.4562
   40DOPE   H7Y 5128   4.324   5.874   3.822 -0.9912 -0.9476 -1.7954
   40DOPE   C38 5129   4.500   5.755   3.808 -0.4576 -0.6208  0.3469
   40DOPE   H8X 5130   4.608   5.778   3.793 -0.9933  1.7283 -0.3779
   40DOPE   H8Y 5131   4.463   5.705   3.716 -1.2559  0.1170  0.2563
   40DOPE   C39 5132   4.476   5.672   3.933  0.8749  0.2592  0.3282
   40DOPE   H9X 5133   4.369   5.652   3.952  0.7721 -1.6402 -1.8308
   40DOPE  C310 5134   4.573   5.603   3.999  0.1345  0.4673 -0.1975
   40DOPE  H10X 5135   4.557   5.557   4.097  1.5651  0.3078 -0.0062
   40DOPE  C311 5136   4.722   5.594   3.963 -0.4175 -0.2893 -0.0442
   40DOPE  H11X 5137   4.760   5.500   4.007 -0.4660  0.0742  0.7887
   40DOPE  H11Y 5138   4.732   5.602   3.852 -2.5321 -1.7904 -0.4074
   40DOPE  C312 5139   4.816   5.690   4.040 -0.5299 -0.2331 -0.3796
   40DOPE  H12X 5140   4.799   5.684   4.149  0.5937  2.5677  0.0373
   40DOPE  H12Y 5141   4.781   5.788   4.000 -0.8520 -0.4990 -0.7555
   40DOPE  C313 5142   4.965   5.656   4.020  0.0797 -0.3065 -0.3804
   40DOPE  H13X 5143   4.982   5.552   4.055 -1.3402 -0.3010  0.4080
   40DOPE  H13Y 5144   4.991   5.650   3.912  2.7061 -1.1604  0.2437
   40DOPE  C314 5145   5.062   5.747   4.097  0.6938  0.4074  0.5670
   40DOPE  H14X 5146   5.037   5.726   4.203  2.1791 -1.9713  0.5010
   40DOPE  H14Y 5147   5.045   5.854   4.071 -0.5847 -0.2108 -1.3241
   40DOPE  C315 5148   5.211   5.723   4.083  0.2920 -0.1081 -0.1068
   40DOPE  H15X 5149   5.254   5.723   3.980  2.2455  1.5089  0.6494
   40DOPE  H15Y 5150   5.220   5.623   4.128 -0.8771  0.0402  0.5051
   40DOPE  C316 5151   5.290   5.827   4.171 -0.8179  0.1371  0.2130
   40DOPE  H16X 5152   5.265   5.931   4.141  1.1365  1.1589  1.8781
   40DOPE  H16Y 5153   5.396   5.803   4.150 -0.6230 -0.0087  1.3174
   40DOPE  C317 5154   5.254   5.811   4.324 -0.2078 -0.1227 -0.0080
   40DOPE  H17X 5155   5.154   5.852   4.349  0.4295  0.0269  2.5512
   40DOPE  H17Y 5156   5.241   5.703   4.346 -1.2584  0.2196  1.1321
   40DOPE  C318 5157   5.366   5.868   4.420  0.0819  0.4980 -0.0850
   40DOPE  H18X 5158   5.360   5.979   4.420  0.4082  0.5209 -0.5748
   40DOPE  H18Y 5159   5.342   5.841   4.525 -0.3167  0.2382 -0.2421
   40DOPE  H18Z 5160   5.468   5.834   4.391 -1.1340 -2.2930 -1.4266
   41DOPE     N 5161   2.245   4.902   2.581 -0.0407 -0.3255  0.5266
   41DOPE   HN1 5162   2.270   4.995   2.617  2.0361 -1.3897  2.0118
   41DOPE   HN2 5163   2.317   4.859   2.519  0.2881 -1.4472  1.6425
   41DOPE   HN3 5164   2.157   4.912   2.525  0.3105  2.3467  0.3601
   41DOPE   C12 5165   2.213   4.813   2.696  0.3203  0.5382  0.0316
   41DOPE  H12A 5166   2.283   4.839   2.778  0.4650  1.6369 -0.4232
   41DOPE  H12B 5167   2.218   4.706   2.666  1.1409  0.5083  0.2630
   41DOPE   C11 5168   2.074   4.835   2.746  0.5789 -0.0891 -0.9343
   41DOPE  H11A 5169   2.053   4.936   2.786 -1.2563 -1.3461  1.5379
   41DOPE  H11B 5170   2.054   4.776   2.838 -0.2695 -1.4721 -1.9658
   41DOPE     P 5171   1.894   4.674   2.657  0.2859 -0.3332  0.2643
   41DOPE   O13 5172   1.976   4.553   2.637  0.6781  0.3247  0.5187
   41DOPE   O14 5173   1.786   4.699   2.561  0.5162  0.3446  0.4840
   41DOPE   O11 5174   1.832   4.676   2.808 -0.4482  0.6224 -0.2216
   41DOPE   O12 5175   1.982   4.800   2.653 -0.0603 -0.1074  0.3434
   41DOPE    C1 5176   1.761   4.782   2.867 -0.7322 -0.1891 -0.2295
   41DOPE    HA 5177   1.653   4.771   2.847 -0.7519  1.1532 -0.9244
   41DOPE    HB 5178   1.781   4.882   2.823 -3.7418  1.0672  1.0045
   41DOPE    C2 5179   1.786   4.789   3.021  0.5612  0.5455 -0.7213
   41DOPE    HS 5180   1.727   4.878   3.053 -1.6740 -0.6266 -1.3926
   41DOPE   O21 5181   1.920   4.794   3.059 -0.8349  0.3623  0.3365
   41DOPE   C21 5182   1.984   4.913   3.055 -0.0765  0.9950 -0.5594
   41DOPE   O22 5183   1.932   5.019   3.022  0.1212 -0.2626  0.6301
   41DOPE   C22 5184   2.124   4.886   3.107 -0.5138  0.0905 -0.8103
   41DOPE   H2R 5185   2.187   4.879   3.016  0.8865 -2.1324  0.2537
   41DOPE   H2S 5186   2.124   4.788   3.159  0.8015 -1.2583 -3.1913
   41DOPE    C3 5187   1.727   4.667   3.088  0.8147 -0.0654  0.8316
   41DOPE    HX 5188   1.781   4.574   3.062 -1.6921 -0.8744 -2.0644
   41DOPE    HY 5189   1.627   4.658   3.040  0.6603 -0.6293  1.2489
   41DOPE   O31 5190   1.704   4.695   3.229  0.0258  0.3450 -0.2492
   41DOPE   C31 5191   1.799   4.651   3.312 -0.7394 -0.5839  0.2639
   41DOPE   O32 5192   1.899   4.586   3.278 -0.1757 -0.3066 -0.3401
   41DOPE   C32 5193   1.782   4.710   3.456  0.1979  0.5085 -0.3215
   41DOPE   H2X 5194   1.792   4.821   3.457  0.7573  0.4799  1.4410
   41DOPE   H2Y 5195   1.678   4.692   3.490  0.5640  3.4884  2.9392
   41DOPE   C23 5196   2.168   4.997   3.208 -0.1807 -0.2066  0.0414
   41DOPE   H3R 5197   2.148   5.095   3.159  1.6598  0.5543  0.7305
   41DOPE   H3S 5198   2.277   4.979   3.218 -0.3789 -0.9673  0.9509
   41DOPE   C24 5199   2.097   5.002   3.345 -0.4323  0.0028 -0.3448
   41DOPE   H4R 5200   2.100   4.902   3.394 -0.1693 -0.1768 -0.7175
   41DOPE   H4S 5201   1.991   5.021   3.319 -0.6591 -1.1961 -0.3751
   41DOPE   C25 5202   2.160   5.099   3.439  0.1515 -0.2394 -0.3689
   41DOPE   H5R 5203   2.141   5.206   3.414 -0.7816 -0.7317 -1.9386
   41DOPE   H5S 5204   2.269   5.084   3.450  0.3137  1.4092  0.6557
   41DOPE   C26 5205   2.102   5.077   3.582 -0.5691  0.0463  0.4813
   41DOPE   H6R 5206   2.113   4.969   3.606 -1.2353 -0.0600  0.3220
   41DOPE   H6S 5207   1.995   5.107   3.587 -0.2595  1.1456  0.6452
   41DOPE   C27 5208   2.179   5.160   3.690 -0.1731  0.5504  0.0597
   41DOPE   H7R 5209   2.147   5.264   3.665 -0.6885  0.3995  0.0816
   41DOPE   H7S 5210   2.286   5.142   3.668  0.1229  1.3756  0.7262
   41DOPE   C28 5211   2.136   5.123   3.833 -0.1926  0.6658  0.0329
   41DOPE   H8R 5212   2.165   5.018   3.852 -0.4771  0.6903  0.6090
   41DOPE   H8S 5213   2.025   5.131   3.837 -0.1265  1.2222  1.3223
   41DOPE   C29 5214   2.182   5.228   3.929 -0.0375 -0.4355 -0.5586
   41DOPE   H9R 5215   2.206   5.327   3.887  0.5433 -0.6607 -0.7642
   41DOPE  C210 5216   2.195   5.209   4.060  0.7540 -0.2111  0.6404
   41DOPE  H10R 5217   2.225   5.291   4.127 -2.7381  2.4812 -0.7737
   41DOPE  C211 5218   2.167   5.076   4.123 -0.2557  0.0978 -0.0983
   41DOPE  H11R 5219   2.254   5.010   4.103 -0.2292  0.0963  0.0240
   41DOPE  H11S 5220   2.077   5.025   4.083 -0.0768  0.4384 -0.9669
   41DOPE  C212 5221   2.155   5.081   4.278  0.4419 -0.1159  0.5839
   41DOPE  H12R 5222   2.081   5.161   4.300  1.3932  1.8066 -2.5790
   41DOPE  H12S 5223   2.256   5.119   4.308  0.9153  0.3051 -1.3898
   41DOPE  C213 5224   2.140   4.939   4.343 -0.3831  0.4009 -0.2468
   41DOPE  H13R 5225   2.209   4.865   4.298 -1.3736 -0.1539 -0.8889
   41DOPE  H13S 5226   2.043   4.893   4.316  0.1257 -1.3475  0.7676
   41DOPE  C214 5227   2.164   4.954   4.490 -0.0724 -0.4393  0.5386
   41DOPE  H14R 5228   2.090   5.028   4.527  0.5986  0.1626  0.7044
   41DOPE  H14S 5229   2.266   4.998   4.499 -0.0759 -0.2764 -0.1126
   41DOPE  C215 5230   2.174   4.837   4.578  0.0814  0.2032 -0.3446
   41DOPE  H15R 5231   2.236   4.755   4.537 -0.7340 -0.7351  0.2556
   41DOPE  H15S 5232   2.072   4.796   4.596 -0.1448  0.0691 -1.7887
   41DOPE  C216 5233   2.225   4.854   4.721 -0.2637 -1.1199  0.0166
   41DOPE  H16R 5234   2.151   4.911   4.783 -0.0402  2.2116 -2.4891
   41DOPE  H16S 5235   2.318   4.914   4.716  0.0370 -1.6982 -1.5965
   41DOPE  C217 5236   2.275   4.730   4.796 -0.4759 -0.4386  0.3285
   41DOPE  H17R 5237   2.289   4.767   4.900 -1.8829  1.6953 -0.1803
   41DOPE  H17S 5238   2.366   4.706   4.738 -0.7001  0.7714 -0.5560
   41DOPE  C218 5239   2.171   4.623   4.786  0.3698 -0.1137  0.1351
   41DOPE  H18R 5240   2.172   4.569   4.689  0.4860  0.4698 -0.1951
   41DOPE  H18S 5241   2.066   4.659   4.794  0.3885  0.3449 -1.3755
   41DOPE  H18T 5242   2.184   4.562   4.878  1.0422  1.6871  1.2938
   41DOPE   C33 5243   1.879   4.655   3.569  0.3453  0.4431  0.2603
   41DOPE   H3X 5244   1.974   4.654   3.511 -0.9487  1.4265 -2.0494
   41DOPE   H3Y 5245   1.843   4.551   3.581  2.2899  0.0110  3.4537
   41DOPE   C34 5246   1.879   4.743   3.696 -0.1138 -0.5082 -0.2923
   41DOPE   H4X 5247   1.936   4.832   3.661  0.0960 -0.5058  0.0530
   41DOPE   H4Y 5248   1.778   4.771   3.732 -0.1668  0.1866 -0.9447
   41DOPE   C35 5249   1.947   4.673   3.818 -0.3279  0.0126  0.3161
   41DOPE   H5X 5250   2.045   4.635   3.782  1.1307  0.9086  3.0574
   41DOPE   H5Y 5251   1.879   4.589   3.846  0.9499 -0.7012  1.3448
   41DOPE   C36 5252   1.985   4.774   3.925  0.3394  0.1418 -0.4547
   41DOPE   H6X 5253   1.890   4.815   3.964  0.1499  0.1148 -0.8788
   41DOPE   H6Y 5254   2.033   4.855   3.866  0.2127 -0.4930 -1.4640
   41DOPE   C37 5255   2.074   4.712   4.038  0.4271  0.2569  1.6065
   41DOPE   H7X 5256   2.163   4.657   4.000 -0.8419 -1.4099  0.9055
   41DOPE   H7Y 5257   2.121   4.787   4.106  1.3698 -0.3318  1.6306
   41DOPE   C38 5258   2.004   4.609   4.118 -0.1862  0.5184  0.2357
   41DOPE   H8X 5259   2.080   4.566   4.187  2.3088  1.9039 -1.4542
   41DOPE   H8Y 5260   1.974   4.523   4.056 -0.0766  0.0593  0.8135
   41DOPE   C39 5261   1.887   4.646   4.201 -0.1505  0.4737 -0.1676
   41DOPE   H9X 5262   1.817   4.710   4.145 -0.2903 -0.8561 -1.5696
   41DOPE  C310 5263   1.852   4.612   4.325  0.1935 -0.1238  0.0793
   41DOPE  H10X 5264   1.749   4.632   4.360  0.6389  1.7398  0.4399
   41DOPE  C311 5265   1.932   4.513   4.411 -0.0425 -0.4945 -0.3544
   41DOPE  H11X 5266   2.040   4.539   4.401  0.1882 -1.5727 -0.8859
   41DOPE  H11Y 5267   1.898   4.517   4.516 -0.0273  2.5520 -0.3797
   41DOPE  C312 5268   1.930   4.366   4.368  0.2518  0.0348  0.4725
   41DOPE  H12X 5269   1.950   4.360   4.259  0.3297  0.7800  0.4415
   41DOPE  H12Y 5270   1.829   4.320   4.374  0.0672 -0.0334 -1.9695
   41DOPE  C313 5271   2.020   4.276   4.455 -0.1192 -0.2669 -0.4682
   41DOPE  H13X 5272   2.123   4.317   4.471  0.3115 -1.0374 -1.2381
   41DOPE  H13Y 5273   1.973   4.271   4.556 -1.6733 -0.9586 -1.2073
   41DOPE  C314 5274   2.039   4.132   4.396 -0.7162 -0.0958  0.1535
   41DOPE  H14X 5275   1.943   4.084   4.368 -0.1671 -1.0344 -0.1421
   41DOPE  H14Y 5276   2.078   4.058   4.469  0.5428 -0.4191 -0.8132
   41DOPE  C315 5277   2.127   4.119   4.268  0.0282  0.1988  0.4336
   41DOPE  H15X 5278   2.229   4.148   4.303 -0.2680  1.0501  0.6394
   41DOPE  H15Y 5279   2.085   4.197   4.200 -2.7063 -1.2879  0.2809
   41DOPE  C316 5280   2.128   3.968   4.217  0.3299 -0.0939 -0.1370
   41DOPE  H16X 5281   2.024   3.933   4.232  0.8648 -1.4209  0.7224
   41DOPE  H16Y 5282   2.194   3.907   4.283 -1.9896 -1.7747  0.7649
   41DOPE  C317 5283   2.167   3.969   4.068  0.6138  0.3419  0.3445
   41DOPE  H17X 5284   2.173   3.864   4.032  2.2599  0.2424  0.8511
   41DOPE  H17Y 5285   2.093   4.028   4.008  2.1752  1.3508 -0.6593
   41DOPE  C318 5286   2.311   4.029   4.040  0.6194 -0.0191 -0.2406
   41DOPE  H18X 5287   2.314   4.123   4.099 -0.2801 -0.6860  0.8999
   41DOPE  H18Y 5288   2.396   3.966   4.076 -0.2404 -0.4517  1.1019
   41DOPE  H18Z 5289   2.327   4.057   3.933  2.6458  2.6395  0.6430
   42DOPE     N 5290   2.034   4.409   2.841  0.2717 -0.2987 -0.1783
   42DOPE   HN1 5291   2.002   4.453   2.752  0.6381  0.1767 -0.0854
   42DOPE   HN2 5292   2.042   4.477   2.919  0.9068  0.6033 -0.9978
   42DOPE   HN3 5293   2.135   4.389   2.826  0.6557  0.0833  1.5834
   42DOPE   C12 5294   1.969   4.283   2.884 -0.0242 -0.0008 -0.5959
   42DOPE  H12A 5295   2.042   4.232   2.950  1.4699  1.8611 -0.7236
   42DOPE  H12B 5296   1.950   4.220   2.795  0.6182 -1.0075 -0.0462
   42DOPE   C11 5297   1.838   4.306   2.965 -0.0909  0.4651  0.2343
   42DOPE  H11A 5298   1.868   4.363   3.056 -0.7703  1.6161 -0.2445
   42DOPE  H11B 5299   1.795   4.211   3.002 -0.2409  0.2331 -0.5353
   42DOPE     P 5300   1.667   4.318   2.768  0.1069  0.4625 -0.0531
   42DOPE   O13 5301   1.759   4.256   2.666  0.5476  0.4315 -0.5829
   42DOPE   O14 5302   1.553   4.403   2.721  0.3195 -0.4784 -0.2908
   42DOPE   O11 5303   1.606   4.192   2.837  0.0805 -0.8719  0.2799
   42DOPE   O12 5304   1.748   4.381   2.893 -0.4665 -0.0524 -0.4883
   42DOPE    C1 5305   1.465   4.165   2.845  0.0459 -0.0975  0.4518
   42DOPE    HA 5306   1.443   4.057   2.846 -0.9332 -0.1115 -3.8186
   42DOPE    HB 5307   1.412   4.203   2.755  2.5366  0.0587 -1.0764
   42DOPE    C2 5308   1.391   4.228   2.966 -0.3352  0.1225  0.6158
   42DOPE    HS 5309   1.391   4.337   2.944 -0.6128  0.5986  2.7982
   42DOPE   O21 5310   1.467   4.198   3.085 -0.2380 -0.7591 -0.4798
   42DOPE   C21 5311   1.478   4.305   3.166 -0.4943  0.0450  0.3653
   42DOPE   O22 5312   1.438   4.415   3.148  0.1126  0.0966  0.1950
   42DOPE   C22 5313   1.574   4.262   3.277  0.3548 -0.4594 -0.0749
   42DOPE   H2R 5314   1.667   4.224   3.229  0.5506 -1.6601  1.1618
   42DOPE   H2S 5315   1.518   4.179   3.326  1.1448 -2.3078 -2.1724
   42DOPE    C3 5316   1.246   4.171   2.985 -1.1234  0.1572  0.1632
   42DOPE    HX 5317   1.268   4.065   3.007 -1.4550 -0.2812 -1.4965
   42DOPE    HY 5318   1.198   4.167   2.885 -0.1797 -0.2885 -0.2825
   42DOPE   O31 5319   1.171   4.231   3.092 -0.0092  0.1257  0.4884
   42DOPE   C31 5320   1.096   4.336   3.071  0.0916  0.1290 -0.0693
   42DOPE   O32 5321   1.096   4.410   2.973  0.2874  0.1363  0.0021
   42DOPE   C32 5322   1.022   4.366   3.203  0.1819  0.3872 -0.4112
   42DOPE   H2X 5323   0.947   4.444   3.176  0.6973  0.6863 -0.9861
   42DOPE   H2Y 5324   0.965   4.277   3.237  0.4011  0.4143  0.0327
   42DOPE   C23 5325   1.605   4.370   3.382  0.3645 -0.0698  0.0218
   42DOPE   H3R 5326   1.570   4.469   3.345  1.6830  0.4223  0.0501
   42DOPE   H3S 5327   1.715   4.367   3.394  0.2586 -0.2240  1.0171
   42DOPE   C24 5328   1.541   4.344   3.524 -0.0912  0.7412 -0.3174
   42DOPE   H4R 5329   1.594   4.264   3.580 -0.6153  1.0162  0.5845
   42DOPE   H4S 5330   1.439   4.304   3.507  0.6174 -0.7032 -1.4418
   42DOPE   C25 5331   1.551   4.473   3.609  0.2260 -0.0497  0.5760
   42DOPE   H5R 5332   1.501   4.556   3.556  1.7540  0.7916  0.4060
   42DOPE   H5S 5333   1.655   4.500   3.635  0.1880 -1.1031  1.9901
   42DOPE   C26 5334   1.477   4.457   3.752 -0.1169  0.2276 -0.1091
   42DOPE   H6R 5335   1.500   4.360   3.800  0.6589 -0.0384 -0.9981
   42DOPE   H6S 5336   1.369   4.449   3.725 -0.2102  0.6190  0.1318
   42DOPE   C27 5337   1.496   4.576   3.853 -0.0012  0.3011  0.3359
   42DOPE   H7R 5338   1.477   4.671   3.799 -0.9578 -0.1461 -0.1403
   42DOPE   H7S 5339   1.599   4.585   3.893  0.7883 -1.1512 -1.2419
   42DOPE   C28 5340   1.399   4.552   3.971  0.1108 -0.1668 -0.4356
   42DOPE   H8R 5341   1.420   4.459   4.027  0.0400  0.7107  1.1220
   42DOPE   H8S 5342   1.298   4.536   3.928 -0.5698  0.9590  0.6530
   42DOPE   C29 5343   1.387   4.668   4.062  0.0675  0.2878 -0.0585
   42DOPE   H9R 5344   1.371   4.768   4.018  0.0143  0.3661  0.1385
   42DOPE  C210 5345   1.385   4.662   4.195 -0.5470 -0.0637  0.3215
   42DOPE  H10R 5346   1.370   4.757   4.248  3.1554  0.5698  0.5046
   42DOPE  C211 5347   1.403   4.547   4.288 -0.2733  0.5147  0.0896
   42DOPE  H11R 5348   1.479   4.573   4.364 -0.7452 -0.8336  1.0598
   42DOPE  H11S 5349   1.444   4.459   4.233  2.0494  0.5635  1.6188
   42DOPE  C212 5350   1.265   4.505   4.341  0.8269  0.5918  0.8962
   42DOPE  H12R 5351   1.269   4.399   4.375 -1.2179  0.9482  2.4802
   42DOPE  H12S 5352   1.205   4.520   4.248 -0.1117 -1.0188  1.1894
   42DOPE  C213 5353   1.229   4.591   4.460  0.0090 -0.1829  0.5454
   42DOPE  H13R 5354   1.204   4.695   4.430  0.0484  0.0839  1.4088
   42DOPE  H13S 5355   1.318   4.593   4.527  1.8164  0.0274 -1.7294
   42DOPE  C214 5356   1.118   4.535   4.546  0.0962  0.4239 -0.2699
   42DOPE  H14R 5357   1.136   4.425   4.549  0.8969  0.5581  0.4297
   42DOPE  H14S 5358   1.030   4.557   4.483  0.8873  0.2976 -1.4380
   42DOPE  C215 5359   1.086   4.599   4.686 -0.4744 -0.0163  0.2457
   42DOPE  H15R 5360   1.051   4.701   4.661  1.7102  0.6407 -0.2918
   42DOPE  H15S 5361   1.185   4.608   4.737 -0.6903 -0.1369  0.6952
   42DOPE  C216 5362   0.961   4.532   4.745  0.0315  0.6580  0.3939
   42DOPE  H16R 5363   0.985   4.425   4.763 -1.4018 -0.1865 -2.1743
   42DOPE  H16S 5364   0.884   4.535   4.665  2.2419 -0.0165 -1.9316
   42DOPE  C217 5365   0.912   4.588   4.882  0.3366 -0.2307 -0.1066
   42DOPE  H17R 5366   0.990   4.566   4.958  0.3817 -0.0480 -0.0988
   42DOPE  H17S 5367   0.814   4.547   4.911  0.2394 -1.2405 -1.7373
   42DOPE  C218 5368   0.894   4.743   4.883  0.6142  0.2745  0.1355
   42DOPE  H18R 5369   0.807   4.770   4.946 -0.9196  0.0591 -1.7902
   42DOPE  H18S 5370   0.859   4.769   4.780  0.5094 -0.4282 -0.0164
   42DOPE  H18T 5371   0.988   4.797   4.905 -1.3134  3.6279  0.9360
   42DOPE   C33 5372   1.100   4.417   3.322  0.1030 -0.1145  0.1166
   42DOPE   H3X 5373   1.139   4.516   3.290  0.3989 -0.9939 -2.4929
   42DOPE   H3Y 5374   1.186   4.347   3.315 -1.4219 -1.9112 -4.8809
   42DOPE   C34 5375   1.033   4.407   3.457  0.4570  0.9968  0.3797
   42DOPE   H4X 5376   0.971   4.498   3.473 -1.4093 -0.3290  0.9955
   42DOPE   H4Y 5377   0.975   4.314   3.476  0.0303  1.0406 -0.6447
   42DOPE   C35 5378   1.137   4.408   3.575  0.2449 -0.4677  0.3048
   42DOPE   H5X 5379   1.182   4.510   3.569  1.6336 -1.1340 -2.1545
   42DOPE   H5Y 5380   1.219   4.334   3.559 -0.4402 -1.2960  0.5939
   42DOPE   C36 5381   1.081   4.384   3.717 -0.4482 -0.4521 -0.0623
   42DOPE   H6X 5382   1.163   4.384   3.792 -0.5832  1.0576  0.1106
   42DOPE   H6Y 5383   1.034   4.283   3.720  1.1313 -1.1891  0.7377
   42DOPE   C37 5384   0.970   4.496   3.771 -0.9194 -0.0538 -0.9634
   42DOPE   H7X 5385   1.036   4.583   3.794  0.0644 -0.8643 -0.6784
   42DOPE   H7Y 5386   0.899   4.528   3.691 -0.6699  0.8204 -0.8457
   42DOPE   C38 5387   0.894   4.454   3.892 -0.0486  1.0381 -0.1084
   42DOPE   H8X 5388   0.878   4.345   3.880 -3.1522  1.5634 -1.7786
   42DOPE   H8Y 5389   0.790   4.492   3.891 -0.5845 -0.3514  0.4375
   42DOPE   C39 5390   0.971   4.483   4.015 -0.0321  0.1723 -0.0705
   42DOPE   H9X 5391   1.076   4.450   4.022  0.1766  0.7691 -0.3089
   42DOPE  C310 5392   0.919   4.550   4.118  0.0598  0.6064  0.0769
   42DOPE  H10X 5393   0.982   4.565   4.208 -0.6230  1.5783  0.4038
   42DOPE  C311 5394   0.782   4.604   4.129  0.0534 -0.2047  0.5699
   42DOPE  H11X 5395   0.712   4.553   4.060 -1.4106 -0.0170  1.8600
   42DOPE  H11Y 5396   0.756   4.590   4.236 -1.8952 -3.8315 -0.2373
   42DOPE  C312 5397   0.766   4.759   4.102 -0.2533 -0.3256 -0.3105
   42DOPE  H12X 5398   0.662   4.783   4.133 -0.0188  0.1863  0.0891
   42DOPE  H12Y 5399   0.778   4.783   3.994  0.5472  1.3186  0.1121
   42DOPE  C313 5400   0.868   4.847   4.183 -0.3150  0.2617  0.0024
   42DOPE  H13X 5401   0.970   4.827   4.143 -0.5151  0.0894 -0.4339
   42DOPE  H13Y 5402   0.841   4.954   4.173 -1.5344 -0.1100 -1.0637
   42DOPE  C314 5403   0.891   4.822   4.335 -0.2500  0.0697 -0.0324
   42DOPE  H14X 5404   0.911   4.714   4.348  1.9533  0.4250  0.0360
   42DOPE  H14Y 5405   0.797   4.837   4.392 -0.2627  1.7846 -0.4449
   42DOPE  C315 5406   1.014   4.899   4.392 -0.0203  0.3125  0.7557
   42DOPE  H15X 5407   1.094   4.893   4.315 -0.4210 -1.2956  0.4291
   42DOPE  H15Y 5408   1.032   4.838   4.483 -1.9736 -1.1672  0.2076
   42DOPE  C316 5409   0.986   5.049   4.430  0.6940 -0.0505  0.1377
   42DOPE  H16X 5410   0.896   5.054   4.494 -0.3436 -1.5861 -1.1291
   42DOPE  H16Y 5411   0.971   5.106   4.336 -2.4470  1.3227  1.3298
   42DOPE  C317 5412   1.104   5.116   4.505  0.4976 -0.2769  0.0814
   42DOPE  H17X 5413   1.107   5.080   4.611 -1.3148 -0.9584 -0.0612
   42DOPE  H17Y 5414   1.200   5.089   4.457  1.5168  1.1007  1.2696
   42DOPE  C318 5415   1.089   5.267   4.522  0.2705 -0.0790  0.6256
   42DOPE  H18X 5416   1.171   5.298   4.591  0.3153  1.3211 -0.0262
   42DOPE  H18Y 5417   1.102   5.309   4.421  0.4388 -1.7822 -0.1067
   42DOPE  H18Z 5418   0.987   5.295   4.556 -1.0608 -1.3145 -2.0992
   43DOPE     N 5419   0.514   2.818   1.966  0.2303  0.1516 -0.4642
   43DOPE   HN1 5420   0.507   2.762   2.054 -0.5383 -0.2873 -0.7942
   43DOPE   HN2 5421   0.452   2.764   1.903 -0.1562  0.0154  0.0222
   43DOPE   HN3 5422   0.610   2.807   1.928  0.2819 -1.6158  0.0482
   43DOPE   C12 5423   0.457   2.955   1.976  0.3774 -0.2115  0.7160
   43DOPE  H12A 5424   0.361   2.940   2.031  0.9276 -0.6154  1.6035
   43DOPE  H12B 5425   0.443   3.004   1.878  1.3443  1.1943  1.2447
   43DOPE   C11 5426   0.559   3.046   2.055  0.3116  0.2145 -0.7000
   43DOPE  H11A 5427   0.519   3.149   2.064 -0.0554 -0.0551  1.5088
   43DOPE  H11B 5428   0.654   3.052   1.999 -0.1427 -0.5641 -1.5923
   43DOPE     P 5429   0.503   3.035   2.315 -0.0818 -0.1063 -0.1700
   43DOPE   O13 5430   0.360   3.001   2.309  0.3540 -0.0641 -0.1274
   43DOPE   O14 5431   0.540   3.176   2.334  0.1757 -0.1705 -0.2422
   43DOPE   O11 5432   0.565   2.952   2.436 -0.5782 -0.0372  0.3752
   43DOPE   O12 5433   0.579   2.983   2.187  0.5664  0.2388  0.4520
   43DOPE    C1 5434   0.713   2.945   2.453  0.5672  0.2260 -0.5030
   43DOPE    HA 5435   0.764   3.005   2.375 -2.9052  2.4147 -1.3197
   43DOPE    HB 5436   0.752   2.841   2.441 -0.3538 -0.3734  1.2820
   43DOPE    C2 5437   0.747   2.989   2.594  0.3297 -0.0531 -0.4497
   43DOPE    HS 5438   0.854   2.988   2.625 -0.4530  1.3162  2.6833
   43DOPE   O21 5439   0.673   2.912   2.691 -0.4714  0.1114 -0.4143
   43DOPE   C21 5440   0.725   2.793   2.721 -0.1734 -0.5650 -0.3064
   43DOPE   O22 5441   0.819   2.738   2.664  0.5913 -0.1272 -0.2202
   43DOPE   C22 5442   0.659   2.735   2.845  0.0103  0.5685 -0.2777
   43DOPE   H2R 5443   0.550   2.727   2.823  0.0439  0.7206 -0.5135
   43DOPE   H2S 5444   0.676   2.818   2.916 -1.1740  1.3201 -0.8299
   43DOPE    C3 5445   0.685   3.136   2.608 -0.6144  0.2100  0.2144
   43DOPE    HX 5446   0.576   3.120   2.596 -0.4488 -0.1400 -0.9839
   43DOPE    HY 5447   0.733   3.203   2.533 -1.4692  0.4682 -0.1205
   43DOPE   O31 5448   0.711   3.187   2.740 -0.5596  0.2641 -0.3880
   43DOPE   C31 5449   0.684   3.319   2.761 -0.6746 -0.0800 -0.1101
   43DOPE   O32 5450   0.609   3.390   2.694  0.4608  0.1173  0.2191
   43DOPE   C32 5451   0.747   3.354   2.894  0.7455  0.1601  0.0490
   43DOPE   H2X 5452   0.698   3.299   2.977  1.2479  0.7260  0.7271
   43DOPE   H2Y 5453   0.856   3.333   2.890  0.8715 -0.1912  3.0660
   43DOPE   C23 5454   0.705   2.594   2.898  0.6591 -0.3302 -0.1858
   43DOPE   H3R 5455   0.805   2.604   2.946 -0.7829  1.3437  2.7762
   43DOPE   H3S 5456   0.708   2.519   2.817  0.4588  0.9927 -1.4523
   43DOPE   C24 5457   0.612   2.539   3.003  0.1899 -0.8171  0.3073
   43DOPE   H4R 5458   0.652   2.447   3.051  2.6248 -0.0355 -0.1038
   43DOPE   H4S 5459   0.522   2.498   2.952 -0.1055 -0.3486  0.4432
   43DOPE   C25 5460   0.566   2.642   3.104 -0.0178 -0.5896  0.2496
   43DOPE   H5R 5461   0.514   2.730   3.061 -0.5815 -0.2018  1.6855
   43DOPE   H5S 5462   0.652   2.695   3.148 -0.2286  1.6473 -1.8004
   43DOPE   C26 5463   0.476   2.574   3.208  0.1860  0.5239 -0.8318
   43DOPE   H6R 5464   0.534   2.490   3.254  1.6186  1.7439 -0.3189
   43DOPE   H6S 5465   0.391   2.532   3.150 -0.4057  1.2912 -0.5276
   43DOPE   C27 5466   0.435   2.676   3.323 -0.1634 -0.0615 -0.6007
   43DOPE   H7R 5467   0.426   2.778   3.281  0.7313  0.8560  1.2883
   43DOPE   H7S 5468   0.523   2.677   3.390 -1.4992 -1.0558  1.2769
   43DOPE   C28 5469   0.317   2.628   3.407 -0.2741 -0.6778 -0.5032
   43DOPE   H8R 5470   0.331   2.518   3.411  2.6739 -0.5471 -3.0509
   43DOPE   H8S 5471   0.223   2.649   3.350 -0.1435 -0.0301 -0.4872
   43DOPE   C29 5472   0.312   2.710   3.533  0.0702 -0.2349  0.6815
   43DOPE   H9R 5473   0.294   2.817   3.515  0.4407 -0.4595 -1.2284
   43DOPE  C210 5474   0.327   2.677   3.654 -0.7672  0.1930 -0.4201
   43DOPE  H10R 5475   0.301   2.755   3.727 -1.0443 -1.5386  1.4319
   43DOPE  C211 5476   0.352   2.541   3.710 -0.6226  0.0867 -0.4506
   43DOPE  H11R 5477   0.387   2.562   3.813 -0.5895 -0.0090 -0.4427
   43DOPE  H11S 5478   0.443   2.504   3.659  0.3358  0.9375  0.5921
   43DOPE  C212 5479   0.228   2.454   3.718  0.0149  0.2278  0.6417
   43DOPE  H12R 5480   0.227   2.380   3.635 -0.3853  0.6709  0.2437
   43DOPE  H12S 5481   0.136   2.513   3.695  0.2066 -0.3702 -2.0199
   43DOPE  C213 5482   0.225   2.383   3.855 -0.1746 -0.7601 -0.0958
   43DOPE  H13R 5483   0.325   2.381   3.905 -1.0315 -0.5253  1.7135
   43DOPE  H13S 5484   0.182   2.282   3.842  0.1816 -1.1649  1.6370
   43DOPE  C214 5485   0.140   2.475   3.944  0.5943 -0.1100  0.3169
   43DOPE  H14R 5486   0.034   2.466   3.911  0.3200 -0.6171  1.3047
   43DOPE  H14S 5487   0.170   2.582   3.930  0.8027 -0.3663 -1.5077
   43DOPE  C215 5488   0.142   2.432   4.092  0.2169 -0.1553  0.0035
   43DOPE  H15R 5489   0.247   2.434   4.128  0.1485 -1.4088  0.3236
   43DOPE  H15S 5490   0.103   2.328   4.092 -2.2457  0.6960 -1.6006
   43DOPE  C216 5491   0.063   2.525   4.186  0.7166 -0.4230 -1.0948
   43DOPE  H16R 5492  -0.043   2.512   4.154 -0.0353 -1.8666  1.6300
   43DOPE  H16S 5493   0.100   2.630   4.184 -0.9195  0.2740  1.1026
   43DOPE  C217 5494   0.065   2.487   4.334  0.1941 -0.7364  0.9128
   43DOPE  H17R 5495   0.165   2.504   4.379  0.3645 -2.3653  1.2233
   43DOPE  H17S 5496   0.027   2.384   4.354 -1.0893 -0.4605 -0.0048
   43DOPE  C218 5497  -0.018   2.577   4.422 -0.4992 -0.4250  0.4254
   43DOPE  H18R 5498  -0.121   2.567   4.382 -0.2314  0.2338 -0.4542
   43DOPE  H18S 5499   0.018   2.682   4.414  1.0995 -1.0820 -2.4164
   43DOPE  H18T 5500  -0.017   2.558   4.531 -0.8553  0.5882  0.6161
   43DOPE   C33 5501   0.732   3.504   2.945  0.0926  0.0507  0.1400
   43DOPE   H3X 5502   0.673   3.559   2.869  0.4413  0.0803 -0.1146
   43DOPE   H3Y 5503   0.826   3.564   2.943 -1.1426  2.0319 -0.4726
   43DOPE   C34 5504   0.655   3.506   3.077  0.5164 -0.7964  0.1221
   43DOPE   H4X 5505   0.607   3.605   3.093 -2.0219 -1.7803 -1.0323
   43DOPE   H4Y 5506   0.567   3.441   3.060  0.3949 -0.4425 -0.6132
   43DOPE   C35 5507   0.741   3.468   3.196 -0.5235  0.3443 -0.2951
   43DOPE   H5X 5508   0.844   3.508   3.181  0.0477 -0.7599  0.5058
   43DOPE   H5Y 5509   0.738   3.358   3.214 -1.8637  0.4635  0.3206
   43DOPE   C36 5510   0.694   3.544   3.320  0.4028  0.0535  0.6092
   43DOPE   H6X 5511   0.583   3.537   3.332  0.2276  1.7119  0.2404
   43DOPE   H6Y 5512   0.729   3.650   3.321 -1.9838  0.9722 -1.3789
   43DOPE   C37 5513   0.747   3.473   3.452 -0.1029  0.4152  0.1451
   43DOPE   H7X 5514   0.709   3.368   3.451  1.9022 -0.4345 -2.8380
   43DOPE   H7Y 5515   0.858   3.476   3.440  0.0460  1.3602  1.5263
   43DOPE   C38 5516   0.698   3.535   3.583 -0.0228 -0.4871  0.2800
   43DOPE   H8X 5517   0.588   3.524   3.593 -0.0740  0.0702  0.3636
   43DOPE   H8Y 5518   0.727   3.642   3.577 -1.0481 -0.2517 -0.9587
   43DOPE   C39 5519   0.753   3.470   3.704  0.6590 -0.4157 -0.1805
   43DOPE   H9X 5520   0.721   3.365   3.699 -1.9800  0.3784 -2.5528
   43DOPE  C310 5521   0.805   3.528   3.814  0.4085  0.1128 -1.0002
   43DOPE  H10X 5522   0.834   3.463   3.898 -0.6830 -1.7151 -1.9497
   43DOPE  C311 5523   0.816   3.674   3.849  0.1928 -0.6343 -0.9785
   43DOPE  H11X 5524   0.923   3.704   3.838 -0.3429  1.6729 -0.3453
   43DOPE  H11Y 5525   0.760   3.733   3.774  2.4796  0.7402 -1.6985
   43DOPE  C312 5526   0.785   3.706   3.999 -0.3935 -0.3159  0.4613
   43DOPE  H12X 5527   0.684   3.686   4.040 -0.2002  0.5320  1.4020
   43DOPE  H12Y 5528   0.795   3.817   3.990  1.5268 -0.5671 -1.0792
   43DOPE  C313 5529   0.889   3.659   4.098  0.3249 -0.4263  0.4025
   43DOPE  H13X 5530   0.867   3.551   4.114  1.6140 -0.6013  1.0755
   43DOPE  H13Y 5531   0.995   3.677   4.071  0.3528 -0.2425  0.6283
   43DOPE  C314 5532   0.874   3.722   4.239  0.2651  0.3057 -0.0297
   43DOPE  H14X 5533   0.882   3.832   4.222  1.6794 -0.0266 -1.7669
   43DOPE  H14Y 5534   0.961   3.705   4.306  0.2483 -0.5729 -0.2286
   43DOPE  C315 5535   0.760   3.684   4.325 -0.1137  0.4285 -0.3958
   43DOPE  H15X 5536   0.764   3.579   4.361  3.5363  0.6156  0.1742
   43DOPE  H15Y 5537   0.666   3.697   4.269 -1.4138 -1.3853  1.2451
   43DOPE  C316 5538   0.755   3.763   4.463  0.3274  0.2542  0.7145
   43DOPE  H16X 5539   0.765   3.872   4.443 -0.6987  0.3844  0.8730
   43DOPE  H16Y 5540   0.841   3.737   4.528  0.6338 -2.0092 -0.5014
   43DOPE  C317 5541   0.620   3.746   4.546  0.1506  0.3154  0.1155
   43DOPE  H17X 5542   0.625   3.802   4.642  1.1596 -1.8715  1.4182
   43DOPE  H17Y 5543   0.534   3.776   4.482  0.8317 -1.9529 -2.0255
   43DOPE  C318 5544   0.579   3.601   4.596  0.1345 -0.4033  0.1841
   43DOPE  H18X 5545   0.560   3.540   4.506  0.1679  1.5407 -1.2112
   43DOPE  H18Y 5546   0.662   3.569   4.664  0.5146  0.3972  0.1136
   43DOPE  H18Z 5547   0.488   3.605   4.660  1.6607  0.7325  2.4634
   44DOPE     N 5548   3.229   1.790   2.464  0.4402  0.1760  0.3038
   44DOPE   HN1 5549   3.239   1.888   2.498 -1.5317 -0.5150  3.2524
   44DOPE   HN2 5550   3.323   1.751   2.440  0.4828  1.1958 -1.3628
   44DOPE   HN3 5551   3.177   1.771   2.376  1.8085 -0.7665 -0.3408
   44DOPE   C12 5552   3.163   1.700   2.575  0.7272  0.2988 -0.6067
   44DOPE  H12A 5553   3.055   1.729   2.574  0.7472  0.4930  0.7613
   44DOPE  H12B 5554   3.215   1.735   2.667  1.0008 -0.0197 -0.6391
   44DOPE   C11 5555   3.186   1.552   2.560 -0.3729 -0.0234 -0.2558
   44DOPE  H11A 5556   3.124   1.515   2.476 -1.1553  0.2947  0.1734
   44DOPE  H11B 5557   3.140   1.518   2.656 -3.0299  3.9642  0.0754
   44DOPE     P 5558   3.378   1.386   2.596  0.1196 -0.3157  0.4910
   44DOPE   O13 5559   3.523   1.371   2.572  0.1510 -0.0747  0.2565
   44DOPE   O14 5560   3.281   1.285   2.551 -0.5448 -0.2355  0.1145
   44DOPE   O11 5561   3.358   1.398   2.757  0.7474  0.3337  0.6297
   44DOPE   O12 5562   3.333   1.522   2.534  0.4637  0.0193  0.8076
   44DOPE    C1 5563   3.420   1.485   2.844 -0.0464 -0.2630  0.1032
   44DOPE    HA 5564   3.368   1.583   2.837 -0.9720 -0.8325 -1.5219
   44DOPE    HB 5565   3.525   1.499   2.812  0.2108 -0.3382  0.8893
   44DOPE    C2 5566   3.398   1.436   2.990 -0.2559 -0.3422 -0.4307
   44DOPE    HS 5567   3.422   1.520   3.058 -1.6175 -0.2425 -0.0424
   44DOPE   O21 5568   3.477   1.315   3.014  0.7812  0.0762  0.4453
   44DOPE   C21 5569   3.604   1.344   3.028  0.2705 -0.6777 -0.1975
   44DOPE   O22 5570   3.646   1.458   3.036 -0.0859  0.5246 -0.7617
   44DOPE   C22 5571   3.692   1.221   3.037 -0.3563  0.2404 -0.1472
   44DOPE   H2R 5572   3.785   1.258   2.988  0.7892  3.2620  3.7840
   44DOPE   H2S 5573   3.644   1.135   2.986  1.1646  0.0456 -1.3381
   44DOPE    C3 5574   3.253   1.397   3.015  1.1704  0.5825 -0.6585
   44DOPE    HX 5575   3.219   1.316   2.948 -0.6064  0.0461  0.8034
   44DOPE    HY 5576   3.184   1.480   2.988 -2.0860 -2.1727 -1.5138
   44DOPE   O31 5577   3.223   1.339   3.147  0.4896  0.5939  0.0077
   44DOPE   C31 5578   3.228   1.435   3.246  0.0123  0.1883  0.7785
   44DOPE   O32 5579   3.253   1.555   3.230 -0.4100  0.8302  0.1826
   44DOPE   C32 5580   3.217   1.365   3.378 -0.4998  0.3059 -0.2739
   44DOPE   H2X 5581   3.131   1.405   3.437  0.3796  0.2080  1.1271
   44DOPE   H2Y 5582   3.205   1.254   3.373  1.1577  0.1523 -1.6421
   44DOPE   C23 5583   3.706   1.172   3.182 -0.1568  0.5003  0.6325
   44DOPE   H3R 5584   3.754   1.246   3.250 -1.5120 -0.1447  2.3815
   44DOPE   H3S 5585   3.776   1.087   3.169  1.1990  1.9338 -2.4972
   44DOPE   C24 5586   3.572   1.134   3.247  0.1755 -0.1674 -0.1400
   44DOPE   H4R 5587   3.531   1.056   3.179  1.6114  0.0946 -1.3476
   44DOPE   H4S 5588   3.509   1.225   3.254  1.7534  1.0044 -0.6828
   44DOPE   C25 5589   3.584   1.074   3.389  0.3054 -0.2598  0.1625
   44DOPE   H5R 5590   3.481   1.067   3.429  0.4915  1.1451  0.9664
   44DOPE   H5S 5591   3.652   1.140   3.448  0.0961 -0.0543  0.1756
   44DOPE   C26 5592   3.625   0.925   3.405 -0.1406 -0.3308 -0.3696
   44DOPE   H6R 5593   3.722   0.907   3.355  1.1619  3.6828  0.3890
   44DOPE   H6S 5594   3.542   0.874   3.351  0.0518  1.5671 -2.5926
   44DOPE   C27 5595   3.618   0.883   3.557 -0.4359 -0.1742  0.6720
   44DOPE   H7R 5596   3.575   0.782   3.578 -0.2760 -0.5433 -0.6808
   44DOPE   H7S 5597   3.538   0.954   3.589 -0.6310 -0.0022 -0.1914
   44DOPE   C28 5598   3.758   0.894   3.624  0.1812 -0.6493 -0.0512
   44DOPE   H8R 5599   3.810   0.980   3.576 -0.6746 -0.2889 -0.3604
   44DOPE   H8S 5600   3.813   0.799   3.607  0.4347 -0.3131 -1.1632
   44DOPE   C29 5601   3.746   0.923   3.769 -0.1139 -1.4320  0.1738
   44DOPE   H9R 5602   3.710   1.022   3.798  0.9000 -0.9003 -0.3333
   44DOPE  C210 5603   3.786   0.838   3.865  0.5268  0.1733 -0.2364
   44DOPE  H10R 5604   3.752   0.864   3.966 -1.9906 -1.2009 -0.6510
   44DOPE  C211 5605   3.853   0.702   3.848  0.5937  0.5276 -0.2086
   44DOPE  H11R 5606   3.846   0.663   3.744  3.5980  1.1421 -0.7204
   44DOPE  H11S 5607   3.801   0.630   3.915  2.0911 -2.1911 -1.7638
   44DOPE  C212 5608   4.002   0.703   3.884  0.1878  0.6442 -0.1935
   44DOPE  H12R 5609   4.058   0.782   3.830  0.3814 -0.7120 -2.0808
   44DOPE  H12S 5610   4.046   0.609   3.846  1.3829  1.7054 -1.5603
   44DOPE  C213 5611   4.030   0.697   4.035 -0.5305  0.0855  0.5061
   44DOPE  H13R 5612   3.955   0.752   4.096  0.7096  0.4812  1.7252
   44DOPE  H13S 5613   4.131   0.741   4.046 -0.1043  0.1191 -2.7258
   44DOPE  C214 5614   4.027   0.555   4.089  1.0625  1.0120  0.1101
   44DOPE  H14R 5615   4.099   0.480   4.047 -0.6000 -1.5394  1.5673
   44DOPE  H14S 5616   3.925   0.513   4.075  1.8918 -1.3362  0.5327
   44DOPE  C215 5617   4.049   0.574   4.236  0.0522 -0.2413 -0.1369
   44DOPE  H15R 5618   4.013   0.477   4.277 -0.5670 -0.1126 -0.3668
   44DOPE  H15S 5619   3.973   0.645   4.276 -0.7878 -0.8941 -0.5302
   44DOPE  C216 5620   4.190   0.615   4.279 -0.2595 -0.2372 -0.6173
   44DOPE  H16R 5621   4.199   0.593   4.387 -1.2604 -1.4762 -0.7563
   44DOPE  H16S 5622   4.209   0.720   4.250  0.3115 -0.2712 -0.3858
   44DOPE  C217 5623   4.294   0.528   4.209  0.5968  0.2967  0.1024
   44DOPE  H17R 5624   4.297   0.565   4.104  0.1339 -0.5430 -0.2177
   44DOPE  H17S 5625   4.272   0.419   4.211 -0.2395  0.4721  1.1314
   44DOPE  C218 5626   4.431   0.557   4.270 -0.1668  0.4321 -0.1300
   44DOPE  H18R 5627   4.462   0.663   4.260  0.9048  0.1290 -0.1298
   44DOPE  H18S 5628   4.502   0.491   4.216 -2.1722 -1.0495 -1.1423
   44DOPE  H18T 5629   4.432   0.544   4.380 -0.6158  2.2544  0.1177
   44DOPE   C33 5630   3.342   1.409   3.469 -0.1304  0.6850  0.2224
   44DOPE   H3X 5631   3.351   1.520   3.471  1.2417  0.5830  2.5022
   44DOPE   H3Y 5632   3.435   1.363   3.431 -1.2007 -2.8055  1.4340
   44DOPE   C34 5633   3.326   1.366   3.619 -0.4221 -0.3159  0.0822
   44DOPE   H4X 5634   3.425   1.395   3.661 -0.3636  0.3757 -0.5267
   44DOPE   H4Y 5635   3.251   1.429   3.670 -1.0886 -0.7532 -0.3477
   44DOPE   C35 5636   3.303   1.217   3.630  0.3553 -0.6212 -0.5671
   44DOPE   H5X 5637   3.390   1.154   3.603  1.5569 -0.4501  2.5418
   44DOPE   H5Y 5638   3.214   1.187   3.570  0.8441 -1.0564 -1.0879
   44DOPE   C36 5639   3.275   1.186   3.782 -0.3176 -0.1249  0.8118
   44DOPE   H6X 5640   3.181   1.225   3.827 -1.3994  0.6890 -1.9742
   44DOPE   H6Y 5641   3.356   1.241   3.835 -1.4304  1.9826  0.4296
   44DOPE   C37 5642   3.279   1.031   3.813 -0.2573 -0.2590  0.1795
   44DOPE   H7X 5643   3.194   0.985   3.758 -0.5902  0.7797 -0.2038
   44DOPE   H7Y 5644   3.376   1.000   3.768  0.2109  1.3765 -0.0056
   44DOPE   C38 5645   3.275   0.991   3.960  0.2507  0.4581  0.3007
   44DOPE   H8X 5646   3.260   0.881   3.952  1.0241  0.4666 -3.4705
   44DOPE   H8Y 5647   3.178   1.031   3.996 -1.9408 -1.8025 -2.5285
   44DOPE   C39 5648   3.389   1.040   4.043  0.6489  0.1919  0.4346
   44DOPE   H9X 5649   3.489   1.024   4.000  0.6588 -1.0199  0.8776
   44DOPE  C310 5650   3.394   1.084   4.169  0.2408 -0.2293 -0.6883
   44DOPE  H10X 5651   3.490   1.110   4.216 -0.4549  0.1357  0.5692
   44DOPE  C311 5652   3.273   1.096   4.256 -0.0961  0.2730  0.1172
   44DOPE  H11X 5653   3.198   1.015   4.241  1.1420 -1.5827  3.0445
   44DOPE  H11Y 5654   3.306   1.070   4.359 -0.9224 -1.0415  0.0707
   44DOPE  C312 5655   3.207   1.238   4.266  0.3473 -0.3017  0.5979
   44DOPE  H12X 5656   3.290   1.304   4.299  0.9041 -0.4270 -0.5030
   44DOPE  H12Y 5657   3.126   1.227   4.341  0.7177 -2.8086  0.7030
   44DOPE  C313 5658   3.147   1.293   4.133 -0.1875  0.1449  0.1636
   44DOPE  H13X 5659   3.235   1.315   4.069 -0.7765  1.3876 -0.2462
   44DOPE  H13Y 5660   3.088   1.206   4.096  1.7088 -1.0025 -0.3257
   44DOPE  C314 5661   3.059   1.412   4.149  0.1902 -0.1553  0.4365
   44DOPE  H14X 5662   3.118   1.485   4.209  2.2547 -1.8607  0.6161
   44DOPE  H14Y 5663   2.964   1.391   4.202 -0.9915 -0.0909 -1.5650
   44DOPE  C315 5664   3.029   1.483   4.016  0.6306  0.2372 -0.4922
   44DOPE  H15X 5665   2.982   1.405   3.951  2.9871 -1.0581 -0.7447
   44DOPE  H15Y 5666   3.118   1.505   3.954  1.0650  0.9721  0.3709
   44DOPE  C316 5667   2.936   1.600   4.013  0.4284 -0.2844 -0.0833
   44DOPE  H16X 5668   2.994   1.694   4.021  1.1723 -0.9053  3.4610
   44DOPE  H16Y 5669   2.862   1.602   4.096  0.2001 -3.0876 -0.1354
   44DOPE  C317 5670   2.850   1.596   3.890  0.3165 -0.9455 -0.0750
   44DOPE  H17X 5671   2.906   1.601   3.795  1.0760  1.6464  0.4396
   44DOPE  H17Y 5672   2.786   1.505   3.881 -2.3083  0.7364  0.2329
   44DOPE  C318 5673   2.753   1.722   3.871 -0.4086  0.5966 -0.0077
   44DOPE  H18X 5674   2.701   1.728   3.969  2.0552 -1.2474  1.5318
   44DOPE  H18Y 5675   2.811   1.815   3.857 -1.3086  1.0431 -0.8385
   44DOPE  H18Z 5676   2.689   1.701   3.783 -0.5880  1.4311 -0.0811
   45DOPE     N 5677   4.515   1.076   2.212 -0.5088  0.3995 -0.2052
   45DOPE   HN1 5678   4.439   1.069   2.282 -1.5895 -0.3211 -1.3960
   45DOPE   HN2 5679   4.472   1.110   2.124  0.8467  3.4254  0.1883
   45DOPE   HN3 5680   4.557   0.981   2.203 -2.2174 -0.3904 -0.3217
   45DOPE   C12 5681   4.624   1.174   2.253  0.8871  0.3301  0.5254
   45DOPE  H12A 5682   4.673   1.194   2.156 -1.3271 -0.2962 -0.8125
   45DOPE  H12B 5683   4.686   1.128   2.332 -0.2847  1.3341  2.0942
   45DOPE   C11 5684   4.570   1.300   2.320 -0.1717  0.0078  0.3807
   45DOPE  H11A 5685   4.663   1.355   2.345  0.2219 -0.2612 -0.4554
   45DOPE  H11B 5686   4.519   1.276   2.416 -0.7361 -0.4402 -0.0266
   45DOPE     P 5687   4.348   1.397   2.242  0.5814  0.5368  0.3793
   45DOPE   O13 5688   4.283   1.266   2.211  0.3275 -0.2651  0.3425
   45DOPE   O14 5689   4.304   1.514   2.170  0.2244  0.9910  0.2313
   45DOPE   O11 5690   4.324   1.422   2.395  0.2280 -0.0296  0.2339
   45DOPE   O12 5691   4.501   1.387   2.233 -0.6147 -0.2690  0.0963
   45DOPE    C1 5692   4.350   1.543   2.464  0.3876  0.6177  0.1786
   45DOPE    HA 5693   4.274   1.620   2.439  0.5262  0.7619  0.1976
   45DOPE    HB 5694   4.446   1.586   2.427  0.8219  0.2095  0.8214
   45DOPE    C2 5695   4.365   1.510   2.614 -0.4900  0.5484 -0.4486
   45DOPE    HS 5696   4.457   1.449   2.623 -0.6618  0.5184  1.7576
   45DOPE   O21 5697   4.255   1.428   2.652  0.9501  0.1181  0.4073
   45DOPE   C21 5698   4.267   1.356   2.760 -0.5379 -0.2910 -0.0861
   45DOPE   O22 5699   4.372   1.342   2.823 -0.0153  0.1144  0.1874
   45DOPE   C22 5700   4.135   1.298   2.816  0.2715 -0.1984  0.1412
   45DOPE   H2R 5701   4.137   1.190   2.791  1.8400 -0.5832  1.7427
   45DOPE   H2S 5702   4.059   1.342   2.747  2.3432  2.3757 -0.6205
   45DOPE    C3 5703   4.376   1.645   2.698 -0.0741 -0.3412 -0.1211
   45DOPE    HX 5704   4.279   1.700   2.693 -0.2252 -0.4765  1.0405
   45DOPE    HY 5705   4.450   1.712   2.649  0.6700 -0.2968  1.0307
   45DOPE   O31 5706   4.413   1.616   2.834  0.1556  0.6063 -0.0936
   45DOPE   C31 5707   4.542   1.597   2.863 -0.4485  0.5182  0.5128
   45DOPE   O32 5708   4.627   1.596   2.776 -0.0254 -0.2190 -0.1757
   45DOPE   C32 5709   4.551   1.568   3.008 -0.2157 -0.3181 -0.3201
   45DOPE   H2X 5710   4.573   1.671   3.044 -0.8789  0.3734 -1.8051
   45DOPE   H2Y 5711   4.456   1.518   3.039 -1.2082  0.6887 -1.6125
   45DOPE   C23 5712   4.111   1.335   2.959 -0.1418  0.1879 -0.0244
   45DOPE   H3R 5713   4.007   1.356   2.993 -0.0469 -0.8066  0.9132
   45DOPE   H3S 5714   4.162   1.431   2.982  1.3521 -0.6959  0.4611
   45DOPE   C24 5715   4.171   1.241   3.066  0.6374 -0.1736 -0.0705
   45DOPE   H4R 5716   4.256   1.188   3.018 -0.0582 -0.7696 -0.6628
   45DOPE   H4S 5717   4.098   1.165   3.102  1.2762 -1.5695 -1.6096
   45DOPE   C25 5718   4.220   1.326   3.186 -0.4509  0.3680  0.6617
   45DOPE   H5R 5719   4.144   1.406   3.204  1.6421  2.5613  0.3078
   45DOPE   H5S 5720   4.314   1.375   3.153  0.8882 -2.1728  0.5054
   45DOPE   C26 5721   4.229   1.245   3.313  0.2635  0.2232 -0.1503
   45DOPE   H6R 5722   4.310   1.169   3.316 -0.6216 -0.7178  1.3700
   45DOPE   H6S 5723   4.134   1.187   3.325  0.1550  0.3928 -0.1857
   45DOPE   C27 5724   4.254   1.329   3.437  0.4389  0.7144  0.4297
   45DOPE   H7R 5725   4.174   1.406   3.442  0.3957  0.8373 -1.5918
   45DOPE   H7S 5726   4.357   1.370   3.434 -0.0444  2.0538  1.1458
   45DOPE   C28 5727   4.234   1.243   3.564  0.1444 -0.2940 -0.7234
   45DOPE   H8R 5728   4.321   1.175   3.581 -0.6169 -0.4985  3.5808
   45DOPE   H8S 5729   4.142   1.183   3.550  1.5537 -2.8104  0.0943
   45DOPE   C29 5730   4.222   1.320   3.693  0.0517 -0.0016  0.5455
   45DOPE   H9R 5731   4.239   1.426   3.673  1.2779 -0.4440 -0.9904
   45DOPE  C210 5732   4.211   1.278   3.817 -0.8261 -0.1375 -0.2700
   45DOPE  H10R 5733   4.228   1.348   3.900 -3.8091 -1.0215  1.2304
   45DOPE  C211 5734   4.208   1.130   3.848  0.3728 -0.9027  0.4003
   45DOPE  H11R 5735   4.300   1.102   3.904 -0.5074 -0.3529  2.2057
   45DOPE  H11S 5736   4.204   1.063   3.759  1.7459  1.1387 -1.2972
   45DOPE  C212 5737   4.085   1.082   3.934 -0.3059 -0.1600  0.4534
   45DOPE  H12R 5738   4.101   0.974   3.955  1.9385 -0.1787 -1.0703
   45DOPE  H12S 5739   3.998   1.077   3.864 -0.6908 -1.1189  0.9863
   45DOPE  C213 5740   4.048   1.163   4.062  0.4239  0.1038  0.0604
   45DOPE  H13R 5741   4.003   1.257   4.025 -1.2148 -0.3633  0.7404
   45DOPE  H13S 5742   4.137   1.189   4.122  0.4934 -0.9674  0.4405
   45DOPE  C214 5743   3.941   1.083   4.137  0.4285  0.1562 -0.4873
   45DOPE  H14R 5744   3.976   0.984   4.175  2.8716  1.4169  0.7296
   45DOPE  H14S 5745   3.855   1.059   4.071  0.6391 -2.0022 -0.0556
   45DOPE  C215 5746   3.882   1.156   4.258 -0.7794 -0.3244  0.7494
   45DOPE  H15R 5747   3.824   1.246   4.231  3.5428  2.8308  1.0033
   45DOPE  H15S 5748   3.969   1.189   4.319 -0.5955 -1.2129  0.9929
   45DOPE  C216 5749   3.805   1.059   4.344 -0.4039 -0.1378 -0.6366
   45DOPE  H16R 5750   3.868   0.972   4.371  1.2767  1.7140  1.8606
   45DOPE  H16S 5751   3.727   1.010   4.282  1.4011 -1.3949 -2.0244
   45DOPE  C217 5752   3.763   1.118   4.472  0.1920 -0.2276 -0.3784
   45DOPE  H17R 5753   3.720   1.216   4.446 -0.5309  0.4209  2.8620
   45DOPE  H17S 5754   3.840   1.145   4.548 -0.2796 -1.6637  0.6793
   45DOPE  C218 5755   3.655   1.041   4.538 -0.1962  0.1573  0.2100
   45DOPE  H18R 5756   3.578   1.014   4.462  1.7660 -1.3354 -1.3421
   45DOPE  H18S 5757   3.615   1.113   4.613  0.5101 -0.7508  1.5044
   45DOPE  H18T 5758   3.682   0.950   4.597  0.5149 -0.4236 -0.9753
   45DOPE   C33 5759   4.670   1.476   3.038 -0.0827 -0.0491 -0.1164
   45DOPE   H3X 5760   4.754   1.509   2.973 -1.0073 -0.0688 -1.3445
   45DOPE   H3Y 5761   4.648   1.369   3.017  1.4316 -0.0362 -2.0250
   45DOPE   C34 5762   4.734   1.482   3.183 -0.1134 -0.2172 -0.6720
   45DOPE   H4X 5763   4.804   1.397   3.192 -0.6530 -0.4534  1.8513
   45DOPE   H4Y 5764   4.784   1.579   3.203 -0.2601 -0.0407 -1.1414
   45DOPE   C35 5765   4.627   1.460   3.293 -0.3196  0.4393 -0.5595
   45DOPE   H5X 5766   4.580   1.359   3.297 -1.2803  0.8831 -0.3856
   45DOPE   H5Y 5767   4.539   1.516   3.255  1.3175  2.1894 -2.0041
   45DOPE   C36 5768   4.661   1.494   3.439 -0.3565 -0.4943 -0.3635
   45DOPE   H6X 5769   4.574   1.551   3.475  0.5808 -0.8293  2.6827
   45DOPE   H6Y 5770   4.747   1.562   3.456 -0.2283 -0.9933  1.1535
   45DOPE   C37 5771   4.667   1.373   3.538 -0.4137  0.6199 -0.4202
   45DOPE   H7X 5772   4.569   1.321   3.529  0.2153 -0.5768 -0.5393
   45DOPE   H7Y 5773   4.735   1.295   3.498  0.9855  0.0623  2.7398
   45DOPE   C38 5774   4.688   1.426   3.681 -0.3045  0.2545  0.1573
   45DOPE   H8X 5775   4.773   1.495   3.661  0.8281 -1.6660 -2.3117
   45DOPE   H8Y 5776   4.718   1.348   3.754  0.0569  1.0788  0.9090
   45DOPE   C39 5777   4.559   1.489   3.731 -0.3385  0.0749 -0.1051
   45DOPE   H9X 5778   4.496   1.535   3.654 -0.9882  0.2606  0.5190
   45DOPE  C310 5779   4.505   1.481   3.854  0.0673  0.0819 -0.0799
   45DOPE  H10X 5780   4.409   1.532   3.869  1.2257  1.8622  1.8439
   45DOPE  C311 5781   4.566   1.408   3.970 -0.6438  0.1206 -0.1676
   45DOPE  H11X 5782   4.676   1.400   3.957 -0.4055 -0.5960  1.8574
   45DOPE  H11Y 5783   4.558   1.467   4.064  1.7023 -1.8706  1.4106
   45DOPE  C312 5784   4.499   1.275   4.002  0.2760  0.0472 -0.1850
   45DOPE  H12X 5785   4.508   1.192   3.928 -0.1321 -0.0982 -0.0726
   45DOPE  H12Y 5786   4.391   1.297   4.019  0.2114 -0.9531  0.8257
   45DOPE  C313 5787   4.541   1.201   4.133 -0.0825  0.5725 -0.0354
   45DOPE  H13X 5788   4.639   1.152   4.114 -0.0457 -0.5579  2.6756
   45DOPE  H13Y 5789   4.557   1.278   4.212 -1.5760  0.6642  0.2122
   45DOPE  C314 5790   4.432   1.101   4.172 -0.3529 -0.3172 -0.2041
   45DOPE  H14X 5791   4.397   1.041   4.085 -3.2240  0.0415  0.6232
   45DOPE  H14Y 5792   4.337   1.148   4.204 -0.2826 -0.4542  0.2141
   45DOPE  C315 5793   4.469   1.001   4.284 -0.9364  0.3093 -0.0320
   45DOPE  H15X 5794   4.523   1.056   4.364 -0.1425 -0.8280  0.2360
   45DOPE  H15Y 5795   4.524   0.913   4.245  1.7787  1.2701  1.3185
   45DOPE  C316 5796   4.341   0.948   4.351 -0.0478 -0.5479 -0.5217
   45DOPE  H16X 5797   4.362   0.844   4.383 -2.2604 -1.5459 -2.0183
   45DOPE  H16Y 5798   4.259   0.943   4.276 -0.0254 -2.0220 -0.4813
   45DOPE  C317 5799   4.294   1.032   4.468 -0.2884  0.0245  0.4223
   45DOPE  H17X 5800   4.377   1.064   4.533  0.4143 -0.4858 -0.2115
   45DOPE  H17Y 5801   4.250   1.126   4.426  1.7441  0.6299 -0.4521
   45DOPE  C318 5802   4.182   0.967   4.545 -0.6289 -0.3577 -0.2973
   45DOPE  H18X 5803   4.218   0.866   4.575 -1.5120 -0.5844  0.0196
   45DOPE  H18Y 5804   4.149   1.017   4.639 -0.3220 -1.8952  0.6764
   45DOPE  H18Z 5805   4.100   0.949   4.474  0.2389  0.5348 -1.5583
   46DOPE     N 5806   4.550   7.338   2.681 -0.0089  0.4998 -0.0375
   46DOPE   HN1 5807   4.596   7.334   2.588  0.6939  1.9114  0.2324
   46DOPE   HN2 5808   4.446   7.341   2.668 -0.0047 -0.0107 -0.2461
   46DOPE   HN3 5809   4.575   7.430   2.722 -2.5644  1.5972 -0.7191
   46DOPE   C12 5810   4.583   7.222   2.771  0.2020 -1.2958  0.0638
   46DOPE  H12A 5811   4.507   7.222   2.852  0.7081 -1.8477  0.5509
   46DOPE  H12B 5812   4.677   7.247   2.823 -0.2222 -0.1091  0.2810
   46DOPE   C11 5813   4.593   7.094   2.691 -0.7448 -0.6187  0.3004
   46DOPE  H11A 5814   4.631   7.010   2.753  0.7992 -1.5566 -1.7670
   46DOPE  H11B 5815   4.661   7.105   2.603 -1.3976 -2.6644 -0.5054
   46DOPE     P 5816   4.429   6.924   2.583  0.3964  0.0597  0.0273
   46DOPE   O13 5817   4.543   6.861   2.517  0.1903 -0.0854  0.3949
   46DOPE   O14 5818   4.305   6.931   2.501 -0.4669  0.2920  0.3053
   46DOPE   O11 5819   4.397   6.846   2.718 -0.4658 -0.1464 -0.1529
   46DOPE   O12 5820   4.466   7.068   2.640  0.0736  0.6199 -0.4488
   46DOPE    C1 5821   4.297   6.905   2.810 -0.3077  0.0139 -0.0960
   46DOPE    HA 5822   4.198   6.915   2.762 -0.0483 -0.7656 -0.8149
   46DOPE    HB 5823   4.318   7.014   2.824 -0.2302 -0.3929  4.4549
   46DOPE    C2 5824   4.303   6.846   2.947  0.2036 -0.2334  0.5956
   46DOPE    HS 5825   4.251   6.909   3.023 -2.2627  0.5276 -1.5645
   46DOPE   O21 5826   4.431   6.812   2.984  0.0091 -0.0892  0.2008
   46DOPE   C21 5827   4.499   6.908   3.041 -0.8769 -0.5094 -0.2899
   46DOPE   O22 5828   4.457   7.022   3.071 -0.0384  0.2437 -0.3706
   46DOPE   C22 5829   4.643   6.864   3.057  0.0193  0.2567 -0.7539
   46DOPE   H2R 5830   4.700   6.881   2.963  2.2634 -0.4482  0.4039
   46DOPE   H2S 5831   4.645   6.756   3.084 -1.9888  0.1444 -0.8495
   46DOPE    C3 5832   4.224   6.720   2.943  0.6492 -0.3369  0.7593
   46DOPE    HX 5833   4.297   6.648   2.899  2.7879  0.9509  2.0264
   46DOPE    HY 5834   4.139   6.732   2.872 -0.4413 -1.3908  1.8405
   46DOPE   O31 5835   4.172   6.682   3.074  0.0007 -0.1086  0.9078
   46DOPE   C31 5836   4.129   6.556   3.075  0.1142 -0.2067  0.2692
   46DOPE   O32 5837   4.105   6.488   2.979 -0.1418 -0.1339  0.2070
   46DOPE   C32 5838   4.132   6.517   3.228 -0.5097  0.4233  0.8004
   46DOPE   H2X 5839   4.238   6.509   3.260 -0.1090 -1.9225 -0.7761
   46DOPE   H2Y 5840   4.077   6.594   3.285 -2.4648 -0.7958  0.6629
   46DOPE   C23 5841   4.720   6.933   3.171 -0.2444 -0.7131 -0.2470
   46DOPE   H3R 5842   4.746   7.039   3.150 -2.2889 -0.3770 -1.3539
   46DOPE   H3S 5843   4.815   6.881   3.193  0.5417  0.3146 -1.1482
   46DOPE   C24 5844   4.642   6.920   3.303 -0.3691 -0.3583 -0.6143
   46DOPE   H4R 5845   4.594   6.820   3.298  0.6866 -0.8049 -3.1354
   46DOPE   H4S 5846   4.570   7.000   3.330  0.4840 -0.5829  2.8907
   46DOPE   C25 5847   4.728   6.928   3.438  0.1321 -0.3353 -0.7872
   46DOPE   H5R 5848   4.774   7.029   3.435 -2.0549  0.7079 -2.4088
   46DOPE   H5S 5849   4.804   6.847   3.430  0.2136 -0.5248  1.3009
   46DOPE   C26 5850   4.634   6.908   3.560  0.2413  0.2872 -0.0734
   46DOPE   H6R 5851   4.597   6.805   3.543 -0.9055  0.5729  0.5630
   46DOPE   H6S 5852   4.549   6.979   3.561  0.5714  0.7286 -1.2445
   46DOPE   C27 5853   4.704   6.911   3.694 -0.5028  0.2758 -0.5600
   46DOPE   H7R 5854   4.751   7.011   3.706 -0.0234  0.1085 -1.0204
   46DOPE   H7S 5855   4.778   6.831   3.709 -0.8583  0.4120  2.5445
   46DOPE   C28 5856   4.604   6.896   3.808  0.4260  0.0467  0.8591
   46DOPE   H8R 5857   4.550   6.799   3.810 -2.4507  1.4797 -0.7769
   46DOPE   H8S 5858   4.529   6.974   3.785  0.4909 -0.4659 -1.2575
   46DOPE   C29 5859   4.665   6.938   3.941 -0.6271  0.6297  0.2146
   46DOPE   H9R 5860   4.697   7.043   3.950  0.8186  0.1982  0.3121
   46DOPE  C210 5861   4.679   6.852   4.050 -0.6314  0.4800  0.3488
   46DOPE  H10R 5862   4.714   6.894   4.145 -0.1086  2.3316 -0.6043
   46DOPE  C211 5863   4.646   6.705   4.069 -0.0802 -0.2866  0.1443
   46DOPE  H11R 5864   4.605   6.657   3.978  0.7481 -1.1264  0.1942
   46DOPE  H11S 5865   4.572   6.699   4.151  0.4182  1.1472  0.7306
   46DOPE  C212 5866   4.770   6.628   4.110  0.0278  0.3738 -0.2735
   46DOPE  H12R 5867   4.862   6.641   4.049 -0.3537 -0.1070 -0.9618
   46DOPE  H12S 5868   4.748   6.519   4.106  1.3456 -0.0181  1.6004
   46DOPE  C213 5869   4.806   6.646   4.262 -1.2760 -0.2227  0.1492
   46DOPE  H13R 5870   4.726   6.598   4.323 -2.7427  0.8134 -0.9027
   46DOPE  H13S 5871   4.824   6.753   4.283 -1.8535 -0.3108  1.1344
   46DOPE  C214 5872   4.945   6.585   4.279  0.4440  0.5105 -0.0761
   46DOPE  H14R 5873   5.011   6.621   4.198  0.9352 -0.8315 -0.3017
   46DOPE  H14S 5874   4.932   6.476   4.259 -1.8077  0.4779  1.1861
   46DOPE  C215 5875   4.998   6.609   4.413  0.1590  0.0256 -0.6471
   46DOPE  H15R 5876   4.946   6.528   4.469 -1.7350 -0.3450 -2.7626
   46DOPE  H15S 5877   4.962   6.706   4.452 -2.1696 -0.8838 -0.3466
   46DOPE  C216 5878   5.153   6.614   4.434 -0.4916  0.2838  0.3130
   46DOPE  H16R 5879   5.192   6.689   4.363 -0.9507  1.3839  1.1896
   46DOPE  H16S 5880   5.203   6.519   4.403 -0.2656  0.8111 -1.0071
   46DOPE  C217 5881   5.199   6.660   4.578 -0.2618 -0.0412  1.1701
   46DOPE  H17R 5882   5.296   6.606   4.587 -0.1362 -0.0486 -0.0309
   46DOPE  H17S 5883   5.133   6.627   4.661 -1.0260 -1.4989  0.0490
   46DOPE  C218 5884   5.210   6.814   4.582  0.0693  0.5476 -0.6251
   46DOPE  H18R 5885   5.117   6.873   4.594  0.3454  0.5549  2.3452
   46DOPE  H18S 5886   5.273   6.843   4.496  1.0161  1.7128  0.4207
   46DOPE  H18T 5887   5.280   6.830   4.667 -1.5071 -3.4865  1.7288
   46DOPE   C33 5888   4.069   6.376   3.243  0.0234 -0.1494  0.3005
   46DOPE   H3X 5889   4.121   6.303   3.177  1.2621  0.7742  0.2050
   46DOPE   H3Y 5890   3.959   6.383   3.227 -0.0809 -1.3437  0.4169
   46DOPE   C34 5891   4.099   6.320   3.376  0.0974 -0.1089  0.0194
   46DOPE   H4X 5892   4.069   6.213   3.378 -0.0438 -0.0619  1.2369
   46DOPE   H4Y 5893   4.210   6.320   3.390  0.1014  0.1894 -0.0116
   46DOPE   C35 5894   4.035   6.401   3.497  0.0997  0.0818  0.4437
   46DOPE   H5X 5895   3.927   6.423   3.483  0.7077  2.4670 -1.0991
   46DOPE   H5Y 5896   4.082   6.499   3.517 -2.4216  1.7231 -1.0387
   46DOPE   C36 5897   4.050   6.321   3.626  0.0213 -0.2502 -0.0161
   46DOPE   H6X 5898   4.158   6.299   3.635  0.4090  1.4629  0.0161
   46DOPE   H6Y 5899   4.002   6.221   3.631  0.3329 -0.4810 -1.3338
   46DOPE   C37 5900   4.025   6.411   3.746 -0.3542 -0.6895 -0.6277
   46DOPE   H7X 5901   4.070   6.510   3.725  0.8794 -1.2947 -0.8886
   46DOPE   H7Y 5902   3.914   6.423   3.743 -0.5200 -2.1777 -1.8308
   46DOPE   C38 5903   4.066   6.343   3.879  0.3457  0.2973 -0.1032
   46DOPE   H8X 5904   4.175   6.325   3.870  0.5512  0.8068  1.0715
   46DOPE   H8Y 5905   4.022   6.243   3.898  2.5007 -0.7663 -0.4946
   46DOPE   C39 5906   4.028   6.445   3.985  0.0560  0.0609 -0.5901
   46DOPE   H9X 5907   3.928   6.487   3.969 -0.5018 -0.7755  0.5323
   46DOPE  C310 5908   4.109   6.502   4.076 -0.0127  0.0351 -0.0041
   46DOPE  H10X 5909   4.070   6.574   4.149 -1.0300 -0.2330 -0.2591
   46DOPE  C311 5910   4.254   6.480   4.085  0.2382  0.1023 -0.4203
   46DOPE  H11X 5911   4.287   6.450   3.983 -0.8282 -1.2595 -0.3976
   46DOPE  H11Y 5912   4.317   6.568   4.109  1.9136 -0.4515 -2.4857
   46DOPE  C312 5913   4.302   6.370   4.192 -0.4928 -0.0575  0.4292
   46DOPE  H12X 5914   4.256   6.271   4.175  0.9106 -0.4091 -1.6433
   46DOPE  H12Y 5915   4.286   6.410   4.295  1.4641  1.3843  0.2400
   46DOPE  C313 5916   4.454   6.334   4.175  0.2757 -0.4134 -0.4874
   46DOPE  H13X 5917   4.475   6.278   4.081 -0.1729 -2.1238  0.3821
   46DOPE  H13Y 5918   4.507   6.430   4.161 -0.3779  0.0964  0.4105
   46DOPE  C314 5919   4.516   6.260   4.296 -0.0777 -0.0698 -1.0860
   46DOPE  H14X 5920   4.454   6.170   4.312  2.5275 -1.9577 -0.9895
   46DOPE  H14Y 5921   4.519   6.319   4.391  0.6451  0.4871 -1.4418
   46DOPE  C315 5922   4.663   6.217   4.259 -0.4599  0.1706 -0.2283
   46DOPE  H15X 5923   4.728   6.307   4.261 -0.5239  0.3002 -2.0582
   46DOPE  H15Y 5924   4.672   6.170   4.159 -0.3313 -1.8871  0.7145
   46DOPE  C316 5925   4.710   6.109   4.355  0.5680  0.1849  0.3906
   46DOPE  H16X 5926   4.641   6.023   4.352 -0.0327  0.6476  0.8905
   46DOPE  H16Y 5927   4.710   6.158   4.455  0.3927 -1.0374  1.0070
   46DOPE  C317 5928   4.854   6.059   4.330 -0.2699  0.0131  0.3499
   46DOPE  H17X 5929   4.891   5.998   4.416 -0.7498 -0.0770  0.4954
   46DOPE  H17Y 5930   4.862   5.998   4.237 -1.2159  0.6568 -0.1666
   46DOPE  C318 5931   4.952   6.176   4.299  0.2987  0.7759 -0.3814
   46DOPE  H18X 5932   4.919   6.218   4.202 -0.4206 -2.1049 -1.4974
   46DOPE  H18Y 5933   4.951   6.236   4.393  2.0962 -1.5953  1.2771
   46DOPE  H18Z 5934   5.058   6.145   4.287 -0.3257 -1.2532 -0.9582
   47DOPE     N 5935   2.293   6.573   2.315  0.2059 -0.2506 -0.4705
   47DOPE   HN1 5936   2.203   6.623   2.330  0.8774  0.3777  1.7693
   47DOPE   HN2 5937   2.374   6.627   2.351 -0.0023 -0.3936  0.2208
   47DOPE   HN3 5938   2.306   6.562   2.212  2.5889 -0.1093 -0.2217
   47DOPE   C12 5939   2.277   6.428   2.355  0.2170 -0.0644  0.4306
   47DOPE  H12A 5940   2.365   6.376   2.311 -0.2374  1.4290 -2.4867
   47DOPE  H12B 5941   2.183   6.391   2.310  1.4032 -1.9055 -0.6319
   47DOPE   C11 5942   2.272   6.418   2.509 -0.0602 -0.5619  0.2274
   47DOPE  H11A 5943   2.249   6.312   2.534 -0.7076 -0.8119 -1.3105
   47DOPE  H11B 5944   2.190   6.479   2.553 -0.7516 -1.4844  0.2540
   47DOPE     P 5945   2.518   6.365   2.590 -0.3593 -0.2711 -0.1660
   47DOPE   O13 5946   2.644   6.432   2.540 -0.5110 -0.1527  0.2866
   47DOPE   O14 5947   2.489   6.227   2.542 -0.4668 -0.2915  0.1716
   47DOPE   O11 5948   2.524   6.367   2.754  0.0835 -0.2708  0.7656
   47DOPE   O12 5949   2.395   6.466   2.561 -0.4357  0.3994 -0.3856
   47DOPE    C1 5950   2.407   6.325   2.825  0.4863 -0.2421  0.0457
   47DOPE    HA 5951   2.424   6.225   2.869  0.6315 -0.4781 -0.5348
   47DOPE    HB 5952   2.313   6.336   2.767 -0.3027 -1.0589  1.1428
   47DOPE    C2 5953   2.379   6.424   2.946  0.5868  0.0819  0.1399
   47DOPE    HS 5954   2.362   6.519   2.892 -1.2932  0.2578  0.9555
   47DOPE   O21 5955   2.501   6.419   3.033  0.2053 -0.0770 -0.1240
   47DOPE   C21 5956   2.508   6.525   3.106 -0.1105  0.0510  0.2052
   47DOPE   O22 5957   2.462   6.635   3.077 -0.3345  0.5725 -0.1311
   47DOPE   C22 5958   2.582   6.503   3.238  0.1207  0.1187  0.2477
   47DOPE   H2R 5959   2.614   6.604   3.273 -2.3847  0.5776  1.4249
   47DOPE   H2S 5960   2.668   6.440   3.208  0.0103 -0.9692  2.0801
   47DOPE    C3 5961   2.253   6.387   3.027  0.5749 -0.5147 -0.1027
   47DOPE    HX 5962   2.167   6.374   2.958 -0.9506  0.3336  1.5709
   47DOPE    HY 5963   2.224   6.480   3.080  0.5697  0.5652 -1.9050
   47DOPE   O31 5964   2.274   6.269   3.108  0.4271 -0.1961 -0.2745
   47DOPE   C31 5965   2.168   6.240   3.190 -0.4169  0.2150 -0.1387
   47DOPE   O32 5966   2.076   6.320   3.208 -0.1694  0.3126 -0.0147
   47DOPE   C32 5967   2.170   6.102   3.261 -0.0010  0.1992 -0.4825
   47DOPE   H2X 5968   2.068   6.064   3.240 -1.1435  2.4585  0.6099
   47DOPE   H2Y 5969   2.253   6.037   3.226  1.4870  1.1121  1.1876
   47DOPE   C23 5970   2.492   6.429   3.341  0.1637 -0.5083  0.3575
   47DOPE   H3R 5971   2.559   6.390   3.421  0.3848  0.7982  0.8404
   47DOPE   H3S 5972   2.437   6.345   3.293  0.6391 -1.4358  1.3791
   47DOPE   C24 5973   2.382   6.527   3.398 -0.4974  0.0986  0.3900
   47DOPE   H4R 5974   2.340   6.578   3.309 -0.9166 -0.6106  0.1747
   47DOPE   H4S 5975   2.425   6.602   3.468  0.1368 -0.7090  0.8767
   47DOPE   C25 5976   2.264   6.463   3.473 -0.1574  0.0633 -0.5624
   47DOPE   H5R 5977   2.300   6.396   3.553 -2.3843  1.5240  1.8155
   47DOPE   H5S 5978   2.210   6.404   3.395  1.6344 -1.1529 -0.9253
   47DOPE   C26 5979   2.179   6.567   3.541 -0.3758 -0.3089 -1.3874
   47DOPE   H6R 5980   2.101   6.607   3.474 -0.2316 -1.2823 -2.1676
   47DOPE   H6S 5981   2.248   6.646   3.578 -3.5536  0.6603  3.2868
   47DOPE   C27 5982   2.119   6.513   3.672  0.4074  0.0607  0.2842
   47DOPE   H7R 5983   2.200   6.479   3.740  1.2414  0.9952 -0.2306
   47DOPE   H7S 5984   2.075   6.413   3.651  3.3908 -1.2559 -0.2367
   47DOPE   C28 5985   2.029   6.617   3.741 -0.2712  0.0997  0.0704
   47DOPE   H8R 5986   1.980   6.566   3.827 -0.7599 -1.7273 -1.2206
   47DOPE   H8S 5987   1.943   6.650   3.678 -0.4595 -0.4901  0.0156
   47DOPE   C29 5988   2.090   6.751   3.786  0.4344  0.4299  0.1649
   47DOPE   H9R 5989   2.142   6.810   3.709  0.9157 -1.3067 -0.9182
   47DOPE  C210 5990   2.102   6.789   3.916  0.1581 -0.1604  0.8640
   47DOPE  H10R 5991   2.145   6.887   3.941  0.1405 -0.1116  0.7025
   47DOPE  C211 5992   2.054   6.703   4.032 -0.6634  0.1377 -0.8568
   47DOPE  H11R 5993   2.113   6.714   4.126 -0.4154 -0.9880 -0.8679
   47DOPE  H11S 5994   2.051   6.594   4.008 -0.5550  0.3474 -1.8502
   47DOPE  C212 5995   1.915   6.730   4.090  0.4293 -0.4780 -0.6277
   47DOPE  H12R 5996   1.839   6.660   4.049 -0.1096  0.3351 -1.0456
   47DOPE  H12S 5997   1.876   6.830   4.061  2.2974 -0.2830 -2.8005
   47DOPE  C213 5998   1.909   6.712   4.245  0.6558 -0.2155 -0.0286
   47DOPE  H13R 5999   1.954   6.618   4.281 -0.0426 -0.1907  0.9530
   47DOPE  H13S 6000   1.800   6.701   4.263  0.6700  0.2554  0.3630
   47DOPE  C214 6001   1.952   6.833   4.326 -0.7668  0.2623 -0.1310
   47DOPE  H14R 6002   1.909   6.928   4.286  0.2915  0.6230 -0.4457
   47DOPE  H14S 6003   2.061   6.853   4.326 -0.6469 -0.3343  1.1381
   47DOPE  C215 6004   1.927   6.816   4.484 -0.1001 -0.3564  0.5242
   47DOPE  H15R 6005   1.989   6.896   4.529 -0.8540  1.2147 -1.1142
   47DOPE  H15S 6006   1.956   6.712   4.510 -1.4987 -2.0330 -3.7324
   47DOPE  C216 6007   1.781   6.830   4.524 -0.9613  0.0200 -0.2925
   47DOPE  H16R 6008   1.706   6.766   4.474 -2.5701  0.9883  0.8032
   47DOPE  H16S 6009   1.756   6.936   4.503  3.2109  0.6636 -3.4453
   47DOPE  C217 6010   1.771   6.816   4.683  1.0755 -0.1327  0.0689
   47DOPE  H17R 6011   1.852   6.884   4.717  2.6985 -1.5618 -0.7412
   47DOPE  H17S 6012   1.801   6.716   4.721  0.3016  0.2241  1.6891
   47DOPE  C218 6013   1.637   6.863   4.732  0.0549  0.3808 -0.1667
   47DOPE  H18R 6014   1.555   6.791   4.711 -0.8789  1.6916 -1.1627
   47DOPE  H18S 6015   1.613   6.965   4.697 -0.7053  1.0341  2.0656
   47DOPE  H18T 6016   1.654   6.872   4.842  3.7444 -1.0670 -0.4711
   47DOPE   C33 6017   2.183   6.106   3.416 -0.1870 -0.5521  0.2755
   47DOPE   H3X 6018   2.093   6.163   3.448 -0.2236 -0.7379  0.5077
   47DOPE   H3Y 6019   2.265   6.171   3.454 -0.6005  1.7701 -2.4520
   47DOPE   C34 6020   2.185   5.968   3.487  0.8799  0.3088  0.2854
   47DOPE   H4X 6021   2.101   5.906   3.449  1.0320  0.4349 -0.2559
   47DOPE   H4Y 6022   2.275   5.918   3.446 -0.9800 -1.7259 -1.5681
   47DOPE   C35 6023   2.197   5.969   3.641  0.1146  0.3839 -0.2743
   47DOPE   H5X 6024   2.278   6.038   3.673 -0.2058  1.7390 -2.2159
   47DOPE   H5Y 6025   2.219   5.869   3.685 -1.4557  0.7800  1.5207
   47DOPE   C36 6026   2.065   6.024   3.712 -0.5756  0.2312 -0.5970
   47DOPE   H6X 6027   1.983   5.960   3.672  1.7100 -4.5162  1.5186
   47DOPE   H6Y 6028   2.053   6.130   3.680 -1.5598 -0.2086 -1.7804
   47DOPE   C37 6029   2.073   6.003   3.860 -0.1354 -0.4729 -0.3323
   47DOPE   H7X 6030   2.084   5.894   3.881  2.1160 -0.7289 -2.4591
   47DOPE   H7Y 6031   2.155   6.064   3.903 -1.3334  1.2398 -0.3797
   47DOPE   C38 6032   1.945   6.050   3.938  0.7023 -0.0657 -0.4608
   47DOPE   H8X 6033   1.880   5.960   3.942  0.4571  0.1319  0.1207
   47DOPE   H8Y 6034   1.885   6.119   3.876 -1.0725 -1.4320 -0.3457
   47DOPE   C39 6035   1.982   6.103   4.075  0.7997 -0.3358 -0.5593
   47DOPE   H9X 6036   2.061   6.053   4.133 -0.2849 -0.1884  1.1205
   47DOPE  C310 6037   1.934   6.218   4.128 -1.0581  0.0214  1.3614
   47DOPE  H10X 6038   1.969   6.242   4.229  0.1660 -1.6203  1.3732
   47DOPE  C311 6039   1.831   6.313   4.069  0.2688  0.5654 -0.3186
   47DOPE  H11X 6040   1.873   6.413   4.047  1.1610  0.1467 -0.5338
   47DOPE  H11Y 6041   1.793   6.275   3.971  1.3737  1.3022 -1.0654
   47DOPE  C312 6042   1.697   6.337   4.141  0.1179  0.1794 -0.1720
   47DOPE  H12X 6043   1.632   6.247   4.134 -2.1949  1.8397 -1.0737
   47DOPE  H12Y 6044   1.644   6.419   4.089 -1.7467 -1.4770 -1.0241
   47DOPE  C313 6045   1.717   6.372   4.286 -0.2711  1.2832 -0.2209
   47DOPE  H13X 6046   1.771   6.285   4.329  1.0638  1.9964 -0.4144
   47DOPE  H13Y 6047   1.784   6.460   4.296 -0.2693  1.2305  0.2500
   47DOPE  C314 6048   1.587   6.400   4.361 -0.4023  0.2968 -0.4379
   47DOPE  H14X 6049   1.513   6.333   4.311 -1.0045  1.6351 -1.4035
   47DOPE  H14Y 6050   1.544   6.500   4.340 -0.2578  0.4358 -0.0735
   47DOPE  C315 6051   1.606   6.380   4.516 -0.1904  0.3110  0.1903
   47DOPE  H15X 6052   1.701   6.433   4.539  2.1010 -3.2387 -0.4655
   47DOPE  H15Y 6053   1.620   6.271   4.527 -0.7160  0.0876 -1.2296
   47DOPE  C316 6054   1.480   6.414   4.603 -0.2490  0.3747 -0.0161
   47DOPE  H16X 6055   1.394   6.355   4.563 -1.7282  1.9947  0.6338
   47DOPE  H16Y 6056   1.445   6.518   4.583  2.2300  1.2199 -0.2923
   47DOPE  C317 6057   1.504   6.407   4.759 -0.5737  0.5876  1.2239
   47DOPE  H17X 6058   1.594   6.466   4.785  0.5213  0.1064 -1.1804
   47DOPE  H17Y 6059   1.418   6.441   4.821 -1.4741  0.8672 -0.1207
   47DOPE  C318 6060   1.544   6.260   4.799 -0.1156 -0.8556 -0.6312
   47DOPE  H18X 6061   1.575   6.246   4.905 -1.5148 -2.3364 -0.3702
   47DOPE  H18Y 6062   1.454   6.195   4.787 -1.0899 -0.1460  2.0543
   47DOPE  H18Z 6063   1.628   6.222   4.737  0.1017  0.7142 -1.3486
   48DOPE     N 6064   6.690   2.104   2.390 -0.2298 -0.4583  1.1728
   48DOPE   HN1 6065   6.760   2.037   2.350  0.2465  1.5703 -1.6467
   48DOPE   HN2 6066   6.744   2.181   2.433  0.1729  0.9066 -1.5679
   48DOPE   HN3 6067   6.609   2.075   2.448 -2.5582  1.5920 -0.8360
   48DOPE   C12 6068   6.631   2.187   2.272 -0.1029 -0.0576  0.0743
   48DOPE  H12A 6069   6.588   2.282   2.311 -2.1487 -1.1983  0.7872
   48DOPE  H12B 6070   6.553   2.120   2.229  0.4808 -1.2899  0.8675
   48DOPE   C11 6071   6.734   2.216   2.158  0.5295 -0.6103 -0.6624
   48DOPE  H11A 6072   6.688   2.283   2.083 -0.7465 -0.6603  0.0523
   48DOPE  H11B 6073   6.756   2.117   2.114  0.5533 -0.8230 -0.1831
   48DOPE     P 6074   6.866   2.429   2.251  0.1538  0.1041 -0.0386
   48DOPE   O13 6075   6.811   2.505   2.133  0.5596  0.3915 -0.2762
   48DOPE   O14 6076   7.000   2.459   2.291  0.6347 -0.5754 -0.4587
   48DOPE   O11 6077   6.776   2.452   2.375 -0.2614 -0.7145  0.7782
   48DOPE   O12 6078   6.850   2.277   2.214 -0.1720  0.1417  0.3156
   48DOPE    C1 6079   6.752   2.585   2.419  0.6731 -0.1359  0.5034
   48DOPE    HA 6080   6.643   2.606   2.411  0.9017  1.2553  0.7187
   48DOPE    HB 6081   6.799   2.668   2.360  0.2811  0.8199  1.4987
   48DOPE    C2 6082   6.784   2.611   2.568 -0.1306  0.9179 -0.2609
   48DOPE    HS 6083   6.891   2.584   2.579  0.2397  2.0065 -0.9970
   48DOPE   O21 6084   6.708   2.512   2.647  0.4668 -0.2230 -0.7310
   48DOPE   C21 6085   6.728   2.521   2.779  0.5752  0.2707 -0.2874
   48DOPE   O22 6086   6.820   2.574   2.835 -0.0007  0.4955  0.2022
   48DOPE   C22 6087   6.614   2.459   2.855  0.0701 -0.1516 -0.2168
   48DOPE   H2R 6088   6.567   2.546   2.904 -1.2920 -1.4942  0.9304
   48DOPE   H2S 6089   6.656   2.397   2.937 -2.6162  1.0064  2.1698
   48DOPE    C3 6090   6.757   2.762   2.612  0.1689 -0.0144 -0.1586
   48DOPE    HX 6091   6.827   2.818   2.546 -0.2010 -2.9359 -3.3236
   48DOPE    HY 6092   6.783   2.784   2.717  1.5965  0.6437 -0.6330
   48DOPE   O31 6093   6.614   2.793   2.592 -0.2552 -0.2122 -0.1594
   48DOPE   C31 6094   6.596   2.928   2.585 -0.5156  0.4291  0.3093
   48DOPE   O32 6095   6.683   3.014   2.563  0.0437  0.5996 -0.5811
   48DOPE   C32 6096   6.454   2.959   2.618  0.0933  0.2935  0.0204
   48DOPE   H2X 6097   6.421   3.035   2.544  1.6880 -0.1059 -1.1616
   48DOPE   H2Y 6098   6.394   2.866   2.620  0.1898  0.2230 -0.3325
   48DOPE   C23 6099   6.514   2.371   2.788  0.4738  0.5708  0.4746
   48DOPE   H3R 6100   6.570   2.297   2.727  1.7229  0.0526  2.1810
   48DOPE   H3S 6101   6.450   2.431   2.721 -0.3692 -1.9166 -1.0927
   48DOPE   C24 6102   6.424   2.296   2.888 -0.1270 -1.0540  0.1567
   48DOPE   H4R 6103   6.489   2.242   2.959  2.2119  3.4772  1.9096
   48DOPE   H4S 6104   6.362   2.222   2.833 -0.5384 -1.7338  1.4962
   48DOPE   C25 6105   6.337   2.397   2.970 -0.4105 -0.9005 -0.1544
   48DOPE   H5R 6106   6.296   2.472   2.899  2.4114  1.3849  0.4108
   48DOPE   H5S 6107   6.401   2.447   3.046  0.7495 -2.7485  0.1590
   48DOPE   C26 6108   6.230   2.327   3.046  0.8594 -0.3477 -0.0562
   48DOPE   H6R 6109   6.168   2.276   2.969 -1.4543  0.5457  1.1080
   48DOPE   H6S 6110   6.161   2.407   3.080  1.1703  0.8056 -2.0117
   48DOPE   C27 6111   6.269   2.238   3.171  0.2619  0.0213 -0.2787
   48DOPE   H7R 6112   6.304   2.143   3.127 -0.6444  0.2215 -1.5075
   48DOPE   H7S 6113   6.190   2.224   3.248 -0.6634  0.9423 -1.0275
   48DOPE   C28 6114   6.386   2.307   3.248  0.6553  0.8656  0.0613
   48DOPE   H8R 6115   6.345   2.407   3.271 -0.9992 -0.0017  0.9765
   48DOPE   H8S 6116   6.474   2.323   3.181  0.2184  1.9132 -0.2771
   48DOPE   C29 6117   6.424   2.224   3.373 -0.0525  0.1333  0.4900
   48DOPE   H9R 6118   6.419   2.116   3.355 -1.2409 -0.3300  3.0810
   48DOPE  C210 6119   6.452   2.273   3.495 -0.0409  0.0343 -0.8115
   48DOPE  H10R 6120   6.483   2.204   3.575  0.1128  1.9291  0.8252
   48DOPE  C211 6121   6.459   2.419   3.538 -0.4351 -0.0648  0.2511
   48DOPE  H11R 6122   6.367   2.464   3.495 -0.1837  0.2727  0.0669
   48DOPE  H11S 6123   6.541   2.479   3.493 -0.3546 -0.1978  0.2190
   48DOPE  C212 6124   6.444   2.432   3.692 -0.5024  0.7817 -0.1285
   48DOPE  H12R 6125   6.531   2.371   3.724 -0.7782 -1.6100 -3.4419
   48DOPE  H12S 6126   6.355   2.374   3.723 -0.3959  0.4514 -0.4349
   48DOPE  C213 6127   6.443   2.577   3.733  0.3533  0.5856  0.3060
   48DOPE  H13R 6128   6.348   2.629   3.707  0.8999  0.1769 -2.8487
   48DOPE  H13S 6129   6.522   2.627   3.674  1.0324 -1.8022 -0.9554
   48DOPE  C214 6130   6.489   2.600   3.882  0.2372 -0.3455  0.2658
   48DOPE  H14R 6131   6.496   2.710   3.898  1.6466  0.0062 -2.3062
   48DOPE  H14S 6132   6.580   2.548   3.919 -1.3087 -2.7215  0.9903
   48DOPE  C215 6133   6.388   2.542   3.976  0.1218 -1.0147  0.0783
   48DOPE  H15R 6134   6.375   2.433   3.959 -3.0130 -0.3385 -2.9834
   48DOPE  H15S 6135   6.287   2.584   3.956 -0.0970 -0.9802  1.1975
   48DOPE  C216 6136   6.424   2.567   4.132  0.2100  0.4492  0.3121
   48DOPE  H16R 6137   6.383   2.668   4.155 -2.8248 -0.1414 -1.9107
   48DOPE  H16S 6138   6.534   2.571   4.147  0.1161  1.2474  0.8813
   48DOPE  C217 6139   6.375   2.457   4.223  0.1218 -0.7212 -0.4236
   48DOPE  H17R 6140   6.271   2.442   4.187 -1.2869  1.9997  2.0951
   48DOPE  H17S 6141   6.381   2.492   4.328  2.4681 -0.1617 -0.6867
   48DOPE  C218 6142   6.451   2.320   4.212  0.3123  0.0160  0.2560
   48DOPE  H18R 6143   6.387   2.244   4.262  1.0809  2.0247  4.7934
   48DOPE  H18S 6144   6.546   2.315   4.270 -0.1556 -2.5803  0.8904
   48DOPE  H18T 6145   6.461   2.282   4.109 -2.9717  0.8284 -0.5060
   48DOPE   C33 6146   6.451   3.026   2.758 -0.4440 -0.3229  0.4086
   48DOPE   H3X 6147   6.360   3.090   2.760 -0.8581 -0.8636 -0.4519
   48DOPE   H3Y 6148   6.539   3.092   2.765 -0.5623  0.1210 -1.6580
   48DOPE   C34 6149   6.442   2.933   2.886 -0.6942 -0.7644  0.0259
   48DOPE   H4X 6150   6.336   2.900   2.888 -0.5743 -1.1412  0.2242
   48DOPE   H4Y 6151   6.507   2.846   2.863 -0.3642 -0.3111 -0.8160
   48DOPE   C35 6152   6.483   3.011   3.005 -0.4993  0.2485 -0.0708
   48DOPE   H5X 6153   6.573   3.072   2.983 -0.7912  1.1125  1.0462
   48DOPE   H5Y 6154   6.525   2.947   3.085  1.4203  0.9640 -0.4704
   48DOPE   C36 6155   6.370   3.082   3.080  0.6763  0.1852  0.0061
   48DOPE   H6X 6156   6.305   2.999   3.116  1.0930 -0.3285 -0.4001
   48DOPE   H6Y 6157   6.315   3.143   3.005  0.3003  1.6600  1.4211
   48DOPE   C37 6158   6.424   3.171   3.190 -0.4249 -0.1069 -0.4897
   48DOPE   H7X 6159   6.533   3.152   3.198 -0.1689  1.8896  1.9384
   48DOPE   H7Y 6160   6.420   3.280   3.174  1.3402  0.0937  0.1946
   48DOPE   C38 6161   6.373   3.127   3.323 -0.0147  0.1698 -0.6353
   48DOPE   H8X 6162   6.437   3.170   3.403  0.2363  0.7855 -1.1650
   48DOPE   H8Y 6163   6.386   3.017   3.331 -1.8024 -0.0187  0.3653
   48DOPE   C39 6164   6.234   3.164   3.349 -0.5656  0.7274 -0.4987
   48DOPE   H9X 6165   6.164   3.115   3.279  0.1930 -0.8960 -0.1509
   48DOPE  C310 6166   6.181   3.246   3.442  0.1409  0.6611  0.6499
   48DOPE  H10X 6167   6.078   3.284   3.427  0.9318  1.9847 -1.8418
   48DOPE  C311 6168   6.246   3.329   3.547 -0.1180 -0.6373 -0.9281
   48DOPE  H11X 6169   6.344   3.278   3.552  0.2805 -0.1155 -2.6105
   48DOPE  H11Y 6170   6.262   3.435   3.518 -1.0167  0.4847  2.2850
   48DOPE  C312 6171   6.190   3.322   3.688 -0.3094  0.4807 -0.4121
   48DOPE  H12X 6172   6.089   3.364   3.707 -0.2820  0.1521  0.5305
   48DOPE  H12Y 6173   6.268   3.369   3.752  1.4664 -0.8604 -1.4914
   48DOPE  C313 6174   6.173   3.171   3.733 -0.3836 -0.7203  0.1084
   48DOPE  H13X 6175   6.082   3.131   3.684 -0.8232  0.5528 -0.1746
   48DOPE  H13Y 6176   6.262   3.111   3.707  0.9157  0.6289  1.2809
   48DOPE  C314 6177   6.145   3.170   3.885 -0.1437  0.2796 -0.2270
   48DOPE  H14X 6178   6.065   3.247   3.894  0.3161  0.7781 -0.3298
   48DOPE  H14Y 6179   6.240   3.211   3.927  0.7391 -0.0761 -1.7879
   48DOPE  C315 6180   6.102   3.041   3.941 -0.1114 -0.4643 -0.6057
   48DOPE  H15X 6181   6.167   2.961   3.901  1.2030  0.0638  0.4328
   48DOPE  H15Y 6182   5.999   3.012   3.910 -0.5395 -0.7875  1.0307
   48DOPE  C316 6183   6.104   3.043   4.105 -0.5305  0.1428 -0.1406
   48DOPE  H16X 6184   6.054   3.137   4.138 -0.4049  0.0104  0.4374
   48DOPE  H16Y 6185   6.208   3.038   4.145 -0.6677 -1.9320  0.0205
   48DOPE  C317 6186   6.030   2.922   4.169 -0.2689 -0.7039  0.6700
   48DOPE  H17X 6187   6.017   2.932   4.279 -0.3636 -1.4398  0.7330
   48DOPE  H17Y 6188   5.925   2.920   4.131 -0.3838  4.1043  0.1201
   48DOPE  C318 6189   6.107   2.788   4.141  0.7113  0.4071  0.0677
   48DOPE  H18X 6190   6.056   2.715   4.207 -1.2130  0.8956 -0.7980
   48DOPE  H18Y 6191   6.078   2.754   4.039 -0.8519 -0.2540  0.7134
   48DOPE  H18Z 6192   6.216   2.797   4.161  1.1806  0.6353 -2.2732
   49DOPE     N 6193   2.895   6.352   2.545  0.2444  0.5333 -0.3419
   49DOPE   HN1 6194   2.793   6.367   2.552 -0.0393 -1.2307 -0.2332
   49DOPE   HN2 6195   2.934   6.438   2.500  1.9118  0.3914  0.7504
   49DOPE   HN3 6196   2.926   6.271   2.487  1.0759 -0.4998  1.4528
   49DOPE   C12 6197   2.951   6.322   2.676 -0.6749  0.0556 -0.5189
   49DOPE  H12A 6198   2.923   6.221   2.713 -1.5305  0.2552 -0.6172
   49DOPE  H12B 6199   2.912   6.399   2.745 -0.3969 -1.6425  1.6419
   49DOPE   C11 6200   3.111   6.342   2.672 -0.1872 -0.0412  0.1661
   49DOPE  H11A 6201   3.151   6.336   2.775 -0.4145 -2.3340  0.1565
   49DOPE  H11B 6202   3.143   6.444   2.639 -2.4604  1.5953  2.5605
   49DOPE     P 6203   3.323   6.196   2.597  0.2288 -0.3562 -0.5343
   49DOPE   O13 6204   3.402   6.299   2.670  0.3092 -0.0757 -0.3827
   49DOPE   O14 6205   3.363   6.164   2.460  0.2004 -0.0537 -0.2280
   49DOPE   O11 6206   3.332   6.066   2.692  0.1439  0.1643  0.7863
   49DOPE   O12 6207   3.177   6.246   2.585  0.4955 -0.3944  0.3559
   49DOPE    C1 6208   3.236   6.029   2.793  0.4255  0.5485 -0.4027
   49DOPE    HA 6209   3.252   5.920   2.809 -1.5236  0.1441 -0.9388
   49DOPE    HB 6210   3.134   6.050   2.756  0.3620 -1.1783 -1.3087
   49DOPE    C2 6211   3.267   6.105   2.923 -0.9152 -0.1539  0.3242
   49DOPE    HS 6212   3.249   6.214   2.916 -0.1784 -0.1248 -2.0041
   49DOPE   O21 6213   3.408   6.087   2.958  0.3270  0.1531  0.3807
   49DOPE   C21 6214   3.467   6.191   3.012  0.2995  0.2972  0.3856
   49DOPE   O22 6215   3.423   6.301   3.027 -0.0142  0.2033  0.1076
   49DOPE   C22 6216   3.616   6.156   3.048  0.4894  0.3759  0.3472
   49DOPE   H2R 6217   3.663   6.127   2.952  0.4907 -3.1906  1.2631
   49DOPE   H2S 6218   3.632   6.063   3.108  0.2142 -0.2000 -0.4585
   49DOPE    C3 6219   3.172   6.048   3.035 -0.3377  0.1262  0.0455
   49DOPE    HX 6220   3.180   5.937   3.024 -0.9837 -0.0994  1.5307
   49DOPE    HY 6221   3.069   6.084   3.015 -1.1586 -1.9482  0.2800
   49DOPE   O31 6222   3.214   6.084   3.167  0.2851 -0.5908 -0.2069
   49DOPE   C31 6223   3.143   6.164   3.250 -0.5767  0.0650 -0.0170
   49DOPE   O32 6224   3.030   6.199   3.228  0.5519 -0.1822 -0.0155
   49DOPE   C32 6225   3.230   6.205   3.371  0.0086 -0.5865 -0.0074
   49DOPE   H2X 6226   3.179   6.163   3.461  0.8408  1.5247  1.5183
   49DOPE   H2Y 6227   3.328   6.159   3.347  0.4813  0.0030  0.7667
   49DOPE   C23 6228   3.691   6.271   3.118 -0.2758  0.0272  0.2979
   49DOPE   H3R 6229   3.672   6.361   3.055 -0.4915 -1.1658 -1.4221
   49DOPE   H3S 6230   3.800   6.252   3.114 -0.4888 -1.7056  1.2831
   49DOPE   C24 6231   3.665   6.310   3.262 -1.3071  0.8720 -0.4714
   49DOPE   H4R 6232   3.567   6.352   3.291 -0.8739 -0.0960  2.8599
   49DOPE   H4S 6233   3.741   6.387   3.286 -1.0163  0.3205  0.4391
   49DOPE   C25 6234   3.689   6.197   3.365 -0.1378 -0.8838 -0.5206
   49DOPE   H5R 6235   3.793   6.176   3.396 -0.8606 -3.6225  0.2675
   49DOPE   H5S 6236   3.644   6.099   3.340 -0.5492 -0.8837  0.2004
   49DOPE   C26 6237   3.635   6.227   3.513  0.2702  0.3202  0.1623
   49DOPE   H6R 6238   3.528   6.258   3.519 -0.2339 -1.5031  1.5259
   49DOPE   H6S 6239   3.696   6.314   3.547  1.7264 -1.4855  2.4654
   49DOPE   C27 6240   3.644   6.112   3.611 -0.5173  0.0333 -0.2342
   49DOPE   H7R 6241   3.735   6.049   3.595  0.2023 -0.0322  3.2516
   49DOPE   H7S 6242   3.558   6.046   3.589 -0.1039 -1.2464  1.7855
   49DOPE   C28 6243   3.662   6.156   3.761 -0.0118 -0.6587 -0.3436
   49DOPE   H8R 6244   3.743   6.230   3.775 -0.7351 -0.1851  1.6842
   49DOPE   H8S 6245   3.693   6.066   3.817 -0.6785 -2.0392 -2.0952
   49DOPE   C29 6246   3.536   6.198   3.825  0.1743 -0.1121 -0.4696
   49DOPE   H9R 6247   3.448   6.142   3.791 -0.9085  1.6956 -0.8170
   49DOPE  C210 6248   3.519   6.297   3.919 -0.6054 -0.5127 -0.0195
   49DOPE  H10R 6249   3.423   6.309   3.973 -0.9877 -2.0226 -0.3159
   49DOPE  C211 6250   3.624   6.395   3.981 -0.2429  0.3083 -0.3414
   49DOPE  H11R 6251   3.603   6.503   3.966  0.5122  0.3815 -0.9963
   49DOPE  H11S 6252   3.723   6.378   3.932 -0.8083  0.2502 -1.4924
   49DOPE  C212 6253   3.659   6.367   4.127 -0.1949 -0.0458  0.2941
   49DOPE  H12R 6254   3.722   6.451   4.163 -1.7508  2.3021 -2.0961
   49DOPE  H12S 6255   3.724   6.279   4.146 -1.1407 -1.1580 -1.4487
   49DOPE  C213 6256   3.531   6.370   4.206 -0.0849  0.5512  0.3716
   49DOPE  H13R 6257   3.468   6.282   4.179 -1.5485  1.7961 -0.4531
   49DOPE  H13S 6258   3.473   6.460   4.175  0.0051  0.3250 -0.4755
   49DOPE  C214 6259   3.547   6.366   4.362  0.4944 -0.4502 -0.0639
   49DOPE  H14R 6260   3.628   6.440   4.375  0.3602  0.2220 -2.5561
   49DOPE  H14S 6261   3.594   6.269   4.387  1.5039 -0.2971 -1.2750
   49DOPE  C215 6262   3.424   6.388   4.444  0.7143 -0.6215  0.0427
   49DOPE  H15R 6263   3.352   6.307   4.421 -1.0329  0.9041 -0.1464
   49DOPE  H15S 6264   3.368   6.482   4.425 -0.4303 -1.1120  0.8461
   49DOPE  C216 6265   3.450   6.371   4.597 -0.1267  0.5993 -0.3481
   49DOPE  H16R 6266   3.479   6.267   4.621 -2.0206 -0.3518 -1.9080
   49DOPE  H16S 6267   3.354   6.376   4.653 -0.4558 -3.6112 -0.2128
   49DOPE  C217 6268   3.543   6.480   4.646 -0.2668 -0.0596 -0.0329
   49DOPE  H17R 6269   3.510   6.574   4.597  0.5942  0.4527  0.3307
   49DOPE  H17S 6270   3.645   6.453   4.610 -0.1485  0.1381  0.1483
   49DOPE  C218 6271   3.547   6.490   4.796 -0.0221  0.3605 -0.8995
   49DOPE  H18R 6272   3.456   6.536   4.840  0.4970 -1.4958  2.3889
   49DOPE  H18S 6273   3.630   6.554   4.830  0.0528 -0.1624 -0.0854
   49DOPE  H18T 6274   3.566   6.388   4.836 -1.5287  0.2807 -0.2889
   49DOPE   C33 6275   3.246   6.362   3.385 -0.1255 -0.2726 -0.0183
   49DOPE   H3X 6276   3.147   6.401   3.353 -1.1076 -1.2190  1.6818
   49DOPE   H3Y 6277   3.333   6.390   3.323  0.6271  0.6032  1.3891
   49DOPE   C34 6278   3.270   6.395   3.529  0.3394 -0.0542  0.5893
   49DOPE   H4X 6279   3.341   6.319   3.570  1.0892 -0.2584 -1.0033
   49DOPE   H4Y 6280   3.325   6.492   3.530  0.9744 -0.4003  0.2757
   49DOPE   C35 6281   3.147   6.409   3.613 -0.8573 -0.4905 -0.1746
   49DOPE   H5X 6282   3.091   6.314   3.620 -2.8060  0.5740 -0.6580
   49DOPE   H5Y 6283   3.084   6.490   3.571  0.4509  0.7584  0.1874
   49DOPE   C36 6284   3.183   6.458   3.756 -0.5613  0.3788  0.4790
   49DOPE   H6X 6285   3.261   6.538   3.750  1.2667 -1.4370 -1.7610
   49DOPE   H6Y 6286   3.236   6.376   3.809 -0.3320 -0.9703 -1.6918
   49DOPE   C37 6287   3.062   6.509   3.839 -0.5563  0.9583 -0.4690
   49DOPE   H7X 6288   2.993   6.561   3.768 -0.4847  1.2284 -0.3421
   49DOPE   H7Y 6289   3.007   6.421   3.877 -0.5804  1.9444  1.9574
   49DOPE   C38 6290   3.097   6.587   3.965 -0.1690  0.0710 -0.5246
   49DOPE   H8X 6291   3.005   6.610   4.025  1.4357  1.3554  1.6125
   49DOPE   H8Y 6292   3.135   6.690   3.951  1.4996 -0.2874  1.0897
   49DOPE   C39 6293   3.190   6.526   4.071 -0.0354 -0.2101 -0.9591
   49DOPE   H9X 6294   3.295   6.556   4.061 -0.5411  2.3626  0.3835
   49DOPE  C310 6295   3.164   6.427   4.155 -0.5034  0.1517  0.3650
   49DOPE  H10X 6296   3.247   6.398   4.221  1.2875 -1.0442 -2.2253
   49DOPE  C311 6297   3.032   6.352   4.167  0.8015 -0.2141  0.1801
   49DOPE  H11X 6298   2.948   6.415   4.131  0.3201  0.4411  2.3058
   49DOPE  H11Y 6299   3.039   6.267   4.095 -0.2117 -0.1668  0.0166
   49DOPE  C312 6300   3.021   6.293   4.308  0.2336  0.6082 -0.2161
   49DOPE  H12X 6301   3.112   6.245   4.350 -0.7415  0.2011  1.5215
   49DOPE  H12Y 6302   2.943   6.213   4.307  1.3500 -0.5131  0.4480
   49DOPE  C313 6303   2.991   6.399   4.417  0.2169 -0.5994 -0.0837
   49DOPE  H13X 6304   3.039   6.497   4.396 -1.6108  0.3292 -0.0969
   49DOPE  H13Y 6305   2.880   6.411   4.422  0.1647 -1.4622  3.1695
   49DOPE  C314 6306   3.030   6.356   4.556 -0.6657  0.5113 -0.1381
   49DOPE  H14X 6307   3.138   6.331   4.562 -0.4934  0.7118 -1.9589
   49DOPE  H14Y 6308   2.972   6.273   4.602  0.2469  0.0141  0.1457
   49DOPE  C315 6309   3.018   6.481   4.654  0.1953  0.8620 -0.1608
   49DOPE  H15X 6310   2.917   6.526   4.645 -0.1449  0.4308  1.1840
   49DOPE  H15Y 6311   3.095   6.555   4.624  1.3324 -0.0756  0.3951
   49DOPE  C316 6312   3.065   6.445   4.792 -0.6927 -0.6327 -0.0982
   49DOPE  H16X 6313   3.167   6.400   4.794  0.7871  2.4988  1.0455
   49DOPE  H16Y 6314   2.988   6.379   4.837  0.5665 -1.1859  1.3226
   49DOPE  C317 6315   3.063   6.570   4.886 -0.5780  0.3416  0.3689
   49DOPE  H17X 6316   3.148   6.632   4.852 -0.0586 -0.3243  0.4238
   49DOPE  H17Y 6317   2.969   6.628   4.876 -0.2836  0.9960  1.3395
   49DOPE  C318 6318   3.076   6.533   5.030  0.2522  0.5935  0.1960
   49DOPE  H18X 6319   3.083   6.624   5.094  1.8200  1.2742 -0.8709
   49DOPE  H18Y 6320   2.978   6.484   5.050 -0.6944  1.1874 -2.5972
   49DOPE  H18Z 6321   3.161   6.462   5.043 -0.0773  0.0183 -0.7190
   50DOPE     N 6322   0.106   4.432   2.029 -0.8512  0.2252 -0.2359
   50DOPE   HN1 6323   0.099   4.329   2.011  1.5821  0.2108 -1.4976
   50DOPE   HN2 6324   0.112   4.442   2.132  2.5385 -0.5088 -0.2504
   50DOPE   HN3 6325   0.020   4.485   2.004  0.1504  1.4516 -1.2252
   50DOPE   C12 6326   0.236   4.484   1.975  0.1790  0.5317 -0.0045
   50DOPE  H12A 6327   0.213   4.516   1.871 -1.6184  2.0845  0.8112
   50DOPE  H12B 6328   0.304   4.396   1.974 -0.2719  0.1801 -0.3624
   50DOPE   C11 6329   0.290   4.592   2.073 -0.7707 -0.0728  0.1993
   50DOPE  H11A 6330   0.368   4.639   2.010 -0.3924 -1.1892 -0.1957
   50DOPE  H11B 6331   0.339   4.548   2.163  3.7387 -1.4962 -2.6057
   50DOPE     P 6332   0.239   4.828   2.177 -0.0036  0.0354 -0.0816
   50DOPE   O13 6333   0.121   4.888   2.239 -0.0315 -0.1679  0.3142
   50DOPE   O14 6334   0.322   4.896   2.079 -0.1494 -0.4747  0.4576
   50DOPE   O11 6335   0.331   4.790   2.297 -0.2213 -0.1168  0.7142
   50DOPE   O12 6336   0.192   4.681   2.115 -0.0340  0.8548  0.2791
   50DOPE    C1 6337   0.291   4.702   2.398  0.4590  0.1901  0.0958
   50DOPE    HA 6338   0.350   4.607   2.400  0.0991 -0.0241  0.9699
   50DOPE    HB 6339   0.184   4.673   2.393  0.8567 -1.9258  2.0782
   50DOPE    C2 6340   0.328   4.764   2.540  0.2240 -0.3564  0.8539
   50DOPE    HS 6341   0.271   4.859   2.551  0.1731 -0.2326 -0.3861
   50DOPE   O21 6342   0.466   4.796   2.543  0.0969  0.1888 -0.2697
   50DOPE   C21 6343   0.502   4.892   2.627 -0.3114  0.2667 -0.1112
   50DOPE   O22 6344   0.427   4.960   2.697  0.2573 -0.8316  0.5594
   50DOPE   C22 6345   0.651   4.883   2.644  0.0157  0.1869  0.4563
   50DOPE   H2R 6346   0.696   4.984   2.639  0.3977 -0.0429 -1.6930
   50DOPE   H2S 6347   0.698   4.820   2.566  0.0392  0.8552 -0.0735
   50DOPE    C3 6348   0.282   4.670   2.655  0.0782  0.0703 -0.5273
   50DOPE    HX 6349   0.324   4.568   2.643  0.8576  0.1120  1.4507
   50DOPE    HY 6350   0.173   4.652   2.642  0.3188 -0.8928 -1.2398
   50DOPE   O31 6351   0.313   4.721   2.788 -0.0905  0.2264 -0.3638
   50DOPE   C31 6352   0.237   4.816   2.843  0.2306  0.0570 -0.1857
   50DOPE   O32 6353   0.142   4.870   2.793 -0.3320 -0.2553 -0.6649
   50DOPE   C32 6354   0.310   4.856   2.973  0.3979  0.2388  0.1152
   50DOPE   H2X 6355   0.402   4.800   2.997  0.5208  0.7138  0.7805
   50DOPE   H2Y 6356   0.345   4.958   2.947 -0.1807  0.4982  0.3239
   50DOPE   C23 6357   0.690   4.839   2.781 -0.4147  0.0103  1.0115
   50DOPE   H3R 6358   0.679   4.729   2.783  0.9623 -0.2158 -0.9688
   50DOPE   H3S 6359   0.643   4.889   2.869 -1.7323 -0.2080  0.4426
   50DOPE   C24 6360   0.847   4.854   2.800 -0.3082 -0.1045  0.0250
   50DOPE   H4R 6361   0.871   4.961   2.782 -1.0652  0.4553  2.0568
   50DOPE   H4S 6362   0.913   4.801   2.727  2.0689 -0.9616  2.6386
   50DOPE   C25 6363   0.906   4.818   2.938 -0.2791 -0.3639 -0.1288
   50DOPE   H5R 6364   0.887   4.709   2.952 -0.3524 -0.3068  0.2374
   50DOPE   H5S 6365   0.841   4.863   3.016  1.1268  0.0008  0.8735
   50DOPE   C26 6366   1.056   4.844   2.947 -0.4478  0.5567  0.0932
   50DOPE   H6R 6367   1.075   4.953   2.939 -0.5399  0.5188 -0.7414
   50DOPE   H6S 6368   1.119   4.784   2.878  0.6192 -0.0372  1.5356
   50DOPE   C27 6369   1.106   4.802   3.091  0.0781 -0.3564  0.5103
   50DOPE   H7R 6370   1.103   4.691   3.097  1.4839 -0.5273 -1.1259
   50DOPE   H7S 6371   1.040   4.838   3.173 -0.6310  3.6160 -1.5416
   50DOPE   C28 6372   1.252   4.847   3.123  1.3949  0.3863  0.1417
   50DOPE   H8R 6373   1.247   4.958   3.124 -0.6278  0.3363  1.8281
   50DOPE   H8S 6374   1.323   4.832   3.039 -1.8038  0.1743 -2.7224
   50DOPE   C29 6375   1.312   4.790   3.244 -0.2494  0.8490 -0.1316
   50DOPE   H9R 6376   1.377   4.703   3.230 -0.5508  0.7782 -1.1513
   50DOPE  C210 6377   1.268   4.815   3.371  0.6841  0.5920  0.5816
   50DOPE  H10R 6378   1.321   4.774   3.459 -0.0875 -0.3178  0.6476
   50DOPE  C211 6379   1.155   4.911   3.410 -1.1396  0.1772 -0.1940
   50DOPE  H11R 6380   1.083   4.942   3.331 -0.8620  2.7153  0.4927
   50DOPE  H11S 6381   1.198   5.003   3.454  0.9080 -0.1368 -1.4221
   50DOPE  C212 6382   1.068   4.851   3.523  0.5259 -0.2470  0.1070
   50DOPE  H12R 6383   1.037   4.749   3.490 -0.8513 -0.6321  2.3970
   50DOPE  H12S 6384   0.969   4.900   3.514  0.8136  0.3417  0.1363
   50DOPE  C213 6385   1.122   4.842   3.662 -0.2229 -0.1714 -0.6943
   50DOPE  H13R 6386   1.224   4.800   3.648  0.6928  1.5352  0.3462
   50DOPE  H13S 6387   1.062   4.780   3.732  0.6640 -0.0993  0.1643
   50DOPE  C214 6388   1.158   4.978   3.731 -0.1028  0.1954  0.1761
   50DOPE  H14R 6389   1.069   5.039   3.760  0.5941  1.8831 -1.0565
   50DOPE  H14S 6390   1.229   5.038   3.669 -0.3137  0.1814 -0.0832
   50DOPE  C215 6391   1.223   4.950   3.869 -0.5483 -0.8255 -0.5812
   50DOPE  H15R 6392   1.288   4.861   3.853 -0.9612 -1.1888 -0.2786
   50DOPE  H15S 6393   1.145   4.908   3.937  0.2576 -1.8782 -0.2619
   50DOPE  C216 6394   1.297   5.071   3.924  0.5718  0.7308  0.2635
   50DOPE  H16R 6395   1.367   5.096   3.842  0.8235  0.7081  0.4694
   50DOPE  H16S 6396   1.355   5.047   4.016 -0.0367  2.8387  1.2526
   50DOPE  C217 6397   1.200   5.194   3.943 -0.6092 -0.2575  0.3053
   50DOPE  H17R 6398   1.122   5.169   4.019 -0.7490 -0.3154  0.1431
   50DOPE  H17S 6399   1.148   5.230   3.851 -1.0486  1.3483  1.1395
   50DOPE  C218 6400   1.276   5.313   3.996 -0.0060 -0.4916 -0.4122
   50DOPE  H18R 6401   1.208   5.400   4.006 -1.7763 -1.8001 -0.5424
   50DOPE  H18S 6402   1.368   5.337   3.938  2.1361 -1.6480  2.2872
   50DOPE  H18T 6403   1.300   5.284   4.100 -1.0606 -0.9153 -0.2694
   50DOPE   C33 6404   0.217   4.847   3.102 -0.2414 -0.1921  0.1120
   50DOPE   H3X 6405   0.111   4.879   3.093 -0.1063 -0.1968 -1.9544
   50DOPE   H3Y 6406   0.260   4.921   3.173 -0.9818  0.4812 -0.1147
   50DOPE   C34 6407   0.212   4.711   3.173  0.8847 -0.2221 -0.2973
   50DOPE   H4X 6408   0.310   4.680   3.214  0.1215 -0.2758  1.6050
   50DOPE   H4Y 6409   0.151   4.719   3.266 -3.4600  1.9304 -2.9885
   50DOPE   C35 6410   0.153   4.596   3.086  0.2316  0.3164  0.5732
   50DOPE   H5X 6411   0.158   4.503   3.146  0.7604  0.0203  0.0728
   50DOPE   H5Y 6412   0.219   4.573   3.000 -0.9737 -1.3435  0.0366
   50DOPE   C36 6413   0.006   4.616   3.053  0.0529  0.1938 -0.4535
   50DOPE   H6X 6414  -0.008   4.705   2.987  0.6229  0.1498 -0.6394
   50DOPE   H6Y 6415  -0.055   4.634   3.144 -0.7099 -0.0590 -0.9014
   50DOPE   C37 6416  -0.063   4.494   2.992  0.5429 -0.5111  0.3643
   50DOPE   H7X 6417  -0.044   4.497   2.882 -1.0331 -1.6308  0.0237
   50DOPE   H7Y 6418  -0.015   4.404   3.037  0.4749  0.2625  2.0722
   50DOPE   C38 6419  -0.215   4.495   3.022  0.6805 -0.6223  0.3132
   50DOPE   H8X 6420  -0.261   4.583   2.973  1.3628 -0.6997 -0.4954
   50DOPE   H8Y 6421  -0.226   4.527   3.128 -0.6356  2.1339 -0.5645
   50DOPE   C39 6422  -0.308   4.380   2.985 -0.6767 -0.2594  0.1917
   50DOPE   H9X 6423  -0.375   4.402   2.900  1.8699  0.6847 -1.7355
   50DOPE  C310 6424  -0.314   4.260   3.040 -0.1524 -0.1560 -0.2478
   50DOPE  H10X 6425  -0.384   4.184   3.004  0.0346  0.3002 -1.6396
   50DOPE  C311 6426  -0.229   4.217   3.151 -1.0970  0.2371 -0.4698
   50DOPE  H11X 6427  -0.169   4.130   3.118  0.1329  0.9352 -0.1614
   50DOPE  H11Y 6428  -0.159   4.295   3.188 -0.2066 -0.1025 -1.3996
   50DOPE  C312 6429  -0.316   4.176   3.266 -0.0381  0.0319  0.7892
   50DOPE  H12X 6430  -0.387   4.095   3.238  1.0909 -0.0504 -2.1676
   50DOPE  H12Y 6431  -0.378   4.266   3.285 -2.0342 -0.9392 -0.6912
   50DOPE  C313 6432  -0.240   4.145   3.391  0.0575  0.2268  0.0658
   50DOPE  H13X 6433  -0.184   4.049   3.393  0.0644  0.2347  0.2663
   50DOPE  H13Y 6434  -0.171   4.230   3.411  0.4994 -0.0868 -0.1167
   50DOPE  C314 6435  -0.341   4.154   3.511 -0.8511  0.3963  0.8090
   50DOPE  H14X 6436  -0.412   4.070   3.501  0.6264 -0.9628  1.4285
   50DOPE  H14Y 6437  -0.387   4.255   3.503 -0.1022  0.6412 -0.9819
   50DOPE  C315 6438  -0.277   4.151   3.649 -1.1926  0.8826  0.6054
   50DOPE  H15X 6439  -0.187   4.216   3.653  0.3545 -1.0359 -0.7913
   50DOPE  H15Y 6440  -0.236   4.049   3.661  1.4872  1.4229 -2.5229
   50DOPE  C316 6441  -0.376   4.185   3.759 -0.4012  0.0192 -1.4701
   50DOPE  H16X 6442  -0.338   4.134   3.850 -0.2105 -0.1321 -1.6320
   50DOPE  H16Y 6443  -0.477   4.146   3.732 -0.4503 -1.4557  0.5725
   50DOPE  C317 6444  -0.370   4.336   3.787 -0.2471 -0.3131  0.1259
   50DOPE  H17X 6445  -0.272   4.351   3.836 -0.5766 -0.1535  0.7414
   50DOPE  H17Y 6446  -0.378   4.393   3.691 -0.7070 -0.1022  0.2846
   50DOPE  C318 6447  -0.475   4.397   3.881 -0.1992 -0.4219  0.0988
   50DOPE  H18X 6448  -0.569   4.415   3.825  1.2855  0.6754 -2.1734
   50DOPE  H18Y 6449  -0.510   4.332   3.964  0.3721 -1.4779 -0.4565
   50DOPE  H18Z 6450  -0.442   4.499   3.909  3.3768 -1.3513 -0.2096
   51DOPE     N 6451   3.471   6.789   2.538 -0.2217 -0.1550 -0.0895
   51DOPE   HN1 6452   3.549   6.823   2.479 -0.9108  1.7242  0.0152
   51DOPE   HN2 6453   3.492   6.689   2.560 -0.8448 -0.7320 -1.9149
   51DOPE   HN3 6454   3.383   6.778   2.484  0.2893 -2.6780 -0.5339
   51DOPE   C12 6455   3.471   6.875   2.663  1.1007  0.0281 -0.6021
   51DOPE  H12A 6456   3.368   6.867   2.704  1.5724 -2.4717  0.2478
   51DOPE  H12B 6457   3.473   6.980   2.625 -0.7383  0.6319  0.8156
   51DOPE   C11 6458   3.592   6.864   2.757  0.5092 -0.7506  0.0292
   51DOPE  H11A 6459   3.585   6.766   2.807  1.0568  0.2424  2.1595
   51DOPE  H11B 6460   3.581   6.946   2.831 -0.7532 -0.0838 -0.8495
   51DOPE     P 6461   3.844   6.826   2.731  0.0059 -0.0311  0.5778
   51DOPE   O13 6462   3.941   6.890   2.640 -0.0654  0.1115 -0.6401
   51DOPE   O14 6463   3.837   6.675   2.739 -0.1799 -0.2734  0.1198
   51DOPE   O11 6464   3.853   6.884   2.881  0.5176  0.4619  0.1482
   51DOPE   O12 6465   3.710   6.887   2.678 -0.2110 -0.4122 -0.6072
   51DOPE    C1 6466   3.905   7.015   2.897 -0.3844 -0.3574  0.2731
   51DOPE    HA 6467   3.863   7.083   2.820 -2.4264 -0.9119  0.8376
   51DOPE    HB 6468   4.015   7.003   2.885 -0.5310 -4.2445  1.4715
   51DOPE    C2 6469   3.882   7.073   3.042 -0.1618 -0.5313  0.0813
   51DOPE    HS 6470   3.921   7.177   3.053 -3.0087  0.7513 -0.8974
   51DOPE   O21 6471   3.946   6.988   3.142 -0.0427  0.6665 -0.5081
   51DOPE   C21 6472   4.042   7.031   3.207 -0.3971  0.5314  0.2481
   51DOPE   O22 6473   4.104   7.138   3.188 -0.4722 -0.2070 -0.0975
   51DOPE   C22 6474   4.075   6.926   3.315  0.0425  0.1231 -0.0185
   51DOPE   H2R 6475   4.044   6.823   3.286 -2.1222  1.0130 -1.1342
   51DOPE   H2S 6476   4.013   6.966   3.399  0.9331  1.3420  0.0860
   51DOPE    C3 6477   3.735   7.094   3.083 -1.0330 -0.0480  0.7701
   51DOPE    HX 6478   3.688   6.994   3.096 -1.2496  0.0683  0.8730
   51DOPE    HY 6479   3.679   7.142   3.000 -1.4160  1.1430  1.6967
   51DOPE   O31 6480   3.720   7.166   3.207 -0.1642 -0.0329  0.6633
   51DOPE   C31 6481   3.594   7.167   3.255  0.1531 -0.2824 -0.2117
   51DOPE   O32 6482   3.498   7.111   3.211  0.5306  0.4512 -0.0515
   51DOPE   C32 6483   3.596   7.253   3.380 -0.8541  0.6395  0.2099
   51DOPE   H2X 6484   3.697   7.234   3.423  0.1922 -1.5521 -2.9251
   51DOPE   H2Y 6485   3.586   7.357   3.343  0.4399  0.4953 -0.6121
   51DOPE   C23 6486   4.224   6.924   3.351  0.2080 -0.1377 -0.1209
   51DOPE   H3R 6487   4.268   7.026   3.348 -0.1929  0.0036 -1.8619
   51DOPE   H3S 6488   4.286   6.869   3.277 -0.3304 -0.3178 -0.4435
   51DOPE   C24 6489   4.249   6.863   3.499 -0.6629 -0.1331  0.7805
   51DOPE   H4R 6490   4.344   6.903   3.540 -0.7770  1.2164 -0.2116
   51DOPE   H4S 6491   4.246   6.752   3.487 -0.6763  0.0125 -0.7511
   51DOPE   C25 6492   4.145   6.910   3.608  0.4401 -0.0244  0.3953
   51DOPE   H5R 6493   4.051   6.851   3.595 -0.2527  0.2382  3.5434
   51DOPE   H5S 6494   4.132   7.017   3.583 -0.4123 -0.4968 -1.3784
   51DOPE   C26 6495   4.213   6.886   3.741 -0.1157 -0.5597 -0.8898
   51DOPE   H6R 6496   4.318   6.924   3.739  0.1349 -1.1337  0.2863
   51DOPE   H6S 6497   4.228   6.778   3.763  1.5017 -0.2503 -0.3104
   51DOPE   C27 6498   4.135   6.946   3.855 -0.0949  0.1998  0.1348
   51DOPE   H7R 6499   4.033   6.939   3.810 -0.2515 -2.1852  0.7407
   51DOPE   H7S 6500   4.155   7.054   3.868 -0.6769  0.3080  0.1966
   51DOPE   C28 6501   4.128   6.855   3.983 -0.4078 -0.5714  0.7525
   51DOPE   H8R 6502   4.112   6.753   3.941  0.7076  0.1323 -1.5402
   51DOPE   H8S 6503   4.044   6.891   4.046 -0.9185  0.7466 -0.6406
   51DOPE   C29 6504   4.262   6.860   4.050 -0.0496  0.2147 -0.2096
   51DOPE   H9R 6505   4.347   6.852   3.981 -0.9083  1.6834 -1.5074
   51DOPE  C210 6506   4.281   6.862   4.185  0.4108  0.4255 -0.6684
   51DOPE  H10R 6507   4.378   6.826   4.223 -1.2919 -2.1267  1.6467
   51DOPE  C211 6508   4.173   6.857   4.285  0.0005 -0.0459 -1.1463
   51DOPE  H11R 6509   4.129   6.756   4.294 -2.3680  0.8754 -1.7163
   51DOPE  H11S 6510   4.093   6.927   4.251 -0.6717  0.9401  2.1072
   51DOPE  C212 6511   4.215   6.923   4.417 -0.1147 -0.2363 -0.7649
   51DOPE  H12R 6512   4.129   6.925   4.487  0.8468 -0.1470  0.4456
   51DOPE  H12S 6513   4.224   7.034   4.415 -0.9653 -0.0945  1.2012
   51DOPE  C213 6514   4.314   6.850   4.502 -0.4482 -0.0113  0.4541
   51DOPE  H13R 6515   4.319   6.879   4.609 -1.3178 -0.2954  0.5784
   51DOPE  H13S 6516   4.416   6.876   4.465  0.3406 -2.1867  0.9129
   51DOPE  C214 6517   4.300   6.695   4.499  0.4917 -0.3847 -0.5210
   51DOPE  H14R 6518   4.335   6.658   4.400 -1.9257 -2.7032 -0.6408
   51DOPE  H14S 6519   4.196   6.658   4.515  0.9772 -0.9804  1.6130
   51DOPE  C215 6520   4.380   6.629   4.609 -0.4453 -0.2469  0.4781
   51DOPE  H15R 6521   4.361   6.521   4.592  2.1394 -0.6874  0.0005
   51DOPE  H15S 6522   4.333   6.661   4.704  1.2850  0.6230  1.0812
   51DOPE  C216 6523   4.536   6.647   4.596 -0.1322  0.3595  0.0675
   51DOPE  H16R 6524   4.557   6.755   4.605 -0.4380  0.5771 -1.5764
   51DOPE  H16S 6525   4.578   6.598   4.505 -2.9997 -1.1472 -0.5936
   51DOPE  C217 6526   4.610   6.579   4.712 -0.3269  0.0085 -0.4209
   51DOPE  H17R 6527   4.597   6.469   4.703 -0.0513 -0.1291  0.6728
   51DOPE  H17S 6528   4.564   6.616   4.807  2.9925  2.3745  0.4574
   51DOPE  C218 6529   4.753   6.619   4.712 -0.2969 -0.1979 -0.0350
   51DOPE  H18R 6530   4.815   6.572   4.791 -0.6802 -0.0074  0.3892
   51DOPE  H18S 6531   4.749   6.730   4.718 -1.9248 -0.2911  1.4976
   51DOPE  H18T 6532   4.781   6.583   4.611 -3.5613  0.3943 -1.2845
   51DOPE   C33 6533   3.490   7.218   3.483 -0.2639 -0.0542  0.3143
   51DOPE   H3X 6534   3.480   7.107   3.478  1.3012 -0.1938 -0.0960
   51DOPE   H3Y 6535   3.390   7.262   3.460 -2.3408 -2.4140  3.8084
   51DOPE   C34 6536   3.524   7.262   3.625  0.0919  0.0040 -0.0227
   51DOPE   H4X 6537   3.626   7.228   3.651  0.3975 -1.1544 -2.4383
   51DOPE   H4Y 6538   3.527   7.372   3.633  0.3717 -0.0530  0.7703
   51DOPE   C35 6539   3.426   7.226   3.731 -0.5847  0.6776 -0.5708
   51DOPE   H5X 6540   3.393   7.120   3.729 -3.3748  1.4575 -2.1058
   51DOPE   H5Y 6541   3.332   7.280   3.705  0.7418  2.0079 -2.9416
   51DOPE   C36 6542   3.471   7.272   3.865 -0.2543  0.1837  0.6903
   51DOPE   H6X 6543   3.496   7.380   3.854  0.6614  0.4004  3.8475
   51DOPE   H6Y 6544   3.563   7.222   3.902 -0.8004 -1.7613 -0.4555
   51DOPE   C37 6545   3.359   7.255   3.964 -0.2623  0.0429 -0.2737
   51DOPE   H7X 6546   3.266   7.293   3.914  0.6834  0.6859 -1.6057
   51DOPE   H7Y 6547   3.337   7.152   3.997  0.0995  0.1456  0.2899
   51DOPE   C38 6548   3.372   7.343   4.088 -0.7237  0.4895 -0.2046
   51DOPE   H8X 6549   3.276   7.334   4.143 -1.8434 -0.9214 -2.2694
   51DOPE   H8Y 6550   3.379   7.451   4.063  0.4887  0.9674  1.9503
   51DOPE   C39 6551   3.486   7.312   4.174 -0.4673  0.1489 -0.3094
   51DOPE   H9X 6552   3.580   7.309   4.118 -0.2087  0.7550  0.0832
   51DOPE  C310 6553   3.495   7.295   4.307  0.2612 -0.3426  0.9354
   51DOPE  H10X 6554   3.592   7.254   4.339  1.4006 -0.1234 -1.8798
   51DOPE  C311 6555   3.379   7.299   4.402  0.4324 -0.9604 -0.4371
   51DOPE  H11X 6556   3.300   7.369   4.368  0.0959 -0.9572  0.3382
   51DOPE  H11Y 6557   3.331   7.201   4.422 -0.3534 -0.7515 -1.2703
   51DOPE  C312 6558   3.421   7.359   4.543  0.0475 -0.3102  0.6517
   51DOPE  H12X 6559   3.468   7.459   4.531  1.3728 -1.0909 -1.1277
   51DOPE  H12Y 6560   3.496   7.297   4.596  2.0818 -0.0617 -1.7418
   51DOPE  C313 6561   3.303   7.376   4.635 -0.0522 -0.5471 -0.9343
   51DOPE  H13X 6562   3.217   7.316   4.599  0.9180 -2.0553 -0.8410
   51DOPE  H13Y 6563   3.326   7.344   4.739  2.5020 -2.0542 -1.8530
   51DOPE  C314 6564   3.254   7.522   4.650 -0.3131  0.7278 -0.2296
   51DOPE  H14X 6565   3.216   7.545   4.548  2.1494  0.3350 -1.3043
   51DOPE  H14Y 6566   3.345   7.584   4.669 -0.2998  0.3585  0.9686
   51DOPE  C315 6567   3.157   7.552   4.762 -0.8517 -0.0036  0.4238
   51DOPE  H15X 6568   3.205   7.527   4.859 -0.7884 -3.3867 -0.3626
   51DOPE  H15Y 6569   3.069   7.486   4.753 -0.6563 -0.5222  1.9424
   51DOPE  C316 6570   3.095   7.688   4.762  0.0638 -0.3067 -0.4134
   51DOPE  H16X 6571   3.041   7.696   4.665 -0.0553  0.5244 -0.2872
   51DOPE  H16Y 6572   3.175   7.765   4.766 -0.1559 -0.1308  2.4103
   51DOPE  C317 6573   3.004   7.723   4.882  0.4288 -0.1879 -0.3641
   51DOPE  H17X 6574   2.909   7.665   4.881 -0.2136  0.8121  0.6548
   51DOPE  H17Y 6575   3.057   7.689   4.974  0.8463  0.6907 -0.2680
   51DOPE  C318 6576   2.963   7.871   4.903 -0.2913  0.5999 -0.8045
   51DOPE  H18X 6577   3.043   7.943   4.875  0.5191  0.9920  2.1737
   51DOPE  H18Y 6578   2.868   7.890   4.848 -1.3398  0.4543  0.8564
   51DOPE  H18Z 6579   2.936   7.891   5.009 -3.7861 -3.2698 -0.7289
   52DOPE     N 6580   6.952   4.979   1.869  0.5872 -0.1932  0.3046
   52DOPE   HN1 6581   6.945   4.909   1.793 -2.0552 -0.3876  0.6342
   52DOPE   HN2 6582   7.047   4.985   1.913  0.4398 -0.3955  0.6532
   52DOPE   HN3 6583   6.886   4.949   1.944 -1.0487  1.0422 -0.5980
   52DOPE   C12 6584   6.916   5.115   1.830  0.4815 -0.1741 -0.4052
   52DOPE  H12A 6585   6.944   5.131   1.723  0.2812 -1.8923 -0.7370
   52DOPE  H12B 6586   6.965   5.188   1.897 -1.6350  0.1022  0.9242
   52DOPE   C11 6587   6.769   5.133   1.834 -0.0983 -0.0734  0.2307
   52DOPE  H11A 6588   6.729   5.087   1.742  2.7799  1.8079 -2.1478
   52DOPE  H11B 6589   6.743   5.240   1.819 -1.1500 -0.6264 -2.3505
   52DOPE     P 6590   6.573   5.012   1.954 -0.0936 -0.5622 -0.1101
   52DOPE   O13 6591   6.563   4.895   1.862  0.6327 -0.0963 -0.0106
   52DOPE   O14 6592   6.478   5.120   1.928  0.1752 -0.2854 -0.2625
   52DOPE   O11 6593   6.552   4.962   2.107 -0.2624 -0.3926  0.3950
   52DOPE   O12 6594   6.717   5.076   1.957  0.0774  0.0603  0.2357
   52DOPE    C1 6595   6.662   4.960   2.198  0.1846 -0.0386 -0.5676
   52DOPE    HA 6596   6.763   4.979   2.156  0.6381  1.4756  1.0693
   52DOPE    HB 6597   6.672   4.862   2.249  1.9555  1.0809  1.4065
   52DOPE    C2 6598   6.634   5.066   2.312  0.1297  0.6319  0.0342
   52DOPE    HS 6599   6.726   5.068   2.375 -0.6228  1.4347  1.1597
   52DOPE   O21 6600   6.522   5.021   2.384  0.2044  0.1042 -0.1042
   52DOPE   C21 6601   6.542   4.922   2.463 -0.2079  0.4053 -0.4124
   52DOPE   O22 6602   6.650   4.878   2.499  0.5016 -0.3049  0.1300
   52DOPE   C22 6603   6.411   4.876   2.516  0.1539  0.6298  0.3768
   52DOPE   H2R 6604   6.356   4.849   2.423  0.2210 -0.5949  0.6820
   52DOPE   H2S 6605   6.354   4.963   2.556 -0.9721 -0.3291  0.9224
   52DOPE    C3 6606   6.597   5.206   2.261  0.0495 -1.0637  0.9989
   52DOPE    HX 6607   6.495   5.189   2.221 -0.1824 -1.9157  1.9242
   52DOPE    HY 6608   6.668   5.230   2.178 -0.3478  0.9182  1.1824
   52DOPE   O31 6609   6.606   5.306   2.363  0.0237  0.0042  0.2800
   52DOPE   C31 6610   6.491   5.349   2.416  0.0887 -0.2854 -0.3083
   52DOPE   O32 6611   6.381   5.311   2.378  0.6106  0.6508  0.0872
   52DOPE   C32 6612   6.522   5.442   2.530  0.8633 -0.2204  0.4350
   52DOPE   H2X 6613   6.632   5.452   2.543  0.8035  0.7017  0.3434
   52DOPE   H2Y 6614   6.492   5.548   2.513  1.2696 -0.1381  0.2184
   52DOPE   C23 6615   6.412   4.745   2.604  0.1486 -0.4794  0.4039
   52DOPE   H3R 6616   6.342   4.763   2.689  0.9377  3.3087  0.4024
   52DOPE   H3S 6617   6.515   4.738   2.645  2.0347  5.6435 -2.1587
   52DOPE   C24 6618   6.382   4.615   2.533 -0.0716  0.3469  0.4161
   52DOPE   H4R 6619   6.461   4.615   2.454 -1.1699  0.8969 -0.7098
   52DOPE   H4S 6620   6.286   4.632   2.480  0.4506  1.7594 -0.1376
   52DOPE   C25 6621   6.365   4.485   2.622  0.0740 -0.3735  0.2973
   52DOPE   H5R 6622   6.451   4.453   2.685 -1.0220  0.8921  2.5443
   52DOPE   H5S 6623   6.341   4.398   2.558  1.6378 -0.6243  0.0157
   52DOPE   C26 6624   6.261   4.501   2.733 -0.0238 -0.2744  0.4321
   52DOPE   H6R 6625   6.172   4.545   2.683  0.0794 -0.2091  0.3060
   52DOPE   H6S 6626   6.297   4.565   2.817 -2.5246  1.0909  0.5662
   52DOPE   C27 6627   6.207   4.370   2.793 -0.0423 -0.6387 -0.1421
   52DOPE   H7R 6628   6.189   4.295   2.713 -2.9904 -1.5937  1.2842
   52DOPE   H7S 6629   6.110   4.385   2.844 -0.9819  1.3143 -2.2992
   52DOPE   C28 6630   6.309   4.302   2.894  0.6819  0.3597 -0.6943
   52DOPE   H8R 6631   6.411   4.301   2.849  0.8325  0.1134 -0.3491
   52DOPE   H8S 6632   6.281   4.196   2.907  0.6797  0.6582  2.8266
   52DOPE   C29 6633   6.304   4.375   3.028 -0.6681  0.6697  0.7353
   52DOPE   H9R 6634   6.335   4.480   3.019  0.1565  0.3476 -0.4647
   52DOPE  C210 6635   6.274   4.313   3.144 -0.4228 -0.9904  0.1007
   52DOPE  H10R 6636   6.299   4.365   3.237  0.1007 -1.7092  0.3688
   52DOPE  C211 6637   6.222   4.171   3.157 -0.4616  0.9999  0.3566
   52DOPE  H11R 6638   6.304   4.097   3.156 -2.0129 -0.8278 -2.1553
   52DOPE  H11S 6639   6.169   4.149   3.062  3.2166 -0.6296 -1.4969
   52DOPE  C212 6640   6.122   4.166   3.276  0.3424  0.0276  0.4894
   52DOPE  H12R 6641   6.173   4.194   3.371  1.2881 -0.4365  0.1293
   52DOPE  H12S 6642   6.084   4.061   3.277  0.1353  0.0866 -0.4631
   52DOPE  C213 6643   6.000   4.258   3.247 -0.2819 -0.7746 -0.4377
   52DOPE  H13R 6644   5.964   4.242   3.143  1.0169 -2.9053 -0.6153
   52DOPE  H13S 6645   6.034   4.359   3.277 -1.6401 -0.6653  0.8487
   52DOPE  C214 6646   5.878   4.221   3.335 -0.0227 -0.0340  0.0401
   52DOPE  H14R 6647   5.826   4.312   3.374  1.6639  1.1739 -0.3868
   52DOPE  H14S 6648   5.916   4.172   3.427 -1.0323 -0.8546  0.0319
   52DOPE  C215 6649   5.776   4.121   3.283  0.1674  0.4197  0.6071
   52DOPE  H15R 6650   5.726   4.066   3.365 -1.1636  1.5394  0.5831
   52DOPE  H15S 6651   5.822   4.041   3.221  1.3409  2.1522 -0.8932
   52DOPE  C216 6652   5.669   4.206   3.203 -0.0926 -0.8801  0.3068
   52DOPE  H16R 6653   5.711   4.289   3.143 -0.8428 -1.0286 -0.4607
   52DOPE  H16S 6654   5.603   4.255   3.277 -0.7542 -1.4813  0.1342
   52DOPE  C217 6655   5.580   4.121   3.105 -0.7419 -0.3765 -0.4755
   52DOPE  H17R 6656   5.561   4.030   3.167  0.6475 -0.2755  0.1336
   52DOPE  H17S 6657   5.653   4.099   3.025  0.1653  2.9138 -0.6849
   52DOPE  C218 6658   5.451   4.186   3.045 -0.5938 -0.1727  0.5154
   52DOPE  H18R 6659   5.386   4.210   3.132 -1.9055 -0.7671 -0.2841
   52DOPE  H18S 6660   5.471   4.272   2.978 -2.2052  1.5963  2.1636
   52DOPE  H18T 6661   5.397   4.104   2.993  0.7753 -0.2804 -0.8089
   52DOPE   C33 6662   6.456   5.384   2.662  0.1789 -0.5631  0.2105
   52DOPE   H3X 6663   6.346   5.368   2.656  0.1872 -0.2408 -1.0390
   52DOPE   H3Y 6664   6.481   5.451   2.747  2.3238 -2.3288  1.0678
   52DOPE   C34 6665   6.514   5.247   2.685 -0.1537 -0.0238  0.1242
   52DOPE   H4X 6666   6.480   5.168   2.614 -0.6350 -0.3485  0.7110
   52DOPE   H4Y 6667   6.623   5.265   2.682 -0.3084  0.8298 -1.7785
   52DOPE   C35 6668   6.456   5.200   2.820 -0.8041  0.2461 -0.6029
   52DOPE   H5X 6669   6.346   5.207   2.807 -0.8631  1.2631  0.2944
   52DOPE   H5Y 6670   6.492   5.266   2.902  0.3973  0.9473 -1.6578
   52DOPE   C36 6671   6.496   5.056   2.859 -0.2422 -0.1137  0.5574
   52DOPE   H6X 6672   6.603   5.053   2.892 -0.0268  2.6434  0.3340
   52DOPE   H6Y 6673   6.481   4.993   2.768 -1.8428  0.8775  0.1063
   52DOPE   C37 6674   6.400   5.008   2.972  0.1078  0.5663 -0.1512
   52DOPE   H7X 6675   6.378   5.092   3.041  2.0786  1.3113 -0.3621
   52DOPE   H7Y 6676   6.305   4.966   2.931 -0.7938  1.5863  0.8174
   52DOPE   C38 6677   6.466   4.905   3.064  0.6431  0.2485 -0.6148
   52DOPE   H8X 6678   6.399   4.871   3.147  0.6315  1.0094 -0.3099
   52DOPE   H8Y 6679   6.545   4.971   3.106  1.2689  0.1132 -1.5533
   52DOPE   C39 6680   6.529   4.794   2.989  0.2707 -0.3242 -0.3215
   52DOPE   H9X 6681   6.464   4.708   2.970 -0.2365  0.0026 -0.0939
   52DOPE  C310 6682   6.666   4.779   2.977  0.4360 -0.2666  0.4684
   52DOPE  H10X 6683   6.710   4.698   2.917  1.7685  1.0062 -0.3771
   52DOPE  C311 6684   6.784   4.866   3.027 -0.5428  0.2972  0.1634
   52DOPE  H11X 6685   6.826   4.929   2.947 -0.1108 -1.6190 -1.1881
   52DOPE  H11Y 6686   6.747   4.929   3.111 -2.3955 -0.0504 -0.3497
   52DOPE  C312 6687   6.899   4.787   3.097  0.1729 -0.3494  0.4137
   52DOPE  H12X 6688   6.989   4.849   3.116  0.4331 -0.7676  0.5673
   52DOPE  H12Y 6689   6.926   4.701   3.031 -1.3541 -0.6915  0.1832
   52DOPE  C313 6690   6.848   4.734   3.231  0.3403  0.6587  0.0782
   52DOPE  H13X 6691   6.814   4.814   3.301 -2.1205 -0.8713  0.7781
   52DOPE  H13Y 6692   6.750   4.682   3.218  0.4222 -0.5595  3.4212
   52DOPE  C314 6693   6.939   4.629   3.300 -1.1095  0.3446 -0.1075
   52DOPE  H14X 6694   6.964   4.536   3.245  1.1607  0.1396  1.1704
   52DOPE  H14Y 6695   6.903   4.600   3.401  1.6441  1.3743  1.2549
   52DOPE  C315 6696   7.077   4.687   3.343 -0.4138 -0.3860 -0.5409
   52DOPE  H15X 6697   7.047   4.776   3.402 -0.4970 -0.1293 -0.9663
   52DOPE  H15Y 6698   7.133   4.724   3.255 -1.5229  0.5128 -0.8958
   52DOPE  C316 6699   7.161   4.598   3.430  0.3096 -0.5924 -0.3071
   52DOPE  H16X 6700   7.176   4.506   3.370  0.2759 -0.5901 -0.3185
   52DOPE  H16Y 6701   7.113   4.580   3.529  0.1538  0.5747 -0.1560
   52DOPE  C317 6702   7.298   4.658   3.474  0.2124  0.2820 -0.1141
   52DOPE  H17X 6703   7.367   4.665   3.387  0.0276 -0.0796 -0.2932
   52DOPE  H17Y 6704   7.280   4.758   3.517 -0.9943 -0.0135  0.0948
   52DOPE  C318 6705   7.362   4.576   3.586 -0.2249  0.2603 -0.0670
   52DOPE  H18X 6706   7.367   4.467   3.564  1.0310 -0.6758  4.1116
   52DOPE  H18Y 6707   7.467   4.609   3.602  0.0717  2.0965 -4.2913
   52DOPE  H18Z 6708   7.294   4.574   3.674 -0.6001 -2.2840 -0.3268
   53DOPE     N 6709   6.595   7.325   1.877 -0.2395 -0.3661  0.6311
   53DOPE   HN1 6710   6.502   7.349   1.916 -0.0143 -0.0332  0.9796
   53DOPE   HN2 6711   6.668   7.381   1.927 -2.2977  1.4143  1.8170
   53DOPE   HN3 6712   6.586   7.344   1.775  0.3815 -1.4734  0.3538
   53DOPE   C12 6713   6.598   7.182   1.896  0.0591 -1.0657  0.0319
   53DOPE  H12A 6714   6.700   7.145   1.872  0.8457  1.8367 -1.6416
   53DOPE  H12B 6715   6.533   7.143   1.815  1.0677  0.2642 -1.5019
   53DOPE   C11 6716   6.545   7.162   2.043 -0.1942 -0.2133 -0.6167
   53DOPE  H11A 6717   6.624   7.199   2.111 -1.0219 -2.6655  1.8390
   53DOPE  H11B 6718   6.545   7.053   2.061  0.4658 -0.1018  0.0799
   53DOPE     P 6719   6.305   7.142   2.137  0.0932 -0.3942  0.2751
   53DOPE   O13 6720   6.275   7.029   2.044  0.6980  0.2833 -0.7533
   53DOPE   O14 6721   6.195   7.237   2.160  0.0113 -0.0763  0.1041
   53DOPE   O11 6722   6.375   7.095   2.270 -0.2851 -0.3614 -0.0536
   53DOPE   O12 6723   6.424   7.230   2.074  0.6159 -0.0418 -0.5052
   53DOPE    C1 6724   6.434   7.186   2.356  0.0547  0.4783 -0.3264
   53DOPE    HA 6725   6.364   7.267   2.386  0.1579  0.4619 -0.0337
   53DOPE    HB 6726   6.525   7.238   2.320  1.6880  0.5353  3.4206
   53DOPE    C2 6727   6.481   7.107   2.483  0.0619  0.4862 -0.4938
   53DOPE    HS 6728   6.564   7.038   2.457 -0.1406 -0.2277  0.6796
   53DOPE   O21 6729   6.367   7.040   2.538 -0.2244  0.5171 -0.7013
   53DOPE   C21 6730   6.351   6.915   2.514 -0.1978 -0.0422 -0.4022
   53DOPE   O22 6731   6.428   6.841   2.455 -0.4968 -0.2665 -0.3034
   53DOPE   C22 6732   6.229   6.867   2.581 -0.7335 -0.1983 -0.6665
   53DOPE   H2R 6733   6.205   6.771   2.532 -1.6550 -2.0015  2.9663
   53DOPE   H2S 6734   6.151   6.946   2.576  0.8940  1.5309  0.0306
   53DOPE    C3 6735   6.541   7.202   2.592  0.1015 -0.4290 -0.6171
   53DOPE    HX 6736   6.461   7.278   2.610 -0.0993 -0.2008 -2.2907
   53DOPE    HY 6737   6.628   7.254   2.547  0.8639 -1.3062 -0.1890
   53DOPE   O31 6738   6.562   7.126   2.713  0.5891 -0.0790 -0.0236
   53DOPE   C31 6739   6.688   7.081   2.725  0.5096  0.0550 -0.6598
   53DOPE   O32 6740   6.766   7.078   2.634 -0.6042 -0.0686 -0.4237
   53DOPE   C32 6741   6.723   7.026   2.861 -0.2490 -0.1622 -0.3326
   53DOPE   H2X 6742   6.834   7.029   2.873 -0.1447  0.2214 -1.2866
   53DOPE   H2Y 6743   6.679   7.090   2.940 -1.3205 -1.0984 -0.1486
   53DOPE   C23 6744   6.256   6.841   2.734 -0.7340 -0.2814  0.0426
   53DOPE   H3R 6745   6.293   6.934   2.782  2.8806  0.1029 -2.9642
   53DOPE   H3S 6746   6.330   6.759   2.732  1.2774  1.4663 -1.0996
   53DOPE   C24 6747   6.137   6.795   2.798 -0.3826 -0.2841 -0.6777
   53DOPE   H4R 6748   6.094   6.712   2.739  1.6661 -2.0881  0.2376
   53DOPE   H4S 6749   6.058   6.873   2.801  0.1412  0.2361  1.8314
   53DOPE   C25 6750   6.148   6.734   2.940 -0.6088 -0.0212  0.3001
   53DOPE   H5R 6751   6.048   6.715   2.984 -1.5098 -0.0962 -1.6944
   53DOPE   H5S 6752   6.208   6.799   3.008  0.3381 -1.8704  1.2953
   53DOPE   C26 6753   6.226   6.600   2.938  0.0319  0.3849  0.7215
   53DOPE   H6R 6754   6.335   6.611   2.957  0.3733 -0.1916 -0.7920
   53DOPE   H6S 6755   6.210   6.561   2.835  0.1688  0.9917  0.4701
   53DOPE   C27 6756   6.174   6.502   3.040  0.0290  0.0559 -0.2569
   53DOPE   H7R 6757   6.063   6.496   3.028 -0.1612 -0.1267  1.3756
   53DOPE   H7S 6758   6.198   6.550   3.137 -0.0875  0.4032 -0.3960
   53DOPE   C28 6759   6.245   6.362   3.039  0.2672 -0.5056  0.7796
   53DOPE   H8R 6760   6.210   6.306   3.128 -2.6705 -0.6851 -0.3795
   53DOPE   H8S 6761   6.355   6.365   3.052 -0.0264  0.7044  3.8004
   53DOPE   C29 6762   6.202   6.290   2.912  0.4186 -0.8056  0.5711
   53DOPE   H9R 6763   6.257   6.320   2.822 -3.9253 -1.7949 -2.7413
   53DOPE  C210 6764   6.101   6.198   2.912 -0.2036 -0.3032 -0.7586
   53DOPE  H10R 6765   6.067   6.149   2.820  0.8156 -2.1709 -0.2021
   53DOPE  C211 6766   6.010   6.168   3.022 -0.4110 -0.5630  0.8370
   53DOPE  H11R 6767   5.911   6.139   2.983 -0.2471  0.8912 -0.7272
   53DOPE  H11S 6768   6.004   6.253   3.093  0.4529 -0.5096  0.8572
   53DOPE  C212 6769   6.069   6.053   3.099 -0.3007  0.4664 -0.1051
   53DOPE  H12R 6770   6.168   6.071   3.148 -1.2495  1.0842  1.6972
   53DOPE  H12S 6771   6.073   5.959   3.040 -0.7934  0.1584  0.3408
   53DOPE  C213 6772   5.979   6.011   3.216 -0.3485 -0.0848  0.3287
   53DOPE  H13R 6773   5.887   5.959   3.182 -0.6378  1.0089 -0.5923
   53DOPE  H13S 6774   5.941   6.104   3.262 -0.5951 -0.1112  0.1784
   53DOPE  C214 6775   6.059   5.924   3.320 -0.0369 -0.5152  0.0672
   53DOPE  H14R 6776   6.144   5.981   3.363 -1.3295  0.1624  1.8585
   53DOPE  H14S 6777   6.101   5.836   3.267  0.7804 -0.0540 -0.0614
   53DOPE  C215 6778   5.959   5.859   3.418 -0.2564  0.3146 -0.0188
   53DOPE  H15R 6779   5.881   5.804   3.360  0.4325 -0.0938 -0.5848
   53DOPE  H15S 6780   5.917   5.945   3.473  0.2427  0.2179  0.5230
   53DOPE  C216 6781   6.012   5.764   3.532 -0.0410  0.5136 -0.7432
   53DOPE  H16R 6782   5.915   5.739   3.581 -0.2374 -2.6758 -2.4963
   53DOPE  H16S 6783   6.080   5.824   3.595 -0.6779  0.3917  0.0838
   53DOPE  C217 6784   6.083   5.638   3.483 -0.6069 -0.5337  0.3315
   53DOPE  H17R 6785   6.078   5.561   3.563 -0.6459 -2.1537 -1.1879
   53DOPE  H17S 6786   6.190   5.665   3.464 -0.2586 -1.2014  1.2517
   53DOPE  C218 6787   6.016   5.571   3.373  0.0155 -0.9195 -0.0408
   53DOPE  H18R 6788   6.030   5.633   3.281  1.5588 -0.3017  0.5721
   53DOPE  H18S 6789   5.906   5.563   3.384 -0.0217  0.1302  0.5371
   53DOPE  H18T 6790   6.059   5.470   3.356 -2.1981 -1.9466  0.1483
   53DOPE   C33 6791   6.660   6.888   2.876  0.0405 -0.0800  0.0641
   53DOPE   H3X 6792   6.681   6.825   2.786 -0.8549 -0.3206  0.0160
   53DOPE   H3Y 6793   6.552   6.913   2.870  0.4975  1.9659 -0.2892
   53DOPE   C34 6794   6.687   6.820   3.014  0.0766  0.6649 -0.0094
   53DOPE   H4X 6795   6.654   6.714   3.015  0.5506  0.5218  0.8318
   53DOPE   H4Y 6796   6.793   6.822   3.046 -0.0496  2.0942  0.3946
   53DOPE   C35 6797   6.619   6.895   3.131  0.2475  0.0117  0.2299
   53DOPE   H5X 6798   6.513   6.901   3.100  0.0756  2.4391  1.0706
   53DOPE   H5Y 6799   6.655   6.999   3.144  0.0281  0.2154 -0.7040
   53DOPE   C36 6800   6.633   6.826   3.265  0.6195  0.3429 -0.3652
   53DOPE   H6X 6801   6.741   6.803   3.273  0.0096 -2.7410  0.7484
   53DOPE   H6Y 6802   6.585   6.726   3.270  2.0004 -0.3467 -0.6059
   53DOPE   C37 6803   6.580   6.905   3.389  0.3107  0.4209 -0.0196
   53DOPE   H7X 6804   6.472   6.912   3.368  0.6568  2.3152 -1.3814
   53DOPE   H7Y 6805   6.591   6.839   3.478 -0.5242 -0.7253 -0.7440
   53DOPE   C38 6806   6.637   7.045   3.415 -0.1466  0.0654  0.2762
   53DOPE   H8X 6807   6.747   7.039   3.408 -0.2567 -1.6000 -0.3053
   53DOPE   H8Y 6808   6.623   7.061   3.524 -0.3040 -2.8089  0.7484
   53DOPE   C39 6809   6.584   7.165   3.341  0.6141  0.3844  0.2119
   53DOPE   H9X 6810   6.641   7.212   3.260  2.3243 -2.9290 -0.6807
   53DOPE  C310 6811   6.462   7.219   3.370 -0.2503 -0.2011 -0.4360
   53DOPE  H10X 6812   6.438   7.307   3.309  0.8271  0.4280  0.0328
   53DOPE  C311 6813   6.353   7.179   3.468 -0.5917 -0.8369 -0.4448
   53DOPE  H11X 6814   6.294   7.273   3.468  2.2458  1.0722 -0.4944
   53DOPE  H11Y 6815   6.283   7.096   3.442 -1.8813 -0.2621  1.0639
   53DOPE  C312 6816   6.393   7.152   3.621 -0.0020 -0.2540 -0.1638
   53DOPE  H12X 6817   6.460   7.230   3.663 -0.7287  0.4574 -0.2815
   53DOPE  H12Y 6818   6.443   7.053   3.627 -0.1119 -0.2646  0.7071
   53DOPE  C313 6819   6.272   7.153   3.709  0.2946  0.2910 -0.4879
   53DOPE  H13X 6820   6.212   7.246   3.696 -0.3651  0.1072  1.0520
   53DOPE  H13Y 6821   6.205   7.069   3.679  0.5479  0.2911 -1.0649
   53DOPE  C314 6822   6.309   7.137   3.859 -0.1228  0.8026 -0.0625
   53DOPE  H14X 6823   6.372   7.216   3.905 -0.8655  0.4104  1.7068
   53DOPE  H14Y 6824   6.371   7.045   3.856  0.4538  0.9643  3.0413
   53DOPE  C315 6825   6.188   7.089   3.949 -0.2157  0.4820 -0.0180
   53DOPE  H15X 6826   6.152   6.995   3.902 -0.7635 -0.1439  1.5909
   53DOPE  H15Y 6827   6.102   7.159   3.949 -0.3026  0.4134 -1.7659
   53DOPE  C316 6828   6.227   7.058   4.098 -0.2022 -0.1586 -0.4296
   53DOPE  H16X 6829   6.303   7.136   4.122 -0.8267  0.0088  1.1131
   53DOPE  H16Y 6830   6.281   6.962   4.108 -2.6581 -1.3742  3.2006
   53DOPE  C317 6831   6.106   7.065   4.200 -0.5120  0.2066  0.1012
   53DOPE  H17X 6832   6.147   7.052   4.303 -0.4892 -0.0505  0.0601
   53DOPE  H17Y 6833   6.040   7.153   4.183  1.8640  2.0107 -0.4139
   53DOPE  C318 6834   6.034   6.934   4.173 -0.0677  0.0110  0.5455
   53DOPE  H18X 6835   5.968   6.908   4.259  2.2028  2.5855  3.3114
   53DOPE  H18Y 6836   5.976   6.950   4.080  1.6792  2.7447 -0.1663
   53DOPE  H18Z 6837   6.108   6.852   4.161 -0.3944 -0.2663  0.4360
   54DOPE     N 6838   7.232   4.290   1.909  0.3752  0.2717 -0.2220
   54DOPE   HN1 6839   7.252   4.339   1.999 -2.4830  0.7090  0.2529
   54DOPE   HN2 6840   7.183   4.204   1.938 -0.6455  1.4313  1.7105
   54DOPE   HN3 6841   7.326   4.268   1.870  1.2278  0.1441  1.7738
   54DOPE   C12 6842   7.141   4.384   1.829  0.0619 -0.0099 -0.3554
   54DOPE  H12A 6843   7.079   4.328   1.755  0.4438 -1.3814  0.3164
   54DOPE  H12B 6844   7.203   4.459   1.776  4.3004 -1.6405  1.8084
   54DOPE   C11 6845   7.051   4.467   1.932 -0.4355 -0.4674  0.1754
   54DOPE  H11A 6846   7.003   4.539   1.861 -0.4252 -0.3620  0.2746
   54DOPE  H11B 6847   7.118   4.515   2.006  1.0339  0.3433 -1.6126
   54DOPE     P 6848   6.879   4.443   2.115  0.7587  0.0726  0.0667
   54DOPE   O13 6849   6.794   4.333   2.167  0.1588 -0.1999  0.1433
   54DOPE   O14 6850   6.810   4.573   2.083  0.6722 -0.9624  0.0224
   54DOPE   O11 6851   7.001   4.458   2.219 -0.5653 -0.4016  0.0823
   54DOPE   O12 6852   6.958   4.380   1.991 -0.1247  0.1576  0.2882
   54DOPE    C1 6853   7.023   4.563   2.312  0.1353 -0.3463  0.4353
   54DOPE    HA 6854   6.992   4.662   2.271  3.0526  0.8291  0.8284
   54DOPE    HB 6855   7.131   4.584   2.322 -0.2660  3.2980 -1.1949
   54DOPE    C2 6856   6.966   4.537   2.454  0.0884 -0.6832  0.2637
   54DOPE    HS 6857   7.020   4.607   2.520  0.2701 -0.0608 -0.5261
   54DOPE   O21 6858   6.988   4.402   2.497  0.4204  0.3725  0.1988
   54DOPE   C21 6859   7.112   4.381   2.542  0.0418  0.5657  0.1180
   54DOPE   O22 6860   7.199   4.467   2.542 -0.3008  0.6147 -0.5106
   54DOPE   C22 6861   7.134   4.240   2.606 -0.5490 -0.2263 -0.5381
   54DOPE   H2R 6862   7.203   4.249   2.693  0.3987  0.5071 -1.3531
   54DOPE   H2S 6863   7.189   4.182   2.530 -0.7856  1.0946 -1.7648
   54DOPE    C3 6864   6.814   4.567   2.469  0.1048  0.2943  0.4927
   54DOPE    HX 6865   6.764   4.528   2.377  1.2808  0.3005 -0.1764
   54DOPE    HY 6866   6.781   4.673   2.476 -0.4108  0.1983 -0.3612
   54DOPE   O31 6867   6.755   4.493   2.581 -0.7133 -0.3243  0.1774
   54DOPE   C31 6868   6.790   4.535   2.701  0.1103 -0.2724 -0.2767
   54DOPE   O32 6869   6.863   4.631   2.723 -0.2813 -0.1068 -0.2620
   54DOPE   C32 6870   6.722   4.444   2.805  0.9758 -0.1917  0.1300
   54DOPE   H2X 6871   6.625   4.488   2.837  1.1998 -0.0410  0.6079
   54DOPE   H2Y 6872   6.690   4.346   2.763 -2.0729  1.0326 -0.6604
   54DOPE   C23 6873   6.997   4.184   2.656 -0.5449 -0.0244  0.2757
   54DOPE   H3R 6874   6.931   4.168   2.569 -0.3631  0.2698  0.0853
   54DOPE   H3S 6875   6.956   4.255   2.731  0.0984 -1.0246  1.6458
   54DOPE   C24 6876   7.015   4.043   2.717 -0.0851  0.3495  0.7474
   54DOPE   H4R 6877   7.104   4.044   2.784 -1.4215 -1.4255  2.6934
   54DOPE   H4S 6878   7.036   3.981   2.627  0.2697 -1.1709  1.8394
   54DOPE   C25 6879   6.891   4.012   2.809 -0.0110  0.7019 -0.4905
   54DOPE   H5R 6880   6.807   4.011   2.736  0.3761  1.7274 -0.9646
   54DOPE   H5S 6881   6.881   4.097   2.879  1.2723 -0.5860  1.3313
   54DOPE   C26 6882   6.906   3.877   2.878 -0.2730  0.6235 -0.2952
   54DOPE   H6R 6883   6.999   3.878   2.938 -0.6768  1.2087  0.3371
   54DOPE   H6S 6884   6.933   3.805   2.797  0.6623 -1.5516  1.8433
   54DOPE   C27 6885   6.782   3.813   2.943 -0.5130 -0.3563 -0.2717
   54DOPE   H7R 6886   6.806   3.705   2.946  0.2244 -0.3100 -2.8037
   54DOPE   H7S 6887   6.699   3.837   2.873 -1.1994  0.1954  0.7025
   54DOPE   C28 6888   6.766   3.880   3.079 -0.1170 -0.1884 -0.5588
   54DOPE   H8R 6889   6.763   3.991   3.085 -0.0681 -0.2446  0.8141
   54DOPE   H8S 6890   6.848   3.845   3.146  0.2344 -3.1428 -2.3713
   54DOPE   C29 6891   6.634   3.841   3.141 -1.0078 -1.1436  0.1498
   54DOPE   H9R 6892   6.549   3.872   3.078 -1.6704  0.5688  1.7801
   54DOPE  C210 6893   6.615   3.776   3.260 -0.6298 -0.3539  0.8477
   54DOPE  H10R 6894   6.514   3.744   3.291 -1.3191  0.0114 -0.9383
   54DOPE  C211 6895   6.723   3.730   3.360  0.1804  0.1775  0.1060
   54DOPE  H11R 6896   6.713   3.808   3.438 -0.3711 -0.3988  0.6155
   54DOPE  H11S 6897   6.824   3.731   3.313 -0.9520  0.8786 -2.5072
   54DOPE  C212 6898   6.698   3.594   3.427  0.5563 -0.2271 -0.5296
   54DOPE  H12R 6899   6.612   3.600   3.497  1.5441  2.3400  0.5781
   54DOPE  H12S 6900   6.790   3.567   3.482  0.0479 -1.5272 -0.2820
   54DOPE  C213 6901   6.673   3.478   3.322 -0.0196  0.3669  0.0451
   54DOPE  H13R 6902   6.572   3.489   3.276 -0.1907  0.1966  0.3703
   54DOPE  H13S 6903   6.653   3.381   3.373 -0.6679  0.4158 -0.0984
   54DOPE  C214 6904   6.785   3.461   3.219  0.6463 -0.5406  0.1689
   54DOPE  H14R 6905   6.867   3.408   3.272  1.4935 -1.4054 -1.8956
   54DOPE  H14S 6906   6.820   3.555   3.172  1.1729 -0.8446 -0.0487
   54DOPE  C215 6907   6.746   3.351   3.107  0.5299 -0.0605  0.1677
   54DOPE  H15R 6908   6.656   3.388   3.053 -0.2740 -1.8774  0.1791
   54DOPE  H15S 6909   6.699   3.269   3.166  0.1154  1.5544  2.1990
   54DOPE  C216 6910   6.859   3.305   3.020 -0.0152  0.2586 -0.8411
   54DOPE  H16R 6911   6.950   3.269   3.073 -0.5306  1.1757  0.7368
   54DOPE  H16S 6912   6.902   3.397   2.975 -1.2511  0.5120 -1.5478
   54DOPE  C217 6913   6.820   3.215   2.897 -0.6068  0.6876 -0.4821
   54DOPE  H17R 6914   6.726   3.257   2.856 -1.9741 -0.7732  0.9813
   54DOPE  H17S 6915   6.791   3.114   2.935  2.0495  0.4088  1.0536
   54DOPE  C218 6916   6.925   3.196   2.782 -0.0614  0.0192 -0.3228
   54DOPE  H18R 6917   6.946   3.301   2.751 -1.5462  0.4123 -0.0508
   54DOPE  H18S 6918   6.875   3.151   2.694 -4.5813  4.1562 -0.2941
   54DOPE  H18T 6919   7.026   3.158   2.810  1.2343  2.2998 -1.5394
   54DOPE   C33 6920   6.798   4.421   2.937  0.0544  1.0125 -0.7031
   54DOPE   H3X 6921   6.847   4.511   2.981  1.4461  0.9873 -2.1342
   54DOPE   H3Y 6922   6.880   4.347   2.924 -1.5347 -1.6490  2.7668
   54DOPE   C34 6923   6.705   4.354   3.047  0.5712  0.3975 -0.1165
   54DOPE   H4X 6924   6.633   4.436   3.069  0.2141  0.1872 -0.4879
   54DOPE   H4Y 6925   6.645   4.280   2.990  2.2268  1.4920 -3.5082
   54DOPE   C35 6926   6.782   4.298   3.166 -0.5649  0.2999  0.2241
   54DOPE   H5X 6927   6.838   4.386   3.205  1.2446 -1.0267  0.7464
   54DOPE   H5Y 6928   6.844   4.215   3.127 -0.6265  0.1116  0.5203
   54DOPE   C36 6929   6.704   4.229   3.278  0.3429 -0.5249 -0.1066
   54DOPE   H6X 6930   6.775   4.207   3.361  1.6830  0.4751 -0.9442
   54DOPE   H6Y 6931   6.658   4.132   3.250 -1.3868  1.1054 -3.3969
   54DOPE   C37 6932   6.604   4.328   3.342  0.6603  0.3246 -0.7596
   54DOPE   H7X 6933   6.655   4.424   3.363 -0.0112  0.2760  1.2800
   54DOPE   H7Y 6934   6.535   4.352   3.258  0.0452  0.6493 -0.1763
   54DOPE   C38 6935   6.522   4.273   3.463  0.0572 -0.0647 -0.2286
   54DOPE   H8X 6936   6.449   4.350   3.495 -1.0091 -1.3616  0.5359
   54DOPE   H8Y 6937   6.595   4.261   3.546 -0.1957 -0.1277 -0.0180
   54DOPE   C39 6938   6.447   4.143   3.451  0.1756 -1.7747  0.0261
   54DOPE   H9X 6939   6.388   4.141   3.358 -0.7816  2.6776  0.3118
   54DOPE  C310 6940   6.426   4.047   3.540 -0.1159 -0.7838 -0.0043
   54DOPE  H10X 6941   6.385   3.952   3.504  0.1898 -1.4307  1.2737
   54DOPE  C311 6942   6.485   4.037   3.685 -0.0122 -0.1915  0.0739
   54DOPE  H11X 6943   6.547   4.115   3.734 -0.9863  0.1717  0.7623
   54DOPE  H11Y 6944   6.397   4.034   3.753  0.8331 -1.0753  1.1711
   54DOPE  C312 6945   6.560   3.903   3.690 -0.3933  0.2820 -0.1531
   54DOPE  H12X 6946   6.659   3.914   3.640 -0.6159  0.5686 -0.5345
   54DOPE  H12Y 6947   6.505   3.820   3.641  2.0191 -1.1740 -0.5554
   54DOPE  C313 6948   6.595   3.851   3.836  0.5456 -1.2240  0.1851
   54DOPE  H13X 6949   6.662   3.935   3.865 -0.7963 -0.0824  0.1105
   54DOPE  H13Y 6950   6.502   3.848   3.896  0.1517  0.4992 -0.2869
   54DOPE  C314 6951   6.675   3.723   3.822 -0.1984 -0.0807 -0.5564
   54DOPE  H14X 6952   6.783   3.735   3.797 -0.0838 -1.2715 -0.7046
   54DOPE  H14Y 6953   6.635   3.672   3.732 -0.5032 -0.7587 -0.0424
   54DOPE  C315 6954   6.666   3.620   3.941 -0.6587  0.0498 -0.8342
   54DOPE  H15X 6955   6.751   3.549   3.937 -0.1729  0.6623 -1.5645
   54DOPE  H15Y 6956   6.566   3.571   3.937  0.3701 -2.2988  0.1725
   54DOPE  C316 6957   6.696   3.691   4.077 -0.4367  0.3830 -0.3166
   54DOPE  H16X 6958   6.620   3.767   4.102  0.0568  0.1412  2.1803
   54DOPE  H16Y 6959   6.793   3.745   4.070 -0.5104  0.4352 -1.0427
   54DOPE  C317 6960   6.687   3.594   4.195 -0.3187  0.2948 -0.3109
   54DOPE  H17X 6961   6.614   3.644   4.262  0.5684  1.2012  0.0193
   54DOPE  H17Y 6962   6.637   3.498   4.171 -0.4600 -0.1367  1.5702
   54DOPE  C318 6963   6.813   3.571   4.285 -0.6154 -0.0772 -0.3195
   54DOPE  H18X 6964   6.855   3.665   4.326  0.3377 -0.4194 -0.4762
   54DOPE  H18Y 6965   6.789   3.500   4.368  1.0566 -0.0674  0.2073
   54DOPE  H18Z 6966   6.894   3.523   4.226  0.4445  2.3878 -1.0075
   55DOPE     N 6967   1.000   5.755   2.511  0.1554  0.1468  0.8717
   55DOPE   HN1 6968   0.939   5.687   2.462  2.6049 -1.6315  0.1102
   55DOPE   HN2 6969   0.956   5.767   2.604 -1.8197 -3.4477  0.5787
   55DOPE   HN3 6970   0.985   5.843   2.457  0.3386  0.1518  0.8286
   55DOPE   C12 6971   1.145   5.707   2.510 -0.5246 -0.9434  0.1907
   55DOPE  H12A 6972   1.162   5.661   2.411  0.6317 -1.6767  0.7056
   55DOPE  H12B 6973   1.157   5.624   2.583 -2.2229  1.1088  3.0274
   55DOPE   C11 6974   1.233   5.825   2.544 -0.0877 -0.0725  0.5033
   55DOPE  H11A 6975   1.336   5.788   2.565 -1.1722 -3.9636 -0.3138
   55DOPE  H11B 6976   1.182   5.875   2.629 -0.8152  0.0207  0.0220
   55DOPE     P 6977   1.333   6.027   2.438  0.0749  0.0346  0.1664
   55DOPE   O13 6978   1.283   6.138   2.356 -0.0739 -0.1397 -0.0075
   55DOPE   O14 6979   1.475   5.990   2.412 -0.1786 -0.3480  0.0264
   55DOPE   O11 6980   1.319   6.075   2.584  0.4777  0.2252  0.5584
   55DOPE   O12 6981   1.236   5.907   2.430  0.6102 -0.2187 -0.2422
   55DOPE    C1 6982   1.441   6.123   2.649  0.2432  0.1638  0.8741
   55DOPE    HA 6983   1.409   6.199   2.724 -1.0109 -0.8058  1.3571
   55DOPE    HB 6984   1.512   6.163   2.573  1.8856 -0.5967  1.9508
   55DOPE    C2 6985   1.528   6.011   2.723 -0.1778  0.2497 -0.6927
   55DOPE    HS 6986   1.552   5.934   2.647 -1.0441 -1.1936  0.4299
   55DOPE   O21 6987   1.441   5.948   2.817  0.5332 -0.2126 -0.6132
   55DOPE   C21 6988   1.482   5.848   2.891 -0.0596  0.5173  0.5460
   55DOPE   O22 6989   1.584   5.788   2.880  0.2442  0.5859  0.1078
   55DOPE   C22 6990   1.386   5.824   3.007 -0.1529 -0.5880 -0.3360
   55DOPE   H2R 6991   1.282   5.798   2.979  0.1794 -2.1710 -0.2140
   55DOPE   H2S 6992   1.396   5.916   3.068 -2.7535 -0.1677 -0.4458
   55DOPE    C3 6993   1.664   6.069   2.779 -0.2063 -0.4412 -0.0031
   55DOPE    HX 6994   1.722   6.137   2.713  0.6910 -0.1418  1.0651
   55DOPE    HY 6995   1.728   5.979   2.789 -0.5198 -0.5170  1.6014
   55DOPE   O31 6996   1.630   6.139   2.900 -0.2267 -0.0438 -0.2383
   55DOPE   C31 6997   1.693   6.094   3.009 -0.5346 -0.5864 -0.0011
   55DOPE   O32 6998   1.777   6.007   3.012 -0.1725  0.0913 -0.0501
   55DOPE   C32 6999   1.644   6.187   3.130 -0.3399 -0.9597  0.6044
   55DOPE   H2X 7000   1.650   6.292   3.095  2.5761 -0.1905  2.9353
   55DOPE   H2Y 7001   1.539   6.165   3.159 -1.0997  0.1419 -1.1376
   55DOPE   C23 7002   1.450   5.710   3.094  0.0561 -0.4260 -0.7055
   55DOPE   H3R 7003   1.538   5.747   3.150 -0.4010  0.6011 -0.6426
   55DOPE   H3S 7004   1.472   5.624   3.027 -0.0745 -0.2106 -1.0282
   55DOPE   C24 7005   1.346   5.660   3.192 -0.1027 -0.8583  0.0316
   55DOPE   H4R 7006   1.392   5.576   3.250  1.5306  0.2162  0.3737
   55DOPE   H4S 7007   1.262   5.620   3.132 -1.9553  1.0030  1.2827
   55DOPE   C25 7008   1.294   5.765   3.296  0.4105 -0.1328 -0.9448
   55DOPE   H5R 7009   1.225   5.716   3.369  0.5541  1.7110  0.4835
   55DOPE   H5S 7010   1.235   5.834   3.232 -2.5535 -1.5188  0.0668
   55DOPE   C26 7011   1.405   5.826   3.381  0.1995  0.0954 -0.1400
   55DOPE   H6R 7012   1.472   5.889   3.320 -0.2661  0.1429 -0.6085
   55DOPE   H6S 7013   1.473   5.750   3.426  0.6766 -0.8873 -2.3633
   55DOPE   C27 7014   1.353   5.935   3.481 -0.9158 -0.2302 -0.2177
   55DOPE   H7R 7015   1.289   5.883   3.556 -1.7105 -0.3534 -0.9570
   55DOPE   H7S 7016   1.289   6.014   3.436 -1.9508 -1.0235 -0.1941
   55DOPE   C28 7017   1.472   6.015   3.534 -0.8612  0.7481 -0.3224
   55DOPE   H8R 7018   1.432   6.104   3.588  2.3755  1.8657  0.4524
   55DOPE   H8S 7019   1.523   6.058   3.445  2.4637 -2.3116 -0.0985
   55DOPE   C29 7020   1.577   5.944   3.618 -0.1866  0.1981  0.4553
   55DOPE   H9R 7021   1.657   5.895   3.561 -0.2560 -1.5702  1.7879
   55DOPE  C210 7022   1.580   5.940   3.750  0.5247  0.1057  0.2016
   55DOPE  H10R 7023   1.663   5.887   3.797  0.9352  0.2156 -0.3847
   55DOPE  C211 7024   1.480   6.008   3.840  0.5395 -0.0061  0.2492
   55DOPE  H11R 7025   1.385   6.034   3.787  1.0901  2.3597  0.3403
   55DOPE  H11S 7026   1.522   6.101   3.883  1.2715  0.1760 -0.8116
   55DOPE  C212 7027   1.438   5.923   3.960 -0.6050  0.1601 -0.2904
   55DOPE  H12R 7028   1.526   5.923   4.028  0.8554  0.8180 -2.0823
   55DOPE  H12S 7029   1.418   5.821   3.921 -1.1492  0.6394 -1.3045
   55DOPE  C213 7030   1.317   5.981   4.034 -0.8740  0.1140  0.6238
   55DOPE  H13R 7031   1.234   5.949   3.968 -0.0327 -0.1539 -0.3418
   55DOPE  H13S 7032   1.324   6.090   4.051  0.8359  0.0402  0.6071
   55DOPE  C214 7033   1.305   5.914   4.172  0.3954 -0.5158 -0.7711
   55DOPE  H14R 7034   1.308   5.803   4.176  0.0357 -0.5689 -1.6680
   55DOPE  H14S 7035   1.204   5.938   4.212 -0.4722 -4.1697 -0.3973
   55DOPE  C215 7036   1.415   5.955   4.266  0.5759 -0.4037 -0.4279
   55DOPE  H15R 7037   1.425   6.066   4.272  0.0211 -0.3726  0.1039
   55DOPE  H15S 7038   1.507   5.906   4.229  0.9565 -0.7099  0.8620
   55DOPE  C216 7039   1.398   5.911   4.410 -0.4880  0.5359 -0.4902
   55DOPE  H16R 7040   1.390   5.800   4.409 -0.2922  0.5169 -1.3002
   55DOPE  H16S 7041   1.302   5.949   4.449 -0.6920 -1.3453  0.9778
   55DOPE  C217 7042   1.509   5.969   4.498  0.3903  0.0193 -0.0236
   55DOPE  H17R 7043   1.506   5.923   4.599  1.4223 -1.9714 -0.8361
   55DOPE  H17S 7044   1.489   6.076   4.522  2.0520  0.0906  1.1996
   55DOPE  C218 7045   1.650   5.955   4.445  0.4781  0.1186  0.5030
   55DOPE  H18R 7046   1.678   5.853   4.411  0.2620  0.1883  0.1090
   55DOPE  H18S 7047   1.716   5.984   4.530  1.9351 -0.2245 -0.4735
   55DOPE  H18T 7048   1.657   6.030   4.363  0.8099  1.2219  1.5158
   55DOPE   C33 7049   1.740   6.157   3.243 -0.8545 -0.3892 -0.3278
   55DOPE   H3X 7050   1.844   6.156   3.205 -1.3525  0.5103 -1.8177
   55DOPE   H3Y 7051   1.715   6.061   3.293 -4.6770 -1.2380 -3.3799
   55DOPE   C34 7052   1.724   6.277   3.345  0.5843 -0.4386  0.0043
   55DOPE   H4X 7053   1.743   6.374   3.294 -1.4365 -0.3473 -0.6978
   55DOPE   H4Y 7054   1.615   6.290   3.363  0.2307 -1.5005 -1.1469
   55DOPE   C35 7055   1.804   6.233   3.468  0.3373  0.1521  0.1060
   55DOPE   H5X 7056   1.913   6.230   3.446  0.4744 -1.1653  0.8289
   55DOPE   H5Y 7057   1.772   6.133   3.505 -0.7485  0.4793  0.0822
   55DOPE   C36 7058   1.787   6.330   3.584  0.8522 -0.3903  0.6935
   55DOPE   H6X 7059   1.817   6.433   3.556 -3.2223  0.9746  0.7247
   55DOPE   H6Y 7060   1.847   6.286   3.667 -1.4508 -1.6612  1.7793
   55DOPE   C37 7061   1.644   6.331   3.642 -0.1741 -0.5540  0.1143
   55DOPE   H7X 7062   1.569   6.379   3.575 -1.8167  1.1746  2.9808
   55DOPE   H7Y 7063   1.615   6.226   3.663  1.6060 -0.9192  0.8863
   55DOPE   C38 7064   1.637   6.414   3.776 -0.3329  0.5333 -0.2345
   55DOPE   H8X 7065   1.721   6.391   3.845  0.0914  1.1503 -0.5333
   55DOPE   H8Y 7066   1.545   6.377   3.825 -1.1244  3.9064  1.0742
   55DOPE   C39 7067   1.631   6.561   3.744 -1.0272 -0.1506 -0.2344
   55DOPE   H9X 7068   1.711   6.598   3.679 -0.0458 -1.6592  0.0661
   55DOPE  C310 7069   1.542   6.646   3.796 -0.3008  0.8516  0.1620
   55DOPE  H10X 7070   1.556   6.750   3.763 -0.2697  0.4448 -1.1705
   55DOPE  C311 7071   1.424   6.613   3.884 -0.1645  0.9528 -0.4634
   55DOPE  H11X 7072   1.329   6.632   3.830 -0.3239 -0.4532 -0.7192
   55DOPE  H11Y 7073   1.417   6.504   3.906 -0.1462  1.2176  0.9178
   55DOPE  C312 7074   1.436   6.694   4.017 -0.6962 -0.2416 -1.0653
   55DOPE  H12X 7075   1.419   6.802   4.000  1.8190  0.3173 -0.4539
   55DOPE  H12Y 7076   1.540   6.688   4.058 -1.1796  0.6483  0.3476
   55DOPE  C313 7077   1.349   6.643   4.135 -0.2159  0.6761 -0.1081
   55DOPE  H13X 7078   1.248   6.650   4.089 -0.1731  0.5419 -0.2238
   55DOPE  H13Y 7079   1.383   6.540   4.157 -1.3749  0.3042  0.0020
   55DOPE  C314 7080   1.354   6.725   4.268  0.5760 -0.0438 -0.1110
   55DOPE  H14X 7081   1.341   6.831   4.239  0.8202 -0.0069 -0.0894
   55DOPE  H14Y 7082   1.449   6.712   4.324 -0.8962 -2.9974  1.9842
   55DOPE  C315 7083   1.259   6.661   4.365  0.1199 -0.1268  1.1673
   55DOPE  H15X 7084   1.287   6.553   4.361 -0.0167 -0.1413  0.5172
   55DOPE  H15Y 7085   1.156   6.655   4.326  1.1884  0.4012 -1.9970
   55DOPE  C316 7086   1.266   6.707   4.507 -0.1519 -0.6829  0.4240
   55DOPE  H16X 7087   1.230   6.813   4.510 -0.6990 -0.8085 -0.8713
   55DOPE  H16Y 7088   1.368   6.721   4.547 -1.0668 -1.4437  3.3200
   55DOPE  C317 7089   1.184   6.636   4.608 -0.1752  1.0759  0.0682
   55DOPE  H17X 7090   1.227   6.542   4.649 -1.0351  0.5176 -0.2845
   55DOPE  H17Y 7091   1.186   6.701   4.698 -1.8432 -0.2307  1.1087
   55DOPE  C318 7092   1.039   6.627   4.568 -0.1789 -0.4611  0.5371
   55DOPE  H18X 7093   0.979   6.622   4.662  0.9100 -0.7924  1.2253
   55DOPE  H18Y 7094   1.003   6.714   4.510 -0.4905 -0.7561  0.2816
   55DOPE  H18Z 7095   1.021   6.539   4.503  1.7730 -0.5013 -0.0096
   56DOPE     N 7096   1.424   6.837   2.856 -0.0194 -0.0570  0.8244
   56DOPE   HN1 7097   1.363   6.771   2.804  0.0676 -1.1624  2.0744
   56DOPE   HN2 7098   1.443   6.807   2.954  0.7151 -1.1495  0.3782
   56DOPE   HN3 7099   1.372   6.926   2.866 -1.4790 -0.6760 -0.7690
   56DOPE   C12 7100   1.558   6.875   2.793 -0.0147  0.3761  0.1186
   56DOPE  H12A 7101   1.616   6.930   2.870 -3.1057  0.3549  2.6687
   56DOPE  H12B 7102   1.539   6.935   2.702  1.0173 -0.1524 -0.4646
   56DOPE   C11 7103   1.628   6.744   2.739  0.4973 -0.9695  1.3700
   56DOPE  H11A 7104   1.673   6.678   2.816 -0.9686 -4.1676 -0.2708
   56DOPE  H11B 7105   1.711   6.771   2.670 -0.7953  1.1381  0.5443
   56DOPE     P 7106   1.506   6.519   2.673  0.2780  0.2635 -0.1146
   56DOPE   O13 7107   1.619   6.441   2.621  0.1157  0.2759 -0.7673
   56DOPE   O14 7108   1.373   6.493   2.617  0.6943 -0.0377 -0.2505
   56DOPE   O11 7109   1.501   6.512   2.827 -0.3710  0.0334  0.6517
   56DOPE   O12 7110   1.527   6.672   2.660 -0.6309  0.2049  0.1948
   56DOPE    C1 7111   1.406   6.439   2.899 -0.3474  0.0411  0.3093
   56DOPE    HA 7112   1.447   6.340   2.927  0.3272  0.4484  0.7726
   56DOPE    HB 7113   1.309   6.426   2.846 -0.0877 -1.2736  0.1258
   56DOPE    C2 7114   1.371   6.502   3.040  0.1449 -0.5604  0.3222
   56DOPE    HS 7115   1.324   6.602   3.025  2.8239  0.8695  0.7437
   56DOPE   O21 7116   1.483   6.511   3.131 -0.3332 -0.3820 -0.2895
   56DOPE   C21 7117   1.536   6.635   3.145  0.4560  0.2443  1.1086
   56DOPE   O22 7118   1.500   6.738   3.092 -0.1555 -1.1076 -0.4787
   56DOPE   C22 7119   1.641   6.640   3.252 -0.2927  0.1264 -0.2525
   56DOPE   H2R 7120   1.726   6.571   3.234  1.4236  2.2588 -0.7295
   56DOPE   H2S 7121   1.588   6.597   3.340  1.0194 -0.5203  0.2421
   56DOPE    C3 7122   1.263   6.411   3.109  0.4428  0.1275  0.2715
   56DOPE    HX 7123   1.284   6.306   3.080 -1.2150 -0.2054  0.1975
   56DOPE    HY 7124   1.161   6.427   3.069 -0.2076 -1.1548  1.3347
   56DOPE   O31 7125   1.258   6.417   3.256 -0.0542  0.1871 -0.0956
   56DOPE   C31 7126   1.175   6.517   3.296  0.0098  0.5951  0.0635
   56DOPE   O32 7127   1.119   6.596   3.220  0.0407 -0.2205  0.1982
   56DOPE   C32 7128   1.189   6.544   3.441  0.2682  0.3612  0.2695
   56DOPE   H2X 7129   1.222   6.456   3.502 -1.5583  0.2684  1.1881
   56DOPE   H2Y 7130   1.269   6.621   3.444  1.5731 -0.9173 -0.4031
   56DOPE   C23 7131   1.691   6.783   3.287 -0.1018 -0.5961  0.2746
   56DOPE   H3R 7132   1.602   6.839   3.323 -0.6985 -0.1755 -1.7069
   56DOPE   H3S 7133   1.731   6.828   3.193 -1.0177 -0.8805 -0.2693
   56DOPE   C24 7134   1.810   6.781   3.381  0.5631 -0.4281 -0.7027
   56DOPE   H4R 7135   1.904   6.753   3.329  0.3130 -3.8422  0.4233
   56DOPE   H4S 7136   1.780   6.709   3.461  0.8092 -0.5131 -0.6846
   56DOPE   C25 7137   1.825   6.927   3.437  1.0203 -0.1742  0.0127
   56DOPE   H5R 7138   1.805   7.005   3.361  0.3300  0.0048  0.3666
   56DOPE   H5S 7139   1.933   6.932   3.464  0.9642  0.0303  0.1992
   56DOPE   C26 7140   1.747   6.946   3.564 -0.0411 -0.3061 -0.6722
   56DOPE   H6R 7141   1.766   6.857   3.627  0.3245  1.4214  1.7740
   56DOPE   H6S 7142   1.638   6.957   3.544 -0.0463 -1.0515 -1.1260
   56DOPE   C27 7143   1.791   7.067   3.641 -0.2646 -0.1186 -0.0057
   56DOPE   H7R 7144   1.780   7.157   3.577  0.9934 -0.7220 -1.1342
   56DOPE   H7S 7145   1.899   7.090   3.653 -0.9480  2.8755  1.3809
   56DOPE   C28 7146   1.709   7.090   3.772  0.1872 -0.2142 -0.4101
   56DOPE   H8R 7147   1.603   7.104   3.743  0.0713 -0.7421 -0.2503
   56DOPE   H8S 7148   1.736   7.184   3.825 -1.7612 -0.2917  0.8357
   56DOPE   C29 7149   1.715   6.979   3.867 -0.5726  0.3449  1.0688
   56DOPE   H9R 7150   1.760   6.887   3.828  0.2559  0.4747  1.6881
   56DOPE  C210 7151   1.657   6.976   3.987  0.4527 -0.3532  0.1244
   56DOPE  H10R 7152   1.654   6.890   4.056 -1.2509 -0.4581 -0.0480
   56DOPE  C211 7153   1.582   7.080   4.061  0.0432 -0.6064  0.4454
   56DOPE  H11R 7154   1.493   7.042   4.115  1.1499 -1.9603  1.3994
   56DOPE  H11S 7155   1.535   7.152   3.990 -1.4335 -1.1835  0.7963
   56DOPE  C212 7156   1.670   7.153   4.169 -0.6224  0.7958 -0.2312
   56DOPE  H12R 7157   1.691   7.081   4.251  0.8342 -0.1571 -1.4106
   56DOPE  H12S 7158   1.608   7.237   4.207  0.3809  2.5661 -2.3124
   56DOPE  C213 7159   1.802   7.202   4.115 -0.2426 -0.2181 -0.6392
   56DOPE  H13R 7160   1.767   7.266   4.031  0.8426  0.0464 -0.9101
   56DOPE  H13S 7161   1.866   7.122   4.072  1.1695 -0.7352  2.1775
   56DOPE  C214 7162   1.880   7.289   4.221  0.1515  0.2337  0.2576
   56DOPE  H14R 7163   1.928   7.214   4.288 -0.3095 -2.3335 -2.1111
   56DOPE  H14S 7164   1.823   7.362   4.282 -0.2349 -0.5029  0.7939
   56DOPE  C215 7165   1.997   7.373   4.151 -0.0315  0.7506 -0.0693
   56DOPE  H15R 7166   2.053   7.303   4.086  1.2576  0.2157  1.5415
   56DOPE  H15S 7167   2.056   7.413   4.236 -0.6857 -1.5709  1.5823
   56DOPE  C216 7168   1.943   7.491   4.065 -0.0944 -0.0724  0.4010
   56DOPE  H16R 7169   1.861   7.542   4.120 -1.2987 -3.5928  2.1956
   56DOPE  H16S 7170   1.907   7.447   3.970  5.1399 -0.5203 -1.6728
   56DOPE  C217 7171   2.045   7.606   4.027  0.2114 -0.1247  0.8186
   56DOPE  H17R 7172   2.110   7.560   3.949  0.1188  0.9753  0.0741
   56DOPE  H17S 7173   2.107   7.626   4.117  0.8107 -0.0033  0.3925
   56DOPE  C218 7174   1.981   7.728   3.970 -0.3820  0.1236 -0.5527
   56DOPE  H18R 7175   1.929   7.711   3.873  0.5690 -1.8121 -0.7810
   56DOPE  H18S 7176   2.049   7.816   3.968 -1.2215  0.7835 -1.0257
   56DOPE  H18T 7177   1.903   7.755   4.044  0.0791  2.2829 -0.7780
   56DOPE   C33 7178   1.062   6.591   3.515 -0.0002  0.3369 -0.7815
   56DOPE   H3X 7179   0.985   6.512   3.508  1.6046 -1.5301  1.1902
   56DOPE   H3Y 7180   1.025   6.690   3.478  1.3966  1.8345  1.5570
   56DOPE   C34 7181   1.101   6.613   3.663 -0.7546  0.4820 -0.8220
   56DOPE   H4X 7182   1.184   6.551   3.701  0.1552  3.0707  1.8535
   56DOPE   H4Y 7183   1.143   6.714   3.683  0.3641  0.4025 -2.5811
   56DOPE   C35 7184   0.977   6.589   3.760 -0.0448 -0.2562 -0.1927
   56DOPE   H5X 7185   0.935   6.488   3.743 -1.0145  0.3677 -1.7156
   56DOPE   H5Y 7186   0.911   6.676   3.737  0.6866  1.1882  2.7496
   56DOPE   C36 7187   1.018   6.613   3.911  0.0463  0.0045  0.4241
   56DOPE   H6X 7188   1.049   6.719   3.923  0.5612 -0.1390  0.3900
   56DOPE   H6Y 7189   1.097   6.548   3.952 -0.4355  0.1980  1.6874
   56DOPE   C37 7190   0.895   6.596   4.001  0.0419 -1.1758  0.7626
   56DOPE   H7X 7191   0.820   6.660   3.949  1.5898  1.0279  1.1306
   56DOPE   H7Y 7192   0.850   6.495   3.988  1.8133 -1.7027 -2.1239
   56DOPE   C38 7193   0.922   6.632   4.145 -0.3375 -0.3009  0.0018
   56DOPE   H8X 7194   0.953   6.738   4.154  1.8984 -1.0418  2.9228
   56DOPE   H8Y 7195   1.013   6.575   4.176  0.9501  1.1812 -0.8888
   56DOPE   C39 7196   0.799   6.606   4.232 -0.5476 -0.1848  0.2656
   56DOPE   H9X 7197   0.760   6.504   4.222 -1.4484  0.3363 -2.4576
   56DOPE  C310 7198   0.743   6.702   4.304 -0.2732  0.1830 -0.6268
   56DOPE  H10X 7199   0.649   6.685   4.358 -0.6298 -0.1905 -1.3511
   56DOPE  C311 7200   0.789   6.849   4.320 -0.0845  0.2282  0.0682
   56DOPE  H11X 7201   0.896   6.856   4.346 -0.6256  0.5355  2.4817
   56DOPE  H11Y 7202   0.770   6.901   4.224 -1.1459 -0.1627  0.0465
   56DOPE  C312 7203   0.710   6.925   4.425 -0.3679 -0.4009  0.1512
   56DOPE  H12X 7204   0.601   6.914   4.408 -0.2379 -1.5888 -0.0209
   56DOPE  H12Y 7205   0.741   7.030   4.404  0.7529 -0.6115  0.6533
   56DOPE  C313 7206   0.743   6.895   4.573  0.0210  0.7180  0.3018
   56DOPE  H13X 7207   0.698   6.796   4.592 -1.0255  0.7134 -1.8979
   56DOPE  H13Y 7208   0.853   6.906   4.589 -0.0609  1.2290  0.5276
   56DOPE  C314 7209   0.683   6.998   4.665  0.4660  0.2503 -0.5322
   56DOPE  H14X 7210   0.720   6.965   4.765 -0.7482 -0.1483 -0.1971
   56DOPE  H14Y 7211   0.574   6.979   4.674  0.1648  1.9606 -0.0963
   56DOPE  C315 7212   0.707   7.148   4.623 -0.6370  0.0483 -0.0706
   56DOPE  H15X 7213   0.809   7.152   4.579 -0.0714  0.3650  1.2176
   56DOPE  H15Y 7214   0.700   7.210   4.716  0.7999  0.7051 -0.3781
   56DOPE  C316 7215   0.579   7.193   4.551 -0.8646 -0.2697  0.2040
   56DOPE  H16X 7216   0.493   7.173   4.618  0.3933 -0.4713  1.8511
   56DOPE  H16Y 7217   0.576   7.149   4.450  1.6651 -2.1656  0.8387
   56DOPE  C317 7218   0.582   7.351   4.539 -0.4830 -0.5989  0.2577
   56DOPE  H17X 7219   0.566   7.402   4.636  0.4583  0.1374  0.0360
   56DOPE  H17Y 7220   0.686   7.377   4.510  0.0665  0.3278  2.8395
   56DOPE  C318 7221   0.476   7.415   4.441 -0.0823  0.3886 -0.1787
   56DOPE  H18X 7222   0.490   7.366   4.342  0.9194 -0.8254  0.5270
   56DOPE  H18Y 7223   0.374   7.397   4.482  0.4422  1.0669  1.5311
   56DOPE  H18Z 7224   0.492   7.524   4.426  2.4775  0.0550 -0.4065
   57DOPE     N 7225   7.477   2.462   2.158 -0.2907 -0.4821  0.0201
   57DOPE   HN1 7226   7.498   2.437   2.060  1.2193  3.7779 -0.9428
   57DOPE   HN2 7227   7.527   2.395   2.220  1.5438  1.1759  0.4311
   57DOPE   HN3 7228   7.374   2.456   2.169 -0.6269  1.8895 -1.2991
   57DOPE   C12 7229   7.543   2.598   2.165  0.0821 -0.0310 -0.4363
   57DOPE  H12A 7230   7.550   2.633   2.270  1.3987  1.8751 -1.1124
   57DOPE  H12B 7231   7.479   2.666   2.105 -1.1810 -1.2129 -0.4783
   57DOPE   C11 7232   7.685   2.583   2.114  0.5942 -0.5046 -0.1986
   57DOPE  H11A 7233   7.722   2.686   2.094  0.3680 -0.2272  0.7519
   57DOPE  H11B 7234   7.686   2.525   2.019  0.0936 -1.5173  0.4081
   57DOPE     P 7235   7.914   2.526   2.226 -0.0807  0.2545 -0.4508
   57DOPE   O13 7236   7.963   2.644   2.150  0.5938  0.2007 -0.1133
   57DOPE   O14 7237   7.983   2.396   2.210  0.1074  0.2999 -1.2945
   57DOPE   O11 7238   7.924   2.571   2.379 -0.3210  0.0181  0.3829
   57DOPE   O12 7239   7.759   2.506   2.209  0.3352  0.1518  1.5113
   57DOPE    C1 7240   7.857   2.690   2.428  0.1337  0.2521  0.9513
   57DOPE    HA 7241   7.747   2.682   2.413  0.5245 -1.7228 -1.5996
   57DOPE    HB 7242   7.899   2.774   2.370 -1.5736  0.1554 -0.5134
   57DOPE    C2 7243   7.883   2.704   2.578  0.1606  0.1612 -0.4514
   57DOPE    HS 7244   7.993   2.700   2.596  0.0622 -0.9303 -0.0215
   57DOPE   O21 7245   7.821   2.591   2.645  0.2432  0.2258  0.2352
   57DOPE   C21 7246   7.893   2.484   2.672  0.2039 -1.0368  0.0027
   57DOPE   O22 7247   8.011   2.482   2.651  0.7006 -0.0552  0.2021
   57DOPE   C22 7248   7.804   2.378   2.739 -0.0439 -0.6245  0.0620
   57DOPE   H2R 7249   7.776   2.313   2.654  0.0982  1.1490 -1.4117
   57DOPE   H2S 7250   7.717   2.425   2.789 -0.0654  0.2621 -0.7606
   57DOPE    C3 7251   7.831   2.837   2.633  0.4750  0.7003  0.1099
   57DOPE    HX 7252   7.731   2.850   2.586  0.6621  0.1907 -0.4375
   57DOPE    HY 7253   7.892   2.916   2.583 -0.3652  0.0422 -2.0767
   57DOPE   O31 7254   7.836   2.850   2.774 -0.3465 -0.0329 -0.2446
   57DOPE   C31 7255   7.828   2.971   2.824 -0.9311 -0.3876 -0.8158
   57DOPE   O32 7256   7.796   3.078   2.765  0.0501  0.4796  0.0143
   57DOPE   C32 7257   7.884   2.967   2.964  0.0350  0.3667 -0.2601
   57DOPE   H2X 7258   7.816   2.902   3.024 -1.0025  1.3564 -0.3219
   57DOPE   H2Y 7259   7.983   2.918   2.969 -0.2439 -0.2910 -0.9121
   57DOPE   C23 7260   7.866   2.290   2.850 -0.2038 -0.2192 -0.2259
   57DOPE   H3R 7261   7.848   2.341   2.947  2.2463  1.2534 -0.4676
   57DOPE   H3S 7262   7.975   2.287   2.830 -0.0182 -1.7743  0.8478
   57DOPE   C24 7263   7.807   2.145   2.850 -0.1458  0.5390  0.1340
   57DOPE   H4R 7264   7.837   2.105   2.751  1.4590 -0.0032  0.8079
   57DOPE   H4S 7265   7.696   2.148   2.859 -0.0165  1.5831  1.7373
   57DOPE   C25 7266   7.873   2.061   2.959 -0.3593  0.0060 -0.2144
   57DOPE   H5R 7267   7.973   2.028   2.924  0.2934  1.4711  0.1829
   57DOPE   H5S 7268   7.812   1.969   2.967  0.2302 -0.2666  1.4854
   57DOPE   C26 7269   7.896   2.123   3.101  0.4673 -0.3032 -0.2285
   57DOPE   H6R 7270   7.964   2.211   3.098 -0.7063  0.6375 -0.1759
   57DOPE   H6S 7271   7.960   2.053   3.158 -0.8094  0.2596  1.9900
   57DOPE   C27 7272   7.773   2.145   3.190 -0.3669  0.6647  0.2791
   57DOPE   H7R 7273   7.697   2.069   3.162 -0.9025  1.8041 -1.5899
   57DOPE   H7S 7274   7.733   2.248   3.178  0.8951  1.1279 -0.0695
   57DOPE   C28 7275   7.808   2.129   3.339  0.6773 -0.0221  0.0248
   57DOPE   H8R 7276   7.888   2.198   3.374  0.2702  1.8786 -2.5266
   57DOPE   H8S 7277   7.844   2.024   3.350  1.4211  0.1795 -0.4089
   57DOPE   C29 7278   7.677   2.149   3.416 -0.8170 -0.1724 -0.0851
   57DOPE   H9R 7279   7.598   2.207   3.365 -1.9864 -0.3368  1.4436
   57DOPE  C210 7280   7.659   2.115   3.549  0.1609  0.0007 -0.0933
   57DOPE  H10R 7281   7.563   2.119   3.603  1.1227 -0.4077  1.7448
   57DOPE  C211 7282   7.773   2.057   3.625 -0.2550 -0.1197 -0.0506
   57DOPE  H11R 7283   7.802   2.127   3.707 -0.1155  0.9858 -1.0123
   57DOPE  H11S 7284   7.862   2.035   3.563  2.0799  4.0356  1.4243
   57DOPE  C212 7285   7.740   1.924   3.685  0.6171  0.2158  0.2447
   57DOPE  H12R 7286   7.698   1.853   3.611  0.2101  0.2054  0.4834
   57DOPE  H12S 7287   7.668   1.940   3.768  1.2791  3.4553  0.3367
   57DOPE  C213 7288   7.860   1.848   3.744 -0.4542 -0.4173 -0.2155
   57DOPE  H13R 7289   7.917   1.920   3.806 -0.0844 -1.1131  0.2684
   57DOPE  H13S 7290   7.925   1.800   3.668 -1.2418 -0.6317 -0.7748
   57DOPE  C214 7291   7.808   1.733   3.840 -0.7021 -0.4371  0.0469
   57DOPE  H14R 7292   7.760   1.652   3.781 -0.7246  0.5242 -1.2861
   57DOPE  H14S 7293   7.734   1.785   3.904 -1.4500 -0.4114 -0.8269
   57DOPE  C215 7294   7.910   1.671   3.935 -0.3971  0.1872  0.4784
   57DOPE  H15R 7295   7.978   1.616   3.867  1.4894  2.4388  0.4397
   57DOPE  H15S 7296   7.862   1.599   4.005  0.4851  0.3112  1.2324
   57DOPE  C216 7297   7.988   1.773   4.016  0.3761  0.3418  0.1747
   57DOPE  H16R 7298   7.919   1.836   4.076 -0.7614 -0.0481 -0.7059
   57DOPE  H16S 7299   8.057   1.830   3.951 -0.1412  1.3427  0.4800
   57DOPE  C217 7300   8.094   1.702   4.105  0.3772  0.7182 -0.0662
   57DOPE  H17R 7301   8.160   1.634   4.046  0.6044  0.8464  0.0387
   57DOPE  H17S 7302   8.053   1.642   4.189 -0.3520  0.8514 -0.3191
   57DOPE  C218 7303   8.182   1.795   4.185  0.6018 -0.3819  0.4243
   57DOPE  H18R 7304   8.124   1.858   4.256  0.5231 -1.2511  1.1396
   57DOPE  H18S 7305   8.231   1.868   4.116  0.9580 -0.7533  0.2806
   57DOPE  H18T 7306   8.258   1.736   4.239  0.7882 -2.2414 -1.7055
   57DOPE   C33 7307   7.893   3.109   3.034  0.5491  0.5955  0.9629
   57DOPE   H3X 7308   7.792   3.155   3.024  0.4172 -0.0922 -1.8416
   57DOPE   H3Y 7309   7.952   3.176   2.967 -2.6874  2.2300 -0.4696
   57DOPE   C34 7310   7.932   3.113   3.177 -0.2841 -0.0490 -0.1608
   57DOPE   H4X 7311   7.928   3.219   3.211  0.8165  0.0398 -0.2714
   57DOPE   H4Y 7312   7.856   3.053   3.230  1.2364 -0.7943  1.2734
   57DOPE   C35 7313   8.072   3.063   3.207 -0.2247  0.4972  0.2037
   57DOPE   H5X 7314   8.134   3.120   3.134 -1.3375  0.7089 -0.5921
   57DOPE   H5Y 7315   8.088   2.956   3.180  1.2766  0.3711  1.4140
   57DOPE   C36 7316   8.129   3.084   3.342  0.0845  0.0721 -0.7126
   57DOPE   H6X 7317   8.150   3.190   3.366 -1.5023  0.0957  0.7536
   57DOPE   H6Y 7318   8.226   3.029   3.343  0.7430  1.1706  0.7856
   57DOPE   C37 7319   8.029   3.037   3.458  0.4545 -0.0791  0.4063
   57DOPE   H7X 7320   7.942   3.105   3.470 -0.0392 -0.8779  1.4738
   57DOPE   H7Y 7321   7.988   2.937   3.433 -1.2038  0.5601  0.4091
   57DOPE   C38 7322   8.096   3.026   3.597  1.1707 -0.0699  0.1812
   57DOPE   H8X 7323   8.141   3.122   3.628 -2.4635  0.9148  2.9822
   57DOPE   H8Y 7324   8.178   2.951   3.590  0.6311 -0.8124  1.4937
   57DOPE   C39 7325   8.001   2.983   3.706  0.6305 -0.5918  0.4563
   57DOPE   H9X 7326   7.997   2.874   3.722  0.7181 -0.7479 -0.5523
   57DOPE  C310 7327   7.921   3.064   3.777  0.7611 -0.1160 -0.2528
   57DOPE  H10X 7328   7.853   3.012   3.845  1.6873 -1.6243 -0.4324
   57DOPE  C311 7329   7.914   3.213   3.762  0.3617 -0.7788  0.6525
   57DOPE  H11X 7330   7.950   3.274   3.848 -2.4643  0.1974  1.2379
   57DOPE  H11Y 7331   7.979   3.246   3.678  0.8197 -0.7575  1.0100
   57DOPE  C312 7332   7.765   3.270   3.725  0.1137 -0.3327  0.4060
   57DOPE  H12X 7333   7.781   3.379   3.715 -0.4516  0.0314  2.9223
   57DOPE  H12Y 7334   7.692   3.278   3.808  1.0718  1.9518  1.0999
   57DOPE  C313 7335   7.709   3.198   3.606 -0.7514  0.3390 -0.5830
   57DOPE  H13X 7336   7.781   3.201   3.521  3.1513  1.1551  2.4687
   57DOPE  H13Y 7337   7.695   3.090   3.628 -2.0466  0.7946  1.0187
   57DOPE  C314 7338   7.589   3.280   3.566  0.2707 -0.8466 -0.4058
   57DOPE  H14X 7339   7.601   3.373   3.507 -2.1089 -0.2988 -0.1487
   57DOPE  H14Y 7340   7.539   3.320   3.656 -0.2357 -1.1713 -0.5323
   57DOPE  C315 7341   7.479   3.198   3.493  0.2109 -0.0071 -1.2971
   57DOPE  H15X 7342   7.400   3.264   3.452  0.0235 -0.6856 -2.0458
   57DOPE  H15Y 7343   7.432   3.130   3.567  1.5380 -1.6437 -1.8957
   57DOPE  C316 7344   7.534   3.118   3.374  0.2413  0.4733 -0.0031
   57DOPE  H16X 7345   7.608   3.043   3.407 -1.9219 -2.6966 -1.8045
   57DOPE  H16Y 7346   7.592   3.189   3.310  0.3137  1.3826  1.0421
   57DOPE  C317 7347   7.418   3.038   3.307 -0.0141 -0.0384  0.2606
   57DOPE  H17X 7348   7.359   2.973   3.376  0.7314 -1.2716 -0.2308
   57DOPE  H17Y 7349   7.347   3.112   3.264 -0.3351  0.3066  1.3506
   57DOPE  C318 7350   7.475   2.950   3.191  0.4571  0.4188 -0.2461
   57DOPE  H18X 7351   7.399   2.886   3.142  1.6161  0.0892 -1.6923
   57DOPE  H18Y 7352   7.524   3.012   3.113 -1.4075  0.0435 -1.7874
   57DOPE  H18Z 7353   7.551   2.880   3.232 -0.5227  0.7529  2.3751
   58DOPE     N 7354   1.177   6.349   2.520 -0.1938  0.0865  0.4912
   58DOPE   HN1 7355   1.204   6.265   2.465  1.5981 -0.3355  1.8961
   58DOPE   HN2 7356   1.099   6.403   2.477 -0.6441 -0.7545  0.2454
   58DOPE   HN3 7357   1.262   6.408   2.534 -0.0755  0.5768 -1.9642
   58DOPE   C12 7358   1.117   6.302   2.650 -0.9537  0.1522 -0.3584
   58DOPE  H12A 7359   1.205   6.304   2.718 -0.7721 -1.7663 -0.4654
   58DOPE  H12B 7360   1.074   6.199   2.645 -0.5320 -0.0657  0.3758
   58DOPE   C11 7361   1.020   6.401   2.713  0.2043  0.8205  0.0709
   58DOPE  H11A 7362   1.073   6.495   2.739  0.2692  0.6753  0.4693
   58DOPE  H11B 7363   0.965   6.372   2.805  0.5455  0.1907  0.0777
   58DOPE     P 7364   0.783   6.362   2.598  0.2251  0.2195  0.0378
   58DOPE   O13 7365   0.794   6.219   2.552  0.8998  0.1937  0.0948
   58DOPE   O14 7366   0.701   6.449   2.505  0.0066  0.2892 -0.0344
   58DOPE   O11 7367   0.724   6.348   2.742  0.4836 -0.4145 -0.2745
   58DOPE   O12 7368   0.927   6.431   2.617 -0.1791 -0.1316 -0.3183
   58DOPE    C1 7369   0.685   6.463   2.810  0.4584 -0.3004  0.3622
   58DOPE    HA 7370   0.632   6.532   2.741  0.2345 -1.3465 -0.5439
   58DOPE    HB 7371   0.773   6.512   2.856 -1.5719  1.1399  2.9785
   58DOPE    C2 7372   0.582   6.428   2.928 -0.2014  0.1002 -0.2989
   58DOPE    HS 7373   0.581   6.514   2.997 -1.0787  0.4261 -0.7042
   58DOPE   O21 7374   0.630   6.310   2.995  0.4080 -0.7160 -0.3167
   58DOPE   C21 7375   0.736   6.335   3.079 -1.2469 -0.6237  0.4849
   58DOPE   O22 7376   0.770   6.444   3.117  0.5837 -0.7715 -0.8783
   58DOPE   C22 7377   0.808   6.211   3.126 -0.3460  0.0727 -0.5682
   58DOPE   H2R 7378   0.868   6.176   3.040  1.1124  0.8403  0.1023
   58DOPE   H2S 7379   0.732   6.134   3.150 -0.1679  0.5660  1.8170
   58DOPE    C3 7380   0.441   6.413   2.878  0.4544  0.3468  0.1877
   58DOPE    HX 7381   0.423   6.313   2.832 -0.9498  0.9031 -0.5325
   58DOPE    HY 7382   0.416   6.486   2.798  0.3976 -0.9594 -1.0238
   58DOPE   O31 7383   0.340   6.413   2.984  0.2557  0.0751 -0.0652
   58DOPE   C31 7384   0.281   6.531   3.021 -0.1563  0.2268 -0.1014
   58DOPE   O32 7385   0.285   6.630   2.946 -0.7665 -0.1553 -0.6678
   58DOPE   C32 7386   0.200   6.516   3.147 -0.2107 -0.4347  0.7176
   58DOPE   H2X 7387   0.148   6.418   3.156  0.8137 -0.8799  2.2107
   58DOPE   H2Y 7388   0.284   6.523   3.220 -0.2439 -1.6783  0.9002
   58DOPE   C23 7389   0.893   6.238   3.251  0.3334  0.1889 -0.6377
   58DOPE   H3R 7390   0.822   6.286   3.322  0.7633  4.5278 -2.8016
   58DOPE   H3S 7391   0.978   6.310   3.240  0.5944 -0.0249 -0.0703
   58DOPE   C24 7392   0.935   6.113   3.332 -0.2495  0.8434 -0.8395
   58DOPE   H4R 7393   1.002   6.044   3.277  1.3079  0.9894  0.7664
   58DOPE   H4S 7394   0.837   6.061   3.331 -0.9006  1.9889  0.3018
   58DOPE   C25 7395   0.981   6.157   3.475  0.1406  0.0761 -0.2564
   58DOPE   H5R 7396   0.925   6.247   3.508  0.9641  0.7663 -0.7002
   58DOPE   H5S 7397   1.090   6.179   3.468 -0.2009  2.0448  0.0835
   58DOPE   C26 7398   0.973   6.044   3.576  0.0558  0.6333 -0.1672
   58DOPE   H6R 7399   1.012   5.955   3.524 -1.0354 -1.0107  1.6778
   58DOPE   H6S 7400   0.872   6.013   3.610  1.0105 -2.1828  0.3177
   58DOPE   C27 7401   1.055   6.079   3.707  0.5652  0.2821  0.6148
   58DOPE   H7R 7402   1.161   6.095   3.678  0.4179  0.2117  0.0401
   58DOPE   H7S 7403   1.046   5.992   3.776 -1.7602  0.1203  0.1787
   58DOPE   C28 7404   0.996   6.198   3.778 -0.2424  0.1998  0.1484
   58DOPE   H8R 7405   0.997   6.281   3.705  0.9472  0.4168  0.3978
   58DOPE   H8S 7406   1.073   6.241   3.846 -0.7873  1.0504  0.2559
   58DOPE   C29 7407   0.866   6.164   3.850 -0.5080 -0.4454  0.0982
   58DOPE   H9R 7408   0.779   6.181   3.785 -0.0776  3.0302  0.2489
   58DOPE  C210 7409   0.858   6.122   3.978 -0.3414  0.2654 -0.9565
   58DOPE  H10R 7410   0.763   6.080   4.012  0.4703  0.3987  1.7003
   58DOPE  C211 7411   0.966   6.097   4.076  0.1573  0.1953  0.0696
   58DOPE  H11R 7412   1.063   6.068   4.031 -0.0123 -2.6848  1.3172
   58DOPE  H11S 7413   0.932   6.017   4.146  0.0260 -0.2793 -0.5310
   58DOPE  C212 7414   0.987   6.225   4.161 -0.4584 -0.2409 -0.3616
   58DOPE  H12R 7415   0.893   6.260   4.209 -0.7944  0.5425 -1.5386
   58DOPE  H12S 7416   1.011   6.315   4.100 -1.5398  0.8536  0.7851
   58DOPE  C213 7417   1.088   6.217   4.278 -0.2002 -1.1471  0.2113
   58DOPE  H13R 7418   1.141   6.314   4.291 -1.2658 -0.2020 -1.9667
   58DOPE  H13S 7419   1.165   6.144   4.245 -0.5843 -1.2421 -0.5062
   58DOPE  C214 7420   1.015   6.174   4.410 -0.1289  0.2243  0.0544
   58DOPE  H14R 7421   0.990   6.067   4.396 -0.9522  0.1892  1.6560
   58DOPE  H14S 7422   0.931   6.245   4.425  0.1000  0.2339  1.3844
   58DOPE  C215 7423   1.106   6.188   4.531 -0.1190 -0.4043  0.3472
   58DOPE  H15R 7424   1.131   6.293   4.556 -1.0757  0.6211 -2.5918
   58DOPE  H15S 7425   1.194   6.122   4.514  0.2143 -0.5060  2.1829
   58DOPE  C216 7426   1.041   6.126   4.660  0.2797  0.2271  0.0561
   58DOPE  H16R 7427   1.017   6.018   4.646  1.3038 -0.0913  0.6645
   58DOPE  H16S 7428   0.943   6.175   4.679 -1.3600 -3.3314  1.8615
   58DOPE  C217 7429   1.140   6.143   4.783 -0.1198  0.0305 -0.4040
   58DOPE  H17R 7430   1.234   6.087   4.763  0.1862 -0.0241  1.0946
   58DOPE  H17S 7431   1.095   6.079   4.862  1.7610 -0.9349 -0.0638
   58DOPE  C218 7432   1.160   6.282   4.838  0.0825 -0.5621 -0.8785
   58DOPE  H18R 7433   1.064   6.338   4.845 -0.3110 -1.4223  1.9660
   58DOPE  H18S 7434   1.218   6.345   4.767 -1.9516  1.9073 -0.5216
   58DOPE  H18T 7435   1.210   6.281   4.937 -0.2868  0.0335 -0.6794
   58DOPE   C33 7436   0.108   6.645   3.166  0.3675  0.1342  0.6888
   58DOPE   H3X 7437   0.039   6.644   3.078 -0.0941 -1.2753  1.0515
   58DOPE   H3Y 7438   0.170   6.737   3.160  1.4253 -0.5315  1.1689
   58DOPE   C34 7439   0.017   6.637   3.287 -0.1750 -0.6175  0.7802
   58DOPE   H4X 7440  -0.032   6.734   3.310 -0.0958 -0.8239  1.8799
   58DOPE   H4Y 7441  -0.060   6.560   3.270  2.6008 -3.0014 -2.1689
   58DOPE   C35 7442   0.087   6.578   3.411  0.2851 -0.5687 -0.7218
   58DOPE   H5X 7443   0.180   6.636   3.430  0.7950 -1.7046  0.3968
   58DOPE   H5Y 7444   0.110   6.469   3.410 -1.6025 -1.0228  0.5045
   58DOPE   C36 7445   0.005   6.601   3.534 -0.0837 -0.5300 -0.6389
   58DOPE   H6X 7446  -0.069   6.518   3.544  2.0550 -2.3766  0.7275
   58DOPE   H6Y 7447  -0.034   6.705   3.542  1.1155 -0.2094  2.4876
   58DOPE   C37 7448   0.107   6.577   3.654  0.1439  0.1335 -0.1233
   58DOPE   H7X 7449   0.153   6.477   3.640 -0.9929 -0.4397  0.1111
   58DOPE   H7Y 7450   0.194   6.646   3.650  0.8486 -0.7787 -1.3349
   58DOPE   C38 7451   0.033   6.588   3.785  0.4115  0.1446 -0.5912
   58DOPE   H8X 7452  -0.032   6.678   3.787  0.8729  0.4842 -0.7111
   58DOPE   H8Y 7453   0.105   6.598   3.869  0.6503 -1.8655 -0.5069
   58DOPE   C39 7454  -0.035   6.459   3.807 -0.2432 -0.4916  0.0693
   58DOPE   H9X 7455  -0.093   6.405   3.732 -0.0071 -1.7372  0.7647
   58DOPE  C310 7456  -0.019   6.388   3.918  0.2199  0.0862  0.1361
   58DOPE  H10X 7457  -0.068   6.290   3.915 -2.4863  1.2940  1.1741
   58DOPE  C311 7458   0.071   6.415   4.039  1.0569  0.0670  0.2451
   58DOPE  H11X 7459   0.157   6.478   4.006  0.7144  0.6473  0.4544
   58DOPE  H11Y 7460   0.010   6.471   4.113  0.9199 -1.3411  1.2390
   58DOPE  C312 7461   0.117   6.278   4.098 -0.3543 -0.9935 -0.2844
   58DOPE  H12X 7462   0.207   6.285   4.162 -0.7778 -1.3547  0.3542
   58DOPE  H12Y 7463   0.151   6.211   4.015 -2.7289 -0.2425 -1.9818
   58DOPE  C313 7464   0.008   6.211   4.181 -0.0780  0.0703 -0.2597
   58DOPE  H13X 7465  -0.029   6.283   4.258 -0.5432  2.1162 -2.2550
   58DOPE  H13Y 7466  -0.078   6.190   4.113  1.4714 -1.0847 -1.9357
   58DOPE  C314 7467   0.063   6.079   4.243 -0.5791  0.0580 -0.0046
   58DOPE  H14X 7468   0.108   6.008   4.170 -0.2504  2.6793 -2.5211
   58DOPE  H14Y 7469  -0.025   6.027   4.287 -0.0720  1.2287  2.5561
   58DOPE  C315 7470   0.147   6.101   4.369  0.0913 -0.2719 -0.0910
   58DOPE  H15X 7471   0.236   6.164   4.348 -0.7949  2.4877  3.4115
   58DOPE  H15Y 7472   0.185   6.002   4.403 -1.2278 -1.0454 -0.7716
   58DOPE  C316 7473   0.084   6.170   4.494  0.2088  0.0148 -0.0929
   58DOPE  H16X 7474  -0.004   6.106   4.516  0.7851 -0.9584 -0.5702
   58DOPE  H16Y 7475   0.047   6.270   4.464 -0.6212 -0.3647 -0.3748
   58DOPE  C317 7476   0.174   6.171   4.621 -0.1161  0.0863 -0.4962
   58DOPE  H17X 7477   0.238   6.081   4.625 -0.4999 -0.2205 -1.2300
   58DOPE  H17Y 7478   0.253   6.246   4.598  1.8862 -1.6957  0.2092
   58DOPE  C318 7479   0.113   6.197   4.759 -0.2852 -0.7811  0.2561
   58DOPE  H18X 7480   0.083   6.302   4.775 -2.0718 -1.2172 -0.0997
   58DOPE  H18Y 7481   0.026   6.130   4.773 -0.6801 -0.1647  0.7687
   58DOPE  H18Z 7482   0.186   6.173   4.840  0.9339  0.8183 -0.3293
   59DOPE     N 7483   7.378   1.769   2.250  0.0749 -0.2688  0.7503
   59DOPE   HN1 7484   7.464   1.714   2.233 -1.1016 -2.0075  0.1434
   59DOPE   HN2 7485   7.304   1.733   2.186  2.2771  0.5985 -2.4784
   59DOPE   HN3 7486   7.385   1.869   2.223 -0.5383 -0.1592  0.9692
   59DOPE   C12 7487   7.326   1.760   2.384  0.1361 -0.0135 -0.1467
   59DOPE  H12A 7488   7.232   1.818   2.400  0.1704  0.0677 -0.2323
   59DOPE  H12B 7489   7.407   1.805   2.445 -0.6297 -0.3530  1.1489
   59DOPE   C11 7490   7.310   1.611   2.419 -0.0316 -0.0528 -0.0601
   59DOPE  H11A 7491   7.225   1.564   2.366  0.3848 -0.6200 -0.2333
   59DOPE  H11B 7492   7.275   1.623   2.524 -4.0399 -1.3688 -1.0694
   59DOPE     P 7493   7.515   1.488   2.533 -0.1926 -0.1160  0.4280
   59DOPE   O13 7494   7.644   1.430   2.475  0.3285 -0.1751 -0.2837
   59DOPE   O14 7495   7.433   1.388   2.605  0.3220  0.1220 -0.0230
   59DOPE   O11 7496   7.539   1.620   2.609  0.0707 -0.2419  0.0471
   59DOPE   O12 7497   7.432   1.536   2.407 -0.0459 -0.1563  0.4361
   59DOPE    C1 7498   7.582   1.616   2.746  0.2737  0.8739  0.4192
   59DOPE    HA 7499   7.689   1.586   2.757 -0.2092 -2.1045 -1.7055
   59DOPE    HB 7500   7.516   1.552   2.807 -0.8772 -0.3996 -2.0006
   59DOPE    C2 7501   7.565   1.759   2.803 -0.5580  0.3514 -0.3171
   59DOPE    HS 7502   7.630   1.835   2.756 -1.0624  1.3671  0.5800
   59DOPE   O21 7503   7.595   1.760   2.946 -0.1865 -0.1791 -0.1859
   59DOPE   C21 7504   7.722   1.737   2.976 -0.1503 -0.3340 -0.1436
   59DOPE   O22 7505   7.812   1.721   2.895 -0.8773  0.5743  0.8106
   59DOPE   C22 7506   7.734   1.727   3.125 -0.0095 -0.8005 -0.3667
   59DOPE   H2R 7507   7.644   1.675   3.166 -1.5693  0.8668 -1.5165
   59DOPE   H2S 7508   7.728   1.829   3.168 -0.3822 -1.1613  0.4754
   59DOPE    C3 7509   7.415   1.809   2.784 -0.3384  0.2759 -0.0501
   59DOPE    HX 7510   7.400   1.837   2.678  0.2213  0.1768 -0.1605
   59DOPE    HY 7511   7.417   1.906   2.839 -1.3371  0.8236 -0.9497
   59DOPE   O31 7512   7.317   1.710   2.836 -0.2597  0.3338  0.0424
   59DOPE   C31 7513   7.220   1.755   2.916  0.2914 -0.5201 -0.3559
   59DOPE   O32 7514   7.219   1.874   2.956  0.6470  0.3710 -0.5371
   59DOPE   C32 7515   7.122   1.642   2.959  0.1798 -0.4246 -0.2704
   59DOPE   H2X 7516   7.037   1.629   2.888 -0.1009  1.2662 -0.2845
   59DOPE   H2Y 7517   7.175   1.544   2.964 -1.5372 -1.3898 -0.3285
   59DOPE   C23 7518   7.859   1.660   3.171 -0.2364  0.0340  0.6472
   59DOPE   H3R 7519   7.946   1.708   3.121 -1.0167  1.5231  0.6870
   59DOPE   H3S 7520   7.860   1.554   3.137  5.2157  0.2785 -0.8996
   59DOPE   C24 7521   7.882   1.667   3.322  0.0582 -0.0970 -0.3809
   59DOPE   H4R 7522   7.790   1.637   3.377  0.3611 -1.0717 -0.3755
   59DOPE   H4S 7523   7.898   1.774   3.346 -0.9383 -0.2531  1.0552
   59DOPE   C25 7524   8.000   1.578   3.371  0.4876  0.4749 -0.0114
   59DOPE   H5R 7525   8.093   1.601   3.315 -0.0153 -1.5284 -1.8285
   59DOPE   H5S 7526   7.971   1.477   3.334 -1.6170  0.4455  1.5147
   59DOPE   C26 7527   8.017   1.568   3.520 -0.2435  0.0158  0.2950
   59DOPE   H6R 7528   7.931   1.523   3.573  0.4036  0.4452  1.7649
   59DOPE   H6S 7529   8.042   1.672   3.551  1.5333 -0.3422  0.2147
   59DOPE   C27 7530   8.139   1.479   3.553 -0.3273  0.0953 -0.2819
   59DOPE   H7R 7531   8.216   1.513   3.480 -0.7311  2.7408  0.4118
   59DOPE   H7S 7532   8.115   1.375   3.524  0.1083 -0.0255 -0.2242
   59DOPE   C28 7533   8.173   1.477   3.700  0.5140  0.5269  0.1432
   59DOPE   H8R 7534   8.084   1.432   3.747  0.5835 -1.8348 -1.8228
   59DOPE   H8S 7535   8.174   1.586   3.723 -1.9021  0.9301 -1.3672
   59DOPE   C29 7536   8.291   1.389   3.732  0.2442  0.3219  1.0381
   59DOPE   H9R 7537   8.370   1.411   3.660 -1.1979 -3.6862 -2.1686
   59DOPE  C210 7538   8.301   1.301   3.832 -0.7443  0.7101 -0.4034
   59DOPE  H10R 7539   8.397   1.252   3.854 -0.9010  0.7571  0.4021
   59DOPE  C211 7540   8.185   1.265   3.931 -0.6178 -0.3044  0.4998
   59DOPE  H11R 7541   8.190   1.155   3.951 -0.1548 -0.3912 -0.0756
   59DOPE  H11S 7542   8.088   1.294   3.887  0.1720  1.1104 -0.3812
   59DOPE  C212 7543   8.209   1.332   4.070 -0.2742  0.3260 -0.5354
   59DOPE  H12R 7544   8.225   1.440   4.051  0.2161  0.4538  0.5389
   59DOPE  H12S 7545   8.310   1.298   4.100 -0.4524  0.6658  0.4970
   59DOPE  C213 7546   8.093   1.320   4.167 -0.7872 -0.4811 -0.3194
   59DOPE  H13R 7547   8.055   1.216   4.157  1.7642 -1.6638  1.3339
   59DOPE  H13S 7548   8.014   1.389   4.131  1.9285  2.0634 -1.8185
   59DOPE  C214 7549   8.136   1.341   4.316 -0.5003  0.1363 -0.4316
   59DOPE  H14R 7550   8.049   1.357   4.383  1.0445 -0.6405  1.8836
   59DOPE  H14S 7551   8.197   1.433   4.320 -0.5821  0.1824  3.7724
   59DOPE  C215 7552   8.216   1.222   4.371 -0.4655  0.1518 -0.8689
   59DOPE  H15R 7553   8.294   1.198   4.295  0.1992  0.9130 -0.4327
   59DOPE  H15S 7554   8.137   1.147   4.391 -1.7971  1.6709 -0.2544
   59DOPE  C216 7555   8.281   1.258   4.507 -1.2541 -0.4568 -0.5703
   59DOPE  H16R 7556   8.212   1.325   4.563  0.8464 -1.2819  3.4029
   59DOPE  H16S 7557   8.373   1.318   4.492 -1.1473 -0.5198 -0.1823
   59DOPE  C217 7558   8.331   1.144   4.590 -0.1316  1.4238 -0.6290
   59DOPE  H17R 7559   8.396   1.070   4.539 -0.8510 -1.8399  2.6848
   59DOPE  H17S 7560   8.242   1.084   4.620  0.7776  1.1543  1.7667
   59DOPE  C218 7561   8.403   1.196   4.717  0.2089 -0.6625 -0.8777
   59DOPE  H18R 7562   8.480   1.270   4.686 -0.8524  1.3412  1.0500
   59DOPE  H18S 7563   8.454   1.111   4.768 -0.8430 -0.6685  0.1878
   59DOPE  H18T 7564   8.342   1.245   4.795  0.8124 -1.0823 -0.1250
   59DOPE   C33 7565   7.050   1.678   3.091 -0.8504 -1.0964  0.0565
   59DOPE   H3X 7566   6.974   1.599   3.109  0.5321 -2.5869 -0.3562
   59DOPE   H3Y 7567   7.011   1.781   3.081  2.5282  0.2575 -0.6060
   59DOPE   C34 7568   7.136   1.678   3.220 -0.2551 -0.2024  0.5156
   59DOPE   H4X 7569   7.194   1.583   3.216  1.0488  0.5903 -0.1453
   59DOPE   H4Y 7570   7.196   1.770   3.206 -1.6488  0.4158 -2.1857
   59DOPE   C35 7571   7.038   1.693   3.341 -0.4076  0.4076  0.2070
   59DOPE   H5X 7572   6.955   1.620   3.326 -0.8954  1.2306 -1.3454
   59DOPE   H5Y 7573   6.991   1.792   3.327 -0.3567  0.1160 -2.5678
   59DOPE   C36 7574   7.108   1.667   3.472 -0.2927 -0.5460  0.4161
   59DOPE   H6X 7575   7.205   1.720   3.471 -1.5643  1.9408 -0.1636
   59DOPE   H6Y 7576   7.116   1.557   3.485 -0.4873 -0.5465  0.5455
   59DOPE   C37 7577   7.036   1.734   3.595  0.2901  0.1774 -0.7472
   59DOPE   H7X 7578   7.035   1.842   3.571  0.2900 -0.1503 -2.3418
   59DOPE   H7Y 7579   6.932   1.698   3.584  1.3741 -2.8697 -2.0263
   59DOPE   C38 7580   7.111   1.711   3.728  0.2910  0.9232 -0.5733
   59DOPE   H8X 7581   7.068   1.781   3.802 -1.3709 -1.7526  1.1777
   59DOPE   H8Y 7582   7.214   1.747   3.708  0.4949  0.7800  0.2068
   59DOPE   C39 7583   7.087   1.578   3.786 -0.7151 -0.6724  0.5756
   59DOPE   H9X 7584   7.020   1.510   3.731 -0.1756 -1.3712  0.7655
   59DOPE  C310 7585   7.140   1.531   3.895 -0.2957 -0.4078  1.1184
   59DOPE  H10X 7586   7.108   1.427   3.913 -1.5622 -0.3147 -0.3282
   59DOPE  C311 7587   7.241   1.601   3.984 -0.6228  0.3411  0.0668
   59DOPE  H11X 7588   7.338   1.548   3.993 -2.1886 -2.5544  1.0858
   59DOPE  H11Y 7589   7.278   1.700   3.951  0.6381 -0.3631 -0.7022
   59DOPE  C312 7590   7.187   1.603   4.128  0.5719  0.0017  0.2529
   59DOPE  H12X 7591   7.209   1.506   4.177  1.2201  1.0848  2.2412
   59DOPE  H12Y 7592   7.077   1.620   4.132  0.4745  0.9435 -3.2207
   59DOPE  C313 7593   7.242   1.724   4.199  0.2463  0.6691 -0.2908
   59DOPE  H13X 7594   7.246   1.705   4.309 -1.0148 -1.1314 -0.4994
   59DOPE  H13Y 7595   7.347   1.737   4.165  0.2310  0.0973 -0.5687
   59DOPE  C314 7596   7.151   1.843   4.176  0.5236 -0.2375  0.1921
   59DOPE  H14X 7597   7.045   1.840   4.208 -0.1236  0.9562 -1.6629
   59DOPE  H14Y 7598   7.135   1.870   4.070 -1.1899  0.1799  0.5280
   59DOPE  C315 7599   7.197   1.967   4.255  0.7737 -0.0808 -0.4555
   59DOPE  H15X 7600   7.270   1.942   4.335  0.2521 -0.4696 -0.0951
   59DOPE  H15Y 7601   7.127   2.036   4.305  1.0498 -1.2287  1.6189
   59DOPE  C316 7602   7.282   2.058   4.166 -0.0072  0.2691  0.0414
   59DOPE  H16X 7603   7.367   1.996   4.131 -0.5618  0.8194 -2.4784
   59DOPE  H16Y 7604   7.330   2.130   4.236  1.2185 -0.5858  0.1252
   59DOPE  C317 7605   7.212   2.127   4.041  0.4693  0.0026  0.0702
   59DOPE  H17X 7606   7.204   2.062   3.951 -1.2954  2.8236 -1.9980
   59DOPE  H17Y 7607   7.110   2.162   4.069  0.0670  0.1696 -1.4683
   59DOPE  C318 7608   7.286   2.243   3.991 -0.8759 -0.4294  0.2756
   59DOPE  H18X 7609   7.294   2.312   4.077  1.4741 -0.6082  0.2569
   59DOPE  H18Y 7610   7.386   2.207   3.958  0.2728 -0.7766  3.7654
   59DOPE  H18Z 7611   7.228   2.294   3.911 -0.9604 -1.0588 -0.0737
   60DOPE     N 7612   0.591   6.964   2.543  0.4635 -0.5552  0.2201
   60DOPE   HN1 7613   0.599   7.040   2.472 -2.4542  0.8009  1.1730
   60DOPE   HN2 7614   0.686   6.923   2.548  0.3490 -1.3502 -2.5090
   60DOPE   HN3 7615   0.519   6.894   2.514 -0.3877  0.5533 -0.4231
   60DOPE   C12 7616   0.547   7.035   2.660  0.2363 -0.5781 -0.3565
   60DOPE  H12A 7617   0.629   7.105   2.686 -0.6382 -0.0452  1.0823
   60DOPE  H12B 7618   0.544   6.970   2.750 -1.6345  0.2503  0.2345
   60DOPE   C11 7619   0.421   7.100   2.617  0.7572  0.2628 -0.1953
   60DOPE  H11A 7620   0.375   7.143   2.709 -1.5481  0.3426 -1.3045
   60DOPE  H11B 7621   0.348   7.028   2.575  0.5510 -0.2749  1.0298
   60DOPE     P 7622   0.351   7.321   2.485  0.3648 -0.1411 -0.1291
   60DOPE   O13 7623   0.230   7.282   2.413 -0.0743 -0.0711  0.5417
   60DOPE   O14 7624   0.439   7.423   2.433  0.2302  0.1746  0.2171
   60DOPE   O11 7625   0.306   7.366   2.637  0.1061 -0.2331  0.6169
   60DOPE   O12 7626   0.437   7.195   2.507  0.4474  0.1718 -0.5933
   60DOPE    C1 7627   0.174   7.329   2.682 -0.2666  0.3215  0.3295
   60DOPE    HA 7628   0.149   7.228   2.645 -0.5539 -0.0913  1.5875
   60DOPE    HB 7629   0.104   7.403   2.637  0.9906  0.8248 -0.8839
   60DOPE    C2 7630   0.168   7.347   2.838 -0.0141  0.1415 -0.3825
   60DOPE    HS 7631   0.189   7.456   2.842  1.4172 -0.1333  0.3970
   60DOPE   O21 7632   0.267   7.257   2.901 -0.3492 -0.5706 -0.4050
   60DOPE   C21 7633   0.334   7.316   2.993 -0.5251 -1.2752 -0.0798
   60DOPE   O22 7634   0.331   7.432   3.024  0.3261 -0.6957 -0.0026
   60DOPE   C22 7635   0.420   7.219   3.071  0.4506 -0.5416 -0.3698
   60DOPE   H2R 7636   0.451   7.255   3.171 -1.9700 -0.6437  0.4825
   60DOPE   H2S 7637   0.508   7.198   3.008  1.2586 -0.9702  0.8560
   60DOPE    C3 7638   0.023   7.324   2.890  0.5125 -0.5611  0.1694
   60DOPE    HX 7639  -0.000   7.217   2.874  0.2957 -0.6842  1.2475
   60DOPE    HY 7640  -0.046   7.395   2.839 -1.4516 -1.1978  1.8395
   60DOPE   O31 7641   0.028   7.342   3.030 -0.0348  0.2909  0.0776
   60DOPE   C31 7642  -0.010   7.459   3.083 -0.2243 -0.0718 -0.5304
   60DOPE   O32 7643  -0.061   7.550   3.022 -0.0618 -0.7864 -0.1401
   60DOPE   C32 7644   0.010   7.448   3.238 -0.2461 -0.0494 -0.1129
   60DOPE   H2X 7645  -0.054   7.371   3.286 -1.0751  1.9850  2.2213
   60DOPE   H2Y 7646   0.118   7.440   3.263 -0.1180  0.0622 -0.6189
   60DOPE   C23 7647   0.356   7.077   3.112  0.1301 -0.1432  0.1300
   60DOPE   H3R 7648   0.444   7.022   3.153  0.4400  0.5815  0.4526
   60DOPE   H3S 7649   0.334   7.023   3.018 -0.5939  1.1436 -0.4626
   60DOPE   C24 7650   0.250   7.104   3.214  0.0362 -0.0822  0.4876
   60DOPE   H4R 7651   0.196   7.010   3.239 -1.0110  0.9740  2.4422
   60DOPE   H4S 7652   0.172   7.170   3.169  0.1009 -0.0789  0.3804
   60DOPE   C25 7653   0.307   7.151   3.348 -0.0895 -0.0834 -0.1262
   60DOPE   H5R 7654   0.367   7.244   3.340 -0.3808  0.2432  1.2593
   60DOPE   H5S 7655   0.385   7.083   3.387 -0.5048 -2.1050 -2.5653
   60DOPE   C26 7656   0.205   7.178   3.463  0.4479 -0.5549 -0.1945
   60DOPE   H6R 7657   0.141   7.266   3.445 -0.1767 -0.9327  0.1380
   60DOPE   H6S 7658   0.265   7.188   3.557  0.5063 -0.2006 -0.2695
   60DOPE   C27 7659   0.113   7.059   3.489  1.4410 -0.2995  0.2481
   60DOPE   H7R 7660   0.180   6.970   3.484 -1.5927 -2.7534  0.2183
   60DOPE   H7S 7661   0.050   7.046   3.398 -0.2945 -2.1409  1.6006
   60DOPE   C28 7662   0.033   7.056   3.618  0.0905 -1.3470  0.7163
   60DOPE   H8R 7663   0.106   7.049   3.701  2.7873  0.8082 -1.2806
   60DOPE   H8S 7664  -0.017   6.957   3.619 -0.9422 -0.8446  1.9140
   60DOPE   C29 7665  -0.069   7.171   3.632 -0.6954 -0.3116  0.9067
   60DOPE   H9R 7666  -0.128   7.183   3.540  2.1996  1.0454 -0.9379
   60DOPE  C210 7667  -0.073   7.270   3.723  0.5746 -0.0095  0.5921
   60DOPE  H10R 7668  -0.151   7.343   3.699 -0.9024 -1.3603  1.0853
   60DOPE  C211 7669   0.016   7.291   3.844 -0.1307 -0.3222 -0.4009
   60DOPE  H11R 7670   0.071   7.388   3.843  0.4306 -0.5749  1.5984
   60DOPE  H11S 7671   0.101   7.220   3.843 -0.0156 -0.1870 -1.5439
   60DOPE  C212 7672  -0.057   7.263   3.976  0.0907  0.3903 -0.6385
   60DOPE  H12R 7673  -0.135   7.338   4.000 -1.0764 -0.9054 -0.2765
   60DOPE  H12S 7674   0.024   7.270   4.052  0.5136  2.6813 -1.2321
   60DOPE  C213 7675  -0.126   7.121   3.990  0.4979 -0.3900  0.2328
   60DOPE  H13R 7676  -0.051   7.046   3.957  0.9179  0.6054 -1.1709
   60DOPE  H13S 7677  -0.209   7.109   3.917  0.5948 -1.8162  0.3133
   60DOPE  C214 7678  -0.172   7.089   4.134 -0.0558  0.2798  0.6574
   60DOPE  H14R 7679  -0.249   7.167   4.157 -2.0991 -1.6692  0.7506
   60DOPE  H14S 7680  -0.091   7.095   4.209  1.4076  1.5205 -0.9307
   60DOPE  C215 7681  -0.216   6.940   4.140  0.1215 -0.0892 -0.2356
   60DOPE  H15R 7682  -0.130   6.871   4.127 -1.0345 -1.5708 -0.3057
   60DOPE  H15S 7683  -0.279   6.922   4.051 -1.9807 -0.3434  1.2314
   60DOPE  C216 7684  -0.285   6.926   4.273  0.2518 -0.1390 -0.2065
   60DOPE  H16R 7685  -0.351   6.836   4.276  1.7004 -1.2223  0.6254
   60DOPE  H16S 7686  -0.358   7.009   4.289  1.9231  1.0328  1.9032
   60DOPE  C217 7687  -0.189   6.928   4.393 -1.0124  0.2040  0.0081
   60DOPE  H17R 7688  -0.130   7.021   4.409 -0.4818  0.2212 -1.8603
   60DOPE  H17S 7689  -0.116   6.845   4.382  0.0717  1.4028 -2.5860
   60DOPE  C218 7690  -0.276   6.902   4.525  0.4976 -0.0896  0.3834
   60DOPE  H18R 7691  -0.317   6.799   4.529  1.2013 -0.3486  3.4281
   60DOPE  H18S 7692  -0.353   6.981   4.534  3.1365  2.4507  4.1041
   60DOPE  H18T 7693  -0.208   6.913   4.613  2.5817  0.5563 -1.2422
   60DOPE   C33 7694  -0.047   7.579   3.313 -0.7387  0.3911 -0.5092
   60DOPE   H3X 7695  -0.141   7.598   3.256 -0.5004 -1.1656 -1.4955
   60DOPE   H3Y 7696   0.021   7.666   3.300  0.7556 -0.6310  0.1319
   60DOPE   C34 7697  -0.077   7.557   3.467  0.2642  0.0639  0.4946
   60DOPE   H4X 7698  -0.165   7.492   3.485  0.9357 -0.9511  0.2225
   60DOPE   H4Y 7699  -0.001   7.491   3.513 -0.7437 -2.0402 -0.6769
   60DOPE   C35 7700  -0.089   7.692   3.536  0.1503 -0.6734  0.0512
   60DOPE   H5X 7701  -0.185   7.737   3.503  0.6920 -0.0105 -0.6321
   60DOPE   H5Y 7702  -0.011   7.767   3.512  1.1934 -1.4776  0.7823
   60DOPE   C36 7703  -0.073   7.676   3.694 -0.1711 -0.3331  0.1925
   60DOPE   H6X 7704   0.011   7.605   3.708  2.2942  2.2517 -0.7357
   60DOPE   H6Y 7705  -0.167   7.628   3.730  0.0196 -0.1987  0.8740
   60DOPE   C37 7706  -0.047   7.811   3.761  0.2640 -0.1097 -0.1315
   60DOPE   H7X 7707   0.054   7.848   3.732  0.4572 -1.2361 -0.9476
   60DOPE   H7Y 7708  -0.120   7.884   3.720 -1.0614 -0.5576  1.3244
   60DOPE   C38 7709  -0.071   7.790   3.914 -0.0917 -0.4694 -0.0905
   60DOPE   H8X 7710   0.014   7.725   3.942 -0.4443 -0.0543  2.1031
   60DOPE   H8Y 7711  -0.171   7.745   3.934  0.1569 -0.1551  2.0493
   60DOPE   C39 7712  -0.052   7.917   4.000  0.3518  0.5404  0.2168
   60DOPE   H9X 7713   0.048   7.957   3.976  2.7053 -3.6962  1.9073
   60DOPE  C310 7714  -0.126   7.961   4.098  0.3563  0.3163  0.0583
   60DOPE  H10X 7715  -0.100   8.054   4.151 -1.9457  0.7945  0.4563
   60DOPE  C311 7716  -0.258   7.898   4.138  0.1495 -0.1948  0.1398
   60DOPE  H11X 7717  -0.327   7.968   4.190 -1.4609 -0.7895 -1.1176
   60DOPE  H11Y 7718  -0.313   7.883   4.043 -1.5396 -0.0870  1.0536
   60DOPE  C312 7719  -0.246   7.770   4.228 -0.5004  1.6665  1.0521
   60DOPE  H12X 7720  -0.227   7.794   4.334 -1.5179  0.8365  1.4399
   60DOPE  H12Y 7721  -0.162   7.707   4.193 -0.9064 -0.2843  3.3521
   60DOPE  C313 7722  -0.381   7.694   4.242  0.4010  0.4723  0.6140
   60DOPE  H13X 7723  -0.450   7.766   4.291  1.0349  1.1782  0.4865
   60DOPE  H13Y 7724  -0.427   7.668   4.145 -1.4456  0.9422  1.3215
   60DOPE  C314 7725  -0.373   7.573   4.329 -0.0018 -0.1011  0.2089
   60DOPE  H14X 7726  -0.354   7.601   4.435  1.4797  1.7239 -0.4823
   60DOPE  H14Y 7727  -0.283   7.514   4.304  0.9370  1.4410 -0.2005
   60DOPE  C315 7728  -0.503   7.490   4.320 -0.3516  0.3660 -0.4502
   60DOPE  H15X 7729  -0.523   7.457   4.216 -1.8363 -0.8596  0.1799
   60DOPE  H15Y 7730  -0.589   7.548   4.359 -0.6099 -0.1639 -0.2163
   60DOPE  C316 7731  -0.492   7.356   4.398 -0.4314  0.9758 -0.0530
   60DOPE  H16X 7732  -0.382   7.341   4.399 -0.3775  0.8620  3.0721
   60DOPE  H16Y 7733  -0.545   7.276   4.342  0.5702  0.2038  0.0628
   60DOPE  C317 7734  -0.549   7.370   4.538 -0.6934 -0.0090 -0.0200
   60DOPE  H17X 7735  -0.514   7.277   4.588 -0.6341 -0.0126 -0.0672
   60DOPE  H17Y 7736  -0.496   7.448   4.596  0.2979 -1.7220  1.4627
   60DOPE  C318 7737  -0.704   7.391   4.542  0.4158  0.1607  0.5565
   60DOPE  H18X 7738  -0.742   7.357   4.443  0.9191  1.0259  0.0559
   60DOPE  H18Y 7739  -0.753   7.334   4.624 -0.2566  1.2213  0.9062
   60DOPE  H18Z 7740  -0.718   7.500   4.556  0.9599  0.1429  1.3123
   6123SM     N 7741   3.282   3.599   7.376  0.6153  0.6810 -0.4150
   6123SM   C15 7742   3.297   3.739   7.429 -0.2323  0.6508  1.0624
   6123SM  H15A 7743   3.244   3.748   7.522 -2.4710 -0.7163  0.0094
   6123SM  H15B 7744   3.250   3.815   7.369  2.1327  1.0475 -0.4405
   6123SM  H15C 7745   3.400   3.769   7.446  0.0916 -0.0878  0.5007
   6123SM   C14 7746   3.328   3.502   7.480  0.6112 -0.1984 -0.4593
   6123SM  H14A 7747   3.435   3.502   7.499  0.4501 -1.0679  0.5435
   6123SM  H14B 7748   3.311   3.399   7.456  1.1189 -0.3216 -0.3084
   6123SM  H14C 7749   3.283   3.519   7.577 -0.2573  2.3883 -1.2304
   6123SM   C13 7750   3.131   3.568   7.364 -0.0172  0.2822  0.3053
   6123SM  H13A 7751   3.090   3.620   7.279 -3.2394  1.9785  2.6635
   6123SM  H13B 7752   3.083   3.612   7.450 -0.0835  0.8918 -0.0354
   6123SM  H13C 7753   3.124   3.462   7.346  0.7039  0.4344 -0.9714
   6123SM   C12 7754   3.343   3.583   7.242  0.3235  0.1520  0.4870
   6123SM  H12A 7755   3.347   3.481   7.207  3.8719  0.4024 -0.2873
   6123SM  H12B 7756   3.449   3.605   7.248  0.6161 -0.5778 -1.3227
   6123SM   C11 7757   3.273   3.666   7.122 -0.4882 -0.2469 -0.5780
   6123SM  H11A 7758   3.327   3.695   7.030 -0.4261  0.2785 -0.3776
   6123SM  H11B 7759   3.258   3.763   7.173  1.9879 -0.2502  0.2879
   6123SM     P 7760   3.154   3.481   6.987  0.2936  0.1223 -0.3055
   6123SM   O13 7761   3.257   3.380   7.027  0.1632 -0.8842  0.0723
   6123SM   O14 7762   3.018   3.432   6.962  0.0540 -0.6206  0.0488
   6123SM   O11 7763   3.206   3.548   6.853  0.5445 -0.2456  0.0459
   6123SM   O12 7764   3.148   3.607   7.088 -0.0551 -0.0388  0.1050
   6123SM   C1S 7765   3.150   3.493   6.737 -0.4728 -0.0662 -0.6926
   6123SM   H1S 7766   3.042   3.518   6.726 -0.5873 -0.3254 -0.1797
   6123SM   H1T 7767   3.154   3.383   6.728 -1.0146 -0.2402  0.8285
   6123SM    NF 7768   3.154   3.502   6.485  0.1686  0.0330  0.3281
   6123SM   HNF 7769   3.184   3.421   6.435 -2.9606 -1.4331  0.5865
   6123SM   C2S 7770   3.221   3.554   6.609 -0.5528  0.0592  0.6281
   6123SM   H2S 7771   3.225   3.665   6.604 -0.8623  0.0228 -1.0424
   6123SM   C3S 7772   3.374   3.506   6.620  0.0537  0.1222  0.1883
   6123SM   H3S 7773   3.378   3.396   6.608  3.6263  0.3307 -2.1536
   6123SM    O3 7774   3.441   3.532   6.745  1.2325 -0.1223  0.4418
   6123SM   HO3 7775   3.367   3.538   6.806 -0.0822 -2.0027 -0.8698
   6123SM   C4S 7776   3.452   3.569   6.503  0.8093 -0.6084  0.0501
   6123SM   H4S 7777   3.433   3.522   6.405  0.2954  0.0938 -0.1994
   6123SM   C5S 7778   3.545   3.666   6.503  0.2174  0.4340 -0.0853
   6123SM   H5S 7779   3.579   3.713   6.596  0.3239  0.2501 -0.0315
   6123SM   C6S 7780   3.611   3.715   6.377  0.1018 -0.1963  0.7105
   6123SM   H6S 7781   3.647   3.819   6.393 -2.3473  1.1851 -1.7649
   6123SM   H6T 7782   3.542   3.717   6.290 -0.5842  0.2290  1.2556
   6123SM   C7S 7783   3.733   3.630   6.327  0.0139  0.0729  0.2400
   6123SM   H7S 7784   3.703   3.528   6.292 -1.8961  1.0382 -1.1502
   6123SM   H7T 7785   3.806   3.623   6.410 -0.0178  0.4222  0.2963
   6123SM   C8S 7786   3.814   3.691   6.210 -0.5592 -0.2297  0.2449
   6123SM   H8S 7787   3.894   3.622   6.178 -0.7476 -0.2602 -0.1691
   6123SM   H8T 7788   3.849   3.794   6.235  0.1406 -0.5036  0.4134
   6123SM   C9S 7789   3.736   3.719   6.083  0.4819  0.3414  0.4675
   6123SM   H9S 7790   3.658   3.797   6.097 -0.9405 -1.0207  0.4187
   6123SM   H9T 7791   3.685   3.624   6.057  2.0341 -0.1663 -0.8731
   6123SM  C10S 7792   3.822   3.757   5.966  0.3299  0.2768 -0.2341
   6123SM  H10S 7793   3.878   3.666   5.933  1.2561  1.2006 -1.3370
   6123SM  H10T 7794   3.896   3.838   5.985  1.0807 -0.5913  0.6789
   6123SM  C11S 7795   3.731   3.786   5.837 -0.2203 -0.0770 -0.0520
   6123SM  H11S 7796   3.687   3.885   5.859  3.5872  1.1647  3.4221
   6123SM  H11T 7797   3.654   3.706   5.840 -1.3484  0.9403 -1.0831
   6123SM  C12S 7798   3.802   3.788   5.702  0.2930  0.3708 -0.2131
   6123SM  H12S 7799   3.853   3.690   5.688  2.5330  0.9071  3.0319
   6123SM  H12T 7800   3.878   3.869   5.697 -0.4373  1.0955  0.1598
   6123SM  C13S 7801   3.709   3.810   5.580 -0.3375  0.1974 -0.0868
   6123SM  H13S 7802   3.673   3.916   5.584  0.8978  0.6620 -0.9462
   6123SM  H13T 7803   3.619   3.744   5.579 -0.6205  0.5396 -2.1897
   6123SM  C14S 7804   3.772   3.799   5.440 -0.3061 -0.5855  0.7939
   6123SM  H14S 7805   3.740   3.715   5.374 -1.6308  0.7063 -0.2877
   6123SM  H14T 7806   3.881   3.787   5.457  0.2680 -1.7741 -2.8627
   6123SM  C15S 7807   3.769   3.929   5.357 -0.1977  0.0477  0.8367
   6123SM  H15S 7808   3.773   4.012   5.430 -0.6855  1.0569 -0.2465
   6123SM  H15T 7809   3.671   3.933   5.305  1.2100  2.9086 -1.9166
   6123SM  C16S 7810   3.885   3.927   5.252 -0.5792 -0.2533  0.3390
   6123SM  H16S 7811   3.986   3.923   5.297 -0.6506 -0.7223  0.4573
   6123SM  H16T 7812   3.879   4.027   5.203  0.3973 -0.9559 -1.2688
   6123SM  C17S 7813   3.884   3.815   5.144  0.3137  0.1772  0.3452
   6123SM  H17S 7814   3.884   3.715   5.191 -2.4459 -0.2158 -0.3503
   6123SM  H17T 7815   3.983   3.819   5.092  0.1114  0.1739 -0.0447
   6123SM  C18S 7816   3.772   3.828   5.048 -0.0608 -0.2971 -0.6915
   6123SM  H18S 7817   3.758   3.930   5.007  1.8948  0.4672  0.4052
   6123SM  H18T 7818   3.675   3.798   5.093 -1.6798  0.5114 -3.3990
   6123SM  H18U 7819   3.774   3.755   4.965 -0.3513 -3.3319  1.7927
   6123SM   C1F 7820   3.026   3.545   6.467  0.1278 -0.4030 -0.8774
   6123SM    OF 7821   2.978   3.642   6.524 -0.4057 -0.8839 -0.0300
   6123SM   C2F 7822   2.942   3.459   6.375  0.7694  0.2297  0.2274
   6123SM   H2F 7823   2.859   3.420   6.437 -1.5674  1.9632 -1.6573
   6123SM   H2G 7824   3.005   3.376   6.337 -0.6891 -1.7726  2.0099
   6123SM   C3F 7825   2.880   3.523   6.249  0.1192  0.3001 -0.2372
   6123SM   H3F 7826   2.825   3.440   6.200  1.7024 -1.3698  0.7297
   6123SM   H3G 7827   2.969   3.550   6.189 -0.2255  0.3493 -0.7342
   6123SM   C4F 7828   2.786   3.644   6.262 -0.4364  0.2722 -0.6007
   6123SM   H4F 7829   2.840   3.732   6.302 -1.8996  0.9630 -0.0803
   6123SM   H4G 7830   2.701   3.613   6.326 -0.6823 -0.9145 -1.4638
   6123SM   C5F 7831   2.733   3.675   6.127 -0.0257 -0.3820  0.3208
   6123SM   H5F 7832   2.681   3.597   6.068 -1.4339 -0.0824  1.1134
   6123SM   H5G 7833   2.806   3.708   6.050  1.2489  0.5076  1.8563
   6123SM   C6F 7834   2.630   3.794   6.139  0.0230  0.3170 -0.3344
   6123SM   H6F 7835   2.687   3.872   6.194  1.6669 -1.0009 -0.1099
   6123SM   H6G 7836   2.549   3.751   6.201  0.1819 -0.2524 -0.5170
   6123SM   C7F 7837   2.573   3.844   6.008 -0.1779  0.1615 -0.5695
   6123SM   H7F 7838   2.521   3.757   5.963 -1.2085  0.8129 -0.6756
   6123SM   H7G 7839   2.658   3.867   5.940  1.0439 -1.1501  0.4526
   6123SM   C8F 7840   2.473   3.962   6.017  0.7057  0.1351 -0.6733
   6123SM   H8F 7841   2.451   4.007   5.918  0.7304  1.7513  0.0230
   6123SM   H8G 7842   2.520   4.042   6.079  3.2756 -0.5485 -1.5856
   6123SM   C9F 7843   2.335   3.913   6.071 -0.1897  0.5076  0.3083
   6123SM   H9F 7844   2.333   3.874   6.175 -0.3019  1.6749  0.7492
   6123SM   H9G 7845   2.309   3.828   6.004  3.2252 -0.9280  0.5863
   6123SM  C10F 7846   2.224   4.015   6.062  0.4256  0.0571 -0.2208
   6123SM  H10F 7847   2.267   4.098   6.122  1.2404 -0.1728 -0.4636
   6123SM  H10G 7848   2.133   3.976   6.110  0.1837  0.0904 -0.6463
   6123SM  C11F 7849   2.195   4.068   5.920 -0.2675 -0.3248  0.6094
   6123SM  H11F 7850   2.265   4.148   5.888 -1.7710  0.8393  0.0662
   6123SM  H11G 7851   2.103   4.129   5.933  0.5819  1.8592 -2.4811
   6123SM  C12F 7852   2.168   3.960   5.818  0.1119 -0.1500  0.0899
   6123SM  H12F 7853   2.081   3.900   5.850  1.0900 -0.8221  1.5809
   6123SM  H12G 7854   2.252   3.888   5.808 -1.2491 -1.9558  1.1193
   6123SM  C13F 7855   2.143   4.022   5.673  0.8013 -0.0725 -0.8378
   6123SM  H13F 7856   2.221   4.100   5.660  2.1589 -1.1820  0.3174
   6123SM  H13G 7857   2.052   4.083   5.681  0.4699 -0.8091  1.8948
   6123SM  C14F 7858   2.160   3.930   5.552 -0.2326  0.0792  0.4272
   6123SM  H14F 7859   2.081   3.854   5.567 -0.3610  0.7038  3.7432
   6123SM  H14G 7860   2.259   3.880   5.562  0.7508  1.5720 -1.2400
   6123SM  C15F 7861   2.161   4.006   5.422  0.7104  0.6447 -0.4634
   6123SM  H15F 7862   2.251   4.071   5.413  0.7565  0.5215 -0.8902
   6123SM  H15G 7863   2.066   4.062   5.409 -0.0390 -0.5941 -0.4813
   6123SM  C16F 7864   2.163   3.908   5.310 -0.2259 -0.1639  0.1154
   6123SM  H16F 7865   2.093   3.823   5.322  0.6307 -0.7952  0.7644
   6123SM  H16G 7866   2.259   3.852   5.303  0.4410  0.9393  0.2004
   6123SM  C17F 7867   2.135   3.966   5.173  0.1027 -0.5473 -0.4003
   6123SM  H17F 7868   2.218   4.029   5.134  1.5568 -0.9401  1.8423
   6123SM  H17G 7869   2.043   4.029   5.176  0.4141 -0.0587 -0.9884
   6123SM  C18F 7870   2.110   3.858   5.072  0.4586 -0.1258  0.1418
   6123SM  H18F 7871   2.033   3.792   5.117  0.7697 -1.2026 -0.8507
   6123SM  H18G 7872   2.193   3.784   5.062  0.0722 -0.3433 -2.2103
   6123SM  C19F 7873   2.055   3.901   4.941 -0.1356 -0.3026 -0.3150
   6123SM  H19F 7874   2.132   3.955   4.883  0.9206 -0.3509  1.0197
   6123SM  H19G 7875   1.976   3.975   4.966 -1.3659 -1.7388  0.1944
   6123SM  C20F 7876   2.005   3.785   4.864 -0.3753  0.4449 -0.8043
   6123SM  H20F 7877   1.953   3.703   4.919 -0.1066  0.3300 -0.7206
   6123SM  H20G 7878   2.092   3.742   4.810  0.7854 -1.7158  2.4891
   6123SM  C21F 7879   1.890   3.841   4.778 -0.2960 -0.0442 -0.1829
   6123SM  H21F 7880   1.926   3.934   4.730 -3.0722  1.0734 -0.2853
   6123SM  H21G 7881   1.809   3.868   4.848  0.6813  1.3652  0.4419
   6123SM  C22F 7882   1.846   3.727   4.692 -0.5017 -0.0969  0.7264
   6123SM  H22F 7883   1.816   3.641   4.755  3.3113 -1.8474  0.4056
   6123SM  H22G 7884   1.934   3.688   4.636 -1.2730 -0.2565 -0.4151
   6123SM  C23F 7885   1.736   3.772   4.591  0.2394  0.0958 -0.3899
   6123SM  H23F 7886   1.647   3.817   4.639  1.1271  1.1546  0.3044
   6123SM  H23G 7887   1.707   3.683   4.531  0.9067  0.6396 -1.5315
   6123SM  H23H 7888   1.779   3.845   4.520  1.2540 -1.4005 -1.3877
   6223SM     N 7889   2.955   3.073   6.937 -0.1101  0.2311  0.5109
   6223SM   C15 7890   3.065   3.055   6.846 -0.9086  0.4004  0.4595
   6223SM  H15A 7891   3.036   3.036   6.744  2.8304  0.1492 -0.6826
   6223SM  H15B 7892   3.115   2.962   6.870  0.1661  1.2508  1.6667
   6223SM  H15C 7893   3.131   3.140   6.849 -1.1042  0.5398  0.8581
   6223SM   C14 7894   2.876   2.951   6.944  0.0105 -0.0357 -0.1456
   6223SM  H14A 7895   2.920   2.880   7.012  0.5241  2.8059  2.7202
   6223SM  H14B 7896   2.857   2.912   6.845 -1.7086  2.0737 -0.7230
   6223SM  H14C 7897   2.776   2.972   6.981 -0.0392  0.4092 -0.5176
   6223SM   C13 7898   3.014   3.101   7.078  0.1710 -0.1274 -0.2854
   6223SM  H13A 7899   3.071   3.193   7.068 -2.6945  1.6507 -1.4909
   6223SM  H13B 7900   3.076   3.020   7.114  0.5462  0.9752  1.7223
   6223SM  H13C 7901   2.936   3.120   7.151 -0.0628 -0.9897 -0.2955
   6223SM   C12 7902   2.869   3.186   6.889 -0.0567  0.4840  0.3176
   6223SM  H12A 7903   2.919   3.280   6.905 -0.9182  0.4976  3.7375
   6223SM  H12B 7904   2.777   3.191   6.947 -0.0079  1.6552  0.3133
   6223SM   C11 7905   2.825   3.190   6.736 -0.4473 -0.4650 -0.6318
   6223SM  H11A 7906   2.919   3.201   6.677 -0.5538  0.0002 -0.7166
   6223SM  H11B 7907   2.763   3.278   6.707  1.5791  1.6173  0.9504
   6223SM     P 7908   2.607   3.059   6.723 -0.3602 -0.0578  0.3529
   6223SM   O13 7909   2.570   2.916   6.752  0.5760 -0.4348  0.7448
   6223SM   O14 7910   2.570   3.146   6.833  0.6266 -0.3405  0.5442
   6223SM   O11 7911   2.535   3.110   6.585  0.1294  0.2820 -0.2819
   6223SM   O12 7912   2.761   3.068   6.696 -0.3487  0.3843  0.2535
   6223SM   C1S 7913   2.559   3.036   6.467  0.5545  0.2423 -0.7549
   6223SM   H1S 7914   2.518   2.934   6.475 -0.6047  0.7183 -0.4850
   6223SM   H1T 7915   2.668   3.035   6.446  0.5066  1.9766 -1.2337
   6223SM    NF 7916   2.474   3.013   6.231 -0.3321  0.0307 -0.1720
   6223SM   HNF 7917   2.545   3.024   6.163  0.5194  0.0175  0.6899
   6223SM   C2S 7918   2.485   3.106   6.342  0.0665 -0.3075  0.3162
   6223SM   H2S 7919   2.386   3.130   6.386 -0.1817  0.5170 -0.6510
   6223SM   C3S 7920   2.565   3.230   6.305 -0.2365  0.0321  0.1233
   6223SM   H3S 7921   2.668   3.204   6.272 -0.0454 -0.5075  1.1153
   6223SM    O3 7922   2.593   3.316   6.418 -0.1470  0.2010 -0.3790
   6223SM   HO3 7923   2.576   3.264   6.497  2.9226  2.4426  2.0044
   6223SM   C4S 7924   2.498   3.305   6.190  0.4061  0.4117 -0.3232
   6223SM   H4S 7925   2.516   3.259   6.092 -0.4079 -0.8862  0.1268
   6223SM   C5S 7926   2.444   3.429   6.197  0.1580  0.6043 -0.1950
   6223SM   H5S 7927   2.452   3.487   6.290 -1.4639  1.6786 -0.6733
   6223SM   C6S 7928   2.372   3.491   6.073  0.0112  0.4064  0.3316
   6223SM   H6S 7929   2.404   3.597   6.069  1.8738 -0.1568 -1.3511
   6223SM   H6T 7930   2.265   3.493   6.100 -0.5355 -1.7998 -1.3583
   6223SM   C7S 7931   2.372   3.424   5.938 -0.4757  0.0919 -0.5713
   6223SM   H7S 7932   2.307   3.334   5.943 -1.1843  0.6087 -0.2570
   6223SM   H7T 7933   2.475   3.393   5.912 -0.3071  0.7557 -0.7055
   6223SM   C8S 7934   2.323   3.506   5.812  0.4379 -0.8129 -0.1925
   6223SM   H8S 7935   2.327   3.432   5.728  1.9713 -0.5241 -0.3943
   6223SM   H8T 7936   2.397   3.584   5.785  0.7487 -0.6139  1.1841
   6223SM   C9S 7937   2.171   3.553   5.827  0.3896 -0.0973 -0.4345
   6223SM   H9S 7938   2.169   3.649   5.882  0.7986  0.4900 -1.4269
   6223SM   H9T 7939   2.117   3.480   5.891  0.2650  0.5339  0.1893
   6223SM  C10S 7940   2.098   3.572   5.698 -0.0517  0.1706 -0.1328
   6223SM  H10S 7941   2.163   3.646   5.648 -2.1927  3.5264  1.6654
   6223SM  H10T 7942   1.999   3.613   5.727 -0.0179  1.2378 -1.4244
   6223SM  C11S 7943   2.067   3.455   5.609 -0.6618  0.4973  0.0694
   6223SM  H11S 7944   2.025   3.379   5.679 -0.5879  1.0208  0.6932
   6223SM  H11T 7945   2.165   3.422   5.568  0.3157  1.5520  1.4789
   6223SM  C12S 7946   1.977   3.494   5.497  0.1593  0.5937 -0.3982
   6223SM  H12S 7947   2.018   3.560   5.418  0.6273 -1.5372 -2.0047
   6223SM  H12T 7948   1.888   3.545   5.541  1.0599  2.5656 -0.7867
   6223SM  C13S 7949   1.922   3.363   5.428 -0.2393  0.1815  0.1004
   6223SM  H13S 7950   1.864   3.324   5.514  1.8343 -0.6909  1.1771
   6223SM  H13T 7951   2.009   3.300   5.399  1.3192  2.4663 -0.4799
   6223SM  C14S 7952   1.827   3.392   5.317  0.5319  0.0257  0.2576
   6223SM  H14S 7953   1.750   3.469   5.337 -0.2551 -0.6471 -0.1035
   6223SM  H14T 7954   1.760   3.309   5.286  0.8715 -0.1386 -0.0564
   6223SM  C15S 7955   1.898   3.423   5.183  0.2098  0.3148 -0.2594
   6223SM  H15S 7956   1.940   3.333   5.134 -0.7432 -0.7000  0.7300
   6223SM  H15T 7957   1.988   3.484   5.205  0.6962  0.1860 -1.8272
   6223SM  C16S 7958   1.805   3.471   5.069  0.3659  0.1810 -0.8919
   6223SM  H16S 7959   1.880   3.494   4.991  1.3436  2.4594  0.6273
   6223SM  H16T 7960   1.759   3.570   5.092  0.6398  0.1484 -0.1797
   6223SM  C17S 7961   1.694   3.372   5.014 -0.7105  0.1531 -0.6466
   6223SM  H17S 7962   1.634   3.345   5.104 -1.2388  0.9206 -0.7574
   6223SM  H17T 7963   1.736   3.272   4.990  1.2701 -0.1184  3.1584
   6223SM  C18S 7964   1.620   3.426   4.890  0.0134  0.3972  0.4025
   6223SM  H18S 7965   1.559   3.349   4.838  2.1107 -1.6957  0.8655
   6223SM  H18T 7966   1.697   3.472   4.826  0.0195  2.0477  1.5302
   6223SM  H18U 7967   1.550   3.510   4.909 -1.7074 -0.4423 -1.7404
   6223SM   C1F 7968   2.386   2.913   6.234 -0.5877 -0.0529  0.4999
   6223SM    OF 7969   2.304   2.914   6.329 -0.6786  0.0586  0.1193
   6223SM   C2F 7970   2.396   2.807   6.128  0.0709 -0.2117  0.4561
   6223SM   H2F 7971   2.409   2.711   6.183  2.5302  0.4846  1.1983
   6223SM   H2G 7972   2.481   2.838   6.063 -1.5087  0.0191 -1.6230
   6223SM   C3F 7973   2.275   2.798   6.030  0.5914 -0.1830  0.2083
   6223SM   H3F 7974   2.179   2.802   6.086  1.6041  0.7007  1.9712
   6223SM   H3G 7975   2.292   2.701   5.978  3.9678 -0.6554  1.9531
   6223SM   C4F 7976   2.278   2.913   5.924  0.1956  0.5267 -0.4344
   6223SM   H4F 7977   2.382   2.924   5.888  0.0527  0.1588 -0.9678
   6223SM   H4G 7978   2.256   3.013   5.968  0.8031  1.4989 -2.2662
   6223SM   C5F 7979   2.190   2.888   5.796  0.0533 -0.3014 -0.0165
   6223SM   H5F 7980   2.084   2.856   5.811 -0.2527  0.3606 -0.7041
   6223SM   H5G 7981   2.242   2.817   5.729  2.1517 -0.0250  1.2495
   6223SM   C6F 7982   2.193   3.026   5.720 -0.0924 -0.0048  0.8674
   6223SM   H6F 7983   2.295   3.069   5.723 -0.7353  1.5056  1.8268
   6223SM   H6G 7984   2.126   3.100   5.768 -1.1740 -2.1416  2.8731
   6223SM   C7F 7985   2.159   2.987   5.571 -0.2020 -0.0739 -0.1694
   6223SM   H7F 7986   2.215   2.895   5.545  1.7567  0.8197  0.6492
   6223SM   H7G 7987   2.198   3.071   5.510  0.6651  0.0712  0.5583
   6223SM   C8F 7988   2.014   2.986   5.539  0.3982  0.1910  0.4428
   6223SM   H8F 7989   1.967   3.076   5.585  1.3127 -0.8041  3.5743
   6223SM   H8G 7990   1.964   2.896   5.581 -1.4953  1.1933  0.4472
   6223SM   C9F 7991   1.991   2.973   5.388 -0.2558  0.0969 -0.0622
   6223SM   H9F 7992   2.028   2.876   5.347 -0.1984  0.1195 -0.0644
   6223SM   H9G 7993   2.053   3.050   5.338  1.5590 -0.9599  0.4536
   6223SM  C10F 7994   1.842   2.997   5.357  0.0501  0.1580  0.4698
   6223SM  H10F 7995   1.805   3.099   5.382  0.8512 -0.2288  3.5949
   6223SM  H10G 7996   1.773   2.930   5.412  0.6199 -1.0598 -0.2388
   6223SM  C11F 7997   1.813   2.972   5.204  0.0008 -0.1386  0.0883
   6223SM  H11F 7998   1.830   2.865   5.179 -2.2319  0.0219 -2.7092
   6223SM  H11G 7999   1.877   3.037   5.140 -0.6171 -0.3596 -0.7681
   6223SM  C12F 8000   1.662   2.992   5.160 -0.2206  0.2552 -0.2941
   6223SM  H12F 8001   1.636   3.100   5.152 -1.3269  0.0544  0.4452
   6223SM  H12G 8002   1.601   2.937   5.235  2.3950 -1.2302  0.8903
   6223SM  C13F 8003   1.649   2.933   5.020  0.6629 -0.4482 -0.3514
   6223SM  H13F 8004   1.646   2.823   5.036  1.4231 -0.2585  1.3507
   6223SM  H13G 8005   1.741   2.951   4.959 -1.3635 -0.0455 -3.4974
   6223SM  C14F 8006   1.517   2.985   4.953  0.0738  0.1654  0.2801
   6223SM  H14F 8007   1.513   3.096   4.951  1.2475  0.2269  0.5513
   6223SM  H14G 8008   1.432   2.955   5.019 -1.0117  0.8457 -0.7699
   6223SM  C15F 8009   1.496   2.928   4.811  0.6855 -0.4230 -0.1721
   6223SM  H15F 8010   1.514   2.818   4.820  0.8514 -0.2439  2.3185
   6223SM  H15G 8011   1.582   2.958   4.747 -0.4999 -0.4214 -1.8223
   6223SM  C16F 8012   1.357   2.969   4.744  1.0305  0.3071 -0.1731
   6223SM  H16F 8013   1.354   3.078   4.724  0.7717  0.2685 -0.3480
   6223SM  H16G 8014   1.277   2.952   4.819 -0.7140 -0.4319 -2.0920
   6223SM  C17F 8015   1.344   2.872   4.626 -0.1105  0.0817  0.5220
   6223SM  H17F 8016   1.359   2.767   4.661 -0.4637 -0.4991 -0.9988
   6223SM  H17G 8017   1.426   2.882   4.551 -0.3944  1.0456  0.3268
   6223SM  C18F 8018   1.209   2.877   4.557 -0.4116  0.3654 -0.0206
   6223SM  H18F 8019   1.213   2.957   4.481 -0.1250 -0.3923 -0.8195
   6223SM  H18G 8020   1.130   2.917   4.624  1.6284  0.4897  2.4510
   6223SM  C19F 8021   1.174   2.743   4.491  0.4562  0.3257 -0.5013
   6223SM  H19F 8022   1.263   2.714   4.431  0.5703  0.0568 -0.2042
   6223SM  H19G 8023   1.095   2.740   4.413  0.6784  2.4373 -0.8662
   6223SM  C20F 8024   1.148   2.621   4.583 -0.5054 -0.4895 -0.4960
   6223SM  H20F 8025   1.043   2.638   4.616 -1.1799 -3.8723 -0.5331
   6223SM  H20G 8026   1.220   2.615   4.667 -1.8481  0.2159  0.7595
   6223SM  C21F 8027   1.132   2.494   4.498 -1.1118 -0.4547  0.3339
   6223SM  H21F 8028   1.222   2.460   4.442 -2.3477 -0.4635 -1.7510
   6223SM  H21G 8029   1.043   2.498   4.432 -0.9764 -3.1917 -0.1415
   6223SM  C22F 8030   1.082   2.380   4.579  0.1055 -0.0490  0.0290
   6223SM  H22F 8031   1.037   2.310   4.504  0.0997 -0.9858  0.8796
   6223SM  H22G 8032   1.005   2.409   4.654  2.4780  1.4991  1.9953
   6223SM  C23F 8033   1.191   2.310   4.663 -0.0570  0.4564  0.0482
   6223SM  H23F 8034   1.157   2.229   4.730  0.7516 -0.7742 -0.9676
   6223SM  H23G 8035   1.260   2.377   4.718 -0.4844 -0.8677  2.2836
   6223SM  H23H 8036   1.262   2.257   4.595  1.9522  3.8067 -0.7003
   6323SM     N 8037   4.052   5.185   7.399  0.0196 -0.0622  0.1532
   6323SM   C15 8038   4.034   5.062   7.483 -0.0688  0.2801  0.0129
   6323SM  H15A 8039   4.123   5.030   7.535 -0.0243 -1.1415 -0.8734
   6323SM  H15B 8040   4.007   4.979   7.419 -3.0146 -0.2283  1.7216
   6323SM  H15C 8041   3.952   5.073   7.553 -0.4303  1.3064 -0.5642
   6323SM   C14 8042   3.920   5.221   7.331 -0.4688  0.3892 -0.6059
   6323SM  H14A 8043   3.849   5.227   7.413  1.5107 -1.4034  1.3970
   6323SM  H14B 8044   3.879   5.142   7.270 -1.7449 -0.1750  0.8951
   6323SM  H14C 8045   3.931   5.317   7.283  0.2781  0.5394 -0.1487
   6323SM   C13 8046   4.086   5.291   7.498  0.0109 -0.0686  1.2082
   6323SM  H13A 8047   4.181   5.267   7.542 -0.1096  0.0257  1.5240
   6323SM  H13B 8048   4.017   5.292   7.581 -0.1668  1.2154  1.0596
   6323SM  H13C 8049   4.099   5.391   7.459 -2.2240  0.1189  0.7599
   6323SM   C12 8050   4.163   5.168   7.299 -0.2659  1.3705 -0.5061
   6323SM  H12A 8051   4.243   5.125   7.357  0.6846  1.9237 -1.3758
   6323SM  H12B 8052   4.197   5.267   7.274  2.3861  0.6520 -0.0230
   6323SM   C11 8053   4.154   5.074   7.172  0.9651 -0.3256  0.2793
   6323SM  H11A 8054   4.248   5.078   7.112 -0.3228 -0.6325 -1.8550
   6323SM  H11B 8055   4.069   5.108   7.110  1.8811  2.2415  0.2976
   6323SM     P 8056   4.216   4.832   7.239 -0.4388  0.4159 -0.3758
   6323SM   O13 8057   4.337   4.878   7.312  0.2156 -0.3813 -0.2582
   6323SM   O14 8058   4.144   4.720   7.302 -0.5903  0.1310 -0.4858
   6323SM   O11 8059   4.276   4.797   7.096 -0.2586  0.4569  0.3057
   6323SM   O12 8060   4.118   4.946   7.210  0.1891  0.5648  0.0275
   6323SM   C1S 8061   4.306   4.660   7.073 -0.1473  0.3486  0.0848
   6323SM   H1S 8062   4.214   4.600   7.089 -1.2911  2.2870  1.0992
   6323SM   H1T 8063   4.389   4.633   7.143  0.4178  2.6106  0.3798
   6323SM    NF 8064   4.287   4.496   6.876 -0.2348  0.1318 -0.2590
   6323SM   HNF 8065   4.335   4.409   6.885  0.8263  0.4909 -1.8926
   6323SM   C2S 8066   4.345   4.625   6.926 -0.1444  0.8628 -0.2193
   6323SM   H2S 8067   4.323   4.717   6.868  0.9036  1.1549 -0.1636
   6323SM   C3S 8068   4.501   4.623   6.906  0.0187 -0.0562 -0.5415
   6323SM   H3S 8069   4.545   4.547   6.975  0.6587  0.4582 -0.3722
   6323SM    O3 8070   4.567   4.741   6.948  0.2220 -0.3409  0.1804
   6323SM   HO3 8071   4.494   4.794   6.979 -1.0320 -2.1983  0.5504
   6323SM   C4S 8072   4.554   4.598   6.764 -0.2543 -0.3318 -0.1516
   6323SM   H4S 8073   4.525   4.665   6.681  0.4613 -0.0074 -0.1544
   6323SM   C5S 8074   4.641   4.497   6.737 -0.0084 -0.1899 -0.0228
   6323SM   H5S 8075   4.672   4.419   6.808  1.6334 -2.1489 -2.7377
   6323SM   C6S 8076   4.693   4.481   6.594  0.6070  0.3960 -0.0427
   6323SM   H6S 8077   4.670   4.376   6.568  2.5817 -0.1294  0.2285
   6323SM   H6T 8078   4.804   4.486   6.591  0.6183  0.2997  0.1891
   6323SM   C7S 8079   4.638   4.570   6.481 -0.1620 -0.0220 -0.3036
   6323SM   H7S 8080   4.639   4.680   6.495  0.7154  0.3918 -3.1000
   6323SM   H7T 8081   4.530   4.550   6.462 -0.9682  1.7390  2.0103
   6323SM   C8S 8082   4.723   4.554   6.355 -0.4469  0.1581 -0.7308
   6323SM   H8S 8083   4.740   4.447   6.334 -1.1058  0.3239 -2.2391
   6323SM   H8T 8084   4.819   4.606   6.376 -0.7279 -0.2914  2.0931
   6323SM   C9S 8085   4.661   4.616   6.233  0.4557 -0.0931  0.6433
   6323SM   H9S 8086   4.623   4.720   6.243 -0.7359 -0.4053 -0.4090
   6323SM   H9T 8087   4.568   4.557   6.224 -0.6726  1.6466  0.4814
   6323SM  C10S 8088   4.755   4.590   6.118  0.5598  1.0723  0.0578
   6323SM  H10S 8089   4.777   4.484   6.094  2.6063  1.6414 -0.6950
   6323SM  H10T 8090   4.853   4.634   6.146  0.4530  0.2629  1.8791
   6323SM  C11S 8091   4.691   4.646   5.985 -0.4987  0.4922 -0.5396
   6323SM  H11S 8092   4.639   4.740   6.013 -1.1049  0.3482 -1.1783
   6323SM  H11T 8093   4.614   4.567   5.974 -1.0212  0.6134  1.6640
   6323SM  C12S 8094   4.774   4.650   5.863 -1.0270  0.0791 -0.0478
   6323SM  H12S 8095   4.815   4.550   5.838 -0.2896  0.3451  0.0721
   6323SM  H12T 8096   4.867   4.708   5.876  0.9170 -2.2370 -2.5749
   6323SM  C13S 8097   4.703   4.725   5.752  0.1917 -0.4170 -0.5711
   6323SM  H13S 8098   4.699   4.836   5.758 -0.7965 -0.3870 -1.4628
   6323SM  H13T 8099   4.595   4.700   5.741 -0.2173  1.3934 -1.0635
   6323SM  C14S 8100   4.771   4.706   5.613 -0.1154  0.1053  0.2532
   6323SM  H14S 8101   4.741   4.611   5.565  0.5464  0.1485 -0.2620
   6323SM  H14T 8102   4.880   4.692   5.629  0.1827 -2.3117 -2.8582
   6323SM  C15S 8103   4.746   4.826   5.523 -0.0507  0.7418  0.4856
   6323SM  H15S 8104   4.810   4.902   5.571 -0.1791  0.2589  1.4467
   6323SM  H15T 8105   4.642   4.866   5.525 -0.0120  0.8259  1.0968
   6323SM  C16S 8106   4.784   4.801   5.376  0.3836  0.7448  0.5273
   6323SM  H16S 8107   4.758   4.891   5.316  5.4549  1.1393 -1.5344
   6323SM  H16T 8108   4.728   4.717   5.328 -0.4711  2.7634 -2.2730
   6323SM  C17S 8109   4.930   4.780   5.351 -0.8692 -0.3408  0.2393
   6323SM  H17S 8110   4.951   4.700   5.425  0.0915 -2.1363 -1.8427
   6323SM  H17T 8111   4.982   4.871   5.386  1.5646 -0.5107 -2.5516
   6323SM  C18S 8112   4.964   4.735   5.211 -0.2103  0.1202 -0.3340
   6323SM  H18S 8113   4.916   4.640   5.180  2.2515 -0.8665 -1.3540
   6323SM  H18T 8114   5.073   4.727   5.194  0.1422 -1.0134  2.1291
   6323SM  H18U 8115   4.938   4.821   5.145  1.6200  0.0708 -1.1599
   6323SM   C1F 8116   4.160   4.497   6.831 -0.3403  0.0777 -0.4300
   6323SM    OF 8117   4.093   4.594   6.831  0.0590  0.3325 -0.1727
   6323SM   C2F 8118   4.094   4.363   6.792  0.3852  0.3454  0.2220
   6323SM   H2F 8119   3.998   4.345   6.845 -0.8936 -0.1297 -2.1254
   6323SM   H2G 8120   4.173   4.286   6.806 -0.2364 -0.3191  0.1588
   6323SM   C3F 8121   4.048   4.353   6.645 -0.1044 -0.0862 -0.3549
   6323SM   H3F 8122   4.139   4.379   6.588 -0.1709  0.9257 -0.0097
   6323SM   H3G 8123   3.964   4.424   6.630 -2.1647 -2.2904  0.0003
   6323SM   C4F 8124   3.980   4.220   6.614 -0.3149 -0.1757  0.5963
   6323SM   H4F 8125   3.901   4.208   6.692  0.2030  0.7351  1.2751
   6323SM   H4G 8126   4.054   4.138   6.613 -1.0667 -0.8689 -0.2101
   6323SM   C5F 8127   3.919   4.223   6.477 -0.1650 -0.0401  0.1067
   6323SM   H5F 8128   3.994   4.256   6.403 -2.3115  0.9701 -1.7528
   6323SM   H5G 8129   3.835   4.297   6.479 -0.2193  0.0035 -2.0550
   6323SM   C6F 8130   3.850   4.088   6.449  0.1770  0.1224 -0.5744
   6323SM   H6F 8131   3.780   4.072   6.534  0.0172  1.6741 -0.3978
   6323SM   H6G 8132   3.925   4.005   6.444 -0.5021 -0.4944 -0.7259
   6323SM   C7F 8133   3.786   4.080   6.313  0.2779  0.2942  0.3046
   6323SM   H7F 8134   3.691   4.138   6.314  0.1821  0.1355  0.4792
   6323SM   H7G 8135   3.745   3.979   6.293 -0.3041  0.7111 -0.6651
   6323SM   C8F 8136   3.870   4.133   6.198  0.7441  1.5254  0.2597
   6323SM   H8F 8137   3.962   4.071   6.192  0.4428  0.8720  1.8443
   6323SM   H8G 8138   3.901   4.239   6.210  1.3932  1.2985  0.6248
   6323SM   C9F 8139   3.806   4.110   6.062  0.2869  0.2075  0.0894
   6323SM   H9F 8140   3.768   4.005   6.056  1.6639 -0.2935 -0.2862
   6323SM   H9G 8141   3.882   4.128   5.983  0.5161  2.2763  0.7174
   6323SM  C10F 8142   3.695   4.205   6.029  1.0606 -0.1038 -0.8447
   6323SM  H10F 8143   3.734   4.299   5.984 -0.6267  1.4113  0.6892
   6323SM  H10G 8144   3.635   4.228   6.120 -0.3796 -1.5702 -1.3757
   6323SM  C11F 8145   3.593   4.144   5.932 -0.1421 -0.6473  0.3414
   6323SM  H11F 8146   3.539   4.073   5.998  0.5177 -2.4415 -0.9666
   6323SM  H11G 8147   3.645   4.098   5.845  1.4921 -0.4397  1.1622
   6323SM  C12F 8148   3.486   4.248   5.879  0.3292  0.1545 -0.0472
   6323SM  H12F 8149   3.535   4.333   5.826  0.8655  0.5832  1.1071
   6323SM  H12G 8150   3.440   4.291   5.971 -0.0810 -2.4004  1.0069
   6323SM  C13F 8151   3.377   4.196   5.785 -0.2238 -0.2517  0.3231
   6323SM  H13F 8152   3.315   4.287   5.770  1.4222  1.1530  1.6122
   6323SM  H13G 8153   3.318   4.109   5.821 -0.5712 -0.8455 -1.5456
   6323SM  C14F 8154   3.440   4.156   5.651 -0.7210  0.2341 -0.1690
   6323SM  H14F 8155   3.376   4.086   5.594  2.6043 -1.0861 -2.6052
   6323SM  H14G 8156   3.533   4.100   5.674 -0.1329  0.9855 -0.6472
   6323SM  C15F 8157   3.463   4.266   5.554 -1.0834  0.1552  0.2334
   6323SM  H15F 8158   3.497   4.360   5.601 -0.7060  0.5563 -0.8082
   6323SM  H15G 8159   3.365   4.298   5.512 -0.9822  0.9159  0.5647
   6323SM  C16F 8160   3.554   4.223   5.437  0.5390  0.6539 -0.1119
   6323SM  H16F 8161   3.511   4.134   5.387  1.3010 -0.5405  1.2741
   6323SM  H16G 8162   3.655   4.198   5.476 -0.0493 -1.7142  0.0692
   6323SM  C17F 8163   3.556   4.336   5.332  0.1795  0.0790  0.3530
   6323SM  H17F 8164   3.582   4.431   5.384  0.7409  0.7228 -1.0588
   6323SM  H17G 8165   3.454   4.338   5.287  0.6633 -0.3540 -0.7857
   6323SM  C18F 8166   3.665   4.316   5.226 -0.0161  0.1607 -0.1419
   6323SM  H18F 8167   3.646   4.215   5.183  1.2389 -0.1437 -0.0303
   6323SM  H18G 8168   3.766   4.314   5.272 -0.2854  0.8768  0.4964
   6323SM  C19F 8169   3.665   4.431   5.133  0.1776 -0.5841 -0.2414
   6323SM  H19F 8170   3.686   4.525   5.187  2.9813  0.2677 -2.5215
   6323SM  H19G 8171   3.564   4.438   5.088 -0.0116 -1.6073 -0.0092
   6323SM  C20F 8172   3.772   4.430   5.024  0.1839  0.5985 -0.1751
   6323SM  H20F 8173   3.763   4.351   4.946  0.8315  0.7033 -0.3610
   6323SM  H20G 8174   3.861   4.408   5.085 -0.5027 -1.1217  0.2722
   6323SM  C21F 8175   3.779   4.562   4.948  0.0316  0.1240  0.4075
   6323SM  H21F 8176   3.879   4.573   4.901  0.5434 -0.8956  1.2063
   6323SM  H21G 8177   3.769   4.648   5.018 -1.4333 -0.6662  1.2120
   6323SM  C22F 8178   3.678   4.565   4.837 -0.2419 -0.5229 -0.0353
   6323SM  H22F 8179   3.576   4.562   4.880 -2.3289  0.0742 -4.3917
   6323SM  H22G 8180   3.701   4.484   4.765  1.9495  1.3002 -1.5222
   6323SM  C23F 8181   3.677   4.702   4.766  0.0064  0.5669 -0.0274
   6323SM  H23F 8182   3.762   4.705   4.695 -0.5054 -1.2185 -0.7734
   6323SM  H23G 8183   3.695   4.784   4.839  0.2111  0.8537 -0.3980
   6323SM  H23H 8184   3.585   4.715   4.704  0.6777  0.0123 -1.1697
   6423SM     N 8185   4.655   3.340   7.523  0.0348 -0.3164 -0.2976
   6423SM   C15 8186   4.741   3.349   7.649  0.6068  0.0794  0.4690
   6423SM  H15A 8187   4.773   3.451   7.668  0.5903  0.0589  0.6075
   6423SM  H15B 8188   4.825   3.283   7.636  0.2046 -0.1438 -1.2907
   6423SM  H15C 8189   4.685   3.313   7.734  0.6022 -0.5103  0.2161
   6423SM   C14 8190   4.721   3.416   7.415  0.2481  0.9407 -0.0893
   6423SM  H14A 8191   4.691   3.374   7.320  0.6641 -0.2107  0.2635
   6423SM  H14B 8192   4.829   3.416   7.421  0.2354 -1.2490  1.9808
   6423SM  H14C 8193   4.688   3.518   7.418 -1.0591  0.5696 -0.7597
   6423SM   C13 8194   4.665   3.194   7.485 -0.6604  0.2012 -0.0101
   6423SM  H13A 8195   4.765   3.176   7.447 -1.5466  1.0037 -2.9732
   6423SM  H13B 8196   4.606   3.165   7.400 -0.1920 -1.2750  0.1379
   6423SM  H13C 8197   4.638   3.126   7.564  0.7997  1.4907  1.6949
   6423SM   C12 8198   4.513   3.373   7.553 -0.1845 -0.1541 -0.1267
   6423SM  H12A 8199   4.515   3.475   7.587 -0.8374 -0.4170  0.7293
   6423SM  H12B 8200   4.486   3.308   7.635 -1.9270  0.6237 -0.0356
   6423SM   C11 8201   4.416   3.361   7.438  0.4558 -0.8264 -0.2694
   6423SM  H11A 8202   4.431   3.432   7.354 -0.2637  0.0975  0.3715
   6423SM  H11B 8203   4.319   3.391   7.483  0.3188  0.4135 -1.3288
   6423SM     P 8204   4.281   3.137   7.435 -0.1673 -0.4211  0.1889
   6423SM   O13 8205   4.313   2.994   7.396 -0.7951  0.5524 -0.1234
   6423SM   O14 8206   4.232   3.159   7.571 -0.3971  0.0590 -0.5262
   6423SM   O11 8207   4.163   3.178   7.342 -0.2544  0.1527  0.7805
   6423SM   O12 8208   4.402   3.227   7.397 -0.0469 -0.8878  0.5654
   6423SM   C1S 8209   4.168   3.275   7.232  0.1040 -0.0080 -0.6562
   6423SM   H1S 8210   4.230   3.363   7.261 -0.6007  0.3312 -0.1310
   6423SM   H1T 8211   4.065   3.315   7.219  1.4271  3.0763 -2.9250
   6423SM    NF 8212   4.221   3.319   6.994 -0.2890  0.0175  0.3823
   6423SM   HNF 8213   4.170   3.297   6.912 -2.4400 -2.0362  2.1223
   6423SM   C2S 8214   4.225   3.219   7.101  0.0499 -0.1910 -0.2565
   6423SM   H2S 8215   4.327   3.191   7.134 -0.2590  0.0040  0.9086
   6423SM   C3S 8216   4.149   3.092   7.058 -0.3880  0.6114  0.4565
   6423SM   H3S 8217   4.053   3.113   7.007 -0.7379 -4.1108 -1.3212
   6423SM    O3 8218   4.115   2.997   7.162  0.0524 -1.0602  0.6219
   6423SM   HO3 8219   4.153   3.042   7.239 -0.9727  0.1719  0.4380
   6423SM   C4S 8220   4.232   3.015   6.956 -0.0272 -0.0253  0.3489
   6423SM   H4S 8221   4.199   3.037   6.853  0.6093 -1.6161 -0.2286
   6423SM   C5S 8222   4.341   2.933   6.966  0.3594  0.1766  0.1466
   6423SM   H5S 8223   4.376   2.912   7.068  0.7930  2.2500  0.4616
   6423SM   C6S 8224   4.419   2.857   6.860  0.2830 -0.5742 -1.0243
   6423SM   H6S 8225   4.402   2.747   6.863 -3.3070 -0.1179 -0.3055
   6423SM   H6T 8226   4.528   2.875   6.869  0.1238 -0.5187  1.2915
   6423SM   C7S 8227   4.382   2.899   6.714 -0.3693 -0.3600  0.7197
   6423SM   H7S 8228   4.392   3.010   6.708  1.1947 -0.4673  0.8670
   6423SM   H7T 8229   4.277   2.875   6.689 -0.4529  0.1942  0.5183
   6423SM   C8S 8230   4.454   2.822   6.605 -0.6430 -0.2586 -0.0225
   6423SM   H8S 8231   4.449   2.714   6.628  2.9103 -0.8879 -1.5521
   6423SM   H8T 8232   4.561   2.853   6.608 -0.3172 -1.4507  1.0754
   6423SM   C9S 8233   4.414   2.856   6.460  0.2533 -0.2105  0.4621
   6423SM   H9S 8234   4.425   2.965   6.441  2.8172 -0.3532  0.8248
   6423SM   H9T 8235   4.307   2.826   6.453 -0.4302  2.1422 -0.0393
   6423SM  C10S 8236   4.468   2.753   6.361 -0.2489 -0.0804  0.0867
   6423SM  H10S 8237   4.473   2.647   6.393  0.6922  0.0895  0.5254
   6423SM  H10T 8238   4.569   2.790   6.334 -1.4311  1.6917 -2.3183
   6423SM  C11S 8239   4.378   2.768   6.229  0.0121  0.0314 -0.3316
   6423SM  H11S 8240   4.386   2.878   6.216 -0.9183  0.8340  4.1745
   6423SM  H11T 8241   4.269   2.754   6.243  0.0555 -0.5459 -0.5423
   6423SM  C12S 8242   4.439   2.703   6.109 -0.0997  0.0563 -0.7561
   6423SM  H12S 8243   4.428   2.593   6.115  0.5174  0.0127 -0.3591
   6423SM  H12T 8244   4.546   2.728   6.092  0.4812 -1.5998  0.2485
   6423SM  C13S 8245   4.378   2.747   5.979 -0.4737  0.6778 -0.4200
   6423SM  H13S 8246   4.354   2.855   5.981 -1.3688  0.4770  0.4892
   6423SM  H13T 8247   4.278   2.699   5.962 -0.0064  0.2827 -2.2275
   6423SM  C14S 8248   4.457   2.707   5.856  0.1194  0.3988 -0.0432
   6423SM  H14S 8249   4.471   2.598   5.870 -2.1368 -0.0787 -1.0422
   6423SM  H14T 8250   4.561   2.744   5.864  1.1139 -2.5167  2.2976
   6423SM  C15S 8251   4.386   2.747   5.720 -0.3837  0.9240  0.0690
   6423SM  H15S 8252   4.395   2.858   5.718  1.0985  0.8586  1.3351
   6423SM  H15T 8253   4.285   2.703   5.705  0.3797 -1.0403  0.3439
   6423SM  C16S 8254   4.472   2.701   5.605  0.2335  0.0480  0.6383
   6423SM  H16S 8255   4.465   2.591   5.588 -1.6568  0.0483  1.2392
   6423SM  H16T 8256   4.575   2.741   5.617 -0.4243  1.6113  1.3064
   6423SM  C17S 8257   4.445   2.759   5.466  0.1198  0.7220 -0.1549
   6423SM  H17S 8258   4.473   2.866   5.465 -0.3888  0.8629 -1.8890
   6423SM  H17T 8259   4.337   2.748   5.444  0.3574  0.7274 -1.4131
   6423SM  C18S 8260   4.514   2.689   5.360 -0.0606  0.7993 -0.2964
   6423SM  H18S 8261   4.500   2.755   5.272  1.1902  3.3529  1.3099
   6423SM  H18T 8262   4.478   2.587   5.335 -1.5026  1.3559 -0.5997
   6423SM  H18U 8263   4.625   2.692   5.364 -0.1041  1.6015  0.8738
   6423SM   C1F 8264   4.294   3.434   7.000 -0.0055 -0.5390 -0.0584
   6423SM    OF 8265   4.385   3.445   7.082 -0.1167  0.2023 -0.1108
   6423SM   C2F 8266   4.265   3.535   6.891  0.2346 -0.3024 -0.0054
   6423SM   H2F 8267   4.172   3.588   6.923  0.4119 -0.8260  1.4484
   6423SM   H2G 8268   4.232   3.486   6.797  0.8100 -1.1827  0.2413
   6423SM   C3F 8269   4.375   3.640   6.863  0.5133  0.2668  0.2451
   6423SM   H3F 8270   4.383   3.692   6.961 -2.7149  2.0901 -0.3124
   6423SM   H3G 8271   4.332   3.722   6.801  1.4490  0.1023 -0.6524
   6423SM   C4F 8272   4.512   3.591   6.802  0.8277  0.5484 -0.1085
   6423SM   H4F 8273   4.502   3.482   6.782 -0.7280  0.5791  0.3737
   6423SM   H4G 8274   4.591   3.603   6.879  1.9392  1.0063 -1.2808
   6423SM   C5F 8275   4.548   3.653   6.669 -0.3792 -0.8795 -0.2025
   6423SM   H5F 8276   4.640   3.598   6.639 -0.4249 -0.8720 -0.3537
   6423SM   H5G 8277   4.562   3.761   6.689 -2.7984 -0.8907  2.0723
   6423SM   C6F 8278   4.436   3.637   6.565 -0.2784 -0.3028  0.2789
   6423SM   H6F 8279   4.351   3.706   6.584  0.7252  1.6017 -1.6940
   6423SM   H6G 8280   4.417   3.528   6.570 -0.5538 -0.2623  0.0736
   6423SM   C7F 8281   4.480   3.671   6.421 -0.5515  0.1737 -0.4710
   6423SM   H7F 8282   4.559   3.594   6.406 -1.1437 -0.4715 -0.3309
   6423SM   H7G 8283   4.526   3.772   6.416  2.0114 -0.9586 -1.9187
   6423SM   C8F 8284   4.374   3.664   6.314  0.0662  0.2929  0.3935
   6423SM   H8F 8285   4.299   3.738   6.349  1.2368  1.6193  0.1840
   6423SM   H8G 8286   4.315   3.570   6.316 -0.9303  0.8852 -0.2778
   6423SM   C9F 8287   4.412   3.691   6.167 -0.6397 -0.5117 -0.6602
   6423SM   H9F 8288   4.464   3.603   6.123 -2.0973 -1.8869  0.2883
   6423SM   H9G 8289   4.470   3.786   6.165 -1.7157  0.2955  2.3335
   6423SM  C10F 8290   4.287   3.719   6.077 -0.2297  0.0709 -0.5013
   6423SM  H10F 8291   4.237   3.806   6.125  0.7163 -0.0706  0.7971
   6423SM  H10G 8292   4.217   3.632   6.081  0.6285 -0.6089  0.0231
   6423SM  C11F 8293   4.317   3.743   5.930 -0.1581 -0.5356 -0.1481
   6423SM  H11F 8294   4.358   3.656   5.874  1.9249  0.2884  0.0030
   6423SM  H11G 8295   4.382   3.834   5.928 -0.7523 -0.1120 -1.3435
   6423SM  C12F 8296   4.192   3.787   5.844  0.1279  0.1149 -0.3092
   6423SM  H12F 8297   4.116   3.820   5.917  0.6196  0.7664 -0.0729
   6423SM  H12G 8298   4.152   3.690   5.808 -1.1451  0.6596 -0.4101
   6423SM  C13F 8299   4.203   3.884   5.725 -0.1705  0.2996 -0.4240
   6423SM  H13F 8300   4.289   3.951   5.744  1.4405 -1.4892 -1.0552
   6423SM  H13G 8301   4.114   3.950   5.710 -0.6470 -0.8814 -3.6429
   6423SM  C14F 8302   4.210   3.808   5.594 -0.3559 -0.0983 -0.1921
   6423SM  H14F 8303   4.114   3.759   5.569  0.1290 -2.1849  1.6639
   6423SM  H14G 8304   4.271   3.716   5.608 -1.8770 -0.9808  0.8648
   6423SM  C15F 8305   4.258   3.898   5.480 -0.0466  0.0131  0.1949
   6423SM  H15F 8306   4.341   3.967   5.509 -1.2276  1.1745  0.9455
   6423SM  H15G 8307   4.178   3.971   5.456  1.0818  2.3313  2.8667
   6423SM  C16F 8308   4.293   3.810   5.359 -0.6425 -0.1257 -0.6066
   6423SM  H16F 8309   4.195   3.768   5.328 -2.1240  2.1883  0.6311
   6423SM  H16G 8310   4.352   3.722   5.391  0.3113  1.0560  1.0739
   6423SM  C17F 8311   4.360   3.885   5.245 -0.3941 -0.4372  0.0386
   6423SM  H17F 8312   4.457   3.919   5.286 -0.9687 -2.2849  3.2276
   6423SM  H17G 8313   4.301   3.978   5.231 -0.5899 -0.4735  0.6210
   6423SM  C18F 8314   4.359   3.809   5.107  0.4416 -0.5582  0.3468
   6423SM  H18F 8315   4.407   3.882   5.037  1.5674 -2.8753 -1.4606
   6423SM  H18G 8316   4.256   3.802   5.068 -0.2456  2.2241  1.4586
   6423SM  C19F 8317   4.425   3.672   5.105 -0.1308  0.4418  0.0815
   6423SM  H19F 8318   4.353   3.598   5.147  0.6216  0.1877  0.9465
   6423SM  H19G 8319   4.517   3.670   5.167  1.0769  2.9600 -1.4610
   6423SM  C20F 8320   4.464   3.626   4.969  0.5057 -0.3117 -0.0569
   6423SM  H20F 8321   4.501   3.719   4.921  1.6947 -0.7361  0.0104
   6423SM  H20G 8322   4.374   3.596   4.912 -0.7137  1.1216  1.0304
   6423SM  C21F 8323   4.578   3.522   4.965 -0.2722 -0.2646 -0.2387
   6423SM  H21F 8324   4.531   3.430   5.005 -1.1670 -0.7398 -2.2253
   6423SM  H21G 8325   4.668   3.553   5.022  1.6296 -0.8563 -2.7350
   6423SM  C22F 8326   4.621   3.494   4.819 -0.1777 -0.4383  0.2568
   6423SM  H22F 8327   4.630   3.597   4.778  1.2016  0.6644  3.0909
   6423SM  H22G 8328   4.547   3.441   4.754 -1.1644 -1.9596  2.5039
   6423SM  C23F 8329   4.750   3.412   4.806 -0.0747  0.2697 -0.2487
   6423SM  H23F 8330   4.798   3.419   4.706 -0.0195 -1.6741 -0.3863
   6423SM  H23G 8331   4.732   3.303   4.808  1.5592 -0.0588 -1.1380
   6423SM  H23H 8332   4.817   3.435   4.892 -1.0406 -0.9167  0.8641
   6523SM     N 8333   5.850   3.883   8.100 -0.1169 -0.3435  0.3277
   6523SM   C15 8334   5.952   3.941   8.195  0.4982  0.3203  0.1319
   6523SM  H15A 8335   6.040   3.951   8.133  0.1697 -2.3572 -0.8907
   6523SM  H15B 8336   5.978   3.873   8.276  0.5630  2.2181  1.7850
   6523SM  H15C 8337   5.929   4.042   8.226  0.2888  0.3756 -0.2055
   6523SM   C14 8338   5.721   3.883   8.174 -0.4124 -0.2854  0.5574
   6523SM  H14A 8339   5.724   3.820   8.262 -0.3588  0.4538  1.0944
   6523SM  H14B 8340   5.649   3.851   8.100  0.3710  2.3791 -1.5196
   6523SM  H14C 8341   5.689   3.981   8.205  0.7419  0.2354  0.1407
   6523SM   C13 8342   5.837   3.967   7.981  0.7916  0.3249  0.6377
   6523SM  H13A 8343   5.775   3.911   7.912  0.6974  0.1809  0.8411
   6523SM  H13B 8344   5.936   3.994   7.947  0.9955 -0.6433  0.4349
   6523SM  H13C 8345   5.792   4.059   8.014  2.2966  0.4366  2.5292
   6523SM   C12 8346   5.888   3.740   8.056  0.2950 -0.6742 -0.3604
   6523SM  H12A 8347   5.892   3.678   8.145  0.5490 -0.8131 -0.4681
   6523SM  H12B 8348   5.990   3.743   8.020  1.4927  2.7273  2.7395
   6523SM   C11 8349   5.802   3.675   7.944 -0.2755  0.1210 -0.8140
   6523SM  H11A 8350   5.847   3.575   7.929  0.3212  0.4580 -1.3463
   6523SM  H11B 8351   5.814   3.729   7.847  1.8657  4.4417  1.5793
   6523SM     P 8352   5.537   3.712   7.895  0.0124  0.0036 -0.3479
   6523SM   O13 8353   5.429   3.619   7.923  0.0331  0.2731  0.5538
   6523SM   O14 8354   5.521   3.857   7.933  0.3305  0.2682  0.2177
   6523SM   O11 8355   5.585   3.696   7.747 -0.1196 -0.0601 -0.3213
   6523SM   O12 8356   5.667   3.657   7.976  1.1925 -0.6719  0.0864
   6523SM   C1S 8357   5.487   3.724   7.639 -0.2786 -0.2031  0.3824
   6523SM   H1S 8358   5.428   3.817   7.659  2.0234  1.2534  0.7052
   6523SM   H1T 8359   5.419   3.637   7.629  0.1804 -0.6693  1.2238
   6523SM    NF 8360   5.452   3.758   7.403 -0.2646 -0.0670  0.0267
   6523SM   HNF 8361   5.429   3.678   7.348 -0.8182  0.8692 -1.1580
   6523SM   C2S 8362   5.558   3.742   7.497  0.7203 -0.1421 -0.3969
   6523SM   H2S 8363   5.621   3.833   7.496 -0.5620  0.7897  0.6244
   6523SM   C3S 8364   5.649   3.624   7.466  0.1661  0.7545  0.1263
   6523SM   H3S 8365   5.599   3.525   7.471 -1.0584  1.3790  0.8811
   6523SM    O3 8366   5.754   3.612   7.559 -0.1779 -0.1376 -0.1682
   6523SM   HO3 8367   5.715   3.655   7.635 -1.2464 -1.8192  0.2918
   6523SM   C4S 8368   5.705   3.627   7.328 -0.0188 -0.4941  0.3402
   6523SM   H4S 8369   5.628   3.597   7.255  0.3429 -0.0471 -0.2408
   6523SM   C5S 8370   5.830   3.657   7.280  0.0061  0.5823 -0.8439
   6523SM   H5S 8371   5.910   3.675   7.353 -0.2804  1.1178 -0.6567
   6523SM   C6S 8372   5.861   3.657   7.131 -0.2013  0.1166  0.2233
   6523SM   H6S 8373   5.952   3.594   7.120  0.4969  1.3866 -1.7095
   6523SM   H6T 8374   5.887   3.763   7.111 -0.9532  0.6826  1.9948
   6523SM   C7S 8375   5.752   3.616   7.029  0.3596  0.3082  0.0260
   6523SM   H7S 8376   5.669   3.690   7.039  0.6309  0.9959 -2.1664
   6523SM   H7T 8377   5.723   3.513   7.056 -2.0383  1.3966  1.9551
   6523SM   C8S 8378   5.811   3.610   6.887  0.4844 -0.4174 -0.3320
   6523SM   H8S 8379   5.911   3.561   6.890  0.0805 -1.2589 -0.2202
   6523SM   H8T 8380   5.816   3.715   6.853 -2.1580 -0.4380 -0.9752
   6523SM   C9S 8381   5.737   3.514   6.800 -0.5403  0.5337  0.5234
   6523SM   H9S 8382   5.629   3.538   6.804 -0.9000 -1.0938  1.4549
   6523SM   H9T 8383   5.739   3.414   6.848  0.9687  0.6130  0.6621
   6523SM  C10S 8384   5.798   3.505   6.655  0.2766  0.5413  0.5842
   6523SM  H10S 8385   5.899   3.462   6.675 -0.6444 -0.9520  2.3070
   6523SM  H10T 8386   5.820   3.608   6.618 -1.0028  1.0611  1.2141
   6523SM  C11S 8387   5.720   3.420   6.553 -0.8817 -0.5132 -0.1119
   6523SM  H11S 8388   5.615   3.442   6.582 -0.3523 -0.2167  1.7267
   6523SM  H11T 8389   5.736   3.312   6.572  3.5381  0.2306  1.6445
   6523SM  C12S 8390   5.750   3.445   6.410  0.1781 -0.6559  0.4606
   6523SM  H12S 8391   5.859   3.425   6.395  0.2419 -0.9055  1.1895
   6523SM  H12T 8392   5.740   3.549   6.373  2.7674 -1.3069 -2.4955
   6523SM  C13S 8393   5.679   3.344   6.320  1.0607  0.2641  0.5891
   6523SM  H13S 8394   5.570   3.366   6.324  0.9471 -0.1229 -0.1347
   6523SM  H13T 8395   5.696   3.238   6.348 -1.9165 -0.6873 -0.7666
   6523SM  C14S 8396   5.718   3.357   6.170 -0.1779 -0.4936  0.0213
   6523SM  H14S 8397   5.659   3.281   6.115  1.3234  1.1634 -4.3403
   6523SM  H14T 8398   5.827   3.344   6.152 -0.1181 -1.7002  1.1091
   6523SM  C15S 8399   5.683   3.496   6.110  0.0100 -0.8263 -0.1327
   6523SM  H15S 8400   5.718   3.586   6.163  1.2512 -2.6456  2.3444
   6523SM  H15T 8401   5.574   3.487   6.090  0.0135  0.2032 -0.6792
   6523SM  C16S 8402   5.745   3.513   5.971  0.1534 -0.1331 -0.1923
   6523SM  H16S 8403   5.724   3.429   5.900 -0.3298  0.2492 -0.5140
   6523SM  H16T 8404   5.856   3.516   5.981  0.1189  1.8985 -0.0996
   6523SM  C17S 8405   5.687   3.630   5.910 -0.0969 -0.4619 -0.1177
   6523SM  H17S 8406   5.685   3.709   5.988  0.3599 -0.3523 -0.2126
   6523SM  H17T 8407   5.579   3.621   5.888 -0.3712  0.0141  0.9814
   6523SM  C18S 8408   5.766   3.701   5.793 -0.4377 -0.0944  0.1523
   6523SM  H18S 8409   5.877   3.698   5.800 -0.3594  0.5206 -0.5822
   6523SM  H18T 8410   5.742   3.809   5.780  1.2054  0.3538  0.6154
   6523SM  H18U 8411   5.740   3.667   5.690  1.3101 -1.0507 -0.0035
   6523SM   C1F 8412   5.378   3.868   7.404 -0.1473 -0.3322  0.1803
   6523SM    OF 8413   5.408   3.970   7.469 -0.0596  0.7223 -0.2838
   6523SM   C2F 8414   5.253   3.882   7.324  0.8817 -0.6325  0.0021
   6523SM   H2F 8415   5.169   3.834   7.379 -1.0762  0.5583 -1.7784
   6523SM   H2G 8416   5.250   3.836   7.223 -0.4694 -0.3042 -0.1252
   6523SM   C3F 8417   5.221   4.027   7.290  0.5015  0.4218 -0.3562
   6523SM   H3F 8418   5.312   4.072   7.245  1.0298  1.2332  1.4386
   6523SM   H3G 8419   5.204   4.094   7.377  0.8487  0.2437 -0.1515
   6523SM   C4F 8420   5.099   4.048   7.198 -0.1905 -0.3812 -0.7172
   6523SM   H4F 8421   5.074   4.156   7.197 -0.2052 -0.3562 -2.8963
   6523SM   H4G 8422   5.006   3.992   7.225  0.7575 -1.3396  0.7027
   6523SM   C5F 8423   5.127   4.003   7.053  0.0072  0.2523 -0.4450
   6523SM   H5F 8424   5.169   3.900   7.050 -1.0939 -0.2098 -0.2596
   6523SM   H5G 8425   5.202   4.070   7.006 -0.4864  0.2777 -1.2250
   6523SM   C6F 8426   4.998   4.004   6.969  0.3691 -0.1699 -0.4204
   6523SM   H6F 8427   4.987   4.111   6.941 -2.3834 -0.5290 -1.0231
   6523SM   H6G 8428   4.909   3.976   7.030  0.5720  2.1911  1.0782
   6523SM   C7F 8429   5.000   3.909   6.846  0.0339  0.2056  0.3452
   6523SM   H7F 8430   4.981   3.806   6.881 -0.5495  0.4623  0.8149
   6523SM   H7G 8431   5.103   3.923   6.806  0.8486 -1.9552  1.5719
   6523SM   C8F 8432   4.889   3.928   6.742  0.2157 -0.1178  0.0559
   6523SM   H8F 8433   4.891   4.034   6.707 -0.5352  0.4760  1.7185
   6523SM   H8G 8434   4.792   3.910   6.792 -0.6841  1.0957 -1.1961
   6523SM   C9F 8435   4.904   3.833   6.620 -0.1548 -0.3001  0.9069
   6523SM   H9F 8436   4.900   3.727   6.652  1.4979 -1.4588 -2.2837
   6523SM   H9G 8437   5.009   3.838   6.583 -0.0586  1.6099  1.3172
   6523SM  C10F 8438   4.812   3.881   6.508 -0.6775  0.2102 -0.5184
   6523SM  H10F 8439   4.850   3.983   6.483 -2.0438  1.1355  0.9662
   6523SM  H10G 8440   4.714   3.896   6.557 -0.0270  1.0349  0.5983
   6523SM  C11F 8441   4.813   3.788   6.389  0.3847  0.0166  0.3317
   6523SM  H11F 8442   4.757   3.696   6.414 -0.1292  0.1213 -0.4193
   6523SM  H11G 8443   4.919   3.763   6.367  0.6579  0.3346  1.2343
   6523SM  C12F 8444   4.752   3.847   6.258 -0.0973  0.1515  0.1120
   6523SM  H12F 8445   4.816   3.936   6.241  0.2890 -0.2936 -0.8540
   6523SM  H12G 8446   4.650   3.888   6.273 -0.2916 -0.4337  0.4532
   6523SM  C13F 8447   4.761   3.754   6.138 -0.0848  0.6591 -0.4968
   6523SM  H13F 8448   4.674   3.685   6.147 -0.3037  1.1520  1.9434
   6523SM  H13G 8449   4.846   3.686   6.160  0.0194  1.0773  0.4717
   6523SM  C14F 8450   4.769   3.824   6.002  0.1340 -0.4354 -0.3315
   6523SM  H14F 8451   4.878   3.839   5.982  1.3594 -0.1927  5.0546
   6523SM  H14G 8452   4.718   3.922   5.993  0.7731  0.2929  2.9015
   6523SM  C15F 8453   4.698   3.734   5.895  0.7989  0.4923 -0.3910
   6523SM  H15F 8454   4.591   3.739   5.923  0.4500  0.4618 -1.6276
   6523SM  H15G 8455   4.736   3.631   5.909 -1.5448 -0.0643  3.1461
   6523SM  C16F 8456   4.713   3.783   5.744  0.2070 -1.3257  0.2328
   6523SM  H16F 8457   4.818   3.809   5.724  0.2268 -1.1080  0.6187
   6523SM  H16G 8458   4.654   3.876   5.732  1.3828 -0.5020  0.7343
   6523SM  C17F 8459   4.648   3.686   5.647  0.0740 -0.4352 -0.4091
   6523SM  H17F 8460   4.548   3.652   5.682  0.2921 -1.6124 -0.8908
   6523SM  H17G 8461   4.708   3.594   5.637  0.4217 -0.0500 -2.2908
   6523SM  C18F 8462   4.639   3.745   5.509  0.3065  0.2115  0.0808
   6523SM  H18F 8463   4.568   3.831   5.510  0.2862  0.1948  1.0898
   6523SM  H18G 8464   4.593   3.666   5.446  1.0529 -1.1694  1.2285
   6523SM  C19F 8465   4.773   3.813   5.462 -0.2108  0.0857  0.1829
   6523SM  H19F 8466   4.857   3.741   5.447  1.9139  2.4818 -0.2041
   6523SM  H19G 8467   4.810   3.880   5.542 -1.4501 -0.7151  1.4593
   6523SM  C20F 8468   4.752   3.906   5.331 -0.3457 -0.2175 -0.1096
   6523SM  H20F 8469   4.693   3.994   5.363 -2.9041 -2.1211  0.7358
   6523SM  H20G 8470   4.702   3.845   5.253 -0.3491  0.6629 -0.8178
   6523SM  C21F 8471   4.883   3.962   5.271 -0.3526 -0.5059  0.1770
   6523SM  H21F 8472   4.906   3.888   5.191 -1.1000  1.4158 -1.9356
   6523SM  H21G 8473   4.958   3.969   5.352  0.6527 -2.6479 -0.5150
   6523SM  C22F 8474   4.858   4.099   5.208  0.2125 -0.2223 -0.1617
   6523SM  H22F 8475   4.758   4.110   5.162 -0.1732  1.1008  0.9531
   6523SM  H22G 8476   4.927   4.116   5.123 -0.2738 -0.9362 -0.7193
   6523SM  C23F 8477   4.870   4.223   5.291 -0.3020  0.3423 -0.6258
   6523SM  H23F 8478   4.836   4.305   5.224  2.3760 -0.2314 -2.8878
   6523SM  H23G 8479   4.976   4.231   5.323  0.8923  1.0063 -4.2888
   6523SM  H23H 8480   4.798   4.221   5.376 -1.6573 -0.9473 -1.7320
   6623SM     N 8481   4.203   1.917   7.754  0.2992  0.9008 -0.6466
   6623SM   C15 8482   4.181   1.779   7.825  0.2560 -0.0573  0.0124
   6623SM  H15A 8483   4.081   1.746   7.804  0.1094  0.8871 -0.8585
   6623SM  H15B 8484   4.186   1.790   7.932 -1.4388  4.7815 -0.1568
   6623SM  H15C 8485   4.259   1.714   7.788  1.1915  0.0513  1.7086
   6623SM   C14 8486   4.074   1.994   7.757 -0.0618  1.3022 -0.4039
   6623SM  H14A 8487   4.037   2.016   7.856 -0.5378 -0.9976 -0.0308
   6623SM  H14B 8488   3.998   1.949   7.696  0.5701  0.2098 -0.3984
   6623SM  H14C 8489   4.102   2.092   7.719 -1.7279  1.4010 -1.4776
   6623SM   C13 8490   4.311   1.990   7.831  0.9682  0.0185  0.1806
   6623SM  H13A 8491   4.277   2.019   7.930  1.7824 -0.4036  0.6015
   6623SM  H13B 8492   4.341   2.084   7.788 -0.6530  0.3010 -0.4038
   6623SM  H13C 8493   4.395   1.923   7.843  0.6245 -0.6186 -0.8400
   6623SM   C12 8494   4.241   1.892   7.609  0.0915  0.3062  0.1440
   6623SM  H12A 8495   4.339   1.846   7.603  0.3499  0.5886  1.6323
   6623SM  H12B 8496   4.258   1.987   7.561 -1.3137  0.3528 -0.3009
   6623SM   C11 8497   4.142   1.810   7.518 -0.5363  0.0927 -0.0104
   6623SM  H11A 8498   4.119   1.717   7.574  1.2021 -1.4068 -1.6704
   6623SM  H11B 8499   4.193   1.780   7.424 -1.4328 -1.3406 -0.0664
   6623SM     P 8500   4.005   1.989   7.392  0.1780  0.1121  0.2873
   6623SM   O13 8501   3.877   2.057   7.416 -0.0339 -0.5213 -0.4812
   6623SM   O14 8502   4.131   2.067   7.395 -0.0398  0.1906  0.5391
   6623SM   O11 8503   3.995   1.912   7.256 -0.4334 -0.0817 -0.9171
   6623SM   O12 8504   4.014   1.869   7.488 -0.6521 -0.0610 -0.3832
   6623SM   C1S 8505   3.911   1.798   7.238 -0.4301 -0.6536 -0.2683
   6623SM   H1S 8506   3.809   1.838   7.256 -0.3523 -0.6937  0.2585
   6623SM   H1T 8507   3.931   1.712   7.304 -1.9087 -1.3900 -0.7281
   6623SM    NF 8508   3.805   1.664   7.058  0.3088  0.2702  0.1820
   6623SM   HNF 8509   3.831   1.567   7.053 -0.3909  0.1485 -2.6128
   6623SM   C2S 8510   3.906   1.764   7.085 -0.3450 -0.1396  0.2806
   6623SM   H2S 8511   3.865   1.857   7.039 -1.7917 -0.1050  1.5574
   6623SM   C3S 8512   4.047   1.718   7.043  0.5526 -0.2347 -0.2742
   6623SM   H3S 8513   4.070   1.616   7.080 -0.1302 -0.8464 -1.4365
   6623SM    O3 8514   4.151   1.802   7.089 -0.2387  0.1840  0.0017
   6623SM   HO3 8515   4.112   1.871   7.143 -0.5367  0.6656 -0.8065
   6623SM   C4S 8516   4.049   1.712   6.890 -0.1033  0.2444  0.1189
   6623SM   H4S 8517   4.021   1.811   6.851  1.1462  0.8369  0.6687
   6623SM   C5S 8518   4.074   1.601   6.809  0.6964  0.4985 -0.2901
   6623SM   H5S 8519   4.080   1.498   6.846 -0.8867  0.7974  0.8664
   6623SM   C6S 8520   4.065   1.611   6.656  0.0609  0.2957 -0.8370
   6623SM   H6S 8521   3.998   1.526   6.630 -1.0154  0.5658  0.8852
   6623SM   H6T 8522   4.169   1.611   6.616  1.6311  2.4940  2.7286
   6623SM   C7S 8523   4.000   1.737   6.607  0.4858 -0.0411 -0.4855
   6623SM   H7S 8524   4.058   1.826   6.641 -1.5409  1.1207  0.0759
   6623SM   H7T 8525   3.898   1.749   6.649  0.9648  0.0098  0.6901
   6623SM   C8S 8526   4.007   1.735   6.459 -0.0886 -0.4430  0.5726
   6623SM   H8S 8527   3.942   1.656   6.414 -0.1263  0.4370 -1.0234
   6623SM   H8T 8528   4.114   1.712   6.437 -0.0194 -0.8390  1.3041
   6623SM   C9S 8529   3.974   1.873   6.389  0.2387 -0.1831  0.0530
   6623SM   H9S 8530   4.047   1.943   6.435 -1.7042  1.0220  1.4818
   6623SM   H9T 8531   3.877   1.918   6.421  0.5512 -0.6868  1.8434
   6623SM  C10S 8532   3.980   1.853   6.236 -0.3022 -0.2164  0.4721
   6623SM  H10S 8533   3.972   1.956   6.195 -0.4393 -0.1971  0.5465
   6623SM  H10T 8534   3.882   1.807   6.209 -0.0594  0.0141 -0.8781
   6623SM  C11S 8535   4.100   1.783   6.180 -1.4009  0.2230  0.7369
   6623SM  H11S 8536   4.098   1.673   6.200 -0.3237 -0.5321 -2.6308
   6623SM  H11T 8537   4.186   1.832   6.230  0.4191 -1.1570 -0.9149
   6623SM  C12S 8538   4.096   1.784   6.029 -0.0454  0.0615 -0.0058
   6623SM  H12S 8539   4.087   1.892   6.005 -1.6374 -0.5933 -2.7549
   6623SM  H12T 8540   4.007   1.731   5.991 -0.8345 -1.0674  3.1299
   6623SM  C13S 8541   4.222   1.746   5.969 -0.2109 -0.2628 -0.3698
   6623SM  H13S 8542   4.219   1.636   5.954 -2.2470 -0.4639  1.0893
   6623SM  H13T 8543   4.303   1.764   6.042 -1.4244 -1.4970  1.3408
   6623SM  C14S 8544   4.248   1.815   5.833 -0.0545  0.1112  0.1040
   6623SM  H14S 8545   4.308   1.905   5.857  0.7199 -0.5669  0.7425
   6623SM  H14T 8546   4.153   1.835   5.779  0.8772  0.5858 -1.4146
   6623SM  C15S 8547   4.330   1.727   5.741 -0.1450  0.4809  0.3402
   6623SM  H15S 8548   4.293   1.622   5.747  3.5965 -0.9412  1.2618
   6623SM  H15T 8549   4.431   1.726   5.788 -0.8279  0.3314  1.8575
   6623SM  C16S 8550   4.325   1.782   5.593 -0.2742  0.0975  0.0457
   6623SM  H16S 8551   4.351   1.890   5.596 -1.6013  0.4365 -0.0753
   6623SM  H16T 8552   4.223   1.775   5.550 -0.7999 -0.3345  1.3282
   6623SM  C17S 8553   4.415   1.698   5.498 -0.1653  0.0861  0.2856
   6623SM  H17S 8554   4.363   1.600   5.508 -1.0749  0.4763 -0.4595
   6623SM  H17T 8555   4.521   1.705   5.530  0.3425 -1.7004 -0.8373
   6623SM  C18S 8556   4.406   1.749   5.356 -0.7454  0.3396 -0.0735
   6623SM  H18S 8557   4.420   1.674   5.275  1.5438  0.9125 -0.2648
   6623SM  H18T 8558   4.480   1.831   5.345 -0.4409  0.7591  3.8066
   6623SM  H18U 8559   4.305   1.792   5.340 -0.4062  0.3415 -2.5336
   6623SM   C1F 8560   3.674   1.680   7.050  0.6997 -0.9093  0.4041
   6623SM    OF 8561   3.623   1.779   7.090  0.3060 -0.1271  0.2405
   6623SM   C2F 8562   3.596   1.567   6.985 -0.7112  0.1324  1.0699
   6623SM   H2F 8563   3.549   1.500   7.060  1.5098 -0.6429  1.8568
   6623SM   H2G 8564   3.663   1.502   6.924 -0.7124  1.2924 -0.2093
   6623SM   C3F 8565   3.487   1.627   6.897 -0.8320 -0.2684 -1.0177
   6623SM   H3F 8566   3.512   1.731   6.867  1.5604 -0.5219 -0.1497
   6623SM   H3G 8567   3.395   1.636   6.959  0.7153 -0.8992  1.5146
   6623SM   C4F 8568   3.451   1.553   6.765 -0.1513  0.0692  0.5269
   6623SM   H4F 8569   3.361   1.604   6.725 -0.3222 -0.4632  0.2140
   6623SM   H4G 8570   3.415   1.450   6.787  1.7714 -0.5049  1.1974
   6623SM   C5F 8571   3.569   1.557   6.667 -0.0495 -0.2885 -0.6194
   6623SM   H5F 8572   3.643   1.481   6.700  0.5898 -0.1850 -1.7827
   6623SM   H5G 8573   3.612   1.659   6.657 -1.5967  0.7550  2.0768
   6623SM   C6F 8574   3.540   1.518   6.521  0.3718  0.4808 -0.1923
   6623SM   H6F 8575   3.460   1.584   6.482 -0.9727 -1.9328 -1.7396
   6623SM   H6G 8576   3.502   1.413   6.519  3.5430 -0.7402 -1.5142
   6623SM   C7F 8577   3.669   1.515   6.433  0.7118  0.1719 -0.8628
   6623SM   H7F 8578   3.747   1.445   6.467  0.9460 -0.5397 -2.7100
   6623SM   H7G 8579   3.717   1.614   6.443 -0.8656  0.7721  1.8900
   6623SM   C8F 8580   3.641   1.468   6.290 -0.0995  0.1146  0.1314
   6623SM   H8F 8581   3.558   1.525   6.243 -0.4255  1.2372  1.9732
   6623SM   H8G 8582   3.627   1.358   6.297  0.7599 -0.0117  0.0208
   6623SM   C9F 8583   3.758   1.486   6.192 -0.1200  0.4754 -0.0787
   6623SM   H9F 8584   3.856   1.439   6.215 -1.6147 -1.8606  2.0146
   6623SM   H9G 8585   3.773   1.596   6.191 -0.3358  0.5732  2.5605
   6623SM  C10F 8586   3.713   1.440   6.054 -0.1415 -0.3361  0.0625
   6623SM  H10F 8587   3.603   1.448   6.040 -0.0289 -1.6163 -1.8838
   6623SM  H10G 8588   3.741   1.334   6.036 -1.0366 -0.5279 -0.2618
   6623SM  C11F 8589   3.794   1.508   5.939  0.0690  0.2495 -0.0667
   6623SM  H11F 8590   3.895   1.464   5.950 -0.7763 -2.3283 -1.8625
   6623SM  H11G 8591   3.794   1.619   5.949  0.1310  0.3862 -1.3956
   6623SM  C12F 8592   3.735   1.470   5.801 -0.2096 -0.8947  0.5994
   6623SM  H12F 8593   3.634   1.515   5.788  0.4710  0.6801  0.6016
   6623SM  H12G 8594   3.726   1.360   5.793  3.7539 -1.2654 -1.0299
   6623SM  C13F 8595   3.816   1.521   5.678  0.7526  0.1131  0.1061
   6623SM  H13F 8596   3.918   1.478   5.682 -0.2961 -2.5721 -0.0755
   6623SM  H13G 8597   3.824   1.629   5.701  0.1614 -0.0987  1.3424
   6623SM  C14F 8598   3.761   1.486   5.539  0.2603 -0.8037  0.0129
   6623SM  H14F 8599   3.667   1.543   5.519  2.2547  2.6264 -0.2468
   6623SM  H14G 8600   3.744   1.376   5.529  1.9064 -1.1563  0.8226
   6623SM  C15F 8601   3.860   1.519   5.435 -0.2105  0.0346  0.0851
   6623SM  H15F 8602   3.837   1.463   5.343  0.6411  0.5485 -0.4543
   6623SM  H15G 8603   3.967   1.493   5.452  0.3308  1.5203 -0.8575
   6623SM  C16F 8604   3.866   1.668   5.402  0.1002  0.1847  0.2735
   6623SM  H16F 8605   3.868   1.739   5.487  1.6853  1.1749 -0.5463
   6623SM  H16G 8606   3.781   1.699   5.339 -0.5508  0.2701  1.1828
   6623SM  C17F 8607   3.984   1.711   5.308  0.0101  0.1692  0.5142
   6623SM  H17F 8608   4.081   1.675   5.350 -0.8677  1.0264  3.5028
   6623SM  H17G 8609   3.989   1.822   5.308  0.0566  0.1734 -0.7512
   6623SM  C18F 8610   3.974   1.667   5.163 -0.0117  0.0741  0.2742
   6623SM  H18F 8611   3.889   1.714   5.109  2.2646  1.5035 -2.3588
   6623SM  H18G 8612   3.953   1.558   5.173 -0.1155  0.2222  1.8860
   6623SM  C19F 8613   4.102   1.690   5.076  1.0435  0.7884 -0.1423
   6623SM  H19F 8614   4.089   1.621   4.990 -0.7478  0.7228  0.1435
   6623SM  H19G 8615   4.190   1.655   5.134  1.0527 -0.9576 -1.1309
   6623SM  C20F 8616   4.118   1.823   5.009  0.3300  0.0022  0.3956
   6623SM  H20F 8617   4.131   1.894   5.094  0.0183 -1.1169  1.4087
   6623SM  H20G 8618   4.024   1.852   4.956  1.1021  1.4901 -0.2346
   6623SM  C21F 8619   4.229   1.839   4.900 -0.3089  0.0935 -0.0577
   6623SM  H21F 8620   4.241   1.946   4.876  3.8536  0.0686  1.0971
   6623SM  H21G 8621   4.193   1.792   4.806  0.1937  0.3508 -0.3819
   6623SM  C22F 8622   4.370   1.785   4.945  0.4512  0.4174 -0.2722
   6623SM  H22F 8623   4.354   1.686   4.992 -2.2741  1.9609  2.4035
   6623SM  H22G 8624   4.407   1.847   5.029 -0.3959 -0.6767  0.9335
   6623SM  C23F 8625   4.463   1.780   4.829 -0.3610 -0.3769  0.4504
   6623SM  H23F 8626   4.560   1.742   4.866 -1.7797 -2.3833  2.3594
   6623SM  H23G 8627   4.485   1.880   4.785  0.9671 -0.7950  0.1469
   6623SM  H23H 8628   4.427   1.710   4.751  0.1265  0.1750 -0.2840
   6723SM     N 8629   4.771   6.092   6.918  0.0901 -0.0087  0.2226
   6723SM   C15 8630   4.851   6.218   6.902 -0.2611  0.0991  0.7287
   6723SM  H15A 8631   4.932   6.232   6.972  0.6261 -1.9159  0.1887
   6723SM  H15B 8632   4.782   6.301   6.912 -1.7130 -0.6671 -1.8406
   6723SM  H15C 8633   4.885   6.230   6.800 -1.6486 -0.2444  0.1944
   6723SM   C14 8634   4.847   5.972   6.879  0.0724 -0.5092 -0.6026
   6723SM  H14A 8635   4.818   5.881   6.927  0.8081  0.7006  2.3231
   6723SM  H14B 8636   4.950   5.987   6.909  0.1575 -1.0959 -0.5860
   6723SM  H14C 8637   4.848   5.952   6.772 -0.4270 -3.0083 -0.1943
   6723SM   C13 8638   4.731   6.079   7.059  0.4457  0.0425 -0.4229
   6723SM  H13A 8639   4.637   6.029   7.075 -0.5709  2.3032  1.3093
   6723SM  H13B 8640   4.713   6.171   7.112 -0.8968 -0.6373  0.3414
   6723SM  H13C 8641   4.810   6.028   7.113  0.3954  1.6811  1.3269
   6723SM   C12 8642   4.648   6.101   6.839 -0.3096 -0.0551  0.0441
   6723SM  H12A 8643   4.668   6.133   6.737 -0.3171  0.4758  0.2059
   6723SM  H12B 8644   4.581   6.175   6.878 -0.0891  0.6074 -0.7989
   6723SM   C11 8645   4.547   5.982   6.837 -0.2856  0.2448  0.0894
   6723SM  H11A 8646   4.598   5.899   6.783  1.2622  2.0086 -1.3094
   6723SM  H11B 8647   4.468   6.002   6.763  1.8704  0.2895 -2.3238
   6723SM     P 8648   4.375   6.005   7.032 -0.1224 -0.4272 -0.3031
   6723SM   O13 8649   4.389   5.993   7.182 -0.2782 -0.0517 -0.1172
   6723SM   O14 8650   4.341   6.141   6.977 -0.2358 -0.4858  0.0837
   6723SM   O11 8651   4.253   5.912   6.991 -0.6245  0.4156 -0.3513
   6723SM   O12 8652   4.499   5.941   6.968 -0.3012 -0.4398 -0.2422
   6723SM   C1S 8653   4.187   5.914   6.867  0.1729 -0.5438 -0.2382
   6723SM   H1S 8654   4.217   5.999   6.803  0.1619 -0.6145 -0.3371
   6723SM   H1T 8655   4.078   5.931   6.878 -0.0032  0.0376 -2.4140
   6723SM    NF 8656   4.166   5.806   6.645 -0.2041  0.1262 -1.0497
   6723SM   HNF 8657   4.108   5.731   6.615  0.3445 -0.7985  0.1315
   6723SM   C2S 8658   4.216   5.790   6.783  0.0656 -0.8106 -0.2796
   6723SM   H2S 8659   4.326   5.774   6.777  0.6546  1.9897  1.3361
   6723SM   C3S 8660   4.150   5.672   6.862  0.5740 -0.0121 -0.4132
   6723SM   H3S 8661   4.041   5.688   6.880  0.8682  2.4731 -0.4590
   6723SM    O3 8662   4.192   5.648   6.997  0.3288  0.0389  0.1326
   6723SM   HO3 8663   4.242   5.725   7.021 -0.3339  1.6055 -2.9657
   6723SM   C4S 8664   4.166   5.545   6.775  0.2362 -0.2046 -0.4301
   6723SM   H4S 8665   4.078   5.521   6.712 -1.7736  1.1100  1.6986
   6723SM   C5S 8666   4.279   5.480   6.766 -0.8705  0.6930  1.0711
   6723SM   H5S 8667   4.368   5.514   6.821  0.7934 -0.4461 -0.7531
   6723SM   C6S 8668   4.293   5.355   6.681 -0.0359  0.2038 -0.7415
   6723SM   H6S 8669   4.193   5.323   6.645 -0.9513 -0.2365  2.0027
   6723SM   H6T 8670   4.329   5.268   6.740 -4.3720 -1.0731  0.3971
   6723SM   C7S 8671   4.368   5.371   6.548  0.3787 -0.8061 -0.3136
   6723SM   H7S 8672   4.350   5.274   6.498  0.0159 -1.4011  0.9501
   6723SM   H7T 8673   4.478   5.388   6.559  0.4126 -1.7986  1.0799
   6723SM   C8S 8674   4.307   5.467   6.445 -0.0523  0.6835  0.2928
   6723SM   H8S 8675   4.282   5.565   6.493 -2.9906  0.1813 -0.0220
   6723SM   H8T 8676   4.208   5.422   6.419 -0.3138  0.8278  1.0115
   6723SM   C9S 8677   4.382   5.493   6.310 -0.5136  0.7850  0.3491
   6723SM   H9S 8678   4.399   5.396   6.257  2.7465  0.9269  0.9637
   6723SM   H9T 8679   4.485   5.533   6.321 -0.1201  0.5196 -1.9269
   6723SM  C10S 8680   4.303   5.599   6.222  0.3615 -0.1268 -0.2968
   6723SM  H10S 8681   4.298   5.693   6.281 -0.6490  1.3290 -2.6014
   6723SM  H10T 8682   4.197   5.567   6.218  0.1988  0.3134  0.3578
   6723SM  C11S 8683   4.356   5.616   6.081  0.4311  0.7029 -0.6121
   6723SM  H11S 8684   4.466   5.631   6.082  0.5127  0.8688  3.2778
   6723SM  H11T 8685   4.310   5.708   6.039  0.0574  1.8420  2.0869
   6723SM  C12S 8686   4.324   5.494   5.996  0.7592 -0.1401  0.5004
   6723SM  H12S 8687   4.238   5.432   6.029 -0.9034  0.1580 -2.7807
   6723SM  H12T 8688   4.398   5.414   6.015 -0.3937 -1.4395 -0.2598
   6723SM  C13S 8689   4.310   5.516   5.844  0.0862 -0.3688 -0.2706
   6723SM  H13S 8690   4.369   5.607   5.823 -2.5078  1.1184 -1.5677
   6723SM  H13T 8691   4.203   5.540   5.828  0.3181  0.6804 -0.3163
   6723SM  C14S 8692   4.337   5.393   5.761 -0.2055 -0.2602  0.1950
   6723SM  H14S 8693   4.269   5.312   5.794 -0.2399 -0.2259  0.2084
   6723SM  H14T 8694   4.435   5.342   5.774 -0.6912 -1.0818  0.7610
   6723SM  C15S 8695   4.304   5.411   5.614 -0.6264 -0.1040  0.0165
   6723SM  H15S 8696   4.354   5.496   5.562  1.2170 -2.2224 -1.9125
   6723SM  H15T 8697   4.196   5.434   5.601 -0.4220  1.4457  0.7656
   6723SM  C16S 8698   4.340   5.282   5.536 -0.3250 -0.4220  0.1314
   6723SM  H16S 8699   4.296   5.191   5.581 -1.7241 -0.7795 -1.8174
   6723SM  H16T 8700   4.450   5.270   5.529 -0.1579  0.1044  1.5526
   6723SM  C17S 8701   4.297   5.289   5.393  0.1681 -0.5569 -0.0476
   6723SM  H17S 8702   4.333   5.389   5.360  1.4747 -0.8944  0.2921
   6723SM  H17T 8703   4.187   5.302   5.382  0.1484 -0.6962 -0.0153
   6723SM  C18S 8704   4.376   5.193   5.303 -0.4078  0.5577  0.5610
   6723SM  H18S 8705   4.392   5.237   5.202 -1.1144  0.3420  0.3426
   6723SM  H18T 8706   4.325   5.096   5.284 -0.3558  0.8541 -1.3474
   6723SM  H18U 8707   4.481   5.180   5.335 -0.6609  0.6183  1.4457
   6723SM   C1F 8708   4.202   5.894   6.553 -0.0709  0.2153  0.0374
   6723SM    OF 8709   4.301   5.963   6.570 -0.1523 -0.4058 -0.2653
   6723SM   C2F 8710   4.111   5.903   6.432  0.3265 -0.5984 -0.1146
   6723SM   H2F 8711   4.004   5.910   6.464 -0.6474 -0.2537 -3.1537
   6723SM   H2G 8712   4.117   5.806   6.379  0.2431 -0.8215  0.2788
   6723SM   C3F 8713   4.163   6.007   6.333  0.5705  0.1649  0.1967
   6723SM   H3F 8714   4.264   5.973   6.301  0.2950 -0.3389 -0.1426
   6723SM   H3G 8715   4.167   6.102   6.391  2.0714 -0.3654  1.0321
   6723SM   C4F 8716   4.072   6.025   6.207 -0.0949 -0.3253 -0.0095
   6723SM   H4F 8717   4.106   6.113   6.147 -1.1007 -1.0499 -1.7008
   6723SM   H4G 8718   3.972   6.042   6.252  0.4742  1.8512  0.5738
   6723SM   C5F 8719   4.051   5.897   6.125 -0.2957  0.6868  0.5271
   6723SM   H5F 8720   4.007   5.821   6.194 -0.5646  1.1518  0.8773
   6723SM   H5G 8721   4.152   5.864   6.095  0.2487  0.9185  1.9929
   6723SM   C6F 8722   3.959   5.937   6.011  0.2608  0.0585 -0.2131
   6723SM   H6F 8723   3.998   6.022   5.952 -2.5105 -0.1362 -2.5671
   6723SM   H6G 8724   3.866   5.980   6.054  0.4259  0.9133 -0.6992
   6723SM   C7F 8725   3.935   5.819   5.909  0.2120 -0.2528 -0.2066
   6723SM   H7F 8726   3.871   5.735   5.946 -0.2828  0.1169 -0.2064
   6723SM   H7G 8727   4.034   5.773   5.891  0.1712 -0.7209  0.7215
   6723SM   C8F 8728   3.875   5.863   5.777 -0.2929  0.1231  0.5030
   6723SM   H8F 8729   3.955   5.925   5.731 -0.5489 -0.6899 -1.0899
   6723SM   H8G 8730   3.783   5.924   5.790  0.4031  1.5729 -1.0163
   6723SM   C9F 8731   3.840   5.746   5.689  0.1113  0.0355 -0.2354
   6723SM   H9F 8732   3.790   5.775   5.594 -0.7207 -0.3110  0.0886
   6723SM   H9G 8733   3.766   5.684   5.743 -1.3396  1.3973 -0.5690
   6723SM  C10F 8734   3.960   5.661   5.638  0.0776  0.6441 -0.2009
   6723SM  H10F 8735   4.028   5.626   5.719  0.7468  1.7557 -0.2635
   6723SM  H10G 8736   4.031   5.723   5.579 -0.1961  1.4751  0.3268
   6723SM  C11F 8737   3.909   5.551   5.541  0.7275 -0.3505  0.6988
   6723SM  H11F 8738   4.000   5.500   5.503  1.0280 -0.6603  1.7766
   6723SM  H11G 8739   3.855   5.605   5.461 -1.2914 -0.0738  2.1785
   6723SM  C12F 8740   3.817   5.442   5.594  0.3241  0.5027 -0.1389
   6723SM  H12F 8741   3.818   5.356   5.523 -2.3179 -1.2961  1.7825
   6723SM  H12G 8742   3.719   5.492   5.607  0.9935  1.8883 -0.2555
   6723SM  C13F 8743   3.877   5.387   5.719 -0.7779 -0.0381  0.4013
   6723SM  H13F 8744   3.872   5.455   5.806  0.9331  1.1938 -0.4058
   6723SM  H13G 8745   3.985   5.361   5.711 -0.7453 -0.0176  0.7757
   6723SM  C14F 8746   3.823   5.250   5.757  0.0885  0.7815  0.8336
   6723SM  H14F 8747   3.882   5.207   5.841  2.1717 -1.4013 -1.5744
   6723SM  H14G 8748   3.831   5.181   5.670  0.6891  0.6548  0.9894
   6723SM  C15F 8749   3.678   5.256   5.792  0.8695 -0.3711 -0.5324
   6723SM  H15F 8750   3.630   5.274   5.693 -0.6247  0.3288  0.2861
   6723SM  H15G 8751   3.650   5.336   5.864  0.8752 -0.4784 -0.4114
   6723SM  C16F 8752   3.609   5.134   5.849  0.0075  0.3464  0.5028
   6723SM  H16F 8753   3.670   5.122   5.941 -0.0267 -0.8846  0.3894
   6723SM  H16G 8754   3.627   5.049   5.779  1.9374 -0.2818  1.6983
   6723SM  C17F 8755   3.458   5.156   5.885 -0.1646 -0.2344 -0.4683
   6723SM  H17F 8756   3.404   5.211   5.805 -2.2079  0.5135  1.3201
   6723SM  H17G 8757   3.451   5.220   5.976 -0.4120  0.6783 -1.1155
   6723SM  C18F 8758   3.375   5.030   5.906 -0.9692 -0.2867  0.1029
   6723SM  H18F 8759   3.268   5.055   5.922 -1.1530 -0.3378 -0.9787
   6723SM  H18G 8760   3.404   4.975   5.998  0.8747 -1.4722 -1.1094
   6723SM  C19F 8761   3.373   4.938   5.784 -0.4883  0.5271 -0.1322
   6723SM  H19F 8762   3.480   4.920   5.758 -0.4803  2.3617 -1.5951
   6723SM  H19G 8763   3.322   4.989   5.699  0.0531  1.6346  0.1848
   6723SM  C20F 8764   3.298   4.803   5.818 -0.5899 -0.7073  0.3184
   6723SM  H20F 8765   3.360   4.748   5.892  0.2629  1.2047  1.0726
   6723SM  H20G 8766   3.287   4.741   5.726 -1.9626  1.0440 -0.7477
   6723SM  C21F 8767   3.162   4.822   5.868 -0.3335  0.1116 -0.5120
   6723SM  H21F 8768   3.112   4.900   5.807 -2.0960  0.9445  1.8629
   6723SM  H21G 8769   3.146   4.843   5.976 -1.7145 -0.5878 -0.5570
   6723SM  C22F 8770   3.071   4.701   5.851  0.2303 -0.4191 -0.2411
   6723SM  H22F 8771   2.978   4.725   5.908  0.7638 -0.4025  0.6422
   6723SM  H22G 8772   3.118   4.612   5.898  0.6709 -0.4194 -0.6747
   6723SM  C23F 8773   3.035   4.677   5.702  0.5984 -0.2973  0.3609
   6723SM  H23F 8774   3.124   4.628   5.656 -0.1638 -1.4455  0.0760
   6723SM  H23G 8775   3.016   4.776   5.656  1.0140 -0.4736 -0.1974
   6723SM  H23H 8776   2.951   4.608   5.682  0.8464 -0.3631 -0.4662
   6823SM     N 8777   2.195   1.441   7.238  0.5363  0.6723 -0.2872
   6823SM   C15 8778   2.261   1.577   7.209 -0.5113 -0.4313  0.4670
   6823SM  H15A 8779   2.359   1.572   7.164 -1.4684 -0.0448 -1.7590
   6823SM  H15B 8780   2.267   1.638   7.298  0.6039 -2.2105  1.7052
   6823SM  H15C 8781   2.192   1.623   7.140  0.1248  0.2512  0.2862
   6823SM   C14 8782   2.271   1.367   7.336 -0.0172 -0.0561  0.9314
   6823SM  H14A 8783   2.280   1.427   7.425 -0.3758  1.0702  0.2227
   6823SM  H14B 8784   2.374   1.353   7.308 -0.4330  0.0113 -0.7224
   6823SM  H14C 8785   2.216   1.279   7.367  0.7270  0.1116  2.8797
   6823SM   C13 8786   2.056   1.469   7.299 -0.1976  0.5086 -0.0199
   6823SM  H13A 8787   1.994   1.529   7.233  1.6587  0.4975 -1.8830
   6823SM  H13B 8788   2.085   1.517   7.391  1.4951 -1.4506  0.5224
   6823SM  H13C 8789   2.007   1.377   7.328 -1.9125  1.4156  0.0757
   6823SM   C12 8790   2.182   1.360   7.106  0.1292  0.3455  0.2068
   6823SM  H12A 8791   2.113   1.408   7.038 -0.9957  0.8852  1.6904
   6823SM  H12B 8792   2.144   1.261   7.127  2.9954 -0.7841  0.4869
   6823SM   C11 8793   2.313   1.340   7.024 -0.2849  0.7712  0.2221
   6823SM  H11A 8794   2.343   1.438   6.981  0.4760  0.9099  1.0363
   6823SM  H11B 8795   2.292   1.273   6.937 -4.0079 -2.1131  3.0232
   6823SM     P 8796   2.470   1.138   7.082 -0.0525  0.1298 -0.1167
   6823SM   O13 8797   2.573   1.112   7.193 -0.0354 -0.2837 -0.0280
   6823SM   O14 8798   2.358   1.040   7.070  0.0515 -0.0155  0.0041
   6823SM   O11 8799   2.546   1.144   6.941  0.3360  0.3729  0.1667
   6823SM   O12 8800   2.427   1.291   7.099  0.4661  0.4442 -0.0678
   6823SM   C1S 8801   2.619   1.256   6.894  0.4279 -0.2197 -0.2370
   6823SM   H1S 8802   2.725   1.254   6.926  0.2286  1.1784  0.5762
   6823SM   H1T 8803   2.570   1.353   6.916 -0.4248 -0.6543 -0.1520
   6823SM    NF 8804   2.723   1.349   6.688  0.2088  0.5648 -0.1742
   6823SM   HNF 8805   2.695   1.443   6.668 -0.1536  0.0667 -2.2365
   6823SM   C2S 8806   2.628   1.252   6.741  0.5975  0.4340  0.4672
   6823SM   H2S 8807   2.666   1.150   6.718 -0.6230  0.2180 -0.6989
   6823SM   C3S 8808   2.489   1.276   6.679 -0.1239 -0.8216  0.0724
   6823SM   H3S 8809   2.463   1.382   6.698  3.3345 -0.3215  3.2303
   6823SM    O3 8810   2.386   1.197   6.727 -0.2117  0.0789 -0.0826
   6823SM   HO3 8811   2.420   1.160   6.809  0.3146  1.9682  0.6073
   6823SM   C4S 8812   2.489   1.248   6.529 -0.7083  0.3860  0.5593
   6823SM   H4S 8813   2.475   1.144   6.498 -0.6622  0.8193 -1.0128
   6823SM   C5S 8814   2.501   1.341   6.432 -0.0348 -0.0427  0.5916
   6823SM   H5S 8815   2.514   1.446   6.460 -1.0335  0.1400  0.3821
   6823SM   C6S 8816   2.497   1.320   6.273  0.1908 -0.6394 -0.7754
   6823SM   H6S 8817   2.598   1.337   6.228  0.3717  0.7224  0.0955
   6823SM   H6T 8818   2.433   1.400   6.231 -1.1532 -0.7611  0.9253
   6823SM   C7S 8819   2.473   1.175   6.233 -0.5960 -0.7073 -0.0285
   6823SM   H7S 8820   2.380   1.130   6.275 -3.1736  1.8368 -2.4943
   6823SM   H7T 8821   2.559   1.112   6.264 -0.2273 -0.6527 -0.9220
   6823SM   C8S 8822   2.465   1.167   6.080 -0.4025  0.7796 -0.6662
   6823SM   H8S 8823   2.519   1.253   6.035  2.1508 -0.1754  0.3960
   6823SM   H8T 8824   2.359   1.169   6.045 -0.7274 -1.3515  0.0749
   6823SM   C9S 8825   2.528   1.034   6.031  0.6292 -0.5925 -0.3513
   6823SM   H9S 8826   2.475   0.944   6.067 -0.5793 -0.5105 -1.8305
   6823SM   H9T 8827   2.632   1.022   6.069  1.4984  1.0001 -2.0253
   6823SM  C10S 8828   2.549   1.031   5.882  0.8929  0.2409 -0.0903
   6823SM  H10S 8829   2.644   1.076   5.848 -0.1279  0.4327 -2.9313
   6823SM  H10T 8830   2.459   1.081   5.841 -0.0017  0.3384  1.8652
   6823SM  C11S 8831   2.551   0.885   5.832  0.2539 -0.3927 -0.4424
   6823SM  H11S 8832   2.446   0.849   5.838 -0.7112  2.2472 -0.2112
   6823SM  H11T 8833   2.613   0.814   5.891  0.4583 -0.7038 -1.0241
   6823SM  C12S 8834   2.604   0.882   5.693 -0.3701 -0.1807  0.1845
   6823SM  H12S 8835   2.620   0.778   5.658 -1.8550 -0.7696  1.1626
   6823SM  H12T 8836   2.702   0.934   5.680  0.6158 -1.6382  1.4681
   6823SM  C13S 8837   2.502   0.946   5.582 -0.6059 -0.1013  0.1693
   6823SM  H13S 8838   2.503   1.055   5.604 -0.3734 -0.1814  0.5625
   6823SM  H13T 8839   2.403   0.901   5.604 -0.5850 -1.3791 -2.0902
   6823SM  C14S 8840   2.539   0.923   5.432  0.5433  0.5349 -0.2346
   6823SM  H14S 8841   2.520   0.821   5.394  0.5139  1.3984 -2.7687
   6823SM  H14T 8842   2.648   0.943   5.425  0.7700 -1.0397 -2.4825
   6823SM  C15S 8843   2.466   1.020   5.335  0.5686  0.0325 -0.0581
   6823SM  H15S 8844   2.472   1.122   5.379 -3.6198 -0.5110  2.3402
   6823SM  H15T 8845   2.357   0.996   5.335  1.0295 -2.2464  0.6810
   6823SM  C16S 8846   2.526   1.020   5.189  0.4105 -0.3153  0.2386
   6823SM  H16S 8847   2.496   0.938   5.120  0.5799  0.4223 -0.7406
   6823SM  H16T 8848   2.636   1.011   5.201  0.5503  0.2159 -0.5736
   6823SM  C17S 8849   2.499   1.146   5.107 -0.2763  0.4430 -0.2453
   6823SM  H17S 8850   2.529   1.236   5.164  1.0705  0.8109 -1.4672
   6823SM  H17T 8851   2.389   1.145   5.095 -0.5859 -0.8323  2.0377
   6823SM  C18S 8852   2.560   1.140   4.967 -0.1940 -1.0201  0.0859
   6823SM  H18S 8853   2.670   1.136   4.953  0.4263  1.5954  2.9258
   6823SM  H18T 8854   2.532   1.235   4.915  4.3503  3.1402  4.2374
   6823SM  H18U 8855   2.513   1.057   4.909 -0.0275  0.0302 -1.6222
   6823SM   C1F 8856   2.854   1.329   6.701 -0.0963  0.5477 -0.3643
   6823SM    OF 8857   2.899   1.223   6.742  0.3424  0.2308 -0.8766
   6823SM   C2F 8858   2.945   1.441   6.676 -0.6549  0.7146 -0.3638
   6823SM   H2F 8859   3.002   1.465   6.769  1.1950  1.2265 -1.5906
   6823SM   H2G 8860   2.880   1.520   6.633 -1.6795  0.4412  0.6279
   6823SM   C3F 8861   3.054   1.421   6.568  0.7518 -0.5877 -0.2570
   6823SM   H3F 8862   3.120   1.339   6.604  1.0139 -0.2401  0.0698
   6823SM   H3G 8863   3.126   1.504   6.553 -0.7083  1.0204  1.2480
   6823SM   C4F 8864   3.002   1.364   6.437 -0.4832  0.1406  0.6150
   6823SM   H4F 8865   2.936   1.275   6.438  0.5915 -0.8618 -3.0139
   6823SM   H4G 8866   3.092   1.336   6.378 -0.4277  2.4830 -0.4951
   6823SM   C5F 8867   2.932   1.467   6.355 -0.4096  0.3892  0.3152
   6823SM   H5F 8868   3.002   1.547   6.322 -0.6816 -0.6286 -3.1358
   6823SM   H5G 8869   2.841   1.512   6.400 -1.0783  1.1456 -1.6805
   6823SM   C6F 8870   2.899   1.425   6.212 -0.0217  0.3174  0.4845
   6823SM   H6F 8871   2.817   1.350   6.202  0.6086 -0.3714  0.4363
   6823SM   H6G 8872   2.983   1.370   6.166  0.1019  0.7079  0.2393
   6823SM   C7F 8873   2.853   1.549   6.134  0.4239  0.6299 -0.0234
   6823SM   H7F 8874   2.931   1.628   6.146  0.3084  0.7731 -0.2120
   6823SM   H7G 8875   2.759   1.594   6.173 -0.6706 -0.5684 -1.1917
   6823SM   C8F 8876   2.838   1.519   5.984 -0.3378  0.0536 -0.0590
   6823SM   H8F 8877   2.938   1.486   5.950 -0.1550 -0.2367  0.7305
   6823SM   H8G 8878   2.814   1.620   5.943 -0.9157 -0.0275  0.0739
   6823SM   C9F 8879   2.728   1.416   5.948  0.1846  0.1153 -0.7676
   6823SM   H9F 8880   2.631   1.463   5.974  0.5904  1.1973 -1.1625
   6823SM   H9G 8881   2.740   1.323   6.007 -0.4054 -1.5036 -3.0450
   6823SM  C10F 8882   2.705   1.373   5.800  0.5004 -0.3251  0.5331
   6823SM  H10F 8883   2.680   1.464   5.742  0.3362 -1.3299 -1.0183
   6823SM  H10G 8884   2.623   1.298   5.797  0.6269 -0.4155 -1.8478
   6823SM  C11F 8885   2.832   1.309   5.736  0.4838  0.8441  0.2764
   6823SM  H11F 8886   2.845   1.212   5.789 -1.7575  1.0034  1.2333
   6823SM  H11G 8887   2.924   1.366   5.759  0.7227  1.2162 -1.5013
   6823SM  C12F 8888   2.817   1.287   5.591 -0.7159 -0.6707  0.1810
   6823SM  H12F 8889   2.809   1.386   5.540 -0.4856 -1.1397 -0.7834
   6823SM  H12G 8890   2.732   1.220   5.568 -0.1743 -2.0963  2.1553
   6823SM  C13F 8891   2.942   1.227   5.532 -0.4962  0.8170 -0.1209
   6823SM  H13F 8892   2.978   1.141   5.592 -1.9131 -0.1626 -0.6328
   6823SM  H13G 8893   3.020   1.306   5.536  0.7308 -0.3114 -1.0746
   6823SM  C14F 8894   2.921   1.179   5.387  0.0600 -0.2515 -0.1265
   6823SM  H14F 8895   2.903   1.268   5.323  0.8602 -1.0158 -1.4574
   6823SM  H14G 8896   2.839   1.105   5.384 -0.4197  0.2015 -4.4241
   6823SM  C15F 8897   3.039   1.105   5.316 -0.2924 -0.1026 -0.1609
   6823SM  H15F 8898   3.083   1.030   5.386 -0.7670 -2.4516 -2.2248
   6823SM  H15G 8899   3.117   1.178   5.286  1.0158 -1.2345  0.3882
   6823SM  C16F 8900   2.987   1.031   5.194 -0.2282  0.4099 -0.5641
   6823SM  H16F 8901   3.079   1.012   5.135 -0.7305 -0.7293 -1.0152
   6823SM  H16G 8902   2.924   1.095   5.128  0.7235 -0.2137 -2.1460
   6823SM  C17F 8903   2.924   0.892   5.226 -0.6225 -0.3152 -0.1569
   6823SM  H17F 8904   2.846   0.901   5.305 -0.2731  1.3502  0.0352
   6823SM  H17G 8905   3.010   0.833   5.265 -0.0208  1.1107  0.7641
   6823SM  C18F 8906   2.858   0.824   5.111 -0.1588  0.8744 -0.4381
   6823SM  H18F 8907   2.933   0.808   5.031  1.1215  1.8927  0.5197
   6823SM  H18G 8908   2.779   0.889   5.068 -0.9007 -1.6456 -3.1978
   6823SM  C19F 8909   2.780   0.696   5.146 -0.4129  0.0660  0.3532
   6823SM  H19F 8910   2.718   0.728   5.231 -0.8211  0.6523 -0.1573
   6823SM  H19G 8911   2.855   0.620   5.179 -0.3796  0.4903  1.2716
   6823SM  C20F 8912   2.696   0.643   5.031 -0.1797  0.5093 -0.3489
   6823SM  H20F 8913   2.760   0.608   4.947 -1.0350  1.4061 -1.4121
   6823SM  H20G 8914   2.629   0.728   5.007 -0.4070  0.2029 -0.8197
   6823SM  C21F 8915   2.606   0.521   5.083 -0.1867  0.5390 -0.2565
   6823SM  H21F 8916   2.539   0.564   5.160 -0.2247  1.7950 -0.9730
   6823SM  H21G 8917   2.673   0.443   5.125 -1.3558 -1.5973 -2.1262
   6823SM  C22F 8918   2.527   0.445   4.981  0.6348  0.2921 -0.1029
   6823SM  H22F 8919   2.516   0.342   5.022  2.2943 -0.0944 -0.5597
   6823SM  H22G 8920   2.585   0.439   4.886  0.4763  0.6907 -0.2266
   6823SM  C23F 8921   2.390   0.506   4.964 -0.3779  0.0829 -1.2187
   6823SM  H23F 8922   2.339   0.534   5.059  0.0628 -0.6904 -0.7448
   6823SM  H23G 8923   2.323   0.445   4.899 -0.0803 -0.4494 -1.0371
   6823SM  H23H 8924   2.398   0.601   4.907 -1.2291  0.9592  0.0680
   6923SM     N 8925   4.743   1.497   8.109  0.1632 -0.1648 -0.4062
   6923SM   C15 8926   4.826   1.461   7.993  0.2736  0.5489 -0.5386
   6923SM  H15A 8927   4.766   1.433   7.907  0.3066  0.0761 -0.4120
   6923SM  H15B 8928   4.888   1.375   8.013  0.3190  0.1602 -2.2365
   6923SM  H15C 8929   4.890   1.541   7.958  2.4111 -0.6279  0.4535
   6923SM   C14 8930   4.689   1.368   8.165  0.4992 -0.6815 -0.6437
   6923SM  H14A 8931   4.617   1.384   8.245  0.7966 -0.3917 -0.4336
   6923SM  H14B 8932   4.768   1.312   8.212  1.4928  1.2337  0.0560
   6923SM  H14C 8933   4.642   1.302   8.093  1.1878  0.2854 -2.0181
   6923SM   C13 8934   4.824   1.564   8.210 -0.5176 -0.5433  0.2045
   6923SM  H13A 8935   4.881   1.642   8.162  1.8687 -1.4402  1.4165
   6923SM  H13B 8936   4.900   1.500   8.252 -0.9245 -2.6387 -1.9749
   6923SM  H13C 8937   4.766   1.613   8.287 -0.6908  0.2999 -0.4496
   6923SM   C12 8938   4.631   1.595   8.064  0.7933  0.3992 -0.6419
   6923SM  H12A 8939   4.682   1.690   8.059  1.1239  0.5238  2.7910
   6923SM  H12B 8940   4.555   1.610   8.139  0.9371  0.2545 -0.4644
   6923SM   C11 8941   4.584   1.570   7.926 -0.3826 -0.1833  0.3050
   6923SM  H11A 8942   4.479   1.599   7.904  0.3288  0.7323 -2.2376
   6923SM  H11B 8943   4.584   1.461   7.906 -0.9699 -0.6264  2.4465
   6923SM     P 8944   4.623   1.773   7.777 -0.1546 -0.0853 -0.0528
   6923SM   O13 8945   4.540   1.750   7.656 -0.1759  0.0959  0.8813
   6923SM   O14 8946   4.569   1.852   7.886  0.2582 -0.0640 -0.9470
   6923SM   O11 8947   4.753   1.851   7.734 -0.4763  0.1359  0.7864
   6923SM   O12 8948   4.670   1.634   7.835  0.3586  0.3303  0.2423
   6923SM   C1S 8949   4.861   1.787   7.664  0.2903 -0.0161  0.0242
   6923SM   H1S 8950   4.862   1.678   7.689 -0.0346  0.1341  0.7289
   6923SM   H1T 8951   4.958   1.836   7.690  0.8192  0.0144 -1.9109
   6923SM    NF 8952   4.954   1.757   7.442 -0.1728 -0.6366 -0.2492
   6923SM   HNF 8953   5.031   1.816   7.420  1.0540 -2.2605 -0.4499
   6923SM   C2S 8954   4.850   1.821   7.509  0.3516 -0.2021 -0.2737
   6923SM   H2S 8955   4.748   1.786   7.484 -0.9493  3.3807 -0.5389
   6923SM   C3S 8956   4.852   1.975   7.487 -0.1362  0.2626 -0.2300
   6923SM   H3S 8957   4.952   2.003   7.528 -0.4449 -1.7636  2.1642
   6923SM    O3 8958   4.769   2.050   7.576  0.2473  0.6186 -0.7533
   6923SM   HO3 8959   4.742   1.986   7.642 -0.4053 -0.7614 -2.2907
   6923SM   C4S 8960   4.819   1.991   7.340  0.6307 -0.2165 -0.7952
   6923SM   H4S 8961   4.910   1.999   7.278  1.8496 -0.2241  0.9255
   6923SM   C5S 8962   4.693   2.000   7.282 -0.0638  0.6729  0.0974
   6923SM   H5S 8963   4.607   2.009   7.350  0.0001 -0.8147  0.4131
   6923SM   C6S 8964   4.667   2.020   7.128 -0.3504 -0.1457 -0.4492
   6923SM   H6S 8965   4.596   2.105   7.117  0.1051  0.0422 -2.1629
   6923SM   H6T 8966   4.609   1.930   7.099  0.8795 -1.0930 -0.0477
   6923SM   C7S 8967   4.786   2.018   7.021  0.7615  0.3861 -0.1716
   6923SM   H7S 8968   4.839   1.923   7.040 -0.2829  0.0581  1.3893
   6923SM   H7T 8969   4.843   2.107   7.053  0.5142 -0.4764  2.9944
   6923SM   C8S 8970   4.745   2.020   6.881  0.2946 -0.4977  0.5915
   6923SM   H8S 8971   4.690   2.114   6.862 -1.2272 -1.6198 -0.7175
   6923SM   H8T 8972   4.682   1.932   6.857  0.4647 -0.5229  0.2259
   6923SM   C9S 8973   4.861   2.025   6.776 -0.0168  1.0642  0.1772
   6923SM   H9S 8974   4.918   1.933   6.804 -3.7176 -0.9196  1.9760
   6923SM   H9T 8975   4.941   2.099   6.798  1.7968 -0.5203 -0.7677
   6923SM  C10S 8976   4.818   2.020   6.628  0.8069  0.0983 -0.8594
   6923SM  H10S 8977   4.749   2.106   6.623 -1.5178 -1.4555  1.6173
   6923SM  H10T 8978   4.758   1.928   6.610  1.1441 -0.4319  0.5522
   6923SM  C11S 8979   4.930   2.029   6.528 -0.1517  0.0347  0.0977
   6923SM  H11S 8980   5.020   1.966   6.536 -0.8410 -1.3852 -2.3028
   6923SM  H11T 8981   4.963   2.135   6.515 -2.9509  1.1146  1.0890
   6923SM  C12S 8982   4.885   1.975   6.387 -0.2893 -0.1949 -0.5497
   6923SM  H12S 8983   4.792   2.021   6.348 -0.3911  1.5318  1.5525
   6923SM  H12T 8984   4.866   1.868   6.409  0.9559 -0.2892  0.1862
   6923SM  C13S 8985   4.990   1.963   6.274 -0.1504  0.2110  0.0733
   6923SM  H13S 8986   5.080   1.917   6.320 -1.2199 -0.9414  1.0752
   6923SM  H13T 8987   5.002   2.070   6.244 -2.4168  1.1050  2.0879
   6923SM  C14S 8988   4.936   1.894   6.149  0.2090 -0.3540 -0.2919
   6923SM  H14S 8989   4.865   1.963   6.098  1.2919  0.6579 -0.4849
   6923SM  H14T 8990   4.879   1.803   6.177 -1.3411  0.8822  0.7531
   6923SM  C15S 8991   5.044   1.874   6.041 -0.3509  0.8232  0.7827
   6923SM  H15S 8992   5.119   1.795   6.064 -1.2366  0.1920  1.5624
   6923SM  H15T 8993   5.105   1.964   6.019  2.1615 -0.5287  1.7734
   6923SM  C16S 8994   4.980   1.839   5.902  0.6137  0.0239 -0.2947
   6923SM  H16S 8995   5.060   1.856   5.826  1.2833 -0.3634  0.3159
   6923SM  H16T 8996   4.896   1.910   5.888 -1.7409 -2.8103 -1.4881
   6923SM  C17S 8997   4.934   1.688   5.891 -0.4363  0.1434 -0.5549
   6923SM  H17S 8998   4.835   1.669   5.937  0.3447 -0.2805  1.0118
   6923SM  H17T 8999   4.999   1.628   5.958  1.7041  3.4051  0.5339
   6923SM  C18S 9000   4.932   1.639   5.748  0.4885  0.4486  0.4854
   6923SM  H18S 9001   4.883   1.712   5.681  0.2425  0.3811  0.5916
   6923SM  H18T 9002   4.876   1.544   5.736  0.1176  0.7008  0.2083
   6923SM  H18U 9003   5.039   1.619   5.723 -0.1427  0.6668 -2.8837
   6923SM   C1F 9004   4.942   1.628   7.404  0.0890 -0.5425  0.1258
   6923SM    OF 9005   4.848   1.562   7.446  0.1556  0.6543 -0.1028
   6923SM   C2F 9006   5.051   1.563   7.327  0.1511  0.4474  0.8492
   6923SM   H2F 9007   5.114   1.506   7.399 -1.1097 -0.5796  1.1948
   6923SM   H2G 9008   5.115   1.641   7.280 -0.2337  0.7665  0.8463
   6923SM   C3F 9009   4.999   1.462   7.224  0.2351  0.4210  0.5388
   6923SM   H3F 9010   4.936   1.393   7.285  0.3493  1.5363  1.9630
   6923SM   H3G 9011   5.076   1.408   7.165  0.5254 -0.4114  1.6394
   6923SM   C4F 9012   4.898   1.503   7.114 -0.5585 -0.4719  0.2198
   6923SM   H4F 9013   4.803   1.546   7.152 -0.6021  0.7775 -1.2302
   6923SM   H4G 9014   4.888   1.415   7.047  1.2100 -0.1317 -0.5584
   6923SM   C5F 9015   4.964   1.615   7.029  0.3572 -0.6094 -0.5828
   6923SM   H5F 9016   4.982   1.703   7.094  0.1737  2.0326 -3.8055
   6923SM   H5G 9017   4.887   1.651   6.957 -1.5386  2.9316  2.8471
   6923SM   C6F 9018   5.089   1.571   6.955 -0.2347 -0.4638 -0.1439
   6923SM   H6F 9019   5.177   1.556   7.022 -0.3765 -2.4771 -0.3362
   6923SM   H6G 9020   5.105   1.651   6.880  0.8457  0.1718  0.7305
   6923SM   C7F 9021   5.068   1.445   6.870 -0.0446 -0.2406 -0.0714
   6923SM   H7F 9022   4.964   1.447   6.831 -0.6546 -1.2046  1.4321
   6923SM   H7G 9023   5.092   1.355   6.931  1.1197 -1.1750 -1.8345
   6923SM   C8F 9024   5.139   1.434   6.734 -0.4718  0.2478 -0.5014
   6923SM   H8F 9025   5.247   1.453   6.755 -0.4526 -0.3658 -0.0222
   6923SM   H8G 9026   5.107   1.521   6.672 -1.1393  1.0672  0.9494
   6923SM   C9F 9027   5.120   1.308   6.652  0.2777 -0.3618  0.1673
   6923SM   H9F 9028   5.156   1.222   6.712 -0.3207  0.9538  2.5570
   6923SM   H9G 9029   5.167   1.328   6.553 -0.7441 -0.1144 -0.2845
   6923SM  C10F 9030   4.968   1.280   6.637  0.1757 -0.5423  0.9138
   6923SM  H10F 9031   4.922   1.370   6.591 -0.4254 -2.0159 -1.5589
   6923SM  H10G 9032   4.917   1.254   6.732  0.2384  1.2078  1.4631
   6923SM  C11F 9033   4.933   1.164   6.538  0.7039 -0.2590  0.2469
   6923SM  H11F 9034   4.982   1.068   6.564 -0.2757 -0.8950 -0.2156
   6923SM  H11G 9035   4.993   1.190   6.448  1.4450  0.0006  0.8075
   6923SM  C12F 9036   4.784   1.131   6.509 -0.1462 -0.2442 -0.1192
   6923SM  H12F 9037   4.731   1.223   6.477  0.8470  0.3640 -0.0423
   6923SM  H12G 9038   4.746   1.106   6.610  2.1225  3.5313  1.8545
   6923SM  C13F 9039   4.777   1.013   6.405 -0.6923  0.2301 -0.7353
   6923SM  H13F 9040   4.795   0.918   6.458  4.1883  1.6385  0.6696
   6923SM  H13G 9041   4.857   1.020   6.328 -0.7074 -2.7641 -1.1342
   6923SM  C14F 9042   4.638   1.009   6.336 -0.0987  0.2441 -0.2915
   6923SM  H14F 9043   4.609   1.114   6.316  3.0317  0.8585 -2.2617
   6923SM  H14G 9044   4.558   0.961   6.397 -0.0224 -1.5262 -1.5189
   6923SM  C15F 9045   4.638   0.943   6.199 -0.4238 -0.0651  0.1737
   6923SM  H15F 9046   4.714   0.992   6.135 -0.8131 -0.8383 -0.9256
   6923SM  H15G 9047   4.541   0.967   6.149 -1.7986  1.7860  3.3630
   6923SM  C16F 9048   4.658   0.792   6.203 -0.2175 -0.1435 -0.0937
   6923SM  H16F 9049   4.565   0.750   6.248 -0.3799  1.9238  1.6572
   6923SM  H16G 9050   4.751   0.762   6.256 -0.5719  0.2302  0.7592
   6923SM  C17F 9051   4.662   0.726   6.063 -0.3156 -0.0900  0.0770
   6923SM  H17F 9052   4.579   0.771   6.004  1.9959 -1.4082 -4.7085
   6923SM  H17G 9053   4.641   0.617   6.069 -1.3031 -0.2109 -3.2806
   6923SM  C18F 9054   4.797   0.729   5.974  0.1374 -0.2811 -0.3499
   6923SM  H18F 9055   4.874   0.687   6.041  1.4296 -0.8080 -2.0930
   6923SM  H18G 9056   4.808   0.836   5.945 -0.0906 -0.1260  0.1364
   6923SM  C19F 9057   4.783   0.636   5.852  0.1795 -0.8426  0.2810
   6923SM  H19F 9058   4.690   0.675   5.805  0.6546 -0.8313 -0.6652
   6923SM  H19G 9059   4.767   0.528   5.876 -1.0716 -1.0966 -1.4752
   6923SM  C20F 9060   4.905   0.656   5.759  0.3961 -1.1836 -0.8198
   6923SM  H20F 9061   4.990   0.599   5.804  1.8262  1.2583 -0.2728
   6923SM  H20G 9062   4.939   0.761   5.746 -1.6140 -0.4823 -0.6810
   6923SM  C21F 9063   4.868   0.618   5.615 -0.1490  0.4109 -0.1944
   6923SM  H21F 9064   4.947   0.651   5.544  0.2271  1.0757  0.5142
   6923SM  H21G 9065   4.768   0.657   5.585  0.2016  1.8503  0.4181
   6923SM  C22F 9066   4.841   0.464   5.606 -0.2024 -0.1677  0.3938
   6923SM  H22F 9067   4.766   0.416   5.672  0.3685 -0.6984  0.6666
   6923SM  H22G 9068   4.934   0.409   5.631 -0.2595 -0.5073 -0.1160
   6923SM  C23F 9069   4.796   0.423   5.467  0.4708  0.2496 -0.3111
   6923SM  H23F 9070   4.772   0.316   5.451  0.3973  0.5447 -2.6736
   6923SM  H23G 9071   4.862   0.460   5.385 -1.1590  1.2684 -1.2315
   6923SM  H23H 9072   4.698   0.474   5.457 -0.5981 -1.4210  1.1850
   7023SM     N 9073   3.468   1.294   7.566 -0.3198  0.2122  0.3064
   7023SM   C15 9074   3.508   1.208   7.683 -0.2103  0.0929 -0.6404
   7023SM  H15A 9075   3.440   1.126   7.693 -2.7049  2.1754  0.4819
   7023SM  H15B 9076   3.502   1.254   7.780 -0.2064 -2.7078  0.7715
   7023SM  H15C 9077   3.611   1.176   7.670  1.1965  3.1253  1.7110
   7023SM   C14 9078   3.458   1.215   7.443 -0.2188  0.3300 -0.2446
   7023SM  H14A 9079   3.417   1.273   7.362  0.8767 -1.0538 -1.8694
   7023SM  H14B 9080   3.389   1.132   7.454  2.3520 -1.6911  2.1001
   7023SM  H14C 9081   3.555   1.172   7.422 -1.1081 -1.3505 -1.2281
   7023SM   C13 9082   3.330   1.344   7.601 -0.1090  0.0832 -0.1432
   7023SM  H13A 9083   3.267   1.259   7.625 -1.1449  1.3761  2.0729
   7023SM  H13B 9084   3.296   1.393   7.511  0.9411 -0.2562 -0.7430
   7023SM  H13C 9085   3.329   1.423   7.675 -1.5336  0.1038 -0.1694
   7023SM   C12 9086   3.553   1.409   7.547  0.6414 -0.2185 -0.2174
   7023SM  H12A 9087   3.542   1.469   7.636 -1.3699  0.3525 -0.7902
   7023SM  H12B 9088   3.511   1.472   7.469  0.5034  0.7974  0.6494
   7023SM   C11 9089   3.701   1.384   7.503 -0.6904  0.7124  0.0055
   7023SM  H11A 9090   3.752   1.477   7.470  2.3845 -1.2894 -1.2710
   7023SM  H11B 9091   3.702   1.317   7.415 -2.4469 -0.4396  0.8079
   7023SM     P 9092   3.934   1.284   7.598 -0.0885  0.1356  0.1180
   7023SM   O13 9093   3.992   1.339   7.723 -0.1058  0.0128 -0.1982
   7023SM   O14 9094   3.958   1.141   7.568 -0.7579 -0.9057  0.3793
   7023SM   O11 9095   3.980   1.370   7.479 -0.3311  0.4832  0.5503
   7023SM   O12 9096   3.784   1.311   7.604  0.5133 -0.3533  0.0933
   7023SM   C1S 9097   3.994   1.309   7.345  0.7471  0.2241 -0.1207
   7023SM   H1S 9098   3.894   1.293   7.298 -0.0324  1.8035  0.9081
   7023SM   H1T 9099   4.049   1.213   7.353  0.5052 -0.0916 -1.7351
   7023SM    NF 9100   4.094   1.319   7.116 -0.7135 -0.1041  0.0092
   7023SM   HNF 9101   4.173   1.268   7.084  1.7397  4.0784 -1.2498
   7023SM   C2S 9102   4.083   1.383   7.247 -0.6434 -0.6782 -0.1351
   7023SM   H2S 9103   4.035   1.482   7.232 -1.3982 -1.1202 -0.6679
   7023SM   C3S 9104   4.225   1.411   7.314  0.2391 -0.1832  0.3257
   7023SM   H3S 9105   4.277   1.314   7.332  0.7412  0.1271  0.5656
   7023SM    O3 9106   4.225   1.463   7.442 -0.3554 -0.6502 -0.1193
   7023SM   HO3 9107   4.132   1.463   7.468 -0.8134  1.0872 -1.5863
   7023SM   C4S 9108   4.309   1.494   7.223  0.2899 -0.3984  0.4082
   7023SM   H4S 9109   4.264   1.592   7.201  1.8408 -0.0556 -1.4877
   7023SM   C5S 9110   4.421   1.459   7.161 -0.4689  0.3248  0.2102
   7023SM   H5S 9111   4.465   1.361   7.180 -0.1883  0.4756  0.3385
   7023SM   C6S 9112   4.498   1.556   7.070  0.4863 -0.1437 -0.4679
   7023SM   H6S 9113   4.604   1.524   7.062  0.5570 -0.4975  1.3016
   7023SM   H6T 9114   4.510   1.651   7.126  0.9252 -0.3715 -0.1717
   7023SM   C7S 9115   4.444   1.574   6.931  0.1957  0.0764  0.1212
   7023SM   H7S 9116   4.367   1.652   6.914 -0.2700 -0.6690 -1.3838
   7023SM   H7T 9117   4.406   1.478   6.890  1.0062 -0.1745 -0.0578
   7023SM   C8S 9118   4.555   1.604   6.833  0.5293  0.0786 -0.1024
   7023SM   H8S 9119   4.652   1.553   6.853 -0.8621 -1.7811  2.3600
   7023SM   H8T 9120   4.563   1.714   6.841 -3.1351  0.5381 -0.8717
   7023SM   C9S 9121   4.515   1.571   6.686  0.3253  0.4008  0.5375
   7023SM   H9S 9122   4.410   1.608   6.685  0.8221  1.9149 -1.3731
   7023SM   H9T 9123   4.507   1.461   6.673 -1.3268  0.5027  0.4607
   7023SM  C10S 9124   4.606   1.634   6.582  0.2752  0.3139  0.0027
   7023SM  H10S 9125   4.710   1.600   6.599  0.4729  0.9288  0.0584
   7023SM  H10T 9126   4.630   1.742   6.591 -0.3508  0.8214 -3.2699
   7023SM  C11S 9127   4.568   1.593   6.441 -0.2292  0.2321 -0.0547
   7023SM  H11S 9128   4.471   1.641   6.413  0.4800  2.0244  0.4047
   7023SM  H11T 9129   4.541   1.485   6.439  1.4212 -0.2261  0.7123
   7023SM  C12S 9130   4.674   1.623   6.336 -0.4049  0.0752 -0.0153
   7023SM  H12S 9131   4.771   1.581   6.368 -0.6568 -0.2064  0.3977
   7023SM  H12T 9132   4.681   1.734   6.328 -0.5495 -0.0121 -1.7241
   7023SM  C13S 9133   4.627   1.591   6.195  0.3474 -0.0474 -0.4364
   7023SM  H13S 9134   4.680   1.658   6.124  0.4554 -0.0230 -0.3341
   7023SM  H13T 9135   4.520   1.619   6.188  0.6870  1.0413 -1.5599
   7023SM  C14S 9136   4.648   1.444   6.151 -0.0988  0.6831 -0.4360
   7023SM  H14S 9137   4.579   1.371   6.198  0.6559  1.1878  1.5295
   7023SM  H14T 9138   4.749   1.414   6.187  0.0325  2.4858  0.8282
   7023SM  C15S 9139   4.661   1.431   6.005 -0.1461  0.3486 -0.9257
   7023SM  H15S 9140   4.728   1.502   5.952  1.1079 -1.0786 -1.2976
   7023SM  H15T 9141   4.557   1.447   5.969 -0.9849  2.1272  1.8607
   7023SM  C16S 9142   4.695   1.281   5.970 -0.0235 -0.3406  0.0541
   7023SM  H16S 9143   4.606   1.222   6.000 -1.1192  2.0132  1.8363
   7023SM  H16T 9144   4.771   1.242   6.041  1.4137  0.4077 -1.0177
   7023SM  C17S 9145   4.729   1.251   5.825  0.2915  0.9578 -0.3877
   7023SM  H17S 9146   4.824   1.295   5.788  2.2889 -1.6662  1.3022
   7023SM  H17T 9147   4.649   1.287   5.757 -1.0598  0.1626  0.7294
   7023SM  C18S 9148   4.735   1.102   5.798  0.0141  0.1769 -0.2454
   7023SM  H18S 9149   4.804   1.046   5.865  0.5507  0.0494 -0.8983
   7023SM  H18T 9150   4.759   1.090   5.691  1.4955 -1.0926  0.1927
   7023SM  H18U 9151   4.627   1.077   5.813  0.0961  1.1111  2.5721
   7023SM   C1F 9152   3.983   1.309   7.043  0.1663  0.4162  0.0633
   7023SM    OF 9153   3.880   1.368   7.070 -0.9717  0.0905 -0.3869
   7023SM   C2F 9154   3.987   1.220   6.929 -0.4648  0.2016 -0.1264
   7023SM   H2F 9155   4.051   1.131   6.950 -1.0418  0.1601  1.5853
   7023SM   H2G 9156   4.022   1.274   6.839 -3.7676 -0.2131 -1.8129
   7023SM   C3F 9157   3.851   1.161   6.901  1.1498  0.2469 -0.5691
   7023SM   H3F 9158   3.776   1.242   6.891  1.3082  0.4627 -0.0454
   7023SM   H3G 9159   3.823   1.095   6.986  3.1146  1.4052  1.0698
   7023SM   C4F 9160   3.831   1.067   6.776 -0.1353  0.6090  0.0319
   7023SM   H4F 9161   3.733   1.014   6.773  1.4942 -2.7581  1.0884
   7023SM   H4G 9162   3.904   0.985   6.793 -1.6763 -1.2197 -1.6052
   7023SM   C5F 9163   3.868   1.132   6.642  0.1143  0.2941 -0.0390
   7023SM   H5F 9164   3.978   1.144   6.636  0.2555 -1.2125 -0.8633
   7023SM   H5G 9165   3.814   1.230   6.637 -2.5904 -1.0251  1.2216
   7023SM   C6F 9166   3.811   1.043   6.529  0.8821  0.2713 -0.8227
   7023SM   H6F 9167   3.701   1.055   6.526  0.5425 -2.3854 -2.0396
   7023SM   H6G 9168   3.833   0.937   6.552  1.1754  0.1846 -1.4824
   7023SM   C7F 9169   3.855   1.085   6.392  0.2505 -0.0763  1.2873
   7023SM   H7F 9170   3.966   1.086   6.390  0.2799  1.3950  1.9431
   7023SM   H7G 9171   3.817   1.185   6.363 -1.1302 -1.2108 -1.1396
   7023SM   C8F 9172   3.820   0.989   6.275  0.1460 -0.0556 -0.8255
   7023SM   H8F 9173   3.709   0.992   6.269  0.1456 -0.7902 -1.4044
   7023SM   H8G 9174   3.862   0.888   6.293  2.1698  0.9066  0.1100
   7023SM   C9F 9175   3.887   1.044   6.155 -0.1650  0.2398  0.0485
   7023SM   H9F 9176   3.991   1.011   6.174 -0.4520 -2.0291 -1.8124
   7023SM   H9G 9177   3.862   1.151   6.138 -0.2540  0.2834  0.4441
   7023SM  C10F 9178   3.837   0.964   6.030 -0.2809 -0.4795  0.1267
   7023SM  H10F 9179   3.732   0.989   6.002  0.9539  0.8364 -4.0159
   7023SM  H10G 9180   3.845   0.854   6.040  1.5132 -0.3845  0.0521
   7023SM  C11F 9181   3.900   1.028   5.903  0.2760 -0.6687  0.1127
   7023SM  H11F 9182   4.006   1.004   5.880  1.1930  3.2279 -0.3574
   7023SM  H11G 9183   3.893   1.138   5.914 -0.6600 -0.6691 -0.3942
   7023SM  C12F 9184   3.806   0.985   5.777  1.3149 -0.2019  0.5064
   7023SM  H12F 9185   3.701   1.015   5.796  1.0555 -1.0081  0.3748
   7023SM  H12G 9186   3.795   0.875   5.769 -1.0444  0.1046 -1.7469
   7023SM  C13F 9187   3.861   1.062   5.649 -0.0050 -0.2588  0.0479
   7023SM  H13F 9188   3.971   1.051   5.649 -0.0611 -0.8810  0.7178
   7023SM  H13G 9189   3.831   1.169   5.653 -0.7064 -0.4017 -0.8216
   7023SM  C14F 9190   3.798   1.008   5.519 -0.0793 -0.1514 -0.0778
   7023SM  H14F 9191   3.687   1.000   5.526 -0.1591 -0.5499 -1.5404
   7023SM  H14G 9192   3.833   0.903   5.510 -0.6362 -0.1970 -2.3255
   7023SM  C15F 9193   3.834   1.099   5.401 -0.7966  0.6566  0.5784
   7023SM  H15F 9194   3.944   1.111   5.389 -0.3037 -2.4841  1.1319
   7023SM  H15G 9195   3.786   1.198   5.415 -2.5805  0.0602 -0.7960
   7023SM  C16F 9196   3.776   1.046   5.267  0.5497  0.7091 -0.1838
   7023SM  H16F 9197   3.755   1.131   5.198 -4.0204  1.1975  1.4228
   7023SM  H16G 9198   3.675   1.001   5.278  0.4935  0.8830  0.0347
   7023SM  C17F 9199   3.873   0.943   5.209 -0.5209 -0.9495  0.1515
   7023SM  H17F 9200   3.851   0.842   5.251  0.1956 -0.9272  0.5973
   7023SM  H17G 9201   3.974   0.979   5.237 -0.6451 -1.9428  2.0562
   7023SM  C18F 9202   3.856   0.926   5.060  0.0494  0.5824 -0.9693
   7023SM  H18F 9203   3.899   1.008   4.999  0.2590  1.7223  0.6536
   7023SM  H18G 9204   3.745   0.932   5.050 -0.0130  1.3718  0.0543
   7023SM  C19F 9205   3.889   0.788   4.991  0.0027 -0.0352  0.4426
   7023SM  H19F 9206   3.835   0.709   5.048 -0.6599  0.5534  0.6535
   7023SM  H19G 9207   3.997   0.767   5.001  0.9097  2.8869 -1.7887
   7023SM  C20F 9208   3.846   0.777   4.841  0.3959  0.3602  0.3497
   7023SM  H20F 9209   3.900   0.853   4.780 -0.7005  1.8025  1.1250
   7023SM  H20G 9210   3.740   0.807   4.826 -0.0887 -1.1131  0.6770
   7023SM  C21F 9211   3.871   0.635   4.781 -0.2821  0.7165  0.1982
   7023SM  H21F 9212   3.800   0.613   4.699 -1.1573 -0.5999  1.2470
   7023SM  H21G 9213   3.826   0.566   4.856  1.6113  1.7115  2.4126
   7023SM  C22F 9214   4.013   0.594   4.734  0.6990  0.4399 -0.1927
   7023SM  H22F 9215   4.084   0.586   4.819 -0.7139 -2.0512  0.8508
   7023SM  H22G 9216   4.053   0.675   4.669  0.2901  1.9459  1.3646
   7023SM  C23F 9217   4.015   0.456   4.661  0.0435 -0.1220  0.1232
   7023SM  H23F 9218   3.974   0.386   4.736 -2.8749  0.0033 -1.2231
   7023SM  H23G 9219   4.118   0.420   4.639 -0.1366 -0.9181  0.5572
   7023SM  H23H 9220   3.951   0.462   4.570  2.1563 -0.8006 -1.5176
   7123SM     N 9221   4.556   0.100   7.374 -0.8123 -0.8166 -0.5805
   7123SM   C15 9222   4.495   0.230   7.419  0.6155 -0.4843  0.0606
   7123SM  H15A 9223   4.422   0.263   7.345  0.9426 -1.1801 -0.5816
   7123SM  H15B 9224   4.563   0.313   7.426 -0.5088  0.5149 -0.4730
   7123SM  H15C 9225   4.452   0.216   7.517  0.7163 -0.4776  0.1057
   7123SM   C14 9226   4.680   0.072   7.460 -0.1506 -0.1865  0.2878
   7123SM  H14A 9227   4.753   0.152   7.456  0.8173 -0.8227  3.2458
   7123SM  H14B 9228   4.720  -0.021   7.423  1.3702  0.7478 -0.5860
   7123SM  H14C 9229   4.657   0.059   7.564 -0.5445  2.0028  0.5221
   7123SM   C13 9230   4.457  -0.011   7.415 -0.6148 -0.5831  0.0551
   7123SM  H13A 9231   4.491  -0.106   7.375  1.4589  0.9473 -2.1189
   7123SM  H13B 9232   4.354   0.005   7.386 -0.6880 -0.0800  0.5831
   7123SM  H13C 9233   4.469  -0.018   7.522  4.3136 -0.4127 -0.2834
   7123SM   C12 9234   4.595   0.095   7.226 -0.5971  0.6102 -0.2309
   7123SM  H12A 9235   4.673   0.166   7.202  0.3114 -0.0800  0.6125
   7123SM  H12B 9236   4.510   0.130   7.168  0.3470  4.2383  0.3213
   7123SM   C11 9237   4.630  -0.048   7.174 -0.2631  0.5147  0.4303
   7123SM  H11A 9238   4.651  -0.052   7.065 -0.6372  0.1754  0.3661
   7123SM  H11B 9239   4.548  -0.122   7.189 -0.3330 -0.0481 -2.2068
   7123SM     P 9240   4.889  -0.040   7.213  0.1497  0.2348  0.0228
   7123SM   O13 9241   4.893   0.092   7.153 -0.3014 -0.2406  0.6313
   7123SM   O14 9242   4.970  -0.062   7.336 -0.1416 -0.1036  0.4392
   7123SM   O11 9243   4.950  -0.136   7.103 -0.6771  0.0476  0.3895
   7123SM   O12 9244   4.745  -0.100   7.244 -0.0189 -0.2321 -0.1167
   7123SM   C1S 9245   4.892  -0.139   6.973 -0.1916 -0.0487  0.0233
   7123SM   H1S 9246   4.888  -0.034   6.935  0.7427 -0.0502 -0.1001
   7123SM   H1T 9247   4.795  -0.192   6.974  0.1170 -0.7899  3.8634
   7123SM    NF 9248   4.891  -0.242   6.755  0.7702 -0.2134 -0.2194
   7123SM   HNF 9249   4.870  -0.329   6.710  2.0808 -0.4153 -0.4846
   7123SM   C2S 9250   4.974  -0.234   6.876  0.5473  0.1511 -0.3034
   7123SM   H2S 9251   5.069  -0.181   6.851 -0.4322  0.9456 -2.5713
   7123SM   C3S 9252   5.006  -0.365   6.947 -0.2976  0.0004 -0.3000
   7123SM   H3S 9253   4.911  -0.407   6.988 -0.1711 -0.2363 -0.2488
   7123SM    O3 9254   5.097  -0.351   7.060 -0.2538  0.0475  0.1767
   7123SM   HO3 9255   5.113  -0.257   7.066 -1.6818  0.3166  0.2210
   7123SM   C4S 9256   5.076  -0.452   6.848 -0.6251  0.5355  0.0681
   7123SM   H4S 9257   5.169  -0.403   6.813 -1.8642  1.1621 -2.5881
   7123SM   C5S 9258   5.027  -0.577   6.816  0.1547 -0.6187 -0.0876
   7123SM   H5S 9259   4.932  -0.610   6.860  0.0881 -0.6688 -0.2696
   7123SM   C6S 9260   5.093  -0.677   6.725 -0.5677  0.2914 -0.1691
   7123SM   H6S 9261   5.021  -0.749   6.679  0.2033  0.3833 -1.5972
   7123SM   H6T 9262   5.166  -0.741   6.779  0.1269 -2.1428 -3.5842
   7123SM   C7S 9263   5.161  -0.613   6.599 -0.1605 -0.0210 -0.3909
   7123SM   H7S 9264   5.214  -0.703   6.561 -2.3954 -1.2902 -0.6211
   7123SM   H7T 9265   5.228  -0.533   6.639 -0.6695 -0.8157  2.2214
   7123SM   C8S 9266   5.061  -0.552   6.498  0.0342  0.3187  0.2335
   7123SM   H8S 9267   5.019  -0.464   6.550  1.2403 -0.4716  2.6619
   7123SM   H8T 9268   4.982  -0.629   6.481  1.8855 -1.5616 -0.3406
   7123SM   C9S 9269   5.122  -0.537   6.357 -0.2889  0.3642 -0.3353
   7123SM   H9S 9270   5.141  -0.633   6.305  1.8038 -0.1314  1.2272
   7123SM   H9T 9271   5.222  -0.491   6.372 -0.6966  1.7724 -1.6330
   7123SM  C10S 9272   5.035  -0.441   6.276 -0.1550 -0.4945  0.4130
   7123SM  H10S 9273   5.013  -0.348   6.333 -1.6304 -1.0948  0.8836
   7123SM  H10T 9274   4.934  -0.484   6.259 -0.6026  0.8040 -0.3541
   7123SM  C11S 9275   5.098  -0.412   6.139  0.2625 -0.5460  0.4212
   7123SM  H11S 9276   5.145  -0.506   6.101  0.9050  0.1853 -0.6425
   7123SM  H11T 9277   5.183  -0.341   6.150  0.0468 -0.2589  0.2309
   7123SM  C12S 9278   5.000  -0.373   6.027  0.7046  0.1480 -0.3093
   7123SM  H12S 9279   5.040  -0.324   5.936 -1.6199  1.1646 -0.8740
   7123SM  H12T 9280   4.938  -0.292   6.072  0.8919 -0.5651  1.3315
   7123SM  C13S 9281   4.912  -0.493   5.978 -0.0311 -0.0775  0.2343
   7123SM  H13S 9282   4.806  -0.464   5.960  0.2322  1.4776  0.9695
   7123SM  H13T 9283   4.910  -0.573   6.055  2.6404 -0.7315 -0.2866
   7123SM  C14S 9284   4.983  -0.557   5.863  0.7847 -0.1989  0.2052
   7123SM  H14S 9285   5.089  -0.581   5.887  1.4638  1.7617 -0.6509
   7123SM  H14T 9286   4.986  -0.478   5.786 -1.1995  1.4051  1.6665
   7123SM  C15S 9287   4.896  -0.667   5.786 -0.8833  0.2068 -0.7774
   7123SM  H15S 9288   4.800  -0.615   5.765 -1.8026 -0.8974  0.4863
   7123SM  H15T 9289   4.883  -0.763   5.841 -0.2458  0.9619  0.7565
   7123SM  C16S 9290   4.952  -0.680   5.649  0.2714  0.0548  0.1213
   7123SM  H16S 9291   5.059  -0.711   5.649  0.5413  0.8311 -1.8884
   7123SM  H16T 9292   4.951  -0.589   5.584  3.3236 -0.1272 -0.3544
   7123SM  C17S 9293   4.874  -0.782   5.570 -1.1271  0.0210 -0.3925
   7123SM  H17S 9294   4.767  -0.755   5.557 -1.3341  0.2172  1.3561
   7123SM  H17T 9295   4.875  -0.875   5.630 -1.7095 -0.2229 -0.7557
   7123SM  C18S 9296   4.942  -0.817   5.437 -0.2435  0.5832 -0.6207
   7123SM  H18S 9297   4.903  -0.752   5.356 -0.7914 -1.0067 -1.6866
   7123SM  H18T 9298   4.933  -0.925   5.413 -0.2917 -0.2416  2.6643
   7123SM  H18U 9299   5.051  -0.799   5.442 -0.1067 -0.3353 -0.1847
   7123SM   C1F 9300   4.868  -0.134   6.678  0.8466 -0.8304  0.0008
   7123SM    OF 9301   4.935  -0.033   6.677 -0.2455  0.5977 -0.0925
   7123SM   C2F 9302   4.753  -0.150   6.581  0.4532 -0.6062 -0.0163
   7123SM   H2F 9303   4.659  -0.124   6.633 -1.7623 -2.6098 -2.7080
   7123SM   H2G 9304   4.738  -0.256   6.552  0.4329  0.1206 -3.0121
   7123SM   C3F 9305   4.770  -0.065   6.458 -0.1416  0.3487 -0.4350
   7123SM   H3F 9306   4.865  -0.098   6.409 -0.7113  0.2166 -1.4797
   7123SM   H3G 9307   4.798   0.039   6.486  1.1913 -0.6094  2.1276
   7123SM   C4F 9308   4.651  -0.070   6.358  0.0165 -0.5949 -0.1406
   7123SM   H4F 9309   4.675   0.014   6.288 -0.3928  0.0408  0.4686
   7123SM   H4G 9310   4.550  -0.053   6.402 -0.3890 -0.8167 -0.9597
   7123SM   C5F 9311   4.643  -0.199   6.275  0.3501  0.3632 -0.0637
   7123SM   H5F 9312   4.604  -0.278   6.343 -3.9964  1.5794 -0.8165
   7123SM   H5G 9313   4.741  -0.219   6.226 -0.1635  2.2191 -2.0281
   7123SM   C6F 9314   4.549  -0.189   6.162  0.3927  0.1536 -0.5630
   7123SM   H6F 9315   4.553  -0.102   6.092 -2.0140 -0.2956 -1.3695
   7123SM   H6G 9316   4.444  -0.208   6.194  0.4074  0.3825 -0.3712
   7123SM   C7F 9317   4.568  -0.298   6.058  0.3715  0.5648  0.4706
   7123SM   H7F 9318   4.539  -0.389   6.114  4.4674 -0.6777  0.8669
   7123SM   H7G 9319   4.676  -0.311   6.040  0.8062  0.8095  2.6019
   7123SM   C8F 9320   4.481  -0.288   5.939  1.0598  0.1288  0.3781
   7123SM   H8F 9321   4.526  -0.205   5.880  1.6869 -0.3979  0.1190
   7123SM   H8G 9322   4.378  -0.254   5.966  1.2951  2.1289 -0.9990
   7123SM   C9F 9323   4.465  -0.416   5.848 -0.2065 -0.3599  0.4898
   7123SM   H9F 9324   4.405  -0.492   5.901 -1.6454  0.0844 -0.4205
   7123SM   H9G 9325   4.569  -0.454   5.850 -0.6510 -1.5769  1.1916
   7123SM  C10F 9326   4.409  -0.392   5.711 -0.4596  0.3054  0.3549
   7123SM  H10F 9327   4.448  -0.474   5.648 -1.1087  0.8112 -0.7382
   7123SM  H10G 9328   4.463  -0.304   5.669 -1.9646  0.9119 -0.3839
   7123SM  C11F 9329   4.254  -0.390   5.714  0.7094  0.6953 -1.2363
   7123SM  H11F 9330   4.211  -0.305   5.772 -0.9984 -0.5503 -0.5862
   7123SM  H11G 9331   4.211  -0.480   5.762 -2.4969  3.1661  1.0313
   7123SM  C12F 9332   4.190  -0.387   5.567 -0.4726  0.2628 -0.8623
   7123SM  H12F 9333   4.273  -0.334   5.515  0.0280  1.5812  1.1771
   7123SM  H12G 9334   4.102  -0.319   5.560 -1.1353 -0.6340 -1.4942
   7123SM  C13F 9335   4.161  -0.521   5.502 -0.6120  0.6178 -0.0209
   7123SM  H13F 9336   4.252  -0.585   5.508  0.0703  1.5383 -0.4141
   7123SM  H13G 9337   4.149  -0.509   5.392  0.3688 -0.1640 -0.2223
   7123SM  C14F 9338   4.041  -0.603   5.552  0.2768  0.0288  0.3890
   7123SM  H14F 9339   3.947  -0.544   5.539 -0.5846 -0.5981  3.0801
   7123SM  H14G 9340   4.068  -0.613   5.660 -3.5295  0.7255  1.5924
   7123SM  C15F 9341   4.034  -0.738   5.484  0.4044  0.1972  0.0079
   7123SM  H15F 9342   4.045  -0.814   5.563  2.2734  0.5563  0.1399
   7123SM  H15G 9343   4.113  -0.741   5.406  0.0744  1.4201 -0.4079
   7123SM  C16F 9344   3.900  -0.764   5.417  0.5227 -0.4255 -0.3022
   7123SM  H16F 9345   3.866  -0.673   5.363 -0.3894  0.0123  0.9522
   7123SM  H16G 9346   3.821  -0.779   5.494 -0.2024  3.1381 -0.1546
   7123SM  C17F 9347   3.907  -0.873   5.316  0.7792 -0.4239 -0.3151
   7123SM  H17F 9348   3.937  -0.972   5.358  2.5477 -0.1834 -0.9228
   7123SM  H17G 9349   3.995  -0.856   5.251  1.7013  1.4987  1.3227
   7123SM  C18F 9350   3.774  -0.887   5.229 -0.4334 -0.5530 -0.6723
   7123SM  H18F 9351   3.765  -0.791   5.174  1.6127  1.0361  1.5507
   7123SM  H18G 9352   3.688  -0.901   5.297  1.0740  0.6509  1.6391
   7123SM  C19F 9353   3.777  -1.001   5.128 -0.0885 -0.2888  0.5978
   7123SM  H19F 9354   3.684  -0.996   5.067  0.0720 -1.6094  0.2348
   7123SM  H19G 9355   3.778  -1.100   5.178 -0.0023 -2.2292 -2.9432
   7123SM  C20F 9356   3.890  -0.995   5.022 -0.0653  0.6236  0.2342
   7123SM  H20F 9357   3.837  -1.046   4.938 -1.3935  0.2834  1.2460
   7123SM  H20G 9358   3.975  -1.055   5.061 -0.3556  0.9480  1.4001
   7123SM  C21F 9359   3.924  -0.846   4.974  0.0311  0.3629  0.2519
   7123SM  H21F 9360   3.983  -0.810   5.061 -1.4892  0.0342  1.4673
   7123SM  H21G 9361   3.826  -0.793   4.973 -0.6492 -0.8306 -1.5404
   7123SM  C22F 9362   3.991  -0.844   4.839  0.5127 -0.4878  0.0096
   7123SM  H22F 9363   3.924  -0.866   4.753  2.9832  1.6296 -2.6764
   7123SM  H22G 9364   4.066  -0.925   4.848 -0.1690 -1.0165  1.0717
   7123SM  C23F 9365   4.076  -0.720   4.809 -0.1367 -0.2232  0.7333
   7123SM  H23F 9366   4.172  -0.699   4.860 -0.5119  4.2579 -0.0150
   7123SM  H23G 9367   4.018  -0.628   4.830 -1.3218 -0.7204 -0.2180
   7123SM  H23H 9368   4.108  -0.716   4.703 -0.1321 -1.8871  0.6335
   7223SM     N 9369   6.252   1.816   8.069  0.4976  0.1340  0.1251
   7223SM   C15 9370   6.372   1.729   8.086  1.0522  0.2410  0.7386
   7223SM  H15A 9371   6.367   1.671   8.178  1.2053  2.3605  2.1454
   7223SM  H15B 9372   6.458   1.793   8.100 -0.6516  2.8954 -0.2257
   7223SM  H15C 9373   6.387   1.670   7.997 -1.3536  2.3398 -1.1734
   7223SM   C14 9374   6.226   1.892   8.193  0.2867 -0.8399 -0.1602
   7223SM  H14A 9375   6.303   1.953   8.238 -1.6372  0.6530  1.3033
   7223SM  H14B 9376   6.191   1.822   8.269 -1.4863 -0.5947 -0.7011
   7223SM  H14C 9377   6.136   1.947   8.168  0.1696 -1.5109 -1.2449
   7223SM   C13 9378   6.281   1.899   7.947 -0.6778 -0.1294 -0.4414
   7223SM  H13A 9379   6.286   1.839   7.857  0.7441 -0.0574 -0.4271
   7223SM  H13B 9380   6.376   1.948   7.950  0.2594 -1.8916  1.6326
   7223SM  H13C 9381   6.206   1.975   7.930 -1.2437 -0.9127 -1.6313
   7223SM   C12 9382   6.126   1.732   8.044 -0.0923  0.6603  0.3345
   7223SM  H12A 9383   6.105   1.659   8.121 -2.4375 -1.6581 -2.2467
   7223SM  H12B 9384   6.156   1.674   7.958 -0.4906 -0.4094  0.8903
   7223SM   C11 9385   5.992   1.802   7.994  0.0401 -0.3880 -0.0599
   7223SM  H11A 9386   5.919   1.721   7.971 -1.1597  1.0345 -1.4097
   7223SM  H11B 9387   6.021   1.861   7.905 -1.3093 -1.1726 -1.0678
   7223SM     P 9388   5.795   1.941   8.096  0.4543 -0.0358  0.3479
   7223SM   O13 9389   5.702   1.824   8.109  0.4694 -0.0018  0.6423
   7223SM   O14 9390   5.773   2.049   8.194  0.0982 -0.1990  0.0768
   7223SM   O11 9391   5.773   1.998   7.950  0.1113  0.0060 -0.5951
   7223SM   O12 9392   5.939   1.889   8.102 -0.2394 -0.0409  0.3723
   7223SM   C1S 9393   5.877   2.097   7.906  0.3797 -0.2760 -0.4344
   7223SM   H1S 9394   5.979   2.054   7.896  0.7941  0.1958  1.4985
   7223SM   H1T 9395   5.892   2.181   7.977  1.9089 -0.3160 -0.6761
   7223SM    NF 9396   5.947   2.229   7.716  0.5614 -0.2812  0.1898
   7223SM   HNF 9397   5.960   2.327   7.724  1.0816 -0.3575  0.3555
   7223SM   C2S 9398   5.834   2.162   7.770 -0.4112  0.2002  0.1563
   7223SM   H2S 9399   5.808   2.079   7.700  1.8937  1.6179 -2.6295
   7223SM   C3S 9400   5.719   2.256   7.802 -0.2382  0.3584 -0.0861
   7223SM   H3S 9401   5.771   2.331   7.865 -0.4494 -1.1459  1.9440
   7223SM    O3 9402   5.615   2.209   7.885 -0.8336 -0.1953 -0.0088
   7223SM   HO3 9403   5.644   2.120   7.904 -0.4341 -0.1440 -0.3598
   7223SM   C4S 9404   5.669   2.308   7.670  0.3985 -0.6988 -0.0484
   7223SM   H4S 9405   5.726   2.392   7.629 -1.0424 -0.2220 -1.2030
   7223SM   C5S 9406   5.592   2.238   7.585 -0.4801  0.7006 -0.1164
   7223SM   H5S 9407   5.562   2.135   7.611  3.1073 -0.0027  2.0007
   7223SM   C6S 9408   5.541   2.292   7.453  0.9258 -0.9012 -0.1638
   7223SM   H6S 9409   5.433   2.311   7.443  0.5387 -3.6148 -2.7692
   7223SM   H6T 9410   5.556   2.207   7.382  1.5127 -0.3520 -0.7097
   7223SM   C7S 9411   5.608   2.415   7.382  0.0207  0.5037  0.0091
   7223SM   H7S 9412   5.719   2.404   7.376 -0.0993 -0.2940 -0.9641
   7223SM   H7T 9413   5.595   2.505   7.447  0.2918  0.2424  0.4317
   7223SM   C8S 9414   5.551   2.445   7.244 -0.3492  0.0149  0.1064
   7223SM   H8S 9415   5.443   2.468   7.255  0.0815  1.6199  1.3595
   7223SM   H8T 9416   5.564   2.361   7.173 -1.5133  0.9090 -1.2212
   7223SM   C9S 9417   5.621   2.568   7.181 -0.4989 -0.3274 -0.0420
   7223SM   H9S 9418   5.726   2.587   7.212 -1.0598  0.2810  1.6564
   7223SM   H9T 9419   5.573   2.660   7.222  1.3832  1.3352 -1.3688
   7223SM  C10S 9420   5.604   2.570   7.029  0.2225 -0.2851  0.3565
   7223SM  H10S 9421   5.496   2.574   7.006  0.2259  1.2696  0.4555
   7223SM  H10T 9422   5.640   2.475   6.985  0.8311  0.2239 -0.2723
   7223SM  C11S 9423   5.665   2.693   6.951 -0.4552 -0.0330  0.2368
   7223SM  H11S 9424   5.773   2.702   6.980 -0.1795 -2.3860  0.1465
   7223SM  H11T 9425   5.600   2.776   6.984 -1.4896 -1.1510  1.0997
   7223SM  C12S 9426   5.662   2.686   6.798  0.4116 -0.9172 -0.2845
   7223SM  H12S 9427   5.558   2.674   6.760  0.9694 -1.7922 -1.6020
   7223SM  H12T 9428   5.720   2.597   6.764  1.2965  0.1314 -1.6200
   7223SM  C13S 9429   5.718   2.812   6.731 -0.2744 -0.2209 -0.7006
   7223SM  H13S 9430   5.827   2.827   6.743 -0.6003  2.8784 -0.6464
   7223SM  H13T 9431   5.657   2.901   6.760  1.3075  0.8745 -0.6424
   7223SM  C14S 9432   5.703   2.811   6.577  0.3077  0.3338 -0.7183
   7223SM  H14S 9433   5.598   2.787   6.548  0.8858  0.7867 -3.4973
   7223SM  H14T 9434   5.765   2.727   6.539  0.8861 -0.0009  0.8823
   7223SM  C15S 9435   5.745   2.947   6.516  0.1271  0.7581 -0.5123
   7223SM  H15S 9436   5.833   2.987   6.570 -1.1309  2.2012  0.5263
   7223SM  H15T 9437   5.660   3.017   6.532 -0.7675 -0.1335 -1.2121
   7223SM  C16S 9438   5.783   2.935   6.370  0.1236  0.0215  0.6633
   7223SM  H16S 9439   5.869   2.865   6.364  0.4169 -0.0990  4.1361
   7223SM  H16T 9440   5.786   3.040   6.334 -2.2156 -0.0645  0.0486
   7223SM  C17S 9441   5.664   2.882   6.282 -0.0197  0.2910 -0.5828
   7223SM  H17S 9442   5.578   2.945   6.313 -0.6085  0.1272 -1.8366
   7223SM  H17T 9443   5.642   2.777   6.312 -1.2558  0.3314 -1.2929
   7223SM  C18S 9444   5.681   2.889   6.134  0.6235  0.6739  0.6333
   7223SM  H18S 9445   5.753   2.812   6.098 -1.7619 -0.4717 -2.1656
   7223SM  H18T 9446   5.716   2.990   6.103  1.3604  0.4456  0.7066
   7223SM  H18U 9447   5.584   2.861   6.086  0.7398  0.3464  0.5871
   7223SM   C1F 9448   6.049   2.160   7.660 -0.1961  0.5071  0.6892
   7223SM    OF 9449   6.074   2.043   7.683  0.3469 -0.5726 -0.1446
   7223SM   C2F 9450   6.133   2.236   7.560  0.2160  0.0284 -0.3793
   7223SM   H2F 9451   6.176   2.326   7.608  0.6332 -0.8080  0.8520
   7223SM   H2G 9452   6.065   2.272   7.480  1.3232  0.1753 -1.2850
   7223SM   C3F 9453   6.242   2.156   7.495  0.4502  0.8175 -0.2513
   7223SM   H3F 9454   6.205   2.061   7.449  1.0851  1.4025 -2.0295
   7223SM   H3G 9455   6.315   2.127   7.574  0.6256  3.3648  0.5868
   7223SM   C4F 9456   6.319   2.224   7.383 -0.0279  0.4430 -0.3836
   7223SM   H4F 9457   6.348   2.318   7.435 -2.0152 -1.1321  4.1196
   7223SM   H4G 9458   6.261   2.250   7.292  0.7309 -0.2722 -1.0875
   7223SM   C5F 9459   6.440   2.148   7.336 -0.3636 -0.1164  0.3201
   7223SM   H5F 9460   6.465   2.081   7.421  0.7895  0.8613  0.7817
   7223SM   H5G 9461   6.530   2.213   7.333  1.0314 -1.7271  3.1880
   7223SM   C6F 9462   6.414   2.057   7.210 -0.2996 -0.1754 -0.0653
   7223SM   H6F 9463   6.331   1.986   7.232 -1.0052  0.1515 -1.5276
   7223SM   H6G 9464   6.510   2.006   7.188 -0.6241 -0.4284 -0.9446
   7223SM   C7F 9465   6.387   2.137   7.079  0.9681  0.0364  0.0032
   7223SM   H7F 9466   6.480   2.195   7.064 -0.5143  2.7248  0.4138
   7223SM   H7G 9467   6.299   2.205   7.090  1.1989  0.9216 -2.7661
   7223SM   C8F 9468   6.356   2.062   6.952 -0.4723 -0.2753 -0.6576
   7223SM   H8F 9469   6.258   2.016   6.981  0.4787 -2.1184 -0.1700
   7223SM   H8G 9470   6.426   1.977   6.935  1.4247  1.0539  0.2252
   7223SM   C9F 9471   6.363   2.151   6.826  0.8137  0.4559 -0.5654
   7223SM   H9F 9472   6.466   2.154   6.783  0.5086  1.5409 -1.2629
   7223SM   H9G 9473   6.324   2.254   6.840 -0.5231 -0.4655  3.7317
   7223SM  C10F 9474   6.277   2.083   6.718  0.4067 -0.4406  0.1922
   7223SM  H10F 9475   6.170   2.097   6.743  0.4913 -0.7230  0.7237
   7223SM  H10G 9476   6.292   1.973   6.724  0.2292 -0.3984  1.7706
   7223SM  C11F 9477   6.311   2.127   6.578  0.5929  0.3144  0.4525
   7223SM  H11F 9478   6.255   2.070   6.501  0.7274 -0.4429  0.8979
   7223SM  H11G 9479   6.422   2.118   6.573  0.6732  1.0036  0.8613
   7223SM  C12F 9480   6.280   2.272   6.551 -0.2781  0.5506 -0.3832
   7223SM  H12F 9481   6.279   2.327   6.647  1.0143  0.9005 -0.5492
   7223SM  H12G 9482   6.174   2.290   6.522 -0.2939  0.1211 -0.5936
   7223SM  C13F 9483   6.374   2.347   6.447 -0.6758 -0.6278  0.4238
   7223SM  H13F 9484   6.476   2.355   6.490 -0.5564  0.6382 -0.0318
   7223SM  H13G 9485   6.337   2.451   6.434 -0.1355 -0.6986 -2.2292
   7223SM  C14F 9486   6.374   2.278   6.312  0.0196  0.2377  0.5582
   7223SM  H14F 9487   6.270   2.252   6.283  0.3004 -1.0638  0.6879
   7223SM  H14G 9488   6.437   2.187   6.317  1.2916  1.0880  0.4499
   7223SM  C15F 9489   6.434   2.361   6.191 -0.1670  0.3459  0.2876
   7223SM  H15F 9490   6.391   2.464   6.196 -3.0020 -0.7689  0.6181
   7223SM  H15G 9491   6.387   2.309   6.105  0.3928  1.5355 -0.7646
   7223SM  C16F 9492   6.585   2.377   6.173 -0.3447  0.6040  0.4618
   7223SM  H16F 9493   6.637   2.285   6.207 -0.3995  0.5399  0.3716
   7223SM  H16G 9494   6.628   2.453   6.241  0.2176  0.6001  0.1130
   7223SM  C17F 9495   6.630   2.420   6.032  0.3105 -0.3073 -0.2399
   7223SM  H17F 9496   6.632   2.342   5.954  0.4612  0.0849 -0.6324
   7223SM  H17G 9497   6.738   2.441   6.048  0.4802 -2.3279  1.8617
   7223SM  C18F 9498   6.556   2.533   5.957 -0.0310 -0.3228  0.0577
   7223SM  H18F 9499   6.553   2.626   6.017 -0.0685  0.4764 -1.1548
   7223SM  H18G 9500   6.448   2.522   5.933  0.1081  3.4955 -3.4230
   7223SM  C19F 9501   6.633   2.576   5.827  0.3963 -0.4762  0.5900
   7223SM  H19F 9502   6.646   2.488   5.761  3.3234  0.4845 -0.2655
   7223SM  H19G 9503   6.732   2.622   5.847  0.8293 -0.4213 -1.4111
   7223SM  C20F 9504   6.549   2.679   5.754 -0.1381  0.3395  0.2632
   7223SM  H20F 9505   6.536   2.770   5.816 -2.6383 -0.2049  0.6439
   7223SM  H20G 9506   6.446   2.643   5.734  0.6205 -0.6275 -2.2611
   7223SM  C21F 9507   6.604   2.734   5.614 -0.6796 -0.1539  0.0230
   7223SM  H21F 9508   6.691   2.790   5.654 -0.9983  0.7894 -0.5710
   7223SM  H21G 9509   6.537   2.813   5.576  1.8672  2.7055  1.0513
   7223SM  C22F 9510   6.623   2.621   5.515  0.6950  0.5142  0.0463
   7223SM  H22F 9511   6.525   2.584   5.479  1.6669 -2.8163  0.5459
   7223SM  H22G 9512   6.681   2.543   5.568 -1.9079 -1.2867  0.4665
   7223SM  C23F 9513   6.685   2.681   5.394 -0.1826  0.1658  0.0482
   7223SM  H23F 9514   6.792   2.697   5.419  0.0539  2.1732 -1.9797
   7223SM  H23G 9515   6.651   2.781   5.362  1.2902  0.6272 -0.1570
   7223SM  H23H 9516   6.678   2.614   5.306  2.3861  1.8253 -1.5476
   7323SM     N 9517   4.509   1.119   7.579  0.1156  0.5062  0.3495
   7323SM   C15 9518   4.639   1.167   7.647  0.0776 -0.0598 -0.1732
   7323SM  H15A 9519   4.663   1.270   7.625 -1.1130  0.7338  1.9766
   7323SM  H15B 9520   4.716   1.094   7.629 -0.2324 -0.1339 -1.2853
   7323SM  H15C 9521   4.626   1.178   7.754  0.0739  0.2075 -0.1986
   7323SM   C14 9522   4.478   0.983   7.636 -0.2937 -0.0133  0.4624
   7323SM  H14A 9523   4.407   0.926   7.578 -0.8605 -1.1162  2.1531
   7323SM  H14B 9524   4.440   0.999   7.736  1.3648 -2.3037  1.5561
   7323SM  H14C 9525   4.563   0.916   7.632  0.2313  0.6476  0.3682
   7323SM   C13 9526   4.384   1.198   7.619 -0.8307  0.2473 -0.2277
   7323SM  H13A 9527   4.384   1.297   7.575 -0.6993  0.1307 -0.4882
   7323SM  H13B 9528   4.386   1.212   7.726 -1.8600 -2.6411  0.2477
   7323SM  H13C 9529   4.290   1.150   7.595 -1.8673  2.4030 -0.7679
   7323SM   C12 9530   4.530   1.119   7.431 -0.1438  0.4895  0.2318
   7323SM  H12A 9531   4.617   1.062   7.400  1.3005  3.1712 -0.9884
   7323SM  H12B 9532   4.547   1.222   7.404  0.4925  0.8447  1.8748
   7323SM   C11 9533   4.416   1.056   7.346  0.3178 -0.2711 -0.5570
   7323SM  H11A 9534   4.429   1.099   7.245 -1.9772  0.1461 -0.7331
   7323SM  H11B 9535   4.318   1.099   7.379  0.0351 -0.7183 -0.7989
   7323SM     P 9536   4.290   0.846   7.275  0.5255 -0.0678  0.0107
   7323SM   O13 9537   4.308   0.700   7.266  0.7320  0.0831 -0.1404
   7323SM   O14 9538   4.166   0.890   7.344  0.3888 -0.2581 -0.0520
   7323SM   O11 9539   4.296   0.914   7.130 -0.3837  0.9140  0.4716
   7323SM   O12 9540   4.416   0.911   7.349  0.2399  0.0753 -0.0556
   7323SM   C1S 9541   4.415   0.888   7.045  0.4496 -0.4656 -0.2593
   7323SM   H1S 9542   4.453   0.784   7.054  2.1610  0.1538  0.1004
   7323SM   H1T 9543   4.493   0.958   7.083  1.8325 -1.1381 -1.7885
   7323SM    NF 9544   4.473   0.857   6.806  0.2859  0.4060  0.0436
   7323SM   HNF 9545   4.554   0.913   6.793 -0.0713  0.8288 -0.4178
   7323SM   C2S 9546   4.375   0.916   6.904 -0.1979 -0.5404  0.2596
   7323SM   H2S 9547   4.283   0.857   6.885  1.4346 -3.3663  0.4861
   7323SM   C3S 9548   4.374   1.071   6.883  0.0217  1.4171 -0.6144
   7323SM   H3S 9549   4.479   1.105   6.880  1.5130 -2.6222 -0.3997
   7323SM    O3 9550   4.310   1.140   6.990 -0.3986  0.0664 -0.2072
   7323SM   HO3 9551   4.300   1.065   7.049 -3.1405 -0.8929 -1.6995
   7323SM   C4S 9552   4.306   1.100   6.756 -0.3820 -0.1850  0.0211
   7323SM   H4S 9553   4.198   1.118   6.761 -0.5439 -1.2488  0.6868
   7323SM   C5S 9554   4.365   1.135   6.643  0.1423 -0.0008 -0.1169
   7323SM   H5S 9555   4.475   1.146   6.644  0.3477 -1.3706 -1.8853
   7323SM   C6S 9556   4.309   1.179   6.509 -0.0052  0.9003 -0.2217
   7323SM   H6S 9557   4.230   1.117   6.461 -0.1130  2.4093 -2.1324
   7323SM   H6T 9558   4.386   1.179   6.429 -3.0414 -0.3892 -3.3797
   7323SM   C7S 9559   4.242   1.319   6.509 -0.2909  0.3168  0.0955
   7323SM   H7S 9560   4.299   1.381   6.582  1.1578  1.2528 -1.7139
   7323SM   H7T 9561   4.139   1.322   6.550 -0.4644 -0.4591 -0.2636
   7323SM   C8S 9562   4.256   1.386   6.368  0.1763 -0.2773 -0.4086
   7323SM   H8S 9563   4.362   1.407   6.344 -0.0596  0.0477 -1.2143
   7323SM   H8T 9564   4.210   1.486   6.382  1.2587  0.1317  0.3397
   7323SM   C9S 9565   4.205   1.303   6.246 -0.1003 -0.5191 -1.0127
   7323SM   H9S 9566   4.094   1.297   6.247 -0.1458  0.1797  0.9016
   7323SM   H9T 9567   4.244   1.199   6.245 -0.5894 -0.7314  0.4741
   7323SM  C10S 9568   4.249   1.367   6.121  0.7500  0.8119 -0.5708
   7323SM  H10S 9569   4.360   1.378   6.125  0.6484  2.1510 -1.0280
   7323SM  H10T 9570   4.209   1.470   6.112  1.7205  1.6462  2.9340
   7323SM  C11S 9571   4.204   1.275   6.007  0.5424 -0.1262  0.4459
   7323SM  H11S 9572   4.093   1.276   6.011  0.3647 -0.4720 -2.4589
   7323SM  H11T 9573   4.230   1.168   6.016 -0.7364 -0.5017 -0.1061
   7323SM  C12S 9574   4.248   1.321   5.868  0.6103 -0.5018 -0.3483
   7323SM  H12S 9575   4.338   1.259   5.849  0.5066 -0.8159  0.1686
   7323SM  H12T 9576   4.271   1.429   5.864  1.1350 -0.6427 -1.4493
   7323SM  C13S 9577   4.132   1.302   5.769  0.6551 -0.3750  1.1082
   7323SM  H13S 9578   4.060   1.384   5.791  0.2288 -0.7283  1.0399
   7323SM  H13T 9579   4.073   1.209   5.755 -3.6147  1.9668  1.8071
   7323SM  C14S 9580   4.177   1.353   5.630 -0.9708 -0.0649 -0.2282
   7323SM  H14S 9581   4.250   1.436   5.646 -0.8652 -0.4624  1.6369
   7323SM  H14T 9582   4.100   1.407   5.570  0.8572  3.7021  0.5265
   7323SM  C15S 9583   4.257   1.246   5.554 -0.2702  0.7897 -0.3453
   7323SM  H15S 9584   4.185   1.174   5.509 -1.0303  0.1296  1.7811
   7323SM  H15T 9585   4.317   1.178   5.619 -0.0412  1.3225  0.0008
   7323SM  C16S 9586   4.350   1.307   5.453 -0.0258 -0.0048  0.3126
   7323SM  H16S 9587   4.325   1.410   5.420  1.5595 -0.5425 -3.0062
   7323SM  H16T 9588   4.334   1.244   5.363 -1.2553  1.0125 -0.2006
   7323SM  C17S 9589   4.501   1.304   5.496 -0.7304  0.5113 -0.2394
   7323SM  H17S 9590   4.519   1.197   5.521 -0.6025  0.7058  0.5082
   7323SM  H17T 9591   4.523   1.356   5.591  0.4018 -0.7125  0.2060
   7323SM  C18S 9592   4.597   1.364   5.393  0.5447 -0.2623  0.2560
   7323SM  H18S 9593   4.568   1.316   5.297 -1.7350 -3.2361  2.2434
   7323SM  H18T 9594   4.695   1.326   5.427 -1.0359 -2.6193  2.5812
   7323SM  H18U 9595   4.588   1.472   5.369 -1.4887 -0.7527 -1.6053
   7323SM   C1F 9596   4.484   0.730   6.789 -1.0338  0.4950 -0.1272
   7323SM    OF 9597   4.411   0.659   6.856 -0.2450 -0.3248 -0.5953
   7323SM   C2F 9598   4.604   0.676   6.702  0.1283 -0.0271 -0.3949
   7323SM   H2F 9599   4.689   0.650   6.768  0.0450 -2.6991 -1.2234
   7323SM   H2G 9600   4.621   0.763   6.635  1.3108  0.8531  0.9985
   7323SM   C3F 9601   4.574   0.560   6.604  0.5582 -0.4113  0.2961
   7323SM   H3F 9602   4.486   0.582   6.540  0.3600  0.6736  0.9116
   7323SM   H3G 9603   4.554   0.462   6.651  1.3347 -0.6894  0.0736
   7323SM   C4F 9604   4.704   0.543   6.524  0.3959  0.2358  0.2253
   7323SM   H4F 9605   4.785   0.521   6.596  1.3411 -2.6298 -1.5413
   7323SM   H4G 9606   4.734   0.645   6.492 -0.1097  0.3408  0.0768
   7323SM   C5F 9607   4.683   0.457   6.402  0.1506 -0.7562 -0.1763
   7323SM   H5F 9608   4.612   0.508   6.332  3.9137  2.6739 -1.8985
   7323SM   H5G 9609   4.644   0.356   6.430 -1.9966 -0.2525 -1.0792
   7323SM   C6F 9610   4.809   0.431   6.327 -0.4073  0.3058 -0.3991
   7323SM   H6F 9611   4.895   0.397   6.389  0.3547 -0.4498 -1.8162
   7323SM   H6G 9612   4.848   0.524   6.280 -0.3074  0.6687  0.3854
   7323SM   C7F 9613   4.771   0.323   6.224 -0.2489 -0.3317  0.4059
   7323SM   H7F 9614   4.684   0.364   6.169  1.0757 -0.7554 -2.1925
   7323SM   H7G 9615   4.737   0.230   6.275 -0.4953 -0.7644 -0.5286
   7323SM   C8F 9616   4.874   0.289   6.114 -0.5628  0.0012  0.0167
   7323SM   H8F 9617   4.973   0.260   6.157 -1.4812 -1.1031  1.4776
   7323SM   H8G 9618   4.892   0.377   6.049 -1.3373 -0.2996 -0.6287
   7323SM   C9F 9619   4.821   0.176   6.021 -0.0941 -0.4948 -0.5320
   7323SM   H9F 9620   4.718   0.204   5.989 -0.3061 -0.8266 -0.1428
   7323SM   H9G 9621   4.820   0.087   6.087 -1.0464 -0.0736  0.0471
   7323SM  C10F 9622   4.913   0.167   5.901  0.0553 -0.3870 -0.2874
   7323SM  H10F 9623   5.009   0.124   5.937 -0.3811 -2.5171 -1.4846
   7323SM  H10G 9624   4.922   0.267   5.853  0.0517 -0.4870 -0.4983
   7323SM  C11F 9625   4.851   0.067   5.807 -0.3528  1.4659 -0.2315
   7323SM  H11F 9626   4.891   0.061   5.703  0.6400 -2.5575  0.1934
   7323SM  H11G 9627   4.743   0.080   5.787 -0.8439 -3.3817 -2.1350
   7323SM  C12F 9628   4.867  -0.074   5.859  0.9079 -0.4974 -0.7057
   7323SM  H12F 9629   4.807  -0.065   5.952  0.1672  0.7298 -1.2612
   7323SM  H12G 9630   4.972  -0.096   5.885  0.6536 -0.5748  0.2932
   7323SM  C13F 9631   4.799  -0.188   5.775  0.3787  0.0695 -0.1282
   7323SM  H13F 9632   4.701  -0.148   5.743 -0.3201 -1.0585  0.5459
   7323SM  H13G 9633   4.781  -0.277   5.839 -2.9563 -0.7178 -1.9313
   7323SM  C14F 9634   4.881  -0.223   5.648  0.3236 -0.0973  0.0093
   7323SM  H14F 9635   4.986  -0.232   5.684  0.0015 -1.4069  0.6849
   7323SM  H14G 9636   4.877  -0.135   5.581 -0.6400 -0.2839 -0.1916
   7323SM  C15F 9637   4.831  -0.351   5.573 -0.4798 -0.1391 -0.2913
   7323SM  H15F 9638   4.789  -0.427   5.642 -0.7111 -0.4254 -0.7438
   7323SM  H15G 9639   4.915  -0.385   5.509 -0.7126 -1.8272  0.2611
   7323SM  C16F 9640   4.716  -0.313   5.476  0.9710 -0.2374 -0.3079
   7323SM  H16F 9641   4.743  -0.233   5.405 -0.3392 -1.1114 -1.8528
   7323SM  H16G 9642   4.626  -0.281   5.533 -0.0691 -2.3095 -0.6821
   7323SM  C17F 9643   4.662  -0.446   5.417  0.6998  0.0432 -0.1460
   7323SM  H17F 9644   4.611  -0.511   5.491 -1.0210  0.9290 -0.4831
   7323SM  H17G 9645   4.749  -0.488   5.363  0.9715 -0.1195  0.4131
   7323SM  C18F 9646   4.541  -0.431   5.323 -0.2354  0.0033 -0.1016
   7323SM  H18F 9647   4.560  -0.353   5.247 -1.3064  0.6527  0.2736
   7323SM  H18G 9648   4.452  -0.382   5.367 -0.7195  1.0855 -2.1804
   7323SM  C19F 9649   4.492  -0.554   5.240 -0.0667 -0.4730  0.2318
   7323SM  H19F 9650   4.459  -0.633   5.311 -0.6265 -1.2391 -0.8631
   7323SM  H19G 9651   4.578  -0.595   5.184  1.0443  1.7218  0.1839
   7323SM  C20F 9652   4.387  -0.516   5.139  0.4693 -1.4151 -0.6278
   7323SM  H20F 9653   4.284  -0.509   5.180  0.1450 -1.4500 -1.4169
   7323SM  H20G 9654   4.373  -0.607   5.076 -1.2046  0.4890 -3.2033
   7323SM  C21F 9655   4.401  -0.387   5.047  0.5113 -1.1038 -0.5967
   7323SM  H21F 9656   4.504  -0.397   5.009  1.4767 -0.3387  1.6039
   7323SM  H21G 9657   4.381  -0.290   5.099  1.1657 -0.4742 -1.5048
   7323SM  C22F 9658   4.303  -0.401   4.926  0.1232 -0.6914  0.6791
   7323SM  H22F 9659   4.199  -0.404   4.964 -0.3616 -1.1936 -0.6107
   7323SM  H22G 9660   4.324  -0.499   4.877  0.8613  0.1293 -0.6867
   7323SM  C23F 9661   4.304  -0.293   4.823  1.1287  0.0426  0.2788
   7323SM  H23F 9662   4.226  -0.315   4.748 -1.0982 -0.7185  2.6851
   7323SM  H23G 9663   4.409  -0.283   4.787 -0.0237  2.2402 -2.9735
   7323SM  H23H 9664   4.270  -0.195   4.863 -0.1163  0.7428 -2.2908
   7423SM     N 9665   0.859   5.437   7.679  0.2943  0.6855 -0.3819
   7423SM   C15 9666   0.986   5.517   7.682  0.1098  0.0578  0.3684
   7423SM  H15A 9667   0.972   5.620   7.653  0.1263  0.0129  0.2000
   7423SM  H15B 9668   1.047   5.471   7.606  0.7189  2.1493 -0.4924
   7423SM  H15C 9669   1.034   5.514   7.778  0.9865 -0.1274 -0.0660
   7423SM   C14 9670   0.790   5.460   7.814  0.8131  0.2028 -0.6485
   7423SM  H14A 9671   0.766   5.565   7.820 -0.2905 -0.1117  1.2983
   7423SM  H14B 9672   0.857   5.438   7.895  0.0343  0.6837  0.1350
   7423SM  H14C 9673   0.696   5.407   7.823  2.2033 -2.5402 -1.2256
   7423SM   C13 9674   0.792   5.486   7.553  0.1102 -0.3364 -0.7635
   7423SM  H13A 9675   0.695   5.440   7.542 -0.2436 -0.0293  0.8708
   7423SM  H13B 9676   0.852   5.448   7.471  1.0102 -1.1019  0.2126
   7423SM  H13C 9677   0.778   5.593   7.552 -0.0767 -0.3387  0.2677
   7423SM   C12 9678   0.885   5.289   7.670 -0.1718 -0.0080 -0.1537
   7423SM  H12A 9679   0.792   5.238   7.692 -0.9373  0.6153 -1.7916
   7423SM  H12B 9680   0.962   5.277   7.744  0.1240  2.2510 -0.0319
   7423SM   C11 9681   0.937   5.229   7.545 -0.6571  0.5484 -0.3586
   7423SM  H11A 9682   0.866   5.253   7.462 -0.1716 -0.3151 -1.0389
   7423SM  H11B 9683   0.943   5.119   7.542 -1.8519  0.4892 -2.2507
   7423SM     P 9684   1.144   5.277   7.392 -0.1686  0.2412 -0.2325
   7423SM   O13 9685   1.206   5.404   7.366  0.4448 -0.6482 -0.8406
   7423SM   O14 9686   1.226   5.155   7.404  0.2248  0.6120  0.1259
   7423SM   O11 9687   1.033   5.256   7.283 -0.1624  0.0931  0.1378
   7423SM   O12 9688   1.061   5.285   7.522 -0.4370 -1.4439 -0.8375
   7423SM   C1S 9689   0.992   5.130   7.221 -1.2676  1.2841  0.2732
   7423SM   H1S 9690   0.894   5.103   7.266 -1.5157  0.4211 -0.7724
   7423SM   H1T 9691   1.059   5.043   7.236 -1.7282  0.5682 -1.5698
   7423SM    NF 9692   0.926   5.033   7.002  0.5947 -0.1159  0.2491
   7423SM   HNF 9693   0.993   4.986   6.945 -1.0451 -3.4104  0.7464
   7423SM   C2S 9694   0.977   5.155   7.064 -0.0165  0.6826 -0.2944
   7423SM   H2S 9695   0.900   5.234   7.050 -0.9569 -0.0333  0.6137
   7423SM   C3S 9696   1.108   5.202   6.989 -0.4727 -0.4658 -0.7735
   7423SM   H3S 9697   1.180   5.122   7.017  0.0257  0.7148  1.5959
   7423SM    O3 9698   1.161   5.325   7.038 -0.3049  0.1231 -0.1732
   7423SM   HO3 9699   1.117   5.337   7.123 -0.8293  0.4985 -0.4909
   7423SM   C4S 9700   1.081   5.209   6.842  0.9617  0.0619 -0.2531
   7423SM   H4S 9701   1.088   5.107   6.799  1.2848  0.7477 -1.9159
   7423SM   C5S 9702   1.053   5.311   6.766 -0.5070 -0.3564  0.3056
   7423SM   H5S 9703   1.029   5.410   6.808  0.2216  1.0792 -2.3844
   7423SM   C6S 9704   1.033   5.306   6.622  0.8231 -0.0660  0.3218
   7423SM   H6S 9705   1.096   5.376   6.562  0.8830 -0.8847 -0.6134
   7423SM   H6T 9706   0.928   5.340   6.609  0.9806  0.8848  1.3940
   7423SM   C7S 9707   1.042   5.167   6.549  0.3167 -0.1672  0.4486
   7423SM   H7S 9708   0.988   5.086   6.602 -0.3446 -1.5459 -2.1870
   7423SM   H7T 9709   1.152   5.150   6.552  0.3512 -0.1386 -0.4347
   7423SM   C8S 9710   1.001   5.170   6.401 -0.5489 -0.2543  0.5664
   7423SM   H8S 9711   1.048   5.255   6.347  0.0511 -0.8237  0.1776
   7423SM   H8T 9712   0.890   5.175   6.391 -0.4425 -0.8834 -1.3920
   7423SM   C9S 9713   1.056   5.051   6.314 -0.0517 -0.1205 -0.5536
   7423SM   H9S 9714   1.010   4.955   6.344 -0.1857 -0.7111 -2.5015
   7423SM   H9T 9715   1.167   5.043   6.313  0.1711  1.9925 -2.4863
   7423SM  C10S 9716   1.017   5.043   6.168 -0.6797 -0.9358  0.5009
   7423SM  H10S 9717   1.051   5.133   6.113  1.0053 -2.6955 -1.5025
   7423SM  H10T 9718   0.906   5.049   6.169 -0.6189  0.4107  0.6564
   7423SM  C11S 9719   1.074   4.924   6.096  1.1863  0.5492  0.5166
   7423SM  H11S 9720   1.063   4.835   6.160 -1.6347 -0.7491 -1.5832
   7423SM  H11T 9721   1.178   4.934   6.058  0.3809  1.6810 -1.5854
   7423SM  C12S 9722   0.984   4.884   5.978 -0.3774 -0.9255 -0.1435
   7423SM  H12S 9723   0.877   4.884   6.008 -0.3550 -1.0841 -0.0612
   7423SM  H12T 9724   1.005   4.785   5.932 -1.1085 -0.3552 -1.7737
   7423SM  C13S 9725   0.995   4.983   5.868 -0.0284  0.0274 -0.3367
   7423SM  H13S 9726   1.098   5.000   5.829  1.2368  0.4933  2.9183
   7423SM  H13T 9727   0.979   5.083   5.913  0.7568 -0.7055  1.6892
   7423SM  C14S 9728   0.907   4.949   5.748 -0.8853 -0.0001 -0.1300
   7423SM  H14S 9729   0.807   4.951   5.798  0.1996 -2.2575  2.3470
   7423SM  H14T 9730   0.938   4.855   5.699  4.2972  1.5874 -0.4974
   7423SM  C15S 9731   0.910   5.046   5.629  0.0970 -0.2642 -1.0711
   7423SM  H15S 9732   1.016   5.073   5.612  0.9283 -0.7413  2.6196
   7423SM  H15T 9733   0.870   5.147   5.655  1.5144 -0.0228  0.3471
   7423SM  C16S 9734   0.832   4.987   5.509  0.3498 -0.1457  0.2417
   7423SM  H16S 9735   0.724   4.972   5.529 -0.1199  1.4872 -0.9062
   7423SM  H16T 9736   0.868   4.888   5.474 -0.0454 -0.0742 -0.3857
   7423SM  C17S 9737   0.847   5.073   5.383 -0.4969  0.1896  1.0021
   7423SM  H17S 9738   0.957   5.069   5.370 -0.7055 -0.1533 -0.9514
   7423SM  H17T 9739   0.814   5.178   5.401  0.3900  0.6494  0.0343
   7423SM  C18S 9740   0.776   5.027   5.258  0.3434 -0.2028  0.3211
   7423SM  H18S 9741   0.818   5.079   5.170  1.5495 -2.9159 -0.8397
   7423SM  H18T 9742   0.669   5.048   5.283  0.8705 -0.2999  2.8862
   7423SM  H18U 9743   0.787   4.918   5.237 -2.2231 -0.2883 -1.1214
   7423SM   C1F 9744   0.809   4.979   7.033  1.5318  0.1507  0.9450
   7423SM    OF 9745   0.729   5.029   7.111 -0.5043 -0.2084 -0.0426
   7423SM   C2F 9746   0.777   4.846   6.977  0.0006  0.9147  0.7057
   7423SM   H2F 9747   0.755   4.769   7.054 -1.4228 -1.6411 -2.0481
   7423SM   H2G 9748   0.864   4.807   6.920  0.3591 -2.8757  3.4556
   7423SM   C3F 9749   0.668   4.845   6.860 -1.2997  0.7899 -0.0077
   7423SM   H3F 9750   0.570   4.869   6.907 -0.9283 -0.8135  1.6785
   7423SM   H3G 9751   0.667   4.747   6.809  0.5067  1.2058 -0.9237
   7423SM   C4F 9752   0.696   4.946   6.745  0.7646 -0.2494 -0.3017
   7423SM   H4F 9753   0.796   4.918   6.706  0.3038 -0.1481 -1.6116
   7423SM   H4G 9754   0.709   5.047   6.790  2.5505 -0.6158  0.0897
   7423SM   C5F 9755   0.614   4.923   6.621 -0.2749 -0.1449 -0.3973
   7423SM   H5F 9756   0.505   4.922   6.642 -0.3430  0.7554 -0.6579
   7423SM   H5G 9757   0.642   4.832   6.565  2.3820  0.7768 -0.7086
   7423SM   C6F 9758   0.628   5.026   6.510  0.0780 -0.6182  0.0523
   7423SM   H6F 9759   0.736   5.050   6.494 -0.2992  1.3488  0.1652
   7423SM   H6G 9760   0.587   5.120   6.553  1.7155 -0.7481  2.0581
   7423SM   C7F 9761   0.564   4.997   6.375  0.3922 -0.5338  0.4698
   7423SM   H7F 9762   0.475   4.937   6.402  0.0147 -0.0285  0.3528
   7423SM   H7G 9763   0.644   4.944   6.320  0.8157  0.7800 -0.2181
   7423SM   C8F 9764   0.530   5.123   6.293 -0.1078 -0.0436 -0.4085
   7423SM   H8F 9765   0.620   5.188   6.287 -0.2455  0.0871 -1.1295
   7423SM   H8G 9766   0.448   5.177   6.346 -0.8073 -0.9205 -0.5769
   7423SM   C9F 9767   0.501   5.091   6.145  0.3455  0.2565 -0.1862
   7423SM   H9F 9768   0.409   5.030   6.154  0.0289  0.9931  3.2290
   7423SM   H9G 9769   0.582   5.030   6.102 -0.3360 -2.4420  2.0800
   7423SM  C10F 9770   0.478   5.210   6.048 -0.0889 -0.0581 -0.1452
   7423SM  H10F 9771   0.556   5.289   6.053  0.4139 -0.4950 -0.8725
   7423SM  H10G 9772   0.376   5.249   6.070 -0.3334 -0.3255 -0.7765
   7423SM  C11F 9773   0.485   5.173   5.899 -0.0305 -0.2043 -0.1161
   7423SM  H11F 9774   0.403   5.102   5.878  0.4442 -0.9923  0.6236
   7423SM  H11G 9775   0.581   5.122   5.873  0.7265  0.9400  0.3254
   7423SM  C12F 9776   0.477   5.301   5.814 -0.0663 -0.1604 -0.1651
   7423SM  H12F 9777   0.561   5.367   5.845  1.1047 -2.1611  1.1844
   7423SM  H12G 9778   0.383   5.356   5.832  1.0293  2.3306 -1.5839
   7423SM  C13F 9779   0.495   5.286   5.659 -0.0200 -0.3393 -0.2115
   7423SM  H13F 9780   0.596   5.244   5.636 -0.2352 -0.3962 -1.0500
   7423SM  H13G 9781   0.483   5.380   5.600 -0.8475 -0.1640  0.2214
   7423SM  C14F 9782   0.388   5.190   5.598 -1.1566 -0.3988 -0.5251
   7423SM  H14F 9783   0.280   5.213   5.615 -1.2535 -1.0973 -0.1327
   7423SM  H14G 9784   0.396   5.087   5.639 -0.1833 -0.0087  0.2939
   7423SM  C15F 9785   0.404   5.196   5.443  0.0266 -0.0859 -0.4500
   7423SM  H15F 9786   0.510   5.204   5.410  0.5421 -1.6920  0.7028
   7423SM  H15G 9787   0.363   5.294   5.410  0.2125 -0.2683 -1.2487
   7423SM  C16F 9788   0.340   5.071   5.363 -0.2625  0.0438  0.2011
   7423SM  H16F 9789   0.238   5.040   5.394 -0.0848 -0.7639 -0.0035
   7423SM  H16G 9790   0.408   4.986   5.386 -2.0345 -1.2650  0.7964
   7423SM  C17F 9791   0.321   5.081   5.213 -0.1305  0.4596  0.2067
   7423SM  H17F 9792   0.275   5.180   5.192 -2.5500 -0.6275  0.0998
   7423SM  H17G 9793   0.253   5.000   5.180  0.7357 -0.6416  1.0406
   7423SM  C18F 9794   0.453   5.064   5.143  0.0216  0.0139  0.1650
   7423SM  H18F 9795   0.509   4.969   5.159  0.3868  0.0169 -0.9830
   7423SM  H18G 9796   0.518   5.150   5.171 -0.6645  0.5874  0.0139
   7423SM  C19F 9797   0.443   5.089   4.991 -0.2029  0.6353 -0.1106
   7423SM  H19F 9798   0.386   5.009   4.940  0.2149  0.5709 -0.4822
   7423SM  H19G 9799   0.545   5.083   4.948 -0.7324 -0.1493 -1.2978
   7423SM  C20F 9800   0.392   5.228   4.948  0.3455  0.4894  0.0237
   7423SM  H20F 9801   0.439   5.308   5.009 -0.6338 -0.2719  1.8473
   7423SM  H20G 9802   0.283   5.226   4.969  0.3025 -3.8878  0.2619
   7423SM  C21F 9803   0.422   5.259   4.802  0.1274 -0.4346  0.1857
   7423SM  H21F 9804   0.384   5.171   4.747 -0.8566 -0.6356  1.1680
   7423SM  H21G 9805   0.532   5.240   4.796  0.6881  1.7961  2.0098
   7423SM  C22F 9806   0.358   5.402   4.752  0.3481  0.8113  0.1993
   7423SM  H22F 9807   0.423   5.487   4.783  0.1502  0.8751  0.4448
   7423SM  H22G 9808   0.258   5.413   4.799  0.4522 -0.7843  0.8720
   7423SM  C23F 9809   0.349   5.403   4.599 -0.1669  1.0080  0.1367
   7423SM  H23F 9810   0.336   5.510   4.571 -1.9922  0.3810 -1.6918
   7423SM  H23G 9811   0.253   5.359   4.565 -0.5316  2.4001 -0.7305
   7423SM  H23H 9812   0.436   5.368   4.539 -0.5263 -0.6382  0.5377
   7523SM     N 9813   7.179   5.481   7.893  0.7202  0.6156 -0.1436
   7523SM   C15 9814   7.188   5.544   7.758  0.1612 -0.4896 -0.6664
   7523SM  H15A 9815   7.190   5.463   7.687 -0.7148 -1.1441  0.0332
   7523SM  H15B 9816   7.287   5.582   7.738  0.7220 -1.2690  0.4958
   7523SM  H15C 9817   7.104   5.606   7.732  0.3082  0.0080  0.0231
   7523SM   C14 9818   7.209   5.579   7.998  0.6744  0.1051 -1.1050
   7523SM  H14A 9819   7.138   5.659   8.007 -1.2042 -1.6471  1.1601
   7523SM  H14B 9820   7.306   5.618   7.972  0.8111 -0.3664 -1.3209
   7523SM  H14C 9821   7.223   5.531   8.094 -0.7193  0.2222 -0.8259
   7523SM   C13 9822   7.034   5.436   7.915  0.1225 -0.0597 -0.6732
   7523SM  H13A 9823   6.959   5.513   7.902 -0.3365 -0.0612  1.5823
   7523SM  H13B 9824   7.024   5.406   8.018 -1.2375  2.0546 -0.1139
   7523SM  H13C 9825   7.015   5.351   7.851 -3.0142  1.0506 -1.4114
   7523SM   C12 9826   7.265   5.349   7.907 -0.1817  0.1657  0.0326
   7523SM  H12A 9827   7.372   5.363   7.897 -0.4278  2.0208 -0.5268
   7523SM  H12B 9828   7.243   5.297   7.815 -0.2880  0.9919 -0.4196
   7523SM   C11 9829   7.255   5.252   8.029  1.6737 -0.1566 -0.2141
   7523SM  H11A 9830   7.277   5.314   8.118  1.7142 -1.1503  0.4736
   7523SM  H11B 9831   7.330   5.170   8.023 -0.8627 -2.6349 -0.3884
   7523SM     P 9832   7.075   5.073   7.963  0.0480  0.1107 -0.0299
   7523SM   O13 9833   7.136   4.954   8.036  0.1622 -0.0414  0.6186
   7523SM   O14 9834   6.927   5.078   7.953  0.3553 -0.6691 -0.6748
   7523SM   O11 9835   7.134   5.071   7.816 -0.6713 -0.0985  0.0629
   7523SM   O12 9836   7.122   5.199   8.041  0.2396  0.0219  0.1003
   7523SM   C1S 9837   7.242   4.980   7.788 -0.1279 -0.5161 -0.5730
   7523SM   H1S 9838   7.205   4.877   7.805 -1.9290  0.4408  1.8772
   7523SM   H1T 9839   7.335   5.008   7.842 -0.5223 -0.5420  0.1235
   7523SM    NF 9840   7.414   4.905   7.638  0.4991  0.3466  0.1604
   7523SM   HNF 9841   7.495   4.960   7.658 -1.1722  2.8784  0.5482
   7523SM   C2S 9842   7.291   4.983   7.637  0.2573  0.5113  0.2234
   7523SM   H2S 9843   7.213   4.934   7.575  1.9538  1.6765 -3.0171
   7523SM   C3S 9844   7.310   5.128   7.576 -0.0771  0.7624 -0.1977
   7523SM   H3S 9845   7.399   5.169   7.628  0.1369 -0.7967  0.7399
   7523SM    O3 9846   7.192   5.205   7.588  0.8552  0.1146 -0.2828
   7523SM   HO3 9847   7.147   5.178   7.668  0.5021  1.0230 -0.1632
   7523SM   C4S 9848   7.354   5.114   7.431 -0.4046  0.0865  0.6168
   7523SM   H4S 9849   7.463   5.103   7.427 -0.3098  0.5985  1.5633
   7523SM   C5S 9850   7.284   5.093   7.319 -0.0633 -0.0713  0.3926
   7523SM   H5S 9851   7.175   5.079   7.326 -0.1660  0.3835 -0.2570
   7523SM   C6S 9852   7.351   5.071   7.183 -0.3428 -0.1253 -0.2253
   7523SM   H6S 9853   7.347   4.964   7.156  1.3318 -0.3261  0.2631
   7523SM   H6T 9854   7.457   5.102   7.177 -1.0571  2.3300 -3.4240
   7523SM   C7S 9855   7.285   5.156   7.071  0.6636 -0.5714 -0.3185
   7523SM   H7S 9856   7.311   5.264   7.082  1.2717 -0.8297  1.0420
   7523SM   H7T 9857   7.175   5.147   7.069  0.5749  0.4270 -0.8162
   7523SM   C8S 9858   7.337   5.116   6.930  0.0137  0.8149  0.2199
   7523SM   H8S 9859   7.309   5.010   6.911  1.4561  0.5418 -0.4954
   7523SM   H8T 9860   7.447   5.124   6.920 -0.0978  2.8608  0.0603
   7523SM   C9S 9861   7.286   5.211   6.816  0.4832  0.0955 -0.6815
   7523SM   H9S 9862   7.295   5.315   6.856  2.1238 -0.3650  0.2475
   7523SM   H9T 9863   7.176   5.195   6.812 -0.2364  3.3874  1.3618
   7523SM  C10S 9864   7.348   5.198   6.682  0.0771  0.0478  0.0327
   7523SM  H10S 9865   7.348   5.093   6.644 -0.4247  0.4503 -1.1318
   7523SM  H10T 9866   7.453   5.230   6.699  1.2474 -1.9835 -2.6029
   7523SM  C11S 9867   7.276   5.277   6.576  0.9158  0.1837  0.5584
   7523SM  H11S 9868   7.347   5.284   6.491 -1.0705  3.0604 -1.0358
   7523SM  H11T 9869   7.242   5.379   6.606  0.1675 -0.1447  0.8601
   7523SM  C12S 9870   7.143   5.210   6.525 -0.1591  0.4382 -0.0479
   7523SM  H12S 9871   7.082   5.208   6.618 -0.0645 -1.8178  0.0194
   7523SM  H12T 9872   7.155   5.105   6.491 -1.0699  0.2597  0.1481
   7523SM  C13S 9873   7.082   5.297   6.417 -0.1833 -0.0435  0.6154
   7523SM  H13S 9874   7.121   5.282   6.314  2.4200  1.4843  1.2823
   7523SM  H13T 9875   7.083   5.406   6.440  1.0852  0.5485 -1.9400
   7523SM  C14S 9876   6.933   5.262   6.396 -0.1349  0.5238 -0.7361
   7523SM  H14S 9877   6.866   5.294   6.479 -1.3010  0.4822 -1.6438
   7523SM  H14T 9878   6.934   5.151   6.406  0.3710  0.5802 -0.0740
   7523SM  C15S 9879   6.879   5.314   6.263  0.0234 -0.4122  0.4573
   7523SM  H15S 9880   6.923   5.415   6.248 -1.8567  0.3334 -0.3813
   7523SM  H15T 9881   6.770   5.337   6.267 -0.3159 -1.2631 -2.1808
   7523SM  C16S 9882   6.906   5.220   6.144 -0.9368  0.3569  0.3710
   7523SM  H16S 9883   6.836   5.134   6.136 -0.3717 -0.1274  0.5260
   7523SM  H16T 9884   7.006   5.174   6.156 -1.8373 -2.2739 -1.0963
   7523SM  C17S 9885   6.901   5.306   6.013 -0.6169 -0.0103 -0.1618
   7523SM  H17S 9886   6.976   5.386   6.030 -0.8941  0.4034 -0.8427
   7523SM  H17T 9887   6.801   5.352   6.002 -2.0926 -2.4557  1.8769
   7523SM  C18S 9888   6.946   5.226   5.888 -0.5870 -0.1466  0.1688
   7523SM  H18S 9889   7.030   5.157   5.907 -1.5071 -0.9715  1.4094
   7523SM  H18T 9890   6.973   5.299   5.808 -0.6347  0.0507  0.3330
   7523SM  H18U 9891   6.860   5.169   5.845 -0.0656 -0.0897 -0.9832
   7523SM   C1F 9892   7.422   4.772   7.624  0.1314  0.0822  0.4614
   7523SM    OF 9893   7.320   4.713   7.642  0.4936  0.0674  0.0306
   7523SM   C2F 9894   7.556   4.711   7.599  0.2011  0.0496  1.0314
   7523SM   H2F 9895   7.550   4.608   7.642  2.2486 -0.3665  0.4376
   7523SM   H2G 9896   7.639   4.758   7.655  1.1998 -0.7762  0.2920
   7523SM   C3F 9897   7.578   4.698   7.443  0.2964  0.5451 -0.1385
   7523SM   H3F 9898   7.655   4.620   7.425  0.3595  0.9905 -2.0415
   7523SM   H3G 9899   7.611   4.794   7.398  1.2245  0.0675 -0.5081
   7523SM   C4F 9900   7.449   4.671   7.357  0.1601  0.5337 -0.1868
   7523SM   H4F 9901   7.379   4.757   7.349 -0.3395  0.0539 -1.2348
   7523SM   H4G 9902   7.400   4.589   7.412  3.0932 -1.8856 -0.8746
   7523SM   C5F 9903   7.482   4.617   7.216 -0.4871 -0.5780  0.2349
   7523SM   H5F 9904   7.570   4.549   7.220 -0.3402 -0.4952 -1.0617
   7523SM   H5G 9905   7.517   4.696   7.145  0.8920 -2.3842 -1.2026
   7523SM   C6F 9906   7.359   4.553   7.147 -0.1339 -0.3867 -0.7951
   7523SM   H6F 9907   7.272   4.621   7.142 -1.9603 -2.5217 -0.1018
   7523SM   H6G 9908   7.336   4.472   7.220  1.4226 -0.5086 -0.3997
   7523SM   C7F 9909   7.386   4.492   7.009 -0.2718  0.3295 -0.2901
   7523SM   H7F 9910   7.323   4.401   7.000  0.8394 -0.4031 -0.6933
   7523SM   H7G 9911   7.492   4.464   6.995 -1.1089 -2.0558 -2.4321
   7523SM   C8F 9912   7.361   4.577   6.884  1.2981 -0.3807  0.8690
   7523SM   H8F 9913   7.427   4.666   6.886  1.0592 -0.1645 -0.3030
   7523SM   H8G 9914   7.255   4.611   6.890  1.1556 -0.7220  0.3813
   7523SM   C9F 9915   7.384   4.493   6.754 -0.6657  0.5598 -0.3739
   7523SM   H9F 9916   7.311   4.409   6.752  0.7713 -0.7189 -1.7078
   7523SM   H9G 9917   7.490   4.459   6.755  0.2624  3.2043 -0.8523
   7523SM  C10F 9918   7.375   4.577   6.630 -0.0499  0.1094 -0.1866
   7523SM  H10F 9919   7.405   4.517   6.541  0.2016 -1.1120  0.6982
   7523SM  H10G 9920   7.438   4.667   6.644 -0.7189  0.7309 -1.1023
   7523SM  C11F 9921   7.232   4.631   6.589 -0.2143  0.0592 -0.2148
   7523SM  H11F 9922   7.189   4.688   6.674  1.7037  2.4326 -0.7563
   7523SM  H11G 9923   7.179   4.538   6.558  1.0640 -0.1993 -1.7121
   7523SM  C12F 9924   7.243   4.733   6.470  0.4684  0.2380 -1.0981
   7523SM  H12F 9925   7.304   4.687   6.390  2.5136 -0.3216  0.6920
   7523SM  H12G 9926   7.296   4.825   6.505 -0.2564  0.3998 -0.3842
   7523SM  C13F 9927   7.104   4.781   6.424  0.4400 -0.0940 -0.3909
   7523SM  H13F 9928   7.056   4.833   6.509 -2.9603  0.0206 -2.2155
   7523SM  H13G 9929   7.051   4.686   6.403 -1.3721  0.8003 -0.0496
   7523SM  C14F 9930   7.117   4.879   6.301  0.6418 -0.1787  0.8690
   7523SM  H14F 9931   7.192   4.960   6.315  1.2310 -0.6864  0.7111
   7523SM  H14G 9932   7.016   4.924   6.292  0.5785 -0.0585  2.1031
   7523SM  C15F 9933   7.130   4.801   6.180 -0.2027  0.0549  0.0684
   7523SM  H15F 9934   7.054   4.722   6.161  0.4367  0.2504 -4.1127
   7523SM  H15G 9935   7.226   4.747   6.188 -1.0159 -1.1932  2.2288
   7523SM  C16F 9936   7.137   4.888   6.050  0.2201 -0.2861  0.2906
   7523SM  H16F 9937   7.238   4.935   6.051 -0.4358  1.1981 -0.8989
   7523SM  H16G 9938   7.074   4.979   6.055  0.8376  0.1111  1.1930
   7523SM  C17F 9939   7.128   4.800   5.932 -0.3611 -0.4603  0.1212
   7523SM  H17F 9940   7.195   4.712   5.942 -1.0473 -0.9144  0.8381
   7523SM  H17G 9941   7.163   4.863   5.847 -0.5608 -0.7627 -0.1850
   7523SM  C18F 9942   6.990   4.745   5.894 -0.2700 -0.5084 -0.3141
   7523SM  H18F 9943   6.917   4.828   5.894 -0.1713 -0.4186 -0.0288
   7523SM  H18G 9944   6.968   4.665   5.968  4.8400  0.6567  3.0248
   7523SM  C19F 9945   6.981   4.689   5.753  0.5313 -0.4541  0.9417
   7523SM  H19F 9946   6.878   4.650   5.745 -0.3046  1.7391  0.0626
   7523SM  H19G 9947   7.046   4.601   5.734 -1.2316 -1.8907  1.3465
   7523SM  C20F 9948   6.994   4.799   5.636 -0.1961 -0.8653 -0.4893
   7523SM  H20F 9949   7.096   4.842   5.648 -1.7506  2.6898  1.6105
   7523SM  H20G 9950   6.926   4.884   5.657  0.8230 -0.0788 -0.2416
   7523SM  C21F 9951   6.957   4.748   5.496  0.4872 -0.2467  0.3904
   7523SM  H21F 9952   7.010   4.650   5.492 -1.2249 -1.4242  3.5030
   7523SM  H21G 9953   6.990   4.824   5.422 -1.0630 -1.3492 -1.5302
   7523SM  C22F 9954   6.807   4.730   5.473  0.6444  0.2690  0.9024
   7523SM  H22F 9955   6.764   4.656   5.543  0.6167  0.2476  0.8627
   7523SM  H22G 9956   6.800   4.700   5.367 -1.2933  2.9474  0.1535
   7523SM  C23F 9957   6.727   4.857   5.497  0.3774 -0.7657  0.0834
   7523SM  H23F 9958   6.758   4.943   5.434  1.4360  0.6891  2.4758
   7523SM  H23G 9959   6.736   4.888   5.603  0.4241  0.1511 -0.1870
   7523SM  H23H 9960   6.620   4.834   5.480  0.6307 -2.9512  1.1161
   7623SM     N 9961   0.538   5.075   8.034 -0.6012 -0.8789 -0.0522
   7623SM   C15 9962   0.436   4.996   8.103  0.6582 -0.3442 -0.2405
   7623SM  H15A 9963   0.440   4.892   8.075  3.7569 -1.0414  2.1812
   7623SM  H15B 9964   0.339   5.039   8.085  1.3845  2.1470  1.3256
   7623SM  H15C 9965   0.451   5.004   8.209  1.0692 -0.2450 -0.2996
   7623SM   C14 9966   0.524   5.225   8.058  0.0617 -0.5835  0.7372
   7623SM  H14A 9967   0.561   5.252   8.156  0.5733  4.0450 -0.5002
   7623SM  H14B 9968   0.418   5.247   8.055  0.6155  2.6746  0.9733
   7623SM  H14C 9969   0.568   5.295   7.988  3.3369 -1.8818  1.3331
   7623SM   C13 9970   0.680   5.034   8.066 -1.0409 -0.0589 -0.1619
   7623SM  H13A 9971   0.751   5.070   7.993 -1.4609  1.0780 -0.0322
   7623SM  H13B 9972   0.694   4.928   8.085  1.6012  0.3861  0.7338
   7623SM  H13C 9973   0.718   5.094   8.147  1.0666 -0.2858 -0.9210
   7623SM   C12 9974   0.522   5.044   7.885 -0.3192 -0.4680  0.3280
   7623SM  H12A 9975   0.422   5.074   7.860 -0.6543 -0.7789  1.2444
   7623SM  H12B 9976   0.534   4.938   7.873  0.8154 -0.3788  0.4870
   7623SM   C11 9977   0.624   5.096   7.785 -0.5971  0.2806  0.1382
   7623SM  H11A 9978   0.615   5.036   7.691  1.1193  0.5892 -0.2571
   7623SM  H11B 9979   0.731   5.079   7.812 -0.6405 -0.9124 -0.3595
   7623SM     P 9980   0.475   5.307   7.705 -0.4872  0.0994  0.1721
   7623SM   O13 9981   0.352   5.231   7.724 -0.0539  0.3354 -0.4443
   7623SM   O14 9982   0.478   5.442   7.759  0.4120 -0.1086 -1.0918
   7623SM   O11 9983   0.510   5.320   7.553 -0.5165 -0.3285  0.4187
   7623SM   O12 9984   0.602   5.226   7.755  0.1707 -0.5641 -0.4356
   7623SM   C1S 9985   0.517   5.205   7.471  0.2232  0.1990 -0.1742
   7623SM   H1S 9986   0.444   5.126   7.500  2.6148 -2.2034 -0.3064
   7623SM   H1T 9987   0.622   5.169   7.470 -0.3174 -1.7350  2.1899
   7623SM    NF 9988   0.465   5.097   7.255  0.2538  0.7286  0.3044
   7623SM   HNF 9989   0.543   5.062   7.203 -1.4954  0.4736 -2.3373
   7623SM   C2S 9990   0.474   5.225   7.318  0.4680  0.0038 -0.5499
   7623SM   H2S 9991   0.371   5.267   7.316 -0.2370 -1.5009  1.0748
   7623SM   C3S 9992   0.574   5.319   7.247 -0.3049 -0.3956  0.1557
   7623SM   H3S 9993   0.679   5.283   7.257 -0.7634 -1.2397  2.5400
   7623SM    O3 9994   0.572   5.442   7.315  0.3705  0.1571  0.1046
   7623SM   HO3 9995   0.537   5.425   7.403  0.9660  0.4006  0.3954
   7623SM   C4S 9996   0.539   5.350   7.113 -0.2359 -0.4460  0.1874
   7623SM   H4S 9997   0.466   5.432   7.109  0.9780  0.6127 -1.6164
   7623SM   C5S 9998   0.575   5.284   6.998  0.3802  0.6067 -0.2123
   7623SM   H5S 9999   0.624   5.186   7.005 -0.5885  0.1779  0.8918
   7623SM   C6S10000   0.528   5.330   6.857  0.0549  0.0479 -0.4812
   7623SM   H6S10001   0.471   5.425   6.864 -0.3287 -0.0932 -1.5345
   7623SM   H6T10002   0.457   5.252   6.823  0.7967 -0.5101 -0.7967
   7623SM   C7S10003   0.632   5.357   6.740  0.4201 -0.1788 -0.0696
   7623SM   H7S10004   0.672   5.254   6.729  1.5796  0.1553  0.7705
   7623SM   H7T10005   0.716   5.423   6.771  1.1803 -0.0423 -2.2400
   7623SM   C8S10006   0.570   5.411   6.612  0.7933 -0.7655 -0.0508
   7623SM   H8S10007   0.541   5.516   6.630  2.4514  0.2523 -2.7732
   7623SM   H8T10008   0.475   5.355   6.594 -0.4596  1.2577  0.0260
   7623SM   C9S10009   0.659   5.413   6.493  0.2670 -0.2178  0.9384
   7623SM   H9S10010   0.681   5.308   6.466 -0.6632 -0.0148 -0.7604
   7623SM   H9T10011   0.749   5.471   6.523  1.2866 -0.2783 -1.7897
   7623SM  C10S10012   0.611   5.490   6.367  0.0923 -0.0649  0.4937
   7623SM  H10S10013   0.561   5.587   6.388 -0.1852 -0.1237  0.1180
   7623SM  H10T10014   0.534   5.429   6.314  1.1616 -0.9003 -0.1440
   7623SM  C11S10015   0.725   5.497   6.272 -0.8616 -0.4575 -0.0089
   7623SM  H11S10016   0.767   5.396   6.254  2.3111  1.1383 -2.6628
   7623SM  H11T10017   0.809   5.551   6.322 -2.3349  0.7463  1.2805
   7623SM  C12S10018   0.689   5.554   6.135  0.5684  0.3225  0.0308
   7623SM  H12S10019   0.665   5.661   6.151 -0.2587  0.4634 -1.8475
   7623SM  H12T10020   0.591   5.510   6.105 -0.8142  3.2791 -0.1549
   7623SM  C13S10021   0.792   5.524   6.025  0.6396  0.2744  0.1612
   7623SM  H13S10022   0.810   5.416   6.009  1.0820  0.6949 -2.6576
   7623SM  H13T10023   0.889   5.563   6.064  0.1896 -0.6393  2.3233
   7623SM  C14S10024   0.762   5.595   5.884  0.5877 -0.6037 -0.4467
   7623SM  H14S10025   0.772   5.704   5.906  1.5164 -1.1422  2.2410
   7623SM  H14T10026   0.655   5.571   5.866  0.2510  0.1797  0.4165
   7623SM  C15S10027   0.857   5.550   5.774  0.1415 -0.2443  0.1779
   7623SM  H15S10028   0.846   5.443   5.749  0.9393 -0.6611  1.5443
   7623SM  H15T10029   0.964   5.563   5.802 -0.4671  2.0350  1.7528
   7623SM  C16S10030   0.842   5.634   5.648 -0.3479 -0.4787 -0.4298
   7623SM  H16S10031   0.847   5.743   5.669 -2.6588  0.2943 -3.1985
   7623SM  H16T10032   0.743   5.606   5.605 -0.2755 -2.4346  0.5843
   7623SM  C17S10033   0.950   5.595   5.546 -0.1679 -0.1700 -0.5037
   7623SM  H17S10034   0.970   5.486   5.556 -0.8069 -0.2757 -0.3304
   7623SM  H17T10035   1.036   5.654   5.583 -0.9699  1.2076 -0.7940
   7623SM  C18S10036   0.927   5.627   5.403  0.3742  0.5426 -0.2825
   7623SM  H18S10037   0.927   5.738   5.401  0.0553  0.9655  5.4177
   7623SM  H18T10038   0.835   5.576   5.365  0.7789 -0.7535  0.4207
   7623SM  H18U10039   1.015   5.581   5.354  0.8660  0.6242  0.5054
   7623SM   C1F10040   0.364   5.017   7.283  0.2283 -0.1161  0.1461
   7623SM    OF10041   0.274   5.060   7.351  0.4602  0.3863  1.0068
   7623SM   C2F10042   0.369   4.877   7.225  0.3980  0.1275 -0.2663
   7623SM   H2F10043   0.346   4.800   7.302  1.0610 -1.4742 -1.5885
   7623SM   H2G10044   0.466   4.863   7.173  1.5185  0.3678  1.6694
   7623SM   C3F10045   0.264   4.860   7.115 -0.1054 -0.5530 -0.6268
   7623SM   H3F10046   0.160   4.876   7.152  0.4437 -0.7537  1.0886
   7623SM   H3G10047   0.277   4.756   7.077  1.4356 -0.2468 -0.9824
   7623SM   C4F10048   0.282   4.957   7.000 -0.0087 -0.1800  0.1010
   7623SM   H4F10049   0.390   4.961   6.977  0.7229  0.9426  3.3146
   7623SM   H4G10050   0.247   5.060   7.021  0.3899 -0.1802  0.7864
   7623SM   C5F10051   0.197   4.912   6.878  0.0409 -0.0417  0.0987
   7623SM   H5F10052   0.091   4.928   6.906  0.0361  1.1062 -0.5233
   7623SM   H5G10053   0.215   4.803   6.860  1.1839  0.2548 -0.6494
   7623SM   C6F10054   0.218   5.000   6.748  0.8408 -0.4374 -0.4964
   7623SM   H6F10055   0.326   4.992   6.720  1.0574  2.1302 -0.6037
   7623SM   H6G10056   0.195   5.106   6.771  0.9344 -0.1150 -1.7778
   7623SM   C7F10057   0.122   4.961   6.628  0.1563  0.3981  0.0682
   7623SM   H7F10058   0.016   4.971   6.660 -0.0232  1.0035 -0.6834
   7623SM   H7G10059   0.149   4.856   6.604  0.3169  0.5654 -0.4754
   7623SM   C8F10060   0.147   5.052   6.505 -0.5501 -0.7558 -0.4561
   7623SM   H8F10061   0.246   5.031   6.461  1.1584  3.3578  0.9916
   7623SM   H8G10062   0.143   5.159   6.535 -0.6286 -0.1898 -2.3385
   7623SM   C9F10063   0.048   5.031   6.391  0.0390 -0.3866 -0.1534
   7623SM   H9F10064  -0.047   5.086   6.408  0.1149  1.3895 -4.2208
   7623SM   H9G10065   0.037   4.922   6.372  1.1453 -0.3711 -1.0251
   7623SM  C10F10066   0.098   5.083   6.259 -0.5678 -0.4775  0.7054
   7623SM  H10F10067   0.185   5.020   6.229  0.3847  1.3151 -0.5016
   7623SM  H10G10068   0.125   5.191   6.268 -0.9714 -0.1257 -1.6574
   7623SM  C11F10069  -0.008   5.072   6.148 -0.2866  0.2791  0.2208
   7623SM  H11F10070  -0.104   5.103   6.193 -0.4272  0.1756 -0.0094
   7623SM  H11G10071  -0.020   4.963   6.130 -0.4420  0.6040 -1.9022
   7623SM  C12F10072   0.024   5.149   6.019  0.3031  0.4110 -0.2992
   7623SM  H12F10073   0.123   5.115   5.982 -0.1282 -0.1519 -0.9529
   7623SM  H12G10074   0.038   5.255   6.051  1.2383  0.0554  0.5342
   7623SM  C13F10075  -0.083   5.141   5.916 -0.1571  0.3387 -0.8263
   7623SM  H13F10076  -0.183   5.172   5.954  0.0761 -0.5690  0.6288
   7623SM  H13G10077  -0.090   5.034   5.885  0.7806  0.3939 -1.2693
   7623SM  C14F10078  -0.047   5.222   5.787  0.3212 -0.4153  0.1299
   7623SM  H14F10079   0.056   5.204   5.748 -1.0232 -1.6050 -3.2582
   7623SM  H14G10080  -0.037   5.329   5.812 -2.4497  0.0077 -0.3088
   7623SM  C15F10081  -0.160   5.204   5.677 -0.3397  0.1638  0.5002
   7623SM  H15F10082  -0.257   5.232   5.724 -0.1889 -0.3242  1.1260
   7623SM  H15G10083  -0.162   5.097   5.649 -0.7828  0.5674 -1.1197
   7623SM  C16F10084  -0.132   5.275   5.544  0.2292 -0.2452 -0.1900
   7623SM  H16F10085  -0.116   5.383   5.563 -4.1850  0.7124 -0.9305
   7623SM  H16G10086  -0.224   5.278   5.482  0.5631  0.1474 -0.6779
   7623SM  C17F10087  -0.017   5.212   5.462 -0.1327  0.1315 -0.1228
   7623SM  H17F10088  -0.040   5.105   5.442  0.4295  0.5151 -3.4021
   7623SM  H17G10089   0.074   5.205   5.524 -1.6956 -2.5426  2.1089
   7623SM  C18F10090   0.020   5.292   5.331  0.0902 -0.1338 -0.3119
   7623SM  H18F10091  -0.065   5.304   5.260  0.3160  1.4034 -0.3580
   7623SM  H18G10092   0.092   5.225   5.280  2.0279  0.7550  1.1324
   7623SM  C19F10093   0.074   5.439   5.348 -0.6007 -0.4861  0.2649
   7623SM  H19F10094   0.174   5.430   5.397 -0.5082 -1.0125 -0.0166
   7623SM  H19G10095   0.011   5.503   5.413 -1.1506 -2.1670  1.4549
   7623SM  C20F10096   0.103   5.521   5.219  0.3047  0.5339 -0.3297
   7623SM  H20F10097   0.031   5.489   5.141 -0.1657  1.9587 -0.4995
   7623SM  H20G10098   0.202   5.481   5.188 -0.2539 -1.2287  0.0261
   7623SM  C21F10099   0.089   5.663   5.225 -0.1603 -0.7336 -0.4606
   7623SM  H21F10100   0.157   5.698   5.306 -1.1553 -0.1181  0.1313
   7623SM  H21G10101  -0.015   5.694   5.249  0.3287  0.8767 -0.2591
   7623SM  C22F10102   0.123   5.726   5.093  0.2687  0.0058 -0.4233
   7623SM  H22F10103   0.040   5.692   5.027 -1.3990  1.6976  0.7393
   7623SM  H22G10104   0.222   5.687   5.058 -0.5745 -0.0519 -3.0108
   7623SM  C23F10105   0.132   5.880   5.090 -0.1829 -0.4412  0.2717
   7623SM  H23F10106   0.152   5.913   4.985  0.6320  0.9069  0.8298
   7623SM  H23G10107   0.214   5.912   5.158 -0.1174  1.7367 -0.7493
   7623SM  H23H10108   0.037   5.912   5.137 -0.7159 -1.9631  0.2911
   7723SM     N10109   0.712   2.241   7.549 -0.0016 -0.0965 -0.6303
   7723SM   C1510110   0.581   2.172   7.513 -0.2486 -0.5782  0.2521
   7723SM  H15A10111   0.561   2.078   7.562  1.6705 -0.7379  0.8321
   7723SM  H15B10112   0.590   2.143   7.409 -1.9644  0.0796 -0.1167
   7723SM  H15C10113   0.496   2.238   7.524  0.8004  0.9969 -0.7231
   7723SM   C1410114   0.710   2.308   7.686 -0.0282  0.1251 -0.4380
   7723SM  H14A10115   0.798   2.370   7.700  0.2728 -0.2934 -0.4730
   7723SM  H14B10116   0.693   2.241   7.769  1.1085  0.7245  0.3240
   7723SM  H14C10117   0.636   2.387   7.683  0.7235  1.0297  2.0970
   7723SM   C1310118   0.824   2.151   7.554 -0.0228 -0.3676  0.1098
   7723SM  H13A10119   0.920   2.198   7.544  0.0341 -0.5483 -0.1999
   7723SM  H13B10120   0.820   2.075   7.477  1.3198 -0.2881 -0.0619
   7723SM  H13C10121   0.819   2.101   7.650  0.2644  1.4443  1.1203
   7723SM   C1210122   0.749   2.346   7.446 -0.2643 -0.0200  0.0917
   7723SM  H12A10123   0.669   2.416   7.422  0.4739  0.5190 -0.8886
   7723SM  H12B10124   0.756   2.299   7.349 -1.2238 -0.5498  0.2591
   7723SM   C1110125   0.863   2.452   7.472  0.4303 -0.4991 -0.1536
   7723SM  H11A10126   0.812   2.511   7.551 -0.2667  0.3364 -1.2026
   7723SM  H11B10127   0.879   2.522   7.387  1.6007 -0.2983  0.2249
   7723SM     P10128   1.097   2.354   7.410 -0.0848  0.1070 -0.5397
   7723SM   O1310129   1.219   2.427   7.461  0.2870  0.3578  0.1316
   7723SM   O1410130   1.108   2.208   7.393 -0.2938 -0.1952  0.8196
   7723SM   O1110131   1.063   2.428   7.279  0.1197  0.1664 -0.4563
   7723SM   O1210132   0.986   2.390   7.514 -0.9905  0.3180  0.4776
   7723SM   C1S10133   0.994   2.356   7.177 -0.2519  0.0255  0.2928
   7723SM   H1S10134   0.925   2.275   7.209  0.3359 -0.9217 -0.7518
   7723SM   H1T10135   1.063   2.314   7.101 -1.2932  1.7239 -1.7112
   7723SM    NF10136   0.840   2.373   6.990 -0.2073 -0.4708 -0.0902
   7723SM   HNF10137   0.898   2.374   6.910  1.2778  0.2968  0.9459
   7723SM   C2S10138   0.899   2.453   7.094 -0.1535 -0.6195  0.2773
   7723SM   H2S10139   0.817   2.489   7.158  2.7671  4.5688  1.6969
   7723SM   C3S10140   0.982   2.581   7.034  0.2901  0.8010  0.4213
   7723SM   H3S10141   1.080   2.542   6.998  0.1245 -1.4737  2.1827
   7723SM    O310142   1.013   2.668   7.141  0.1346 -0.0127  0.2718
   7723SM   HO310143   1.034   2.615   7.219  0.0181 -1.1542 -0.4484
   7723SM   C4S10144   0.902   2.657   6.937  0.3547  0.5374  0.3575
   7723SM   H4S10145   0.812   2.705   6.979  0.2282  1.1383 -0.5791
   7723SM   C5S10146   0.921   2.669   6.808 -0.2677  0.3788  0.0532
   7723SM   H5S10147   1.014   2.622   6.773 -0.6215 -3.3952  3.4976
   7723SM   C6S10148   0.829   2.742   6.714  0.1744 -0.1849  0.5682
   7723SM   H6S10149   0.876   2.843   6.705  2.2146 -1.2195 -1.4072
   7723SM   H6T10150   0.726   2.769   6.743 -0.8206  1.0085 -3.4745
   7723SM   C7S10151   0.814   2.683   6.567  0.0009 -0.0733 -0.1550
   7723SM   H7S10152   0.769   2.582   6.579 -1.3950  0.7014  1.7484
   7723SM   H7T10153   0.916   2.666   6.528 -0.0740  0.6025 -0.6553
   7723SM   C8S10154   0.742   2.783   6.474  0.1296  0.0045  0.4451
   7723SM   H8S10155   0.790   2.883   6.479  1.9651 -0.8622  0.9589
   7723SM   H8T10156   0.638   2.788   6.513  0.7931  1.3005  2.1322
   7723SM   C9S10157   0.744   2.729   6.330  0.7443 -0.6552  0.3526
   7723SM   H9S10158   0.720   2.620   6.329  2.5804 -1.1031  1.3847
   7723SM   H9T10159   0.845   2.744   6.285  0.1840  2.2964 -0.0855
   7723SM  C10S10160   0.659   2.817   6.237 -0.1945  0.4906 -0.5025
   7723SM  H10S10161   0.699   2.921   6.231  1.6955 -0.2806 -4.0236
   7723SM  H10T10162   0.553   2.829   6.268 -0.2729  1.6948 -1.1456
   7723SM  C11S10163   0.656   2.753   6.097  0.4043  0.5292 -0.8396
   7723SM  H11S10164   0.591   2.663   6.100 -0.9042  1.4738  0.9156
   7723SM  H11T10165   0.760   2.718   6.078 -0.1157 -1.2289 -0.6136
   7723SM  C12S10166   0.608   2.857   5.993 -0.3791  0.7502  0.9231
   7723SM  H12S10167   0.668   2.951   5.995 -1.2796  1.3375  2.2843
   7723SM  H12T10168   0.504   2.889   6.015  0.0289  1.7382  1.4878
   7723SM  C13S10169   0.613   2.795   5.849  0.0360 -0.2906  0.1591
   7723SM  H13S10170   0.556   2.868   5.787 -0.1193 -0.3713  0.2041
   7723SM  H13T10171   0.552   2.702   5.838 -1.8685  0.9790 -0.5294
   7723SM  C14S10172   0.755   2.782   5.788  0.0212  0.4573  0.4107
   7723SM  H14S10173   0.815   2.698   5.830  0.8970  0.0300 -1.5532
   7723SM  H14T10174   0.818   2.872   5.806  1.3848 -0.4096  0.1696
   7723SM  C15S10175   0.740   2.762   5.634 -0.0319  0.1591  1.2487
   7723SM  H15S10176   0.674   2.848   5.609 -1.0429 -0.6799  0.9608
   7723SM  H15T10177   0.672   2.678   5.610 -0.4743  0.9568 -0.4499
   7723SM  C16S10178   0.869   2.747   5.550 -0.0353 -0.0613  0.1010
   7723SM  H16S10179   0.944   2.804   5.609 -1.2285  0.9059  0.7346
   7723SM  H16T10180   0.848   2.800   5.455  1.3200  1.1617  0.4367
   7723SM  C17S10181   0.905   2.605   5.524 -0.2020  0.7021 -0.2774
   7723SM  H17S10182   0.831   2.546   5.466 -2.1019  2.7373 -0.0622
   7723SM  H17T10183   0.911   2.555   5.622  0.9898  0.5280 -0.4239
   7723SM  C18S10184   1.047   2.592   5.460 -0.4494 -0.5824 -0.5049
   7723SM  H18S10185   1.074   2.484   5.453 -2.0609 -1.4091  3.3485
   7723SM  H18T10186   1.126   2.625   5.531  0.9353  1.1932 -2.7296
   7723SM  H18U10187   1.056   2.654   5.368 -2.3564  0.2121 -0.1888
   7723SM   C1F10188   0.745   2.287   7.008 -0.4162  0.5843  0.3055
   7723SM    OF10189   0.692   2.275   7.118 -0.3538 -0.1016  0.2764
   7723SM   C2F10190   0.703   2.203   6.896 -0.9108  0.3196  0.0516
   7723SM   H2F10191   0.607   2.152   6.921 -0.6580 -1.8276 -2.9069
   7723SM   H2G10192   0.784   2.129   6.880  0.7805  2.1304 -0.0616
   7723SM   C3F10193   0.679   2.276   6.755  0.0259 -0.3242 -0.3603
   7723SM   H3F10194   0.773   2.330   6.732 -0.4270  0.6266 -0.0280
   7723SM   H3G10195   0.588   2.338   6.767 -0.3040 -0.3564 -2.3064
   7723SM   C4F10196   0.640   2.177   6.646 -0.2542  0.3939  0.1145
   7723SM   H4F10197   0.538   2.141   6.671  0.3455 -2.2425 -0.9248
   7723SM   H4G10198   0.706   2.090   6.632  0.7446  1.1694 -0.0919
   7723SM   C5F10199   0.648   2.241   6.505  0.4544  0.0412  0.3843
   7723SM   H5F10200   0.578   2.326   6.515 -0.0197 -0.0797 -1.4817
   7723SM   H5G10201   0.602   2.165   6.437 -0.2047  1.1128 -0.3921
   7723SM   C6F10202   0.787   2.269   6.454 -0.0096 -0.5758 -0.5594
   7723SM   H6F10203   0.867   2.209   6.502  0.9589  1.9991  1.2901
   7723SM   H6G10204   0.807   2.363   6.509 -1.1515 -0.8771  0.4259
   7723SM   C7F10205   0.797   2.297   6.305 -0.4719  0.3037  0.1790
   7723SM   H7F10206   0.706   2.353   6.275 -0.1208  2.7616  3.2175
   7723SM   H7G10207   0.802   2.198   6.255 -1.2914 -1.2519  2.9971
   7723SM   C8F10208   0.926   2.386   6.270 -0.0069 -0.5820  0.2483
   7723SM   H8F10209   1.016   2.330   6.302  0.8745 -0.2160 -1.4993
   7723SM   H8G10210   0.924   2.482   6.325 -1.3385 -1.1300  1.2109
   7723SM   C9F10211   0.921   2.420   6.116 -0.2190 -0.2797 -0.1996
   7723SM   H9F10212   0.828   2.480   6.099  0.9313  1.6422  0.0102
   7723SM   H9G10213   0.915   2.320   6.068 -0.3191 -0.7797  0.8376
   7723SM  C10F10214   1.038   2.498   6.064 -0.2625  0.1353  0.8974
   7723SM  H10F10215   1.132   2.459   6.108  0.6469  1.0536 -0.1939
   7723SM  H10G10216   1.041   2.605   6.094 -0.6862  0.1639  0.8567
   7723SM  C11F10217   1.062   2.486   5.912  0.3407  0.3363  0.0285
   7723SM  H11F10218   1.116   2.573   5.869 -0.6469 -0.2708 -2.6681
   7723SM  H11G10219   0.966   2.480   5.856 -1.0980  0.3906  2.3592
   7723SM  C12F10220   1.152   2.363   5.892  0.9485 -0.2677  0.3103
   7723SM  H12F10221   1.111   2.264   5.921 -0.5733 -0.7578 -2.9907
   7723SM  H12G10222   1.252   2.378   5.939  1.9158 -2.0124 -1.0871
   7723SM  C13F10223   1.180   2.338   5.741  0.2549  0.5715  0.4073
   7723SM  H13F10224   1.223   2.434   5.704 -0.7451 -0.3342 -3.6568
   7723SM  H13G10225   1.085   2.331   5.684  0.4923 -0.4121  0.1068
   7723SM  C14F10226   1.278   2.222   5.724 -0.9370 -0.2093  0.7344
   7723SM  H14F10227   1.220   2.128   5.729  1.2826 -1.6912  0.0176
   7723SM  H14G10228   1.357   2.231   5.801 -0.1121  0.2041 -0.1334
   7723SM  C15F10229   1.342   2.236   5.583  0.0996  0.0790 -0.4140
   7723SM  H15F10230   1.385   2.339   5.581  0.4048 -0.0166  0.6440
   7723SM  H15G10231   1.258   2.242   5.510 -0.1588  0.8490 -0.0650
   7723SM  C16F10232   1.462   2.142   5.565 -0.3589  0.3339  0.1765
   7723SM  H16F10233   1.422   2.039   5.573 -0.8346  0.3278 -1.7253
   7723SM  H16G10234   1.533   2.171   5.645  0.0331  0.7301 -0.3115
   7723SM  C17F10235   1.522   2.163   5.421  0.0011  0.2859 -0.2801
   7723SM  H17F10236   1.601   2.087   5.406 -0.5008 -0.1900 -0.5293
   7723SM  H17G10237   1.578   2.260   5.419 -1.2008  1.0739  1.6434
   7723SM  C18F10238   1.424   2.148   5.301  0.2950  0.4648 -0.1326
   7723SM  H18F10239   1.365   2.243   5.298  1.4396  1.1966 -0.2156
   7723SM  H18G10240   1.354   2.065   5.324  1.2775 -0.7344 -1.2995
   7723SM  C19F10241   1.492   2.124   5.164 -0.1592 -0.0334 -0.2768
   7723SM  H19F10242   1.558   2.035   5.177  0.8248  0.7470  0.1777
   7723SM  H19G10243   1.572   2.201   5.155  0.9594 -1.2827 -1.4314
   7723SM  C20F10244   1.388   2.123   5.054  0.3168  0.0909 -0.2008
   7723SM  H20F10245   1.327   2.216   5.062  1.1066  0.6554 -0.6469
   7723SM  H20G10246   1.314   2.042   5.070 -0.2709  0.9280  1.6121
   7723SM  C21F10247   1.445   2.114   4.915 -0.2059  0.4053  0.2998
   7723SM  H21F10248   1.538   2.174   4.905 -0.8996  1.1958 -2.0797
   7723SM  H21G10249   1.374   2.160   4.842  2.0196  1.0182 -1.6032
   7723SM  C22F10250   1.477   1.970   4.865  0.0120 -0.6510 -0.3829
   7723SM  H22F10251   1.376   1.924   4.866 -0.7896  0.9958  2.2508
   7723SM  H22G10252   1.555   1.925   4.931 -2.1103 -0.8144  2.1586
   7723SM  C23F10253   1.517   1.969   4.712  0.7190  0.2122 -0.5548
   7723SM  H23F10254   1.423   1.993   4.659 -0.1624 -1.7222  0.0518
   7723SM  H23G10255   1.552   1.869   4.680  3.7008  1.2651 -0.9234
   7723SM  H23H10256   1.599   2.042   4.696  0.4157  0.6565 -0.1263
   7823SM     N10257   1.408   6.374   7.016 -0.2969  0.3868 -0.1348
   7823SM   C1510258   1.465   6.481   6.924 -0.8986  0.3941 -0.7589
   7823SM  H15A10259   1.542   6.439   6.861 -1.2957 -1.7626  0.1106
   7823SM  H15B10260   1.511   6.557   6.985  0.0236 -1.9669  1.7055
   7823SM  H15C10261   1.384   6.520   6.865 -0.1959  0.8745 -1.4378
   7823SM   C1410262   1.326   6.272   6.937 -0.5964 -0.0726 -0.6344
   7823SM  H14A10263   1.378   6.233   6.851  0.7642  0.7247 -0.2059
   7823SM  H14B10264   1.242   6.327   6.899 -0.3017  0.1090 -1.0269
   7823SM  H14C10265   1.298   6.185   6.994 -0.5618 -0.3705 -1.0691
   7823SM   C1310266   1.522   6.293   7.071 -0.0090 -0.4365  0.0109
   7823SM  H13A10267   1.497   6.194   7.106  1.3088 -1.6843 -2.3337
   7823SM  H13B10268   1.583   6.346   7.142 -0.7655 -0.4347  0.6764
   7823SM  H13C10269   1.594   6.263   6.996 -0.2064 -0.8117 -0.0305
   7823SM   C1210270   1.319   6.424   7.127  0.0453  0.1440 -0.1799
   7823SM  H12A10271   1.377   6.504   7.170  0.4694  0.7981 -1.8904
   7823SM  H12B10272   1.316   6.340   7.195  1.4343  0.3156  0.1109
   7823SM   C1110273   1.176   6.469   7.095 -0.0301 -0.8367 -0.4644
   7823SM  H11A10274   1.122   6.498   7.187  1.2128 -1.6463  0.5533
   7823SM  H11B10275   1.118   6.383   7.054 -1.4114 -1.0605  1.7763
   7823SM     P10276   1.100   6.601   6.877  0.1453  0.1071  0.2761
   7823SM   O1310277   0.990   6.699   6.884  0.0868 -0.0451 -0.2152
   7823SM   O1410278   1.205   6.618   6.777  0.4546 -0.2330 -0.3750
   7823SM   O1110279   1.028   6.456   6.859  0.4086  0.3210 -0.2849
   7823SM   O1210280   1.171   6.585   7.014 -0.3409 -0.4827 -0.5509
   7823SM   C1S10281   0.894   6.436   6.812 -0.1766  0.4070  0.3593
   7823SM   H1S10282   0.820   6.515   6.835 -2.1203 -1.0568 -0.5054
   7823SM   H1T10283   0.845   6.353   6.867  0.3846 -1.4147 -1.7223
   7823SM    NF10284   0.738   6.388   6.612 -0.1344  0.1665  0.5010
   7823SM   HNF10285   0.703   6.301   6.579 -1.6908  1.3910 -1.3141
   7823SM   C2S10286   0.880   6.409   6.657 -0.7801  0.2105  0.2060
   7823SM   H2S10287   0.915   6.495   6.596 -1.0886 -0.0275 -0.3194
   7823SM   C3S10288   0.967   6.283   6.614  1.4479 -0.9762 -0.8122
   7823SM   H3S10289   0.912   6.195   6.654 -0.2049  1.0314  1.5663
   7823SM    O310290   1.096   6.294   6.667  0.4085  0.0269  0.0476
   7823SM   HO310291   1.091   6.378   6.713  2.2245  0.0427  0.2998
   7823SM   C4S10292   0.983   6.272   6.460 -0.0534 -0.6588 -0.5454
   7823SM   H4S10293   1.061   6.334   6.414 -1.1577  0.8134 -0.4915
   7823SM   C5S10294   0.913   6.188   6.385 -0.1142 -0.1262  0.3315
   7823SM   H5S10295   0.830   6.136   6.435 -0.8103 -1.0743 -1.6884
   7823SM   C6S10296   0.937   6.181   6.237 -0.5836  0.1143  0.1917
   7823SM   H6S10297   0.993   6.273   6.209 -3.3350  2.0184  0.4527
   7823SM   H6T10298   0.848   6.193   6.170  0.3960  1.2653 -0.9655
   7823SM   C7S10299   1.039   6.065   6.205  0.5634 -0.0644  0.1304
   7823SM   H7S10300   0.978   5.973   6.218  1.5460 -0.6384  0.8285
   7823SM   H7T10301   1.116   6.046   6.283  1.0836 -0.0712 -0.3749
   7823SM   C8S10302   1.104   6.070   6.071  0.0154  0.2465  0.2948
   7823SM   H8S10303   1.185   5.994   6.065 -1.9739 -1.8978 -0.7768
   7823SM   H8T10304   1.152   6.170   6.061  0.6496 -0.2632 -2.5704
   7823SM   C9S10305   1.018   6.051   5.946 -0.1913  0.0247 -0.1246
   7823SM   H9S10306   0.913   6.086   5.953  0.2073  0.9313  1.9125
   7823SM   H9T10307   1.010   5.940   5.944 -1.8159  0.1024  0.5438
   7823SM  C10S10308   1.087   6.110   5.822 -0.2260 -0.5684 -0.5978
   7823SM  H10S10309   1.189   6.068   5.811 -0.3634 -1.0600 -0.0116
   7823SM  H10T10310   1.106   6.218   5.840 -0.1567 -0.7422  0.4114
   7823SM  C11S10311   1.015   6.083   5.692 -0.5619 -0.4881  0.2201
   7823SM  H11S10312   0.908   6.105   5.710  0.2110  1.1953  3.5349
   7823SM  H11T10313   1.010   5.977   5.660  1.7062 -0.9924  1.3072
   7823SM  C12S10314   1.064   6.163   5.575 -0.7829 -0.5146  0.2524
   7823SM  H12S10315   1.172   6.151   5.553 -0.5691 -0.0094  0.9899
   7823SM  H12T10316   1.050   6.271   5.596 -3.1905 -0.9426  1.1285
   7823SM  C13S10317   0.983   6.137   5.451 -0.1510  0.2414 -0.3904
   7823SM  H13S10318   0.884   6.185   5.458 -0.9993 -1.6251  1.3249
   7823SM  H13T10319   0.970   6.031   5.419 -0.8173  0.6737 -1.6247
   7823SM  C14S10320   1.051   6.210   5.329  0.4017  0.6771 -0.4643
   7823SM  H14S10321   1.156   6.174   5.324  0.5630  0.8901  1.1027
   7823SM  H14T10322   1.048   6.315   5.366 -0.1896 -0.2374  2.2896
   7823SM  C15S10323   0.985   6.173   5.197  0.2440 -0.6068 -0.3066
   7823SM  H15S10324   0.982   6.062   5.193  0.0182 -0.6569  0.8194
   7823SM  H15T10325   1.041   6.205   5.107  1.1003  0.0728  0.4569
   7823SM  C16S10326   0.852   6.238   5.184 -0.1991  0.3220 -0.0879
   7823SM  H16S10327   0.850   6.345   5.214 -1.4487 -0.1109  1.5907
   7823SM  H16T10328   0.795   6.187   5.265 -0.4141  1.4136  0.4619
   7823SM  C17S10329   0.775   6.212   5.046  0.0791  0.3561 -0.0486
   7823SM  H17S10330   0.823   6.264   4.960  0.3701  2.3171  1.2584
   7823SM  H17T10331   0.679   6.266   5.057  0.3080  0.4184  2.0566
   7823SM  C18S10332   0.751   6.064   5.005  0.0491 -0.7004  0.4684
   7823SM  H18S10333   0.843   6.005   4.988  0.7734  0.0777  1.5698
   7823SM  H18T10334   0.686   6.047   4.916 -1.4944  3.2311  0.6474
   7823SM  H18U10335   0.700   6.016   5.092 -0.1524  0.7155  1.1521
   7823SM   C1F10336   0.662   6.499   6.612 -0.2658 -0.1270 -0.1938
   7823SM    OF10337   0.709   6.607   6.642  0.1960 -0.0697  0.4409
   7823SM   C2F10338   0.511   6.473   6.590 -0.5482 -0.2083 -1.0453
   7823SM   H2F10339   0.461   6.525   6.674  2.5550  2.0261 -0.3868
   7823SM   H2G10340   0.505   6.363   6.600 -1.4058 -0.1606 -1.0330
   7823SM   C3F10341   0.462   6.539   6.461 -0.3083  0.0149  0.0917
   7823SM   H3F10342   0.514   6.479   6.384 -0.2334 -0.7219  0.7050
   7823SM   H3G10343   0.495   6.645   6.468  0.0981 -0.1566  0.9457
   7823SM   C4F10344   0.307   6.526   6.442  0.1306  0.1788  0.3030
   7823SM   H4F10345   0.273   6.572   6.347  1.7800  0.9878  0.0585
   7823SM   H4G10346   0.278   6.601   6.519 -0.3281  0.1865  0.1261
   7823SM   C5F10347   0.245   6.384   6.463 -0.1169 -0.2718  0.1502
   7823SM   H5F10348   0.134   6.381   6.460 -0.2009  1.0074  1.1114
   7823SM   H5G10349   0.275   6.334   6.558  0.7498 -2.0618 -0.9989
   7823SM   C6F10350   0.287   6.288   6.355 -0.4252  0.1029  0.2468
   7823SM   H6F10351   0.257   6.185   6.384 -0.1574 -1.5698 -4.4571
   7823SM   H6G10352   0.395   6.291   6.330 -0.3913 -1.4576  0.0808
   7823SM   C7F10353   0.215   6.323   6.222 -0.5857  0.6195 -0.1398
   7823SM   H7F10354   0.264   6.417   6.188  0.3441  0.5756  1.0276
   7823SM   H7G10355   0.108   6.352   6.227 -0.3053  2.0809 -1.5292
   7823SM   C8F10356   0.245   6.209   6.124 -0.2972  0.2699  0.2231
   7823SM   H8F10357   0.231   6.112   6.177 -2.7075  1.0299  1.1250
   7823SM   H8G10358   0.349   6.219   6.086 -0.2196 -0.3633  0.2510
   7823SM   C9F10359   0.160   6.215   5.996 -1.1619 -0.5199  0.9825
   7823SM   H9F10360   0.062   6.185   6.039 -0.9709 -0.8686  1.1790
   7823SM   H9G10361   0.183   6.145   5.913 -0.7528  0.7415 -0.0030
   7823SM  C10F10362   0.158   6.352   5.929  0.2657  0.1463 -0.3182
   7823SM  H10F10363   0.263   6.379   5.906 -0.1661  1.7641 -0.5276
   7823SM  H10G10364   0.142   6.433   6.004  2.7985 -0.1176  0.6195
   7823SM  C11F10365   0.064   6.366   5.809 -0.0610 -0.5579 -0.9072
   7823SM  H11F10366  -0.044   6.370   5.837  0.0039 -0.6211 -0.6487
   7823SM  H11G10367   0.085   6.277   5.747  0.0139 -1.6129  0.5738
   7823SM  C12F10368   0.099   6.487   5.724 -0.9775  0.1857  0.1519
   7823SM  H12F10369   0.207   6.503   5.701 -0.4393 -3.0592 -0.0789
   7823SM  H12G10370   0.063   6.577   5.777  2.0634  1.3472  0.4218
   7823SM  C13F10371   0.029   6.482   5.590  0.9714  0.1542 -0.0743
   7823SM  H13F10372  -0.081   6.477   5.600  0.9514 -2.2148 -0.7181
   7823SM  H13G10373   0.072   6.403   5.523  4.2213  1.0134  0.8223
   7823SM  C14F10374   0.055   6.613   5.512  1.0772  0.9706 -0.3272
   7823SM  H14F10375   0.166   6.615   5.510  1.2169  0.5421  2.5968
   7823SM  H14G10376   0.015   6.702   5.565 -1.6550 -0.6623  0.5908
   7823SM  C15F10377   0.006   6.611   5.367 -0.0242  0.1747 -0.3102
   7823SM  H15F10378  -0.103   6.588   5.367 -0.2081  0.9979 -1.1793
   7823SM  H15G10379   0.051   6.532   5.304  3.0947  0.7680  1.0092
   7823SM  C16F10380   0.019   6.750   5.301  0.0823  0.3325 -0.1905
   7823SM  H16F10381   0.124   6.783   5.312  0.6106 -0.9771 -0.9951
   7823SM  H16G10382  -0.059   6.812   5.350 -0.6693 -2.3000  2.2121
   7823SM  C17F10383   0.004   6.753   5.148 -0.4114 -0.2213  0.3058
   7823SM  H17F10384  -0.018   6.858   5.119 -0.7276  0.0219  1.3925
   7823SM  H17G10385  -0.072   6.680   5.113  1.8718 -1.7471 -1.8332
   7823SM  C18F10386   0.135   6.707   5.088  1.1096 -0.2585 -0.0244
   7823SM  H18F10387   0.170   6.608   5.122  0.5801 -0.8369 -1.1285
   7823SM  H18G10388   0.215   6.777   5.121  1.7954 -0.6865 -0.7703
   7823SM  C19F10389   0.135   6.689   4.937 -0.2785 -0.3066 -0.4730
   7823SM  H19F10390   0.091   6.775   4.883 -0.3115 -0.1292 -0.1708
   7823SM  H19G10391   0.078   6.598   4.910 -1.9028 -0.0595  1.8285
   7823SM  C20F10392   0.278   6.688   4.884  0.7432 -0.1750  0.5412
   7823SM  H20F10393   0.354   6.632   4.942  0.1729 -1.6418 -0.0917
   7823SM  H20G10394   0.311   6.794   4.879 -1.0425  0.5014  1.9157
   7823SM  C21F10395   0.277   6.633   4.742 -0.3872  0.1299  0.2270
   7823SM  H21F10396   0.199   6.680   4.678 -0.4855 -0.6662 -0.2559
   7823SM  H21G10397   0.265   6.523   4.756 -0.7817 -0.0601 -1.4007
   7823SM  C22F10398   0.405   6.655   4.662 -0.3559 -0.1495  0.3817
   7823SM  H22F10399   0.489   6.602   4.713  0.6581  1.5841  0.5945
   7823SM  H22G10400   0.433   6.762   4.671 -0.3932 -0.0472 -0.6913
   7823SM  C23F10401   0.380   6.616   4.518 -0.4634 -0.3875 -0.3391
   7823SM  H23F10402   0.340   6.513   4.526 -0.9256 -0.0729  2.7797
   7823SM  H23G10403   0.479   6.619   4.468 -0.9111  0.9703 -1.2201
   7823SM  H23H10404   0.306   6.684   4.470 -1.2467 -1.0134 -0.0370
   7923SM     N10405   6.611   0.412   8.039  0.1673 -0.1187  0.4658
   7923SM   C1510406   6.533   0.541   8.040 -0.0803 -0.1270  0.7588
   7923SM  H15A10407   6.579   0.616   7.977 -0.8348 -1.3459 -1.3181
   7923SM  H15B10408   6.525   0.578   8.142 -1.3457 -2.7448  1.6840
   7923SM  H15C10409   6.430   0.530   8.012 -0.5109  0.5070  1.9977
   7923SM   C1410410   6.752   0.451   8.071 -0.2063 -0.1805 -0.1925
   7923SM  H14A10411   6.818   0.365   8.076  2.2849  1.6973  1.2199
   7923SM  H14B10412   6.748   0.507   8.163 -0.3804  0.5619 -0.6390
   7923SM  H14C10413   6.796   0.512   7.994 -0.9956 -1.0942 -1.4099
   7923SM   C1310414   6.558   0.315   8.142  0.3873 -0.3270 -0.7119
   7923SM  H13A10415   6.459   0.277   8.120 -0.0447 -0.8634  1.8560
   7923SM  H13B10416   6.554   0.365   8.237 -1.3921  1.3788 -1.6241
   7923SM  H13C10417   6.633   0.238   8.154  2.3863  1.8203  1.7743
   7923SM   C1210418   6.597   0.347   7.896  0.3319  0.3028 -0.3520
   7923SM  H12A10419   6.494   0.322   7.878  0.4082  0.3768 -0.9147
   7923SM  H12B10420   6.654   0.255   7.896 -1.4390 -0.9516  2.7148
   7923SM   C1110421   6.638   0.423   7.773 -0.2641 -0.0974 -0.4571
   7923SM  H11A10422   6.557   0.499   7.764 -1.2413 -1.2042 -1.4148
   7923SM  H11B10423   6.621   0.369   7.678 -2.6230  0.3234 -0.3378
   7923SM     P10424   6.900   0.413   7.737  0.0654 -0.0641 -0.2707
   7923SM   O1310425   7.014   0.500   7.758 -0.4581  0.5980  0.5671
   7923SM   O1410426   6.911   0.280   7.798 -0.4228 -0.1532 -0.6344
   7923SM   O1110427   6.878   0.397   7.584 -0.2261 -0.2157 -0.1226
   7923SM   O1210428   6.766   0.484   7.791 -0.0628  0.3223  0.2926
   7923SM   C1S10429   6.874   0.265   7.527 -0.6862 -0.0497 -0.1877
   7923SM   H1S10430   6.798   0.204   7.580  1.8805  0.1841  4.2779
   7923SM   H1T10431   6.969   0.211   7.546 -0.9037  0.2883  2.1442
   7923SM    NF10432   6.826   0.122   7.318  0.1265 -0.2590  0.4447
   7923SM   HNF10433   6.895   0.079   7.261 -0.6731  0.1063 -0.8316
   7923SM   C2S10434   6.845   0.261   7.366  0.0178  0.1937 -0.0201
   7923SM   H2S10435   6.757   0.329   7.356 -0.5133 -0.2250  1.5790
   7923SM   C3S10436   6.963   0.335   7.295 -1.1578 -0.7402  0.2217
   7923SM   H3S10437   7.055   0.275   7.313 -0.3593  0.6839  1.1341
   7923SM    O310438   6.984   0.467   7.355  0.1380  0.0290 -0.6887
   7923SM   HO310439   6.935   0.453   7.436 -0.0693  0.4663 -0.7369
   7923SM   C4S10440   6.925   0.357   7.156 -0.7398  0.1133 -0.1561
   7923SM   H4S10441   6.830   0.409   7.137 -1.0948 -0.3051  0.4215
   7923SM   C5S10442   7.004   0.295   7.059  0.1044  0.5231  0.3701
   7923SM   H5S10443   7.086   0.233   7.096 -0.7393  0.3907  2.1393
   7923SM   C6S10444   6.975   0.296   6.908  0.1561  0.5999  0.1710
   7923SM   H6S10445   7.069   0.324   6.856  1.3331 -0.2860  1.7365
   7923SM   H6T10446   6.884   0.355   6.885  0.6123  1.5568  0.7651
   7923SM   C7S10447   6.944   0.158   6.857 -0.2356  0.8195 -0.5253
   7923SM   H7S10448   6.859   0.118   6.916  2.1584 -2.9631  0.7174
   7923SM   H7T10449   7.025   0.086   6.883 -0.7236  1.2822  2.5987
   7923SM   C8S10450   6.913   0.155   6.711  0.0100  0.5002 -0.5250
   7923SM   H8S10451   6.873   0.055   6.688  0.6741  0.6357 -2.4786
   7923SM   H8T10452   7.005   0.155   6.648  0.5049 -2.7270  0.0599
   7923SM   C9S10453   6.809   0.252   6.655  0.7703 -0.6950 -0.5427
   7923SM   H9S10454   6.842   0.358   6.659  1.3453 -0.7923 -1.9542
   7923SM   H9T10455   6.715   0.243   6.713  0.2155 -0.3253 -1.3719
   7923SM  C10S10456   6.770   0.214   6.505  0.4590 -0.1261  0.1780
   7923SM  H10S10457   6.679   0.272   6.481 -0.6772 -1.5084  0.9829
   7923SM  H10T10458   6.745   0.106   6.506 -1.5046  0.2905  0.0648
   7923SM  C11S10459   6.877   0.239   6.400  0.2153 -0.4271  0.1836
   7923SM  H11S10460   6.976   0.212   6.441  0.0121 -1.5928 -0.0656
   7923SM  H11T10461   6.894   0.348   6.381  0.4042 -0.7880 -2.0305
   7923SM  C12S10462   6.837   0.181   6.263 -0.9488  0.8160  0.3047
   7923SM  H12S10463   6.809   0.074   6.268  4.0334 -0.8548 -1.0801
   7923SM  H12T10464   6.925   0.189   6.196 -1.9639 -0.0631 -1.1632
   7923SM  C13S10465   6.731   0.270   6.196 -0.3368  0.8697 -0.0451
   7923SM  H13S10466   6.773   0.365   6.156 -0.0064 -0.0611 -2.0428
   7923SM  H13T10467   6.648   0.290   6.268  0.7451  1.8426  0.9752
   7923SM  C14S10468   6.654   0.194   6.086 -0.2059 -0.5441 -0.4757
   7923SM  H14S10469   6.569   0.254   6.047  1.1396  0.3325 -2.1610
   7923SM  H14T10470   6.603   0.108   6.136  0.4272 -0.9484 -0.5085
   7923SM  C15S10471   6.743   0.154   5.968  0.2312  0.4458 -0.1495
   7923SM  H15S10472   6.822   0.082   5.998  0.2167 -0.5359 -2.2558
   7923SM  H15T10473   6.791   0.250   5.937  0.1082  0.2950 -0.8324
   7923SM  C16S10474   6.666   0.109   5.843  0.3149 -0.2651  0.2648
   7923SM  H16S10475   6.605   0.193   5.803  0.5305 -0.3714 -0.2911
   7923SM  H16T10476   6.602   0.027   5.883 -1.4248  2.1594  2.8481
   7923SM  C17S10477   6.756   0.053   5.735 -0.4561 -0.6065 -0.2905
   7923SM  H17S10478   6.830  -0.018   5.776 -0.5702 -0.1751  0.6882
   7923SM  H17T10479   6.812   0.142   5.700 -0.5128  0.0293  1.1702
   7923SM  C18S10480   6.697   0.001   5.601 -0.4597 -0.3355 -0.1379
   7923SM  H18S10481   6.787  -0.018   5.539 -0.7252 -3.8001  0.3658
   7923SM  H18T10482   6.638   0.079   5.549  1.0442  1.8062  1.1622
   7923SM  H18U10483   6.653  -0.100   5.602 -0.6241 -0.3164 -1.9901
   7923SM   C1F10484   6.712   0.057   7.327 -0.1930  0.3632 -0.6372
   7923SM    OF10485   6.622   0.096   7.403  0.0851 -0.2346 -0.4417
   7923SM   C2F10486   6.702  -0.074   7.246  0.0581 -0.5439  0.0554
   7923SM   H2F10487   6.685  -0.151   7.324  1.8631  0.0579  1.1068
   7923SM   H2G10488   6.800  -0.091   7.197 -0.1092  1.1153 -0.9174
   7923SM   C3F10489   6.586  -0.087   7.143 -0.4868 -0.6067  0.4651
   7923SM   H3F10490   6.490  -0.058   7.190 -0.4110  2.9557 -1.2324
   7923SM   H3G10491   6.576  -0.190   7.102 -1.7143 -0.5200  0.5105
   7923SM   C4F10492   6.601   0.017   7.030 -0.6734  0.0044 -1.0487
   7923SM   H4F10493   6.693   0.000   6.971 -0.4133 -1.0182 -0.3902
   7923SM   H4G10494   6.600   0.117   7.077 -0.4986 -1.5069  2.5644
   7923SM   C5F10495   6.478  -0.001   6.934  0.4972 -0.1401  0.8622
   7923SM   H5F10496   6.394   0.039   6.993  0.0501 -1.8545  1.4193
   7923SM   H5G10497   6.464  -0.109   6.912 -2.3166  0.5852 -1.4885
   7923SM   C6F10498   6.486   0.067   6.796  0.3153 -0.1670  0.5971
   7923SM   H6F10499   6.571   0.020   6.742  2.5720 -0.0588  3.7658
   7923SM   H6G10500   6.500   0.176   6.816  1.8505  0.7316 -4.1647
   7923SM   C7F10501   6.365   0.051   6.706 -0.0191 -0.1451 -0.1729
   7923SM   H7F10502   6.272   0.104   6.734 -1.1124 -1.7608 -0.6105
   7923SM   H7G10503   6.351  -0.059   6.692  0.9285 -0.4509  1.1078
   7923SM   C8F10504   6.382   0.101   6.564  0.1843  0.0183 -0.0398
   7923SM   H8F10505   6.474   0.057   6.521  0.8469  0.5257  0.8553
   7923SM   H8G10506   6.399   0.210   6.552  2.2636 -0.2597  0.1707
   7923SM   C9F10507   6.263   0.076   6.466 -0.0618 -0.0514  0.2130
   7923SM   H9F10508   6.185   0.153   6.483 -0.9152 -0.8899  0.2131
   7923SM   H9G10509   6.220  -0.022   6.495 -0.1890 -0.4790 -1.3100
   7923SM  C10F10510   6.312   0.073   6.320  0.0881 -0.2808 -0.4489
   7923SM  H10F10511   6.354  -0.027   6.297 -0.6901 -0.8848  0.6653
   7923SM  H10G10512   6.389   0.152   6.307  0.8467 -0.8305  0.6075
   7923SM  C11F10513   6.204   0.098   6.211 -0.0089 -0.2672  1.0919
   7923SM  H11F10514   6.155   0.198   6.218  1.6786  0.5064  2.8581
   7923SM  H11G10515   6.132   0.017   6.235  0.6643 -1.2071  0.0019
   7923SM  C12F10516   6.266   0.073   6.066  0.0679 -0.6794  0.4969
   7923SM  H12F10517   6.324  -0.019   6.087  0.7272 -0.3564  0.1244
   7923SM  H12G10518   6.332   0.162   6.051  0.8362 -1.3544 -0.2634
   7923SM  C13F10519   6.173   0.056   5.942 -0.3698  0.1027 -0.0951
   7923SM  H13F10520   6.092  -0.018   5.958 -1.2220  1.1616  0.6666
   7923SM  H13G10521   6.232   0.039   5.849 -1.5616 -1.8583 -0.5211
   7923SM  C14F10522   6.103   0.197   5.917  0.0210 -0.2345  0.7709
   7923SM  H14F10523   6.187   0.266   5.895 -1.0723  1.3435  1.3598
   7923SM  H14G10524   6.057   0.224   6.015 -0.5870  2.2852 -0.1232
   7923SM  C15F10525   6.000   0.213   5.792 -0.6255 -0.2846  0.6136
   7923SM  H15F10526   6.049   0.166   5.704 -0.6334  1.1727 -0.2080
   7923SM  H15G10527   5.978   0.320   5.771 -1.3913 -0.5379  0.0552
   7923SM  C16F10528   5.861   0.146   5.822 -0.1496  0.2725  0.3008
   7923SM  H16F10529   5.812   0.195   5.909 -0.9673  0.0422 -0.0293
   7923SM  H16G10530   5.880   0.041   5.853  2.1056  0.3915 -0.4526
   7923SM  C17F10531   5.779   0.155   5.693 -0.1806  0.0744 -0.3567
   7923SM  H17F10532   5.678   0.122   5.726  0.4249 -1.8015 -0.3173
   7923SM  H17G10533   5.816   0.077   5.623 -1.0501  0.1496 -0.9198
   7923SM  C18F10534   5.786   0.289   5.615  0.0017  0.0951 -0.2565
   7923SM  H18F10535   5.737   0.265   5.517  1.4084  0.9973 -1.2092
   7923SM  H18G10536   5.891   0.312   5.590  1.3031 -3.2326  1.5207
   7923SM  C19F10537   5.720   0.398   5.688  0.0052 -0.7365  0.7442
   7923SM  H19F10538   5.767   0.408   5.788  0.5399 -1.3817  0.5589
   7923SM  H19G10539   5.612   0.375   5.703 -0.2232  0.8531  1.8087
   7923SM  C20F10540   5.720   0.527   5.603  0.2077  0.1035 -0.4272
   7923SM  H20F10541   5.667   0.506   5.508  0.1313  1.4669 -0.7060
   7923SM  H20G10542   5.822   0.557   5.572  0.6406  1.1978  1.7751
   7923SM  C21F10543   5.653   0.643   5.680 -0.0967 -0.4827  0.2525
   7923SM  H21F10544   5.732   0.700   5.733  0.2479  0.7036 -1.4602
   7923SM  H21G10545   5.580   0.604   5.754  1.9269  1.5102  3.5654
   7923SM  C22F10546   5.582   0.756   5.599  0.1091  1.0453  0.0812
   7923SM  H22F10547   5.578   0.845   5.665 -0.9502  1.6124 -0.7180
   7923SM  H22G10548   5.480   0.728   5.566 -0.3135  0.6433  1.6547
   7923SM  C23F10549   5.666   0.809   5.479  0.4583  0.8767  0.0642
   7923SM  H23F10550   5.634   0.906   5.434  0.0973 -0.4991 -2.8662
   7923SM  H23G10551   5.678   0.736   5.396 -1.6351 -0.5807  0.9430
   7923SM  H23H10552   5.770   0.826   5.514  0.4356 -0.6196  0.9707
   8023SM     N10553   0.373   6.560   7.601  0.3520 -0.0445 -0.1946
   8023SM   C1510554   0.357   6.446   7.695  0.0640 -0.0140  0.4698
   8023SM  H15A10555   0.454   6.410   7.725 -0.4165 -0.6094  1.3527
   8023SM  H15B10556   0.317   6.357   7.649  1.5868  0.8240 -2.7700
   8023SM  H15C10557   0.299   6.469   7.783 -1.9849  1.3214 -1.1125
   8023SM   C1410558   0.453   6.666   7.669 -0.4268 -0.0444  0.7481
   8023SM  H14A10559   0.418   6.699   7.766 -2.8902 -0.6142  0.1337
   8023SM  H14B10560   0.456   6.759   7.614  1.6211 -0.0841  0.7184
   8023SM  H14C10561   0.555   6.631   7.673 -0.4458 -0.3007 -0.5855
   8023SM   C1310562   0.447   6.506   7.489 -0.5146 -0.2445  0.0466
   8023SM  H13A10563   0.451   6.566   7.400 -3.0646 -0.0890 -0.0230
   8023SM  H13B10564   0.396   6.416   7.457 -2.2495 -0.0627  2.0493
   8023SM  H13C10565   0.551   6.480   7.503 -0.0709  0.1553 -2.1292
   8023SM   C1210566   0.239   6.614   7.550 -0.1864  0.5622 -0.3294
   8023SM  H12A10567   0.191   6.646   7.641  0.3710 -1.0278  0.5588
   8023SM  H12B10568   0.180   6.532   7.512 -0.6380 -0.4824  2.4445
   8023SM   C1110569   0.238   6.739   7.460 -0.5019  0.5836  0.0578
   8023SM  H11A10570   0.138   6.743   7.411 -1.4307 -0.9188  1.7223
   8023SM  H11B10571   0.311   6.734   7.376  0.1688  2.2377  0.5132
   8023SM     P10572   0.140   6.911   7.632  0.1673 -0.2570 -0.0583
   8023SM   O1310573   0.063   6.797   7.691 -0.7538  0.2469 -0.0825
   8023SM   O1410574   0.206   7.005   7.727 -0.0134  1.0414  0.3665
   8023SM   O1110575   0.050   6.997   7.540  0.0222 -0.3927  0.1552
   8023SM   O1210576   0.254   6.858   7.531 -0.6063 -0.5961  0.1064
   8023SM   C1S10577   0.075   7.125   7.475 -0.2836  0.1522  0.6839
   8023SM   H1S10578   0.171   7.166   7.511  0.2693 -0.1266 -0.4435
   8023SM   H1T10579   0.003   7.208   7.494  0.6469  0.8427  1.2545
   8023SM    NF10580   0.125   7.237   7.268 -0.1497 -0.0541  0.3720
   8023SM   HNF10581   0.060   7.310   7.249  0.5505  0.8909  1.4260
   8023SM   C2S10582   0.077   7.110   7.322  0.3251 -1.1388 -0.0547
   8023SM   H2S10583   0.139   7.024   7.288 -1.4641 -1.3289 -3.1519
   8023SM   C3S10584  -0.069   7.073   7.272  0.0605  0.3494  0.1663
   8023SM   H3S10585  -0.141   7.153   7.297 -0.2749 -0.7246  2.9544
   8023SM    O310586  -0.129   6.971   7.350 -0.0797 -0.0048 -0.0305
   8023SM   HO310587  -0.062   6.960   7.418  2.3478  1.4593 -2.0122
   8023SM   C4S10588  -0.067   7.039   7.128  0.5230  0.4897  0.1380
   8023SM   H4S10589  -0.056   7.127   7.063 -2.3686  0.3689 -0.6689
   8023SM   C5S10590  -0.065   6.921   7.077 -1.1853  0.5017 -0.6740
   8023SM   H5S10591  -0.060   6.834   7.145 -0.5817 -0.3878 -1.8199
   8023SM   C6S10592  -0.068   6.892   6.930  0.0021  0.2739  0.4157
   8023SM   H6S10593  -0.146   6.815   6.910  1.3230 -0.8030 -0.8774
   8023SM   H6T10594   0.029   6.851   6.894  0.8370  1.3054  1.4279
   8023SM   C7S10595  -0.106   7.003   6.822 -0.2046  0.1368  0.0910
   8023SM   H7S10596  -0.057   7.101   6.842 -0.7901  0.6287 -0.7687
   8023SM   H7T10597  -0.213   7.034   6.830  0.1704  1.2898  0.9403
   8023SM   C8S10598  -0.087   6.955   6.677  0.0786  0.0349  0.3621
   8023SM   H8S10599  -0.149   6.863   6.664  0.6140 -0.5528  1.8421
   8023SM   H8T10600   0.020   6.931   6.661 -0.2224 -0.0528 -1.9108
   8023SM   C9S10601  -0.124   7.055   6.569 -0.3908 -0.5382 -0.5890
   8023SM   H9S10602  -0.061   7.147   6.570  1.0186 -1.3679 -3.2584
   8023SM   H9T10603  -0.229   7.091   6.579 -0.1261 -0.1793  1.2094
   8023SM  C10S10604  -0.096   6.985   6.430  0.0795  0.2165 -0.5162
   8023SM  H10S10605  -0.154   6.891   6.426 -2.5874  1.6917  0.6528
   8023SM  H10T10606   0.007   6.944   6.436 -0.2008 -0.4068  0.1847
   8023SM  C11S10607  -0.116   7.080   6.312 -0.1629 -0.4250 -0.2964
   8023SM  H11S10608  -0.052   7.171   6.312  0.5451 -0.7919  3.0389
   8023SM  H11T10609  -0.221   7.115   6.323 -0.3385 -0.8479 -0.5743
   8023SM  C12S10610  -0.105   7.006   6.173  0.2709 -0.6984 -0.1872
   8023SM  H12S10611  -0.186   6.931   6.163 -0.1297 -0.1179 -1.4980
   8023SM  H12T10612  -0.005   6.958   6.182 -0.5071 -2.0619  2.0000
   8023SM  C13S10613  -0.094   7.108   6.055  0.5784  0.6302 -0.2865
   8023SM  H13S10614   0.006   7.150   6.079  1.2297 -1.2964  0.5868
   8023SM  H13T10615  -0.183   7.174   6.065  0.0913 -0.0740  0.0879
   8023SM  C14S10616  -0.106   7.034   5.924  0.1943  0.1193 -0.5912
   8023SM  H14S10617  -0.209   6.993   5.915  1.2370 -3.1719  0.8094
   8023SM  H14T10618  -0.039   6.945   5.918 -0.2372 -0.1991 -0.7296
   8023SM  C15S10619  -0.081   7.123   5.803  0.2540 -0.2657 -0.1817
   8023SM  H15S10620   0.008   7.186   5.824 -1.4480  1.4213  2.5640
   8023SM  H15T10621  -0.168   7.191   5.801  1.2630  1.0924  0.1150
   8023SM  C16S10622  -0.096   7.039   5.673 -0.1205  0.3687 -0.1750
   8023SM  H16S10623  -0.180   6.968   5.692 -1.4914  2.1263  0.6332
   8023SM  H16T10624  -0.000   6.990   5.646 -0.5132 -0.1467 -0.6522
   8023SM  C17S10625  -0.141   7.120   5.559  0.2162 -0.4605  0.1039
   8023SM  H17S10626  -0.113   7.067   5.465 -0.0331  2.1496 -1.5524
   8023SM  H17T10627  -0.084   7.215   5.548 -1.6556  0.5974 -0.9620
   8023SM  C18S10628  -0.293   7.156   5.559  0.2775 -0.2789  0.5121
   8023SM  H18S10629  -0.315   7.203   5.461  0.6078 -1.2181 -0.0195
   8023SM  H18T10630  -0.321   7.209   5.653  0.9379 -0.5636  0.8768
   8023SM  H18U10631  -0.351   7.062   5.570 -3.4049  1.2835 -3.0303
   8023SM   C1F10632   0.254   7.275   7.265  0.1137 -0.9337 -0.5546
   8023SM    OF10633   0.339   7.201   7.315 -0.2770  0.6698  0.2063
   8023SM   C2F10634   0.290   7.412   7.216  0.0468 -0.1509 -0.1736
   8023SM   H2F10635   0.374   7.444   7.280  0.7426  3.0806 -2.4694
   8023SM   H2G10636   0.196   7.469   7.233  1.0362  0.9366  1.9556
   8023SM   C3F10637   0.348   7.415   7.074 -0.0692 -0.1770 -0.0077
   8023SM   H3F10638   0.432   7.343   7.064 -2.1896 -2.6930 -1.0924
   8023SM   H3G10639   0.388   7.516   7.055  0.0371 -0.4435 -1.3207
   8023SM   C4F10640   0.253   7.387   6.959  0.5177  0.4562 -0.1703
   8023SM   H4F10641   0.177   7.464   6.986 -0.0085 -0.5195  1.2373
   8023SM   H4G10642   0.194   7.294   6.973 -0.2983  1.0550  0.4898
   8023SM   C5F10643   0.316   7.388   6.826 -0.0378  0.2595  0.1853
   8023SM   H5F10644   0.394   7.310   6.815 -0.1479 -0.3695  3.1050
   8023SM   H5G10645   0.385   7.474   6.814 -0.4954  0.8114  1.3756
   8023SM   C6F10646   0.220   7.370   6.713 -0.0307 -0.3231 -0.2799
   8023SM   H6F10647   0.138   7.445   6.715  0.4005  0.1787 -0.9370
   8023SM   H6G10648   0.178   7.268   6.702 -0.8968  0.0791 -0.8559
   8023SM   C7F10649   0.283   7.400   6.578 -0.7302  0.2070 -0.5790
   8023SM   H7F10650   0.357   7.319   6.562 -1.0213  0.1200 -1.5740
   8023SM   H7G10651   0.347   7.489   6.595  0.5782 -0.9389  0.7598
   8023SM   C8F10652   0.187   7.418   6.461  0.1581  0.0285  0.1878
   8023SM   H8F10653   0.139   7.518   6.457  1.7364  0.7803 -1.3724
   8023SM   H8G10654   0.102   7.347   6.472 -0.1052  0.3267  0.0838
   8023SM   C9F10655   0.258   7.399   6.331 -0.2438  0.0559 -0.4867
   8023SM   H9F10656   0.310   7.303   6.350 -0.7028  0.2856  2.2074
   8023SM   H9G10657   0.326   7.486   6.320 -1.5964  1.5042  1.7301
   8023SM  C10F10658   0.176   7.374   6.208 -0.0535 -0.1801 -0.0892
   8023SM  H10F10659   0.102   7.456   6.203 -0.9399 -0.9019  0.8471
   8023SM  H10G10660   0.132   7.273   6.226  1.4862 -0.8654  0.0870
   8023SM  C11F10661   0.262   7.381   6.082  1.1338  0.0454 -0.2344
   8023SM  H11F10662   0.351   7.315   6.094  1.3804  0.7131  2.3476
   8023SM  H11G10663   0.312   7.480   6.071 -1.8556  1.6378 -0.4188
   8023SM  C12F10664   0.181   7.351   5.960  0.3435  0.1924  0.1661
   8023SM  H12F10665   0.084   7.406   5.959  0.3993  0.3078 -2.0520
   8023SM  H12G10666   0.155   7.243   5.967 -0.8801  0.5633  2.5819
   8023SM  C13F10667   0.258   7.380   5.829 -0.3357 -0.4670  0.0729
   8023SM  H13F10668   0.330   7.297   5.817 -0.2400 -0.5166  0.9065
   8023SM  H13G10669   0.312   7.477   5.829 -1.3490  0.1181  0.8730
   8023SM  C14F10670   0.177   7.381   5.704  0.7384  0.7106  1.0655
   8023SM  H14F10671   0.077   7.426   5.723  0.0244 -0.4519  0.2050
   8023SM  H14G10672   0.148   7.278   5.671  0.5993  1.3494 -0.9031
   8023SM  C15F10673   0.245   7.437   5.582 -0.4685  0.7397 -0.2166
   8023SM  H15F10674   0.242   7.548   5.587 -1.2804  0.6759  1.7123
   8023SM  H15G10675   0.194   7.397   5.491  0.8843 -0.9310 -0.2918
   8023SM  C16F10676   0.396   7.403   5.558  0.0803 -0.5017  0.1851
   8023SM  H16F10677   0.411   7.293   5.566  1.9920 -0.2324  0.9612
   8023SM  H16G10678   0.456   7.443   5.643  0.3427 -3.1739  1.3840
   8023SM  C17F10679   0.447   7.461   5.423 -0.3529  0.9405 -0.1781
   8023SM  H17F10680   0.453   7.572   5.422 -1.5231  1.1010  2.4997
   8023SM  H17G10681   0.376   7.430   5.344  0.3695  0.3676 -0.6198
   8023SM  C18F10682   0.571   7.383   5.382 -0.1411 -1.0478  0.8624
   8023SM  H18F10683   0.539   7.278   5.363 -0.4568 -0.5828 -1.3987
   8023SM  H18G10684   0.639   7.375   5.470 -1.9731 -0.9419  2.3595
   8023SM  C19F10685   0.633   7.437   5.250  0.2663 -0.2727 -1.2332
   8023SM  H19F10686   0.699   7.521   5.282 -1.7542  0.7254  0.5882
   8023SM  H19G10687   0.555   7.478   5.183 -0.4852 -0.0937 -0.2672
   8023SM  C20F10688   0.700   7.338   5.160  0.0383 -0.1836  0.1423
   8023SM  H20F10689   0.631   7.267   5.110 -1.5446  1.4848 -0.1458
   8023SM  H20G10690   0.761   7.281   5.234 -1.1738 -0.7557  0.7324
   8023SM  C21F10691   0.783   7.415   5.060 -0.1045  0.0488  0.0899
   8023SM  H21F10692   0.866   7.467   5.112 -0.9967  0.7047  0.8700
   8023SM  H21G10693   0.720   7.492   5.012 -0.3174 -0.4646 -0.4730
   8023SM  C22F10694   0.853   7.320   4.959 -0.1532  0.4129 -0.0189
   8023SM  H22F10695   0.781   7.243   4.924 -0.3972  0.4837  0.3226
   8023SM  H22G10696   0.937   7.266   5.008  0.0265  0.1430 -0.6094
   8023SM  C23F10697   0.919   7.387   4.835 -0.5422 -0.0750  0.2223
   8023SM  H23F10698   0.962   7.482   4.873  0.1532 -0.4721  0.4456
   8023SM  H23G10699   0.851   7.406   4.749  1.0749  0.8926 -0.9075
   8023SM  H23H10700   0.999   7.322   4.791  0.8782  1.4889  0.3936
   8123SM     N10701   3.745   4.270   2.252 -0.1806 -0.5296  0.0941
   8123SM   C1510702   3.640   4.345   2.172  0.2044 -1.1370  0.2521
   8123SM  H15A10703   3.548   4.362   2.226 -1.1473 -1.5862 -1.7730
   8123SM  H15B10704   3.609   4.286   2.087 -2.5121  0.3126  0.1420
   8123SM  H15C10705   3.674   4.437   2.127 -1.5121 -0.5598  0.0668
   8123SM   C1410706   3.686   4.141   2.291 -0.6132 -0.4766  0.0566
   8123SM  H14A10707   3.592   4.143   2.345 -0.4166  0.6683  0.3722
   8123SM  H14B10708   3.759   4.087   2.349  1.7880  0.8286 -1.6046
   8123SM  H14C10709   3.669   4.066   2.215  0.5866 -0.4537 -0.2450
   8123SM   C1310710   3.865   4.248   2.160  0.1134 -0.1547  0.2135
   8123SM  H13A10711   3.841   4.185   2.076 -0.9206 -0.8144  0.9786
   8123SM  H13B10712   3.942   4.191   2.209 -0.9520 -1.0748  0.8592
   8123SM  H13C10713   3.900   4.341   2.116 -2.3629  0.9390  0.3571
   8123SM   C1210714   3.787   4.350   2.370  0.4083 -0.5854 -0.1194
   8123SM  H12A10715   3.839   4.434   2.326  0.4453 -0.5350  0.0197
   8123SM  H12B10716   3.865   4.295   2.421 -0.5311  0.0647  2.1488
   8123SM   C1110717   3.684   4.402   2.470  0.6061 -0.2201  0.1556
   8123SM  H11A10718   3.591   4.448   2.430  0.9029  0.8692  0.6900
   8123SM  H11B10719   3.736   4.490   2.513  0.9323 -0.1027 -0.4566
   8123SM     P10720   3.755   4.282   2.699 -0.6004 -0.4637  0.5314
   8123SM   O1310721   3.726   4.164   2.780 -0.7601 -0.0673 -0.1283
   8123SM   O1410722   3.891   4.286   2.645  0.1111 -0.1403 -0.7976
   8123SM   O1110723   3.729   4.420   2.776 -0.6038 -0.1366  0.0760
   8123SM   O1210724   3.655   4.294   2.568  0.6577 -0.0142 -0.3779
   8123SM   C1S10725   3.603   4.450   2.830  0.8047  0.4204  0.0674
   8123SM   H1S10726   3.515   4.399   2.784 -0.0474  2.1455 -0.3183
   8123SM   H1T10727   3.591   4.560   2.820 -0.0356  0.2474 -1.0843
   8123SM    NF10728   3.462   4.416   3.026  0.2143 -0.1104  0.7482
   8123SM   HNF10729   3.415   4.504   3.032 -0.6228 -0.3981 -0.9591
   8123SM   C2S10730   3.605   4.423   2.987 -0.1515 -0.7294 -0.5689
   8123SM   H2S10731   3.649   4.323   3.007  2.0105  0.6128  1.9734
   8123SM   C3S10732   3.697   4.529   3.056 -0.5884  0.9207  0.2235
   8123SM   H3S10733   3.666   4.633   3.032  0.4553  0.9489 -1.1467
   8123SM    O310734   3.830   4.519   2.995  0.1243 -0.1843 -0.0030
   8123SM   HO310735   3.796   4.478   2.915  0.6434 -1.0026  0.1835
   8123SM   C4S10736   3.686   4.511   3.201 -0.1070 -0.4125 -0.5300
   8123SM   H4S10737   3.589   4.533   3.247 -0.4804 -0.7920 -1.1163
   8123SM   C5S10738   3.782   4.463   3.279 -0.0447  0.2340 -0.9675
   8123SM   H5S10739   3.880   4.435   3.237  1.0134  3.4662 -0.9472
   8123SM   C6S10740   3.774   4.438   3.428 -0.1762  0.0357 -0.0905
   8123SM   H6S10741   3.862   4.489   3.473 -1.7261  2.1192  0.7405
   8123SM   H6T10742   3.774   4.328   3.446 -0.9244  0.1345  0.5294
   8123SM   C7S10743   3.649   4.496   3.501 -0.1485  0.7347 -0.6448
   8123SM   H7S10744   3.556   4.472   3.444 -1.2647 -0.4067  1.5498
   8123SM   H7T10745   3.663   4.606   3.501  1.2548  0.6180  1.9577
   8123SM   C8S10746   3.622   4.448   3.639 -1.6394 -0.1748 -0.7407
   8123SM   H8S10747   3.590   4.342   3.625  0.4085 -0.9648  0.1075
   8123SM   H8T10748   3.541   4.513   3.678 -1.6396 -0.0717 -0.9159
   8123SM   C9S10749   3.748   4.456   3.738  0.4854 -0.3312 -0.2913
   8123SM   H9S10750   3.757   4.556   3.786 -0.0040  0.0766 -1.0337
   8123SM   H9T10751   3.840   4.441   3.677 -0.0163 -2.4864 -0.6109
   8123SM  C10S10752   3.734   4.355   3.852  0.2833  0.4851  0.1548
   8123SM  H10S10753   3.761   4.252   3.822 -0.5543  0.1538  0.5014
   8123SM  H10T10754   3.630   4.367   3.889  1.1752  0.9932  2.6767
   8123SM  C11S10755   3.823   4.385   3.973 -0.0720  0.2703 -0.0037
   8123SM  H11S10756   3.790   4.483   4.013 -0.0532  0.0029  0.6787
   8123SM  H11T10757   3.932   4.386   3.950  0.0658 -2.4830  0.1398
   8123SM  C12S10758   3.797   4.281   4.090  0.0410  0.6453 -0.2104
   8123SM  H12S10759   3.829   4.181   4.055 -0.9582 -0.0730  0.8590
   8123SM  H12T10760   3.691   4.270   4.123  0.4090 -0.4381  0.6841
   8123SM  C13S10761   3.890   4.300   4.211 -0.2517 -0.1346 -0.5421
   8123SM  H13S10762   3.998   4.311   4.188  0.4911 -0.1053  2.5713
   8123SM  H13T10763   3.878   4.201   4.261  0.0908  0.0976  0.0060
   8123SM  C14S10764   3.844   4.408   4.305  0.2262 -0.1359 -0.3598
   8123SM  H14S10765   3.740   4.390   4.339 -0.0792  2.1671  0.1111
   8123SM  H14T10766   3.846   4.506   4.252  0.9775 -0.0738 -0.2286
   8123SM  C15S10767   3.922   4.423   4.442  0.4757  0.4628  0.5897
   8123SM  H15S10768   3.896   4.523   4.482  0.2083  0.8705 -0.5579
   8123SM  H15T10769   4.033   4.411   4.435  0.3237 -2.1773  1.6101
   8123SM  C16S10770   3.878   4.315   4.549  0.7243 -0.0192  0.4804
   8123SM  H16S10771   3.898   4.220   4.495  1.2109 -1.8611  3.6675
   8123SM  H16T10772   3.771   4.309   4.575  0.6871  0.1065  0.3576
   8123SM  C17S10773   3.956   4.310   4.684  0.7421 -0.5523 -0.1876
   8123SM  H17S10774   3.929   4.387   4.759 -2.8484 -0.3713 -1.4561
   8123SM  H17T10775   4.064   4.317   4.657  0.5733 -0.5434 -0.8698
   8123SM  C18S10776   3.948   4.179   4.757  0.1144 -0.3813  0.1646
   8123SM  H18S10777   3.849   4.162   4.804  0.8902 -0.6878  1.7715
   8123SM  H18T10778   4.015   4.165   4.845  0.5415 -1.1785 -0.2660
   8123SM  H18U10779   3.973   4.094   4.689  0.2843 -0.2095  0.0118
   8123SM   C1F10780   3.390   4.308   3.000 -0.3333  0.0750  0.5625
   8123SM    OF10781   3.446   4.206   2.959  0.4775  0.4926  0.6770
   8123SM   C2F10782   3.245   4.308   3.031  0.3654  0.2113  0.4499
   8123SM   H2F10783   3.195   4.254   2.948 -0.6825  0.2669  1.0264
   8123SM   H2G10784   3.210   4.414   3.031 -0.3143  0.0677  2.8632
   8123SM   C3F10785   3.215   4.239   3.162  0.2913 -0.7569  0.1763
   8123SM   H3F10786   3.231   4.129   3.162 -1.7590 -1.1017  0.4978
   8123SM   H3G10787   3.105   4.242   3.177 -0.3820 -0.4628 -3.7327
   8123SM   C4F10788   3.279   4.302   3.289 -0.3155  0.0589 -0.6004
   8123SM   H4F10789   3.234   4.403   3.290  2.2014  1.2385  0.1507
   8123SM   H4G10790   3.384   4.320   3.258 -0.2989  2.7879  0.8199
   8123SM   C5F10791   3.247   4.229   3.414  0.9544  0.5559 -0.1212
   8123SM   H5F10792   3.293   4.129   3.398 -1.9247 -0.7246 -1.1882
   8123SM   H5G10793   3.138   4.210   3.427  1.1983  0.2946  1.7597
   8123SM   C6F10794   3.294   4.301   3.544 -0.3756 -0.2539  0.0808
   8123SM   H6F10795   3.262   4.408   3.545  1.1327  0.2183  0.5788
   8123SM   H6G10796   3.405   4.299   3.543 -0.3701 -2.5898 -0.2387
   8123SM   C7F10797   3.238   4.251   3.675  0.3550  0.5239 -0.3531
   8123SM   H7F10798   3.255   4.142   3.690 -1.1781  0.2674 -0.3448
   8123SM   H7G10799   3.128   4.260   3.668  0.2390 -0.9732 -0.8496
   8123SM   C8F10800   3.276   4.325   3.806  0.0461  0.4104  0.4618
   8123SM   H8F10801   3.252   4.430   3.781  2.1662  0.6088 -1.0086
   8123SM   H8G10802   3.384   4.302   3.826  0.0882 -0.9356 -1.1051
   8123SM   C9F10803   3.197   4.277   3.931  0.5912 -0.2760 -0.1286
   8123SM   H9F10804   3.188   4.168   3.948 -3.2880  0.0938  1.3845
   8123SM   H9G10805   3.095   4.314   3.904  1.1689  0.3466 -1.5140
   8123SM  C10F10806   3.243   4.346   4.058 -0.5305 -0.0464 -0.0252
   8123SM  H10F10807   3.215   4.450   4.034 -1.8097 -0.5651 -0.9123
   8123SM  H10G10808   3.352   4.348   4.076 -0.7842  1.4225  1.6352
   8123SM  C11F10809   3.168   4.297   4.183 -0.2015 -0.2006  0.5312
   8123SM  H11F10810   3.214   4.197   4.193 -0.5442 -0.4932 -0.6134
   8123SM  H11G10811   3.059   4.297   4.158  0.1727 -0.2679 -1.2501
   8123SM  C12F10812   3.200   4.374   4.316  0.1850  0.4295  0.1371
   8123SM  H12F10813   3.127   4.334   4.389  1.6364 -2.3689  0.1869
   8123SM  H12G10814   3.180   4.483   4.308  0.6645  0.5033 -0.0544
   8123SM  C13F10815   3.337   4.349   4.378  0.0798 -1.2119 -0.0096
   8123SM  H13F10816   3.355   4.406   4.471 -1.3215  1.2071 -1.1357
   8123SM  H13G10817   3.416   4.371   4.303 -0.1276  2.2596  0.6285
   8123SM  C14F10818   3.360   4.201   4.397  0.4130 -0.4429  0.3796
   8123SM  H14F10819   3.365   4.147   4.300  0.6748 -1.3501  0.8965
   8123SM  H14G10820   3.270   4.157   4.446  0.5152  1.8386  2.8438
   8123SM  C15F10821   3.481   4.161   4.485 -0.1779  0.1661  0.4664
   8123SM  H15F10822   3.573   4.215   4.453  0.3990 -1.5461 -0.9279
   8123SM  H15G10823   3.495   4.054   4.456  0.1468  0.9368 -2.5541
   8123SM  C16F10824   3.457   4.183   4.635 -0.5898 -0.0188 -0.2493
   8123SM  H16F10825   3.349   4.167   4.657 -0.6703 -0.3830 -0.8676
   8123SM  H16G10826   3.476   4.287   4.669 -0.6221 -1.0594  3.3756
   8123SM  C17F10827   3.546   4.090   4.720  0.0015 -0.2558  0.5664
   8123SM  H17F10828   3.650   4.099   4.682 -0.7290 -0.4905 -1.6340
   8123SM  H17G10829   3.532   3.982   4.701 -0.1969 -0.1082 -0.1684
   8123SM  C18F10830   3.540   4.124   4.871  0.2578 -0.5869  0.1954
   8123SM  H18F10831   3.565   4.231   4.887 -2.0380  0.3123 -1.5107
   8123SM  H18G10832   3.608   4.055   4.924 -1.2424 -1.3657  1.1690
   8123SM  C19F10833   3.395   4.095   4.925 -0.6632 -0.0125  0.3665
   8123SM  H19F10834   3.368   3.990   4.898 -0.8806 -0.5883  2.5938
   8123SM  H19G10835   3.328   4.170   4.879 -0.0819  0.5566  0.4302
   8123SM  C20F10836   3.391   4.100   5.075 -0.8535 -0.5089 -0.4175
   8123SM  H20F10837   3.421   4.203   5.106  0.1585 -1.4002  1.7939
   8123SM  H20G10838   3.463   4.033   5.127 -2.0430 -1.1639  0.4191
   8123SM  C21F10839   3.255   4.073   5.128  0.0194  0.0629  0.2172
   8123SM  H21F10840   3.219   3.970   5.105  1.0471 -0.3843  0.5468
   8123SM  H21G10841   3.187   4.141   5.072 -0.5019 -0.1624  0.5680
   8123SM  C22F10842   3.242   4.095   5.280  0.7761 -0.2110 -0.1937
   8123SM  H22F10843   3.255   4.204   5.299 -0.7817  0.1528 -1.0051
   8123SM  H22G10844   3.321   4.043   5.338  0.6915  0.2437  0.3425
   8123SM  C23F10845   3.097   4.050   5.322  0.4308 -0.2904 -0.5040
   8123SM  H23F10846   3.018   4.094   5.257 -0.2991  0.3652  0.7766
   8123SM  H23G10847   3.067   4.082   5.424 -0.0371 -1.3013 -0.3161
   8123SM  H23H10848   3.081   3.941   5.309 -0.7558  0.1016 -2.8138
   8223SM     N10849   4.766   5.202   2.394 -0.6855 -0.2210 -0.4322
   8223SM   C1510850   4.755   5.227   2.250  0.0027 -0.1555 -0.0967
   8223SM  H15A10851   4.668   5.281   2.215  0.4751  0.6674 -0.0110
   8223SM  H15B10852   4.735   5.137   2.193  1.1147  1.0906 -2.6191
   8223SM  H15C10853   4.844   5.278   2.217  1.9619 -1.0900  3.3217
   8223SM   C1410854   4.807   5.340   2.452 -0.0963  0.0779 -0.0233
   8223SM  H14A10855   4.830   5.336   2.558  2.0217 -1.2629 -0.4796
   8223SM  H14B10856   4.725   5.410   2.445  0.7961  1.1934  0.3141
   8223SM  H14C10857   4.889   5.390   2.403  0.5654  0.7007  1.6467
   8223SM   C1310858   4.634   5.163   2.455  0.0160 -0.0372 -1.0335
   8223SM  H13A10859   4.646   5.137   2.559  1.4019 -0.9004 -1.3867
   8223SM  H13B10860   4.603   5.072   2.406 -1.4522  1.1430 -2.4185
   8223SM  H13C10861   4.567   5.248   2.456 -0.5031 -0.0681  4.8026
   8223SM   C1210862   4.881   5.111   2.425 -0.3287  0.5697 -0.1125
   8223SM  H12A10863   4.909   5.120   2.529  0.7849 -0.5500 -0.2973
   8223SM  H12B10864   4.968   5.136   2.365  0.9146 -1.5958  0.6729
   8223SM   C1110865   4.845   4.962   2.401 -0.0015 -0.5498 -0.0604
   8223SM  H11A10866   4.941   4.905   2.399 -0.0960 -0.7048 -0.1091
   8223SM  H11B10867   4.794   4.948   2.303  0.6618 -1.7518 -0.2476
   8223SM     P10868   4.699   4.769   2.489  0.0419 -0.2818 -0.2851
   8223SM   O1310869   4.562   4.806   2.444 -0.7073 -0.1396 -0.0306
   8223SM   O1410870   4.777   4.691   2.393  0.3630  0.7624  0.4705
   8223SM   O1110871   4.705   4.715   2.638  0.0827  0.0041  0.2922
   8223SM   O1210872   4.767   4.914   2.510  0.2932 -0.1701 -0.3284
   8223SM   C1S10873   4.661   4.777   2.759 -0.6401  0.7490  0.2499
   8223SM   H1S10874   4.572   4.837   2.728 -2.5290 -0.7257  2.4422
   8223SM   H1T10875   4.738   4.845   2.801  0.5377 -1.0802  1.1946
   8223SM    NF10876   4.554   4.743   2.969 -0.2632  0.1563 -0.4028
   8223SM   HNF10877   4.608   4.752   3.052 -0.6430  4.4164 -0.4146
   8223SM   C2S10878   4.611   4.679   2.858  0.0551 -0.5243 -0.1378
   8223SM   H2S10879   4.541   4.623   2.794  0.8093 -0.3952 -1.0915
   8223SM   C3S10880   4.731   4.597   2.907  1.4871 -0.5331  0.5934
   8223SM   H3S10881   4.795   4.655   2.976 -0.5903  1.0433  1.3065
   8223SM    O310882   4.816   4.541   2.806 -0.2679  0.0899 -0.0082
   8223SM   HO310883   4.781   4.579   2.725 -1.3816 -2.4784 -0.8180
   8223SM   C4S10884   4.672   4.479   2.986  0.0108  0.2303 -0.0011
   8223SM   H4S10885   4.624   4.398   2.929 -1.8112  2.7513 -2.3159
   8223SM   C5S10886   4.681   4.472   3.117  0.3517 -0.1952  0.2758
   8223SM   H5S10887   4.734   4.553   3.171  2.3892 -1.3170  0.0635
   8223SM   C6S10888   4.634   4.365   3.209 -0.6840 -0.0065  0.4813
   8223SM   H6S10889   4.601   4.280   3.146  1.4854 -0.6374  0.1036
   8223SM   H6T10890   4.553   4.400   3.276 -1.3135 -1.4255  0.4911
   8223SM   C7S10891   4.758   4.320   3.301 -0.7275  0.0376 -0.1891
   8223SM   H7S10892   4.806   4.414   3.337  0.2097  0.6897 -2.8317
   8223SM   H7T10893   4.838   4.277   3.237 -0.1901  1.4767 -0.5334
   8223SM   C8S10894   4.715   4.237   3.424 -0.4033 -0.6556  0.2655
   8223SM   H8S10895   4.804   4.234   3.491  0.5672  1.1245 -0.8610
   8223SM   H8T10896   4.689   4.132   3.400 -1.1041 -0.6293  0.8703
   8223SM   C9S10897   4.597   4.299   3.516 -0.3399 -0.0340 -0.3976
   8223SM   H9S10898   4.508   4.309   3.451 -1.9665  0.0112  1.7383
   8223SM   H9T10899   4.625   4.402   3.545 -1.3174  1.0144 -2.8519
   8223SM  C10S10900   4.565   4.222   3.646  0.5176  0.1428  0.1953
   8223SM  H10S10901   4.656   4.183   3.697 -1.6492 -5.0008  0.7216
   8223SM  H10T10902   4.510   4.127   3.632 -0.3546  0.5739  0.6450
   8223SM  C11S10903   4.489   4.303   3.752  0.0229  0.0106 -0.2326
   8223SM  H11S10904   4.411   4.360   3.698  0.9072  1.2433 -0.2494
   8223SM  H11T10905   4.547   4.392   3.782 -1.4894  1.2849 -0.9609
   8223SM  C12S10906   4.434   4.212   3.861  0.5278 -0.6685 -0.1593
   8223SM  H12S10907   4.365   4.133   3.824  0.1088 -1.4690  2.1462
   8223SM  H12T10908   4.362   4.280   3.913  0.8420  0.0817 -0.7031
   8223SM  C13S10909   4.533   4.159   3.968 -0.5809  0.2350 -0.4407
   8223SM  H13S10910   4.592   4.241   4.013 -2.3420  1.6220 -0.5454
   8223SM  H13T10911   4.591   4.088   3.905 -1.5506  1.0788 -2.3581
   8223SM  C14S10912   4.476   4.080   4.094 -0.3958 -0.5181 -1.1766
   8223SM  H14S10913   4.565   4.062   4.157 -0.2962 -0.2827 -1.2502
   8223SM  H14T10914   4.420   3.990   4.062  2.1226 -2.0246 -1.6002
   8223SM  C15S10915   4.382   4.166   4.184  0.1472 -0.0117  0.5627
   8223SM  H15S10916   4.284   4.173   4.131  0.6743 -0.0876 -0.4475
   8223SM  H15T10917   4.428   4.264   4.209  1.1330 -1.0061  2.9449
   8223SM  C16S10918   4.371   4.097   4.320 -0.6936 -0.1758  0.4028
   8223SM  H16S10919   4.472   4.078   4.362 -1.9685 -1.6800  2.9847
   8223SM  H16T10920   4.328   3.995   4.310 -0.9614 -0.2520  2.0839
   8223SM  C17S10921   4.287   4.169   4.424 -0.4141  0.3489  0.4292
   8223SM  H17S10922   4.179   4.171   4.398 -0.6361 -1.2384  1.1345
   8223SM  H17T10923   4.334   4.270   4.425  1.0953 -0.3123 -0.2413
   8223SM  C18S10924   4.297   4.101   4.567 -0.0259  0.1288 -1.0935
   8223SM  H18S10925   4.405   4.081   4.577 -0.3795 -0.7028  1.8120
   8223SM  H18T10926   4.242   4.005   4.568  0.4727 -0.1597 -1.1864
   8223SM  H18U10927   4.251   4.166   4.644 -0.1145  0.8103 -1.7100
   8223SM   C1F10928   4.440   4.814   2.963 -0.4356  0.7313  0.5898
   8223SM    OF10929   4.366   4.791   2.871 -0.4528 -0.0995  0.2737
   8223SM   C2F10930   4.411   4.916   3.073 -0.2206 -0.3229 -0.1392
   8223SM   H2F10931   4.361   5.001   3.021  0.0737 -0.8263 -1.2716
   8223SM   H2G10932   4.504   4.949   3.124 -0.7652  0.3143  0.4663
   8223SM   C3F10933   4.322   4.854   3.182 -0.5784  0.0944  0.3591
   8223SM   H3F10934   4.236   4.800   3.136  0.7167 -1.8462  0.0973
   8223SM   H3G10935   4.287   4.941   3.241  2.8887  2.9057 -1.3274
   8223SM   C4F10936   4.384   4.757   3.284 -0.2145 -0.3123 -0.1831
   8223SM   H4F10937   4.453   4.819   3.345 -0.4088  1.2015 -1.4232
   8223SM   H4G10938   4.444   4.675   3.239  0.3284  0.5667 -1.1209
   8223SM   C5F10939   4.275   4.714   3.385 -0.6845 -0.0822 -0.6975
   8223SM   H5F10940   4.185   4.679   3.329 -0.2822 -1.5460 -0.4736
   8223SM   H5G10941   4.247   4.803   3.446 -0.3926 -1.4225  1.5233
   8223SM   C6F10942   4.323   4.595   3.471 -0.1727 -0.2274  0.4174
   8223SM   H6F10943   4.419   4.620   3.522 -0.1517  2.5594 -0.8331
   8223SM   H6G10944   4.338   4.509   3.402  1.5151  0.1354  0.2824
   8223SM   C7F10945   4.219   4.550   3.580 -0.3270  0.0103  0.1188
   8223SM   H7F10946   4.230   4.442   3.604 -1.4808 -0.0806  0.2856
   8223SM   H7G10947   4.120   4.571   3.534  0.6712 -0.6945 -2.5697
   8223SM   C8F10948   4.234   4.625   3.714  0.1824  0.6335  0.5850
   8223SM   H8F10949   4.207   4.728   3.684 -0.9399  0.1037 -0.3337
   8223SM   H8G10950   4.339   4.618   3.750  0.8037  1.6245 -0.9584
   8223SM   C9F10951   4.132   4.573   3.818  0.0658 -0.0282 -0.0745
   8223SM   H9F10952   4.144   4.463   3.826  0.7589 -0.1267 -1.8160
   8223SM   H9G10953   4.032   4.584   3.771 -0.0786 -1.2208 -0.0855
   8223SM  C10F10954   4.124   4.654   3.953  0.3130 -0.5597  0.0914
   8223SM  H10F10955   4.043   4.625   4.023 -0.3393  0.8389 -0.0512
   8223SM  H10G10956   4.097   4.759   3.930 -1.4101 -1.1254 -0.6403
   8223SM  C11F10957   4.261   4.643   4.029 -0.1744  0.1250  0.5374
   8223SM  H11F10958   4.339   4.662   3.953  0.1952  1.0637  1.1212
   8223SM  H11G10959   4.272   4.540   4.069  0.9727  0.2190  0.4758
   8223SM  C12F10960   4.276   4.747   4.137 -0.0214 -0.5743 -0.4379
   8223SM  H12F10961   4.279   4.844   4.083  0.1613 -0.8281 -0.8845
   8223SM  H12G10962   4.364   4.745   4.204 -2.0339  0.3432  2.4643
   8223SM  C13F10963   4.162   4.745   4.241 -0.3638  0.7493  0.5138
   8223SM  H13F10964   4.160   4.643   4.286  3.1713  0.1725 -0.3085
   8223SM  H13G10965   4.063   4.761   4.194 -0.1554 -1.1965 -0.6994
   8223SM  C14F10966   4.209   4.837   4.356  0.1233 -0.3443  0.2132
   8223SM  H14F10967   4.212   4.945   4.330 -2.1453 -0.6374 -1.5851
   8223SM  H14G10968   4.306   4.800   4.394  1.0762  1.3124 -0.4877
   8223SM  C15F10969   4.103   4.825   4.467 -0.3212  0.5525 -0.0602
   8223SM  H15F10970   4.083   4.719   4.494 -1.6409  0.5197 -1.0395
   8223SM  H15G10971   4.005   4.868   4.435 -1.8560 -1.9570  0.9638
   8223SM  C16F10972   4.131   4.908   4.595  0.2290 -0.2531  0.5945
   8223SM  H16F10973   4.154   5.015   4.575 -0.1013 -0.5507 -1.6832
   8223SM  H16G10974   4.222   4.871   4.647  0.7696  1.5744  1.0255
   8223SM  C17F10975   4.030   4.902   4.706  0.4507 -0.0139 -0.2014
   8223SM  H17F10976   3.997   4.801   4.738  0.6443 -0.3605 -1.0711
   8223SM  H17G10977   3.933   4.949   4.677 -0.0958 -0.4439  0.8492
   8223SM  C18F10978   4.072   4.996   4.823  0.4386  0.0560  0.1020
   8223SM  H18F10979   4.045   5.096   4.783  0.6679 -0.2087 -0.7373
   8223SM  H18G10980   4.181   4.999   4.846  0.5532 -0.1944 -0.4052
   8223SM  C19F10981   3.995   4.956   4.948  0.2181  0.4871 -0.1642
   8223SM  H19F10982   4.016   4.849   4.971 -0.0484  0.1760 -1.2791
   8223SM  H19G10983   3.887   4.971   4.927 -0.1089  3.6011  2.8999
   8223SM  C20F10984   4.033   5.056   5.057 -0.0055 -0.0114 -0.4860
   8223SM  H20F10985   4.142   5.076   5.064 -0.1692  0.9210 -0.4264
   8223SM  H20G10986   4.000   5.024   5.158 -0.6410 -2.5188 -1.3997
   8223SM  C21F10987   3.964   5.201   5.044  0.2162  0.4237 -1.1226
   8223SM  H21F10988   3.857   5.173   5.050  0.4931 -0.6281 -0.8198
   8223SM  H21G10989   3.982   5.249   4.945 -1.2500 -0.0430 -1.6345
   8223SM  C22F10990   3.996   5.287   5.163  0.2658 -0.0488 -0.3803
   8223SM  H22F10991   4.092   5.344   5.163  0.3892 -0.2403  0.5767
   8223SM  H22G10992   4.005   5.234   5.260  2.3946  2.8673  1.1776
   8223SM  C23F10993   3.901   5.412   5.182 -0.1857  0.2390  0.3215
   8223SM  H23F10994   3.948   5.463   5.270  3.4091 -3.7643  1.0760
   8223SM  H23G10995   3.800   5.372   5.202  0.6111 -1.3494  1.4503
   8223SM  H23H10996   3.900   5.482   5.096 -0.1833 -2.4068 -1.9260
   8323SM     N10997   4.283   4.117   2.371 -0.0370 -0.0207  0.3371
   8323SM   C1510998   4.418   4.167   2.418  0.2729  0.3348 -1.0449
   8323SM  H15A10999   4.417   4.193   2.523  0.0785 -0.7417 -0.7654
   8323SM  H15B11000   4.441   4.255   2.360 -1.3060 -0.0377 -2.2935
   8323SM  H15C11001   4.496   4.093   2.405 -1.2982 -1.2610 -1.7760
   8323SM   C1411002   4.288   4.070   2.226  0.2017  0.1820  0.0386
   8323SM  H14A11003   4.312   4.145   2.151  1.8283 -1.5280 -1.2395
   8323SM  H14B11004   4.191   4.025   2.209  0.1374 -0.0138  0.8913
   8323SM  H14C11005   4.365   3.994   2.219  0.8342  0.9550 -3.9148
   8323SM   C1311006   4.256   4.004   2.463  0.3606 -0.0906  0.3519
   8323SM  H13A11007   4.347   3.947   2.472  0.9938  0.2908 -2.5402
   8323SM  H13B11008   4.183   3.937   2.420  1.8177 -1.5741  0.0845
   8323SM  H13C11009   4.232   4.027   2.566 -0.0541 -1.9649  0.7163
   8323SM   C1211010   4.174   4.219   2.376  0.0921 -0.2415  0.7434
   8323SM  H12A11011   4.171   4.261   2.476 -2.2542  0.2168  0.5554
   8323SM  H12B11012   4.079   4.170   2.359  0.8613 -1.8911  1.0805
   8323SM   C1111013   4.180   4.338   2.275 -0.0077  0.0915 -0.0998
   8323SM  H11A11014   4.176   4.297   2.172  3.8309  0.1855 -0.4373
   8323SM  H11B11015   4.275   4.396   2.274 -0.9767  1.7738 -2.2541
   8323SM     P11016   4.067   4.571   2.326  0.2136  0.3590 -0.0222
   8323SM   O1311017   4.145   4.644   2.219  0.4380  0.0254  0.0077
   8323SM   O1411018   3.924   4.610   2.338  0.3827  0.1138 -0.2323
   8323SM   O1111019   4.135   4.585   2.469 -0.2186  0.5101  0.0901
   8323SM   O1211020   4.064   4.418   2.292  0.0453 -0.2031 -0.2221
   8323SM   C1S11021   4.075   4.520   2.582  0.2861 -0.1215 -0.2718
   8323SM   H1S11022   4.128   4.423   2.596 -0.6531 -0.4035  1.5870
   8323SM   H1T11023   3.967   4.510   2.559  0.5549  0.6124 -2.0839
   8323SM    NF11024   4.080   4.521   2.839 -0.4545  0.1709 -0.0307
   8323SM   HNF11025   3.993   4.521   2.888  0.5430 -2.1326  1.9974
   8323SM   C2S11026   4.092   4.605   2.716  0.2897 -0.4360  0.2748
   8323SM   H2S11027   4.192   4.651   2.703  0.9160 -1.1972  1.9956
   8323SM   C3S11028   3.991   4.721   2.709 -0.2752  0.1311  0.2882
   8323SM   H3S11029   3.892   4.672   2.695 -0.0175 -0.2598 -0.2304
   8323SM    O311030   4.014   4.814   2.597 -0.0125  0.3305  0.3137
   8323SM   HO311031   4.060   4.765   2.529  1.4423  3.9345 -1.5793
   8323SM   C4S11032   3.989   4.796   2.837 -0.1852 -0.8103  0.6130
   8323SM   H4S11033   4.087   4.823   2.879  0.5877 -0.2978 -1.4240
   8323SM   C5S11034   3.877   4.828   2.910 -0.0283 -0.0623  0.3993
   8323SM   H5S11035   3.775   4.801   2.879 -0.1834  0.8227  0.1238
   8323SM   C6S11036   3.889   4.904   3.035 -0.8858 -0.2474 -0.1181
   8323SM   H6S11037   3.810   4.981   3.050  0.5797  1.1825  0.5300
   8323SM   H6T11038   3.983   4.962   3.047 -1.8199  0.6974  4.2601
   8323SM   C7S11039   3.878   4.814   3.165 -0.3104 -0.3688  1.3718
   8323SM   H7S11040   3.945   4.726   3.163 -1.2673 -1.1270 -0.8017
   8323SM   H7T11041   3.773   4.778   3.173 -1.2566  1.9472  0.3557
   8323SM   C8S11042   3.907   4.896   3.290 -0.4643  0.1318  0.9610
   8323SM   H8S11043   3.860   4.996   3.282 -1.1873 -0.2689 -0.0413
   8323SM   H8T11044   4.017   4.910   3.285 -0.6805  1.8190 -2.1006
   8323SM   C9S11045   3.866   4.820   3.411 -0.4756  0.4476 -0.0765
   8323SM   H9S11046   3.910   4.718   3.405  0.0339  0.6645 -0.1024
   8323SM   H9T11047   3.756   4.818   3.399 -0.5066  0.5851  0.1730
   8323SM  C10S11048   3.905   4.885   3.542  0.1066  0.6868 -0.1325
   8323SM  H10S11049   3.877   4.992   3.541  0.8773  1.0504  3.4852
   8323SM  H10T11050   4.012   4.860   3.557  0.3119 -0.3357 -2.7503
   8323SM  C11S11051   3.828   4.817   3.657 -0.1165  0.4190  0.4003
   8323SM  H11S11052   3.855   4.710   3.643  1.8427  0.9396 -0.0852
   8323SM  H11T11053   3.719   4.831   3.640  0.0474  2.0617  0.5446
   8323SM  C12S11054   3.851   4.857   3.801 -0.1034 -0.2087 -0.3507
   8323SM  H12S11055   3.960   4.851   3.823 -0.3694  0.8864  1.4769
   8323SM  H12T11056   3.806   4.789   3.877 -1.0994 -2.5511 -2.8773
   8323SM  C13S11057   3.818   5.008   3.837 -0.0700  0.3607  0.1237
   8323SM  H13S11058   3.712   5.017   3.804 -0.3941 -1.8838  0.4030
   8323SM  H13T11059   3.875   5.084   3.779  0.4755  0.1385  0.3627
   8323SM  C14S11060   3.825   5.032   3.986  0.4434  0.4493 -0.1611
   8323SM  H14S11061   3.797   4.945   4.049 -0.0730  0.8838  0.2197
   8323SM  H14T11062   3.744   5.105   4.005  0.7916  1.1874 -1.4139
   8323SM  C15S11063   3.956   5.103   4.026  0.0046  0.3743  0.6236
   8323SM  H15S11064   3.973   5.184   3.952  1.0013 -0.5795 -0.2326
   8323SM  H15T11065   4.043   5.035   4.017  0.8212  1.3341  1.1500
   8323SM  C16S11066   3.955   5.151   4.178 -0.2208 -0.3629 -0.4886
   8323SM  H16S11067   3.941   5.057   4.235 -1.1687 -0.3786 -0.7251
   8323SM  H16T11068   3.870   5.221   4.191  1.0671  1.2222 -0.2790
   8323SM  C17S11069   4.089   5.214   4.221  0.7152  0.4879  0.2264
   8323SM  H17S11070   4.100   5.303   4.155 -0.9120 -0.6506 -1.6734
   8323SM  H17T11071   4.168   5.138   4.201 -1.9438 -2.0881 -1.2439
   8323SM  C18S11072   4.104   5.251   4.367  0.0576 -0.0808 -0.0648
   8323SM  H18S11073   4.212   5.264   4.388  0.1817 -0.6998 -0.2866
   8323SM  H18T11074   4.057   5.175   4.433  1.3269 -0.7826  0.0733
   8323SM  H18U11075   4.057   5.350   4.381  0.6390 -0.0023  1.5188
   8323SM   C1F11076   4.171   4.432   2.877  0.6291 -0.4757  0.0810
   8323SM    OF11077   4.275   4.422   2.810  0.0346 -0.2785 -0.3056
   8323SM   C2F11078   4.145   4.355   3.000  1.2337  0.1044  0.1740
   8323SM   H2F11079   4.104   4.255   2.975  2.3932 -0.8316  1.8008
   8323SM   H2G11080   4.058   4.401   3.051  1.0979  0.7036 -0.5789
   8323SM   C3F11081   4.261   4.373   3.101 -0.4027  0.8156  0.6387
   8323SM   H3F11082   4.258   4.476   3.142  2.0789  0.7562  1.1634
   8323SM   H3G11083   4.358   4.356   3.048 -0.1453  0.5842  1.1719
   8323SM   C4F11084   4.244   4.271   3.210 -0.8576  0.8646 -0.2561
   8323SM   H4F11085   4.341   4.266   3.263  0.7938  0.7582 -3.0932
   8323SM   H4G11086   4.237   4.170   3.165  0.0757 -0.1815  1.7855
   8323SM   C5F11087   4.138   4.282   3.322  0.1003  0.6104 -0.2029
   8323SM   H5F11088   4.039   4.273   3.271  0.4618  0.9903 -0.9954
   8323SM   H5G11089   4.153   4.375   3.381 -1.1610 -0.1030  1.3030
   8323SM   C6F11090   4.160   4.178   3.434  0.1159  0.1035 -0.0483
   8323SM   H6F11091   4.267   4.184   3.465  0.6124  0.8051 -1.7692
   8323SM   H6G11092   4.143   4.076   3.393 -0.0455  0.3384 -0.5837
   8323SM   C7F11093   4.061   4.193   3.557 -0.3288 -0.0948 -0.0640
   8323SM   H7F11094   3.953   4.205   3.534 -0.6343 -0.5761  1.0432
   8323SM   H7G11095   4.086   4.280   3.621  0.0218 -0.3193  0.1084
   8323SM   C8F11096   4.084   4.066   3.645  0.2328 -0.0418 -0.2571
   8323SM   H8F11097   4.189   4.032   3.632 -0.1675 -1.6139  0.3470
   8323SM   H8G11098   4.014   3.995   3.598 -1.0569  0.9642  0.1002
   8323SM   C9F11099   4.051   4.094   3.794 -0.4474 -0.8167  0.9502
   8323SM   H9F11100   3.948   4.129   3.814 -0.0169  0.2450  1.3600
   8323SM   H9G11101   4.127   4.161   3.841  0.1551 -1.5709  1.0859
   8323SM  C10F11102   4.079   3.967   3.861 -0.3579 -0.5734  0.1273
   8323SM  H10F11103   4.169   3.913   3.826 -1.1959 -1.7115 -0.3464
   8323SM  H10G11104   3.995   3.896   3.846 -0.5954 -0.0849 -0.9986
   8323SM  C11F11105   4.095   3.975   4.015  0.1253 -0.5458 -0.0285
   8323SM  H11F11106   4.007   4.027   4.058  1.1951  2.5082 -1.2481
   8323SM  H11G11107   4.182   4.042   4.024 -0.2637 -0.3025  2.3983
   8323SM  C12F11108   4.124   3.844   4.081  0.2613 -0.4116 -0.1914
   8323SM  H12F11109   4.126   3.849   4.192  0.7005 -0.7297 -0.1817
   8323SM  H12G11110   4.224   3.813   4.044  0.5997 -1.2699  1.3628
   8323SM  C13F11111   4.013   3.731   4.060 -0.1409 -0.2333  0.1786
   8323SM  H13F11112   3.997   3.733   3.950  2.4117  1.3554 -0.2561
   8323SM  H13G11113   3.922   3.766   4.113 -1.4667 -0.8917 -1.5956
   8323SM  C14F11114   4.052   3.596   4.105  0.7914  0.3317  0.3636
   8323SM  H14F11115   4.037   3.590   4.215 -1.2205  1.9566  0.2449
   8323SM  H14G11116   4.162   3.588   4.098  0.5889 -1.5614 -1.8619
   8323SM  C15F11117   3.975   3.477   4.055  0.3779 -0.2496  1.1366
   8323SM  H15F11118   4.027   3.389   4.097 -0.2564 -1.3572 -0.3182
   8323SM  H15G11119   3.995   3.478   3.946 -0.7666  0.5660  0.9145
   8323SM  C16F11120   3.827   3.476   4.109  0.0023 -0.3269 -0.1066
   8323SM  H16F11121   3.784   3.391   4.051  1.8138 -0.5144 -1.2566
   8323SM  H16G11122   3.764   3.565   4.088 -1.7937 -1.0596  1.7881
   8323SM  C17F11123   3.819   3.467   4.260 -0.3319  0.5572 -0.6721
   8323SM  H17F11124   3.810   3.571   4.298 -1.6108  0.4870 -0.7699
   8323SM  H17G11125   3.909   3.420   4.306 -0.4695  0.2538 -0.7096
   8323SM  C18F11126   3.702   3.375   4.312  0.1103 -0.8252  0.3775
   8323SM  H18F11127   3.704   3.282   4.251 -0.8746  0.4777 -1.8035
   8323SM  H18G11128   3.605   3.424   4.287 -1.4132 -3.5717  0.5096
   8323SM  C19F11129   3.716   3.348   4.464 -0.2900  0.5450  0.4398
   8323SM  H19F11130   3.708   3.450   4.509 -0.3703 -0.1293  2.0329
   8323SM  H19G11131   3.817   3.307   4.483 -1.0871 -1.9642 -0.2867
   8323SM  C20F11132   3.607   3.260   4.519 -0.0332  0.6379  0.2627
   8323SM  H20F11133   3.608   3.158   4.474 -2.1230  0.6804  0.0011
   8323SM  H20G11134   3.521   3.318   4.478  0.6445  0.6289 -1.2391
   8323SM  C21F11135   3.615   3.260   4.669  0.9095 -0.3660 -0.0735
   8323SM  H21F11136   3.615   3.365   4.705  1.4911 -0.9389  1.6768
   8323SM  H21G11137   3.705   3.209   4.710  1.7572  0.3183 -1.0179
   8323SM  C22F11138   3.480   3.206   4.731 -0.0993  0.6593  1.2051
   8323SM  H22F11139   3.493   3.097   4.717  1.9151  0.7373  2.0691
   8323SM  H22G11140   3.394   3.238   4.668 -0.5185 -1.2540  0.7483
   8323SM  C23F11141   3.456   3.247   4.882 -0.0940  0.4079  0.5332
   8323SM  H23F11142   3.454   3.357   4.898 -0.4411  0.4860  0.0026
   8323SM  H23G11143   3.535   3.203   4.946 -0.2502  0.3533  0.6893
   8323SM  H23H11144   3.364   3.194   4.914 -0.3623 -0.0553 -0.9212
   8423SM     N11145   3.481   2.240   2.155  0.4042  0.4689 -0.2158
   8423SM   C1511146   3.592   2.305   2.080 -0.3688  0.1870 -0.6809
   8423SM  H15A11147   3.685   2.250   2.084  0.4457  1.5090 -0.6227
   8423SM  H15B11148   3.616   2.401   2.122  0.3895 -0.9563  1.6465
   8423SM  H15C11149   3.570   2.311   1.974  1.5487  0.4515 -1.0922
   8423SM   C1411150   3.371   2.346   2.157  0.4717  0.0045  0.2277
   8423SM  H14A11151   3.404   2.430   2.216  0.1656 -1.5096  2.7472
   8423SM  H14B11152   3.284   2.306   2.207  0.3617  0.8674  0.7446
   8423SM  H14C11153   3.347   2.366   2.054  0.9714  0.4606  0.2037
   8423SM   C1311154   3.430   2.122   2.087 -0.0352  0.0349  0.1895
   8423SM  H13A11155   3.363   2.072   2.155  1.2204 -0.2348  1.2712
   8423SM  H13B11156   3.510   2.053   2.062  1.1044  1.7952 -1.2271
   8423SM  H13C11157   3.380   2.145   1.995 -0.2440  1.1813  0.5850
   8423SM   C1211158   3.515   2.206   2.301 -0.2727 -0.4766 -0.1890
   8423SM  H12A11159   3.583   2.122   2.303  0.2820 -0.0150  0.9714
   8423SM  H12B11160   3.425   2.168   2.346 -0.6159 -0.5919 -0.9661
   8423SM   C1111161   3.574   2.310   2.391 -0.8602  0.1442 -0.0633
   8423SM  H11A11162   3.589   2.252   2.485 -3.6710 -0.8171 -0.1369
   8423SM  H11B11163   3.504   2.395   2.404  0.6274  1.2448  1.2513
   8423SM     P11164   3.763   2.498   2.395  0.0104  0.2374  0.1044
   8423SM   O1311165   3.906   2.512   2.354  0.4687 -0.0984 -0.2502
   8423SM   O1411166   3.671   2.606   2.361 -0.5318 -0.5981 -0.6997
   8423SM   O1111167   3.759   2.490   2.551  0.3639  0.7578  0.1980
   8423SM   O1211168   3.707   2.352   2.346  0.5281  0.0171  0.0413
   8423SM   C1S11169   3.855   2.418   2.631 -0.3095 -0.0290 -0.5466
   8423SM   H1S11170   3.958   2.457   2.612 -0.8925  0.8924 -2.0138
   8423SM   H1T11171   3.852   2.310   2.609  1.5267  0.1466 -1.9532
   8423SM    NF11172   3.917   2.382   2.864 -0.4483  0.2269  0.2581
   8423SM   HNF11173   3.910   2.283   2.878 -1.6420  0.1600 -0.6521
   8423SM   C2S11174   3.815   2.434   2.780 -0.0959 -0.2163 -0.6552
   8423SM   H2S11175   3.795   2.541   2.801  0.2038 -0.6679  2.3497
   8423SM   C3S11176   3.678   2.356   2.809  0.3987  0.3535  0.3071
   8423SM   H3S11177   3.694   2.250   2.778 -1.2071  0.4657 -1.0614
   8423SM    O311178   3.576   2.395   2.719 -0.0627 -0.0174 -0.5668
   8423SM   HO311179   3.625   2.430   2.645  1.8926 -1.0975  0.1377
   8423SM   C4S11180   3.638   2.362   2.956 -0.1684 -0.4826 -0.2503
   8423SM   H4S11181   3.627   2.468   2.985  0.6815  0.2099 -2.2701
   8423SM   C5S11182   3.629   2.268   3.043 -0.1669 -0.1608 -0.4038
   8423SM   H5S11183   3.635   2.160   3.024 -1.6637 -0.3343 -0.0060
   8423SM   C6S11184   3.600   2.295   3.189 -0.3416 -0.2990 -0.6956
   8423SM   H6S11185   3.595   2.405   3.200  4.7930  0.4771 -3.1477
   8423SM   H6T11186   3.691   2.267   3.246 -0.1292  1.0399 -0.3506
   8423SM   C7S11187   3.481   2.223   3.256  0.1835 -0.4357  0.4192
   8423SM   H7S11188   3.451   2.130   3.203 -0.9463 -0.8937  1.7838
   8423SM   H7T11189   3.399   2.297   3.247 -0.5642 -1.1433  1.2770
   8423SM   C8S11190   3.505   2.191   3.400 -0.3442 -0.6188  0.1507
   8423SM   H8S11191   3.591   2.122   3.416 -1.1835 -1.7450 -0.0715
   8423SM   H8T11192   3.412   2.147   3.443 -0.8361 -0.2198 -0.4947
   8423SM   C9S11193   3.518   2.322   3.473 -0.4284 -0.0694  0.6678
   8423SM   H9S11194   3.421   2.373   3.458 -1.1787 -2.1997 -2.7851
   8423SM   H9T11195   3.599   2.376   3.418 -0.2071 -1.2220 -0.1931
   8423SM  C10S11196   3.539   2.308   3.624  0.2472 -0.4542 -0.3555
   8423SM  H10S11197   3.625   2.239   3.642 -0.0022 -0.9366 -0.9754
   8423SM  H10T11198   3.451   2.251   3.661 -0.7273  0.1352 -1.6880
   8423SM  C11S11199   3.545   2.446   3.695  0.7493  0.2860  0.0835
   8423SM  H11S11200   3.463   2.509   3.653  0.0569 -1.0598 -0.6462
   8423SM  H11T11201   3.638   2.486   3.649  0.9696 -1.0726 -0.6976
   8423SM  C12S11202   3.542   2.449   3.848  0.0565 -0.4058  0.6096
   8423SM  H12S11203   3.625   2.384   3.884  0.7082  0.3980  0.5768
   8423SM  H12T11204   3.442   2.412   3.880 -0.7123 -2.3010 -3.3631
   8423SM  C13S11205   3.567   2.586   3.913 -0.1029 -0.2439 -0.1262
   8423SM  H13S11206   3.482   2.653   3.890 -0.3005 -0.0902  1.0041
   8423SM  H13T11207   3.664   2.626   3.875 -0.2473  1.4336  1.1568
   8423SM  C14S11208   3.577   2.576   4.070  0.0671  0.2927  0.5862
   8423SM  H14S11209   3.655   2.645   4.108  0.2134  2.2683 -2.9076
   8423SM  H14T11210   3.607   2.475   4.104  1.6955  0.1075 -1.1946
   8423SM  C15S11211   3.446   2.614   4.146 -0.4941 -0.6307 -0.3035
   8423SM  H15S11212   3.399   2.707   4.107 -0.6780  0.1715  1.6744
   8423SM  H15T11213   3.460   2.636   4.254  0.9941 -0.1527 -0.5668
   8423SM  C16S11214   3.332   2.506   4.133  0.1157  0.0823 -0.1896
   8423SM  H16S11215   3.356   2.419   4.198 -0.3265  0.8291  0.9932
   8423SM  H16T11216   3.319   2.467   4.029 -0.4739 -3.0838  0.9566
   8423SM  C17S11217   3.194   2.561   4.165  0.1451  0.3126 -0.1585
   8423SM  H17S11218   3.191   2.653   4.104  0.0289  1.2462  1.2233
   8423SM  H17T11219   3.201   2.599   4.269  2.7760  1.9238 -0.8348
   8423SM  C18S11220   3.074   2.472   4.138 -0.3210 -0.2039 -0.5890
   8423SM  H18S11221   2.985   2.500   4.198 -0.2582  0.3024 -0.7243
   8423SM  H18T11222   3.091   2.362   4.144  1.0761  0.0020 -0.5469
   8423SM  H18U11223   3.037   2.477   4.033 -1.2451  0.3076 -0.2544
   8423SM   C1F11224   4.031   2.457   2.890 -0.0891 -0.1658 -0.5711
   8423SM    OF11225   4.041   2.572   2.863  0.3001 -0.2600  0.2692
   8423SM   C2F11226   4.143   2.381   2.956  0.2256  0.6617 -0.3031
   8423SM   H2F11227   4.242   2.415   2.919 -0.0840 -0.8118 -2.7001
   8423SM   H2G11228   4.132   2.278   2.917 -2.2985  0.4447  0.7779
   8423SM   C3F11229   4.143   2.392   3.108  0.2285  0.1848  0.1047
   8423SM   H3F11230   4.142   2.499   3.139 -0.0655  0.5813 -1.2147
   8423SM   H3G11231   4.238   2.348   3.144  1.3348  1.5555 -1.0055
   8423SM   C4F11232   4.031   2.309   3.177 -0.5473 -0.0219 -0.2692
   8423SM   H4F11233   4.032   2.205   3.139  0.7016 -0.1460  0.0591
   8423SM   H4G11234   3.931   2.356   3.171  0.1698  2.0635  2.2042
   8423SM   C5F11235   4.054   2.297   3.331 -0.3333  0.1226 -0.3869
   8423SM   H5F11236   4.072   2.404   3.355  1.1567  0.0680 -1.1217
   8423SM   H5G11237   4.150   2.242   3.337  0.3509  1.3559  0.2782
   8423SM   C6F11238   3.939   2.228   3.412  0.0334 -0.1753  0.6774
   8423SM   H6F11239   3.898   2.147   3.348  0.0028 -0.3237  0.8852
   8423SM   H6G11240   3.863   2.306   3.435  0.9042  1.8422 -2.6878
   8423SM   C7F11241   3.985   2.168   3.547 -0.8379 -0.1300 -0.0739
   8423SM   H7F11242   3.995   2.258   3.611 -0.0443  0.2780 -0.7549
   8423SM   H7G11243   4.084   2.117   3.536 -0.1066  1.4668 -1.2066
   8423SM   C8F11244   3.893   2.066   3.607  0.7174  0.0276 -0.7297
   8423SM   H8F11245   3.887   1.979   3.538 -0.6625 -1.0740  0.6967
   8423SM   H8G11246   3.788   2.102   3.596  0.8612  0.0628 -2.2413
   8423SM   C9F11247   3.922   2.034   3.750 -0.2710 -0.0189 -0.6002
   8423SM   H9F11248   4.030   2.020   3.771 -0.3270  0.8645  0.3961
   8423SM   H9G11249   3.868   1.941   3.778  0.3573  0.0923  1.1228
   8423SM  C10F11250   3.878   2.148   3.850  0.1698 -0.2065  0.7806
   8423SM  H10F11251   3.767   2.152   3.841 -0.1687  1.3542  4.1131
   8423SM  H10G11252   3.926   2.246   3.826  1.6220 -0.7178  1.4974
   8423SM  C11F11253   3.906   2.110   3.994 -0.8355 -0.6291  0.0256
   8423SM  H11F11254   4.002   2.055   4.004 -0.0078  0.2938 -2.3408
   8423SM  H11G11255   3.829   2.038   4.031 -0.7612 -0.7945 -0.1391
   8423SM  C12F11256   3.883   2.232   4.088 -0.9853  0.5254  0.3944
   8423SM  H12F11257   3.789   2.282   4.055 -1.4720 -1.0818 -0.8166
   8423SM  H12G11258   3.959   2.310   4.066  0.9564 -1.2115  0.6599
   8423SM  C13F11259   3.889   2.187   4.229  0.3177 -0.5537 -0.4492
   8423SM  H13F11260   3.990   2.151   4.256  0.4634  0.9010  1.0609
   8423SM  H13G11261   3.811   2.108   4.240 -1.9472  1.6595  0.3411
   8423SM  C14F11262   3.845   2.297   4.331 -0.7508 -0.5843 -0.3148
   8423SM  H14F11263   3.743   2.334   4.308 -0.6282  0.1374  0.2671
   8423SM  H14G11264   3.915   2.378   4.300 -0.3231 -0.8553 -0.0703
   8423SM  C15F11265   3.881   2.249   4.469  0.4958  0.3446 -0.0460
   8423SM  H15F11266   3.988   2.221   4.480 -0.2348 -3.0998 -0.5169
   8423SM  H15G11267   3.823   2.157   4.495  0.9162  0.5190  1.6386
   8423SM  C16F11268   3.839   2.350   4.575 -0.2371  0.7057 -0.3389
   8423SM  H16F11269   3.730   2.373   4.569 -1.2429 -3.0377  0.7476
   8423SM  H16G11270   3.900   2.443   4.576  0.5040  0.2440  1.2125
   8423SM  C17F11271   3.834   2.301   4.721 -0.1195  0.4335  0.0874
   8423SM  H17F11272   3.759   2.219   4.719  0.8047 -0.4946  1.1964
   8423SM  H17G11273   3.788   2.384   4.778 -1.6053 -0.9177  0.9442
   8423SM  C18F11274   3.968   2.265   4.790 -0.0340  0.3853 -0.6205
   8423SM  H18F11275   4.030   2.357   4.796  0.9934 -0.3307  3.6871
   8423SM  H18G11276   4.013   2.188   4.724 -1.3877  0.8662 -2.1688
   8423SM  C19F11277   3.953   2.215   4.939 -0.7642 -0.4341  0.5846
   8423SM  H19F11278   4.055   2.200   4.980 -0.2923  0.1378 -0.3437
   8423SM  H19G11279   3.894   2.121   4.937 -4.1548  1.5183  0.8610
   8423SM  C20F11280   3.874   2.304   5.027  0.3257  0.7766  0.1836
   8423SM  H20F11281   3.764   2.291   5.017  0.0547  3.3806 -1.0852
   8423SM  H20G11282   3.885   2.408   4.990  1.0007  0.8387  0.5331
   8423SM  C21F11283   3.921   2.305   5.175  0.6586 -0.1446  0.3098
   8423SM  H21F11284   3.876   2.391   5.230  0.6948  0.1822 -0.1665
   8423SM  H21G11285   4.030   2.323   5.170  0.1989  2.8909 -1.0388
   8423SM  C22F11286   3.893   2.173   5.247  0.5707  0.2055 -0.3563
   8423SM  H22F11287   3.939   2.090   5.190 -0.0290 -1.1663  1.0741
   8423SM  H22G11288   3.782   2.168   5.254  0.3278 -1.6132 -3.6011
   8423SM  C23F11289   3.939   2.161   5.392  0.5451  0.3580  0.1996
   8423SM  H23F11290   3.900   2.070   5.444 -1.6154  1.5497  0.7725
   8423SM  H23G11291   3.901   2.247   5.451 -0.3551  0.9934 -1.2567
   8423SM  H23H11292   4.049   2.148   5.386  0.3823 -0.4021 -3.5738
   8523SM     N11293   5.171   3.630   1.635  0.5010  0.2864 -0.2727
   8523SM   C1511294   5.280   3.635   1.530  0.3056  0.1620  0.3443
   8523SM  H15A11295   5.334   3.729   1.539  0.8907 -0.2094  0.8802
   8523SM  H15B11296   5.235   3.639   1.433 -2.0200  2.6236  1.3928
   8523SM  H15C11297   5.357   3.560   1.540 -0.1521 -0.3109  0.3350
   8523SM   C1411298   5.071   3.730   1.592 -1.2469  0.4359  0.1006
   8523SM  H14A11299   5.000   3.740   1.673 -0.2595  3.1969  0.7531
   8523SM  H14B11300   5.011   3.705   1.506  0.0360 -0.1164 -0.6592
   8523SM  H14C11301   5.118   3.826   1.574  2.4344 -0.7862  2.1138
   8523SM   C1311302   5.108   3.494   1.642 -0.0787  0.5676 -0.3036
   8523SM  H13A11303   5.035   3.478   1.720  0.5314  0.1940  0.2015
   8523SM  H13B11304   5.185   3.421   1.662 -0.9564 -0.3374 -0.1937
   8523SM  H13C11305   5.076   3.464   1.544  1.6085 -2.2276 -0.0968
   8523SM   C1211306   5.231   3.657   1.771 -0.3808  0.2293 -0.4354
   8523SM  H12A11307   5.270   3.758   1.773 -1.1293  0.5116  1.0209
   8523SM  H12B11308   5.320   3.596   1.761 -0.2916  0.3804 -0.5721
   8523SM   C1111309   5.152   3.649   1.906  0.0086 -0.1388  0.1316
   8523SM  H11A11310   5.054   3.697   1.891  0.8399  0.9356 -2.3089
   8523SM  H11B11311   5.212   3.711   1.976  2.7667 -2.9165  0.4454
   8523SM     P11312   5.027   3.466   2.028 -0.2627  0.1160 -0.3653
   8523SM   O1311313   4.909   3.446   1.939  0.2979  0.5147  0.1020
   8523SM   O1411314   5.067   3.346   2.104 -0.3809 -0.2203 -0.2867
   8523SM   O1111315   5.017   3.590   2.126  0.1614 -0.3140  0.0573
   8523SM   O1211316   5.147   3.505   1.942  0.8802 -0.1503  0.2259
   8523SM   C1S11317   5.114   3.617   2.227  0.2135 -0.5987 -0.0104
   8523SM   H1S11318   5.173   3.703   2.190  0.3421 -0.4215  0.6011
   8523SM   H1T11319   5.200   3.547   2.235  1.3526  0.9645  2.7962
   8523SM    NF11320   5.162   3.655   2.473  0.0334  0.0637  0.2588
   8523SM   HNF11321   5.178   3.569   2.521 -0.9611 -0.5104 -0.3988
   8523SM   C2S11322   5.052   3.644   2.370  0.1821 -0.0726  0.6950
   8523SM   H2S11323   4.996   3.740   2.367  0.4156  0.0608  0.4799
   8523SM   C3S11324   4.950   3.531   2.400 -0.2815  0.3159 -0.4971
   8523SM   H3S11325   4.983   3.429   2.372 -1.4492 -0.0795 -0.4844
   8523SM    O311326   4.823   3.546   2.329 -0.6508 -0.0910  0.1555
   8523SM   HO311327   4.818   3.623   2.272 -1.4965  0.7948  1.3735
   8523SM   C4S11328   4.915   3.544   2.551 -0.7271  0.0316  0.2613
   8523SM   H4S11329   4.869   3.640   2.580  0.3887  1.0569 -1.2300
   8523SM   C5S11330   4.931   3.443   2.641 -0.4317  0.4372 -0.0001
   8523SM   H5S11331   4.968   3.346   2.605 -0.7915 -0.0967  1.0436
   8523SM   C6S11332   4.900   3.450   2.784 -0.2771 -0.6133 -1.0002
   8523SM   H6S11333   4.984   3.407   2.842  0.0807  0.2702 -0.8541
   8523SM   H6T11334   4.819   3.377   2.806 -0.9554  0.3328 -0.2668
   8523SM   C7S11335   4.866   3.587   2.848 -0.3892 -0.3973  0.6552
   8523SM   H7S11336   4.782   3.633   2.791 -0.3864  1.5529  2.1329
   8523SM   H7T11337   4.950   3.659   2.848 -1.3853  0.8137  1.0056
   8523SM   C8S11338   4.821   3.585   2.995 -0.3397  0.1264 -0.5372
   8523SM   H8S11339   4.724   3.532   3.009 -1.0199  1.3864 -0.3395
   8523SM   H8T11340   4.810   3.692   3.024 -1.0064  0.1255 -0.7633
   8523SM   C9S11341   4.927   3.529   3.086 -0.3771  0.3059 -0.1127
   8523SM   H9S11342   5.026   3.579   3.072  1.0539 -2.7227 -1.8709
   8523SM   H9T11343   4.948   3.429   3.042  1.7472  0.9767 -0.7550
   8523SM  C10S11344   4.891   3.513   3.235 -0.3094 -0.4913  1.0473
   8523SM  H10S11345   4.808   3.441   3.251 -0.9654  0.3359  1.4392
   8523SM  H10T11346   4.862   3.616   3.263 -1.9147 -0.1167 -1.5893
   8523SM  C11S11347   4.997   3.457   3.334 -0.2285 -0.2869 -0.1258
   8523SM  H11S11348   5.082   3.528   3.334  0.6995 -1.3704 -0.1576
   8523SM  H11T11349   5.028   3.356   3.300  2.2502  0.0278  1.0602
   8523SM  C12S11350   4.936   3.458   3.475  0.0215  0.0699  0.6334
   8523SM  H12S11351   4.845   3.395   3.489  1.0081 -1.6781 -0.3835
   8523SM  H12T11352   4.918   3.566   3.488 -0.5011  0.0474  0.1215
   8523SM  C13S11353   5.040   3.399   3.573 -0.2790 -0.5755  0.0315
   8523SM  H13S11354   5.145   3.401   3.535  0.3613  0.2086  1.7153
   8523SM  H13T11355   5.010   3.294   3.590  1.2478 -1.6250 -3.0430
   8523SM  C14S11356   5.029   3.473   3.716 -0.6282  0.5486  0.4548
   8523SM  H14S11357   4.926   3.465   3.755 -1.2762  0.8622 -1.0996
   8523SM  H14T11358   5.051   3.579   3.692 -0.3580  0.7355  1.4846
   8523SM  C15S11359   5.131   3.410   3.814 -0.2508 -0.2672 -0.5785
   8523SM  H15S11360   5.235   3.436   3.784 -0.0241 -1.4018 -0.8124
   8523SM  H15T11361   5.126   3.299   3.815  4.3337 -0.6699  0.6214
   8523SM  C16S11362   5.115   3.456   3.955 -0.2269  0.5335 -0.9484
   8523SM  H16S11363   5.014   3.443   3.999 -0.3119 -0.3130 -1.3793
   8523SM  H16T11364   5.124   3.567   3.964 -0.1479  0.3867  1.7545
   8523SM  C17S11365   5.222   3.400   4.047  0.1084 -0.1480 -0.1823
   8523SM  H17S11366   5.213   3.290   4.037  1.3214 -0.0392 -3.9848
   8523SM  H17T11367   5.218   3.428   4.154  2.9916 -2.2337  0.6113
   8523SM  C18S11368   5.366   3.448   4.014 -0.3968 -0.2958  0.1233
   8523SM  H18S11369   5.364   3.557   3.996  0.3450 -0.4272 -0.8528
   8523SM  H18T11370   5.403   3.412   3.915  0.3279 -1.5875  0.8268
   8523SM  H18U11371   5.436   3.433   4.098  0.5463  1.2670 -0.3486
   8523SM   C1F11372   5.253   3.755   2.469  0.7310 -0.1575  0.4843
   8523SM    OF11373   5.240   3.849   2.390 -0.3458 -0.4010 -0.2600
   8523SM   C2F11374   5.369   3.741   2.559  0.0522 -0.3405  0.3537
   8523SM   H2F11375   5.471   3.723   2.518  1.3128 -0.4859  3.2472
   8523SM   H2G11376   5.352   3.669   2.642  0.8572  0.5482  1.3218
   8523SM   C3F11377   5.394   3.878   2.628  0.1802 -0.4311 -0.3306
   8523SM   H3F11378   5.400   3.960   2.554 -2.7500  1.0220  0.8732
   8523SM   H3G11379   5.489   3.873   2.684  0.3147  0.2930 -0.4803
   8523SM   C4F11380   5.280   3.930   2.720 -0.0968 -0.1547 -0.0748
   8523SM   H4F11381   5.186   3.925   2.661  1.3171  2.0008 -2.7243
   8523SM   H4G11382   5.300   4.038   2.726 -0.4052 -0.1514  1.1597
   8523SM   C5F11383   5.266   3.858   2.860 -0.2194  0.2054  0.5208
   8523SM   H5F11384   5.365   3.869   2.908  0.0271  1.1948 -0.1841
   8523SM   H5G11385   5.247   3.750   2.846  0.8498 -0.0397  0.8536
   8523SM   C6F11386   5.176   3.930   2.958 -0.0230 -0.3647 -0.3053
   8523SM   H6F11387   5.075   3.912   2.916 -0.9306 -1.9759  2.3608
   8523SM   H6G11388   5.205   4.037   2.949  2.3524 -0.7419  1.6624
   8523SM   C7F11389   5.175   3.878   3.106  0.0967 -0.9319  0.6348
   8523SM   H7F11390   5.279   3.884   3.144  0.9963 -1.4521 -1.5888
   8523SM   H7G11391   5.145   3.771   3.105 -0.6717 -0.7484  1.9524
   8523SM   C8F11392   5.084   3.960   3.207 -0.2154 -0.1049  0.0792
   8523SM   H8F11393   4.979   3.967   3.171 -0.2866  1.0798  0.4774
   8523SM   H8G11394   5.130   4.061   3.202  0.1142 -0.3103 -2.6142
   8523SM   C9F11395   5.101   3.914   3.343  0.3764 -0.4217 -0.5917
   8523SM   H9F11396   5.200   3.948   3.381 -0.1124 -0.0367  0.3885
   8523SM   H9G11397   5.104   3.803   3.340 -0.5528 -0.5112  0.6876
   8523SM  C10F11398   4.982   3.956   3.439 -0.6482 -0.2955  0.6994
   8523SM  H10F11399   4.891   3.908   3.398  0.2369 -2.1600  0.8144
   8523SM  H10G11400   4.963   4.065   3.423 -0.6276 -0.1019  1.9436
   8523SM  C11F11401   5.005   3.929   3.588  0.1991  0.0807  0.1668
   8523SM  H11F11402   5.086   3.990   3.634  0.1057  0.9783 -0.8337
   8523SM  H11G11403   5.021   3.821   3.611  0.6739  0.2992  0.8896
   8523SM  C12F11404   4.882   3.975   3.678 -0.7286  0.3266 -0.9611
   8523SM  H12F11405   4.801   3.904   3.652  0.9181 -1.1034 -2.4273
   8523SM  H12G11406   4.839   4.071   3.642  1.2323  1.2618 -0.9166
   8523SM  C13F11407   4.901   3.994   3.829 -0.9415  0.0177 -0.8114
   8523SM  H13F11408   4.826   4.060   3.878  1.1352  0.7352  1.6234
   8523SM  H13G11409   4.994   4.053   3.841  0.0499 -1.4923 -0.8075
   8523SM  C14F11410   4.907   3.856   3.902 -0.2166 -0.0477  0.1385
   8523SM  H14F11411   4.970   3.789   3.839 -0.5758  0.0345 -0.3119
   8523SM  H14G11412   4.806   3.811   3.901 -1.2509  2.1714 -1.1752
   8523SM  C15F11413   4.934   3.852   4.054 -0.0339  0.0826  0.0254
   8523SM  H15F11414   5.030   3.899   4.084 -0.4008  0.4955  0.5645
   8523SM  H15G11415   4.939   3.745   4.084  1.6009 -0.0233 -0.4892
   8523SM  C16F11416   4.823   3.924   4.139 -0.2547  0.6617  0.3453
   8523SM  H16F11417   4.736   3.857   4.123  1.6258 -1.9678  0.5035
   8523SM  H16G11418   4.796   4.030   4.118  0.5977  0.8958  0.3973
   8523SM  C17F11419   4.858   3.911   4.293 -0.1812  0.0928  0.2451
   8523SM  H17F11420   4.960   3.953   4.309  1.9070 -3.4138 -2.4635
   8523SM  H17G11421   4.869   3.802   4.314  1.6432  0.5392  1.9127
   8523SM  C18F11422   4.760   3.974   4.389 -0.1121  0.2742  0.5538
   8523SM  H18F11423   4.674   3.904   4.383 -0.5140  0.5867  2.1826
   8523SM  H18G11424   4.725   4.078   4.371 -2.6669 -0.3258  1.5951
   8523SM  C19F11425   4.806   3.959   4.532 -0.7417  0.0046 -0.0001
   8523SM  H19F11426   4.879   4.038   4.559 -1.7819  0.4340  1.7329
   8523SM  H19G11427   4.862   3.864   4.547 -0.9186 -0.3369 -1.3795
   8523SM  C20F11428   4.699   3.968   4.630  0.7583  0.0274 -0.0768
   8523SM  H20F11429   4.630   3.883   4.611  0.3038  0.4456 -0.2958
   8523SM  H20G11430   4.644   4.063   4.614 -2.2801 -1.3546  1.2668
   8523SM  C21F11431   4.747   3.981   4.774  1.0743  0.6640 -0.0417
   8523SM  H21F11432   4.811   4.071   4.789  0.3441  1.2005 -0.0870
   8523SM  H21G11433   4.817   3.898   4.795 -0.8343 -0.8974  0.4211
   8523SM  C22F11434   4.633   3.992   4.882 -0.3700  0.5961  0.2311
   8523SM  H22F11435   4.675   3.991   4.985  2.4735  2.0636 -0.7940
   8523SM  H22G11436   4.576   3.898   4.869  0.9303 -0.3069  0.8337
   8523SM  C23F11437   4.526   4.102   4.870 -0.7958 -0.5764  0.0625
   8523SM  H23F11438   4.548   4.195   4.926  1.7206 -3.2532  4.0238
   8523SM  H23G11439   4.429   4.066   4.910 -0.9074  0.7482  1.0307
   8523SM  H23H11440   4.504   4.115   4.762  1.6216 -0.2024 -0.4624
   8623SM     N11441   3.893   1.527   2.382 -0.8358  0.2724  0.0682
   8623SM   C1511442   3.955   1.656   2.334  0.4838  0.1982  0.3668
   8623SM  H15A11443   3.897   1.698   2.253 -0.1793  2.6072  1.9565
   8623SM  H15B11444   4.057   1.649   2.301 -0.2161 -2.8538 -1.5590
   8623SM  H15C11445   3.947   1.729   2.413  3.4719  1.7006 -0.5536
   8623SM   C1411446   3.892   1.423   2.273  0.3502 -0.0366 -0.2116
   8623SM  H14A11447   3.839   1.473   2.194  0.2444 -0.6620 -0.5419
   8623SM  H14B11448   3.846   1.330   2.302  2.4298 -1.1321 -0.2179
   8623SM  H14C11449   3.990   1.402   2.232  0.6805 -0.8497  0.9246
   8623SM   C1311450   3.993   1.482   2.490 -0.3793 -0.9956  0.5482
   8623SM  H13A11451   4.012   1.563   2.558 -0.4011 -0.3236 -0.2321
   8623SM  H13B11452   4.088   1.450   2.449  1.3057  1.3981  2.2592
   8623SM  H13C11453   3.951   1.399   2.544 -0.6292 -1.0087  0.3345
   8623SM   C1211454   3.745   1.547   2.427  0.0470  0.1256 -0.1313
   8623SM  H12A11455   3.695   1.458   2.463 -1.2756  0.8233 -0.1663
   8623SM  H12B11456   3.693   1.571   2.335 -0.7322  0.1498  0.3004
   8623SM   C1111457   3.714   1.651   2.542 -0.5325 -0.2257  0.3141
   8623SM  H11A11458   3.788   1.614   2.616  0.9819 -1.1275 -1.5703
   8623SM  H11B11459   3.613   1.635   2.585 -1.7155  1.1738 -1.7454
   8623SM     P11460   3.604   1.860   2.449  0.0481 -0.0876  0.0173
   8623SM   O1311461   3.646   1.959   2.347 -0.1409 -0.2871  0.8117
   8623SM   O1411462   3.499   1.760   2.414 -0.7025  0.0597  0.0615
   8623SM   O1111463   3.563   1.944   2.580 -0.0591 -0.1366  0.3246
   8623SM   O1211464   3.729   1.784   2.500 -0.2955  0.6649 -0.4988
   8623SM   C1S11465   3.556   1.872   2.700 -0.4271  0.1408 -0.3089
   8623SM   H1S11466   3.662   1.854   2.727 -0.5138 -1.1945 -0.7815
   8623SM   H1T11467   3.510   1.771   2.696  2.0937 -1.1699  1.2303
   8623SM    NF11468   3.519   1.897   2.941  0.1682  0.3105 -0.5593
   8623SM   HNF11469   3.438   1.846   2.969  0.5731 -0.4326 -0.7269
   8623SM   C2S11470   3.508   1.969   2.812  0.2644 -0.4944 -0.4315
   8623SM   H2S11471   3.561   2.066   2.802 -0.4721 -0.3135 -4.2497
   8623SM   C3S11472   3.361   2.012   2.782 -0.1778  0.0873  1.4907
   8623SM   H3S11473   3.295   1.925   2.760  0.9334 -0.6591  1.0296
   8623SM    O311474   3.359   2.083   2.653 -0.8261  0.3514  0.4069
   8623SM   HO311475   3.438   2.047   2.614 -2.7586 -3.0765 -0.7933
   8623SM   C4S11476   3.306   2.091   2.889  0.2124 -0.4034  0.0346
   8623SM   H4S11477   3.370   2.177   2.913  0.6507 -1.1927  1.8657
   8623SM   C5S11478   3.189   2.060   2.951  0.5927 -0.4657  0.6197
   8623SM   H5S11479   3.132   1.976   2.908  0.8800 -1.4102  2.0039
   8623SM   C6S11480   3.124   2.133   3.062 -0.6516  0.0929  0.3339
   8623SM   H6S11481   3.034   2.190   3.032 -2.5003 -1.6091  2.2755
   8623SM   H6T11482   3.194   2.204   3.111 -0.5186 -0.6325  1.2222
   8623SM   C7S11483   3.072   2.038   3.169 -0.0442 -0.1057 -0.1108
   8623SM   H7S11484   3.158   1.973   3.199  0.4205  0.3259 -0.5041
   8623SM   H7T11485   2.993   1.978   3.119 -0.2245  0.0726 -0.0421
   8623SM   C8S11486   3.004   2.107   3.291  0.2062 -0.3652 -0.0145
   8623SM   H8S11487   2.963   2.025   3.353 -0.8634 -1.9547 -2.6273
   8623SM   H8T11488   2.925   2.179   3.261  2.7294  2.3507 -0.7385
   8623SM   C9S11489   3.103   2.205   3.367  0.5311  0.0078 -0.2007
   8623SM   H9S11490   3.093   2.306   3.321 -2.0099  0.8521  1.9329
   8623SM   H9T11491   3.208   2.170   3.369  0.9360  1.1446 -0.4919
   8623SM  C10S11492   3.063   2.219   3.513  0.1682 -0.4803 -0.4220
   8623SM  H10S11493   3.114   2.313   3.543 -1.5885  1.1890 -2.3469
   8623SM  H10T11494   3.101   2.130   3.569 -2.1119 -1.1316  0.2136
   8623SM  C11S11495   2.910   2.210   3.534  0.3168 -0.5124  0.0635
   8623SM  H11S11496   2.869   2.107   3.522 -1.3937 -0.0452  1.5066
   8623SM  H11T11497   2.859   2.266   3.453 -0.5282 -1.1591  0.1316
   8623SM  C12S11498   2.859   2.262   3.671  0.1252  0.3824 -0.1090
   8623SM  H12S11499   2.753   2.227   3.674  0.8996 -2.0794  2.4873
   8623SM  H12T11500   2.875   2.372   3.675  1.9520  0.1042  2.1489
   8623SM  C13S11501   2.919   2.187   3.799  0.9324 -0.0722 -0.1213
   8623SM  H13S11502   3.030   2.196   3.806  0.8089  1.0060  0.7190
   8623SM  H13T11503   2.880   2.084   3.787 -3.7468  1.6484 -2.4638
   8623SM  C14S11504   2.857   2.248   3.930 -0.1402  0.0354 -0.0484
   8623SM  H14S11505   2.747   2.242   3.918 -0.0601 -1.7973 -0.1263
   8623SM  H14T11506   2.876   2.356   3.944 -0.7547  0.2460 -0.7741
   8623SM  C15S11507   2.922   2.167   4.040  0.2014  0.2334  0.6255
   8623SM  H15S11508   2.892   2.195   4.144 -0.7041 -1.8751  0.9786
   8623SM  H15T11509   3.032   2.177   4.027  0.0741  0.4241 -0.3130
   8623SM  C16S11510   2.886   2.016   4.042 -0.6042  0.2247 -0.6012
   8623SM  H16S11511   2.960   1.960   3.980 -1.8502 -2.1518 -0.0533
   8623SM  H16T11512   2.788   2.003   3.991 -1.6402  2.8773  0.5132
   8623SM  C17S11513   2.887   1.948   4.180 -0.2730 -0.4143  0.1913
   8623SM  H17S11514   2.825   1.856   4.186  0.0948 -0.6176  1.1022
   8623SM  H17T11515   2.837   2.015   4.253 -1.0543 -1.7142  0.8876
   8623SM  C18S11516   3.028   1.929   4.236  0.5806 -0.0111  0.0308
   8623SM  H18S11517   3.088   2.014   4.199 -0.6302  1.1677  0.6857
   8623SM  H18T11518   3.069   1.832   4.200 -1.1199 -1.1905  1.0822
   8623SM  H18U11519   3.039   1.923   4.346  1.6380  1.2122  0.0026
   8623SM   C1F11520   3.625   1.884   3.013 -0.5072  0.8682 -0.0572
   8623SM    OF11521   3.732   1.932   2.971  0.1619 -0.4942 -0.7400
   8623SM   C2F11522   3.618   1.806   3.137  0.0888  0.5870  0.3046
   8623SM   H2F11523   3.592   1.704   3.102 -0.5728  1.8504 -3.2240
   8623SM   H2G11524   3.535   1.850   3.197  0.4382  1.6385  0.0389
   8623SM   C3F11525   3.747   1.809   3.215  0.5996  0.0708 -0.6824
   8623SM   H3F11526   3.786   1.907   3.249 -0.4638 -0.1296  1.3158
   8623SM   H3G11527   3.820   1.754   3.152  1.8004 -0.8580  1.4122
   8623SM   C4F11528   3.733   1.730   3.351  0.0651 -0.1718  0.6930
   8623SM   H4F11529   3.682   1.799   3.421 -1.7194 -0.6413 -0.0810
   8623SM   H4G11530   3.837   1.698   3.376  1.0341  1.7802 -0.5846
   8623SM   C5F11531   3.657   1.597   3.364 -0.1658  0.3218 -0.1381
   8623SM   H5F11532   3.641   1.548   3.266 -0.8552 -0.5433  0.3915
   8623SM   H5G11533   3.555   1.621   3.402 -0.4307 -1.3311  0.2680
   8623SM   C6F11534   3.720   1.498   3.464  0.4220  0.2648  0.2709
   8623SM   H6F11535   3.824   1.466   3.442  0.6863  0.6370  0.9231
   8623SM   H6G11536   3.659   1.406   3.467  1.1614 -0.2206  0.6089
   8623SM   C7F11537   3.713   1.547   3.608  0.2754 -0.1432 -0.1454
   8623SM   H7F11538   3.614   1.598   3.618  0.3892  0.5194 -2.0412
   8623SM   H7G11539   3.791   1.624   3.622  0.6552  0.0937 -2.9412
   8623SM   C8F11540   3.740   1.435   3.703  0.1403  0.8436  0.4644
   8623SM   H8F11541   3.830   1.385   3.662 -1.0655 -0.7149 -0.4115
   8623SM   H8G11542   3.661   1.357   3.692  0.4591  0.4141  1.1823
   8623SM   C9F11543   3.752   1.470   3.849 -0.3322 -0.5326  0.4605
   8623SM   H9F11544   3.775   1.578   3.859  1.2045 -0.8675  0.7834
   8623SM   H9G11545   3.843   1.424   3.892  0.1326  0.7667  0.8969
   8623SM  C10F11546   3.629   1.439   3.925 -0.4057  0.8525 -0.3711
   8623SM  H10F11547   3.623   1.328   3.924  0.3023  0.7908 -2.3143
   8623SM  H10G11548   3.535   1.486   3.890 -0.4526  0.9516 -0.1138
   8623SM  C11F11549   3.647   1.487   4.074 -0.0115  0.1951  0.3747
   8623SM  H11F11550   3.634   1.597   4.086  0.9945  0.4856 -0.9958
   8623SM  H11G11551   3.748   1.458   4.109  0.8768  1.7578 -0.7564
   8623SM  C12F11552   3.543   1.412   4.163 -0.0774 -0.4794 -0.8768
   8623SM  H12F11553   3.545   1.304   4.138  2.1426 -0.1400 -2.4866
   8623SM  H12G11554   3.437   1.442   4.147 -0.7213 -1.2699  1.4811
   8623SM  C13F11555   3.581   1.416   4.312  0.5350 -0.7116 -0.4900
   8623SM  H13F11556   3.685   1.381   4.324  0.7784  0.2680  0.3734
   8623SM  H13G11557   3.513   1.348   4.368 -0.2930  0.2178 -0.3433
   8623SM  C14F11558   3.584   1.557   4.368 -0.2011 -0.2475 -0.3912
   8623SM  H14F11559   3.479   1.593   4.372  0.7522  2.6771  1.3558
   8623SM  H14G11560   3.640   1.630   4.305  1.0936 -0.1194  0.8531
   8623SM  C15F11561   3.643   1.578   4.510  0.1997  0.0114  0.6011
   8623SM  H15F11562   3.570   1.545   4.587 -0.1315 -1.8630 -0.4473
   8623SM  H15G11563   3.659   1.686   4.528  1.5379 -0.0430 -0.1478
   8623SM  C16F11564   3.781   1.509   4.518  0.0077  0.0800 -0.1160
   8623SM  H16F11565   3.844   1.539   4.432  0.5570  0.0022  0.2545
   8623SM  H16G11566   3.770   1.398   4.513  2.4882 -0.2430  0.1886
   8623SM  C17F11567   3.849   1.553   4.655  0.6430  0.1102  0.5180
   8623SM  H17F11568   3.784   1.516   4.737  2.0727 -2.5407  0.5305
   8623SM  H17G11569   3.837   1.664   4.665  0.8582  0.1842 -0.0433
   8623SM  C18F11570   4.001   1.539   4.673 -0.3588 -0.1496  0.1231
   8623SM  H18F11571   4.030   1.583   4.771 -2.0301 -0.5505  0.8384
   8623SM  H18G11572   4.044   1.602   4.592 -0.3152 -2.0951 -1.4357
   8623SM  C19F11573   4.054   1.396   4.645  0.2350 -0.4004  0.3781
   8623SM  H19F11574   4.162   1.383   4.666 -0.0581 -0.4997  1.9630
   8623SM  H19G11575   4.038   1.379   4.536 -2.1177 -1.3531  0.8101
   8623SM  C20F11576   3.994   1.289   4.734 -0.2225 -0.4130 -0.0117
   8623SM  H20F11577   4.046   1.195   4.706 -0.3000  0.0465 -1.8696
   8623SM  H20G11578   3.884   1.288   4.714  0.0133  0.8292 -1.5660
   8623SM  C21F11579   4.024   1.322   4.886 -0.3260  0.9750 -0.4706
   8623SM  H21F11580   3.967   1.244   4.940 -0.6613  2.4824  1.4400
   8623SM  H21G11581   3.987   1.417   4.930 -0.3004  0.0225  1.6810
   8623SM  C22F11582   4.171   1.301   4.928  0.3028 -0.3091 -0.6031
   8623SM  H22F11583   4.232   1.389   4.898 -1.2758  1.0385 -0.0492
   8623SM  H22G11584   4.206   1.203   4.889 -2.5452 -0.9116 -1.8879
   8623SM  C23F11585   4.183   1.297   5.075  0.4863 -0.2436  0.3915
   8623SM  H23F11586   4.280   1.247   5.096  1.0946  0.2152 -1.1936
   8623SM  H23G11587   4.103   1.233   5.119  0.9116  0.6156  2.5539
   8623SM  H23H11588   4.178   1.390   5.135  1.0782 -0.7982  1.3349
   8723SM     N11589   5.230   2.492   1.962  0.3036  0.2363 -0.1652
   8723SM   C1511590   5.373   2.498   1.949  0.4889  0.3125  0.6288
   8723SM  H15A11591   5.406   2.596   1.981  0.9685  0.0447  0.9426
   8723SM  H15B11592   5.399   2.480   1.845  0.0979  1.5793  0.2915
   8723SM  H15C11593   5.423   2.428   2.014 -0.2840 -0.1479  0.7410
   8723SM   C1411594   5.174   2.576   1.851  0.6604 -0.5314 -0.8821
   8723SM  H14A11595   5.199   2.538   1.753 -0.3254  1.7228 -2.0881
   8723SM  H14B11596   5.216   2.675   1.855  0.7457 -0.5540 -1.1972
   8723SM  H14C11597   5.069   2.593   1.870  1.3210  1.6195  1.3528
   8723SM   C1311598   5.190   2.350   1.930  0.0397 -0.1033 -0.0314
   8723SM  H13A11599   5.223   2.292   2.014 -0.1614  0.7935  0.6873
   8723SM  H13B11600   5.235   2.324   1.835  1.7402 -0.1756  0.7694
   8723SM  H13C11601   5.082   2.345   1.918  0.1891 -0.7040 -1.2445
   8723SM   C1211602   5.181   2.527   2.100  0.2644 -0.0224  0.4097
   8723SM  H12A11603   5.074   2.516   2.092  0.3801 -0.3184 -1.1124
   8723SM  H12B11604   5.196   2.629   2.130  1.1185 -0.5575  1.9376
   8723SM   C1111605   5.237   2.442   2.220 -0.6572  0.0308 -0.3538
   8723SM  H11A11606   5.216   2.499   2.313 -0.7279 -1.1194  0.3581
   8723SM  H11B11607   5.347   2.435   2.230 -0.2292  4.0866 -0.5644
   8723SM     P11608   5.029   2.296   2.264  0.0058  0.4452 -0.3486
   8723SM   O1311609   4.946   2.389   2.180 -0.4765 -0.3865 -0.3194
   8723SM   O1411610   4.984   2.154   2.258 -0.0822  0.7438 -0.2344
   8723SM   O1111611   5.033   2.346   2.413  0.3968 -0.0089  0.4495
   8723SM   O1211612   5.179   2.313   2.213  0.4485 -1.0185 -0.3346
   8723SM   C1S11613   4.911   2.370   2.483  0.1871  0.4268 -0.0050
   8723SM   H1S11614   4.830   2.312   2.433  0.7645 -0.1258 -0.3166
   8723SM   H1T11615   4.887   2.478   2.478 -1.0296  0.1367 -0.9445
   8723SM    NF11616   4.800   2.341   2.699  0.0669 -0.0248  0.4302
   8723SM   HNF11617   4.786   2.426   2.749  2.0479 -0.3611  1.6754
   8723SM   C2S11618   4.929   2.325   2.629 -0.7769 -0.3615 -0.0651
   8723SM   H2S11619   4.956   2.218   2.623  1.6803 -0.1068  3.2733
   8723SM   C3S11620   5.049   2.396   2.706  0.2916  0.3501  0.0614
   8723SM   H3S11621   5.032   2.504   2.723  1.5931  1.1363 -3.0026
   8723SM    O311622   5.171   2.388   2.633 -0.0217  0.3135 -0.1739
   8723SM   HO311623   5.146   2.373   2.541 -0.9897  0.4982  0.0494
   8723SM   C4S11624   5.071   2.313   2.835  0.2667  0.4884  0.5681
   8723SM   H4S11625   5.121   2.215   2.830  1.7505  1.0989  2.4131
   8723SM   C5S11626   5.036   2.356   2.958  0.4114 -0.6367 -0.3068
   8723SM   H5S11627   5.001   2.460   2.960  0.4706 -0.6244  0.1481
   8723SM   C6S11628   5.062   2.284   3.086  0.4718  0.5074 -0.2219
   8723SM   H6S11629   5.151   2.340   3.121 -0.0247  1.4171 -0.3825
   8723SM   H6T11630   5.092   2.177   3.084 -1.6110 -0.1753  1.4328
   8723SM   C7S11631   4.953   2.301   3.203  0.0244  0.0617 -0.0365
   8723SM   H7S11632   4.861   2.241   3.189  0.0093 -0.1138  0.7741
   8723SM   H7T11633   4.915   2.405   3.211 -0.2503 -0.1260  1.2759
   8723SM   C8S11634   5.001   2.245   3.340 -0.1499  0.0524  0.2442
   8723SM   H8S11635   5.107   2.273   3.358 -0.6033  1.1897  1.3022
   8723SM   H8T11636   5.001   2.135   3.321 -0.4027 -0.0841  0.9696
   8723SM   C9S11637   4.910   2.268   3.460  0.3913 -0.1556 -1.1331
   8723SM   H9S11638   4.813   2.225   3.427  1.2964 -2.0639 -1.4415
   8723SM   H9T11639   4.885   2.375   3.477 -2.8984 -1.1629  1.5399
   8723SM  C10S11640   4.955   2.210   3.600 -0.2831  0.4940 -0.5036
   8723SM  H10S11641   5.059   2.241   3.624 -0.2930 -0.9851  1.7291
   8723SM  H10T11642   4.958   2.100   3.587  0.6701  0.1719  2.0165
   8723SM  C11S11643   4.855   2.247   3.715 -0.1278  0.6791  0.5307
   8723SM  H11S11644   4.754   2.203   3.704 -0.1877  0.9113  0.1391
   8723SM  H11T11645   4.843   2.357   3.718 -1.5862  0.5365  0.3549
   8723SM  C12S11646   4.895   2.201   3.852  0.4043  0.3784 -0.0879
   8723SM  H12S11647   4.993   2.251   3.862  0.1251  0.8255  0.4749
   8723SM  H12T11648   4.903   2.091   3.846  1.1107  0.4438 -0.5116
   8723SM  C13S11649   4.796   2.256   3.962 -0.1217  0.4091  0.7411
   8723SM  H13S11650   4.702   2.197   3.957  0.5371 -0.6723  0.6430
   8723SM  H13T11651   4.760   2.360   3.948 -1.6467 -0.2877 -1.0148
   8723SM  C14S11652   4.856   2.248   4.103  0.3358 -0.1601  1.0207
   8723SM  H14S11653   4.957   2.294   4.104 -0.4131  1.6105 -0.5916
   8723SM  H14T11654   4.862   2.138   4.119 -2.0717 -0.7506 -1.4478
   8723SM  C15S11655   4.773   2.318   4.203 -0.4592 -0.4364 -0.4599
   8723SM  H15S11656   4.667   2.285   4.201 -0.6093  0.0231 -0.2876
   8723SM  H15T11657   4.789   2.425   4.174 -1.4361  0.3426  1.6894
   8723SM  C16S11658   4.824   2.289   4.337 -0.1669 -0.3651  0.0897
   8723SM  H16S11659   4.925   2.334   4.344  0.1268 -0.5722 -2.2475
   8723SM  H16T11660   4.833   2.179   4.348 -1.1175 -0.3783  0.8476
   8723SM  C17S11661   4.720   2.337   4.440 -0.2861  0.2766 -0.2937
   8723SM  H17S11662   4.636   2.263   4.442 -1.4767  1.5888  0.1685
   8723SM  H17T11663   4.686   2.439   4.411  0.4845  0.8991  0.9107
   8723SM  C18S11664   4.766   2.332   4.586  0.4394  0.0269 -0.4920
   8723SM  H18S11665   4.832   2.421   4.599 -2.2721  2.0187  0.6971
   8723SM  H18T11666   4.830   2.245   4.612  1.0343  0.3026 -0.9880
   8723SM  H18U11667   4.681   2.348   4.655  1.1661  1.4459  0.1234
   8723SM   C1F11668   4.706   2.251   2.686  0.5715 -0.4400  0.0382
   8723SM    OF11669   4.711   2.167   2.598 -0.0058  0.4907 -0.5666
   8723SM   C2F11670   4.584   2.261   2.768  0.1443  0.2800 -0.2592
   8723SM   H2F11671   4.518   2.338   2.723 -1.7030 -0.9578  0.2252
   8723SM   H2G11672   4.610   2.291   2.871  2.1889 -0.6524 -0.4582
   8723SM   C3F11673   4.490   2.136   2.756 -0.5904 -0.2465  0.1400
   8723SM   H3F11674   4.555   2.047   2.769  1.1441  0.8372 -0.7050
   8723SM   H3G11675   4.447   2.129   2.653  3.0174  0.7509 -1.6119
   8723SM   C4F11676   4.376   2.130   2.860  0.4126  0.0498  0.0528
   8723SM   H4F11677   4.280   2.124   2.805 -0.0599  0.1121  0.8536
   8723SM   H4G11678   4.371   2.211   2.936  1.0942 -1.3022  1.6084
   8723SM   C5F11679   4.378   1.999   2.940 -0.7202  0.0403  0.1148
   8723SM   H5F11680   4.466   1.998   3.008  0.9733 -1.3443 -1.9732
   8723SM   H5G11681   4.373   1.915   2.868 -1.7768  0.4009 -0.2469
   8723SM   C6F11682   4.255   1.971   3.036  0.0187  0.4499 -0.4381
   8723SM   H6F11683   4.166   1.968   2.969 -2.4777  0.9801  2.6093
   8723SM   H6G11684   4.233   2.057   3.102 -1.7486 -1.5093  1.7313
   8723SM   C7F11685   4.283   1.843   3.113  0.8693  1.1756 -0.7257
   8723SM   H7F11686   4.369   1.875   3.176  1.8292  0.2210 -1.5075
   8723SM   H7G11687   4.327   1.756   3.059  1.8845  0.6211  0.9200
   8723SM   C8F11688   4.178   1.795   3.215  0.2387 -0.0706 -0.8725
   8723SM   H8F11689   4.093   1.730   3.186  0.8021 -2.6743  2.6345
   8723SM   H8G11690   4.131   1.890   3.250 -0.4558 -0.0106 -1.9042
   8723SM   C9F11691   4.234   1.723   3.345  0.2944  0.6203 -0.0187
   8723SM   H9F11692   4.326   1.777   3.380  0.8779  0.1342 -0.7824
   8723SM   H9G11693   4.265   1.619   3.323 -1.6800  0.5984 -3.2146
   8723SM  C10F11694   4.124   1.728   3.458 -0.4887 -0.8387  0.3228
   8723SM  H10F11695   4.039   1.659   3.440 -1.6894  0.2725  1.5317
   8723SM  H10G11696   4.087   1.833   3.462  3.4858  0.7656  0.2468
   8723SM  C11F11697   4.185   1.689   3.597  0.4186 -0.0852  0.0688
   8723SM  H11F11698   4.257   1.770   3.621 -1.7953  2.1993 -0.6772
   8723SM  H11G11699   4.255   1.602   3.593  0.7928  0.2510 -1.2204
   8723SM  C12F11700   4.083   1.678   3.706 -0.6197  0.3653  0.4958
   8723SM  H12F11701   4.019   1.589   3.688 -0.3434  0.4356 -0.9508
   8723SM  H12G11702   4.016   1.766   3.695  0.2569  1.3854  2.8056
   8723SM  C13F11703   4.145   1.686   3.844  0.1858  0.0609  0.2668
   8723SM  H13F11704   4.221   1.767   3.848  0.6965 -0.3809 -0.1869
   8723SM  H13G11705   4.198   1.590   3.867 -0.9298 -0.6742 -0.1591
   8723SM  C14F11706   4.056   1.719   3.961  0.4429 -0.1484 -0.2299
   8723SM  H14F11707   3.963   1.660   3.942  0.2238  0.3400 -0.6709
   8723SM  H14G11708   4.044   1.829   3.964  2.4626  0.0911 -0.0214
   8723SM  C15F11709   4.115   1.676   4.096  0.1708 -0.7694  0.0149
   8723SM  H15F11710   4.067   1.737   4.175 -0.6291 -1.0257 -0.2601
   8723SM  H15G11711   4.221   1.709   4.097 -0.2988  0.8253 -0.4938
   8723SM  C16F11712   4.109   1.527   4.134  0.2493  0.5207  0.0378
   8723SM  H16F11713   4.185   1.473   4.072 -1.6428 -2.5631  0.1844
   8723SM  H16G11714   4.011   1.485   4.104 -0.1002  1.0287  0.4535
   8723SM  C17F11715   4.139   1.487   4.277  0.0970 -0.8579 -0.7836
   8723SM  H17F11716   4.095   1.387   4.296 -3.1346  0.9442  2.5268
   8723SM  H17G11717   4.075   1.550   4.342 -1.8198 -1.7857 -1.6700
   8723SM  C18F11718   4.291   1.501   4.299 -0.2445  0.1833  0.8794
   8723SM  H18F11719   4.324   1.598   4.258  2.0541 -1.5251 -1.6267
   8723SM  H18G11720   4.335   1.421   4.235  0.4038  1.4968 -0.3652
   8723SM  C19F11721   4.342   1.477   4.447  0.9259  0.5635  0.4242
   8723SM  H19F11722   4.315   1.376   4.484  0.3032  1.0425  1.2844
   8723SM  H19G11723   4.275   1.546   4.502  0.5727  1.0752 -0.6228
   8723SM  C20F11724   4.483   1.518   4.482  0.6338  0.8423  1.2808
   8723SM  H20F11725   4.491   1.628   4.476 -0.1888  0.8293 -0.7737
   8723SM  H20G11726   4.546   1.476   4.401 -0.2463  1.6241  0.1699
   8723SM  C21F11727   4.531   1.469   4.621 -0.2430  0.4485 -0.2882
   8723SM  H21F11728   4.452   1.490   4.696  0.8539  0.3745  0.9278
   8723SM  H21G11729   4.624   1.529   4.635 -0.7005  1.2972 -0.8121
   8723SM  C22F11730   4.546   1.321   4.633 -0.9805 -0.3609 -0.1852
   8723SM  H22F11731   4.604   1.282   4.547  1.5998 -0.8239  1.6655
   8723SM  H22G11732   4.448   1.269   4.640 -0.5414 -0.9251  3.1428
   8723SM  C23F11733   4.626   1.278   4.755 -0.6575 -0.1560  0.2233
   8723SM  H23F11734   4.663   1.173   4.753 -2.1790 -0.7332 -2.0337
   8723SM  H23G11735   4.564   1.289   4.846 -0.6799 -0.6352  0.2690
   8723SM  H23H11736   4.712   1.348   4.766  0.0900 -0.9703 -0.2432
   8823SM     N11737   1.259   2.960   1.897  0.0892 -0.1824 -0.1171
   8823SM   C1511738   1.268   2.896   1.763  0.3628  0.1472 -0.2696
   8823SM  H15A11739   1.186   2.831   1.736 -0.8652  1.1468  0.9012
   8823SM  H15B11740   1.356   2.835   1.752 -0.6254 -1.2304 -1.0177
   8823SM  H15C11741   1.269   2.964   1.679  0.2117 -0.4354 -0.7524
   8823SM   C1411742   1.368   3.058   1.911 -0.0425  0.0750  0.2569
   8823SM  H14A11743   1.383   3.100   1.813  0.5706  0.8427  0.6718
   8823SM  H14B11744   1.461   3.010   1.939 -0.1233 -1.3396 -1.6685
   8823SM  H14C11745   1.347   3.136   1.983 -0.6752 -1.6915  2.0869
   8823SM   C1311746   1.132   3.041   1.899  0.2143  0.7005 -0.0237
   8823SM  H13A11747   1.130   3.114   1.820  1.3533 -0.6251 -1.3542
   8823SM  H13B11748   1.110   3.082   1.996  0.2977  1.3143 -0.2652
   8823SM  H13C11749   1.048   2.976   1.876  0.4358  0.1474  0.6884
   8823SM   C1211750   1.253   2.874   2.013 -0.1456 -0.3044  0.6130
   8823SM  H12A11751   1.319   2.792   1.990  0.2788  0.3817 -0.7144
   8823SM  H12B11752   1.154   2.833   2.028  0.1532 -1.2911 -0.0603
   8823SM   C1111753   1.300   2.933   2.150 -0.6490  0.2030  0.1993
   8823SM  H11A11754   1.259   2.866   2.228  0.1861  0.6431  1.0313
   8823SM  H11B11755   1.276   3.041   2.161 -0.1098  0.5109 -1.3535
   8823SM     P11756   1.532   2.802   2.182 -0.4807 -0.0436 -0.0542
   8823SM   O1311757   1.529   2.728   2.055  0.3775  0.0149 -0.5638
   8823SM   O1411758   1.666   2.840   2.234 -0.0180  0.2886  0.3187
   8823SM   O1111759   1.461   2.715   2.293  0.4332 -0.9483  0.1703
   8823SM   O1211760   1.446   2.929   2.157  0.1546  0.0163 -0.0611
   8823SM   C1S11761   1.433   2.780   2.419  0.2665 -0.2605  0.9838
   8823SM   H1S11762   1.403   2.886   2.415 -4.3023 -1.3563  0.3970
   8823SM   H1T11763   1.526   2.769   2.480  0.8014  1.7790  0.5834
   8823SM    NF11764   1.282   2.799   2.614  0.2950  0.2954  0.7269
   8823SM   HNF11765   1.325   2.767   2.698  1.2481  1.3529  0.6641
   8823SM   C2S11766   1.312   2.721   2.499  0.2063  0.1898 -0.4734
   8823SM   H2S11767   1.224   2.721   2.432  1.6436  1.4928 -2.4725
   8823SM   C3S11768   1.354   2.572   2.528  0.0401 -0.1850  0.4630
   8823SM   H3S11769   1.452   2.568   2.579 -0.0578 -0.3391  0.6389
   8823SM    O311770   1.372   2.495   2.412 -0.3656 -0.7674  0.2545
   8823SM   HO311771   1.375   2.547   2.331  0.1669 -0.7009  0.3100
   8823SM   C4S11772   1.248   2.505   2.614 -0.2517 -0.1883  0.7226
   8823SM   H4S11773   1.142   2.498   2.585  0.2429  0.7585 -1.5954
   8823SM   C5S11774   1.285   2.460   2.731 -0.3376 -0.3589  0.2907
   8823SM   H5S11775   1.392   2.471   2.755 -0.5452  0.8369  0.7550
   8823SM   C6S11776   1.200   2.404   2.836  0.1790  0.0123  0.3660
   8823SM   H6S11777   1.244   2.315   2.886  1.9119  0.1604 -0.8037
   8823SM   H6T11778   1.102   2.375   2.791  0.1866  1.2259 -0.4915
   8823SM   C7S11779   1.164   2.515   2.937 -0.1586 -0.2373 -0.4211
   8823SM   H7S11780   1.137   2.616   2.901 -0.5905 -0.7263 -1.4890
   8823SM   H7T11781   1.252   2.533   3.004 -0.3790  1.5954 -0.5798
   8823SM   C8S11782   1.058   2.467   3.042  0.5061  0.1772 -0.0696
   8823SM   H8S11783   1.088   2.363   3.067 -1.5848 -0.9560 -2.0147
   8823SM   H8T11784   0.956   2.465   3.000  0.5446  1.4950 -0.2929
   8823SM   C9S11785   1.048   2.567   3.156 -0.2348  0.1021  0.3197
   8823SM   H9S11786   1.010   2.665   3.119  3.0395  0.9946 -1.0301
   8823SM   H9T11787   1.151   2.591   3.188  0.9948 -4.1097  0.1587
   8823SM  C10S11788   0.952   2.528   3.269 -0.3372  0.3279 -0.3790
   8823SM  H10S11789   0.985   2.428   3.304  1.4877  1.3527  0.9986
   8823SM  H10T11790   0.850   2.529   3.226 -0.8305  1.3018  0.7757
   8823SM  C11S11791   0.981   2.630   3.378 -0.5600 -0.3970 -0.3929
   8823SM  H11S11792   0.966   2.735   3.347  0.6692 -0.8180 -2.6667
   8823SM  H11T11793   1.086   2.623   3.414  0.4254  3.9138 -1.9039
   8823SM  C12S11794   0.871   2.614   3.477  0.3005  0.3090  0.1577
   8823SM  H12S11795   0.868   2.507   3.505  0.5633 -0.0389 -1.0950
   8823SM  H12T11796   0.770   2.647   3.442  0.9817 -0.5479 -2.8741
   8823SM  C13S11797   0.896   2.692   3.607 -0.1435  0.1914  0.3205
   8823SM  H13S11798   0.883   2.803   3.600  0.8901  0.3893  1.3807
   8823SM  H13T11799   1.003   2.671   3.628  0.1491  0.9989 -0.2900
   8823SM  C14S11800   0.814   2.626   3.725  0.9146 -1.4429  0.2883
   8823SM  H14S11801   0.848   2.521   3.740  2.2497 -1.3807 -1.9216
   8823SM  H14T11802   0.704   2.625   3.709  0.9398 -0.9720  0.0843
   8823SM  C15S11803   0.829   2.721   3.848 -0.3061 -0.5380  0.4265
   8823SM  H15S11804   0.780   2.814   3.811 -1.1286 -1.5692 -1.1381
   8823SM  H15T11805   0.938   2.720   3.871 -0.2751 -1.4255  0.2741
   8823SM  C16S11806   0.760   2.675   3.977 -0.5299 -0.0447 -0.0373
   8823SM  H16S11807   0.798   2.749   4.051 -1.8725  0.2379  0.4005
   8823SM  H16T11808   0.798   2.578   4.016 -0.9545 -0.5919 -0.9522
   8823SM  C17S11809   0.606   2.665   3.970  0.4436  0.2589 -0.1863
   8823SM  H17S11810   0.572   2.616   3.877 -1.4197 -1.5985  1.3754
   8823SM  H17T11811   0.564   2.767   3.955  0.6954  0.4405  0.3088
   8823SM  C18S11812   0.525   2.612   4.089 -0.8532 -0.2906 -0.8130
   8823SM  H18S11813   0.416   2.629   4.073 -1.3437 -0.1028  2.0476
   8823SM  H18T11814   0.547   2.662   4.186 -0.1881 -2.2367  0.1001
   8823SM  H18U11815   0.540   2.502   4.102  1.0235  0.0721  0.3990
   8823SM   C1F11816   1.219   2.923   2.617 -0.4654  0.0700 -0.2696
   8823SM    OF11817   1.184   2.984   2.518  0.4362 -0.1268 -0.4848
   8823SM   C2F11818   1.213   2.982   2.753  0.7587  0.2901  0.2169
   8823SM   H2F11819   1.270   3.078   2.755  1.3289 -0.0511  0.7156
   8823SM   H2G11820   1.258   2.910   2.825 -1.1452 -0.3292  0.8669
   8823SM   C3F11821   1.065   2.996   2.788  0.1653  0.5434 -0.0239
   8823SM   H3F11822   1.001   2.907   2.768 -1.5367  2.0071 -1.5505
   8823SM   H3G11823   1.020   3.078   2.728  1.2591  2.2313  1.3619
   8823SM   C4F11824   1.043   3.034   2.939 -0.3231 -0.2225  1.0775
   8823SM   H4F11825   1.069   2.945   2.999  2.4215 -0.6196 -0.5230
   8823SM   H4G11826   0.935   3.060   2.938  0.0052  1.2341  0.1525
   8823SM   C5F11827   1.122   3.152   2.990 -0.1904 -0.0635 -0.0702
   8823SM   H5F11828   1.111   3.233   2.916  1.8999  1.7958  1.5098
   8823SM   H5G11829   1.231   3.131   2.980  0.0407  0.6147  0.9279
   8823SM   C6F11830   1.071   3.202   3.123  0.1284  0.7538 -0.5009
   8823SM   H6F11831   0.962   3.224   3.113 -0.0460 -0.5898 -1.9141
   8823SM   H6G11832   1.115   3.296   3.164 -2.3680  3.3922 -3.3141
   8823SM   C7F11833   1.090   3.098   3.241 -0.5007 -0.3292  0.2347
   8823SM   H7F11834   1.200   3.087   3.254 -0.0500  0.8799 -2.0714
   8823SM   H7G11835   1.042   3.001   3.219 -0.2325 -0.3337 -0.3345
   8823SM   C8F11836   1.026   3.148   3.372  0.2377  0.0071  0.0183
   8823SM   H8F11837   0.916   3.140   3.358  0.5556 -1.8189 -1.9267
   8823SM   H8G11838   1.060   3.253   3.383  1.9551 -0.5739  0.5705
   8823SM   C9F11839   1.072   3.076   3.496  0.2433  0.0120  0.4009
   8823SM   H9F11840   1.178   3.103   3.515  0.8002 -1.5354 -0.3168
   8823SM   H9G11841   1.062   2.966   3.478  2.0245  0.0748 -1.2750
   8823SM  C10F11842   0.987   3.105   3.619 -0.1527 -0.2511 -0.5240
   8823SM  H10F11843   0.882   3.074   3.606 -1.3774  3.3503 -0.5027
   8823SM  H10G11844   0.989   3.216   3.630  0.7651 -0.2879 -0.2146
   8823SM  C11F11845   1.040   3.051   3.751 -0.4617  0.1262  0.3697
   8823SM  H11F11846   1.144   3.089   3.764 -0.2366 -0.5337  0.5147
   8823SM  H11G11847   1.042   2.940   3.751 -1.5516  0.0924 -0.7729
   8823SM  C12F11848   0.959   3.088   3.868 -0.2260  0.1660  0.8127
   8823SM  H12F11849   0.852   3.074   3.839 -0.1675  0.3486  0.5042
   8823SM  H12G11850   0.957   3.198   3.890  1.8632  0.2442  0.7794
   8823SM  C13F11851   0.984   3.014   4.001  0.5158  0.1623 -0.8170
   8823SM  H13F11852   1.093   3.014   4.025  0.7096  1.5072 -1.6622
   8823SM  H13G11853   0.952   2.908   3.988  0.6349  0.2155 -1.5627
   8823SM  C14F11854   0.891   3.076   4.111  0.5974 -0.7962 -0.2956
   8823SM  H14F11855   0.785   3.080   4.078  0.0099 -1.3148  1.4612
   8823SM  H14G11856   0.910   3.185   4.109  0.1376 -0.7204 -0.9620
   8823SM  C15F11857   0.919   3.019   4.254  0.7045 -1.1740 -0.4782
   8823SM  H15F11858   1.029   3.008   4.262  0.7987  0.0385  0.2102
   8823SM  H15G11859   0.867   2.923   4.271  1.0487 -1.4144 -0.7876
   8823SM  C16F11860   0.859   3.116   4.355 -0.1247  0.0877 -0.0528
   8823SM  H16F11861   0.762   3.155   4.317  0.9490  2.8388 -0.2603
   8823SM  H16G11862   0.925   3.206   4.352 -0.7575  0.5961  0.8162
   8823SM  C17F11863   0.859   3.052   4.497  0.3048  0.9260 -0.0212
   8823SM  H17F11864   0.944   2.980   4.493 -0.4422  0.0544 -0.8127
   8823SM  H17G11865   0.762   3.000   4.511  1.4921 -1.2612  0.5137
   8823SM  C18F11866   0.892   3.153   4.600  0.4237  0.4079  0.2631
   8823SM  H18F11867   0.803   3.220   4.608 -0.6295 -0.7928 -0.9237
   8823SM  H18G11868   0.976   3.211   4.558 -0.8995  2.1657 -0.0866
   8823SM  C19F11869   0.929   3.094   4.740  0.3890  0.2178 -0.5037
   8823SM  H19F11870   0.929   3.173   4.819  3.9624 -1.2642  1.2040
   8823SM  H19G11871   1.034   3.059   4.739  0.4302 -0.2365  3.4142
   8823SM  C20F11872   0.812   3.005   4.792  0.2243  0.3086 -0.3649
   8823SM  H20F11873   0.799   2.916   4.727 -0.4853  1.4392 -1.8229
   8823SM  H20G11874   0.718   3.063   4.786 -1.5267 -1.7895  3.1800
   8823SM  C21F11875   0.838   2.972   4.939 -0.5830 -0.2953 -0.4741
   8823SM  H21F11876   0.856   3.069   4.990  1.9959  0.0706 -1.9207
   8823SM  H21G11877   0.931   2.912   4.944 -0.0819  0.3909 -1.3374
   8823SM  C22F11878   0.720   2.900   5.007  0.8493 -0.5696 -0.3208
   8823SM  H22F11879   0.695   2.803   4.959 -0.4548 -0.5987  0.3649
   8823SM  H22G11880   0.630   2.963   4.999  0.6684 -0.2063  3.0226
   8823SM  C23F11881   0.741   2.864   5.153  0.5507  0.3494 -0.3991
   8823SM  H23F11882   0.641   2.825   5.184  0.6087  1.9903  2.1084
   8823SM  H23G11883   0.761   2.942   5.229 -0.0943  0.1089  0.0368
   8823SM  H23H11884   0.827   2.794   5.160  0.9652  0.9577  0.9924
   8923SM     N11885   6.278   2.798   2.154  0.3900 -0.2763 -0.4439
   8923SM   C1511886   6.213   2.865   2.040  0.1166  0.4715  0.1503
   8923SM  H15A11887   6.259   2.961   2.019  1.1541 -0.4348 -2.1469
   8923SM  H15B11888   6.106   2.869   2.046  0.0124 -0.9420 -0.3303
   8923SM  H15C11889   6.233   2.796   1.959  0.1592 -1.5481  1.8051
   8923SM   C1411890   6.427   2.793   2.135  0.1414  0.7738 -0.2816
   8923SM  H14A11891   6.469   2.892   2.130 -0.4514  1.1163  0.9345
   8923SM  H14B11892   6.461   2.741   2.047  2.0287 -0.9084  1.3219
   8923SM  H14C11893   6.465   2.750   2.227 -0.2323  3.0504  1.0021
   8923SM   C1311894   6.255   2.885   2.280  0.3120  0.2355 -0.5051
   8923SM  H13A11895   6.312   2.844   2.362  0.5543  3.4961  1.1003
   8923SM  H13B11896   6.150   2.898   2.303  0.5136  1.9878 -0.4379
   8923SM  H13C11897   6.288   2.987   2.280  0.8668  0.0590 -0.8355
   8923SM   C1211898   6.211   2.662   2.171 -0.8203 -0.5113 -0.0619
   8923SM  H12A11899   6.114   2.674   2.217 -0.9176  0.4981 -0.5088
   8923SM  H12B11900   6.270   2.609   2.245  0.1157  0.4698 -0.0749
   8923SM   C1111901   6.207   2.573   2.048 -0.3693 -0.4745  0.2351
   8923SM  H11A11902   6.309   2.564   2.004 -0.7595 -1.3777 -0.5175
   8923SM  H11B11903   6.132   2.610   1.975  1.3367 -0.0296 -1.3730
   8923SM     P11904   6.267   2.332   2.121  0.1690  0.1133  0.3379
   8923SM   O1311905   6.199   2.203   2.107 -0.3823  0.3400 -0.0072
   8923SM   O1411906   6.387   2.350   2.040 -0.1210  0.2170  0.1529
   8923SM   O1111907   6.303   2.348   2.266 -0.1308  0.1857  0.3797
   8923SM   O1211908   6.163   2.447   2.097  0.1851 -0.4455 -0.3052
   8923SM   C1S11909   6.204   2.304   2.365  0.6477 -0.0743  0.7944
   8923SM   H1S11910   6.216   2.196   2.387 -0.2456 -0.2175  0.6095
   8923SM   H1T11911   6.098   2.317   2.338 -0.3058 -2.1608  3.1052
   8923SM    NF11912   6.128   2.343   2.598  0.1356  0.2807  0.5079
   8923SM   HNF11913   6.055   2.409   2.607 -0.0819  0.1717 -0.3940
   8923SM   C2S11914   6.234   2.382   2.505  0.1561  0.0627 -0.4717
   8923SM   H2S11915   6.338   2.356   2.535  1.2238  1.6705 -2.4561
   8923SM   C3S11916   6.239   2.537   2.489  1.0304  0.1592 -0.5998
   8923SM   H3S11917   6.151   2.568   2.428 -1.2651  0.1329  2.4619
   8923SM    O311918   6.355   2.587   2.431 -0.2200  0.3024  0.2817
   8923SM   HO311919   6.390   2.508   2.390 -2.7091 -0.7437 -0.0232
   8923SM   C4S11920   6.220   2.607   2.626 -0.6625 -0.3572 -0.6292
   8923SM   H4S11921   6.294   2.571   2.699 -0.4402  2.4249  0.6684
   8923SM   C5S11922   6.128   2.701   2.664  0.3317  0.2570 -0.0828
   8923SM   H5S11923   6.050   2.719   2.588 -0.0169  1.2220  0.4835
   8923SM   C6S11924   6.096   2.771   2.794 -0.4985  0.1249 -0.0137
   8923SM   H6S11925   5.987   2.789   2.781 -0.4498 -0.9205 -2.7713
   8923SM   H6T11926   6.149   2.868   2.802 -1.1429  0.2894  3.6351
   8923SM   C7S11927   6.126   2.695   2.923 -1.0074  0.5644 -0.0763
   8923SM   H7S11928   6.234   2.671   2.917 -1.3138 -2.3869  3.2729
   8923SM   H7T11929   6.066   2.603   2.910 -0.2294 -0.2477  1.7563
   8923SM   C8S11930   6.089   2.764   3.061  0.4587 -0.2023  0.4833
   8923SM   H8S11931   5.982   2.739   3.078  0.6414 -0.9341  0.5540
   8923SM   H8T11932   6.098   2.873   3.040  1.3645 -0.3341  0.1307
   8923SM   C9S11933   6.166   2.723   3.185 -0.0258  0.2989  0.0780
   8923SM   H9S11934   6.277   2.736   3.178  0.3029 -2.0621  0.1244
   8923SM   H9T11935   6.140   2.615   3.193 -1.2408  0.6158  0.6052
   8923SM  C10S11936   6.126   2.798   3.311  0.5388 -0.3788  0.1343
   8923SM  H10S11937   6.020   2.778   3.335  0.7984 -0.2877  1.4532
   8923SM  H10T11938   6.130   2.908   3.292 -0.5770 -0.3069  0.2792
   8923SM  C11S11939   6.210   2.774   3.445  0.8049  0.1452  0.1772
   8923SM  H11S11940   6.308   2.824   3.425  1.3150 -0.7743  0.3017
   8923SM  H11T11941   6.217   2.664   3.460  2.0078  0.0091 -1.0810
   8923SM  C12S11942   6.140   2.841   3.567 -0.2159 -0.4427 -0.3114
   8923SM  H12S11943   6.121   2.945   3.534 -1.3625 -0.6964 -0.4678
   8923SM  H12T11944   6.213   2.855   3.650 -0.4243  3.9800 -0.6243
   8923SM  C13S11945   6.006   2.789   3.625  0.0436  0.3963 -0.0114
   8923SM  H13S11946   5.941   2.749   3.545  0.0199 -1.8701  1.0608
   8923SM  H13T11947   5.959   2.878   3.672  0.2441 -0.3422  1.6619
   8923SM  C14S11948   6.037   2.678   3.730 -0.2363  0.1917  0.0066
   8923SM  H14S11949   6.116   2.703   3.803  0.0920  0.0337 -0.2916
   8923SM  H14T11950   6.075   2.592   3.671  2.2360  0.5594  0.9582
   8923SM  C15S11951   5.911   2.631   3.807 -0.2972 -0.3452 -0.2357
   8923SM  H15S11952   5.837   2.605   3.728 -0.0282  0.6986 -0.8524
   8923SM  H15T11953   5.872   2.721   3.860  0.0771  0.0166 -0.5702
   8923SM  C16S11954   5.927   2.512   3.903 -0.4156  0.9897 -0.7868
   8923SM  H16S11955   5.824   2.487   3.937 -1.4755  2.3653 -2.8038
   8923SM  H16T11956   5.981   2.548   3.993  1.6402  0.3508 -1.6988
   8923SM  C17S11957   6.006   2.388   3.851  0.2735 -0.1090  0.0115
   8923SM  H17S11958   6.115   2.406   3.832  0.1737  0.6628  0.1400
   8923SM  H17T11959   5.963   2.368   3.751 -0.0467  3.4234 -0.7047
   8923SM  C18S11960   5.995   2.276   3.950  0.0673  0.2189 -0.0943
   8923SM  H18S11961   5.889   2.245   3.962 -1.0644  2.4738 -2.9845
   8923SM  H18T11962   6.035   2.301   4.051  0.7185 -1.5567  0.1191
   8923SM  H18U11963   6.055   2.192   3.910  1.0695  0.6485  0.4559
   8923SM   C1F11964   6.116   2.221   2.651 -0.5556 -1.1097 -0.1420
   8923SM    OF11965   6.216   2.152   2.646  0.3006  0.1576 -0.5259
   8923SM   C2F11966   5.984   2.185   2.713 -0.6201  0.0358  0.0076
   8923SM   H2F11967   5.896   2.167   2.648 -0.4764  0.3351 -0.2738
   8923SM   H2G11968   5.964   2.273   2.778 -1.1593 -0.6116  0.7362
   8923SM   C3F11969   6.007   2.068   2.808 -0.7224 -0.3052  0.4246
   8923SM   H3F11970   6.104   2.071   2.863 -0.5877 -2.8727  0.4334
   8923SM   H3G11971   6.007   1.974   2.749 -0.3174 -0.1513  0.1765
   8923SM   C4F11972   5.894   2.046   2.911  0.4425 -0.4506  0.5489
   8923SM   H4F11973   5.908   1.939   2.938 -1.7705 -1.6814 -2.5564
   8923SM   H4G11974   5.797   2.041   2.858  0.7068  0.9217 -0.1262
   8923SM   C5F11975   5.894   2.123   3.036 -0.8123 -1.0884 -0.6959
   8923SM   H5F11976   5.869   2.230   3.024 -0.1159 -0.5338  2.0130
   8923SM   H5G11977   5.995   2.115   3.082 -0.3608  0.5220 -1.3524
   8923SM   C6F11978   5.797   2.063   3.134  0.2635 -0.3363 -0.3932
   8923SM   H6F11979   5.806   1.952   3.142 -0.2803 -0.2410  2.3623
   8923SM   H6G11980   5.698   2.070   3.084  1.1403  1.4020 -1.9776
   8923SM   C7F11981   5.792   2.125   3.276  0.2482 -0.3404  0.6052
   8923SM   H7F11982   5.720   2.066   3.337 -0.7039  1.3167  1.1335
   8923SM   H7G11983   5.760   2.231   3.271 -3.7329 -1.4349 -0.6727
   8923SM   C8F11984   5.925   2.118   3.352  0.3633  0.0574 -0.5971
   8923SM   H8F11985   5.999   2.185   3.303  0.6206 -1.2007 -2.0088
   8923SM   H8G11986   5.949   2.009   3.356 -1.2763 -0.2985  1.3661
   8923SM   C9F11987   5.912   2.163   3.500 -0.2139 -0.2017 -0.3294
   8923SM   H9F11988   5.834   2.103   3.552  0.7584 -1.3731 -0.2097
   8923SM   H9G11989   5.894   2.273   3.501  0.8447 -0.0063 -1.2711
   8923SM  C10F11990   6.050   2.145   3.574 -0.2757 -0.4592 -0.3565
   8923SM  H10F11991   6.039   2.209   3.664  1.1249 -0.6190 -0.0408
   8923SM  H10G11992   6.135   2.189   3.516 -0.1395 -0.6450 -0.3015
   8923SM  C11F11993   6.069   2.003   3.613 -0.9068 -1.3600  0.7893
   8923SM  H11F11994   5.985   1.940   3.576  0.0980 -1.2769 -1.8605
   8923SM  H11G11995   6.077   2.008   3.724  0.8333 -0.2317  0.6519
   8923SM  C12F11996   6.204   1.954   3.558  0.2388  0.2406 -0.1715
   8923SM  H12F11997   6.277   2.037   3.571  0.0257  0.2345  1.2606
   8923SM  H12G11998   6.201   1.942   3.448 -0.4584 -1.7320  0.0373
   8923SM  C13F11999   6.257   1.815   3.612 -0.0683 -0.1622  0.0304
   8923SM  H13F12000   6.180   1.739   3.584  0.5303  0.0348 -2.3292
   8923SM  H13G12001   6.265   1.814   3.723 -1.6735 -1.3102  0.1722
   8923SM  C14F12002   6.384   1.776   3.541  0.4769 -1.2481 -0.8056
   8923SM  H14F12003   6.374   1.786   3.431  0.7471  0.8800 -0.6884
   8923SM  H14G12004   6.399   1.668   3.559  1.1460 -1.2058 -1.0773
   8923SM  C15F12005   6.510   1.863   3.579  0.0085  0.7181  0.5042
   8923SM  H15F12006   6.492   1.882   3.686 -2.2816  0.2973  0.2323
   8923SM  H15G12007   6.485   1.957   3.526 -0.4952  0.4713  0.2983
   8923SM  C16F12008   6.646   1.807   3.535  0.9738  0.0865 -0.3008
   8923SM  H16F12009   6.651   1.710   3.590 -2.7293 -0.3406 -0.4829
   8923SM  H16G12010   6.728   1.862   3.586  0.2515  0.4082  0.5359
   8923SM  C17F12011   6.661   1.787   3.384  0.5471 -0.0896  0.1647
   8923SM  H17F12012   6.569   1.738   3.343  1.2820 -3.2682  1.9490
   8923SM  H17G12013   6.743   1.714   3.368 -1.2697 -2.9066  2.5445
   8923SM  C18F12014   6.690   1.917   3.307  0.5344 -0.0980  0.3859
   8923SM  H18F12015   6.789   1.958   3.336  1.5448 -1.4850 -0.9367
   8923SM  H18G12016   6.615   1.998   3.318  2.2253  1.9223 -1.9321
   8923SM  C19F12017   6.697   1.901   3.154  0.3064  0.5651 -0.2016
   8923SM  H19F12018   6.597   1.866   3.120  0.0267  1.8487 -0.7183
   8923SM  H19G12019   6.771   1.821   3.133  0.0781 -0.4636  2.4102
   8923SM  C20F12020   6.739   2.028   3.070  0.1456  0.4269 -0.3397
   8923SM  H20F12021   6.840   2.069   3.094  0.1571 -0.0482  0.4474
   8923SM  H20G12022   6.654   2.095   3.096 -0.1590  0.1101 -0.5276
   8923SM  C21F12023   6.731   2.024   2.914 -0.5780 -0.5420 -0.4472
   8923SM  H21F12024   6.770   2.123   2.882 -0.2849  0.2226  2.1155
   8923SM  H21G12025   6.623   2.013   2.889 -0.4083 -1.7347 -0.7573
   8923SM  C22F12026   6.809   1.916   2.843 -1.0681  0.4985 -0.1365
   8923SM  H22F12027   6.783   1.815   2.883  0.0427 -0.5509 -1.9196
   8923SM  H22G12028   6.917   1.929   2.867 -1.7491  0.7895  3.3739
   8923SM  C23F12029   6.811   1.921   2.696 -0.0797 -0.2473  0.3117
   8923SM  H23F12030   6.875   2.004   2.658  1.6091 -2.1016 -1.1328
   8923SM  H23G12031   6.706   1.927   2.662 -0.0773 -1.6989  0.0255
   8923SM  H23H12032   6.857   1.829   2.655 -0.9246 -0.0440 -1.1760
   9023SM     N12033   5.028   3.021   1.862 -0.2805 -0.4667  0.2069
   9023SM   C1512034   4.989   3.154   1.814 -0.2242 -0.3418  0.2789
   9023SM  H15A12035   4.980   3.162   1.706  2.9616  0.2130 -0.0192
   9023SM  H15B12036   5.053   3.234   1.848 -2.5837  1.7607  0.1136
   9023SM  H15C12037   4.892   3.171   1.860 -0.3090  2.6550 -0.7531
   9023SM   C1412038   4.940   2.908   1.811 -0.6900  0.2571 -0.3674
   9023SM  H14A12039   4.838   2.929   1.839 -0.8621 -1.3848  0.3895
   9023SM  H14B12040   4.965   2.813   1.856 -1.9077  0.4787  0.8617
   9023SM  H14C12041   4.938   2.894   1.704  0.7579 -0.1235 -0.3572
   9023SM   C1312042   5.170   2.997   1.817  0.3939 -0.0943  0.0337
   9023SM  H13A12043   5.170   2.996   1.709 -1.8865 -1.8459 -0.0311
   9023SM  H13B12044   5.207   2.902   1.850 -1.4482 -1.0211 -0.4052
   9023SM  H13C12045   5.237   3.073   1.854 -1.0931  0.0964  2.5987
   9023SM   C1212046   5.021   3.027   2.013 -0.4662 -0.5713 -0.2693
   9023SM  H12A12047   4.919   3.050   2.040 -0.6900 -0.8708 -0.8434
   9023SM  H12B12048   5.080   3.109   2.051 -1.7889  0.6628 -0.7702
   9023SM   C1112049   5.077   2.901   2.093  0.7245 -0.9616  0.4967
   9023SM  H11A12050   4.994   2.827   2.088  1.3644 -2.0364  3.4010
   9023SM  H11B12051   5.093   2.953   2.190  2.0231 -1.5379  0.6123
   9023SM     P12052   5.337   2.920   2.110  0.1176  0.2805 -0.2272
   9023SM   O1312053   5.448   2.851   2.043  0.5973 -0.7049  0.5119
   9023SM   O1412054   5.330   3.064   2.091  0.2227 -0.8767  0.0452
   9023SM   O1112055   5.328   2.885   2.260 -0.3569 -0.3814  0.8056
   9023SM   O1212056   5.204   2.846   2.048  0.1910 -0.1829  0.1208
   9023SM   C1S12057   5.309   2.750   2.315  0.5659 -0.4899 -0.4795
   9023SM   H1S12058   5.378   2.679   2.263  0.4593 -1.3571  0.5247
   9023SM   H1T12059   5.209   2.713   2.285  0.2825  1.7727 -2.6725
   9023SM    NF12060   5.349   2.603   2.507  0.2939  0.5197  0.3499
   9023SM   HNF12061   5.283   2.547   2.557  1.4335 -0.0230  1.2843
   9023SM   C2S12062   5.309   2.735   2.472  0.2580 -0.3198 -0.0613
   9023SM   H2S12063   5.387   2.808   2.502 -1.0247  2.2390 -2.4752
   9023SM   C3S12064   5.171   2.780   2.518 -0.2100 -0.0909 -0.0051
   9023SM   H3S12065   5.086   2.720   2.479 -0.2029  1.0156 -1.8401
   9023SM    O312066   5.129   2.914   2.470  0.2355  0.7916 -0.0605
   9023SM   HO312067   5.201   2.937   2.412 -1.0558  2.1346 -1.2030
   9023SM   C4S12068   5.177   2.769   2.667  0.3406 -0.1014  0.0902
   9023SM   H4S12069   5.141   2.673   2.707  0.2535 -0.2555 -0.3532
   9023SM   C5S12070   5.199   2.870   2.750  0.3822 -0.2685 -0.0985
   9023SM   H5S12071   5.213   2.967   2.701  1.4543 -0.4209 -0.1299
   9023SM   C6S12072   5.200   2.849   2.896  0.6279  0.0018 -0.5340
   9023SM   H6S12073   5.125   2.923   2.932  0.8163 -0.2338  0.3892
   9023SM   H6T12074   5.300   2.879   2.934  0.4429  2.1944 -1.6626
   9023SM   C7S12075   5.165   2.714   2.955  0.1249 -0.0249 -0.5491
   9023SM   H7S12076   5.238   2.642   2.912  1.0369 -0.7058  2.0005
   9023SM   H7T12077   5.057   2.689   2.943  0.1616 -2.7425  3.1149
   9023SM   C8S12078   5.179   2.710   3.109 -0.7983  0.2582 -0.0982
   9023SM   H8S12079   5.261   2.769   3.156 -0.4022  1.9691 -2.6862
   9023SM   H8T12080   5.199   2.604   3.133  0.5647  0.6783  0.7772
   9023SM   C9S12081   5.047   2.764   3.175 -1.1198  0.5635  0.4596
   9023SM   H9S12082   4.953   2.716   3.140  0.4719 -2.2244 -0.2923
   9023SM   H9T12083   5.036   2.868   3.137 -2.0193 -0.2520 -1.7036
   9023SM  C10S12084   5.056   2.760   3.329 -0.4370  0.4519 -0.5613
   9023SM  H10S12085   4.974   2.802   3.390 -1.6825 -0.8098 -1.3189
   9023SM  H10T12086   5.154   2.808   3.351  0.7676 -1.4108 -1.5849
   9023SM  C11S12087   5.063   2.618   3.386  0.2461 -0.5351 -0.3343
   9023SM  H11S12088   5.164   2.582   3.356  1.0555  0.8131  0.6646
   9023SM  H11T12089   5.001   2.541   3.335  0.3284  0.9623 -2.8497
   9023SM  C12S12090   5.061   2.601   3.544  0.0104 -0.1920 -0.9016
   9023SM  H12S12091   5.073   2.493   3.567 -0.6002 -0.3424 -1.2620
   9023SM  H12T12092   4.962   2.636   3.580  0.6334  0.5246  0.1214
   9023SM  C13S12093   5.172   2.682   3.615 -0.1351 -0.4733  0.0977
   9023SM  H13S12094   5.167   2.792   3.602 -1.9490 -0.7348 -1.9253
   9023SM  H13T12095   5.268   2.637   3.580  2.4670  2.2394  3.1510
   9023SM  C14S12096   5.182   2.655   3.766  0.1747  0.5428  0.6059
   9023SM  H14S12097   5.276   2.707   3.794  0.8667  1.7056 -3.2295
   9023SM  H14T12098   5.202   2.548   3.789  0.8389  0.5163 -0.0570
   9023SM  C15S12099   5.056   2.704   3.845  0.6819 -0.3785 -0.1953
   9023SM  H15S12100   4.964   2.650   3.812 -0.4307  0.4198  1.4513
   9023SM  H15T12101   5.045   2.812   3.818  0.3500 -0.5790 -0.8953
   9023SM  C16S12102   5.087   2.704   3.998  0.1008  0.7228  0.1529
   9023SM  H16S12103   5.130   2.804   4.020  1.1140  0.8211 -2.0666
   9023SM  H16T12104   5.167   2.630   4.017 -1.3071 -1.1395 -0.8503
   9023SM  C17S12105   4.971   2.678   4.095 -0.2534 -0.2748 -0.8320
   9023SM  H17S12106   4.919   2.580   4.097 -1.1902  0.1976 -1.5114
   9023SM  H17T12107   4.888   2.747   4.071  0.3853  1.7268  2.1069
   9023SM  C18S12108   5.018   2.714   4.240  0.2087 -0.0910  0.0579
   9023SM  H18S12109   5.100   2.649   4.276  0.4157 -1.5528 -2.7502
   9023SM  H18T12110   4.943   2.712   4.322  0.9341  2.7565  0.9212
   9023SM  H18U12111   5.049   2.820   4.225 -0.8516 -0.0626 -2.5433
   9023SM   C1F12112   5.472   2.556   2.489  0.6355 -0.3600  0.8584
   9023SM    OF12113   5.559   2.625   2.439 -0.0690 -0.0822  0.4326
   9023SM   C2F12114   5.501   2.418   2.549 -0.8184  0.5701  0.1872
   9023SM   H2F12115   5.584   2.378   2.486 -0.8076  1.6197 -0.4970
   9023SM   H2G12116   5.418   2.353   2.515  1.4049 -1.5242 -1.6314
   9023SM   C3F12117   5.530   2.408   2.697 -0.0162  0.2968  0.8471
   9023SM   H3F12118   5.444   2.449   2.755 -0.9507 -1.2128  0.5997
   9023SM   H3G12119   5.615   2.478   2.701 -0.0536  0.4007  0.0234
   9023SM   C4F12120   5.564   2.262   2.743  0.8440 -0.0974  0.3978
   9023SM   H4F12121   5.611   2.270   2.844  0.1021 -0.7308  0.8081
   9023SM   H4G12122   5.645   2.228   2.674  2.0208 -0.8195  2.0635
   9023SM   C5F12123   5.448   2.159   2.751 -0.1730 -0.4694 -0.0717
   9023SM   H5F12124   5.427   2.122   2.648 -0.7747 -0.8429  0.1857
   9023SM   H5G12125   5.360   2.214   2.791  0.0936  0.9057 -1.2884
   9023SM   C6F12126   5.485   2.037   2.841 -0.0941  0.2278 -0.3440
   9023SM   H6F12127   5.531   2.076   2.934 -0.3747  0.6296 -0.3691
   9023SM   H6G12128   5.551   1.966   2.788  0.6846 -0.0718  0.9699
   9023SM   C7F12129   5.362   1.949   2.878  0.6853 -0.0848 -0.2107
   9023SM   H7F12130   5.385   1.844   2.906  1.4589  0.1339  0.0115
   9023SM   H7G12131   5.291   1.952   2.793  0.1272  0.0899  0.2575
   9023SM   C8F12132   5.289   2.006   3.006  0.1872  0.2554 -0.4109
   9023SM   H8F12133   5.181   1.981   3.007  0.3726 -0.5960  0.4439
   9023SM   H8G12134   5.292   2.117   3.013 -1.2189  0.3714 -1.3105
   9023SM   C9F12135   5.341   1.937   3.135 -0.2061 -0.4048  0.0363
   9023SM   H9F12136   5.451   1.926   3.137 -0.0553  0.7585 -0.5723
   9023SM   H9G12137   5.294   1.837   3.131 -1.0241 -0.0206 -0.4081
   9023SM  C10F12138   5.289   2.010   3.261 -0.1455 -0.0415  0.4913
   9023SM  H10F12139   5.179   2.020   3.275  0.1561  1.0783  2.4614
   9023SM  H10G12140   5.319   2.116   3.269  1.1938 -0.2803 -0.9331
   9023SM  C11F12141   5.332   1.940   3.388 -0.3698  0.1683  0.0448
   9023SM  H11F12142   5.441   1.952   3.404 -0.4409 -0.7220  1.3845
   9023SM  H11G12143   5.307   1.832   3.395  1.0541 -0.1182  1.0481
   9023SM  C12F12144   5.254   1.988   3.511  0.2390 -0.2351  0.1005
   9023SM  H12F12145   5.151   2.013   3.479  0.7882  0.2106 -1.4277
   9023SM  H12G12146   5.307   2.080   3.545 -2.9788  1.3840  1.0678
   9023SM  C13F12147   5.249   1.888   3.622 -0.3402  0.1846 -0.5118
   9023SM  H13F12148   5.353   1.866   3.651 -0.8049  0.5808  1.6016
   9023SM  H13G12149   5.195   1.798   3.588  1.2054 -0.9228 -0.1129
   9023SM  C14F12150   5.181   1.955   3.747 -0.3461  0.0502  0.1420
   9023SM  H14F12151   5.071   1.962   3.733 -0.6743 -0.1443  2.2877
   9023SM  H14G12152   5.228   2.054   3.763  1.1186 -0.7353  0.9478
   9023SM  C15F12153   5.211   1.879   3.873 -0.4436 -0.0361 -0.2021
   9023SM  H15F12154   5.315   1.882   3.911  0.3020  0.0530 -2.1617
   9023SM  H15G12155   5.197   1.771   3.853 -1.7429  0.4289 -2.0850
   9023SM  C16F12156   5.115   1.917   3.989  0.0812  0.6207  0.0119
   9023SM  H16F12157   5.011   1.900   3.955  0.6857 -3.8977 -0.2649
   9023SM  H16G12158   5.132   2.025   4.006  1.5095  0.6200 -1.1884
   9023SM  C17F12159   5.143   1.832   4.116 -0.1045  0.3288 -0.2002
   9023SM  H17F12160   5.244   1.848   4.158  0.2925 -1.3453 -0.4399
   9023SM  H17G12161   5.135   1.730   4.073  0.0127  0.3198 -0.1999
   9023SM  C18F12162   5.046   1.865   4.234  0.2659 -0.1015 -0.0437
   9023SM  H18F12163   4.949   1.862   4.180  0.0657  1.4733  0.1748
   9023SM  H18G12164   5.076   1.964   4.274 -1.6333  0.9698 -1.1301
   9023SM  C19F12165   5.061   1.766   4.360  0.2557 -0.1497  0.4508
   9023SM  H19F12166   5.001   1.800   4.448  0.3818  0.1336  0.4282
   9023SM  H19G12167   5.165   1.754   4.395  0.2080  0.1894  0.7117
   9023SM  C20F12168   5.019   1.625   4.316 -0.2003  0.3726 -0.5727
   9023SM  H20F12169   5.098   1.583   4.250  1.5907  1.7529  0.6049
   9023SM  H20G12170   4.927   1.632   4.254 -0.2101  1.9207 -0.4132
   9023SM  C21F12171   5.013   1.535   4.434  0.1283 -1.0114  0.0438
   9023SM  H21F12172   4.950   1.586   4.511 -1.8595 -0.9423 -1.5619
   9023SM  H21G12173   5.111   1.524   4.484  0.6586  2.5627  0.0846
   9023SM  C22F12174   4.967   1.395   4.391  0.2462 -0.2999 -0.1698
   9023SM  H22F12175   5.056   1.346   4.345  1.0337  0.2362  0.7566
   9023SM  H22G12176   4.900   1.406   4.304 -0.4506  1.8299  0.5738
   9023SM  C23F12177   4.909   1.313   4.506  0.3984 -0.0516  0.6233
   9023SM  H23F12178   4.867   1.219   4.465 -1.0252 -0.5054  2.9420
   9023SM  H23G12179   4.818   1.355   4.553 -0.7609 -2.2265  0.4090
   9023SM  H23H12180   4.982   1.277   4.582 -0.3356 -1.5528  0.6485
   9123SM     N12181   0.153   5.243   2.101 -0.2637  0.7486  0.1788
   9123SM   C1512182   0.151   5.393   2.105 -0.0192  0.1058 -0.1582
   9123SM  H15A12183   0.050   5.429   2.102  1.3728  4.7793 -3.5982
   9123SM  H15B12184   0.196   5.443   2.021 -0.9316  1.0067 -0.1231
   9123SM  H15C12185   0.197   5.429   2.195  0.1372 -1.5667  0.4740
   9123SM   C1412186   0.083   5.193   1.982 -0.3683 -0.5138  0.7156
   9123SM  H14A12187   0.100   5.091   1.953  0.5822 -0.2964  0.4922
   9123SM  H14B12188   0.101   5.249   1.891 -1.6622 -0.6894  0.3238
   9123SM  H14C12189  -0.024   5.199   1.996 -0.4901  0.0752 -0.3086
   9123SM   C1312190   0.303   5.203   2.108 -0.7357 -0.5013 -0.3342
   9123SM  H13A12191   0.359   5.234   2.195 -1.0540 -2.6915  0.7097
   9123SM  H13B12192   0.363   5.238   2.025 -1.3561 -0.0570 -0.6000
   9123SM  H13C12193   0.316   5.097   2.094  2.0989 -0.1581 -0.7942
   9123SM   C1212194   0.083   5.187   2.224 -0.3256 -0.3807 -0.3101
   9123SM  H12A12195   0.132   5.234   2.308  0.4941  0.7526 -1.3875
   9123SM  H12B12196   0.106   5.082   2.219 -3.0456 -1.0388 -0.8437
   9123SM   C1112197  -0.059   5.207   2.243  0.2275 -0.0807 -0.4859
   9123SM  H11A12198  -0.080   5.312   2.213 -1.3614 -0.4542 -0.7818
   9123SM  H11B12199  -0.088   5.191   2.349  1.6848 -2.1302 -0.3503
   9123SM     P12200  -0.280   5.159   2.127 -0.0121 -0.0383  0.1903
   9123SM   O1312201  -0.284   5.271   2.036 -0.0191  0.6046 -0.3157
   9123SM   O1412202  -0.349   5.042   2.069 -0.1895  0.2106 -0.0638
   9123SM   O1112203  -0.327   5.196   2.271  0.1829  0.7021  0.4901
   9123SM   O1212204  -0.132   5.126   2.149 -0.4200 -0.3489  0.0459
   9123SM   C1S12205  -0.353   5.087   2.364  0.1126  0.3958  0.7030
   9123SM   H1S12206  -0.268   5.017   2.370  2.2297  2.9482  3.3101
   9123SM   H1T12207  -0.443   5.028   2.333  0.6874 -0.8289  1.3031
   9123SM    NF12208  -0.383   5.030   2.602  0.2053  0.6823  0.5723
   9123SM   HNF12209  -0.463   4.982   2.637  0.5325 -1.2707 -1.1217
   9123SM   C2S12210  -0.390   5.145   2.508 -0.3261  0.6946  0.0978
   9123SM   H2S12211  -0.304   5.213   2.526  0.1565  0.3048 -0.7107
   9123SM   C3S12212  -0.526   5.215   2.496 -0.6069  0.2007  0.0913
   9123SM   H3S12213  -0.606   5.144   2.464 -0.3896  0.6344 -1.5209
   9123SM    O312214  -0.531   5.317   2.397 -0.0835  0.1642  0.1562
   9123SM   HO312215  -0.439   5.322   2.368 -0.1795  1.3986  0.0365
   9123SM   C4S12216  -0.563   5.273   2.628  0.0769  0.5757  0.2100
   9123SM   H4S12217  -0.604   5.188   2.685 -1.9298 -0.2455 -2.2462
   9123SM   C5S12218  -0.552   5.403   2.677  0.6921 -0.1521 -0.5295
   9123SM   H5S12219  -0.538   5.487   2.607 -0.7023  0.2057 -0.4261
   9123SM   C6S12220  -0.597   5.436   2.817  0.1020  0.2222  0.7497
   9123SM   H6S12221  -0.684   5.506   2.822  0.0747  0.2924 -0.4147
   9123SM   H6T12222  -0.508   5.474   2.872  2.1950 -2.9892 -0.1888
   9123SM   C7S12223  -0.638   5.315   2.901 -0.0241  0.2601  0.1457
   9123SM   H7S12224  -0.556   5.240   2.896 -0.4755 -0.3129  1.0706
   9123SM   H7T12225  -0.731   5.269   2.861  0.6623  0.2027 -1.4661
   9123SM   C8S12226  -0.669   5.356   3.046  0.8439  0.2224 -0.3898
   9123SM   H8S12227  -0.772   5.398   3.051  1.2704  1.2848 -0.1787
   9123SM   H8T12228  -0.607   5.442   3.080  0.0485 -0.0142  1.7926
   9123SM   C9S12229  -0.672   5.240   3.144 -0.1510 -0.4649  0.1153
   9123SM   H9S12230  -0.731   5.159   3.095 -0.4980 -0.4814  0.5641
   9123SM   H9T12231  -0.727   5.270   3.235  0.9416 -0.0938  0.6621
   9123SM  C10S12232  -0.525   5.189   3.168  0.0552 -0.3588  0.2665
   9123SM  H10S12233  -0.453   5.273   3.176 -0.9365  0.6241 -0.7720
   9123SM  H10T12234  -0.488   5.132   3.080  1.2356  1.2099 -0.2932
   9123SM  C11S12235  -0.512   5.093   3.291  0.0238  0.3185  1.3038
   9123SM  H11S12236  -0.415   5.045   3.263 -0.8822 -0.4917 -0.6942
   9123SM  H11T12237  -0.600   5.025   3.292  1.0473 -1.2189 -1.3249
   9123SM  C12S12238  -0.498   5.172   3.425  0.1273  0.5427  0.2584
   9123SM  H12S12239  -0.599   5.209   3.454  1.1718  2.4314  1.6405
   9123SM  H12T12240  -0.427   5.256   3.413  0.3538  0.3829  0.4659
   9123SM  C13S12241  -0.446   5.079   3.538 -0.1565  0.2125 -0.2070
   9123SM  H13S12242  -0.339   5.057   3.518  0.0047  1.0106 -0.2514
   9123SM  H13T12243  -0.509   4.987   3.530 -1.9195  1.4220 -0.8480
   9123SM  C14S12244  -0.451   5.124   3.681 -0.1887 -0.1563 -0.6174
   9123SM  H14S12245  -0.554   5.161   3.699 -0.1065  0.7104 -1.8041
   9123SM  H14T12246  -0.387   5.215   3.679  2.2013 -1.6413  1.6589
   9123SM  C15S12247  -0.407   5.033   3.796  0.5356 -0.6668  0.4810
   9123SM  H15S12248  -0.469   4.943   3.813 -2.3198  0.7030 -1.7686
   9123SM  H15T12249  -0.428   5.080   3.894 -1.8707 -0.6031 -0.0127
   9123SM  C16S12250  -0.270   4.979   3.766  0.1212  0.4409  0.6704
   9123SM  H16S12251  -0.206   5.052   3.712 -2.9123  0.9872 -2.5912
   9123SM  H16T12252  -0.284   4.897   3.693  0.0144 -0.1477  1.3375
   9123SM  C17S12253  -0.200   4.942   3.894 -0.1330  0.5084 -0.1872
   9123SM  H17S12254  -0.199   5.015   3.978 -2.0464  0.3134  0.0489
   9123SM  H17T12255  -0.091   4.931   3.879  0.2166  0.0680  2.2569
   9123SM  C18S12256  -0.250   4.809   3.953 -0.2155 -0.6141  0.0820
   9123SM  H18S12257  -0.262   4.730   3.876 -1.4728 -3.0102  2.5661
   9123SM  H18T12258  -0.356   4.828   3.979 -0.6534  0.7363 -2.4591
   9123SM  H18U12259  -0.184   4.785   4.039  1.5894  1.3077 -0.6827
   9123SM   C1F12260  -0.268   4.976   2.636  0.0123 -0.2343 -0.1406
   9123SM    OF12261  -0.165   5.010   2.579  0.2738 -0.3557  0.5722
   9123SM   C2F12262  -0.276   4.880   2.751  0.1446  0.0409 -0.2974
   9123SM   H2F12263  -0.181   4.823   2.751  0.5542  0.5537  2.6047
   9123SM   H2G12264  -0.357   4.805   2.740 -0.4874  1.0674 -3.4993
   9123SM   C3F12265  -0.285   4.951   2.895 -0.1944  0.0925  0.0253
   9123SM   H3F12266  -0.290   4.866   2.965  1.1571 -0.6015 -0.6949
   9123SM   H3G12267  -0.382   5.006   2.897 -0.4896 -0.2576 -2.0495
   9123SM   C4F12268  -0.167   5.039   2.931  0.5464 -0.2361 -0.1670
   9123SM   H4F12269  -0.144   5.110   2.849 -0.4287 -0.9582 -1.0970
   9123SM   H4G12270  -0.068   4.993   2.950  1.0859  1.1518  0.4878
   9123SM   C5F12271  -0.186   5.113   3.069 -0.0641  0.1454  0.3278
   9123SM   H5F12272  -0.211   5.023   3.130  1.0625 -2.3707 -2.6212
   9123SM   H5G12273  -0.274   5.179   3.058 -0.4699 -0.1930  1.4022
   9123SM   C6F12274  -0.054   5.183   3.105 -0.0219 -0.3481  0.6840
   9123SM   H6F12275  -0.031   5.250   3.020  0.2741 -0.8154  0.3924
   9123SM   H6G12276   0.019   5.100   3.115 -1.6744 -2.5203 -3.1421
   9123SM   C7F12277  -0.074   5.243   3.238  0.2987  0.3334 -0.2225
   9123SM   H7F12278  -0.094   5.169   3.319  0.9342  0.5362  0.1294
   9123SM   H7G12279  -0.165   5.307   3.246  0.4750  0.4246  1.5252
   9123SM   C8F12280   0.043   5.333   3.302  0.0547  0.2364  0.7854
   9123SM   H8F12281   0.010   5.369   3.401 -0.0831  2.6564 -0.0799
   9123SM   H8G12282   0.066   5.420   3.238  1.2649  1.7529  3.1591
   9123SM   C9F12283   0.170   5.248   3.331  0.7540 -0.7825 -0.7707
   9123SM   H9F12284   0.228   5.227   3.238 -0.3955  0.2507 -1.7515
   9123SM   H9G12285   0.129   5.148   3.357 -0.2635 -0.3907 -0.8419
   9123SM  C10F12286   0.266   5.311   3.434 -0.0205  0.2480  0.9201
   9123SM  H10F12287   0.303   5.405   3.388  0.7628 -1.2590 -1.7782
   9123SM  H10G12288   0.356   5.246   3.437 -1.2475 -1.5723  0.0997
   9123SM  C11F12289   0.206   5.330   3.578  0.1063 -0.5005 -1.2441
   9123SM  H11F12290   0.121   5.402   3.582  0.3189 -0.2861  0.1488
   9123SM  H11G12291   0.280   5.376   3.647 -1.2407 -0.1774  0.0594
   9123SM  C12F12292   0.167   5.195   3.647  0.5187 -0.5269  0.2360
   9123SM  H12F12293   0.082   5.167   3.581  0.2065  0.0978  0.3633
   9123SM  H12G12294   0.124   5.212   3.748 -2.0590 -0.2140 -0.8400
   9123SM  C13F12295   0.275   5.087   3.649 -0.3461 -0.1082  0.7078
   9123SM  H13F12296   0.376   5.128   3.670  0.1261  0.1224 -1.7533
   9123SM  H13G12297   0.281   5.052   3.544 -0.0042  1.9861 -0.0065
   9123SM  C14F12298   0.255   4.974   3.755 -0.3900 -0.1173  0.2915
   9123SM  H14F12299   0.294   4.885   3.702  0.9351  0.5612  0.0829
   9123SM  H14G12300   0.146   4.957   3.767 -0.9668  0.8130 -2.7167
   9123SM  C15F12301   0.311   5.011   3.898 -0.4500 -0.2122  0.1665
   9123SM  H15F12302   0.260   5.102   3.935  0.4169  0.6550 -0.7058
   9123SM  H15G12303   0.419   5.029   3.880 -0.1706  0.3173  2.1120
   9123SM  C16F12304   0.292   4.892   3.992  0.0127 -0.1549 -0.3680
   9123SM  H16F12305   0.322   4.805   3.930  0.2828 -0.5230  0.2711
   9123SM  H16G12306   0.191   4.864   4.028  0.3143  0.4375  1.0380
   9123SM  C17F12307   0.394   4.889   4.116  0.1395 -0.4420 -0.1419
   9123SM  H17F12308   0.478   4.959   4.095 -0.3383  0.1415 -0.1469
   9123SM  H17G12309   0.443   4.790   4.128 -0.1506 -0.4468  1.0659
   9123SM  C18F12310   0.325   4.920   4.254 -0.4460  0.2891  0.1524
   9123SM  H18F12311   0.250   4.841   4.270  0.1150 -0.5142 -1.0500
   9123SM  H18G12312   0.273   5.017   4.239  1.4720  1.1696 -1.3012
   9123SM  C19F12313   0.419   4.926   4.376  0.4549 -0.5001 -0.1774
   9123SM  H19F12314   0.490   5.010   4.362 -1.6641  1.8000  1.8974
   9123SM  H19G12315   0.491   4.842   4.386 -1.5319 -2.1101  1.7105
   9123SM  C20F12316   0.339   4.939   4.498  0.5212  0.1486 -1.1392
   9123SM  H20F12317   0.249   4.875   4.507  0.9492 -0.3217  0.0888
   9123SM  H20G12318   0.295   5.041   4.494  2.2362  1.0916  1.3884
   9123SM  C21F12319   0.420   4.915   4.632  0.0104  0.7118  0.6370
   9123SM  H21F12320   0.339   4.929   4.706 -0.7318  0.0458 -0.0240
   9123SM  H21G12321   0.498   4.992   4.651 -0.8192  1.4048  1.3434
   9123SM  C22F12322   0.462   4.767   4.650  0.2511  0.7199  0.0822
   9123SM  H22F12323   0.534   4.766   4.734  0.7177  1.1805 -0.3066
   9123SM  H22G12324   0.511   4.718   4.563 -0.9573 -2.0294  0.8272
   9123SM  C23F12325   0.346   4.671   4.685  0.6221  0.4908  0.3180
   9123SM  H23F12326   0.392   4.573   4.708  1.0111  0.9921  1.7527
   9123SM  H23G12327   0.290   4.642   4.594  0.4216  0.7646  0.3496
   9123SM  H23H12328   0.281   4.708   4.768 -0.8529 -1.4177  0.0888
   9223SM     N12329   4.679   1.654   2.037  0.1247  0.1699  0.1927
   9223SM   C1512330   4.587   1.567   1.953  0.0792 -0.1273  0.1967
   9223SM  H15A12331   4.488   1.611   1.947  0.5966  1.0582  0.1192
   9223SM  H15B12332   4.581   1.469   1.999 -0.6290 -0.2320 -0.0950
   9223SM  H15C12333   4.627   1.566   1.852 -1.3475  0.4223 -0.4123
   9223SM   C1412334   4.701   1.789   1.985 -0.4366 -0.2416  0.0288
   9223SM  H14A12335   4.759   1.778   1.894  0.2116 -1.5293  0.5677
   9223SM  H14B12336   4.765   1.856   2.041  2.0550 -1.4938 -1.1349
   9223SM  H14C12337   4.610   1.842   1.963  0.4938  1.2665 -0.3493
   9223SM   C1312338   4.609   1.672   2.175 -1.0010 -0.1034  0.1092
   9223SM  H13A12339   4.579   1.572   2.204  1.5226 -1.4897 -1.7112
   9223SM  H13B12340   4.524   1.739   2.173  0.4102  1.7763 -1.3993
   9223SM  H13C12341   4.674   1.717   2.248  1.9897 -2.3654 -0.9943
   9223SM   C1212342   4.810   1.583   2.058  0.2104  0.1826 -0.2868
   9223SM  H12A12343   4.789   1.488   2.106 -1.5212  1.2421  1.1970
   9223SM  H12B12344   4.865   1.629   2.138 -0.1682 -0.9583  0.6736
   9223SM   C1112345   4.898   1.547   1.930  0.5627 -0.2542  0.4172
   9223SM  H11A12346   4.834   1.494   1.858 -0.8449  0.8780  0.7886
   9223SM  H11B12347   4.971   1.474   1.972 -0.3985 -1.4439  0.0342
   9223SM     P12348   5.106   1.651   1.825  0.4028 -0.1594  0.0145
   9223SM   O1312349   5.151   1.512   1.841 -0.4214  0.7973  0.9652
   9223SM   O1412350   5.116   1.714   1.692 -0.8956 -0.1110  0.3841
   9223SM   O1112351   5.179   1.749   1.928  0.3395 -0.2940  0.2065
   9223SM   O1212352   4.955   1.661   1.866  0.0013 -0.4734  0.4911
   9223SM   C1S12353   5.111   1.802   2.049 -0.0483 -0.1047  0.3443
   9223SM   H1S12354   5.057   1.716   2.095 -0.6418 -1.0058 -1.9316
   9223SM   H1T12355   5.027   1.871   2.028 -0.8268 -0.8851  0.8344
   9223SM    NF12356   5.138   1.918   2.268 -0.2404 -0.3715  0.5438
   9223SM   HNF12357   5.096   2.007   2.252  3.7432  1.5524 -0.4151
   9223SM   C2S12358   5.209   1.863   2.152  0.1654  0.1551 -0.0236
   9223SM   H2S12359   5.276   1.781   2.186  1.7526  0.4470 -2.2264
   9223SM   C3S12360   5.296   1.970   2.072  0.5860  0.4133 -0.0084
   9223SM   H3S12361   5.219   2.042   2.037 -0.8245 -0.5649  0.9708
   9223SM    O312362   5.366   1.921   1.961 -0.1251  0.8082 -0.1987
   9223SM   HO312363   5.314   1.843   1.939  1.0680 -0.0443 -0.0835
   9223SM   C4S12364   5.379   2.024   2.173 -0.2507  0.1671  0.1660
   9223SM   H4S12365   5.329   2.104   2.229 -2.4995 -1.0734  0.0361
   9223SM   C5S12366   5.501   1.975   2.216  0.3739 -0.5747  0.0807
   9223SM   H5S12367   5.549   1.888   2.171  1.5700 -1.1898  2.3688
   9223SM   C6S12368   5.578   2.044   2.329  0.7939  0.2055 -0.1524
   9223SM   H6S12369   5.535   2.144   2.349  0.6486 -0.1589  1.4877
   9223SM   H6T12370   5.687   2.055   2.311  0.6617  0.6558 -0.7121
   9223SM   C7S12371   5.567   1.956   2.458  0.6992 -0.9392  0.4458
   9223SM   H7S12372   5.457   1.940   2.466  0.3486  0.0918 -1.6459
   9223SM   H7T12373   5.599   2.020   2.543 -0.3083 -0.0975  0.2146
   9223SM   C8S12374   5.633   1.819   2.459 -0.7046 -1.0054  0.1593
   9223SM   H8S12375   5.738   1.828   2.424 -0.9281 -0.0589 -0.2994
   9223SM   H8T12376   5.573   1.762   2.385 -1.6594 -0.6086  0.6094
   9223SM   C9S12377   5.633   1.739   2.584 -0.1110  0.4637 -0.3373
   9223SM   H9S12378   5.630   1.635   2.547  1.2239  0.9840 -2.0045
   9223SM   H9T12379   5.541   1.766   2.640 -0.0150 -0.9057  0.5267
   9223SM  C10S12380   5.751   1.758   2.672  0.5431 -0.0404  0.4054
   9223SM  H10S12381   5.754   1.856   2.724 -1.4593  0.1431  0.2204
   9223SM  H10T12382   5.845   1.738   2.615  0.5522 -0.6193  0.6121
   9223SM  C11S12383   5.742   1.656   2.787  0.4875  0.8997  0.2467
   9223SM  H11S12384   5.845   1.654   2.828  0.5390  2.1726  0.2155
   9223SM  H11T12385   5.713   1.556   2.747 -0.4582 -0.5594  4.1043
   9223SM  C12S12386   5.668   1.696   2.909  0.1655  0.2851 -0.3424
   9223SM  H12S12387   5.559   1.703   2.890 -0.1118 -0.2672  0.9165
   9223SM  H12T12388   5.697   1.799   2.941 -1.3762  0.6415  0.0255
   9223SM  C13S12389   5.684   1.610   3.033  0.3079 -0.0560  0.6429
   9223SM  H13S12390   5.792   1.612   3.056  0.2809  0.8222  0.7212
   9223SM  H13T12391   5.670   1.502   3.011  1.1034 -0.7014  3.0334
   9223SM  C14S12392   5.593   1.654   3.152 -0.1756 -0.2895  0.1766
   9223SM  H14S12393   5.483   1.654   3.138 -0.5176 -0.2145  2.4811
   9223SM  H14T12394   5.619   1.761   3.170 -0.0495 -0.4736  1.1326
   9223SM  C15S12395   5.616   1.579   3.281  0.7586 -0.2079 -0.4899
   9223SM  H15S12396   5.721   1.588   3.319  0.0269  1.4922  1.3337
   9223SM  H15T12397   5.597   1.473   3.254 -1.4724  0.5769 -2.3394
   9223SM  C16S12398   5.524   1.630   3.398 -0.2353 -0.3063  0.0749
   9223SM  H16S12399   5.418   1.635   3.366  0.3079 -0.2813 -1.8621
   9223SM  H16T12400   5.554   1.735   3.419 -1.2360 -0.2703  1.4218
   9223SM  C17S12401   5.554   1.549   3.519  0.0855 -0.2702 -0.3362
   9223SM  H17S12402   5.567   1.442   3.491  1.2148 -0.4922  0.9310
   9223SM  H17T12403   5.474   1.564   3.594 -0.3144  0.2172 -0.8555
   9223SM  C18S12404   5.683   1.597   3.596 -0.4464 -0.3217  0.4895
   9223SM  H18S12405   5.704   1.536   3.687  0.2443 -0.6854  0.0982
   9223SM  H18T12406   5.668   1.702   3.628  2.3306  0.6588 -1.0766
   9223SM  H18U12407   5.776   1.593   3.535 -0.7509 -1.3929  0.0657
   9223SM   C1F12408   5.082   1.840   2.360  0.9077 -0.6493 -0.2228
   9223SM    OF12409   5.089   1.721   2.353  0.6201  0.1116 -0.2827
   9223SM   C2F12410   4.998   1.912   2.468 -0.4375  0.6931  0.2578
   9223SM   H2F12411   4.896   1.904   2.425 -0.4433  2.9735 -0.2760
   9223SM   H2G12412   5.024   2.020   2.465  0.8245  0.4126  0.4877
   9223SM   C3F12413   5.016   1.861   2.613  0.6547 -0.0804  0.2034
   9223SM   H3F12414   5.125   1.867   2.635  0.5374  0.2762  0.7312
   9223SM   H3G12415   4.987   1.755   2.626  1.5074 -0.1854  1.4657
   9223SM   C4F12416   4.935   1.947   2.711  0.1124 -0.1092 -0.5214
   9223SM   H4F12417   4.828   1.957   2.684 -0.0458 -2.3535 -0.9144
   9223SM   H4G12418   4.980   2.049   2.714  2.5317 -1.1410  1.0679
   9223SM   C5F12419   4.934   1.884   2.848  0.2659  0.6961 -0.3062
   9223SM   H5F12420   5.035   1.869   2.893 -0.1011 -0.3086  0.1996
   9223SM   H5G12421   4.890   1.783   2.838 -1.1298  1.3449 -1.0064
   9223SM   C6F12422   4.859   1.969   2.948  0.6250 -0.1442  0.4011
   9223SM   H6F12423   4.752   1.977   2.918  0.4394 -0.9258  0.8315
   9223SM   H6G12424   4.916   2.062   2.964  1.9570 -1.0915  1.3512
   9223SM   C7F12425   4.847   1.889   3.077 -0.2429  0.0192 -0.6839
   9223SM   H7F12426   4.947   1.889   3.126  0.7163  0.6914 -2.5630
   9223SM   H7G12427   4.828   1.785   3.045  0.5708  0.4625 -2.7868
   9223SM   C8F12428   4.739   1.948   3.170 -0.3180 -0.6944 -0.0178
   9223SM   H8F12429   4.642   1.955   3.117 -0.4707  0.3148  0.3655
   9223SM   H8G12430   4.759   2.055   3.192 -1.5940 -1.0373  3.3922
   9223SM   C9F12431   4.723   1.866   3.301 -0.2295  0.6867 -0.7719
   9223SM   H9F12432   4.722   1.755   3.290  1.3403  0.3399  1.6777
   9223SM   H9G12433   4.633   1.902   3.356 -1.2562 -1.0901 -1.2061
   9223SM  C10F12434   4.848   1.895   3.384  0.0947  0.0613  0.1689
   9223SM  H10F12435   4.842   1.999   3.423 -1.1274 -0.1647  0.6260
   9223SM  H10G12436   4.939   1.883   3.320 -0.6157 -1.2203 -0.6410
   9223SM  C11F12437   4.864   1.818   3.511  0.5400  0.4422 -0.1356
   9223SM  H11F12438   4.958   1.850   3.562 -0.0962  0.1920  1.2459
   9223SM  H11G12439   4.879   1.710   3.487  1.9757  0.2788  1.2748
   9223SM  C12F12440   4.743   1.828   3.610  0.7510 -0.5105 -0.3424
   9223SM  H12F12441   4.674   1.743   3.588 -0.0924  0.2243 -0.5980
   9223SM  H12G12442   4.697   1.928   3.600 -1.4560 -1.3191  1.1197
   9223SM  C13F12443   4.783   1.823   3.760  0.0378 -0.3179 -0.0013
   9223SM  H13F12444   4.872   1.888   3.773  1.5024 -2.6154  2.3688
   9223SM  H13G12445   4.817   1.718   3.774  3.7039  0.3645 -2.5177
   9223SM  C14F12446   4.663   1.860   3.854 -0.0605  0.0303  0.2001
   9223SM  H14F12447   4.565   1.826   3.815  0.9949 -1.1400 -1.5513
   9223SM  H14G12448   4.647   1.969   3.841 -0.3349 -0.1628 -1.2161
   9223SM  C15F12449   4.690   1.810   4.000  0.2342  0.0356 -0.1097
   9223SM  H15F12450   4.801   1.822   4.006  0.1088  2.5776 -1.4648
   9223SM  H15G12451   4.676   1.702   4.018  1.9433 -0.8505 -3.2712
   9223SM  C16F12452   4.617   1.896   4.107 -0.8912 -0.1022 -0.1355
   9223SM  H16F12453   4.508   1.884   4.090 -1.1328  1.4703  0.0930
   9223SM  H16G12454   4.644   2.003   4.091  0.2806 -0.3975 -0.2022
   9223SM  C17F12455   4.638   1.841   4.249 -0.0755 -0.0727  0.4639
   9223SM  H17F12456   4.746   1.837   4.275  0.2280  1.5384 -0.4308
   9223SM  H17G12457   4.589   1.741   4.251 -2.2903  0.8854 -1.1804
   9223SM  C18F12458   4.573   1.926   4.354 -0.0357 -0.7439 -0.8928
   9223SM  H18F12459   4.614   2.029   4.347 -0.0392 -0.8010 -1.8360
   9223SM  H18G12460   4.607   1.889   4.453  2.2177 -1.4246 -1.8508
   9223SM  C19F12461   4.421   1.927   4.340  0.3170  0.5596 -0.8028
   9223SM  H19F12462   4.384   1.825   4.317  0.5161  0.3941 -0.4160
   9223SM  H19G12463   4.387   1.998   4.263  1.0504 -0.0007 -1.6587
   9223SM  C20F12464   4.343   1.967   4.463 -0.8065  0.1092 -0.1471
   9223SM  H20F12465   4.392   2.061   4.495 -0.5265  0.9880 -2.9069
   9223SM  H20G12466   4.375   1.901   4.546 -1.8567 -0.6506 -0.3266
   9223SM  C21F12467   4.193   1.976   4.443  0.0483  0.4023  0.2862
   9223SM  H21F12468   4.169   2.034   4.352  0.8626  0.7500  0.2838
   9223SM  H21G12469   4.157   2.029   4.534 -1.3333  1.4939 -0.8396
   9223SM  C22F12470   4.116   1.844   4.435 -0.2155  0.4637 -0.0647
   9223SM  H22F12471   4.145   1.789   4.527  2.4253  0.8946 -0.5555
   9223SM  H22G12472   4.155   1.797   4.342  1.9019  0.2178  0.8882
   9223SM  C23F12473   3.965   1.856   4.422  0.0553 -0.4930  0.2370
   9223SM  H23F12474   3.944   1.887   4.318  1.2194 -1.0604 -0.1724
   9223SM  H23G12475   3.917   1.932   4.488  0.4724  0.9792 -1.1029
   9223SM  H23H12476   3.923   1.760   4.458 -1.3591  0.7257  2.0798
   9323SM     N12477   6.417   5.901   1.718  0.4388 -0.2861 -0.0885
   9323SM   C1512478   6.539   5.854   1.644  0.0711 -0.2543  0.2554
   9323SM  H15A12479   6.625   5.915   1.664  0.4278 -0.8676  0.6106
   9323SM  H15B12480   6.525   5.839   1.538  4.1310 -2.1332 -0.1762
   9323SM  H15C12481   6.561   5.756   1.683 -1.5906  0.8224  4.4645
   9323SM   C1412482   6.377   6.038   1.671 -0.9660 -0.6148 -0.0430
   9323SM  H14A12483   6.287   6.077   1.717 -0.0454 -0.2617  1.5380
   9323SM  H14B12484   6.366   6.032   1.563  1.8047 -0.2130 -0.4114
   9323SM  H14C12485   6.454   6.112   1.687 -0.7760 -1.1355  1.5068
   9323SM   C1312486   6.309   5.804   1.688 -0.0465  0.8036 -0.3767
   9323SM  H13A12487   6.331   5.704   1.722  2.5854  0.6878 -2.1419
   9323SM  H13B12488   6.275   5.790   1.587 -1.8848  1.2867  0.1366
   9323SM  H13C12489   6.225   5.835   1.749 -0.8881  0.3120 -1.2697
   9323SM   C1212490   6.441   5.923   1.869 -0.5835 -0.7612 -0.5653
   9323SM  H12A12491   6.484   6.021   1.879  0.7070 -1.2747 -0.8399
   9323SM  H12B12492   6.504   5.847   1.912 -0.1181  1.1805  2.4110
   9323SM   C1112493   6.303   5.939   1.947 -0.2670 -0.1051  0.0151
   9323SM  H11A12494   6.336   5.944   2.053  0.3838  0.3436 -0.2072
   9323SM  H11B12495   6.237   5.850   1.933 -1.9249  0.2580  4.0527
   9323SM     P12496   6.083   6.090   1.933 -0.3175  0.5961  0.1147
   9323SM   O1312497   6.048   6.227   1.897 -0.5338 -0.6674 -0.2692
   9323SM   O1412498   6.005   5.976   1.878 -0.2672  0.5456 -0.4134
   9323SM   O1112499   6.063   6.071   2.088 -0.3949  0.2295  0.0437
   9323SM   O1212500   6.239   6.062   1.915  0.0971 -0.2249  0.5257
   9323SM   C1S12501   6.155   6.148   2.175  0.5067  0.4857 -0.0675
   9323SM   H1S12502   6.111   6.250   2.180 -0.8243 -0.0934  0.6509
   9323SM   H1T12503   6.258   6.160   2.137  0.0330  1.1149 -1.1918
   9323SM    NF12504   6.246   6.172   2.402  0.2324  0.3137  0.2868
   9323SM   HNF12505   6.341   6.148   2.417  0.8106  0.7463 -2.2092
   9323SM   C2S12506   6.167   6.085   2.314  0.3161 -0.4040  0.2380
   9323SM   H2S12507   6.065   6.073   2.356  0.7994 -0.3644  1.4704
   9323SM   C3S12508   6.228   5.944   2.307 -1.3193  0.4794  0.3086
   9323SM   H3S12509   6.333   5.950   2.273 -1.0858 -0.7596  0.7270
   9323SM    O312510   6.152   5.858   2.224 -0.2157 -0.3042 -0.2271
   9323SM   HO312511   6.089   5.917   2.181 -0.6712 -0.0388  0.7843
   9323SM   C4S12512   6.212   5.876   2.437 -0.0991  0.0362 -0.0343
   9323SM   H4S12513   6.111   5.847   2.468  0.0962  1.8925  2.7707
   9323SM   C5S12514   6.321   5.854   2.512 -0.7447  0.0899 -0.1327
   9323SM   H5S12515   6.423   5.870   2.476 -1.4833 -1.3933 -3.2615
   9323SM   C6S12516   6.317   5.791   2.646 -0.4691 -0.2619  0.4952
   9323SM   H6S12517   6.344   5.683   2.650 -1.8708 -0.6607  0.1081
   9323SM   H6T12518   6.212   5.793   2.682 -0.1213  0.0949  1.5215
   9323SM   C7S12519   6.406   5.860   2.750 -0.3734 -0.7899  0.0983
   9323SM   H7S12520   6.376   5.965   2.766  0.3425 -0.6999  0.9208
   9323SM   H7T12521   6.509   5.858   2.707  0.4045  2.3243  1.5677
   9323SM   C8S12522   6.394   5.783   2.881 -0.1502  0.7983 -0.4507
   9323SM   H8S12523   6.447   5.686   2.869  3.1144  2.5682 -1.5525
   9323SM   H8T12524   6.286   5.763   2.898 -0.1771 -0.8336 -2.2207
   9323SM   C9S12525   6.434   5.872   3.004  0.7644  0.1998  0.1824
   9323SM   H9S12526   6.380   5.969   3.000  2.1303  0.9675 -1.4929
   9323SM   H9T12527   6.541   5.894   2.984  0.7318  0.9373  0.7946
   9323SM  C10S12528   6.411   5.808   3.138  0.4431 -0.2975 -0.0597
   9323SM  H10S12529   6.461   5.709   3.145 -0.3308 -0.6788  0.1938
   9323SM  H10T12530   6.305   5.777   3.146  0.8349 -2.0600 -1.0891
   9323SM  C11S12531   6.459   5.899   3.252  0.1540 -0.9681 -0.0020
   9323SM  H11S12532   6.440   6.006   3.228  3.3775 -0.2271  0.3001
   9323SM  H11T12533   6.570   5.899   3.255  0.2142  0.3229 -1.2307
   9323SM  C12S12534   6.397   5.873   3.389  0.5110 -0.1228  0.2741
   9323SM  H12S12535   6.297   5.824   3.397 -1.0029  2.6979 -0.0642
   9323SM  H12T12536   6.403   5.966   3.449  1.1978  0.7395 -1.0782
   9323SM  C13S12537   6.495   5.779   3.454  0.0417 -0.2043 -0.4915
   9323SM  H13S12538   6.590   5.830   3.479  1.6825 -3.0900 -0.4391
   9323SM  H13T12539   6.534   5.693   3.396  0.1556  0.1547 -0.9533
   9323SM  C14S12540   6.443   5.713   3.580 -0.4388  0.3603 -0.1356
   9323SM  H14S12541   6.365   5.635   3.571 -0.6215  0.1952  2.2450
   9323SM  H14T12542   6.405   5.785   3.656  1.9787  0.4133  1.1174
   9323SM  C15S12543   6.559   5.647   3.663  0.3208 -0.0097 -0.0781
   9323SM  H15S12544   6.634   5.605   3.592 -0.7805  0.3347 -1.4906
   9323SM  H15T12545   6.619   5.713   3.729  4.9239 -0.2484 -3.5085
   9323SM  C16S12546   6.518   5.514   3.739  0.2753 -0.6760  0.5909
   9323SM  H16S12547   6.500   5.442   3.656  3.2692 -0.9516  0.0725
   9323SM  H16T12548   6.424   5.535   3.795  0.6568  2.5101  0.2521
   9323SM  C17S12549   6.636   5.470   3.831 -0.7822  0.6635 -0.3268
   9323SM  H17S12550   6.593   5.381   3.882 -1.6265 -0.8493 -3.4315
   9323SM  H17T12551   6.654   5.554   3.902 -0.2390 -0.9048  1.4618
   9323SM  C18S12552   6.771   5.431   3.769  0.2619  0.5702  0.6859
   9323SM  H18S12553   6.812   5.533   3.748  2.6340 -0.7475 -1.7374
   9323SM  H18T12554   6.761   5.378   3.672 -0.9423 -0.6836  1.4736
   9323SM  H18U12555   6.835   5.376   3.841  1.7570 -0.2448 -1.1768
   9323SM   C1F12556   6.206   6.291   2.433 -0.2762  0.3187  0.6091
   9323SM    OF12557   6.107   6.344   2.390  0.0554 -0.9150  0.4037
   9323SM   C2F12558   6.285   6.347   2.535  0.2076 -0.2246  0.1484
   9323SM   H2F12559   6.327   6.272   2.604  0.9869 -1.8587 -1.9950
   9323SM   H2G12560   6.224   6.420   2.592  2.9129  0.5649  2.2006
   9323SM   C3F12561   6.408   6.426   2.478 -0.3125 -0.2040  0.5927
   9323SM   H3F12562   6.381   6.493   2.393 -1.4461 -0.6195  0.6024
   9323SM   H3G12563   6.477   6.354   2.431 -2.2839 -0.2026 -2.6267
   9323SM   C4F12564   6.479   6.504   2.585 -0.6652  0.1308 -0.1909
   9323SM   H4F12565   6.419   6.586   2.630  2.4584  2.9880 -0.7497
   9323SM   H4G12566   6.560   6.564   2.536 -0.7034  1.2877  1.0832
   9323SM   C5F12567   6.545   6.415   2.704 -0.6507 -0.4680 -0.1832
   9323SM   H5F12568   6.580   6.323   2.652 -1.8632 -0.9380 -0.2077
   9323SM   H5G12569   6.466   6.381   2.773 -0.3842 -0.9682 -0.1214
   9323SM   C6F12570   6.655   6.476   2.789 -0.0131 -0.3080 -0.3080
   9323SM   H6F12571   6.637   6.581   2.819  0.4917  0.0678 -1.3085
   9323SM   H6G12572   6.756   6.472   2.743 -0.4934 -1.3360 -1.3364
   9323SM   C7F12573   6.682   6.408   2.926  0.6923  0.2558  0.3134
   9323SM   H7F12574   6.584   6.397   2.977 -0.0264 -0.5892 -1.1773
   9323SM   H7G12575   6.766   6.450   2.985  0.4965 -0.9104  1.4845
   9323SM   C8F12576   6.728   6.263   2.897 -0.3734 -0.6560  0.9620
   9323SM   H8F12577   6.818   6.271   2.834 -2.1480  1.0268 -1.5367
   9323SM   H8G12578   6.654   6.213   2.831  0.5753  1.1035 -1.5683
   9323SM   C9F12579   6.762   6.193   3.023  0.0337 -0.1545  0.1234
   9323SM   H9F12580   6.673   6.181   3.089  0.4989 -1.0414  0.6140
   9323SM   H9G12581   6.835   6.253   3.080  0.6947 -1.1879  0.4029
   9323SM  C10F12582   6.816   6.048   2.994  0.4772 -0.0598  0.3619
   9323SM  H10F12583   6.913   6.050   2.940 -0.9547  0.4117 -2.3591
   9323SM  H10G12584   6.738   6.000   2.932 -0.4082  1.0227  0.5909
   9323SM  C11F12585   6.832   5.957   3.117  0.1667  0.3148  0.4037
   9323SM  H11F12586   6.752   5.963   3.194  1.4217 -2.2764  2.0420
   9323SM  H11G12587   6.920   6.003   3.168 -0.4520  0.5084  1.3311
   9323SM  C12F12588   6.852   5.806   3.083 -0.0883 -0.3764 -1.0996
   9323SM  H12F12589   6.923   5.798   2.998 -0.7529 -0.7455 -1.6307
   9323SM  H12G12590   6.757   5.765   3.043  0.0207 -1.0228 -0.7246
   9323SM  C13F12591   6.885   5.715   3.203 -0.1754  0.2753  0.5600
   9323SM  H13F12592   6.878   5.607   3.178  0.4963  0.6108 -1.2436
   9323SM  H13G12593   6.807   5.732   3.280 -0.5694  1.5157 -0.0841
   9323SM  C14F12594   7.023   5.743   3.262 -0.2080  0.4228 -0.9704
   9323SM  H14F12595   7.013   5.843   3.310  0.3722  0.0690 -0.0871
   9323SM  H14G12596   7.095   5.748   3.177 -1.5830 -0.5641 -2.2423
   9323SM  C15F12597   7.063   5.645   3.379  0.8396  0.6166 -0.4366
   9323SM  H15F12598   7.174   5.638   3.376  0.9913  1.5944  1.5293
   9323SM  H15G12599   7.011   5.549   3.356  1.5481  0.0555  0.2329
   9323SM  C16F12600   7.025   5.689   3.516 -0.8139 -0.3495 -0.1208
   9323SM  H16F12601   6.914   5.696   3.517 -0.7709  0.6019 -0.4828
   9323SM  H16G12602   7.071   5.787   3.544 -0.3884 -1.3099  2.8430
   9323SM  C17F12603   7.064   5.578   3.622 -0.2342 -0.6924 -0.3573
   9323SM  H17F12604   7.009   5.484   3.603 -0.5101 -0.4274 -0.8968
   9323SM  H17G12605   7.038   5.624   3.720  0.5660 -0.9836 -0.0028
   9323SM  C18F12606   7.220   5.565   3.645 -0.6646 -0.5510 -0.0127
   9323SM  H18F12607   7.262   5.667   3.661 -0.1270 -0.7640 -0.0561
   9323SM  H18G12608   7.269   5.521   3.555 -1.5509 -2.3656  0.3415
   9323SM  C19F12609   7.270   5.473   3.755  0.6631  0.1472  0.5164
   9323SM  H19F12610   7.380   5.481   3.755  0.7852 -1.0203  2.2114
   9323SM  H19G12611   7.249   5.364   3.741  0.3580  0.2115  0.4541
   9323SM  C20F12612   7.226   5.508   3.901 -0.3081  0.2880  0.1974
   9323SM  H20F12613   7.125   5.468   3.923  0.0566 -2.2848 -2.1495
   9323SM  H20G12614   7.216   5.618   3.893 -0.4628  0.1854 -1.5184
   9323SM  C21F12615   7.331   5.467   4.008  0.1438  0.0487 -0.7288
   9323SM  H21F12616   7.274   5.458   4.103  1.3642  0.0857  0.0273
   9323SM  H21G12617   7.399   5.554   4.021 -2.0072  1.8623 -0.9174
   9323SM  C22F12618   7.408   5.332   3.999  0.5420 -0.5947 -0.2201
   9323SM  H22F12619   7.486   5.342   3.921 -1.3866  2.9785 -1.9042
   9323SM  H22G12620   7.343   5.249   3.962  0.8911 -1.6785  1.4598
   9323SM  C23F12621   7.472   5.275   4.130 -0.1161  0.1801  0.5850
   9323SM  H23F12622   7.540   5.352   4.172  0.3348  1.3590 -2.1152
   9323SM  H23G12623   7.539   5.187   4.117 -0.6131 -0.4622  2.1356
   9323SM  H23H12624   7.401   5.254   4.213  0.0766 -0.4923  0.5926
   9423SM     N12625   4.639   6.541   2.422  0.5764  0.1386  0.1500
   9423SM   C1512626   4.519   6.602   2.359 -0.3180 -0.2112 -0.2463
   9423SM  H15A12627   4.442   6.632   2.428  1.7027  1.5512  1.3744
   9423SM  H15B12628   4.460   6.546   2.287  1.5047  0.0056 -1.9969
   9423SM  H15C12629   4.547   6.701   2.326 -0.7982 -0.0223 -0.0919
   9423SM   C1412630   4.606   6.426   2.512  0.5524  0.1419  0.5599
   9423SM  H14A12631   4.699   6.382   2.545 -0.8443 -2.7337  0.9935
   9423SM  H14B12632   4.540   6.365   2.452 -0.5236  2.4420 -0.7341
   9423SM  H14C12633   4.561   6.463   2.603  2.0602  1.3464  0.8545
   9423SM   C1312634   4.727   6.480   2.310  0.5610 -0.2090 -0.1852
   9423SM  H13A12635   4.810   6.429   2.357 -1.3137 -0.5507  3.0732
   9423SM  H13B12636   4.773   6.564   2.261  0.0720  1.0034  1.3557
   9423SM  H13C12637   4.681   6.408   2.244  1.8854 -0.3534 -0.9764
   9423SM   C1212638   4.719   6.648   2.497 -0.0453  0.3489 -0.2412
   9423SM  H12A12639   4.666   6.692   2.580  0.7236  0.9387 -0.0549
   9423SM  H12B12640   4.728   6.735   2.435  1.3612 -0.4865 -1.2629
   9423SM   C1112641   4.860   6.607   2.554  0.1412 -0.5803  0.4429
   9423SM  H11A12642   4.861   6.507   2.603  0.6091 -0.0144  1.6213
   9423SM  H11B12643   4.888   6.685   2.628 -0.6498 -1.5135  1.7617
   9423SM     P12644   5.093   6.548   2.432 -0.1454  0.0998 -0.4086
   9423SM   O1312645   5.059   6.401   2.413 -0.2782 -0.6992 -0.3087
   9423SM   O1412646   5.181   6.609   2.333  0.0525 -0.5412  0.0939
   9423SM   O1112647   5.145   6.570   2.581 -0.2886  0.3261  0.0111
   9423SM   O1212648   4.954   6.622   2.445 -0.4428  0.0494 -0.2749
   9423SM   C1S12649   5.167   6.688   2.655 -0.7637  1.2298  0.6706
   9423SM   H1S12650   5.069   6.726   2.692 -0.4569  1.6301  1.0953
   9423SM   H1T12651   5.200   6.764   2.581 -0.0262 -0.1600 -0.4674
   9423SM    NF12652   5.276   6.793   2.846 -0.4935 -0.1458 -0.4126
   9423SM   HNF12653   5.361   6.841   2.824  1.4393 -2.7623  0.7915
   9423SM   C2S12654   5.265   6.666   2.776 -0.0537 -0.2949  0.1976
   9423SM   H2S12655   5.211   6.596   2.844  1.0698 -0.4316  0.9820
   9423SM   C3S12656   5.398   6.602   2.736 -0.1358  0.1020 -0.7013
   9423SM   H3S12657   5.444   6.670   2.661 -1.4975 -0.2368 -1.8687
   9423SM    O312658   5.379   6.483   2.660 -0.2860 -0.7094  0.4089
   9423SM   HO312659   5.300   6.513   2.614  0.2655 -1.1650 -0.8672
   9423SM   C4S12660   5.481   6.574   2.854 -0.0289  0.0375 -0.0298
   9423SM   H4S12661   5.428   6.521   2.935  0.8796 -0.1305  0.4804
   9423SM   C5S12662   5.617   6.619   2.863  0.8236 -0.1127  0.4220
   9423SM   H5S12663   5.655   6.678   2.778  0.4327  2.6201  2.0027
   9423SM   C6S12664   5.706   6.593   2.974 -0.5684 -0.5715  0.2453
   9423SM   H6S12665   5.759   6.689   2.991 -0.3417 -0.8588  1.2756
   9423SM   H6T12666   5.789   6.526   2.943  0.1110 -0.4077  1.6285
   9423SM   C7S12667   5.654   6.527   3.104  0.3525  0.4174 -0.4642
   9423SM   H7S12668   5.613   6.427   3.078 -1.7952  0.5852  1.9023
   9423SM   H7T12669   5.571   6.586   3.147  1.4674  1.6720  0.0507
   9423SM   C8S12670   5.762   6.502   3.215 -0.1526  0.1567  0.0146
   9423SM   H8S12671   5.813   6.595   3.248  0.5050 -0.0009 -0.5339
   9423SM   H8T12672   5.833   6.433   3.164 -1.2174 -0.9371 -0.0394
   9423SM   C9S12673   5.696   6.412   3.325  0.0436 -0.5265  0.6385
   9423SM   H9S12674   5.628   6.337   3.280 -0.1876 -0.1611  0.3700
   9423SM   H9T12675   5.631   6.483   3.380 -2.3981 -0.6766 -1.8313
   9423SM  C10S12676   5.790   6.339   3.420 -0.1641 -0.6527 -0.7459
   9423SM  H10S12677   5.847   6.263   3.363  1.9741  1.4228 -1.5625
   9423SM  H10T12678   5.734   6.288   3.500 -0.6569  0.2269 -0.5115
   9423SM  C11S12679   5.895   6.427   3.486 -0.1452 -0.1875  0.0355
   9423SM  H11S12680   5.975   6.457   3.415 -0.1785  1.7660  0.7599
   9423SM  H11T12681   5.940   6.369   3.569  1.1383  2.6913  1.5025
   9423SM  C12S12682   5.831   6.549   3.557 -0.0279  0.6421  0.2892
   9423SM  H12S12683   5.784   6.610   3.478  2.4092 -0.9989 -2.6506
   9423SM  H12T12684   5.919   6.604   3.597  1.8671 -1.0568 -1.3139
   9423SM  C13S12685   5.727   6.536   3.671  0.4360 -0.5549  0.4604
   9423SM  H13S12686   5.655   6.457   3.640 -1.6102  0.3431  2.6891
   9423SM  H13T12687   5.683   6.637   3.661 -0.2147 -0.6253  2.3171
   9423SM  C14S12688   5.796   6.517   3.808  0.2074  0.3299 -0.0392
   9423SM  H14S12689   5.861   6.605   3.822  0.7548  0.1988 -1.5821
   9423SM  H14T12690   5.859   6.426   3.814  0.9156  0.8651  0.6730
   9423SM  C15S12691   5.680   6.523   3.904  0.2056  0.1710 -0.2468
   9423SM  H15S12692   5.650   6.416   3.910  4.3765 -1.0590  2.8435
   9423SM  H15T12693   5.598   6.588   3.865 -0.5568  0.3407  1.5386
   9423SM  C16S12694   5.714   6.565   4.048 -0.1411 -0.0538  0.3013
   9423SM  H16S12695   5.612   6.571   4.093 -0.9408  0.2931 -1.4607
   9423SM  H16T12696   5.745   6.672   4.056 -0.6889  0.1465 -0.0990
   9423SM  C17S12697   5.808   6.469   4.123  0.2925  0.1177  0.0712
   9423SM  H17S12698   5.902   6.459   4.065  0.3670 -1.2453  0.4165
   9423SM  H17T12699   5.752   6.373   4.122 -2.7789  1.6935 -3.1530
   9423SM  C18S12700   5.834   6.501   4.270 -0.7885  0.5621  0.4595
   9423SM  H18S12701   5.930   6.456   4.300  0.1460  3.0868  1.5877
   9423SM  H18T12702   5.759   6.451   4.335  1.3354 -0.1263  2.4977
   9423SM  H18U12703   5.825   6.611   4.284 -1.1976  0.6117 -0.1269
   9423SM   C1F12704   5.173   6.855   2.907 -0.3902  0.0378  0.4571
   9423SM    OF12705   5.065   6.798   2.934  0.6029 -0.3105 -0.1262
   9423SM   C2F12706   5.197   6.999   2.944  0.1850 -0.0561 -0.0424
   9423SM   H2F12707   5.172   7.060   2.854 -0.2682 -0.0347  0.0954
   9423SM   H2G12708   5.306   7.009   2.958 -0.2243  2.7916  1.9637
   9423SM   C3F12709   5.129   7.036   3.080  0.2498 -0.0260 -0.3614
   9423SM   H3F12710   5.020   7.018   3.077  0.1792  0.4692 -1.3383
   9423SM   H3G12711   5.139   7.146   3.072  0.9317  0.0100  0.8323
   9423SM   C4F12712   5.172   6.971   3.213  0.0593 -0.3191  0.2328
   9423SM   H4F12713   5.271   7.011   3.244 -0.8532  1.7922  0.5652
   9423SM   H4G12714   5.183   6.861   3.203 -1.1937 -0.4208 -0.2339
   9423SM   C5F12715   5.076   6.994   3.333  0.5788 -0.0064 -0.2261
   9423SM   H5F12716   4.990   6.924   3.328  1.8759 -1.5734 -1.5615
   9423SM   H5G12717   5.036   7.098   3.337  0.6288  0.0461 -0.9806
   9423SM   C6F12718   5.148   6.963   3.463 -0.1942  0.0802  0.5212
   9423SM   H6F12719   5.240   7.024   3.476 -0.5209  0.4530  1.1398
   9423SM   H6G12720   5.184   6.858   3.467  3.5226  1.1386 -0.7464
   9423SM   C7F12721   5.049   6.981   3.573  0.2283  0.0382 -0.5279
   9423SM   H7F12722   4.963   6.911   3.562 -1.2046  1.4918  0.8139
   9423SM   H7G12723   5.002   7.081   3.561 -0.1362 -0.0756 -0.0781
   9423SM   C8F12724   5.112   6.954   3.716 -0.2643 -0.5840 -0.6111
   9423SM   H8F12725   5.216   6.993   3.714 -0.6350  0.8754  2.4704
   9423SM   H8G12726   5.125   6.844   3.720 -0.3446 -0.6289 -1.4169
   9423SM   C9F12727   5.040   7.001   3.842  0.3339  0.2924 -0.5711
   9423SM   H9F12728   4.941   6.951   3.851 -0.2874  1.4549 -0.7999
   9423SM   H9G12729   5.015   7.109   3.834  1.2493  0.6251  0.7830
   9423SM  C10F12730   5.119   6.985   3.975 -0.3180 -0.5752  0.2306
   9423SM  H10F12731   5.059   7.036   4.052 -0.1470  2.4378 -1.4693
   9423SM  H10G12732   5.212   7.046   3.965 -2.2447  2.4903 -0.0593
   9423SM  C11F12733   5.172   6.841   4.010 -0.1660 -0.2994 -0.6910
   9423SM  H11F12734   5.242   6.794   3.938  0.2805 -0.4076 -0.1933
   9423SM  H11G12735   5.078   6.783   4.024 -0.8782  0.9883  0.1895
   9423SM  C12F12736   5.247   6.843   4.142  0.1955  0.4852  0.2580
   9423SM  H12F12737   5.266   6.740   4.181 -0.4655  1.0334  2.1154
   9423SM  H12G12738   5.173   6.887   4.211  0.6594  1.2853  0.2590
   9423SM  C13F12739   5.378   6.911   4.134  0.4616  0.2469  0.4077
   9423SM  H13F12740   5.368   7.003   4.071 -0.3694 -0.4368 -0.4916
   9423SM  H13G12741   5.451   6.846   4.081 -0.1687 -0.3971  0.3186
   9423SM  C14F12742   5.414   6.957   4.273 -0.2053 -0.4957 -0.2387
   9423SM  H14F12743   5.404   6.875   4.347 -2.5865 -0.6735 -0.6659
   9423SM  H14G12744   5.338   7.032   4.304  1.7551  1.6729 -0.4826
   9423SM  C15F12745   5.557   7.019   4.286  0.0145  0.1747  0.1501
   9423SM  H15F12746   5.584   7.072   4.193 -3.0005 -0.5345 -1.2467
   9423SM  H15G12747   5.636   6.943   4.307 -0.3721 -0.1042  0.6048
   9423SM  C16F12748   5.564   7.131   4.394  0.7487  0.6755  0.0659
   9423SM  H16F12749   5.505   7.089   4.478  2.1637  0.4320  0.9816
   9423SM  H16G12750   5.515   7.220   4.350  0.2545  0.6496  0.5611
   9423SM  C17F12751   5.709   7.165   4.446  0.1031 -0.2077 -0.2412
   9423SM  H17F12752   5.751   7.212   4.355 -0.6621  1.6257  0.3197
   9423SM  H17G12753   5.766   7.069   4.451 -0.0948 -0.3107  0.1092
   9423SM  C18F12754   5.718   7.257   4.567  0.6664 -0.6675 -0.7274
   9423SM  H18F12755   5.821   7.239   4.605 -0.0484  0.1009  1.7693
   9423SM  H18G12756   5.651   7.209   4.642 -0.5759  0.0590 -1.3487
   9423SM  C19F12757   5.693   7.403   4.548  0.7883 -0.5237  0.2914
   9423SM  H19F12758   5.595   7.425   4.502 -0.0100  0.6246  2.3764
   9423SM  H19G12759   5.777   7.444   4.488 -0.6186  1.7258 -0.2467
   9423SM  C20F12760   5.705   7.486   4.675  0.2372  0.2773  0.2160
   9423SM  H20F12761   5.779   7.450   4.750 -0.3256  1.0366  1.1593
   9423SM  H20G12762   5.611   7.479   4.734  1.1297  0.1216  1.6787
   9423SM  C21F12763   5.712   7.643   4.652  0.4453  0.9746  0.5704
   9423SM  H21F12764   5.613   7.675   4.613  0.5737 -0.8225 -1.3983
   9423SM  H21G12765   5.784   7.649   4.567 -0.7017  0.9928 -0.4311
   9423SM  C22F12766   5.730   7.727   4.774 -0.4685  0.5704  0.2999
   9423SM  H22F12767   5.833   7.710   4.813 -1.0720 -0.3529  1.5798
   9423SM  H22G12768   5.657   7.683   4.845 -1.7959  0.2436 -1.2160
   9423SM  C23F12769   5.711   7.876   4.767  0.0309  0.2910 -0.4486
   9423SM  H23F12770   5.604   7.907   4.762 -0.7407 -1.9756  0.7047
   9423SM  H23G12771   5.768   7.915   4.680 -0.6011  0.4132 -0.8104
   9423SM  H23H12772   5.744   7.919   4.865  0.0499  2.2728 -1.2726
   9523SM     N12773   1.553   1.516   2.642  0.0359  0.1453  0.3881
   9523SM   C1512774   1.640   1.615   2.574  0.4308 -0.2247  0.7028
   9523SM  H15A12775   1.733   1.619   2.628  1.0419 -0.6743 -0.2994
   9523SM  H15B12776   1.599   1.715   2.576 -1.9762 -1.1498  1.4096
   9523SM  H15C12777   1.656   1.571   2.477 -1.9061 -0.4791  0.3823
   9523SM   C1412778   1.421   1.495   2.568  0.7751 -0.5086  0.2030
   9523SM  H14A12779   1.438   1.481   2.462  2.2484  1.4586  0.1137
   9523SM  H14B12780   1.359   1.584   2.566  0.9628 -0.3747  0.2742
   9523SM  H14C12781   1.367   1.412   2.611  0.0585  0.4982  1.3257
   9523SM   C1312782   1.623   1.381   2.640 -0.3835  0.2544  0.4123
   9523SM  H13A12783   1.702   1.371   2.713  0.0385 -2.5233 -0.3195
   9523SM  H13B12784   1.657   1.350   2.542 -2.5573  0.6026 -0.5145
   9523SM  H13C12785   1.559   1.295   2.653  1.6052 -1.6013 -1.1746
   9523SM   C1212786   1.520   1.559   2.780  0.5765  0.0965 -0.0873
   9523SM  H12A12787   1.429   1.519   2.822  0.2160 -0.1435 -1.0842
   9523SM  H12B12788   1.503   1.666   2.780  0.3813  0.0692 -0.8751
   9523SM   C1112789   1.636   1.547   2.890  0.1498  0.4154 -0.9692
   9523SM  H11A12790   1.669   1.442   2.873 -0.5796  0.5885 -4.0446
   9523SM  H11B12791   1.598   1.548   2.995  2.8685 -0.9813  0.1193
   9523SM     P12792   1.732   1.779   2.924 -0.1067 -0.8876 -0.1136
   9523SM   O1312793   1.868   1.836   2.918  0.1031  0.5814  0.6074
   9523SM   O1412794   1.634   1.844   2.834  0.7605  0.6548  0.2564
   9523SM   O1112795   1.680   1.779   3.074  0.3007 -0.1849 -0.6701
   9523SM   O1212796   1.746   1.633   2.870  0.0996 -0.3866 -0.1279
   9523SM   C1S12797   1.770   1.735   3.180  0.0507  0.0414 -0.5829
   9523SM   H1S12798   1.852   1.810   3.194 -0.4475  0.4659  0.1396
   9523SM   H1T12799   1.825   1.641   3.160  0.1937  0.0962 -0.4547
   9523SM    NF12800   1.804   1.681   3.412 -0.6593  0.5774 -0.1007
   9523SM   HNF12801   1.817   1.582   3.417 -1.1716  0.5372  0.7605
   9523SM   C2S12802   1.703   1.715   3.318  0.9736  0.1733 -0.1782
   9523SM   H2S12803   1.648   1.802   3.360  0.1585 -0.8798  1.0243
   9523SM   C3S12804   1.587   1.605   3.305  0.3687 -0.4855  0.4376
   9523SM   H3S12805   1.637   1.513   3.270 -0.0548 -0.9955  1.1366
   9523SM    O312806   1.489   1.643   3.212 -0.1293 -0.4727 -0.0319
   9523SM   HO312807   1.530   1.710   3.158  0.2849 -0.6713  0.0340
   9523SM   C4S12808   1.525   1.573   3.441 -0.6615 -0.6492 -0.5741
   9523SM   H4S12809   1.567   1.489   3.497  0.1595  0.3890  0.4079
   9523SM   C5S12810   1.422   1.641   3.488 -0.4875 -0.3792 -1.0242
   9523SM   H5S12811   1.368   1.725   3.444 -1.3168 -0.9696 -1.1489
   9523SM   C6S12812   1.361   1.611   3.622  0.5363  0.0302 -0.6372
   9523SM   H6S12813   1.286   1.679   3.667 -2.0386 -2.8373 -0.2832
   9523SM   H6T12814   1.443   1.590   3.694  0.6548  0.3528 -0.6754
   9523SM   C7S12815   1.272   1.478   3.611  0.1945 -0.6443  0.3064
   9523SM   H7S12816   1.339   1.395   3.578 -0.7093 -1.9260  1.5630
   9523SM   H7T12817   1.201   1.478   3.526  0.2432  1.4188  0.2191
   9523SM   C8S12818   1.212   1.416   3.734  0.5406  0.2419 -0.5665
   9523SM   H8S12819   1.294   1.356   3.779  0.7567  0.2273 -0.9747
   9523SM   H8T12820   1.133   1.340   3.714 -0.1282  0.4123  1.2468
   9523SM   C9S12821   1.160   1.510   3.840  0.3829  0.2269 -0.1251
   9523SM   H9S12822   1.065   1.553   3.802 -0.1965 -0.6068  0.3431
   9523SM   H9T12823   1.235   1.587   3.865 -0.1686 -0.0230  2.6497
   9523SM  C10S12824   1.131   1.439   3.973  0.2287  0.6455  0.8102
   9523SM  H10S12825   1.234   1.412   4.005  0.3507 -1.6066 -1.1666
   9523SM  H10T12826   1.071   1.347   3.959  1.3861 -0.1936  1.1781
   9523SM  C11S12827   1.050   1.522   4.075 -0.0305  0.1979  0.6131
   9523SM  H11S12828   0.949   1.543   4.033  0.5834  0.6549 -0.6828
   9523SM  H11T12829   1.107   1.615   4.098 -0.2303  0.2118  1.0853
   9523SM  C12S12830   1.057   1.461   4.218  0.3970 -0.2397  0.2244
   9523SM  H12S12831   1.029   1.356   4.197 -0.7465  0.4422 -1.9489
   9523SM  H12T12832   0.991   1.516   4.288  0.8261  0.4799  0.0753
   9523SM  C13S12833   1.203   1.473   4.275 -0.1155  0.1380 -0.3244
   9523SM  H13S12834   1.239   1.576   4.298 -2.3556  0.9916 -0.4735
   9523SM  H13T12835   1.273   1.428   4.201 -1.6961 -0.7090 -1.3486
   9523SM  C14S12836   1.223   1.390   4.401 -0.7936  0.4773 -0.1628
   9523SM  H14S12837   1.164   1.416   4.492  0.9511 -0.8290  1.4331
   9523SM  H14T12838   1.331   1.397   4.429 -0.7766  0.2102 -0.1584
   9523SM  C15S12839   1.191   1.234   4.393 -0.2834  0.1446  0.3834
   9523SM  H15S12840   1.248   1.188   4.310 -0.4157 -0.4375  0.6084
   9523SM  H15T12841   1.084   1.209   4.376 -0.3268  1.3157 -1.1844
   9523SM  C16S12842   1.257   1.151   4.501  0.2243 -0.1260 -0.0152
   9523SM  H16S12843   1.220   1.185   4.600 -1.7381 -0.8180 -0.4692
   9523SM  H16T12844   1.367   1.155   4.491  0.4498 -1.9936  1.2414
   9523SM  C17S12845   1.204   0.998   4.499 -0.9183  0.0294 -0.7883
   9523SM  H17S12846   1.213   0.970   4.392 -0.6548  0.2770 -0.8313
   9523SM  H17T12847   1.094   1.012   4.515 -0.7715  0.9993 -0.5460
   9523SM  C18S12848   1.275   0.898   4.591 -0.4876  1.1659 -1.0272
   9523SM  H18S12849   1.202   0.848   4.659 -1.4348  1.0200 -2.1155
   9523SM  H18T12850   1.343   0.941   4.668 -1.9225  0.7137  0.5592
   9523SM  H18U12851   1.325   0.816   4.536 -0.5798 -0.2768  0.9230
   9523SM   C1F12852   1.894   1.765   3.458 -0.0935 -0.8147  0.4033
   9523SM    OF12853   1.883   1.888   3.434  0.0305 -0.2838 -0.0799
   9523SM   C2F12854   2.010   1.705   3.531  0.6183 -0.6662  0.4965
   9523SM   H2F12855   2.109   1.726   3.485  0.9644 -1.5310  0.8271
   9523SM   H2G12856   2.001   1.596   3.551 -0.5849 -0.1045  3.3670
   9523SM   C3F12857   2.022   1.774   3.674 -0.4076  0.2620 -0.2365
   9523SM   H3F12858   2.038   1.882   3.651  0.6202 -0.1202 -1.3940
   9523SM   H3G12859   2.106   1.733   3.734 -0.8285  0.9692  0.8877
   9523SM   C4F12860   1.891   1.755   3.757  0.3417 -0.4485  0.1628
   9523SM   H4F12861   1.857   1.649   3.763  3.5260 -1.6855 -1.4882
   9523SM   H4G12862   1.811   1.824   3.724  1.3230  0.7979  0.3383
   9523SM   C5F12863   1.923   1.800   3.901 -0.6631 -0.4096  0.0047
   9523SM   H5F12864   1.824   1.827   3.942 -0.1652  0.8140  0.4732
   9523SM   H5G12865   1.989   1.890   3.901 -0.7332 -0.3539  1.1742
   9523SM   C6F12866   1.994   1.693   3.982  0.0995  0.1154 -0.4987
   9523SM   H6F12867   2.101   1.674   3.960  1.1775  0.8976  3.3233
   9523SM   H6G12868   1.946   1.593   3.979  0.8914 -0.3066  0.3068
   9523SM   C7F12869   1.994   1.730   4.129  0.1777 -0.2579 -0.4242
   9523SM   H7F12870   1.890   1.709   4.163  0.9738 -0.3967  2.1652
   9523SM   H7G12871   2.027   1.836   4.133 -1.5011  0.2743 -0.1000
   9523SM   C8F12872   2.079   1.629   4.208 -0.4351 -0.0283  0.1696
   9523SM   H8F12873   2.187   1.629   4.183 -0.5240 -0.6186 -0.2283
   9523SM   H8G12874   2.029   1.532   4.187  2.2481 -1.4841  0.0505
   9523SM   C9F12875   2.078   1.660   4.355  0.1217  0.5488 -0.7571
   9523SM   H9F12876   1.975   1.645   4.395  0.8170  2.4406  2.0156
   9523SM   H9G12877   2.103   1.767   4.364  2.4954  0.0257 -0.4690
   9523SM  C10F12878   2.172   1.571   4.443 -0.2459 -0.6405  0.3139
   9523SM  H10F12879   2.275   1.598   4.414 -0.0628 -1.3310  0.2965
   9523SM  H10G12880   2.144   1.470   4.406 -1.1417  0.0160 -0.8812
   9523SM  C11F12881   2.136   1.582   4.589  0.2778 -0.1662 -0.3614
   9523SM  H11F12882   2.163   1.485   4.637  2.4048 -0.0008 -1.1042
   9523SM  H11G12883   2.027   1.594   4.600  0.4789  0.3230  1.3711
   9523SM  C12F12884   2.201   1.700   4.668  0.6190  0.0716 -0.0529
   9523SM  H12F12885   2.114   1.744   4.721  0.5183 -0.4891  0.2523
   9523SM  H12G12886   2.246   1.780   4.605 -0.1728 -0.4610 -1.3229
   9523SM  C13F12887   2.310   1.673   4.769  0.5780 -0.0274  0.7029
   9523SM  H13F12888   2.279   1.600   4.846 -2.4008 -1.0920 -1.3393
   9523SM  H13G12889   2.348   1.766   4.817  5.0705 -1.8018  1.1300
   9523SM  C14F12890   2.445   1.618   4.708 -0.2558 -1.2239 -0.2795
   9523SM  H14F12891   2.485   1.692   4.636  1.9216  0.4716  2.4578
   9523SM  H14G12892   2.420   1.534   4.639  0.2145 -0.9568 -0.7829
   9523SM  C15F12893   2.537   1.560   4.816 -0.2500 -0.3697 -0.5800
   9523SM  H15F12894   2.620   1.511   4.762 -0.0284  1.0670 -1.6135
   9523SM  H15G12895   2.474   1.478   4.858 -0.9155  0.4325  0.0389
   9523SM  C16F12896   2.588   1.671   4.915 -0.3562  1.0850 -0.2324
   9523SM  H16F12897   2.509   1.716   4.979  0.8986 -0.8591  2.9542
   9523SM  H16G12898   2.641   1.758   4.869  1.1075 -0.2183 -1.0933
   9523SM  C17F12899   2.677   1.607   5.030  0.1940  0.2334 -0.0205
   9523SM  H17F12900   2.613   1.529   5.078 -1.1244  1.5213  0.3741
   9523SM  H17G12901   2.698   1.684   5.106 -0.1128  0.4330 -0.1347
   9523SM  C18F12902   2.809   1.541   4.979 -0.6567  0.6565  0.5867
   9523SM  H18F12903   2.868   1.606   4.912  0.3296 -1.8642 -1.1026
   9523SM  H18G12904   2.771   1.458   4.916 -0.7229 -1.1241  2.8446
   9523SM  C19F12905   2.902   1.473   5.085 -0.2631 -0.2967  0.8155
   9523SM  H19F12906   2.975   1.415   5.025 -1.2837 -0.3949 -0.3674
   9523SM  H19G12907   2.843   1.405   5.150 -1.4800  0.7925  0.8851
   9523SM  C20F12908   2.970   1.576   5.177 -0.0154 -0.0240  0.0045
   9523SM  H20F12909   3.015   1.518   5.260 -0.7993 -2.1486 -0.9912
   9523SM  H20G12910   2.892   1.644   5.218 -0.8107 -1.7427  1.4295
   9523SM  C21F12911   3.080   1.653   5.104  0.2418  0.1886 -1.0082
   9523SM  H21F12912   3.033   1.711   5.022  0.4301  0.4270 -0.9503
   9523SM  H21G12913   3.156   1.590   5.053  0.8768  0.8630 -0.9156
   9523SM  C22F12914   3.167   1.740   5.196 -0.3566  0.3070 -0.2480
   9523SM  H22F12915   3.202   1.675   5.279 -1.2186 -0.8419 -0.7612
   9523SM  H22G12916   3.102   1.826   5.225 -0.6368  0.5543 -1.5477
   9523SM  C23F12917   3.286   1.803   5.123 -0.0567 -0.4962  0.2427
   9523SM  H23F12918   3.238   1.866   5.045  3.3526  2.2942  0.0935
   9523SM  H23G12919   3.347   1.730   5.065 -2.1774 -0.0470 -2.7429
   9523SM  H23H12920   3.347   1.861   5.196  0.9130 -1.9212  0.6199
   9623SM     N12921   3.307   0.870   2.592 -0.0555  0.5156  0.5303
   9623SM   C1512922   3.175   0.883   2.663 -0.8444 -0.2487 -0.1797
   9623SM  H15A12923   3.103   0.890   2.582 -0.4512  1.0152 -0.4504
   9623SM  H15B12924   3.177   0.977   2.717 -1.5981  1.4191 -2.7986
   9623SM  H15C12925   3.154   0.801   2.729 -2.5968  0.5913  0.3831
   9623SM   C1412926   3.307   0.732   2.525 -0.4034  0.3708 -0.4187
   9623SM  H14A12927   3.335   0.648   2.587 -0.4178  0.9780  0.4164
   9623SM  H14B12928   3.381   0.731   2.446 -1.0147  1.0390 -1.0062
   9623SM  H14C12929   3.211   0.713   2.479  0.0620 -1.5044 -0.7070
   9623SM   C1312930   3.307   0.976   2.482  0.0976  0.1303 -0.2998
   9623SM  H13A12931   3.210   0.989   2.437 -0.0395  1.0534  0.2314
   9623SM  H13B12932   3.382   0.955   2.408  0.1931 -0.6331 -0.0015
   9623SM  H13C12933   3.323   1.077   2.516  1.2072 -0.0451 -0.2663
   9623SM   C1212934   3.435   0.888   2.674  0.3287  0.2238 -0.0020
   9623SM  H12A12935   3.438   0.807   2.745 -0.2158 -0.8026 -1.1171
   9623SM  H12B12936   3.420   0.979   2.730 -1.1229 -1.4586  2.5461
   9623SM   C1112937   3.567   0.904   2.597 -0.1242 -0.1293  0.4018
   9623SM  H11A12938   3.645   0.934   2.670  2.4142  0.9449 -2.5016
   9623SM  H11B12939   3.569   0.987   2.523  2.5602  0.6650  1.2456
   9623SM     P12940   3.731   0.727   2.479 -0.0271 -0.0357 -0.2329
   9623SM   O1312941   3.714   0.591   2.436 -0.5742  0.5197  0.3547
   9623SM   O1412942   3.773   0.820   2.372  0.2434  0.6121 -0.5481
   9623SM   O1112943   3.839   0.737   2.599  0.0389  0.4315  0.0961
   9623SM   O1212944   3.600   0.782   2.533  0.0912 -0.2539 -0.4043
   9623SM   C1S12945   3.822   0.649   2.713  0.1878 -0.8563  0.8132
   9623SM   H1S12946   3.831   0.544   2.679 -0.2921 -0.3734 -0.9480
   9623SM   H1T12947   3.720   0.666   2.753 -0.4803  2.1156 -1.7348
   9623SM    NF12948   3.888   0.577   2.945 -0.7182 -0.1927 -0.1592
   9623SM   HNF12949   3.838   0.620   3.020 -0.6624  1.7030 -1.1468
   9623SM   C2S12950   3.920   0.676   2.838  0.5296 -0.3760  0.2056
   9623SM   H2S12951   4.027   0.667   2.809  0.2689  0.1740 -0.9737
   9623SM   C3S12952   3.884   0.826   2.876 -0.3059  0.4117  0.5010
   9623SM   H3S12953   3.774   0.828   2.891 -0.7348 -0.0964 -2.1268
   9623SM    O312954   3.902   0.917   2.768 -0.7362  0.4293 -0.0311
   9623SM   HO312955   3.893   0.861   2.690 -2.3183 -0.9841  1.1183
   9623SM   C4S12956   3.971   0.875   2.989  0.0749 -1.1346  0.3453
   9623SM   H4S12957   4.075   0.892   2.957 -0.2020  0.5403  0.2583
   9623SM   C5S12958   3.940   0.881   3.120  0.7469 -0.6043  0.0153
   9623SM   H5S12959   3.839   0.858   3.158  0.1024 -0.3167 -1.4496
   9623SM   C6S12960   4.037   0.931   3.227 -0.3133 -0.5207 -0.2678
   9623SM   H6S12961   3.997   1.017   3.284  1.2276 -0.3653  0.6431
   9623SM   H6T12962   4.135   0.959   3.182  0.7067 -2.4828  0.5693
   9623SM   C7S12963   4.087   0.816   3.316 -0.2948 -0.1088  0.1433
   9623SM   H7S12964   4.150   0.745   3.258  1.8562  1.4457  0.4317
   9623SM   H7T12965   3.995   0.766   3.352 -0.0898 -1.2792 -0.9123
   9623SM   C8S12966   4.173   0.874   3.430  0.1426  0.6329  0.5091
   9623SM   H8S12967   4.103   0.923   3.501 -0.0205  1.1942 -0.0285
   9623SM   H8T12968   4.257   0.942   3.405 -0.1338  0.1221 -2.1095
   9623SM   C9S12969   4.252   0.768   3.512  0.1251 -0.0932  1.1005
   9623SM   H9S12970   4.325   0.718   3.445  1.2994  0.8294  1.6648
   9623SM   H9T12971   4.181   0.691   3.551 -0.6526 -1.0496 -1.8971
   9623SM  C10S12972   4.338   0.821   3.627 -0.1275  0.1182  0.1975
   9623SM  H10S12973   4.289   0.898   3.689  0.1690  1.3009 -1.0031
   9623SM  H10T12974   4.422   0.873   3.574 -0.8496  1.9944  0.8303
   9623SM  C11S12975   4.401   0.710   3.711 -0.0983  0.0229 -0.9232
   9623SM  H11S12976   4.455   0.639   3.643  2.0554  0.9582 -0.2704
   9623SM  H11T12977   4.319   0.650   3.756  0.8819 -1.0272 -0.4896
   9623SM  C12S12978   4.505   0.771   3.808  0.0379 -0.2493  0.2561
   9623SM  H12S12979   4.459   0.839   3.883  0.2395 -0.0688  0.2179
   9623SM  H12T12980   4.571   0.837   3.747  1.2529 -0.1157  1.6557
   9623SM  C13S12981   4.591   0.675   3.893  0.6972  0.1426  0.2236
   9623SM  H13S12982   4.661   0.627   3.821  1.6044  3.5364 -1.3412
   9623SM  H13T12983   4.528   0.601   3.946  0.4192  0.6222  0.5684
   9623SM  C14S12984   4.669   0.749   4.011  0.2704  0.6792  0.5792
   9623SM  H14S12985   4.590   0.794   4.075 -0.5225  1.2458 -0.7445
   9623SM  H14T12986   4.715   0.841   3.969  0.2145  0.8405  0.8668
   9623SM  C15S12987   4.763   0.656   4.090 -0.1832  0.9341  0.7859
   9623SM  H15S12988   4.845   0.603   4.036  0.5523  2.9696 -0.2175
   9623SM  H15T12989   4.695   0.575   4.122 -0.4898  0.2426 -1.4207
   9623SM  C16S12990   4.830   0.728   4.202 -0.1981  0.1751 -1.0014
   9623SM  H16S12991   4.760   0.795   4.257 -0.3357 -1.4870  0.9692
   9623SM  H16T12992   4.909   0.791   4.156 -1.3976  1.2914 -1.5997
   9623SM  C17S12993   4.899   0.629   4.303  0.1193  0.2233 -0.3618
   9623SM  H17S12994   4.965   0.550   4.262 -0.3437  0.6246 -1.9284
   9623SM  H17T12995   4.821   0.573   4.359  1.5800  1.6477  3.4820
   9623SM  C18S12996   4.979   0.692   4.418  0.4744 -1.0749  0.2655
   9623SM  H18S12997   5.086   0.695   4.390  0.4108  0.0832  0.1091
   9623SM  H18T12998   4.968   0.651   4.520  1.4389 -1.3880  0.2553
   9623SM  H18U12999   4.940   0.796   4.422  0.5881 -1.0019 -0.3982
   9623SM   C1F13000   3.915   0.451   2.922  1.2567 -0.0386 -0.4589
   9623SM    OF13001   3.999   0.423   2.841 -0.6586  0.5088  0.1223
   9623SM   C2F13002   3.835   0.351   2.996 -0.4206 -0.3608 -0.2942
   9623SM   H2F13003   3.766   0.296   2.928 -1.3645 -0.1791  0.5035
   9623SM   H2G13004   3.773   0.389   3.079 -0.5217  1.1092 -1.0198
   9623SM   C3F13005   3.927   0.240   3.048  0.5109  0.0017 -0.4392
   9623SM   H3F13006   3.999   0.291   3.115  0.9533 -1.2257  0.0294
   9623SM   H3G13007   3.985   0.187   2.969  0.4596  0.5322 -0.8441
   9623SM   C4F13008   3.857   0.130   3.128  0.3007 -0.0622 -0.2490
   9623SM   H4F13009   3.797   0.052   3.076 -0.1077  0.2650 -0.2773
   9623SM   H4G13010   3.796   0.172   3.211  0.6502  0.2032 -0.1249
   9623SM   C5F13011   3.971   0.055   3.200  0.1346 -0.4193  0.1118
   9623SM   H5F13012   4.041   0.128   3.244  1.8685 -0.2516 -2.6873
   9623SM   H5G13013   4.020  -0.017   3.131 -1.6857 -0.0666 -1.6508
   9623SM   C6F13014   3.929  -0.029   3.317  0.1656  0.3026  0.0273
   9623SM   H6F13015   3.894  -0.124   3.271  1.2694  0.2256 -0.6716
   9623SM   H6G13016   3.855   0.018   3.385  0.6855 -1.6488  2.0443
   9623SM   C7F13017   4.052  -0.069   3.401  0.3541 -0.3852 -0.0843
   9623SM   H7F13018   4.082   0.023   3.455 -0.1210 -0.4638  0.3173
   9623SM   H7G13019   4.136  -0.088   3.330  2.4926  1.7035  1.7367
   9623SM   C8F13020   4.023  -0.188   3.496  0.1027 -0.3086  0.4097
   9623SM   H8F13021   4.122  -0.213   3.539 -1.2641 -4.7362  1.4403
   9623SM   H8G13022   3.994  -0.280   3.441  1.9871 -0.9655  0.4517
   9623SM   C9F13023   3.930  -0.143   3.614 -0.1638  0.2373  0.1224
   9623SM   H9F13024   3.825  -0.144   3.578 -0.7293 -1.6067  1.6675
   9623SM   H9G13025   3.960  -0.043   3.652 -2.9700  1.3977 -0.4879
   9623SM  C10F13026   3.946  -0.252   3.728 -0.8111 -0.2240 -0.6465
   9623SM  H10F13027   4.053  -0.282   3.730 -0.6720  0.2858  0.7716
   9623SM  H10G13028   3.898  -0.351   3.710 -0.2985 -0.4961 -0.5265
   9623SM  C11F13029   3.901  -0.178   3.850  1.0459  0.2683 -0.1635
   9623SM  H11F13030   3.790  -0.178   3.846  1.0822 -0.3978 -2.5525
   9623SM  H11G13031   3.942  -0.075   3.845 -1.0667  1.1927  0.5468
   9623SM  C12F13032   3.951  -0.236   3.975  0.2971 -0.2183  0.7885
   9623SM  H12F13033   4.062  -0.248   3.978  0.1652 -1.7259  0.7535
   9623SM  H12G13034   3.919  -0.343   3.973  0.4393 -0.2849  1.5666
   9623SM  C13F13035   3.910  -0.155   4.098  0.2328  0.8222  0.1661
   9623SM  H13F13036   3.799  -0.159   4.100  0.2158  1.2710  2.5010
   9623SM  H13G13037   3.940  -0.051   4.074 -1.6181  1.2074 -0.6202
   9623SM  C14F13038   3.966  -0.201   4.228 -0.2713  0.5243 -0.9806
   9623SM  H14F13039   4.070  -0.232   4.205 -0.9414 -0.6015 -2.7324
   9623SM  H14G13040   3.915  -0.294   4.262  0.4719  0.4754  0.0501
   9623SM  C15F13041   3.961  -0.079   4.312 -0.8086 -0.0517 -0.8128
   9623SM  H15F13042   3.864  -0.057   4.364 -0.2724  1.7402 -0.4922
   9623SM  H15G13043   3.995   0.011   4.256 -0.2230 -0.4991 -1.1728
   9623SM  C16F13044   4.061  -0.087   4.431  0.7390  0.9518  0.5882
   9623SM  H16F13045   4.160  -0.113   4.388 -0.6360  0.6542 -2.6407
   9623SM  H16G13046   4.030  -0.174   4.493  0.8772  0.6580  0.2506
   9623SM  C17F13047   4.074   0.034   4.521 -0.1377 -0.0289  0.8235
   9623SM  H17F13048   3.973   0.078   4.537 -0.1729 -0.7832  2.9201
   9623SM  H17G13049   4.132   0.115   4.471 -2.2722 -0.2921 -2.4108
   9623SM  C18F13050   4.152   0.001   4.648 -0.1836  0.2228  0.7835
   9623SM  H18F13051   4.243  -0.059   4.628 -1.9599 -1.7726 -2.3522
   9623SM  H18G13052   4.092  -0.073   4.706  0.2760 -0.7920 -0.0045
   9623SM  C19F13053   4.174   0.129   4.726 -0.2214 -0.0597  0.5624
   9623SM  H19F13054   4.085   0.195   4.717  0.5837  0.8426 -1.4333
   9623SM  H19G13055   4.258   0.186   4.682 -1.5510 -0.0618 -2.1868
   9623SM  C20F13056   4.190   0.111   4.877 -0.3896  0.4070 -0.5157
   9623SM  H20F13057   4.227   0.206   4.920  0.5682  1.2333 -3.0141
   9623SM  H20G13058   4.268   0.037   4.903 -1.0800  0.5815  2.4657
   9623SM  C21F13059   4.059   0.056   4.937 -0.6056  0.1913  0.3417
   9623SM  H21F13060   4.030  -0.038   4.887  0.4233  0.6206 -1.1257
   9623SM  H21G13061   3.973   0.126   4.931 -0.5682  0.1245 -1.3630
   9623SM  C22F13062   4.072   0.014   5.090  0.1007  0.2156 -0.2145
   9623SM  H22F13063   4.064   0.101   5.159 -0.9988  0.0901 -0.1668
   9623SM  H22G13064   4.165  -0.045   5.106 -1.4260 -2.2460  0.1438
   9623SM  C23F13065   3.962  -0.081   5.141  0.1437 -0.3578  0.2440
   9623SM  H23F13066   3.861  -0.037   5.153  0.3485 -0.2884  1.9836
   9623SM  H23G13067   3.981  -0.113   5.245 -0.1377  1.6026  0.9384
   9623SM  H23H13068   3.949  -0.166   5.071 -0.5813  0.5733 -0.7777
   9723SM     N13069   5.010   0.468   2.107 -0.0635 -0.9604  0.0614
   9723SM   C1513070   4.955   0.610   2.081 -0.0136 -0.5249 -0.1817
   9723SM  H15A13071   5.028   0.690   2.068  0.8742 -1.2081  0.4749
   9723SM  H15B13072   4.890   0.637   2.163  2.5908  0.4562  1.7006
   9723SM  H15C13073   4.892   0.613   1.993 -0.5637  1.8366  0.2104
   9723SM   C1413074   4.908   0.370   2.056 -0.1088 -0.1412  0.3441
   9723SM  H14A13075   4.826   0.363   2.127  0.8670  1.0465  1.6442
   9723SM  H14B13076   4.949   0.271   2.057  0.1314 -0.0743 -1.2633
   9723SM  H14C13077   4.860   0.394   1.962 -2.1758 -2.5946  0.6749
   9723SM   C1313078   5.140   0.457   2.026 -0.0345 -0.0910 -0.8754
   9723SM  H13A13079   5.202   0.532   2.072  0.0570 -2.0053  2.4256
   9723SM  H13B13080   5.138   0.481   1.920  2.2976  1.3364 -0.6577
   9723SM  H13C13081   5.176   0.358   2.051 -0.4944  0.3288  1.6272
   9723SM   C1213082   5.044   0.459   2.257 -0.8576 -0.2976  0.4462
   9723SM  H12A13083   5.116   0.539   2.268  0.5666 -1.4983  0.1670
   9723SM  H12B13084   5.090   0.363   2.273 -0.1393  0.3467  2.7560
   9723SM   C1113085   4.926   0.470   2.363  0.0550  0.6909  0.6611
   9723SM  H11A13086   4.874   0.567   2.347  0.5109  0.7635 -0.4680
   9723SM  H11B13087   4.970   0.471   2.464 -0.2762  0.5415  0.8084
   9723SM     P13088   4.852   0.218   2.371  0.3068  0.1193 -0.0257
   9723SM   O1313089   4.728   0.132   2.354 -0.7970 -0.1990  0.8113
   9723SM   O1413090   4.977   0.176   2.307  0.2017  0.0216  0.1544
   9723SM   O1113091   4.867   0.206   2.528  0.0481  0.2049  1.2386
   9723SM   O1213092   4.827   0.368   2.337 -0.1840 -0.2835  0.2407
   9723SM   C1S13093   4.764   0.221   2.625 -0.8796  0.5712 -0.3018
   9723SM   H1S13094   4.698   0.132   2.635  0.2065 -0.1091  1.3115
   9723SM   H1T13095   4.703   0.313   2.615 -0.1884  1.0910  0.2214
   9723SM    NF13096   4.739   0.213   2.873 -0.3532  0.4160  0.8236
   9723SM   HNF13097   4.719   0.300   2.916 -1.3053 -0.6324  2.6106
   9723SM   C2S13098   4.835   0.219   2.768  0.0932 -0.6349  1.4456
   9723SM   H2S13099   4.903   0.131   2.761  0.4087 -0.2748 -0.5155
   9723SM   C3S13100   4.939   0.337   2.788 -0.2543 -0.1301  0.6880
   9723SM   H3S13101   4.894   0.437   2.802  0.8891  0.2921  1.5824
   9723SM    O313102   5.027   0.346   2.678  0.3799 -0.8470 -0.1284
   9723SM   HO313103   4.983   0.293   2.611  0.0776 -1.6405  0.6777
   9723SM   C4S13104   5.016   0.315   2.920  0.2315 -0.1533 -0.2793
   9723SM   H4S13105   4.950   0.335   3.005 -0.6432 -0.6947 -0.8104
   9723SM   C5S13106   5.140   0.268   2.946  0.4230 -0.0729 -0.8740
   9723SM   H5S13107   5.205   0.254   2.858  1.3583  1.3219 -0.4366
   9723SM   C6S13108   5.207   0.252   3.085 -0.3190  0.4197 -0.0270
   9723SM   H6S13109   5.297   0.317   3.090 -0.3947  0.4491  2.0516
   9723SM   H6T13110   5.237   0.149   3.115 -0.3028 -0.4682 -2.8321
   9723SM   C7S13111   5.124   0.301   3.211  0.1248 -0.5961  0.4834
   9723SM   H7S13112   5.021   0.263   3.193  0.1138  0.1749 -1.3166
   9723SM   H7T13113   5.126   0.410   3.194  1.8242 -0.2501  2.4812
   9723SM   C8S13114   5.196   0.270   3.345 -0.0961 -0.0342  0.1939
   9723SM   H8S13115   5.293   0.323   3.354 -1.1779  1.7835  2.2099
   9723SM   H8T13116   5.191   0.161   3.366  1.6028 -0.2105 -0.2016
   9723SM   C9S13117   5.119   0.324   3.467  0.0913 -0.6227  0.4225
   9723SM   H9S13118   5.040   0.251   3.497 -0.8995  0.4096  0.3883
   9723SM   H9T13119   5.061   0.416   3.447  0.3940 -0.8542 -1.6675
   9723SM  C10S13120   5.214   0.325   3.592  0.9744  0.6918  0.0661
   9723SM  H10S13121   5.273   0.418   3.606  0.8517  0.5997  1.3461
   9723SM  H10T13122   5.288   0.244   3.580 -0.9953 -1.1410 -0.3888
   9723SM  C11S13123   5.125   0.288   3.718 -0.8052  0.2796 -0.1617
   9723SM  H11S13124   5.097   0.181   3.712 -1.7051  0.4092  1.3469
   9723SM  H11T13125   5.028   0.343   3.713 -0.9083  0.1377  0.3306
   9723SM  C12S13126   5.187   0.325   3.856  0.3821  0.0190  0.4196
   9723SM  H12S13127   5.199   0.436   3.856 -0.8253  0.1789  1.8151
   9723SM  H12T13128   5.282   0.267   3.859  1.0802  1.0329 -0.9933
   9723SM  C13S13129   5.092   0.289   3.970  0.2683  0.2969 -0.5799
   9723SM  H13S13130   5.060   0.184   3.957 -1.0729  0.6773 -0.5607
   9723SM  H13T13131   5.002   0.354   3.961  1.0399  1.3132 -1.1422
   9723SM  C14S13132   5.156   0.298   4.110  0.3928 -0.2321 -0.0598
   9723SM  H14S13133   5.221   0.209   4.121  0.1568 -0.6948 -1.9985
   9723SM  H14T13134   5.070   0.284   4.179 -0.6988  3.1728 -0.5341
   9723SM  C15S13135   5.227   0.436   4.140  0.7715  1.4427  0.0367
   9723SM  H15S13136   5.155   0.520   4.140  0.0235  0.8224  1.2509
   9723SM  H15T13137   5.310   0.471   4.075  0.7084  1.8593  0.1773
   9723SM  C16S13138   5.286   0.425   4.283  0.1383 -0.6895 -0.0193
   9723SM  H16S13139   5.210   0.401   4.360  0.1688 -1.4736 -0.2228
   9723SM  H16T13140   5.331   0.522   4.312  1.3170 -1.7880  2.0692
   9723SM  C17S13141   5.405   0.328   4.299 -0.0180  0.1338  0.3722
   9723SM  H17S13142   5.444   0.310   4.197 -0.2259  1.9212 -0.0482
   9723SM  H17T13143   5.359   0.232   4.331 -1.1207 -0.0125 -1.5384
   9723SM  C18S13144   5.514   0.370   4.396 -0.2968  0.0859  0.4123
   9723SM  H18S13145   5.583   0.290   4.433  1.3639  1.7885  1.1873
   9723SM  H18T13146   5.469   0.405   4.491 -1.2059 -0.3706  0.1609
   9723SM  H18U13147   5.582   0.449   4.359  1.7959 -1.7619  0.0571
   9723SM   C1F13148   4.675   0.103   2.914 -0.7024  0.0693  0.6141
   9723SM    OF13149   4.701  -0.006   2.858  0.4499 -0.2530  0.0203
   9723SM   C2F13150   4.588   0.115   3.033  0.4497 -1.1866  0.3510
   9723SM   H2F13151   4.541   0.215   3.036 -1.2838 -2.0010  1.0028
   9723SM   H2G13152   4.656   0.107   3.120  2.1765  3.0442 -0.3495
   9723SM   C3F13153   4.473   0.016   3.038  0.0548  0.4531  0.0307
   9723SM   H3F13154   4.514  -0.087   3.038 -0.8606  0.0456 -1.9223
   9723SM   H3G13155   4.401   0.027   2.954 -0.0091  0.4602  0.0859
   9723SM   C4F13156   4.399   0.021   3.172  0.1571 -0.3500  0.0984
   9723SM   H4F13157   4.298  -0.024   3.159 -0.1894  0.6785 -0.8633
   9723SM   H4G13158   4.389   0.127   3.202  2.0980 -0.2681  0.5858
   9723SM   C5F13159   4.464  -0.039   3.297  0.4135  0.1374  0.2186
   9723SM   H5F13160   4.423   0.022   3.381 -1.0698 -0.4281 -0.0571
   9723SM   H5G13161   4.573  -0.019   3.294  0.2843  0.7348 -1.2932
   9723SM   C6F13162   4.429  -0.186   3.310 -0.0085 -0.3765 -0.6217
   9723SM   H6F13163   4.469  -0.240   3.222  2.6862  1.0208 -0.3680
   9723SM   H6G13164   4.318  -0.178   3.302  0.2268  2.3556 -2.5572
   9723SM   C7F13165   4.471  -0.254   3.443  0.6594 -0.3359  0.2408
   9723SM   H7F13166   4.579  -0.273   3.458  0.5310 -0.3678  1.1808
   9723SM   H7G13167   4.417  -0.351   3.452  1.1879 -0.5088  1.9177
   9723SM   C8F13168   4.424  -0.176   3.567 -0.4310 -0.0352 -0.1278
   9723SM   H8F13169   4.320  -0.139   3.549 -0.0886  0.3183 -1.4502
   9723SM   H8G13170   4.478  -0.079   3.573 -2.0285  0.8181  2.1164
   9723SM   C9F13171   4.438  -0.258   3.694 -0.1964  0.8405 -0.6755
   9723SM   H9F13172   4.544  -0.283   3.716 -0.9918 -1.7563  0.6146
   9723SM   H9G13173   4.388  -0.355   3.673  1.1865  0.0173 -0.2576
   9723SM  C10F13174   4.378  -0.186   3.812  0.1734  0.2015 -0.3017
   9723SM  H10F13175   4.271  -0.159   3.808  0.6056  1.9172 -1.1523
   9723SM  H10G13176   4.432  -0.089   3.822  0.2095  0.1009  0.6255
   9723SM  C11F13177   4.406  -0.258   3.941  0.0412 -0.5092  0.0365
   9723SM  H11F13178   4.514  -0.280   3.936 -0.2299 -1.8042 -0.4950
   9723SM  H11G13179   4.352  -0.355   3.942 -1.8870  0.4416  3.0625
   9723SM  C12F13180   4.370  -0.170   4.059 -0.7787  0.2432  0.1852
   9723SM  H12F13181   4.273  -0.122   4.033 -0.4936 -0.4540 -2.3456
   9723SM  H12G13182   4.444  -0.088   4.073 -1.2469  0.6099  0.5929
   9723SM  C13F13183   4.360  -0.246   4.188  0.2485 -0.2200 -0.1434
   9723SM  H13F13184   4.275  -0.314   4.168 -0.9895  1.0404  0.6190
   9723SM  H13G13185   4.333  -0.171   4.266  1.9775 -1.5881  1.8813
   9723SM  C14F13186   4.489  -0.319   4.224  0.2826 -0.2157 -0.3021
   9723SM  H14F13187   4.567  -0.250   4.185 -0.9434  2.3331  1.4575
   9723SM  H14G13188   4.483  -0.409   4.160  2.0268  0.7147 -1.8846
   9723SM  C15F13189   4.529  -0.325   4.380 -0.1396  0.2180  1.0753
   9723SM  H15F13190   4.440  -0.378   4.422 -0.1517  0.3747  1.2500
   9723SM  H15G13191   4.535  -0.223   4.425  2.8002 -0.0795  1.5082
   9723SM  C16F13192   4.656  -0.404   4.413  0.0166  0.4855 -0.0407
   9723SM  H16F13193   4.740  -0.352   4.362  1.3446 -0.6997  0.8344
   9723SM  H16G13194   4.643  -0.506   4.371 -0.0888  0.9857 -1.2663
   9723SM  C17F13195   4.694  -0.407   4.561  0.3837  0.2881  0.2190
   9723SM  H17F13196   4.612  -0.453   4.619  1.1832  0.8437  1.8505
   9723SM  H17G13197   4.704  -0.308   4.610  2.1431  0.3641 -0.2170
   9723SM  C18F13198   4.831  -0.463   4.599 -0.2359  0.6767  0.6418
   9723SM  H18F13199   4.898  -0.420   4.521 -0.4729 -1.5658 -0.8785
   9723SM  H18G13200   4.831  -0.570   4.571 -1.7710  0.8401 -0.0927
   9723SM  C19F13201   4.878  -0.433   4.744  0.6674 -0.3290  0.5634
   9723SM  H19F13202   4.895  -0.325   4.761  1.1990 -0.6542  2.2759
   9723SM  H19G13203   4.979  -0.472   4.770  0.5376 -0.2589  1.1861
   9723SM  C20F13204   4.784  -0.478   4.854  0.0877 -0.3802 -0.6811
   9723SM  H20F13205   4.778  -0.588   4.843 -1.8058 -0.3893  0.1037
   9723SM  H20G13206   4.686  -0.427   4.845  0.2545  0.1408  0.3242
   9723SM  C21F13207   4.852  -0.445   4.993 -0.1105  0.5953 -0.0067
   9723SM  H21F13208   4.778  -0.477   5.069  0.2310  4.4196  2.2101
   9723SM  H21G13209   4.862  -0.335   5.004  1.4498  0.5524 -0.6831
   9723SM  C22F13210   4.975  -0.524   5.024 -0.4482 -0.1602  0.6559
   9723SM  H22F13211   5.061  -0.488   4.964 -1.2209  3.0237  1.3052
   9723SM  H22G13212   4.958  -0.631   4.999  0.4257 -0.3773  0.9549
   9723SM  C23F13213   5.016  -0.508   5.171  0.5462 -1.1207 -0.1058
   9723SM  H23F13214   5.021  -0.402   5.203  0.3752 -1.4708  1.1288
   9723SM  H23G13215   5.111  -0.561   5.193 -0.6447 -2.8391  1.1664
   9723SM  H23H13216   4.937  -0.557   5.231  0.4424 -1.8431 -0.8218
   9823SM     N13217   7.324   1.184   2.212  0.2143  0.1237 -0.0178
   9823SM   C1513218   7.338   1.159   2.356 -0.5323  0.4334 -0.0583
   9823SM  H15A13219   7.405   1.235   2.394 -0.5314 -0.0123  0.8641
   9823SM  H15B13220   7.383   1.066   2.386 -2.3793 -0.0557  1.3790
   9823SM  H15C13221   7.245   1.167   2.411 -1.0684 -2.3876 -0.4298
   9823SM   C1413222   7.317   1.334   2.199  0.6262  0.6246  0.9106
   9823SM  H14A13223   7.386   1.396   2.255 -1.0316  3.0061  0.4870
   9823SM  H14B13224   7.217   1.365   2.226 -0.5370 -2.1777  0.1760
   9823SM  H14C13225   7.326   1.352   2.093 -1.2275 -2.3750  0.1292
   9823SM   C1313226   7.446   1.131   2.139 -0.9203 -0.8928  0.4656
   9823SM  H13A13227   7.530   1.197   2.153 -1.6800  0.4070 -0.8443
   9823SM  H13B13228   7.422   1.143   2.035  0.7636 -0.6621  0.0771
   9823SM  H13C13229   7.473   1.028   2.159  0.2582 -0.5674  0.5810
   9823SM   C1213230   7.197   1.127   2.157  0.1315  0.0322 -0.8047
   9823SM  H12A13231   7.194   1.163   2.055  0.1405 -0.2941 -0.9193
   9823SM  H12B13232   7.113   1.177   2.204  0.2406 -0.6419  0.1363
   9823SM   C1113233   7.167   0.977   2.156  0.0388 -0.4140 -0.2717
   9823SM  H11A13234   7.251   0.923   2.107  0.2086 -0.1859 -0.2347
   9823SM  H11B13235   7.077   0.969   2.092 -2.0931 -0.0860  2.5194
   9823SM     P13236   7.011   0.942   2.358 -0.0389  0.1045  0.5416
   9823SM   O1313237   7.022   1.036   2.467  0.8048 -0.6555 -0.1435
   9823SM   O1413238   6.905   0.972   2.255 -0.0024  0.0848  0.2365
   9823SM   O1113239   7.001   0.797   2.419  0.3864 -0.1818 -0.0494
   9823SM   O1213240   7.154   0.930   2.291  0.6084 -0.5070 -0.0829
   9823SM   C1S13241   7.091   0.747   2.518  0.2490  0.6216 -0.1845
   9823SM   H1S13242   7.186   0.804   2.523  1.6932 -1.6912  0.1434
   9823SM   H1T13243   7.116   0.644   2.484  0.5198  1.5202 -2.9135
   9823SM    NF13244   7.113   0.648   2.757 -0.4951 -0.0353 -0.8043
   9823SM   HNF13245   7.118   0.551   2.781  1.4194  0.8321  3.0095
   9823SM   C2S13246   7.018   0.709   2.661 -0.0269  0.4336  0.5132
   9823SM   H2S13247   6.989   0.804   2.713  1.0019 -0.1853  2.2937
   9823SM   C3S13248   6.898   0.619   2.652  0.5352 -0.9333 -0.2169
   9823SM   H3S13249   6.923   0.525   2.598  0.8586 -1.8168  1.4113
   9823SM    O313250   6.793   0.683   2.577  0.1160 -0.4934  0.1123
   9823SM   HO313251   6.834   0.757   2.531  0.6383  0.8510  2.5942
   9823SM   C4S13252   6.839   0.593   2.783 -1.0714 -0.1415 -0.4601
   9823SM   H4S13253   6.829   0.679   2.850 -2.0316  0.5444 -1.4495
   9823SM   C5S13254   6.807   0.472   2.834 -0.4517 -0.3422  0.2305
   9823SM   H5S13255   6.813   0.383   2.769 -2.0732  0.0827 -0.5453
   9823SM   C6S13256   6.752   0.450   2.970  0.4121 -0.3771 -0.2011
   9823SM   H6S13257   6.774   0.536   3.036  0.7031 -1.4570  1.1541
   9823SM   H6T13258   6.786   0.356   3.019 -1.6377  0.1721  2.5353
   9823SM   C7S13259   6.592   0.435   2.955  0.0220 -0.3509 -0.0376
   9823SM   H7S13260   6.569   0.340   2.901 -0.3876  0.2557 -0.9590
   9823SM   H7T13261   6.558   0.525   2.900 -2.0296 -1.1385 -0.1532
   9823SM   C8S13262   6.522   0.440   3.097  0.1067  0.0234  0.4992
   9823SM   H8S13263   6.415   0.465   3.081 -0.2933 -0.8385  1.6840
   9823SM   H8T13264   6.570   0.527   3.147 -0.3584  0.2118  0.6224
   9823SM   C9S13265   6.522   0.315   3.178  0.2747  0.5239 -0.3764
   9823SM   H9S13266   6.628   0.282   3.188  0.1848  0.5871  0.9630
   9823SM   H9T13267   6.456   0.233   3.141  0.1339  0.8502 -0.8532
   9823SM  C10S13268   6.452   0.335   3.311 -0.3764 -0.4834 -0.5622
   9823SM  H10S13269   6.357   0.278   3.310  0.9338 -2.7797 -1.1458
   9823SM  H10T13270   6.430   0.442   3.329  0.1610 -0.6154  1.1078
   9823SM  C11S13271   6.538   0.278   3.429 -0.1941  0.5122 -0.3218
   9823SM  H11S13272   6.634   0.334   3.433 -0.5050  1.2165 -1.9179
   9823SM  H11T13273   6.567   0.173   3.407 -0.5733  0.3363 -0.0065
   9823SM  C12S13274   6.456   0.292   3.561 -0.1683  0.8388  0.3913
   9823SM  H12S13275   6.363   0.232   3.560  0.8401 -0.8607  2.1188
   9823SM  H12T13276   6.426   0.399   3.569 -4.0374 -0.1524  0.8699
   9823SM  C13S13277   6.541   0.252   3.683  0.1432 -0.3774 -0.2993
   9823SM  H13S13278   6.632   0.313   3.664 -0.8997  1.7685  1.1518
   9823SM  H13T13279   6.570   0.147   3.664  0.3646 -0.6254  1.3035
   9823SM  C14S13280   6.472   0.285   3.819 -0.1294  0.5879 -0.2657
   9823SM  H14S13281   6.369   0.245   3.830 -0.2736  1.0997  0.2980
   9823SM  H14T13282   6.466   0.396   3.821  2.8290  0.8265 -0.7319
   9823SM  C15S13283   6.567   0.235   3.935  0.5057  0.0766  0.5196
   9823SM  H15S13284   6.672   0.266   3.916  0.1419  1.1809  0.2132
   9823SM  H15T13285   6.559   0.124   3.937 -0.1987  0.0867 -0.5469
   9823SM  C16S13286   6.537   0.286   4.076 -0.6554 -0.3529  0.1866
   9823SM  H16S13287   6.430   0.267   4.097 -0.0906 -3.7722  0.6592
   9823SM  H16T13288   6.553   0.395   4.085  1.0035 -0.7109  4.2981
   9823SM  C17S13289   6.642   0.243   4.181 -0.1724 -0.0042 -0.2258
   9823SM  H17S13290   6.745   0.246   4.141  0.0192 -0.5679  0.2259
   9823SM  H17T13291   6.618   0.140   4.213 -1.7393  0.7917  1.3548
   9823SM  C18S13292   6.631   0.335   4.302  0.3612  0.6130 -0.3103
   9823SM  H18S13293   6.679   0.284   4.388 -0.5078  0.6340  0.2050
   9823SM  H18T13294   6.525   0.361   4.325  0.9002  1.7666  1.0230
   9823SM  H18U13295   6.679   0.434   4.285  1.6641  0.2692  1.1562
   9823SM   C1F13296   7.207   0.727   2.807 -0.7814 -0.4760 -0.3442
   9823SM    OF13297   7.242   0.835   2.756 -0.2053 -0.1239  0.2799
   9823SM   C2F13298   7.273   0.684   2.938  0.2931  0.2469  0.2333
   9823SM   H2F13299   7.383   0.678   2.923  0.7398  1.5335  2.5585
   9823SM   H2G13300   7.223   0.593   2.979 -1.3030  0.9588 -0.0729
   9823SM   C3F13301   7.260   0.798   3.048 -0.0941  0.4951  0.5144
   9823SM   H3F13302   7.150   0.799   3.064 -0.1071  1.9770  0.4793
   9823SM   H3G13303   7.288   0.901   3.018  1.4691 -0.2078 -0.5492
   9823SM   C4F13304   7.326   0.780   3.183  0.1060  0.7499 -0.7355
   9823SM   H4F13305   7.309   0.862   3.256 -1.1550 -0.9061  0.9200
   9823SM   H4G13306   7.436   0.764   3.173  0.3142  1.6197  0.0350
   9823SM   C5F13307   7.272   0.647   3.256  0.6953  0.4095  0.3925
   9823SM   H5F13308   7.260   0.553   3.199  2.5747 -0.0433  0.6666
   9823SM   H5G13309   7.173   0.667   3.301  1.2205  0.9366  1.3467
   9823SM   C6F13310   7.369   0.606   3.369 -0.0663 -0.7488  0.8832
   9823SM   H6F13311   7.462   0.581   3.313  0.8109  1.4716  1.2383
   9823SM   H6G13312   7.326   0.522   3.429 -1.4745 -0.0060  0.9453
   9823SM   C7F13313   7.396   0.725   3.463 -0.6554 -0.2113 -0.4429
   9823SM   H7F13314   7.306   0.789   3.471  0.4840  1.4074  0.2346
   9823SM   H7G13315   7.471   0.780   3.401 -0.9378 -0.3499 -0.9063
   9823SM   C8F13316   7.465   0.685   3.594  0.2838  0.2489 -0.2978
   9823SM   H8F13317   7.558   0.628   3.574  1.9932  2.4471  0.9797
   9823SM   H8G13318   7.392   0.619   3.647  0.3373  0.5125  0.1041
   9823SM   C9F13319   7.502   0.805   3.684 -0.1069 -0.2553 -0.0385
   9823SM   H9F13320   7.409   0.854   3.719  0.2220 -1.0565  2.0816
   9823SM   H9G13321   7.563   0.873   3.620 -0.3635 -0.2887 -0.3170
   9823SM  C10F13322   7.586   0.754   3.807  0.6149  0.7913 -0.0284
   9823SM  H10F13323   7.665   0.683   3.773 -2.1498 -2.2236 -0.5773
   9823SM  H10G13324   7.522   0.701   3.881  1.4178  0.4819  0.4616
   9823SM  C11F13325   7.646   0.869   3.896  0.5086  0.1898  0.5808
   9823SM  H11F13326   7.574   0.953   3.890  1.6715  1.1592 -0.3120
   9823SM  H11G13327   7.726   0.924   3.842 -0.5216  0.9566 -0.1983
   9823SM  C12F13328   7.683   0.830   4.044  0.1545 -0.1712  0.1231
   9823SM  H12F13329   7.775   0.768   4.043 -0.0422 -0.4937  1.1397
   9823SM  H12G13330   7.604   0.772   4.096 -1.5356  1.4274 -0.5556
   9823SM  C13F13331   7.723   0.958   4.122 -0.0129 -0.7262  0.7248
   9823SM  H13F13332   7.630   1.012   4.149  0.0600 -0.5405  0.6087
   9823SM  H13G13333   7.790   1.022   4.061 -2.1491  0.1934 -0.7620
   9823SM  C14F13334   7.798   0.927   4.251 -0.4655 -0.4360 -0.2766
   9823SM  H14F13335   7.905   0.909   4.226 -0.6769 -1.0701 -0.7498
   9823SM  H14G13336   7.768   0.828   4.290  0.4696  0.1035  1.9370
   9823SM  C15F13337   7.785   1.031   4.352 -0.0759 -0.6010 -0.6111
   9823SM  H15F13338   7.680   1.059   4.377  1.0364  0.2408  3.9327
   9823SM  H15G13339   7.830   1.129   4.324 -2.6064  0.8418  0.0147
   9823SM  C16F13340   7.850   0.987   4.483 -0.1558  0.1770 -0.3650
   9823SM  H16F13341   7.959   0.973   4.463  0.0683 -1.8491  1.7984
   9823SM  H16G13342   7.809   0.888   4.513 -0.1497  0.3935  0.3650
   9823SM  C17F13343   7.826   1.085   4.597 -0.0612 -0.4594  0.3588
   9823SM  H17F13344   7.871   1.051   4.693 -1.7646  1.6861  2.0143
   9823SM  H17G13345   7.718   1.093   4.622 -0.0735 -0.3452  0.2715
   9823SM  C18F13346   7.891   1.225   4.579  0.0139 -0.4899  0.2640
   9823SM  H18F13347   7.878   1.256   4.473  0.1122  1.8909  0.8974
   9823SM  H18G13348   8.002   1.223   4.588  0.1347  1.0473 -0.5438
   9823SM  C19F13349   7.836   1.319   4.681 -0.0159 -0.3019  0.0803
   9823SM  H19F13350   7.853   1.286   4.786  4.6523 -1.0780 -0.6728
   9823SM  H19G13351   7.733   1.350   4.654  1.1129  2.3107 -1.6848
   9823SM  C20F13352   7.916   1.453   4.669 -0.5392 -0.4055  0.1546
   9823SM  H20F13353   7.944   1.467   4.562  0.2708 -0.3667  0.3654
   9823SM  H20G13354   8.015   1.444   4.720 -1.1240 -0.3396  1.3343
   9823SM  C21F13355   7.855   1.579   4.730 -0.2851 -0.0516 -0.5212
   9823SM  H21F13356   7.822   1.552   4.833 -0.3222  0.3885 -0.4150
   9823SM  H21G13357   7.765   1.613   4.676  0.1300  0.7579 -0.7088
   9823SM  C22F13358   7.945   1.701   4.732 -0.7481 -0.1401 -0.0695
   9823SM  H22F13359   8.040   1.678   4.784 -1.6018 -0.1920  1.5524
   9823SM  H22G13360   7.892   1.787   4.777  1.2479  1.7777 -1.2217
   9823SM  C23F13361   7.991   1.756   4.592  0.7609  0.1746  0.1855
   9823SM  H23F13362   8.051   1.850   4.593 -0.4106  0.9591 -0.6129
   9823SM  H23G13363   7.899   1.783   4.536  1.8207 -0.6074 -2.0368
   9823SM  H23H13364   8.043   1.676   4.536  1.4534 -0.1185  1.2230
   9923SM     N13365   1.340   0.048   2.609 -0.3995  0.2912  0.0173
   9923SM   C1513366   1.316   0.187   2.599  0.1005 -0.6374 -0.1965
   9923SM  H15A13367   1.334   0.239   2.692 -0.6868 -1.6790  0.5651
   9923SM  H15B13368   1.211   0.207   2.585  0.0435  0.2790  1.2944
   9923SM  H15C13369   1.381   0.229   2.524 -0.3967 -0.3313 -0.4595
   9923SM   C1413370   1.303  -0.015   2.483 -0.1690 -0.4927  0.0361
   9923SM  H14A13371   1.286  -0.122   2.493 -1.5651 -0.4537 -1.4551
   9923SM  H14B13372   1.376  -0.002   2.404  0.6704 -0.5509  0.7927
   9923SM  H14C13373   1.205   0.016   2.448 -0.0020 -0.1606 -0.1362
   9923SM   C1313374   1.491   0.033   2.637 -0.0185 -0.6776 -0.1041
   9923SM  H13A13375   1.508   0.101   2.719 -0.9665  1.8691 -1.8936
   9923SM  H13B13376   1.554   0.049   2.551 -2.8728 -2.6736 -2.7967
   9923SM  H13C13377   1.524  -0.069   2.648  0.4185 -0.6490 -1.1140
   9923SM   C1213378   1.261  -0.002   2.728 -0.0656  0.1013 -0.0530
   9923SM  H12A13379   1.153   0.004   2.720  0.0443  1.6609 -0.6661
   9923SM  H12B13380   1.292   0.042   2.822 -1.0513 -1.0699  0.8640
   9923SM   C1113381   1.283  -0.151   2.757  0.1430  0.5058  1.0727
   9923SM  H11A13382   1.237  -0.179   2.854  0.6625  0.2669  1.2521
   9923SM  H11B13383   1.391  -0.170   2.776  0.8636  0.0862 -2.6285
   9923SM     P13384   1.085  -0.273   2.638 -0.0796  0.2243  0.2913
   9923SM   O1313385   1.015  -0.145   2.617 -0.3454 -0.0036 -0.2470
   9923SM   O1413386   1.069  -0.378   2.530 -0.1442 -0.4950 -0.1762
   9923SM   O1113387   1.047  -0.342   2.778 -0.1019  0.5569  0.0279
   9923SM   O1213388   1.236  -0.238   2.652 -0.2792  0.0247  0.4133
   9923SM   C1S13389   0.987  -0.280   2.891 -0.2378  1.0677  0.0177
   9923SM   H1S13390   0.877  -0.280   2.874 -0.2798  2.7857  0.0641
   9923SM   H1T13391   1.014  -0.174   2.910 -0.6712  1.0993  0.4946
   9923SM    NF13392   0.976  -0.272   3.144 -0.6359 -0.4577  0.0935
   9923SM   HNF13393   1.043  -0.203   3.171 -0.6494 -0.7552  0.8803
   9923SM   C2S13394   1.023  -0.353   3.029  0.1849  0.0484 -1.1320
   9923SM   H2S13395   0.976  -0.454   3.033 -0.7357  0.4854  1.5938
   9923SM   C3S13396   1.175  -0.372   3.045  0.0256 -0.0507  0.7341
   9923SM   H3S13397   1.220  -0.271   3.032  0.6021 -0.1418  1.9151
   9923SM    O313398   1.231  -0.451   2.941  0.4474  0.4668 -0.6250
   9923SM   HO313399   1.152  -0.459   2.887 -0.6473 -0.5888  1.0489
   9923SM   C4S13400   1.213  -0.421   3.178  0.1202  0.3086 -0.7016
   9923SM   H4S13401   1.239  -0.335   3.241  1.3373 -0.4200 -0.1659
   9923SM   C5S13402   1.218  -0.546   3.226 -1.1869 -0.3577 -0.0397
   9923SM   H5S13403   1.185  -0.629   3.162  0.0087  0.8786 -2.3990
   9923SM   C6S13404   1.264  -0.581   3.372 -0.3659  0.5104  0.5114
   9923SM   H6S13405   1.353  -0.645   3.362 -1.2548 -0.5436 -1.0603
   9923SM   H6T13406   1.178  -0.638   3.413 -0.8488  0.2701 -0.7863
   9923SM   C7S13407   1.317  -0.464   3.458  0.0759 -0.3689  0.0000
   9923SM   H7S13408   1.239  -0.385   3.466 -0.6847 -1.2635  2.0860
   9923SM   H7T13409   1.402  -0.406   3.414 -0.6286  0.7191  0.0376
   9923SM   C8S13410   1.323  -0.507   3.611 -0.2647 -0.2677  0.2008
   9923SM   H8S13411   1.402  -0.449   3.665 -1.9797  0.4848  2.0388
   9923SM   H8T13412   1.346  -0.615   3.623 -1.7414 -0.5886  0.3761
   9923SM   C9S13413   1.187  -0.481   3.687 -0.2792  0.4117  0.4812
   9923SM   H9S13414   1.118  -0.553   3.639 -0.1465 -0.0898  1.0316
   9923SM   H9T13415   1.147  -0.379   3.667  1.9972  1.0583 -1.0905
   9923SM  C10S13416   1.200  -0.513   3.832  0.0364  0.8545 -0.1967
   9923SM  H10S13417   1.285  -0.451   3.867  0.4128  0.8228 -1.0491
   9923SM  H10T13418   1.229  -0.619   3.843  1.2917  1.1825 -0.2508
   9923SM  C11S13419   1.078  -0.464   3.908  0.2721 -0.3352  0.0558
   9923SM  H11S13420   0.996  -0.539   3.900 -1.9661  2.1033 -1.4165
   9923SM  H11T13421   1.043  -0.373   3.855  2.4448 -0.2132 -1.2674
   9923SM  C12S13422   1.107  -0.437   4.059 -0.7497 -0.4303  0.7943
   9923SM  H12S13423   1.214  -0.413   4.073 -0.0151 -3.1121  0.3297
   9923SM  H12T13424   1.093  -0.533   4.113 -0.6395 -0.5487  0.6140
   9923SM  C13S13425   1.020  -0.330   4.126 -0.0098  0.5345 -0.5895
   9923SM  H13S13426   0.923  -0.376   4.153  0.3497  0.0208 -0.1677
   9923SM  H13T13427   1.002  -0.247   4.053  0.3259  1.1669  0.0393
   9923SM  C14S13428   1.097  -0.263   4.240  0.1736 -0.3887 -0.1354
   9923SM  H14S13429   1.042  -0.167   4.252  1.3230  0.6025 -2.3116
   9923SM  H14T13430   1.197  -0.232   4.202  0.3006 -0.6090  0.0140
   9923SM  C15S13431   1.121  -0.339   4.370 -0.3731  0.4614  0.0976
   9923SM  H15S13432   1.188  -0.426   4.352  1.8207  1.6893  1.8791
   9923SM  H15T13433   1.023  -0.377   4.406  0.1056 -0.5382  0.3603
   9923SM  C16S13434   1.189  -0.251   4.475  0.0317 -0.0288  0.1525
   9923SM  H16S13435   1.115  -0.175   4.508  1.0264  1.5793 -1.1694
   9923SM  H16T13436   1.285  -0.211   4.434  0.4608 -1.1271  0.0415
   9923SM  C17S13437   1.242  -0.319   4.597 -0.3075 -0.1989 -0.9954
   9923SM  H17S13438   1.288  -0.238   4.657 -2.2912  1.1747 -1.2319
   9923SM  H17T13439   1.324  -0.388   4.569  0.8003  0.7479 -0.1973
   9923SM  C18S13440   1.137  -0.404   4.680 -0.3559 -0.9513 -0.1511
   9923SM  H18S13441   1.042  -0.349   4.697 -1.4742 -2.7533 -0.3692
   9923SM  H18T13442   1.181  -0.442   4.775  0.1011  0.6146  0.3046
   9923SM  H18U13443   1.099  -0.490   4.622  0.0517 -2.0017  1.0871
   9923SM   C1F13444   0.837  -0.257   3.168 -0.4663  0.2044 -0.4650
   9923SM    OF13445   0.758  -0.338   3.119  0.4380 -0.5686  0.1603
   9923SM   C2F13446   0.785  -0.147   3.263 -0.1461  0.5563  0.3868
   9923SM   H2F13447   0.716  -0.083   3.204  0.4285  1.1079  0.3000
   9923SM   H2G13448   0.878  -0.095   3.297  0.3255 -0.8719  1.3630
   9923SM   C3F13449   0.706  -0.204   3.387 -0.1937  0.4678  1.0159
   9923SM   H3F13450   0.783  -0.245   3.456  1.6621 -0.7951 -1.6152
   9923SM   H3G13451   0.646  -0.293   3.357 -0.3799  0.7289  0.6015
   9923SM   C4F13452   0.625  -0.095   3.455 -0.1660  0.0231 -0.9958
   9923SM   H4F13453   0.557  -0.043   3.384  0.5266  0.5844 -1.2607
   9923SM   H4G13454   0.698  -0.016   3.486 -0.6130  0.1229 -0.1571
   9923SM   C5F13455   0.554  -0.155   3.578 -1.0795 -0.1868  0.5646
   9923SM   H5F13456   0.632  -0.184   3.651  0.2917 -1.4033 -1.2828
   9923SM   H5G13457   0.506  -0.251   3.551  1.2175 -0.9336 -1.1937
   9923SM   C6F13458   0.453  -0.063   3.651  0.1414 -0.0663 -0.0184
   9923SM   H6F13459   0.365  -0.057   3.583  0.1148 -1.2525 -0.0986
   9923SM   H6G13460   0.494   0.039   3.669  2.0660 -0.9136  0.6211
   9923SM   C7F13461   0.416  -0.119   3.792 -0.2327 -0.5463  0.5367
   9923SM   H7F13462   0.493  -0.163   3.859  0.3348 -1.8434 -0.8829
   9923SM   H7G13463   0.353  -0.207   3.767  0.7488 -0.9409 -0.6291
   9923SM   C8F13464   0.340  -0.017   3.872 -0.0915  0.0256  0.1453
   9923SM   H8F13465   0.250  -0.003   3.809 -0.2424  0.6536  0.4909
   9923SM   H8G13466   0.401   0.075   3.873  1.1827 -0.7953  0.1955
   9923SM   C9F13467   0.299  -0.074   4.011  0.1024 -0.0729 -0.4498
   9923SM   H9F13468   0.387  -0.103   4.072  0.1348  1.2946  0.1939
   9923SM   H9G13469   0.252  -0.175   4.002  0.7436 -0.2943 -1.4560
   9923SM  C10F13470   0.224   0.035   4.092 -0.2889 -0.0611 -0.8032
   9923SM  H10F13471   0.147   0.080   4.026  0.7115 -0.1831 -2.0804
   9923SM  H10G13472   0.297   0.117   4.111 -0.2664 -0.1621 -0.4497
   9923SM  C11F13473   0.161  -0.016   4.222  0.8490  0.3107  0.1778
   9923SM  H11F13474   0.212  -0.107   4.260 -1.1559 -1.5907 -1.3476
   9923SM  H11G13475   0.059  -0.055   4.198  1.5585 -0.7247 -1.3069
   9923SM  C12F13476   0.150   0.095   4.330 -0.4386  0.4595 -0.2068
   9923SM  H12F13477   0.087   0.178   4.292  0.0097  0.8895 -0.0195
   9923SM  H12G13478   0.252   0.138   4.340 -0.0717  0.2948 -2.5688
   9923SM  C13F13479   0.088   0.047   4.464  0.2167  0.3237 -0.1808
   9923SM  H13F13480   0.168  -0.018   4.506  0.8174  0.9251 -0.3780
   9923SM  H13G13481   0.003  -0.017   4.431  0.1145  0.6565 -0.5637
   9923SM  C14F13482   0.050   0.170   4.552  0.7692  0.0395  0.3420
   9923SM  H14F13483   0.005   0.255   4.495 -0.8097 -1.3226 -0.5411
   9923SM  H14G13484   0.148   0.208   4.588  0.0626  2.1112  0.2402
   9923SM  C15F13485  -0.032   0.137   4.667  0.3005 -0.3203  0.3079
   9923SM  H15F13486   0.001   0.042   4.712 -0.2571  0.5667  2.7295
   9923SM  H15G13487  -0.142   0.126   4.650  0.2853 -0.1893  0.3204
   9923SM  C16F13488  -0.027   0.247   4.775 -0.4359  0.4358 -0.0875
   9923SM  H16F13489   0.076   0.244   4.814 -0.9243  0.4173  1.2532
   9923SM  H16G13490  -0.092   0.216   4.860 -2.0195  0.0946 -1.3606
   9923SM  C17F13491  -0.064   0.389   4.734 -0.5187  0.3857  0.9165
   9923SM  H17F13492  -0.171   0.388   4.703 -0.1560 -1.0234 -0.4275
   9923SM  H17G13493  -0.011   0.413   4.639  0.0912  1.0160  1.4006
   9923SM  C18F13494  -0.037   0.499   4.839  0.6411 -0.6630 -0.3722
   9923SM  H18F13495  -0.107   0.479   4.923  0.5102  1.1991  0.0075
   9923SM  H18G13496  -0.062   0.597   4.794  2.1855 -1.0231 -2.1232
   9923SM  C19F13497   0.113   0.503   4.882 -0.2209 -0.7438  0.1774
   9923SM  H19F13498   0.177   0.511   4.791 -2.3281  1.2234 -1.2637
   9923SM  H19G13499   0.140   0.410   4.937 -1.4520 -0.3403  1.5060
   9923SM  C20F13500   0.140   0.625   4.970 -0.3855  0.3188 -0.2595
   9923SM  H20F13501   0.100   0.715   4.919  0.8533  0.2627 -1.3749
   9923SM  H20G13502   0.248   0.647   4.978 -0.8622  2.5911  0.7314
   9923SM  C21F13503   0.099   0.606   5.119  0.9176  0.3510 -0.1958
   9923SM  H21F13504   0.132   0.511   5.166  1.2250  1.0543  1.0571
   9923SM  H21G13505  -0.011   0.591   5.113  1.0299 -2.1344  2.0017
   9923SM  C22F13506   0.119   0.727   5.207 -0.6499  0.1792  0.6532
   9923SM  H22F13507   0.224   0.755   5.183 -1.0639  0.5876 -0.7826
   9923SM  H22G13508   0.101   0.707   5.315  0.4894  0.4534  0.9125
   9923SM  C23F13509   0.040   0.855   5.176 -1.1306  0.0973  0.3983
   9923SM  H23F13510   0.103   0.919   5.110  0.9450  0.1116  2.2742
   9923SM  H23G13511   0.018   0.911   5.270  0.1842  0.4391  0.5223
   9923SM  H23H13512  -0.054   0.841   5.118 -0.6028 -1.3270 -0.1492
  10023SM     N13513   1.905   0.450   2.927 -0.5768  0.5558 -0.0901
  10023SM   C1513514   1.998   0.393   2.821 -0.1852  0.3068  0.0883
  10023SM  H15A13515   2.070   0.468   2.791 -1.0602  0.1769 -2.5905
  10023SM  H15B13516   1.949   0.351   2.734  2.1780  1.0599 -1.7037
  10023SM  H15C13517   2.053   0.314   2.870  2.5057  0.7785 -1.9266
  10023SM   C1413518   1.997   0.478   3.039  0.0016  0.1036  0.2980
  10023SM  H14A13519   2.054   0.391   3.071 -0.0930 -0.3952 -0.8448
  10023SM  H14B13520   1.943   0.522   3.121 -1.0322  0.2104 -0.4303
  10023SM  H14C13521   2.066   0.557   3.015  1.0835 -0.7704  0.4132
  10023SM   C1313522   1.846   0.583   2.890  0.9941 -0.7374  0.0409
  10023SM  H13A13523   1.774   0.625   2.959  0.8750 -0.7001 -0.1052
  10023SM  H13B13524   1.802   0.564   2.793  1.3986 -1.2200 -0.0527
  10023SM  H13C13525   1.922   0.656   2.871  0.2234 -0.6143 -2.9500
  10023SM   C1213526   1.810   0.343   2.973 -0.0210  0.5469  0.9393
  10023SM  H12A13527   1.858   0.254   3.013 -0.7865  0.0449  0.7571
  10023SM  H12B13528   1.765   0.299   2.885  0.3018 -0.0873  1.0788
  10023SM   C1113529   1.700   0.391   3.076  0.0552 -0.5137  0.0267
  10023SM  H11A13530   1.750   0.434   3.166 -0.4714  1.3870 -0.5325
  10023SM  H11B13531   1.640   0.305   3.112  0.3380  0.6881  3.8930
  10023SM     P13532   1.484   0.554   3.084  0.0561 -0.0386 -0.1701
  10023SM   O1313533   1.507   0.702   3.080 -0.1688 -0.0359  0.2304
  10023SM   O1413534   1.357   0.491   3.039 -1.0599 -0.1531  0.3297
  10023SM   O1113535   1.501   0.524   3.237 -0.1389  0.6191  0.0511
  10023SM   O1213536   1.606   0.485   3.020  0.0603 -0.0165  0.5007
  10023SM   C1S13537   1.394   0.532   3.324 -0.9451  0.4895 -0.5099
  10023SM   H1S13538   1.296   0.512   3.275 -1.3527 -0.7943  0.7544
  10023SM   H1T13539   1.385   0.639   3.352 -2.0467  0.4387 -0.6354
  10023SM    NF13540   1.289   0.430   3.514 -0.3628  0.4283 -0.1454
  10023SM   HNF13541   1.248   0.498   3.575 -2.2981  0.8791 -1.8320
  10023SM   C2S13542   1.419   0.448   3.455  0.4429  0.5207 -0.2736
  10023SM   H2S13543   1.461   0.350   3.422  0.1384  0.9387 -2.0274
  10023SM   C3S13544   1.528   0.534   3.528  0.1205 -0.6708  0.0941
  10023SM   H3S13545   1.489   0.637   3.539  1.3535 -0.0568 -0.9754
  10023SM    O313546   1.646   0.564   3.457 -0.1283  0.3987 -0.2447
  10023SM   HO313547   1.610   0.545   3.370  1.5373  0.0161 -0.8877
  10023SM   C4S13548   1.556   0.472   3.665 -0.3893  0.6940 -0.0416
  10023SM   H4S13549   1.573   0.363   3.661  1.4597  0.9222  0.8857
  10023SM   C5S13550   1.572   0.526   3.783  0.5700  0.1336 -0.5966
  10023SM   H5S13551   1.569   0.634   3.801  0.2484  0.0541 -0.1418
  10023SM   C6S13552   1.607   0.454   3.914  0.4075 -0.0079  0.3037
  10023SM   H6S13553   1.705   0.405   3.896  0.5332  0.7547 -1.2784
  10023SM   H6T13554   1.539   0.375   3.952  0.0750  0.3037  0.3624
  10023SM   C7S13555   1.634   0.539   4.039 -0.1683  0.1649  0.0078
  10023SM   H7S13556   1.541   0.591   4.072 -0.6266 -1.8324  2.1872
  10023SM   H7T13557   1.720   0.608   4.026  1.2260 -1.3821  0.6648
  10023SM   C8S13558   1.687   0.448   4.153  0.3697 -0.2657 -0.9418
  10023SM   H8S13559   1.795   0.430   4.135  0.4478  1.6433 -2.8620
  10023SM   H8T13560   1.644   0.345   4.149  1.1776 -0.6019 -1.2912
  10023SM   C9S13561   1.659   0.516   4.287 -0.8824 -0.2404 -0.2268
  10023SM   H9S13562   1.552   0.542   4.299 -0.8585  0.5694 -1.4901
  10023SM   H9T13563   1.715   0.612   4.279  1.2044 -1.3935 -0.2962
  10023SM  C10S13564   1.720   0.444   4.405  0.7578  0.5959 -0.1496
  10023SM  H10S13565   1.816   0.482   4.445  0.3141  1.0522  0.4831
  10023SM  H10T13566   1.735   0.336   4.383 -0.1226  0.2649  0.8133
  10023SM  C11S13567   1.636   0.453   4.530  0.2967  0.7254  0.3129
  10023SM  H11S13568   1.665   0.388   4.616  0.7267  0.6632  0.1253
  10023SM  H11T13569   1.538   0.414   4.497  0.8569  0.6884 -1.4009
  10023SM  C12S13570   1.620   0.586   4.603 -0.6592  0.7243  0.4863
  10023SM  H12S13571   1.528   0.584   4.666 -0.0017 -0.3526  1.4659
  10023SM  H12T13572   1.606   0.663   4.524  1.6528  2.1512  1.3598
  10023SM  C13S13573   1.745   0.637   4.685  0.9422 -0.0806 -0.2633
  10023SM  H13S13574   1.835   0.617   4.624  0.0554  0.6317 -1.8525
  10023SM  H13T13575   1.753   0.581   4.781  1.0377 -1.2560 -0.9392
  10023SM  C14S13576   1.735   0.783   4.725  1.1758  0.1318  0.7803
  10023SM  H14S13577   1.633   0.797   4.768  0.4631 -1.0051 -0.4833
  10023SM  H14T13578   1.736   0.833   4.626  1.5983 -0.8819  0.2666
  10023SM  C15S13579   1.839   0.843   4.826  0.4007  0.0334 -0.1291
  10023SM  H15S13580   1.938   0.800   4.797 -0.0784 -1.7406  0.7276
  10023SM  H15T13581   1.818   0.793   4.923  1.5543 -0.4268 -0.0897
  10023SM  C16S13582   1.839   0.993   4.827  0.6056 -0.0943  0.0252
  10023SM  H16S13583   1.881   1.033   4.732  2.7630 -1.1268  0.4720
  10023SM  H16T13584   1.898   1.041   4.908 -1.7685  2.0332  0.6209
  10023SM  C17S13585   1.699   1.064   4.842 -0.5932  0.2427 -0.2582
  10023SM  H17S13586   1.628   1.042   4.759  0.8522 -1.1006 -1.2024
  10023SM  H17T13587   1.721   1.172   4.840 -1.0455  0.4971  3.0129
  10023SM  C18S13588   1.632   1.024   4.968  0.3738 -0.2358  0.7238
  10023SM  H18S13589   1.625   0.914   4.967  2.8746 -0.4675 -1.0348
  10023SM  H18T13590   1.533   1.075   4.973 -0.0235 -0.9822  0.6102
  10023SM  H18U13591   1.690   1.059   5.057  0.7347 -0.4010  0.5515
  10023SM   C1F13592   1.205   0.338   3.479  0.4081  0.0205  0.3250
  10023SM    OF13593   1.237   0.247   3.406  0.4727 -0.1229  0.1009
  10023SM   C2F13594   1.069   0.351   3.523  0.5401 -0.7043 -0.2046
  10023SM   H2F13595   1.006   0.420   3.463  0.5746  1.6941  2.3016
  10023SM   H2G13596   1.071   0.404   3.621 -0.3181 -0.9922 -0.0198
  10023SM   C3F13597   0.982   0.225   3.552  0.4206  0.3430  0.2100
  10023SM   H3F13598   1.023   0.177   3.643  0.9578  2.7987  1.3466
  10023SM   H3G13599   0.999   0.141   3.480 -0.8875 -0.3901  0.7234
  10023SM   C4F13600   0.829   0.252   3.563 -0.4471  0.0648 -0.2894
  10023SM   H4F13601   0.769   0.161   3.585 -2.2255  1.4480  0.8909
  10023SM   H4G13602   0.798   0.277   3.459  0.1155  1.6692 -0.0932
  10023SM   C5F13603   0.792   0.364   3.656 -0.4905 -0.2089  0.5532
  10023SM   H5F13604   0.687   0.383   3.623 -0.2138 -1.8095 -1.3867
  10023SM   H5G13605   0.843   0.460   3.633 -1.0724 -0.1851 -0.7468
  10023SM   C6F13606   0.814   0.325   3.796  0.3820 -0.0165 -0.2584
  10023SM   H6F13607   0.924   0.312   3.807  0.4235  1.3858  1.3058
  10023SM   H6G13608   0.771   0.225   3.819  0.6896  0.2176  1.4628
  10023SM   C7F13609   0.777   0.432   3.894  0.4209 -0.1151 -0.6576
  10023SM   H7F13610   0.682   0.486   3.872  0.6073  2.3425  3.4813
  10023SM   H7G13611   0.862   0.502   3.885  2.7283 -2.4899  1.0843
  10023SM   C8F13612   0.765   0.393   4.042  0.6113 -0.2459 -0.0544
  10023SM   H8F13613   0.674   0.341   4.078  0.3791 -0.9705 -1.5637
  10023SM   H8G13614   0.769   0.489   4.097  0.3132  0.1668 -0.7384
  10023SM   C9F13615   0.872   0.305   4.092 -0.5254  0.2415 -0.4100
  10023SM   H9F13616   0.965   0.363   4.108 -0.3443  0.0859 -0.8862
  10023SM   H9G13617   0.900   0.217   4.029 -1.9494 -0.4766 -0.0909
  10023SM  C10F13618   0.848   0.230   4.220  0.1713  0.1037  0.8160
  10023SM  H10F13619   0.941   0.173   4.241 -0.5693 -2.9375 -3.0658
  10023SM  H10G13620   0.775   0.147   4.213 -2.0327  1.9937  0.2278
  10023SM  C11F13621   0.816   0.313   4.348 -0.6352 -0.2912 -0.0652
  10023SM  H11F13622   0.764   0.407   4.320 -0.3386  0.3680  1.5034
  10023SM  H11G13623   0.917   0.348   4.378 -0.0463 -2.0217  0.0492
  10023SM  C12F13624   0.738   0.244   4.456 -0.3879 -0.1153  0.1994
  10023SM  H12F13625   0.769   0.138   4.466 -0.2895 -0.0112  1.1526
  10023SM  H12G13626   0.632   0.240   4.424  0.1957  1.4656 -2.1568
  10023SM  C13F13627   0.764   0.307   4.597 -0.0955  0.1785  0.6637
  10023SM  H13F13628   0.715   0.406   4.587  0.2020  0.1823 -0.9763
  10023SM  H13G13629   0.873   0.317   4.617  0.6069  0.2747 -2.6359
  10023SM  C14F13630   0.681   0.239   4.708 -0.3092 -0.1111  0.1334
  10023SM  H14F13631   0.703   0.299   4.799  1.1253  0.2025 -0.3943
  10023SM  H14G13632   0.725   0.137   4.712  0.1115  0.0485 -0.3113
  10023SM  C15F13633   0.531   0.237   4.701 -0.9875  0.1348 -0.3228
  10023SM  H15F13634   0.506   0.206   4.598 -0.6714  0.2369 -0.4308
  10023SM  H15G13635   0.488   0.336   4.729  2.1913  1.5197  0.0937
  10023SM  C16F13636   0.482   0.132   4.802 -0.1178  0.0985  0.1241
  10023SM  H16F13637   0.497   0.158   4.909 -3.5004  2.4204  0.1559
  10023SM  H16G13638   0.537   0.039   4.774  1.3222  0.9403  0.0371
  10023SM  C17F13639   0.329   0.111   4.807 -0.5223 -0.5122  0.1349
  10023SM  H17F13640   0.295   0.087   4.704  1.4217 -1.6198 -0.2887
  10023SM  H17G13641   0.287   0.209   4.837  1.4259  0.3987  0.0360
  10023SM  C18F13642   0.281   0.013   4.916  0.5779  0.1262 -0.0088
  10023SM  H18F13643   0.171   0.019   4.929  0.4104 -2.3739  0.0970
  10023SM  H18G13644   0.329   0.041   5.012  0.9633  1.0924 -0.4659
  10023SM  C19F13645   0.314  -0.133   4.880  0.3740  0.1096  0.4408
  10023SM  H19F13646   0.398  -0.133   4.808  0.9029  2.5527  0.9675
  10023SM  H19G13647   0.225  -0.171   4.826  1.2604 -2.8279  0.9096
  10023SM  C20F13648   0.336  -0.227   4.995 -0.3026  0.9640 -0.3869
  10023SM  H20F13649   0.427  -0.186   5.044  1.7410 -2.4564 -1.0014
  10023SM  H20G13650   0.359  -0.329   4.956  0.4364  1.6353 -1.7879
  10023SM  C21F13651   0.214  -0.233   5.084  0.1671  1.3532 -0.9704
  10023SM  H21F13652   0.118  -0.262   5.036 -1.5921  1.8162  2.0068
  10023SM  H21G13653   0.192  -0.137   5.135 -0.4464 -0.7626  3.2572
  10023SM  C22F13654   0.228  -0.328   5.206 -0.0455  0.4240  0.3591
  10023SM  H22F13655   0.304  -0.287   5.275  1.1068 -0.4493 -0.3495
  10023SM  H22G13656   0.253  -0.433   5.178  0.8816  0.6432  0.3445
  10023SM  C23F13657   0.093  -0.329   5.280  0.4485  0.3276  0.1971
  10023SM  H23F13658   0.091  -0.225   5.319  0.3243  0.4973 -0.2527
  10023SM  H23G13659   0.097  -0.403   5.363 -0.9527  0.6347  0.5678
  10023SM  H23H13660   0.005  -0.335   5.212  1.3330  0.0934 -0.9632
  101CHL1    C313661   4.064   3.299   6.610 -0.4128  0.8087  0.0874
  101CHL1    H313662   4.029   3.404   6.603 -0.9588  0.5199 -2.3594
  101CHL1    O313663   4.067   3.255   6.743 -0.2459  0.0570  0.7456
  101CHL1   H3'13664   3.974   3.249   6.765 -0.3667 -0.3153  0.1428
  101CHL1    C413665   3.968   3.199   6.534  0.1256 -0.1139  0.1593
  101CHL1   H4A13666   3.994   3.099   6.574 -0.0187  1.0238  3.3946
  101CHL1   H4B13667   3.870   3.231   6.577 -0.3876 -1.2862 -0.0847
  101CHL1    C513668   3.952   3.217   6.383  0.2196  0.1485  0.3264
  101CHL1    C613669   3.840   3.242   6.324  0.5810 -0.4124 -0.2800
  101CHL1    H613670   3.750   3.245   6.387  1.1824 -0.6745  0.6156
  101CHL1    C713671   3.827   3.256   6.172 -0.3535  0.6774  0.2498
  101CHL1   H7A13672   3.747   3.185   6.141  0.0314  0.3633 -0.0299
  101CHL1   H7B13673   3.787   3.355   6.142 -0.9270  0.8813  1.6093
  101CHL1    C813674   3.958   3.226   6.090  0.2470  0.0735 -0.4544
  101CHL1    H813675   3.962   3.116   6.076 -0.4498  0.0039 -0.1405
  101CHL1   C1413676   3.953   3.308   5.961  0.0355  0.4344 -0.3970
  101CHL1   H1413677   3.961   3.416   5.988 -4.1815  0.6424  0.7917
  101CHL1   C1513678   3.823   3.302   5.881  0.4699 -0.0737 -0.1413
  101CHL1  H15A13679   3.759   3.212   5.891 -1.8716  1.6316  1.2609
  101CHL1  H15B13680   3.747   3.378   5.912  1.0257  1.3275 -2.0487
  101CHL1   C1613681   3.867   3.343   5.739 -0.4154 -1.0369  0.1721
  101CHL1  H16A13682   3.830   3.281   5.654  0.7910 -0.8879 -0.4954
  101CHL1  H16B13683   3.825   3.443   5.715  1.2121 -0.2205  0.5959
  101CHL1   C1713684   4.024   3.366   5.746 -0.5167  0.5004 -0.1038
  101CHL1   H1713685   4.036   3.472   5.777 -1.1426  0.4568  0.3129
  101CHL1   C1313686   4.072   3.284   5.865  1.1024  0.0134  0.1339
  101CHL1   C1813687   4.081   3.135   5.824 -0.1840 -0.6580  0.4531
  101CHL1  H18A13688   3.993   3.098   5.767 -0.9488  0.8121  0.6261
  101CHL1  H18B13689   4.177   3.114   5.772 -0.8977  0.1124 -1.2625
  101CHL1  H18C13690   4.086   3.070   5.914 -0.3179  1.1124  1.7941
  101CHL1   C1213691   4.200   3.318   5.937 -0.5843 -0.5056  0.3634
  101CHL1  H12A13692   4.294   3.290   5.885 -0.3018  0.1536  0.5113
  101CHL1  H12B13693   4.207   3.429   5.939 -4.2419 -0.1507  0.8862
  101CHL1   C1113694   4.212   3.256   6.077  0.2020  0.4378  0.9434
  101CHL1  H11A13695   4.227   3.146   6.073 -2.4605 -0.0402  1.8561
  101CHL1  H11B13696   4.303   3.292   6.129  0.6575 -0.4445  0.7779
  101CHL1    C913697   4.084   3.274   6.167 -1.0224  0.8203  0.8201
  101CHL1    H913698   4.080   3.384   6.179  2.3750  1.1973 -0.5482
  101CHL1   C1013699   4.088   3.215   6.309 -0.2187 -0.0727  0.7423
  101CHL1   C1913700   4.152   3.075   6.311  0.5013  0.2536 -0.0712
  101CHL1  H19A13701   4.248   3.069   6.256 -0.4394 -0.2879 -1.7258
  101CHL1  H19B13702   4.173   3.065   6.420 -0.3566  1.9238  0.2887
  101CHL1  H19C13703   4.085   2.997   6.270 -0.2024  0.3098  0.9142
  101CHL1    C113704   4.185   3.314   6.385  1.0120 -1.0141  0.5013
  101CHL1   H1A13705   4.285   3.316   6.337 -0.2483  0.6185 -2.2632
  101CHL1   H1B13706   4.129   3.410   6.381  0.0793 -1.5224  0.9932
  101CHL1    C213707   4.200   3.297   6.536  0.4168  0.1665 -0.2373
  101CHL1   H2A13708   4.281   3.362   6.575  1.4241  0.4548 -2.6367
  101CHL1   H2B13709   4.240   3.195   6.559  0.6831  0.0258 -1.2701
  101CHL1   C2013710   4.103   3.357   5.615  0.0922  0.0241 -0.4397
  101CHL1   H2013711   4.084   3.255   5.576  0.3611  0.0010 -0.5175
  101CHL1   C2113712   4.254   3.385   5.632  0.0415  0.5827  0.0091
  101CHL1  H21A13713   4.267   3.456   5.716  0.1857  0.8033 -0.2008
  101CHL1  H21B13714   4.306   3.415   5.538 -1.0687 -1.1379 -1.2234
  101CHL1  H21C13715   4.304   3.294   5.673 -1.5656  0.0492  0.8910
  101CHL1   C2213716   4.047   3.449   5.498 -0.9229 -0.2658 -0.7142
  101CHL1  H22A13717   3.954   3.507   5.519 -0.7129 -0.5239  1.0443
  101CHL1  H22B13718   4.138   3.506   5.471 -1.1594  0.9711  0.9904
  101CHL1   C2313719   4.032   3.374   5.365  0.0063  0.2825 -0.6682
  101CHL1  H23A13720   4.126   3.317   5.350  0.6899  2.0040 -3.7217
  101CHL1  H23B13721   3.960   3.290   5.379 -1.5348  1.8923  1.7067
  101CHL1   C2413722   4.017   3.465   5.250 -0.1999 -0.6644 -0.3116
  101CHL1  H24A13723   3.910   3.495   5.241  0.1833  1.3209  1.1106
  101CHL1  H24B13724   4.076   3.559   5.245 -0.2044 -0.6800 -0.7242
  101CHL1   C2513725   4.037   3.392   5.116 -0.5405  0.1089 -0.3952
  101CHL1   H2513726   4.143   3.360   5.106 -0.3215  0.8842 -0.5840
  101CHL1   C2613727   3.956   3.261   5.118  0.3282  1.1023 -0.7218
  101CHL1  H26A13728   3.976   3.197   5.207 -3.1797  0.1178 -0.5189
  101CHL1  H26B13729   3.849   3.283   5.137 -0.9490 -1.9394 -3.4264
  101CHL1  H26C13730   3.972   3.214   5.018 -0.3127 -1.5299  0.3352
  101CHL1   C2713731   3.993   3.491   5.001 -0.0131  0.0481 -0.0950
  101CHL1  H27A13732   3.882   3.493   4.992 -0.1876 -0.7253  1.5571
  101CHL1  H27B13733   4.030   3.595   5.013 -2.2452  1.2479 -2.4313
  101CHL1  H27C13734   4.028   3.451   4.903  0.0487 -0.1581  0.0107
  102CHL1    C313735   2.043   3.263   6.328  0.5079  0.1704 -0.8795
  102CHL1    H313736   2.120   3.334   6.292  1.9385 -0.6942  0.3271
  102CHL1    O313737   2.078   3.230   6.468  0.3888 -0.0336  0.2453
  102CHL1   H3'13738   2.147   3.163   6.457 -0.4197 -0.6548 -1.2902
  102CHL1    C413739   1.900   3.321   6.331 -0.1308  0.0322  0.0086
  102CHL1   H4A13740   1.844   3.248   6.393 -1.3656  1.1556  0.2612
  102CHL1   H4B13741   1.902   3.416   6.387  0.9009  1.1719 -1.8577
  102CHL1    C513742   1.834   3.327   6.197  0.6725  0.1951 -0.3722
  102CHL1    C613743   1.786   3.444   6.147  0.1525 -0.0534 -0.0179
  102CHL1    H613744   1.782   3.535   6.208 -1.5459  0.3029 -0.5878
  102CHL1    C713745   1.716   3.452   6.016 -0.2453  0.1349 -0.1214
  102CHL1   H7A13746   1.624   3.513   6.026  0.4495  1.7337 -2.6036
  102CHL1   H7B13747   1.775   3.512   5.943 -0.4537 -0.2481 -0.6107
  102CHL1    C813748   1.673   3.313   5.957  0.1669 -0.3903  0.5244
  102CHL1    H813749   1.587   3.280   6.020  1.1482 -0.8586  1.6672
  102CHL1   C1413750   1.634   3.323   5.812  0.2172  0.1121 -0.1376
  102CHL1   H1413751   1.729   3.357   5.765 -0.3228  1.6930 -0.1423
  102CHL1   C1513752   1.535   3.432   5.774 -0.6764 -0.0761  0.1695
  102CHL1  H15A13753   1.454   3.420   5.849  0.0457 -1.2933  0.8057
  102CHL1  H15B13754   1.576   3.535   5.773  2.4402 -1.1065  2.6842
  102CHL1   C1613755   1.484   3.400   5.632  0.0261  0.4891 -0.0578
  102CHL1  H16A13756   1.376   3.384   5.650 -0.1169  1.6376  0.1581
  102CHL1  H16B13757   1.497   3.473   5.549  0.2234  2.0435  1.3008
  102CHL1   C1713758   1.545   3.264   5.596  0.6816 -0.0063 -0.3075
  102CHL1   H1713759   1.646   3.277   5.552  1.3641 -2.9058  0.2089
  102CHL1   C1313760   1.585   3.195   5.738  1.1529 -1.1876 -0.3955
  102CHL1   C1813761   1.456   3.141   5.801  0.3222  0.2869  0.4995
  102CHL1  H18A13762   1.380   3.221   5.808  0.5346  0.5166  0.1812
  102CHL1  H18B13763   1.420   3.049   5.750  0.0345 -1.2489  3.2614
  102CHL1  H18C13764   1.477   3.102   5.903  0.6292  0.5487  0.5388
  102CHL1   C1213765   1.709   3.104   5.744  0.2292  0.0435  0.5287
  102CHL1  H12A13766   1.692   3.011   5.686 -1.0123 -0.2811  1.3620
  102CHL1  H12B13767   1.791   3.159   5.694  0.8909 -0.3087  1.2124
  102CHL1   C1113768   1.753   3.084   5.887 -0.1840  0.0566 -0.1792
  102CHL1  H11A13769   1.668   3.027   5.930 -0.1605 -0.0348 -0.2533
  102CHL1  H11B13770   1.839   3.013   5.879  0.8596  1.2127  0.4766
  102CHL1    C913771   1.784   3.211   5.974  0.4031 -0.4266 -0.0029
  102CHL1    H913772   1.871   3.262   5.928 -1.4368  1.9069 -1.1030
  102CHL1   C1013773   1.832   3.192   6.124  0.4156  0.1966 -0.2202
  102CHL1   C1913774   1.746   3.089   6.185  0.1301  0.0700  0.2162
  102CHL1  H19A13775   1.640   3.123   6.190 -0.0822 -0.6511  0.7176
  102CHL1  H19B13776   1.745   2.992   6.131 -1.5707  0.2672 -0.1553
  102CHL1  H19C13777   1.774   3.057   6.287  0.1424 -0.9503 -0.0991
  102CHL1    C113778   1.980   3.141   6.118  0.2553 -0.0027  0.9113
  102CHL1   H1A13779   1.982   3.041   6.070 -1.5580  0.5176 -0.3747
  102CHL1   H1B13780   2.031   3.214   6.052  1.3514  0.1941  1.9353
  102CHL1    C213781   2.050   3.132   6.250 -0.2585  0.0747 -0.0003
  102CHL1   H2A13782   2.154   3.103   6.225 -0.6115 -0.4255 -0.9653
  102CHL1   H2B13783   2.000   3.048   6.301  0.0781  0.5978  1.2131
  102CHL1   C2013784   1.452   3.190   5.498 -0.0356 -0.5772 -0.1868
  102CHL1   H2013785   1.349   3.178   5.536 -0.0694 -0.3847 -0.2197
  102CHL1   C2113786   1.510   3.049   5.482 -0.5849  0.2246 -0.3394
  102CHL1  H21A13787   1.605   3.055   5.425  1.1448 -1.5340  2.1569
  102CHL1  H21B13788   1.441   2.989   5.419 -0.0827 -0.4478 -0.2573
  102CHL1  H21C13789   1.523   2.986   5.572  2.7855  1.1877 -0.0316
  102CHL1   C2213790   1.443   3.254   5.359  0.0949  0.1909 -0.4473
  102CHL1  H22A13791   1.408   3.360   5.364  0.5763  0.3485 -0.4157
  102CHL1  H22B13792   1.542   3.245   5.310 -0.5398 -1.3287 -1.5041
  102CHL1   C2313793   1.352   3.181   5.253  0.3830 -0.4096 -0.4006
  102CHL1  H23A13794   1.397   3.082   5.230 -0.4814 -1.2072  1.1574
  102CHL1  H23B13795   1.249   3.163   5.293 -0.0554 -0.4854 -1.5127
  102CHL1   C2413796   1.327   3.274   5.131  0.6597 -0.5323 -0.0843
  102CHL1  H24A13797   1.300   3.375   5.168  2.4372 -0.0363 -0.0512
  102CHL1  H24B13798   1.420   3.290   5.074 -0.6210 -0.2217 -2.1764
  102CHL1   C2513799   1.223   3.228   5.026  0.4555  0.3709 -0.6244
  102CHL1   H2513800   1.241   3.119   5.010 -1.2992  0.0115 -0.3130
  102CHL1   C2613801   1.081   3.262   5.078 -1.0822 -0.3683  0.2314
  102CHL1  H26A13802   1.061   3.212   5.175 -0.3060 -1.4288 -0.1421
  102CHL1  H26B13803   1.066   3.372   5.085  1.7982  0.1066  0.3585
  102CHL1  H26C13804   1.000   3.223   5.013 -3.0006  1.3227  1.4800
  102CHL1   C2713805   1.254   3.291   4.890 -0.0624 -0.2899  0.4317
  102CHL1  H27A13806   1.174   3.273   4.815 -0.4981  1.4049  0.4378
  102CHL1  H27B13807   1.259   3.401   4.908 -0.4467 -0.1402 -0.3649
  102CHL1  H27C13808   1.345   3.267   4.832 -1.0232 -1.2340 -0.7469
  103CHL1    C313809   1.880   2.768   6.446  0.2156 -0.0549  0.0524
  103CHL1    H313810   1.857   2.872   6.416 -0.9825 -0.3070  0.0453
  103CHL1    O313811   1.933   2.776   6.581  0.0413  0.0453  0.3390
  103CHL1   H3'13812   2.021   2.809   6.564  0.8276 -1.8159  0.4843
  103CHL1    C413813   1.751   2.689   6.447  0.2772  0.8866  0.6981
  103CHL1   H4A13814   1.761   2.587   6.491 -0.8787 -0.2971 -1.5865
  103CHL1   H4B13815   1.677   2.747   6.507  0.1294  0.5070  0.8894
  103CHL1    C513816   1.688   2.684   6.301 -0.4053  0.4211 -0.5948
  103CHL1    C613817   1.560   2.724   6.282 -0.2963 -0.0326  0.0594
  103CHL1    H613818   1.506   2.748   6.375  1.3840 -1.2930  1.4390
  103CHL1    C713819   1.493   2.716   6.146 -0.1576 -0.4324 -0.7891
  103CHL1   H7A13820   1.395   2.665   6.154  0.5011 -1.4253  1.9884
  103CHL1   H7B13821   1.456   2.816   6.113 -0.7923  0.0301  1.1896
  103CHL1    C813822   1.580   2.653   6.036  0.3872  0.4452  0.8050
  103CHL1    H813823   1.566   2.543   6.044 -0.5644  0.4857 -0.1257
  103CHL1   C1413824   1.538   2.702   5.900 -0.5740 -0.7034  0.0334
  103CHL1   H1413825   1.566   2.809   5.889 -0.3996 -0.8714 -1.4151
  103CHL1   C1513826   1.393   2.696   5.857 -0.3175 -0.1860  0.6424
  103CHL1  H15A13827   1.363   2.592   5.883  0.1736 -0.5843 -0.3318
  103CHL1  H15B13828   1.337   2.770   5.918  0.4509  0.1045  1.0069
  103CHL1   C1613829   1.387   2.709   5.706 -0.3380  0.5131 -0.0126
  103CHL1  H16A13830   1.320   2.628   5.670  1.6625 -1.3099  0.1300
  103CHL1  H16B13831   1.355   2.811   5.678 -1.9738 -0.4511 -1.8507
  103CHL1   C1713832   1.539   2.687   5.655 -0.3764  0.1278 -0.2926
  103CHL1   H1713833   1.580   2.791   5.652  0.7242 -0.1685  2.3706
  103CHL1   C1313834   1.614   2.632   5.777  0.6133  0.7141 -0.3270
  103CHL1   C1813835   1.594   2.480   5.790 -0.1664  0.8593  0.5090
  103CHL1  H18A13836   1.648   2.430   5.708 -1.7058  0.2521 -0.1667
  103CHL1  H18B13837   1.643   2.433   5.878  1.2221 -0.0120 -0.6890
  103CHL1  H18C13838   1.489   2.447   5.782  0.3383 -0.8998  0.7295
  103CHL1   C1213839   1.762   2.659   5.794  0.3326 -0.7644 -0.4043
  103CHL1  H12A13840   1.821   2.602   5.719  0.0160  1.2964 -2.3205
  103CHL1  H12B13841   1.773   2.766   5.767 -0.7007 -0.4817  0.2649
  103CHL1   C1113842   1.819   2.621   5.936 -0.6353 -0.4369 -0.2440
  103CHL1  H11A13843   1.826   2.511   5.944 -0.6029 -0.3110  2.4218
  103CHL1  H11B13844   1.918   2.668   5.953 -0.7604 -0.1890 -0.1894
  103CHL1    C913845   1.729   2.683   6.056  0.9930 -0.0914 -1.0420
  103CHL1    H913846   1.735   2.793   6.042  1.3027  0.4638  2.5324
  103CHL1   C1013847   1.780   2.646   6.193  0.3810  0.6238  0.0533
  103CHL1   C1913848   1.807   2.491   6.202  0.5275  0.1851 -0.7820
  103CHL1  H19A13849   1.715   2.434   6.174  0.1642  0.4646 -0.1955
  103CHL1  H19B13850   1.884   2.459   6.130  0.0613  0.4842 -1.4177
  103CHL1  H19C13851   1.830   2.461   6.307 -2.2794  0.3564 -0.0190
  103CHL1    C113852   1.917   2.722   6.204 -0.0863  0.3080 -0.2999
  103CHL1   H1A13853   1.990   2.679   6.132  0.7887  1.2579 -0.0031
  103CHL1   H1B13854   1.895   2.828   6.181  0.6863  0.9211  1.5630
  103CHL1    C213855   1.982   2.717   6.345  0.1953 -0.2065  0.5835
  103CHL1   H2A13856   2.079   2.772   6.346  0.2146 -0.2405  0.5404
  103CHL1   H2B13857   2.012   2.613   6.368  2.3940  0.2908  0.2154
  103CHL1   C2013858   1.539   2.609   5.520  0.3731  0.1856 -0.0862
  103CHL1   H2013859   1.491   2.509   5.534  3.2791 -1.5295 -1.4984
  103CHL1   C2113860   1.684   2.589   5.475 -0.0896  0.5356 -0.4839
  103CHL1  H21A13861   1.745   2.524   5.541 -2.3992 -2.1788 -0.8394
  103CHL1  H21B13862   1.720   2.694   5.480 -1.3494  0.9668 -0.3781
  103CHL1  H21C13863   1.695   2.548   5.373  2.4149 -2.2472  0.7489
  103CHL1   C2213864   1.454   2.682   5.410 -0.5625  0.0313  0.2881
  103CHL1  H22A13865   1.371   2.744   5.449 -1.6919 -0.6027 -1.0402
  103CHL1  H22B13866   1.526   2.756   5.368  0.1507 -0.7251  0.1361
  103CHL1   C2313867   1.400   2.594   5.292  0.4435 -0.1718 -0.4955
  103CHL1  H23A13868   1.481   2.539   5.240  1.0133 -1.1745  1.3244
  103CHL1  H23B13869   1.335   2.509   5.323 -0.5783  0.3425 -1.1894
  103CHL1   C2413870   1.322   2.675   5.187 -0.2827  0.3090  0.8216
  103CHL1  H24A13871   1.253   2.746   5.238 -1.9485  1.2123 -2.4512
  103CHL1  H24B13872   1.387   2.727   5.113  1.3204 -2.8856 -0.2183
  103CHL1   C2513873   1.222   2.597   5.101  0.8965 -0.6738  0.7946
  103CHL1   H2513874   1.165   2.545   5.182  0.1927  0.7016  1.2110
  103CHL1   C2613875   1.115   2.681   5.022  0.1562  0.5032  0.1982
  103CHL1  H26A13876   1.035   2.613   4.986 -0.3921  1.4902 -0.5001
  103CHL1  H26B13877   1.056   2.748   5.088  0.7360  1.0728  0.1457
  103CHL1  H26C13878   1.154   2.734   4.932  0.2894  1.0636  0.5815
  103CHL1   C2713879   1.286   2.496   5.011 -0.0927 -0.2844 -0.0978
  103CHL1  H27A13880   1.325   2.545   4.918 -0.7619  0.8858  0.2208
  103CHL1  H27B13881   1.364   2.444   5.070 -1.5856 -1.8497  0.5611
  103CHL1  H27C13882   1.216   2.418   4.973  0.3195 -0.3217 -0.8069
  104CHL1    C313883   4.671   2.573   7.036 -0.1889  0.7656  0.0209
  104CHL1    H313884   4.586   2.642   7.016  0.3187  1.3677 -0.1033
  104CHL1    O313885   4.665   2.556   7.178 -0.2601 -0.0491  0.2648
  104CHL1   H3'13886   4.685   2.643   7.212  0.8091  0.1867 -0.8911
  104CHL1    C413887   4.664   2.437   6.978 -0.0120 -0.4754 -0.3318
  104CHL1   H4A13888   4.737   2.367   7.023  0.4518 -0.2773 -0.7688
  104CHL1   H4B13889   4.568   2.388   7.007  0.6693 -2.2950 -1.0210
  104CHL1    C513890   4.669   2.438   6.829 -0.3207  1.1138  0.2407
  104CHL1    C613891   4.575   2.383   6.742 -0.1207  0.2604 -0.6557
  104CHL1    H613892   4.492   2.320   6.776  0.2695  0.8276  1.4786
  104CHL1    C713893   4.573   2.383   6.592 -0.4874 -0.0444 -0.4726
  104CHL1   H7A13894   4.556   2.283   6.547  1.6806 -0.9324  0.5725
  104CHL1   H7B13895   4.498   2.460   6.563 -0.7939  0.4616  1.4808
  104CHL1    C813896   4.721   2.420   6.545 -0.9301  0.4334  0.4071
  104CHL1    H813897   4.784   2.331   6.564 -0.7454  0.9741  2.6220
  104CHL1   C1413898   4.715   2.446   6.392  0.7645 -0.5671  0.3105
  104CHL1   H1413899   4.647   2.533   6.382  0.6694 -0.3057  2.7975
  104CHL1   C1513900   4.643   2.343   6.296  0.3052 -0.5484  0.5841
  104CHL1  H15A13901   4.685   2.241   6.313 -1.4742 -1.3550  0.3726
  104CHL1  H15B13902   4.532   2.339   6.303  0.1556 -1.4679 -1.7327
  104CHL1   C1613903   4.697   2.390   6.154  0.3720  0.2060 -0.0880
  104CHL1  H16A13904   4.754   2.302   6.118 -0.3802 -0.4886  0.3677
  104CHL1  H16B13905   4.618   2.406   6.077 -0.6943 -1.2572  0.6419
  104CHL1   C1713906   4.792   2.507   6.175 -0.3828 -0.3826  0.6120
  104CHL1   H1713907   4.737   2.604   6.174  0.7815  0.3272 -1.5020
  104CHL1   C1313908   4.845   2.486   6.318 -0.2767  0.4851 -0.2327
  104CHL1   C1813909   4.946   2.361   6.321 -0.0313 -0.4842  0.1734
  104CHL1  H18A13910   5.044   2.375   6.269  0.4092  0.2142  1.1625
  104CHL1  H18B13911   4.968   2.325   6.424  1.5947  0.8381  0.3465
  104CHL1  H18C13912   4.894   2.275   6.276 -0.6721 -0.1245  0.2218
  104CHL1   C1213913   4.899   2.605   6.393  0.7628 -0.1894 -0.4271
  104CHL1  H12A13914   4.989   2.647   6.341  0.0015 -1.0795 -2.5722
  104CHL1  H12B13915   4.821   2.684   6.387  3.1599  2.4189  0.1673
  104CHL1   C1113916   4.914   2.583   6.545  0.2055 -0.3946  0.2259
  104CHL1  H11A13917   4.991   2.503   6.557 -0.2718 -0.8517  0.2393
  104CHL1  H11B13918   4.954   2.669   6.604 -0.5662  0.5311 -0.5807
  104CHL1    C913919   4.781   2.540   6.617 -0.6217 -0.3598 -0.0867
  104CHL1    H913920   4.707   2.622   6.616  0.1660  0.3737  0.8481
  104CHL1   C1013921   4.792   2.512   6.768 -0.0695  0.1199 -0.5468
  104CHL1   C1913922   4.919   2.419   6.806 -0.2627 -0.3051  0.6507
  104CHL1  H19A13923   4.920   2.407   6.916  0.1267 -0.2568  0.6544
  104CHL1  H19B13924   4.906   2.322   6.754  0.7335  0.4397 -1.0958
  104CHL1  H19C13925   5.016   2.458   6.768  0.8132  0.1953  3.6038
  104CHL1    C113926   4.812   2.651   6.840 -0.1916 -0.0899  0.0184
  104CHL1   H1A13927   4.911   2.688   6.808 -0.1673  0.6696  0.9311
  104CHL1   H1B13928   4.744   2.731   6.802  0.4646 -0.7043 -2.6568
  104CHL1    C213929   4.798   2.646   6.998  0.2352 -0.0639  0.2305
  104CHL1   H2A13930   4.780   2.745   7.043  1.1615  1.4675 -2.5141
  104CHL1   H2B13931   4.886   2.593   7.040 -0.0910  0.1075  1.1557
  104CHL1   C2013932   4.882   2.526   6.059 -0.1987  0.2312  0.2261
  104CHL1   H2013933   4.963   2.450   6.056  0.1244  0.4282  2.4381
  104CHL1   C2113934   4.939   2.667   6.062 -0.6322  0.2218 -0.3876
  104CHL1  H21A13935   4.990   2.688   6.158 -1.0998 -0.1925 -0.0421
  104CHL1  H21B13936   4.859   2.741   6.038 -1.2130  0.3598  1.8214
  104CHL1  H21C13937   5.009   2.676   5.976  2.0395  1.3621  1.7338
  104CHL1   C2213938   4.800   2.504   5.917 -0.3521 -0.0229 -0.4053
  104CHL1  H22A13939   4.791   2.395   5.899  0.7513  0.0829 -1.7504
  104CHL1  H22B13940   4.702   2.555   5.916  0.4513  1.6121 -2.0251
  104CHL1   C2313941   4.884   2.547   5.799  0.6865  0.2790 -0.5556
  104CHL1  H23A13942   4.858   2.655   5.795  1.1787  0.6686  3.0602
  104CHL1  H23B13943   4.995   2.536   5.791  0.6323  0.7931 -2.3658
  104CHL1   C2413944   4.836   2.487   5.664  0.6282  0.2831  0.3532
  104CHL1  H24A13945   4.846   2.377   5.652  0.0988  0.3966 -1.4198
  104CHL1  H24B13946   4.730   2.518   5.658  0.7264  0.5376 -0.0767
  104CHL1   C2513947   4.906   2.546   5.537 -0.0914 -0.6622 -0.2470
  104CHL1   H2513948   4.869   2.494   5.446 -2.0371 -0.6365  0.4993
  104CHL1   C2613949   4.884   2.695   5.526  0.2935  0.0845  0.4180
  104CHL1  H26A13950   4.907   2.747   5.622 -1.6464  0.5492  0.6782
  104CHL1  H26B13951   4.941   2.730   5.437 -0.5768 -3.2781 -1.6368
  104CHL1  H26C13952   4.781   2.715   5.491  0.5700 -1.3149 -1.3098
  104CHL1   C2713953   5.058   2.508   5.542  0.6323 -0.7746  0.3704
  104CHL1  H27A13954   5.095   2.500   5.437 -0.2974  0.4075 -0.0791
  104CHL1  H27B13955   5.118   2.566   5.616  1.8426 -2.0469  0.4273
  104CHL1  H27C13956   5.053   2.402   5.572 -1.6234 -0.9969 -0.5999
  105CHL1    C313957   4.885   3.246   6.996  0.0597 -0.1801  0.7950
  105CHL1    H313958   4.994   3.240   6.976 -0.3742  1.7730 -2.9572
  105CHL1    O313959   4.847   3.239   7.136  0.2081  0.4806  0.0678
  105CHL1   H3'13960   4.751   3.240   7.142  0.2090  0.4275  0.0928
  105CHL1    C413961   4.823   3.369   6.928 -0.2102  0.7352  0.1322
  105CHL1   H4A13962   4.725   3.388   6.978  0.1495 -0.7879  1.5092
  105CHL1   H4B13963   4.885   3.456   6.962 -0.0144 -0.1407  2.1776
  105CHL1    C513964   4.807   3.358   6.772  0.0734  0.0605 -0.4555
  105CHL1    C613965   4.862   3.444   6.690 -0.1609 -0.4084 -0.0124
  105CHL1    H613966   4.905   3.533   6.740 -2.3816  0.8660 -0.2653
  105CHL1    C713967   4.859   3.436   6.537 -0.3194  0.0610  0.1926
  105CHL1   H7A13968   4.850   3.541   6.501 -0.6012  0.3099  0.9535
  105CHL1   H7B13969   4.954   3.433   6.480 -0.8053  2.3664 -0.8762
  105CHL1    C813970   4.753   3.337   6.480  0.1466 -0.1191  0.9201
  105CHL1    H813971   4.649   3.370   6.504 -0.3268 -1.2273  0.4596
  105CHL1   C1413972   4.769   3.305   6.330 -0.4077 -0.0533  1.0107
  105CHL1   H1413973   4.870   3.262   6.314 -0.7534 -0.5030 -0.0492
  105CHL1   C1513974   4.771   3.426   6.234 -0.1621  0.5362 -0.1074
  105CHL1  H15A13975   4.681   3.486   6.261 -3.2910 -3.5240 -0.5837
  105CHL1  H15B13976   4.872   3.469   6.250  0.8001 -2.0823  1.5195
  105CHL1   C1613977   4.756   3.362   6.099  0.1121  0.0794  0.4469
  105CHL1  H16A13978   4.679   3.419   6.043  1.0895  0.5547 -0.4445
  105CHL1  H16B13979   4.854   3.373   6.048 -0.3673  0.2544 -0.4494
  105CHL1   C1713980   4.709   3.218   6.121  0.0996 -0.2016  0.5493
  105CHL1   H1713981   4.799   3.158   6.099  1.0621  1.0053  1.0963
  105CHL1   C1313982   4.676   3.200   6.269  1.1238 -0.3091 -0.4725
  105CHL1   C1813983   4.528   3.247   6.288 -0.3170 -0.3295  0.0806
  105CHL1  H18A13984   4.502   3.264   6.394 -1.0255 -0.9379  0.0065
  105CHL1  H18B13985   4.516   3.342   6.232  1.3534 -0.5498 -0.7312
  105CHL1  H18C13986   4.464   3.173   6.235  2.4734 -2.1642 -1.0221
  105CHL1   C1213987   4.689   3.064   6.348 -0.3994 -0.8573 -0.3281
  105CHL1  H12A13988   4.608   2.997   6.313 -0.5050 -1.0573  0.2867
  105CHL1  H12B13989   4.791   3.026   6.325  0.2983  0.4113  0.5269
  105CHL1   C1113990   4.679   3.092   6.499  0.1643 -0.2609  0.3479
  105CHL1  H11A13991   4.570   3.112   6.505  0.2175  0.0423  0.3015
  105CHL1  H11B13992   4.708   3.002   6.559  1.1404  0.8502  1.5961
  105CHL1    C913993   4.771   3.205   6.560  0.2917 -0.8326  0.1896
  105CHL1    H913994   4.878   3.181   6.546  0.7285 -0.2124  2.1511
  105CHL1   C1013995   4.758   3.224   6.718 -0.7647  0.6656  1.1441
  105CHL1   C1913996   4.612   3.213   6.737  0.2632  0.1293  0.4820
  105CHL1  H19A13997   4.572   3.114   6.707  1.4263 -0.0627 -0.5370
  105CHL1  H19B13998   4.584   3.223   6.844 -0.2302 -1.2692  0.5030
  105CHL1  H19C13999   4.555   3.294   6.686  0.6269 -0.5567 -1.0806
  105CHL1    C114000   4.835   3.106   6.786  0.2847  0.1399  0.0162
  105CHL1   H1A14001   4.789   3.009   6.759  2.0596 -0.7184 -0.1127
  105CHL1   H1B14002   4.940   3.106   6.749  0.8931  0.0761  1.6226
  105CHL1    C214003   4.831   3.114   6.938  0.2038 -0.1245 -0.1293
  105CHL1   H2A14004   4.896   3.037   6.986  2.3898  2.3625  1.1850
  105CHL1   H2B14005   4.731   3.087   6.978  0.7819 -1.1852  0.6665
  105CHL1   C2014006   4.600   3.162   6.025 -0.3473  0.1494  0.5711
  105CHL1   H2014007   4.499   3.203   6.044 -0.9093  0.0822 -1.8638
  105CHL1   C2114008   4.602   3.006   6.030 -0.3886 -0.2450  0.8495
  105CHL1  H21A14009   4.568   2.957   5.936  0.5310 -0.0749  0.4207
  105CHL1  H21B14010   4.530   2.962   6.103  1.2116 -2.5525  1.1555
  105CHL1  H21C14011   4.703   2.975   6.064 -0.1062  3.6077  4.1982
  105CHL1   C2214012   4.622   3.189   5.875 -0.0257 -0.0419 -0.3153
  105CHL1  H22A14013   4.544   3.136   5.817 -0.9490  0.1993  0.6791
  105CHL1  H22B14014   4.596   3.296   5.862 -2.5606 -0.6505 -0.6456
  105CHL1   C2314015   4.764   3.165   5.820 -0.0815  0.0781  0.2416
  105CHL1  H23A14016   4.835   3.236   5.868  0.6148 -0.7444  0.4590
  105CHL1  H23B14017   4.802   3.065   5.848  0.2783 -0.0769 -0.7394
  105CHL1   C2414018   4.776   3.200   5.667  0.3439 -0.3220 -0.2649
  105CHL1  H24A14019   4.725   3.131   5.596  3.6711 -0.9445 -2.2998
  105CHL1  H24B14020   4.728   3.299   5.660 -0.3571 -0.4949  1.5084
  105CHL1   C2514021   4.925   3.207   5.631  0.5049 -0.2016  0.2613
  105CHL1   H2514022   4.969   3.241   5.727 -0.4025 -0.5841  0.8237
  105CHL1   C2614023   4.983   3.069   5.591  0.0924  0.3551 -0.1298
  105CHL1  H26A14024   4.911   3.018   5.523  0.8192 -2.4878  1.0573
  105CHL1  H26B14025   5.080   3.086   5.541  0.5109 -0.9245  0.2109
  105CHL1  H26C14026   4.995   3.003   5.680 -2.2569 -1.3850 -0.9919
  105CHL1   C2714027   4.944   3.307   5.518 -0.5619 -0.1477 -0.1517
  105CHL1  H27A14028   5.048   3.318   5.479 -1.0016  2.3985 -0.7433
  105CHL1  H27B14029   4.883   3.273   5.431  0.2062  0.1612 -0.8305
  105CHL1  H27C14030   4.912   3.406   5.555 -1.6122 -0.9646  1.1978
  106CHL1    C314031   1.407   2.440   6.539  0.7782 -0.3134  0.0942
  106CHL1    H314032   1.444   2.518   6.470  2.1478 -0.5099  0.5720
  106CHL1    O314033   1.315   2.507   6.632 -0.1811  0.7159  0.0745
  106CHL1   H3'14034   1.366   2.580   6.669 -1.5782  0.3671  2.9879
  106CHL1    C414035   1.325   2.336   6.464  0.3712  0.3664  0.4630
  106CHL1   H4A14036   1.281   2.264   6.536  0.6072 -0.1214  0.1306
  106CHL1   H4B14037   1.242   2.388   6.412  2.4057 -0.1856 -3.8180
  106CHL1    C514038   1.412   2.276   6.356  0.2227 -0.5234 -0.9556
  106CHL1    C614039   1.385   2.302   6.227 -0.3333 -0.7036 -0.5702
  106CHL1    H614040   1.306   2.374   6.203  2.6129  2.0167 -3.1932
  106CHL1    C714041   1.461   2.234   6.114 -0.6490  0.5651  0.1185
  106CHL1   H7A14042   1.394   2.202   6.031 -1.5894  1.8462  0.3546
  106CHL1   H7B14043   1.518   2.307   6.053 -0.4106 -1.3374 -2.0719
  106CHL1    C814044   1.553   2.120   6.166  0.3119  0.4547  0.2690
  106CHL1    H814045   1.476   2.047   6.198  0.2450  0.5230  0.2662
  106CHL1   C1414046   1.648   2.068   6.053  0.4907 -0.0311 -0.0213
  106CHL1   H1414047   1.714   2.157   6.047 -2.8637  2.5912 -2.0189
  106CHL1   C1514048   1.613   2.061   5.909 -0.2109  0.2102  0.4636
  106CHL1  H15A14049   1.507   2.028   5.906  0.5831 -2.5122 -0.4809
  106CHL1  H15B14050   1.621   2.153   5.848 -0.1003 -0.0569  0.0755
  106CHL1   C1614051   1.708   1.957   5.854  0.6107 -0.5279 -0.1299
  106CHL1  H16A14052   1.642   1.867   5.844  2.4007 -1.9306  0.1219
  106CHL1  H16B14053   1.750   1.995   5.759 -2.3257  0.2607 -1.2234
  106CHL1   C1714054   1.807   1.918   5.963 -0.2757  0.5075 -0.1495
  106CHL1   H1714055   1.891   1.990   5.960  0.6989 -0.6329 -1.3039
  106CHL1   C1314056   1.738   1.947   6.100  0.5192 -0.6593  0.2668
  106CHL1   C1814057   1.642   1.835   6.132  0.2068 -0.3033  0.3429
  106CHL1  H18A14058   1.568   1.818   6.050  1.2899 -0.2393 -0.6744
  106CHL1  H18B14059   1.697   1.741   6.153 -0.7248 -0.6741  1.2032
  106CHL1  H18C14060   1.584   1.861   6.223 -0.0583  1.7707 -0.3741
  106CHL1   C1214061   1.824   1.996   6.212 -0.0209  0.4074  0.4710
  106CHL1  H12A14062   1.900   1.923   6.248 -1.3504 -0.6655  1.2082
  106CHL1  H12B14063   1.885   2.082   6.179  1.2805 -0.7164 -0.1319
  106CHL1   C1114064   1.737   2.048   6.330  0.2262 -0.1585  0.0451
  106CHL1  H11A14065   1.693   1.961   6.384  0.8813  0.0310  0.9077
  106CHL1  H11B14066   1.804   2.093   6.406  0.0586 -2.1447  1.4480
  106CHL1    C914067   1.633   2.156   6.293  0.3502 -0.3207  0.1909
  106CHL1    H914068   1.696   2.243   6.265  0.1204 -0.2068  0.0304
  106CHL1   C1014069   1.540   2.198   6.408  0.4077 -0.8073 -0.4167
  106CHL1   C1914070   1.495   2.077   6.492 -0.0278 -0.4236  0.0105
  106CHL1  H19A14071   1.574   2.028   6.553  1.5983  1.5284 -0.4465
  106CHL1  H19B14072   1.424   2.103   6.574 -0.3585 -0.1751 -0.3501
  106CHL1  H19C14073   1.451   1.999   6.425 -0.6922  0.2850 -0.3945
  106CHL1    C114074   1.610   2.302   6.501 -0.1634 -0.0443  0.1554
  106CHL1   H1A14075   1.698   2.250   6.546 -0.6928 -1.0792  0.0428
  106CHL1   H1B14076   1.653   2.388   6.445  2.3251 -1.6215 -0.5339
  106CHL1    C214077   1.519   2.365   6.608 -0.0423  0.9346 -0.1880
  106CHL1   H2A14078   1.580   2.429   6.676 -1.5936  0.8492  1.3594
  106CHL1   H2B14079   1.475   2.287   6.674  0.3500  2.0660  1.4803
  106CHL1   C2014080   1.876   1.778   5.929 -0.2881 -0.5179 -0.3858
  106CHL1   H2014081   1.802   1.696   5.939 -0.7823 -0.0242  0.0896
  106CHL1   C2114082   1.989   1.759   6.039  0.2467 -0.2905  0.7084
  106CHL1  H21A14083   1.941   1.734   6.136 -0.8917 -1.3641 -0.0902
  106CHL1  H21B14084   2.057   1.847   6.043  0.3499 -0.3073 -0.4421
  106CHL1  H21C14085   2.057   1.676   6.008  0.4817  0.0233  0.3821
  106CHL1   C2214086   1.931   1.778   5.792 -0.3830  0.0572  0.8579
  106CHL1  H22A14087   1.847   1.787   5.719  0.5140  2.2184 -0.0222
  106CHL1  H22B14088   1.997   1.866   5.774 -1.3048  1.0150  2.0634
  106CHL1   C2314089   1.991   1.643   5.750  0.4474  0.4040 -0.4008
  106CHL1  H23A14090   2.072   1.614   5.820 -0.8896  0.8438  1.4127
  106CHL1  H23B14091   1.915   1.563   5.760  1.9356 -1.3551 -2.2486
  106CHL1   C2414092   2.040   1.646   5.609  0.2449 -0.0728 -0.0556
  106CHL1  H24A14093   1.971   1.701   5.542 -1.4056 -2.5462 -0.5461
  106CHL1  H24B14094   2.135   1.703   5.607  0.2058  0.1567  2.2425
  106CHL1   C2514095   2.056   1.507   5.540  0.5261  0.1675  0.0543
  106CHL1   H2514096   2.098   1.519   5.437 -0.9938 -0.1902 -0.6385
  106CHL1   C2614097   2.178   1.423   5.612  0.2398 -0.1295  0.4032
  106CHL1  H26A14098   2.282   1.453   5.588 -0.4825  1.0312 -1.5266
  106CHL1  H26B14099   2.162   1.410   5.721 -0.7860  0.1266  0.2989
  106CHL1  H26C14100   2.169   1.323   5.564 -1.9410  0.0874  0.2593
  106CHL1   C2714101   1.927   1.425   5.518  0.4034  0.2062 -0.5130
  106CHL1  H27A14102   1.936   1.344   5.443  0.4386 -2.2752  1.9772
  106CHL1  H27B14103   1.906   1.374   5.615 -0.0685  1.0545 -0.1632
  106CHL1  H27C14104   1.842   1.489   5.487  1.1017  1.6539  0.4694
  107CHL1    C314105   4.857   5.992   6.470 -0.6492  0.1037 -0.3289
  107CHL1    H314106   4.890   5.886   6.465  1.3906  0.4765  2.6651
  107CHL1    O314107   4.900   6.046   6.593 -0.1685 -0.2682  0.0738
  107CHL1   H3'14108   4.868   6.136   6.599  1.0872  0.1457  0.9257
  107CHL1    C414109   4.917   6.074   6.352 -0.1673  0.1217  0.5355
  107CHL1   H4A14110   4.927   6.183   6.371  1.7979 -0.4558  3.4343
  107CHL1   H4B14111   5.021   6.037   6.355 -0.1458  0.2172  1.0776
  107CHL1    C514112   4.843   6.038   6.223 -0.9613 -0.0718 -0.2361
  107CHL1    C614113   4.915   6.003   6.118 -0.5443  0.4094 -0.2228
  107CHL1    H614114   5.023   6.018   6.136 -0.8205  0.2780  1.6971
  107CHL1    C714115   4.859   5.971   5.982  0.4362  0.0494 -0.3937
  107CHL1   H7A14116   4.921   6.015   5.901 -1.1244  0.8493 -1.1935
  107CHL1   H7B14117   4.857   5.863   5.957  1.1295 -0.0756  0.0695
  107CHL1    C814118   4.715   6.018   5.966 -0.5895 -0.5865  0.2784
  107CHL1    H814119   4.721   6.129   5.960  2.2982 -0.6782 -0.1510
  107CHL1   C1414120   4.657   5.962   5.844  0.8148 -0.3566 -0.6158
  107CHL1   H1414121   4.656   5.853   5.868  0.6944 -0.1810  0.1975
  107CHL1   C1514122   4.729   5.975   5.714 -0.6590  0.4511  0.9479
  107CHL1  H15A14123   4.759   6.079   5.688  0.1786 -0.2887 -1.3367
  107CHL1  H15B14124   4.816   5.907   5.705 -1.7114 -0.6638 -2.4483
  107CHL1   C1614125   4.626   5.929   5.605  0.9637  0.1867  0.6911
  107CHL1  H16A14126   4.613   5.996   5.517 -3.7199  0.2957  1.1777
  107CHL1  H16B14127   4.650   5.826   5.568  2.1888  1.4191 -2.2627
  107CHL1   C1714128   4.490   5.928   5.683  0.6350  0.4055  0.1716
  107CHL1   H1714129   4.477   5.826   5.724 -0.8161  0.7700  0.6783
  107CHL1   C1314130   4.512   6.011   5.812 -0.3836  0.8386  0.2314
  107CHL1   C1814131   4.499   6.160   5.780 -0.1401 -0.9720 -0.2118
  107CHL1  H18A14132   4.559   6.192   5.692 -1.2436  0.2460 -0.5585
  107CHL1  H18B14133   4.392   6.191   5.779 -0.1448 -0.9868 -0.9950
  107CHL1  H18C14134   4.553   6.215   5.859 -0.2824  0.7058 -1.2357
  107CHL1   C1214135   4.429   5.967   5.930 -0.5980 -0.1146  0.2393
  107CHL1  H12A14136   4.324   6.001   5.918 -1.3249 -1.8399  1.3332
  107CHL1  H12B14137   4.431   5.856   5.927  0.5258 -0.0822 -0.8247
  107CHL1   C1114138   4.481   6.019   6.067  0.1444 -0.3757 -0.2816
  107CHL1  H11A14139   4.479   6.130   6.058  2.4235 -0.3725 -1.5616
  107CHL1  H11B14140   4.425   5.989   6.158  2.0105  1.3182  1.5499
  107CHL1    C914141   4.635   5.982   6.095 -0.2592  0.0442  0.3142
  107CHL1    H914142   4.646   5.872   6.102  0.6986  0.0351 -0.9206
  107CHL1   C1014143   4.694   6.042   6.220 -0.5059  0.5095 -0.1008
  107CHL1   C1914144   4.649   6.190   6.226  0.1277  0.5951  0.3328
  107CHL1  H19A14145   4.685   6.243   6.135 -1.0626 -3.0193 -2.4516
  107CHL1  H19B14146   4.538   6.191   6.233  0.0074  0.8326 -1.3153
  107CHL1  H19C14147   4.695   6.242   6.313  0.5871  0.5279  0.1308
  107CHL1    C114148   4.639   5.958   6.341 -0.3109  0.4079 -0.8909
  107CHL1   H1A14149   4.528   5.962   6.353 -0.1178  0.6008  1.4849
  107CHL1   H1B14150   4.648   5.848   6.327 -0.8838 -0.2099  2.6136
  107CHL1    C214151   4.702   5.996   6.476 -0.0672  0.2783  0.6061
  107CHL1   H2A14152   4.667   5.931   6.559 -2.6086  1.0698  0.2187
  107CHL1   H2B14153   4.665   6.098   6.498  1.4134  1.7453 -3.0466
  107CHL1   C2014154   4.369   5.955   5.598  0.5558  0.2525 -0.2414
  107CHL1   H2014155   4.391   6.052   5.548 -2.9587  1.1177 -0.3587
  107CHL1   C2114156   4.236   5.961   5.677  0.2372  0.9565 -0.3803
  107CHL1  H21A14157   4.149   5.978   5.610 -0.6955  1.6731  0.9633
  107CHL1  H21B14158   4.247   6.055   5.735  1.9590  1.7502 -1.8795
  107CHL1  H21C14159   4.228   5.877   5.749 -0.5305  3.5916  2.8525
  107CHL1   C2214160   4.353   5.850   5.486 -0.1996  0.1256  0.2383
  107CHL1  H22A14161   4.443   5.787   5.472 -1.2616 -1.1694 -1.2109
  107CHL1  H22B14162   4.285   5.767   5.518  0.5785 -0.8697 -0.5912
  107CHL1   C2314163   4.307   5.895   5.350 -0.3463  0.0188 -0.3908
  107CHL1  H23A14164   4.203   5.931   5.360 -0.5751 -0.1909 -1.8146
  107CHL1  H23B14165   4.372   5.982   5.323 -2.5402  2.6698  2.1858
  107CHL1   C2414166   4.306   5.788   5.236 -0.1068 -0.0189 -0.2586
  107CHL1  H24A14167   4.407   5.741   5.225  0.2981  0.6209  0.5869
  107CHL1  H24B14168   4.253   5.705   5.287 -0.7767  0.4780 -0.1422
  107CHL1   C2514169   4.237   5.821   5.103 -0.1089 -0.2942  0.0520
  107CHL1   H2514170   4.297   5.904   5.060  2.2697 -1.4476  0.9556
  107CHL1   C2614171   4.242   5.714   4.993 -0.8377 -0.1712  0.1636
  107CHL1  H26A14172   4.228   5.768   4.897  2.4909  1.5870  0.5179
  107CHL1  H26B14173   4.340   5.662   4.990 -1.7186 -1.9080 -0.0256
  107CHL1  H26C14174   4.167   5.636   5.016 -0.9787 -0.7644 -2.1293
  107CHL1   C2714175   4.096   5.859   5.118 -0.2711 -0.2967  0.0026
  107CHL1  H27A14176   4.032   5.784   5.169  0.6904 -1.0331  0.1632
  107CHL1  H27B14177   4.102   5.954   5.174 -0.7643 -0.5454  0.4797
  107CHL1  H27C14178   4.041   5.883   5.025  1.5007  1.6276 -0.6166
  108CHL1    C314179   5.147   1.970   7.180  0.5782  0.4087  0.4161
  108CHL1    H314180   5.052   1.940   7.130  0.1364 -0.7709  1.8862
  108CHL1    O314181   5.148   1.904   7.305  0.0234 -0.2578  0.4245
  108CHL1   H3'14182   5.236   1.917   7.342 -0.4544  1.2298  1.1271
  108CHL1    C414183   5.261   1.908   7.083 -0.2787 -0.1975  0.0106
  108CHL1   H4A14184   5.348   1.924   7.150 -2.7984 -0.2064  3.5605
  108CHL1   H4B14185   5.227   1.802   7.090  0.4358 -0.4360 -0.0350
  108CHL1    C514186   5.271   1.977   6.950 -0.3658  0.7479  0.0474
  108CHL1    C614187   5.264   1.906   6.838  0.1320 -0.6343  0.3363
  108CHL1    H614188   5.255   1.797   6.836 -1.2390 -0.5286  0.0619
  108CHL1    C714189   5.280   1.977   6.708 -0.0352  0.0841 -0.2483
  108CHL1   H7A14190   5.336   1.918   6.632 -3.3321  0.0772 -2.9597
  108CHL1   H7B14191   5.176   1.983   6.667 -0.6432 -0.5285  1.1410
  108CHL1    C814192   5.334   2.117   6.708  0.0472 -0.0944  0.2730
  108CHL1    H814193   5.444   2.116   6.724  0.3718  1.8764 -1.3746
  108CHL1   C1414194   5.308   2.172   6.576 -0.0908 -1.2512  0.2114
  108CHL1   H1414195   5.198   2.172   6.563  0.0947 -0.3013 -1.7265
  108CHL1   C1514196   5.351   2.094   6.452 -0.8416 -0.4605  0.0643
  108CHL1  H15A14197   5.454   2.063   6.481 -0.6967  0.8928  1.0763
  108CHL1  H15B14198   5.287   2.004   6.435 -2.1844  0.4403  0.1990
  108CHL1   C1614199   5.363   2.187   6.330  0.1755  0.4586 -0.2585
  108CHL1  H16A14200   5.462   2.198   6.281 -0.0867  2.1705 -0.4826
  108CHL1  H16B14201   5.274   2.169   6.266  0.9238 -0.4774 -1.0792
  108CHL1   C1714202   5.343   2.329   6.401 -0.7270  0.1568  0.0701
  108CHL1   H1714203   5.234   2.346   6.397 -0.8720 -0.3490  1.3710
  108CHL1   C1314204   5.366   2.314   6.553 -0.7533  0.1957 -0.2301
  108CHL1   C1814205   5.521   2.312   6.576 -0.7694  0.0605  0.4741
  108CHL1  H18A14206   5.563   2.236   6.506 -1.1781  0.7115 -0.5111
  108CHL1  H18B14207   5.559   2.414   6.556  0.7763 -0.5034  0.4096
  108CHL1  H18C14208   5.544   2.289   6.682 -2.1769 -1.1103  0.5684
  108CHL1   C1214209   5.285   2.405   6.651  0.0474  0.1138  0.9320
  108CHL1  H12A14210   5.318   2.511   6.642 -1.5568  0.4970 -1.5716
  108CHL1  H12B14211   5.177   2.403   6.623 -0.2031  1.9321  1.6098
  108CHL1   C1114212   5.303   2.354   6.797  0.2417  0.2076 -0.6555
  108CHL1  H11A14213   5.410   2.360   6.824  0.5866 -0.8378 -1.7543
  108CHL1  H11B14214   5.243   2.413   6.870  0.6883 -1.0767  0.8157
  108CHL1    C914215   5.269   2.200   6.819 -0.0140 -0.3071  0.4999
  108CHL1    H914216   5.162   2.196   6.790  0.0348  0.0932  0.2540
  108CHL1   C1014217   5.289   2.137   6.957 -0.1778  0.7946  0.3717
  108CHL1   C1914218   5.426   2.179   7.010  0.1395  0.1078  0.0197
  108CHL1  H19A14219   5.419   2.288   7.029  1.0465  0.3070 -0.7121
  108CHL1  H19B14220   5.454   2.121   7.100  3.6379 -2.4997 -2.4990
  108CHL1  H19C14221   5.503   2.162   6.932 -0.9264 -0.3370 -0.9693
  108CHL1    C114222   5.172   2.182   7.060 -0.5027 -0.5158 -0.0417
  108CHL1   H1A14223   5.185   2.293   7.062 -0.4746 -0.4287 -2.5432
  108CHL1   H1B14224   5.075   2.167   7.009 -0.7042  0.9082 -0.1356
  108CHL1    C214225   5.169   2.124   7.200 -0.0777 -0.5102 -0.1810
  108CHL1   H2A14226   5.085   2.174   7.252  0.6731  0.6635 -0.0577
  108CHL1   H2B14227   5.263   2.132   7.258 -0.7386  0.8702  0.7394
  108CHL1   C2014228   5.406   2.446   6.323 -0.0765  0.0903 -0.3237
  108CHL1   H2014229   5.515   2.426   6.312 -0.2126 -0.7516 -0.1957
  108CHL1   C2114230   5.387   2.583   6.383 -0.0048 -1.2073 -0.1860
  108CHL1  H21A14231   5.280   2.613   6.394  0.2392 -0.8246  1.2681
  108CHL1  H21B14232   5.432   2.675   6.341 -1.3249 -1.1073 -1.4715
  108CHL1  H21C14233   5.422   2.580   6.488 -2.6112 -3.6961  0.7475
  108CHL1   C2214234   5.359   2.454   6.176 -0.0437  0.0572  0.1193
  108CHL1  H22A14235   5.395   2.368   6.116 -1.5729 -0.1722 -0.5140
  108CHL1  H22B14236   5.249   2.462   6.164  0.2512  0.8567 -2.5580
  108CHL1   C2314237   5.419   2.580   6.104  0.3308 -0.0332 -0.3522
  108CHL1  H23A14238   5.378   2.673   6.148 -0.2458 -0.0868 -0.7581
  108CHL1  H23B14239   5.529   2.589   6.111  0.1830  1.8945  0.0399
  108CHL1   C2414240   5.389   2.595   5.954 -0.2955  0.0157  0.1732
  108CHL1  H24A14241   5.398   2.494   5.909  1.3160  1.0388 -1.9736
  108CHL1  H24B14242   5.283   2.625   5.942  0.1991  2.2517  0.7366
  108CHL1   C2514243   5.486   2.693   5.877  0.1864  0.6202 -0.6024
  108CHL1   H2514244   5.487   2.787   5.937  0.7400 -0.1404  0.6061
  108CHL1   C2614245   5.631   2.643   5.854 -0.1882  0.1715 -0.6048
  108CHL1  H26A14246   5.646   2.539   5.817  2.3463  0.5036 -0.7234
  108CHL1  H26B14247   5.687   2.714   5.789 -0.5181  0.0522 -1.0236
  108CHL1  H26C14248   5.678   2.648   5.955 -0.7554  1.6321 -0.3884
  108CHL1   C2714249   5.415   2.726   5.743 -0.0409 -0.1945 -0.2092
  108CHL1  H27A14250   5.488   2.769   5.671  0.6502  1.2985  1.3002
  108CHL1  H27B14251   5.360   2.637   5.705 -0.2413  0.7831 -2.3655
  108CHL1  H27C14252   5.341   2.807   5.752 -1.8600 -1.7192 -0.7567
  109CHL1    C314253   3.582   6.378   6.280 -0.0251 -0.4394 -0.1900
  109CHL1    H314254   3.495   6.448   6.278 -2.1315 -2.9386 -1.5685
  109CHL1    O314255   3.643   6.376   6.411 -0.1716  0.2124  0.7134
  109CHL1   H3'14256   3.732   6.340   6.408  0.5755  2.0330 -0.3789
  109CHL1    C414257   3.522   6.240   6.249  0.2507 -0.3778  0.1215
  109CHL1   H4A14258   3.596   6.160   6.269 -1.1461 -1.8609 -0.3885
  109CHL1   H4B14259   3.453   6.220   6.334  1.6946  0.4246  1.5097
  109CHL1    C514260   3.469   6.220   6.104 -0.2185  0.2299 -0.4905
  109CHL1    C614261   3.352   6.166   6.077 -0.3979 -0.0987 -0.6668
  109CHL1    H614262   3.290   6.127   6.159 -0.3814 -2.0757 -1.5260
  109CHL1    C714263   3.297   6.145   5.938 -0.3831 -0.4135 -0.4725
  109CHL1   H7A14264   3.243   6.049   5.924  0.6500 -1.0056 -0.4742
  109CHL1   H7B14265   3.218   6.221   5.918  0.3715  0.6912  0.5395
  109CHL1    C814266   3.393   6.165   5.829 -0.1771 -0.2313 -0.3282
  109CHL1    H814267   3.453   6.073   5.811 -0.5100 -0.3394 -0.9032
  109CHL1   C1414268   3.324   6.197   5.692 -0.2677 -0.0542  0.1427
  109CHL1   H1414269   3.268   6.292   5.705 -0.5414 -0.3459  1.2000
  109CHL1   C1514270   3.218   6.100   5.655  0.1657  0.3700 -0.0006
  109CHL1  H15A14271   3.263   6.000   5.673 -0.0234  0.1028 -0.9948
  109CHL1  H15B14272   3.129   6.118   5.718  0.1627 -2.2587  0.8370
  109CHL1   C1614273   3.194   6.111   5.505 -0.1347 -0.1526 -0.1513
  109CHL1  H16A14274   3.196   6.012   5.456 -0.2079 -0.5262  0.5933
  109CHL1  H16B14275   3.101   6.169   5.485  0.4179  1.2416  1.0979
  109CHL1   C1714276   3.310   6.210   5.457 -0.2628  1.0445  0.4854
  109CHL1   H1714277   3.263   6.310   5.463 -1.5929  0.3963  1.6944
  109CHL1   C1314278   3.415   6.207   5.578 -0.2862 -0.0370  0.0975
  109CHL1   C1814279   3.494   6.078   5.557  0.4863 -0.6394 -0.2066
  109CHL1  H18A14280   3.427   5.989   5.555 -1.2455  0.6399 -0.8388
  109CHL1  H18B14281   3.550   6.080   5.461  0.8781  1.3444  0.0313
  109CHL1  H18C14282   3.574   6.047   5.628 -0.6688 -1.2164  0.8802
  109CHL1   C1214283   3.501   6.334   5.605 -0.4296 -0.0738 -0.1103
  109CHL1  H12A14284   3.572   6.354   5.522 -1.4348 -0.2031 -1.0320
  109CHL1  H12B14285   3.434   6.422   5.615  2.3170  2.5775 -3.0197
  109CHL1   C1114286   3.583   6.320   5.738 -0.0290 -0.2744  0.4611
  109CHL1  H11A14287   3.663   6.244   5.726  2.2164  1.5065  2.8114
  109CHL1  H11B14288   3.637   6.417   5.746  3.3926 -1.8051 -1.7088
  109CHL1    C914289   3.489   6.284   5.857  0.3104 -0.2935  0.2446
  109CHL1    H914290   3.416   6.367   5.857 -1.8463 -2.0478 -1.6226
  109CHL1   C1014291   3.557   6.274   5.995 -0.8147 -0.1538 -0.3430
  109CHL1   C1914292   3.668   6.169   5.980  0.2910 -0.1914 -0.7552
  109CHL1  H19A14293   3.735   6.208   5.901  1.3145 -1.7220 -0.6739
  109CHL1  H19B14294   3.728   6.164   6.074  0.6826 -0.8469 -1.0421
  109CHL1  H19C14295   3.636   6.065   5.957  4.3747 -1.8807  0.3435
  109CHL1    C114296   3.621   6.418   6.030  0.2710  0.5375 -0.2497
  109CHL1   H1A14297   3.691   6.450   5.951 -0.3799  1.4677 -0.4668
  109CHL1   H1B14298   3.546   6.500   6.035 -0.5673 -0.1541 -1.1941
  109CHL1    C214299   3.676   6.426   6.174 -0.8381 -0.2286  0.2513
  109CHL1   H2A14300   3.716   6.528   6.194 -2.2268  0.4729 -0.4070
  109CHL1   H2B14301   3.760   6.355   6.157  0.8843  1.9514 -0.9134
  109CHL1   C2014302   3.350   6.180   5.307  0.1625  0.2687  0.2995
  109CHL1   H2014303   3.388   6.075   5.300 -1.8409 -0.3670 -3.0515
  109CHL1   C2114304   3.460   6.287   5.267 -0.0434 -0.1949  0.0456
  109CHL1  H21A14305   3.424   6.392   5.277  0.6350  0.0685 -0.1861
  109CHL1  H21B14306   3.475   6.267   5.159 -0.8195  0.5804 -0.2185
  109CHL1  H21C14307   3.556   6.269   5.321 -0.4260 -2.0511  0.1602
  109CHL1   C2214308   3.230   6.191   5.217 -0.2112 -0.6229 -0.3619
  109CHL1  H22A14309   3.143   6.125   5.236 -0.3476 -0.6465 -1.0571
  109CHL1  H22B14310   3.196   6.295   5.237 -1.4087 -0.4527 -2.9260
  109CHL1   C2314311   3.236   6.198   5.067 -0.0844  0.1794 -0.7398
  109CHL1  H23A14312   3.131   6.224   5.041 -0.2094  0.0188 -0.4017
  109CHL1  H23B14313   3.296   6.285   5.034 -1.3485  1.4303  0.1930
  109CHL1   C2414314   3.275   6.064   5.003  0.6617 -0.0271  0.9163
  109CHL1  H24A14315   3.374   6.027   5.035 -0.7778 -3.4608  1.9289
  109CHL1  H24B14316   3.200   5.985   5.028  0.2726  0.2097  0.5026
  109CHL1   C2514317   3.265   6.067   4.849 -0.2309 -0.8442  0.1166
  109CHL1   H2514318   3.327   6.156   4.822  0.4774 -1.0642  0.9649
  109CHL1   C2614319   3.335   5.967   4.763 -0.0508  0.9861 -0.6533
  109CHL1  H26A14320   3.442   5.991   4.745  0.7864 -1.2339  0.9883
  109CHL1  H26B14321   3.335   5.872   4.820  0.3132  1.9987  1.1400
  109CHL1  H26C14322   3.293   5.951   4.662  1.7765 -1.2924 -1.1274
  109CHL1   C2714323   3.127   6.089   4.792 -0.6644  0.4655  0.3678
  109CHL1  H27A14324   3.069   5.997   4.815  0.6932 -1.1121 -2.0705
  109CHL1  H27B14325   3.075   6.176   4.839 -0.4369  0.7134  0.1626
  109CHL1  H27C14326   3.134   6.097   4.681  0.3711 -0.6977  0.3318
  110CHL1    C314327   1.923   5.602   6.253 -0.0463  0.3326  0.0165
  110CHL1    H314328   1.984   5.510   6.239  0.6362  0.6553  0.8327
  110CHL1    O314329   1.904   5.624   6.389  0.2706 -0.0927 -0.5267
  110CHL1   H3'14330   1.837   5.693   6.392  0.8753  0.5015  1.5311
  110CHL1    C414331   2.000   5.720   6.195  0.0975 -0.0984 -0.5697
  110CHL1   H4A14332   1.935   5.810   6.206 -1.8062 -1.4550 -0.2412
  110CHL1   H4B14333   2.086   5.743   6.261  0.0517  0.4235 -0.6833
  110CHL1    C514334   2.040   5.695   6.052  0.3295  0.3450 -0.0582
  110CHL1    C614335   2.167   5.691   6.011  0.0125 -0.8433  0.3425
  110CHL1    H614336   2.236   5.740   6.081 -1.5786  2.5064 -0.2134
  110CHL1    C714337   2.211   5.656   5.876  0.8818 -0.1744 -0.0764
  110CHL1   H7A14338   2.301   5.715   5.849  1.6891 -0.2588  2.2442
  110CHL1   H7B14339   2.239   5.548   5.874 -1.1797 -0.7824  0.9643
  110CHL1    C814340   2.096   5.672   5.781 -0.1928  0.1534  0.2377
  110CHL1    H814341   2.064   5.778   5.770 -0.3375  0.0739 -0.1030
  110CHL1   C1414342   2.139   5.619   5.644 -0.1204  0.1091 -0.2453
  110CHL1   H1414343   2.159   5.510   5.654  1.0179  0.4069  0.9071
  110CHL1   C1514344   2.264   5.674   5.572  0.0573  0.5421  0.3242
  110CHL1  H15A14345   2.273   5.784   5.584  2.0511  0.2097  2.3950
  110CHL1  H15B14346   2.356   5.628   5.613  0.4588 -0.2486 -1.3711
  110CHL1   C1614347   2.257   5.625   5.428  0.4873  0.2337 -0.1293
  110CHL1  H16A14348   2.268   5.715   5.364 -0.2382  1.1786  1.0318
  110CHL1  H16B14349   2.330   5.548   5.396 -0.2401  0.2918 -2.0738
  110CHL1   C1714350   2.106   5.569   5.411 -0.3383  0.5101 -0.1056
  110CHL1   H1714351   2.113   5.459   5.427  1.8485  0.4041 -1.4675
  110CHL1   C1314352   2.027   5.620   5.538  0.3498 -0.4175  0.4104
  110CHL1   C1814353   1.986   5.772   5.498  0.0969  0.0935 -0.2063
  110CHL1  H18A14354   2.074   5.820   5.451  2.3149 -2.5125  1.0080
  110CHL1  H18B14355   1.899   5.768   5.429 -2.3517 -1.8854  2.7066
  110CHL1  H18C14356   1.959   5.833   5.587  1.0681  1.9011 -1.0958
  110CHL1   C1214357   1.911   5.537   5.599 -0.0778 -0.3861  0.6709
  110CHL1  H12A14358   1.824   5.539   5.530 -2.0312 -1.3228  2.9748
  110CHL1  H12B14359   1.946   5.433   5.616  1.6394 -0.0950 -0.7503
  110CHL1   C1114360   1.860   5.593   5.730 -0.6143  0.2497 -0.2923
  110CHL1  H11A14361   1.831   5.698   5.710  2.2577  1.4455  1.2334
  110CHL1  H11B14362   1.775   5.532   5.768 -0.2997  0.4219  0.7061
  110CHL1    C914363   1.972   5.599   5.831  0.0602 -0.2611 -0.0585
  110CHL1    H914364   2.005   5.496   5.859  0.1016 -0.1596  0.2686
  110CHL1   C1014365   1.917   5.662   5.963  0.3935 -0.8640  0.2893
  110CHL1   C1914366   1.853   5.802   5.942  0.4893  0.7820  0.2074
  110CHL1  H19A14367   1.825   5.855   6.036 -1.0731  1.1903 -0.4497
  110CHL1  H19B14368   1.934   5.866   5.901  0.1894  0.9719 -0.0958
  110CHL1  H19C14369   1.772   5.805   5.865  1.7797  1.5125 -1.1714
  110CHL1    C114370   1.820   5.561   6.027 -0.4097  0.7634  0.2960
  110CHL1   H1A14371   1.728   5.562   5.964  0.1995 -2.9014 -0.8954
  110CHL1   H1B14372   1.841   5.452   6.021  0.7819  1.0730 -2.7376
  110CHL1    C214373   1.792   5.581   6.178 -0.2064  0.2430 -0.0492
  110CHL1   H2A14374   1.742   5.489   6.215  2.0164  0.0004  2.6819
  110CHL1   H2B14375   1.723   5.666   6.195 -1.9435 -1.4345  1.9683
  110CHL1   C2014376   2.042   5.584   5.274  0.5812  0.0075 -0.0408
  110CHL1   H2014377   2.025   5.692   5.255  1.0457  0.1996  0.6186
  110CHL1   C2114378   1.907   5.497   5.265 -0.1360  0.0453  0.1070
  110CHL1  H21A14379   1.878   5.493   5.158  1.8296 -0.1996 -0.4740
  110CHL1  H21B14380   1.832   5.559   5.318 -0.9594  1.4856 -2.5528
  110CHL1  H21C14381   1.920   5.403   5.322 -5.0639  0.6566  2.7190
  110CHL1   C2214382   2.131   5.535   5.158 -0.8681 -0.4135  0.2230
  110CHL1  H22A14383   2.237   5.556   5.183 -0.4310  0.2867 -1.9439
  110CHL1  H22B14384   2.127   5.425   5.146 -0.3526 -0.4738  0.5985
  110CHL1   C2314385   2.099   5.605   5.027  0.0386 -0.0394 -0.5401
  110CHL1  H23A14386   2.007   5.558   4.986 -0.2288  0.0484 -0.0357
  110CHL1  H23B14387   2.077   5.713   5.038  0.5948 -0.1602  2.6638
  110CHL1   C2414388   2.220   5.613   4.931 -0.5100 -0.5462 -0.6016
  110CHL1  H24A14389   2.284   5.693   4.974 -0.0384 -1.7120  0.9708
  110CHL1  H24B14390   2.274   5.516   4.924  0.9389  0.1613  0.3682
  110CHL1   C2514391   2.189   5.657   4.786  0.3484  0.6103 -0.2218
  110CHL1   H2514392   2.116   5.591   4.734 -2.8656  4.1197 -0.6534
  110CHL1   C2614393   2.126   5.796   4.780  0.1743 -0.2885  0.2955
  110CHL1  H26A14394   2.030   5.796   4.835 -0.2843  0.2820 -0.4767
  110CHL1  H26B14395   2.197   5.872   4.816  0.0383  0.6125 -1.2286
  110CHL1  H26C14396   2.102   5.823   4.674  0.0425  1.3032  0.7090
  110CHL1   C2714397   2.327   5.654   4.717 -0.3617  0.4535  0.4658
  110CHL1  H27A14398   2.404   5.719   4.764  0.7459 -0.6694  0.2484
  110CHL1  H27B14399   2.375   5.554   4.718  0.5206  0.8657  0.0326
  110CHL1  H27C14400   2.312   5.691   4.613  0.0016 -1.1613 -0.1868
  111CHL1    C314401   2.294   0.172   6.486  0.5055  0.2403 -0.0850
  111CHL1    H314402   2.349   0.078   6.461 -3.1140 -1.8470 -0.8271
  111CHL1    O314403   2.272   0.184   6.624  0.1603  0.2898 -0.2530
  111CHL1   H3'14404   2.362   0.166   6.655  0.2789 -0.8380 -1.1672
  111CHL1    C414405   2.372   0.298   6.442  0.3295  0.3999 -0.8951
  111CHL1   H4A14406   2.321   0.385   6.488 -0.3375 -0.7442  0.5960
  111CHL1   H4B14407   2.473   0.297   6.490 -0.0607  3.6076  0.2780
  111CHL1    C514408   2.378   0.314   6.297 -0.5039  1.0195 -0.1103
  111CHL1    C614409   2.493   0.340   6.241 -0.0519 -0.5239  0.5507
  111CHL1    H614410   2.579   0.370   6.303 -0.2739  0.5364  0.3745
  111CHL1    C714411   2.512   0.358   6.089  0.3512 -0.3688  0.6102
  111CHL1   H7A14412   2.581   0.442   6.068  0.0895 -0.3786 -0.3148
  111CHL1   H7B14413   2.558   0.270   6.040 -0.1069  0.1440 -0.8028
  111CHL1    C814414   2.379   0.389   6.015 -0.1090 -0.0324 -0.0923
  111CHL1    H814415   2.352   0.497   6.023 -0.9210 -0.1576 -1.0293
  111CHL1   C1414416   2.410   0.371   5.859 -0.1127 -0.2372 -0.6706
  111CHL1   H1414417   2.437   0.264   5.845 -0.9634 -0.7808  1.5262
  111CHL1   C1514418   2.521   0.456   5.797 -0.1992  0.3754 -0.3612
  111CHL1  H15A14419   2.517   0.562   5.832 -0.8610  0.1539  0.2620
  111CHL1  H15B14420   2.618   0.406   5.819  0.6796  1.6941 -1.0696
  111CHL1   C1614421   2.499   0.439   5.645  0.4134 -0.1918  0.9614
  111CHL1  H16A14422   2.487   0.545   5.612  0.5001 -0.5602 -0.2853
  111CHL1  H16B14423   2.586   0.396   5.591  2.2852  0.2139  3.4531
  111CHL1   C1714424   2.362   0.355   5.630  0.4341 -0.5597  0.4300
  111CHL1   H1714425   2.390   0.248   5.638  0.4019 -0.5295  0.9744
  111CHL1   C1314426   2.288   0.384   5.767 -0.1668 -0.1971  0.1957
  111CHL1   C1814427   2.224   0.525   5.766  0.2838  0.1289 -0.0036
  111CHL1  H18A14428   2.198   0.552   5.871 -1.9066 -2.0611  0.1036
  111CHL1  H18B14429   2.289   0.607   5.729  0.9824  0.2718  1.4625
  111CHL1  H18C14430   2.125   0.536   5.717  0.8979  1.5514 -1.0017
  111CHL1   C1214431   2.185   0.277   5.811 -0.1529 -0.5782  0.3188
  111CHL1  H12A14432   2.090   0.285   5.753 -0.0548 -0.7556  0.1342
  111CHL1  H12B14433   2.228   0.176   5.796  0.3185 -0.1892 -1.0137
  111CHL1   C1114434   2.156   0.287   5.964  0.0742  0.7088 -0.9995
  111CHL1  H11A14435   2.109   0.387   5.977  1.7104  1.3105  0.8833
  111CHL1  H11B14436   2.092   0.202   5.996  2.7733 -0.3963  2.0159
  111CHL1    C914437   2.281   0.283   6.063 -0.6709 -0.2363  0.2488
  111CHL1    H914438   2.330   0.185   6.043  0.6666  0.2672  0.9242
  111CHL1   C1014439   2.251   0.288   6.211 -0.0408  0.1265  0.1409
  111CHL1   C1914440   2.152   0.411   6.236  0.2169 -0.1187  0.4195
  111CHL1  H19A14441   2.174   0.503   6.178  1.2361 -0.3010  0.4988
  111CHL1  H19B14442   2.050   0.375   6.213 -0.0568  0.3293  0.9199
  111CHL1  H19C14443   2.154   0.436   6.344 -0.8116 -1.6900  0.8473
  111CHL1    C114444   2.189   0.158   6.259 -0.2410 -0.5779 -0.1360
  111CHL1   H1A14445   2.094   0.145   6.203 -0.1938  1.2066 -0.6881
  111CHL1   H1B14446   2.247   0.068   6.227  2.2378 -0.0622  2.5086
  111CHL1    C214447   2.163   0.161   6.411  0.8933  0.4271 -0.3886
  111CHL1   H2A14448   2.108   0.069   6.441  2.8803 -0.4292  0.8266
  111CHL1   H2B14449   2.105   0.248   6.448  0.8686  0.1272  0.2896
  111CHL1   C2014450   2.282   0.380   5.502 -0.1150  0.6057 -0.1031
  111CHL1   H2014451   2.173   0.367   5.518 -0.7609  1.1314 -3.3218
  111CHL1   C2114452   2.340   0.271   5.399  0.0196  0.9599 -0.4644
  111CHL1  H21A14453   2.309   0.293   5.295 -1.1872  1.5178  0.0024
  111CHL1  H21B14454   2.312   0.167   5.427 -0.6760  0.9531 -1.1538
  111CHL1  H21C14455   2.451   0.283   5.395  0.5244 -2.2032 -4.9242
  111CHL1   C2214456   2.297   0.518   5.431  0.0780  0.0707  0.3005
  111CHL1  H22A14457   2.298   0.594   5.512  0.6734 -0.6637  1.0027
  111CHL1  H22B14458   2.398   0.523   5.385  0.6306  2.4793  1.6084
  111CHL1   C2314459   2.197   0.558   5.319  0.2769  0.0477 -0.1968
  111CHL1  H23A14460   2.185   0.480   5.241 -1.0848  0.5016 -0.4647
  111CHL1  H23B14461   2.097   0.555   5.367  0.4006  0.5953  0.1082
  111CHL1   C2414462   2.210   0.703   5.259 -0.1811 -0.4974 -0.4619
  111CHL1  H24A14463   2.191   0.779   5.338 -0.1314 -0.6779 -0.2741
  111CHL1  H24B14464   2.319   0.714   5.242 -0.3496 -0.0302 -1.3374
  111CHL1   C2514465   2.129   0.745   5.138 -1.0387  0.0315  0.5718
  111CHL1   H2514466   2.144   0.664   5.065  0.8192  0.6690  0.1855
  111CHL1   C2614467   1.982   0.758   5.174  0.5461 -0.9955  0.2010
  111CHL1  H26A14468   1.960   0.854   5.227  1.1597 -0.6425 -0.1712
  111CHL1  H26B14469   1.904   0.753   5.095 -0.9278  0.3624  1.4761
  111CHL1  H26C14470   1.949   0.678   5.243 -0.1591 -3.3112 -2.6405
  111CHL1   C2714471   2.195   0.872   5.069 -0.4686  0.8470  0.0825
  111CHL1  H27A14472   2.296   0.854   5.025 -0.2293  0.8412  0.6229
  111CHL1  H27B14473   2.119   0.900   4.993  0.2885  1.9316 -0.2987
  111CHL1  H27C14474   2.196   0.951   5.147  0.6135 -1.9936  3.1575
  112CHL1    C314475   4.022   0.696   6.588 -0.4528  0.2500 -0.4292
  112CHL1    H314476   3.939   0.759   6.550 -2.5475 -2.4266 -0.5873
  112CHL1    O314477   3.987   0.674   6.717 -0.1274 -0.6316 -0.0333
  112CHL1   H3'14478   4.027   0.744   6.770  0.2088 -1.5375  0.9479
  112CHL1    C414479   4.024   0.567   6.514  0.2324  0.0236  0.0947
  112CHL1   H4A14480   4.113   0.508   6.545  0.6252  1.2366  1.3900
  112CHL1   H4B14481   3.938   0.498   6.530  0.1392 -0.3631 -1.8338
  112CHL1    C514482   4.047   0.591   6.367 -0.1889  0.2045 -0.3665
  112CHL1    C614483   3.960   0.556   6.268 -0.5591 -0.0957 -0.7163
  112CHL1    H614484   3.877   0.491   6.301 -0.3745 -0.0124 -0.0845
  112CHL1    C714485   3.970   0.570   6.122 -0.0006 -0.0954  0.2371
  112CHL1   H7A14486   3.948   0.470   6.077  1.7918  0.2305 -1.4960
  112CHL1   H7B14487   3.890   0.645   6.105  0.4687  1.0924  2.9031
  112CHL1    C814488   4.109   0.627   6.083  0.3607 -0.1154 -0.9323
  112CHL1    H814489   4.184   0.545   6.083  0.5875  0.0513  0.7882
  112CHL1   C1414490   4.104   0.692   5.942  0.0094 -0.1334 -0.3655
  112CHL1   H1414491   4.040   0.781   5.959 -0.5925 -0.5094 -0.6297
  112CHL1   C1514492   4.042   0.623   5.821 -0.6048  0.7837  0.4799
  112CHL1  H15A14493   4.058   0.513   5.818 -1.2432  0.6893  0.4257
  112CHL1  H15B14494   3.932   0.631   5.814 -1.0660 -2.3533  2.3462
  112CHL1   C1614495   4.105   0.691   5.706 -1.0723  0.3795 -0.1540
  112CHL1  H16A14496   4.172   0.617   5.658 -2.0099 -0.5678 -0.0081
  112CHL1  H16B14497   4.034   0.734   5.632 -2.4594 -1.0993  0.2751
  112CHL1   C1714498   4.200   0.801   5.752 -1.2561  0.4000 -0.2800
  112CHL1   H1714499   4.151   0.901   5.760 -1.0884  0.3497  1.9932
  112CHL1   C1314500   4.238   0.754   5.896  0.6834  0.3951  0.3212
  112CHL1   C1814501   4.338   0.637   5.886  0.0622  0.3479  0.6189
  112CHL1  H18A14502   4.359   0.576   5.977 -0.1181 -1.3988 -0.4576
  112CHL1  H18B14503   4.314   0.560   5.810  1.2990  1.5249 -1.0394
  112CHL1  H18C14504   4.429   0.684   5.844 -1.4544  0.4957 -2.7906
  112CHL1   C1214505   4.289   0.859   6.002  0.1647 -0.0867  0.1798
  112CHL1  H12A14506   4.391   0.894   5.976 -0.5345 -0.5487 -3.8948
  112CHL1  H12B14507   4.215   0.942   5.994 -0.1744 -0.5017 -1.5891
  112CHL1   C1114508   4.284   0.811   6.144 -0.7539  0.2802  0.5064
  112CHL1  H11A14509   4.375   0.749   6.159 -0.5503  0.5819  0.5291
  112CHL1  H11B14510   4.290   0.895   6.216 -1.1228 -0.2016  1.1037
  112CHL1    C914511   4.159   0.733   6.184  0.3580  0.6511 -0.0914
  112CHL1    H914512   4.081   0.812   6.177  0.1303  0.2899 -1.9837
  112CHL1   C1014513   4.168   0.676   6.330  0.0841  0.1073 -0.7055
  112CHL1   C1914514   4.286   0.579   6.346  0.1920  0.5260  0.0318
  112CHL1  H19A14515   4.381   0.635   6.345  0.6341 -0.1076 -2.7276
  112CHL1  H19B14516   4.289   0.516   6.437 -1.3358 -0.2504 -0.4088
  112CHL1  H19C14517   4.296   0.507   6.262  1.7636  1.6663 -0.8142
  112CHL1    C114518   4.182   0.800   6.435  0.5701 -0.0796 -0.0963
  112CHL1   H1A14519   4.284   0.842   6.424 -0.1867  1.5857 -1.2472
  112CHL1   H1B14520   4.125   0.888   6.399 -0.5803 -0.2289  1.2791
  112CHL1    C214521   4.152   0.769   6.581 -0.2836  0.0053 -0.0948
  112CHL1   H2A14522   4.157   0.858   6.648  0.8820 -0.8092  0.9454
  112CHL1   H2B14523   4.230   0.701   6.622 -0.6834  0.3485  1.2813
  112CHL1   C2014524   4.315   0.835   5.651  0.4770  0.1372 -0.4454
  112CHL1   H2014525   4.378   0.745   5.636 -1.4757 -1.6071  1.2026
  112CHL1   C2114526   4.415   0.944   5.701 -0.0823  0.4364  0.4927
  112CHL1  H21A14527   4.366   1.031   5.750 -1.0173  1.4717 -2.1257
  112CHL1  H21B14528   4.497   0.967   5.630  0.4175 -3.2865 -0.3393
  112CHL1  H21C14529   4.486   0.900   5.775 -0.2151  0.4165  0.6095
  112CHL1   C2214530   4.261   0.880   5.518  0.3082  0.7299 -0.4885
  112CHL1  H22A14531   4.199   0.799   5.474  0.6288  0.7946 -1.0554
  112CHL1  H22B14532   4.188   0.963   5.527 -1.3455 -0.8757  2.6742
  112CHL1   C2314533   4.369   0.907   5.409 -0.3573 -0.1369 -0.9449
  112CHL1  H23A14534   4.424   1.000   5.433 -0.0584 -0.8301  1.3035
  112CHL1  H23B14535   4.438   0.820   5.400  0.4333  0.3406  0.2519
  112CHL1   C2414536   4.302   0.931   5.274  0.0504 -0.0771  0.5836
  112CHL1  H24A14537   4.237   0.850   5.236 -1.3486  1.6677 -0.9765
  112CHL1  H24B14538   4.233   1.017   5.289 -2.0092 -0.8922 -2.9727
  112CHL1   C2514539   4.395   0.975   5.155  0.6197  0.2687 -0.4942
  112CHL1   H2514540   4.434   1.078   5.164  3.4305 -0.8552  1.7795
  112CHL1   C2614541   4.505   0.877   5.138  0.0175 -0.2182 -0.4402
  112CHL1  H26A14542   4.471   0.771   5.137  0.2129 -0.4718  3.3182
  112CHL1  H26B14543   4.548   0.905   5.040 -1.3290  0.8139 -0.7667
  112CHL1  H26C14544   4.587   0.892   5.211 -0.0801  3.3001 -0.9113
  112CHL1   C2714545   4.312   0.967   5.030  0.0153 -0.0717  0.4939
  112CHL1  H27A14546   4.220   1.029   5.039 -0.6844 -1.1118  0.7362
  112CHL1  H27B14547   4.376   1.013   4.952  1.7764 -1.0538  1.3112
  112CHL1  H27C14548   4.285   0.863   5.001 -0.7588  0.9430 -2.8746
  113CHL1    C314549   1.568   5.070   6.705 -0.1176  0.4408 -0.6895
  113CHL1    H314550   1.541   4.964   6.688 -0.0216  0.2495  0.2791
  113CHL1    O314551   1.615   5.088   6.838 -0.0254  0.4858 -0.1909
  113CHL1   H3'14552   1.707   5.113   6.827  0.1752  0.3620  1.0737
  113CHL1    C414553   1.688   5.105   6.611 -0.7445 -0.6067 -0.1124
  113CHL1   H4A14554   1.722   5.204   6.648  0.8376 -0.7062 -1.2391
  113CHL1   H4B14555   1.774   5.039   6.632  1.2158  1.1858 -2.0599
  113CHL1    C514556   1.654   5.107   6.461 -0.3187 -0.6203 -0.5817
  113CHL1    C614557   1.721   5.035   6.373  0.4250 -0.3479  0.0168
  113CHL1    H614558   1.802   4.967   6.402 -0.3602 -1.6848 -0.7869
  113CHL1    C714559   1.706   5.045   6.226 -0.2837 -0.2270  0.2786
  113CHL1   H7A14560   1.804   5.070   6.180  0.2114 -0.5746  1.1131
  113CHL1   H7B14561   1.670   4.947   6.189 -1.1569 -0.2942  1.2441
  113CHL1    C814562   1.608   5.158   6.182 -0.0787 -0.8846  0.3336
  113CHL1    H814563   1.662   5.254   6.176 -0.2842 -0.7397  0.7169
  113CHL1   C1414564   1.555   5.135   6.040 -0.2345  0.3986  0.3722
  113CHL1   H1414565   1.506   5.036   6.051  1.5212 -0.7904 -1.6339
  113CHL1   C1514566   1.666   5.122   5.929 -1.1181 -0.6512  0.1323
  113CHL1  H15A14567   1.741   5.204   5.925 -1.5979 -0.2695 -1.6465
  113CHL1  H15B14568   1.706   5.018   5.934  1.6980  0.3559  1.0068
  113CHL1   C1614569   1.579   5.137   5.805 -0.3420  0.4816  0.6208
  113CHL1  H16A14570   1.628   5.219   5.748  3.8054 -1.6142  0.7741
  113CHL1  H16B14571   1.590   5.046   5.742  1.4914  2.3283 -1.9265
  113CHL1   C1714572   1.430   5.177   5.847  0.0471  0.4589  0.2335
  113CHL1   H1714573   1.379   5.080   5.863  2.7015 -0.4746  5.1828
  113CHL1   C1314574   1.457   5.233   5.985  0.1784 -0.1903 -0.3341
  113CHL1   C1814575   1.518   5.375   5.976  0.5529 -0.2965 -1.0937
  113CHL1  H18A14576   1.606   5.369   5.909 -1.1655  2.4551 -3.8993
  113CHL1  H18B14577   1.448   5.445   5.925  2.2559  0.7280 -2.1158
  113CHL1  H18C14578   1.550   5.414   6.075 -0.6506  0.3406 -0.9411
  113CHL1   C1214579   1.341   5.229   6.082 -0.1900  0.2899 -0.3731
  113CHL1  H12A14580   1.260   5.300   6.053 -1.5712 -0.7301  0.8101
  113CHL1  H12B14581   1.281   5.135   6.079  1.2646 -0.6864  0.3356
  113CHL1   C1114582   1.377   5.256   6.232 -0.2456  0.5512  0.0778
  113CHL1  H11A14583   1.407   5.363   6.233  0.2396  0.4342 -0.8100
  113CHL1  H11B14584   1.286   5.248   6.295 -0.0892  1.7935  0.4896
  113CHL1    C914585   1.489   5.165   6.280  0.5299  0.3084 -1.0209
  113CHL1    H914586   1.445   5.062   6.280  0.4621  0.3333 -1.6741
  113CHL1   C1014587   1.525   5.186   6.424 -0.0543  0.3644 -0.0241
  113CHL1   C1914588   1.547   5.336   6.433  0.1633 -0.1623 -0.0611
  113CHL1  H19A14589   1.626   5.370   6.362 -0.3019 -0.9123 -0.9680
  113CHL1  H19B14590   1.456   5.399   6.429  0.4662  0.4088  1.3880
  113CHL1  H19C14591   1.590   5.364   6.531  0.5500  1.4172 -0.6400
  113CHL1    C114592   1.413   5.143   6.528 -0.2701 -0.0614 -0.3972
  113CHL1   H1A14593   1.327   5.210   6.510  0.6451  1.0444 -0.7907
  113CHL1   H1B14594   1.385   5.038   6.504 -1.0055  0.5664 -2.4613
  113CHL1    C214595   1.440   5.154   6.675  0.6565  0.3231 -0.1054
  113CHL1   H2A14596   1.361   5.128   6.748 -1.8895  2.7488 -1.8023
  113CHL1   H2B14597   1.454   5.261   6.702 -1.3751  0.4328  0.7168
  113CHL1   C2014598   1.356   5.266   5.740  0.3272  0.9178  0.3445
  113CHL1   H2014599   1.412   5.356   5.707 -0.6655  0.4687 -2.8936
  113CHL1   C2114600   1.223   5.321   5.800 -0.4373 -0.8446  0.5062
  113CHL1  H21A14601   1.176   5.370   5.712  1.7227 -2.6609 -1.7904
  113CHL1  H21B14602   1.244   5.398   5.877 -0.6699  0.3379 -0.5736
  113CHL1  H21C14603   1.158   5.253   5.859 -1.1048  0.3908  1.2332
  113CHL1   C2214604   1.319   5.192   5.609  0.1311 -0.1310  0.0405
  113CHL1  H22A14605   1.383   5.106   5.577  1.1472  1.3987 -2.3334
  113CHL1  H22B14606   1.214   5.158   5.617 -0.8599  2.1406 -2.1336
  113CHL1   C2314607   1.318   5.293   5.490 -0.0067  0.4940  0.4896
  113CHL1  H23A14608   1.287   5.389   5.537  1.0773  0.2161  1.8463
  113CHL1  H23B14609   1.424   5.302   5.461  0.4033 -3.0357  0.4501
  113CHL1   C2414610   1.235   5.261   5.365 -0.0240 -0.1018 -0.6340
  113CHL1  H24A14611   1.276   5.175   5.308 -0.7374 -0.5688 -0.4687
  113CHL1  H24B14612   1.136   5.232   5.408  0.5094 -2.0343 -0.6108
  113CHL1   C2514613   1.215   5.381   5.273  0.4164 -0.5917  0.3123
  113CHL1   H2514614   1.180   5.466   5.335  1.4432 -0.4315  0.6811
  113CHL1   C2614615   1.342   5.417   5.192  0.6198  0.0021 -0.1564
  113CHL1  H26A14616   1.325   5.508   5.132 -0.5968  2.1145  3.1249
  113CHL1  H26B14617   1.428   5.445   5.258  1.4569  1.4433 -1.7847
  113CHL1  H26C14618   1.370   5.331   5.128  1.8406  0.9021 -0.8700
  113CHL1   C2714619   1.097   5.349   5.176 -0.1278  0.1854  0.1022
  113CHL1  H27A14620   1.129   5.272   5.102  0.5896 -1.5607  2.1405
  113CHL1  H27B14621   1.004   5.308   5.221  1.1630 -1.5096  1.3676
  113CHL1  H27C14622   1.060   5.437   5.120 -0.9004  0.9503  1.7746
  114CHL1    C314623   5.984   6.562   6.764 -0.4169  0.8204 -0.2487
  114CHL1    H314624   6.020   6.654   6.712 -0.3700  0.6092 -0.5927
  114CHL1    O314625   6.057   6.538   6.880 -0.0160 -0.4612 -0.9447
  114CHL1   H3'14626   6.030   6.612   6.936  0.5378 -2.5501  2.3698
  114CHL1    C414627   5.835   6.574   6.793  0.1924  0.1060 -0.4291
  114CHL1   H4A14628   5.788   6.479   6.827  0.3782  0.1984  0.1017
  114CHL1   H4B14629   5.807   6.650   6.869 -0.6516 -1.0516  0.4510
  114CHL1    C514630   5.778   6.604   6.657  0.2748 -0.3963 -0.0562
  114CHL1    C614631   5.715   6.721   6.641 -0.0084 -1.1449  0.2553
  114CHL1    H614632   5.725   6.803   6.713  2.3212  0.3495 -1.5775
  114CHL1    C714633   5.637   6.755   6.511 -0.0948 -0.7371 -0.7248
  114CHL1   H7A14634   5.537   6.799   6.533  0.4371  1.4102 -2.3459
  114CHL1   H7B14635   5.690   6.833   6.454  0.3361 -1.4066 -1.2497
  114CHL1    C814636   5.624   6.642   6.410  0.4741  0.2926 -0.3899
  114CHL1    H814637   5.537   6.590   6.455  0.4528  2.4079  2.3250
  114CHL1   C1414638   5.583   6.692   6.274  0.4093 -0.1759  0.7118
  114CHL1   H1414639   5.665   6.756   6.235 -0.1282  1.3837  1.9882
  114CHL1   C1514640   5.463   6.790   6.269  0.1792 -0.0561  0.1650
  114CHL1  H15A14641   5.378   6.768   6.338  0.1587 -0.0987  0.1263
  114CHL1  H15B14642   5.510   6.888   6.290  0.3774  0.2063 -1.4392
  114CHL1   C1614643   5.421   6.783   6.119 -0.2363 -0.5097 -0.2349
  114CHL1  H16A14644   5.319   6.739   6.122 -1.1037  1.4352  0.4663
  114CHL1  H16B14645   5.432   6.884   6.073 -1.5292 -0.9994 -1.6920
  114CHL1   C1714646   5.515   6.680   6.061  0.0490  0.0018  0.2659
  114CHL1   H1714647   5.609   6.720   6.019  0.4800 -1.4042 -0.1765
  114CHL1   C1314648   5.558   6.580   6.172 -0.1778  0.0821  0.1731
  114CHL1   C1814649   5.443   6.478   6.204 -0.1942  0.0475  0.3178
  114CHL1  H18A14650   5.460   6.416   6.294 -2.5687 -1.0604  0.0671
  114CHL1  H18B14651   5.352   6.541   6.215  0.9231  1.7121  0.3872
  114CHL1  H18C14652   5.428   6.427   6.106  0.9955  0.5743 -0.1705
  114CHL1   C1214653   5.698   6.508   6.157 -0.6971  0.4641 -0.4453
  114CHL1  H12A14654   5.696   6.431   6.078  0.6368  0.1385 -0.1856
  114CHL1  H12B14655   5.773   6.582   6.121  0.3665 -0.6466 -0.5446
  114CHL1   C1114656   5.733   6.441   6.295 -0.0461  0.6659 -0.1354
  114CHL1  H11A14657   5.666   6.359   6.327 -0.5925  0.4912 -1.6847
  114CHL1  H11B14658   5.825   6.382   6.274  0.6904  2.0310 -0.9130
  114CHL1    C914659   5.748   6.550   6.411  0.2323 -0.9493  0.8459
  114CHL1    H914660   5.831   6.612   6.372  0.0060 -0.2887  1.3989
  114CHL1   C1014661   5.792   6.493   6.552 -0.2647  0.6117 -0.6152
  114CHL1   C1914662   5.715   6.362   6.600  0.2685  0.0546  0.1447
  114CHL1  H19A14663   5.731   6.279   6.528  0.7148 -0.4748  0.8518
  114CHL1  H19B14664   5.753   6.335   6.701  1.8572 -0.4442 -0.5663
  114CHL1  H19C14665   5.605   6.376   6.606  0.1881  0.0364 -1.0313
  114CHL1    C114666   5.946   6.453   6.540  0.2571  1.0510  0.4792
  114CHL1   H1A14667   5.931   6.352   6.494 -0.9974  1.1972  0.5294
  114CHL1   H1B14668   6.003   6.516   6.469 -2.3338  1.0179 -1.8066
  114CHL1    C214669   6.018   6.440   6.672  0.6441  0.7489  0.3699
  114CHL1   H2A14670   6.128   6.437   6.657  0.4608  2.1815 -1.5589
  114CHL1   H2B14671   5.983   6.345   6.718  0.6798 -0.2002 -1.4909
  114CHL1   C2014672   5.439   6.624   5.933  0.4053 -0.0829  0.4930
  114CHL1   H2014673   5.349   6.568   5.965  0.7928 -1.0064  0.0099
  114CHL1   C2114674   5.533   6.533   5.852  0.6489  0.1809 -0.6446
  114CHL1  H21A14675   5.467   6.478   5.782 -1.2661 -1.1141  2.0094
  114CHL1  H21B14676   5.581   6.460   5.920 -0.4193 -0.3100 -0.4034
  114CHL1  H21C14677   5.615   6.601   5.819 -0.8728  2.6925  0.5076
  114CHL1   C2214678   5.389   6.729   5.823  0.0564  0.4231  0.1226
  114CHL1  H22A14679   5.346   6.671   5.738 -2.6299  1.5576  0.6034
  114CHL1  H22B14680   5.297   6.780   5.858  0.3104  0.5753  0.5884
  114CHL1   C2314681   5.493   6.824   5.771 -1.4298  0.1482  0.1518
  114CHL1  H23A14682   5.542   6.878   5.854 -0.7409  3.4140 -2.1977
  114CHL1  H23B14683   5.565   6.764   5.710 -1.1290 -0.5127  1.1307
  114CHL1   C2414684   5.431   6.936   5.687  0.0095 -0.3085  0.4890
  114CHL1  H24A14685   5.367   6.996   5.754  0.5413  0.3589  0.4062
  114CHL1  H24B14686   5.510   7.005   5.652 -1.8951  1.7991  0.1776
  114CHL1   C2514687   5.355   6.889   5.557  0.1634 -0.0090  1.3044
  114CHL1   H2514688   5.267   6.827   5.583 -0.9387  0.7897 -0.3246
  114CHL1   C2614689   5.326   7.013   5.463  0.7537  0.5835 -0.6859
  114CHL1  H26A14690   5.280   7.095   5.523 -0.4341 -0.4498 -0.1208
  114CHL1  H26B14691   5.420   7.048   5.417  1.1356 -1.8923 -1.9205
  114CHL1  H26C14692   5.268   6.976   5.376  1.2555 -0.6522 -0.5173
  114CHL1   C2714693   5.439   6.788   5.472 -0.1969  0.6252  0.7033
  114CHL1  H27A14694   5.454   6.695   5.530 -1.4095 -1.2576 -1.8215
  114CHL1  H27B14695   5.371   6.769   5.386  1.3687 -2.3725  0.0077
  114CHL1  H27C14696   5.523   6.849   5.433 -0.6169  1.8270  1.6066
  115CHL1    C314697   1.122   7.397   6.408  0.3600 -0.6399 -0.8193
  115CHL1    H314698   1.216   7.443   6.445 -1.4208  1.5731  1.3581
  115CHL1    O314699   1.054   7.357   6.527  0.2041  0.2691 -0.1344
  115CHL1   H3'14700   1.028   7.434   6.579  1.7450  0.3381  0.5744
  115CHL1    C414701   1.043   7.504   6.327 -0.0356 -0.0733 -0.1225
  115CHL1   H4A14702   0.940   7.465   6.308  0.1094 -0.7347  0.4070
  115CHL1   H4B14703   1.044   7.591   6.395  1.3030  0.6087 -0.9760
  115CHL1    C514704   1.113   7.526   6.194 -0.1175 -0.7498  0.6724
  115CHL1    C614705   1.138   7.650   6.164 -1.0892 -0.8512 -0.7599
  115CHL1    H614706   1.115   7.733   6.232  1.1003  0.2393 -1.2504
  115CHL1    C714707   1.201   7.685   6.032 -0.2632  0.9419 -0.3193
  115CHL1   H7A14708   1.151   7.774   5.988 -1.2996 -0.9825 -3.3123
  115CHL1   H7B14709   1.309   7.707   6.049 -0.3752  1.0533  0.2665
  115CHL1    C814710   1.201   7.573   5.926  0.1926 -0.2883  0.2969
  115CHL1    H814711   1.094   7.574   5.897 -0.4458  1.8443  2.3582
  115CHL1   C1414712   1.301   7.600   5.811  1.0119  0.2445 -0.5971
  115CHL1   H1414713   1.402   7.610   5.856  0.3648  0.3091  0.8901
  115CHL1   C1514714   1.282   7.732   5.732 -0.1086 -0.0316  0.1633
  115CHL1  H15A14715   1.172   7.746   5.724  0.1868  1.2283 -3.2247
  115CHL1  H15B14716   1.327   7.815   5.790  0.6161 -0.8745  0.8450
  115CHL1   C1614717   1.344   7.714   5.602  0.2149 -0.0753 -0.0909
  115CHL1  H16A14718   1.276   7.736   5.517 -1.4578 -0.6962  1.0430
  115CHL1  H16B14719   1.437   7.774   5.593  1.5576 -2.2604 -1.7203
  115CHL1   C1714720   1.390   7.562   5.600 -0.2507  0.3264 -0.3569
  115CHL1   H1714721   1.495   7.572   5.635 -0.0309  0.1700 -0.9728
  115CHL1   C1314722   1.302   7.497   5.705  0.0271 -0.9225 -0.2257
  115CHL1   C1814723   1.164   7.484   5.644 -0.6862 -0.6179  0.5645
  115CHL1  H18A14724   1.085   7.458   5.719 -0.2147  0.7088  1.5649
  115CHL1  H18B14725   1.135   7.579   5.594 -0.5221 -1.2593 -0.7890
  115CHL1  H18C14726   1.151   7.403   5.570  1.4345  0.1374 -0.7071
  115CHL1   C1214727   1.339   7.360   5.762 -0.6093 -0.2652 -0.5362
  115CHL1  H12A14728   1.335   7.281   5.684  4.1520 -1.8919  0.5306
  115CHL1  H12B14729   1.447   7.354   5.787 -0.9918 -0.7101  1.0900
  115CHL1   C1114730   1.248   7.323   5.885 -0.2875 -0.5137 -0.0742
  115CHL1  H11A14731   1.152   7.295   5.836  0.5978 -0.1030 -2.1370
  115CHL1  H11B14732   1.285   7.235   5.942 -1.7259 -0.5442  0.8773
  115CHL1    C914733   1.233   7.436   5.985 -0.2013 -0.4297 -0.4802
  115CHL1    H914734   1.334   7.443   6.029 -1.9106  0.3390  3.8214
  115CHL1   C1014735   1.141   7.403   6.103  0.6596  0.5578 -0.3144
  115CHL1   C1914736   0.998   7.358   6.051 -0.1810 -0.3286  0.1187
  115CHL1  H19A14737   1.009   7.266   5.990  0.1903  0.2523 -0.7216
  115CHL1  H19B14738   0.923   7.343   6.132 -0.8458  0.0853 -0.4018
  115CHL1  H19C14739   0.966   7.442   5.985 -1.8597 -1.5932 -0.7784
  115CHL1    C114740   1.202   7.294   6.186  0.8041  0.1837  0.4435
  115CHL1   H1A14741   1.184   7.197   6.134  0.6495  1.1067 -1.2785
  115CHL1   H1B14742   1.312   7.307   6.194  1.2422 -2.9573  0.9435
  115CHL1    C214743   1.142   7.273   6.326  0.0381  0.2465  0.6727
  115CHL1   H2A14744   1.198   7.193   6.379 -1.5854 -0.9313  0.6851
  115CHL1   H2B14745   1.042   7.225   6.318  0.5577 -0.7969  0.2455
  115CHL1   C2014746   1.399   7.506   5.457 -0.3994  0.1831 -0.0254
  115CHL1   H2014747   1.296   7.483   5.421 -0.4915  4.0091 -2.9263
  115CHL1   C2114748   1.486   7.387   5.451  0.2285  0.2413 -0.3622
  115CHL1  H21A14749   1.513   7.353   5.349  2.2058  1.6155 -0.3596
  115CHL1  H21B14750   1.442   7.301   5.506  0.3345  1.3889  1.6433
  115CHL1  H21C14751   1.584   7.410   5.499  0.3739  0.3078 -0.6916
  115CHL1   C2214752   1.448   7.600   5.347 -0.8272 -0.7171 -0.2121
  115CHL1  H22A14753   1.376   7.685   5.341 -3.5140 -2.8823 -0.3091
  115CHL1  H22B14754   1.541   7.658   5.367 -0.3096 -1.6283  0.0882
  115CHL1   C2314755   1.470   7.548   5.208  0.2717  0.3177 -0.1853
  115CHL1  H23A14756   1.559   7.481   5.208 -0.1549 -0.2732  1.1088
  115CHL1  H23B14757   1.385   7.483   5.180  0.5235  0.4265 -1.2612
  115CHL1   C2414758   1.492   7.659   5.101  0.0698  0.6029 -0.7018
  115CHL1  H24A14759   1.422   7.744   5.116  0.0082  0.4328  0.0083
  115CHL1  H24B14760   1.596   7.698   5.104  0.6912 -0.9417 -1.3019
  115CHL1   C2514761   1.477   7.593   4.964  0.6787 -0.3260 -0.0258
  115CHL1   H2514762   1.530   7.495   4.966 -1.0360 -1.2888  0.9341
  115CHL1   C2614763   1.332   7.567   4.929  0.1539 -0.4986  0.5657
  115CHL1  H26A14764   1.328   7.496   4.843 -1.1547  0.6435 -0.3840
  115CHL1  H26B14765   1.272   7.529   5.014 -1.7413  1.9041  0.4235
  115CHL1  H26C14766   1.273   7.653   4.890  1.6438 -0.1662 -1.0545
  115CHL1   C2714767   1.547   7.672   4.855  0.2501  0.1137  0.4256
  115CHL1  H27A14768   1.654   7.667   4.886 -0.1378 -1.9837  1.6119
  115CHL1  H27B14769   1.550   7.623   4.755  3.8846  1.9179 -0.5386
  115CHL1  H27C14770   1.502   7.774   4.851  1.8668  0.8173 -1.5032
  116CHL1    C314771   2.464   7.113   6.116 -0.0898  0.3732  0.5450
  116CHL1    H314772   2.502   7.011   6.095 -1.5050  0.2975 -2.1690
  116CHL1    O314773   2.487   7.154   6.247  0.4913 -0.4132 -0.1269
  116CHL1   H3'14774   2.413   7.214   6.263  0.6161 -0.2867 -0.0195
  116CHL1    C414775   2.534   7.213   6.021 -0.5172  0.3465  0.0207
  116CHL1   H4A14776   2.506   7.317   6.049  0.7597  0.7532 -0.1857
  116CHL1   H4B14777   2.643   7.211   6.041 -0.3049  0.3186 -1.0727
  116CHL1    C514778   2.503   7.188   5.875  0.0479 -0.2064 -0.1103
  116CHL1    C614779   2.599   7.152   5.791 -0.0735  0.3665 -0.2169
  116CHL1    H614780   2.700   7.144   5.834 -0.7721 -0.3821  1.3647
  116CHL1    C714781   2.582   7.115   5.644 -0.5568 -0.0811 -0.8687
  116CHL1   H7A14782   2.661   7.149   5.574 -0.2465 -1.0969 -1.0223
  116CHL1   H7B14783   2.572   7.005   5.637 -2.4321 -0.0306  0.4012
  116CHL1    C814784   2.452   7.185   5.596  0.5978 -0.4363  0.0300
  116CHL1    H814785   2.463   7.296   5.601 -0.4639 -0.3499  0.8634
  116CHL1   C1414786   2.421   7.158   5.450  0.2350 -0.3763  0.5188
  116CHL1   H1414787   2.405   7.048   5.450  0.2382 -0.3805  0.0041
  116CHL1   C1514788   2.521   7.182   5.340 -0.1212  0.7638 -0.2656
  116CHL1  H15A14789   2.572   7.279   5.358  0.5193  0.7709 -1.9801
  116CHL1  H15B14790   2.589   7.094   5.344 -1.1959 -0.4516 -4.3501
  116CHL1   C1614791   2.444   7.173   5.207 -0.5601  0.1948 -0.4807
  116CHL1  H16A14792   2.438   7.268   5.151 -3.4461 -0.3783 -1.2937
  116CHL1  H16B14793   2.480   7.100   5.132  0.8495 -0.0452  0.3867
  116CHL1   C1714794   2.296   7.153   5.249  0.0993  0.2646 -0.5990
  116CHL1   H1714795   2.278   7.044   5.261  2.3297 -0.3902 -2.4418
  116CHL1   C1314796   2.291   7.208   5.395  0.8606  0.3321  0.0722
  116CHL1   C1814797   2.279   7.360   5.375 -0.7850  0.0530 -0.1489
  116CHL1  H18A14798   2.176   7.398   5.358 -1.1572 -0.4955  0.7788
  116CHL1  H18B14799   2.321   7.406   5.467 -0.9223  0.8921 -0.5018
  116CHL1  H18C14800   2.353   7.397   5.301  0.1544 -1.5641 -0.0740
  116CHL1   C1214801   2.173   7.141   5.479  0.0736  0.1798 -0.1119
  116CHL1  H12A14802   2.068   7.167   5.454 -0.3392 -1.9581 -0.7896
  116CHL1  H12B14803   2.192   7.032   5.465 -0.6380 -0.2651  2.0413
  116CHL1   C1114804   2.194   7.185   5.623 -0.0017  0.4673  0.4750
  116CHL1  H11A14805   2.194   7.296   5.617  0.5087  0.4278 -0.3676
  116CHL1  H11B14806   2.109   7.152   5.686 -0.8037 -0.2905 -0.9728
  116CHL1    C914807   2.333   7.150   5.685 -0.2124 -0.5855 -0.7163
  116CHL1    H914808   2.340   7.041   5.706 -0.8744 -0.1476  2.3078
  116CHL1   C1014809   2.358   7.200   5.838 -0.4714  0.1911 -0.3311
  116CHL1   C1914810   2.316   7.342   5.852 -0.3369  0.7032  0.5131
  116CHL1  H19A14811   2.209   7.353   5.827 -0.5850  0.5440  1.4666
  116CHL1  H19B14812   2.328   7.388   5.952  1.0670  0.0688  0.6581
  116CHL1  H19C14813   2.376   7.411   5.789  1.0997 -1.5848 -0.7946
  116CHL1    C114814   2.284   7.099   5.938 -0.2276 -0.1986  0.1711
  116CHL1   H1A14815   2.176   7.121   5.927 -1.2363 -3.5630  1.8152
  116CHL1   H1B14816   2.301   6.994   5.906  1.6894  0.1575 -0.1060
  116CHL1    C214817   2.320   7.129   6.088  0.1887 -0.8239  0.4395
  116CHL1   H2A14818   2.260   7.059   6.151  0.3654 -1.5792 -0.2143
  116CHL1   H2B14819   2.300   7.235   6.115  3.1951 -0.4117  1.4454
  116CHL1   C2014820   2.205   7.206   5.137  0.3138 -0.2775 -0.0302
  116CHL1   H2014821   2.209   7.317   5.135 -1.1236 -0.0918  2.7070
  116CHL1   C2114822   2.052   7.174   5.172 -0.0292  0.0642 -0.0102
  116CHL1  H21A14823   2.047   7.063   5.180 -0.1284  0.0694 -0.0003
  116CHL1  H21B14824   1.975   7.214   5.102  0.5668  0.4764 -0.4358
  116CHL1  H21C14825   2.023   7.217   5.270 -1.7384 -1.2211  0.0988
  116CHL1   C2214826   2.240   7.153   4.992 -0.6127 -0.2404  0.0174
  116CHL1  H22A14827   2.342   7.180   4.958 -0.9126 -0.7148 -1.3219
  116CHL1  H22B14828   2.219   7.043   4.991 -2.0847  0.0131  0.5275
  116CHL1   C2314829   2.165   7.218   4.882  0.5530  1.4108  0.0623
  116CHL1  H23A14830   2.055   7.216   4.891  0.6406  0.4114  1.2089
  116CHL1  H23B14831   2.182   7.328   4.890  2.2092  1.1510  0.5394
  116CHL1   C2414832   2.206   7.178   4.740 -0.0584  0.5558  0.2826
  116CHL1  H24A14833   2.315   7.163   4.721 -0.0688 -0.1382  0.7137
  116CHL1  H24B14834   2.162   7.077   4.725 -0.0239  0.6241 -0.2813
  116CHL1   C2514835   2.145   7.263   4.630 -0.0850 -0.4015 -0.3708
  116CHL1   H2514836   2.048   7.308   4.659  0.0842 -0.0356 -0.3569
  116CHL1   C2614837   2.231   7.387   4.607  0.3382 -0.0595  0.2853
  116CHL1  H26A14838   2.236   7.448   4.700 -0.2059 -0.4978  0.6079
  116CHL1  H26B14839   2.333   7.354   4.578  0.6527 -0.4827  1.7884
  116CHL1  H26C14840   2.186   7.450   4.528  2.1413  0.3204 -0.4980
  116CHL1   C2714841   2.129   7.188   4.497  0.5970  0.3866  0.0405
  116CHL1  H27A14842   2.220   7.182   4.434 -0.3729 -0.2472 -1.3428
  116CHL1  H27B14843   2.083   7.087   4.498  0.8853  0.2523 -0.2088
  116CHL1  H27C14844   2.047   7.245   4.450 -0.4998  0.6274  2.1291
  117CHL1    C314845   4.134   0.084   6.422 -0.1437  0.3032  0.3173
  117CHL1    H314846   4.222   0.021   6.448 -0.2990  0.1384  0.4454
  117CHL1    O314847   4.050   0.116   6.534 -0.1582  0.1953 -0.0115
  117CHL1   H3'14848   3.968   0.066   6.525  1.0898 -2.5869  2.4074
  117CHL1    C414849   4.174   0.223   6.363 -0.9882  0.2653 -0.0039
  117CHL1   H4A14850   4.079   0.276   6.343 -1.2902 -0.2685 -0.0070
  117CHL1   H4B14851   4.238   0.280   6.434 -2.3216 -0.6987  2.0710
  117CHL1    C514852   4.248   0.224   6.226  0.0964  0.7789  0.5518
  117CHL1    C614853   4.373   0.266   6.205 -0.3409 -0.1906 -0.0813
  117CHL1    H614854   4.427   0.312   6.289 -2.0539  1.6431  0.0835
  117CHL1    C714855   4.443   0.262   6.074 -0.0743 -0.3119  0.1939
  117CHL1   H7A14856   4.469   0.368   6.050  0.4182 -0.2973  0.8005
  117CHL1   H7B14857   4.526   0.189   6.076  0.4525  0.2833  0.4784
  117CHL1    C814858   4.356   0.215   5.957  0.6066  0.4666 -0.3764
  117CHL1    H814859   4.289   0.299   5.928 -1.0477 -0.5375  0.3876
  117CHL1   C1414860   4.437   0.180   5.829 -0.1502  0.0131 -0.9079
  117CHL1   H1414861   4.507   0.099   5.860  0.5939  0.9360 -0.1037
  117CHL1   C1514862   4.524   0.290   5.775 -0.7565 -0.6248 -0.0198
  117CHL1  H15A14863   4.458   0.379   5.772 -1.1732 -0.8771  1.0495
  117CHL1  H15B14864   4.616   0.310   5.834 -0.9776  1.5779 -0.3296
  117CHL1   C1614865   4.553   0.249   5.635  0.0311  0.6173 -0.1168
  117CHL1  H16A14866   4.514   0.320   5.559  0.4932 -0.4278 -1.3678
  117CHL1  H16B14867   4.659   0.223   5.613 -0.4700 -1.1946 -0.5852
  117CHL1   C1714868   4.475   0.117   5.610  0.2528 -0.3619 -0.0909
  117CHL1   H1714869   4.541   0.036   5.647  2.2534  1.3070  0.1953
  117CHL1   C1314870   4.356   0.131   5.710  0.4057 -0.8257 -0.1793
  117CHL1   C1814871   4.250   0.239   5.669  0.7033  0.5729  0.3168
  117CHL1  H18A14872   4.161   0.234   5.735  0.3612  0.1527 -0.1651
  117CHL1  H18B14873   4.295   0.340   5.662  0.5121  0.7455  1.4364
  117CHL1  H18C14874   4.194   0.220   5.575  0.2811  0.1365  0.6456
  117CHL1   C1214875   4.292   0.001   5.757 -0.1191  0.0913 -0.4002
  117CHL1  H12A14876   4.222  -0.043   5.683 -2.3396  0.4604  1.3580
  117CHL1  H12B14877   4.370  -0.076   5.778  1.7528  1.9251 -0.3368
  117CHL1   C1114878   4.212   0.011   5.887 -0.6024  0.1874  1.0698
  117CHL1  H11A14879   4.121   0.059   5.845 -0.2906 -1.6758 -2.0780
  117CHL1  H11B14880   4.179  -0.085   5.932  2.6636 -1.6052 -0.0355
  117CHL1    C914881   4.278   0.091   6.002 -0.0931 -0.3082  0.8889
  117CHL1    H914882   4.357   0.019   6.035  0.7522 -0.8237 -1.9017
  117CHL1   C1014883   4.177   0.123   6.117  0.2208 -0.6145 -0.2402
  117CHL1   C1914884   4.054   0.187   6.055  0.5180 -0.5716  0.4705
  117CHL1  H19A14885   3.978   0.234   6.122 -2.2949 -2.4375 -1.1928
  117CHL1  H19B14886   4.096   0.264   5.987  0.6634  0.4970  1.7320
  117CHL1  H19C14887   3.994   0.118   5.992  0.6116 -0.6426  0.4591
  117CHL1    C114888   4.122  -0.003   6.186  0.5539 -0.0681 -0.0010
  117CHL1   H1A14889   4.058  -0.058   6.113  0.4162 -1.6925  1.2885
  117CHL1   H1B14890   4.206  -0.074   6.202  0.7379  0.2149  0.2944
  117CHL1    C214891   4.054   0.003   6.324 -0.0529  0.0811  0.1095
  117CHL1   H2A14892   4.046  -0.102   6.360  3.0302 -0.3821 -0.3337
  117CHL1   H2B14893   3.960   0.062   6.312  0.2393  0.8695  1.4699
  117CHL1   C2014894   4.447   0.088   5.461 -0.3253 -0.0759 -0.0739
  117CHL1   H2014895   4.366   0.159   5.432 -0.7511  0.1189  1.4892
  117CHL1   C2114896   4.405  -0.060   5.441 -1.1696 -0.1525  0.2675
  117CHL1  H21A14897   4.501  -0.109   5.418  0.5042  1.9706  2.2551
  117CHL1  H21B14898   4.341  -0.070   5.350 -0.4483  1.0651 -0.4015
  117CHL1  H21C14899   4.363  -0.107   5.532 -0.9098  0.2253  0.5874
  117CHL1   C2214900   4.570   0.121   5.385 -0.1892 -0.1054  0.4801
  117CHL1  H22A14901   4.582   0.232   5.381 -0.6829 -0.0850 -0.9662
  117CHL1  H22B14902   4.663   0.079   5.429  0.6197  0.7291 -0.3965
  117CHL1   C2314903   4.580   0.081   5.236  1.1930 -0.4042 -0.9050
  117CHL1  H23A14904   4.524  -0.011   5.210  0.4640 -0.0816 -0.5003
  117CHL1  H23B14905   4.523   0.160   5.182 -2.4716  0.3217  3.4679
  117CHL1   C2414906   4.713   0.070   5.180  0.2010  0.1171 -0.4644
  117CHL1  H24A14907   4.775   0.160   5.197  0.0512  0.3723 -1.1921
  117CHL1  H24B14908   4.768  -0.011   5.231  1.5245  1.3406  0.1247
  117CHL1   C2514909   4.723   0.030   5.034  0.2076  0.0263  0.2113
  117CHL1   H2514910   4.664   0.103   4.974  0.3268  0.3451  0.4775
  117CHL1   C2614911   4.872   0.040   4.988  0.1680  0.2239 -0.7920
  117CHL1  H26A14912   4.906   0.141   5.020 -1.2967  0.6432 -0.4455
  117CHL1  H26B14913   4.926  -0.028   5.057  0.9241  2.0919  0.5496
  117CHL1  H26C14914   4.891   0.016   4.881 -0.4874 -1.7822 -0.5052
  117CHL1   C2714915   4.655  -0.109   5.011  0.3043  0.5530 -0.0158
  117CHL1  H27A14916   4.678  -0.171   4.922 -0.5069 -0.5315  0.4956
  117CHL1  H27B14917   4.687  -0.163   5.102  1.9699  0.3921 -0.6593
  117CHL1  H27C14918   4.544  -0.110   5.020  0.3620 -1.8119  1.3735
  118CHL1    C314919   7.408   2.093   7.190  0.0542  0.1533 -1.1293
  118CHL1    H314920   7.318   2.030   7.172  0.5879 -1.5973  1.6995
  118CHL1    O314921   7.419   2.108   7.331  0.2898 -0.5837 -0.5037
  118CHL1   H3'14922   7.512   2.127   7.345 -0.2287  2.6594 -0.6078
  118CHL1    C414923   7.527   2.001   7.145  0.6782  0.1549 -1.0665
  118CHL1   H4A14924   7.625   2.037   7.184 -0.3529  1.7082  0.1876
  118CHL1   H4B14925   7.505   1.902   7.190  1.9752 -0.0583 -0.8739
  118CHL1    C514926   7.524   1.975   7.000 -0.2494  0.1296 -0.4540
  118CHL1    C614927   7.524   1.850   6.947 -0.0438  0.2314 -0.6241
  118CHL1    H614928   7.531   1.762   7.012 -1.3632  0.0955 -0.6372
  118CHL1    C714929   7.521   1.813   6.802 -0.3050  0.2823  0.9522
  118CHL1   H7A14930   7.581   1.722   6.785  0.7848  0.2112  4.4734
  118CHL1   H7B14931   7.417   1.790   6.768 -0.4526  0.5833  1.1944
  118CHL1    C814932   7.564   1.939   6.723  0.6889  0.3028 -0.0096
  118CHL1    H814933   7.671   1.957   6.748  1.1189 -2.5566  0.5087
  118CHL1   C1414934   7.547   1.930   6.574  0.7372 -0.3447 -0.4715
  118CHL1   H1414935   7.441   1.908   6.551  0.4271  0.4457  0.1297
  118CHL1   C1514936   7.620   1.814   6.496 -0.4803  0.1469 -0.6284
  118CHL1  H15A14937   7.716   1.799   6.549 -0.8897  0.6725  0.3015
  118CHL1  H15B14938   7.556   1.723   6.503 -1.9269  1.1402 -0.5551
  118CHL1   C1614939   7.656   1.860   6.359  0.4592  0.1319  0.0514
  118CHL1  H16A14940   7.766   1.866   6.349  0.6194 -0.7575  1.1263
  118CHL1  H16B14941   7.626   1.789   6.278 -1.0124 -0.8014  1.3589
  118CHL1   C1714942   7.579   1.996   6.350 -0.8089 -0.2288 -0.0587
  118CHL1   H1714943   7.472   1.969   6.337 -0.7296  0.1778 -1.7962
  118CHL1   C1314944   7.580   2.053   6.492 -0.2333 -0.1174  0.2795
  118CHL1   C1814945   7.735   2.090   6.524  0.2999 -0.7154 -0.0998
  118CHL1  H18A14946   7.776   2.177   6.468  0.1779 -0.5883  0.0079
  118CHL1  H18B14947   7.748   2.117   6.631 -2.1910 -1.8796  0.5704
  118CHL1  H18C14948   7.805   2.009   6.495  0.4462 -1.5770  2.4159
  118CHL1   C1214949   7.478   2.163   6.523  0.1009  0.0765 -0.2258
  118CHL1  H12A14950   7.502   2.251   6.460  1.0703  0.5649  0.7988
  118CHL1  H12B14951   7.378   2.123   6.495 -0.7968  2.6674 -1.1086
  118CHL1   C1114952   7.482   2.184   6.674  0.2225  0.1039 -0.4953
  118CHL1  H11A14953   7.585   2.225   6.687  0.0706  0.3180  0.0281
  118CHL1  H11B14954   7.404   2.258   6.701 -0.1778 -0.3719 -0.3332
  118CHL1    C914955   7.485   2.062   6.771 -0.0033  0.2945  0.4787
  118CHL1    H914956   7.378   2.033   6.771 -0.7559  2.7733  0.4111
  118CHL1   C1014957   7.515   2.104   6.915  0.0369  0.3573 -0.4296
  118CHL1   C1914958   7.657   2.168   6.924  0.1252  0.5625  0.6095
  118CHL1  H19A14959   7.697   2.194   7.024  0.5887  0.5825  0.4214
  118CHL1  H19B14960   7.723   2.091   6.879 -2.2152 -0.5053 -1.2368
  118CHL1  H19C14961   7.669   2.257   6.858 -0.3373 -1.0106 -1.7028
  118CHL1    C114962   7.401   2.196   6.968  0.0055 -0.0913 -0.2638
  118CHL1   H1A14963   7.406   2.291   6.911 -0.3903 -0.6940 -1.3191
  118CHL1   H1B14964   7.303   2.149   6.942  0.3437 -0.3336 -1.1342
  118CHL1    C214965   7.417   2.223   7.116 -0.3058 -0.1694  0.8398
  118CHL1   H2A14966   7.337   2.292   7.149 -1.2700  0.5897 -2.6057
  118CHL1   H2B14967   7.509   2.282   7.136 -1.3522  2.4047 -1.2448
  118CHL1   C2014968   7.615   2.100   6.238  0.2035 -0.2480 -0.4622
  118CHL1   H2014969   7.629   2.199   6.286  2.0106  0.1724 -1.7738
  118CHL1   C2114970   7.503   2.107   6.132 -0.0770  0.4243  0.2338
  118CHL1  H21A14971   7.500   2.199   6.071 -1.0676  1.0212  1.1439
  118CHL1  H21B14972   7.410   2.110   6.192  0.9924 -1.9727  2.2237
  118CHL1  H21C14973   7.511   2.018   6.066  2.5902  1.1436 -0.5217
  118CHL1   C2214974   7.754   2.068   6.169  0.1417 -0.1974  0.0980
  118CHL1  H22A14975   7.842   2.058   6.236 -1.1170 -3.2420  1.4827
  118CHL1  H22B14976   7.752   1.970   6.116  0.0059  0.3811 -0.9924
  118CHL1   C2314977   7.784   2.181   6.070 -0.9648  0.7776 -0.1703
  118CHL1  H23A14978   7.731   2.155   5.976 -0.3273  0.3255 -0.4119
  118CHL1  H23B14979   7.743   2.281   6.096 -1.4801  0.5485 -0.0976
  118CHL1   C2414980   7.932   2.181   6.037  0.2650 -0.6165  0.4918
  118CHL1  H24A14981   7.990   2.213   6.126  4.2633 -2.0751 -1.3609
  118CHL1  H24B14982   7.957   2.074   6.020  1.4929 -0.3417  0.4897
  118CHL1   C2514983   7.984   2.265   5.918 -0.0639 -0.0673 -0.1731
  118CHL1   H2514984   7.949   2.219   5.823  0.6326 -1.1281  0.0616
  118CHL1   C2614985   7.933   2.410   5.909  0.0615  0.2082 -0.7006
  118CHL1  H26A14986   7.824   2.405   5.931  0.4969 -0.1257  1.5849
  118CHL1  H26B14987   7.984   2.481   5.977 -3.3653 -0.0302  2.4151
  118CHL1  H26C14988   7.949   2.454   5.808 -0.3240  0.0417 -0.8350
  118CHL1   C2714989   8.139   2.271   5.907  0.9899  0.1843 -0.0924
  118CHL1  H27A14990   8.170   2.338   5.823 -0.8231 -0.3006 -1.2229
  118CHL1  H27B14991   8.176   2.310   6.004 -1.3097  0.3941  0.7738
  118CHL1  H27C14992   8.173   2.168   5.888 -1.7354 -0.7617 -0.3368
  119CHL1    C314993   1.153   6.807   6.366  0.3878  0.1717  0.4979
  119CHL1    H314994   1.074   6.883   6.379  1.4182  1.2461  0.6256
  119CHL1    O314995   1.257   6.828   6.468  0.2247  0.2124  0.0095
  119CHL1   H3'14996   1.279   6.741   6.501  0.8459 -0.2431 -1.5150
  119CHL1    C414997   1.100   6.666   6.381 -0.4534  0.0457 -0.0801
  119CHL1   H4A14998   1.174   6.584   6.379 -2.1742 -1.6399 -3.6587
  119CHL1   H4B14999   1.061   6.664   6.485  1.5514  0.9898  0.7496
  119CHL1    C515000   1.007   6.639   6.268  0.1601 -0.1311 -0.1485
  119CHL1    C615001   0.880   6.603   6.292  0.1371  0.3265 -0.6162
  119CHL1    H615002   0.843   6.596   6.395 -2.2457  2.9091 -1.1671
  119CHL1    C715003   0.779   6.556   6.189  0.0410  0.0504 -0.2632
  119CHL1   H7A15004   0.746   6.453   6.214 -0.5497  0.0444 -1.0398
  119CHL1   H7B15005   0.685   6.614   6.188 -0.8983 -1.4268 -0.1555
  119CHL1    C815006   0.851   6.547   6.050  0.0048  0.7119  0.6067
  119CHL1    H815007   0.897   6.446   6.041 -0.2690  0.6322  0.0934
  119CHL1   C1415008   0.745   6.549   5.943 -0.2762 -0.9318 -0.2710
  119CHL1   H1415009   0.706   6.652   5.951  1.5929 -0.1504 -0.7087
  119CHL1   C1515010   0.627   6.464   5.960  0.5794  0.1461  0.2703
  119CHL1  H15A15011   0.669   6.371   6.004  0.6212  0.9316  1.9590
  119CHL1  H15B15012   0.561   6.510   6.036 -0.5893  0.8547 -1.1259
  119CHL1   C1615013   0.561   6.450   5.818 -0.3845  0.1363  0.4618
  119CHL1  H16A15014   0.549   6.341   5.796 -0.9097 -0.0911  1.7833
  119CHL1  H16B15015   0.462   6.500   5.818 -1.2903 -1.5483 -0.5692
  119CHL1   C1715016   0.659   6.526   5.723 -0.4500 -0.2503  0.3537
  119CHL1   H1715017   0.622   6.631   5.728 -0.5426 -0.2769  0.2237
  119CHL1   C1315018   0.794   6.531   5.802  0.7084 -0.7838 -0.0270
  119CHL1   C1815019   0.859   6.386   5.799  0.3074  0.1180  0.2414
  119CHL1  H18A15020   0.799   6.301   5.838  0.0541  0.4658  0.6102
  119CHL1  H18B15021   0.883   6.357   5.694 -0.1886  0.0201  0.1547
  119CHL1  H18C15022   0.959   6.387   5.847  1.6616 -0.0502 -2.3905
  119CHL1   C1215023   0.888   6.648   5.765 -0.4861  0.6455  0.3195
  119CHL1  H12A15024   0.924   6.626   5.662 -0.4358  1.4999  0.1396
  119CHL1  H12B15025   0.834   6.746   5.766  0.1605  1.0358 -0.9584
  119CHL1   C1115026   1.006   6.653   5.868 -0.0437 -0.1145 -0.7588
  119CHL1  H11A15027   1.060   6.558   5.845 -1.4098 -1.0515 -0.2127
  119CHL1  H11B15028   1.066   6.744   5.846 -0.6675  0.3253 -0.6485
  119CHL1    C915029   0.953   6.655   6.015  0.1428  0.5592 -0.2565
  119CHL1    H915030   0.891   6.746   6.025 -2.7077 -1.4521  1.7185
  119CHL1   C1015031   1.061   6.665   6.126  0.0383 -0.0625 -0.3081
  119CHL1   C1915032   1.156   6.553   6.093  0.5956  0.2384  0.3930
  119CHL1  H19A15033   1.237   6.555   6.169  0.9348  2.7945  0.0629
  119CHL1  H19B15034   1.109   6.453   6.085  0.3755  0.3602  0.1217
  119CHL1  H19C15035   1.198   6.586   5.995 -0.2358 -2.1887 -0.8596
  119CHL1    C115036   1.124   6.803   6.113 -0.8173  0.1756  0.0279
  119CHL1   H1A15037   1.184   6.808   6.019  0.0258  3.2307  0.6448
  119CHL1   H1B15038   1.040   6.876   6.114 -0.7509  0.2551 -0.1353
  119CHL1    C215039   1.222   6.839   6.233  0.4492  0.0816 -0.3789
  119CHL1   H2A15040   1.248   6.947   6.231  1.9424 -0.2705 -0.9727
  119CHL1   H2B15041   1.312   6.775   6.221  0.4697  0.1979 -0.8423
  119CHL1   C2015042   0.659   6.478   5.576 -0.0450 -0.7266  0.0147
  119CHL1   H2015043   0.715   6.383   5.571  0.3016 -0.7626  2.7715
  119CHL1   C2115044   0.725   6.578   5.478  0.1573 -0.1159 -0.0998
  119CHL1  H21A15045   0.833   6.600   5.490  0.5104 -0.8564 -1.6318
  119CHL1  H21B15046   0.663   6.670   5.475  0.0392 -0.2001 -2.3750
  119CHL1  H21C15047   0.735   6.533   5.377  0.5871  1.5399 -0.8346
  119CHL1   C2215048   0.517   6.442   5.526  0.3452 -0.7587 -0.5320
  119CHL1  H22A15049   0.462   6.372   5.592 -1.7006  0.4347 -0.9210
  119CHL1  H22B15050   0.451   6.530   5.513  1.3861  0.2261  0.5783
  119CHL1   C2315051   0.517   6.381   5.383 -0.1698 -0.4223  0.3250
  119CHL1  H23A15052   0.563   6.449   5.309  0.2228 -0.0387  0.9115
  119CHL1  H23B15053   0.583   6.291   5.386  0.6219  0.1369 -0.0006
  119CHL1   C2415054   0.376   6.330   5.332  0.1759 -0.2472 -0.1361
  119CHL1  H24A15055   0.333   6.259   5.405  0.5230 -0.2418  0.0764
  119CHL1  H24B15056   0.327   6.430   5.326 -2.1936 -1.3211  0.3108
  119CHL1   C2515057   0.381   6.253   5.193 -0.1872 -0.0478  0.1989
  119CHL1   H2515058   0.444   6.312   5.124  1.1059 -0.7658  0.7259
  119CHL1   C2615059   0.445   6.111   5.200 -0.8446  0.4950 -0.2918
  119CHL1  H26A15060   0.545   6.114   5.248  0.2973  0.4921 -2.5332
  119CHL1  H26B15061   0.375   6.041   5.251  0.4480 -0.3614  0.3518
  119CHL1  H26C15062   0.463   6.088   5.093 -0.3950  1.4990 -0.4385
  119CHL1   C2715063   0.239   6.249   5.141 -0.2762  0.9926  0.4413
  119CHL1  H27A15064   0.167   6.187   5.198 -1.3583  2.6894  0.9900
  119CHL1  H27B15065   0.200   6.353   5.147  1.0684  1.7261 -2.1756
  119CHL1  H27C15066   0.232   6.206   5.039  2.2024  0.5496  0.3798
  120CHL1    C315067   7.003   0.916   7.171  0.2189  1.0343 -0.6193
  120CHL1    H315068   6.894   0.921   7.194  0.5982  1.3492  1.2165
  120CHL1    O315069   7.071   0.905   7.295 -0.4059 -0.1376 -0.2169
  120CHL1   H3'15070   7.142   0.842   7.282 -0.0873  0.2947 -0.6168
  120CHL1    C415071   7.041   0.776   7.103  0.2239 -0.2655  0.3900
  120CHL1   H4A15072   7.151   0.760   7.105  0.1760 -0.7729 -0.5631
  120CHL1   H4B15073   6.983   0.701   7.161 -1.5764  0.2479 -0.6678
  120CHL1    C515074   6.987   0.774   6.959  0.7275  0.2214 -0.4389
  120CHL1    C615075   6.917   0.665   6.913  0.1298  0.4302 -0.6004
  120CHL1    H615076   6.901   0.572   6.970  0.0502 -0.8407 -2.6375
  120CHL1    C715077   6.868   0.649   6.771 -1.2023 -0.4869 -0.2134
  120CHL1   H7A15078   6.899   0.550   6.731  2.4620 -1.1839  3.5844
  120CHL1   H7B15079   6.758   0.642   6.760 -1.3619  1.6863 -0.4259
  120CHL1    C815080   6.915   0.762   6.671  0.4961  0.2478 -0.6243
  120CHL1    H815081   7.021   0.748   6.641  0.4568 -1.1930 -0.1378
  120CHL1   C1415082   6.825   0.769   6.548 -0.2545 -0.2220  0.1141
  120CHL1   H1415083   6.724   0.799   6.584  0.2389  2.1997 -0.3801
  120CHL1   C1515084   6.797   0.639   6.467 -0.1380 -0.1765  0.6374
  120CHL1  H15A15085   6.884   0.575   6.441 -1.8421 -1.8799 -1.2581
  120CHL1  H15B15086   6.722   0.571   6.512 -0.9840 -0.5623 -1.2399
  120CHL1   C1615087   6.726   0.697   6.344  0.5741  0.2149 -0.1937
  120CHL1  H16A15088   6.774   0.652   6.254  0.8346  1.4501 -0.6908
  120CHL1  H16B15089   6.622   0.658   6.344  0.6720 -0.0791  1.3417
  120CHL1   C1715090   6.737   0.852   6.345 -0.5312 -0.1240 -0.2816
  120CHL1   H1715091   6.645   0.898   6.386  0.6936  1.2109  1.1280
  120CHL1   C1315092   6.858   0.882   6.450  0.1813  0.5194  0.5938
  120CHL1   C1815093   6.984   0.851   6.369 -0.9364 -0.1827  0.2518
  120CHL1  H18A15094   7.068   0.833   6.439 -1.8201  1.1296  1.7266
  120CHL1  H18B15095   6.987   0.766   6.298  1.4126 -1.0172  1.2718
  120CHL1  H18C15096   7.007   0.932   6.297 -0.6221 -0.4080  0.0975
  120CHL1   C1215097   6.864   1.013   6.526  1.1718 -0.2947  0.9624
  120CHL1  H12A15098   6.894   1.102   6.467 -0.4030 -0.6063 -0.3566
  120CHL1  H12B15099   6.774   1.029   6.589  0.9774 -0.2058  0.6620
  120CHL1   C1115100   6.965   1.008   6.643  0.5613  0.3977  0.5198
  120CHL1  H11A15101   7.065   0.985   6.602 -0.1235 -0.2369 -0.8983
  120CHL1  H11B15102   6.968   1.109   6.688  2.3067  1.3307 -1.5192
  120CHL1    C915103   6.924   0.902   6.744 -0.2056 -0.5409 -0.6329
  120CHL1    H915104   6.819   0.920   6.774 -0.2654  0.1290 -1.1986
  120CHL1   C1015105   7.008   0.902   6.874  0.4017  0.0814  0.0498
  120CHL1   C1915106   7.159   0.890   6.838 -0.3927 -0.1296  0.5680
  120CHL1  H19A15107   7.181   0.792   6.790 -1.3842 -0.1100  0.0482
  120CHL1  H19B15108   7.202   0.956   6.760  1.1699  0.2233  1.6733
  120CHL1  H19C15109   7.227   0.897   6.925  0.2687  1.6466 -0.0613
  120CHL1    C115110   6.984   1.034   6.953 -0.8521  0.3611 -0.2727
  120CHL1   H1A15111   7.027   1.114   6.888  2.4896 -1.1477 -0.1541
  120CHL1   H1B15112   6.875   1.049   6.968 -0.6529  0.6011  1.0050
  120CHL1    C215113   7.053   1.035   7.091 -0.1249 -0.4445  0.5915
  120CHL1   H2A15114   7.030   1.121   7.157  1.3271 -0.9860  1.8573
  120CHL1   H2B15115   7.163   1.036   7.077  0.0371  0.6218  1.7570
  120CHL1   C2015116   6.752   0.915   6.203 -0.6928 -0.6011  0.1843
  120CHL1   H2015117   6.846   0.868   6.166  0.1636 -0.3747  1.9484
  120CHL1   C2115118   6.784   1.065   6.201 -0.4619  0.2652 -0.3734
  120CHL1  H21A15119   6.879   1.100   6.247 -1.0559 -0.1717  1.2407
  120CHL1  H21B15120   6.710   1.133   6.249 -1.2054  0.1374 -1.3079
  120CHL1  H21C15121   6.785   1.097   6.094  0.5090 -2.3697 -1.2242
  120CHL1   C2215122   6.629   0.886   6.107  0.6439 -0.4053 -1.0106
  120CHL1  H22A15123   6.664   0.912   6.005  2.4833  1.8020  0.0694
  120CHL1  H22B15124   6.613   0.776   6.112 -2.0007 -0.0662 -0.8548
  120CHL1   C2315125   6.492   0.945   6.159  0.5185  0.0545 -0.1223
  120CHL1  H23A15126   6.479   0.896   6.258  0.1585  2.7241  1.2553
  120CHL1  H23B15127   6.512   1.053   6.176  2.5380 -0.5146  1.6418
  120CHL1   C2415128   6.377   0.925   6.066  0.7985 -0.5048  0.2426
  120CHL1  H24A15129   6.414   0.966   5.970  1.7975 -1.4605  0.1838
  120CHL1  H24B15130   6.349   0.820   6.039  0.1561 -0.0530 -0.9069
  120CHL1   C2515131   6.247   0.986   6.107  0.0057  0.2145 -0.0170
  120CHL1   H2515132   6.272   1.087   6.145 -1.2817  1.0343 -1.2634
  120CHL1   C2615133   6.159   0.986   5.984 -0.0976  0.3923  0.3019
  120CHL1  H26A15134   6.213   1.028   5.896  0.8482  3.1998  2.0670
  120CHL1  H26B15135   6.129   0.882   5.963  1.4162 -0.0700  0.3196
  120CHL1  H26C15136   6.071   1.053   5.996  0.3826  1.4378 -1.5877
  120CHL1   C2715137   6.189   0.904   6.215  0.3100 -0.2090  0.0615
  120CHL1  H27A15138   6.136   0.818   6.169 -0.1665 -0.6480  1.3877
  120CHL1  H27B15139   6.265   0.852   6.277 -1.0855 -0.3875  1.6994
  120CHL1  H27C15140   6.127   0.963   6.284  1.1338  0.8639 -0.0924
  121CHL1    C315141   3.878   4.011   3.077 -0.1599  0.2004 -0.1090
  121CHL1    H315142   3.978   4.008   3.126 -0.3962 -0.9496  0.3233
  121CHL1    O315143   3.903   4.018   2.936 -0.3196 -0.5498 -0.1628
  121CHL1   H3'15144   3.834   4.064   2.888 -2.0671 -0.7483  1.9825
  121CHL1    C415145   3.808   3.877   3.099 -0.0342 -0.0831  1.1549
  121CHL1   H4A15146   3.712   3.877   3.043  1.7955  0.4011 -2.2235
  121CHL1   H4B15147   3.876   3.799   3.059 -1.1241 -0.2914 -0.3790
  121CHL1    C515148   3.781   3.860   3.246  0.1152  0.0625  0.3847
  121CHL1    C615149   3.836   3.767   3.325 -1.0017  0.0911 -0.2577
  121CHL1    H615150   3.900   3.687   3.284 -0.3793  0.0165  0.8020
  121CHL1    C715151   3.819   3.740   3.471 -0.1512  0.1242 -0.2080
  121CHL1   H7A15152   3.811   3.633   3.500 -1.3068  0.4157  0.6439
  121CHL1   H7B15153   3.903   3.776   3.535 -0.6077 -0.1701  0.5794
  121CHL1    C815154   3.697   3.821   3.522  0.4951 -1.0660  0.2386
  121CHL1    H815155   3.608   3.766   3.483  0.7865 -0.8363 -0.7931
  121CHL1   C1415156   3.697   3.843   3.674 -0.7198  0.8470  0.2579
  121CHL1   H1415157   3.784   3.908   3.696  0.2849 -0.0582 -0.9015
  121CHL1   C1515158   3.733   3.724   3.754 -0.1461 -0.0078 -0.3173
  121CHL1  H15A15159   3.677   3.632   3.725 -0.2183 -0.3066  0.7383
  121CHL1  H15B15160   3.842   3.706   3.765 -0.3014 -1.1561 -0.5100
  121CHL1   C1615161   3.674   3.756   3.896 -0.0196  0.6200  0.0244
  121CHL1  H16A15162   3.597   3.679   3.919  1.5208 -0.5443  1.5191
  121CHL1  H16B15163   3.751   3.768   3.975  0.1133  1.1711 -0.1846
  121CHL1   C1715164   3.602   3.897   3.882 -0.0192 -0.4882 -0.6588
  121CHL1   H1715165   3.683   3.972   3.893 -1.7552  1.6650 -1.7459
  121CHL1   C1315166   3.569   3.908   3.733  0.3882  0.1868 -0.0200
  121CHL1   C1815167   3.431   3.841   3.694  0.2545  1.1153  0.2858
  121CHL1  H18A15168   3.433   3.829   3.584  1.1399  2.6090  0.1138
  121CHL1  H18B15169   3.434   3.740   3.742  1.2564  1.5604  1.2195
  121CHL1  H18C15170   3.343   3.894   3.735 -0.9892  0.1827 -1.0926
  121CHL1   C1215171   3.572   4.057   3.680 -0.9060 -0.1051  0.9494
  121CHL1  H12A15172   3.486   4.120   3.714  0.5488  1.2381  2.3038
  121CHL1  H12B15173   3.667   4.106   3.711 -2.3692  1.1364  3.9848
  121CHL1   C1115174   3.577   4.056   3.525  0.0097 -0.1314  0.5865
  121CHL1  H11A15175   3.477   4.020   3.494 -0.6704  2.2778 -0.2320
  121CHL1  H11B15176   3.600   4.161   3.500  0.5165 -0.6268 -1.1189
  121CHL1    C915177   3.690   3.965   3.461  0.5537  0.3505 -0.0886
  121CHL1    H915178   3.787   4.014   3.482  0.7851  0.8830 -2.2590
  121CHL1   C1015179   3.692   3.971   3.303 -0.2687 -0.2224  0.2764
  121CHL1   C1915180   3.545   3.953   3.255  0.2161  0.4504 -0.2944
  121CHL1  H19A15181   3.541   3.949   3.144  0.5646  0.4582 -0.3088
  121CHL1  H19B15182   3.499   3.860   3.293 -1.8037  1.8320  0.8309
  121CHL1  H19C15183   3.483   4.040   3.284  0.9570 -0.2773  4.2397
  121CHL1    C115184   3.735   4.112   3.264 -0.4652  0.2859  0.7587
  121CHL1   H1A15185   3.652   4.185   3.270 -0.3721  0.2973  2.1160
  121CHL1   H1B15186   3.811   4.140   3.340 -0.5455 -1.7824  1.6675
  121CHL1    C215187   3.788   4.123   3.119 -0.3323 -0.3206 -0.0509
  121CHL1   H2A15188   3.840   4.221   3.108 -2.4294  0.9709  0.9002
  121CHL1   H2B15189   3.696   4.123   3.057 -1.2459 -0.6210  1.2601
  121CHL1   C2015190   3.495   3.909   3.987  0.0103 -0.1703  0.8327
  121CHL1   H2015191   3.403   3.855   3.957  0.2847 -0.8404  1.1781
  121CHL1   C2115192   3.428   4.047   3.996 -0.1127  0.3018 -0.4352
  121CHL1  H21A15193   3.380   4.075   3.900 -1.6746  2.3403  0.8499
  121CHL1  H21B15194   3.501   4.129   4.016 -0.7309  0.7110  0.1669
  121CHL1  H21C15195   3.357   4.055   4.081 -1.0480  2.1225 -1.3290
  121CHL1   C2215196   3.530   3.850   4.123  0.5618  0.2050 -0.1481
  121CHL1  H22A15197   3.440   3.848   4.189  0.9824 -0.9855  0.4045
  121CHL1  H22B15198   3.556   3.744   4.106  5.3703  0.9421  1.0979
  121CHL1   C2315199   3.635   3.918   4.201 -0.4185  0.1846 -0.8231
  121CHL1  H23A15200   3.725   3.941   4.140  0.4615  2.1698  1.0757
  121CHL1  H23B15201   3.596   4.019   4.225 -1.2869 -0.3901  0.2786
  121CHL1   C2415202   3.658   3.841   4.328 -0.1439 -0.1268  0.0001
  121CHL1  H24A15203   3.563   3.840   4.385 -0.7908 -0.4902 -1.0483
  121CHL1  H24B15204   3.690   3.739   4.296 -1.2243  0.1003 -1.9907
  121CHL1   C2515205   3.758   3.905   4.427 -0.1526  0.5272 -0.1393
  121CHL1   H2515206   3.722   4.009   4.438  1.5609  1.1904 -0.3987
  121CHL1   C2615207   3.745   3.836   4.563 -0.7851 -0.1806 -0.3173
  121CHL1  H26A15208   3.773   3.728   4.557  0.2172  0.1795 -3.7229
  121CHL1  H26B15209   3.819   3.881   4.633  1.0914 -0.8702 -1.7796
  121CHL1  H26C15210   3.641   3.845   4.602 -0.5891  0.1873  0.1243
  121CHL1   C2715211   3.897   3.902   4.369  0.5050  0.1502 -0.3765
  121CHL1  H27A15212   3.976   3.933   4.440  0.8506 -0.1793 -0.6169
  121CHL1  H27B15213   3.907   3.795   4.340 -0.4823  0.1220 -0.6722
  121CHL1  H27C15214   3.909   3.963   4.277 -0.4454 -1.1841 -1.4357
  122CHL1    C315215   2.757   4.125   3.293  0.1458  0.0531 -0.3379
  122CHL1    H315216   2.862   4.162   3.287  0.6696 -1.1601  0.8203
  122CHL1    O315217   2.718   4.132   3.157  0.8025  0.2080 -0.4527
  122CHL1   H3'15218   2.625   4.114   3.174  0.9786  1.5408  2.6290
  122CHL1    C415219   2.744   3.984   3.349 -0.8396 -0.0572  0.1668
  122CHL1   H4A15220   2.641   3.948   3.329 -1.2901  1.0536  0.4642
  122CHL1   H4B15221   2.812   3.920   3.288  1.2817  1.8942  0.3191
  122CHL1    C515222   2.776   3.978   3.501  0.3936  0.6684  0.6355
  122CHL1    C615223   2.874   3.909   3.546  0.0922 -0.1942 -0.3012
  122CHL1    H615224   2.923   3.845   3.472 -0.0724  0.8966 -1.4021
  122CHL1    C715225   2.921   3.894   3.686 -0.0718 -0.2284  0.2492
  122CHL1   H7A15226   2.963   3.794   3.707  1.2386  0.1355 -0.4835
  122CHL1   H7B15227   3.013   3.956   3.698  0.1764  0.3401 -3.3416
  122CHL1    C815228   2.816   3.949   3.788  0.0722  0.0250 -0.4651
  122CHL1    H815229   2.729   3.878   3.788  1.3631 -1.6307  0.2147
  122CHL1   C1415230   2.882   3.961   3.918  0.3769  0.2757 -0.2768
  122CHL1   H1415231   2.971   4.027   3.911 -0.4386  1.5038  0.4872
  122CHL1   C1515232   2.947   3.844   3.981 -0.1975  0.0045  0.3112
  122CHL1  H15A15233   2.881   3.758   3.960 -0.5468  0.6381 -1.3304
  122CHL1  H15B15234   3.050   3.829   3.943  0.0714  2.6250 -0.2145
  122CHL1   C1615235   2.957   3.882   4.130 -0.3612  0.3815  0.1529
  122CHL1  H16A15236   2.907   3.804   4.191 -0.4315  0.2708 -0.0426
  122CHL1  H16B15237   3.058   3.886   4.176 -0.8790 -1.4926  1.5731
  122CHL1   C1715238   2.881   4.022   4.140 -0.1275 -0.0978  0.1259
  122CHL1   H1715239   2.955   4.099   4.112  0.0540 -0.8024 -1.4478
  122CHL1   C1315240   2.792   4.025   4.018  0.5022 -0.4593  0.0963
  122CHL1   C1815241   2.662   3.941   4.050  0.8340  0.1011  0.3589
  122CHL1  H18A15242   2.591   3.953   3.965  0.3236  1.9204  1.0014
  122CHL1  H18B15243   2.673   3.833   4.073  0.9019  0.3271  1.4607
  122CHL1  H18C15244   2.603   3.985   4.133 -1.7289 -0.5066 -1.0168
  122CHL1   C1215245   2.747   4.166   3.972 -0.7615 -0.5807  0.1532
  122CHL1  H12A15246   2.676   4.211   4.044  0.6758 -0.2251  1.4040
  122CHL1  H12B15247   2.829   4.241   3.969 -0.7289 -0.5680 -3.3597
  122CHL1   C1115248   2.684   4.161   3.836  0.4047  0.4754 -0.6034
  122CHL1  H11A15249   2.584   4.115   3.849  1.4215 -1.7150 -0.0986
  122CHL1  H11B15250   2.663   4.267   3.809  1.0889  0.0460 -3.1187
  122CHL1    C915251   2.766   4.087   3.733 -0.2848 -0.4575 -1.4672
  122CHL1    H915252   2.852   4.156   3.717 -0.5240 -0.0957 -1.1949
  122CHL1   C1015253   2.705   4.082   3.591  0.3389  0.1326  0.2806
  122CHL1   C1915254   2.557   4.050   3.600  0.3828 -0.5478  0.9360
  122CHL1  H19A15255   2.504   4.144   3.629 -1.3018 -0.5209 -1.8481
  122CHL1  H19B15256   2.517   4.021   3.501  1.8971  1.0291 -0.2057
  122CHL1  H19C15257   2.548   3.977   3.683 -0.2513 -1.4095  0.1278
  122CHL1    C115258   2.726   4.216   3.526 -0.1441  0.1494 -0.0289
  122CHL1   H1A15259   2.670   4.296   3.579 -0.2634 -0.3846  0.6574
  122CHL1   H1B15260   2.835   4.233   3.532  0.2314 -2.2224  0.8526
  122CHL1    C215261   2.676   4.222   3.377 -0.8823  0.2620 -1.1241
  122CHL1   H2A15262   2.682   4.326   3.336 -0.6797  0.7774  0.1688
  122CHL1   H2B15263   2.570   4.190   3.377 -0.5880 -0.7547 -0.9061
  122CHL1   C2015264   2.825   4.044   4.281  0.2175  0.0509 -0.1519
  122CHL1   H2015265   2.771   3.954   4.318  1.7692  0.1258  2.4965
  122CHL1   C2115266   2.733   4.167   4.297  0.4683  0.7486  0.0227
  122CHL1  H21A15267   2.684   4.161   4.396 -1.8537 -0.1301 -1.0909
  122CHL1  H21B15268   2.646   4.172   4.229 -0.6526 -1.3453  1.2104
  122CHL1  H21C15269   2.780   4.265   4.278  1.1327  0.6993  1.2951
  122CHL1   C2215270   2.943   4.056   4.391  0.4019 -0.6976 -0.3527
  122CHL1  H22A15271   3.018   3.975   4.371  1.0077 -0.4538  0.8264
  122CHL1  H22B15272   2.999   4.151   4.379  0.0332 -0.5867 -1.2754
  122CHL1   C2315273   2.888   4.033   4.534 -0.2710  0.1161 -0.4181
  122CHL1  H23A15274   2.818   4.111   4.570 -1.7373 -0.8862 -1.0025
  122CHL1  H23B15275   2.838   3.934   4.540 -1.5882  0.8708  2.8039
  122CHL1   C2415276   3.000   4.019   4.635 -0.9503 -0.4072 -0.7595
  122CHL1  H24A15277   3.065   3.936   4.599  0.4713  0.2143  0.2726
  122CHL1  H24B15278   3.059   4.113   4.631 -0.2829 -0.8029 -0.3441
  122CHL1   C2515279   2.965   4.005   4.782 -0.4518  0.1154 -0.4706
  122CHL1   H2515280   3.056   4.005   4.845  0.2330  1.0141 -1.4210
  122CHL1   C2615281   2.876   4.117   4.835  0.4454 -0.7532 -0.2481
  122CHL1  H26A15282   2.771   4.117   4.799 -0.0413  0.3740  1.0670
  122CHL1  H26B15283   2.874   4.112   4.946  1.8927  0.4410 -0.1460
  122CHL1  H26C15284   2.922   4.211   4.797 -0.0216 -0.9190 -1.2303
  122CHL1   C2715285   2.901   3.869   4.804  0.1743  0.4583 -0.1963
  122CHL1  H27A15286   2.954   3.793   4.743  0.3090  1.6306 -1.5875
  122CHL1  H27B15287   2.892   3.848   4.913 -0.5315  1.1919 -0.1097
  122CHL1  H27C15288   2.797   3.891   4.772 -0.0265 -0.2852 -0.0742
  123CHL1    C315289   4.371   3.807   2.924  0.5171 -0.4817 -0.4437
  123CHL1    H315290   4.318   3.710   2.914  2.3122 -1.4548 -1.0168
  123CHL1    O315291   4.364   3.884   2.808  0.4731  0.4818 -0.1683
  123CHL1   H3'15292   4.392   3.974   2.828  2.9263  0.2116 -1.8939
  123CHL1    C415293   4.285   3.891   3.027  0.6130  0.5016  0.1970
  123CHL1   H4A15294   4.324   3.994   3.014 -0.5128  1.1979  2.0165
  123CHL1   H4B15295   4.179   3.888   2.997  0.4326  1.7561  0.6730
  123CHL1    C515296   4.292   3.840   3.172  0.1753  0.0929  0.2713
  123CHL1    C615297   4.178   3.814   3.241 -0.3527  0.0509 -0.0281
  123CHL1    H615298   4.084   3.837   3.188  1.0695 -0.8662 -3.1815
  123CHL1    C715299   4.180   3.763   3.384  0.4531  0.2056 -0.0470
  123CHL1   H7A15300   4.110   3.809   3.458  0.9213 -1.9230  1.8435
  123CHL1   H7B15301   4.136   3.661   3.379 -2.2938  1.3226 -0.4706
  123CHL1    C815302   4.321   3.763   3.455  0.3704  0.1923  0.0825
  123CHL1    H815303   4.328   3.869   3.488  3.7298  0.1646 -0.1833
  123CHL1   C1415304   4.332   3.669   3.571  0.4136  0.1082  0.5442
  123CHL1   H1415305   4.339   3.567   3.528  1.0522  0.9464 -1.5290
  123CHL1   C1515306   4.213   3.670   3.662  0.7416 -0.0360 -0.1800
  123CHL1  H15A15307   4.188   3.777   3.677 -1.1300 -0.4584  0.0021
  123CHL1  H15B15308   4.125   3.613   3.624 -0.9612  2.8682 -0.9103
  123CHL1   C1615309   4.266   3.624   3.806  0.1313 -0.5275  0.1204
  123CHL1  H16A15310   4.257   3.712   3.874 -0.8067  1.3930 -2.3128
  123CHL1  H16B15311   4.210   3.535   3.841  0.1396  0.1552  1.9332
  123CHL1   C1715312   4.416   3.592   3.780 -1.1556  0.1069 -0.3875
  123CHL1   H1715313   4.415   3.485   3.747 -0.2477  0.5707 -2.0177
  123CHL1   C1315314   4.458   3.681   3.654  0.2924 -0.1532 -0.4979
  123CHL1   C1815315   4.477   3.823   3.710  0.2733 -0.4395 -0.2727
  123CHL1  H18A15316   4.481   3.899   3.629  0.8030 -0.5309 -0.3313
  123CHL1  H18B15317   4.411   3.858   3.793  1.0500  1.1948 -0.3055
  123CHL1  H18C15318   4.574   3.829   3.764 -0.0780 -0.5323  0.3919
  123CHL1   C1215319   4.574   3.645   3.564  0.3897 -0.2904 -0.5704
  123CHL1  H12A15320   4.675   3.646   3.609  0.7115  4.4553 -0.9393
  123CHL1  H12B15321   4.564   3.542   3.524  3.6768 -0.3461 -1.5014
  123CHL1   C1115322   4.573   3.717   3.434 -0.7141  0.5205  0.0690
  123CHL1  H11A15323   4.609   3.820   3.455  0.0995  0.6923 -1.8958
  123CHL1  H11B15324   4.655   3.664   3.381 -1.4491 -0.8970  0.3087
  123CHL1    C915325   4.438   3.731   3.357  0.5023  0.3195 -0.2984
  123CHL1    H915326   4.419   3.629   3.316 -0.2429 -0.0291  0.8468
  123CHL1   C1015327   4.436   3.812   3.223 -1.1342  0.3774 -0.2456
  123CHL1   C1915328   4.512   3.942   3.260 -0.0397  0.0232  0.3126
  123CHL1  H19A15329   4.621   3.933   3.277 -0.1300 -0.2485  0.7568
  123CHL1  H19B15330   4.501   4.018   3.180  1.1795  0.2673  0.3558
  123CHL1  H19C15331   4.470   4.001   3.344  3.9976  5.5742 -0.9740
  123CHL1    C115332   4.518   3.744   3.120  0.3952  0.3847  0.2515
  123CHL1   H1A15333   4.620   3.737   3.162  1.1353  0.8833 -1.3775
  123CHL1   H1B15334   4.487   3.639   3.099 -1.5197  0.6277  1.6196
  123CHL1    C215335   4.515   3.804   2.973 -0.1048  0.4868 -0.0363
  123CHL1   H2A15336   4.581   3.738   2.914  0.7553  2.7097 -1.7130
  123CHL1   H2B15337   4.557   3.907   2.983 -1.0586  0.8223  0.7207
  123CHL1   C2015338   4.499   3.595   3.909  0.3625  0.0128  0.0271
  123CHL1   H2015339   4.504   3.702   3.939 -1.0727  0.5653 -1.5509
  123CHL1   C2115340   4.639   3.536   3.875  0.3106 -0.4195  0.0274
  123CHL1  H21A15341   4.686   3.508   3.972  0.3893 -2.4036 -0.5227
  123CHL1  H21B15342   4.714   3.598   3.822 -0.5211  1.0198  0.5028
  123CHL1  H21C15343   4.634   3.440   3.818  0.7362 -2.1525  2.7145
  123CHL1   C2215344   4.438   3.510   4.026 -0.2312 -0.5851 -0.3759
  123CHL1  H22A15345   4.328   3.511   4.039  0.0052  1.0583  2.5026
  123CHL1  H22B15346   4.458   3.402   4.014 -1.1570 -0.8982  0.6710
  123CHL1   C2315347   4.494   3.544   4.169 -0.7951 -0.1655 -0.8624
  123CHL1  H23A15348   4.605   3.541   4.167 -0.7625 -0.7442  0.6830
  123CHL1  H23B15349   4.472   3.653   4.172 -0.4135 -0.1115  0.4308
  123CHL1   C2415350   4.439   3.463   4.285  0.0180  0.0953  0.5183
  123CHL1  H24A15351   4.342   3.428   4.244  1.2076 -0.6006 -1.9311
  123CHL1  H24B15352   4.504   3.373   4.294  0.5829  0.2929 -1.2121
  123CHL1   C2515353   4.426   3.550   4.411  0.4378  1.0756  0.5050
  123CHL1   H2515354   4.339   3.617   4.399 -1.3761 -0.8511  1.9389
  123CHL1   C2615355   4.384   3.450   4.518 -0.2917 -0.2633  0.2806
  123CHL1  H26A15356   4.348   3.508   4.606  0.3578  1.1814 -0.3639
  123CHL1  H26B15357   4.302   3.386   4.480  1.6411 -1.2769 -2.4542
  123CHL1  H26C15358   4.466   3.378   4.534 -2.5902 -3.1645 -0.1463
  123CHL1   C2715359   4.561   3.604   4.456  0.2480 -0.1216  0.6939
  123CHL1  H27A15360   4.640   3.527   4.444 -0.1858 -0.2253 -2.3331
  123CHL1  H27B15361   4.589   3.686   4.386 -0.7106 -0.0427  0.3882
  123CHL1  H27C15362   4.565   3.652   4.556 -1.2012 -1.5913  1.4922
  124CHL1    C315363   4.244   5.331   2.984 -0.4305  0.2826  0.8350
  124CHL1    H315364   4.252   5.222   2.962  1.8498  0.5958 -0.2045
  124CHL1    O315365   4.219   5.402   2.867 -0.2392 -0.0404  0.5721
  124CHL1   H3'15366   4.124   5.413   2.860 -0.4309 -2.1762 -1.5447
  124CHL1    C415367   4.131   5.355   3.094  0.3086  0.3997  0.1519
  124CHL1   H4A15368   4.114   5.463   3.115 -0.6213  0.1918  0.5158
  124CHL1   H4B15369   4.039   5.306   3.054  1.2044 -0.8166 -0.4861
  124CHL1    C515370   4.174   5.295   3.224  0.8507  0.4545 -0.6163
  124CHL1    C615371   4.098   5.209   3.289 -0.1121  0.5628 -0.1372
  124CHL1    H615372   3.999   5.191   3.245 -0.7551  1.4514  0.8918
  124CHL1    C715373   4.119   5.157   3.430 -0.0003 -0.4311  0.1461
  124CHL1   H7A15374   4.033   5.161   3.501  0.9968 -1.1218  1.4313
  124CHL1   H7B15375   4.138   5.048   3.429  0.9547 -0.2768 -1.6584
  124CHL1    C815376   4.239   5.219   3.500 -0.2170 -0.2642 -0.6108
  124CHL1    H815377   4.200   5.319   3.526 -3.7297 -1.0278 -2.3130
  124CHL1   C1415378   4.276   5.142   3.627 -0.3033 -0.0898 -0.0012
  124CHL1   H1415379   4.298   5.038   3.594 -1.2361 -0.1230 -0.5498
  124CHL1   C1515380   4.181   5.126   3.741 -0.2376  0.2728  0.0855
  124CHL1  H15A15381   4.123   5.218   3.765 -0.2317  0.2842  0.0565
  124CHL1  H15B15382   4.110   5.043   3.720 -1.1403  0.4829  2.0682
  124CHL1   C1615383   4.262   5.102   3.867  0.1421 -0.2542  0.1529
  124CHL1  H16A15384   4.248   5.182   3.942 -0.2450  0.0511 -0.2381
  124CHL1  H16B15385   4.235   5.007   3.918  1.3492  0.3204  1.9265
  124CHL1   C1715386   4.410   5.112   3.823 -0.5311  0.6472 -0.7273
  124CHL1   H1715387   4.434   5.010   3.785 -0.3372  0.6451 -0.6035
  124CHL1   C1315388   4.406   5.199   3.697 -0.0119 -0.4725  0.4602
  124CHL1   C1815389   4.391   5.345   3.742  0.3649  0.1576  0.6224
  124CHL1  H18A15390   4.486   5.387   3.782 -0.4851  2.3891  0.4174
  124CHL1  H18B15391   4.370   5.404   3.651 -1.3363 -2.0982 -0.5590
  124CHL1  H18C15392   4.318   5.368   3.822  0.3641 -0.3597  0.7791
  124CHL1   C1215393   4.514   5.187   3.589  0.2011 -0.3049 -0.4775
  124CHL1  H12A15394   4.614   5.220   3.624 -0.1644  0.5701 -0.2339
  124CHL1  H12B15395   4.526   5.079   3.567 -0.5204 -0.2621 -1.1364
  124CHL1   C1115396   4.485   5.268   3.461 -0.0491  0.1573  0.0112
  124CHL1  H11A15397   4.490   5.375   3.491 -1.3060  0.1341  0.3730
  124CHL1  H11B15398   4.570   5.244   3.393 -0.6951 -0.3748 -0.6282
  124CHL1    C915399   4.350   5.235   3.396  0.5544  0.1820 -0.3915
  124CHL1    H915400   4.355   5.136   3.346 -2.2803 -0.5652  0.6393
  124CHL1   C1015401   4.311   5.330   3.278  0.2657  0.0720 -0.1327
  124CHL1   C1915402   4.321   5.478   3.334 -0.0326  0.4402  0.6078
  124CHL1  H19A15403   4.252   5.497   3.419 -1.5715  0.5515 -0.6194
  124CHL1  H19B15404   4.429   5.496   3.353  0.4467  0.1045 -1.5486
  124CHL1  H19C15405   4.291   5.548   3.253  2.2246  1.9020  0.9504
  124CHL1    C115406   4.414   5.299   3.164 -0.6205 -0.6047 -0.6557
  124CHL1   H1A15407   4.510   5.340   3.204 -1.3418 -0.5973  1.1519
  124CHL1   H1B15408   4.438   5.191   3.154 -0.2983 -0.5283 -0.7229
  124CHL1    C215409   4.380   5.372   3.036 -0.4611  0.0426 -0.1950
  124CHL1   H2A15410   4.469   5.368   2.970  0.6342 -1.9315  1.3185
  124CHL1   H2B15411   4.371   5.481   3.055 -1.5406  0.2812 -1.8299
  124CHL1   C2015412   4.524   5.145   3.929 -0.2135 -0.0284  0.2280
  124CHL1   H2015413   4.537   5.255   3.938 -0.0871  0.2323 -2.2479
  124CHL1   C2115414   4.665   5.087   3.882 -0.1168  0.5784  0.5133
  124CHL1  H21A15415   4.744   5.125   3.950 -0.0672  0.5139  0.4905
  124CHL1  H21B15416   4.708   5.123   3.786  1.7204 -0.4371  0.9250
  124CHL1  H21C15417   4.654   4.977   3.880 -1.8332  0.6919  1.3987
  124CHL1   C2215418   4.488   5.083   4.069 -0.1614 -0.3914 -0.1785
  124CHL1  H22A15419   4.386   5.109   4.104  0.3299  2.5841 -0.6238
  124CHL1  H22B15420   4.491   4.973   4.060 -2.8098 -0.4151 -1.8821
  124CHL1   C2315421   4.590   5.102   4.186  0.2948 -0.3208  0.5648
  124CHL1  H23A15422   4.689   5.056   4.166  1.5794  1.9090  1.4933
  124CHL1  H23B15423   4.620   5.208   4.200 -0.3525 -0.3155  2.0385
  124CHL1   C2415424   4.549   5.046   4.324  0.0821 -0.4547 -0.3928
  124CHL1  H24A15425   4.471   5.122   4.349  1.2621  0.5397  0.4008
  124CHL1  H24B15426   4.494   4.951   4.306 -1.4143  0.3081 -0.0600
  124CHL1   C2515427   4.655   5.030   4.435 -0.3698 -0.0314 -0.2419
  124CHL1   H2515428   4.719   4.949   4.395 -0.3868  1.6937 -4.3216
  124CHL1   C2615429   4.733   5.162   4.477 -0.6667 -0.0588 -0.2271
  124CHL1  H26A15430   4.661   5.232   4.525  0.7842  1.2304  0.1827
  124CHL1  H26B15431   4.812   5.138   4.552  1.8149  0.4203 -2.5288
  124CHL1  H26C15432   4.763   5.214   4.383  0.3169  1.6317  0.9574
  124CHL1   C2715433   4.584   4.973   4.561 -0.4479  0.2429  0.1498
  124CHL1  H27A15434   4.505   4.902   4.529 -0.7308  0.3353  0.6360
  124CHL1  H27B15435   4.653   4.910   4.622 -0.6398  0.0818  0.2009
  124CHL1  H27C15436   4.541   5.056   4.621 -0.3634  1.2665 -1.1740
  125CHL1    C315437   4.727   5.512   2.834  0.2109  0.0555 -0.3092
  125CHL1    H315438   4.650   5.435   2.857  0.0128  0.1265 -0.7209
  125CHL1    O315439   4.685   5.561   2.704  0.0528 -0.2077 -0.9324
  125CHL1   H3'15440   4.758   5.620   2.683  0.2417  0.3220  1.0898
  125CHL1    C415441   4.726   5.626   2.935 -0.3722  0.1149  0.3399
  125CHL1   H4A15442   4.804   5.694   2.892 -2.2570  1.5606 -0.9781
  125CHL1   H4B15443   4.622   5.663   2.928  0.0463  1.3310  0.2508
  125CHL1    C515444   4.759   5.572   3.071  0.2521  0.1792 -0.6396
  125CHL1    C615445   4.675   5.582   3.176 -0.0766  0.1091 -0.6202
  125CHL1    H615446   4.574   5.624   3.164 -0.3849 -0.9808 -2.0897
  125CHL1    C715447   4.716   5.543   3.309  0.7133 -0.3866  0.1764
  125CHL1   H7A15448   4.696   5.631   3.375 -1.9717 -0.8372  0.0747
  125CHL1   H7B15449   4.646   5.461   3.335  1.1941 -0.7508  0.3477
  125CHL1    C815450   4.858   5.490   3.322  0.4556 -0.7003 -0.3124
  125CHL1    H815451   4.923   5.578   3.339 -0.9789  0.2838  0.2997
  125CHL1   C1415452   4.849   5.414   3.453  0.0719 -0.0525  0.3709
  125CHL1   H1415453   4.782   5.329   3.429 -0.8440  0.9411 -0.6687
  125CHL1   C1515454   4.792   5.480   3.582 -0.2987 -0.3172 -0.8246
  125CHL1  H15A15455   4.825   5.586   3.587 -1.9342  0.1660  1.3929
  125CHL1  H15B15456   4.681   5.478   3.582 -0.3969  1.9541 -1.9710
  125CHL1   C1615457   4.853   5.390   3.697 -0.5432  0.0817 -0.0554
  125CHL1  H16A15458   4.917   5.451   3.766  1.0388  1.3662 -2.4963
  125CHL1  H16B15459   4.756   5.358   3.740 -0.0475 -2.4880 -0.6999
  125CHL1   C1715460   4.941   5.283   3.623  0.5427  0.6446  0.1193
  125CHL1   H1715461   4.878   5.202   3.581  1.1620  0.6128 -0.7695
  125CHL1   C1315462   4.981   5.347   3.489  0.4111 -0.0830  0.0772
  125CHL1   C1815463   5.091   5.451   3.514  0.0563  0.3800 -0.1623
  125CHL1  H18A15464   5.052   5.533   3.579 -1.3685  0.7148 -1.3780
  125CHL1  H18B15465   5.181   5.406   3.560  0.3715  0.7496 -0.4094
  125CHL1  H18C15466   5.129   5.497   3.420 -0.6576 -0.4487 -0.8673
  125CHL1   C1215467   5.016   5.250   3.374  0.1915  0.1670 -0.3176
  125CHL1  H12A15468   5.112   5.198   3.391 -0.3246 -0.2671  1.4292
  125CHL1  H12B15469   4.936   5.174   3.364  1.2342 -0.9686 -0.1979
  125CHL1   C1115470   5.027   5.326   3.237  0.1184  0.1764 -0.2121
  125CHL1  H11A15471   5.117   5.392   3.240 -0.6212  1.1690  1.0780
  125CHL1  H11B15472   5.046   5.244   3.165  0.0415  0.7962 -0.9492
  125CHL1    C915473   4.901   5.404   3.206  0.4543  0.3861  0.8005
  125CHL1    H915474   4.822   5.325   3.200  0.8848 -0.0956  1.3461
  125CHL1   C1015475   4.898   5.487   3.076 -0.3369  0.4215 -0.0298
  125CHL1   C1915476   5.024   5.575   3.073 -0.6487 -0.5178 -0.2659
  125CHL1  H19A15477   5.021   5.640   2.983 -1.4899 -0.5521 -0.2668
  125CHL1  H19B15478   5.024   5.653   3.152 -1.9151  1.2234 -1.8985
  125CHL1  H19C15479   5.108   5.502   3.068 -0.8823 -0.8571  0.5387
  125CHL1    C115480   4.896   5.384   2.956 -0.6206 -0.0657  0.2330
  125CHL1   H1A15481   4.999   5.344   2.954 -0.4731  0.2738  0.8748
  125CHL1   H1B15482   4.823   5.301   2.972 -1.6315  0.5574 -0.9569
  125CHL1    C215483   4.862   5.441   2.822 -0.3471 -0.0859 -0.0294
  125CHL1   H2A15484   4.858   5.360   2.747 -1.0943  0.3410 -0.4630
  125CHL1   H2B15485   4.944   5.514   2.803  1.6076 -1.3049  2.9759
  125CHL1   C2015486   5.056   5.206   3.705  0.6350  0.2127 -0.3647
  125CHL1   H2015487   5.116   5.143   3.636  2.3670 -0.0123  1.2645
  125CHL1   C2115488   4.977   5.103   3.790 -0.0215 -0.0788 -0.0287
  125CHL1  H21A15489   5.037   5.012   3.811  0.0263  0.0416  0.3594
  125CHL1  H21B15490   4.884   5.073   3.738  0.3272  0.7742 -1.2093
  125CHL1  H21C15491   4.948   5.149   3.887 -0.4751  1.3422 -0.8081
  125CHL1   C2215492   5.146   5.295   3.796  1.1782  0.5541 -0.9709
  125CHL1  H22A15493   5.220   5.353   3.736  0.1850  1.3595 -1.4497
  125CHL1  H22B15494   5.079   5.358   3.858 -1.7483 -1.9921 -1.3560
  125CHL1   C2315495   5.220   5.214   3.903 -0.0308  0.2181  0.1439
  125CHL1  H23A15496   5.153   5.169   3.979  1.1857 -0.4371  0.8472
  125CHL1  H23B15497   5.272   5.132   3.849 -1.8875 -0.1549 -1.2122
  125CHL1   C2415498   5.317   5.293   3.984 -0.2759 -0.7035 -0.3945
  125CHL1  H24A15499   5.387   5.344   3.915 -0.4925  1.5733  0.9652
  125CHL1  H24B15500   5.270   5.381   4.033  0.6760  0.4994 -1.5913
  125CHL1   C2515501   5.404   5.204   4.085  0.7808  0.2648  0.3777
  125CHL1   H2515502   5.436   5.114   4.029 -1.2766 -0.1984 -0.1430
  125CHL1   C2615503   5.512   5.296   4.141 -0.5778 -0.4641 -0.1831
  125CHL1  H26A15504   5.456   5.385   4.178  0.8070  1.7281 -2.9018
  125CHL1  H26B15505   5.553   5.244   4.229 -1.1896  2.0186  1.7003
  125CHL1  H26C15506   5.589   5.324   4.066 -0.5875  1.7005  0.5266
  125CHL1   C2715507   5.306   5.145   4.192  0.1146  0.1541  0.2491
  125CHL1  H27A15508   5.265   5.215   4.268 -1.1204 -0.8979  0.5738
  125CHL1  H27B15509   5.223   5.087   4.148  0.8498 -1.6143  1.0770
  125CHL1  H27C15510   5.353   5.056   4.239  0.2725 -1.0602 -2.0854
  126CHL1    C315511   2.811   5.591   3.142  0.0091  0.6092  0.4269
  126CHL1    H315512   2.706   5.617   3.169 -1.3010 -2.0108 -1.6419
  126CHL1    O315513   2.834   5.628   3.000  0.2974 -0.4621  0.6368
  126CHL1   H3'15514   2.750   5.668   2.974  0.4447 -0.0851  0.7257
  126CHL1    C415515   2.907   5.673   3.226  0.1277  0.6941 -0.1524
  126CHL1   H4A15516   3.008   5.674   3.180  0.5240  2.3703  0.6741
  126CHL1   H4B15517   2.868   5.776   3.212 -1.9747  0.0719  0.8135
  126CHL1    C515518   2.910   5.621   3.368 -0.1575  0.2376  0.3743
  126CHL1    C615519   2.899   5.701   3.468 -0.2900 -0.0466  0.4587
  126CHL1    H615520   2.876   5.805   3.441 -1.4576 -0.9134 -2.2946
  126CHL1    C715521   2.910   5.665   3.614 -1.0263  0.6463  0.4512
  126CHL1   H7A15522   2.970   5.738   3.673  1.1117  1.0503 -2.0147
  126CHL1   H7B15523   2.806   5.667   3.653 -1.2994 -0.8873 -0.1224
  126CHL1    C815524   2.968   5.522   3.636 -0.4019 -0.7367  0.1794
  126CHL1    H815525   3.078   5.525   3.618 -0.5736  1.8251 -0.8677
  126CHL1   C1415526   2.944   5.470   3.774 -0.4118 -0.3925  0.4981
  126CHL1   H1415527   2.833   5.463   3.778 -0.5721 -0.1528 -1.7527
  126CHL1   C1515528   2.983   5.559   3.891  0.0671 -0.0876  0.2598
  126CHL1  H15A15529   3.084   5.595   3.859  0.5535 -0.3950  1.4083
  126CHL1  H15B15530   2.924   5.651   3.913 -0.5532 -0.1390 -1.0839
  126CHL1   C1615531   2.985   5.464   4.010  0.5817 -0.1161 -0.0520
  126CHL1  H16A15532   3.079   5.483   4.066  1.7245 -1.4555 -1.4307
  126CHL1  H16B15533   2.899   5.486   4.077  0.9238 -0.7830  0.6220
  126CHL1   C1715534   2.959   5.324   3.950 -0.6281 -0.2646  0.1016
  126CHL1   H1715535   2.849   5.308   3.958 -1.0671  0.8054 -2.7666
  126CHL1   C1315536   2.999   5.334   3.805 -0.7821  0.0227  0.3135
  126CHL1   C1815537   3.161   5.334   3.791  0.4976 -0.2010  0.5050
  126CHL1  H18A15538   3.188   5.365   3.688 -3.0491  1.3438 -0.1356
  126CHL1  H18B15539   3.206   5.400   3.869 -0.9781  0.9214  0.4733
  126CHL1  H18C15540   3.205   5.234   3.809  1.2859  0.1936  0.8068
  126CHL1   C1215541   2.924   5.240   3.711  0.3427  0.4340  0.3208
  126CHL1  H12A15542   2.939   5.132   3.734 -2.5388  0.0535  0.7973
  126CHL1  H12B15543   2.814   5.248   3.726 -0.2050 -1.0520 -2.3456
  126CHL1   C1115544   2.939   5.277   3.563 -0.3754 -0.5637  0.6097
  126CHL1  H11A15545   3.047   5.255   3.547 -0.8866 -0.7798 -3.7213
  126CHL1  H11B15546   2.879   5.220   3.489 -1.6978  0.5072  0.8238
  126CHL1    C915547   2.906   5.428   3.535  0.5167  0.9723  0.0584
  126CHL1    H915548   2.798   5.436   3.560  0.2109  0.8519 -1.1497
  126CHL1   C1015549   2.924   5.470   3.392 -0.4014 -0.1167  0.6101
  126CHL1   C1915550   3.071   5.434   3.350 -0.6218 -0.2452  0.2949
  126CHL1  H19A15551   3.079   5.452   3.241 -1.4862 -2.1146 -0.1188
  126CHL1  H19B15552   3.146   5.504   3.393 -2.6051  0.9964  1.9211
  126CHL1  H19C15553   3.096   5.329   3.374  0.5163 -0.4811 -1.6953
  126CHL1    C115554   2.823   5.394   3.300 -0.2958 -0.3550  0.2008
  126CHL1   H1A15555   2.851   5.287   3.297 -0.3780 -0.3925  0.6374
  126CHL1   H1B15556   2.717   5.396   3.335 -0.0061 -2.3488  1.3758
  126CHL1    C215557   2.838   5.442   3.155 -0.3515  0.4456 -0.0888
  126CHL1   H2A15558   2.754   5.398   3.097 -0.4529 -0.2774  0.5893
  126CHL1   H2B15559   2.935   5.411   3.112  1.1727  2.1607  1.8638
  126CHL1   C2015560   3.017   5.211   4.033 -0.0467  0.2713 -0.2272
  126CHL1   H2015561   3.128   5.214   4.034 -0.0345 -0.0169 -0.4860
  126CHL1   C2115562   2.988   5.072   3.977 -0.4213  0.6035  0.0857
  126CHL1  H21A15563   3.007   4.989   4.048  1.2614  1.8612  1.1713
  126CHL1  H21B15564   3.049   5.047   3.887 -0.4602 -1.3056  0.5605
  126CHL1  H21C15565   2.879   5.075   3.957 -0.7755  1.4907  1.9644
  126CHL1   C2215566   2.980   5.224   4.182 -0.1387 -0.0115 -0.2064
  126CHL1  H22A15567   2.983   5.331   4.209 -4.1662  0.0674  0.4688
  126CHL1  H22B15568   2.878   5.184   4.200 -0.1645  0.4818  0.8697
  126CHL1   C2315569   3.073   5.154   4.288  0.2542  0.0452  0.4835
  126CHL1  H23A15570   3.101   5.048   4.270  0.2997  0.3433 -1.5178
  126CHL1  H23B15571   3.172   5.203   4.287  0.6805 -0.6910 -2.2650
  126CHL1   C2415572   3.020   5.158   4.429  0.4465  0.0461 -0.4378
  126CHL1  H24A15573   3.008   5.261   4.468  1.0340 -0.1868  0.3764
  126CHL1  H24B15574   2.920   5.110   4.439  0.9692 -0.7842  1.3519
  126CHL1   C2515575   3.112   5.070   4.523  0.1944  0.0365  0.0777
  126CHL1   H2515576   3.141   4.975   4.473  0.1622 -0.2173  0.5312
  126CHL1   C2615577   3.242   5.138   4.560 -0.4357 -0.8308 -0.2690
  126CHL1  H26A15578   3.218   5.231   4.616 -1.5494 -2.3797  1.9663
  126CHL1  H26B15579   3.307   5.079   4.627  2.0424  1.2461 -0.6808
  126CHL1  H26C15580   3.306   5.166   4.473 -0.7486  1.3020  0.1294
  126CHL1   C2715581   3.037   5.023   4.639 -0.4136 -0.5799 -0.1621
  126CHL1  H27A15582   2.978   5.105   4.686  2.5776 -0.0887  3.1829
  126CHL1  H27B15583   2.959   4.945   4.625 -0.3120 -1.0390  1.5692
  126CHL1  H27C15584   3.105   4.988   4.720 -0.9482 -0.4519  0.3515
  127CHL1    C315585   3.897   5.687   3.240 -0.9121 -0.1152 -0.3425
  127CHL1    H315586   4.008   5.681   3.232 -0.8957  0.0341 -0.2330
  127CHL1    O315587   3.857   5.677   3.106 -0.4337  0.5372  0.1990
  127CHL1   H3'15588   3.854   5.587   3.073  0.1344  0.7088 -0.3270
  127CHL1    C415589   3.838   5.582   3.340  0.0858  0.8514  0.0305
  127CHL1   H4A15590   3.727   5.586   3.327  0.1651 -2.1073 -2.5549
  127CHL1   H4B15591   3.870   5.485   3.297 -0.6217  1.3908 -1.8226
  127CHL1    C515592   3.892   5.594   3.484 -0.1905 -0.3027 -0.0187
  127CHL1    C615593   3.950   5.494   3.542  0.6504 -0.1628 -1.1049
  127CHL1    H615594   3.956   5.395   3.494 -0.8496 -0.7729 -0.1144
  127CHL1    C715595   3.998   5.499   3.687  0.3019 -0.3021 -0.3803
  127CHL1   H7A15596   3.964   5.413   3.748 -0.5468 -0.1411 -0.6198
  127CHL1   H7B15597   4.109   5.497   3.690  0.3122  0.9424  1.5805
  127CHL1    C815598   3.946   5.624   3.767  0.2790 -0.4293  0.4980
  127CHL1    H815599   3.839   5.613   3.793  0.1653  1.3219  0.9219
  127CHL1   C1415600   4.030   5.646   3.886 -0.8067  0.8829 -0.1986
  127CHL1   H1415601   4.130   5.680   3.849 -1.1881  2.0577 -0.1825
  127CHL1   C1515602   4.055   5.527   3.972  0.5121  0.4962 -0.1254
  127CHL1  H15A15603   3.957   5.480   3.998 -0.0822  1.9834  0.4385
  127CHL1  H15B15604   4.112   5.444   3.926 -0.7180 -0.2337 -0.3661
  127CHL1   C1615605   4.114   5.585   4.099  0.0936 -0.4241  0.0968
  127CHL1  H16A15606   4.075   5.540   4.193 -0.9332 -1.8582 -0.9611
  127CHL1  H16B15607   4.218   5.548   4.110 -0.5958 -1.6654  3.6994
  127CHL1   C1715608   4.100   5.745   4.082  0.1680 -0.0526 -0.7105
  127CHL1   H1715609   4.201   5.770   4.041  0.4904 -1.6254 -0.9466
  127CHL1   C1315610   3.998   5.762   3.972  0.0561 -0.3514  0.7617
  127CHL1   C1815611   3.853   5.736   4.030 -0.4302  0.7926 -0.6863
  127CHL1  H18A15612   3.825   5.814   4.104  0.4847  0.3249  0.1867
  127CHL1  H18B15613   3.771   5.730   3.956 -2.2862  3.4074  0.9802
  127CHL1  H18C15614   3.847   5.637   4.081 -1.9066  1.0545 -0.2959
  127CHL1   C1215615   4.006   5.897   3.886  0.1720 -0.7895  0.2339
  127CHL1  H12A15616   3.950   5.974   3.943  0.6667 -1.6040  1.8845
  127CHL1  H12B15617   4.110   5.932   3.866  0.1399  2.5276  4.3036
  127CHL1   C1115618   3.928   5.884   3.748 -0.8272  0.5086 -0.9710
  127CHL1  H11A15619   3.823   5.877   3.785 -0.1374 -1.2293  0.8116
  127CHL1  H11B15620   3.942   5.977   3.689 -0.4662  0.0984 -1.5474
  127CHL1    C915621   3.959   5.747   3.674 -0.5114  0.0280 -0.0904
  127CHL1    H915622   4.066   5.758   3.650 -0.3472  1.2602  1.1210
  127CHL1   C1015623   3.878   5.733   3.544 -0.7806 -0.0748  0.0722
  127CHL1   C1915624   3.725   5.747   3.580  0.0336  0.7996  0.4505
  127CHL1  H19A15625   3.688   5.847   3.611  0.0560  1.2917 -1.0340
  127CHL1  H19B15626   3.663   5.716   3.493  0.8789 -2.8440  0.9958
  127CHL1  H19C15627   3.692   5.670   3.652 -0.9063 -1.6348 -2.3625
  127CHL1    C115628   3.915   5.839   3.433 -0.0503 -0.3268  0.0005
  127CHL1   H1A15629   3.885   5.940   3.469 -0.6182 -0.6231  0.3822
  127CHL1   H1B15630   4.024   5.858   3.447 -0.1722  0.6306 -0.2896
  127CHL1    C215631   3.861   5.820   3.289 -0.3241  0.3385  0.1731
  127CHL1   H2A15632   3.901   5.907   3.232 -0.3190  0.0209 -0.3159
  127CHL1   H2B15633   3.751   5.832   3.284 -0.5160 -0.9480  0.7423
  127CHL1   C2015634   4.072   5.825   4.209  0.0946  0.2697 -0.0569
  127CHL1   H2015635   3.980   5.787   4.259  1.2821  1.4279  3.2715
  127CHL1   C2115636   4.046   5.978   4.187  0.0311 -0.0179  0.2733
  127CHL1  H21A15637   4.073   6.035   4.279  0.6901  1.0899 -0.5785
  127CHL1  H21B15638   3.942   6.005   4.158 -0.3541 -1.1113  0.5886
  127CHL1  H21C15639   4.121   6.021   4.117 -1.0320  0.1252 -0.8034
  127CHL1   C2215640   4.174   5.800   4.318 -0.0218  0.4227  0.0136
  127CHL1  H22A15641   4.223   5.702   4.302  0.8576  0.9779 -0.8022
  127CHL1  H22B15642   4.248   5.883   4.312  0.2638  0.4442  2.5034
  127CHL1   C2315643   4.111   5.810   4.455 -0.3700 -0.4130 -0.4478
  127CHL1  H23A15644   4.064   5.908   4.478 -0.0224 -0.7808  2.1378
  127CHL1  H23B15645   4.027   5.737   4.449  1.2869 -2.2910 -2.1944
  127CHL1   C2415646   4.210   5.770   4.567 -0.1619 -0.3527  0.1366
  127CHL1  H24A15647   4.159   5.795   4.662 -0.7943 -1.1501  0.0165
  127CHL1  H24B15648   4.218   5.660   4.556  0.3931 -0.7016  3.2781
  127CHL1   C2515649   4.352   5.835   4.563 -0.0682 -0.3317 -0.2589
  127CHL1   H2515650   4.389   5.802   4.463 -2.2611 -1.2869 -0.8012
  127CHL1   C2615651   4.354   5.985   4.565  0.1678  0.3600 -0.2972
  127CHL1  H26A15652   4.307   6.020   4.659 -2.5447  2.4230 -2.2215
  127CHL1  H26B15653   4.460   6.018   4.566 -0.0940  1.2392  0.6602
  127CHL1  H26C15654   4.291   6.033   4.487  1.0255  0.6724 -0.8110
  127CHL1   C2715655   4.448   5.785   4.667 -0.2867  0.1237 -0.2342
  127CHL1  H27A15656   4.429   5.838   4.763  1.8196  0.4761  0.0530
  127CHL1  H27B15657   4.438   5.675   4.681 -0.1212  0.1524  0.1381
  127CHL1  H27C15658   4.551   5.815   4.637 -0.5818  0.0035 -1.4201
  128CHL1    C315659   1.593   2.858   3.159  0.4777  0.2322 -0.3991
  128CHL1    H315660   1.702   2.859   3.181  0.8099 -0.9859 -1.8307
  128CHL1    O315661   1.575   2.848   3.019  0.3535  0.5853 -0.0891
  128CHL1   H3'15662   1.661   2.828   2.982  0.5019 -1.1687  1.0740
  128CHL1    C415663   1.548   2.717   3.218  0.0386 -0.1348 -0.4243
  128CHL1   H4A15664   1.445   2.703   3.177  0.7084  0.1953 -2.3231
  128CHL1   H4B15665   1.615   2.642   3.172  1.9635  1.2203  0.0618
  128CHL1    C515666   1.545   2.711   3.363 -0.3482  0.3355 -0.4531
  128CHL1    C615667   1.618   2.620   3.430  1.1519  0.5039  0.3156
  128CHL1    H615668   1.682   2.548   3.376 -0.2360 -1.1713  0.8082
  128CHL1    C715669   1.625   2.616   3.583  0.6285  0.2037 -0.5092
  128CHL1   H7A15670   1.608   2.512   3.620 -1.1165  1.2483  1.8566
  128CHL1   H7B15671   1.726   2.650   3.612  0.6872 -0.7665  0.4898
  128CHL1    C815672   1.516   2.703   3.655 -0.0037 -0.2730 -1.1175
  128CHL1    H815673   1.418   2.651   3.651 -0.4607  0.4420  0.3183
  128CHL1   C1415674   1.558   2.736   3.804 -0.5078 -0.1529  0.2796
  128CHL1   H1415675   1.642   2.809   3.797  0.3227 -0.9673  1.4287
  128CHL1   C1515676   1.610   2.625   3.904  0.2401 -0.2047 -0.2240
  128CHL1  H15A15677   1.549   2.533   3.892  0.9772 -0.4047 -3.2082
  128CHL1  H15B15678   1.717   2.604   3.884  0.8128  0.9926  1.3908
  128CHL1   C1615679   1.595   2.685   4.046  0.1584  0.2074  0.2241
  128CHL1  H16A15680   1.522   2.618   4.096  0.7032  0.9949  2.1591
  128CHL1  H16B15681   1.690   2.696   4.103  0.5549  1.3822 -0.6228
  128CHL1   C1715682   1.530   2.825   4.023  0.3499 -0.2757 -0.4097
  128CHL1   H1715683   1.612   2.896   4.002  1.5862 -1.8009 -0.9032
  128CHL1   C1315684   1.456   2.812   3.889 -0.8610  0.3171 -0.0597
  128CHL1   C1815685   1.335   2.721   3.910 -0.3967  0.6036 -0.5013
  128CHL1  H18A15686   1.357   2.625   3.962 -2.4544 -0.0289 -0.7469
  128CHL1  H18B15687   1.266   2.778   3.977 -0.7446 -1.5054  1.0493
  128CHL1  H18C15688   1.280   2.700   3.817  1.2286  0.3686 -1.4516
  128CHL1   C1215689   1.425   2.942   3.810 -0.7892 -0.5265  0.2437
  128CHL1  H12A15690   1.332   2.984   3.856 -0.0077 -1.3362  2.7158
  128CHL1  H12B15691   1.506   3.018   3.818  0.6262 -1.8472 -0.9396
  128CHL1   C1115692   1.386   2.918   3.660 -0.1883 -0.8198 -0.5514
  128CHL1  H11A15693   1.290   2.863   3.668 -0.6737  0.0691 -0.1395
  128CHL1  H11B15694   1.364   3.021   3.623 -0.5483  0.9338  3.9867
  128CHL1    C915695   1.493   2.839   3.580  0.1124 -0.5718  0.1560
  128CHL1    H915696   1.590   2.893   3.595 -0.1737  0.1894 -0.6593
  128CHL1   C1015697   1.470   2.819   3.429 -1.3193 -0.5536  1.0434
  128CHL1   C1915698   1.318   2.798   3.396  0.2629 -0.5500 -0.4791
  128CHL1  H19A15699   1.299   2.769   3.291  1.8656 -1.4663 -0.5584
  128CHL1  H19B15700   1.289   2.714   3.464  1.9445 -1.6055 -0.9924
  128CHL1  H19C15701   1.262   2.892   3.415 -0.1502 -0.5388 -1.7078
  128CHL1    C115702   1.515   2.963   3.361 -0.2632  0.1406 -0.4769
  128CHL1   H1A15703   1.449   3.039   3.408 -0.1677 -0.4186  0.5813
  128CHL1   H1B15704   1.621   2.981   3.389 -0.8222  0.9575  1.2726
  128CHL1    C215705   1.512   2.974   3.213 -0.1297  0.1393 -0.6793
  128CHL1   H2A15706   1.547   3.070   3.171  2.3209  0.1145  1.0556
  128CHL1   H2B15707   1.408   2.960   3.176 -0.2656 -0.2186 -0.1760
  128CHL1   C2015708   1.441   2.870   4.149  0.1319  0.1799  0.2541
  128CHL1   H2015709   1.372   2.785   4.170  0.0733 -0.2102 -1.3309
  128CHL1   C2115710   1.358   2.993   4.128  0.5122 -0.6711 -0.0879
  128CHL1  H21A15711   1.304   3.031   4.218 -1.0677 -0.9948 -0.8530
  128CHL1  H21B15712   1.279   2.970   4.052 -2.8735  2.6231  2.0471
  128CHL1  H21C15713   1.428   3.065   4.080 -0.0028 -0.9446 -1.3045
  128CHL1   C2215714   1.522   2.883   4.280  0.4388  0.4197  1.1813
  128CHL1  H22A15715   1.440   2.895   4.353  1.4409 -0.9861  2.6024
  128CHL1  H22B15716   1.572   2.785   4.297  0.7922  0.4926  0.6076
  128CHL1   C2315717   1.630   2.997   4.289 -0.1514 -0.1390  1.1868
  128CHL1  H23A15718   1.711   2.963   4.222  2.3432  0.8788  3.5024
  128CHL1  H23B15719   1.599   3.102   4.268 -2.2340 -1.2197 -1.9166
  128CHL1   C2415720   1.712   3.005   4.422  0.1171 -0.1995  0.0401
  128CHL1  H24A15721   1.634   3.028   4.498 -1.3749 -1.0662 -1.1530
  128CHL1  H24B15722   1.744   2.901   4.442 -0.0711 -0.4894 -1.0778
  128CHL1   C2515723   1.833   3.105   4.422 -0.1764 -0.6057 -0.1000
  128CHL1   H2515724   1.793   3.200   4.380 -1.7428 -0.5278  1.4762
  128CHL1   C2615725   1.873   3.139   4.560  0.7264  0.0054 -0.3763
  128CHL1  H26A15726   1.892   3.047   4.619 -2.1590  0.2031  1.0210
  128CHL1  H26B15727   1.971   3.192   4.565  0.4985  0.2833  1.8914
  128CHL1  H26C15728   1.793   3.200   4.606  1.3288  1.1350 -0.7955
  128CHL1   C2715729   1.947   3.054   4.336 -0.1683 -0.2663  0.7811
  128CHL1  H27A15730   1.996   2.971   4.391  0.2450  0.2456  1.2159
  128CHL1  H27B15731   1.907   3.027   4.236  1.0869  0.4676  0.0520
  128CHL1  H27C15732   2.021   3.136   4.320 -0.1949 -0.6695 -1.6335
  129CHL1    C315733   4.940   6.479   3.060  0.0659 -0.1243 -0.3590
  129CHL1    H315734   4.851   6.415   3.079 -0.9064  1.2535 -0.1217
  129CHL1    O315735   4.932   6.530   2.933 -0.3151  0.5198 -0.4449
  129CHL1   H3'15736   4.989   6.607   2.941 -2.6364  2.3551 -0.3201
  129CHL1    C415737   4.950   6.591   3.167  0.4412  0.5826 -0.6267
  129CHL1   H4A15738   5.031   6.656   3.127  1.1862  0.0313 -0.0232
  129CHL1   H4B15739   4.853   6.646   3.163  0.5090  0.7304 -0.2697
  129CHL1    C515740   4.995   6.548   3.304 -0.3551  0.7850 -0.4186
  129CHL1    C615741   4.924   6.587   3.412 -0.0878  0.4655 -0.3182
  129CHL1    H615742   4.830   6.641   3.398  0.8078  1.8008 -1.5191
  129CHL1    C715743   4.961   6.558   3.553  0.1955 -0.9159 -0.3864
  129CHL1   H7A15744   4.956   6.655   3.606  0.2894 -1.3593  0.4376
  129CHL1   H7B15745   4.886   6.489   3.596 -0.3584  0.0448  0.2138
  129CHL1    C815746   5.106   6.504   3.568 -0.1741  0.2421 -0.2298
  129CHL1    H815747   5.171   6.593   3.554 -1.1542  1.2395  1.2882
  129CHL1   C1415748   5.127   6.458   3.711 -0.4220  0.0903 -0.4097
  129CHL1   H1415749   5.063   6.367   3.714  0.2039 -0.3385  0.3161
  129CHL1   C1515750   5.087   6.551   3.830 -0.5448 -0.0827  1.1861
  129CHL1  H15A15751   5.123   6.653   3.804 -0.1560 -0.1898  1.3007
  129CHL1  H15B15752   4.979   6.551   3.855 -1.6025  0.7631 -2.6459
  129CHL1   C1615753   5.171   6.502   3.951  0.0378  0.1234  0.2420
  129CHL1  H16A15754   5.235   6.587   3.985  0.4670 -0.2287  0.3155
  129CHL1  H16B15755   5.109   6.474   4.039  1.6775 -1.2947  1.0018
  129CHL1   C1715756   5.248   6.368   3.898  0.1512 -0.4103 -0.3965
  129CHL1   H1715757   5.170   6.288   3.897 -1.8342  1.4170  0.4676
  129CHL1   C1315758   5.261   6.395   3.747  0.5705  0.3019 -0.2536
  129CHL1   C1815759   5.367   6.498   3.720 -0.1062 -0.2676  0.0529
  129CHL1  H18A15760   5.332   6.595   3.762 -1.5203 -0.5043 -0.4988
  129CHL1  H18B15761   5.457   6.478   3.781  0.1411  0.9468  0.1267
  129CHL1  H18C15762   5.391   6.520   3.614  1.0072 -0.6778  0.2116
  129CHL1   C1215763   5.285   6.278   3.645  0.0829 -0.2092 -0.3046
  129CHL1  H12A15764   5.381   6.223   3.647 -0.4090 -1.0861 -0.5150
  129CHL1  H12B15765   5.205   6.204   3.667  2.2046 -2.9319 -1.3007
  129CHL1   C1115766   5.256   6.325   3.496 -0.0261 -0.4869 -0.4283
  129CHL1  H11A15767   5.344   6.384   3.464 -0.3178  0.6575  0.7464
  129CHL1  H11B15768   5.259   6.237   3.428  2.4001  2.2430 -4.2392
  129CHL1    C915769   5.128   6.405   3.460  0.2056 -0.5752  0.1677
  129CHL1    H915770   5.047   6.329   3.469  0.0690 -0.7332 -1.8714
  129CHL1   C1015771   5.114   6.455   3.317 -0.3545 -0.0603  0.1404
  129CHL1   C1915772   5.240   6.539   3.282  0.3227  0.0421 -0.2498
  129CHL1  H19A15773   5.221   6.605   3.194 -0.8762 -0.6031 -0.5035
  129CHL1  H19B15774   5.255   6.599   3.375 -0.5370 -1.1637  0.7000
  129CHL1  H19C15775   5.326   6.472   3.266  0.0940 -0.4129  0.3547
  129CHL1    C115776   5.099   6.335   3.214 -0.1341 -0.0471  0.0314
  129CHL1   H1A15777   5.198   6.283   3.211 -0.3664 -0.5112  0.2677
  129CHL1   H1B15778   5.025   6.256   3.243  0.8284 -1.0958 -0.2856
  129CHL1    C215779   5.068   6.394   3.070  0.0167 -0.1826 -0.0535
  129CHL1   H2A15780   5.066   6.305   3.003  0.9409 -1.1073  1.0987
  129CHL1   H2B15781   5.159   6.445   3.031  0.9548 -1.4362  0.4020
  129CHL1   C2015782   5.362   6.327   3.981  0.1306 -0.5001  0.0110
  129CHL1   H2015783   5.439   6.407   3.975  1.4240 -1.5680  1.3291
  129CHL1   C2115784   5.424   6.194   3.924  0.2947  0.0164 -0.3077
  129CHL1  H21A15785   5.349   6.122   3.885 -1.1553  1.1335  0.3081
  129CHL1  H21B15786   5.481   6.142   4.004  2.2443  0.9366 -1.0220
  129CHL1  H21C15787   5.493   6.213   3.839  0.6605  1.0197  0.1938
  129CHL1   C2215788   5.329   6.309   4.132  0.3844 -0.4253 -0.2994
  129CHL1  H22A15789   5.278   6.403   4.161 -0.5125 -1.0686  0.2796
  129CHL1  H22B15790   5.253   6.228   4.140 -0.5992  0.4768 -0.2239
  129CHL1   C2315791   5.446   6.281   4.229  0.7447 -0.9861  0.0940
  129CHL1  H23A15792   5.466   6.173   4.246  0.2007 -1.0585  0.3110
  129CHL1  H23B15793   5.538   6.338   4.205  0.1110  0.4543  0.9726
  129CHL1   C2415794   5.410   6.322   4.374 -0.4070  0.1173  0.0923
  129CHL1  H24A15795   5.369   6.425   4.371 -0.4279  0.0920 -1.1797
  129CHL1  H24B15796   5.328   6.260   4.416  0.5116 -0.7797  0.6228
  129CHL1   C2515797   5.534   6.317   4.464 -0.2711  0.2933  0.7765
  129CHL1   H2515798   5.615   6.371   4.410  1.3646 -0.9625  1.8582
  129CHL1   C2615799   5.511   6.383   4.600  0.4630 -0.2759 -0.3959
  129CHL1  H26A15800   5.599   6.366   4.666 -0.8453 -2.8922  0.8381
  129CHL1  H26B15801   5.473   6.486   4.582 -0.7074 -0.4657  0.8755
  129CHL1  H26C15802   5.425   6.333   4.649  0.8029 -2.3925 -1.8039
  129CHL1   C2715803   5.584   6.172   4.498 -0.0012 -0.1576  0.5076
  129CHL1  H27A15804   5.695   6.166   4.500  0.0689  0.1249 -1.3989
  129CHL1  H27B15805   5.532   6.137   4.590  0.7852  0.7890  1.3512
  129CHL1  H27C15806   5.554   6.102   4.418 -1.2359  0.8096  0.1057
  130CHL1    C315807   3.276   0.060   3.193  0.2671 -0.2482  0.4600
  130CHL1    H315808   3.301  -0.048   3.204  1.2014 -0.2651 -1.4453
  130CHL1    O315809   3.280   0.114   3.062 -0.6303 -0.4181 -0.1701
  130CHL1   H3'15810   3.233   0.051   3.008  0.4348 -0.7855 -0.7009
  130CHL1    C415811   3.129   0.084   3.236  0.5083  0.6984 -0.1866
  130CHL1   H4A15812   3.097   0.188   3.213 -2.4788 -0.2088 -0.5954
  130CHL1   H4B15813   3.066   0.025   3.166  0.1628  0.5205  0.2705
  130CHL1    C515814   3.096   0.067   3.380  0.5012  0.2729  0.4466
  130CHL1    C615815   2.995  -0.010   3.418  0.0154  0.1152  0.7752
  130CHL1    H615816   2.931  -0.068   3.350  0.6594 -0.1003  0.3403
  130CHL1    C715817   2.958  -0.029   3.563  0.2749 -0.6411 -0.1360
  130CHL1   H7A15818   2.850  -0.011   3.582  0.8430  0.4617  2.5597
  130CHL1   H7B15819   2.998  -0.130   3.588 -0.0034 -1.8585 -4.0093
  130CHL1    C815820   3.020   0.086   3.657 -0.2963  0.3049 -0.4978
  130CHL1    H815821   2.975   0.176   3.612 -1.3124  0.1726  0.2172
  130CHL1   C1415822   3.004   0.039   3.805 -0.3095  0.0633  0.1954
  130CHL1   H1415823   3.060  -0.057   3.815 -0.1583  0.1576  0.2614
  130CHL1   C1515824   2.858   0.012   3.841  0.4668 -1.1702 -0.0152
  130CHL1  H15A15825   2.782   0.082   3.800  1.5882  1.0574  1.4785
  130CHL1  H15B15826   2.817  -0.088   3.818  0.0755 -1.1519  0.5757
  130CHL1   C1615827   2.855   0.047   3.988  0.1453  0.5947 -0.3202
  130CHL1  H16A15828   2.795   0.134   4.023  1.3493  1.2682  0.1590
  130CHL1  H16B15829   2.839  -0.042   4.052  0.1455  1.0524  0.3312
  130CHL1   C1715830   3.001   0.093   4.023  0.0528 -0.5369  0.3154
  130CHL1   H1715831   3.059  -0.000   4.041  0.0577 -0.3297  1.4675
  130CHL1   C1315832   3.056   0.149   3.898  0.1494 -0.3752  0.3657
  130CHL1   C1815833   2.984   0.283   3.865 -0.3288 -0.3001  0.2641
  130CHL1  H18A15834   2.873   0.275   3.858 -0.2795 -0.2159 -0.7601
  130CHL1  H18B15835   2.999   0.354   3.949 -2.3000  1.2954 -0.6541
  130CHL1  H18C15836   3.014   0.336   3.772  0.0084  0.1948  0.6521
  130CHL1   C1215837   3.213   0.147   3.877 -0.1544 -0.0416  0.3404
  130CHL1  H12A15838   3.264   0.214   3.950 -0.0248  0.1727  0.0543
  130CHL1  H12B15839   3.257   0.047   3.895 -1.5043 -0.4567  1.5679
  130CHL1   C1115840   3.248   0.182   3.731 -1.2739  0.3634 -0.2632
  130CHL1  H11A15841   3.222   0.288   3.712 -2.9144  0.0517  0.1546
  130CHL1  H11B15842   3.358   0.172   3.713 -1.4035  0.7810 -1.3433
  130CHL1    C915843   3.169   0.100   3.620  0.0076  1.1106 -0.9686
  130CHL1    H915844   3.193  -0.008   3.632 -2.0761  0.6065 -0.8287
  130CHL1   C1015845   3.194   0.136   3.475 -0.4942 -1.0354  0.1955
  130CHL1   C1915846   3.176   0.291   3.464  0.3714 -0.0032  0.2697
  130CHL1  H19A15847   3.271   0.330   3.507  0.3478 -0.5912  0.8796
  130CHL1  H19B15848   3.162   0.321   3.358  0.7708 -2.4931 -0.5457
  130CHL1  H19C15849   3.084   0.315   3.523 -0.0830 -1.4103  0.1542
  130CHL1    C115850   3.340   0.111   3.426 -0.4277  0.4812 -0.2864
  130CHL1   H1A15851   3.414   0.173   3.481 -1.3055  0.6654  0.7291
  130CHL1   H1B15852   3.364   0.004   3.442  0.7218  0.7789  0.0866
  130CHL1    C215853   3.377   0.142   3.283  0.2864  0.4277 -0.0471
  130CHL1   H2A15854   3.483   0.109   3.272  0.3730  0.6504  0.1177
  130CHL1   H2B15855   3.360   0.249   3.260 -2.3791 -0.5293 -3.2261
  130CHL1   C2015856   3.002   0.174   4.153 -0.3616  0.5087 -0.4625
  130CHL1   H2015857   2.943   0.266   4.131  2.6332  2.7613  0.2327
  130CHL1   C2115858   3.140   0.229   4.191 -0.5736 -0.0992  0.3006
  130CHL1  H21A15859   3.222   0.154   4.184  1.6360  2.3226 -2.4336
  130CHL1  H21B15860   3.132   0.261   4.297 -0.9827 -0.3261  0.3393
  130CHL1  H21C15861   3.165   0.314   4.124 -0.1822 -1.3948 -1.2678
  130CHL1   C2215862   2.925   0.101   4.271 -0.2155  0.3504 -0.0193
  130CHL1  H22A15863   2.915   0.172   4.355 -0.7577 -0.1716  0.3651
  130CHL1  H22B15864   2.821   0.090   4.233 -0.2042  1.5071 -0.4195
  130CHL1   C2315865   2.993  -0.034   4.308 -0.1569 -0.3089 -0.0747
  130CHL1  H23A15866   2.978  -0.111   4.229 -1.7775 -0.5112  0.3991
  130CHL1  H23B15867   3.102  -0.013   4.302 -0.2845  0.5915  0.5045
  130CHL1   C2415868   2.953  -0.088   4.441  0.1397 -0.6286  0.3525
  130CHL1  H24A15869   3.022  -0.166   4.479  0.2000 -0.8196 -0.1436
  130CHL1  H24B15870   2.974  -0.009   4.517  0.1541 -2.2828  2.1357
  130CHL1   C2515871   2.804  -0.107   4.456 -0.6683  0.5320 -0.0962
  130CHL1   H2515872   2.747  -0.015   4.432 -0.7377  0.4282 -0.3298
  130CHL1   C2615873   2.766  -0.216   4.360 -0.2631  0.4352  0.1373
  130CHL1  H26A15874   2.776  -0.181   4.255 -0.2386  0.5532  0.1796
  130CHL1  H26B15875   2.838  -0.300   4.369 -1.1486 -0.2824  0.8902
  130CHL1  H26C15876   2.661  -0.247   4.381 -0.6394  1.0447 -0.7842
  130CHL1   C2715877   2.754  -0.139   4.597 -0.5191 -0.5676  0.2836
  130CHL1  H27A15878   2.817  -0.214   4.648  1.2670  1.4325  1.2073
  130CHL1  H27B15879   2.756  -0.038   4.644  0.9226  0.7265 -2.3375
  130CHL1  H27C15880   2.652  -0.182   4.604 -0.5788 -0.2422  1.9250
  131CHL1    C315881   1.773   5.487   3.364 -0.1522  0.7262  0.2636
  131CHL1    H315882   1.743   5.380   3.370  0.9161  0.3064 -1.3496
  131CHL1    O315883   1.773   5.517   3.222 -0.3402 -0.1096 -0.4280
  131CHL1   H3'15884   1.796   5.611   3.223  0.4972 -0.3024 -0.4665
  131CHL1    C415885   1.672   5.572   3.438  0.4486  0.8208  0.6439
  131CHL1   H4A15886   1.702   5.679   3.429  2.3221  0.6574  3.4889
  131CHL1   H4B15887   1.575   5.547   3.390 -0.0987  2.0091  1.1005
  131CHL1    C515888   1.672   5.543   3.584  0.1515 -0.1078  0.1427
  131CHL1    C615889   1.557   5.524   3.657 -0.3946  0.1713 -0.4143
  131CHL1    H615890   1.458   5.507   3.612 -1.9269 -0.4127  2.8895
  131CHL1    C715891   1.570   5.522   3.809 -0.1776 -0.8947  0.3762
  131CHL1   H7A15892   1.486   5.577   3.858 -0.4683 -1.0720  0.0852
  131CHL1   H7B15893   1.548   5.419   3.844 -1.7868 -2.1953 -3.7660
  131CHL1    C815894   1.695   5.569   3.874  0.0059  0.2729 -1.0213
  131CHL1    H815895   1.694   5.680   3.876  1.0396  0.2926  1.5049
  131CHL1   C1415896   1.706   5.513   4.021 -0.0868 -0.0264  1.0755
  131CHL1   H1415897   1.721   5.405   4.001  1.0672  0.1353  1.0407
  131CHL1   C1515898   1.588   5.520   4.105 -0.2117 -0.0031 -0.6859
  131CHL1  H15A15899   1.547   5.623   4.099 -1.2230 -0.4692 -2.4721
  131CHL1  H15B15900   1.506   5.451   4.076 -1.0514  0.6256  0.1221
  131CHL1   C1615901   1.641   5.479   4.247 -0.5036 -0.0231  0.0449
  131CHL1  H16A15902   1.616   5.547   4.331  2.0996 -0.0778  0.9541
  131CHL1  H16B15903   1.595   5.381   4.272 -1.3710  0.2952 -0.2627
  131CHL1   C1715904   1.797   5.456   4.232 -0.0884  0.2442 -0.3611
  131CHL1   H1715905   1.823   5.350   4.206  0.4652  0.1324  0.6148
  131CHL1   C1315906   1.827   5.545   4.108 -0.1688  0.4297  0.2647
  131CHL1   C1815907   1.832   5.689   4.149 -0.1750 -0.0251  0.0218
  131CHL1  H18A15908   1.916   5.722   4.213  0.2675  0.9677 -1.0272
  131CHL1  H18B15909   1.844   5.756   4.061  0.7919 -0.0453  0.1262
  131CHL1  H18C15910   1.741   5.718   4.205  0.1527 -0.5011  0.8060
  131CHL1   C1215911   1.947   5.498   4.017  0.5815  0.0039 -0.1880
  131CHL1  H12A15912   2.047   5.523   4.058  1.4315 -0.4671 -1.8674
  131CHL1  H12B15913   1.950   5.387   4.016 -2.0433 -0.1478  1.3152
  131CHL1   C1115914   1.947   5.563   3.877 -0.4714 -0.2500  0.1654
  131CHL1  H11A15915   1.947   5.674   3.891 -1.6610 -0.3367  0.9123
  131CHL1  H11B15916   2.038   5.535   3.819 -1.4107 -3.4957  0.1081
  131CHL1    C915917   1.824   5.524   3.796  0.3181  0.2974  0.4046
  131CHL1    H915918   1.810   5.414   3.804 -0.2565  0.4091  0.9804
  131CHL1   C1015919   1.822   5.557   3.648  0.2423 -0.0208 -0.0683
  131CHL1   C1915920   1.861   5.710   3.635 -0.2956  0.0685  0.2177
  131CHL1  H19A15921   1.971   5.723   3.648 -0.3787  1.1562 -0.0870
  131CHL1  H19B15922   1.847   5.746   3.531 -1.1724  0.9472  0.6304
  131CHL1  H19C15923   1.802   5.771   3.706 -0.2365 -1.9230  2.0863
  131CHL1    C115924   1.925   5.473   3.568 -0.5508 -0.4792  0.3355
  131CHL1   H1A15925   2.027   5.500   3.602 -0.8857  0.8871  0.3161
  131CHL1   H1B15926   1.914   5.367   3.600  2.4523 -0.1971  2.7236
  131CHL1    C215927   1.914   5.503   3.423  0.9011  0.8187  0.2024
  131CHL1   H2A15928   1.979   5.434   3.365  0.3183  0.2520  0.2137
  131CHL1   H2B15929   1.953   5.603   3.397 -1.3866  1.3121 -1.5709
  131CHL1   C2015930   1.877   5.482   4.363 -0.8291 -0.2244  0.5203
  131CHL1   H2015931   1.859   5.586   4.398 -0.7951 -0.9364  2.8723
  131CHL1   C2115932   2.026   5.465   4.340 -0.8759  0.1577  0.3395
  131CHL1  H21A15933   2.048   5.364   4.297 -2.2764  0.5370 -1.3915
  131CHL1  H21B15934   2.087   5.481   4.431  0.2333  1.5025 -0.5941
  131CHL1  H21C15935   2.064   5.548   4.277  1.7356 -0.5827  0.7821
  131CHL1   C2215936   1.831   5.377   4.476 -1.2370 -0.0067  0.0115
  131CHL1  H22A15937   1.739   5.428   4.511 -0.7305  0.3242  0.8833
  131CHL1  H22B15938   1.824   5.276   4.430  0.2058 -0.5599  0.9411
  131CHL1   C2315939   1.929   5.363   4.600  0.7388 -0.1119 -0.6957
  131CHL1  H23A15940   2.020   5.304   4.575  1.1228  0.3124 -0.3212
  131CHL1  H23B15941   1.959   5.464   4.634 -1.2081 -0.7549  3.4915
  131CHL1   C2415942   1.859   5.287   4.719  0.1511 -0.2612  0.2623
  131CHL1  H24A15943   1.765   5.344   4.733 -0.0050 -0.9381  2.1798
  131CHL1  H24B15944   1.836   5.182   4.691  1.6240 -0.9957  1.6691
  131CHL1   C2515945   1.915   5.279   4.859 -0.3649 -0.6092  0.0208
  131CHL1   H2515946   1.922   5.384   4.893  1.4375 -0.9694  0.8992
  131CHL1   C2615947   1.816   5.224   4.957 -0.5006 -0.1465  0.3001
  131CHL1  H26A15948   1.855   5.236   5.060  0.7201 -0.6324 -0.0850
  131CHL1  H26B15949   1.716   5.270   4.941 -1.0331 -1.7610 -1.3325
  131CHL1  H26C15950   1.803   5.114   4.942  2.3748 -0.4958 -0.1747
  131CHL1   C2715951   2.061   5.226   4.872  0.5136  0.4330 -0.4899
  131CHL1  H27A15952   2.092   5.267   4.970 -1.1276  4.7260 -1.5240
  131CHL1  H27B15953   2.056   5.115   4.871 -0.4797  0.4543  0.3746
  131CHL1  H27C15954   2.124   5.272   4.793 -0.7662 -0.8826 -2.3801
  132CHL1    C315955   3.575   6.678   3.358 -0.3709 -0.2230 -0.3355
  132CHL1    H315956   3.519   6.585   3.384 -0.7225  0.1627  0.2928
  132CHL1    O315957   3.566   6.691   3.211 -0.1106  0.5786 -0.5431
  132CHL1   H3'15958   3.659   6.692   3.186  1.0529  2.8669  3.0383
  132CHL1    C415959   3.511   6.799   3.417  0.8158  0.2683  0.7063
  132CHL1   H4A15960   3.563   6.894   3.389  1.7512 -0.6732 -0.9119
  132CHL1   H4B15961   3.407   6.796   3.378  0.0649  0.6272  2.5687
  132CHL1    C515962   3.504   6.792   3.569  0.1406 -0.2287 -0.1024
  132CHL1    C615963   3.393   6.792   3.640 -0.1553 -0.4271  0.0826
  132CHL1    H615964   3.299   6.773   3.586 -0.0346 -3.6655  0.7999
  132CHL1    C715965   3.399   6.799   3.794 -0.2548  0.1254  0.3598
  132CHL1   H7A15966   3.336   6.880   3.837 -2.3849 -0.5993 -1.1946
  132CHL1   H7B15967   3.361   6.702   3.831  0.5438 -0.0343  0.7691
  132CHL1    C815968   3.542   6.835   3.857  0.0522  0.0539 -0.4719
  132CHL1    H815969   3.556   6.945   3.854 -0.7898  0.2201  0.7470
  132CHL1   C1415970   3.547   6.800   4.000  0.5933  0.0320 -0.1108
  132CHL1   H1415971   3.531   6.691   4.012  0.2331  0.2701  1.8986
  132CHL1   C1515972   3.433   6.851   4.094  0.3570 -0.1636  0.2074
  132CHL1  H15A15973   3.411   6.958   4.073  0.7293 -0.2335 -0.5703
  132CHL1  H15B15974   3.336   6.800   4.076  0.0351  0.4292  0.2468
  132CHL1   C1615975   3.492   6.834   4.234  0.0819  0.5183  0.2115
  132CHL1  H16A15976   3.488   6.934   4.284 -0.3017  1.7267 -2.0898
  132CHL1  H16B15977   3.450   6.759   4.304 -1.6980  0.2685 -1.0815
  132CHL1   C1715978   3.642   6.795   4.213  0.1097  0.1102 -0.3433
  132CHL1   H1715979   3.635   6.685   4.229 -0.8932  0.4639  2.2799
  132CHL1   C1315980   3.676   6.833   4.070  1.1783  0.4389 -0.0021
  132CHL1   C1815981   3.705   6.982   4.069  0.1972  0.0985 -0.3326
  132CHL1  H18A15982   3.719   7.003   3.961 -1.0102 -0.1999 -0.5586
  132CHL1  H18B15983   3.631   7.055   4.108 -0.1700 -0.8393  0.7782
  132CHL1  H18C15984   3.800   6.997   4.124 -0.4942 -1.0864  1.2588
  132CHL1   C1215985   3.788   6.747   4.002  0.3464  0.0455  0.7134
  132CHL1  H12A15986   3.884   6.746   4.057  1.0928 -0.4987 -0.5383
  132CHL1  H12B15987   3.741   6.646   4.009  1.4638 -0.7729 -2.0236
  132CHL1   C1115988   3.794   6.772   3.855 -0.1296 -0.3359  0.3551
  132CHL1  H11A15989   3.838   6.872   3.835  0.1322 -0.7834 -1.5880
  132CHL1  H11B15990   3.872   6.702   3.820  0.3059  1.4838 -2.6902
  132CHL1    C915991   3.651   6.758   3.783 -0.7691 -0.4071  0.0210
  132CHL1    H915992   3.610   6.655   3.799  0.6232 -0.8376  0.9392
  132CHL1   C1015993   3.646   6.787   3.631  0.1412 -0.5445  0.9401
  132CHL1   C1915994   3.711   6.929   3.606 -0.1374  0.1273  0.5830
  132CHL1  H19A15995   3.810   6.933   3.658 -0.9631  0.9994  2.1532
  132CHL1  H19B15996   3.724   6.941   3.497 -0.5422  1.6116  0.6797
  132CHL1  H19C15997   3.646   7.005   3.655 -0.6158 -0.8126  1.4471
  132CHL1    C115998   3.729   6.675   3.562  0.6302  0.0014 -0.4951
  132CHL1   H1A15999   3.833   6.694   3.594  0.3317  1.8413 -0.5217
  132CHL1   H1B16000   3.701   6.572   3.591 -1.7219  0.4266 -0.9806
  132CHL1    C216001   3.723   6.669   3.407 -0.1442 -0.7078  0.7571
  132CHL1   H2A16002   3.762   6.570   3.375  0.0316  0.2793 -2.3855
  132CHL1   H2B16003   3.791   6.749   3.370 -0.3444  0.3901  2.6451
  132CHL1   C2016004   3.738   6.828   4.338 -0.2102 -0.0676 -0.7368
  132CHL1   H2016005   3.841   6.832   4.296  0.3641 -2.1002  0.3158
  132CHL1   C2116006   3.735   6.706   4.439  0.0847  0.3645  0.5624
  132CHL1  H21A16007   3.748   6.603   4.399 -2.8039 -0.4093  1.3856
  132CHL1  H21B16008   3.637   6.708   4.492 -0.3989 -1.1213 -0.2127
  132CHL1  H21C16009   3.819   6.711   4.512  1.9120  0.3159 -1.4552
  132CHL1   C2216010   3.703   6.968   4.403 -0.6279 -0.2637 -0.1143
  132CHL1  H22A16011   3.679   7.051   4.333 -2.6611 -2.1328 -1.8206
  132CHL1  H22B16012   3.611   6.943   4.461 -0.1540  0.4853  0.9708
  132CHL1   C2316013   3.804   7.022   4.515 -0.4229  0.6810  0.3547
  132CHL1  H23A16014   3.826   6.951   4.598  1.4624  1.9842  1.0387
  132CHL1  H23B16015   3.901   7.051   4.468 -0.4963  2.5065  1.2573
  132CHL1   C2416016   3.753   7.141   4.587  0.4832 -0.6371 -1.1785
  132CHL1  H24A16017   3.731   7.221   4.513 -3.1859  0.1401  0.5286
  132CHL1  H24B16018   3.657   7.113   4.633  0.8172  2.0337  1.4123
  132CHL1   C2516019   3.840   7.206   4.702 -0.0198  0.0856  0.5428
  132CHL1   H2516020   3.935   7.245   4.659 -0.2644  1.3101  1.0540
  132CHL1   C2616021   3.769   7.329   4.765  0.4351  1.0416  0.3974
  132CHL1  H26A16022   3.670   7.300   4.805  0.1864  1.3815  0.0353
  132CHL1  H26B16023   3.837   7.364   4.846  0.1384 -0.3208  1.2668
  132CHL1  H26C16024   3.764   7.414   4.694  0.2657  0.2327 -0.5812
  132CHL1   C2716025   3.894   7.103   4.804 -0.2732  0.2287 -0.6360
  132CHL1  H27A16026   3.809   7.064   4.863 -0.7294  2.2321  0.1280
  132CHL1  H27B16027   3.958   7.028   4.753 -0.7734 -1.3846  1.0253
  132CHL1  H27C16028   3.967   7.155   4.869 -0.3360 -1.0985  0.5258
  133CHL1    C316029   1.417   2.221   3.159  0.3066 -0.2686  0.7138
  133CHL1    H316030   1.306   2.221   3.147  0.5491 -0.2736 -2.2770
  133CHL1    O316031   1.483   2.253   3.034 -0.1185  0.1865 -0.8048
  133CHL1   H3'16032   1.477   2.169   2.987  2.2871  0.5444 -1.8881
  133CHL1    C416033   1.444   2.329   3.262 -0.8437 -0.2371  0.4527
  133CHL1   H4A16034   1.553   2.339   3.279 -1.0494  0.4344  1.4556
  133CHL1   H4B16035   1.408   2.418   3.206 -2.0211 -2.0756 -1.9086
  133CHL1    C516036   1.385   2.303   3.399 -0.2902 -0.3897  0.5739
  133CHL1    C616037   1.314   2.397   3.459 -0.5213  0.3274 -0.0085
  133CHL1    H616038   1.284   2.486   3.402 -0.0138  1.3175  1.2129
  133CHL1    C716039   1.259   2.376   3.595 -0.0729 -0.5293  0.0269
  133CHL1   H7A16040   1.283   2.473   3.645 -1.3739  0.9656 -2.0983
  133CHL1   H7B16041   1.150   2.357   3.603 -0.6071  2.5366  1.8762
  133CHL1    C816042   1.331   2.263   3.681  0.0330  0.6786 -1.0574
  133CHL1    H816043   1.424   2.305   3.725 -0.2286 -0.8303  1.1024
  133CHL1   C1416044   1.251   2.224   3.805  1.2993  0.3170  0.2391
  133CHL1   H1416045   1.149   2.200   3.768  1.4143  0.1222  0.0491
  133CHL1   C1516046   1.226   2.347   3.902  0.0552 -0.1953 -0.1829
  133CHL1  H15A16047   1.316   2.401   3.936  0.5003 -1.6503  1.0896
  133CHL1  H15B16048   1.157   2.426   3.866  0.6732 -0.0892 -1.1513
  133CHL1   C1616049   1.162   2.276   4.027 -0.0081 -0.1260 -0.3792
  133CHL1  H16A16050   1.215   2.307   4.119  0.8939  0.4586 -1.0848
  133CHL1  H16B16051   1.054   2.302   4.026  0.4249  2.0068 -3.0838
  133CHL1   C1716052   1.179   2.120   3.999  0.1148 -0.0832 -0.6960
  133CHL1   H1716053   1.088   2.089   3.944 -0.2527  0.8882 -0.6500
  133CHL1   C1316054   1.290   2.106   3.885 -0.3815 -0.0147  0.1759
  133CHL1   C1816055   1.431   2.125   3.958  0.2227  0.0402  0.3316
  133CHL1  H18A16056   1.511   2.139   3.882  0.4348  1.3989  0.7767
  133CHL1  H18B16057   1.416   2.215   4.021  0.7703 -0.9338  1.9090
  133CHL1  H18C16058   1.450   2.033   4.017  1.4425  0.0100 -0.0867
  133CHL1   C1216059   1.291   1.981   3.802 -0.5502 -0.2774 -0.1532
  133CHL1  H12A16060   1.340   1.900   3.859 -0.7291 -0.5882 -0.4357
  133CHL1  H12B16061   1.186   1.973   3.766  0.1185  1.5211 -2.8010
  133CHL1   C1116062   1.386   2.001   3.683 -0.2841 -0.2398  0.7795
  133CHL1  H11A16063   1.487   2.019   3.725  0.7137 -0.6824 -1.2758
  133CHL1  H11B16064   1.391   1.911   3.617  0.9304 -0.3661  1.0248
  133CHL1    C916065   1.351   2.135   3.596  0.6203 -0.7469  0.0922
  133CHL1    H916066   1.254   2.110   3.548  0.7932  0.5549 -0.9852
  133CHL1   C1016067   1.428   2.168   3.466  0.6065  0.2260  0.1787
  133CHL1   C1916068   1.578   2.181   3.518  0.0205  0.9807 -0.3892
  133CHL1  H19A16069   1.587   2.271   3.583 -2.1507  1.7693 -1.0648
  133CHL1  H19B16070   1.615   2.084   3.558  1.5481  1.7395  0.1069
  133CHL1  H19C16071   1.638   2.199   3.427 -3.1502  2.1593 -2.4322
  133CHL1    C116072   1.410   2.066   3.358  0.2731  0.8274  0.0085
  133CHL1   H1A16073   1.465   1.980   3.402 -1.5652  0.1951  1.1880
  133CHL1   H1B16074   1.307   2.029   3.339  0.7340  0.5855 -2.2939
  133CHL1    C216075   1.471   2.092   3.214 -0.0907  0.2289 -0.0153
  133CHL1   H2A16076   1.455   1.998   3.158  0.5915  0.6384 -0.9305
  133CHL1   H2B16077   1.579   2.099   3.239  0.0371  1.0844 -0.7420
  133CHL1   C2016078   1.192   2.050   4.132 -0.6037  0.5340  0.0183
  133CHL1   H2016079   1.273   2.090   4.196 -0.7095  0.2488  0.3411
  133CHL1   C2116080   1.216   1.900   4.101 -0.3819 -0.2169  0.0582
  133CHL1  H21A16081   1.224   1.841   4.195  2.2418  0.5790  0.3960
  133CHL1  H21B16082   1.319   1.880   4.065 -0.1408  0.3552  0.4110
  133CHL1  H21C16083   1.145   1.857   4.027 -0.9202 -3.4033  2.2230
  133CHL1   C2216084   1.063   2.075   4.207  0.0995  0.1894  0.3336
  133CHL1  H22A16085   1.042   2.183   4.218  0.5652  0.3808 -0.5553
  133CHL1  H22B16086   0.983   2.029   4.144  1.0498 -2.2493  0.7770
  133CHL1   C2316087   1.062   2.005   4.348  0.6695  0.0852  0.4829
  133CHL1  H23A16088   1.055   1.899   4.318  2.4955 -0.0050  0.2342
  133CHL1  H23B16089   1.147   2.034   4.414 -0.5939  1.3779  1.6374
  133CHL1   C2416090   0.928   2.039   4.416 -0.5867  0.3937 -0.0412
  133CHL1  H24A16091   0.921   2.147   4.443  1.8314  0.1023  2.1730
  133CHL1  H24B16092   0.846   2.019   4.345  0.3619  1.0497 -1.3639
  133CHL1   C2516093   0.914   1.961   4.551  0.3970  0.1501  0.0255
  133CHL1   H2516094   0.998   1.990   4.618  0.4362 -0.5621  0.2893
  133CHL1   C2616095   0.781   2.027   4.612 -0.3279 -0.3739  0.3216
  133CHL1  H26A16096   0.817   2.130   4.634  1.9006 -0.9580 -0.3027
  133CHL1  H26B16097   0.707   2.022   4.529 -0.0210  0.4103 -0.0049
  133CHL1  H26C16098   0.743   1.974   4.703  2.3064  0.1417  1.8250
  133CHL1   C2716099   0.894   1.812   4.523 -0.0250 -0.2989  0.0073
  133CHL1  H27A16100   0.813   1.803   4.447 -1.9616 -1.4601  2.1023
  133CHL1  H27B16101   0.984   1.761   4.480  0.7290  0.4987  0.5974
  133CHL1  H27C16102   0.858   1.767   4.618  2.1488  0.3598  1.2159
  134CHL1    C316103   6.984   2.739   3.111  0.5087  0.2941 -0.8941
  134CHL1    H316104   6.984   2.639   3.159 -0.6811  0.7283  0.0500
  134CHL1    O316105   7.019   2.721   2.976  0.0818  0.2763  0.6386
  134CHL1   H3'16106   6.947   2.678   2.930  0.9877 -0.5185 -0.0868
  134CHL1    C416107   6.848   2.808   3.114 -0.8003  0.4898 -0.2162
  134CHL1   H4A16108   6.844   2.903   3.058  0.8684  1.9174  1.9152
  134CHL1   H4B16109   6.776   2.732   3.076 -2.4373  1.1597  1.4120
  134CHL1    C516110   6.807   2.843   3.250  0.0757  0.1340 -0.2960
  134CHL1    C616111   6.691   2.798   3.302 -0.6476 -0.2339 -0.5520
  134CHL1    H616112   6.621   2.742   3.239  0.7592 -0.6797 -1.7561
  134CHL1    C716113   6.637   2.833   3.444  0.7609  0.3489  0.0782
  134CHL1   H7A16114   6.527   2.841   3.455  0.6356 -0.2489 -0.7157
  134CHL1   H7B16115   6.656   2.743   3.506  2.3717 -2.2794 -3.8950
  134CHL1    C816116   6.708   2.956   3.503 -0.1684  0.2722 -0.1815
  134CHL1    H816117   6.679   3.043   3.441  0.5164  0.4942 -0.1966
  134CHL1   C1416118   6.682   2.966   3.654 -0.5866 -0.2265  0.7081
  134CHL1   H1416119   6.725   2.874   3.698  2.5187  0.4029 -0.7407
  134CHL1   C1516120   6.535   2.982   3.684  0.5421 -0.4749  0.4812
  134CHL1  H15A16121   6.507   3.066   3.617  3.1646  1.4832  1.6772
  134CHL1  H15B16122   6.478   2.887   3.668  0.5858 -0.3313 -0.5980
  134CHL1   C1616123   6.532   3.036   3.822  0.1342 -0.0667 -0.1246
  134CHL1  H16A16124   6.474   3.130   3.831  0.1980  0.3000 -2.8411
  134CHL1  H16B16125   6.495   2.958   3.893  0.2622  0.8898  1.0210
  134CHL1   C1716126   6.680   3.066   3.861 -0.0359  0.5757  0.4923
  134CHL1   H1716127   6.718   2.975   3.913 -0.8412  2.2244  4.2978
  134CHL1   C1316128   6.760   3.076   3.731 -0.5109 -0.4892  0.5927
  134CHL1   C1816129   6.731   3.218   3.670  0.4049 -0.3993 -0.1193
  134CHL1  H18A16130   6.621   3.234   3.672  0.1424 -1.2810 -3.1893
  134CHL1  H18B16131   6.775   3.308   3.720  1.4631 -0.2838 -1.1986
  134CHL1  H18C16132   6.767   3.226   3.565  1.7082  2.2982  0.4432
  134CHL1   C1216133   6.908   3.048   3.729  0.2995 -0.0343  0.4096
  134CHL1  H12A16134   6.958   3.138   3.770  0.0172 -0.5620  1.9875
  134CHL1  H12B16135   6.931   2.964   3.798  0.8186  0.6532  1.0779
  134CHL1   C1116136   6.958   3.019   3.583  0.2068 -0.4546 -0.8996
  134CHL1  H11A16137   6.966   3.118   3.533 -0.3982  0.3662  0.5776
  134CHL1  H11B16138   7.062   2.979   3.586  0.7372  0.8764  1.4985
  134CHL1    C916139   6.865   2.932   3.493 -0.1291  0.0824 -0.4484
  134CHL1    H916140   6.887   2.833   3.537 -0.0312  0.6959  0.9361
  134CHL1   C1016141   6.909   2.919   3.342  0.0046 -0.3905  0.0298
  134CHL1   C1916142   6.920   3.057   3.283 -0.8028  0.0359 -0.2682
  134CHL1  H19A16143   6.952   3.048   3.177  0.2249 -0.6596  0.0937
  134CHL1  H19B16144   6.825   3.114   3.289  0.2987  2.0542 -1.1189
  134CHL1  H19C16145   7.004   3.116   3.325  1.1781 -1.3678 -2.0134
  134CHL1    C116146   7.051   2.861   3.320  0.9335 -0.6988 -0.2856
  134CHL1   H1A16147   7.126   2.920   3.377 -0.7842  0.4822  0.8591
  134CHL1   H1B16148   7.056   2.767   3.379  3.8308 -0.8247 -0.5779
  134CHL1    C216149   7.089   2.827   3.186 -0.4846 -0.3416  0.4061
  134CHL1   H2A16150   7.188   2.777   3.175  0.5192  1.5884  0.1451
  134CHL1   H2B16151   7.099   2.915   3.118 -0.8848  0.0967  0.9028
  134CHL1   C2016152   6.700   3.172   3.976  0.7083  0.5227  0.4774
  134CHL1   H2016153   6.652   3.265   3.938 -0.5750  1.0774  3.2103
  134CHL1   C2116154   6.841   3.215   4.008 -0.0135  0.4103 -0.9787
  134CHL1  H21A16155   6.908   3.131   4.034  1.0044  1.4793  0.0050
  134CHL1  H21B16156   6.845   3.271   4.105  0.1651  0.1970 -0.8617
  134CHL1  H21C16157   6.890   3.275   3.928  1.2334  1.2095  0.3132
  134CHL1   C2216158   6.617   3.135   4.102  0.4729 -0.7247 -0.5293
  134CHL1  H22A16159   6.588   3.227   4.156  0.0124 -0.8219 -0.6037
  134CHL1  H22B16160   6.520   3.081   4.088  0.1201 -0.5810  1.1693
  134CHL1   C2316161   6.695   3.038   4.193  0.2656  0.0411 -0.7801
  134CHL1  H23A16162   6.752   2.965   4.132 -0.3860  0.2853 -1.6951
  134CHL1  H23B16163   6.770   3.097   4.250 -1.2454  0.8219  0.5052
  134CHL1   C2416164   6.607   2.959   4.294 -0.5404 -0.4736  0.7430
  134CHL1  H24A16165   6.558   3.033   4.361 -0.8905 -0.2331  0.2238
  134CHL1  H24B16166   6.528   2.910   4.234 -0.1893  0.4622 -0.5078
  134CHL1   C2516167   6.685   2.847   4.359  0.3600  0.1138 -0.4870
  134CHL1   H2516168   6.733   2.782   4.282 -0.4410 -1.8288  0.5979
  134CHL1   C2616169   6.809   2.890   4.441 -0.1628  0.8032  0.3754
  134CHL1  H26A16170   6.888   2.915   4.367 -0.4442 -0.5905 -0.4197
  134CHL1  H26B16171   6.792   2.968   4.519  2.8854  0.5672  1.3987
  134CHL1  H26C16172   6.851   2.800   4.491  2.3971  2.6081  1.7302
  134CHL1   C2716173   6.590   2.747   4.435  0.0506  0.1838 -0.4871
  134CHL1  H27A16174   6.498   2.727   4.376  0.4260 -0.1665 -0.9557
  134CHL1  H27B16175   6.635   2.646   4.447  1.0359  0.6650 -0.0084
  134CHL1  H27C16176   6.564   2.791   4.534 -4.0804 -0.8112 -0.9253
  135CHL1    C316177   7.355   3.392   2.554  0.0615 -0.3511 -0.6220
  135CHL1    H316178   7.248   3.416   2.535  0.1643 -0.4193 -1.3226
  135CHL1    O316179   7.421   3.393   2.424 -0.3225 -0.0917  0.2573
  135CHL1   H3'16180   7.509   3.359   2.441  0.5354  2.4677  1.5304
  135CHL1    C416181   7.421   3.503   2.642  0.7147 -0.0660 -0.1601
  135CHL1   H4A16182   7.531   3.486   2.641  0.8508  0.7815 -1.4335
  135CHL1   H4B16183   7.411   3.597   2.584  0.2460 -0.7378 -1.2238
  135CHL1    C516184   7.361   3.519   2.779  0.8900 -0.4440 -0.5698
  135CHL1    C616185   7.297   3.636   2.803  0.1229  0.2398  0.0447
  135CHL1    H616186   7.303   3.718   2.730 -1.6234  0.2181 -0.1839
  135CHL1    C716187   7.224   3.675   2.928 -0.4785 -0.1733 -0.2417
  135CHL1   H7A16188   7.250   3.780   2.953  3.1179 -0.5819 -1.7199
  135CHL1   H7B16189   7.116   3.668   2.903 -0.3595 -0.5787 -0.6593
  135CHL1    C816190   7.268   3.578   3.044 -0.1568 -0.5940 -0.0426
  135CHL1    H816191   7.369   3.608   3.080 -1.0518  2.0689  0.5168
  135CHL1   C1416192   7.176   3.600   3.165  0.5605  0.0121 -0.2344
  135CHL1   H1416193   7.073   3.573   3.132  0.5866 -2.0355  1.1656
  135CHL1   C1516194   7.160   3.747   3.213  0.2862  0.3207 -0.2921
  135CHL1  H15A16195   7.255   3.798   3.183  1.6405 -1.0783  1.4231
  135CHL1  H15B16196   7.079   3.786   3.148 -0.3991 -0.9280 -0.2103
  135CHL1   C1616197   7.124   3.733   3.362 -0.3126  0.1916  0.1052
  135CHL1  H16A16198   7.201   3.781   3.427 -1.2403  0.6746  0.8796
  135CHL1  H16B16199   7.027   3.783   3.383 -0.6866 -1.1865  1.9829
  135CHL1   C1716200   7.111   3.575   3.387  0.6327 -0.6334  0.1665
  135CHL1   H1716201   7.009   3.561   3.346  1.3450  3.1034 -3.5793
  135CHL1   C1316202   7.209   3.512   3.288  0.3219 -0.3588  0.3320
  135CHL1   C1816203   7.356   3.530   3.330 -0.0286  0.0889 -0.4090
  135CHL1  H18A16204   7.428   3.492   3.255  0.3703 -1.0769  0.5383
  135CHL1  H18B16205   7.379   3.636   3.354 -0.3021  0.5438 -2.0248
  135CHL1  H18C16206   7.369   3.469   3.422 -0.8537 -1.6847 -1.4066
  135CHL1   C1216207   7.180   3.368   3.241 -0.2266  0.3076 -0.5328
  135CHL1  H12A16208   7.196   3.294   3.322  3.4591  1.5803  0.1130
  135CHL1  H12B16209   7.072   3.375   3.217  0.3385  2.2162 -2.9589
  135CHL1   C1116210   7.268   3.332   3.119  0.4758 -0.1175  0.2107
  135CHL1  H11A16211   7.371   3.310   3.156  0.4537 -0.8888 -0.1771
  135CHL1  H11B16212   7.223   3.235   3.088 -1.2697  0.7473 -0.0553
  135CHL1    C916213   7.264   3.427   2.998 -0.1636 -0.1624 -0.5123
  135CHL1    H916214   7.162   3.415   2.955 -0.4599 -0.1578  0.1664
  135CHL1   C1016215   7.355   3.398   2.870  0.6845 -0.5152  0.2947
  135CHL1   C1916216   7.497   3.370   2.922  0.4341  0.5843  0.5543
  135CHL1  H19A16217   7.572   3.358   2.841 -1.2489 -2.0506 -0.7586
  135CHL1  H19B16218   7.523   3.445   3.000 -0.4113  0.0344  1.3884
  135CHL1  H19C16219   7.497   3.267   2.965 -1.1062  0.1518 -0.3962
  135CHL1    C116220   7.303   3.272   2.790 -0.3693 -0.1388  0.1063
  135CHL1   H1A16221   7.330   3.178   2.844 -0.5423 -0.8782 -1.0588
  135CHL1   H1B16222   7.192   3.272   2.781 -0.4037  0.4582  0.4580
  135CHL1    C216223   7.363   3.257   2.640  0.6544 -0.4859 -0.4592
  135CHL1   H2A16224   7.307   3.176   2.587  0.3721 -1.6986  1.6063
  135CHL1   H2B16225   7.471   3.232   2.647  0.5047 -0.6521  2.1646
  135CHL1   C2016226   7.121   3.541   3.532 -0.4128 -0.3472 -0.7530
  135CHL1   H2016227   7.226   3.527   3.563  0.0715  0.3495 -1.9950
  135CHL1   C2116228   7.056   3.405   3.556  0.2178 -0.1963 -0.0113
  135CHL1  H21A16229   7.123   3.326   3.517 -1.7562 -0.8358 -2.3840
  135CHL1  H21B16230   6.962   3.389   3.498  0.2428 -0.1747 -0.0577
  135CHL1  H21C16231   7.039   3.377   3.662 -0.7140  1.1330  0.2177
  135CHL1   C2216232   7.074   3.650   3.631 -0.2604  0.1183  0.3280
  135CHL1  H22A16233   7.124   3.747   3.612 -1.1768  0.2702 -1.4893
  135CHL1  H22B16234   6.964   3.656   3.618 -0.0468 -0.9362 -2.6110
  135CHL1   C2316235   7.109   3.614   3.779  0.0436  0.4147 -0.3752
  135CHL1  H23A16236   7.057   3.692   3.839 -1.3308  0.8910 -2.0967
  135CHL1  H23B16237   7.073   3.515   3.815  3.8320  0.1315  3.4619
  135CHL1   C2416238   7.261   3.628   3.814  0.0061 -0.7073  0.3338
  135CHL1  H24A16239   7.311   3.554   3.747 -0.1348 -0.5585  0.0629
  135CHL1  H24B16240   7.289   3.729   3.778 -1.1899 -0.7340 -0.7374
  135CHL1   C2516241   7.296   3.611   3.958 -0.7283 -0.3261  0.1479
  135CHL1   H2516242   7.266   3.696   4.024  1.4374  0.8734 -0.3271
  135CHL1   C2616243   7.233   3.483   4.018  0.0213 -0.3937 -0.8562
  135CHL1  H26A16244   7.283   3.458   4.114 -0.5736 -2.4460 -1.0525
  135CHL1  H26B16245   7.123   3.488   4.032  0.0526 -1.8204  0.0658
  135CHL1  H26C16246   7.257   3.398   3.952  0.7229 -1.1657  0.3547
  135CHL1   C2716247   7.446   3.600   3.971 -0.0508  0.2794 -0.2570
  135CHL1  H27A16248   7.492   3.692   3.929 -1.6932  0.0682 -2.7891
  135CHL1  H27B16249   7.487   3.574   4.071 -0.4803 -0.1286 -0.1839
  135CHL1  H27C16250   7.478   3.516   3.906  0.3859  1.0028 -1.0038
  136CHL1    C316251   5.561   0.974   2.816 -0.0754  0.2375 -0.3313
  136CHL1    H316252   5.467   0.922   2.844 -0.2000  0.8063  0.3467
  136CHL1    O316253   5.559   1.008   2.677 -0.4631  0.4657 -0.1572
  136CHL1   H3'16254   5.647   1.020   2.640  0.4458  0.7606  1.9469
  136CHL1    C416255   5.555   1.110   2.889  0.2784  0.0620 -0.1084
  136CHL1   H4A16256   5.636   1.170   2.842  1.7766 -1.7030  0.1154
  136CHL1   H4B16257   5.455   1.148   2.860  0.0669  0.2247  0.8077
  136CHL1    C516258   5.573   1.096   3.036 -0.3638 -0.5521 -0.4763
  136CHL1    C616259   5.485   1.149   3.122  0.5911 -0.5772 -0.0995
  136CHL1    H616260   5.406   1.216   3.084  2.5219  0.9202 -1.6941
  136CHL1    C716261   5.492   1.136   3.274 -0.0003  0.4756  0.8898
  136CHL1   H7A16262   5.481   1.230   3.333  0.3115  0.8597  0.3437
  136CHL1   H7B16263   5.425   1.053   3.303  1.2719 -1.7871 -2.1170
  136CHL1    C816264   5.637   1.101   3.312 -0.5453  0.0301 -0.2105
  136CHL1    H816265   5.707   1.184   3.288 -0.1775  0.5052  2.2720
  136CHL1   C1416266   5.642   1.066   3.461 -0.3290 -0.1951  0.9818
  136CHL1   H1416267   5.557   0.996   3.474 -0.9827  0.5369  0.6929
  136CHL1   C1516268   5.627   1.184   3.556 -0.0195  0.0817  0.3492
  136CHL1  H15A16269   5.698   1.267   3.537  0.5647 -1.0667 -3.3905
  136CHL1  H15B16270   5.521   1.219   3.560 -0.3633 -0.7394 -0.9596
  136CHL1   C1616271   5.686   1.133   3.683 -0.3470 -0.3403 -0.1875
  136CHL1  H16A16272   5.770   1.193   3.724 -0.4786 -1.2125  1.4616
  136CHL1  H16B16273   5.611   1.130   3.765 -0.5058  0.5205 -0.2849
  136CHL1   C1716274   5.734   0.988   3.654  0.8675 -0.6399 -0.2775
  136CHL1   H1716275   5.639   0.931   3.660 -1.2416  2.4891 -1.0406
  136CHL1   C1316276   5.761   0.992   3.507 -0.8978 -0.4884 -0.3091
  136CHL1   C1816277   5.893   1.076   3.484 -0.0337  0.2862 -0.1624
  136CHL1  H18A16278   5.983   1.013   3.499  0.8475  1.3734 -0.7370
  136CHL1  H18B16279   5.891   1.109   3.378 -0.4922  1.3024  0.1481
  136CHL1  H18C16280   5.903   1.166   3.547  4.0541 -0.7222  0.8980
  136CHL1   C1216281   5.764   0.854   3.441 -0.2265 -0.4259 -0.7448
  136CHL1  H12A16282   5.849   0.789   3.471  0.7816  0.9791 -0.4534
  136CHL1  H12B16283   5.669   0.799   3.459 -0.0262 -1.1729 -1.8793
  136CHL1   C1116284   5.786   0.876   3.292  0.5766  0.3731 -0.0357
  136CHL1  H11A16285   5.889   0.909   3.268  0.0142  1.8446 -0.5369
  136CHL1  H11B16286   5.778   0.777   3.242  0.2128 -0.4003  1.5186
  136CHL1    C916287   5.672   0.967   3.235 -0.0219 -0.3224  0.0295
  136CHL1    H916288   5.587   0.896   3.242  1.3927 -1.9293  2.2475
  136CHL1   C1016289   5.684   0.996   3.084 -0.7842 -0.1104 -0.3651
  136CHL1   C1916290   5.817   1.073   3.053  0.1757 -0.5188 -0.0599
  136CHL1  H19A16291   5.831   1.087   2.943 -1.2025 -1.3802 -0.3728
  136CHL1  H19B16292   5.826   1.168   3.109  0.4183  1.0161 -2.5315
  136CHL1  H19C16293   5.898   1.005   3.089 -0.7884 -1.0036  1.2727
  136CHL1    C116294   5.672   0.867   3.005 -0.1202  0.2941  0.4290
  136CHL1   H1A16295   5.760   0.806   3.036 -1.0673 -0.7255  1.1725
  136CHL1   H1B16296   5.575   0.818   3.030 -0.5850  0.7524 -0.4331
  136CHL1    C216297   5.675   0.881   2.855  0.1626 -0.2234 -0.1897
  136CHL1   H2A16298   5.673   0.782   2.804  2.1326 -1.2422  1.5617
  136CHL1   H2B16299   5.768   0.940   2.839  0.4093 -0.6932 -0.5054
  136CHL1   C2016300   5.845   0.923   3.734 -0.4061  0.7397  0.9668
  136CHL1   H2016301   5.878   0.838   3.672 -0.2421  2.5722 -1.6276
  136CHL1   C2116302   5.781   0.853   3.856 -0.3386 -0.0852 -0.1118
  136CHL1  H21A16303   5.703   0.778   3.832  0.4606 -0.2844 -2.3543
  136CHL1  H21B16304   5.736   0.934   3.917 -1.1679 -0.4647 -0.2123
  136CHL1  H21C16305   5.851   0.799   3.923 -0.9425 -0.9881 -0.1899
  136CHL1   C2216306   5.968   1.005   3.787  0.0745  0.1116 -0.2940
  136CHL1  H22A16307   6.020   1.057   3.703 -0.0589 -0.4543 -0.7333
  136CHL1  H22B16308   5.939   1.067   3.874  1.9558  2.3940 -1.1797
  136CHL1   C2316309   6.084   0.906   3.834  0.1830  0.2241 -0.0464
  136CHL1  H23A16310   6.051   0.859   3.929  1.2125 -2.3039 -0.8456
  136CHL1  H23B16311   6.093   0.823   3.760  0.6441  0.3411 -0.1231
  136CHL1   C2416312   6.224   0.975   3.860  0.1058  0.7946 -0.3277
  136CHL1  H24A16313   6.291   0.896   3.897 -0.0746  1.0114  0.4699
  136CHL1  H24B16314   6.263   1.020   3.766  2.1503  0.2289  0.2194
  136CHL1   C2516315   6.205   1.084   3.964 -0.3538 -0.4748 -0.1872
  136CHL1   H2516316   6.125   1.159   3.948  0.2838  0.7856  2.1482
  136CHL1   C2616317   6.171   1.038   4.106  0.2755 -0.0613 -0.2989
  136CHL1  H26A16318   6.233   0.959   4.155 -1.2419 -0.5062  1.0127
  136CHL1  H26B16319   6.174   1.126   4.174 -0.3802  0.6714 -1.2003
  136CHL1  H26C16320   6.068   0.995   4.113 -0.1609  1.1824  2.0979
  136CHL1   C2716321   6.340   1.169   3.965  0.0794  0.5663  0.1111
  136CHL1  H27A16322   6.429   1.115   4.003 -0.3400 -1.0917 -1.1758
  136CHL1  H27B16323   6.366   1.201   3.862  0.1637 -0.6373 -0.2509
  136CHL1  H27C16324   6.328   1.268   4.015 -0.2635 -0.3007  1.8215
  137CHL1    C316325   1.145   1.960   2.932  0.0121  0.0319 -0.3018
  137CHL1    H316326   1.231   2.012   2.979 -0.0996 -1.3958  1.6190
  137CHL1    O316327   1.182   1.934   2.796  0.0564  0.6889 -0.4648
  137CHL1   H3'16328   1.142   1.999   2.738 -1.9951 -1.8106 -2.1188
  137CHL1    C416329   1.103   1.833   3.009  0.1884 -0.8519 -0.6584
  137CHL1   H4A16330   1.021   1.787   2.951 -0.0071 -0.0944 -1.0052
  137CHL1   H4B16331   1.189   1.764   3.011 -0.5658 -1.7942 -0.3046
  137CHL1    C516332   1.064   1.861   3.154  0.6252 -0.0122  0.0599
  137CHL1    C616333   1.099   1.788   3.260 -0.3036 -0.8150  0.8451
  137CHL1    H616334   1.167   1.702   3.249  1.4898  0.7710 -1.5809
  137CHL1    C716335   1.061   1.819   3.400  0.3559 -0.1213 -0.5390
  137CHL1   H7A16336   1.028   1.729   3.456 -0.9708  0.2915 -0.6244
  137CHL1   H7B16337   1.140   1.872   3.456 -0.9485  0.9897  0.3295
  137CHL1    C816338   0.941   1.914   3.410 -0.5319  0.1635 -0.4460
  137CHL1    H816339   0.848   1.856   3.388 -0.9216  0.7398 -0.3384
  137CHL1   C1416340   0.926   1.964   3.559 -1.2524 -0.1963  0.8667
  137CHL1   H1416341   1.022   2.011   3.586 -0.0493 -1.7843 -0.4066
  137CHL1   C1516342   0.912   1.859   3.669 -0.3566  0.1023  0.4482
  137CHL1  H15A16343   0.832   1.785   3.651 -0.6911  0.7547 -0.8703
  137CHL1  H15B16344   1.006   1.804   3.691 -1.0210 -0.7498  1.2377
  137CHL1   C1616345   0.866   1.936   3.791 -0.3037 -0.1971 -0.1861
  137CHL1  H16A16346   0.784   1.881   3.844 -0.6220  0.5124  0.0738
  137CHL1  H16B16347   0.952   1.950   3.859  1.0687 -1.3539 -1.6215
  137CHL1   C1716348   0.813   2.079   3.739  0.0346 -0.0079 -0.2276
  137CHL1   H1716349   0.896   2.151   3.758 -1.4044  1.2539  1.6512
  137CHL1   C1316350   0.815   2.059   3.583 -0.5272  0.4597 -0.0931
  137CHL1   C1816351   0.684   1.999   3.542 -0.2474  0.7300  0.3882
  137CHL1  H18A16352   0.680   1.973   3.434 -1.2293  2.0366  0.0751
  137CHL1  H18B16353   0.664   1.906   3.599  0.7577 -0.5849 -1.3103
  137CHL1  H18C16354   0.599   2.067   3.566 -2.3809 -1.1610 -1.3122
  137CHL1   C1216355   0.839   2.183   3.493  0.2028  0.1933 -0.7199
  137CHL1  H12A16356   0.755   2.255   3.503  0.0558 -0.2803  3.7079
  137CHL1  H12B16357   0.941   2.221   3.518  0.0975  2.8929 -3.7908
  137CHL1   C1116358   0.855   2.142   3.343 -0.6209  0.4950  0.4345
  137CHL1  H11A16359   0.761   2.107   3.296 -0.1132 -0.0789 -0.1635
  137CHL1  H11B16360   0.884   2.227   3.278 -1.1846 -0.5169 -1.1758
  137CHL1    C916361   0.962   2.031   3.318 -0.2931 -0.7569  0.2198
  137CHL1    H916362   1.062   2.073   3.344 -0.8541  1.6269 -1.1457
  137CHL1   C1016363   0.966   1.976   3.173  0.8892 -0.5470  0.8283
  137CHL1   C1916364   0.836   1.910   3.133 -0.5470  0.5150  0.0835
  137CHL1  H19A16365   0.821   1.816   3.190  0.7240  0.0913 -0.2522
  137CHL1  H19B16366   0.752   1.983   3.131 -0.6849  0.4412  1.9427
  137CHL1  H19C16367   0.846   1.869   3.030 -0.2794 -2.6708  1.2724
  137CHL1    C116368   0.997   2.096   3.077  0.5300  0.2473 -0.6935
  137CHL1   H1A16369   0.905   2.158   3.071  0.7995  0.6764 -0.4182
  137CHL1   H1B16370   1.088   2.138   3.125 -0.1800  1.6501 -0.5221
  137CHL1    C216371   1.036   2.070   2.934 -0.2146  0.9184 -0.9088
  137CHL1   H2A16372   1.062   2.161   2.876 -2.8751  0.4456 -3.0220
  137CHL1   H2B16373   0.947   2.022   2.887  0.8615  0.1037 -2.1800
  137CHL1   C2016374   0.690   2.132   3.810 -0.3295  0.5108 -0.1597
  137CHL1   H2016375   0.625   2.044   3.795  0.6972 -0.6716  1.9580
  137CHL1   C2116376   0.634   2.261   3.757  0.2112 -0.3220  0.1424
  137CHL1  H21A16377   0.548   2.301   3.814 -2.1216 -0.5811 -2.9225
  137CHL1  H21B16378   0.590   2.257   3.655 -1.3062  1.7372  0.6509
  137CHL1  H21C16379   0.712   2.340   3.762  0.0327 -0.1917  0.8904
  137CHL1   C2216380   0.708   2.142   3.969  0.3423 -0.1384 -0.6567
  137CHL1  H22A16381   0.766   2.052   3.996 -1.6705 -1.7643 -1.4575
  137CHL1  H22B16382   0.755   2.239   3.997  0.9471 -1.7044  4.7872
  137CHL1   C2316383   0.579   2.148   4.052 -0.1300 -0.1812  0.3905
  137CHL1  H23A16384   0.504   2.218   4.011 -1.6868 -2.1905 -0.3395
  137CHL1  H23B16385   0.530   2.049   4.045  0.4588 -0.3677 -2.8077
  137CHL1   C2416386   0.613   2.188   4.196  0.3852  0.1078 -0.3739
  137CHL1  H24A16387   0.671   2.107   4.245  3.1765  1.9025 -0.4566
  137CHL1  H24B16388   0.682   2.275   4.193 -1.4067  1.5483 -2.2238
  137CHL1   C2516389   0.491   2.220   4.289 -0.3223  0.3490 -0.0692
  137CHL1   H2516390   0.424   2.286   4.230 -0.3534  0.5361  0.1754
  137CHL1   C2616391   0.410   2.094   4.326  0.6762  0.0499 -0.2045
  137CHL1  H26A16392   0.333   2.110   4.404  0.9849  0.1663  0.0798
  137CHL1  H26B16393   0.353   2.059   4.237 -1.1957 -0.0257  0.9642
  137CHL1  H26C16394   0.477   2.015   4.366  0.4859  0.9773  2.1011
  137CHL1   C2716395   0.536   2.284   4.418 -0.0715 -0.3225 -0.1384
  137CHL1  H27A16396   0.570   2.389   4.406 -0.1629 -0.4542 -1.8083
  137CHL1  H27B16397   0.444   2.296   4.478 -0.5478  3.8081 -1.3851
  137CHL1  H27C16398   0.617   2.225   4.465  1.0372 -1.4858 -3.2197
  138CHL1    C316399   6.744   1.452   2.888  0.1105  0.0558  0.5393
  138CHL1    H316400   6.817   1.534   2.906  0.5612  0.1285 -1.4456
  138CHL1    O316401   6.726   1.451   2.750  0.0931 -0.5094  0.4967
  138CHL1   H3'16402   6.663   1.379   2.742 -1.1264  0.5869 -0.1973
  138CHL1    C416403   6.803   1.316   2.938 -0.7892  0.2040  0.3123
  138CHL1   H4A16404   6.732   1.235   2.909 -0.7699  0.5281 -0.6699
  138CHL1   H4B16405   6.901   1.305   2.888 -0.1036  3.1197  0.8576
  138CHL1    C516406   6.816   1.302   3.089  0.4196  0.7423 -0.4218
  138CHL1    C616407   6.938   1.273   3.148 -0.2643 -0.4621 -0.9071
  138CHL1    H616408   7.024   1.239   3.088 -0.0366 -2.4604  0.4432
  138CHL1    C716409   6.954   1.261   3.296  0.6152 -0.0176  0.1488
  138CHL1   H7A16410   6.997   1.161   3.319 -0.3831 -0.4120  0.3521
  138CHL1   H7B16411   7.010   1.343   3.344 -0.8873  0.8328  0.5084
  138CHL1    C816412   6.819   1.259   3.378  0.3309  0.0260 -0.1534
  138CHL1    H816413   6.782   1.156   3.360 -1.7336  0.7448 -0.3063
  138CHL1   C1416414   6.839   1.290   3.523 -0.4252 -0.6996 -0.7180
  138CHL1   H1416415   6.880   1.393   3.527 -0.7735 -0.5454 -1.0231
  138CHL1   C1516416   6.947   1.208   3.605  0.4131 -0.8142  0.4176
  138CHL1  H15A16417   6.945   1.106   3.562 -0.2611 -1.1104  1.1019
  138CHL1  H15B16418   7.042   1.262   3.588  0.1208 -0.3502  0.2267
  138CHL1   C1616419   6.899   1.215   3.754 -0.1920 -0.0219 -0.2821
  138CHL1  H16A16420   6.866   1.118   3.798 -2.8423  0.7767 -0.3019
  138CHL1  H16B16421   6.989   1.255   3.804  1.0702  0.5372 -2.8528
  138CHL1   C1716422   6.772   1.306   3.747 -0.4591  0.2907 -1.0310
  138CHL1   H1716423   6.815   1.408   3.745  0.3127 -0.0243 -0.9645
  138CHL1   C1316424   6.712   1.284   3.606  0.7972 -0.6635 -0.5639
  138CHL1   C1816425   6.656   1.141   3.613 -0.1174  0.1115 -0.2332
  138CHL1  H18A16426   6.574   1.125   3.687 -0.8898 -2.5346 -1.5244
  138CHL1  H18B16427   6.611   1.114   3.514 -1.1125 -0.2978  0.3078
  138CHL1  H18C16428   6.734   1.065   3.635 -0.6286 -0.9700 -1.9253
  138CHL1   C1216429   6.615   1.393   3.555 -0.9322 -0.4386  0.3981
  138CHL1  H12A16430   6.516   1.392   3.605 -0.0314  2.8116  2.6315
  138CHL1  H12B16431   6.658   1.495   3.565 -0.2185 -0.6749 -0.2032
  138CHL1   C1116432   6.588   1.368   3.403  0.2669 -0.4494  0.7144
  138CHL1  H11A16433   6.538   1.269   3.392 -1.3472  0.4932 -0.8775
  138CHL1  H11B16434   6.516   1.444   3.368 -3.1286 -2.9942  1.6363
  138CHL1    C916435   6.718   1.358   3.319  0.5069 -0.9278  0.2227
  138CHL1    H916436   6.761   1.459   3.335 -0.8277 -0.6968  3.2186
  138CHL1   C1016437   6.689   1.342   3.170  0.4789  0.6384  0.1518
  138CHL1   C1916438   6.590   1.227   3.138 -0.1293  0.0905 -0.1641
  138CHL1  H19A16439   6.495   1.246   3.192 -1.8992 -0.4290 -2.8983
  138CHL1  H19B16440   6.561   1.225   3.031 -0.5888  0.0753 -0.0401
  138CHL1  H19C16441   6.639   1.131   3.166 -0.5992  0.2759  1.3678
  138CHL1    C116442   6.630   1.481   3.122 -0.4040  0.0102 -0.0299
  138CHL1   H1A16443   6.534   1.500   3.174  0.6821 -0.3732  2.2327
  138CHL1   H1B16444   6.708   1.556   3.149 -0.3401  0.2850 -0.9300
  138CHL1    C216445   6.610   1.476   2.967  0.0019 -0.3111  0.4201
  138CHL1   H2A16446   6.560   1.572   2.940 -0.7280 -0.9101 -0.4419
  138CHL1   H2B16447   6.535   1.399   2.938  0.1288 -0.0638 -0.5912
  138CHL1   C2016448   6.687   1.306   3.882  0.3455 -0.7127 -0.5205
  138CHL1   H2016449   6.632   1.210   3.890 -1.8662  0.5391  0.1455
  138CHL1   C2116450   6.577   1.417   3.881  0.4179 -0.3392 -0.3196
  138CHL1  H21A16451   6.509   1.425   3.794 -0.9104 -0.1537  0.7111
  138CHL1  H21B16452   6.629   1.516   3.885  1.6939 -1.0288  2.3173
  138CHL1  H21C16453   6.522   1.426   3.977  0.3306 -1.4828 -0.2524
  138CHL1   C2216454   6.771   1.329   4.011 -0.3721 -0.9185  0.5159
  138CHL1  H22A16455   6.854   1.256   3.998  0.7888  0.6607 -1.5037
  138CHL1  H22B16456   6.827   1.424   4.001 -2.7847  0.7472  1.8153
  138CHL1   C2316457   6.704   1.301   4.148 -0.1440  0.7006  0.1698
  138CHL1  H23A16458   6.634   1.384   4.172  0.2838  1.3010 -0.6129
  138CHL1  H23B16459   6.640   1.210   4.148  1.4342 -0.4385  0.6675
  138CHL1   C2416460   6.798   1.294   4.261 -0.8005 -0.0345 -0.8115
  138CHL1  H24A16461   6.754   1.261   4.358  3.4930 -0.2609  1.3102
  138CHL1  H24B16462   6.853   1.199   4.244  1.0609  0.8450 -0.0222
  138CHL1   C2516463   6.906   1.408   4.292  0.1645 -0.3459  0.7206
  138CHL1   H2516464   6.952   1.437   4.195 -1.4893 -1.4058 -0.4197
  138CHL1   C2616465   6.841   1.539   4.335 -0.0498 -0.5628  0.1800
  138CHL1  H26A16466   6.922   1.613   4.352  0.0551 -0.5523 -0.3632
  138CHL1  H26B16467   6.775   1.578   4.254 -0.1268 -0.8042  0.1263
  138CHL1  H26C16468   6.783   1.526   4.429 -1.6537  4.5801  0.2291
  138CHL1   C2716469   7.025   1.375   4.385  0.1874 -0.8029 -0.1513
  138CHL1  H27A16470   7.070   1.468   4.427  0.7452 -1.0813 -0.1338
  138CHL1  H27B16471   6.976   1.320   4.468  0.1503  0.8535  0.9819
  138CHL1  H27C16472   7.109   1.327   4.332 -0.8113 -1.2893 -1.3421
  139CHL1    C316473   0.675   6.792   3.178  0.9024  0.0327 -1.0340
  139CHL1    H316474   0.641   6.897   3.168  0.3589 -0.2699 -2.6091
  139CHL1    O316475   0.722   6.733   3.063 -0.0279 -0.1824  0.0466
  139CHL1   H3'16476   0.735   6.640   3.083 -0.9546 -0.1323  1.0282
  139CHL1    C416477   0.789   6.785   3.283  0.0896 -0.1932  0.6422
  139CHL1   H4A16478   0.815   6.677   3.279 -4.8805 -1.6563  0.4434
  139CHL1   H4B16479   0.865   6.857   3.245 -3.3313  2.4807 -1.8453
  139CHL1    C516480   0.739   6.838   3.415 -0.1126 -0.1465 -0.1676
  139CHL1    C616481   0.803   6.929   3.487 -0.0990 -0.3232 -0.3806
  139CHL1    H616482   0.897   6.975   3.452  3.3934 -4.3981  2.5732
  139CHL1    C716483   0.762   6.986   3.620  0.0754  0.4953  0.3606
  139CHL1   H7A16484   0.852   6.989   3.686  0.4920  1.7632 -0.2488
  139CHL1   H7B16485   0.716   7.086   3.608  1.4647  1.1741  0.5270
  139CHL1    C816486   0.660   6.896   3.694 -0.4491  0.0976  0.6319
  139CHL1    H816487   0.718   6.812   3.737 -0.2795 -0.0055  0.2129
  139CHL1   C1416488   0.580   6.968   3.805  0.1448 -0.0783  0.0477
  139CHL1   H1416489   0.512   7.037   3.751  2.3133  2.4805  0.4015
  139CHL1   C1516490   0.662   7.049   3.907  0.4238 -0.3061  1.2652
  139CHL1  H15A16491   0.758   7.000   3.933  0.8080 -0.6305 -0.6281
  139CHL1  H15B16492   0.692   7.146   3.863 -1.5464  0.7015  2.0138
  139CHL1   C1616493   0.569   7.058   4.037  0.0750  0.1489  0.5661
  139CHL1  H16A16494   0.610   7.000   4.122  0.3843 -1.7705 -0.8191
  139CHL1  H16B16495   0.541   7.162   4.065 -0.1491 -0.8043  4.4852
  139CHL1   C1716496   0.438   6.983   3.996  0.2954 -0.1705  0.0289
  139CHL1   H1716497   0.377   7.059   3.943  0.6432 -0.0145 -0.1521
  139CHL1   C1316498   0.485   6.881   3.887  0.2521  0.1193 -0.2293
  139CHL1   C1816499   0.561   6.762   3.953 -0.2542  0.5967 -0.0832
  139CHL1  H18A16500   0.650   6.780   4.017  0.0001 -0.4685 -0.1220
  139CHL1  H18B16501   0.486   6.698   4.004  0.0119 -0.5640 -1.0869
  139CHL1  H18C16502   0.591   6.698   3.867  1.6298  1.6933 -0.3066
  139CHL1   C1216503   0.373   6.831   3.790 -0.3426 -0.4575  0.8629
  139CHL1  H12A16504   0.305   6.758   3.836 -0.6302 -0.8091 -0.0914
  139CHL1  H12B16505   0.303   6.911   3.758 -0.6533 -0.7844  0.7331
  139CHL1   C1116506   0.442   6.761   3.667  0.8533 -0.2341  0.7511
  139CHL1  H11A16507   0.482   6.669   3.715  2.4390  0.6338  1.1675
  139CHL1  H11B16508   0.357   6.737   3.599 -0.1925 -0.8252  2.2106
  139CHL1    C916509   0.551   6.838   3.592 -0.5263 -0.7747  0.7238
  139CHL1    H916510   0.501   6.936   3.572 -0.4532 -0.7625  0.6008
  139CHL1   C1016511   0.611   6.769   3.468 -0.2176 -0.1225 -0.2855
  139CHL1   C1916512   0.637   6.627   3.513 -0.0596  0.1259 -0.4776
  139CHL1  H19A16513   0.694   6.566   3.440  2.4371  1.2696  0.3800
  139CHL1  H19B16514   0.706   6.645   3.599  0.8771 -0.0306 -1.1707
  139CHL1  H19C16515   0.547   6.572   3.547 -0.9390  0.7507 -1.7337
  139CHL1    C116516   0.502   6.759   3.366  0.5742  0.0725  0.2119
  139CHL1   H1A16517   0.411   6.702   3.393  1.4989 -2.7846 -2.1926
  139CHL1   H1B16518   0.463   6.863   3.352  0.1553 -0.3195 -2.0060
  139CHL1    C216519   0.554   6.707   3.233 -0.2896  0.6398  0.5410
  139CHL1   H2A16520   0.483   6.700   3.148  1.9528 -0.1589 -1.3706
  139CHL1   H2B16521   0.576   6.601   3.256 -1.3968  0.4633  0.8180
  139CHL1   C2016522   0.350   6.946   4.118 -0.1372 -0.7732 -0.0031
  139CHL1   H2016523   0.395   6.877   4.193 -1.0158 -1.0987  0.2284
  139CHL1   C2116524   0.221   6.880   4.067  0.2514 -0.5837 -0.0844
  139CHL1  H21A16525   0.245   6.776   4.037  1.1755  0.3637 -2.9754
  139CHL1  H21B16526   0.190   6.942   3.980  3.2492  2.9821  1.1054
  139CHL1  H21C16527   0.136   6.883   4.139  0.3403  1.7288  0.0066
  139CHL1   C2216528   0.318   7.074   4.203  0.0818  0.2824 -0.6691
  139CHL1  H22A16529   0.405   7.142   4.216 -0.3028  0.4380  1.5281
  139CHL1  H22B16530   0.229   7.126   4.162  0.4370  0.6207 -1.0133
  139CHL1   C2316531   0.256   7.027   4.343 -0.4900 -0.3870 -0.2664
  139CHL1  H23A16532   0.184   6.944   4.327 -1.9431  0.5554  1.0621
  139CHL1  H23B16533   0.339   6.991   4.407  0.0248  0.7523 -0.2718
  139CHL1   C2416534   0.182   7.133   4.424  0.3478 -0.8186 -0.3388
  139CHL1  H24A16535   0.257   7.203   4.467  0.2815 -0.9385 -0.0221
  139CHL1  H24B16536   0.112   7.197   4.366 -0.1791 -1.3759 -0.3209
  139CHL1   C2516537   0.114   7.079   4.552 -0.2086 -0.2115 -0.4065
  139CHL1   H2516538   0.045   6.996   4.525 -1.9117  1.5899 -2.0036
  139CHL1   C2616539   0.209   7.025   4.660  0.0240 -0.4015  0.2691
  139CHL1  H26A16540   0.159   6.956   4.731 -3.3515  0.4035 -1.1421
  139CHL1  H26B16541   0.295   6.977   4.608 -0.3247 -2.4874  1.4713
  139CHL1  H26C16542   0.251   7.101   4.729 -0.4763 -1.3128  1.6159
  139CHL1   C2716543   0.038   7.189   4.610  0.0712  0.0308 -0.9444
  139CHL1  H27A16544  -0.010   7.173   4.709 -0.1712 -0.6000 -1.1592
  139CHL1  H27B16545   0.096   7.283   4.621  0.6529 -0.2063 -1.9399
  139CHL1  H27C16546  -0.047   7.212   4.543  1.1257 -0.3481 -2.4436
  140CHL1    C316547   7.470   1.140   2.853  0.1719  0.0290  0.8797
  140CHL1    H316548   7.472   1.031   2.871  0.7604  0.1267  1.4627
  140CHL1    O316549   7.448   1.150   2.718  0.5388  0.2845 -0.2228
  140CHL1   H3'16550   7.453   1.244   2.699  1.2310 -0.0755 -2.0221
  140CHL1    C416551   7.364   1.217   2.930  0.5090 -0.1563  0.1016
  140CHL1   H4A16552   7.363   1.319   2.885 -0.0044  0.0630  0.6057
  140CHL1   H4B16553   7.263   1.179   2.908  0.3527  1.1926 -1.7632
  140CHL1    C516554   7.385   1.224   3.075  0.0561 -0.0360 -0.6425
  140CHL1    C616555   7.287   1.168   3.148 -0.0505 -0.1007 -0.1706
  140CHL1    H616556   7.192   1.133   3.106 -0.2741 -0.8606  0.9091
  140CHL1    C716557   7.304   1.168   3.296 -0.0007  0.3137 -0.1469
  140CHL1   H7A16558   7.207   1.201   3.340 -0.1176  1.2882 -1.0914
  140CHL1   H7B16559   7.324   1.064   3.331  1.5354 -0.0457 -1.9449
  140CHL1    C816560   7.426   1.244   3.350  0.3232 -0.2287  0.1771
  140CHL1    H816561   7.400   1.352   3.339 -0.7520 -0.4918 -0.0287
  140CHL1   C1416562   7.451   1.216   3.499 -0.9204  0.1273 -0.7838
  140CHL1   H1416563   7.480   1.110   3.511 -1.9318 -0.1319 -0.4947
  140CHL1   C1516564   7.336   1.229   3.600  0.6369  0.2461 -0.1854
  140CHL1  H15A16565   7.279   1.324   3.590 -0.0911  0.2269  2.8914
  140CHL1  H15B16566   7.275   1.137   3.600  0.6332  0.1640  2.5089
  140CHL1   C1616567   7.416   1.225   3.732  0.2286  0.0306  0.1583
  140CHL1  H16A16568   7.378   1.317   3.783  0.6917 -0.0574  0.6818
  140CHL1  H16B16569   7.388   1.137   3.793  1.3974 -0.5614 -0.1402
  140CHL1   C1716570   7.564   1.238   3.708 -0.1853  0.4540  0.0366
  140CHL1   H1716571   7.602   1.134   3.702  0.0487  0.5571 -0.3190
  140CHL1   C1316572   7.568   1.294   3.559  0.8433  0.7166  0.1996
  140CHL1   C1816573   7.535   1.442   3.553 -0.3447  0.3407  0.3394
  140CHL1  H18A16574   7.452   1.471   3.622  1.0591  2.1606  1.3478
  140CHL1  H18B16575   7.625   1.501   3.579 -0.5480  2.1540 -2.5804
  140CHL1  H18C16576   7.515   1.466   3.447  3.0762  1.3242 -0.1890
  140CHL1   C1216577   7.700   1.252   3.482  0.0548 -0.0346 -0.0733
  140CHL1  H12A16578   7.782   1.318   3.516 -0.2321  1.3434 -1.8818
  140CHL1  H12B16579   7.730   1.148   3.509 -0.1037 -1.0866 -3.3962
  140CHL1   C1116580   7.684   1.279   3.337  0.2100  0.9272  0.4473
  140CHL1  H11A16581   7.690   1.388   3.318  0.2158  0.5166 -2.3598
  140CHL1  H11B16582   7.774   1.228   3.296 -0.6157 -1.3513  1.2836
  140CHL1    C916583   7.553   1.221   3.277  0.7227  0.1275  0.7375
  140CHL1    H916584   7.553   1.110   3.277  3.7326  0.0098 -1.3029
  140CHL1   C1016585   7.531   1.263   3.124 -0.4019  0.2828  0.0904
  140CHL1   C1916586   7.531   1.412   3.114 -0.1778  0.0950 -0.1045
  140CHL1  H19A16587   7.632   1.456   3.127  0.8788 -1.7866 -1.5726
  140CHL1  H19B16588   7.511   1.443   3.009 -0.7136 -0.8959 -0.3062
  140CHL1  H19C16589   7.451   1.458   3.177  1.7675  3.5223  0.0881
  140CHL1    C116590   7.638   1.191   3.032 -0.8983 -0.0420  0.5273
  140CHL1   H1A16591   7.732   1.223   3.081 -1.8129 -1.1369  3.2320
  140CHL1   H1B16592   7.634   1.084   3.063  1.9361 -0.9188 -1.7939
  140CHL1    C216593   7.612   1.196   2.883 -0.9423 -0.7336 -0.6385
  140CHL1   H2A16594   7.689   1.131   2.837  0.0032  0.5017 -0.8513
  140CHL1   H2B16595   7.637   1.294   2.837  0.3638 -0.2479  1.0045
  140CHL1   C2016596   7.632   1.325   3.819  0.1041 -0.1418  0.3095
  140CHL1   H2016597   7.606   1.433   3.813  3.4783  0.8427  1.5196
  140CHL1   C2116598   7.779   1.327   3.796 -0.2311 -0.9044  0.6609
  140CHL1  H21A16599   7.831   1.359   3.889  0.4446 -2.0073  0.6835
  140CHL1  H21B16600   7.807   1.405   3.721 -0.6409 -1.6335 -0.2646
  140CHL1  H21C16601   7.827   1.232   3.764 -1.7355 -2.1795  2.0225
  140CHL1   C2216602   7.596   1.280   3.959  0.3555  0.4161  0.2315
  140CHL1  H22A16603   7.490   1.248   3.972  0.1166  0.6888 -0.9432
  140CHL1  H22B16604   7.655   1.193   3.994 -0.4129  0.0417  0.6198
  140CHL1   C2316605   7.629   1.386   4.063 -0.3227  0.3437 -0.0638
  140CHL1  H23A16606   7.736   1.413   4.048 -0.4146 -0.2194 -2.0485
  140CHL1  H23B16607   7.573   1.473   4.024 -0.3092 -0.3513 -1.7383
  140CHL1   C2416608   7.599   1.348   4.209 -0.0753  0.1598  0.3957
  140CHL1  H24A16609   7.491   1.323   4.218  0.2699 -1.2277  0.9221
  140CHL1  H24B16610   7.649   1.254   4.241 -0.6064 -0.1280  0.3982
  140CHL1   C2516611   7.615   1.458   4.311 -0.6983 -0.0726  0.3716
  140CHL1   H2516612   7.553   1.545   4.278 -0.2478  0.2768  0.4344
  140CHL1   C2616613   7.760   1.501   4.323 -0.3379  0.1501  0.1523
  140CHL1  H26A16614   7.771   1.583   4.397  1.6382  0.2024 -0.1692
  140CHL1  H26B16615   7.826   1.419   4.358 -1.5434 -0.7457  0.3987
  140CHL1  H26C16616   7.801   1.533   4.225 -4.0105  0.6920 -1.4000
  140CHL1   C2716617   7.557   1.419   4.439 -0.3901 -0.1824 -0.0986
  140CHL1  H27A16618   7.578   1.497   4.515  2.2849  1.0201 -1.9420
  140CHL1  H27B16619   7.449   1.397   4.433 -0.7897  1.9335 -1.2364
  140CHL1  H27C16620   7.619   1.332   4.471  0.7910  0.8318  0.4670
  141DOPC     N16621   2.405   2.392   7.088  0.2756  0.0802  0.0910
  141DOPC   C1216622   2.481   2.290   7.001 -0.2458 -0.5430 -0.3908
  141DOPC  H12A16623   2.547   2.232   7.064  1.2626 -0.4700 -1.8393
  141DOPC  H12B16624   2.546   2.337   6.929 -1.6489 -0.9886 -2.0094
  141DOPC   C1316625   2.310   2.475   7.000 -0.4461 -0.0620 -0.7748
  141DOPC  H13A16626   2.267   2.550   7.063  0.4749 -2.4939  3.1063
  141DOPC  H13B16627   2.367   2.511   6.915  2.1217 -1.5607  0.2002
  141DOPC  H13C16628   2.234   2.409   6.960 -2.0940  0.8659  0.7238
  141DOPC   C1416629   2.494   2.494   7.149 -0.9634  0.2262  0.1948
  141DOPC  H14A16630   2.544   2.558   7.078 -0.3825 -1.3669 -0.8649
  141DOPC  H14B16631   2.437   2.561   7.212  1.0310  0.5625  1.7354
  141DOPC  H14C16632   2.560   2.451   7.223 -2.0044  0.9610  1.5912
  141DOPC   C1516633   2.333   2.324   7.196  0.2586  0.0555 -0.4834
  141DOPC  H15A16634   2.399   2.269   7.262 -0.9911  1.3464  2.0155
  141DOPC  H15B16635   2.260   2.250   7.169  0.7468 -0.2553 -0.9613
  141DOPC  H15C16636   2.278   2.399   7.251  0.1048 -0.1959 -0.2938
  141DOPC   C1116637   2.393   2.190   6.921 -0.0063 -0.3699  0.1916
  141DOPC  H11A16638   2.315   2.248   6.867 -0.1459 -0.8035 -0.0799
  141DOPC  H11B16639   2.462   2.141   6.849  1.0439 -0.1636  1.0240
  141DOPC     P16640   2.393   1.971   7.065 -0.2914  0.0605  0.2996
  141DOPC   O1316641   2.287   1.905   7.144 -0.1558  0.3431  0.3444
  141DOPC   O1416642   2.511   2.018   7.142  0.7636 -0.7437 -0.0987
  141DOPC   O1216643   2.321   2.087   6.994  0.3482  0.1337  0.1841
  141DOPC   O1116644   2.446   1.871   6.950 -0.2404 -0.2547  0.3623
  141DOPC    C116645   2.369   1.840   6.830 -0.3064  1.0812  0.0526
  141DOPC    HA16646   2.333   1.929   6.775 -1.2623  1.2723  0.9540
  141DOPC    HB16647   2.271   1.797   6.862  0.1383  1.2641  1.7749
  141DOPC    C216648   2.453   1.745   6.741 -0.2917 -0.4352  0.3624
  141DOPC    HS16649   2.501   1.672   6.810  0.6480 -0.6717 -0.5304
  141DOPC   O2116650   2.547   1.814   6.663 -0.5415 -0.8116  0.5959
  141DOPC   C2116651   2.652   1.733   6.626 -0.2876 -1.2677 -0.1822
  141DOPC   O2216652   2.672   1.619   6.663  0.7973  0.0646 -0.8148
  141DOPC   C2216653   2.747   1.814   6.537 -0.4398 -0.5634 -0.1141
  141DOPC   H2R16654   2.708   1.918   6.540 -0.7497 -0.6449 -0.8495
  141DOPC   H2S16655   2.732   1.780   6.432 -1.2634  1.4658 -0.7092
  141DOPC    C316656   2.358   1.664   6.651 -0.4817 -0.1361 -0.3140
  141DOPC    HX16657   2.282   1.618   6.718 -0.6044 -0.3082 -0.5743
  141DOPC    HY16658   2.419   1.589   6.597 -0.5506 -0.9454  0.6988
  141DOPC   O3116659   2.280   1.745   6.560  0.0723 -0.6480 -0.0622
  141DOPC   C3116660   2.339   1.774   6.444 -0.2576  0.4939  0.0286
  141DOPC   O3216661   2.450   1.737   6.415 -0.0901 -1.1247  0.2285
  141DOPC   C3216662   2.241   1.860   6.358 -0.8716  0.4690 -0.2891
  141DOPC   H2X16663   2.169   1.789   6.310  1.2906 -1.8131 -0.3546
  141DOPC   H2Y16664   2.194   1.933   6.427 -0.6884 -0.5851  0.9878
  141DOPC   C2316665   2.893   1.815   6.590 -0.0804  0.4975  0.5570
  141DOPC   H3R16666   2.940   1.730   6.536 -0.9361  1.1031 -1.2005
  141DOPC   H3S16667   2.896   1.801   6.701 -3.6765  0.3958  0.7764
  141DOPC   C2416668   2.954   1.946   6.541 -0.6618  0.4958 -0.0192
  141DOPC   H4R16669   2.914   2.032   6.599 -1.1630  0.1372  0.1754
  141DOPC   H4S16670   2.928   1.960   6.434 -1.3936 -0.6044 -0.0066
  141DOPC   C2516671   3.115   1.943   6.538 -0.0298 -0.3669  0.3414
  141DOPC   H5R16672   3.162   1.901   6.629  1.5078 -1.2523 -0.8127
  141DOPC   H5S16673   3.148   2.049   6.534  0.4756 -0.3917  2.6562
  141DOPC   C2616674   3.160   1.862   6.410  0.1662 -0.9674 -0.4775
  141DOPC   H6R16675   3.116   1.909   6.320 -0.1701 -0.0662  0.1391
  141DOPC   H6S16676   3.113   1.762   6.402 -1.7527 -0.0075 -1.9275
  141DOPC   C2716677   3.306   1.854   6.387 -1.1166  0.5212  0.6419
  141DOPC   H7R16678   3.365   1.806   6.468  0.5611  0.6582 -0.4681
  141DOPC   H7S16679   3.354   1.953   6.376 -0.3023  0.0964  0.2823
  141DOPC   C2816680   3.343   1.779   6.253  0.0992  0.3560 -0.6237
  141DOPC   H8R16681   3.453   1.772   6.264 -0.2193 -2.0449  2.0495
  141DOPC   H8S16682   3.321   1.845   6.166 -0.0369  0.4189 -0.5413
  141DOPC   C2916683   3.283   1.649   6.265 -0.2011 -0.1295 -0.0212
  141DOPC   H9R16684   3.275   1.614   6.369 -0.3449  1.1161  0.4108
  141DOPC  C21016685   3.227   1.575   6.165 -0.3333 -0.1698 -0.0647
  141DOPC  H10R16686   3.187   1.481   6.206  0.1626  0.2636  1.5273
  141DOPC  C21116687   3.213   1.613   6.018  0.3450  0.6958  0.5473
  141DOPC  H11R16688   3.223   1.724   6.007  2.6926  0.4746 -0.2245
  141DOPC  H11S16689   3.109   1.589   5.989  0.3820  1.7235 -0.5129
  141DOPC  C21216690   3.312   1.551   5.918  0.9887 -0.3583 -0.0350
  141DOPC  H12R16691   3.324   1.446   5.954 -0.5540 -0.1716  1.1220
  141DOPC  H12S16692   3.410   1.603   5.926  0.5680  1.0373 -2.8830
  141DOPC  C21316693   3.247   1.540   5.779 -0.2978  0.1600  0.2725
  141DOPC  H13R16694   3.228   1.646   5.751 -0.6415  0.0151 -0.0605
  141DOPC  H13S16695   3.146   1.496   5.787 -0.2623 -0.3211 -1.4932
  141DOPC  C21416696   3.326   1.467   5.667  0.1471  0.0210 -0.9357
  141DOPC  H14R16697   3.426   1.515   5.664  0.1375  0.6351  2.7686
  141DOPC  H14S16698   3.270   1.476   5.572 -0.5648 -0.4096 -0.5613
  141DOPC  C21516699   3.338   1.327   5.709  0.2426 -0.1149  0.6675
  141DOPC  H15R16700   3.235   1.284   5.710 -1.1410  2.6660 -2.2935
  141DOPC  H15S16701   3.396   1.311   5.802  0.3632 -1.7455  0.3300
  141DOPC  C21616702   3.408   1.230   5.608  0.1687  0.2399  0.1530
  141DOPC  H16R16703   3.419   1.131   5.658  1.4115  1.4455  2.4399
  141DOPC  H16S16704   3.508   1.275   5.590  0.9693 -1.9137 -1.2456
  141DOPC  C21716705   3.348   1.224   5.468 -0.3254 -0.1721  0.0562
  141DOPC  H17R16706   3.320   1.327   5.435 -2.9478 -1.1267 -0.9492
  141DOPC  H17S16707   3.255   1.163   5.471 -0.7278  0.2114 -2.1631
  141DOPC  C21816708   3.443   1.146   5.372  0.0217 -0.0891 -0.2915
  141DOPC  H18R16709   3.438   1.040   5.404  1.8836 -0.4921 -1.1853
  141DOPC  H18S16710   3.549   1.172   5.390  0.8948 -1.7428 -2.5818
  141DOPC  H18T16711   3.417   1.162   5.266 -1.0830  0.0436 -0.0093
  141DOPC   C3316712   2.315   1.939   6.248  0.3670 -0.2665  0.0713
  141DOPC   H3X16713   2.348   1.858   6.179 -2.7273 -0.4178 -1.4055
  141DOPC   H3Y16714   2.412   1.984   6.275  0.9443 -1.0893 -0.5841
  141DOPC   C3416715   2.229   2.040   6.180  0.5446 -0.7877  0.1366
  141DOPC   H4X16716   2.195   2.129   6.237 -0.3105 -1.0835  0.0961
  141DOPC   H4Y16717   2.134   1.995   6.144 -0.2705  2.3046 -1.9566
  141DOPC   C3516718   2.297   2.103   6.059 -0.2194 -0.5191  0.0897
  141DOPC   H5X16719   2.307   2.036   5.972  0.9246 -1.8068  1.1661
  141DOPC   H5Y16720   2.397   2.130   6.098 -0.8615  0.1269  1.3747
  141DOPC   C3616721   2.223   2.238   6.013 -0.1863 -0.3925 -0.2399
  141DOPC   H6X16722   2.190   2.285   6.108  2.3248 -0.3432  0.6730
  141DOPC   H6Y16723   2.306   2.297   5.968 -0.4655  0.3214  0.1563
  141DOPC   C3716724   2.111   2.208   5.911  0.0181 -0.8921 -0.0633
  141DOPC   H7X16725   2.162   2.142   5.837  1.5074  2.3322 -2.1686
  141DOPC   H7Y16726   2.034   2.148   5.964  1.4375 -0.9502  2.0603
  141DOPC   C3816727   2.058   2.345   5.860 -0.3624  0.1902  0.0865
  141DOPC   H8X16728   2.135   2.423   5.847  0.2193 -0.5460 -0.9811
  141DOPC   H8Y16729   1.988   2.375   5.942  0.6566  0.1290  0.9967
  141DOPC   C3916730   1.974   2.333   5.731 -0.1022  0.7935 -0.1570
  141DOPC   H9X16731   1.885   2.271   5.750  0.2976  0.6662  1.4733
  141DOPC  C31016732   1.972   2.414   5.629  0.4068  0.3732  0.4925
  141DOPC  H10X16733   1.914   2.385   5.540  2.2696 -0.5251 -0.4861
  141DOPC  C31116734   2.059   2.541   5.608  0.0681  0.6071 -0.3039
  141DOPC  H11X16735   2.067   2.590   5.708 -3.2629  0.6961  0.0364
  141DOPC  H11Y16736   2.005   2.607   5.537 -0.3913 -1.2868 -1.8104
  141DOPC  C31216737   2.204   2.512   5.554 -0.5586 -0.5529 -0.3795
  141DOPC  H12X16738   2.228   2.407   5.581  2.7964  0.4078  0.8485
  141DOPC  H12Y16739   2.274   2.580   5.607 -0.0467 -0.8466 -0.6731
  141DOPC  C31316740   2.223   2.537   5.402  0.5103 -0.2148  0.3082
  141DOPC  H13X16741   2.212   2.647   5.390 -0.6097 -0.2218  1.0615
  141DOPC  H13Y16742   2.327   2.502   5.382  0.7396  1.1204 -0.9788
  141DOPC  C31416743   2.117   2.466   5.308 -0.4408 -0.1322 -0.2887
  141DOPC  H14X16744   2.136   2.358   5.324 -1.9489 -0.2741  0.8189
  141DOPC  H14Y16745   2.016   2.489   5.348 -1.0688  0.6416 -2.2528
  141DOPC  C31516746   2.132   2.506   5.165  0.0327 -0.4227  0.4013
  141DOPC  H15X16747   2.225   2.456   5.132  1.2705  1.1908  1.3228
  141DOPC  H15Y16748   2.163   2.613   5.164  1.8149 -0.9014  0.6103
  141DOPC  C31616749   2.020   2.462   5.069 -0.1012 -0.7088  0.1505
  141DOPC  H16X16750   2.050   2.487   4.965 -0.2731 -0.6808  0.1070
  141DOPC  H16Y16751   2.015   2.351   5.081  1.2528 -0.6424  1.6204
  141DOPC  C31716752   1.879   2.511   5.102 -0.5411  1.1157  0.1981
  141DOPC  H17X16753   1.848   2.464   5.198  0.2847  1.2666  0.5539
  141DOPC  H17Y16754   1.876   2.621   5.117 -1.9910  0.9368  1.4075
  141DOPC  C31816755   1.790   2.461   4.990  0.4403 -0.3290 -0.1075
  141DOPC  H18X16756   1.684   2.488   5.009  0.4222 -0.3326 -0.1995
  141DOPC  H18Y16757   1.809   2.498   4.886 -2.0217  0.1579 -0.4329
  141DOPC  H18Z16758   1.802   2.351   4.982  1.8731 -0.0898 -2.3219
  142DOPC     N16759   3.126   2.264   6.862 -0.2844  0.6904  0.6279
  142DOPC   C1216760   3.069   2.312   6.729  0.3595  0.2093  0.3444
  142DOPC  H12A16761   3.100   2.244   6.651 -1.4343 -0.3843  0.0977
  142DOPC  H12B16762   3.111   2.411   6.713  1.2506  0.0377  1.5142
  142DOPC   C1316763   3.103   2.375   6.966 -0.0011 -0.1618 -0.3796
  142DOPC  H13A16764   3.149   2.471   6.948  0.1623 -0.4755 -1.7965
  142DOPC  H13B16765   2.998   2.401   6.971  0.3088  1.0638  0.0634
  142DOPC  H13C16766   3.123   2.341   7.066  1.3173  0.1051 -0.5322
  142DOPC   C1416767   3.275   2.240   6.868 -0.3279 -0.5650  0.1617
  142DOPC  H14A16768   3.324   2.336   6.868 -0.6495 -0.3973  0.3833
  142DOPC  H14B16769   3.309   2.201   6.963 -0.4423 -1.6816 -0.2352
  142DOPC  H14C16770   3.314   2.171   6.795 -2.0489  0.1617 -1.5191
  142DOPC   C1516771   3.064   2.138   6.902 -0.0624  0.5111  0.2104
  142DOPC  H15A16772   3.121   2.107   6.989 -0.1510  0.5422  0.2796
  142DOPC  H15B16773   3.062   2.061   6.826  3.1964  0.3029  0.2030
  142DOPC  H15C16774   2.961   2.148   6.933  0.1568 -0.6906  1.4322
  142DOPC   C1116775   2.916   2.328   6.708 -0.5304 -0.1347  0.3674
  142DOPC  H11A16776   2.894   2.333   6.599  0.3079 -1.0781  0.1430
  142DOPC  H11B16777   2.874   2.231   6.743  0.1721 -0.4541  0.3332
  142DOPC     P16778   2.892   2.581   6.744 -0.1309  0.0205 -0.2669
  142DOPC   O1316779   3.027   2.617   6.790  0.1969  0.1513 -0.0763
  142DOPC   O1416780   2.787   2.668   6.805  0.3364 -0.3917 -0.0339
  142DOPC   O1216781   2.855   2.431   6.788  0.2250 -0.2445 -0.5219
  142DOPC   O1116782   2.875   2.575   6.582 -0.1674  0.0823 -0.0328
  142DOPC    C116783   2.844   2.695   6.515 -0.7497 -1.0492  0.3444
  142DOPC    HA16784   2.912   2.775   6.550 -0.7108 -1.2944  0.8271
  142DOPC    HB16785   2.740   2.729   6.535 -0.1145 -0.0392  2.0994
  142DOPC    C216786   2.888   2.696   6.364  0.7039  0.9096  0.0787
  142DOPC    HS16787   2.877   2.804   6.339 -0.7186  0.8334  0.3101
  142DOPC   O2116788   2.795   2.615   6.289 -0.2729 -0.4552 -0.0401
  142DOPC   C2116789   2.780   2.655   6.164 -0.3994  0.3719 -0.6512
  142DOPC   O2216790   2.821   2.757   6.106 -0.0170  0.8065 -0.1792
  142DOPC   C2216791   2.729   2.537   6.085  0.0577  1.0870 -0.1649
  142DOPC   H2R16792   2.624   2.513   6.113 -0.4600  1.4501 -1.6875
  142DOPC   H2S16793   2.796   2.450   6.102 -0.3407  0.5654 -1.1162
  142DOPC    C316794   3.036   2.640   6.344  0.3398  0.7688 -0.0665
  142DOPC    HX16795   3.044   2.530   6.334  4.0751  0.8778  0.2883
  142DOPC    HY16796   3.102   2.664   6.430 -0.3110  0.0897  0.6298
  142DOPC   O3116797   3.088   2.692   6.214  0.4794 -0.1948  0.1815
  142DOPC   C3116798   3.144   2.808   6.218 -0.0034 -0.0446  0.5460
  142DOPC   O3216799   3.141   2.882   6.315 -0.2824 -0.0369  0.3319
  142DOPC   C3216800   3.217   2.828   6.086  0.5705 -0.6490  0.5210
  142DOPC   H2X16801   3.226   2.729   6.037 -0.5773 -0.6291  0.2474
  142DOPC   H2Y16802   3.140   2.879   6.025  1.1077 -0.5335 -0.0723
  142DOPC   C2316803   2.744   2.568   5.936  0.2487  0.2421 -0.3219
  142DOPC   H3R16804   2.851   2.590   5.918  0.3586  1.5641  1.6022
  142DOPC   H3S16805   2.692   2.660   5.901 -0.3695  0.1740  0.3844
  142DOPC   C2416806   2.709   2.453   5.839 -0.5772  0.4205 -0.3095
  142DOPC   H4R16807   2.603   2.429   5.859 -0.4796  0.7460  0.6599
  142DOPC   H4S16808   2.759   2.358   5.868  0.9255  1.5651  1.0609
  142DOPC   C2516809   2.732   2.468   5.689 -0.0441 -0.3467 -0.1485
  142DOPC   H5R16810   2.829   2.520   5.679 -0.3689  0.3849  0.4862
  142DOPC   H5S16811   2.658   2.536   5.641  0.9445  0.3442 -0.7125
  142DOPC   C2616812   2.753   2.332   5.622 -0.4596  0.0550  0.4880
  142DOPC   H6R16813   2.658   2.283   5.653 -2.5982  2.5437 -1.5891
  142DOPC   H6S16814   2.844   2.279   5.657 -0.3574 -1.4667 -1.8476
  142DOPC   C2716815   2.757   2.334   5.469  0.2333 -0.0764 -0.9434
  142DOPC   H7R16816   2.835   2.406   5.436 -0.5452  0.4531 -1.6831
  142DOPC   H7S16817   2.669   2.382   5.423  0.1963 -0.3225 -1.1305
  142DOPC   C2816818   2.789   2.206   5.398  0.2538 -0.0612  0.4364
  142DOPC   H8R16819   2.821   2.132   5.475  0.0238 -1.6104 -0.8908
  142DOPC   H8S16820   2.885   2.221   5.345 -0.0443  1.3874  0.2593
  142DOPC   C2916821   2.686   2.140   5.306  0.1472 -0.5900  0.1013
  142DOPC   H9R16822   2.583   2.176   5.320 -0.5967 -2.2390 -0.7727
  142DOPC  C21016823   2.715   2.048   5.213  0.1223 -0.2170 -0.0627
  142DOPC  H10R16824   2.638   1.990   5.161 -0.2286  1.0861 -1.0709
  142DOPC  C21116825   2.850   1.997   5.175 -0.4161 -0.0468 -0.3200
  142DOPC  H11R16826   2.861   1.888   5.193  0.9718 -0.1145 -1.4080
  142DOPC  H11S16827   2.932   2.055   5.223 -0.2436 -0.1698 -0.4671
  142DOPC  C21216828   2.875   2.010   5.021 -0.0248 -0.1809 -1.0507
  142DOPC  H12R16829   2.791   1.954   4.975 -0.9151 -1.1625  1.6100
  142DOPC  H12S16830   2.957   1.944   4.983 -0.9677 -0.3069 -2.9714
  142DOPC  C21316831   2.878   2.155   4.957 -0.2962 -0.3711  0.9689
  142DOPC  H13R16832   2.811   2.215   5.021 -0.3438  0.6714 -0.0219
  142DOPC  H13S16833   2.842   2.164   4.852  0.0217  4.0718  1.0730
  142DOPC  C21416834   3.026   2.210   4.975  0.3174  0.6387 -0.4718
  142DOPC  H14R16835   3.092   2.161   4.900 -0.8388 -1.5458 -0.1508
  142DOPC  H14S16836   3.049   2.184   5.081 -2.1020  0.6751  0.1065
  142DOPC  C21516837   3.037   2.358   4.955  0.2807 -0.7181  0.4365
  142DOPC  H15R16838   2.961   2.389   4.880  0.3310 -0.3830  0.5236
  142DOPC  H15S16839   3.134   2.393   4.915 -0.3466  1.0349  0.3424
  142DOPC  C21616840   3.019   2.443   5.081  0.8100 -0.7138 -0.3468
  142DOPC  H16R16841   2.925   2.421   5.135  1.1665 -0.0831  0.5546
  142DOPC  H16S16842   3.011   2.550   5.050  0.0734 -0.3782  0.9270
  142DOPC  C21716843   3.126   2.421   5.188 -0.0345 -0.2264 -0.2387
  142DOPC  H17R16844   3.227   2.422   5.143 -0.0243  1.7119 -0.2762
  142DOPC  H17S16845   3.115   2.316   5.220 -0.5186 -0.1017  0.0156
  142DOPC  C21816846   3.121   2.512   5.310 -0.0345  0.0494 -0.2894
  142DOPC  H18R16847   3.044   2.474   5.380  1.7103 -1.0980  1.1049
  142DOPC  H18S16848   3.094   2.612   5.269  0.1393 -0.2965 -1.2536
  142DOPC  H18T16849   3.222   2.524   5.355  1.2332  1.5512 -3.2533
  142DOPC   C3316850   3.353   2.899   6.098  0.3922 -0.1455  0.1688
  142DOPC   H3X16851   3.416   2.843   6.169  0.6794  1.2247  1.0326
  142DOPC   H3Y16852   3.334   3.000   6.142  1.4895 -0.2676  0.9608
  142DOPC   C3416853   3.441   2.923   5.973 -0.1879 -0.4591  0.1075
  142DOPC   H4X16854   3.459   2.834   5.909  0.9831  1.3902 -2.2976
  142DOPC   H4Y16855   3.539   2.968   5.998 -0.3756  0.3556 -0.5582
  142DOPC   C3516856   3.369   3.018   5.877 -0.3136 -0.7573  0.2584
  142DOPC   H5X16857   3.326   3.107   5.928  1.9063  1.6839 -1.8317
  142DOPC   H5Y16858   3.276   2.966   5.845 -1.0775  0.9154 -0.3661
  142DOPC   C3616859   3.463   3.065   5.766 -0.2049 -0.0341  0.8998
  142DOPC   H6X16860   3.536   3.134   5.815  1.0179 -0.6191 -0.0406
  142DOPC   H6Y16861   3.510   2.975   5.723 -1.6635 -0.1535 -0.5055
  142DOPC   C3716862   3.390   3.134   5.648  0.1509 -0.0417  0.7137
  142DOPC   H7X16863   3.318   3.063   5.602  0.3224  0.8690 -1.0471
  142DOPC   H7Y16864   3.332   3.217   5.695 -3.0957 -0.0700 -2.6944
  142DOPC   C3816865   3.486   3.188   5.542  0.2850 -0.2707 -0.0952
  142DOPC   H8X16866   3.559   3.111   5.509  0.3552 -1.3122  2.2935
  142DOPC   H8Y16867   3.541   3.275   5.585 -2.9302  2.2824 -0.7364
  142DOPC   C3916868   3.412   3.246   5.429  0.1547 -0.1542 -0.0797
  142DOPC   H9X16869   3.351   3.331   5.465  1.2865  0.9305 -0.6374
  142DOPC  C31016870   3.402   3.202   5.300  0.3019 -0.3328  0.4057
  142DOPC  H10X16871   3.321   3.251   5.244 -0.0738 -0.9445  0.4151
  142DOPC  C31116872   3.465   3.075   5.240  0.1864 -0.3708 -0.4135
  142DOPC  H11X16873   3.537   3.028   5.310  0.8219  0.3645 -0.5616
  142DOPC  H11Y16874   3.510   3.109   5.144  2.0493 -0.3492  0.4369
  142DOPC  C31216875   3.369   2.960   5.218  0.5852 -0.0186 -0.1482
  142DOPC  H12X16876   3.288   2.986   5.147 -0.1719 -0.4917  0.5339
  142DOPC  H12Y16877   3.328   2.927   5.316  0.3007  1.4276  0.2579
  142DOPC  C31316878   3.429   2.828   5.150  0.7386 -0.1866  0.0910
  142DOPC  H13X16879   3.516   2.792   5.209  0.3534  0.8702  1.3426
  142DOPC  H13Y16880   3.357   2.747   5.128 -1.2851  1.4893  0.3237
  142DOPC  C31416881   3.472   2.866   5.007 -0.3874  0.3559  0.0637
  142DOPC  H14X16882   3.389   2.913   4.950 -2.2778 -1.9354  0.8030
  142DOPC  H14Y16883   3.560   2.934   5.004 -0.1508  0.1536  1.4624
  142DOPC  C31516884   3.521   2.743   4.919 -0.4778  0.1222 -0.1246
  142DOPC  H15X16885   3.445   2.662   4.916  0.2658 -0.5753 -0.7132
  142DOPC  H15Y16886   3.613   2.700   4.964 -0.2864 -0.8573 -1.4110
  142DOPC  C31616887   3.555   2.795   4.780 -0.0227  0.0148 -0.0143
  142DOPC  H16X16888   3.467   2.833   4.723 -0.2865 -1.1920 -0.4329
  142DOPC  H16Y16889   3.631   2.876   4.779 -0.3778  0.3813  1.0257
  142DOPC  C31716890   3.622   2.687   4.692  0.0906  0.1966 -0.2263
  142DOPC  H17X16891   3.722   2.655   4.729 -1.0467 -0.5723  2.4761
  142DOPC  H17Y16892   3.550   2.603   4.697 -1.6901  1.7185  3.1881
  142DOPC  C31816893   3.632   2.728   4.539 -0.0288  0.0800 -0.2557
  142DOPC  H18X16894   3.691   2.820   4.520  1.7464 -1.0022 -0.1657
  142DOPC  H18Y16895   3.683   2.643   4.490  1.1443  0.0819  0.8821
  142DOPC  H18Z16896   3.530   2.743   4.496 -0.3355 -0.0739  0.4012
  143DOPC     N16897   1.806   2.941   7.350  0.5656  0.3797  0.0640
  143DOPC   C1216898   1.787   3.060   7.261  0.2191 -0.6103 -0.0103
  143DOPC  H12A16899   1.884   3.104   7.248  0.7387 -1.4560  0.8043
  143DOPC  H12B16900   1.723   3.129   7.313  1.1215  0.7031 -0.5971
  143DOPC   C1316901   1.864   2.987   7.479 -0.2707  0.4729  0.7612
  143DOPC  H13A16902   1.971   2.978   7.475 -0.2855  0.4508  0.4229
  143DOPC  H13B16903   1.824   3.084   7.505 -1.2747 -0.0829  1.3752
  143DOPC  H13C16904   1.834   2.921   7.559 -1.1841  0.2348  0.2391
  143DOPC   C1416905   1.894   2.831   7.289  0.3151 -0.5646 -1.1803
  143DOPC  H14A16906   1.923   2.764   7.369 -0.5464 -1.0241 -1.2370
  143DOPC  H14B16907   1.838   2.772   7.218 -2.2903 -1.5268  1.4225
  143DOPC  H14C16908   1.984   2.870   7.245  0.9927 -3.0290 -2.1582
  143DOPC   C1516909   1.677   2.883   7.393  0.1762  0.1079 -0.3326
  143DOPC  H15A16910   1.623   2.840   7.311  1.5940 -0.6583 -0.9011
  143DOPC  H15B16911   1.612   2.964   7.424  2.6369  2.0726  0.0523
  143DOPC  H15C16912   1.695   2.823   7.482 -0.5917  0.8205  0.3201
  143DOPC   C1116913   1.731   3.036   7.116  0.1500  0.5131  0.8545
  143DOPC  H11A16914   1.695   3.133   7.075 -1.3474  0.2967  1.5951
  143DOPC  H11B16915   1.813   3.005   7.048 -2.0408  0.5307 -1.9781
  143DOPC     P16916   1.474   2.979   7.092 -0.2463 -0.0563  0.0715
  143DOPC   O1316917   1.438   3.057   7.213  0.0465  0.7489  0.5289
  143DOPC   O1416918   1.388   2.866   7.058 -0.5847  0.0703 -0.3245
  143DOPC   O1216919   1.629   2.928   7.108 -0.0738  0.3213  0.5762
  143DOPC   O1116920   1.487   3.080   6.966  0.1626  0.3859  0.2647
  143DOPC    C116921   1.545   3.047   6.847 -0.8275 -0.8270 -0.1389
  143DOPC    HA16922   1.570   2.939   6.839 -1.3750 -0.9689  0.0276
  143DOPC    HB16923   1.638   3.107   6.843 -2.4059  1.6829 -1.9806
  143DOPC    C216924   1.465   3.096   6.723  0.4550 -0.3241 -0.3039
  143DOPC    HS16925   1.407   3.188   6.746 -1.4443 -1.2528 -1.1122
  143DOPC   O2116926   1.384   2.980   6.682 -0.2807  0.1579  0.3694
  143DOPC   C2116927   1.251   2.993   6.682 -0.6717  0.3679  0.6337
  143DOPC   O2216928   1.199   3.097   6.719  0.0093  0.7237 -0.2243
  143DOPC   C2216929   1.184   2.867   6.633 -0.3271 -0.6229 -0.3110
  143DOPC   H2R16930   1.073   2.871   6.634 -0.4696 -2.5388  2.5472
  143DOPC   H2S16931   1.208   2.787   6.706  0.5905  0.0039  0.1023
  143DOPC    C316932   1.566   3.140   6.608  0.2749  0.3725 -0.5859
  143DOPC    HX16933   1.642   3.060   6.595  1.8413  2.0195 -2.1062
  143DOPC    HY16934   1.621   3.223   6.658 -0.9389 -0.2611  1.9695
  143DOPC   O3116935   1.505   3.164   6.476 -0.2757  0.3093  0.0887
  143DOPC   C3116936   1.447   3.281   6.464 -0.5119  0.0060  0.3957
  143DOPC   O3216937   1.429   3.365   6.554 -0.1208 -0.4127 -0.5398
  143DOPC   C3216938   1.383   3.277   6.322  0.1729 -0.0493 -0.4211
  143DOPC   H2X16939   1.444   3.219   6.249  0.9775  1.3184 -0.8718
  143DOPC   H2Y16940   1.280   3.237   6.331  0.6056 -1.1653 -0.2570
  143DOPC   C2316941   1.226   2.828   6.492 -0.5413  0.4629 -0.2244
  143DOPC   H3R16942   1.200   2.722   6.476 -2.1092  0.8867 -0.6373
  143DOPC   H3S16943   1.337   2.841   6.489 -0.6376  2.0204  1.1826
  143DOPC   C2416944   1.147   2.924   6.401 -0.2843  0.1080  0.6381
  143DOPC   H4R16945   1.152   3.034   6.419  0.2681  0.2311 -0.1796
  143DOPC   H4S16946   1.041   2.893   6.414 -0.6477  0.2646 -1.5795
  143DOPC   C2516947   1.186   2.915   6.245  0.7891 -0.0421 -0.3301
  143DOPC   H5R16948   1.191   2.807   6.219  0.9086 -0.0131 -0.4311
  143DOPC   H5S16949   1.291   2.947   6.227  0.4481  1.9563  0.8996
  143DOPC   C2616950   1.098   3.000   6.160  0.1252 -0.7871 -0.2552
  143DOPC   H6R16951   1.093   3.103   6.202  0.4963 -1.0102  0.3529
  143DOPC   H6S16952   0.994   2.962   6.158 -0.6310  1.1899 -1.3419
  143DOPC   C2716953   1.150   2.989   6.010 -0.1137  0.1167 -0.9640
  143DOPC   H7R16954   1.134   2.882   5.984  0.8423 -0.4147  0.5054
  143DOPC   H7S16955   1.260   3.002   6.021  0.0239 -1.9451  0.7074
  143DOPC   C2816956   1.077   3.075   5.908 -0.2842  0.1787 -0.1165
  143DOPC   H8R16957   1.097   3.182   5.931  2.3066 -0.4288  0.8122
  143DOPC   H8S16958   0.970   3.050   5.922 -0.2308  0.0399  0.0404
  143DOPC   C2916959   1.112   3.049   5.764 -0.3072 -0.7410 -0.1410
  143DOPC   H9R16960   1.154   2.948   5.751  0.9973 -0.2432  0.0491
  143DOPC  C21016961   1.112   3.125   5.657  0.3718 -0.2080  0.5705
  143DOPC  H10R16962   1.156   3.098   5.560 -0.6088 -0.1951  0.1143
  143DOPC  C21116963   1.070   3.263   5.656 -0.1865 -0.0870  0.1800
  143DOPC  H11R16964   1.159   3.329   5.650  0.2346 -0.7051 -0.5660
  143DOPC  H11S16965   1.008   3.290   5.744 -0.7973  1.0510 -0.5642
  143DOPC  C21216966   0.981   3.297   5.537 -0.6298 -0.0629  0.6524
  143DOPC  H12R16967   1.036   3.264   5.447  0.4910 -0.8048  1.5760
  143DOPC  H12S16968   0.965   3.407   5.541  0.3621  0.0937  0.5914
  143DOPC  C21316969   0.839   3.229   5.536 -0.4579 -0.2745  1.1493
  143DOPC  H13R16970   0.803   3.221   5.641 -1.1482  2.6829  1.2186
  143DOPC  H13S16971   0.864   3.127   5.500 -2.0414  0.5665 -2.8595
  143DOPC  C21416972   0.747   3.303   5.441  0.5115 -0.5171 -0.3073
  143DOPC  H14R16973   0.796   3.341   5.348 -0.7516  1.5475 -0.2028
  143DOPC  H14S16974   0.704   3.396   5.484  1.3705  1.5006 -3.4271
  143DOPC  C21516975   0.634   3.211   5.397  0.3973  0.4870  0.3281
  143DOPC  H15R16976   0.609   3.160   5.492  0.3124 -2.6996 -1.2889
  143DOPC  H15S16977   0.678   3.135   5.329 -0.6615  1.0166 -0.9922
  143DOPC  C21616978   0.509   3.285   5.335  0.2516  0.2799 -0.0278
  143DOPC  H16R16979   0.541   3.321   5.235 -0.0428 -1.0323 -0.6236
  143DOPC  H16S16980   0.483   3.369   5.402  0.1720 -0.7236  1.2344
  143DOPC  C21716981   0.388   3.197   5.309 -0.2130 -0.6857 -0.1985
  143DOPC  H17R16982   0.298   3.254   5.278 -1.4521 -1.8143  1.1868
  143DOPC  H17S16983   0.350   3.138   5.395 -0.3500 -0.6259 -0.2181
  143DOPC  C21816984   0.403   3.106   5.190  0.4994  0.2616 -0.3287
  143DOPC  H18R16985   0.413   3.156   5.092 -1.2937  0.8072 -0.2766
  143DOPC  H18S16986   0.309   3.046   5.186  1.4224 -1.3517  0.8708
  143DOPC  H18T16987   0.496   3.046   5.198 -1.1334 -2.8473 -2.4482
  143DOPC   C3316988   1.366   3.426   6.271  0.3946 -0.3391 -0.4221
  143DOPC   H3X16989   1.461   3.480   6.251  0.7162 -1.1740 -1.2028
  143DOPC   H3Y16990   1.316   3.484   6.352  2.8588  0.9781  0.2493
  143DOPC   C3416991   1.273   3.442   6.144 -0.0394 -0.0355 -0.1078
  143DOPC   H4X16992   1.171   3.401   6.162 -0.7336  0.5543 -2.4167
  143DOPC   H4Y16993   1.307   3.374   6.064  2.0058  1.7191 -0.8306
  143DOPC   C3516994   1.260   3.576   6.085 -0.4531 -0.3002  0.4990
  143DOPC   H5X16995   1.366   3.607   6.079 -0.2770 -0.9635  0.0790
  143DOPC   H5Y16996   1.206   3.640   6.158  0.9666 -0.6463  1.9165
  143DOPC   C3616997   1.204   3.582   5.944  0.3025 -0.0404 -0.2434
  143DOPC   H6X16998   1.256   3.513   5.875  1.0207 -0.0189  0.2620
  143DOPC   H6Y16999   1.097   3.556   5.957 -0.2151  0.1365 -3.4182
  143DOPC   C3717000   1.207   3.718   5.877 -0.6281 -0.9247 -0.6759
  143DOPC   H7X17001   1.185   3.778   5.968 -1.7862 -1.9680 -0.2263
  143DOPC   H7Y17002   1.312   3.734   5.845 -0.7974  2.5803  0.1605
  143DOPC   C3817003   1.089   3.752   5.784 -0.2192  0.3553  0.6534
  143DOPC   H8X17004   0.993   3.745   5.840 -1.3580  1.7438 -1.0406
  143DOPC   H8Y17005   1.081   3.672   5.707 -1.4951 -0.8036  1.9141
  143DOPC   C3917006   1.092   3.887   5.712 -0.6076  0.4459  0.3806
  143DOPC   H9X17007   1.061   3.973   5.773  0.5455 -0.4307  2.2819
  143DOPC  C31017008   1.102   3.905   5.581 -0.2964 -0.1798  0.1394
  143DOPC  H10X17009   1.084   4.006   5.541  0.2555 -0.1318 -0.0039
  143DOPC  C31117010   1.110   3.808   5.471 -0.5662 -1.1054  0.7595
  143DOPC  H11X17011   1.007   3.778   5.441  0.8155 -3.2334 -2.4811
  143DOPC  H11Y17012   1.164   3.715   5.499 -1.4909 -1.2714  2.1107
  143DOPC  C31217013   1.202   3.864   5.355 -0.1600 -0.1970  0.0563
  143DOPC  H12X17014   1.226   3.972   5.353 -1.0862  0.0669 -3.3482
  143DOPC  H12Y17015   1.146   3.851   5.259 -0.6091  0.1380  0.2736
  143DOPC  C31317016   1.340   3.796   5.345  0.5637  0.3080 -0.9336
  143DOPC  H13X17017   1.377   3.808   5.450  1.6317  0.4543 -1.3135
  143DOPC  H13Y17018   1.315   3.687   5.341  3.4401 -0.5298  0.8037
  143DOPC  C31417019   1.426   3.832   5.225  0.0344 -0.0962 -0.5845
  143DOPC  H14X17020   1.366   3.809   5.134 -1.2987  0.0375  0.2418
  143DOPC  H14Y17021   1.443   3.941   5.231 -0.4085  0.0147 -1.2287
  143DOPC  C31517022   1.560   3.757   5.225  0.3874  0.2328 -0.0495
  143DOPC  H15X17023   1.610   3.774   5.126  0.4048 -1.4225 -0.3502
  143DOPC  H15Y17024   1.526   3.651   5.230 -0.1905  0.4406  0.5524
  143DOPC  C31617025   1.647   3.768   5.347  0.1913 -0.6297  0.1719
  143DOPC  H16X17026   1.583   3.767   5.438  0.6378  1.7827  0.5621
  143DOPC  H16Y17027   1.718   3.682   5.349 -0.9257 -1.7274 -2.5014
  143DOPC  C31717028   1.718   3.902   5.337  0.3335 -0.8652 -0.7248
  143DOPC  H17X17029   1.790   3.902   5.252  0.3798 -0.2424 -0.6875
  143DOPC  H17Y17030   1.634   3.974   5.323 -1.5092 -2.8135 -0.3423
  143DOPC  C31817031   1.790   3.934   5.473  0.7828 -0.7243 -0.3959
  143DOPC  H18X17032   1.843   4.030   5.453 -0.7143 -0.0163 -1.0969
  143DOPC  H18Y17033   1.721   3.966   5.554 -1.1781 -0.4764 -2.0927
  143DOPC  H18Z17034   1.858   3.856   5.513 -0.8018 -1.2117  1.4913
  144DOPC     N17035   1.485   2.466   7.071 -0.3461  0.1010  0.3776
  144DOPC   C1217036   1.592   2.360   7.101 -0.6062  0.2878 -1.4277
  144DOPC  H12A17037   1.538   2.267   7.111 -1.0476  0.7531  1.1978
  144DOPC  H12B17038   1.623   2.378   7.203  0.5607  0.3394 -1.7676
  144DOPC   C1317039   1.368   2.458   7.165 -0.0658 -0.1644  0.0777
  144DOPC  H13A17040   1.279   2.509   7.131  1.4424  2.5938  0.0066
  144DOPC  H13B17041   1.347   2.354   7.187 -1.3122 -0.7078 -3.1722
  144DOPC  H13C17042   1.399   2.508   7.256  1.6856  1.0482 -1.1218
  144DOPC   C1417043   1.447   2.453   6.928  0.4716 -0.5342  0.4736
  144DOPC  H14A17044   1.376   2.373   6.914 -0.8500  0.8478 -1.2620
  144DOPC  H14B17045   1.396   2.544   6.898 -0.4013 -1.2364 -0.2239
  144DOPC  H14C17046   1.538   2.443   6.871  2.1725 -2.2802  3.2826
  144DOPC   C1517047   1.551   2.601   7.085  0.1725 -0.0360 -0.0509
  144DOPC  H15A17048   1.634   2.607   7.015  0.8571  2.7899  0.8879
  144DOPC  H15B17049   1.596   2.594   7.182 -0.6172 -1.0661  0.2531
  144DOPC  H15C17050   1.489   2.689   7.080  0.7209  0.5191  2.0075
  144DOPC   C1117051   1.713   2.344   7.008 -0.7331 -0.0790  0.2679
  144DOPC  H11A17052   1.772   2.253   7.032  1.5933  1.4377  0.6580
  144DOPC  H11B17053   1.665   2.330   6.909 -0.3478 -0.6753  0.1570
  144DOPC     P17054   1.933   2.472   7.054  0.2083 -0.1083  0.2462
  144DOPC   O1317055   1.934   2.426   7.192 -0.7522  0.2036 -0.4641
  144DOPC   O1417056   1.979   2.608   7.027 -0.1755  0.3177  0.8589
  144DOPC   O1217057   1.789   2.465   7.009  0.1475  0.0537 -0.0850
  144DOPC   O1117058   2.008   2.373   6.962 -0.1437 -0.3463  0.4450
  144DOPC    C117059   2.037   2.400   6.825  0.4943  0.0955 -0.0681
  144DOPC    HA17060   2.147   2.393   6.814  0.7172 -2.0411  2.5008
  144DOPC    HB17061   1.995   2.494   6.785 -1.2768 -0.0901  1.2363
  144DOPC    C217062   1.979   2.296   6.725 -0.1811 -0.1089  0.5558
  144DOPC    HS17063   1.869   2.310   6.717 -0.1006  0.7511  0.7550
  144DOPC   O2117064   2.012   2.160   6.758 -0.0208 -0.2422 -0.2853
  144DOPC   C2117065   1.911   2.078   6.794  0.8611  0.0797 -0.0938
  144DOPC   O2217066   1.792   2.103   6.798  0.1071 -0.6393  0.2707
  144DOPC   C2217067   1.972   1.952   6.846 -0.4000  0.2994 -0.9479
  144DOPC   H2R17068   1.914   1.915   6.934 -0.6419  1.5011 -0.5751
  144DOPC   H2S17069   2.070   1.987   6.885 -0.6571  0.9247 -0.8558
  144DOPC    C317070   2.041   2.310   6.584 -0.3216 -0.2858 -0.5238
  144DOPC    HX17071   2.018   2.411   6.544 -2.4691 -0.3129  0.5058
  144DOPC    HY17072   1.976   2.236   6.534  0.3734 -0.0829 -1.7952
  144DOPC   O3117073   2.179   2.273   6.570 -0.4383  0.3055 -0.2707
  144DOPC   C3117074   2.257   2.361   6.515 -0.3664 -0.1587  0.1123
  144DOPC   O3217075   2.222   2.468   6.468 -0.4637 -0.4228  0.0566
  144DOPC   C3217076   2.400   2.305   6.513  0.4478 -0.0362 -0.1578
  144DOPC   H2X17077   2.456   2.299   6.609  1.1546 -1.5607 -0.6264
  144DOPC   H2Y17078   2.397   2.206   6.462  3.9116  0.4077 -1.4862
  144DOPC   C2317079   1.979   1.837   6.747 -0.7783  0.2819  0.1005
  144DOPC   H3R17080   2.040   1.755   6.791 -0.7134  1.5864  2.5955
  144DOPC   H3S17081   2.031   1.872   6.655 -0.1323  0.6608  0.6093
  144DOPC   C2417082   1.842   1.780   6.714 -0.1286  0.2482  0.2742
  144DOPC   H4R17083   1.778   1.856   6.663 -0.0227  2.0618  2.6866
  144DOPC   H4S17084   1.789   1.761   6.810 -0.6766 -1.8229 -0.3877
  144DOPC   C2517085   1.852   1.645   6.646  0.0956  0.2098  0.2150
  144DOPC   H5R17086   1.904   1.566   6.704 -0.2269 -0.1739 -0.0080
  144DOPC   H5S17087   1.907   1.664   6.551 -0.3052 -1.2585 -0.3396
  144DOPC   C2617088   1.718   1.576   6.605 -0.2308  0.1252 -0.4447
  144DOPC   H6R17089   1.642   1.572   6.687  0.0507  1.2867 -0.1053
  144DOPC   H6S17090   1.750   1.472   6.583 -0.2429  0.3585 -1.6291
  144DOPC   C2717091   1.655   1.637   6.483 -0.2743  0.1200  0.5813
  144DOPC   H7R17092   1.738   1.640   6.409 -0.2655  1.6730  0.6096
  144DOPC   H7S17093   1.615   1.741   6.479 -0.8790 -0.0942 -4.0863
  144DOPC   C2817094   1.546   1.550   6.426 -0.1564  0.2376  0.3183
  144DOPC   H8R17095   1.471   1.512   6.499 -1.3158 -1.4026 -1.6486
  144DOPC   H8S17096   1.604   1.458   6.404  1.7232  1.4000  0.1389
  144DOPC   C2917097   1.478   1.593   6.298  0.5953 -0.4420  0.1534
  144DOPC   H9R17098   1.554   1.617   6.222  1.4633  0.8203  1.3616
  144DOPC  C21017099   1.342   1.608   6.282 -0.0136 -0.3026  0.1105
  144DOPC  H10R17100   1.306   1.656   6.190 -0.2375 -0.4600  0.1135
  144DOPC  C21117101   1.235   1.583   6.383  0.0002  0.3943  0.0929
  144DOPC  H11R17102   1.217   1.673   6.446 -0.3345  0.9883 -0.8391
  144DOPC  H11S17103   1.265   1.498   6.448 -1.0854 -1.8491 -2.1609
  144DOPC  C21217104   1.097   1.552   6.329 -0.1687  0.8199  0.3311
  144DOPC  H12R17105   1.067   1.627   6.253  1.8756  0.0819 -1.2999
  144DOPC  H12S17106   1.033   1.557   6.420  0.9207  1.7435  1.0708
  144DOPC  C21317107   1.090   1.415   6.258  0.4015 -0.1888 -0.2075
  144DOPC  H13R17108   1.149   1.439   6.167  1.4082 -0.4107  0.3702
  144DOPC  H13S17109   0.989   1.404   6.211 -1.1422  2.7924  2.1067
  144DOPC  C21417110   1.141   1.284   6.321 -0.0667 -0.9561  0.4262
  144DOPC  H14R17111   1.085   1.263   6.414  0.8236 -0.5489  1.0706
  144DOPC  H14S17112   1.245   1.305   6.356 -0.0809 -0.7362  0.3434
  144DOPC  C21517113   1.137   1.175   6.217 -0.3823 -0.3407  0.5660
  144DOPC  H15R17114   1.180   1.215   6.123 -1.4345 -0.5487 -0.0103
  144DOPC  H15S17115   1.030   1.150   6.207 -1.1692  2.7859  0.2787
  144DOPC  C21617116   1.206   1.044   6.253  0.0625 -0.3638  0.2505
  144DOPC  H16R17117   1.163   1.019   6.352 -0.3581 -0.8596 -0.0535
  144DOPC  H16S17118   1.312   1.072   6.272  0.9806  0.5089 -4.8046
  144DOPC  C21717119   1.205   0.934   6.147  0.2635  0.7069 -0.4905
  144DOPC  H17R17120   1.266   0.848   6.184  0.5751  1.6820  1.4166
  144DOPC  H17S17121   1.258   0.970   6.057  0.8349 -1.3751 -1.0401
  144DOPC  C21817122   1.062   0.893   6.108  0.1699 -0.1726 -0.2939
  144DOPC  H18R17123   0.995   0.874   6.195 -0.3223  0.8714 -0.4369
  144DOPC  H18S17124   1.066   0.802   6.044 -1.3938  0.0962 -0.8217
  144DOPC  H18T17125   1.018   0.980   6.055 -1.9045 -1.0816 -0.1583
  144DOPC   C3317126   2.491   2.386   6.411  0.2819  0.4460  0.0046
  144DOPC   H3X17127   2.497   2.492   6.444 -1.9282  0.1251  1.7059
  144DOPC   H3Y17128   2.438   2.388   6.313  1.5869  1.3637 -0.7151
  144DOPC   C3417129   2.634   2.322   6.391  0.0492 -0.3822  0.6620
  144DOPC   H4X17130   2.668   2.285   6.490  1.3287 -0.5114  0.1914
  144DOPC   H4Y17131   2.703   2.400   6.354  0.9005  0.0435  2.9774
  144DOPC   C3517132   2.630   2.207   6.293 -0.2243  0.3286  0.5126
  144DOPC   H5X17133   2.561   2.228   6.209  1.7220 -0.2095 -1.3199
  144DOPC   H5Y17134   2.604   2.113   6.347 -3.1417 -0.4608 -1.9899
  144DOPC   C3617135   2.772   2.177   6.241 -0.2217 -0.0576 -0.0722
  144DOPC   H6X17136   2.814   2.265   6.187  1.4289 -0.3591  0.6590
  144DOPC   H6Y17137   2.846   2.163   6.322  0.0656 -0.0648 -0.3353
  144DOPC   C3717138   2.792   2.050   6.159 -0.4699 -0.2017  0.8776
  144DOPC   H7X17139   2.894   2.008   6.174  0.2888  0.5739 -1.6277
  144DOPC   H7Y17140   2.706   1.981   6.173 -1.7219  0.5084 -2.4560
  144DOPC   C3817141   2.795   2.089   6.007 -0.0582  0.5160  0.3910
  144DOPC   H8X17142   2.888   2.147   5.988  0.5278  0.8393  3.6923
  144DOPC   H8Y17143   2.705   2.149   5.980  1.5842  3.0500  0.2517
  144DOPC   C3917144   2.797   1.960   5.924  0.6571  0.4426  0.0569
  144DOPC   H9X17145   2.895   1.910   5.929  0.6723  0.4997  0.3897
  144DOPC  C31017146   2.698   1.907   5.845 -0.0732  0.2369  0.7122
  144DOPC  H10X17147   2.727   1.818   5.787  0.3885 -0.0489  1.3798
  144DOPC  C31117148   2.561   1.962   5.814 -0.2278  0.1598  0.6375
  144DOPC  H11X17149   2.570   2.019   5.719  1.9294 -1.7437 -0.4155
  144DOPC  H11Y17150   2.524   2.033   5.891 -1.6120  0.1708 -0.0108
  144DOPC  C31217151   2.456   1.857   5.808  0.4898 -0.1978  0.1498
  144DOPC  H12X17152   2.360   1.905   5.779  1.3088  1.9445  0.8309
  144DOPC  H12Y17153   2.450   1.784   5.892  2.0619 -2.9433 -1.9298
  144DOPC  C31317154   2.478   1.760   5.691 -0.0673 -0.6241 -0.1682
  144DOPC  H13X17155   2.570   1.698   5.699 -2.2329 -3.8330  3.5309
  144DOPC  H13Y17156   2.396   1.685   5.691  0.3255 -1.0660  0.6364
  144DOPC  C31417157   2.487   1.831   5.550  0.3504 -0.0182  0.9732
  144DOPC  H14X17158   2.406   1.907   5.545  0.2958 -0.1180  0.2849
  144DOPC  H14Y17159   2.580   1.891   5.544 -0.0151  0.3769 -1.6936
  144DOPC  C31517160   2.490   1.738   5.434  0.4245 -0.4790 -0.3443
  144DOPC  H15X17161   2.413   1.665   5.467 -1.0343  1.4662  0.8052
  144DOPC  H15Y17162   2.585   1.680   5.437  0.2881 -0.6900  2.0329
  144DOPC  C31617163   2.448   1.784   5.298 -0.5478 -0.1764 -0.3650
  144DOPC  H16X17164   2.486   1.884   5.267 -1.4463  0.1268 -0.5148
  144DOPC  H16Y17165   2.493   1.721   5.219  1.0329 -0.2549  0.5531
  144DOPC  C31717166   2.291   1.784   5.290  0.1508  0.4303  0.1621
  144DOPC  H17X17167   2.243   1.806   5.388  1.0260  0.7269  0.5413
  144DOPC  H17Y17168   2.255   1.868   5.226  0.8734  1.1380  0.6590
  144DOPC  C31817169   2.248   1.659   5.217 -0.6002  0.1784  0.8983
  144DOPC  H18X17170   2.301   1.635   5.122 -2.0603 -0.4710  0.1934
  144DOPC  H18Y17171   2.261   1.569   5.281 -2.1147 -0.7506 -0.0121
  144DOPC  H18Z17172   2.142   1.668   5.183 -0.4446 -0.7202  0.1078
  145DOPC     N17173   4.452   5.575   7.400 -0.5059 -0.2248  0.4930
  145DOPC   C1217174   4.489   5.431   7.347  0.3241  0.0210 -0.5936
  145DOPC  H12A17175   4.432   5.421   7.256 -1.3278  1.0058  0.2874
  145DOPC  H12B17176   4.450   5.361   7.420  1.0801  2.4853  2.3955
  145DOPC   C1317177   4.493   5.687   7.313 -0.0743 -0.4438 -0.0029
  145DOPC  H13A17178   4.455   5.681   7.213 -2.1673  3.0415  0.3906
  145DOPC  H13B17179   4.457   5.780   7.355 -2.0315 -1.7815  1.4894
  145DOPC  H13C17180   4.600   5.696   7.314 -0.1661  0.8304  0.4577
  145DOPC   C1417181   4.519   5.594   7.538 -0.1588 -0.0257  0.5808
  145DOPC  H14A17182   4.493   5.689   7.582 -0.5201 -0.7344  1.9465
  145DOPC  H14B17183   4.488   5.509   7.597  0.6634 -0.2924  0.6427
  145DOPC  H14C17184   4.627   5.590   7.533 -0.0862  1.6282  0.1303
  145DOPC   C1517185   4.309   5.582   7.426  0.2596 -0.1638  0.4621
  145DOPC  H15A17186   4.276   5.678   7.463  0.9770  0.1616  0.2618
  145DOPC  H15B17187   4.274   5.512   7.500 -2.3365 -0.2145 -0.6719
  145DOPC  H15C17188   4.245   5.571   7.339 -0.0573 -1.6635  0.8612
  145DOPC   C1117189   4.636   5.405   7.314 -0.2289 -0.9649 -0.7558
  145DOPC  H11A17190   4.648   5.305   7.267 -2.7517 -1.5719 -0.2531
  145DOPC  H11B17191   4.679   5.486   7.251  1.5142  0.0745  1.6471
  145DOPC     P17192   4.727   5.290   7.533  0.0047 -0.3788  0.1301
  145DOPC   O1317193   4.592   5.235   7.553  0.3553  0.3910  0.1995
  145DOPC   O1417194   4.801   5.348   7.648  0.3735  0.3715  0.5662
  145DOPC   O1217195   4.718   5.413   7.435 -0.4753 -0.3401  0.0454
  145DOPC   O1117196   4.809   5.181   7.459  0.7534  0.2063 -0.2259
  145DOPC    C117197   4.939   5.211   7.410  0.1563  0.4152  0.3810
  145DOPC    HA17198   4.995   5.115   7.413 -0.1485  0.2002 -0.4509
  145DOPC    HB17199   4.998   5.284   7.469  0.4264  0.5703 -0.0782
  145DOPC    C217200   4.953   5.254   7.267 -0.0189  0.1284 -0.0358
  145DOPC    HS17201   4.901   5.352   7.270 -0.8000 -0.2168 -1.4249
  145DOPC   O2117202   4.879   5.164   7.185 -0.5419  0.0318 -0.3761
  145DOPC   C2117203   4.839   5.210   7.068 -0.5291 -0.4835 -0.0458
  145DOPC   O2217204   4.843   5.328   7.035  0.3717 -0.0791 -0.2739
  145DOPC   C2217205   4.805   5.102   6.972  0.8689  0.1815  0.0160
  145DOPC   H2R17206   4.706   5.059   7.000  0.9415 -1.1241 -1.5169
  145DOPC   H2S17207   4.882   5.022   6.978 -0.8617 -1.4436  1.8138
  145DOPC    C317208   5.102   5.249   7.208 -0.2087 -0.0249 -0.6645
  145DOPC    HX17209   5.155   5.338   7.249  1.5845 -1.1316 -0.4916
  145DOPC    HY17210   5.112   5.261   7.098 -0.2400 -0.8085 -0.7576
  145DOPC   O3117211   5.176   5.136   7.251 -0.4806 -0.4367  0.3668
  145DOPC   C3117212   5.174   5.024   7.175 -0.5280 -0.2575 -0.3130
  145DOPC   O3217213   5.113   5.019   7.070  0.3832  0.0821  0.0147
  145DOPC   C3217214   5.255   4.914   7.233  0.1883 -0.7627  0.1752
  145DOPC   H2X17215   5.297   4.944   7.332  0.3936 -0.2467 -0.0625
  145DOPC   H2Y17216   5.179   4.834   7.245 -0.1093 -0.3922  0.8442
  145DOPC   C2317217   4.810   5.154   6.826  0.6999  0.4811  0.4912
  145DOPC   H3R17218   4.914   5.154   6.786 -0.6901  2.5010 -3.7243
  145DOPC   H3S17219   4.778   5.260   6.826 -0.2226  0.2233  2.3198
  145DOPC   C2417220   4.718   5.062   6.736 -0.8607  0.3595  0.4186
  145DOPC   H4R17221   4.615   5.053   6.776 -0.7232  1.1143  0.9868
  145DOPC   H4S17222   4.773   4.966   6.738  0.0467  0.8500 -0.3318
  145DOPC   C2517223   4.720   5.114   6.592  0.1047 -0.1741 -0.3801
  145DOPC   H5R17224   4.818   5.147   6.551 -0.1243  0.0782 -0.7231
  145DOPC   H5S17225   4.658   5.205   6.586 -0.7684 -0.6170  1.4306
  145DOPC   C2617226   4.676   5.001   6.493 -0.4263 -0.3318  0.1530
  145DOPC   H6R17227   4.579   4.962   6.531 -0.5678 -2.1919 -1.9046
  145DOPC   H6S17228   4.753   4.922   6.513 -0.7524 -0.8308 -0.5054
  145DOPC   C2717229   4.672   5.043   6.344 -0.0433  0.2154  0.7758
  145DOPC   H7R17230   4.641   4.952   6.289 -0.5483  0.2516  0.9988
  145DOPC   H7S17231   4.775   5.057   6.303 -0.2800 -2.1409 -0.8656
  145DOPC   C2817232   4.591   5.164   6.315  0.7334  0.3209  0.1135
  145DOPC   H8R17233   4.624   5.247   6.381  1.3755 -0.3859  0.7199
  145DOPC   H8S17234   4.486   5.137   6.336  1.3610 -0.9190  1.9428
  145DOPC   C2917235   4.591   5.194   6.169  0.0993  0.1145 -0.1943
  145DOPC   H9R17236   4.670   5.268   6.146 -0.5090  0.8611  0.0592
  145DOPC  C21017237   4.521   5.128   6.071 -0.3026  0.3023 -0.1322
  145DOPC  H10R17238   4.540   5.163   5.969  2.1276 -0.2428  0.0696
  145DOPC  C21117239   4.415   5.020   6.093 -0.6345  0.0593  0.2783
  145DOPC  H11R17240   4.312   5.061   6.084 -0.5272  0.0034 -1.8476
  145DOPC  H11S17241   4.422   4.970   6.192  1.2072  0.1292  0.2221
  145DOPC  C21217242   4.414   4.918   5.977 -0.3671  0.0141  0.8749
  145DOPC  H12R17243   4.355   4.828   6.008 -2.0584  0.7160 -0.1749
  145DOPC  H12S17244   4.514   4.877   5.954 -1.3019 -1.3180 -1.1544
  145DOPC  C21317245   4.352   4.970   5.849 -0.1562 -0.5555 -0.0530
  145DOPC  H13R17246   4.431   5.019   5.788 -1.1234 -0.6520 -1.4368
  145DOPC  H13S17247   4.271   5.046   5.863  0.0299  0.0285 -1.8742
  145DOPC  C21417248   4.296   4.847   5.773 -0.0882  0.4008 -0.3470
  145DOPC  H14R17249   4.221   4.811   5.846 -1.2721  1.4905 -0.9788
  145DOPC  H14S17250   4.380   4.778   5.754  1.4083  2.2884 -0.8967
  145DOPC  C21517251   4.219   4.875   5.644 -0.7182  0.0785  0.1282
  145DOPC  H15R17252   4.285   4.939   5.582  1.4134 -2.3577 -0.2947
  145DOPC  H15S17253   4.131   4.942   5.661 -4.1315 -3.3907 -2.2246
  145DOPC  C21617254   4.176   4.750   5.563 -0.2749 -0.0278  0.1144
  145DOPC  H16R17255   4.124   4.677   5.630 -2.2038 -0.7625 -2.0595
  145DOPC  H16S17256   4.269   4.701   5.530  1.2158  2.3809  0.5204
  145DOPC  C21717257   4.095   4.777   5.438 -0.6985  0.3505 -0.9657
  145DOPC  H17R17258   4.172   4.842   5.391  0.2011 -0.3349 -0.4535
  145DOPC  H17S17259   3.999   4.833   5.448  0.1034  1.4436  1.2792
  145DOPC  C21817260   4.062   4.652   5.361  0.2674 -0.3938  0.7436
  145DOPC  H18R17261   3.959   4.618   5.386  0.0105  0.6197  1.1426
  145DOPC  H18S17262   4.127   4.566   5.387  2.1640  0.5514 -0.6267
  145DOPC  H18T17263   4.064   4.670   5.251  0.6255 -0.7285  0.6934
  145DOPC   C3317264   5.368   4.860   7.139 -0.2369  0.3909  0.0972
  145DOPC   H3X17265   5.399   4.770   7.195 -0.3586 -0.8351 -1.7306
  145DOPC   H3Y17266   5.450   4.933   7.122 -0.4704  0.4962 -0.6207
  145DOPC   C3417267   5.320   4.810   7.000 -0.0089  0.3848  0.2342
  145DOPC   H4X17268   5.268   4.894   6.950  1.2861  0.9413 -0.2410
  145DOPC   H4Y17269   5.247   4.727   7.009 -0.5180  0.7548 -0.4403
  145DOPC   C3517270   5.444   4.773   6.922  0.9474  0.1959 -0.0250
  145DOPC   H5X17271   5.494   4.684   6.966 -2.8464 -2.3442 -0.3773
  145DOPC   H5Y17272   5.526   4.847   6.916  0.6591  0.4477 -1.2019
  145DOPC   C3617273   5.421   4.742   6.779  0.1123 -0.1948 -0.4055
  145DOPC   H6X17274   5.325   4.686   6.770 -0.1055  0.1407 -0.1784
  145DOPC   H6Y17275   5.392   4.840   6.735 -0.4876  0.8313  2.1540
  145DOPC   C3717276   5.531   4.682   6.694 -0.3478 -0.2747 -0.2048
  145DOPC   H7X17277   5.629   4.722   6.729  0.7887 -1.7301 -1.5448
  145DOPC   H7Y17278   5.540   4.574   6.721  0.3632 -0.3446 -0.6788
  145DOPC   C3817279   5.499   4.680   6.544 -0.9575  0.3010 -0.6753
  145DOPC   H8X17280   5.403   4.626   6.529 -0.4307 -1.7803  2.4764
  145DOPC   H8Y17281   5.582   4.630   6.490 -0.5529 -0.5810  0.7038
  145DOPC   C3917282   5.483   4.818   6.495  0.3073  0.3096 -1.0309
  145DOPC   H9X17283   5.391   4.872   6.519  0.5866  0.6613 -0.7349
  145DOPC  C31017284   5.571   4.887   6.416  0.8082  0.4099  0.8778
  145DOPC  H10X17285   5.543   4.991   6.394 -0.7803  0.4582  2.7842
  145DOPC  C31117286   5.695   4.844   6.348  0.4963 -0.1689 -0.0696
  145DOPC  H11X17287   5.673   4.824   6.241  4.1647  1.9465 -1.3995
  145DOPC  H11Y17288   5.735   4.753   6.399 -0.2542 -0.0734  0.7152
  145DOPC  C31217289   5.799   4.957   6.349  0.2766 -0.1990  0.3016
  145DOPC  H12X17290   5.810   5.001   6.450 -3.2361 -1.6840  1.4950
  145DOPC  H12Y17291   5.775   5.044   6.285  3.2469  1.2315  0.9458
  145DOPC  C31317292   5.934   4.908   6.290  0.4533  0.1026 -0.1766
  145DOPC  H13X17293   6.010   4.980   6.327 -1.5154  2.2271 -0.0136
  145DOPC  H13Y17294   5.965   4.810   6.330  2.5223  0.6487 -0.3146
  145DOPC  C31417295   5.945   4.905   6.135  0.5368 -0.2737 -0.3358
  145DOPC  H14X17296   5.859   4.854   6.086  1.0192 -0.4644 -1.0035
  145DOPC  H14Y17297   5.950   5.012   6.105 -0.5944 -0.0747  0.1509
  145DOPC  C31517298   6.077   4.852   6.080 -0.1715  0.0172 -0.2015
  145DOPC  H15X17299   6.119   4.786   6.159 -2.5122 -0.9924  0.2917
  145DOPC  H15Y17300   6.154   4.932   6.076  0.4958 -0.3852  2.3676
  145DOPC  C31617301   6.071   4.782   5.947  0.2551 -0.5555 -0.5968
  145DOPC  H16X17302   6.172   4.738   5.935  0.2823 -0.6874  0.0837
  145DOPC  H16Y17303   5.999   4.698   5.944  0.9607 -1.2186  0.4484
  145DOPC  C31717304   6.048   4.872   5.821  0.5266 -0.1344 -0.4467
  145DOPC  H17X17305   5.952   4.927   5.830  0.6007 -0.1404  0.4819
  145DOPC  H17Y17306   6.127   4.949   5.813 -0.8282  1.1342 -2.3400
  145DOPC  C31817307   6.048   4.786   5.692 -0.1248 -0.4166  0.3840
  145DOPC  H18X17308   6.148   4.738   5.691  0.5036  0.7591  2.3726
  145DOPC  H18Y17309   5.974   4.703   5.695  1.1796 -1.6306  0.5765
  145DOPC  H18Z17310   6.040   4.865   5.614  1.5785 -0.2724  0.3050
  146DOPC     N17311   4.007   2.757   7.513  0.4443  0.5811 -0.2267
  146DOPC   C1217312   3.917   2.645   7.467 -0.3293 -0.6412 -0.1925
  146DOPC  H12A17313   3.840   2.628   7.541 -0.4198  2.4027  0.5338
  146DOPC  H12B17314   3.982   2.560   7.453 -0.5022 -0.5632 -1.5642
  146DOPC   C1317315   3.932   2.875   7.555  0.2562  0.4468 -0.3476
  146DOPC  H13A17316   3.998   2.950   7.594 -1.3377  1.0829  1.2616
  146DOPC  H13B17317   3.874   2.921   7.477 -0.0731  0.0543 -0.3382
  146DOPC  H13C17318   3.872   2.848   7.641  1.9253 -2.6002  0.0312
  146DOPC   C1417319   4.094   2.798   7.401  0.3064 -0.0604 -0.4281
  146DOPC  H14A17320   4.021   2.837   7.332 -0.1909 -0.1712  0.0321
  146DOPC  H14B17321   4.164   2.879   7.416 -1.3806  1.6837 -1.5404
  146DOPC  H14C17322   4.139   2.710   7.355  1.3264  0.2207 -0.0060
  146DOPC   C1517323   4.083   2.712   7.636  0.3553  0.8128 -0.1864
  146DOPC  H15A17324   4.169   2.776   7.650 -0.0035  0.9823  1.4286
  146DOPC  H15B17325   4.125   2.614   7.618 -1.5089  0.2782 -1.9007
  146DOPC  H15C17326   4.025   2.697   7.725  0.8088 -0.5417 -0.0956
  146DOPC   C1117327   3.849   2.668   7.334 -0.2312 -0.0252 -0.2412
  146DOPC  H11A17328   3.761   2.602   7.318 -0.9586  0.9636 -0.4271
  146DOPC  H11B17329   3.805   2.770   7.335 -0.2081 -0.0167 -0.1168
  146DOPC     P17330   3.996   2.508   7.198 -0.0057 -0.0030 -0.0308
  146DOPC   O1317331   3.883   2.413   7.210  0.0789  0.2576  0.1687
  146DOPC   O1417332   4.114   2.479   7.283  0.0030  0.7226  0.4283
  146DOPC   O1217333   3.944   2.653   7.226 -0.1250 -0.1456 -0.3538
  146DOPC   O1117334   4.030   2.518   7.045 -0.3322 -0.3862  0.3747
  146DOPC    C117335   4.155   2.559   6.994 -0.2238  0.2045  0.0064
  146DOPC    HA17336   4.223   2.611   7.065  1.1785  0.3207 -1.3554
  146DOPC    HB17337   4.132   2.638   6.919 -1.4579  0.2679  0.4263
  146DOPC    C217338   4.230   2.444   6.927  0.2896 -0.1862 -0.1879
  146DOPC    HS17339   4.320   2.495   6.888 -1.3762  1.6509 -1.8376
  146DOPC   O2117340   4.162   2.388   6.811  0.0297 -0.4701  0.0644
  146DOPC   C2117341   4.164   2.466   6.707 -0.0557  0.6418 -0.6014
  146DOPC   O2217342   4.201   2.583   6.704  0.4800 -0.3461  0.3431
  146DOPC   C2217343   4.127   2.378   6.592  0.9146  0.3369  0.7674
  146DOPC   H2R17344   4.017   2.379   6.577  1.2595  1.7212 -2.5542
  146DOPC   H2S17345   4.159   2.272   6.600  0.2554 -0.3766 -3.4402
  146DOPC    C317346   4.260   2.325   7.021 -0.2781 -0.1602  0.7476
  146DOPC    HX17347   4.167   2.293   7.073 -1.5868  1.1904 -0.6773
  146DOPC    HY17348   4.319   2.370   7.105  0.1088  0.3798  0.1975
  146DOPC   O3117349   4.344   2.222   6.955  0.5627 -0.0910 -0.2893
  146DOPC   C3117350   4.274   2.109   6.937  0.4859  0.0910 -0.0817
  146DOPC   O3217351   4.164   2.086   6.982 -0.1029 -0.4345  0.2315
  146DOPC   C3217352   4.358   2.007   6.852  0.2733 -0.1389  0.2894
  146DOPC   H2X17353   4.463   2.044   6.847  0.7002 -1.4445 -1.0996
  146DOPC   H2Y17354   4.362   1.907   6.900 -0.6702 -0.4555 -0.2682
  146DOPC   C2317355   4.203   2.435   6.469 -0.0362  0.3950  0.0574
  146DOPC   H3R17356   4.313   2.427   6.485  0.0519  1.4799  0.0541
  146DOPC   H3S17357   4.163   2.536   6.447 -1.5950 -0.4818 -1.3807
  146DOPC   C2417358   4.161   2.348   6.354 -0.1899  1.1930 -0.7001
  146DOPC   H4R17359   4.056   2.360   6.320 -0.7850 -1.1528  0.1555
  146DOPC   H4S17360   4.186   2.240   6.358  2.7041  1.7984  0.4113
  146DOPC   C2517361   4.230   2.400   6.223 -0.0620 -0.1745  0.1867
  146DOPC   H5R17362   4.339   2.390   6.240  0.2856 -2.2939 -2.6190
  146DOPC   H5S17363   4.201   2.507   6.210  0.8491 -0.1939 -2.8279
  146DOPC   C2617364   4.196   2.319   6.097 -0.3994  0.1064  0.6786
  146DOPC   H6R17365   4.087   2.322   6.077  0.1099 -0.3593 -2.6803
  146DOPC   H6S17366   4.229   2.214   6.116 -0.0047 -0.2224 -1.6107
  146DOPC   C2717367   4.271   2.367   5.974 -0.2146 -0.4399 -0.0082
  146DOPC   H7R17368   4.374   2.393   6.006 -1.0977  0.6431  2.1470
  146DOPC   H7S17369   4.231   2.469   5.951  2.4897  0.9221  0.9155
  146DOPC   C2817370   4.286   2.269   5.860  0.0445 -0.1710 -0.2488
  146DOPC   H8R17371   4.328   2.172   5.893 -4.0841 -1.7658  0.9704
  146DOPC   H8S17372   4.357   2.316   5.788 -0.7126  2.0254  0.3648
  146DOPC   C2917373   4.157   2.236   5.800  0.2046  0.2659  0.3459
  146DOPC   H9R17374   4.101   2.149   5.839 -2.7923  1.1395 -1.6941
  146DOPC  C21017375   4.096   2.310   5.704 -0.7377 -0.3653 -0.0764
  146DOPC  H10R17376   4.004   2.268   5.661  0.8709 -4.0993 -0.2226
  146DOPC  C21117377   4.155   2.438   5.643 -0.7175  0.6760 -0.3399
  146DOPC  H11R17378   4.249   2.466   5.695 -1.2227 -0.1791  1.0947
  146DOPC  H11S17379   4.090   2.526   5.660  0.8409  1.6327  0.9481
  146DOPC  C21217380   4.189   2.431   5.491  0.7886 -0.2627 -0.0291
  146DOPC  H12R17381   4.238   2.526   5.459 -0.3033  0.2859 -0.1191
  146DOPC  H12S17382   4.099   2.405   5.432  1.7856  0.4566 -1.9890
  146DOPC  C21317383   4.295   2.322   5.451 -0.4154  0.9009 -0.0229
  146DOPC  H13R17384   4.264   2.222   5.489 -0.2992  1.0898  0.5790
  146DOPC  H13S17385   4.393   2.349   5.497  0.8092 -0.5230 -1.6530
  146DOPC  C21417386   4.332   2.314   5.304 -0.0423  0.0656  0.5899
  146DOPC  H14R17387   4.353   2.417   5.266  2.3695 -1.2491 -2.0430
  146DOPC  H14S17388   4.241   2.281   5.249 -0.1098 -2.4668  2.0867
  146DOPC  C21517389   4.451   2.220   5.274  1.0513  1.0177  0.0701
  146DOPC  H15R17390   4.439   2.131   5.339  0.8115  0.1969 -1.0759
  146DOPC  H15S17391   4.549   2.267   5.298  1.8819 -0.2393 -0.7298
  146DOPC  C21617392   4.458   2.176   5.120  0.4392 -0.0313  0.5102
  146DOPC  H16R17393   4.376   2.104   5.099  0.1612  0.9095 -2.0788
  146DOPC  H16S17394   4.556   2.125   5.105  1.4719  2.1315 -0.5862
  146DOPC  C21717395   4.464   2.292   5.021  0.4516 -0.5833 -0.5902
  146DOPC  H17R17396   4.547   2.360   5.053  0.5696 -0.3673 -1.3285
  146DOPC  H17S17397   4.366   2.345   5.022  0.0753 -1.0654  3.0010
  146DOPC  C21817398   4.506   2.251   4.883  0.3597  0.5563 -0.5573
  146DOPC  H18R17399   4.594   2.183   4.873 -1.6018 -1.8399 -3.3421
  146DOPC  H18S17400   4.527   2.343   4.825  1.5502  1.3635  1.0796
  146DOPC  H18T17401   4.421   2.200   4.831  1.7332 -0.8610 -1.5285
  146DOPC   C3317402   4.292   1.980   6.713  0.5212  0.5119  0.0787
  146DOPC   H3X17403   4.187   2.016   6.706  1.1666  2.1965 -1.7904
  146DOPC   H3Y17404   4.274   1.870   6.715 -0.1160  0.6069 -0.0056
  146DOPC   C3417405   4.375   2.030   6.589 -0.4237  0.1020 -0.5062
  146DOPC   H4X17406   4.474   2.040   6.637 -0.9220  0.9971  0.3709
  146DOPC   H4Y17407   4.339   2.131   6.563 -0.4158  0.1668 -0.2652
  146DOPC   C3517408   4.372   1.937   6.476  0.4546  0.5465 -0.2234
  146DOPC   H5X17409   4.284   1.959   6.412 -0.3744  1.6907  1.2438
  146DOPC   H5Y17410   4.360   1.831   6.507 -0.2835  0.1754 -1.6661
  146DOPC   C3617411   4.494   1.957   6.384  0.1011  0.5766  0.0125
  146DOPC   H6X17412   4.519   2.064   6.376  4.8689 -0.1583  1.5203
  146DOPC   H6Y17413   4.584   1.914   6.434  0.0799  1.3031  0.6963
  146DOPC   C3717414   4.466   1.923   6.233  0.6225  0.3461  0.1084
  146DOPC   H7X17415   4.430   1.817   6.233  0.5223  0.3799  0.7958
  146DOPC   H7Y17416   4.386   1.990   6.195 -0.2111 -0.8313 -0.2978
  146DOPC   C3817417   4.593   1.945   6.145  0.1945  0.1925  0.2036
  146DOPC   H8X17418   4.680   1.893   6.189  0.7290  0.8377 -0.0724
  146DOPC   H8Y17419   4.615   2.054   6.152  1.6831 -0.0032 -0.9316
  146DOPC   C3917420   4.566   1.905   6.012  0.7522 -0.6297  0.7554
  146DOPC   H9X17421   4.534   1.801   5.996  1.1325 -0.4988 -1.0724
  146DOPC  C31017422   4.575   1.974   5.895 -0.5608  0.1888 -0.5613
  146DOPC  H10X17423   4.540   1.919   5.806 -1.4268  1.3768 -0.9783
  146DOPC  C31117424   4.624   2.119   5.876  0.0505  0.6024  0.4648
  146DOPC  H11X17425   4.720   2.135   5.929  0.5304  1.2069 -0.5628
  146DOPC  H11Y17426   4.551   2.183   5.929 -2.3652 -0.6984 -1.0669
  146DOPC  C31217427   4.637   2.160   5.728 -0.7965 -1.1741  0.9076
  146DOPC  H12X17428   4.630   2.271   5.717 -1.8790 -1.1847  1.4504
  146DOPC  H12Y17429   4.548   2.122   5.674 -0.6119  0.2353 -0.4875
  146DOPC  C31317430   4.757   2.105   5.646  0.4485 -0.1496  0.1007
  146DOPC  H13X17431   4.848   2.162   5.673  0.8450  0.4093 -2.1936
  146DOPC  H13Y17432   4.774   1.998   5.668  2.1705  0.1667  0.4454
  146DOPC  C31417433   4.738   2.119   5.496  0.2268  0.6666 -0.1388
  146DOPC  H14X17434   4.646   2.068   5.461  1.6135 -0.4478 -2.4415
  146DOPC  H14Y17435   4.726   2.226   5.467  0.0288  1.0427  1.2700
  146DOPC  C31517436   4.847   2.063   5.396 -0.5368 -1.1395 -0.5561
  146DOPC  H15X17437   4.871   1.958   5.425  1.9361 -1.2448 -2.6415
  146DOPC  H15Y17438   4.940   2.121   5.416  0.3025 -2.4943 -0.4059
  146DOPC  C31617439   4.799   2.061   5.254  0.0186  0.1429  0.1791
  146DOPC  H16X17440   4.700   2.011   5.249  0.1378 -0.0837  0.0437
  146DOPC  H16Y17441   4.787   2.160   5.206 -0.0211 -1.3818 -3.2405
  146DOPC  C31717442   4.890   1.968   5.169 -0.2386  0.5010  0.2586
  146DOPC  H17X17443   4.995   1.995   5.192 -0.6143  0.3228  2.3941
  146DOPC  H17Y17444   4.870   1.863   5.200 -1.8576 -0.2879 -2.9722
  146DOPC  C31817445   4.854   1.974   5.015  0.2512  0.0033  0.0908
  146DOPC  H18X17446   4.749   2.003   4.997  1.2176  2.2490 -2.7699
  146DOPC  H18Y17447   4.922   2.046   4.964  2.0108 -2.5735 -1.4414
  146DOPC  H18Z17448   4.863   1.870   4.977 -0.9405 -0.5450  1.2464
  147DOPC     N17449   1.120   2.946   7.660 -0.2274  0.0041 -0.8278
  147DOPC   C1217450   1.064   2.905   7.527  0.7666  0.3545  1.1363
  147DOPC  H12A17451   1.151   2.902   7.463 -0.8511  1.6666 -1.2716
  147DOPC  H12B17452   0.996   2.976   7.483 -0.2486 -0.7310  0.8993
  147DOPC   C1317453   1.011   2.944   7.761 -0.6409  0.0077  0.5556
  147DOPC  H13A17454   0.915   2.989   7.739 -1.4923 -1.3966  1.2825
  147DOPC  H13B17455   0.986   2.841   7.780 -1.0185 -0.1646 -0.7739
  147DOPC  H13C17456   1.035   2.985   7.858  1.2168 -2.0127  1.0162
  147DOPC   C1417457   1.162   3.090   7.636  0.1369  0.8756  0.6435
  147DOPC  H14A17458   1.236   3.095   7.557 -0.2228  0.6747  0.2879
  147DOPC  H14B17459   1.080   3.156   7.613  0.4572  0.7885 -0.8975
  147DOPC  H14C17460   1.213   3.120   7.726 -0.6727 -3.0891  2.6123
  147DOPC   C1517461   1.241   2.865   7.709  0.3113  0.3904 -0.1227
  147DOPC  H15A17462   1.324   2.868   7.640 -1.5143 -0.4791 -2.5030
  147DOPC  H15B17463   1.216   2.763   7.734  0.1085 -0.5176 -3.5459
  147DOPC  H15C17464   1.276   2.907   7.802 -0.0326  0.3471  0.0295
  147DOPC   C1117465   0.987   2.772   7.512 -0.1695 -0.0202  0.3620
  147DOPC  H11A17466   0.963   2.770   7.403  0.1193 -0.0377  0.2980
  147DOPC  H11B17467   1.050   2.684   7.537  0.5970  1.0273  2.2476
  147DOPC     P17468   0.727   2.841   7.559 -0.0228 -0.1242 -0.2603
  147DOPC   O1317469   0.729   2.972   7.628  0.3734  0.2869  0.4042
  147DOPC   O1417470   0.614   2.750   7.589 -0.1626 -0.6350 -0.0499
  147DOPC   O1217471   0.864   2.765   7.582  0.0297 -0.7391  0.4659
  147DOPC   O1117472   0.728   2.873   7.401  0.7031  0.2225  0.5423
  147DOPC    C117473   0.610   2.930   7.338 -0.0672  0.7165  0.1065
  147DOPC    HA17474   0.612   3.039   7.361  1.0003  0.2537  2.4649
  147DOPC    HB17475   0.518   2.887   7.384 -1.4214  0.0392 -2.9655
  147DOPC    C217476   0.611   2.912   7.182  0.1477 -0.2711 -0.5072
  147DOPC    HS17477   0.540   2.986   7.140  0.0725  0.5044  0.9107
  147DOPC   O2117478   0.574   2.775   7.158  0.5379  0.0323 -0.7653
  147DOPC   C2117479   0.516   2.758   7.042 -0.4704 -0.3117  0.9770
  147DOPC   O2217480   0.490   2.845   6.957 -0.4977 -0.0894 -0.0896
  147DOPC   C2217481   0.478   2.606   7.039  0.0079 -0.0220  0.8506
  147DOPC   H2R17482   0.384   2.593   7.097 -0.5543  0.4203  0.0740
  147DOPC   H2S17483   0.559   2.545   7.082  0.7414  0.6097  0.4005
  147DOPC    C317484   0.744   2.944   7.119 -0.3976  0.3107 -0.0138
  147DOPC    HX17485   0.803   2.852   7.141 -1.3094  0.0759  1.5329
  147DOPC    HY17486   0.797   3.028   7.168 -1.2630  0.6166  0.4067
  147DOPC   O3117487   0.733   2.967   6.977 -0.1881 -0.1440  0.0546
  147DOPC   C3117488   0.693   3.095   6.952 -0.7003  0.0557 -0.1731
  147DOPC   O3217489   0.673   3.184   7.031  0.0796  0.7175  0.4083
  147DOPC   C3217490   0.701   3.116   6.800  0.0375  0.8225  0.1248
  147DOPC   H2X17491   0.722   3.225   6.786 -0.5792  0.7264 -1.8302
  147DOPC   H2Y17492   0.792   3.059   6.772  1.1153  1.2453  2.5025
  147DOPC   C2317493   0.479   2.544   6.890  0.0971  0.3352  0.3672
  147DOPC   H3R17494   0.455   2.439   6.918  2.1892  0.1826  1.8484
  147DOPC   H3S17495   0.576   2.564   6.838  0.1030 -0.4442  0.0720
  147DOPC   C2417496   0.374   2.586   6.798 -0.4846 -0.3818  0.0611
  147DOPC   H4R17497   0.358   2.696   6.793  0.0960 -0.3451 -3.7029
  147DOPC   H4S17498   0.272   2.553   6.828 -0.9210  1.2644  0.4568
  147DOPC   C2517499   0.403   2.527   6.662  0.2817  0.5597 -0.3170
  147DOPC   H5R17500   0.427   2.418   6.665 -1.8305  0.0712  2.8790
  147DOPC   H5S17501   0.492   2.572   6.613  0.6173 -1.2487 -1.4686
  147DOPC   C2617502   0.287   2.549   6.558 -0.7633 -0.3297 -0.0100
  147DOPC   H6R17503   0.272   2.660   6.558  1.7826  0.0603 -0.0464
  147DOPC   H6S17504   0.198   2.487   6.582 -0.0466 -1.3497  0.0399
  147DOPC   C2717505   0.326   2.510   6.412 -0.1472  0.1656  0.9344
  147DOPC   H7R17506   0.371   2.409   6.418 -0.4861 -0.0019  0.6843
  147DOPC   H7S17507   0.405   2.581   6.378  0.3668  0.5655  2.8350
  147DOPC   C2817508   0.215   2.511   6.310  0.1817 -0.0167 -0.5083
  147DOPC   H8R17509   0.145   2.427   6.330 -0.2995  0.4071 -0.3880
  147DOPC   H8S17510   0.261   2.479   6.214 -2.2049  0.9790 -2.0819
  147DOPC   C2917511   0.138   2.640   6.286  0.3318  0.0113  0.1042
  147DOPC   H9R17512   0.094   2.689   6.374 -1.6419  1.4202 -1.5562
  147DOPC  C21017513   0.135   2.711   6.175  0.1930 -0.5681 -0.0097
  147DOPC  H10R17514   0.082   2.807   6.171  0.7676 -0.2173  0.5327
  147DOPC  C21117515   0.196   2.687   6.043 -0.6626 -0.6510 -0.5816
  147DOPC  H11R17516   0.276   2.611   6.055 -2.0281 -2.2951 -1.4065
  147DOPC  H11S17517   0.246   2.778   6.005 -2.8878  0.8184 -0.1765
  147DOPC  C21217518   0.099   2.635   5.933 -0.6995  0.5682  0.6685
  147DOPC  H12R17519   0.172   2.609   5.853 -1.3192 -0.7851  0.5291
  147DOPC  H12S17520   0.019   2.711   5.923 -3.6969 -2.6592 -2.8375
  147DOPC  C21317521   0.032   2.498   5.965 -0.0733 -0.4152 -0.9582
  147DOPC  H13R17522  -0.038   2.519   6.049  0.2964  0.5651 -0.8865
  147DOPC  H13S17523   0.108   2.425   6.000  0.1352  0.9026  1.6138
  147DOPC  C21417524  -0.042   2.444   5.844  0.7495 -0.1514  0.5351
  147DOPC  H14R17525  -0.070   2.339   5.866 -2.3397  0.5511  0.4558
  147DOPC  H14S17526   0.023   2.450   5.754 -2.3797 -0.9962 -1.9711
  147DOPC  C21517527  -0.172   2.520   5.808  0.3375  0.1304  0.8149
  147DOPC  H15R17528  -0.147   2.628   5.807  1.3090 -0.0508  2.0102
  147DOPC  H15S17529  -0.234   2.524   5.900 -0.5700  1.8556  0.1674
  147DOPC  C21617530  -0.250   2.479   5.682 -0.6485 -0.2550  0.4417
  147DOPC  H16R17531  -0.251   2.368   5.679 -0.5687 -0.3308  2.1383
  147DOPC  H16S17532  -0.195   2.524   5.596  0.6401 -3.0022 -0.2725
  147DOPC  C21717533  -0.392   2.547   5.661  0.5421 -0.2727 -0.5666
  147DOPC  H17R17534  -0.381   2.657   5.649  1.7400 -0.3105  0.0013
  147DOPC  H17S17535  -0.449   2.527   5.754  1.1735 -1.3984 -0.4037
  147DOPC  C21817536  -0.461   2.481   5.545  0.4866  0.2033  0.2600
  147DOPC  H18R17537  -0.564   2.522   5.536  1.7497  3.2595 -2.2033
  147DOPC  H18S17538  -0.466   2.372   5.562 -1.4713 -0.0310 -1.4762
  147DOPC  H18T17539  -0.414   2.490   5.445  0.2219 -1.9324 -0.1022
  147DOPC   C3317540   0.579   3.071   6.718  0.7575 -0.0345  0.5496
  147DOPC   H3X17541   0.477   3.089   6.757  1.1824  1.3735  1.0896
  147DOPC   H3Y17542   0.583   2.960   6.720  1.5771 -0.0213  0.2253
  147DOPC   C3417543   0.589   3.110   6.570  0.3014  0.0724  0.1710
  147DOPC   H4X17544   0.667   3.067   6.504 -2.5400 -2.4322 -1.8434
  147DOPC   H4Y17545   0.586   3.221   6.560  0.7967 -0.1057 -2.5361
  147DOPC   C3517546   0.458   3.058   6.496  0.0602  0.3819  0.3479
  147DOPC   H5X17547   0.367   3.095   6.549 -0.0218  1.7990 -0.7315
  147DOPC   H5Y17548   0.471   2.948   6.495  0.6133  0.2026  4.9285
  147DOPC   C3617549   0.434   3.128   6.356  0.0667  0.4988  0.2231
  147DOPC   H6X17550   0.417   3.237   6.368 -0.6418  0.1422  3.0687
  147DOPC   H6Y17551   0.528   3.119   6.297 -0.8992  0.9143 -1.4558
  147DOPC   C3717552   0.321   3.058   6.278  0.1567 -0.0026  0.4258
  147DOPC   H7X17553   0.345   2.951   6.261  0.0643 -0.3540  2.2196
  147DOPC   H7Y17554   0.233   3.065   6.345 -2.1118  1.1080 -2.4714
  147DOPC   C3817555   0.298   3.131   6.143 -0.3477 -0.0418  0.6161
  147DOPC   H8X17556   0.274   3.240   6.148  1.6940  0.5079 -0.5669
  147DOPC   H8Y17557   0.210   3.080   6.097 -1.3232  0.5575  1.7342
  147DOPC   C3917558   0.416   3.129   6.053 -0.0545 -0.7602 -0.2246
  147DOPC   H9X17559   0.503   3.079   6.098  0.4509 -0.1654 -0.5141
  147DOPC  C31017560   0.423   3.158   5.922 -0.3908  0.1525  0.5149
  147DOPC  H10X17561   0.513   3.129   5.865  0.8426 -1.4499  3.0865
  147DOPC  C31117562   0.319   3.204   5.831  0.2767  0.0994  1.0406
  147DOPC  H11X17563   0.337   3.313   5.815 -3.2378  0.9690  1.9821
  147DOPC  H11Y17564   0.217   3.193   5.874  0.0599 -2.2354  0.0663
  147DOPC  C31217565   0.318   3.126   5.696 -0.2929  0.0130 -0.3900
  147DOPC  H12X17566   0.420   3.128   5.651  0.7582 -0.4190  1.8270
  147DOPC  H12Y17567   0.245   3.167   5.623 -0.9611 -3.4421 -1.8583
  147DOPC  C31317568   0.258   2.983   5.709 -0.4899 -0.0974 -0.1824
  147DOPC  H13X17569   0.295   2.946   5.807 -1.6255 -1.9883 -0.4191
  147DOPC  H13Y17570   0.148   2.972   5.714 -0.3130 -2.6593 -0.4856
  147DOPC  C31417571   0.314   2.901   5.592 -0.2487  0.2142  0.6729
  147DOPC  H14X17572   0.293   2.937   5.489  0.6986  1.0951  0.7655
  147DOPC  H14Y17573   0.425   2.899   5.604 -0.1467 -1.4438 -0.2059
  147DOPC  C31517574   0.270   2.751   5.616 -0.8453  0.1092  0.3585
  147DOPC  H15X17575   0.159   2.744   5.623 -0.7537  0.1391  4.3827
  147DOPC  H15Y17576   0.308   2.722   5.717  2.7261  1.4571 -0.4424
  147DOPC  C31617577   0.325   2.641   5.521  0.0170  0.3345 -0.5884
  147DOPC  H16X17578   0.309   2.679   5.417 -0.4083  0.0008 -0.6469
  147DOPC  H16Y17579   0.435   2.635   5.533  0.4640 -0.3866 -3.8791
  147DOPC  C31717580   0.270   2.502   5.547 -0.0113 -0.0858  0.4990
  147DOPC  H17X17581   0.279   2.478   5.655 -0.1939  1.8295  0.9796
  147DOPC  H17Y17582   0.160   2.506   5.534  0.1422  0.4079 -0.7876
  147DOPC  C31817583   0.317   2.378   5.469  0.8153  0.4006  0.7949
  147DOPC  H18X17584   0.388   2.311   5.523  0.5051 -1.7255 -1.2507
  147DOPC  H18Y17585   0.228   2.319   5.438 -0.4093  0.6868  3.4596
  147DOPC  H18Z17586   0.364   2.418   5.376  2.4179  1.0451  1.8467
  148DOPC     N17587   3.618   5.567   7.031  0.0902 -0.0413 -0.0403
  148DOPC   C1217588   3.678   5.672   6.934 -0.7700 -0.2000 -0.9168
  148DOPC  H12A17589   3.746   5.736   6.988  0.2439  0.4659 -2.8784
  148DOPC  H12B17590   3.605   5.740   6.893 -0.2610  0.7815 -0.2502
  148DOPC   C1317591   3.539   5.467   6.952  0.6762  0.0484  0.9697
  148DOPC  H13A17592   3.492   5.391   7.013  0.3732 -0.2254  0.4061
  148DOPC  H13B17593   3.465   5.506   6.884 -0.1692 -1.3219  1.0571
  148DOPC  H13C17594   3.610   5.416   6.889  1.8451  4.0658 -1.3275
  148DOPC   C1417595   3.539   5.643   7.134  0.0805 -0.0266  0.2472
  148DOPC  H14A17596   3.446   5.683   7.098  0.8465  2.2117  0.5950
  148DOPC  H14B17597   3.508   5.576   7.212 -2.2481  0.7186  0.0182
  148DOPC  H14C17598   3.592   5.726   7.179  0.3669 -0.7845  1.3503
  148DOPC   C1517599   3.729   5.491   7.104 -0.2986 -0.0105 -0.9211
  148DOPC  H15A17600   3.772   5.562   7.173  0.6300 -2.3948  1.0738
  148DOPC  H15B17601   3.801   5.452   7.034  1.4695  1.9673 -0.3166
  148DOPC  H15C17602   3.688   5.412   7.165 -1.7415  0.5274 -1.1344
  148DOPC   C1117603   3.765   5.625   6.817  0.2855  0.1373  0.3292
  148DOPC  H11A17604   3.802   5.714   6.763 -1.4208  1.5359  1.3557
  148DOPC  H11B17605   3.858   5.576   6.854 -0.6856 -1.5378  0.6907
  148DOPC     P17606   3.595   5.600   6.616  0.0395  0.4919 -0.0043
  148DOPC   O1317607   3.475   5.650   6.684  0.3143  0.2638  0.6176
  148DOPC   O1417608   3.581   5.498   6.513 -0.1319 -0.2000  0.2985
  148DOPC   O1217609   3.695   5.549   6.721 -0.1774  0.0038 -0.2850
  148DOPC   O1117610   3.676   5.727   6.557 -0.1233  0.2314  0.0779
  148DOPC    C117611   3.613   5.802   6.455 -0.1755  0.0830 -0.0729
  148DOPC    HA17612   3.669   5.898   6.452  0.2858 -0.2093 -1.0944
  148DOPC    HB17613   3.508   5.825   6.482 -0.9821 -0.9474 -2.1305
  148DOPC    C217614   3.613   5.750   6.309  0.0509  0.2725 -0.2148
  148DOPC    HS17615   3.529   5.677   6.309  0.9519 -0.7962 -0.5219
  148DOPC   O2117616   3.742   5.687   6.292  0.1381  0.0108  0.6363
  148DOPC   C2117617   3.751   5.588   6.201  0.4064 -0.2786  0.7368
  148DOPC   O2217618   3.656   5.539   6.142  0.8078  0.2394 -0.2039
  148DOPC   C2217619   3.881   5.523   6.194 -0.6106 -0.1372  0.2801
  148DOPC   H2R17620   3.956   5.566   6.264  0.9910 -2.4916  0.1176
  148DOPC   H2S17621   3.922   5.548   6.094  2.7367  0.8199  1.7284
  148DOPC    C317622   3.596   5.862   6.207  0.1820  0.0501  0.6344
  148DOPC    HX17623   3.698   5.906   6.209  1.2274 -2.1869 -0.1882
  148DOPC    HY17624   3.510   5.929   6.228  0.1469  0.1465  0.2045
  148DOPC   O3117625   3.571   5.809   6.075  0.5807  0.0663  0.1039
  148DOPC   C3117626   3.444   5.778   6.047 -0.9296 -0.0813  0.2855
  148DOPC   O3217627   3.351   5.764   6.124  0.1705  0.3501  0.4743
  148DOPC   C3217628   3.438   5.758   5.898  0.0516 -0.5906 -0.3418
  148DOPC   H2X17629   3.414   5.857   5.852  1.5758  0.2533  0.6120
  148DOPC   H2Y17630   3.537   5.722   5.866 -0.4561 -2.4463  0.0395
  148DOPC   C2317631   3.876   5.372   6.223 -0.4595  0.0991  0.8016
  148DOPC   H3R17632   3.803   5.326   6.154 -1.4066  1.7413  0.6650
  148DOPC   H3S17633   3.842   5.352   6.327  0.2782  0.1637  1.0611
  148DOPC   C2417634   4.018   5.308   6.204  0.7146  0.2354  0.1651
  148DOPC   H4R17635   4.080   5.354   6.284  1.0277 -0.6062  0.4219
  148DOPC   H4S17636   4.046   5.347   6.104 -0.8415  0.2640 -0.2840
  148DOPC   C2517637   4.020   5.150   6.223 -0.3965 -0.2406  0.1592
  148DOPC   H5R17638   4.085   5.114   6.140 -2.4794 -0.0121 -1.6601
  148DOPC   H5S17639   3.912   5.125   6.215 -1.4804  2.9461  2.8030
  148DOPC   C2617640   4.088   5.107   6.356 -0.2440  0.1581  0.7227
  148DOPC   H6R17641   4.076   5.189   6.430 -2.1617 -0.2526  0.8993
  148DOPC   H6S17642   4.198   5.094   6.339 -0.6287  0.2262 -2.5209
  148DOPC   C2717643   4.026   4.976   6.423  0.0876  0.5836  0.8228
  148DOPC   H7R17644   4.027   4.891   6.352  2.9265 -1.4781  3.0528
  148DOPC   H7S17645   3.917   4.992   6.436 -0.1013 -0.4801  0.6105
  148DOPC   C2817646   4.093   4.923   6.550 -0.4021  0.0479 -0.0992
  148DOPC   H8R17647   4.040   4.832   6.587  1.2002 -1.1670 -0.6460
  148DOPC   H8S17648   4.092   5.013   6.614  0.2513  2.7099 -3.5179
  148DOPC   C2917649   4.234   4.876   6.532  0.0733 -0.3426 -0.1425
  148DOPC   H9R17650   4.315   4.943   6.564 -1.2143  1.2986 -0.2230
  148DOPC  C21017651   4.275   4.764   6.464  0.0878  0.0826  0.7382
  148DOPC  H10R17652   4.381   4.737   6.473 -0.4800 -2.1073  1.4350
  148DOPC  C21117653   4.196   4.656   6.398  0.5957 -0.8488  0.0896
  148DOPC  H11R17654   4.088   4.668   6.424  0.3507 -0.1923 -1.1460
  148DOPC  H11S17655   4.229   4.563   6.450 -0.8296 -0.8031  1.1484
  148DOPC  C21217656   4.207   4.654   6.244  0.1266  0.6587  0.3022
  148DOPC  H12R17657   4.310   4.629   6.211  0.2746 -0.5454  1.5873
  148DOPC  H12S17658   4.190   4.760   6.213  0.0088  0.6942  0.4833
  148DOPC  C21317659   4.115   4.550   6.180 -0.2215 -0.5418 -0.5248
  148DOPC  H13R17660   4.009   4.577   6.200 -0.4383 -1.6461 -0.1558
  148DOPC  H13S17661   4.146   4.454   6.226  0.5987  0.2942  0.7179
  148DOPC  C21417662   4.126   4.553   6.028  0.1835 -0.2884  0.0934
  148DOPC  H14R17663   4.229   4.520   6.005  0.7614  0.8237  0.9773
  148DOPC  H14S17664   4.122   4.653   5.981  2.4125  1.3233  2.9969
  148DOPC  C21517665   4.025   4.453   5.957  0.8434 -0.0435 -0.1433
  148DOPC  H15R17666   3.922   4.474   5.993  0.5608  1.1459 -1.5626
  148DOPC  H15S17667   4.049   4.349   5.986  0.4282  0.0215  0.4593
  148DOPC  C21617668   4.028   4.485   5.808  0.1139 -0.4146  0.5244
  148DOPC  H16R17669   4.121   4.537   5.778  0.6532 -0.8543  1.4042
  148DOPC  H16S17670   3.950   4.562   5.789  2.0139  1.1866 -1.3427
  148DOPC  C21717671   4.023   4.358   5.720  0.3913 -0.4894 -0.8684
  148DOPC  H17R17672   3.935   4.298   5.751 -0.2672  1.4186  1.1866
  148DOPC  H17S17673   4.121   4.309   5.741 -0.2729 -1.9772 -1.1200
  148DOPC  C21817674   4.019   4.392   5.579 -0.0366  0.0875 -0.1352
  148DOPC  H18R17675   4.012   4.309   5.506 -0.0582  0.7112 -0.8512
  148DOPC  H18S17676   4.110   4.452   5.560  1.0730 -0.9538  1.5813
  148DOPC  H18T17677   3.934   4.458   5.550 -0.8522 -0.4824  0.8950
  148DOPC   C3317678   3.335   5.644   5.843  0.8914  0.0704 -0.0914
  148DOPC   H3X17679   3.237   5.697   5.837 -0.3671 -1.9504  1.3533
  148DOPC   H3Y17680   3.324   5.567   5.922 -0.0866  0.5506  0.2650
  148DOPC   C3417681   3.374   5.569   5.714 -0.3677 -0.4149  0.5469
  148DOPC   H4X17682   3.291   5.509   5.671  0.1769 -0.3099 -0.7156
  148DOPC   H4Y17683   3.459   5.503   5.739  2.3421  3.3613  2.4453
  148DOPC   C3517684   3.434   5.658   5.613  0.3482 -1.0668 -0.1347
  148DOPC   H5X17685   3.534   5.698   5.639 -0.5713  2.5510 -1.5677
  148DOPC   H5Y17686   3.366   5.745   5.598  1.9737 -0.0349 -1.9627
  148DOPC   C3617687   3.454   5.590   5.472 -0.0410  0.2987 -0.3974
  148DOPC   H6X17688   3.531   5.510   5.477  0.3177  0.6630  0.1513
  148DOPC   H6Y17689   3.356   5.542   5.450 -0.6705  1.2426  0.2428
  148DOPC   C3717690   3.487   5.688   5.356 -0.3453 -0.1896  0.5210
  148DOPC   H7X17691   3.394   5.749   5.349  0.3731  0.7754 -1.2103
  148DOPC   H7Y17692   3.583   5.736   5.383  0.2250 -0.6180 -0.6809
  148DOPC   C3817693   3.514   5.620   5.216 -0.2531  0.0699 -0.5506
  148DOPC   H8X17694   3.417   5.567   5.199 -0.3714  0.7637 -2.1749
  148DOPC   H8Y17695   3.604   5.555   5.219  0.2925  0.6493 -2.6566
  148DOPC   C3917696   3.524   5.728   5.106  0.3524  0.2049  0.2998
  148DOPC   H9X17697   3.473   5.825   5.111  0.0696  0.1784 -1.3694
  148DOPC  C31017698   3.583   5.701   4.988  0.4656  0.0113 -0.1682
  148DOPC  H10X17699   3.583   5.778   4.910  1.9617 -0.9893 -1.2105
  148DOPC  C31117700   3.641   5.563   4.952  0.1147  0.1776 -0.4726
  148DOPC  H11X17701   3.571   5.503   4.890  0.7389 -3.0706  1.7292
  148DOPC  H11Y17702   3.675   5.506   5.042  1.2019  0.9324 -0.3863
  148DOPC  C31217703   3.774   5.588   4.868  0.0205 -0.5746 -0.7443
  148DOPC  H12X17704   3.831   5.493   4.878  0.6538 -0.0316  1.2073
  148DOPC  H12Y17705   3.830   5.672   4.914 -2.3691  0.7730 -0.1345
  148DOPC  C31317706   3.751   5.616   4.722 -0.1849 -0.5392  0.5069
  148DOPC  H13X17707   3.848   5.594   4.674 -0.8064 -0.9622 -0.5803
  148DOPC  H13Y17708   3.673   5.549   4.680  0.3789 -0.5327 -0.5653
  148DOPC  C31417709   3.712   5.770   4.689  0.0815  0.1516  1.3577
  148DOPC  H14X17710   3.606   5.780   4.720 -0.4253 -3.6040  1.2918
  148DOPC  H14Y17711   3.788   5.830   4.745  0.3897  0.0651  1.0387
  148DOPC  C31517712   3.720   5.803   4.542  0.1423  0.1466 -0.3138
  148DOPC  H15X17713   3.630   5.757   4.497  1.3332 -0.4211 -2.2473
  148DOPC  H15Y17714   3.801   5.747   4.490 -1.2810 -1.5004 -0.8438
  148DOPC  C31617715   3.736   5.956   4.512 -0.3840  0.3216 -0.0420
  148DOPC  H16X17716   3.661   6.024   4.556 -0.5684 -0.6055  1.1124
  148DOPC  H16Y17717   3.838   5.980   4.549 -0.8910  2.5284  0.0701
  148DOPC  C31717718   3.746   5.981   4.359  0.0248  0.0121  0.1108
  148DOPC  H17X17719   3.794   6.079   4.337  0.0135  0.0061  0.0585
  148DOPC  H17Y17720   3.813   5.903   4.318  0.7343  0.7477 -0.1533
  148DOPC  C31817721   3.611   5.975   4.294  0.6355 -0.5431  0.1847
  148DOPC  H18X17722   3.569   5.873   4.304 -0.0849 -0.3432 -0.6806
  148DOPC  H18Y17723   3.545   6.043   4.352  2.2822  1.2164  0.0897
  148DOPC  H18Z17724   3.612   6.007   4.187 -0.4538  0.4997  0.4591
  149DOPC     N17725   1.260   1.286   7.334  0.4537  0.2691  0.4840
  149DOPC   C1217726   1.266   1.390   7.228  0.0150 -0.0472  0.2684
  149DOPC  H12A17727   1.370   1.401   7.201 -0.1000 -0.5525 -0.3987
  149DOPC  H12B17728   1.252   1.485   7.278  0.7861 -0.3665  1.1374
  149DOPC   C1317729   1.363   1.306   7.433 -0.4028 -0.4048  0.0682
  149DOPC  H13A17730   1.460   1.314   7.387 -0.2354 -1.5628  0.1776
  149DOPC  H13B17731   1.340   1.391   7.495 -3.5038 -0.4703 -0.8255
  149DOPC  H13C17732   1.373   1.221   7.499 -2.3718 -2.3562 -1.9796
  149DOPC   C1417733   1.270   1.149   7.271  0.8476 -0.3368  0.4322
  149DOPC  H14A17734   1.178   1.120   7.223  0.5262 -2.0641  1.9804
  149DOPC  H14B17735   1.350   1.151   7.198 -0.0370  2.4528 -0.5834
  149DOPC  H14C17736   1.285   1.071   7.343  1.5275 -0.3998  0.2342
  149DOPC   C1517737   1.119   1.295   7.401 -0.4945 -0.7474 -0.5507
  149DOPC  H15A17738   1.109   1.391   7.449 -0.4399  0.1367 -2.2476
  149DOPC  H15B17739   1.117   1.221   7.481  0.4301  2.1823  2.4251
  149DOPC  H15C17740   1.043   1.277   7.327 -0.0451  1.6076 -1.6608
  149DOPC   C1117741   1.173   1.379   7.107 -0.0711 -0.3648 -0.2365
  149DOPC  H11A17742   1.214   1.445   7.028  0.6780 -1.6307 -0.9464
  149DOPC  H11B17743   1.192   1.284   7.053 -1.0933  0.8162 -2.8462
  149DOPC     P17744   0.976   1.535   7.192  0.1356  0.3798 -0.3593
  149DOPC   O1317745   1.091   1.616   7.238 -0.8811 -0.4216 -0.4243
  149DOPC   O1417746   0.869   1.505   7.284  0.5036 -0.2398 -0.3557
  149DOPC   O1217747   1.036   1.395   7.141  0.2173 -0.4906  0.1184
  149DOPC   O1117748   0.917   1.600   7.065 -0.2320  0.4037 -0.2578
  149DOPC    C117749   0.920   1.537   6.940  0.1520  0.5593 -0.0006
  149DOPC    HA17750   0.827   1.558   6.884 -0.4733 -0.7361  0.5201
  149DOPC    HB17751   0.929   1.426   6.942  0.2576  0.5697  1.2090
  149DOPC    C217752   1.031   1.600   6.843 -0.3168 -0.1077 -0.0596
  149DOPC    HS17753   1.127   1.592   6.899 -0.6440 -0.3306  0.4799
  149DOPC   O2117754   0.994   1.739   6.827  0.4919  0.3233 -0.0992
  149DOPC   C2117755   1.085   1.816   6.762 -0.3120 -0.1505 -0.3081
  149DOPC   O2217756   1.201   1.779   6.740  0.1911 -0.2092 -0.2938
  149DOPC   C2217757   1.027   1.959   6.746 -0.5529 -0.0995  0.0875
  149DOPC   H2R17758   1.041   2.008   6.845  0.0673  1.1765 -0.6201
  149DOPC   H2S17759   0.917   1.939   6.741 -0.1865 -3.4119  1.9059
  149DOPC    C317760   1.040   1.523   6.708  1.0799 -0.0449 -0.5054
  149DOPC    HX17761   1.081   1.430   6.754  0.3342 -0.3836 -0.5164
  149DOPC    HY17762   1.106   1.575   6.635 -2.3390  2.0726 -2.3314
  149DOPC   O3117763   0.909   1.501   6.647 -0.0357  0.4433 -0.6509
  149DOPC   C3117764   0.896   1.372   6.599  0.5850  0.0026  0.0721
  149DOPC   O3217765   0.984   1.292   6.613  0.0708  0.7664  0.3632
  149DOPC   C3217766   0.772   1.354   6.519  1.1137 -0.3833 -0.1072
  149DOPC   H2X17767   0.692   1.396   6.583 -0.4898 -1.8456 -1.0644
  149DOPC   H2Y17768   0.786   1.408   6.423 -0.4530  1.7979  0.8157
  149DOPC   C2317769   1.080   2.028   6.625 -0.7919 -0.7261 -0.0427
  149DOPC   H3R17770   1.189   2.049   6.626 -0.3691 -2.6807  0.5511
  149DOPC   H3S17771   1.030   2.127   6.618 -0.7583 -0.5532  1.7098
  149DOPC   C2417772   1.045   1.957   6.491 -0.6372 -0.0183 -0.4451
  149DOPC   H4R17773   0.937   1.962   6.468 -0.7591 -0.4190  0.0083
  149DOPC   H4S17774   1.063   1.848   6.499  1.3112  0.2771 -0.3329
  149DOPC   C2517775   1.136   2.000   6.379  0.0719 -0.7472  0.4976
  149DOPC   H5R17776   1.241   1.968   6.399  0.4371  0.9054  1.4233
  149DOPC   H5S17777   1.133   2.111   6.376  1.5653 -0.7052 -0.4857
  149DOPC   C2617778   1.088   1.940   6.242  0.2919 -0.2680 -0.0233
  149DOPC   H6R17779   0.987   1.984   6.226 -0.4517 -1.5837  0.8685
  149DOPC   H6S17780   1.074   1.832   6.261  1.2683 -0.5156 -0.6141
  149DOPC   C2717781   1.176   1.962   6.118 -1.1114 -0.1980 -0.0854
  149DOPC   H7R17782   1.271   1.908   6.141 -1.9916 -2.3023 -1.1922
  149DOPC   H7S17783   1.206   2.069   6.118  2.9695 -1.1452 -1.2205
  149DOPC   C2817784   1.111   1.903   5.985 -0.8736  0.2481  0.1954
  149DOPC   H8R17785   1.061   1.805   6.005  1.8836 -2.0156 -2.9322
  149DOPC   H8S17786   1.197   1.868   5.924 -1.9207 -2.3882  0.0854
  149DOPC   C2917787   1.015   1.995   5.914 -0.0846  0.6204  1.0798
  149DOPC   H9R17788   0.991   2.090   5.964 -2.4985  0.1668  0.9015
  149DOPC  C21017789   0.964   1.975   5.791  0.7370  0.3580 -0.7107
  149DOPC  H10R17790   0.900   2.059   5.760  1.5378  1.4550  0.5153
  149DOPC  C21117791   0.983   1.861   5.694 -0.2425 -0.3141  0.1297
  149DOPC  H11R17792   0.881   1.823   5.670 -0.7928  1.0181  0.2069
  149DOPC  H11S17793   1.035   1.792   5.763  1.0195  0.8487  0.3929
  149DOPC  C21217794   1.065   1.891   5.567 -0.1897  0.8310 -0.5787
  149DOPC  H12R17795   1.105   1.790   5.544 -2.8694 -0.7218  0.9909
  149DOPC  H12S17796   1.139   1.972   5.583 -0.4976  1.1484 -0.7304
  149DOPC  C21317797   0.978   1.936   5.451  0.3489 -0.2196  0.1359
  149DOPC  H13R17798   0.940   2.033   5.489  1.2978  0.1784  0.0901
  149DOPC  H13S17799   0.895   1.864   5.433 -0.9522  1.4488 -0.9144
  149DOPC  C21417800   1.056   1.961   5.318  0.6429 -0.5796 -0.2279
  149DOPC  H14R17801   1.103   1.864   5.292 -0.0818 -0.4500 -2.2722
  149DOPC  H14S17802   1.124   2.045   5.345  0.0161 -0.2497  0.3480
  149DOPC  C21517803   0.960   2.012   5.204  0.0011  0.0928  0.0607
  149DOPC  H15R17804   0.860   1.964   5.205  0.8358 -1.7718 -0.7174
  149DOPC  H15S17805   1.007   1.993   5.104 -1.6072  0.4600 -0.8001
  149DOPC  C21617806   0.949   2.162   5.213 -0.1751 -0.6404 -0.0246
  149DOPC  H16R17807   1.054   2.196   5.223  0.5539 -2.2514 -1.5226
  149DOPC  H16S17808   0.901   2.195   5.307  0.8861 -1.6190  0.8876
  149DOPC  C21717809   0.881   2.220   5.089 -0.1799 -0.4440  0.1857
  149DOPC  H17R17810   0.863   2.326   5.118 -0.3480  0.0286 -1.5169
  149DOPC  H17S17811   0.792   2.157   5.067  1.2224 -2.2127 -0.6333
  149DOPC  C21817812   0.973   2.219   4.961  0.1258  0.2292 -0.3508
  149DOPC  H18R17813   1.056   2.292   4.973  1.0803 -0.9173  0.2355
  149DOPC  H18S17814   0.917   2.267   4.878  0.2425  0.6043 -0.2145
  149DOPC  H18T17815   1.017   2.120   4.940  0.4848  0.0884  0.9768
  149DOPC   C3317816   0.727   1.212   6.475  0.0972  0.1514  0.1317
  149DOPC   H3X17817   0.723   1.146   6.564 -2.1702  0.0826  0.0149
  149DOPC   H3Y17818   0.801   1.158   6.411 -0.1969 -1.2389  0.9320
  149DOPC   C3417819   0.591   1.203   6.401 -0.1269  0.2765 -0.1063
  149DOPC   H4X17820   0.560   1.303   6.366  0.2926  1.3496  2.3682
  149DOPC   H4Y17821   0.522   1.169   6.481  0.6412 -1.0776  0.0128
  149DOPC   C3517822   0.589   1.103   6.283 -0.5943  0.1027  0.3393
  149DOPC   H5X17823   0.588   0.997   6.315  2.7038 -0.1537 -0.0682
  149DOPC   H5Y17824   0.674   1.128   6.217  0.3367  1.1669  1.8829
  149DOPC   C3617825   0.455   1.121   6.206 -0.6315 -0.4711 -0.0435
  149DOPC   H6X17826   0.370   1.088   6.269 -0.0340 -1.5798  0.2076
  149DOPC   H6Y17827   0.438   1.228   6.184 -0.3081 -0.4581 -0.2476
  149DOPC   C3717828   0.448   1.037   6.079 -0.6349  0.2036  0.2375
  149DOPC   H7X17829   0.523   1.066   6.002 -1.8557  0.8907 -0.7378
  149DOPC   H7Y17830   0.472   0.929   6.093 -1.0516  0.2096  1.0172
  149DOPC   C3817831   0.304   1.048   6.022 -1.2182 -0.2370 -0.3131
  149DOPC   H8X17832   0.277   1.155   6.010 -0.3687  0.2351  1.6205
  149DOPC   H8Y17833   0.239   1.012   6.105  0.1902  1.2025  1.4854
  149DOPC   C3917834   0.276   0.973   5.896  0.1153 -0.3497  0.7304
  149DOPC   H9X17835   0.253   0.869   5.923  1.0368 -0.4039  1.3349
  149DOPC  C31017836   0.279   1.019   5.772  0.2465 -0.1242 -0.7209
  149DOPC  H10X17837   0.249   0.951   5.692 -0.0359 -0.1830 -0.5670
  149DOPC  C31117838   0.310   1.157   5.723 -0.3147  0.5281 -0.1834
  149DOPC  H11X17839   0.309   1.233   5.804 -0.5881  1.1280 -0.7411
  149DOPC  H11Y17840   0.236   1.194   5.649 -1.2507  1.8262  1.3334
  149DOPC  C31217841   0.451   1.149   5.669 -0.7140  0.1806 -0.5361
  149DOPC  H12X17842   0.530   1.099   5.729 -0.4624  2.0804  0.8416
  149DOPC  H12Y17843   0.480   1.256   5.665 -2.6526  0.7874  0.4702
  149DOPC  C31317844   0.473   1.097   5.527  0.2308  0.4428  0.4706
  149DOPC  H13X17845   0.444   0.989   5.532 -0.4414  0.5519 -0.6880
  149DOPC  H13Y17846   0.395   1.151   5.469  2.3807  1.2483 -1.8204
  149DOPC  C31417847   0.613   1.120   5.461  0.0105 -0.0985 -0.2694
  149DOPC  H14X17848   0.699   1.087   5.523  1.2517  0.3782 -1.6904
  149DOPC  H14Y17849   0.630   1.051   5.375  0.0550 -0.0091 -0.3318
  149DOPC  C31517850   0.632   1.264   5.425 -0.2305 -0.4132  0.2106
  149DOPC  H15X17851   0.646   1.330   5.513  0.3781 -1.8464  1.2383
  149DOPC  H15Y17852   0.541   1.288   5.366  0.1560 -2.1530 -1.1910
  149DOPC  C31617853   0.768   1.286   5.347  0.7386  0.8459 -0.1530
  149DOPC  H16X17854   0.785   1.394   5.331  1.9225  0.3495 -2.9090
  149DOPC  H16Y17855   0.853   1.248   5.408 -0.2522  1.6101  1.7715
  149DOPC  C31717856   0.762   1.215   5.208 -0.5739  0.1363  0.3033
  149DOPC  H17X17857   0.751   1.108   5.234 -0.1249  0.4470  1.8862
  149DOPC  H17Y17858   0.667   1.242   5.156 -1.4467 -2.2608  0.5282
  149DOPC  C31817859   0.881   1.233   5.120 -0.0067  0.1824 -0.2049
  149DOPC  H18X17860   0.905   1.341   5.107  2.0872  0.1342  2.4761
  149DOPC  H18Y17861   0.971   1.188   5.165  1.5737  3.0806 -0.2200
  149DOPC  H18Z17862   0.866   1.169   5.030  0.0329 -0.0469 -0.0493
  150DOPC     N17863   5.978   4.898   8.030 -0.0856  0.0700 -0.0945
  150DOPC   C1217864   5.883   4.805   8.103  0.3604  0.1006  0.0802
  150DOPC  H12A17865   5.785   4.806   8.058  0.3433 -3.6901 -0.2981
  150DOPC  H12B17866   5.877   4.837   8.206  0.6856  2.8004 -0.6734
  150DOPC   C1317867   5.958   4.881   7.887  0.0655 -0.0252 -0.1864
  150DOPC  H13A17868   5.862   4.916   7.853  0.8939 -0.3016 -3.0998
  150DOPC  H13B17869   6.030   4.940   7.832 -1.3906  2.1649  0.1648
  150DOPC  H13C17870   5.966   4.778   7.855 -1.1428 -0.5528  1.1400
  150DOPC   C1417871   6.119   4.872   8.077 -0.9383  0.1350  0.1341
  150DOPC  H14A17872   6.186   4.946   8.038  0.7839 -1.8283 -0.8309
  150DOPC  H14B17873   6.135   4.871   8.183  3.7136  1.3974 -0.3647
  150DOPC  H14C17874   6.169   4.786   8.033 -1.4966  0.4781 -1.2212
  150DOPC   C1517875   5.946   5.038   8.055  0.6549 -0.3371 -0.1442
  150DOPC  H15A17876   5.854   5.081   8.018  1.2964  1.7733  0.6124
  150DOPC  H15B17877   6.024   5.099   8.012  0.7176 -1.2123 -1.3258
  150DOPC  H15C17878   5.954   5.075   8.156 -0.6344  0.3604 -0.2760
  150DOPC   C1117879   5.920   4.646   8.088  0.6415  0.0677 -0.1668
  150DOPC  H11A17880   6.028   4.633   8.110  0.9114  0.1251 -1.3880
  150DOPC  H11B17881   5.855   4.596   8.162  0.0208  0.1632 -0.6384
  150DOPC     P17882   5.734   4.564   7.920 -0.1254  0.3950 -0.4102
  150DOPC   O1317883   5.639   4.641   7.994 -0.0359  0.3216  0.2050
  150DOPC   O1417884   5.717   4.416   7.923 -0.3864 -0.3006 -0.5180
  150DOPC   O1217885   5.889   4.602   7.959  0.4464 -0.4531  0.0320
  150DOPC   O1117886   5.727   4.611   7.769 -0.4780 -0.2789 -0.3843
  150DOPC    C117887   5.852   4.604   7.694  0.0457  0.2950  0.0269
  150DOPC    HA17888   5.921   4.520   7.720 -0.4462 -0.2340 -0.3610
  150DOPC    HB17889   5.897   4.705   7.705  0.5590  0.0755 -0.0022
  150DOPC    C217890   5.827   4.582   7.542 -0.2106 -0.0890 -0.2409
  150DOPC    HS17891   5.746   4.647   7.503 -1.3941  0.6375  3.1131
  150DOPC   O2117892   5.803   4.441   7.516 -0.2565  0.3212 -0.4494
  150DOPC   C2117893   5.722   4.401   7.418  0.7198  0.3127  0.5497
  150DOPC   O2217894   5.661   4.478   7.348 -0.0679  0.0226  0.7440
  150DOPC   C2217895   5.713   4.245   7.398  0.1748  0.3684 -0.8024
  150DOPC   H2R17896   5.660   4.203   7.487 -1.4869  1.5231 -1.1870
  150DOPC   H2S17897   5.817   4.208   7.401  0.1349  0.3046 -0.1746
  150DOPC    C317898   5.953   4.625   7.462 -0.2790 -0.2099  0.0665
  150DOPC    HX17899   6.042   4.566   7.492 -0.7438  0.0874  2.1889
  150DOPC    HY17900   5.992   4.729   7.463 -4.8093  1.7253  2.0922
  150DOPC   O3117901   5.923   4.590   7.319 -0.1121 -0.1631 -0.0852
  150DOPC   C3117902   5.842   4.676   7.257  0.2038 -1.0764  0.4310
  150DOPC   O3217903   5.801   4.782   7.302 -0.4481 -0.1217 -0.2673
  150DOPC   C3217904   5.814   4.623   7.116  0.1191  0.1261  0.8049
  150DOPC   H2X17905   5.876   4.540   7.077 -0.3226 -0.3695  1.1404
  150DOPC   H2Y17906   5.712   4.580   7.130 -0.9359  2.3912  0.5924
  150DOPC   C2317907   5.649   4.195   7.268  0.3622 -0.6128  0.2967
  150DOPC   H3R17908   5.661   4.268   7.185 -1.5693 -0.6464 -0.0686
  150DOPC   H3S17909   5.539   4.199   7.283 -0.0920 -1.2755 -2.3975
  150DOPC   C2417910   5.688   4.054   7.239  0.1296 -0.6945 -0.0570
  150DOPC   H4R17911   5.680   4.005   7.338 -4.9430 -0.1488  0.0646
  150DOPC   H4S17912   5.792   4.029   7.209  1.0985  1.9232  0.8731
  150DOPC   C2517913   5.592   3.978   7.141 -0.1386 -0.2650  0.3828
  150DOPC   H5R17914   5.487   4.008   7.163  0.1321  0.7145  0.3976
  150DOPC   H5S17915   5.603   3.870   7.165 -1.7307 -0.5577 -0.0574
  150DOPC   C2617916   5.634   3.990   6.987 -0.2390 -0.3539 -0.6234
  150DOPC   H6R17917   5.741   3.962   6.971  0.3256  0.6981  1.0055
  150DOPC   H6S17918   5.628   4.097   6.960 -0.3590 -0.6108 -1.6661
  150DOPC   C2717919   5.539   3.911   6.896 -0.1255  0.6484 -0.2294
  150DOPC   H7R17920   5.436   3.929   6.934 -0.6267  1.2788 -1.8022
  150DOPC   H7S17921   5.559   3.802   6.906 -1.3286  0.4634  0.3280
  150DOPC   C2817922   5.535   3.963   6.748  0.5388  0.8014  0.0406
  150DOPC   H8R17923   5.523   4.073   6.757  3.4899  1.0640  2.8474
  150DOPC   H8S17924   5.447   3.930   6.688 -2.0830  1.6778  3.1162
  150DOPC   C2917925   5.672   3.926   6.680 -0.2361  0.7245  0.0058
  150DOPC   H9R17926   5.760   3.924   6.746 -0.0175  0.3993 -0.2893
  150DOPC  C21017927   5.689   3.863   6.552 -0.4043 -0.2511  0.0029
  150DOPC  H10R17928   5.789   3.832   6.518 -0.6851  0.6272 -1.7498
  150DOPC  C21117929   5.577   3.828   6.453 -0.5411 -0.5240  0.3055
  150DOPC  H11R17930   5.489   3.895   6.465 -0.6051 -0.4021 -0.7409
  150DOPC  H11S17931   5.540   3.723   6.451 -0.4892 -0.5444  0.3962
  150DOPC  C21217932   5.636   3.852   6.314  0.1100 -0.0838  0.2921
  150DOPC  H12R17933   5.565   3.823   6.233  1.0636  0.7332 -0.8718
  150DOPC  H12S17934   5.730   3.796   6.295 -1.2587 -2.2527 -0.4906
  150DOPC  C21317935   5.655   4.006   6.292  0.6627 -0.2225  0.0693
  150DOPC  H13R17936   5.727   4.044   6.368  0.6000  2.8198 -1.2106
  150DOPC  H13S17937   5.555   4.053   6.304 -0.4183 -2.0113 -1.4166
  150DOPC  C21417938   5.707   4.050   6.155  0.1644 -0.4862 -0.0130
  150DOPC  H14R17939   5.800   3.999   6.123  1.6439  1.7769  0.5376
  150DOPC  H14S17940   5.734   4.157   6.157  0.1270 -0.4558 -0.8610
  150DOPC  C21517941   5.611   4.021   6.037 -1.1923 -0.5880  0.3090
  150DOPC  H15R17942   5.519   4.082   6.046  0.1397  1.5536  0.0143
  150DOPC  H15S17943   5.591   3.912   6.032  0.4224 -0.8897 -0.0950
  150DOPC  C21617944   5.674   4.069   5.908  0.3051  0.2770 -0.1666
  150DOPC  H16R17945   5.764   4.009   5.882 -2.0831 -2.9893 -1.6632
  150DOPC  H16S17946   5.697   4.177   5.920 -1.6133  0.7493 -0.4086
  150DOPC  C21717947   5.585   4.054   5.782 -0.3156 -0.3843 -0.1781
  150DOPC  H17R17948   5.493   4.112   5.807  0.3290  0.6430 -0.1248
  150DOPC  H17S17949   5.555   3.947   5.778 -0.8728 -0.2513  0.2424
  150DOPC  C21817950   5.648   4.106   5.651  0.4490  0.1226  0.0196
  150DOPC  H18R17951   5.757   4.086   5.636  0.8062  1.3995  0.7630
  150DOPC  H18S17952   5.631   4.216   5.646 -0.4576 -0.0299 -0.4602
  150DOPC  H18T17953   5.590   4.058   5.569  1.9180 -1.0096 -0.3976
  150DOPC   C3317954   5.800   4.731   7.007  0.2751  0.5842 -0.1661
  150DOPC   H3X17955   5.733   4.808   7.050 -0.9014 -1.1130  1.1962
  150DOPC   H3Y17956   5.756   4.683   6.917  1.1916 -0.9566  0.1522
  150DOPC   C3417957   5.941   4.785   6.970 -0.3754  0.4821  0.8453
  150DOPC   H4X17958   6.016   4.706   6.951 -1.0443  0.1832 -0.6508
  150DOPC   H4Y17959   5.982   4.842   7.056 -0.2536  2.2386 -0.3512
  150DOPC   C3517960   5.918   4.877   6.850 -0.3697 -0.8126  0.4394
  150DOPC   H5X17961   5.844   4.958   6.866  0.9279  0.5215 -0.0574
  150DOPC   H5Y17962   5.878   4.817   6.766  1.6408 -1.1762 -0.3031
  150DOPC   C3617963   6.040   4.955   6.800 -0.1177 -0.0280  0.4022
  150DOPC   H6X17964   6.091   5.013   6.880 -2.1760  0.9335  1.0955
  150DOPC   H6Y17965   6.112   4.877   6.767  0.2438 -0.1706  1.4978
  150DOPC   C3717966   6.006   5.066   6.694 -0.1991  0.2813 -0.3462
  150DOPC   H7X17967   5.911   5.041   6.642  0.0800  0.2343 -0.8386
  150DOPC   H7Y17968   5.984   5.156   6.755  0.6123 -0.2273  0.7496
  150DOPC   C3817969   6.120   5.114   6.599  0.4379  0.5459 -0.7911
  150DOPC   H8X17970   6.075   5.170   6.515  1.7710 -1.2277 -2.7949
  150DOPC   H8Y17971   6.148   5.024   6.541 -2.6323  0.1364 -1.7689
  150DOPC   C3917972   6.238   5.189   6.653 -0.5970  0.0473 -0.4637
  150DOPC   H9X17973   6.314   5.138   6.713 -0.8217  1.2724  0.9164
  150DOPC  C31017974   6.269   5.317   6.636 -0.4285 -0.9092 -0.6200
  150DOPC  H10X17975   6.350   5.365   6.693  0.7473 -1.1613 -2.0205
  150DOPC  C31117976   6.186   5.418   6.560 -0.6270  0.2387 -0.2084
  150DOPC  H11X17977   6.184   5.511   6.621 -1.6337 -0.6595  1.1946
  150DOPC  H11Y17978   6.078   5.393   6.548 -0.9782  1.5459  0.0522
  150DOPC  C31217979   6.250   5.444   6.431  0.7888 -0.9530  0.7241
  150DOPC  H12X17980   6.279   5.357   6.369 -0.5834 -1.2291  0.4399
  150DOPC  H12Y17981   6.349   5.495   6.435  0.0097  0.9128 -1.3764
  150DOPC  C31317982   6.170   5.530   6.333  0.1851  0.1198 -0.4843
  150DOPC  H13X17983   6.072   5.485   6.303  1.0851 -0.9504 -1.9533
  150DOPC  H13Y17984   6.141   5.629   6.376 -1.1180 -0.3219 -0.2875
  150DOPC  C31417985   6.257   5.576   6.205  0.4593  0.9342  0.1591
  150DOPC  H14X17986   6.352   5.611   6.251  0.6927  0.1903  0.2655
  150DOPC  H14Y17987   6.267   5.482   6.146 -0.7007  0.3797  0.8056
  150DOPC  C31517988   6.199   5.691   6.121  0.3652  0.3293  0.6344
  150DOPC  H15X17989   6.165   5.766   6.196 -3.1073 -1.4503  1.0238
  150DOPC  H15Y17990   6.100   5.652   6.090  0.7053 -0.3689  0.4230
  150DOPC  C31617991   6.269   5.742   5.993 -0.1751  0.2023  0.0327
  150DOPC  H16X17992   6.371   5.777   6.020  0.4440 -1.6547  0.2345
  150DOPC  H16Y17993   6.292   5.663   5.918  0.9549  0.6283 -0.0893
  150DOPC  C31717994   6.193   5.852   5.918 -0.1587 -0.7459  0.5470
  150DOPC  H17X17995   6.097   5.806   5.889  0.2422 -1.7043  0.7065
  150DOPC  H17Y17996   6.175   5.942   5.981  2.9389  0.6905 -0.3939
  150DOPC  C31817997   6.264   5.895   5.785  0.1788 -0.1946 -0.2692
  150DOPC  H18X17998   6.265   5.808   5.715  1.5559  0.6629 -1.3743
  150DOPC  H18Y17999   6.210   5.980   5.738 -1.1028 -0.6206  0.4088
  150DOPC  H18Z18000   6.363   5.929   5.823  0.0444 -0.9192  0.7771
  151DOPC     N18001   0.971   3.601   7.438  0.3051 -0.0586  0.4429
  151DOPC   C1218002   1.018   3.719   7.522  0.6277 -0.3488  0.6221
  151DOPC  H12A18003   1.125   3.718   7.503  0.3303  1.2096 -1.4690
  151DOPC  H12B18004   1.012   3.692   7.626  1.1655 -0.6932  0.5684
  151DOPC   C1318005   0.815   3.598   7.437 -0.0004  0.1617 -0.1660
  151DOPC  H13A18006   0.780   3.599   7.540  1.2381  1.8783  0.2927
  151DOPC  H13B18007   0.782   3.690   7.391 -0.8212  0.5654  1.1814
  151DOPC  H13C18008   0.772   3.521   7.376  0.1313 -0.7560  0.8747
  151DOPC   C1418009   1.011   3.468   7.490 -0.6220 -0.5448 -0.7730
  151DOPC  H14A18010   1.118   3.451   7.482 -0.3498  1.1020 -0.9364
  151DOPC  H14B18011   0.983   3.456   7.594  0.2999 -1.7859 -0.6346
  151DOPC  H14C18012   0.977   3.383   7.432  1.1549 -0.8843 -1.3944
  151DOPC   C1518013   1.016   3.608   7.290  0.2968  0.8528  0.5698
  151DOPC  H15A18014   1.122   3.593   7.282  0.0383 -1.2441  0.5958
  151DOPC  H15B18015   1.005   3.709   7.252 -0.0358  0.2052 -1.1092
  151DOPC  H15C18016   0.965   3.537   7.227 -0.6849  0.8052  1.3875
  151DOPC   C1118017   0.947   3.855   7.497 -0.6095 -0.5359  0.4354
  151DOPC  H11A18018   0.841   3.854   7.528 -0.9871  1.5152 -0.6556
  151DOPC  H11B18019   0.990   3.940   7.555  0.3767  0.5169 -1.7019
  151DOPC     P18020   1.049   3.974   7.295  0.3054  0.3635 -0.3441
  151DOPC   O1318021   1.154   3.883   7.260 -0.6197  0.0673 -0.3730
  151DOPC   O1418022   1.082   4.099   7.371  0.0004  0.5352 -0.0294
  151DOPC   O1218023   0.930   3.897   7.361 -0.3792  0.3050 -0.5668
  151DOPC   O1118024   0.977   4.011   7.162  0.0633 -0.2545  0.0011
  151DOPC    C118025   0.839   4.050   7.166  0.0087 -0.4092 -0.6438
  151DOPC    HA18026   0.824   4.125   7.247 -1.1441  2.6908 -3.4984
  151DOPC    HB18027   0.787   3.954   7.182 -1.6403  0.4056 -0.9143
  151DOPC    C218028   0.798   4.133   7.032 -0.0437  0.4788 -0.4971
  151DOPC    HS18029   0.702   4.187   7.045 -1.9998 -2.4352 -1.8308
  151DOPC   O2118030   0.785   4.044   6.923  0.0470  0.2599 -0.4170
  151DOPC   C2118031   0.691   3.958   6.935  0.2310  0.4899  0.3913
  151DOPC   O2218032   0.602   3.957   7.019 -0.1407 -0.0712 -0.2795
  151DOPC   C2218033   0.706   3.851   6.825  0.0576  0.5688  0.4602
  151DOPC   H2R18034   0.614   3.856   6.762  0.2094 -0.1614  0.1667
  151DOPC   H2S18035   0.702   3.756   6.883  3.3535  0.5180  0.7848
  151DOPC    C318036   0.908   4.235   6.999  0.0677 -0.1686  0.5141
  151DOPC    HX18037   1.001   4.174   6.997  1.7163  2.1889  0.6643
  151DOPC    HY18038   0.933   4.297   7.088  1.5203 -1.0615  0.7694
  151DOPC   O3118039   0.895   4.321   6.879  0.3660 -0.5191 -0.5080
  151DOPC   C3118040   0.917   4.269   6.755 -0.2937 -0.5369  0.3995
  151DOPC   O3218041   0.981   4.169   6.731 -0.5494 -0.4383 -0.0566
  151DOPC   C3218042   0.893   4.376   6.654  0.2419 -0.4945  0.0895
  151DOPC   H2X18043   0.799   4.431   6.677  0.2892  0.3975 -1.7063
  151DOPC   H2Y18044   0.969   4.455   6.675 -0.3579 -0.6976  3.6414
  151DOPC   C2318045   0.830   3.841   6.739  0.8868 -1.0608  0.0617
  151DOPC   H3R18046   0.914   3.874   6.804 -1.2998  2.8326  1.2355
  151DOPC   H3S18047   0.827   3.905   6.648  0.7043 -2.1698 -0.7380
  151DOPC   C2418048   0.865   3.696   6.688  0.0074 -0.1758 -0.4996
  151DOPC   H4R18049   0.856   3.623   6.771  0.0296  1.2837  0.8355
  151DOPC   H4S18050   0.975   3.695   6.674  0.0040  0.0258 -0.5446
  151DOPC   C2518051   0.788   3.652   6.565 -0.2782 -0.2041  0.3503
  151DOPC   H5R18052   0.799   3.737   6.493  0.4765 -1.6893 -1.3657
  151DOPC   H5S18053   0.680   3.646   6.588 -0.6439 -3.1748 -1.5477
  151DOPC   C2618054   0.825   3.520   6.499 -0.0077 -0.0432  0.1678
  151DOPC   H6R18055   0.822   3.444   6.581 -0.6809 -0.2401 -0.0397
  151DOPC   H6S18056   0.921   3.516   6.444 -0.9720 -3.0706 -1.5434
  151DOPC   C2718057   0.712   3.488   6.397  0.1660 -1.4210 -0.1658
  151DOPC   H7R18058   0.703   3.575   6.329 -2.1490 -1.3610  0.1429
  151DOPC   H7S18059   0.612   3.474   6.442 -1.5848  1.4946 -2.7763
  151DOPC   C2818060   0.743   3.363   6.309  0.2391  0.2286 -0.1145
  151DOPC   H8R18061   0.660   3.352   6.237  0.2474  0.3050 -0.1358
  151DOPC   H8S18062   0.733   3.276   6.377 -1.4656 -1.2043 -2.1157
  151DOPC   C2918063   0.871   3.364   6.236  0.8104  0.0649 -0.2392
  151DOPC   H9R18064   0.960   3.353   6.300  0.4340  0.5622  0.3769
  151DOPC  C21018065   0.898   3.369   6.108 -0.3650 -0.1355  0.1710
  151DOPC  H10R18066   1.005   3.361   6.084 -0.2463 -3.2439  1.2605
  151DOPC  C21118067   0.792   3.380   6.001 -0.1444 -0.5028  0.5077
  151DOPC  H11R18068   0.689   3.382   6.043 -0.3509 -0.3191 -0.0027
  151DOPC  H11S18069   0.804   3.291   5.935 -0.9345  1.0712 -1.8789
  151DOPC  C21218070   0.812   3.503   5.912 -0.5355 -0.1808 -0.1583
  151DOPC  H12R18071   0.912   3.489   5.866 -1.0662  0.2329 -1.4747
  151DOPC  H12S18072   0.825   3.591   5.978  0.7203 -0.2592 -0.2818
  151DOPC  C21318073   0.702   3.524   5.804  0.0742  0.6707  0.3028
  151DOPC  H13R18074   0.603   3.536   5.853 -0.6778  0.3694 -1.0924
  151DOPC  H13S18075   0.701   3.441   5.730 -0.4461  1.5035 -0.6367
  151DOPC  C21418076   0.735   3.648   5.709  0.1682  0.7892  0.3137
  151DOPC  H14R18077   0.830   3.633   5.654  0.0963  1.9750 -0.1727
  151DOPC  H14S18078   0.730   3.737   5.776 -2.8557  1.9735 -1.2893
  151DOPC  C21518079   0.624   3.677   5.604 -0.0650  0.0840 -0.3916
  151DOPC  H15R18080   0.526   3.698   5.651  0.8483  1.7679  0.8731
  151DOPC  H15S18081   0.615   3.586   5.540 -0.4156 -0.3327  0.2395
  151DOPC  C21618082   0.681   3.788   5.512 -0.1299  0.3163 -0.3551
  151DOPC  H16R18083   0.769   3.836   5.560  0.7702  0.1729 -1.8005
  151DOPC  H16S18084   0.605   3.867   5.489 -1.0830 -0.2080  0.8989
  151DOPC  C21718085   0.741   3.727   5.382  0.1160  0.8063  0.1176
  151DOPC  H17R18086   0.787   3.628   5.401  0.4504  1.0896  0.8350
  151DOPC  H17S18087   0.821   3.801   5.358  1.0155 -0.0086  0.5244
  151DOPC  C21818088   0.648   3.718   5.255 -0.1382 -0.0509 -0.9816
  151DOPC  H18R18089   0.620   3.822   5.226 -1.1640 -0.7035 -2.4607
  151DOPC  H18S18090   0.552   3.670   5.283 -1.3785  1.7722 -1.9172
  151DOPC  H18T18091   0.694   3.665   5.168  0.0093  0.5134 -1.2540
  151DOPC   C3318092   0.909   4.327   6.505  0.4677 -0.0096 -0.3423
  151DOPC   H3X18093   1.006   4.277   6.488 -0.3085 -2.1862  1.1934
  151DOPC   H3Y18094   0.895   4.414   6.438  1.6065  2.6974  2.6441
  151DOPC   C3418095   0.805   4.219   6.459 -0.1876 -1.1878 -0.1186
  151DOPC   H4X18096   0.805   4.138   6.535  0.6843 -0.1543  1.0251
  151DOPC   H4Y18097   0.828   4.175   6.360 -3.5923 -0.5937 -1.3077
  151DOPC   C3518098   0.658   4.267   6.445  0.2252 -0.8986  0.4299
  151DOPC   H5X18099   0.651   4.328   6.353 -2.0492 -1.8999 -0.1410
  151DOPC   H5Y18100   0.629   4.324   6.535 -2.7415 -2.3799  0.5285
  151DOPC   C3618101   0.558   4.158   6.434  0.2272 -0.0056 -0.0819
  151DOPC   H6X18102   0.456   4.200   6.420  0.3377  0.1016 -0.5781
  151DOPC   H6Y18103   0.591   4.101   6.345  0.1177  0.1792 -0.2427
  151DOPC   C3718104   0.540   4.069   6.561 -0.4286  0.5620 -0.2202
  151DOPC   H7X18105   0.644   4.031   6.572 -0.8817 -0.1321  2.1812
  151DOPC   H7Y18106   0.527   4.128   6.654  2.1947 -1.1597  1.3940
  151DOPC   C3818107   0.438   3.960   6.534  0.0510 -0.2113 -0.3944
  151DOPC   H8X18108   0.341   4.007   6.510 -0.1958 -0.4983  0.0213
  151DOPC   H8Y18109   0.424   3.904   6.629 -1.0738  1.3506  0.4057
  151DOPC   C3918110   0.476   3.867   6.421 -0.5698  0.0461  0.2848
  151DOPC   H9X18111   0.579   3.828   6.420 -0.4688 -0.0097  3.3572
  151DOPC  C31018112   0.399   3.839   6.311 -0.4386 -0.2660 -0.7748
  151DOPC  H10X18113   0.445   3.770   6.238  0.8536  0.3479 -0.5766
  151DOPC  C31118114   0.261   3.886   6.275 -0.3331 -0.0804  0.0104
  151DOPC  H11X18115   0.262   3.941   6.179 -2.0169  1.5834  0.8834
  151DOPC  H11Y18116   0.227   3.955   6.356  1.2649  1.9442 -0.9631
  151DOPC  C31218117   0.166   3.771   6.253 -0.6520  0.0933 -0.3240
  151DOPC  H12X18118   0.070   3.822   6.232 -1.1089 -0.4770  0.3116
  151DOPC  H12Y18119   0.161   3.708   6.345 -0.1568 -2.7778 -2.1378
  151DOPC  C31318120   0.210   3.677   6.137 -0.4535  0.6369  0.3328
  151DOPC  H13X18121   0.311   3.639   6.162 -0.4547  1.1992  1.2476
  151DOPC  H13Y18122   0.147   3.586   6.126 -0.7233  0.7576  0.8332
  151DOPC  C31418123   0.222   3.745   5.995 -0.2281  0.1111  0.0133
  151DOPC  H14X18124   0.133   3.812   5.984 -0.8372 -0.6365  0.2752
  151DOPC  H14Y18125   0.314   3.807   6.000 -0.2014  0.1903 -1.1194
  151DOPC  C31518126   0.226   3.637   5.892 -0.6362  0.5850 -0.8379
  151DOPC  H15X18127   0.150   3.560   5.916 -3.0263  2.2630 -2.5721
  151DOPC  H15Y18128   0.330   3.598   5.902 -1.0619 -0.0116  1.8482
  151DOPC  C31618129   0.198   3.689   5.745 -0.3295  0.2209  0.6769
  151DOPC  H16X18130   0.092   3.725   5.751 -0.2379  0.3912  1.4392
  151DOPC  H16Y18131   0.263   3.774   5.714 -2.3514  1.3597 -0.7081
  151DOPC  C31718132   0.219   3.581   5.639 -0.1636  0.1778 -0.1680
  151DOPC  H17X18133   0.320   3.537   5.652 -0.0956  0.1861 -0.6491
  151DOPC  H17Y18134   0.140   3.504   5.650  0.7777 -0.8201 -0.2578
  151DOPC  C31818135   0.200   3.626   5.493 -0.5679  0.5183 -0.1544
  151DOPC  H18X18136   0.114   3.696   5.497 -0.8444  0.4919 -3.2244
  151DOPC  H18Y18137   0.288   3.689   5.464  1.0563 -0.4238  2.4168
  151DOPC  H18Z18138   0.187   3.539   5.426 -1.4730  0.7960 -0.3471
  152DOPC     N18139   3.936   0.594   7.645  0.3208 -0.3515 -0.2586
  152DOPC   C1218140   3.994   0.551   7.516  0.5108 -0.5386  0.6366
  152DOPC  H12A18141   4.010   0.445   7.504  0.7783 -0.4107 -0.2026
  152DOPC  H12B18142   4.094   0.590   7.506  0.1746  0.1664 -0.2237
  152DOPC   C1318143   4.034   0.558   7.762  0.0830 -0.4636  0.5465
  152DOPC  H13A18144   3.972   0.553   7.850 -1.8684 -1.9227 -0.7915
  152DOPC  H13B18145   4.063   0.454   7.763 -0.7084 -0.7047  0.0500
  152DOPC  H13C18146   4.112   0.632   7.773 -1.9588  2.1683 -1.2939
  152DOPC   C1418147   3.804   0.516   7.664 -0.3457  0.5847  0.0585
  152DOPC  H14A18148   3.735   0.530   7.583 -1.1090  0.0918  0.6065
  152DOPC  H14B18149   3.819   0.409   7.671  1.2397  0.7622 -0.2490
  152DOPC  H14C18150   3.758   0.548   7.756  1.2973 -0.1396  1.1917
  152DOPC   C1518151   3.896   0.730   7.653  0.1690  0.3243 -0.3109
  152DOPC  H15A18152   3.981   0.794   7.633  1.5037 -1.3345 -0.1249
  152DOPC  H15B18153   3.849   0.753   7.747 -0.9982 -1.8705 -0.2978
  152DOPC  H15C18154   3.825   0.754   7.575  1.3417  1.2904 -1.1236
  152DOPC   C1118155   3.915   0.609   7.385  0.9166 -0.0776 -0.3760
  152DOPC  H11A18156   3.912   0.719   7.397  3.0038 -0.1599  1.6422
  152DOPC  H11B18157   3.986   0.581   7.304  1.8968 -0.3601  0.5478
  152DOPC     P18158   3.740   0.461   7.262 -0.0126  0.0293  0.2405
  152DOPC   O1318159   3.603   0.407   7.277 -0.3719  0.1261 -0.6148
  152DOPC   O1418160   3.846   0.354   7.240 -0.7701 -0.2710  0.1667
  152DOPC   O1218161   3.780   0.552   7.380  0.7324  0.5475 -0.5960
  152DOPC   O1118162   3.746   0.568   7.148  0.1121 -0.1041 -0.3867
  152DOPC    C118163   3.666   0.684   7.137  0.6053 -0.9923  0.0044
  152DOPC    HA18164   3.726   0.775   7.113 -1.1612  0.3058  0.2672
  152DOPC    HB18165   3.622   0.713   7.235 -1.6427 -1.0037 -0.9289
  152DOPC    C218166   3.560   0.667   7.021  0.6671 -0.6783  0.2485
  152DOPC    HS18167   3.513   0.568   7.036  0.5599 -0.5172  1.0439
  152DOPC   O2118168   3.635   0.659   6.898 -0.0129 -0.5498  0.0851
  152DOPC   C2118169   3.558   0.642   6.796  0.1776 -0.5851  0.0078
  152DOPC   O2218170   3.440   0.612   6.799 -0.6510  0.2575  0.2775
  152DOPC   C2218171   3.643   0.645   6.669 -0.3662 -0.2809 -0.8032
  152DOPC   H2R18172   3.687   0.544   6.652 -1.3165 -0.7797 -0.3844
  152DOPC   H2S18173   3.732   0.710   6.684 -0.3251 -0.4024 -0.5018
  152DOPC    C318174   3.449   0.779   7.026 -0.2187 -1.1318  0.4955
  152DOPC    HX18175   3.440   0.811   7.132 -2.3087 -0.2724  0.1180
  152DOPC    HY18176   3.351   0.735   6.996 -0.1204 -0.0604 -1.6232
  152DOPC   O3118177   3.480   0.897   6.942  0.1708 -0.6448 -0.1196
  152DOPC   C3118178   3.385   0.991   6.967 -0.0202  0.7432 -0.4136
  152DOPC   O3218179   3.288   0.970   7.040  0.1055 -0.0197  0.1646
  152DOPC   C3218180   3.424   1.116   6.899  0.3742  0.2757  0.0129
  152DOPC   H2X18181   3.387   1.191   6.973 -0.4238 -1.3678  1.3570
  152DOPC   H2Y18182   3.534   1.119   6.888  0.3754  1.0825  0.1729
  152DOPC   C2318183   3.568   0.699   6.551 -0.6596 -0.0162 -0.4383
  152DOPC   H3R18184   3.553   0.808   6.568 -1.4272 -0.5508  3.2835
  152DOPC   H3S18185   3.463   0.666   6.539 -0.3790 -1.2317  0.2616
  152DOPC   C2418186   3.619   0.656   6.411 -0.6754 -0.5102  1.2524
  152DOPC   H4R18187   3.620   0.545   6.404 -0.0431 -0.4236 -3.5936
  152DOPC   H4S18188   3.724   0.681   6.387 -0.4000 -0.9295  1.9866
  152DOPC   C2518189   3.518   0.692   6.299  0.1342  0.2840 -0.4422
  152DOPC   H5R18190   3.510   0.800   6.274  2.2536  0.6411  0.2313
  152DOPC   H5S18191   3.419   0.670   6.346  0.8351 -0.1358  0.9076
  152DOPC   C2618192   3.521   0.601   6.171 -0.3914 -0.2311 -0.4418
  152DOPC   H6R18193   3.483   0.499   6.192 -0.4334  0.2655  2.2418
  152DOPC   H6S18194   3.627   0.602   6.137 -0.4668  0.7387 -0.6811
  152DOPC   C2718195   3.433   0.663   6.062  0.2479  0.3715 -0.0860
  152DOPC   H7R18196   3.455   0.772   6.059  0.5862  0.3309  0.6227
  152DOPC   H7S18197   3.329   0.641   6.094 -0.0206  0.7800 -0.6634
  152DOPC   C2818198   3.449   0.595   5.927 -0.2521 -0.2941  0.4589
  152DOPC   H8R18199   3.379   0.639   5.853  1.3897  1.9759  0.1368
  152DOPC   H8S18200   3.419   0.488   5.924  0.1535 -0.4292  1.1006
  152DOPC   C2918201   3.589   0.616   5.861 -0.1663 -0.4870  0.0634
  152DOPC   H9R18202   3.672   0.613   5.933  0.2820  1.9949 -0.2577
  152DOPC  C21018203   3.611   0.654   5.731 -0.1004 -0.2524 -0.1702
  152DOPC  H10R18204   3.717   0.666   5.704  0.5147 -0.8542  1.7947
  152DOPC  C21118205   3.511   0.681   5.619  0.0024  0.4981 -0.4686
  152DOPC  H11R18206   3.471   0.784   5.618 -0.5600  0.2807 -1.7635
  152DOPC  H11S18207   3.421   0.619   5.641  1.1990 -0.9205  0.6746
  152DOPC  C21218208   3.560   0.641   5.475  0.8097 -0.2689 -0.4701
  152DOPC  H12R18209   3.606   0.540   5.463  2.3883  0.4162 -0.4065
  152DOPC  H12S18210   3.646   0.703   5.445  0.7787  0.1356  0.2543
  152DOPC  C21318211   3.459   0.659   5.359 -0.2041  0.7254 -0.0335
  152DOPC  H13R18212   3.438   0.766   5.341 -0.8711  0.6881  0.4822
  152DOPC  H13S18213   3.362   0.612   5.385  0.7261 -0.7509  0.9535
  152DOPC  C21418214   3.512   0.590   5.234 -0.3639  0.2278  0.3094
  152DOPC  H14R18215   3.518   0.480   5.247 -0.0975  0.3363  1.2006
  152DOPC  H14S18216   3.615   0.615   5.200 -1.0775  0.8715 -1.4551
  152DOPC  C21518217   3.417   0.607   5.114 -0.1352 -0.8163  0.4747
  152DOPC  H15R18218   3.391   0.714   5.099 -1.7634 -1.0323  1.4602
  152DOPC  H15S18219   3.324   0.552   5.140 -1.1209 -1.0060 -2.9025
  152DOPC  C21618220   3.464   0.552   4.982 -0.0860 -0.1310 -0.4936
  152DOPC  H16R18221   3.505   0.451   5.004 -1.0672 -0.1149  1.6726
  152DOPC  H16S18222   3.542   0.626   4.955 -1.6101  1.4178 -0.8863
  152DOPC  C21718223   3.346   0.544   4.883  0.0218 -0.0821  0.6080
  152DOPC  H17R18224   3.258   0.492   4.928  1.7109 -2.9992  0.8397
  152DOPC  H17S18225   3.384   0.475   4.804 -0.7883 -0.6241  0.6809
  152DOPC  C21818226   3.317   0.681   4.822  0.1473 -0.0274  0.2025
  152DOPC  H18R18227   3.261   0.744   4.895  2.6620  1.4994  0.9343
  152DOPC  H18S18228   3.258   0.677   4.729 -0.6455  0.8829  0.6546
  152DOPC  H18T18229   3.415   0.729   4.801  1.5838 -2.1270  1.6836
  152DOPC   C3318230   3.351   1.141   6.771 -0.0641  0.5021  0.4854
  152DOPC   H3X18231   3.377   1.245   6.743 -0.8245  0.1168 -1.9056
  152DOPC   H3Y18232   3.242   1.129   6.788 -0.8066  3.8993 -1.0962
  152DOPC   C3418233   3.402   1.071   6.643  0.3269 -0.4798  0.7358
  152DOPC   H4X18234   3.393   0.960   6.650  3.5201 -0.9000 -0.1360
  152DOPC   H4Y18235   3.505   1.108   6.625 -0.1167  0.5658  0.3131
  152DOPC   C3518236   3.334   1.119   6.512 -0.9005  0.0292 -0.4394
  152DOPC   H5X18237   3.347   1.229   6.500  3.1920 -0.5239 -2.8649
  152DOPC   H5Y18238   3.225   1.098   6.525 -0.9111 -0.7650 -1.6946
  152DOPC   C3618239   3.372   1.048   6.384  0.2294  0.6191  0.4270
  152DOPC   H6X18240   3.482   1.040   6.365  0.1596  0.7790 -0.0629
  152DOPC   H6Y18241   3.315   0.955   6.365 -0.6614  1.4364 -1.0622
  152DOPC   C3718242   3.335   1.140   6.260  0.0275 -0.4767  0.2061
  152DOPC   H7X18243   3.238   1.189   6.283  1.1364  2.0646 -0.1210
  152DOPC   H7Y18244   3.405   1.225   6.248  1.7667 -1.9365 -0.4479
  152DOPC   C3818245   3.324   1.068   6.124  0.4427  0.0299  0.4624
  152DOPC   H8X18246   3.273   0.972   6.148  1.1944 -0.9749 -1.6750
  152DOPC   H8Y18247   3.425   1.036   6.090 -0.1280 -1.1159 -0.2177
  152DOPC   C3918248   3.257   1.146   6.010 -0.4246 -0.2746 -0.1885
  152DOPC   H9X18249   3.282   1.254   6.011 -0.2727 -0.2902 -1.1812
  152DOPC  C31018250   3.163   1.113   5.924 -0.0092 -0.3722 -0.4104
  152DOPC  H10X18251   3.129   1.186   5.849 -0.2162 -0.0043  0.0357
  152DOPC  C31118252   3.090   0.979   5.920 -0.0932  0.2329  0.4383
  152DOPC  H11X18253   2.997   0.996   5.978  0.8993  0.9616  1.8614
  152DOPC  H11Y18254   3.143   0.906   5.985  1.1748  2.8642  2.5792
  152DOPC  C31218255   3.049   0.925   5.784  0.1331  0.6196  0.5619
  152DOPC  H12X18256   2.970   0.988   5.738 -0.3110 -0.6316 -0.4651
  152DOPC  H12Y18257   2.985   0.837   5.807  0.2025  0.2328 -0.6344
  152DOPC  C31318258   3.168   0.879   5.694  0.3215 -0.4183 -0.8168
  152DOPC  H13X18259   3.222   0.970   5.662 -1.7197  0.8978 -0.6915
  152DOPC  H13Y18260   3.233   0.823   5.765  1.7760  1.1313 -0.8854
  152DOPC  C31418261   3.128   0.785   5.581  0.7336 -0.2520 -0.1764
  152DOPC  H14X18262   3.041   0.820   5.522  0.0005 -0.9162  0.4889
  152DOPC  H14Y18263   3.212   0.782   5.508  0.4341  3.3750 -0.8636
  152DOPC  C31518264   3.109   0.646   5.633 -0.4687 -0.2402  0.4766
  152DOPC  H15X18265   3.118   0.645   5.744 -1.5102 -0.5123  0.5699
  152DOPC  H15Y18266   3.173   0.567   5.587 -0.1888  0.9119 -1.1838
  152DOPC  C31618267   2.970   0.602   5.607 -0.0855  0.5098  0.1120
  152DOPC  H16X18268   2.948   0.513   5.670  0.1598  1.0170  0.9328
  152DOPC  H16Y18269   2.893   0.680   5.626  2.1268  2.7480  0.3533
  152DOPC  C31718270   2.941   0.549   5.466 -0.3181 -0.8861 -0.4469
  152DOPC  H17X18271   2.943   0.634   5.394  2.5408  0.4952  1.0863
  152DOPC  H17Y18272   3.016   0.472   5.438 -0.3547 -0.5800 -1.4335
  152DOPC  C31818273   2.802   0.492   5.460  0.7228 -0.0073  0.5288
  152DOPC  H18X18274   2.804   0.394   5.513  1.1327 -0.0601  0.4138
  152DOPC  H18Y18275   2.718   0.551   5.503  1.9905  0.4190  2.5449
  152DOPC  H18Z18276   2.778   0.453   5.358  1.1522  0.9810  0.0421
  153DOPC     N18277   5.428   5.951   7.859 -0.2447 -0.2161  0.0659
  153DOPC   C1218278   5.319   5.869   7.797 -0.7678 -0.7555 -1.1191
  153DOPC  H12A18279   5.223   5.907   7.828 -1.4555 -2.1482 -1.4535
  153DOPC  H12B18280   5.317   5.768   7.836 -1.2091  0.0456  1.0530
  153DOPC   C1318281   5.564   5.879   7.846 -0.0686 -0.6160 -0.2116
  153DOPC  H13A18282   5.648   5.942   7.873  0.6801 -1.0155 -1.5099
  153DOPC  H13B18283   5.567   5.788   7.904  0.8626  0.7915  2.1027
  153DOPC  H13C18284   5.584   5.844   7.746 -0.9863 -1.7320 -0.0198
  153DOPC   C1418285   5.401   5.966   8.006 -0.0491  0.0176  0.6789
  153DOPC  H14A18286   5.482   6.007   8.065  0.7805 -0.3165 -0.1937
  153DOPC  H14B18287   5.318   6.032   8.026  0.5905  1.1952 -0.4148
  153DOPC  H14C18288   5.382   5.867   8.046 -1.4070 -0.5478 -1.2166
  153DOPC   C1518289   5.451   6.081   7.791  0.0063 -0.0495 -0.6288
  153DOPC  H15A18290   5.526   6.139   7.842 -0.9889  0.1565  0.6618
  153DOPC  H15B18291   5.360   6.136   7.773  1.0696  1.6217 -1.0856
  153DOPC  H15C18292   5.499   6.065   7.696 -1.7638  1.4578 -1.8262
  153DOPC   C1118293   5.333   5.860   7.643  0.3439 -0.3727 -0.5228
  153DOPC  H11A18294   5.241   5.810   7.605 -0.4490  0.6599  0.0021
  153DOPC  H11B18295   5.326   5.962   7.601 -2.3095 -0.1496  0.2659
  153DOPC     P18296   5.459   5.642   7.543 -0.3526  0.3104 -0.2270
  153DOPC   O1318297   5.404   5.536   7.630  0.6577 -0.0745 -0.2772
  153DOPC   O1418298   5.600   5.620   7.495  0.2587  0.1152 -0.7853
  153DOPC   O1218299   5.454   5.796   7.603  0.4032  0.0795  0.0218
  153DOPC   O1118300   5.370   5.644   7.404  0.0919 -0.2266 -0.1507
  153DOPC    C118301   5.363   5.773   7.324  0.2362  0.1260  0.6936
  153DOPC    HA18302   5.440   5.846   7.356 -1.3813  1.2378  2.2634
  153DOPC    HB18303   5.265   5.824   7.336  0.0483  0.3301 -1.2746
  153DOPC    C218304   5.372   5.740   7.172 -0.1482  0.3007 -0.5171
  153DOPC    HS18305   5.369   5.835   7.114  0.0290 -0.6167 -2.0983
  153DOPC   O2118306   5.254   5.658   7.141 -0.5608  0.4195 -0.2674
  153DOPC   C2118307   5.168   5.706   7.062  0.3280  0.8897 -0.0104
  153DOPC   O2218308   5.175   5.815   7.006 -0.1493 -0.0101  0.0659
  153DOPC   C2218309   5.057   5.598   7.041 -0.4243  0.3416 -0.2990
  153DOPC   H2R18310   4.997   5.602   7.134  0.3643 -0.9073  0.2901
  153DOPC   H2S18311   5.099   5.496   7.028  1.3232  1.1477 -1.4785
  153DOPC    C318312   5.497   5.663   7.126  0.5219 -0.0621 -0.0482
  153DOPC    HX18313   5.488   5.563   7.174  0.4621 -0.2139 -0.3722
  153DOPC    HY18314   5.582   5.713   7.177  1.3824 -0.6400 -0.8991
  153DOPC   O3118315   5.519   5.659   6.983  0.1007  0.5168 -0.1401
  153DOPC   C3118316   5.633   5.623   6.952 -0.3494  0.1979  0.3844
  153DOPC   O3218317   5.725   5.599   7.032  0.8091 -0.6973  0.0617
  153DOPC   C3218318   5.656   5.619   6.796  0.1184 -0.4627  0.1066
  153DOPC   H2X18319   5.557   5.612   6.746 -1.1806 -0.7597  2.5720
  153DOPC   H2Y18320   5.703   5.717   6.774  1.4696 -1.4021 -1.3828
  153DOPC   C2318321   4.948   5.623   6.935 -0.8743  0.0394  0.5461
  153DOPC   H3R18322   4.906   5.724   6.952 -0.5936  0.0783  1.0414
  153DOPC   H3S18323   4.868   5.548   6.952 -1.3176  0.4301  0.2084
  153DOPC   C2418324   4.998   5.596   6.787 -1.2927  0.0085 -0.5992
  153DOPC   H4R18325   5.045   5.495   6.790  1.8907  1.3885  0.1549
  153DOPC   H4S18326   5.084   5.662   6.765 -1.7060  0.8444  0.2260
  153DOPC   C2518327   4.887   5.619   6.688  0.0011 -0.2918  0.1733
  153DOPC   H5R18328   4.854   5.724   6.677  0.1270 -0.4044 -1.3964
  153DOPC   H5S18329   4.799   5.568   6.732 -1.0706  0.5470 -0.9414
  153DOPC   C2618330   4.917   5.563   6.549  0.3430 -0.3051  0.0246
  153DOPC   H6R18331   4.934   5.455   6.568  1.6853  0.0126  0.7808
  153DOPC   H6S18332   5.013   5.596   6.503  0.0794 -0.5763 -0.7397
  153DOPC   C2718333   4.798   5.583   6.455  0.2293  0.0767  0.3062
  153DOPC   H7R18334   4.790   5.689   6.424 -0.4377 -0.3446 -1.0682
  153DOPC   H7S18335   4.703   5.564   6.510  0.1615  1.4623  0.6951
  153DOPC   C2818336   4.803   5.502   6.325 -0.3958  0.5367  0.2052
  153DOPC   H8R18337   4.698   5.514   6.291 -0.1678 -0.7271 -1.0545
  153DOPC   H8S18338   4.809   5.394   6.351 -3.4492  0.5656  1.4129
  153DOPC   C2918339   4.906   5.554   6.225  0.7106  0.1475 -1.4113
  153DOPC   H9R18340   5.007   5.579   6.262  0.1311  0.9827 -0.3381
  153DOPC  C21018341   4.884   5.592   6.100 -0.5925 -0.3080  0.3955
  153DOPC  H10R18342   4.975   5.621   6.045 -0.5692 -2.7344 -1.0052
  153DOPC  C21118343   4.755   5.582   6.029  0.5441  0.0554 -0.1438
  153DOPC  H11R18344   4.694   5.673   6.045  1.4867  1.2615 -2.8737
  153DOPC  H11S18345   4.689   5.501   6.065 -0.6192  1.1834  0.3279
  153DOPC  C21218346   4.749   5.585   5.880 -1.3359 -0.3255 -0.5523
  153DOPC  H12R18347   4.796   5.671   5.829  0.1663 -0.2208  0.9428
  153DOPC  H12S18348   4.643   5.592   5.848 -1.3968 -0.2845 -0.3387
  153DOPC  C21318349   4.819   5.457   5.829  0.1241 -0.1079 -0.3813
  153DOPC  H13R18350   4.795   5.380   5.905  1.3282 -0.8687 -0.7279
  153DOPC  H13S18351   4.928   5.475   5.847  0.3003 -0.3579 -1.1545
  153DOPC  C21418352   4.780   5.417   5.690 -0.1473 -0.6142  0.2405
  153DOPC  H14R18353   4.674   5.386   5.702  0.0025 -0.8968  0.8979
  153DOPC  H14S18354   4.834   5.326   5.657 -1.3765 -0.8698 -1.2286
  153DOPC  C21518355   4.789   5.533   5.588  0.5653 -0.2468  0.0128
  153DOPC  H15R18356   4.741   5.625   5.628 -0.2200  0.0755 -1.5959
  153DOPC  H15S18357   4.745   5.499   5.493  1.1856 -0.3136 -0.2589
  153DOPC  C21618358   4.929   5.582   5.558  0.4693  0.4244 -0.8921
  153DOPC  H16R18359   4.987   5.493   5.524 -2.4663 -1.8986 -0.2985
  153DOPC  H16S18360   4.970   5.612   5.657 -0.6333 -1.6163  0.2471
  153DOPC  C21718361   4.920   5.694   5.454  0.2279 -0.0280 -0.4470
  153DOPC  H17R18362   4.870   5.778   5.508 -1.3374 -1.8120  1.0359
  153DOPC  H17S18363   4.855   5.661   5.370  2.1182 -1.0370 -1.5667
  153DOPC  C21818364   5.059   5.738   5.410  0.3449  0.2356  0.0974
  153DOPC  H18R18365   5.122   5.649   5.391  1.9451  1.1120  1.0385
  153DOPC  H18S18366   5.110   5.805   5.483  0.2853  2.6789 -1.9395
  153DOPC  H18T18367   5.052   5.805   5.321  1.1864  1.7836  1.1341
  153DOPC   C3318368   5.760   5.515   6.744 -0.1702  0.2012  0.2257
  153DOPC   H3X18369   5.724   5.412   6.766  0.1915  0.1838  0.7530
  153DOPC   H3Y18370   5.857   5.534   6.794 -0.1366 -0.3235  0.3659
  153DOPC   C3418371   5.773   5.513   6.593 -0.3387 -0.4525 -0.6983
  153DOPC   H4X18372   5.862   5.452   6.570  0.4710  0.8496 -1.1156
  153DOPC   H4Y18373   5.810   5.610   6.552 -0.6004 -0.9577 -2.2175
  153DOPC   C3518374   5.653   5.479   6.512 -0.5188  0.6006 -0.4979
  153DOPC   H5X18375   5.585   5.567   6.505  0.8309  1.8733  1.3408
  153DOPC   H5Y18376   5.599   5.403   6.573 -0.9492  1.5106  0.2923
  153DOPC   C3618377   5.671   5.427   6.365  0.3238 -1.1691  0.0730
  153DOPC   H6X18378   5.762   5.365   6.351  1.2966  0.2752 -0.1405
  153DOPC   H6Y18379   5.579   5.368   6.344  0.0063 -1.0738  1.1289
  153DOPC   C3718380   5.679   5.528   6.252 -0.4783 -0.2441 -0.8289
  153DOPC   H7X18381   5.592   5.598   6.254 -0.9238 -0.7856  0.4404
  153DOPC   H7Y18382   5.762   5.595   6.281  0.5844 -1.1529 -1.7113
  153DOPC   C3818383   5.704   5.476   6.116  0.1063  0.2583  0.0304
  153DOPC   H8X18384   5.787   5.403   6.128 -0.4899 -0.2757  1.0745
  153DOPC   H8Y18385   5.723   5.573   6.067 -2.9927  0.7749 -0.3599
  153DOPC   C3918386   5.577   5.419   6.059 -0.0484 -0.0833  0.8322
  153DOPC   H9X18387   5.492   5.489   6.054 -0.2894 -0.4539 -2.1766
  153DOPC  C31018388   5.560   5.297   6.028 -0.6788  0.2698  0.0049
  153DOPC  H10X18389   5.461   5.258   6.001 -1.1987  1.4714  0.0902
  153DOPC  C31118390   5.663   5.185   6.040 -0.2037  0.8351  0.3431
  153DOPC  H11X18391   5.663   5.140   6.141 -0.0337 -0.5584 -0.2625
  153DOPC  H11Y18392   5.767   5.224   6.031  0.3295  0.0511  2.4733
  153DOPC  C31218393   5.637   5.070   5.941  0.1875  0.7388  0.3499
  153DOPC  H12X18394   5.728   5.008   5.956 -0.0622  0.6151  1.4031
  153DOPC  H12Y18395   5.619   5.120   5.843 -1.3162  0.4036  0.4281
  153DOPC  C31318396   5.513   4.987   5.970  0.0573 -0.6924 -0.4040
  153DOPC  H13X18397   5.524   4.947   6.073  0.4523  0.2942 -0.0577
  153DOPC  H13Y18398   5.427   5.056   5.978  1.8824  1.6322  0.3337
  153DOPC  C31418399   5.490   4.896   5.847  0.2829  0.5230  0.5517
  153DOPC  H14X18400   5.501   4.958   5.756 -0.3221 -0.1094  0.0357
  153DOPC  H14Y18401   5.570   4.820   5.860 -2.3444 -2.4424  0.4395
  153DOPC  C31518402   5.360   4.813   5.852  0.4964 -0.2794 -0.0839
  153DOPC  H15X18403   5.286   4.894   5.867  2.7568  2.1751 -1.4734
  153DOPC  H15Y18404   5.367   4.740   5.936  1.6370 -1.2022 -0.9399
  153DOPC  C31618405   5.324   4.742   5.717  0.8365  0.4096 -0.3488
  153DOPC  H16X18406   5.301   4.821   5.642 -1.9693  1.6249  1.6048
  153DOPC  H16Y18407   5.416   4.684   5.694  0.8725 -0.4751  1.7981
  153DOPC  C31718408   5.196   4.658   5.738  0.4263  0.1141  0.5353
  153DOPC  H17X18409   5.206   4.604   5.835 -1.6575  1.6044  1.6568
  153DOPC  H17Y18410   5.106   4.719   5.762  0.6283 -0.8610  4.4277
  153DOPC  C31818411   5.170   4.576   5.618 -0.3067  0.1252  0.3380
  153DOPC  H18X18412   5.200   4.626   5.523  0.7971 -1.3235 -0.1078
  153DOPC  H18Y18413   5.239   4.490   5.622  0.7574  0.9513  0.2265
  153DOPC  H18Z18414   5.063   4.547   5.611 -0.3212  0.5696 -3.4772
  154DOPC     N18415   4.701   2.613   7.931 -0.1590 -1.0013  0.4388
  154DOPC   C1218416   4.811   2.509   7.939  0.2616 -0.2730  0.4246
  154DOPC  H12A18417   4.766   2.414   7.913  0.2160 -0.0685 -0.2613
  154DOPC  H12B18418   4.845   2.496   8.041 -0.3739 -0.1318  0.6568
  154DOPC   C1318419   4.610   2.610   8.052  0.5642  0.2888  0.4087
  154DOPC  H13A18420   4.580   2.509   8.074  0.3664  0.3829  0.5732
  154DOPC  H13B18421   4.654   2.652   8.142 -2.7572  0.9569  1.8651
  154DOPC  H13C18422   4.525   2.671   8.025 -0.2591 -1.2898 -0.6657
  154DOPC   C1418423   4.612   2.598   7.808 -0.1195 -0.3788  0.0533
  154DOPC  H14A18424   4.541   2.679   7.799 -0.8422 -1.0417 -0.3176
  154DOPC  H14B18425   4.671   2.595   7.718 -0.7480 -0.8500 -0.3441
  154DOPC  H14C18426   4.553   2.509   7.823 -0.8132  0.2240  1.0335
  154DOPC   C1518427   4.752   2.754   7.927 -0.0955  0.2244 -0.0792
  154DOPC  H15A18428   4.798   2.771   7.830  0.3115 -1.3003 -0.1785
  154DOPC  H15B18429   4.821   2.780   8.005  2.4105  0.2383 -2.1698
  154DOPC  H15C18430   4.667   2.821   7.933 -0.3275 -0.0085 -0.6540
  154DOPC   C1118431   4.930   2.537   7.843 -0.1884  0.7155  0.5752
  154DOPC  H11A18432   4.982   2.441   7.824  0.0314  0.6938  1.2522
  154DOPC  H11B18433   4.894   2.571   7.744 -2.7199  0.3270  1.3015
  154DOPC     P18434   5.098   2.749   7.822 -0.0388  0.2598 -0.4051
  154DOPC   O1318435   5.240   2.741   7.869  0.0287  0.7205  0.5550
  154DOPC   O1418436   5.034   2.880   7.835 -0.5555  0.4033 -0.4969
  154DOPC   O1218437   5.018   2.636   7.900 -0.1676  0.4349 -0.9270
  154DOPC   O1118438   5.093   2.706   7.670 -0.0088 -0.5713  0.2490
  154DOPC    C118439   5.184   2.616   7.617 -0.7624 -0.0389 -0.0415
  154DOPC    HA18440   5.142   2.514   7.628 -1.3903  0.3873  1.9494
  154DOPC    HB18441   5.278   2.625   7.675 -0.5433 -1.0680 -0.2234
  154DOPC    C218442   5.217   2.625   7.468  0.8470 -0.6522  0.0827
  154DOPC    HS18443   5.296   2.552   7.440  0.1661 -1.6771  0.7693
  154DOPC   O2118444   5.249   2.766   7.440 -0.6601 -0.1337  0.0540
  154DOPC   C2118445   5.379   2.802   7.451  0.2507  0.0865 -0.1279
  154DOPC   O2218446   5.468   2.737   7.500  0.3910  0.2183  0.0658
  154DOPC   C2218447   5.403   2.947   7.414  0.1461 -0.2040  0.3693
  154DOPC   H2R18448   5.514   2.956   7.408  0.1684  0.0562  1.1345
  154DOPC   H2S18449   5.376   3.014   7.498  0.4578  1.4571 -0.7935
  154DOPC    C318450   5.097   2.569   7.382  0.8370 -0.0460  0.0494
  154DOPC    HX18451   5.008   2.634   7.394  0.7901  0.4591 -2.3897
  154DOPC    HY18452   5.077   2.468   7.421  1.0762 -0.0252  0.2252
  154DOPC   O3118453   5.124   2.567   7.244  0.0819  0.4406  0.1578
  154DOPC   C3118454   5.115   2.684   7.178 -0.6558  0.1550  0.3719
  154DOPC   O3218455   5.067   2.791   7.212  0.3741 -0.0470 -0.2678
  154DOPC   C3218456   5.193   2.660   7.048 -0.0799  0.9057 -0.2841
  154DOPC   H2X18457   5.295   2.637   7.086  0.0561  1.4735 -0.2883
  154DOPC   H2Y18458   5.142   2.572   7.004  1.0861 -0.7070  1.4558
  154DOPC   C2318459   5.337   3.001   7.281  0.4949  0.0209  0.2907
  154DOPC   H3R18460   5.229   3.022   7.297  0.1923  0.4333 -2.0441
  154DOPC   H3S18461   5.347   2.920   7.206 -1.1229  0.0169  0.0424
  154DOPC   C2418462   5.411   3.126   7.230  0.0324 -0.3593  1.0037
  154DOPC   H4R18463   5.518   3.096   7.229  0.2756  0.4194 -1.2146
  154DOPC   H4S18464   5.398   3.214   7.296 -0.3402  2.6657 -2.7536
  154DOPC   C2518465   5.358   3.167   7.090 -0.0349 -0.2419 -0.1089
  154DOPC   H5R18466   5.255   3.208   7.080 -0.5210 -1.0044  1.5168
  154DOPC   H5S18467   5.350   3.076   7.027  3.0170  0.3409 -1.5448
  154DOPC   C2618468   5.444   3.268   7.012 -0.3628 -0.0026 -0.0760
  154DOPC   H6R18469   5.548   3.230   7.025  0.0781  0.7164 -1.2847
  154DOPC   H6S18470   5.440   3.364   7.067 -0.3449  1.1711 -2.0175
  154DOPC   C2718471   5.415   3.285   6.862  0.1121 -0.3853 -0.0028
  154DOPC   H7R18472   5.437   3.184   6.822 -0.6991 -0.5338 -0.0943
  154DOPC   H7S18473   5.489   3.360   6.827  0.0631  0.1839  1.0754
  154DOPC   C2818474   5.276   3.336   6.841 -0.1784  0.1704  0.1792
  154DOPC   H8R18475   5.206   3.261   6.883 -1.0034  0.9322  0.1854
  154DOPC   H8S18476   5.271   3.318   6.731  0.4860 -0.0742  0.1853
  154DOPC   C2918477   5.231   3.472   6.882  0.2014 -0.7982  0.6734
  154DOPC   H9R18478   5.269   3.511   6.978  1.3210  0.6704 -0.3209
  154DOPC  C21018479   5.191   3.567   6.794  0.2110  0.5664 -0.1841
  154DOPC  H10R18480   5.153   3.665   6.827 -0.8072 -0.4011  1.7005
  154DOPC  C21118481   5.185   3.552   6.639  0.1406  0.6369 -0.2544
  154DOPC  H11R18482   5.103   3.621   6.609 -0.6299  0.0990  0.5586
  154DOPC  H11S18483   5.155   3.450   6.608  0.0969  0.8556 -0.9419
  154DOPC  C21218484   5.321   3.574   6.573 -0.2283  0.5172  0.1361
  154DOPC  H12R18485   5.398   3.527   6.638 -1.1201 -0.5563  0.4402
  154DOPC  H12S18486   5.341   3.683   6.573 -2.0597  0.8928  0.1057
  154DOPC  C21318487   5.337   3.526   6.426 -0.2663 -0.4739  0.5045
  154DOPC  H13R18488   5.315   3.417   6.424 -0.2446 -0.5171 -3.2402
  154DOPC  H13S18489   5.437   3.553   6.384  0.1511 -0.0421  1.7299
  154DOPC  C21418490   5.230   3.579   6.320  0.4405 -0.5319  0.2199
  154DOPC  H14R18491   5.234   3.689   6.331 -0.0863 -0.6642  1.9547
  154DOPC  H14S18492   5.133   3.547   6.363 -0.0522  0.6780  0.0420
  154DOPC  C21518493   5.257   3.547   6.173 -0.3763  1.1461 -0.5654
  154DOPC  H15R18494   5.266   3.437   6.156  1.0474  1.1663 -0.1196
  154DOPC  H15S18495   5.355   3.588   6.140  0.3841  0.3503  0.6110
  154DOPC  C21618496   5.146   3.599   6.078  0.5983 -0.2716  0.1385
  154DOPC  H16R18497   5.115   3.689   6.136  0.7395 -0.2274  0.1478
  154DOPC  H16S18498   5.065   3.525   6.094  1.9884 -1.8471  0.1332
  154DOPC  C21718499   5.179   3.618   5.935  0.3458 -0.2611  0.4727
  154DOPC  H17R18500   5.087   3.611   5.872  0.5620  1.1909 -0.0490
  154DOPC  H17S18501   5.251   3.537   5.909  1.1182  0.5749 -0.0598
  154DOPC  C21818502   5.234   3.758   5.902  0.3540 -0.5992  0.3376
  154DOPC  H18R18503   5.318   3.739   5.832  0.3769 -1.9309  0.7052
  154DOPC  H18S18504   5.279   3.801   5.994  0.8249  0.8199 -0.5260
  154DOPC  H18T18505   5.161   3.829   5.858 -1.6334 -0.8272  3.0166
  154DOPC   C3318506   5.198   2.781   6.947  0.5824 -0.0169  0.3020
  154DOPC   H3X18507   5.251   2.861   7.002  0.7625  0.3664 -0.4238
  154DOPC   H3Y18508   5.095   2.824   6.941  1.1397  1.3729  0.3058
  154DOPC   C3418509   5.259   2.748   6.812 -0.3412 -0.7272  0.2734
  154DOPC   H4X18510   5.184   2.703   6.744 -1.4131  0.2913  0.7609
  154DOPC   H4Y18511   5.352   2.687   6.825  1.8146  2.1275 -0.6581
  154DOPC   C3518512   5.306   2.882   6.737  0.6756  0.3884 -0.6403
  154DOPC   H5X18513   5.388   2.867   6.663  0.8294  1.8390 -0.7991
  154DOPC   H5Y18514   5.349   2.939   6.822 -1.4679 -0.8442  1.3732
  154DOPC   C3618515   5.190   2.954   6.668 -0.0042  0.3848  0.1198
  154DOPC   H6X18516   5.128   2.886   6.606 -2.6437  2.1782  0.6130
  154DOPC   H6Y18517   5.118   2.985   6.746  0.5690 -0.3212  0.9380
  154DOPC   C3718518   5.231   3.066   6.570  0.1338 -0.2460 -0.4371
  154DOPC   H7X18519   5.140   3.124   6.543 -0.9833 -1.8226 -0.2191
  154DOPC   H7Y18520   5.295   3.137   6.627 -1.6227  1.6855 -0.7258
  154DOPC   C3818521   5.294   3.026   6.433 -0.3311  0.1983 -0.3756
  154DOPC   H8X18522   5.387   2.967   6.444 -0.4752 -0.4848 -2.3779
  154DOPC   H8Y18523   5.325   3.125   6.394  0.0705  0.6085  0.9318
  154DOPC   C3918524   5.193   2.961   6.334 -0.5891  0.9636 -0.5733
  154DOPC   H9X18525   5.155   2.861   6.358 -0.3526  1.6369  3.1949
  154DOPC  C31018526   5.144   3.021   6.220 -0.6125  0.1071 -0.1955
  154DOPC  H10X18527   5.081   2.952   6.162  0.3439 -0.5508 -0.4610
  154DOPC  C31118528   5.164   3.161   6.174 -0.1300 -0.6977  0.1553
  154DOPC  H11X18529   5.246   3.206   6.233 -0.7482 -0.2627  0.6849
  154DOPC  H11Y18530   5.070   3.221   6.169  1.1055  1.3564  0.5100
  154DOPC  C31218531   5.206   3.177   6.024 -0.0798 -0.1277 -0.0855
  154DOPC  H12X18532   5.185   3.284   6.003 -2.1737  0.1111  2.7195
  154DOPC  H12Y18533   5.134   3.117   5.964 -1.6149  0.4084  1.1734
  154DOPC  C31318534   5.350   3.143   6.001 -0.6006 -0.3014  1.1561
  154DOPC  H13X18535   5.406   3.202   6.077 -1.5827 -0.1132  1.7424
  154DOPC  H13Y18536   5.365   3.036   6.026  3.1402 -0.4187 -0.8436
  154DOPC  C31418537   5.399   3.170   5.856 -0.4646 -0.4988  0.1707
  154DOPC  H14X18538   5.331   3.120   5.783 -0.0370 -0.9654  0.0858
  154DOPC  H14Y18539   5.395   3.278   5.833 -1.8552 -0.5273  0.1944
  154DOPC  C31518540   5.541   3.115   5.846  0.4622  0.4053 -0.0192
  154DOPC  H15X18541   5.529   3.007   5.870 -0.4770  0.4367 -0.3332
  154DOPC  H15Y18542   5.610   3.155   5.923  0.7548  1.3857 -0.7598
  154DOPC  C31618543   5.590   3.144   5.708 -0.1760 -0.2592  0.5464
  154DOPC  H16X18544   5.513   3.105   5.638  0.3744  0.6344 -0.5991
  154DOPC  H16Y18545   5.582   3.254   5.692 -3.7310 -0.1718  2.0488
  154DOPC  C31718546   5.725   3.079   5.678 -0.5661 -0.4698  0.5649
  154DOPC  H17X18547   5.709   2.973   5.708 -1.6201  0.2375  2.7018
  154DOPC  H17Y18548   5.732   3.082   5.567 -1.9992 -3.2154  0.3126
  154DOPC  C31818549   5.853   3.141   5.743 -0.5885  0.2331 -0.0641
  154DOPC  H18X18550   5.857   3.127   5.853 -1.1551  1.1614  0.0835
  154DOPC  H18Y18551   5.931   3.084   5.687  0.4575  0.1572  1.4118
  154DOPC  H18Z18552   5.860   3.250   5.721  1.8528 -0.0595 -1.0560
  155DOPC     N18553   1.383   0.366   7.137  0.2522 -0.4566 -0.1996
  155DOPC   C1218554   1.468   0.435   7.032 -0.0074  0.6081  0.8340
  155DOPC  H12A18555   1.485   0.372   6.946  0.4711  1.3877  0.3518
  155DOPC  H12B18556   1.564   0.441   7.081  0.4417  2.5013 -0.2062
  155DOPC   C1318557   1.326   0.474   7.232  0.0644  0.0956  0.6046
  155DOPC  H13A18558   1.278   0.551   7.173 -1.9954  0.9331  3.1777
  155DOPC  H13B18559   1.261   0.416   7.296  0.0058 -1.4224 -0.7390
  155DOPC  H13C18560   1.407   0.514   7.291  1.1755 -2.4450  0.9284
  155DOPC   C1418561   1.479   0.277   7.213 -0.2277 -0.4091 -0.6765
  155DOPC  H14A18562   1.432   0.229   7.298 -2.1060  3.5931  0.8111
  155DOPC  H14B18563   1.525   0.199   7.154  1.4620 -0.6899  0.8955
  155DOPC  H14C18564   1.554   0.335   7.264  0.8541 -1.5819 -0.8950
  155DOPC   C1518565   1.264   0.290   7.081  0.6180 -0.0429 -0.5480
  155DOPC  H15A18566   1.195   0.357   7.032  0.2031  0.7084  1.0211
  155DOPC  H15B18567   1.202   0.245   7.157 -0.2052  1.4796 -0.2755
  155DOPC  H15C18568   1.297   0.226   7.000 -0.4805  1.3017 -2.1281
  155DOPC   C1118569   1.416   0.561   6.967 -0.3431  0.0672  0.8020
  155DOPC  H11A18570   1.408   0.637   7.048 -0.1232 -1.2732  2.1275
  155DOPC  H11B18571   1.490   0.596   6.892 -0.4509  0.4504  0.8712
  155DOPC     P18572   1.254   0.490   6.774 -0.1307  0.3988 -0.3266
  155DOPC   O1318573   1.175   0.599   6.708  0.2066  0.1978 -0.4576
  155DOPC   O1418574   1.206   0.350   6.784  0.0276  0.0264  0.1068
  155DOPC   O1218575   1.286   0.543   6.919  0.2275  0.7613 -0.2100
  155DOPC   O1118576   1.393   0.478   6.707 -0.0161  0.0130  0.0549
  155DOPC    C118577   1.422   0.561   6.594 -0.2066  0.3032 -0.0689
  155DOPC    HA18578   1.533   0.572   6.599 -0.0682  0.9747 -2.8693
  155DOPC    HB18579   1.366   0.656   6.588  0.1246  0.4741 -0.5189
  155DOPC    C218580   1.410   0.472   6.467 -0.3336 -0.7771  0.0320
  155DOPC    HS18581   1.451   0.538   6.388  0.5480 -1.6818 -0.2970
  155DOPC   O2118582   1.276   0.434   6.447  0.2230 -0.4358  0.2313
  155DOPC   C2118583   1.200   0.533   6.418 -0.2087 -0.4534 -1.0317
  155DOPC   O2218584   1.234   0.648   6.390  0.1296  0.2830 -0.2281
  155DOPC   C2218585   1.052   0.484   6.417  0.2562 -0.4897 -0.6893
  155DOPC   H2R18586   1.004   0.484   6.517 -2.9861 -2.0542 -2.1105
  155DOPC   H2S18587   1.055   0.376   6.390 -0.0522 -0.8018  0.4579
  155DOPC    C318588   1.496   0.343   6.479 -0.2220 -0.7255  0.3828
  155DOPC    HX18589   1.470   0.303   6.579 -1.9065 -0.4981  0.0672
  155DOPC    HY18590   1.598   0.388   6.474 -0.6020  0.3242  1.5478
  155DOPC   O3118591   1.460   0.242   6.385  0.3139 -0.3109  0.0015
  155DOPC   C3118592   1.554   0.156   6.361 -0.5337  0.3604  0.0408
  155DOPC   O3218593   1.661   0.156   6.422 -0.5457  0.3289  0.1356
  155DOPC   C3218594   1.506   0.073   6.248 -0.5536  0.0121 -0.0403
  155DOPC   H2X18595   1.420   0.019   6.292  0.6931 -0.3945  2.0029
  155DOPC   H2Y18596   1.477   0.130   6.157  1.0512 -2.0771 -1.9682
  155DOPC   C2318597   0.957   0.556   6.320 -0.0614  0.5285  0.2864
  155DOPC   H3R18598   0.977   0.665   6.319 -0.4979  0.6084 -0.7109
  155DOPC   H3S18599   0.850   0.547   6.348 -0.1634  0.3844 -0.1407
  155DOPC   C2418600   0.960   0.507   6.176 -0.0030 -0.4730 -0.2846
  155DOPC   H4R18601   0.950   0.398   6.163 -1.9078 -0.4639  0.6305
  155DOPC   H4S18602   1.063   0.537   6.147 -0.9684  2.5259 -1.0483
  155DOPC   C2518603   0.858   0.562   6.081 -0.0008 -0.1577 -0.2041
  155DOPC   H5R18604   0.875   0.671   6.069 -1.4172 -0.0819 -1.8512
  155DOPC   H5S18605   0.756   0.525   6.105  0.9276 -3.1103 -0.4103
  155DOPC   C2618606   0.874   0.513   5.941 -0.4432 -0.0335  0.5087
  155DOPC   H6R18607   0.780   0.526   5.884 -0.4897 -0.6874  0.4209
  155DOPC   H6S18608   0.893   0.403   5.942  0.5665  0.1261  0.2466
  155DOPC   C2718609   0.994   0.582   5.869 -0.5474  0.2157  0.0752
  155DOPC   H7R18610   1.087   0.559   5.924 -0.1116 -1.0591 -1.1420
  155DOPC   H7S18611   0.962   0.689   5.877 -2.1690 -0.2131 -0.2380
  155DOPC   C2818612   0.993   0.553   5.723  0.0241  0.3228  0.5703
  155DOPC   H8R18613   0.891   0.558   5.679 -0.0581  0.2874  0.7587
  155DOPC   H8S18614   1.027   0.449   5.702 -0.8444 -0.0714  1.0851
  155DOPC   C2918615   1.091   0.648   5.643  0.1853  0.1747 -0.2504
  155DOPC   H9R18616   1.178   0.688   5.697  1.5018 -3.0487  0.2161
  155DOPC  C21018617   1.066   0.690   5.522 -0.3207  0.6385 -0.2995
  155DOPC  H10R18618   1.140   0.759   5.478  0.0866  1.6233  1.8275
  155DOPC  C21118619   0.949   0.658   5.428 -0.9278  0.3112  0.1069
  155DOPC  H11R18620   0.878   0.584   5.472  0.0224  0.3509  1.7935
  155DOPC  H11S18621   0.992   0.601   5.343 -1.9286  0.2455 -0.3794
  155DOPC  C21218622   0.889   0.776   5.361 -0.2554  0.2078 -0.4435
  155DOPC  H12R18623   0.969   0.819   5.297 -0.9019 -0.2532 -1.5993
  155DOPC  H12S18624   0.851   0.853   5.431  0.9930 -1.3484  2.1072
  155DOPC  C21318625   0.784   0.730   5.258 -0.0755  0.2946 -0.6950
  155DOPC  H13R18626   0.842   0.648   5.211  3.0993  1.8895  0.1361
  155DOPC  H13S18627   0.769   0.813   5.186  2.9490  1.1235 -0.5170
  155DOPC  C21418628   0.649   0.686   5.313  0.3393 -0.2899  0.1740
  155DOPC  H14R18629   0.604   0.755   5.387  0.6041 -0.3151  0.3594
  155DOPC  H14S18630   0.682   0.600   5.375  2.1052 -0.1313 -0.4686
  155DOPC  C21518631   0.549   0.650   5.204  0.1944  0.0058  0.1631
  155DOPC  H15R18632   0.447   0.641   5.246  0.7205  0.8141  1.6942
  155DOPC  H15S18633   0.570   0.553   5.155 -0.1867  0.0885 -0.1691
  155DOPC  C21618634   0.539   0.754   5.094 -0.1828  1.0667  0.1327
  155DOPC  H16R18635   0.466   0.718   5.019  1.3631 -1.4810 -0.2749
  155DOPC  H16S18636   0.635   0.763   5.039  1.2872  2.1104  2.6508
  155DOPC  C21718637   0.490   0.881   5.165 -0.7550  0.5301  0.0634
  155DOPC  H17R18638   0.573   0.920   5.228  0.0210  0.5613 -0.9629
  155DOPC  H17S18639   0.407   0.844   5.229  0.2920  0.3228  1.3325
  155DOPC  C21818640   0.448   0.990   5.063 -0.4529  0.1122 -0.7465
  155DOPC  H18R18641   0.533   1.011   4.994 -0.5987 -0.2440 -1.0399
  155DOPC  H18S18642   0.412   1.086   5.106 -1.0206  0.3603 -1.7594
  155DOPC  H18T18643   0.361   0.953   5.006 -0.9598 -1.5571  0.9820
  155DOPC   C3318644   1.623  -0.026   6.205  0.5515 -0.3794  0.1532
  155DOPC   H3X18645   1.600  -0.096   6.123 -1.1924  0.3986 -0.0683
  155DOPC   H3Y18646   1.660  -0.083   6.293 -0.5599 -1.4862 -0.0793
  155DOPC   C3418647   1.732   0.057   6.125  0.2277 -0.2609  0.1297
  155DOPC   H4X18648   1.831   0.010   6.141  0.2422  0.1601  1.4153
  155DOPC   H4Y18649   1.765   0.150   6.175  0.1707 -0.3169  0.2754
  155DOPC   C3518650   1.687   0.083   5.979 -0.1067 -0.3919  0.1474
  155DOPC   H5X18651   1.579   0.105   5.975 -0.0084  1.0554  2.8117
  155DOPC   H5Y18652   1.707  -0.005   5.915  2.0997 -0.8111  1.2710
  155DOPC   C3618653   1.772   0.192   5.908 -0.3727  0.1350  0.4123
  155DOPC   H6X18654   1.779   0.287   5.965  1.1584  0.3165 -0.0269
  155DOPC   H6Y18655   1.875   0.150   5.906 -0.3656  0.1921 -1.0147
  155DOPC   C3718656   1.718   0.214   5.761 -0.4519 -0.1666 -0.0898
  155DOPC   H7X18657   1.610   0.240   5.769 -0.9250 -1.7250 -0.8380
  155DOPC   H7Y18658   1.774   0.301   5.722  0.9560 -0.8187  0.4196
  155DOPC   C3818659   1.744   0.101   5.658  0.4171  0.4264 -0.1171
  155DOPC   H8X18660   1.705   0.133   5.559 -0.8724 -3.7901 -1.1720
  155DOPC   H8Y18661   1.684   0.010   5.678 -2.5771  1.8481 -1.9144
  155DOPC   C3918662   1.894   0.076   5.643  0.2869  0.4551  0.5685
  155DOPC   H9X18663   1.964   0.091   5.727  1.0761 -1.7662  0.3734
  155DOPC  C31018664   1.951   0.036   5.537 -0.7077 -0.3801  0.5360
  155DOPC  H10X18665   2.055   0.008   5.558 -0.7195  0.9340  2.5461
  155DOPC  C31118666   1.899   0.005   5.400  0.2720  0.2617  0.2587
  155DOPC  H11X18667   1.789   0.004   5.390  0.3465 -0.0721 -0.6213
  155DOPC  H11Y18668   1.935  -0.093   5.360  0.5839  0.5733 -0.2457
  155DOPC  C31218669   1.953   0.107   5.293  0.2791 -0.7113 -0.2408
  155DOPC  H12X18670   2.059   0.138   5.306 -0.6349  2.8660 -0.3814
  155DOPC  H12Y18671   1.904   0.206   5.302 -1.8618 -1.7688  0.3560
  155DOPC  C31318672   1.928   0.062   5.144  0.2451  0.1669 -0.2217
  155DOPC  H13X18673   1.961  -0.044   5.142  3.3379  0.9999 -2.6895
  155DOPC  H13Y18674   1.817   0.064   5.142  0.2149  1.2064  1.0504
  155DOPC  C31418675   1.993   0.147   5.035  0.0749 -0.6424  0.0620
  155DOPC  H14X18676   1.967   0.255   5.043  0.1047 -0.1902 -3.9278
  155DOPC  H14Y18677   2.104   0.137   5.034  0.1016 -0.5629  1.1343
  155DOPC  C31518678   1.956   0.100   4.892  0.1186 -0.0287  0.1787
  155DOPC  H15X18679   1.845   0.106   4.888  0.0967 -0.1462  0.5618
  155DOPC  H15Y18680   1.982  -0.007   4.877  1.9786  0.4409 -0.1861
  155DOPC  C31618681   2.024   0.180   4.781  0.3237  0.2710  0.8863
  155DOPC  H16X18682   2.133   0.182   4.803  0.5492  0.9662 -0.2068
  155DOPC  H16Y18683   2.022   0.118   4.689 -0.5199  3.4924 -1.4510
  155DOPC  C31718684   1.977   0.321   4.756  0.4542  0.4053  0.2341
  155DOPC  H17X18685   1.866   0.318   4.755  0.1415  1.0141 -5.8946
  155DOPC  H17Y18686   2.009   0.375   4.848 -0.8341  1.3265  0.1746
  155DOPC  C31818687   2.042   0.390   4.630 -0.3478  0.4194  0.0817
  155DOPC  H18X18688   2.050   0.312   4.551 -1.1697 -0.7187  1.0836
  155DOPC  H18Y18689   1.978   0.470   4.587 -1.5402 -2.1421 -3.4217
  155DOPC  H18Z18690   2.146   0.417   4.657  0.0804 -1.7594  0.8686
  156DOPC     N18691   6.294   6.785   7.714 -0.4115  0.0788  0.2383
  156DOPC   C1218692   6.423   6.707   7.730  0.4590 -0.1256  0.1409
  156DOPC  H12A18693   6.483   6.771   7.793  1.1834  1.5836 -2.1290
  156DOPC  H12B18694   6.469   6.699   7.633  0.0752  3.8354 -0.5669
  156DOPC   C1318695   6.196   6.712   7.627 -0.4616  0.0479 -0.3076
  156DOPC  H13A18696   6.099   6.757   7.644 -1.6675 -2.6457  0.5070
  156DOPC  H13B18697   6.221   6.722   7.523  0.0759 -1.1270 -0.3033
  156DOPC  H13C18698   6.197   6.606   7.652 -0.0282  0.3205  0.9103
  156DOPC   C1418699   6.318   6.922   7.654  0.3202 -0.2218 -0.3515
  156DOPC  H14A18700   6.385   6.917   7.569 -0.2356  0.1417 -0.8195
  156DOPC  H14B18701   6.222   6.968   7.635  0.6032  0.5325  0.0476
  156DOPC  H14C18702   6.362   6.978   7.735  1.4188 -0.5639 -0.7003
  156DOPC   C1518703   6.222   6.817   7.848 -0.3234  0.8066 -0.3447
  156DOPC  H15A18704   6.127   6.864   7.827 -0.6147  1.2131  1.7424
  156DOPC  H15B18705   6.279   6.887   7.906  0.3061  0.7296 -0.8613
  156DOPC  H15C18706   6.203   6.730   7.908  0.1862 -0.0494 -1.3821
  156DOPC   C1118707   6.413   6.566   7.800  0.2338 -0.3126 -0.4877
  156DOPC  H11A18708   6.510   6.528   7.838  0.3252  1.9978  1.8690
  156DOPC  H11B18709   6.350   6.579   7.890  2.0472  0.5975  0.7092
  156DOPC     P18710   6.417   6.425   7.580 -0.1616 -0.0167 -0.1022
  156DOPC   O1318711   6.508   6.313   7.601 -0.0001 -0.4676 -0.5617
  156DOPC   O1418712   6.476   6.536   7.512  0.5499  0.0586  0.4547
  156DOPC   O1218713   6.346   6.472   7.713 -0.6573  0.1092  0.2474
  156DOPC   O1118714   6.285   6.380   7.502  0.1579  0.0294  0.5732
  156DOPC    C118715   6.299   6.276   7.409 -0.3499  0.7167  0.0156
  156DOPC    HA18716   6.199   6.226   7.404 -0.7474  1.4691  0.2116
  156DOPC    HB18717   6.363   6.194   7.448 -0.8472  1.6642  3.1507
  156DOPC    C218718   6.334   6.335   7.263  0.8417 -0.6523  0.6112
  156DOPC    HS18719   6.335   6.249   7.193  0.9813 -0.3127  0.1981
  156DOPC   O2118720   6.462   6.398   7.258  0.2438 -0.0576  0.3443
  156DOPC   C2118721   6.565   6.314   7.263  0.0180 -1.0220  0.0727
  156DOPC   O2218722   6.564   6.197   7.254 -0.3300  0.5507 -0.0265
  156DOPC   C2218723   6.695   6.398   7.275  0.9962 -0.3707 -0.3706
  156DOPC   H2R18724   6.742   6.354   7.365 -0.1410  0.2330  0.5515
  156DOPC   H2S18725   6.667   6.503   7.298 -1.6081 -0.8663 -0.9724
  156DOPC    C318726   6.225   6.435   7.215 -0.3333  0.5941  0.0589
  156DOPC    HX18727   6.223   6.523   7.284  1.3401  2.1735 -1.7884
  156DOPC    HY18728   6.125   6.387   7.212 -0.5311  0.9768  0.3755
  156DOPC   O3118729   6.271   6.477   7.083  0.1151  0.2271 -0.2225
  156DOPC   C3118730   6.318   6.605   7.075 -0.4436  0.2388  0.7642
  156DOPC   O3218731   6.313   6.691   7.160  0.3738  0.1542 -0.0971
  156DOPC   C3218732   6.376   6.628   6.927 -0.6912 -0.1043 -0.7564
  156DOPC   H2X18733   6.298   6.602   6.852 -0.3063  0.4870 -1.3773
  156DOPC   H2Y18734   6.402   6.736   6.916 -1.1188  0.2180  1.1142
  156DOPC   C2318735   6.778   6.405   7.148 -0.4475  0.4984  0.3523
  156DOPC   H3R18736   6.714   6.435   7.062  2.3438 -0.0670 -2.1170
  156DOPC   H3S18737   6.816   6.303   7.123  3.1348  1.8883 -0.4495
  156DOPC   C2418738   6.886   6.506   7.151  0.3626  0.3605  0.3920
  156DOPC   H4R18739   6.954   6.479   7.235 -1.2057 -5.3409  0.2558
  156DOPC   H4S18740   6.856   6.608   7.185  1.7478  0.8610  0.1831
  156DOPC   C2518741   6.986   6.497   7.033 -0.0439  0.1437 -0.0928
  156DOPC   H5R18742   7.000   6.392   6.999  1.4903  0.6262 -1.0278
  156DOPC   H5S18743   7.088   6.530   7.061  0.9720 -0.6935 -2.5303
  156DOPC   C2618744   6.954   6.597   6.919  0.6258 -0.5738  0.3483
  156DOPC   H6R18745   6.845   6.620   6.916  0.9097  0.9954  1.3801
  156DOPC   H6S18746   6.988   6.551   6.823  0.8320  1.2664 -0.5071
  156DOPC   C2718747   7.032   6.730   6.917 -0.0940 -0.2364  0.7651
  156DOPC   H7R18748   7.142   6.710   6.922 -0.0316 -0.1033 -0.0401
  156DOPC   H7S18749   6.994   6.787   7.004 -0.2034  0.8415  0.0317
  156DOPC   C2818750   7.004   6.819   6.790  0.0687 -0.3692  0.0891
  156DOPC   H8R18751   7.092   6.804   6.723  0.9346 -0.5843  1.2315
  156DOPC   H8S18752   6.991   6.927   6.809 -0.9843 -0.8480  2.4460
  156DOPC   C2918753   6.880   6.798   6.711  0.4527 -0.0916 -0.9565
  156DOPC   H9R18754   6.787   6.811   6.768 -0.2875  0.7621 -2.2892
  156DOPC  C21018755   6.873   6.759   6.585 -0.5192  0.1184 -0.5065
  156DOPC  H10R18756   6.774   6.743   6.540  0.2253  0.6582 -2.4691
  156DOPC  C21118757   6.984   6.722   6.485  0.3721 -0.5174 -0.4188
  156DOPC  H11R18758   6.963   6.625   6.434 -0.8993 -1.8558  2.4119
  156DOPC  H11S18759   7.083   6.726   6.533  0.4287 -0.7001 -0.5191
  156DOPC  C21218760   6.987   6.827   6.371  0.1685 -0.0763  0.5964
  156DOPC  H12R18761   7.078   6.818   6.308  0.2549 -3.9879  1.0313
  156DOPC  H12S18762   6.981   6.927   6.419 -0.6970 -0.4586  1.3232
  156DOPC  C21318763   6.862   6.829   6.288 -1.0366  0.0044 -0.0015
  156DOPC  H13R18764   6.848   6.934   6.256 -0.9708  0.5034  1.5110
  156DOPC  H13S18765   6.771   6.812   6.350  0.0964  0.0593  1.7353
  156DOPC  C21418766   6.863   6.733   6.172  0.2132  0.4061 -0.1414
  156DOPC  H14R18767   6.863   6.632   6.219  3.0795  0.0448 -0.7235
  156DOPC  H14S18768   6.949   6.744   6.103 -0.0638 -0.6221 -0.6736
  156DOPC  C21518769   6.745   6.745   6.075 -0.8734  0.0157  0.4688
  156DOPC  H15R18770   6.719   6.852   6.065 -0.8980 -0.1251 -1.1376
  156DOPC  H15S18771   6.654   6.700   6.121  0.3013 -0.5193  2.3821
  156DOPC  C21618772   6.770   6.676   5.931  0.0060  0.9761  0.2914
  156DOPC  H16R18773   6.873   6.700   5.897  0.2787 -1.3180 -0.6716
  156DOPC  H16S18774   6.697   6.724   5.862  0.9485  0.9848 -0.7411
  156DOPC  C21718775   6.760   6.527   5.935  0.3495  0.7537  0.1294
  156DOPC  H17R18776   6.651   6.508   5.949  0.5064  0.9632  1.7940
  156DOPC  H17S18777   6.814   6.486   6.022  0.3988  1.1884  0.3082
  156DOPC  C21818778   6.807   6.454   5.805  0.4996 -1.1813  0.2596
  156DOPC  H18R18779   6.752   6.492   5.716  1.5223 -0.3791 -0.0622
  156DOPC  H18S18780   6.776   6.348   5.807 -1.2132 -0.9999 -4.2912
  156DOPC  H18T18781   6.916   6.465   5.787  0.1088  0.3381 -1.5117
  156DOPC   C3318782   6.505   6.543   6.912 -0.8543 -0.1160 -0.3454
  156DOPC   H3X18783   6.484   6.434   6.919  2.1090 -0.8116 -1.1049
  156DOPC   H3Y18784   6.581   6.578   6.984 -0.6842 -1.5815  0.2232
  156DOPC   C3418785   6.566   6.550   6.767 -0.6959 -0.2837 -0.1844
  156DOPC   H4X18786   6.675   6.525   6.768 -0.6781 -0.2370  1.0593
  156DOPC   H4Y18787   6.548   6.650   6.723  1.6205  0.1091 -0.3614
  156DOPC   C3518788   6.513   6.447   6.666 -0.3202  0.7545  0.3493
  156DOPC   H5X18789   6.405   6.426   6.682 -0.0860 -0.9104 -0.0976
  156DOPC   H5Y18790   6.557   6.347   6.683 -2.5489 -0.5231 -0.8776
  156DOPC   C3618791   6.513   6.489   6.518  0.6674  0.4368 -0.6077
  156DOPC   H6X18792   6.612   6.520   6.479  1.5003 -0.0708  1.0315
  156DOPC   H6Y18793   6.479   6.400   6.461 -1.5332  1.3513 -0.8101
  156DOPC   C3718794   6.418   6.600   6.487 -0.0881  0.4402 -0.6922
  156DOPC   H7X18795   6.311   6.587   6.515  0.1731  1.9793  1.2124
  156DOPC   H7Y18796   6.445   6.700   6.527  1.5571 -0.3905  0.3481
  156DOPC   C3818797   6.396   6.615   6.331 -0.5525 -1.2680  0.5516
  156DOPC   H8X18798   6.375   6.513   6.291 -0.3130 -1.1955  0.2454
  156DOPC   H8Y18799   6.492   6.650   6.289  1.0459 -2.7736  2.7179
  156DOPC   C3918800   6.286   6.711   6.301 -1.1059  0.1454  0.6326
  156DOPC   H9X18801   6.308   6.810   6.345  2.2226 -0.4773  0.5528
  156DOPC  C31018802   6.165   6.681   6.238  0.3273 -0.0170 -0.6814
  156DOPC  H10X18803   6.103   6.768   6.212 -0.1138  0.1039  0.7298
  156DOPC  C31118804   6.116   6.548   6.183 -0.1341 -0.1172  0.2627
  156DOPC  H11X18805   6.009   6.535   6.212 -0.6964  0.7806 -1.2901
  156DOPC  H11Y18806   6.168   6.464   6.234  1.4009  0.7955  0.2623
  156DOPC  C31218807   6.130   6.528   6.027  0.5414 -0.1122 -0.4433
  156DOPC  H12X18808   6.236   6.508   6.001  0.8496 -1.7007  1.6935
  156DOPC  H12Y18809   6.093   6.621   5.980 -0.1793 -0.3328 -0.3421
  156DOPC  C31318810   6.033   6.420   5.979  0.2578 -0.5782 -0.0629
  156DOPC  H13X18811   6.053   6.326   6.034 -1.5078 -0.7605  0.3173
  156DOPC  H13Y18812   5.927   6.448   5.996  0.2795 -1.7095  2.2671
  156DOPC  C31418813   6.062   6.390   5.830 -0.5182 -0.2734  0.1405
  156DOPC  H14X18814   6.082   6.484   5.774  1.8374 -0.6264  0.2686
  156DOPC  H14Y18815   6.157   6.332   5.816 -0.1542  0.4804 -0.5742
  156DOPC  C31518816   5.950   6.307   5.766  1.0496  0.2874 -0.0007
  156DOPC  H15X18817   5.850   6.333   5.807  1.0991  0.2683  0.1319
  156DOPC  H15Y18818   5.972   6.203   5.796 -0.1696  0.2235  0.7684
  156DOPC  C31618819   5.942   6.334   5.616  0.0840  0.0740  0.1290
  156DOPC  H16X18820   5.879   6.426   5.607 -2.3919 -1.5196  0.3189
  156DOPC  H16Y18821   6.044   6.353   5.576 -0.6865 -0.2819 -2.1760
  156DOPC  C31718822   5.864   6.223   5.543 -0.2219  0.6368 -0.0293
  156DOPC  H17X18823   5.887   6.235   5.435 -0.1432 -0.0794 -0.0911
  156DOPC  H17Y18824   5.920   6.134   5.579  2.2856  1.7809 -0.8651
  156DOPC  C31818825   5.716   6.230   5.578 -0.7671  0.7532 -0.5623
  156DOPC  H18X18826   5.668   6.301   5.508  0.6546  1.9975 -0.3266
  156DOPC  H18Y18827   5.671   6.130   5.558  1.8827 -0.5959 -0.3291
  156DOPC  H18Z18828   5.693   6.246   5.686 -2.1525 -1.5451 -0.4432
  157DOPC     N18829   6.097   1.005   8.007 -0.0474 -0.7267 -0.2508
  157DOPC   C1218830   6.049   1.062   7.873  0.7850 -0.4458 -0.2605
  157DOPC  H12A18831   5.953   1.016   7.856 -0.4447  1.3454  1.3522
  157DOPC  H12B18832   6.130   1.038   7.806  0.4343 -0.0884 -0.8262
  157DOPC   C1318833   6.202   1.093   8.067  0.8196  0.3292  0.2896
  157DOPC  H13A18834   6.169   1.188   8.106  1.4609  1.1374 -1.0159
  157DOPC  H13B18835   6.243   1.034   8.147 -2.2405 -2.3471  0.0638
  157DOPC  H13C18836   6.290   1.110   8.006  0.2255  0.7472 -0.4687
  157DOPC   C1418837   6.145   0.863   7.993  0.1300 -0.0217 -0.2488
  157DOPC  H14A18838   6.129   0.817   8.089 -1.4225  0.8100 -0.0743
  157DOPC  H14B18839   6.089   0.811   7.918 -3.2583  1.7718  0.8267
  157DOPC  H14C18840   6.250   0.861   7.965 -0.0572  0.2462 -0.9769
  157DOPC   C1518841   5.982   1.002   8.109 -0.2211 -0.0025 -0.0583
  157DOPC  H15A18842   5.948   1.104   8.124  0.0501  0.0897 -0.0568
  157DOPC  H15B18843   6.022   0.973   8.205  1.9263  1.2536 -0.4898
  157DOPC  H15C18844   5.900   0.946   8.068  0.4387 -1.6390  0.7545
  157DOPC   C1118845   6.028   1.217   7.859 -0.4368 -0.0387 -0.5942
  157DOPC  H11A18846   6.123   1.274   7.854 -0.6161  0.4073  0.7671
  157DOPC  H11B18847   5.986   1.230   7.757 -0.2942  1.0459 -0.5243
  157DOPC     P18848   5.792   1.279   7.944  0.1794 -0.1798 -0.1077
  157DOPC   O1318849   5.747   1.371   8.052 -0.0847 -0.4405 -0.5055
  157DOPC   O1418850   5.728   1.149   7.937  0.0193  0.5613  0.3171
  157DOPC   O1218851   5.948   1.266   7.959 -0.5555  0.2273  0.7860
  157DOPC   O1118852   5.779   1.351   7.806  0.5041  0.5714 -0.1258
  157DOPC    C118853   5.787   1.492   7.788 -0.5579  1.0865  0.0986
  157DOPC    HA18854   5.870   1.496   7.714  0.7932 -1.4376  1.3561
  157DOPC    HB18855   5.810   1.543   7.884  1.5809 -0.1457  0.2823
  157DOPC    C218856   5.662   1.559   7.726 -0.1521 -0.3659 -0.4992
  157DOPC    HS18857   5.577   1.532   7.793  1.5007  0.4575  2.1030
  157DOPC   O2118858   5.652   1.522   7.589  0.0935 -0.5272  0.0186
  157DOPC   C2118859   5.537   1.546   7.532  0.2060  0.0722 -0.4686
  157DOPC   O2218860   5.436   1.576   7.592 -0.3810  0.7991 -0.6230
  157DOPC   C2218861   5.546   1.534   7.382 -0.1505 -0.2744  1.0701
  157DOPC   H2R18862   5.597   1.438   7.357  0.3428  0.1055  0.5948
  157DOPC   H2S18863   5.612   1.617   7.349  1.4584 -1.7715  0.3271
  157DOPC    C318864   5.669   1.713   7.733  0.6082 -0.6195  0.0263
  157DOPC    HX18865   5.687   1.733   7.841  3.2214  1.1231 -0.6124
  157DOPC    HY18866   5.570   1.756   7.707  1.5775  2.6315  1.1302
  157DOPC   O3118867   5.787   1.761   7.659  0.1357  0.2317 -0.5062
  157DOPC   C3118868   5.758   1.831   7.546 -0.2935  0.5541  0.7645
  157DOPC   O3218869   5.644   1.849   7.500  0.6065 -0.3547  0.4033
  157DOPC   C3218870   5.889   1.868   7.479 -0.4908 -0.0403  0.2499
  157DOPC   H2X18871   5.962   1.889   7.560  1.3451  0.6625 -1.5069
  157DOPC   H2Y18872   5.927   1.784   7.416  1.5474  0.9707  0.0677
  157DOPC   C2318873   5.416   1.556   7.297 -0.2795  0.2581  0.4556
  157DOPC   H3R18874   5.372   1.656   7.319  1.0285  0.6270  1.4967
  157DOPC   H3S18875   5.348   1.478   7.336 -1.3196  0.5003 -0.7970
  157DOPC   C2418876   5.444   1.548   7.143  0.0009 -0.1970  0.6912
  157DOPC   H4R18877   5.546   1.593   7.142 -0.4232  0.9177  2.5435
  157DOPC   H4S18878   5.362   1.598   7.087  0.8854 -0.9110 -1.3778
  157DOPC   C2518879   5.464   1.396   7.098  0.2445  0.3784 -0.2151
  157DOPC   H5R18880   5.364   1.347   7.102  1.8168 -3.1958 -0.8264
  157DOPC   H5S18881   5.532   1.335   7.160 -0.2906 -0.2057 -0.1896
  157DOPC   C2618882   5.522   1.364   6.960  0.0593  0.4636 -0.3620
  157DOPC   H6R18883   5.633   1.370   6.967 -0.1027  2.0454  1.8795
  157DOPC   H6S18884   5.487   1.437   6.884 -1.6777  0.7356  0.6482
  157DOPC   C2718885   5.496   1.226   6.907  0.3316 -0.6524  0.0334
  157DOPC   H7R18886   5.387   1.216   6.888  0.1715 -1.4125  1.2334
  157DOPC   H7S18887   5.525   1.146   6.978  0.5583 -0.4167  0.2072
  157DOPC   C2818888   5.567   1.198   6.773 -0.8428  0.1836 -0.1498
  157DOPC   H8R18889   5.672   1.229   6.792 -1.0626  1.7329 -1.2610
  157DOPC   H8S18890   5.551   1.267   6.687  2.5049  0.8430 -0.3558
  157DOPC   C2918891   5.573   1.048   6.736  0.1818 -0.5999  0.0514
  157DOPC   H9R18892   5.611   0.969   6.803 -0.8312 -2.1646 -1.1296
  157DOPC  C21018893   5.544   0.986   6.616  0.2598 -0.1019 -0.7111
  157DOPC  H10R18894   5.563   0.879   6.601  1.9555 -0.3666  2.4019
  157DOPC  C21118895   5.494   1.066   6.498 -0.5736 -0.3237 -0.3254
  157DOPC  H11R18896   5.471   1.169   6.534  0.4370 -0.4788  0.8379
  157DOPC  H11S18897   5.400   1.025   6.454 -1.3412 -0.5100  1.4034
  157DOPC  C21218898   5.597   1.083   6.386 -0.3981  0.0970 -0.5123
  157DOPC  H12R18899   5.685   1.141   6.420 -0.8925 -0.3115  1.5664
  157DOPC  H12S18900   5.544   1.147   6.311 -1.2707 -1.0817 -0.9305
  157DOPC  C21318901   5.638   0.950   6.328 -0.0465 -0.2711  0.4875
  157DOPC  H13R18902   5.553   0.887   6.295 -0.0902 -0.8086  1.5964
  157DOPC  H13S18903   5.690   0.893   6.408  0.2755  2.5412  2.4220
  157DOPC  C21418904   5.746   0.957   6.217 -0.6027 -0.8794  0.2527
  157DOPC  H14R18905   5.816   1.043   6.226 -0.1155 -1.2198 -0.1778
  157DOPC  H14S18906   5.694   0.981   6.122  0.8878 -0.3898 -0.4759
  157DOPC  C21518907   5.825   0.830   6.197 -0.4986 -0.7213 -0.2524
  157DOPC  H15R18908   5.881   0.815   6.291 -1.0830 -0.1297  0.2083
  157DOPC  H15S18909   5.893   0.846   6.110  0.8433 -0.0181  0.8972
  157DOPC  C21618910   5.739   0.711   6.169  0.1424 -0.4155 -0.1868
  157DOPC  H16R18911   5.678   0.738   6.080 -0.1213 -0.3595  0.0105
  157DOPC  H16S18912   5.674   0.686   6.256 -3.6529  0.3804 -2.5625
  157DOPC  C21718913   5.836   0.590   6.144 -0.2596 -0.5707  0.4204
  157DOPC  H17R18914   5.892   0.576   6.239  2.8711  0.7330 -1.0916
  157DOPC  H17S18915   5.913   0.611   6.067 -0.0985 -1.1170  0.4262
  157DOPC  C21818916   5.764   0.463   6.103 -0.5016 -0.3833  0.2788
  157DOPC  H18R18917   5.693   0.486   6.021  2.4763  0.1593 -2.3471
  157DOPC  H18S18918   5.716   0.415   6.191  0.1053 -0.7587  0.4091
  157DOPC  H18T18919   5.835   0.381   6.079 -0.6525 -0.5842  0.5102
  157DOPC   C3318920   5.891   1.996   7.386  0.4388 -0.5543 -0.2176
  157DOPC   H3X18921   5.996   2.029   7.393  0.0506  0.6792  0.0873
  157DOPC   H3Y18922   5.824   2.071   7.432  1.0555 -1.1712  1.7536
  157DOPC   C3418923   5.853   1.968   7.238  0.0111  0.3148 -0.3713
  157DOPC   H4X18924   5.914   1.880   7.211  1.8014  2.0721 -2.4594
  157DOPC   H4Y18925   5.905   2.049   7.183 -2.0375  1.8846 -0.1185
  157DOPC   C3518926   5.708   1.964   7.202  0.3393  0.4889  0.1178
  157DOPC   H5X18927   5.663   2.058   7.241  1.7280  0.9717  0.6303
  157DOPC   H5Y18928   5.671   1.870   7.247  1.5826 -0.0776  0.0068
  157DOPC   C3618929   5.685   1.943   7.048  0.5681  0.1643 -0.0555
  157DOPC   H6X18930   5.574   1.941   7.042  0.6413 -1.0260 -1.5629
  157DOPC   H6Y18931   5.736   2.017   6.983  0.6344 -0.4857 -0.7599
  157DOPC   C3718932   5.725   1.803   6.998 -0.5047  0.4139  0.1440
  157DOPC   H7X18933   5.831   1.797   7.029 -0.5488 -0.5268  0.1377
  157DOPC   H7Y18934   5.659   1.735   7.057 -0.9948  0.6660 -0.1087
  157DOPC   C3818935   5.715   1.777   6.850  0.5985 -0.4575 -0.1465
  157DOPC   H8X18936   5.793   1.835   6.796  0.2947 -0.5638 -0.7152
  157DOPC   H8Y18937   5.621   1.816   6.804  1.5227  2.0955 -0.0639
  157DOPC   C3918938   5.723   1.628   6.827  0.0518  0.5041 -0.1952
  157DOPC   H9X18939   5.727   1.560   6.914 -2.7128 -2.8008 -2.3811
  157DOPC  C31018940   5.717   1.574   6.705 -0.1200  0.3175  0.1770
  157DOPC  H10X18941   5.721   1.464   6.693  0.5150  0.4299 -0.7396
  157DOPC  C31118942   5.704   1.639   6.571  0.3298  0.2202 -0.0330
  157DOPC  H11X18943   5.784   1.598   6.505  0.8688 -0.6193  1.1072
  157DOPC  H11Y18944   5.722   1.748   6.582  1.7515 -0.1697  1.9389
  157DOPC  C31218945   5.575   1.616   6.489 -0.9805 -0.4262  0.2630
  157DOPC  H12X18946   5.554   1.512   6.458 -1.7898 -0.2103  0.0577
  157DOPC  H12Y18947   5.583   1.664   6.389 -1.3940 -1.8643 -0.4826
  157DOPC  C31318948   5.450   1.664   6.566 -0.0029 -0.5610 -0.2719
  157DOPC  H13X18949   5.415   1.590   6.642  1.5282  0.7070  1.7660
  157DOPC  H13Y18950   5.478   1.757   6.620 -0.5395 -0.3873 -0.2810
  157DOPC  C31418951   5.330   1.695   6.469  0.5184  0.2557  0.1534
  157DOPC  H14X18952   5.258   1.758   6.526  0.9717  0.9977 -0.0857
  157DOPC  H14Y18953   5.377   1.757   6.390  1.3107  1.0806  1.2448
  157DOPC  C31518954   5.263   1.569   6.409  0.1368 -0.3813 -0.9373
  157DOPC  H15X18955   5.216   1.503   6.485  2.7258 -1.5003 -0.1942
  157DOPC  H15Y18956   5.325   1.515   6.335 -0.0885  1.2956 -2.4143
  157DOPC  C31618957   5.142   1.608   6.315  0.5513  0.6490 -0.1095
  157DOPC  H16X18958   5.059   1.652   6.374  0.4968  0.7468 -0.2593
  157DOPC  H16Y18959   5.178   1.699   6.263  0.7589  1.3803  1.2622
  157DOPC  C31718960   5.089   1.508   6.214 -0.2729  0.3877 -0.0977
  157DOPC  H17X18961   5.001   1.561   6.172 -0.6003 -0.4178 -0.4535
  157DOPC  H17Y18962   5.171   1.488   6.141  0.7370  0.5001  0.9746
  157DOPC  C31818963   5.038   1.376   6.269  0.4286 -0.4072  0.6470
  157DOPC  H18X18964   5.124   1.313   6.303 -1.2310 -2.9057  0.4932
  157DOPC  H18Y18965   4.980   1.399   6.361 -1.2156 -0.8704 -0.2328
  157DOPC  H18Z18966   4.965   1.328   6.201 -0.7238 -2.5575  3.2112
  158DOPC     N18967   4.271   6.676   6.974 -0.7623  0.7487  0.5438
  158DOPC   C1218968   4.228   6.817   6.949 -0.1416 -0.0998  0.7343
  158DOPC  H12A18969   4.126   6.812   6.916 -0.7610  0.3908  2.4656
  158DOPC  H12B18970   4.280   6.849   6.861  0.8200 -0.5154  1.1339
  158DOPC   C1318971   4.151   6.607   7.032 -0.3759  0.3162 -0.0858
  158DOPC  H13A18972   4.124   6.639   7.131  0.3861  0.9159 -0.0577
  158DOPC  H13B18973   4.062   6.630   6.975  0.6252  0.5012 -1.6266
  158DOPC  H13C18974   4.162   6.500   7.032 -1.0805  0.2365  0.1460
  158DOPC   C1418975   4.391   6.669   7.066  0.0285 -0.0569  0.2280
  158DOPC  H14A18976   4.419   6.570   7.099  1.4864  0.7103  1.3572
  158DOPC  H14B18977   4.475   6.726   7.031 -0.5233 -1.2815 -3.5793
  158DOPC  H14C18978   4.350   6.722   7.151 -1.7835  1.3893 -1.4456
  158DOPC   C1518979   4.311   6.625   6.835 -0.4852 -0.3441 -0.5289
  158DOPC  H15A18980   4.365   6.531   6.845 -0.2883 -0.0385  1.7194
  158DOPC  H15B18981   4.373   6.696   6.782  1.3193 -1.4947 -0.0563
  158DOPC  H15C18982   4.226   6.614   6.770 -0.6933 -1.0412 -0.1475
  158DOPC   C1118983   4.261   6.933   7.047 -0.1953 -0.3694  1.0495
  158DOPC  H11A18984   4.204   7.023   7.015  0.4156 -0.4936 -0.4353
  158DOPC  H11B18985   4.229   6.908   7.151 -0.7187  1.9367  1.5090
  158DOPC     P18986   4.456   7.055   6.944 -0.2557 -0.1567 -0.0262
  158DOPC   O1318987   4.604   7.053   6.942  0.0873 -0.0172 -0.2822
  158DOPC   O1418988   4.388   7.186   6.953  0.2293  0.1882 -0.1095
  158DOPC   O1218989   4.402   6.957   7.055 -0.2730  0.2038 -0.2096
  158DOPC   O1118990   4.406   6.975   6.813  0.3824 -0.7761  0.0995
  158DOPC    C118991   4.332   7.057   6.722 -0.2745  0.1014 -0.1659
  158DOPC    HA18992   4.372   7.160   6.713  0.0644 -0.0967 -1.0742
  158DOPC    HB18993   4.222   7.060   6.741 -0.5920 -1.2533 -1.5957
  158DOPC    C218994   4.347   7.005   6.573  1.0090 -0.6558  0.3754
  158DOPC    HS18995   4.274   6.921   6.564 -0.4668  0.6716 -0.5457
  158DOPC   O2118996   4.488   6.972   6.551  0.2044  0.0718  0.1793
  158DOPC   C2118997   4.514   6.852   6.503 -0.2616  0.2431 -0.6849
  158DOPC   O2218998   4.438   6.758   6.504  0.0614 -0.0825  0.3543
  158DOPC   C2218999   4.654   6.845   6.440  0.2111  0.0050 -0.1155
  158DOPC   H2R19000   4.692   6.744   6.466  0.4467  0.0491 -0.2869
  158DOPC   H2S19001   4.714   6.921   6.494  0.8892 -0.8145  0.3027
  158DOPC    C319002   4.287   7.105   6.472  0.2651  0.4443 -0.3235
  158DOPC    HX19003   4.340   7.202   6.469  1.1761  0.0407  1.4568
  158DOPC    HY19004   4.184   7.120   6.510 -0.0234  1.5052 -1.4617
  158DOPC   O3119005   4.281   7.034   6.340  0.2557  0.5149  0.5675
  158DOPC   C3119006   4.169   6.972   6.297 -0.6512  0.1470  0.3422
  158DOPC   O3219007   4.062   6.980   6.356 -0.0299  0.3736  0.0353
  158DOPC   C3219008   4.194   6.891   6.170 -0.2563  0.0207  0.6231
  158DOPC   H2X19009   4.284   6.948   6.137  1.3972 -2.6619  0.2052
  158DOPC   H2Y19010   4.222   6.787   6.193 -0.3014 -0.1925 -0.2577
  158DOPC   C2319011   4.642   6.866   6.289 -1.1876  0.1356 -0.0517
  158DOPC   H3R19012   4.750   6.883   6.271 -1.3285  0.9451 -0.1774
  158DOPC   H3S19013   4.584   6.957   6.260 -0.7553  0.2326 -0.6347
  158DOPC   C2419014   4.588   6.749   6.216 -0.0185 -0.1704 -0.6714
  158DOPC   H4R19015   4.485   6.725   6.250 -0.0527 -2.1359 -2.0325
  158DOPC   H4S19016   4.644   6.656   6.238 -2.1330 -1.2477  0.4318
  158DOPC   C2519017   4.601   6.769   6.067 -0.4437  1.1098 -0.5900
  158DOPC   H5R19018   4.706   6.749   6.035 -0.5462  0.5150 -0.5663
  158DOPC   H5S19019   4.587   6.874   6.031  1.1603  0.5514 -3.1446
  158DOPC   C2619020   4.513   6.674   5.989  0.0386 -0.4291 -0.3836
  158DOPC   H6R19021   4.407   6.704   5.999  0.2909  0.2686  0.2560
  158DOPC   H6S19022   4.521   6.573   6.035 -0.6312 -0.3900 -0.1673
  158DOPC   C2719023   4.554   6.657   5.837  0.1295  0.4342 -0.4060
  158DOPC   H7R19024   4.659   6.622   5.833  0.1067 -0.7326  3.7915
  158DOPC   H7S19025   4.554   6.758   5.791 -2.4574  0.0793 -1.3424
  158DOPC   C2819026   4.461   6.559   5.756 -1.2577  0.1058  0.1257
  158DOPC   H8R19027   4.357   6.596   5.758 -2.1866 -2.2597 -0.8552
  158DOPC   H8S19028   4.475   6.459   5.803 -0.6856  0.0433 -0.1699
  158DOPC   C2919029   4.526   6.541   5.619 -0.1091  0.1648 -0.2507
  158DOPC   H9R19030   4.634   6.518   5.619 -0.0449  0.3469  1.2502
  158DOPC  C21019031   4.464   6.533   5.503 -0.3142 -0.0027  0.8132
  158DOPC  H10R19032   4.526   6.511   5.415 -0.8117 -2.2010  0.9597
  158DOPC  C21119033   4.322   6.533   5.454 -0.1114 -0.1923 -0.1779
  158DOPC  H11R19034   4.296   6.633   5.412 -0.6219 -0.3632 -0.2883
  158DOPC  H11S19035   4.252   6.526   5.540 -0.4522  1.7314 -0.2420
  158DOPC  C21219036   4.295   6.427   5.348  0.5482 -0.6054 -0.4168
  158DOPC  H12R19037   4.185   6.416   5.342  0.4798 -1.5302  1.7836
  158DOPC  H12S19038   4.343   6.331   5.377 -2.5205 -2.1427 -0.0703
  158DOPC  C21319039   4.344   6.457   5.200  0.7880  0.3741  0.4506
  158DOPC  H13R19040   4.455   6.446   5.206  0.6420 -2.0745 -0.4607
  158DOPC  H13S19041   4.303   6.559   5.185 -2.3233 -0.2792  3.2895
  158DOPC  C21419042   4.289   6.355   5.099 -0.1330  0.0495  0.0717
  158DOPC  H14R19043   4.289   6.383   4.992  2.2670 -1.5736 -0.4380
  158DOPC  H14S19044   4.183   6.334   5.124 -0.2150  1.0224  0.6044
  158DOPC  C21519045   4.362   6.222   5.087  0.2933  0.5871  0.5851
  158DOPC  H15R19046   4.273   6.158   5.070  0.0498  0.6792  1.4583
  158DOPC  H15S19047   4.405   6.182   5.182  1.8052 -1.8819 -1.0367
  158DOPC  C21619048   4.470   6.226   4.979 -0.7890 -0.3814 -0.4481
  158DOPC  H16R19049   4.545   6.302   5.010 -0.6088 -0.3338 -0.9956
  158DOPC  H16S19050   4.428   6.281   4.892  0.8893 -1.3259 -1.9257
  158DOPC  C21719051   4.536   6.088   4.956 -0.3349  0.5206 -0.2915
  158DOPC  H17R19052   4.608   6.100   4.872  0.8541 -2.1750  0.2357
  158DOPC  H17S19053   4.457   6.013   4.932  1.8090 -2.0086  0.0180
  158DOPC  C21819054   4.609   6.046   5.075 -0.4178  0.0429 -0.4168
  158DOPC  H18R19055   4.664   5.952   5.052 -0.6581 -0.0625 -0.5698
  158DOPC  H18S19056   4.543   6.004   5.155 -1.1623 -0.0009 -1.0447
  158DOPC  H18T19057   4.680   6.122   5.115  0.9043 -1.7284  0.7987
  158DOPC   C3319058   4.079   6.906   6.065 -0.3204  0.6336 -0.3800
  158DOPC   H3X19059   3.992   6.837   6.076  0.2178 -0.0106 -0.1354
  158DOPC   H3Y19060   4.126   6.872   5.971 -0.6339 -1.3543  0.1495
  158DOPC   C3419061   4.033   7.048   6.039 -0.3281 -0.2275  0.2421
  158DOPC   H4X19062   4.117   7.102   5.990 -0.8405  0.6946  0.3423
  158DOPC   H4Y19063   4.012   7.103   6.134  0.7634  0.5804  0.0380
  158DOPC   C3519064   3.917   7.071   5.940 -0.2390  0.1235 -0.9128
  158DOPC   H5X19065   3.826   7.019   5.975 -0.6515  1.4751  0.0921
  158DOPC   H5Y19066   3.949   7.024   5.844 -0.4978 -2.1584  0.0535
  158DOPC   C3619067   3.895   7.221   5.917  0.2493 -0.8050  0.3964
  158DOPC   H6X19068   3.872   7.261   6.018 -1.0916  1.3952 -0.7058
  158DOPC   H6Y19069   3.987   7.268   5.876  0.0269 -0.7603 -0.0601
  158DOPC   C3719070   3.765   7.247   5.836  0.2461  0.5349  0.4619
  158DOPC   H7X19071   3.683   7.188   5.883  1.1658 -1.0170  0.1967
  158DOPC   H7Y19072   3.748   7.356   5.836 -1.0322  0.3990  2.5585
  158DOPC   C3819073   3.774   7.197   5.694  0.1633  0.4558  0.4878
  158DOPC   H8X19074   3.668   7.194   5.660 -0.2807  0.8928  1.7731
  158DOPC   H8Y19075   3.814   7.093   5.702 -1.3634 -0.3487 -1.3416
  158DOPC   C3919076   3.854   7.287   5.603  0.6291 -0.9027 -0.1841
  158DOPC   H9X19077   3.961   7.301   5.627  0.7828  0.2464 -1.4239
  158DOPC  C31019078   3.824   7.338   5.485 -0.8468  0.0921  0.7828
  158DOPC  H10X19079   3.888   7.408   5.430 -0.9690 -1.0127 -0.8544
  158DOPC  C31119080   3.693   7.317   5.418  0.7315  0.6252 -1.3402
  158DOPC  H11X19081   3.659   7.218   5.456  0.4775  1.0667 -0.3683
  158DOPC  H11Y19082   3.693   7.310   5.308  1.1639 -0.4037 -1.2839
  158DOPC  C31219083   3.578   7.409   5.456  0.5482 -1.1452 -0.1386
  158DOPC  H12X19084   3.603   7.514   5.431  1.5501 -1.2022  0.5672
  158DOPC  H12Y19085   3.563   7.413   5.566  3.7312  1.8106  0.3747
  158DOPC  C31319086   3.437   7.392   5.388 -0.3814  0.4265 -0.1826
  158DOPC  H13X19087   3.415   7.293   5.434 -0.2705  0.4424 -0.0962
  158DOPC  H13Y19088   3.361   7.461   5.429 -0.4687  1.4941 -2.0524
  158DOPC  C31419089   3.430   7.390   5.233  0.2746 -0.1279 -0.2705
  158DOPC  H14X19090   3.459   7.494   5.210  1.2064 -0.0889  1.0071
  158DOPC  H14Y19091   3.502   7.317   5.191 -0.9676 -0.9756 -1.0087
  158DOPC  C31519092   3.283   7.357   5.177  0.2753 -0.0936 -0.0428
  158DOPC  H15X19093   3.259   7.249   5.191  1.3306 -0.3919 -0.4432
  158DOPC  H15Y19094   3.286   7.379   5.068  0.8100  0.1141  0.0127
  158DOPC  C31619095   3.169   7.441   5.234  0.4234 -0.8736 -0.4932
  158DOPC  H16X19096   3.073   7.406   5.189 -0.0234 -1.4369  0.8437
  158DOPC  H16Y19097   3.156   7.414   5.341  0.0960 -2.3383 -0.8709
  158DOPC  C31719098   3.180   7.591   5.226  0.2586 -0.3534  0.1109
  158DOPC  H17X19099   3.261   7.631   5.292  0.2196  0.0021 -0.0582
  158DOPC  H17Y19100   3.212   7.616   5.123  0.0475 -1.2342 -0.1763
  158DOPC  C31819101   3.056   7.666   5.265 -0.0074  0.2736  0.0302
  158DOPC  H18X19102   3.025   7.659   5.371  0.7329  1.5362  0.3608
  158DOPC  H18Y19103   3.073   7.773   5.241  0.1390  0.0806 -0.7470
  158DOPC  H18Z19104   2.975   7.640   5.194 -0.2090  1.4072 -0.1710
  159DOPC     N19105   6.838   0.815   7.571  0.2940  0.6897 -0.6040
  159DOPC   C1219106   6.775   0.774   7.698  0.5295 -0.0748 -0.0322
  159DOPC  H12A19107   6.837   0.802   7.782  0.0941 -0.0025  0.2684
  159DOPC  H12B19108   6.759   0.668   7.707  0.1411 -0.1914 -1.6906
  159DOPC   C1319109   6.807   0.957   7.525 -0.0511  0.2986 -0.4794
  159DOPC  H13A19110   6.839   1.037   7.590  0.0403  0.5076 -0.7844
  159DOPC  H13B19111   6.851   0.981   7.430 -1.3770  1.4187 -0.8367
  159DOPC  H13C19112   6.702   0.962   7.501 -0.2120  0.6334  0.2697
  159DOPC   C1419113   6.798   0.724   7.470  0.4627  0.4430 -1.3726
  159DOPC  H14A19114   6.690   0.726   7.463  0.4849  1.7068 -1.5123
  159DOPC  H14B19115   6.854   0.729   7.378 -0.3620 -2.8601 -2.1884
  159DOPC  H14C19116   6.827   0.624   7.498 -0.4506  0.3050 -0.8788
  159DOPC   C1519117   6.991   0.809   7.584  0.3531  0.0234 -0.3863
  159DOPC  H15A19118   7.024   0.709   7.604  2.2842  0.4833 -1.0173
  159DOPC  H15B19119   7.023   0.885   7.654  0.6733 -1.0999  0.7055
  159DOPC  H15C19120   7.030   0.834   7.486  2.0013  0.9149  0.4678
  159DOPC   C1119121   6.627   0.811   7.733  0.1373  0.3630  0.0601
  159DOPC  H11A19122   6.619   0.780   7.840  2.4755  1.9671  0.7786
  159DOPC  H11B19123   6.606   0.920   7.729 -1.4090  0.0549 -1.3127
  159DOPC     P19124   6.395   0.741   7.659 -0.3382 -0.4861  0.2032
  159DOPC   O1319125   6.364   0.829   7.775 -0.5098 -0.0469  0.0150
  159DOPC   O1419126   6.333   0.606   7.655 -0.2447 -0.4719 -0.0858
  159DOPC   O1219127   6.549   0.730   7.645  0.2129 -0.3615 -0.2187
  159DOPC   O1119128   6.351   0.821   7.534 -0.6087 -1.0524  0.4287
  159DOPC    C119129   6.443   0.894   7.447  0.4524  0.0462  0.2016
  159DOPC    HA19130   6.532   0.841   7.405  0.5224 -0.0012  0.4088
  159DOPC    HB19131   6.483   0.981   7.503  1.5732 -0.7855  0.7562
  159DOPC    C219132   6.364   0.952   7.327  0.7124 -0.7220  0.3572
  159DOPC    HS19133   6.435   1.000   7.255  0.6409 -1.3016 -0.1019
  159DOPC   O2119134   6.270   1.041   7.373 -0.4801 -0.7458 -0.0480
  159DOPC   C2119135   6.319   1.161   7.399 -0.9538 -0.0639  0.3180
  159DOPC   O2219136   6.435   1.202   7.371  0.3109 -0.5796 -0.0219
  159DOPC   C2219137   6.211   1.246   7.468 -0.0088  0.1320  0.5955
  159DOPC   H2R19138   6.259   1.331   7.521  0.3440  0.7270 -0.6408
  159DOPC   H2S19139   6.148   1.185   7.536 -0.5189 -1.2338 -1.0468
  159DOPC    C319140   6.294   0.840   7.241 -0.1560 -0.5594 -0.3964
  159DOPC    HX19141   6.233   0.784   7.315  2.1267 -0.0486  2.0209
  159DOPC    HY19142   6.377   0.768   7.228 -0.8640 -1.3241 -0.7949
  159DOPC   O3119143   6.245   0.883   7.112  0.5852 -0.3614  0.0868
  159DOPC   C3119144   6.117   0.910   7.113  0.4721  0.0790 -0.7498
  159DOPC   O3219145   6.045   0.900   7.213 -0.1962 -0.5370 -0.0666
  159DOPC   C3219146   6.064   0.939   6.972  0.0838 -0.1880 -0.4339
  159DOPC   H2X19147   6.149   0.989   6.921 -1.1099  0.2538 -2.0695
  159DOPC   H2Y19148   6.061   0.837   6.929  1.0978 -1.4934  2.3675
  159DOPC   C2319149   6.109   1.305   7.359 -0.2494  0.2469 -0.0763
  159DOPC   H3R19150   6.060   1.222   7.305  0.5597 -0.7182  0.6433
  159DOPC   H3S19151   6.169   1.360   7.283 -0.1400  1.5882  0.9481
  159DOPC   C2419152   6.005   1.391   7.434  0.2721 -0.6153  0.0842
  159DOPC   H4R19153   6.057   1.457   7.506 -2.6991  0.7617  1.1403
  159DOPC   H4S19154   5.948   1.312   7.489  1.5980 -0.7909  1.2886
  159DOPC   C2519155   5.905   1.463   7.342  0.4788 -0.1356 -0.0218
  159DOPC   H5R19156   5.826   1.510   7.404  0.7735  1.6278 -0.9176
  159DOPC   H5S19157   5.850   1.377   7.299  2.2164 -0.6034 -1.4236
  159DOPC   C2619158   5.965   1.562   7.245 -0.1829  0.3279 -0.7373
  159DOPC   H6R19159   6.050   1.620   7.287  0.0926  0.0560 -0.9208
  159DOPC   H6S19160   5.887   1.638   7.223 -0.0382  1.9203  3.3395
  159DOPC   C2719161   6.010   1.497   7.109 -1.0918 -0.9531 -0.4602
  159DOPC   H7R19162   5.928   1.446   7.054 -0.5064 -0.3739 -1.9413
  159DOPC   H7S19163   6.099   1.432   7.121  0.9619  1.8024  0.2822
  159DOPC   C2819164   6.069   1.612   7.019  0.0286 -0.0154 -0.4091
  159DOPC   H8R19165   6.002   1.698   7.042 -1.9114 -1.4492 -0.4293
  159DOPC   H8S19166   6.048   1.576   6.916 -1.0851 -0.5323 -0.0211
  159DOPC   C2919167   6.213   1.652   7.039 -1.1870 -0.4831  0.0286
  159DOPC   H9R19168   6.260   1.650   7.138  1.4786 -2.2334 -1.1738
  159DOPC  C21019169   6.292   1.683   6.940 -0.2772 -0.4832  0.5888
  159DOPC  H10R19170   6.386   1.734   6.965  0.9799 -2.1949 -0.4041
  159DOPC  C21119171   6.247   1.693   6.794 -0.6600 -0.5416 -0.2960
  159DOPC  H11R19172   6.183   1.783   6.800 -1.4935 -1.2340  1.8828
  159DOPC  H11S19173   6.176   1.610   6.773 -2.2459  0.8573 -0.6834
  159DOPC  C21219174   6.355   1.707   6.688 -0.4135  0.2133  0.7699
  159DOPC  H12R19175   6.419   1.616   6.697 -1.4774 -0.5358  0.9667
  159DOPC  H12S19176   6.411   1.801   6.709  0.8639  0.4620 -3.0615
  159DOPC  C21319177   6.302   1.713   6.543 -0.7093  0.2334  0.0090
  159DOPC  H13R19178   6.228   1.795   6.554 -2.3990 -1.4159  1.8563
  159DOPC  H13S19179   6.244   1.625   6.509  2.2094 -1.5151 -0.7339
  159DOPC  C21419180   6.413   1.748   6.437 -0.0431  0.0804 -0.0195
  159DOPC  H14R19181   6.463   1.654   6.407  1.5582  0.6746  0.6546
  159DOPC  H14S19182   6.489   1.811   6.490  1.5380  0.1689 -2.2613
  159DOPC  C21519183   6.367   1.827   6.307 -1.1649 -0.0122 -0.4074
  159DOPC  H15R19184   6.328   1.922   6.350 -3.7803 -1.2113  0.0719
  159DOPC  H15S19185   6.276   1.786   6.259 -2.4638  1.3679  0.7846
  159DOPC  C21619186   6.481   1.865   6.217  0.0650 -0.1421  0.0142
  159DOPC  H16R19187   6.522   1.774   6.167 -1.1562 -0.5113 -0.3416
  159DOPC  H16S19188   6.569   1.899   6.276  1.3945 -1.0309 -1.3837
  159DOPC  C21719189   6.454   1.953   6.101 -0.1619 -1.0457  0.7447
  159DOPC  H17R19190   6.419   2.055   6.128 -0.2450 -0.5607 -1.0439
  159DOPC  H17S19191   6.371   1.899   6.051 -0.1325 -1.0632  0.7143
  159DOPC  C21819192   6.568   1.978   6.002 -0.1516 -0.2009  0.0951
  159DOPC  H18R19193   6.604   1.882   5.960  1.4155 -0.3491  1.6748
  159DOPC  H18S19194   6.645   2.028   6.063  0.7036 -0.2769 -0.8862
  159DOPC  H18T19195   6.539   2.045   5.918 -0.8846 -0.3559  0.2175
  159DOPC   C3319196   5.926   1.007   6.968  0.3516 -0.6432 -0.4210
  159DOPC   H3X19197   5.867   0.967   7.053  1.6445 -1.7335 -0.0058
  159DOPC   H3Y19198   5.880   0.983   6.869 -0.1983 -0.9440 -0.0986
  159DOPC   C3419199   5.923   1.171   6.975 -0.0206  0.9300  0.1162
  159DOPC   H4X19200   5.947   1.200   7.080  0.2304 -0.4216  0.4534
  159DOPC   H4Y19201   5.817   1.199   6.956  0.1940  0.4210 -2.0125
  159DOPC   C3519202   6.015   1.242   6.874  0.1147 -0.1725  0.8852
  159DOPC   H5X19203   6.118   1.235   6.916  0.7085 -1.4825 -0.6852
  159DOPC   H5Y19204   5.990   1.349   6.863 -0.3997 -0.4319 -0.7540
  159DOPC   C3619205   6.010   1.197   6.729  0.3293 -0.2330  0.1606
  159DOPC   H6X19206   6.037   1.090   6.714  0.9772  0.1651 -1.8116
  159DOPC   H6Y19207   5.907   1.208   6.688 -0.3324  1.0149  2.0488
  159DOPC   C3719208   6.108   1.280   6.637  0.0092  0.0115 -0.4727
  159DOPC   H7X19209   6.103   1.389   6.653  0.0746  0.2807 -2.1007
  159DOPC   H7Y19210   6.211   1.244   6.659 -0.0538  1.4383  2.5770
  159DOPC   C3819211   6.078   1.265   6.482  0.1518 -0.0015 -0.6268
  159DOPC   H8X19212   5.988   1.322   6.451  1.1316  0.8301 -2.0826
  159DOPC   H8Y19213   6.054   1.160   6.455  0.2058  0.1563 -1.3109
  159DOPC   C3919214   6.191   1.317   6.396 -0.3843  0.3077  0.4431
  159DOPC   H9X19215   6.288   1.319   6.448 -0.3841  0.6506  0.4345
  159DOPC  C31019216   6.190   1.351   6.267 -0.1644 -0.2277 -0.8645
  159DOPC  H10X19217   6.286   1.374   6.219  0.1580 -0.1690 -0.2155
  159DOPC  C31119218   6.066   1.337   6.175  0.5248 -0.5486 -0.1172
  159DOPC  H11X19219   5.981   1.283   6.222 -1.5603  0.9946 -1.9002
  159DOPC  H11Y19220   6.104   1.284   6.085  2.8020  1.1871 -0.2735
  159DOPC  C31219221   6.004   1.470   6.140  0.0607 -0.0108 -0.3817
  159DOPC  H12X19222   5.937   1.457   6.052  0.1433  1.5332 -0.6885
  159DOPC  H12Y19223   6.079   1.541   6.100 -1.4750  1.1573 -1.2974
  159DOPC  C31319224   5.920   1.538   6.249  0.2832 -0.2249 -0.3995
  159DOPC  H13X19225   5.849   1.467   6.297 -1.2451  1.8862  0.6157
  159DOPC  H13Y19226   5.984   1.569   6.334 -0.1700 -0.5478  0.0670
  159DOPC  C31419227   5.830   1.661   6.190  0.3361 -0.3563 -0.0048
  159DOPC  H14X19228   5.810   1.735   6.271  3.9937  2.0226 -1.0575
  159DOPC  H14Y19229   5.894   1.717   6.120 -0.0727 -1.7720 -1.5878
  159DOPC  C31519230   5.698   1.604   6.122  0.6371 -0.2907 -0.2056
  159DOPC  H15X19231   5.640   1.540   6.192 -0.2390  0.7865  0.0825
  159DOPC  H15Y19232   5.726   1.526   6.047  0.9812 -0.6863  0.3290
  159DOPC  C31619233   5.602   1.703   6.056 -0.0831  0.3954  0.1641
  159DOPC  H16X19234   5.550   1.769   6.128 -1.4033  0.6904 -1.0231
  159DOPC  H16Y19235   5.646   1.774   5.983  0.2369  0.9933  0.9299
  159DOPC  C31719236   5.491   1.622   5.989  0.3124 -0.2244  0.3181
  159DOPC  H17X19237   5.539   1.571   5.903  1.4276 -0.3922  1.0256
  159DOPC  H17Y19238   5.462   1.544   6.063  0.2084  1.9835  2.7399
  159DOPC  C31819239   5.370   1.707   5.951 -0.1231  0.3954 -0.7280
  159DOPC  H18X19240   5.269   1.664   5.937 -0.4693  1.1630 -0.6116
  159DOPC  H18Y19241   5.354   1.783   6.031  0.0530  0.1821 -0.4857
  159DOPC  H18Z19242   5.380   1.764   5.857 -0.1679 -1.1691 -1.7122
  160DOPC     N19243   2.067   5.692   6.954  0.4946 -0.3370 -0.8651
  160DOPC   C1219244   2.013   5.752   6.828 -0.5453  0.2328  0.2133
  160DOPC  H12A19245   1.922   5.699   6.805 -0.5443  0.0797  0.5650
  160DOPC  H12B19246   2.077   5.722   6.746  0.1691 -2.8750  1.7455
  160DOPC   C1319247   2.081   5.539   6.943  0.1658 -0.3723 -0.1605
  160DOPC  H13A19248   2.147   5.519   6.860  0.3124  0.2864 -0.2114
  160DOPC  H13B19249   2.133   5.504   7.031  2.0201 -0.8268 -1.3753
  160DOPC  H13C19250   1.987   5.487   6.935  0.6454 -2.5202  4.6460
  160DOPC   C1419251   1.976   5.711   7.074 -0.1535 -0.1392  1.0156
  160DOPC  H14A19252   2.029   5.701   7.168  2.2543  0.2786 -0.2177
  160DOPC  H14B19253   1.915   5.798   7.056  2.2061  0.7903 -4.4228
  160DOPC  H14C19254   1.902   5.632   7.075  1.3421 -1.6007  1.4485
  160DOPC   C1519255   2.205   5.754   6.974  0.0569  0.3036  0.3453
  160DOPC  H15A19256   2.230   5.708   7.068 -0.9057 -0.3648  0.2821
  160DOPC  H15B19257   2.213   5.860   6.990  2.2618  0.6077 -2.0501
  160DOPC  H15C19258   2.275   5.712   6.902 -0.3285 -0.8410  0.6151
  160DOPC   C1119259   1.982   5.908   6.826 -0.4887  0.1443  0.3063
  160DOPC  H11A19260   2.072   5.966   6.859 -0.0968  0.0252 -0.5434
  160DOPC  H11B19261   1.958   5.931   6.721 -0.7665 -1.1350  0.0751
  160DOPC     P19262   1.724   5.907   6.891  0.1099  0.1352 -0.4664
  160DOPC   O1319263   1.655   5.974   7.000  0.2695  0.5323  0.7297
  160DOPC   O1419264   1.697   5.761   6.886 -0.1456 -0.5161  0.1567
  160DOPC   O1219265   1.879   5.941   6.916 -0.2446  0.0106 -0.6943
  160DOPC   O1119266   1.690   5.976   6.755 -0.3485 -0.0725 -0.2754
  160DOPC    C119267   1.662   6.116   6.734 -0.4719  0.0772  0.3287
  160DOPC    HA19268   1.721   6.185   6.797  0.7897 -1.1794  0.5715
  160DOPC    HB19269   1.552   6.124   6.750 -1.0042 -2.1336 -1.5834
  160DOPC    C219270   1.697   6.161   6.588 -0.1753  0.4065  0.0373
  160DOPC    HS19271   1.727   6.267   6.591  1.1111  0.1105 -1.3192
  160DOPC   O2119272   1.589   6.139   6.499  0.0984 -0.2924  0.4261
  160DOPC   C2119273   1.489   6.215   6.525 -0.0907 -0.3138  0.3523
  160DOPC   O2219274   1.478   6.301   6.612 -0.7439 -0.0119  0.1505
  160DOPC   C2219275   1.375   6.186   6.430  0.6989 -0.2066 -0.1563
  160DOPC   H2R19276   1.284   6.232   6.475  0.3690 -1.5807  0.6489
  160DOPC   H2S19277   1.357   6.077   6.421 -1.9790  0.1209  0.3564
  160DOPC    C319278   1.823   6.089   6.524  0.3132  0.2181  0.3103
  160DOPC    HX19279   1.811   5.979   6.511 -0.4459  0.1350  1.5207
  160DOPC    HY19280   1.890   6.082   6.612  1.3431  1.8629 -0.3080
  160DOPC   O3119281   1.877   6.166   6.415 -0.8295 -0.3243 -0.8225
  160DOPC   C3119282   1.999   6.135   6.366  0.3583  0.6647  0.3373
  160DOPC   O3219283   2.073   6.050   6.412 -0.4383 -0.6253  0.2184
  160DOPC   C3219284   2.028   6.194   6.236  0.0659  0.4267 -0.1699
  160DOPC   H2X19285   2.115   6.138   6.195 -0.4225 -0.2826 -0.2666
  160DOPC   H2Y19286   1.939   6.165   6.175 -1.1668  1.5218  1.0328
  160DOPC   C2319287   1.408   6.239   6.291  0.3865 -0.0662 -0.1828
  160DOPC   H3R19288   1.452   6.340   6.300  0.1274  0.1592 -1.2530
  160DOPC   H3S19289   1.311   6.244   6.236  0.7044  1.6274 -0.6532
  160DOPC   C2419290   1.513   6.152   6.215 -0.0007 -0.6053 -0.2073
  160DOPC   H4R19291   1.476   6.048   6.199 -0.0217 -1.5148  4.4167
  160DOPC   H4S19292   1.612   6.164   6.264 -1.9027  2.0466  3.4391
  160DOPC   C2519293   1.530   6.216   6.076  0.2873 -0.4345  0.9549
  160DOPC   H5R19294   1.539   6.326   6.090  1.3949 -0.6277  1.9913
  160DOPC   H5S19295   1.432   6.199   6.027 -0.3447 -1.1494  2.3910
  160DOPC   C2619296   1.645   6.170   5.987  0.4305  0.3653 -0.2343
  160DOPC   H6R19297   1.639   6.060   5.974  0.9813  0.2033  0.7570
  160DOPC   H6S19298   1.738   6.191   6.045 -0.3654  0.2826  1.1173
  160DOPC   C2719299   1.636   6.233   5.851  0.4791  0.3877 -0.4390
  160DOPC   H7R19300   1.630   6.344   5.852  2.0481  0.4885  0.0542
  160DOPC   H7S19301   1.546   6.198   5.795  1.7288 -1.7890 -1.2203
  160DOPC   C2819302   1.754   6.190   5.757  0.4489 -0.0441 -0.7283
  160DOPC   H8R19303   1.749   6.084   5.725 -0.3662  0.3888 -2.1287
  160DOPC   H8S19304   1.849   6.201   5.814  0.3340 -0.8468 -0.3746
  160DOPC   C2919305   1.757   6.290   5.641  0.3125  0.4057 -0.0203
  160DOPC   H9R19306   1.736   6.391   5.680 -2.5316 -0.8946  2.2023
  160DOPC  C21019307   1.768   6.265   5.507 -0.4974  0.6748 -0.2754
  160DOPC  H10R19308   1.779   6.355   5.444  0.5694  0.5412 -0.3021
  160DOPC  C21119309   1.783   6.137   5.427  0.2632 -0.0234 -0.1777
  160DOPC  H11R19310   1.696   6.131   5.357  1.9162 -1.0523 -2.2760
  160DOPC  H11S19311   1.776   6.049   5.495  1.7845 -0.8437 -1.0344
  160DOPC  C21219312   1.912   6.142   5.341 -0.3458  0.1545  0.0533
  160DOPC  H12R19313   1.996   6.118   5.410 -0.3997  0.4763  0.2359
  160DOPC  H12S19314   1.922   6.246   5.303  2.2221 -0.5544 -1.4293
  160DOPC  C21319315   1.916   6.034   5.235  0.2611  0.4485 -0.0260
  160DOPC  H13R19316   1.913   5.933   5.281 -2.1786  0.2196 -0.5567
  160DOPC  H13S19317   2.013   6.042   5.182 -0.3184  2.9710 -0.8637
  160DOPC  C21419318   1.795   6.023   5.135 -0.5015  0.4972 -0.4221
  160DOPC  H14R19319   1.766   6.121   5.090  0.2631  1.1314  0.4342
  160DOPC  H14S19320   1.701   5.999   5.188  0.4827  0.7268  1.5283
  160DOPC  C21519321   1.808   5.914   5.027  0.2439 -0.4414 -0.2815
  160DOPC  H15R19322   1.845   5.822   5.077  2.8290  1.2034  1.0478
  160DOPC  H15S19323   1.886   5.949   4.956 -0.3149  2.2326  0.2917
  160DOPC  C21619324   1.682   5.894   4.940 -0.8444 -0.1956  0.3213
  160DOPC  H16R19325   1.630   5.991   4.922 -2.4295 -0.7515  1.7199
  160DOPC  H16S19326   1.603   5.844   4.999 -1.4172 -1.2131 -1.2351
  160DOPC  C21719327   1.693   5.805   4.823 -0.3957 -0.4372  0.9103
  160DOPC  H17R19328   1.780   5.831   4.759 -1.3422 -0.0152 -0.2318
  160DOPC  H17S19329   1.601   5.806   4.760 -1.0416  0.7578  1.8313
  160DOPC  C21819330   1.714   5.654   4.859 -0.4577  0.0624 -0.2785
  160DOPC  H18R19331   1.712   5.588   4.770 -0.9819  0.5981 -0.6673
  160DOPC  H18S19332   1.632   5.620   4.927 -0.0525  2.1784  1.3792
  160DOPC  H18T19333   1.803   5.641   4.924 -1.4796 -1.5615  0.8741
  160DOPC   C3319334   2.050   6.355   6.242  0.8107  0.4395  0.5488
  160DOPC   H3X19335   2.142   6.381   6.300  0.6912  2.7653 -0.2173
  160DOPC   H3Y19336   1.967   6.395   6.305  1.4974 -0.2000  1.9213
  160DOPC   C3419337   2.046   6.413   6.101  0.0167 -0.6913 -0.4954
  160DOPC   H4X19338   1.957   6.369   6.051 -0.7871  0.5178 -0.1948
  160DOPC   H4Y19339   2.138   6.394   6.042  1.7807  4.5431 -0.0183
  160DOPC   C3519340   2.038   6.568   6.106  0.5970 -0.5550  0.1583
  160DOPC   H5X19341   2.108   6.615   6.178 -0.1778 -0.1157  0.6354
  160DOPC   H5Y19342   1.940   6.602   6.146  0.8110  1.8452 -1.1919
  160DOPC   C3619343   2.050   6.637   5.968 -0.4753 -0.4846  0.0863
  160DOPC   H6X19344   2.041   6.747   5.982  3.0223  0.0818 -1.2414
  160DOPC   H6Y19345   2.151   6.626   5.925  0.4815  1.8724  1.4989
  160DOPC   C3719346   1.932   6.595   5.881 -0.8053 -0.2651  0.1653
  160DOPC   H7X19347   1.947   6.499   5.828  0.9145  0.5637 -0.9467
  160DOPC   H7Y19348   1.847   6.590   5.953  0.7017  2.3122  2.3241
  160DOPC   C3819349   1.903   6.703   5.775 -0.3225  0.8582 -0.4321
  160DOPC   H8X19350   1.855   6.789   5.827 -0.9720  0.0707  0.3047
  160DOPC   H8Y19351   1.830   6.656   5.705  0.3163 -3.8197  1.6966
  160DOPC   C3919352   2.011   6.751   5.682 -0.0205 -0.0155 -0.7268
  160DOPC   H9X19353   2.088   6.811   5.734 -0.6282 -0.7558  1.1194
  160DOPC  C31019354   2.025   6.734   5.548 -0.3969  0.1754  0.6334
  160DOPC  H10X19355   2.112   6.782   5.500  1.0159 -1.5579  1.3528
  160DOPC  C31119356   1.934   6.666   5.451 -0.1854  0.0523  0.1843
  160DOPC  H11X19357   1.828   6.687   5.477 -0.0799 -0.8337  1.4408
  160DOPC  H11Y19358   1.953   6.557   5.453  0.8608  0.2307  1.2910
  160DOPC  C31219359   1.969   6.702   5.306 -0.2728 -0.5420 -0.3960
  160DOPC  H12X19360   2.078   6.686   5.291 -0.1481 -1.2608  1.0798
  160DOPC  H12Y19361   1.944   6.810   5.293 -0.0589 -0.6758 -2.1487
  160DOPC  C31319362   1.900   6.611   5.208 -0.4999 -0.0852  0.0075
  160DOPC  H13X19363   1.942   6.508   5.215 -0.8472 -0.2014  0.4263
  160DOPC  H13Y19364   1.796   6.605   5.246 -0.1812  1.5812  1.2685
  160DOPC  C31419365   1.905   6.661   5.062  0.7261 -0.5692  0.4699
  160DOPC  H14X19366   1.867   6.581   4.995  0.9502 -0.7723  0.5845
  160DOPC  H14Y19367   1.843   6.751   5.042 -1.2127 -1.8743  0.3632
  160DOPC  C31519368   2.052   6.699   5.014 -0.2527 -0.1258  0.3373
  160DOPC  H15X19369   2.115   6.609   5.032  0.0086  0.0612  0.3548
  160DOPC  H15Y19370   2.082   6.794   5.063 -0.5189  1.1806 -1.8942
  160DOPC  C31619371   2.074   6.733   4.866 -0.1230  0.1430  0.1493
  160DOPC  H16X19372   2.012   6.671   4.797 -0.7180 -0.6413  1.3495
  160DOPC  H16Y19373   2.052   6.839   4.844  0.2873  0.2421  0.2165
  160DOPC  C31719374   2.220   6.714   4.820  0.2148 -0.4615  0.5730
  160DOPC  H17X19375   2.287   6.771   4.888 -1.4594  0.3587  1.5930
  160DOPC  H17Y19376   2.243   6.606   4.830 -0.6352 -0.9500 -1.8938
  160DOPC  C31819377   2.245   6.747   4.671 -0.2096 -0.1222 -0.0237
  160DOPC  H18X19378   2.214   6.851   4.645 -1.7988 -0.0484  1.9153
  160DOPC  H18Y19379   2.353   6.728   4.657  0.1023  1.1269  0.5459
  160DOPC  H18Z19380   2.181   6.682   4.608 -2.7501  0.8907  1.3352
  161DOPC     N19381   2.464   0.588   7.219  0.4364  0.3564  0.3884
  161DOPC   C1219382   2.602   0.645   7.197  0.1923  0.7120  0.4649
  161DOPC  H12A19383   2.659   0.567   7.149 -1.8319 -0.7989  0.3511
  161DOPC  H12B19384   2.646   0.660   7.295 -1.6989  3.2087  1.0578
  161DOPC   C1319385   2.402   0.662   7.332  0.8776 -0.2463 -0.2963
  161DOPC  H13A19386   2.391   0.767   7.311 -0.1784 -0.2156  0.3450
  161DOPC  H13B19387   2.308   0.622   7.364  1.0623 -1.4849 -1.2066
  161DOPC  H13C19388   2.467   0.642   7.416 -1.6765 -0.9801  1.6144
  161DOPC   C1419389   2.486   0.445   7.261 -0.2346 -0.5347  0.3289
  161DOPC  H14A19390   2.395   0.391   7.286 -0.8351  0.6990  0.9105
  161DOPC  H14B19391   2.556   0.400   7.192 -1.1755 -0.4094 -0.7372
  161DOPC  H14C19392   2.539   0.442   7.355  1.6694 -2.0137 -0.7096
  161DOPC   C1519393   2.374   0.594   7.102  0.4223  0.2110  0.2668
  161DOPC  H15A19394   2.349   0.697   7.080  1.9442  0.0677 -2.6049
  161DOPC  H15B19395   2.284   0.539   7.126 -0.7942  2.1226  0.2916
  161DOPC  H15C19396   2.417   0.554   7.012  0.0229  0.5326 -0.0694
  161DOPC   C1119397   2.607   0.772   7.114  0.8597 -0.3385  0.0410
  161DOPC  H11A19398   2.530   0.850   7.132 -0.8812 -1.3030 -2.5103
  161DOPC  H11B19399   2.707   0.813   7.139  1.4639 -1.7603  0.0581
  161DOPC     P19400   2.697   0.659   6.892 -0.1330  0.0788  0.4079
  161DOPC   O1319401   2.615   0.594   6.790 -0.1855  0.0739 -0.3401
  161DOPC   O1419402   2.778   0.562   6.970  0.3158 -0.8514 -0.7865
  161DOPC   O1219403   2.596   0.742   6.976 -0.1371  0.1160 -0.0567
  161DOPC   O1119404   2.787   0.769   6.829  0.0756 -0.2614  0.5868
  161DOPC    C119405   2.745   0.898   6.781 -0.5355 -0.0065 -0.1275
  161DOPC    HA19406   2.793   0.975   6.846  0.4576  0.1902 -1.0692
  161DOPC    HB19407   2.636   0.908   6.798 -0.3426 -0.9917  2.0041
  161DOPC    C219408   2.763   0.908   6.631 -0.4922  0.2614 -1.0068
  161DOPC    HS19409   2.728   1.008   6.596  2.8770  0.7717 -3.4633
  161DOPC   O2119410   2.710   0.795   6.568  0.2746  0.3225 -0.0861
  161DOPC   C2119411   2.572   0.805   6.545 -0.1025  0.0685 -0.1403
  161DOPC   O2219412   2.501   0.903   6.571 -0.6432  0.2615  0.3288
  161DOPC   C2219413   2.533   0.696   6.448 -0.8416 -0.1908 -0.6982
  161DOPC   H2R19414   2.532   0.597   6.498 -0.6014  0.6952  1.1610
  161DOPC   H2S19415   2.605   0.698   6.364  1.2239  1.5876  1.0088
  161DOPC    C319416   2.912   0.919   6.593 -0.4223  0.2848 -0.8230
  161DOPC    HX19417   2.955   0.835   6.651  0.3625  1.6465  0.6392
  161DOPC    HY19418   2.950   1.014   6.635 -1.9103 -0.1223  1.6101
  161DOPC   O3119419   2.919   0.919   6.453  0.1969  0.0770  0.5436
  161DOPC   C3119420   2.957   0.804   6.393  0.3096 -0.2626 -0.0360
  161DOPC   O3219421   2.974   0.701   6.453 -0.5303  1.2732  0.3594
  161DOPC   C3219422   2.962   0.824   6.235  0.1935  0.6158 -0.2425
  161DOPC   H2X19423   2.862   0.863   6.203 -0.4306 -1.5703 -1.1857
  161DOPC   H2Y19424   3.046   0.896   6.223  1.3827 -0.2419  2.2930
  161DOPC   C2319425   2.383   0.704   6.403 -0.3098  0.5943  0.9767
  161DOPC   H3R19426   2.318   0.719   6.492 -0.7916  2.2946  0.3707
  161DOPC   H3S19427   2.352   0.607   6.359 -3.9395  2.5326 -1.2118
  161DOPC   C2419428   2.348   0.792   6.286  0.2325  0.1460 -0.1964
  161DOPC   H4R19429   2.382   0.746   6.191 -1.0017  1.0751 -1.1104
  161DOPC   H4S19430   2.404   0.888   6.286 -1.4548  1.1810  0.4789
  161DOPC   C2519431   2.203   0.826   6.272 -0.4691  0.0549 -0.3842
  161DOPC   H5R19432   2.176   0.890   6.359 -0.7521 -0.4730 -0.0799
  161DOPC   H5S19433   2.139   0.737   6.289 -1.2509  0.1141 -2.6155
  161DOPC   C2619434   2.160   0.883   6.132 -0.2523  0.4702  0.3176
  161DOPC   H6R19435   2.219   0.975   6.109 -0.1553  0.6761  1.3487
  161DOPC   H6S19436   2.056   0.920   6.126 -0.8661 -1.3617 -1.1109
  161DOPC   C2719437   2.175   0.780   6.018 -0.3429  0.1366  0.5661
  161DOPC   H7R19438   2.131   0.684   6.053 -1.9053  0.8057  0.5282
  161DOPC   H7S19439   2.280   0.757   5.990 -0.3716 -1.1897  1.4590
  161DOPC   C2819440   2.082   0.813   5.903  0.3309 -0.0062  0.1825
  161DOPC   H8R19441   1.976   0.823   5.934  0.8095 -0.4706  2.0710
  161DOPC   H8S19442   2.085   0.729   5.830 -0.5433 -0.1626  0.3186
  161DOPC   C2919443   2.126   0.932   5.828 -0.4972  0.7748 -0.2184
  161DOPC   H9R19444   2.178   1.003   5.893  0.3235 -0.8462  0.9611
  161DOPC  C21019445   2.107   0.955   5.699  0.0903  0.0009  0.4071
  161DOPC  H10R19446   2.165   1.038   5.656 -0.2626 -0.0336 -0.1457
  161DOPC  C21119447   2.037   0.862   5.597 -0.0559  0.1653  0.2338
  161DOPC  H11R19448   2.079   0.759   5.601  1.5234  0.7749  0.1880
  161DOPC  H11S19449   2.056   0.884   5.489  0.4854  0.9560  0.4795
  161DOPC  C21219450   1.884   0.865   5.608 -0.1191 -0.1023  0.2410
  161DOPC  H12R19451   1.851   0.969   5.584  1.1727  0.2161 -0.2206
  161DOPC  H12S19452   1.856   0.846   5.713 -0.3780 -0.6263  0.0793
  161DOPC  C21319453   1.801   0.764   5.522  0.5946 -0.0965  0.0641
  161DOPC  H13R19454   1.835   0.780   5.418 -0.9742 -1.2477 -0.6591
  161DOPC  H13S19455   1.698   0.805   5.530  0.7859  0.6414 -1.0735
  161DOPC  C21419456   1.809   0.609   5.548  0.4133 -0.0518 -0.4137
  161DOPC  H14R19457   1.784   0.593   5.655  0.8432 -0.1103 -0.3188
  161DOPC  H14S19458   1.910   0.563   5.545  0.1430 -0.6999  0.2202
  161DOPC  C21519459   1.709   0.527   5.464 -0.4455 -0.1330 -0.5275
  161DOPC  H15R19460   1.608   0.570   5.480 -0.9261 -1.0717 -1.0097
  161DOPC  H15S19461   1.709   0.418   5.487 -1.4116 -0.0635 -0.1622
  161DOPC  C21619462   1.743   0.544   5.315  0.7916  0.2376 -0.6655
  161DOPC  H16R19463   1.841   0.501   5.286  1.3234  1.1154 -0.2144
  161DOPC  H16S19464   1.738   0.650   5.281 -0.2969 -0.4598 -2.8885
  161DOPC  C21719465   1.637   0.467   5.233  0.2297 -0.0791 -0.8346
  161DOPC  H17R19466   1.542   0.498   5.280 -0.0216  0.0022 -1.3807
  161DOPC  H17S19467   1.654   0.358   5.248 -0.9735 -0.3454 -1.2907
  161DOPC  C21819468   1.633   0.497   5.084  0.5428 -0.3285  0.0235
  161DOPC  H18R19469   1.552   0.437   5.036 -0.0790 -0.7626  1.5717
  161DOPC  H18S19470   1.729   0.463   5.038  0.1237 -1.2040 -0.2331
  161DOPC  H18T19471   1.616   0.604   5.062 -2.1559 -0.6706  0.0992
  161DOPC   C3319472   3.004   0.696   6.159 -0.4033 -0.2306  0.1041
  161DOPC   H3X19473   3.102   0.658   6.196 -1.3296 -2.8473  0.0879
  161DOPC   H3Y19474   3.024   0.721   6.053 -0.8061 -2.1025 -0.4570
  161DOPC   C3419475   2.899   0.581   6.149  0.4468  0.4331 -0.8183
  161DOPC   H4X19476   2.809   0.626   6.100 -1.0260 -0.2831  1.0891
  161DOPC   H4Y19477   2.865   0.547   6.249  1.3264  1.0669 -0.2872
  161DOPC   C3519478   2.954   0.458   6.085 -0.0578  0.0788 -0.6711
  161DOPC   H5X19479   2.942   0.370   6.152 -1.3390  0.1629 -0.7652
  161DOPC   H5Y19480   3.062   0.470   6.062  0.1868 -0.4098  0.1652
  161DOPC   C3619481   2.876   0.432   5.962 -0.0339  0.2140 -0.1021
  161DOPC   H6X19482   2.775   0.393   5.985 -1.3243  2.9438 -0.6931
  161DOPC   H6Y19483   2.859   0.534   5.921 -2.9257  0.2787  1.0417
  161DOPC   C3719484   2.947   0.338   5.862  0.4522  0.7286 -0.2402
  161DOPC   H7X19485   2.895   0.328   5.764  1.1178 -4.0849 -0.3119
  161DOPC   H7Y19486   3.049   0.375   5.837  0.4004  0.3595 -1.0134
  161DOPC   C3819487   2.969   0.198   5.911  0.0781 -0.3004  0.0846
  161DOPC   H8X19488   3.043   0.190   5.994  0.3328 -0.8681 -0.1845
  161DOPC   H8Y19489   3.024   0.151   5.827  2.5595  2.0236  0.2962
  161DOPC   C3919490   2.845   0.117   5.935  0.0872  0.7371  0.7768
  161DOPC   H9X19491   2.815   0.140   6.038  1.8746  0.8992  1.2920
  161DOPC  C31019492   2.769   0.030   5.858  0.3404  0.6864 -0.8777
  161DOPC  H10X19493   2.684  -0.021   5.904  0.6575 -1.5790 -2.6392
  161DOPC  C31119494   2.807  -0.012   5.719 -0.1783 -0.1754 -0.8856
  161DOPC  H11X19495   2.788  -0.120   5.703 -0.2856 -0.1394 -1.0013
  161DOPC  H11Y19496   2.914   0.008   5.698 -0.5129  0.6845 -1.9101
  161DOPC  C31219497   2.731   0.065   5.604  0.0121  0.9038 -0.3146
  161DOPC  H12X19498   2.753   0.173   5.596  2.2934  0.4951 -0.3902
  161DOPC  H12Y19499   2.623   0.047   5.624 -0.0712  0.1409 -1.3451
  161DOPC  C31319500   2.765   0.010   5.458  1.2624 -0.3433  0.0465
  161DOPC  H13X19501   2.860   0.056   5.423 -0.0449  2.0440 -0.4955
  161DOPC  H13Y19502   2.771  -0.101   5.449 -0.1958 -0.4853  0.5453
  161DOPC  C31419503   2.649   0.056   5.362  0.0021 -0.4667  0.7940
  161DOPC  H14X19504   2.556   0.006   5.396 -0.6457  0.1919  0.0137
  161DOPC  H14Y19505   2.622   0.163   5.371  1.7621  0.1312 -0.5937
  161DOPC  C31519506   2.674   0.040   5.212 -0.4181 -0.6558  0.3272
  161DOPC  H15X19507   2.723  -0.059   5.200 -0.6140 -0.6222 -0.7880
  161DOPC  H15Y19508   2.760   0.107   5.192  0.5139 -2.1871 -0.9688
  161DOPC  C31619509   2.560   0.046   5.122  0.1820  0.3008 -0.1527
  161DOPC  H16X19510   2.498  -0.039   5.159  0.8777 -0.2231 -0.1808
  161DOPC  H16Y19511   2.505   0.142   5.136  0.7792  0.2701  3.0714
  161DOPC  C31719512   2.613   0.029   4.974  0.1400  0.2720  0.0666
  161DOPC  H17X19513   2.644   0.130   4.939 -0.0353  0.3816  0.2304
  161DOPC  H17Y19514   2.690  -0.051   4.987 -2.3243 -2.4835 -1.0699
  161DOPC  C31819515   2.508  -0.028   4.869 -0.9907 -0.1737 -0.9854
  161DOPC  H18X19516   2.553  -0.016   4.768 -0.0490 -1.4055 -0.7345
  161DOPC  H18Y19517   2.486  -0.136   4.884 -0.9481 -0.2696 -1.5921
  161DOPC  H18Z19518   2.411   0.027   4.873 -0.0298  1.8306 -2.8117
  162DOPC     N19519   2.742   6.266   7.000  0.0526 -0.0684  0.8104
  162DOPC   C1219520   2.718   6.239   6.852 -0.1745 -0.0704 -0.1728
  162DOPC  H12A19521   2.763   6.310   6.785 -0.6188  1.5227  1.1440
  162DOPC  H12B19522   2.613   6.251   6.831 -0.6741  0.5685  2.2975
  162DOPC   C1319523   2.634   6.206   7.079 -0.6097  0.2411 -0.6248
  162DOPC  H13A19524   2.660   6.204   7.184  0.7548 -0.2317 -0.9525
  162DOPC  H13B19525   2.543   6.263   7.086 -1.0137 -0.5729  1.6507
  162DOPC  H13C19526   2.616   6.105   7.048 -2.7754  1.4880 -3.9836
  162DOPC   C1419527   2.752   6.412   7.026 -0.1681 -0.2665 -0.1678
  162DOPC  H14A19528   2.653   6.454   7.031  0.0463  0.3788 -1.0848
  162DOPC  H14B19529   2.803   6.433   7.118  0.3748 -0.5758 -0.3930
  162DOPC  H14C19530   2.818   6.454   6.951  1.5396 -1.3284  0.6793
  162DOPC   C1519531   2.870   6.199   7.044 -0.4491  0.8273 -0.0368
  162DOPC  H15A19532   2.857   6.091   7.042 -0.9258  0.8692  0.5251
  162DOPC  H15B19533   2.891   6.230   7.146 -0.4189 -0.1902  0.2805
  162DOPC  H15C19534   2.949   6.225   6.976 -1.8213  2.6354 -1.0186
  162DOPC   C1119535   2.759   6.102   6.798 -0.0204 -0.0093  0.3341
  162DOPC  H11A19536   2.722   6.025   6.869 -1.4768 -0.4393 -0.8244
  162DOPC  H11B19537   2.697   6.084   6.707 -0.2432 -2.0388  0.8431
  162DOPC     P19538   2.965   6.148   6.644  0.3231  0.0776  0.0831
  162DOPC   O1319539   3.109   6.139   6.665  0.1006  0.7239 -0.2217
  162DOPC   O1419540   2.914   6.280   6.619  1.1011 -0.2883 -0.0537
  162DOPC   O1219541   2.894   6.095   6.775 -0.0185  0.0108 -0.0091
  162DOPC   O1119542   2.904   6.043   6.540  0.0101 -0.2993  0.2992
  162DOPC    C119543   2.933   6.055   6.404 -0.9870  0.9110 -0.0209
  162DOPC    HA19544   2.958   5.958   6.354  3.0862  1.5357  0.4694
  162DOPC    HB19545   3.016   6.128   6.391 -1.1896  1.3123  0.8687
  162DOPC    C219546   2.822   6.110   6.318  1.0549  0.8553  0.0976
  162DOPC    HS19547   2.788   6.200   6.374 -0.4902  0.8816 -0.8239
  162DOPC   O2119548   2.715   6.011   6.309 -0.6771 -0.8579 -0.3422
  162DOPC   C2119549   2.595   6.058   6.292 -0.4061 -0.6052  0.1204
  162DOPC   O2219550   2.563   6.177   6.288 -0.1100 -1.4090  0.5191
  162DOPC   C2219551   2.493   5.945   6.289 -0.2307  0.5169 -0.7275
  162DOPC   H2R19552   2.391   5.987   6.301  0.3629  1.7803  0.0412
  162DOPC   H2S19553   2.503   5.868   6.370 -1.5409  0.3987 -0.6602
  162DOPC    C319554   2.876   6.159   6.177  0.3902 -0.3493 -0.1815
  162DOPC    HX19555   2.929   6.074   6.128  0.5013 -1.2026  1.3505
  162DOPC    HY19556   2.943   6.245   6.198  0.6728  0.0910 -2.5890
  162DOPC   O3119557   2.777   6.217   6.102  0.1196 -0.0381  0.0867
  162DOPC   C3119558   2.807   6.230   5.963  0.8535  0.1225 -0.3615
  162DOPC   O3219559   2.917   6.214   5.926 -0.7026 -0.4712  0.5166
  162DOPC   C3219560   2.680   6.266   5.882  0.1283 -0.1918 -0.2787
  162DOPC   H2X19561   2.591   6.215   5.923  0.2315  0.2233  0.4741
  162DOPC   H2Y19562   2.664   6.375   5.899  0.0747  0.1092 -2.0834
  162DOPC   C2319563   2.511   5.867   6.164  0.0422  0.9728 -0.0410
  162DOPC   H3R19564   2.434   5.787   6.167  1.0463 -0.0092  1.0255
  162DOPC   H3S19565   2.607   5.810   6.165 -0.2288  0.5111 -0.1129
  162DOPC   C2419566   2.479   5.942   6.038 -0.3551 -0.3437 -0.1381
  162DOPC   H4R19567   2.466   5.859   5.966 -0.2277  0.0765 -0.6489
  162DOPC   H4S19568   2.570   5.995   6.003  0.7427 -1.8353  0.3291
  162DOPC   C2519569   2.355   6.042   6.036  0.1572 -0.4375 -0.4447
  162DOPC   H5R19570   2.359   6.128   6.106 -1.3736 -0.8959  0.2673
  162DOPC   H5S19571   2.273   5.983   6.083  1.1200 -0.9476  0.6463
  162DOPC   C2619572   2.325   6.083   5.886 -0.1719 -0.2926  0.4062
  162DOPC   H6R19573   2.379   6.016   5.818  2.4148  0.5486  1.5116
  162DOPC   H6S19574   2.363   6.187   5.873 -0.1579 -0.3655 -0.1290
  162DOPC   C2719575   2.175   6.078   5.853  0.5188  0.6848 -0.3237
  162DOPC   H7R19576   2.122   6.143   5.926  1.3196  1.3213 -0.2930
  162DOPC   H7S19577   2.131   5.979   5.878  1.7387 -0.5180 -2.6385
  162DOPC   C2819578   2.145   6.105   5.704  0.2879 -0.1143 -0.8511
  162DOPC   H8R19579   2.047   6.059   5.679 -0.6732  0.3272  1.8037
  162DOPC   H8S19580   2.222   6.045   5.650 -0.8087 -0.9628 -1.5395
  162DOPC   C2919581   2.132   6.249   5.679 -0.3305 -0.7551  0.2264
  162DOPC   H9R19582   2.048   6.298   5.730  0.3127  1.8754 -1.0286
  162DOPC  C21019583   2.207   6.331   5.596 -0.0402 -0.1317  1.0601
  162DOPC  H10R19584   2.185   6.439   5.598  1.5928  0.2239  1.3419
  162DOPC  C21119585   2.325   6.289   5.510 -0.4163 -0.4771  0.1328
  162DOPC  H11R19586   2.363   6.192   5.550 -2.0466 -2.2707 -2.3383
  162DOPC  H11S19587   2.406   6.364   5.509  0.5586 -1.4564  1.4896
  162DOPC  C21219588   2.273   6.258   5.367 -0.0891  0.0580 -0.8847
  162DOPC  H12R19589   2.213   6.346   5.335  0.9859  1.7679  1.4719
  162DOPC  H12S19590   2.211   6.166   5.366 -0.1928  0.1072 -0.1311
  162DOPC  C21319591   2.386   6.230   5.270 -0.3204 -0.2509  0.4101
  162DOPC  H13R19592   2.463   6.161   5.309 -0.4682 -2.3405 -2.6511
  162DOPC  H13S19593   2.431   6.328   5.243  0.1523 -0.5485  0.0934
  162DOPC  C21419594   2.338   6.175   5.129  0.0700 -0.3291  0.2605
  162DOPC  H14R19595   2.316   6.068   5.148 -0.4014 -0.7244 -2.2529
  162DOPC  H14S19596   2.425   6.180   5.061 -0.2403 -0.9010 -0.1856
  162DOPC  C21519597   2.224   6.252   5.061  0.5672  0.5279  0.4919
  162DOPC  H15R19598   2.266   6.349   5.027 -2.0387  0.8323 -2.2980
  162DOPC  H15S19599   2.140   6.260   5.133  1.1937  1.6532  1.1274
  162DOPC  C21619600   2.174   6.159   4.942 -0.4821 -0.0235  0.1272
  162DOPC  H16R19601   2.140   6.061   4.981 -2.8371  1.0270  0.9349
  162DOPC  H16S19602   2.259   6.154   4.871  0.0469  1.8389  0.5601
  162DOPC  C21719603   2.053   6.223   4.870 -0.7674 -0.3611 -0.4220
  162DOPC  H17R19604   1.986   6.258   4.952  0.4053  0.3601  0.2620
  162DOPC  H17S19605   1.996   6.151   4.808 -1.7564 -1.2528  1.4361
  162DOPC  C21819606   2.096   6.338   4.785  0.0498  0.1552 -0.4111
  162DOPC  H18R19607   2.181   6.313   4.717  0.5744 -1.8163  0.8644
  162DOPC  H18S19608   2.131   6.424   4.847  0.8687  0.2009 -0.9213
  162DOPC  H18T19609   2.008   6.371   4.726 -0.8048 -1.7553 -0.2790
  162DOPC   C3319610   2.689   6.245   5.728  0.0739  0.0023  0.4335
  162DOPC   H3X19611   2.797   6.255   5.703  0.3429 -0.9637  1.1396
  162DOPC   H3Y19612   2.626   6.323   5.681  0.5933  0.6115  0.7510
  162DOPC   C3419613   2.647   6.100   5.687  0.3295  0.5339  0.3124
  162DOPC   H4X19614   2.540   6.085   5.711  0.2572 -0.7115 -0.6621
  162DOPC   H4Y19615   2.702   6.021   5.742  0.0761 -1.9087 -2.6421
  162DOPC   C3519616   2.663   6.076   5.534 -0.0296  0.8489 -0.2879
  162DOPC   H5X19617   2.769   6.059   5.503 -0.5263  0.4095 -1.8789
  162DOPC   H5Y19618   2.623   6.156   5.468  0.9123  0.7861 -0.9618
  162DOPC   C3619619   2.611   5.944   5.481  0.6358 -0.5025  0.0879
  162DOPC   H6X19620   2.500   5.946   5.483  0.6456 -0.0795  1.6898
  162DOPC   H6Y19621   2.646   5.931   5.377 -0.2873  0.7947 -0.4203
  162DOPC   C3719622   2.642   5.814   5.568 -0.1702 -0.0704 -0.1829
  162DOPC   H7X19623   2.605   5.820   5.673 -0.3049  0.3443 -0.2534
  162DOPC   H7Y19624   2.579   5.737   5.519 -1.2919 -2.4499  4.4447
  162DOPC   C3819625   2.789   5.773   5.561  0.4428 -0.0642  0.0055
  162DOPC   H8X19626   2.808   5.812   5.458 -1.8528 -0.2214 -0.5341
  162DOPC   H8Y19627   2.798   5.662   5.554 -0.3609 -0.2974  2.1398
  162DOPC   C3919628   2.893   5.832   5.665 -0.1065  0.1786  0.1278
  162DOPC   H9X19629   2.938   5.924   5.624  2.9899 -1.3377 -0.1364
  162DOPC  C31019630   2.928   5.789   5.786  0.0777 -0.1602  0.4222
  162DOPC  H10X19631   2.987   5.855   5.850 -1.3166  0.8888  0.6836
  162DOPC  C31119632   2.875   5.671   5.858  0.6011  0.8229 -0.0846
  162DOPC  H11X19633   2.788   5.625   5.806  0.9440  0.1183 -0.0372
  162DOPC  H11Y19634   2.848   5.707   5.959  1.4590  2.7391 -0.4806
  162DOPC  C31219635   2.986   5.575   5.890  0.3674  0.1282  0.0959
  162DOPC  H12X19636   3.070   5.628   5.938  2.6992 -3.7312  0.7195
  162DOPC  H12Y19637   3.026   5.523   5.800  0.7846 -1.9854  1.4296
  162DOPC  C31319638   2.944   5.475   6.003 -0.7782 -0.0418  0.0039
  162DOPC  H13X19639   2.909   5.532   6.092  0.6038  0.5716  0.1647
  162DOPC  H13Y19640   2.865   5.408   5.962 -0.0938 -1.0081  0.2319
  162DOPC  C31419641   3.071   5.406   6.049  0.5432  0.0441  0.4980
  162DOPC  H14X19642   3.132   5.350   5.974 -0.3406 -1.1128  0.6191
  162DOPC  H14Y19643   3.137   5.486   6.090  2.8199 -1.4613 -0.0197
  162DOPC  C31519644   3.056   5.307   6.163  0.3474 -0.0796 -0.5274
  162DOPC  H15X19645   2.983   5.340   6.240  0.6113 -2.6373  0.9538
  162DOPC  H15Y19646   3.156   5.295   6.211 -0.3734  0.0205  1.0635
  162DOPC  C31619647   3.017   5.169   6.110 -0.3957 -0.1173 -0.3117
  162DOPC  H16X19648   2.927   5.187   6.048  0.2157  1.1944 -0.8459
  162DOPC  H16Y19649   3.093   5.122   6.045 -0.8342 -0.1050 -0.8424
  162DOPC  C31719650   2.997   5.059   6.213 -0.1246  0.3116  0.2317
  162DOPC  H17X19651   2.928   5.097   6.291 -2.1499 -1.4212 -0.6159
  162DOPC  H17Y19652   2.952   4.973   6.159  0.8468 -0.6441  0.9100
  162DOPC  C31819653   3.116   5.003   6.298 -0.9593 -0.5163  0.4282
  162DOPC  H18X19654   3.190   4.954   6.231  0.1686 -1.7231  2.4554
  162DOPC  H18Y19655   3.173   5.090   6.336 -0.2619 -1.2412  1.0912
  162DOPC  H18Z19656   3.099   4.933   6.383 -1.6482 -0.1663  0.5844
  163DOPC     N19657   0.327   2.977   7.792  0.1329 -0.0709  0.2981
  163DOPC   C1219658   0.171   2.974   7.795 -0.7623  0.0746 -0.3392
  163DOPC  H12A19659   0.142   3.078   7.787 -0.3122  0.2754  0.6063
  163DOPC  H12B19660   0.135   2.927   7.885 -2.3321 -0.3760 -1.1663
  163DOPC   C1319661   0.389   2.993   7.660 -0.3875  0.2568  0.3292
  163DOPC  H13A19662   0.355   3.086   7.617 -2.3177 -0.1099  0.9584
  163DOPC  H13B19663   0.496   2.993   7.647 -0.4596 -1.4015 -0.6466
  163DOPC  H13C19664   0.348   2.925   7.586  1.2498 -0.2604 -0.1394
  163DOPC   C1419665   0.390   2.857   7.862 -0.3450  0.4512  0.2368
  163DOPC  H14A19666   0.363   2.848   7.966  0.5490  0.5252  0.4872
  163DOPC  H14B19667   0.349   2.769   7.815 -1.2681 -0.1263  2.0228
  163DOPC  H14C19668   0.497   2.852   7.845 -0.4133  2.0308 -0.8128
  163DOPC   C1519669   0.368   3.100   7.878 -0.1785 -0.1917  0.4808
  163DOPC  H15A19670   0.340   3.190   7.825 -0.9657 -0.8965 -0.3529
  163DOPC  H15B19671   0.473   3.099   7.900 -0.4212  0.8428  1.8127
  163DOPC  H15C19672   0.317   3.095   7.973 -0.0818 -3.2303  0.4732
  163DOPC   C1119673   0.103   2.886   7.691 -0.1815 -1.0928 -0.2873
  163DOPC  H11A19674  -0.007   2.897   7.696 -0.5822 -2.6324 -3.5342
  163DOPC  H11B19675   0.112   2.925   7.588 -2.4361 -0.5697 -0.3390
  163DOPC     P19676   0.084   2.652   7.800  0.0783 -0.0852 -0.0213
  163DOPC   O1319677   0.008   2.732   7.898 -0.1384 -0.0688 -0.3628
  163DOPC   O1419678   0.197   2.577   7.859  0.1606  0.0605  0.0579
  163DOPC   O1219679   0.136   2.748   7.689  0.2595 -0.1649  0.0887
  163DOPC   O1119680  -0.015   2.541   7.732 -0.3558 -0.5125 -0.4390
  163DOPC    C119681   0.035   2.484   7.612  0.2259  0.2242 -0.2438
  163DOPC    HA19682  -0.034   2.398   7.597 -1.1239  1.4699 -1.6204
  163DOPC    HB19683   0.140   2.452   7.624  0.2360  0.8658  1.7149
  163DOPC    C219684   0.005   2.571   7.486  0.0010 -0.2697  0.3801
  163DOPC    HS19685   0.091   2.642   7.484 -2.0590  2.4228 -1.5045
  163DOPC   O2119686  -0.129   2.636   7.494  0.4170  0.0723  0.5480
  163DOPC   C2119687  -0.120   2.756   7.430 -0.1392  0.4680 -0.0733
  163DOPC   O2219688  -0.017   2.805   7.394 -0.4142 -0.0698  0.3521
  163DOPC   C2219689  -0.257   2.831   7.435  0.1425  0.2833  0.2495
  163DOPC   H2R19690  -0.235   2.922   7.495 -0.4925 -1.1517  2.7863
  163DOPC   H2S19691  -0.333   2.768   7.485 -0.0275  0.6538  0.4578
  163DOPC    C319692   0.020   2.496   7.347  0.0991  0.3610  0.3979
  163DOPC    HX19693  -0.059   2.419   7.335  0.9533 -0.4151 -0.3437
  163DOPC    HY19694   0.112   2.434   7.347 -0.7269 -0.9179 -0.5088
  163DOPC   O3119695   0.001   2.573   7.225 -0.5914 -0.1668 -1.0434
  163DOPC   C3119696   0.105   2.638   7.177  0.1510 -0.2292 -1.1999
  163DOPC   O3219697   0.215   2.652   7.234  0.0112 -0.1126  0.4815
  163DOPC   C3219698   0.063   2.703   7.054 -0.5108 -0.4254 -0.6771
  163DOPC   H2X19699  -0.006   2.788   7.070  0.3701  0.3119 -0.6803
  163DOPC   H2Y19700   0.147   2.747   6.996 -0.1033  0.6913  0.6879
  163DOPC   C2319701  -0.311   2.855   7.289  0.3654 -0.1959 -0.4163
  163DOPC   H3R19702  -0.231   2.914   7.239  1.4707 -1.0332  0.3176
  163DOPC   H3S19703  -0.405   2.914   7.295  1.2097  1.0707  2.2087
  163DOPC   C2419704  -0.322   2.729   7.202 -0.0105  0.0423 -0.2520
  163DOPC   H4R19705  -0.399   2.655   7.232  0.2214 -0.9974 -2.0573
  163DOPC   H4S19706  -0.228   2.670   7.212 -1.1809 -1.5979  1.9932
  163DOPC   C2519707  -0.330   2.751   7.053  0.1710  0.3318  0.1256
  163DOPC   H5R19708  -0.284   2.665   6.999  1.3684  0.5876  0.7227
  163DOPC   H5S19709  -0.285   2.848   7.024  1.6692  0.5022  2.7127
  163DOPC   C2619710  -0.479   2.769   7.005  0.2007  0.0257  0.2541
  163DOPC   H6R19711  -0.527   2.854   7.058 -4.4313 -0.8656 -2.0428
  163DOPC   H6S19712  -0.545   2.681   7.019 -1.1225  0.8159 -0.7865
  163DOPC   C2719713  -0.478   2.819   6.858  0.3515 -0.1699 -0.2954
  163DOPC   H7R19714  -0.398   2.767   6.801  0.8753  1.1438 -0.8001
  163DOPC   H7S19715  -0.442   2.924   6.853  0.8715 -0.3500 -0.3894
  163DOPC   C2819716  -0.612   2.802   6.780  0.9688  0.0126 -0.0465
  163DOPC   H8R19717  -0.599   2.850   6.681 -0.3232 -1.6150 -1.0587
  163DOPC   H8S19718  -0.672   2.865   6.849  1.2800  0.6411 -0.3467
  163DOPC   C2919719  -0.667   2.665   6.766  0.2293  0.2916 -0.5024
  163DOPC   H9R19720  -0.681   2.609   6.859  1.1850  0.5710 -0.1801
  163DOPC  C21019721  -0.695   2.607   6.657  0.0097  0.6456 -0.0479
  163DOPC  H10R19722  -0.736   2.505   6.664  1.2257  0.1249 -0.2370
  163DOPC  C21119723  -0.683   2.657   6.518  0.0097  0.0096  0.1356
  163DOPC  H11R19724  -0.639   2.581   6.449  0.6761 -0.5872  1.1815
  163DOPC  H11S19725  -0.632   2.755   6.510  0.4241 -0.3169 -1.4329
  163DOPC  C21219726  -0.830   2.674   6.464 -0.2589  0.1214 -0.6745
  163DOPC  H12R19727  -0.903   2.719   6.535 -0.5044  0.4421 -1.1220
  163DOPC  H12S19728  -0.873   2.574   6.444 -0.9424  0.0658  0.9112
  163DOPC  C21319729  -0.829   2.762   6.336  0.5286  0.2237  0.5419
  163DOPC  H13R19730  -0.767   2.703   6.266 -1.1721 -1.3148  0.2493
  163DOPC  H13S19731  -0.776   2.856   6.364  2.2205 -0.7451  0.7077
  163DOPC  C21419732  -0.972   2.780   6.274 -0.6015 -0.1325 -0.0434
  163DOPC  H14R19733  -1.042   2.824   6.348  0.2142 -1.4025  1.5569
  163DOPC  H14S19734  -1.007   2.678   6.248  1.8647 -1.1931  0.4924
  163DOPC  C21519735  -0.965   2.879   6.154  0.4095 -0.0801 -0.6089
  163DOPC  H15R19736  -0.910   2.832   6.070  0.8143 -2.4709  0.8874
  163DOPC  H15S19737  -0.898   2.960   6.188  1.8291 -2.2754  2.3309
  163DOPC  C21619738  -1.098   2.940   6.104  0.1932  0.0038  0.0898
  163DOPC  H16R19739  -1.077   3.000   6.013 -2.0607 -1.0118 -1.1680
  163DOPC  H16S19740  -1.149   3.007   6.177  0.5476 -1.9940  2.3114
  163DOPC  C21719741  -1.198   2.828   6.068 -0.7758 -0.1294  0.3371
  163DOPC  H17R19742  -1.221   2.771   6.161 -1.4424 -1.0786 -0.3762
  163DOPC  H17S19743  -1.142   2.755   6.005 -0.3648 -0.7721  1.4351
  163DOPC  C21819744  -1.319   2.874   5.989  0.7541  0.5590  0.1147
  163DOPC  H18R19745  -1.375   2.948   6.051  1.3973  3.0570 -2.1329
  163DOPC  H18S19746  -1.389   2.794   5.955  1.0967  0.5534 -0.5923
  163DOPC  H18T19747  -1.296   2.936   5.900  3.1275  0.8455  0.8633
  163DOPC   C3319748   0.011   2.594   6.959  0.3945 -0.1472  0.6127
  163DOPC   H3X19749  -0.077   2.542   7.002  1.7923  0.8475  5.2652
  163DOPC   H3Y19750   0.092   2.522   6.933 -0.0249 -0.7483  0.9282
  163DOPC   C3419751  -0.051   2.663   6.836  0.2815  0.2045  0.4930
  163DOPC   H4X19752   0.029   2.724   6.790 -0.4032  0.5662 -0.2252
  163DOPC   H4Y19753  -0.134   2.731   6.863 -0.0229  1.4018 -2.9804
  163DOPC   C3519754  -0.110   2.560   6.739  0.0895  0.6798 -0.3298
  163DOPC   H5X19755  -0.181   2.490   6.787  0.9276  0.9043  1.3114
  163DOPC   H5Y19756  -0.032   2.490   6.701 -1.2272 -2.5648  2.4462
  163DOPC   C3619757  -0.173   2.618   6.614 -0.6899 -0.6671 -0.1713
  163DOPC   H6X19758  -0.247   2.690   6.656 -0.0738  0.1897 -0.5285
  163DOPC   H6Y19759  -0.100   2.681   6.560 -0.5602 -0.4100  0.3048
  163DOPC   C3719760  -0.229   2.511   6.527  0.1734  0.0750 -0.7506
  163DOPC   H7X19761  -0.154   2.455   6.466  0.1057 -2.0922  0.9813
  163DOPC   H7Y19762  -0.291   2.435   6.580 -2.3347  2.2384 -0.3977
  163DOPC   C3819763  -0.321   2.576   6.416 -0.5160 -0.1048  0.5170
  163DOPC   H8X19764  -0.385   2.649   6.471 -1.4057 -0.7208  0.3136
  163DOPC   H8Y19765  -0.381   2.495   6.370 -1.0715  0.1157  0.8472
  163DOPC   C3919766  -0.254   2.658   6.304 -0.1433  0.3023 -0.2276
  163DOPC   H9X19767  -0.147   2.663   6.330 -0.2667 -0.5447  0.4807
  163DOPC  C31019768  -0.310   2.700   6.185 -0.3654 -0.2467 -0.5397
  163DOPC  H10X19769  -0.234   2.756   6.128  0.3085 -0.1612  0.4027
  163DOPC  C31119770  -0.454   2.673   6.137 -0.5337  0.1659 -0.9196
  163DOPC  H11X19771  -0.505   2.600   6.204  1.1351 -0.9252 -0.7712
  163DOPC  H11Y19772  -0.431   2.612   6.047  1.5401  0.7548 -0.8414
  163DOPC  C31219773  -0.547   2.784   6.088  0.0746  0.1951  0.6520
  163DOPC  H12X19774  -0.576   2.848   6.174  0.1972 -0.1489  0.9527
  163DOPC  H12Y19775  -0.638   2.726   6.062  2.6938 -3.5452 -1.0787
  163DOPC  C31319776  -0.485   2.870   5.978  0.2570  0.8207 -0.4031
  163DOPC  H13X19777  -0.389   2.914   6.012  0.5574 -1.2835  1.6914
  163DOPC  H13Y19778  -0.456   2.796   5.900  1.3361  0.3224  0.4472
  163DOPC  C31419779  -0.578   2.985   5.933  0.4348 -0.5364  0.1698
  163DOPC  H14X19780  -0.665   2.954   5.870  0.9525  0.7305 -1.2421
  163DOPC  H14Y19781  -0.615   3.047   6.017 -0.2977  0.3211 -0.7560
  163DOPC  C31519782  -0.498   3.089   5.843 -1.1258  1.0168 -0.1671
  163DOPC  H15X19783  -0.467   3.034   5.751 -0.8876 -1.6823  1.4053
  163DOPC  H15Y19784  -0.407   3.101   5.906 -0.3462 -1.4667 -0.6933
  163DOPC  C31619785  -0.579   3.218   5.818 -0.1025 -0.6618  0.9740
  163DOPC  H16X19786  -0.671   3.180   5.770  0.6966  0.9300 -2.1163
  163DOPC  H16Y19787  -0.616   3.262   5.913 -3.0891 -1.4305  0.2794
  163DOPC  C31719788  -0.501   3.327   5.742 -0.4013 -0.4225  0.3130
  163DOPC  H17X19789  -0.407   3.341   5.800  0.9871 -3.8003 -0.8455
  163DOPC  H17Y19790  -0.473   3.300   5.638  0.6820  0.6832  0.2924
  163DOPC  C31819791  -0.576   3.463   5.746 -0.2484 -0.0068  0.0690
  163DOPC  H18X19792  -0.605   3.504   5.845  1.1045  1.7429 -0.1936
  163DOPC  H18Y19793  -0.505   3.535   5.699  0.7074 -1.2255 -0.4151
  163DOPC  H18Z19794  -0.662   3.447   5.678  0.9125 -1.4771 -1.1328
  164DOPC     N19795   0.751   0.266   7.637  0.4138 -0.3307  0.4095
  164DOPC   C1219796   0.753   0.112   7.622  0.0520 -0.3521 -0.5671
  164DOPC  H12A19797   0.649   0.082   7.620 -0.4781  1.3488 -0.4311
  164DOPC  H12B19798   0.784   0.067   7.715 -1.1068 -0.3425 -0.1573
  164DOPC   C1319799   0.884   0.316   7.692  0.3083 -0.3729 -0.1609
  164DOPC  H13A19800   0.899   0.292   7.797 -1.0638 -0.5537  0.0128
  164DOPC  H13B19801   0.969   0.278   7.638 -0.9457 -0.4674 -2.1692
  164DOPC  H13C19802   0.889   0.422   7.678 -1.6383 -0.0584  1.1031
  164DOPC   C1419803   0.645   0.309   7.739 -0.0954 -0.0020 -0.0400
  164DOPC  H14A19804   0.684   0.302   7.839 -1.1520 -2.2616  0.2678
  164DOPC  H14B19805   0.621   0.414   7.738  0.6602  0.1814  0.2708
  164DOPC  H14C19806   0.548   0.265   7.721  0.7817 -1.8528 -0.5025
  164DOPC   C1519807   0.724   0.338   7.510 -0.2066  0.0343  0.6100
  164DOPC  H15A19808   0.695   0.442   7.516  0.5252  0.2804  0.0822
  164DOPC  H15B19809   0.638   0.299   7.457 -1.5505 -1.3946  3.5945
  164DOPC  H15C19810   0.807   0.322   7.442  1.0617 -1.6905  2.4238
  164DOPC   C1119811   0.839   0.048   7.506  0.3088  0.3372  0.7415
  164DOPC  H11A19812   0.946   0.078   7.513  0.1868  0.5406  1.9136
  164DOPC  H11B19813   0.848  -0.063   7.516 -1.0277  0.2334  0.8895
  164DOPC     P19814   0.662   0.040   7.325 -0.0782  0.0342 -0.3143
  164DOPC   O1319815   0.557   0.141   7.347 -0.1469  0.0975  0.4711
  164DOPC   O1419816   0.634  -0.100   7.370 -0.1093 -0.2379  0.0545
  164DOPC   O1219817   0.801   0.097   7.378  0.2214  0.6706  0.3067
  164DOPC   O1119818   0.691   0.032   7.174 -0.3309  0.3238 -0.2146
  164DOPC    C119819   0.810  -0.021   7.119  0.0601 -0.5194 -0.0019
  164DOPC    HA19820   0.838  -0.122   7.155  2.8225  0.3342  0.5336
  164DOPC    HB19821   0.892   0.051   7.145 -2.0269  1.9607  0.1027
  164DOPC    C219822   0.806  -0.032   6.966 -0.0261 -0.2101  0.6986
  164DOPC    HS19823   0.892  -0.094   6.931  1.9255  2.2996  0.6955
  164DOPC   O2119824   0.821   0.104   6.927  0.3994 -0.5846  0.3824
  164DOPC   C2119825   0.856   0.119   6.795 -0.4562  0.2799  0.2061
  164DOPC   O2219826   0.914   0.032   6.726  0.3651  0.0841 -0.1266
  164DOPC   C2219827   0.850   0.264   6.750  0.0398 -0.4707  0.3151
  164DOPC   H2R19828   0.943   0.284   6.692  0.4699  0.7327  1.3872
  164DOPC   H2S19829   0.854   0.329   6.840 -0.8705 -1.2005  0.9003
  164DOPC    C319830   0.672  -0.095   6.921  0.1148 -0.8445  0.2296
  164DOPC    HX19831   0.595  -0.026   6.962 -2.7862 -2.6085 -1.8422
  164DOPC    HY19832   0.648  -0.193   6.970 -0.0309 -1.0597 -0.2701
  164DOPC   O3119833   0.645  -0.095   6.778  0.1366  0.1097  0.0430
  164DOPC   C3119834   0.697  -0.198   6.720 -0.5905  0.6641 -0.5130
  164DOPC   O3219835   0.755  -0.292   6.774  0.7214  0.2017 -0.3820
  164DOPC   C3219836   0.687  -0.175   6.570  0.3646  0.5448 -0.1513
  164DOPC   H2X19837   0.579  -0.161   6.550  0.4363 -0.3288 -1.2182
  164DOPC   H2Y19838   0.742  -0.080   6.554  0.6468  0.8441  2.1449
  164DOPC   C2319839   0.718   0.288   6.679  0.2700 -0.0122 -0.1670
  164DOPC   H3R19840   0.685   0.392   6.699 -0.0186  0.1073 -1.2074
  164DOPC   H3S19841   0.638   0.227   6.727  0.0100  0.9415  0.6533
  164DOPC   C2419842   0.737   0.266   6.529 -0.0703  0.2493  0.3843
  164DOPC   H4R19843   0.747   0.156   6.512  0.4561  0.6355 -2.3646
  164DOPC   H4S19844   0.827   0.320   6.492  0.1951  0.7973  1.7769
  164DOPC   C2519845   0.617   0.302   6.448 -0.8103 -0.0688  1.1610
  164DOPC   H5R19846   0.598   0.412   6.449 -0.7562  0.1465 -3.0317
  164DOPC   H5S19847   0.529   0.251   6.493 -1.2088  0.3456  0.8670
  164DOPC   C2619848   0.632   0.257   6.296  0.6754 -0.0522 -0.5237
  164DOPC   H6R19849   0.722   0.292   6.241  1.3588  1.2277  1.3097
  164DOPC   H6S19850   0.536   0.296   6.254 -0.4450 -1.0674  1.0054
  164DOPC   C2719851   0.616   0.104   6.272  0.0272  0.3810 -0.5645
  164DOPC   H7R19852   0.519   0.086   6.325 -0.8399  2.1981 -1.4599
  164DOPC   H7S19853   0.700   0.059   6.329 -0.7981 -1.0161 -0.3822
  164DOPC   C2819854   0.622   0.044   6.128  1.1163 -0.6059 -1.0216
  164DOPC   H8R19855   0.526   0.072   6.079 -1.2223 -3.5375  1.4441
  164DOPC   H8S19856   0.623  -0.067   6.134 -0.1518 -0.7120 -2.2984
  164DOPC   C2919857   0.748   0.087   6.058 -0.1095  0.2019  0.5548
  164DOPC   H9R19858   0.844   0.053   6.101 -0.2248 -1.0793 -0.1517
  164DOPC  C21019859   0.761   0.146   5.935  0.5257  0.1311 -0.4011
  164DOPC  H10R19860   0.859   0.171   5.893  0.2591 -0.0856 -1.1692
  164DOPC  C21119861   0.638   0.184   5.851  0.3322 -0.3308 -0.4993
  164DOPC  H11R19862   0.610   0.291   5.865 -1.7335 -0.2581 -3.9528
  164DOPC  H11S19863   0.546   0.125   5.870 -0.2182  0.2238 -1.3132
  164DOPC  C21219864   0.661   0.181   5.697 -0.5093  0.5173  0.2180
  164DOPC  H12R19865   0.566   0.162   5.644  0.9723  1.1438 -2.9076
  164DOPC  H12S19866   0.725   0.092   5.679 -0.5550  0.8103 -1.5194
  164DOPC  C21319867   0.730   0.305   5.630  0.1026 -0.0880  0.3185
  164DOPC  H13R19868   0.822   0.337   5.683 -1.2878 -0.2197  3.0009
  164DOPC  H13S19869   0.665   0.395   5.638  0.5032  0.2052  0.2976
  164DOPC  C21419870   0.780   0.270   5.488 -0.2989  0.2928 -0.6811
  164DOPC  H14R19871   0.781   0.365   5.430  0.9862  0.8262  0.1705
  164DOPC  H14S19872   0.700   0.203   5.449 -1.4983  0.6371  1.0622
  164DOPC  C21519873   0.918   0.208   5.493 -0.0589 -0.3242  0.5329
  164DOPC  H15R19874   0.903   0.109   5.543 -0.4825 -0.5902 -0.1124
  164DOPC  H15S19875   0.983   0.257   5.569 -0.6941  3.0646 -0.9435
  164DOPC  C21619876   0.980   0.194   5.358  0.6357 -0.8609 -0.0296
  164DOPC  H16R19877   0.904   0.139   5.298  0.9203  0.9959 -2.2795
  164DOPC  H16S19878   1.072   0.131   5.361  0.7023 -0.7792 -0.2709
  164DOPC  C21719879   1.019   0.321   5.282 -0.3845  0.2141  0.2931
  164DOPC  H17R19880   1.118   0.355   5.320  1.3033 -2.1376 -1.6614
  164DOPC  H17S19881   0.943   0.401   5.286 -1.2200 -0.5825  0.7075
  164DOPC  C21819882   1.051   0.298   5.136  0.0578 -0.4352 -0.2578
  164DOPC  H18R19883   1.060   0.396   5.086 -0.9146  0.1180  0.6200
  164DOPC  H18S19884   0.970   0.246   5.081  0.7736  0.2725 -2.0444
  164DOPC  H18T19885   1.138   0.231   5.119  1.0039  0.8238 -0.5265
  164DOPC   C3319886   0.741  -0.276   6.467  0.3560 -0.0181  0.0958
  164DOPC   H3X19887   0.846  -0.304   6.489  1.0973  1.9532 -0.6551
  164DOPC   H3Y19888   0.735  -0.234   6.364 -0.5289  0.0716  0.1796
  164DOPC   C3419889   0.664  -0.407   6.463  0.0521  0.3196  0.2663
  164DOPC   H4X19890   0.554  -0.399   6.449 -0.0291 -0.8181  0.1277
  164DOPC   H4Y19891   0.672  -0.451   6.564  0.8861 -1.0502 -0.3706
  164DOPC   C3519892   0.732  -0.521   6.375 -0.1630 -0.3834  0.5394
  164DOPC   H5X19893   0.722  -0.623   6.418  2.2061 -1.3033 -0.9217
  164DOPC   H5Y19894   0.837  -0.487   6.368 -1.0877  2.3248 -2.5388
  164DOPC   C3619895   0.673  -0.530   6.233  0.1042 -0.4801  0.0008
  164DOPC   H6X19896   0.736  -0.595   6.169 -0.7056 -0.5846 -0.6923
  164DOPC   H6Y19897   0.570  -0.569   6.246 -0.7964  2.0652  1.0765
  164DOPC   C3719898   0.665  -0.392   6.161  0.7030 -0.0641  0.6207
  164DOPC   H7X19899   0.579  -0.338   6.205 -1.4159  1.3310 -4.4884
  164DOPC   H7Y19900   0.763  -0.344   6.183  0.7279  0.9833 -1.5325
  164DOPC   C3819901   0.622  -0.401   6.012  0.0145  0.1501 -0.1962
  164DOPC   H8X19902   0.528  -0.459   6.000  2.1279 -4.3319  2.1827
  164DOPC   H8Y19903   0.699  -0.470   5.970  0.1137 -0.7684  1.4043
  164DOPC   C3919904   0.614  -0.270   5.941  0.5835  0.2909 -0.0227
  164DOPC   H9X19905   0.535  -0.201   5.974  2.3899  3.4356 -1.7425
  164DOPC  C31019906   0.683  -0.239   5.835 -0.8232 -0.4204 -0.9308
  164DOPC  H10X19907   0.691  -0.138   5.792 -0.6351 -0.9230 -2.1118
  164DOPC  C31119908   0.782  -0.337   5.773  0.5141  0.0834 -0.3504
  164DOPC  H11X19909   0.755  -0.444   5.784 -2.4004  0.7231 -0.4753
  164DOPC  H11Y19910   0.882  -0.322   5.819  1.6240 -0.8176 -2.3836
  164DOPC  C31219911   0.805  -0.306   5.618  0.1255  1.1076 -0.1887
  164DOPC  H12X19912   0.826  -0.198   5.602  0.4860  1.9035  4.3074
  164DOPC  H12Y19913   0.705  -0.325   5.572  0.6125 -2.2065 -0.0802
  164DOPC  C31319914   0.917  -0.389   5.549  0.0261  0.2469 -1.4420
  164DOPC  H13X19915   0.998  -0.390   5.624 -2.7447  0.3165  1.8050
  164DOPC  H13Y19916   0.882  -0.492   5.525 -0.4402  0.4723 -1.7681
  164DOPC  C31419917   0.955  -0.319   5.419 -0.3713 -0.5867  0.2696
  164DOPC  H14X19918   0.982  -0.217   5.453  0.3824 -0.9852  0.9009
  164DOPC  H14Y19919   0.862  -0.319   5.358 -1.7632 -1.5743  2.2922
  164DOPC  C31519920   1.069  -0.390   5.349 -0.3658  0.3983  0.1554
  164DOPC  H15X19921   1.015  -0.451   5.273 -1.9115 -0.4379  1.8596
  164DOPC  H15Y19922   1.131  -0.458   5.411 -2.3793  0.2030  2.0346
  164DOPC  C31619923   1.148  -0.286   5.264  0.6327  0.3382  0.1956
  164DOPC  H16X19924   1.081  -0.249   5.184  0.7490  0.3776  0.1153
  164DOPC  H16Y19925   1.188  -0.202   5.324  1.3387  0.3862 -0.3303
  164DOPC  C31719926   1.262  -0.350   5.189  0.2647  0.2852 -0.5005
  164DOPC  H17X19927   1.317  -0.259   5.155  3.1494 -1.2440 -0.1698
  164DOPC  H17Y19928   1.331  -0.407   5.254 -0.8378  1.2797  1.6548
  164DOPC  C31819929   1.233  -0.452   5.078 -0.2405 -0.3045  0.4357
  164DOPC  H18X19930   1.326  -0.500   5.040 -0.6691 -0.5469 -0.3347
  164DOPC  H18Y19931   1.164  -0.528   5.121 -0.1852  0.9384  2.8759
  164DOPC  H18Z19932   1.187  -0.397   4.993  1.1260  0.9642  0.4715
  165DOPC     N19933   5.746   0.454   7.494  0.7148  0.4605  0.5815
  165DOPC   C1219934   5.877   0.427   7.412 -0.1294  0.1308 -0.0382
  165DOPC  H12A19935   5.939   0.349   7.454 -0.5160  0.8540  1.9924
  165DOPC  H12B19936   5.944   0.509   7.435 -0.2275 -0.6414  3.7353
  165DOPC   C1319937   5.660   0.560   7.441  0.0515 -0.8559 -0.4189
  165DOPC  H13A19938   5.708   0.656   7.427 -1.9584  0.1044 -1.1196
  165DOPC  H13B19939   5.617   0.545   7.344 -0.9156  1.0527 -0.3277
  165DOPC  H13C19940   5.577   0.589   7.503  1.6574  1.4067  0.8355
  165DOPC   C1419941   5.774   0.477   7.636 -0.1194 -0.0276 -0.6236
  165DOPC  H14A19942   5.824   0.397   7.687  0.4394  0.3860 -0.5030
  165DOPC  H14B19943   5.835   0.563   7.658 -0.5733  0.0023  0.5851
  165DOPC  H14C19944   5.680   0.490   7.688 -0.6965 -2.8987 -0.8003
  165DOPC   C1519945   5.657   0.335   7.492  0.3646  0.1679 -0.4833
  165DOPC  H15A19946   5.678   0.269   7.574  3.2937 -0.6399 -1.7530
  165DOPC  H15B19947   5.650   0.269   7.407 -1.9191 -2.6713  1.6701
  165DOPC  H15C19948   5.556   0.371   7.507  0.6384  0.8888 -0.3256
  165DOPC   C1119949   5.869   0.408   7.257  1.2576  0.0318 -0.4133
  165DOPC  H11A19950   5.819   0.495   7.210 -0.3423 -0.0855  0.9688
  165DOPC  H11B19951   5.966   0.396   7.205  0.6361 -2.0655 -1.2001
  165DOPC     P19952   5.846   0.144   7.256 -0.0870 -0.0939 -0.6917
  165DOPC   O1319953   5.736   0.067   7.310  0.3149  0.4771  0.0430
  165DOPC   O1419954   5.973   0.156   7.333  0.3700 -0.0442  0.3370
  165DOPC   O1219955   5.793   0.289   7.223 -0.1923 -0.3330  0.2158
  165DOPC   O1119956   5.876   0.087   7.116 -0.8450  0.0543 -0.2348
  165DOPC    C119957   5.942   0.167   7.013  0.8555  0.8091 -0.4602
  165DOPC    HA19958   6.017   0.100   6.965  0.0715 -0.6502  0.2770
  165DOPC    HB19959   6.002   0.250   7.056  0.0926  0.2861  1.7535
  165DOPC    C219960   5.848   0.215   6.901 -0.4530  0.1428  0.2762
  165DOPC    HS19961   5.788   0.296   6.946 -0.1249  0.2345  0.5559
  165DOPC   O2119962   5.773   0.103   6.847 -0.0300 -0.6518 -0.2867
  165DOPC   C2119963   5.659   0.142   6.790  0.6784  0.2394 -0.0312
  165DOPC   O2219964   5.614   0.256   6.790  0.3138 -0.0146  0.2375
  165DOPC   C2219965   5.588   0.026   6.714  0.6237 -0.7920  0.4515
  165DOPC   H2R19966   5.481   0.038   6.741  0.1852  1.0740 -1.8327
  165DOPC   H2S19967   5.629  -0.071   6.751  0.0765 -1.0211  0.4653
  165DOPC    C319968   5.934   0.283   6.791 -0.1491 -0.1624  0.4781
  165DOPC    HX19969   6.008   0.209   6.755  0.3527 -0.5365  2.1993
  165DOPC    HY19970   6.000   0.361   6.835 -1.0103  0.4791  0.6694
  165DOPC   O3119971   5.858   0.324   6.679  0.8929  0.8491  0.3993
  165DOPC   C3119972   5.820   0.442   6.658 -0.6279  0.5745  0.1803
  165DOPC   O3219973   5.843   0.539   6.726  0.1400  0.1063  0.2664
  165DOPC   C3219974   5.747   0.453   6.527  0.1655 -0.2313 -0.0231
  165DOPC   H2X19975   5.825   0.485   6.454  0.6585  0.1569  0.6632
  165DOPC   H2Y19976   5.705   0.355   6.494 -0.7764 -0.0226  0.5335
  165DOPC   C2319977   5.609   0.036   6.562  0.1669 -0.4473  0.0325
  165DOPC   H3R19978   5.592   0.144   6.544 -0.2407 -0.3685  0.8356
  165DOPC   H3S19979   5.529  -0.026   6.517  0.3917 -1.5316  1.1015
  165DOPC   C2419980   5.756   0.003   6.509 -0.0461 -0.3438 -0.1253
  165DOPC   H4R19981   5.786  -0.102   6.528  1.5072 -0.0025 -0.5583
  165DOPC   H4S19982   5.814   0.065   6.580 -1.9874 -1.8885  3.0060
  165DOPC   C2519983   5.792   0.040   6.361  0.1001 -0.0605 -0.1787
  165DOPC   H5R19984   5.900   0.024   6.343 -0.1253 -2.5854  0.3759
  165DOPC   H5S19985   5.779   0.147   6.333 -1.3874  0.2128  1.3629
  165DOPC   C2619986   5.708  -0.046   6.266  0.4707 -0.3142 -0.0548
  165DOPC   H6R19987   5.604  -0.011   6.283  0.8141  0.9409 -0.4940
  165DOPC   H6S19988   5.710  -0.153   6.297 -0.6628 -0.9853 -2.0748
  165DOPC   C2719989   5.738  -0.048   6.114 -0.2216 -0.4331 -0.6793
  165DOPC   H7R19990   5.814  -0.123   6.082 -0.1223  0.3136 -2.2806
  165DOPC   H7S19991   5.790   0.050   6.106  2.6251 -1.8947 -1.8924
  165DOPC   C2819992   5.609  -0.077   6.035  0.3645 -0.1723  0.2661
  165DOPC   H8R19993   5.630  -0.062   5.927  2.7313  2.5589  0.9597
  165DOPC   H8S19994   5.534  -0.004   6.071 -0.5357 -0.2891 -1.3181
  165DOPC   C2919995   5.556  -0.218   6.055  0.2764  0.6349 -0.1083
  165DOPC   H9R19996   5.624  -0.295   6.095 -3.5579 -2.3369  1.2998
  165DOPC  C21019997   5.429  -0.244   6.002  0.2783  0.3465 -0.0038
  165DOPC  H10R19998   5.380  -0.342   6.012  1.2560 -0.2861 -1.2462
  165DOPC  C21119999   5.350  -0.137   5.926 -0.3972  0.6672 -0.4779
  165DOPC  H11R20000   5.393  -0.039   5.955  1.2206 -0.4134  0.9655
  165DOPC  H11S20001   5.252  -0.147   5.979  1.2717  0.0267  2.7236
  165DOPC  C21220002   5.330  -0.144   5.772  0.1964 -0.2877 -0.3771
  165DOPC  H12R20003   5.266  -0.054   5.760  1.9141  1.0571  0.1660
  165DOPC  H12S20004   5.271  -0.235   5.745 -0.0761 -0.0838 -0.4649
  165DOPC  C21320005   5.446  -0.140   5.679 -0.0345 -0.8703  0.9765
  165DOPC  H13R20006   5.489  -0.241   5.668  1.2851 -0.1078 -1.6322
  165DOPC  H13S20007   5.522  -0.064   5.708  0.2041 -0.6490 -0.1778
  165DOPC  C21420008   5.399  -0.108   5.529 -0.0042  0.0180 -0.2516
  165DOPC  H14R20009   5.350  -0.008   5.533 -0.2312 -0.1317  1.1432
  165DOPC  H14S20010   5.331  -0.179   5.477  0.0831 -0.4946  0.3161
  165DOPC  C21520011   5.527  -0.098   5.441 -0.0605 -0.0683  0.1456
  165DOPC  H15R20012   5.557  -0.202   5.418 -1.6505 -0.3771 -0.6790
  165DOPC  H15S20013   5.602  -0.039   5.498  0.5586  0.5039 -1.2151
  165DOPC  C21620014   5.490  -0.029   5.310 -0.1573 -0.4784  0.5936
  165DOPC  H16R20015   5.447   0.072   5.327  0.1345 -0.1581 -0.4745
  165DOPC  H16S20016   5.426  -0.097   5.249 -0.7804 -0.7693  1.5534
  165DOPC  C21720017   5.604  -0.004   5.211  0.2993  1.0798  0.1641
  165DOPC  H17R20018   5.618  -0.098   5.153 -0.6854 -0.3197  2.1158
  165DOPC  H17S20019   5.694   0.009   5.275  0.3370  1.5173  0.0316
  165DOPC  C21820020   5.565   0.108   5.113  0.4644  0.1024 -0.3110
  165DOPC  H18R20021   5.571   0.204   5.169 -0.9295  1.3041 -2.1199
  165DOPC  H18S20022   5.458   0.099   5.085  0.8954 -1.3247 -1.6752
  165DOPC  H18T20023   5.619   0.111   5.017 -1.1583 -1.0639 -1.3155
  165DOPC   C3320024   5.624   0.541   6.537  0.2697 -0.2527  0.4667
  165DOPC   H3X20025   5.654   0.647   6.531 -1.5626  0.3110  0.4879
  165DOPC   H3Y20026   5.586   0.537   6.642  2.2517 -0.7835  1.2016
  165DOPC   C3420027   5.509   0.510   6.445 -0.4409  0.4220 -0.7858
  165DOPC   H4X20028   5.484   0.405   6.470  1.5557 -0.4707 -2.2423
  165DOPC   H4Y20029   5.537   0.519   6.338  1.3661 -0.2675 -0.3926
  165DOPC   C3520030   5.388   0.607   6.473 -0.1133  0.2038 -0.6622
  165DOPC   H5X20031   5.413   0.704   6.425  0.3782 -0.2242 -1.2882
  165DOPC   H5Y20032   5.386   0.628   6.582  0.9431  1.6227 -0.8824
  165DOPC   C3620033   5.255   0.546   6.421  0.5934 -0.1325 -0.1348
  165DOPC   H6X20034   5.249   0.540   6.310  1.5249 -1.5865 -0.1248
  165DOPC   H6Y20035   5.265   0.440   6.451  2.7456 -0.3742 -1.4709
  165DOPC   C3720036   5.127   0.602   6.487  0.0501 -0.1775  0.5156
  165DOPC   H7X20037   5.143   0.603   6.597  0.2429  2.8092  0.5231
  165DOPC   H7Y20038   5.042   0.537   6.456  0.1245 -0.2148  0.3892
  165DOPC   C3820039   5.105   0.744   6.438  0.1793 -0.5261  0.2957
  165DOPC   H8X20040   5.194   0.804   6.469  0.6987 -0.7013 -0.7978
  165DOPC   H8Y20041   5.015   0.785   6.488  0.3707  1.3532 -0.8015
  165DOPC   C3920042   5.081   0.743   6.290 -0.3505  0.7327 -0.2175
  165DOPC   H9X20043   5.012   0.663   6.260  1.4383 -1.1288  0.4220
  165DOPC  C31020044   5.125   0.823   6.190 -0.0177 -0.4082 -0.2299
  165DOPC  H10X20045   5.113   0.785   6.087 -0.3926  0.1968 -0.4148
  165DOPC  C31120046   5.221   0.941   6.213 -0.3239  0.0544  0.1089
  165DOPC  H11X20047   5.325   0.912   6.189  0.0132  0.7553  0.6826
  165DOPC  H11Y20048   5.218   0.982   6.316 -0.6168  2.1499 -0.6852
  165DOPC  C31220049   5.195   1.062   6.120  0.4095 -0.0044  0.1748
  165DOPC  H12X20050   5.251   1.149   6.160  0.6809  0.0995 -0.4244
  165DOPC  H12Y20051   5.087   1.084   6.138  0.2676 -0.2219 -0.3763
  165DOPC  C31320052   5.204   1.038   5.967  0.1485  0.6225  0.1853
  165DOPC  H13X20053   5.121   0.970   5.941 -1.1709  1.9390  0.8159
  165DOPC  H13Y20054   5.178   1.135   5.919 -0.3305 -0.4269 -1.7300
  165DOPC  C31420055   5.342   0.999   5.905  0.3968 -0.3307  0.2139
  165DOPC  H14X20056   5.348   0.892   5.936 -1.4056 -0.8473 -1.0372
  165DOPC  H14Y20057   5.341   0.996   5.794  0.8342  2.2676  0.0807
  165DOPC  C31520058   5.450   1.087   5.953 -0.0944 -0.1769 -0.4747
  165DOPC  H15X20059   5.469   1.089   6.063 -1.7134  1.0974 -0.1782
  165DOPC  H15Y20060   5.435   1.194   5.930  1.4854 -0.1077 -1.3330
  165DOPC  C31620061   5.582   1.065   5.873  0.5518 -0.0430 -0.6131
  165DOPC  H16X20062   5.608   0.962   5.904  2.2096  1.0449  1.9896
  165DOPC  H16Y20063   5.554   1.079   5.766 -0.6336 -0.3188 -0.3487
  165DOPC  C31720064   5.690   1.167   5.919 -0.0725  0.4278  0.3683
  165DOPC  H17X20065   5.690   1.183   6.028  0.7522  1.0684  0.2833
  165DOPC  H17Y20066   5.789   1.123   5.892  0.9619  1.8850  1.5877
  165DOPC  C31820067   5.684   1.307   5.859  0.4714  0.5053 -0.1568
  165DOPC  H18X20068   5.774   1.364   5.890  0.1635  0.0627  1.6925
  165DOPC  H18Y20069   5.678   1.296   5.749 -0.8161  2.2219 -0.2900
  165DOPC  H18Z20070   5.598   1.364   5.900  0.7002  0.9408 -0.2788
  166DOPC     N20071   7.367   2.462   8.201 -0.6928  0.0125 -0.1073
  166DOPC   C1220072   7.312   2.325   8.242  0.1110  0.2556  0.0724
  166DOPC  H12A20073   7.245   2.331   8.326  2.8018  2.4733  2.2555
  166DOPC  H12B20074   7.389   2.261   8.283 -0.1987 -1.8215 -2.3344
  166DOPC   C1320075   7.439   2.526   8.315 -0.0525  0.0163  0.1510
  166DOPC  H13A20076   7.384   2.541   8.406 -1.6335 -2.0496 -0.3811
  166DOPC  H13B20077   7.540   2.492   8.337  0.0220  1.1585  1.6954
  166DOPC  H13C20078   7.465   2.623   8.275  0.2414 -0.6132 -1.2689
  166DOPC   C1420079   7.259   2.555   8.158  0.1220 -1.3892 -0.1296
  166DOPC  H14A20080   7.198   2.581   8.243  1.5301  0.3415  0.4137
  166DOPC  H14B20081   7.309   2.642   8.119 -1.1766  0.2258  1.6104
  166DOPC  H14C20082   7.199   2.508   8.082 -0.1287  2.0685 -2.3048
  166DOPC   C1520083   7.456   2.440   8.084  0.6144 -0.6125  0.2902
  166DOPC  H15A20084   7.523   2.524   8.072  0.3429 -0.2505  1.2522
  166DOPC  H15B20085   7.394   2.420   7.998 -0.0290 -0.6680  0.7621
  166DOPC  H15C20086   7.520   2.354   8.101  1.0995 -0.0201  1.6289
  166DOPC   C1120087   7.242   2.236   8.130 -0.5727 -0.7867  0.6739
  166DOPC  H11A20088   7.202   2.146   8.183  2.8045 -1.5717  2.1100
  166DOPC  H11B20089   7.163   2.307   8.096 -0.9711 -1.1973  0.7235
  166DOPC     P20090   7.351   2.073   7.953  0.0868 -0.2612 -0.0484
  166DOPC   O1320091   7.305   1.968   8.048 -0.3062  0.4679 -0.0644
  166DOPC   O1420092   7.483   2.063   7.891  0.0501  0.3122 -0.0334
  166DOPC   O1220093   7.331   2.213   8.013  0.4726  0.4567 -0.0033
  166DOPC   O1120094   7.255   2.073   7.822  0.1123  0.4211 -0.3573
  166DOPC    C120095   7.275   2.176   7.726  0.1373  0.5910  0.2785
  166DOPC    HA20096   7.340   2.140   7.643  1.9469 -2.0226  2.6311
  166DOPC    HB20097   7.319   2.267   7.772 -0.4909  2.0709 -1.9109
  166DOPC    C220098   7.142   2.238   7.668 -0.6263 -0.0827 -0.3643
  166DOPC    HS20099   7.082   2.271   7.756  3.0849  2.5275  1.4582
  166DOPC   O2120100   7.081   2.133   7.594 -0.6310  0.5987 -0.5334
  166DOPC   C2120101   6.955   2.124   7.593 -0.9691 -0.0377  0.2393
  166DOPC   O2220102   6.881   2.202   7.642 -0.0565  0.0080 -0.0619
  166DOPC   C2220103   6.901   1.994   7.527 -0.7575  0.1487 -0.8179
  166DOPC   H2R20104   6.794   2.005   7.497 -0.6152 -0.2142 -1.4783
  166DOPC   H2S20105   6.904   1.913   7.602 -1.8206 -0.2880 -1.2266
  166DOPC    C320106   7.165   2.366   7.568 -0.3505  0.2419  0.6089
  166DOPC    HX20107   7.221   2.325   7.482 -0.0413  2.9870 -0.6029
  166DOPC    HY20108   7.217   2.436   7.638 -2.1707  0.7865  1.4919
  166DOPC   O3120109   7.043   2.422   7.517 -0.2788 -0.3236 -0.0522
  166DOPC   C3120110   6.997   2.528   7.588 -0.2135  0.0709  0.8237
  166DOPC   O3220111   7.050   2.588   7.680 -0.0814 -0.1989 -0.7535
  166DOPC   C3220112   6.870   2.580   7.522  0.9643 -0.3461  0.3041
  166DOPC   H2X20113   6.827   2.669   7.573 -4.0833 -0.9984 -2.2020
  166DOPC   H2Y20114   6.884   2.600   7.413 -2.3087 -0.6877 -0.2810
  166DOPC   C2320115   6.979   1.950   7.395 -0.2470 -0.4197  0.4625
  166DOPC   H3R20116   6.963   1.840   7.385  0.0461 -0.8034  3.2444
  166DOPC   H3S20117   7.088   1.968   7.405 -0.1295 -0.6614 -0.3174
  166DOPC   C2420118   6.930   2.011   7.263 -0.2515 -0.6326 -0.1301
  166DOPC   H4R20119   6.819   2.014   7.268 -0.2668 -1.3733  0.1295
  166DOPC   H4S20120   6.957   1.948   7.176 -0.5480  0.3041 -0.9102
  166DOPC   C2520121   6.978   2.158   7.244 -0.1858 -0.9490  0.0463
  166DOPC   H5R20122   7.088   2.157   7.259  0.2876  0.2082 -2.7892
  166DOPC   H5S20123   6.945   2.221   7.329  2.8702  0.7680  0.0955
  166DOPC   C2620124   6.937   2.211   7.101 -0.1552  0.2121  0.1972
  166DOPC   H6R20125   6.828   2.230   7.104  0.0431  1.2468  2.1023
  166DOPC   H6S20126   6.961   2.128   7.031  0.9707  0.6448  0.0511
  166DOPC   C2720127   7.013   2.338   7.053 -0.3391  0.0641  0.7476
  166DOPC   H7R20128   7.121   2.317   7.064  0.5854  2.3021 -2.5872
  166DOPC   H7S20129   6.982   2.427   7.113 -2.1552 -0.1875  0.2569
  166DOPC   C2820130   6.987   2.379   6.911  0.0564 -0.4019 -0.5117
  166DOPC   H8R20131   7.042   2.475   6.902 -0.6426  0.2463  1.5418
  166DOPC   H8S20132   6.881   2.398   6.886  0.8987  0.7947 -3.7541
  166DOPC   C2920133   7.040   2.276   6.811 -0.3544  0.0258  0.1129
  166DOPC   H9R20134   7.148   2.288   6.795 -0.4207 -0.3534 -0.6738
  166DOPC  C21020135   6.976   2.182   6.737  0.2786  0.5639 -0.4832
  166DOPC  H10R20136   7.041   2.132   6.662 -0.9965  0.0755 -1.2964
  166DOPC  C21120137   6.832   2.141   6.742 -0.0012 -0.5187 -0.0915
  166DOPC  H11R20138   6.771   2.197   6.815  1.8738 -1.4946  2.3618
  166DOPC  H11S20139   6.813   2.034   6.767 -0.7089 -0.1547  0.9782
  166DOPC  C21220140   6.760   2.161   6.606 -0.0185 -0.0447  0.6727
  166DOPC  H12R20141   6.802   2.257   6.568  0.2941  0.3539  1.9878
  166DOPC  H12S20142   6.649   2.169   6.607 -0.1072 -0.9892 -0.2139
  166DOPC  C21320143   6.792   2.036   6.514  0.0051 -0.3651  0.0386
  166DOPC  H13R20144   6.704   1.969   6.518 -1.3174  1.3091  0.1725
  166DOPC  H13S20145   6.875   1.978   6.561 -0.6491 -1.1697  0.2122
  166DOPC  C21420146   6.816   2.074   6.370 -0.0796  0.0467 -0.1057
  166DOPC  H14R20147   6.721   2.123   6.339  0.8380  1.5112 -0.6989
  166DOPC  H14S20148   6.839   1.990   6.301  1.2359  1.3664 -1.3319
  166DOPC  C21520149   6.929   2.171   6.343  0.5235 -0.3101  0.6811
  166DOPC  H15R20150   7.024   2.148   6.396  1.2387  0.2734 -0.3096
  166DOPC  H15S20151   6.907   2.270   6.389 -0.3038 -0.3404  0.3674
  166DOPC  C21620152   6.948   2.193   6.190 -0.2078 -0.3034  0.1282
  166DOPC  H16R20153   6.872   2.262   6.146  0.9229  1.5623  0.9597
  166DOPC  H16S20154   6.965   2.098   6.136 -0.4277  0.7848 -1.9523
  166DOPC  C21720155   7.087   2.257   6.181  0.1909 -0.6295 -0.4058
  166DOPC  H17R20156   7.151   2.175   6.218  0.3849 -0.5145 -0.4837
  166DOPC  H17S20157   7.107   2.346   6.245  0.7529 -1.5637  0.7570
  166DOPC  C21820158   7.123   2.282   6.034  0.0149  0.3742  0.2209
  166DOPC  H18R20159   7.138   2.189   5.975 -1.6271  0.7027 -0.7808
  166DOPC  H18S20160   7.218   2.340   6.042  0.7825 -1.0600  3.0677
  166DOPC  H18T20161   7.045   2.356   6.006  0.4277  1.2452  1.2538
  166DOPC   C3320162   6.753   2.477   7.537  0.1412 -0.8040 -0.1139
  166DOPC   H3X20163   6.729   2.482   7.645  1.4216  0.9422  0.1303
  166DOPC   H3Y20164   6.778   2.370   7.515  0.1552 -0.8580  0.1683
  166DOPC   C3420165   6.639   2.517   7.446 -0.1796  0.1521 -0.4423
  166DOPC   H4X20166   6.623   2.626   7.457  3.1874  0.6452  0.8061
  166DOPC   H4Y20167   6.551   2.460   7.483 -0.4986  0.4297 -0.7626
  166DOPC   C3520168   6.662   2.487   7.295  0.0104 -0.0412 -0.4777
  166DOPC   H5X20169   6.682   2.378   7.290 -2.2350 -0.4640 -1.6034
  166DOPC   H5Y20170   6.748   2.543   7.252  0.2985 -0.0700  0.0556
  166DOPC   C3620171   6.535   2.519   7.209 -0.4010  0.3225 -0.2161
  166DOPC   H6X20172   6.458   2.445   7.239 -1.2835  0.7172 -1.4176
  166DOPC   H6Y20173   6.494   2.621   7.225 -0.9547  0.4785 -2.2940
  166DOPC   C3720174   6.562   2.516   7.056 -0.3185 -0.1226  0.5155
  166DOPC   H7X20175   6.625   2.606   7.036  0.8178 -0.9429  0.3439
  166DOPC   H7Y20176   6.622   2.428   7.024  0.0296  0.0359  0.7206
  166DOPC   C3820177   6.432   2.536   6.976 -0.8604 -0.0610 -0.3820
  166DOPC   H8X20178   6.379   2.620   7.028  0.8068 -0.4710  2.1453
  166DOPC   H8Y20179   6.371   2.445   6.991 -0.2062 -0.2012  1.6681
  166DOPC   C3920180   6.447   2.562   6.827 -0.8336  0.1419  0.5111
  166DOPC   H9X20181   6.544   2.529   6.790 -0.5380 -4.0442  4.1426
  166DOPC  C31020182   6.363   2.627   6.741  0.0483 -0.4464 -0.9641
  166DOPC  H10X20183   6.400   2.654   6.641  0.1635  0.2615 -0.7381
  166DOPC  C31120184   6.231   2.690   6.783  0.0602  0.2818  0.3027
  166DOPC  H11X20185   6.226   2.786   6.727  0.0751  0.9182  1.3681
  166DOPC  H11Y20186   6.228   2.712   6.892  0.7596 -2.7847  1.0402
  166DOPC  C31220187   6.111   2.599   6.756  0.3633 -0.1402  0.5316
  166DOPC  H12X20188   6.017   2.636   6.803 -0.3492  0.9645 -1.6440
  166DOPC  H12Y20189   6.122   2.501   6.807  0.6998 -0.1101  0.5191
  166DOPC  C31320190   6.081   2.573   6.608 -0.2319 -0.7828 -0.1553
  166DOPC  H13X20191   6.043   2.663   6.556 -0.5493 -0.2855  0.8969
  166DOPC  H13Y20192   6.170   2.541   6.550  0.3684 -0.1116  0.3754
  166DOPC  C31420193   5.973   2.470   6.575 -0.5941  0.5743 -0.2031
  166DOPC  H14X20194   6.002   2.380   6.633  0.5700 -2.0299 -4.3797
  166DOPC  H14Y20195   5.877   2.519   6.602 -0.2202  0.6463  1.0647
  166DOPC  C31520196   5.964   2.439   6.424  0.8745  0.1169  0.9772
  166DOPC  H15X20197   5.896   2.353   6.408  2.0876 -0.3595 -2.4808
  166DOPC  H15Y20198   6.063   2.417   6.379 -0.1070 -1.5143 -0.5033
  166DOPC  C31620199   5.911   2.556   6.337  0.6819 -0.4152  0.0060
  166DOPC  H16X20200   5.809   2.587   6.369  0.6365  1.7007 -1.9438
  166DOPC  H16Y20201   5.977   2.644   6.347  2.5519 -1.3853 -2.6558
  166DOPC  C31720202   5.888   2.528   6.189 -0.9383 -0.2513 -0.0043
  166DOPC  H17X20203   5.821   2.439   6.185 -0.9878 -0.1843 -3.0862
  166DOPC  H17Y20204   5.843   2.617   6.142 -0.7372 -1.6279 -3.0274
  166DOPC  C31820205   6.014   2.503   6.107  0.0992  0.4524  0.1293
  166DOPC  H18X20206   6.084   2.429   6.154 -1.0561  0.3608  1.7960
  166DOPC  H18Y20207   5.986   2.469   6.005 -0.1368  2.8343 -0.6452
  166DOPC  H18Z20208   6.073   2.597   6.098  3.5403 -1.4902  0.4103
  167DOPC     N20209   7.049   1.433   7.941  0.4749 -0.2962  0.7850
  167DOPC   C1220210   6.935   1.337   7.912  0.4701  0.4703  0.0442
  167DOPC  H12A20211   6.961   1.270   7.832 -2.8934  0.4040 -1.1324
  167DOPC  H12B20212   6.861   1.400   7.866 -2.7298 -1.5370  2.0931
  167DOPC   C1320213   7.100   1.479   7.812 -0.4618 -0.0894  0.3640
  167DOPC  H13A20214   7.020   1.525   7.754  0.0102 -0.2643 -0.4407
  167DOPC  H13B20215   7.180   1.551   7.816 -0.2538 -0.3764  2.3980
  167DOPC  H13C20216   7.139   1.392   7.763 -0.1314 -0.3507  1.0861
  167DOPC   C1420217   7.154   1.375   8.026 -0.5530 -0.4013  0.5946
  167DOPC  H14A20218   7.192   1.283   7.984 -2.3783 -0.7547 -0.3807
  167DOPC  H14B20219   7.235   1.446   8.033 -2.3411  2.1442 -1.9634
  167DOPC  H14C20220   7.117   1.359   8.126  1.0918  1.3331  1.5395
  167DOPC   C1520221   6.998   1.562   8.011 -0.5339  0.7871 -0.0107
  167DOPC  H15A20222   6.931   1.536   8.092 -0.8665  0.1489 -0.4790
  167DOPC  H15B20223   6.944   1.627   7.944 -2.5241 -0.4915  0.2727
  167DOPC  H15C20224   7.073   1.630   8.048  1.2473 -1.5822  0.9528
  167DOPC   C1120225   6.864   1.259   8.022 -0.2499 -0.0844  0.4758
  167DOPC  H11A20226   6.940   1.189   8.063  0.5949 -0.6822 -1.9764
  167DOPC  H11B20227   6.835   1.317   8.113 -0.0629 -0.8132  1.0141
  167DOPC     P20228   6.614   1.263   7.921 -0.3502 -0.0558 -0.0555
  167DOPC   O1320229   6.566   1.363   8.017  0.4095  0.0944  0.0442
  167DOPC   O1420230   6.521   1.150   7.881  0.3559 -0.0402 -0.2632
  167DOPC   O1220231   6.749   1.192   7.972 -0.2468 -0.1055  0.1513
  167DOPC   O1120232   6.648   1.334   7.794 -0.1448  0.7041  0.3246
  167DOPC    C120233   6.667   1.284   7.660 -0.1490 -0.0830 -0.3253
  167DOPC    HA20234   6.574   1.234   7.624  1.3342 -2.3699 -1.2090
  167DOPC    HB20235   6.744   1.204   7.651 -0.6360 -1.1526  3.2749
  167DOPC    C220236   6.681   1.399   7.558  0.4547  0.0023  0.2698
  167DOPC    HS20237   6.633   1.368   7.463  1.6415 -0.5137 -0.1849
  167DOPC   O2120238   6.821   1.424   7.543 -0.2846 -0.7449 -0.2614
  167DOPC   C2120239   6.889   1.358   7.449  0.4050  0.9440  0.8816
  167DOPC   O2220240   6.844   1.263   7.389  0.3856 -0.2973  0.4687
  167DOPC   C2220241   7.031   1.408   7.447 -0.0572  0.4087 -0.3150
  167DOPC   H2R20242   7.096   1.327   7.407  0.4413  1.1852 -1.1159
  167DOPC   H2S20243   7.061   1.422   7.553 -0.3978 -1.4500  0.0650
  167DOPC    C320244   6.596   1.520   7.593  0.2089  0.0768  0.2773
  167DOPC    HX20245   6.626   1.590   7.674  0.7581  1.1779 -0.8517
  167DOPC    HY20246   6.502   1.475   7.631  0.0697  1.6270  1.8654
  167DOPC   O3120247   6.558   1.592   7.473  0.0517  0.0658 -0.2234
  167DOPC   C3120248   6.655   1.672   7.429 -0.0283 -0.3660  0.2883
  167DOPC   O3220249   6.756   1.704   7.490 -0.4462 -0.3135 -0.2156
  167DOPC   C3220250   6.623   1.713   7.287 -0.0587  0.0676  0.3275
  167DOPC   H2X20251   6.523   1.677   7.253  0.6672 -1.1505 -0.5867
  167DOPC   H2Y20252   6.632   1.823   7.279  0.8418  0.0772  1.2827
  167DOPC   C2320253   7.045   1.537   7.362  0.3624 -0.0746 -0.1058
  167DOPC   H3R20254   7.015   1.631   7.414 -0.6412  0.2644 -1.2550
  167DOPC   H3S20255   6.980   1.537   7.272  1.8094  0.1133 -1.1848
  167DOPC   C2420256   7.190   1.553   7.320 -0.6497 -0.4930 -0.1970
  167DOPC   H4R20257   7.219   1.460   7.267  0.3425 -1.3718  1.7795
  167DOPC   H4S20258   7.262   1.563   7.403  0.8594 -2.2737 -1.2144
  167DOPC   C2520259   7.211   1.678   7.234 -0.2601 -0.3965  0.1195
  167DOPC   H5R20260   7.316   1.686   7.197 -1.0940 -0.0210 -2.3505
  167DOPC   H5S20261   7.199   1.761   7.306  0.9325 -1.9458  2.2062
  167DOPC   C2620262   7.119   1.691   7.108 -0.3796 -0.5246 -0.0737
  167DOPC   H6R20263   7.017   1.708   7.148 -1.3902 -1.3412 -2.1883
  167DOPC   H6S20264   7.122   1.600   7.045  1.2507  0.7055 -1.9018
  167DOPC   C2720265   7.158   1.815   7.021 -0.3266 -0.0757  0.0542
  167DOPC   H7R20266   7.268   1.819   7.007 -0.3341 -0.6230 -0.1538
  167DOPC   H7S20267   7.135   1.905   7.082  0.0427 -0.8747  1.4169
  167DOPC   C2820268   7.090   1.837   6.883 -0.4009 -0.0914  0.0890
  167DOPC   H8R20269   7.113   1.749   6.819  1.7111 -0.0291  0.6948
  167DOPC   H8S20270   7.142   1.924   6.840 -0.7512  0.0288 -0.0961
  167DOPC   C2920271   6.939   1.847   6.894  0.1802  0.0268  0.8568
  167DOPC   H9R20272   6.905   1.940   6.942  2.2752  0.9638  0.6249
  167DOPC  C21020273   6.855   1.756   6.853  0.6113  0.0396  0.0275
  167DOPC  H10R20274   6.747   1.775   6.853  0.9255  1.9810 -0.0405
  167DOPC  C21120275   6.892   1.617   6.798  0.5572 -0.3638  0.0895
  167DOPC  H11R20276   6.866   1.538   6.871 -1.8896 -0.1878 -0.5001
  167DOPC  H11S20277   6.998   1.610   6.767  0.6771 -2.4532  0.8319
  167DOPC  C21220278   6.802   1.581   6.678 -0.2177  0.3091  0.1330
  167DOPC  H12R20279   6.694   1.590   6.700 -0.2202 -0.4143  0.4467
  167DOPC  H12S20280   6.825   1.660   6.604 -2.3641  0.3226 -0.5813
  167DOPC  C21320281   6.834   1.440   6.621 -0.2643 -0.7201 -0.7658
  167DOPC  H13R20282   6.816   1.370   6.706 -0.1420  1.8409  1.5036
  167DOPC  H13S20283   6.943   1.431   6.606 -0.4773 -2.4987 -1.5560
  167DOPC  C21420284   6.764   1.399   6.493 -0.1552  0.0769 -0.5845
  167DOPC  H14R20285   6.653   1.403   6.495 -0.1344  1.1495  1.4979
  167DOPC  H14S20286   6.798   1.297   6.468 -0.5849  0.2847 -2.1308
  167DOPC  C21520287   6.824   1.469   6.373  0.3140  0.8959 -0.0964
  167DOPC  H15R20288   6.934   1.462   6.386  0.4848  0.6685 -1.4846
  167DOPC  H15S20289   6.802   1.578   6.371  1.0562  1.0513 -1.6846
  167DOPC  C21620290   6.769   1.424   6.238  0.4141  0.2915 -0.0035
  167DOPC  H16R20291   6.807   1.323   6.210  1.4594  0.5203  0.5270
  167DOPC  H16S20292   6.798   1.478   6.146 -2.0673 -0.6985 -1.4579
  167DOPC  C21720293   6.617   1.420   6.222  0.5740  0.0534 -0.4349
  167DOPC  H17R20294   6.568   1.510   6.264  0.6538 -0.1691  0.1402
  167DOPC  H17S20295   6.580   1.340   6.290  1.0519 -0.6110 -0.9316
  167DOPC  C21820296   6.564   1.388   6.079  0.6837 -0.0045  0.1591
  167DOPC  H18R20297   6.635   1.319   6.028 -0.2781 -1.0085  0.1521
  167DOPC  H18S20298   6.548   1.479   6.018 -1.1929 -0.9286 -0.8193
  167DOPC  H18T20299   6.462   1.344   6.084  1.0908 -0.9036  0.6499
  167DOPC   C3320300   6.720   1.641   7.189 -0.7719  0.4142 -0.1001
  167DOPC   H3X20301   6.825   1.657   7.223 -0.9433  2.0751 -0.3116
  167DOPC   H3Y20302   6.702   1.692   7.092 -0.8286  0.0874 -0.2643
  167DOPC   C3420303   6.681   1.488   7.169 -0.2426 -0.1435  0.3577
  167DOPC   H4X20304   6.633   1.457   7.264  0.1345 -0.7180  0.3706
  167DOPC   H4Y20305   6.766   1.417   7.153 -0.9757 -1.6199  2.6225
  167DOPC   C3520306   6.574   1.466   7.052 -0.8352 -0.3007 -0.2682
  167DOPC   H5X20307   6.579   1.541   6.970  1.0000  0.2045  0.2565
  167DOPC   H5Y20308   6.473   1.478   7.096 -0.4952 -0.4748  0.5670
  167DOPC   C3620309   6.581   1.325   6.995  0.3279 -0.0893 -0.4236
  167DOPC   H6X20310   6.691   1.317   6.987  0.5530 -0.3388  2.1463
  167DOPC   H6Y20311   6.546   1.242   7.060 -0.9139 -1.5150 -2.7690
  167DOPC   C3720312   6.496   1.313   6.868 -0.7837 -0.3223 -0.1820
  167DOPC   H7X20313   6.396   1.357   6.883 -0.1099  1.8904 -1.6177
  167DOPC   H7Y20314   6.544   1.374   6.789 -0.5262 -1.2375 -0.7566
  167DOPC   C3820315   6.502   1.171   6.804  0.4396  0.2131  0.4488
  167DOPC   H8X20316   6.604   1.137   6.775  0.8866  1.5609  0.3443
  167DOPC   H8Y20317   6.452   1.176   6.705  0.3953  0.9337  0.5050
  167DOPC   C3920318   6.432   1.065   6.897  0.2576  0.3496  0.2669
  167DOPC   H9X20319   6.385   1.092   6.992  0.8232  0.4833  0.5122
  167DOPC  C31020320   6.433   0.933   6.867 -0.4011 -0.5212 -0.1156
  167DOPC  H10X20321   6.377   0.867   6.935  1.6204 -1.7684  0.3998
  167DOPC  C31120322   6.493   0.866   6.745 -0.0718 -0.2588 -0.1705
  167DOPC  H11X20323   6.505   0.756   6.758  0.0002 -0.5839 -2.6371
  167DOPC  H11Y20324   6.596   0.902   6.726 -0.5204  1.0456 -0.2134
  167DOPC  C31220325   6.417   0.883   6.613 -0.4693  0.1200  0.1414
  167DOPC  H12X20326   6.476   0.828   6.537  3.6856  3.5078  0.5443
  167DOPC  H12Y20327   6.434   0.987   6.576 -2.8943  0.3583 -0.4757
  167DOPC  C31320328   6.264   0.848   6.605 -0.6305  0.1165 -0.6281
  167DOPC  H13X20329   6.217   0.926   6.669  1.7234 -0.9680  2.6814
  167DOPC  H13Y20330   6.227   0.875   6.504 -0.3381 -0.0221 -0.7726
  167DOPC  C31420331   6.232   0.709   6.654 -0.0045  0.2479  0.4060
  167DOPC  H14X20332   6.257   0.695   6.761  3.6289  0.3918 -0.3223
  167DOPC  H14Y20333   6.125   0.682   6.641  0.0022 -0.3625  1.4827
  167DOPC  C31520334   6.305   0.604   6.568 -0.7799 -0.0103  0.0345
  167DOPC  H15X20335   6.259   0.510   6.606  2.2028 -1.1514  1.0822
  167DOPC  H15Y20336   6.413   0.601   6.591 -1.0605 -2.8507  1.3359
  167DOPC  C31620337   6.283   0.617   6.419 -0.3915 -0.3845 -0.3589
  167DOPC  H16X20338   6.172   0.628   6.412 -0.2092  0.7070 -2.0742
  167DOPC  H16Y20339   6.344   0.705   6.389  1.2322 -0.9642  1.0799
  167DOPC  C31720340   6.342   0.486   6.358  0.3083  0.1608 -0.2148
  167DOPC  H17X20341   6.441   0.462   6.400 -0.4547  0.0637  1.6275
  167DOPC  H17Y20342   6.279   0.402   6.395 -0.0807  0.9055  0.8717
  167DOPC  C31820343   6.360   0.495   6.197  0.0625 -0.1017  0.4491
  167DOPC  H18X20344   6.400   0.395   6.171  3.0275  1.7601 -2.9494
  167DOPC  H18Y20345   6.269   0.509   6.135 -0.0173 -0.9252  0.3751
  167DOPC  H18Z20346   6.437   0.567   6.164 -0.3586  0.7984  1.3584
  168DOPC     N20347   1.145   7.055   6.768 -0.2239 -0.2225  0.3036
  168DOPC   C1220348   1.222   6.935   6.816  0.2139  0.4933 -0.6851
  168DOPC  H12A20349   1.296   6.926   6.737 -0.2711 -0.2131 -1.0694
  168DOPC  H12B20350   1.164   6.846   6.797  2.6128 -1.6934  1.4240
  168DOPC   C1320351   1.030   7.101   6.845  0.3754 -0.1482 -0.3602
  168DOPC  H13A20352   1.000   7.198   6.807 -0.9306 -0.1411  0.6038
  168DOPC  H13B20353   0.947   7.033   6.841  0.9428 -0.8153 -1.0038
  168DOPC  H13C20354   1.060   7.110   6.948  0.9199  1.3307 -0.6163
  168DOPC   C1420355   1.092   7.022   6.632  0.9217  0.3992 -0.3631
  168DOPC  H14A20356   1.063   7.117   6.590  1.6032  1.1660  0.8250
  168DOPC  H14B20357   1.159   6.960   6.575 -1.5899 -2.2937 -0.5902
  168DOPC  H14C20358   1.010   6.954   6.646  0.4966  0.3589 -2.6792
  168DOPC   C1520359   1.250   7.167   6.742  0.1732  0.6950 -0.4918
  168DOPC  H15A20360   1.305   7.169   6.834  3.2401  1.1373 -2.1936
  168DOPC  H15B20361   1.203   7.262   6.720  1.8545  1.2305 -1.9825
  168DOPC  H15C20362   1.313   7.138   6.659  0.0868 -1.7238  0.2012
  168DOPC   C1120363   1.296   6.933   6.945 -0.5592  0.3223 -0.2896
  168DOPC  H11A20364   1.222   6.948   7.027  1.0917 -2.9283  2.0076
  168DOPC  H11B20365   1.338   6.831   6.958 -0.3279  0.3060 -1.1450
  168DOPC     P20366   1.539   6.978   6.878  0.0093 -0.2502 -0.0753
  168DOPC   O1320367   1.591   6.875   6.965  0.1596  0.4220 -0.1637
  168DOPC   O1420368   1.622   7.102   6.860 -0.3350 -0.2648  0.0211
  168DOPC   O1220369   1.401   7.031   6.936  0.3956 -0.2809  0.1910
  168DOPC   O1120370   1.497   6.917   6.738 -0.2896  0.0696 -0.2931
  168DOPC    C120371   1.589   6.826   6.674  0.6805 -0.3655 -0.0234
  168DOPC    HA20372   1.545   6.782   6.582  0.7750 -1.7564  0.5818
  168DOPC    HB20373   1.611   6.735   6.733  1.5480 -1.1472 -1.5031
  168DOPC    C220374   1.724   6.892   6.626  0.2730  0.8261  0.9863
  168DOPC    HS20375   1.793   6.918   6.710 -1.2101  1.4546  2.0642
  168DOPC   O2120376   1.693   7.011   6.554  0.0840 -0.3163  0.3851
  168DOPC   C2120377   1.793   7.080   6.507  0.0994  0.4738 -0.1921
  168DOPC   O2220378   1.910   7.055   6.547  0.0856 -0.4027 -0.7838
  168DOPC   C2220379   1.757   7.181   6.396 -0.0219  0.2655 -0.5417
  168DOPC   H2R20380   1.765   7.287   6.427  0.9132 -0.0123  0.2354
  168DOPC   H2S20381   1.650   7.162   6.371  0.5107 -2.3813 -1.1595
  168DOPC    C320382   1.811   6.786   6.540  0.1522 -0.3983  0.0412
  168DOPC    HX20383   1.840   6.706   6.611  1.2932 -0.9656 -1.0273
  168DOPC    HY20384   1.907   6.832   6.509  0.2809 -0.9081 -0.3342
  168DOPC   O3120385   1.730   6.746   6.426 -0.1993 -0.7275 -0.4858
  168DOPC   C3120386   1.717   6.618   6.398 -0.1052 -0.2714 -0.0816
  168DOPC   O3220387   1.772   6.528   6.461  0.0904 -0.6614 -0.2056
  168DOPC   C3220388   1.625   6.591   6.278 -0.1475 -0.3985  0.6110
  168DOPC   H2X20389   1.659   6.502   6.221 -0.2086  1.5764 -2.8081
  168DOPC   H2Y20390   1.526   6.571   6.325  0.4911 -0.1136  2.1068
  168DOPC   C2320391   1.824   7.167   6.263  0.6227 -0.2157  0.0994
  168DOPC   H3R20392   1.934   7.178   6.274  0.6250  0.5385 -0.5725
  168DOPC   H3S20393   1.792   7.242   6.187  0.3336  1.2488  1.6155
  168DOPC   C2420394   1.803   7.030   6.190  0.2469  0.1118 -0.9657
  168DOPC   H4R20395   1.696   7.006   6.173  0.8039 -2.3300 -1.3740
  168DOPC   H4S20396   1.839   6.946   6.254  2.9608  1.4718 -0.5522
  168DOPC   C2520397   1.874   7.029   6.058  0.1510 -0.0158 -0.6223
  168DOPC   H5R20398   1.894   6.922   6.036  2.6481  0.4420 -0.8243
  168DOPC   H5S20399   1.968   7.088   6.057  0.2560 -0.1796 -1.3818
  168DOPC   C2620400   1.778   7.081   5.952 -0.0143 -0.3800 -0.8235
  168DOPC   H6R20401   1.730   7.180   5.969 -0.3083 -0.6479 -0.0764
  168DOPC   H6S20402   1.697   7.007   5.937  0.3560 -1.3602  1.5831
  168DOPC   C2720403   1.853   7.090   5.813  0.0297 -0.4719  0.9633
  168DOPC   H7R20404   1.868   6.993   5.761 -0.9356  0.0368 -0.3344
  168DOPC   H7S20405   1.950   7.140   5.837 -0.5566  1.4071 -0.2827
  168DOPC   C2820406   1.797   7.176   5.698  0.0153 -0.0804 -0.8644
  168DOPC   H8R20407   1.871   7.176   5.616  2.0640 -1.8275  0.8629
  168DOPC   H8S20408   1.775   7.279   5.735 -0.6447 -0.3034 -0.6062
  168DOPC   C2920409   1.666   7.106   5.662  0.1286  0.0466  0.4560
  168DOPC   H9R20410   1.601   7.093   5.750 -1.0025  1.4379 -0.1335
  168DOPC  C21020411   1.635   7.058   5.544  0.1520 -0.1564 -0.2191
  168DOPC  H10R20412   1.529   7.033   5.534 -0.7194  3.3503 -1.3717
  168DOPC  C21120413   1.727   7.063   5.423 -0.5205  0.2355  0.2459
  168DOPC  H11R20414   1.806   6.987   5.437 -0.2258  0.7360  1.3821
  168DOPC  H11S20415   1.774   7.163   5.418  2.4678 -1.0322  1.0632
  168DOPC  C21220416   1.638   7.059   5.297  0.2344  0.1927  0.6473
  168DOPC  H12R20417   1.564   7.140   5.316  2.0118  1.8548  0.8702
  168DOPC  H12S20418   1.589   6.966   5.261 -0.7913  1.3412 -1.1040
  168DOPC  C21320419   1.713   7.102   5.164 -0.7200 -1.0571  0.6311
  168DOPC  H13R20420   1.781   7.028   5.117  0.0780 -0.2754  0.5190
  168DOPC  H13S20421   1.794   7.167   5.202  0.6648 -1.1983 -1.8408
  168DOPC  C21420422   1.623   7.156   5.046 -0.8879  0.2723 -0.4602
  168DOPC  H14R20423   1.574   7.249   5.082 -1.8145 -0.5623  0.4976
  168DOPC  H14S20424   1.547   7.079   5.022 -2.3987  1.6562 -0.2923
  168DOPC  C21520425   1.714   7.193   4.929  0.0479 -0.1794 -0.2932
  168DOPC  H15R20426   1.766   7.099   4.902  0.8762  0.4754 -1.0103
  168DOPC  H15S20427   1.780   7.275   4.964 -1.4588  0.1838  1.9468
  168DOPC  C21620428   1.638   7.241   4.806  0.5736 -0.6590 -0.4024
  168DOPC  H16R20429   1.572   7.326   4.833  0.4974 -0.9804  0.4481
  168DOPC  H16S20430   1.569   7.158   4.781  0.1163 -0.4556  0.1684
  168DOPC  C21720431   1.731   7.270   4.690  0.2036  0.3605 -0.4404
  168DOPC  H17R20432   1.813   7.195   4.684  0.1174  0.1101  1.1895
  168DOPC  H17S20433   1.779   7.365   4.720 -0.8679  1.0704 -0.8872
  168DOPC  C21820434   1.655   7.286   4.560  0.3481  0.4639  0.0782
  168DOPC  H18R20435   1.581   7.369   4.564  1.2891  1.3253  0.0999
  168DOPC  H18S20436   1.599   7.194   4.531  2.3257 -0.9283  0.5021
  168DOPC  H18T20437   1.719   7.310   4.473 -2.0337 -0.6924 -2.1418
  168DOPC   C3320438   1.619   6.707   6.175  0.2021  0.3972 -0.1666
  168DOPC   H3X20439   1.724   6.743   6.168  0.8507 -1.0121  1.4098
  168DOPC   H3Y20440   1.544   6.784   6.203  0.5373  0.8838 -0.5965
  168DOPC   C3420441   1.570   6.653   6.039 -0.0422  0.1020  0.4850
  168DOPC   H4X20442   1.469   6.611   6.058 -0.2910 -1.0095 -2.7125
  168DOPC   H4Y20443   1.638   6.574   6.001  2.3436  1.0236  2.5518
  168DOPC   C3520444   1.543   6.764   5.934 -0.7872 -0.3927 -0.5704
  168DOPC   H5X20445   1.645   6.807   5.924 -0.6560 -0.8607 -1.3268
  168DOPC   H5Y20446   1.465   6.835   5.966 -1.2929 -1.3396  0.3684
  168DOPC   C3620447   1.511   6.712   5.787  0.0460  0.0461 -0.6394
  168DOPC   H6X20448   1.513   6.793   5.711 -0.8256  0.4195 -0.2715
  168DOPC   H6Y20449   1.600   6.649   5.765  1.0009  1.4345 -0.9206
  168DOPC   C3720450   1.375   6.634   5.770 -1.3544  0.1155  0.3017
  168DOPC   H7X20451   1.374   6.535   5.820 -2.4162 -0.2261 -0.3477
  168DOPC   H7Y20452   1.290   6.694   5.808 -1.8463 -0.6339  0.4244
  168DOPC   C3820453   1.362   6.607   5.619 -0.4816  0.1085 -0.4798
  168DOPC   H8X20454   1.283   6.531   5.598  0.2839 -0.8239 -0.0497
  168DOPC   H8Y20455   1.457   6.558   5.588 -0.6592 -1.2234  0.9375
  168DOPC   C3920456   1.324   6.725   5.541 -0.3968 -0.1101  0.3370
  168DOPC   H9X20457   1.228   6.770   5.570  1.2744  2.5917  2.1806
  168DOPC  C31020458   1.368   6.766   5.419 -0.4454  0.4166  0.5192
  168DOPC  H10X20459   1.311   6.855   5.387 -1.0636 -0.2071 -0.1717
  168DOPC  C31120460   1.482   6.701   5.333  0.4967 -0.2985  0.2306
  168DOPC  H11X20461   1.581   6.717   5.382  1.5810  0.8362 -2.1302
  168DOPC  H11Y20462   1.485   6.753   5.234  0.8907 -1.5425 -0.4243
  168DOPC  C31220463   1.464   6.551   5.299 -0.4778 -0.9225 -0.2849
  168DOPC  H12X20464   1.506   6.493   5.384  1.2321  0.0038 -0.4517
  168DOPC  H12Y20465   1.528   6.537   5.210 -1.7302 -2.3361 -1.0097
  168DOPC  C31320466   1.318   6.509   5.256 -0.7844  0.2981 -0.2671
  168DOPC  H13X20467   1.324   6.399   5.241 -0.0221 -0.0515  2.2433
  168DOPC  H13Y20468   1.237   6.542   5.324 -3.2436 -1.7783 -1.9871
  168DOPC  C31420469   1.293   6.562   5.110 -0.2267 -0.1571  0.0165
  168DOPC  H14X20470   1.307   6.672   5.114  0.7020 -0.3006  0.8257
  168DOPC  H14Y20471   1.370   6.521   5.042  0.2837  2.3450 -1.0170
  168DOPC  C31520472   1.148   6.553   5.056 -0.9686  0.3480  0.1626
  168DOPC  H15X20473   1.112   6.449   5.047  0.9223 -0.1868 -2.3749
  168DOPC  H15Y20474   1.139   6.577   4.948 -1.2256  2.5460  0.6060
  168DOPC  C31620475   1.052   6.652   5.122  0.7427 -0.8653 -0.1204
  168DOPC  H16X20476   1.031   6.612   5.223 -0.8591 -1.9267 -0.8161
  168DOPC  H16Y20477   1.095   6.754   5.129 -1.5864  0.3163 -1.5129
  168DOPC  C31720478   0.908   6.664   5.053 -0.2492 -0.1416  0.3050
  168DOPC  H17X20479   0.872   6.559   5.041  0.2829 -0.1039 -2.4220
  168DOPC  H17Y20480   0.845   6.715   5.128 -0.4193 -1.5579  1.1587
  168DOPC  C31820481   0.908   6.730   4.912  0.0640  0.7925  0.9938
  168DOPC  H18X20482   0.977   6.666   4.853  0.4304 -0.4412  2.6752
  168DOPC  H18Y20483   0.809   6.731   4.862 -0.1992 -0.9523  1.4208
  168DOPC  H18Z20484   0.960   6.829   4.910  0.8152  0.3823 -0.4657
  169DOPC     N20485   0.664   1.128   7.701  0.6765  0.3802  0.5326
  169DOPC   C1220486   0.731   1.094   7.565  0.1493 -0.4724 -0.3305
  169DOPC  H12A20487   0.740   1.181   7.502  0.2569 -1.2206 -1.3813
  169DOPC  H12B20488   0.656   1.033   7.516  0.2972 -1.7044  0.8871
  169DOPC   C1320489   0.657   1.018   7.796 -0.2829  0.2511  0.5999
  169DOPC  H13A20490   0.596   1.037   7.883  2.0305 -0.4082  2.4740
  169DOPC  H13B20491   0.600   0.938   7.751 -0.2111  1.3468 -1.5710
  169DOPC  H13C20492   0.750   0.976   7.832 -0.2054 -0.3842 -0.3100
  169DOPC   C1420493   0.525   1.178   7.666 -0.0736  0.6359 -0.2380
  169DOPC  H14A20494   0.467   1.192   7.756  0.8480 -0.1431  0.5008
  169DOPC  H14B20495   0.533   1.273   7.615 -0.4591  0.4324 -0.6890
  169DOPC  H14C20496   0.472   1.100   7.613  0.6411  1.1542 -1.7772
  169DOPC   C1520497   0.737   1.239   7.768  0.3118  0.7737  0.0345
  169DOPC  H15A20498   0.830   1.196   7.803 -0.9343 -0.9016  1.5176
  169DOPC  H15B20499   0.687   1.276   7.856  1.1970  0.9426  0.4785
  169DOPC  H15C20500   0.764   1.322   7.705 -1.7657  0.5757 -1.1998
  169DOPC   C1120501   0.869   1.034   7.560  0.4728  0.2443  0.0060
  169DOPC  H11A20502   0.922   1.119   7.609  0.0746 -0.3631  1.5571
  169DOPC  H11B20503   0.884   0.941   7.619 -1.9104  0.8778  1.7410
  169DOPC     P20504   0.996   0.918   7.369  0.1394  0.0904  0.1599
  169DOPC   O1320505   0.923   0.790   7.356 -0.1714 -0.4776 -0.0671
  169DOPC   O1420506   1.123   0.913   7.445 -0.0691 -0.4280 -0.4874
  169DOPC   O1220507   0.901   1.028   7.426 -0.8538  0.1083  0.1239
  169DOPC   O1120508   1.035   0.974   7.233  0.1704 -0.0956 -0.8008
  169DOPC    C120509   0.947   1.052   7.153  0.0420 -0.6357 -1.1267
  169DOPC    HA20510   1.003   1.101   7.070 -1.0678  0.3098 -1.3450
  169DOPC    HB20511   0.901   1.130   7.218  1.4423  0.4247 -1.3658
  169DOPC    C220512   0.832   0.973   7.094  0.2111 -0.4987 -0.8158
  169DOPC    HS20513   0.796   0.899   7.169 -2.4115 -1.4801 -2.8896
  169DOPC   O2120514   0.874   0.911   6.975  0.7431 -0.2259 -0.1534
  169DOPC   C2120515   0.818   0.798   6.949  1.2643  0.0217  0.8068
  169DOPC   O2220516   0.729   0.740   7.008  0.1439  0.5305  0.3529
  169DOPC   C2220517   0.893   0.737   6.828  0.0844 -0.6691  0.1126
  169DOPC   H2R20518   0.957   0.655   6.866  0.0846 -0.0851  1.4352
  169DOPC   H2S20519   0.957   0.816   6.784 -2.1409  1.6796  0.8477
  169DOPC    C320520   0.702   1.069   7.077  0.0942  0.1172  0.3078
  169DOPC    HX20521   0.738   1.168   7.040  0.5116 -0.4381 -0.8115
  169DOPC    HY20522   0.662   1.093   7.178 -0.4093 -0.2349  0.1940
  169DOPC   O3120523   0.614   1.009   6.977  0.4196  0.0541 -1.0338
  169DOPC   C3120524   0.514   0.933   7.030  0.2793  0.8751  0.1378
  169DOPC   O3220525   0.500   0.902   7.147  0.5787  0.0124  0.5786
  169DOPC   C3220526   0.419   0.886   6.911  0.4854  0.1955  0.3064
  169DOPC   H2X20527   0.399   0.969   6.840 -3.2621 -0.3166  0.5632
  169DOPC   H2Y20528   0.472   0.795   6.876 -1.3937 -0.6410 -0.4957
  169DOPC   C2320529   0.793   0.675   6.721  0.7461 -0.5587  0.0070
  169DOPC   H3R20530   0.735   0.599   6.777  2.0367 -0.7173  1.1984
  169DOPC   H3S20531   0.841   0.611   6.645 -0.5934 -2.8028  0.9488
  169DOPC   C2420532   0.697   0.776   6.652  0.1076 -0.2292 -0.0860
  169DOPC   H4R20533   0.748   0.824   6.566  1.1681  0.3263  0.8122
  169DOPC   H4S20534   0.656   0.849   6.725 -0.4312 -0.4899 -0.1283
  169DOPC   C2520535   0.581   0.697   6.590  0.0607  0.5184 -0.3077
  169DOPC   H5R20536   0.550   0.623   6.667  0.7127  2.5374  2.0461
  169DOPC   H5S20537   0.613   0.626   6.510 -0.1547 -2.0153  1.7108
  169DOPC   C2620538   0.467   0.785   6.536 -0.2525 -0.3295  0.3080
  169DOPC   H6R20539   0.513   0.872   6.485 -0.2457 -0.2157  0.5055
  169DOPC   H6S20540   0.417   0.828   6.625  1.0455  0.0620  0.8711
  169DOPC   C2720541   0.362   0.712   6.463  0.0583 -0.2019  0.2876
  169DOPC   H7R20542   0.344   0.607   6.496 -0.9962 -0.3928 -0.8455
  169DOPC   H7S20543   0.401   0.701   6.360 -1.5707 -0.0961 -0.3663
  169DOPC   C2820544   0.224   0.777   6.427  0.7792 -0.5457 -0.3303
  169DOPC   H8R20545   0.172   0.714   6.351 -3.0724 -1.7732  2.9686
  169DOPC   H8S20546   0.240   0.879   6.385  1.4059  1.1685  3.6100
  169DOPC   C2920547   0.132   0.781   6.542 -1.0199 -0.2311  0.4431
  169DOPC   H9R20548   0.098   0.678   6.565  1.6816 -1.1494  0.6926
  169DOPC  C21020549   0.075   0.888   6.608  0.7168  1.1903 -0.0703
  169DOPC  H10R20550   0.026   0.860   6.702  1.9685  1.3218  0.6498
  169DOPC  C21120551   0.095   1.034   6.581 -0.1327  0.5650  0.2326
  169DOPC  H11R20552   0.180   1.053   6.512  1.9662 -2.9454  1.6053
  169DOPC  H11S20553   0.120   1.091   6.673 -1.3111 -1.0830  1.6664
  169DOPC  C21220554  -0.035   1.095   6.523  0.4412  0.2054  0.1590
  169DOPC  H12R20555  -0.024   1.206   6.529 -0.7136  0.3087  0.5539
  169DOPC  H12S20556  -0.127   1.079   6.583 -0.1774 -0.3077 -0.9086
  169DOPC  C21320557  -0.062   1.059   6.376 -0.4697  0.2373 -0.1079
  169DOPC  H13R20558  -0.056   0.948   6.376  0.9039  0.2901  0.3743
  169DOPC  H13S20559   0.028   1.083   6.315 -1.3693 -0.0824 -1.6382
  169DOPC  C21420560  -0.193   1.117   6.319 -0.1680 -0.0229 -0.0254
  169DOPC  H14R20561  -0.277   1.103   6.390 -0.8515  2.2359 -0.3107
  169DOPC  H14S20562  -0.230   1.058   6.233 -2.1362  0.6410  0.3039
  169DOPC  C21520563  -0.175   1.271   6.281  0.6144  0.2001 -0.1776
  169DOPC  H15R20564  -0.093   1.289   6.209 -0.0080 -1.1052 -1.2556
  169DOPC  H15S20565  -0.156   1.307   6.385 -2.7869 -0.2740  0.7092
  169DOPC  C21620566  -0.288   1.343   6.210  0.7099 -0.9878  0.0062
  169DOPC  H16R20567  -0.287   1.449   6.243 -0.3884 -0.0386 -2.7165
  169DOPC  H16S20568  -0.381   1.299   6.253  0.2941  0.9824  1.3113
  169DOPC  C21720569  -0.292   1.335   6.059  0.0340  0.0072 -0.3498
  169DOPC  H17R20570  -0.239   1.243   6.029 -0.9061 -0.3092 -1.0811
  169DOPC  H17S20571  -0.234   1.416   6.010 -1.0161  1.0778  0.1124
  169DOPC  C21820572  -0.435   1.337   6.006  0.3876  0.6944 -0.1219
  169DOPC  H18R20573  -0.488   1.255   6.059  0.7937  0.6760  0.2613
  169DOPC  H18S20574  -0.435   1.305   5.899 -0.9169  1.0528 -0.2473
  169DOPC  H18T20575  -0.484   1.437   6.011 -1.1859 -0.0287 -0.2159
  169DOPC   C3320576   0.278   0.845   6.957 -0.5208  0.6128  0.3358
  169DOPC   H3X20577   0.279   0.768   7.038 -3.8779 -0.2751 -0.3108
  169DOPC   H3Y20578   0.228   0.789   6.875  1.8264 -1.2488  0.0567
  169DOPC   C3420579   0.190   0.962   7.015 -0.3424  0.1319  0.2607
  169DOPC   H4X20580   0.202   1.059   6.962 -0.1664  0.7337  1.3666
  169DOPC   H4Y20581   0.236   0.968   7.115  0.5084 -2.2961  0.0702
  169DOPC   C3520582   0.038   0.932   7.019 -0.1435 -0.2098  0.2866
  169DOPC   H5X20583   0.029   0.824   7.042  0.2200 -0.2828  0.0960
  169DOPC   H5Y20584  -0.000   0.950   6.916 -0.9090  2.3915  0.9590
  169DOPC   C3620585  -0.029   1.014   7.130  0.0795  0.2113 -0.1070
  169DOPC   H6X20586  -0.120   0.954   7.150  0.1711 -0.1303 -0.6982
  169DOPC   H6Y20587   0.047   1.024   7.211  0.1223 -0.7140 -0.0283
  169DOPC   C3720588  -0.052   1.165   7.102  0.6647 -0.4889 -0.1211
  169DOPC   H7X20589  -0.111   1.201   7.189 -0.9045 -0.5894 -1.1113
  169DOPC   H7Y20590   0.044   1.221   7.109  0.3741  0.1574 -1.1009
  169DOPC   C3820591  -0.118   1.201   6.970  0.1796 -0.5492  0.2264
  169DOPC   H8X20592  -0.205   1.133   6.961  0.3615 -0.7376 -0.1208
  169DOPC   H8Y20593  -0.049   1.171   6.888 -0.8077 -2.9886  0.2303
  169DOPC   C3920594  -0.160   1.346   6.959  0.7808  0.5826 -0.0997
  169DOPC   H9X20595  -0.234   1.377   7.034  2.0973 -0.1417  1.5532
  169DOPC  C31020596  -0.123   1.439   6.868 -0.1891 -0.0168 -0.3510
  169DOPC  H10X20597  -0.152   1.545   6.882  0.7101  0.6739 -2.9742
  169DOPC  C31120598  -0.032   1.431   6.750  0.8035 -0.6679  0.4765
  169DOPC  H11X20599   0.008   1.328   6.739 -1.2846 -1.8583  2.9489
  169DOPC  H11Y20600   0.049   1.507   6.749  1.2684 -1.1260  1.9907
  169DOPC  C31220601  -0.112   1.452   6.623  0.5936  0.4353 -0.3057
  169DOPC  H12X20602  -0.196   1.380   6.612 -0.5813  1.8720 -1.0806
  169DOPC  H12Y20603  -0.040   1.435   6.540  1.4216  1.7229  0.1258
  169DOPC  C31320604  -0.176   1.592   6.604  0.0838  0.2467  0.0169
  169DOPC  H13X20605  -0.237   1.615   6.695  0.5835 -0.6201  0.5922
  169DOPC  H13Y20606  -0.096   1.666   6.585  1.1911 -0.6200  1.0911
  169DOPC  C31420607  -0.265   1.603   6.478 -0.3274 -0.2862  0.3929
  169DOPC  H14X20608  -0.213   1.559   6.391  0.7727  0.6212  0.5630
  169DOPC  H14Y20609  -0.356   1.540   6.486 -1.5637  1.3465 -0.1703
  169DOPC  C31520610  -0.314   1.751   6.453 -0.4807 -0.3468  0.1864
  169DOPC  H15X20611  -0.222   1.809   6.434  0.8866 -1.9435  1.6368
  169DOPC  H15Y20612  -0.350   1.792   6.550 -1.7631  0.6691 -0.6792
  169DOPC  C31620613  -0.428   1.763   6.346 -0.4609  0.0784  0.0582
  169DOPC  H16X20614  -0.466   1.660   6.329  1.3172 -0.6202  0.0963
  169DOPC  H16Y20615  -0.510   1.827   6.386 -2.4138 -1.4265 -1.3679
  169DOPC  C31720616  -0.373   1.822   6.217  0.2349  0.3240 -0.5249
  169DOPC  H17X20617  -0.344   1.927   6.238  3.2228 -0.3127 -1.0370
  169DOPC  H17Y20618  -0.279   1.767   6.196  0.5481  1.2361 -1.5777
  169DOPC  C31820619  -0.479   1.815   6.106  0.8144 -0.3900  1.5220
  169DOPC  H18X20620  -0.427   1.860   6.019 -1.2835  1.8230  1.3271
  169DOPC  H18Y20621  -0.528   1.716   6.099  2.5689 -1.1849 -0.9231
  169DOPC  H18Z20622  -0.564   1.884   6.124 -0.3036  0.1596 -4.0193
  170DOPC     N20623   7.149   6.940   7.716 -0.7477 -0.6307  0.0581
  170DOPC   C1220624   7.147   7.014   7.584 -0.4111  0.4549 -0.1515
  170DOPC  H12A20625   7.047   7.014   7.543 -1.6620  1.3743  2.6449
  170DOPC  H12B20626   7.209   6.950   7.523 -0.0407 -0.3575  1.0370
  170DOPC   C1320627   7.285   6.897   7.749 -0.5943  0.4492  0.0633
  170DOPC  H13A20628   7.341   6.987   7.771 -2.2812  1.3093  1.0409
  170DOPC  H13B20629   7.281   6.825   7.830 -2.5055 -1.2415 -1.4088
  170DOPC  H13C20630   7.334   6.842   7.670 -0.9802 -3.0132  1.9871
  170DOPC   C1420631   7.068   6.818   7.709 -0.0121 -0.2670  0.0984
  170DOPC  H14A20632   7.067   6.772   7.806 -0.6049  2.0902  1.3060
  170DOPC  H14B20633   6.964   6.845   7.693 -0.7651 -2.2418  1.3067
  170DOPC  H14C20634   7.095   6.751   7.629  0.4506 -1.8527  1.5440
  170DOPC   C1520635   7.111   7.025   7.824 -0.4650 -0.3011 -0.1175
  170DOPC  H15A20636   7.151   6.993   7.918 -0.5996  1.2429  0.5020
  170DOPC  H15B20637   7.005   7.043   7.835 -0.3681  0.6020 -0.5357
  170DOPC  H15C20638   7.153   7.124   7.813 -0.2705 -0.3304  0.3370
  170DOPC   C1120639   7.212   7.153   7.583  0.2028  0.2242  0.4685
  170DOPC  H11A20640   7.319   7.152   7.615 -0.2238  1.2471  2.0883
  170DOPC  H11B20641   7.209   7.179   7.475 -2.0310  0.7311  0.6149
  170DOPC     P20642   7.031   7.344   7.615  0.4433 -0.2699 -0.0924
  170DOPC   O1320643   6.928   7.369   7.723 -0.3240  0.0466 -0.0068
  170DOPC   O1420644   6.982   7.298   7.486  0.2358 -0.2858 -0.6192
  170DOPC   O1220645   7.143   7.250   7.668 -0.2944  0.0677  0.6895
  170DOPC   O1120646   7.110   7.473   7.586  0.1500 -0.3794  0.6049
  170DOPC    C120647   7.235   7.482   7.509  0.9141 -0.6026 -0.0778
  170DOPC    HA20648   7.304   7.399   7.534 -1.4990 -2.1730  1.7866
  170DOPC    HB20649   7.280   7.581   7.534 -2.9342  1.9210 -2.0917
  170DOPC    C220650   7.218   7.502   7.360 -0.0237  0.2604 -0.2804
  170DOPC    HS20651   7.133   7.572   7.348 -0.9860 -0.9152 -0.5398
  170DOPC   O2120652   7.180   7.381   7.309 -0.3433  0.6211 -0.3856
  170DOPC   C2120653   7.101   7.375   7.202  0.1626  0.3550 -0.5132
  170DOPC   O2220654   7.045   7.470   7.149  0.0420 -0.2795 -0.2360
  170DOPC   C2220655   7.103   7.242   7.143 -0.1827  0.2218 -0.1757
  170DOPC   H2R20656   7.117   7.167   7.224 -1.4967 -0.2378 -0.3537
  170DOPC   H2S20657   7.197   7.242   7.084 -0.3041  2.5401 -0.4475
  170DOPC    C320658   7.343   7.555   7.278  0.2809  0.1944 -0.1756
  170DOPC    HX20659   7.416   7.474   7.300  0.9356  0.1494 -2.2576
  170DOPC    HY20660   7.363   7.653   7.327  1.2397  0.4123 -0.9588
  170DOPC   O3120661   7.323   7.579   7.136 -0.0080 -0.5067  0.5421
  170DOPC   C3120662   7.378   7.491   7.061 -0.0499 -0.1422 -0.1448
  170DOPC   O3220663   7.449   7.392   7.091 -0.2742 -0.3798 -0.3897
  170DOPC   C3220664   7.341   7.524   6.913 -0.5039 -0.6432  0.2285
  170DOPC   H2X20665   7.261   7.601   6.905  1.6411  1.8676  1.5668
  170DOPC   H2Y20666   7.423   7.590   6.877 -0.7683 -0.9814 -1.0320
  170DOPC   C2320667   6.984   7.191   7.066  0.5718  0.5052  0.1535
  170DOPC   H3R20668   6.894   7.216   7.125 -0.8887  0.3160 -1.8987
  170DOPC   H3S20669   6.989   7.081   7.053  1.2333  0.5810 -0.3131
  170DOPC   C2420670   6.966   7.241   6.920  0.1346 -0.8912 -0.0477
  170DOPC   H4R20671   7.052   7.192   6.871 -2.0595 -2.6756 -2.4246
  170DOPC   H4S20672   6.975   7.351   6.910  0.7870 -0.9119  0.2572
  170DOPC   C2520673   6.831   7.193   6.850 -0.2801 -0.1516 -0.6104
  170DOPC   H5R20674   6.742   7.227   6.905  1.9804 -0.6567  3.7798
  170DOPC   H5S20675   6.837   7.082   6.843 -2.0127 -0.2330 -1.4643
  170DOPC   C2620676   6.807   7.225   6.702  0.2643  0.0924  1.1602
  170DOPC   H6R20677   6.781   7.333   6.695 -0.3921 -0.0578  1.2099
  170DOPC   H6S20678   6.730   7.160   6.654  1.2294 -0.1223 -0.1517
  170DOPC   C2720679   6.927   7.207   6.601 -0.1977 -0.6019  0.0049
  170DOPC   H7R20680   6.948   7.099   6.590 -0.0016 -0.8668  2.4213
  170DOPC   H7S20681   7.016   7.255   6.646 -0.0635 -0.0529 -0.8210
  170DOPC   C2820682   6.887   7.271   6.469  0.1856 -0.3038 -0.0474
  170DOPC   H8R20683   6.855   7.374   6.496 -1.9875 -0.8669 -0.3481
  170DOPC   H8S20684   6.794   7.223   6.434  2.0331 -3.6579 -0.7940
  170DOPC   C2920685   6.990   7.255   6.362  0.1596  0.1781  0.3213
  170DOPC   H9R20686   7.095   7.257   6.392  0.0974  2.5615  0.6215
  170DOPC  C21020687   6.950   7.240   6.234 -0.7501 -0.0623 -0.1523
  170DOPC  H10R20688   7.025   7.219   6.157 -1.2734 -0.7800 -0.4851
  170DOPC  C21120689   6.810   7.232   6.176  0.1605  0.1282 -0.3856
  170DOPC  H11R20690   6.739   7.303   6.223  0.2858  0.6756 -1.0209
  170DOPC  H11S20691   6.769   7.128   6.181 -0.0359  0.0876 -2.1076
  170DOPC  C21220692   6.812   7.260   6.026  0.3844  0.2880  0.4185
  170DOPC  H12R20693   6.874   7.349   6.005 -1.3572  1.4208 -0.1920
  170DOPC  H12S20694   6.706   7.273   5.993  0.4678 -0.4096 -0.1660
  170DOPC  C21320695   6.855   7.139   5.935  0.8635 -0.5189  0.4903
  170DOPC  H13R20696   6.839   7.042   5.988  1.0437 -1.7509 -1.6096
  170DOPC  H13S20697   6.965   7.146   5.928  1.2113 -2.7104  2.3793
  170DOPC  C21420698   6.789   7.147   5.797  0.0914  0.0879  0.6591
  170DOPC  H14R20699   6.833   7.229   5.736  1.1928  0.1850  1.5409
  170DOPC  H14S20700   6.682   7.175   5.808 -0.0433 -0.6484  1.3425
  170DOPC  C21520701   6.803   7.014   5.715 -0.1953  0.0936 -0.3985
  170DOPC  H15R20702   6.738   6.936   5.759  0.2849 -0.7990 -1.2482
  170DOPC  H15S20703   6.909   6.982   5.715  0.2197  1.2517  1.8585
  170DOPC  C21620704   6.761   7.046   5.572  0.0813 -0.4353 -0.0965
  170DOPC  H16R20705   6.825   7.130   5.536 -1.4851  1.4987  1.3935
  170DOPC  H16S20706   6.659   7.090   5.576  0.9791  1.6807  2.2084
  170DOPC  C21720707   6.773   6.917   5.488 -0.3306  0.0616  0.1216
  170DOPC  H17R20708   6.717   6.837   5.540 -1.6313  0.2195 -0.9852
  170DOPC  H17S20709   6.881   6.891   5.480 -0.4731 -1.6771  2.6132
  170DOPC  C21820710   6.721   6.921   5.344  0.8196  0.4186 -0.1839
  170DOPC  H18R20711   6.684   6.829   5.293 -1.0654  1.4276 -0.7406
  170DOPC  H18S20712   6.800   6.969   5.282  1.6384 -0.5934  0.0419
  170DOPC  H18T20713   6.630   6.984   5.355 -0.1071 -0.4372 -2.3724
  170DOPC   C3320714   7.327   7.399   6.824 -0.6498  0.1318  0.1047
  170DOPC   H3X20715   7.255   7.327   6.870  0.5001 -1.3582 -0.3487
  170DOPC   H3Y20716   7.425   7.353   6.802 -0.9936  0.6344 -2.8097
  170DOPC   C3420717   7.268   7.429   6.685  0.5279 -0.2570 -0.1173
  170DOPC   H4X20718   7.161   7.460   6.695  0.8948  0.3005  3.0018
  170DOPC   H4Y20719   7.260   7.329   6.637  0.7351 -0.8394  1.0352
  170DOPC   C3520720   7.339   7.520   6.586 -0.1594 -0.4101  0.6085
  170DOPC   H5X20721   7.448   7.500   6.595 -0.2356 -2.0677 -1.2775
  170DOPC   H5Y20722   7.319   7.623   6.622 -2.3673 -0.3177 -0.6750
  170DOPC   C3620723   7.275   7.498   6.446  0.4589 -0.5214 -0.2159
  170DOPC   H6X20724   7.272   7.390   6.419 -2.9965 -0.1005 -2.1096
  170DOPC   H6Y20725   7.171   7.532   6.462  1.6451  2.4631  2.0575
  170DOPC   C3720726   7.329   7.587   6.337 -0.5508  0.1275  1.1712
  170DOPC   H7X20727   7.353   7.689   6.374  0.4249 -0.1405  1.3118
  170DOPC   H7Y20728   7.421   7.541   6.293  0.3911  0.9204  2.2703
  170DOPC   C3820729   7.227   7.617   6.223 -0.5198  0.5455  0.0566
  170DOPC   H8X20730   7.276   7.703   6.171 -2.7711  0.9460 -1.5736
  170DOPC   H8Y20731   7.130   7.647   6.267 -1.5601  0.5791 -2.1425
  170DOPC   C3920732   7.211   7.487   6.141  0.4101 -0.2523 -0.2046
  170DOPC   H9X20733   7.227   7.400   6.206  0.0645 -0.9887 -1.0907
  170DOPC  C31020734   7.191   7.472   6.009  0.1775 -0.2225 -0.5628
  170DOPC  H10X20735   7.174   7.372   5.965  0.2872 -1.6072  2.2609
  170DOPC  C31120736   7.191   7.590   5.916  0.2657  0.3644 -0.6426
  170DOPC  H11X20737   7.160   7.677   5.977 -1.2433 -1.1406  0.8320
  170DOPC  H11Y20738   7.113   7.583   5.838 -1.6151  0.4307  1.1596
  170DOPC  C31220739   7.327   7.620   5.848 -0.4898  0.3142  0.3921
  170DOPC  H12X20740   7.368   7.528   5.802 -0.5336  1.4381 -2.0908
  170DOPC  H12Y20741   7.395   7.653   5.929  0.0157 -0.2474  0.2074
  170DOPC  C31320742   7.331   7.730   5.733  0.8052  0.0922 -0.7799
  170DOPC  H13X20743   7.266   7.689   5.653  0.8008 -1.5829  0.0242
  170DOPC  H13Y20744   7.275   7.818   5.770 -1.2623 -1.8539  1.1146
  170DOPC  C31420745   7.471   7.749   5.671  0.5383 -0.2269  0.0597
  170DOPC  H14X20746   7.540   7.810   5.733  1.5077 -1.5023  0.2895
  170DOPC  H14Y20747   7.525   7.652   5.656 -0.0076 -0.5848  0.3966
  170DOPC  C31520748   7.463   7.827   5.538  0.5756 -0.0791 -0.3125
  170DOPC  H15X20749   7.368   7.794   5.492  0.2104  1.1881 -0.5169
  170DOPC  H15Y20750   7.539   7.776   5.476 -1.7362 -1.7770 -1.8818
  170DOPC  C31620751   7.487   7.977   5.545  0.4037  0.0748 -0.3189
  170DOPC  H16X20752   7.444   8.022   5.453 -3.4679 -1.3396  0.6240
  170DOPC  H16Y20753   7.418   8.021   5.620  1.2854  0.0613  0.5221
  170DOPC  C31720754   7.631   8.026   5.584 -0.7092 -0.0995 -0.1010
  170DOPC  H17X20755   7.627   8.137   5.589 -0.9598 -0.1740  2.5359
  170DOPC  H17Y20756   7.661   8.009   5.689  0.6758  0.9805 -0.2966
  170DOPC  C31820757   7.730   7.977   5.478  1.0592  0.0831  0.4994
  170DOPC  H18X20758   7.831   8.024   5.482  0.3401  1.8212 -0.6633
  170DOPC  H18Y20759   7.740   7.867   5.487 -0.4979 -0.1905 -0.7931
  170DOPC  H18Z20760   7.691   8.002   5.377  1.2322 -0.5034  0.2861
  171DOPC     N20761   3.878   2.977   2.250  0.0709 -0.0932 -0.1426
  171DOPC   C1220762   3.823   3.071   2.145 -0.1201  0.0684  0.0384
  171DOPC  H12A20763   3.860   3.033   2.051  2.9070 -0.4135  1.2969
  171DOPC  H12B20764   3.873   3.166   2.154  2.4041 -0.8038 -3.1091
  171DOPC   C1320765   3.872   3.027   2.390  0.3273 -0.3211 -0.0305
  171DOPC  H13A20766   3.920   2.965   2.464  2.4681  1.7109  0.4126
  171DOPC  H13B20767   3.928   3.119   2.388  2.2175 -1.4191 -1.5198
  171DOPC  H13C20768   3.769   3.044   2.416 -0.2075 -2.7387 -0.3205
  171DOPC   C1420769   4.027   2.956   2.211 -0.0201 -0.5064 -0.0348
  171DOPC  H14A20770   4.071   2.887   2.281  1.2332  0.4258  0.1376
  171DOPC  H14B20771   4.036   2.900   2.119  0.2917  0.8198 -0.8399
  171DOPC  H14C20772   4.087   3.046   2.205 -0.0168 -0.4299  1.0040
  171DOPC   C1520773   3.802   2.844   2.234 -0.0103 -0.0504 -1.0048
  171DOPC  H15A20774   3.709   2.856   2.289  0.5900 -3.5862  1.1162
  171DOPC  H15B20775   3.854   2.764   2.284  0.6091  0.0567 -1.4652
  171DOPC  H15C20776   3.781   2.810   2.134  1.1373 -1.7520 -0.7075
  171DOPC   C1120777   3.671   3.096   2.140 -0.3698 -0.2478  0.3538
  171DOPC  H11A20778   3.659   3.149   2.043  0.3081  0.1061  0.4531
  171DOPC  H11B20779   3.624   2.997   2.124 -0.2261 -0.3291  0.4366
  171DOPC     P20780   3.526   3.121   2.358  0.2915 -0.3448 -0.2620
  171DOPC   O1320781   3.585   3.002   2.418  0.3549  0.2484 -0.3648
  171DOPC   O1420782   3.392   3.096   2.297 -0.0639  0.1384  0.0920
  171DOPC   O1220783   3.626   3.182   2.248  0.4008  0.1539 -0.2097
  171DOPC   O1120784   3.502   3.230   2.464  0.7117  0.7650 -0.2635
  171DOPC    C120785   3.562   3.353   2.489  0.5233  0.5039 -0.2179
  171DOPC    HA20786   3.503   3.420   2.556  0.5312  0.6927 -0.3987
  171DOPC    HB20787   3.578   3.407   2.393  2.2374  0.8192  0.2100
  171DOPC    C220788   3.708   3.350   2.550 -0.4069 -0.3182  0.0068
  171DOPC    HS20789   3.771   3.309   2.469  1.6180  1.8970  0.3565
  171DOPC   O2120790   3.712   3.269   2.665 -0.1069  0.2449 -0.2988
  171DOPC   C2120791   3.822   3.210   2.693 -0.3022  0.0724 -0.4947
  171DOPC   O2220792   3.924   3.212   2.633  0.1918  0.2283 -0.2265
  171DOPC   C2220793   3.814   3.132   2.823  0.1107  0.3205  0.7418
  171DOPC   H2R20794   3.765   3.038   2.792  0.4714 -0.0813  1.3868
  171DOPC   H2S20795   3.748   3.182   2.896 -2.6292  1.1560 -2.0807
  171DOPC    C320796   3.771   3.490   2.584  0.3223 -0.0420  0.4856
  171DOPC    HX20797   3.780   3.551   2.492  0.5513  0.4781  0.8470
  171DOPC    HY20798   3.876   3.490   2.620  0.3513 -0.3839  0.4075
  171DOPC   O3120799   3.687   3.563   2.676  0.3073  0.1774 -0.1105
  171DOPC   C3120800   3.717   3.534   2.811  0.2809 -0.1058  0.0669
  171DOPC   O3220801   3.826   3.501   2.852  0.1084  0.1077 -0.4183
  171DOPC   C3220802   3.586   3.534   2.886  0.0555  0.7111 -0.7826
  171DOPC   H2X20803   3.536   3.631   2.865  2.2944  1.9072 -0.9046
  171DOPC   H2Y20804   3.521   3.452   2.850  0.8628  0.1732 -1.0382
  171DOPC   C2320805   3.945   3.093   2.877 -0.2780  0.1783  0.3523
  171DOPC   H3R20806   4.005   3.186   2.881 -0.1844  0.2867 -2.2169
  171DOPC   H3S20807   3.998   3.023   2.809 -0.6503 -0.0031  0.2452
  171DOPC   C2420808   3.938   3.029   3.021 -0.4454  0.1781 -0.0159
  171DOPC   H4R20809   3.881   3.091   3.094  1.7376  3.0831 -0.6177
  171DOPC   H4S20810   4.038   3.025   3.068  1.7324  5.2508 -3.3822
  171DOPC   C2520811   3.872   2.894   3.023  0.3239 -0.8402  0.3443
  171DOPC   H5R20812   3.916   2.820   2.953  1.1111 -0.7246  0.7118
  171DOPC   H5S20813   3.764   2.904   2.999  0.2065 -1.0096  0.8079
  171DOPC   C2620814   3.881   2.830   3.161 -0.2388  0.1117  0.2721
  171DOPC   H6R20815   3.847   2.906   3.235 -2.1870  0.4558 -0.9263
  171DOPC   H6S20816   3.980   2.780   3.170  0.6212  1.5454 -0.6612
  171DOPC   C2720817   3.788   2.708   3.183  0.2234 -0.0470  0.7601
  171DOPC   H7R20818   3.828   2.627   3.118  0.5724  1.9243 -1.6059
  171DOPC   H7S20819   3.689   2.731   3.139  0.5225 -0.8359 -0.3671
  171DOPC   C2820820   3.797   2.659   3.326 -0.2214 -0.0232  0.2520
  171DOPC   H8R20821   3.904   2.654   3.355  0.5338 -0.1814 -2.3288
  171DOPC   H8S20822   3.754   2.557   3.323 -0.0774 -0.0954  0.5804
  171DOPC   C2920823   3.715   2.728   3.438  0.0961  0.6372  0.9701
  171DOPC   H9R20824   3.607   2.736   3.419  0.1684  0.1846  0.3298
  171DOPC  C21020825   3.750   2.777   3.559  0.1962  0.2728  0.1624
  171DOPC  H10R20826   3.679   2.834   3.620  0.3305  1.0479 -0.3905
  171DOPC  C21120827   3.895   2.753   3.606 -0.0939 -1.8119  0.0314
  171DOPC  H11R20828   3.880   2.822   3.692 -0.9818 -2.0276  0.0656
  171DOPC  H11S20829   3.969   2.806   3.542  0.3336 -2.3353  0.0860
  171DOPC  C21220830   3.928   2.611   3.647  0.3534  0.2220  1.2977
  171DOPC  H12R20831   3.948   2.562   3.550  1.1810  0.1850  1.4818
  171DOPC  H12S20832   3.838   2.566   3.694 -0.8128  0.5695 -0.5177
  171DOPC  C21320833   4.055   2.602   3.730  0.1681  1.1900 -0.4192
  171DOPC  H13R20834   4.132   2.663   3.678  1.0062 -3.1873 -5.0999
  171DOPC  H13S20835   4.090   2.497   3.725 -0.6252  0.8784  0.2736
  171DOPC  C21420836   4.040   2.640   3.880 -0.4230  0.0056  0.2827
  171DOPC  H14R20837   3.954   2.588   3.927  1.2558 -0.9806  2.4103
  171DOPC  H14S20838   4.026   2.751   3.882  0.8715  0.2585 -1.9837
  171DOPC  C21520839   4.163   2.617   3.965 -0.8283 -0.2021  0.0839
  171DOPC  H15R20840   4.255   2.651   3.913 -0.7679  0.2371  0.4745
  171DOPC  H15S20841   4.174   2.507   3.975  2.5382 -0.1411 -1.4363
  171DOPC  C21620842   4.164   2.696   4.098  0.1541 -0.0695 -0.4379
  171DOPC  H16R20843   4.158   2.806   4.078  0.8363  0.6043  2.5264
  171DOPC  H16S20844   4.257   2.676   4.155  0.4221  2.5192  0.1821
  171DOPC  C21720845   4.029   2.666   4.171 -0.1229  0.0430 -0.2554
  171DOPC  H17R20846   3.996   2.561   4.157 -1.5428  0.5227 -0.6987
  171DOPC  H17S20847   3.952   2.727   4.119  0.4563  0.0329 -1.1495
  171DOPC  C21820848   4.029   2.706   4.310 -0.1425  0.3699  0.5446
  171DOPC  H18R20849   4.096   2.643   4.372  1.0439 -1.0340 -1.9885
  171DOPC  H18S20850   3.923   2.703   4.342 -0.5861 -2.0340 -0.8866
  171DOPC  H18T20851   4.064   2.811   4.314  2.1765 -0.2925 -0.4692
  171DOPC   C3320852   3.604   3.516   3.039  0.0044 -0.2288 -0.0730
  171DOPC   H3X20853   3.674   3.594   3.075  1.3230 -1.9688  1.2992
  171DOPC   H3Y20854   3.649   3.416   3.057 -1.5322 -0.4744  3.3687
  171DOPC   C3420855   3.465   3.529   3.111 -0.3003 -0.1890  0.0713
  171DOPC   H4X20856   3.408   3.435   3.096  1.3400 -1.0289 -1.1650
  171DOPC   H4Y20857   3.418   3.619   3.066  0.3364  0.5763  0.9006
  171DOPC   C3520858   3.475   3.549   3.261 -0.1882 -0.8340  0.2507
  171DOPC   H5X20859   3.524   3.646   3.285 -0.6772 -0.4126 -0.4041
  171DOPC   H5Y20860   3.518   3.461   3.313 -0.7472 -1.8492 -0.9444
  171DOPC   C3620861   3.334   3.564   3.318 -0.2269 -0.3134 -0.5981
  171DOPC   H6X20862   3.279   3.649   3.272 -2.4805 -0.6876  1.1980
  171DOPC   H6Y20863   3.278   3.468   3.303 -0.7863 -0.5121  2.2406
  171DOPC   C3720864   3.331   3.566   3.477  0.5116 -0.1468 -0.5588
  171DOPC   H7X20865   3.340   3.459   3.505 -0.1435 -0.0122  0.2200
  171DOPC   H7Y20866   3.427   3.618   3.496 -0.4316  1.9733 -1.2127
  171DOPC   C3820867   3.212   3.631   3.541 -0.4557  0.7751 -0.0863
  171DOPC   H8X20868   3.199   3.726   3.486 -0.2893  1.5277  1.1280
  171DOPC   H8Y20869   3.236   3.643   3.649  0.8925  0.6882 -0.3611
  171DOPC   C3920870   3.088   3.549   3.514 -0.2003  0.4810 -0.1270
  171DOPC   H9X20871   3.070   3.542   3.405 -0.0860 -1.0606 -0.0610
  171DOPC  C31020872   2.996   3.486   3.594  0.0541 -0.3032 -0.2773
  171DOPC  H10X20873   2.909   3.443   3.543 -2.2041  1.5329  1.7653
  171DOPC  C31120874   3.003   3.490   3.743  0.8475 -0.1526 -0.1615
  171DOPC  H11X20875   3.053   3.583   3.775  2.3450 -1.3624  1.2234
  171DOPC  H11Y20876   3.068   3.407   3.777  0.3156 -0.5386 -0.0622
  171DOPC  C31220877   2.870   3.474   3.820  0.4492  0.0389 -1.4864
  171DOPC  H12X20878   2.807   3.392   3.778 -1.1483  0.3135  0.2437
  171DOPC  H12Y20879   2.812   3.568   3.807  0.0071  0.1767  1.0031
  171DOPC  C31320880   2.890   3.466   3.975 -0.6285  0.0388  0.3989
  171DOPC  H13X20881   2.943   3.373   4.001  1.1111  0.8148 -0.2248
  171DOPC  H13Y20882   2.957   3.549   4.006  1.0127 -0.1217 -2.3325
  171DOPC  C31420883   2.761   3.468   4.052  0.0821  0.5987  0.0235
  171DOPC  H14X20884   2.711   3.565   4.030  2.4025  2.7345  3.2352
  171DOPC  H14Y20885   2.695   3.383   4.023  0.4113 -0.4593  2.1895
  171DOPC  C31520886   2.788   3.465   4.204  0.1036 -0.4388  0.1121
  171DOPC  H15X20887   2.860   3.547   4.225  1.0795 -1.3741  0.5030
  171DOPC  H15Y20888   2.847   3.372   4.219 -0.6711 -1.1808 -1.2805
  171DOPC  C31620889   2.661   3.470   4.283  0.4276  0.0502 -0.0506
  171DOPC  H16X20890   2.613   3.567   4.255  0.3038  0.5289  1.6775
  171DOPC  H16Y20891   2.595   3.383   4.264  0.9456 -0.5596  0.8593
  171DOPC  C31720892   2.681   3.467   4.441 -0.7581 -0.0969  0.3344
  171DOPC  H17X20893   2.592   3.495   4.501 -0.5023 -0.6320  0.9711
  171DOPC  H17Y20894   2.702   3.361   4.467 -1.2478 -0.5001 -0.8649
  171DOPC  C31820895   2.800   3.551   4.496  0.5541  0.2506 -0.7045
  171DOPC  H18X20896   2.773   3.658   4.486 -2.0799 -0.3376 -0.5937
  171DOPC  H18Y20897   2.833   3.524   4.598 -1.6370 -1.5171 -0.3974
  171DOPC  H18Z20898   2.886   3.525   4.430  1.8834 -0.8656  1.3653
  172DOPC     N20899   3.009   4.680   2.214 -0.2827 -0.5276 -0.7264
  172DOPC   C1220900   2.994   4.632   2.356  0.5177  0.2989 -0.6636
  172DOPC  H12A20901   3.055   4.543   2.364 -0.1592 -0.0469  1.5379
  172DOPC  H12B20902   2.889   4.614   2.375  0.5607  2.2252  1.8935
  172DOPC   C1320903   2.935   4.578   2.140 -0.2550 -0.9462  0.5850
  172DOPC  H13A20904   2.958   4.475   2.162 -0.6648 -1.5437 -1.5942
  172DOPC  H13B20905   2.830   4.587   2.164 -0.4672  0.7130 -0.7675
  172DOPC  H13C20906   2.941   4.596   2.034 -0.6696  0.0814  0.7201
  172DOPC   C1420907   3.148   4.676   2.180  0.0988 -0.9007  0.1389
  172DOPC  H14A20908   3.187   4.575   2.183  0.8243 -0.6749  4.1608
  172DOPC  H14B20909   3.169   4.715   2.082  0.2077 -1.7282 -0.1733
  172DOPC  H14C20910   3.203   4.727   2.258  1.2963 -1.4053 -0.3483
  172DOPC   C1520911   2.955   4.813   2.181 -0.3204 -1.0431 -0.8442
  172DOPC  H15A20912   3.022   4.894   2.208  0.1198 -1.4547 -0.6904
  172DOPC  H15B20913   2.858   4.825   2.228  0.3764  1.8958  0.0738
  172DOPC  H15C20914   2.943   4.824   2.074  0.3816 -0.3951 -0.8709
  172DOPC   C1120915   3.056   4.721   2.465 -0.3082 -0.0935 -1.4120
  172DOPC  H11A20916   3.048   4.676   2.566  0.8035 -1.5032 -1.9151
  172DOPC  H11B20917   3.165   4.730   2.444  0.0014  0.9331  0.3716
  172DOPC     P20918   2.875   4.892   2.552  0.6134 -0.0651 -0.0061
  172DOPC   O1320919   2.795   4.772   2.594  0.0121 -0.2719  0.3077
  172DOPC   O1420920   2.804   4.993   2.474 -0.1510 -0.6428 -0.2874
  172DOPC   O1220921   3.006   4.857   2.471  0.0384 -0.3729  0.2615
  172DOPC   O1120922   2.928   4.972   2.677  0.5552  0.3766  0.2043
  172DOPC    C120923   3.049   4.937   2.745  0.4073 -0.8539  0.5479
  172DOPC    HA20924   3.114   5.024   2.721 -0.1202 -0.5376  0.2290
  172DOPC    HB20925   3.094   4.843   2.706 -0.9033 -2.0881  1.8782
  172DOPC    C220926   3.043   4.928   2.895  0.7615  1.3368 -0.1248
  172DOPC    HS20927   3.148   4.915   2.930  0.7564  2.3023  0.2715
  172DOPC   O2120928   2.958   4.814   2.934 -0.0323  0.1450 -0.2128
  172DOPC   C2120929   2.994   4.749   3.046 -0.6354  1.1314  0.7773
  172DOPC   O2220930   3.095   4.768   3.110 -0.0477 -0.2447 -0.6950
  172DOPC   C2220931   2.882   4.656   3.093 -0.3171  0.1277  0.6542
  172DOPC   H2R20932   2.848   4.592   3.009  1.8914  0.2921 -0.4198
  172DOPC   H2S20933   2.794   4.717   3.124 -1.8148 -1.1185 -0.9300
  172DOPC    C320934   2.994   5.061   2.964  0.4172  0.6514  0.7076
  172DOPC    HX20935   2.884   5.073   2.956  0.4287  2.1174  2.1854
  172DOPC    HY20936   3.031   5.144   2.900 -2.7692  1.7865  0.1505
  172DOPC   O3120937   3.035   5.068   3.099 -0.0377  0.0880 -0.5427
  172DOPC   C3120938   3.162   5.094   3.126  0.0648  0.2605  0.6206
  172DOPC   O3220939   3.255   5.105   3.047 -0.0489 -0.1979 -0.3661
  172DOPC   C3220940   3.185   5.094   3.276 -0.0638  0.8167 -0.1297
  172DOPC   H2X20941   3.230   5.193   3.301  1.2862  0.5869 -1.4883
  172DOPC   H2Y20942   3.087   5.101   3.327 -0.1152  2.2555 -0.3951
  172DOPC   C2320943   2.935   4.561   3.210 -0.0895 -0.4480 -0.1829
  172DOPC   H3R20944   3.041   4.532   3.199  0.2103  0.7735 -0.6980
  172DOPC   H3S20945   2.865   4.474   3.206 -0.6213 -0.0722  0.5885
  172DOPC   C2420946   2.913   4.632   3.345  0.0666  1.1640  0.0253
  172DOPC   H4R20947   2.813   4.680   3.359 -0.5871  0.0154 -0.5490
  172DOPC   H4S20948   2.988   4.713   3.343  2.2914 -0.7908  0.1459
  172DOPC   C2520949   2.937   4.535   3.461 -0.0699  0.2946 -0.3814
  172DOPC   H5R20950   3.043   4.507   3.483 -0.2789 -2.1970 -2.1549
  172DOPC   H5S20951   2.882   4.441   3.440 -0.1671  0.0004  1.0550
  172DOPC   C2620952   2.871   4.584   3.592  0.3321 -0.8768  0.3834
  172DOPC   H6R20953   2.761   4.575   3.578 -0.0654  1.1823  1.6486
  172DOPC   H6S20954   2.901   4.691   3.604 -0.4144 -0.6531  0.3388
  172DOPC   C2720955   2.918   4.491   3.708 -0.0828  0.0271  0.3461
  172DOPC   H7R20956   3.027   4.507   3.718 -0.4546  1.6568  3.1058
  172DOPC   H7S20957   2.895   4.388   3.675  2.1414 -0.3371 -0.2163
  172DOPC   C2820958   2.850   4.527   3.840 -0.0473 -0.0399 -0.0212
  172DOPC   H8R20959   2.851   4.446   3.915 -2.1259 -0.5996 -0.5298
  172DOPC   H8S20960   2.742   4.542   3.815 -0.5837  0.9447  2.5911
  172DOPC   C2920961   2.891   4.660   3.905 -0.5854  0.5369  0.0054
  172DOPC   H9R20962   2.957   4.722   3.842 -1.5261  0.9014 -0.6343
  172DOPC  C21020963   2.868   4.695   4.029  0.4665 -0.3902 -0.4979
  172DOPC  H10R20964   2.919   4.780   4.076  1.0438 -1.8707  1.7234
  172DOPC  C21120965   2.786   4.610   4.129 -0.4632 -0.2772 -0.2515
  172DOPC  H11R20966   2.766   4.510   4.084 -0.1234 -0.2134 -0.5569
  172DOPC  H11S20967   2.687   4.653   4.154 -1.3119 -1.1744 -1.8861
  172DOPC  C21220968   2.861   4.584   4.256 -0.7491  0.3012  0.0387
  172DOPC  H12R20969   2.959   4.536   4.233 -0.3212  1.7430 -1.4215
  172DOPC  H12S20970   2.810   4.508   4.318  2.9364 -1.2987  1.3936
  172DOPC  C21320971   2.899   4.704   4.347 -0.3556  0.5459  0.1395
  172DOPC  H13R20972   2.804   4.756   4.372 -0.5412 -0.0827  0.7720
  172DOPC  H13S20973   2.966   4.775   4.294  2.2663 -0.3590  2.0265
  172DOPC  C21420974   2.969   4.654   4.471 -0.1217 -0.1044  0.1945
  172DOPC  H14R20975   3.000   4.742   4.530  3.2501 -0.0524 -1.3920
  172DOPC  H14S20976   3.061   4.599   4.440 -0.2077 -0.7573  1.0773
  172DOPC  C21520977   2.885   4.550   4.562 -0.1698 -0.4695 -0.0353
  172DOPC  H15R20978   2.899   4.450   4.514 -2.1718 -1.2896  0.9819
  172DOPC  H15S20979   2.777   4.574   4.561 -0.4899 -1.7533 -2.0241
  172DOPC  C21620980   2.935   4.538   4.708  0.1303 -0.1607  0.2669
  172DOPC  H16R20981   2.872   4.456   4.749 -0.2315 -0.6435 -1.1875
  172DOPC  H16S20982   2.918   4.633   4.765  1.9718 -0.3985  1.2804
  172DOPC  C21720983   3.082   4.500   4.717 -0.4214  0.0161 -0.0354
  172DOPC  H17R20984   3.143   4.590   4.693  2.0785 -1.2262  1.3151
  172DOPC  H17S20985   3.100   4.421   4.641 -1.8060  0.4369 -0.8422
  172DOPC  C21820986   3.130   4.456   4.856  0.1935 -0.0604  0.2802
  172DOPC  H18R20987   3.120   4.546   4.920 -1.7671  1.3128 -1.8359
  172DOPC  H18S20988   3.233   4.416   4.845 -1.0822 -3.5009 -0.5309
  172DOPC  H18T20989   3.050   4.386   4.890 -0.5978 -1.0655 -3.2069
  172DOPC   C3320990   3.279   4.975   3.325 -0.1177 -0.2919 -0.0220
  172DOPC   H3X20991   3.381   4.988   3.283 -0.5768  2.4883 -0.4797
  172DOPC   H3Y20992   3.238   4.883   3.278 -2.1199  0.4227  0.2554
  172DOPC   C3420993   3.287   4.946   3.481 -0.2973  0.1791 -0.5335
  172DOPC   H4X20994   3.204   4.996   3.536  0.3905  0.6184  0.1215
  172DOPC   H4Y20995   3.387   4.984   3.512  2.3098 -4.4419 -2.2066
  172DOPC   C3520996   3.275   4.789   3.511  0.0591 -0.4682  0.3574
  172DOPC   H5X20997   3.345   4.743   3.438  1.4488  4.1398 -1.6570
  172DOPC   H5Y20998   3.169   4.764   3.491  0.2817 -1.5819  0.5303
  172DOPC   C3620999   3.321   4.749   3.649 -0.2170 -0.0365 -0.6638
  172DOPC   H6X21000   3.333   4.638   3.646 -0.0481  0.0014 -1.9996
  172DOPC   H6Y21001   3.419   4.797   3.669  0.2833 -0.3903 -2.1132
  172DOPC   C3721002   3.242   4.797   3.773 -0.0789  0.0101 -0.0703
  172DOPC   H7X21003   3.236   4.906   3.753  3.9278 -0.1185 -3.4896
  172DOPC   H7Y21004   3.140   4.755   3.777 -1.0005  2.1945  1.1854
  172DOPC   C3821005   3.309   4.746   3.898 -0.2990 -0.3751 -0.3265
  172DOPC   H8X21006   3.418   4.764   3.892 -0.5796  1.6080 -0.0713
  172DOPC   H8Y21007   3.297   4.635   3.896 -0.6913 -0.3760  1.1707
  172DOPC   C3921008   3.247   4.795   4.022 -0.3656  0.5551 -0.4573
  172DOPC   H9X21009   3.187   4.887   4.018  0.4387  1.1394  0.3369
  172DOPC  C31021010   3.283   4.746   4.143 -0.6105  0.2949 -0.5367
  172DOPC  H10X21011   3.217   4.779   4.225 -0.2610  1.7241 -0.8076
  172DOPC  C31121012   3.392   4.648   4.178 -0.3982  0.4348 -0.6131
  172DOPC  H11X21013   3.399   4.561   4.110  0.1463 -0.6880  0.8122
  172DOPC  H11Y21014   3.388   4.596   4.276  1.6772 -2.6986 -2.0339
  172DOPC  C31221015   3.528   4.727   4.188 -0.1594  0.5248 -0.9842
  172DOPC  H12X21016   3.548   4.788   4.098  1.4258  1.6322  0.0589
  172DOPC  H12Y21017   3.607   4.651   4.206 -3.3667 -2.5202  2.1773
  172DOPC  C31321018   3.539   4.817   4.316  0.4650 -0.6039 -0.0549
  172DOPC  H13X21019   3.454   4.889   4.316  0.1904 -0.9276 -0.3754
  172DOPC  H13Y21020   3.543   4.750   4.404 -3.3480  0.1072  0.8293
  172DOPC  C31421021   3.671   4.899   4.314 -0.4421  0.1965 -0.4435
  172DOPC  H14X21022   3.758   4.832   4.295  0.5321  1.6354 -1.2621
  172DOPC  H14Y21023   3.680   4.964   4.225 -3.4123  1.2881 -0.0594
  172DOPC  C31521024   3.700   4.976   4.441 -0.4397 -0.1935 -0.1443
  172DOPC  H15X21025   3.790   5.039   4.423  0.5274 -1.4096  0.3061
  172DOPC  H15Y21026   3.735   4.899   4.513  2.0222  0.5492 -0.4444
  172DOPC  C31621027   3.589   5.058   4.513  0.2095 -0.1046  0.6155
  172DOPC  H16X21028   3.534   5.127   4.446 -0.0615 -0.3669  0.5624
  172DOPC  H16Y21029   3.501   4.997   4.541 -2.2353  2.8793 -0.0782
  172DOPC  C31721030   3.640   5.137   4.634 -0.4759 -0.4811  0.3989
  172DOPC  H17X21031   3.620   5.080   4.727  1.8438 -1.0832  0.6085
  172DOPC  H17Y21032   3.750   5.156   4.640 -0.5628  0.5919 -0.9179
  172DOPC  C31821033   3.562   5.269   4.653  0.8323  0.1017  0.2149
  172DOPC  H18X21034   3.555   5.323   4.556 -0.1968  0.9815  0.7522
  172DOPC  H18Y21035   3.456   5.259   4.685 -0.4535  0.8480 -3.3715
  172DOPC  H18Z21036   3.619   5.339   4.717 -0.1443 -0.6592  2.0135
  173DOPC     N21037   1.758   3.378   2.385  0.7489  0.3550  0.0736
  173DOPC   C1221038   1.686   3.357   2.518 -0.2789  0.4328  0.5177
  173DOPC  H12A21039   1.751   3.310   2.590  0.3535  1.0826  0.3942
  173DOPC  H12B21040   1.595   3.301   2.507 -0.5095  0.6681  1.1822
  173DOPC   C1321041   1.654   3.435   2.288 -1.1590 -0.1214 -0.6224
  173DOPC  H13A21042   1.700   3.456   2.193  0.5747 -0.9468 -0.0132
  173DOPC  H13B21043   1.580   3.358   2.268  0.6286 -1.9523 -0.4734
  173DOPC  H13C21044   1.609   3.525   2.327  1.0680  0.9322 -0.3378
  173DOPC   C1421045   1.816   3.251   2.332 -0.0572  0.3960 -0.0651
  173DOPC  H14A21046   1.743   3.172   2.327  1.6990 -1.3610  0.7198
  173DOPC  H14B21047   1.874   3.274   2.244 -0.2269 -0.8445 -0.5076
  173DOPC  H14C21048   1.879   3.206   2.408 -1.4967  0.2292  1.0833
  173DOPC   C1521049   1.867   3.478   2.402  0.9272 -0.0868 -0.6318
  173DOPC  H15A21050   1.944   3.434   2.463  1.3329  1.2670 -0.1364
  173DOPC  H15B21051   1.831   3.566   2.453 -0.2456 -0.1117 -1.3767
  173DOPC  H15C21052   1.924   3.511   2.317 -1.6080  2.3157 -1.5804
  173DOPC   C1121053   1.628   3.481   2.591  0.6010  0.3694  0.1290
  173DOPC  H11A21054   1.590   3.467   2.694 -1.3628  3.0595 -0.1084
  173DOPC  H11B21055   1.707   3.558   2.604  2.3721 -1.2446 -0.5367
  173DOPC     P21056   1.370   3.490   2.560  0.4534  0.1878  0.3131
  173DOPC   O1321057   1.348   3.349   2.536 -0.4204 -0.6100  0.2779
  173DOPC   O1421058   1.271   3.586   2.506 -0.0415  0.0298  0.4409
  173DOPC   O1221059   1.514   3.530   2.519  0.2147 -0.3207  0.3067
  173DOPC   O1121060   1.374   3.517   2.715  0.5537 -0.4861 -1.0474
  173DOPC    C121061   1.299   3.441   2.811 -0.5330  0.3436 -0.6026
  173DOPC    HA21062   1.317   3.334   2.790  1.9878  1.0305 -2.3734
  173DOPC    HB21063   1.190   3.460   2.802 -0.4137  0.4990 -1.9029
  173DOPC    C221064   1.322   3.474   2.963 -0.1415 -0.9130 -0.3041
  173DOPC    HS21065   1.239   3.424   3.018 -0.0872  1.6869  2.4468
  173DOPC   O2121066   1.313   3.617   2.983 -0.3453 -1.2996 -0.5092
  173DOPC   C2121067   1.195   3.678   2.972  0.2942  0.3646  0.1510
  173DOPC   O2221068   1.093   3.618   2.941 -0.0128 -0.1205  0.5492
  173DOPC   C2221069   1.199   3.818   3.025  0.3572  0.6486  0.1494
  173DOPC   H2R21070   1.114   3.878   2.986 -1.0164 -1.7245 -0.7060
  173DOPC   H2S21071   1.293   3.865   2.987  1.3608 -0.2788  1.4028
  173DOPC    C321072   1.455   3.416   3.017 -0.3122 -0.0400 -0.3529
  173DOPC    HX21073   1.536   3.472   2.964 -0.6593 -0.1903 -1.0469
  173DOPC    HY21074   1.455   3.310   2.984 -0.8966 -0.7203  1.6631
  173DOPC   O3121075   1.464   3.399   3.162 -0.0974 -0.2868 -0.1548
  173DOPC   C3121076   1.587   3.371   3.206 -0.5440 -0.3263  0.4105
  173DOPC   O3221077   1.690   3.362   3.137  0.3063 -0.1810  0.2350
  173DOPC   C3221078   1.578   3.349   3.353  0.0878 -0.1268  0.2176
  173DOPC   H2X21079   1.483   3.383   3.400  1.5946  2.5233  1.5820
  173DOPC   H2Y21080   1.575   3.240   3.371 -0.2083 -0.2405 -0.4748
  173DOPC   C2321081   1.202   3.820   3.182 -0.5099 -0.6771  0.1339
  173DOPC   H3R21082   1.227   3.924   3.213 -0.5554 -0.0045 -1.9332
  173DOPC   H3S21083   1.285   3.753   3.213  0.3653 -1.0931 -2.7620
  173DOPC   C2421084   1.077   3.797   3.269 -0.0139 -0.1813  0.4709
  173DOPC   H4R21085   1.017   3.716   3.223  1.0420 -1.2430  0.9087
  173DOPC   H4S21086   1.014   3.888   3.275  0.2482 -0.0318  0.9486
  173DOPC   C2521087   1.105   3.762   3.423 -0.0943  0.4973 -0.5520
  173DOPC   H5R21088   1.022   3.768   3.497  0.0778 -1.8999 -0.0657
  173DOPC   H5S21089   1.181   3.838   3.452  0.1553 -0.0223  0.1832
  173DOPC   C2621090   1.177   3.621   3.444 -0.6051 -0.2195  0.4663
  173DOPC   H6R21091   1.287   3.637   3.446 -0.1223 -2.7121 -1.4979
  173DOPC   H6S21092   1.133   3.553   3.368 -0.0103 -1.8957  1.5588
  173DOPC   C2721093   1.139   3.542   3.570  0.0507 -0.3218  0.0272
  173DOPC   H7R21094   1.173   3.440   3.539  2.2452  0.7619 -1.4342
  173DOPC   H7S21095   1.029   3.537   3.579  0.0366  0.5584  0.4066
  173DOPC   C2821096   1.210   3.606   3.695  0.3519  0.1146 -0.1673
  173DOPC   H8R21097   1.149   3.588   3.786  1.0120 -1.0048  0.0666
  173DOPC   H8S21098   1.211   3.716   3.679  0.6563 -0.0201 -1.1522
  173DOPC   C2921099   1.359   3.562   3.705  0.2900 -0.0883  0.5690
  173DOPC   H9R21100   1.436   3.631   3.669  0.8480 -0.0928  1.7178
  173DOPC  C21021101   1.399   3.447   3.751 -0.5137 -0.1556  0.8045
  173DOPC  H10R21102   1.504   3.416   3.757 -0.8786 -1.4775  0.6630
  173DOPC  C21121103   1.317   3.336   3.802  0.6314  0.3998  0.0274
  173DOPC  H11R21104   1.347   3.236   3.764 -1.1722  0.0051 -0.4811
  173DOPC  H11S21105   1.208   3.333   3.782  0.1921 -2.2603  2.1649
  173DOPC  C21221106   1.330   3.320   3.957  0.2313  0.2963 -0.0215
  173DOPC  H12R21107   1.436   3.325   3.990  0.1035  0.9850  0.2955
  173DOPC  H12S21108   1.286   3.221   3.983 -1.1461  1.0925  0.7365
  173DOPC  C21321109   1.242   3.424   4.032 -0.4629 -0.0575  0.1012
  173DOPC  H13R21110   1.142   3.428   3.984  0.9039 -0.7999 -3.0996
  173DOPC  H13S21111   1.295   3.521   4.018  0.0476 -0.4602 -0.8559
  173DOPC  C21421112   1.223   3.397   4.186  0.1410  0.5798  0.2272
  173DOPC  H14R21113   1.156   3.314   4.218 -0.8212  0.8550 -1.0237
  173DOPC  H14S21114   1.167   3.487   4.217  0.1827  0.6556  0.0830
  173DOPC  C21521115   1.360   3.365   4.259 -0.5496 -0.6227  0.5675
  173DOPC  H15R21116   1.410   3.465   4.260  0.3083 -1.0417  0.4962
  173DOPC  H15S21117   1.421   3.293   4.201 -0.4202  1.5051 -2.1666
  173DOPC  C21621118   1.347   3.312   4.400 -0.2620  0.1495 -0.3942
  173DOPC  H16R21119   1.272   3.230   4.397 -0.7944  0.6384 -0.8462
  173DOPC  H16S21120   1.302   3.394   4.460  1.3979  1.8791 -1.4307
  173DOPC  C21721121   1.472   3.288   4.471 -0.3123  0.2158  0.0366
  173DOPC  H17R21122   1.538   3.251   4.389  1.7150  3.2874  0.0896
  173DOPC  H17S21123   1.465   3.205   4.545  0.2405  0.9416  0.9170
  173DOPC  C21821124   1.541   3.417   4.543  0.7058  0.2685 -0.0985
  173DOPC  H18R21125   1.478   3.449   4.629  0.8620 -1.8724  0.8631
  173DOPC  H18S21126   1.556   3.501   4.471 -1.3510 -1.1177 -2.3080
  173DOPC  H18T21127   1.642   3.395   4.583  0.0316  0.0745  1.5446
  173DOPC   C3321128   1.695   3.417   3.436 -0.4656 -0.4594  0.5432
  173DOPC   H3X21129   1.659   3.431   3.540  0.6001  1.9318  0.6559
  173DOPC   H3Y21130   1.717   3.520   3.401  0.0105 -0.5298  0.6187
  173DOPC   C3421131   1.842   3.350   3.450 -0.7661  0.0897  0.4221
  173DOPC   H4X21132   1.892   3.402   3.534  1.0163  1.5437 -1.4404
  173DOPC   H4Y21133   1.887   3.351   3.348 -0.7633  0.4784  0.4269
  173DOPC   C3521134   1.845   3.203   3.483 -0.0746  0.3849  0.8178
  173DOPC   H5X21135   1.950   3.167   3.487  0.4422  1.6649 -0.3881
  173DOPC   H5Y21136   1.798   3.147   3.400 -2.6742  1.2700  1.5956
  173DOPC   C3621137   1.784   3.164   3.621  0.2725  0.1540 -0.4580
  173DOPC   H6X21138   1.675   3.182   3.627  0.3481  0.1844  1.1366
  173DOPC   H6Y21139   1.794   3.053   3.620  2.0662  0.2908 -0.9799
  173DOPC   C3721140   1.864   3.219   3.741 -0.0257  0.5530  0.3615
  173DOPC   H7X21141   1.957   3.160   3.741 -1.2140 -1.4179  0.6211
  173DOPC   H7Y21142   1.888   3.325   3.719  0.4512 -0.0054 -2.0771
  173DOPC   C3821143   1.798   3.205   3.878 -0.3800 -0.3366 -0.3511
  173DOPC   H8X21144   1.762   3.102   3.896 -0.2209 -0.5579 -1.2519
  173DOPC   H8Y21145   1.710   3.272   3.885  0.2663  0.4619  0.2806
  173DOPC   C3921146   1.898   3.242   3.997  0.6951 -0.0607  0.4245
  173DOPC   H9X21147   1.989   3.182   3.985 -0.9491 -2.3772 -1.5381
  173DOPC  C31021148   1.882   3.331   4.093  0.2719 -0.0426 -0.5976
  173DOPC  H10X21149   1.963   3.342   4.166 -1.1300  1.1619  0.8571
  173DOPC  C31121150   1.759   3.428   4.120  0.6111  0.2380 -0.4709
  173DOPC  H11X21151   1.758   3.429   4.231  0.3555  3.5400 -0.4209
  173DOPC  H11Y21152   1.667   3.379   4.082 -0.7296  2.7819 -0.6997
  173DOPC  C31221153   1.763   3.574   4.079  0.6369  0.1598  0.2540
  173DOPC  H12X21154   1.871   3.597   4.095  0.3101  2.2935 -0.2988
  173DOPC  H12Y21155   1.709   3.644   4.146  2.1827  0.4057  1.2948
  173DOPC  C31321156   1.724   3.604   3.933 -0.1638 -0.0643  0.5168
  173DOPC  H13X21157   1.787   3.551   3.858 -0.5764  0.5642 -0.2924
  173DOPC  H13Y21158   1.625   3.555   3.928 -0.9136  1.4516 -0.1973
  173DOPC  C31421159   1.716   3.755   3.905  0.1146 -0.3819 -0.1647
  173DOPC  H14X21160   1.682   3.768   3.800  0.9647 -2.2651 -0.7344
  173DOPC  H14Y21161   1.635   3.800   3.965 -1.7488 -1.9198 -1.4120
  173DOPC  C31521162   1.848   3.826   3.923  0.4546  0.0427 -0.2827
  173DOPC  H15X21163   1.883   3.820   4.029 -1.2893  0.3167  0.3427
  173DOPC  H15Y21164   1.856   3.934   3.899 -1.4404  0.6753  1.5995
  173DOPC  C31621165   1.950   3.764   3.826 -0.5575  0.0940  0.1300
  173DOPC  H16X21166   2.048   3.807   3.857  0.0375  0.2672 -1.8375
  173DOPC  H16Y21167   1.965   3.657   3.851  0.7616  0.3214  0.3890
  173DOPC  C31721168   1.940   3.784   3.673 -0.7936  0.3717 -0.3715
  173DOPC  H17X21169   1.834   3.791   3.640 -0.3846 -0.5129 -1.9686
  173DOPC  H17Y21170   1.983   3.882   3.642 -0.0266  0.3107  0.4889
  173DOPC  C31821171   2.017   3.674   3.592 -0.2609 -0.4237 -0.1206
  173DOPC  H18X21172   2.089   3.628   3.663 -1.9552 -1.3932  1.0459
  173DOPC  H18Y21173   1.943   3.597   3.559  1.6722 -1.7263 -1.6506
  173DOPC  H18Z21174   2.070   3.723   3.508  1.7968  0.6000  1.6875
  174DOPC     N21175   4.542   2.428   2.237  0.2594  0.0248  0.0247
  174DOPC   C1221176   4.578   2.579   2.234  0.1444  0.5564  0.1502
  174DOPC  H12A21177   4.497   2.635   2.279 -0.0604 -0.9563  1.7687
  174DOPC  H12B21178   4.591   2.609   2.131  0.3603  0.4320  0.1426
  174DOPC   C1321179   4.410   2.393   2.168 -0.3034  0.2787 -0.4371
  174DOPC  H13A21180   4.396   2.286   2.160  2.7850 -0.1596 -1.2303
  174DOPC  H13B21181   4.320   2.435   2.210  0.9880  1.5222  1.2676
  174DOPC  H13C21182   4.419   2.432   2.068 -1.8477 -0.6241 -0.9597
  174DOPC   C1421183   4.544   2.367   2.373 -0.5141 -0.1431 -0.6148
  174DOPC  H14A21184   4.521   2.262   2.371  1.9404 -0.8839  2.1906
  174DOPC  H14B21185   4.646   2.361   2.409 -1.0832  0.0641  1.1024
  174DOPC  H14C21186   4.483   2.423   2.442  0.5254  0.7858 -0.4116
  174DOPC   C1521187   4.642   2.353   2.147 -0.6672 -0.1727  0.0883
  174DOPC  H15A21188   4.642   2.246   2.161 -1.4750 -0.0874  0.7735
  174DOPC  H15B21189   4.745   2.378   2.169  0.4215 -3.4917 -0.6446
  174DOPC  H15C21190   4.623   2.370   2.042  0.9002 -0.2955 -0.2397
  174DOPC   C1121191   4.714   2.615   2.296  0.0482  0.0924  0.3356
  174DOPC  H11A21192   4.715   2.578   2.401 -1.5509  1.1126  0.7394
  174DOPC  H11B21193   4.800   2.558   2.255 -0.7638  0.2787 -1.7775
  174DOPC     P21194   4.662   2.861   2.343  0.2461 -0.2619  0.1015
  174DOPC   O1321195   4.526   2.841   2.284 -0.5832 -0.4558  0.1147
  174DOPC   O1421196   4.722   2.993   2.323  0.1774 -0.1017 -0.1884
  174DOPC   O1221197   4.746   2.756   2.274 -0.0692 -0.4164 -0.4610
  174DOPC   O1121198   4.676   2.819   2.496 -0.1866 -0.4700  0.3815
  174DOPC    C121199   4.800   2.837   2.560  0.0960 -0.0397 -0.3578
  174DOPC    HA21200   4.860   2.914   2.507 -0.6651  1.1210  0.3949
  174DOPC    HB21201   4.848   2.738   2.575 -2.4903 -1.5727 -1.5016
  174DOPC    C221202   4.782   2.890   2.704 -0.3474 -0.0412  0.2303
  174DOPC    HS21203   4.884   2.896   2.748 -0.0843  0.9390 -0.4917
  174DOPC   O2121204   4.682   2.812   2.776 -0.8542 -0.1312  0.2309
  174DOPC   C2121205   4.725   2.698   2.820  0.3629  0.2906 -0.7453
  174DOPC   O2221206   4.828   2.641   2.799  0.2295 -0.3425  0.3635
  174DOPC   C2221207   4.617   2.639   2.913 -0.2818 -0.3935 -0.3033
  174DOPC   H2R21208   4.549   2.573   2.855  0.1147 -0.1072 -1.1203
  174DOPC   H2S21209   4.551   2.724   2.941  0.6800  0.7214 -1.3240
  174DOPC    C321210   4.735   3.035   2.716  0.4626  0.7571 -1.0368
  174DOPC    HX21211   4.649   3.035   2.646 -0.4259 -1.5447 -0.0354
  174DOPC    HY21212   4.825   3.096   2.692  0.8908  1.2128  1.4231
  174DOPC   O3121213   4.683   3.069   2.852  0.7120 -0.2438  0.9128
  174DOPC   C3121214   4.776   3.084   2.938 -0.2824  0.0595 -0.2591
  174DOPC   O3221215   4.897   3.076   2.924 -0.4906 -0.5031  0.4050
  174DOPC   C3221216   4.711   3.107   3.077  0.5681 -0.7456  0.5007
  174DOPC   H2X21217   4.681   3.214   3.078  0.3386 -0.7392 -1.9347
  174DOPC   H2Y21218   4.625   3.038   3.090 -1.1598  0.5799 -2.8294
  174DOPC   C2321219   4.664   2.551   3.023  0.5982  0.2337  0.1413
  174DOPC   H3R21220   4.742   2.606   3.081 -1.7797  0.7440  3.1396
  174DOPC   H3S21221   4.714   2.463   2.977 -1.5641 -0.4512 -1.0095
  174DOPC   C2421222   4.553   2.492   3.111 -0.3708 -0.5423  0.6846
  174DOPC   H4R21223   4.466   2.476   3.045 -0.2568  0.6033  0.2515
  174DOPC   H4S21224   4.521   2.579   3.172  2.7516  1.4493 -0.2596
  174DOPC   C2521225   4.585   2.359   3.176 -0.4688  0.1489 -0.4616
  174DOPC   H5R21226   4.669   2.357   3.249 -0.9484 -1.1228  0.0781
  174DOPC   H5S21227   4.634   2.293   3.100 -3.5448 -1.8666 -0.8610
  174DOPC   C2621228   4.466   2.281   3.225  0.1688 -0.1217 -0.1393
  174DOPC   H6R21229   4.408   2.248   3.136  1.0485 -0.0090 -0.7578
  174DOPC   H6S21230   4.396   2.355   3.271  0.8391  0.8699 -0.6908
  174DOPC   C2721231   4.482   2.164   3.326 -0.1074 -0.0033 -0.1429
  174DOPC   H7R21232   4.563   2.096   3.293  0.5333 -0.7341  2.6453
  174DOPC   H7S21233   4.390   2.102   3.332  0.3812 -1.0745 -2.6321
  174DOPC   C2821234   4.510   2.207   3.474  0.3019 -0.8731 -0.3307
  174DOPC   H8R21235   4.598   2.276   3.475 -2.0226  2.3891 -1.7797
  174DOPC   H8S21236   4.523   2.109   3.524  0.5776 -1.3330 -1.2851
  174DOPC   C2921237   4.394   2.279   3.547  0.0403 -0.6588  0.0932
  174DOPC   H9R21238   4.311   2.329   3.496  1.3108  0.5743 -0.8440
  174DOPC  C21021239   4.364   2.257   3.676 -0.0999 -0.1734  0.2685
  174DOPC  H10R21240   4.279   2.305   3.726  0.2670  0.2092  0.5331
  174DOPC  C21121241   4.443   2.159   3.756 -0.2093  0.0485  0.9446
  174DOPC  H11R21242   4.548   2.192   3.770 -0.2809  0.8228 -0.1904
  174DOPC  H11S21243   4.440   2.061   3.705 -0.2565 -0.3467  1.6867
  174DOPC  C21221244   4.374   2.145   3.889 -0.1707 -0.0000  0.1459
  174DOPC  H12R21245   4.416   2.062   3.950  0.5801 -0.9946 -1.6569
  174DOPC  H12S21246   4.265   2.122   3.896 -0.0736 -2.0251 -2.9691
  174DOPC  C21321247   4.387   2.273   3.979  0.2314  1.1741  0.8224
  174DOPC  H13R21248   4.335   2.357   3.927  0.3002  0.6395 -0.1285
  174DOPC  H13S21249   4.491   2.309   3.992  1.1336 -0.6047 -0.9546
  174DOPC  C21421250   4.318   2.250   4.119 -0.7693 -1.1428  0.1695
  174DOPC  H14R21251   4.366   2.162   4.167 -1.6095 -0.8438  1.6102
  174DOPC  H14S21252   4.211   2.229   4.097 -0.0522 -5.1227 -0.2778
  174DOPC  C21521253   4.333   2.366   4.214  0.7703  0.4931  0.0032
  174DOPC  H15R21254   4.266   2.451   4.186  0.0937  0.9859  2.8212
  174DOPC  H15S21255   4.439   2.398   4.221  1.1626 -0.8983  0.6133
  174DOPC  C21621256   4.300   2.323   4.359  0.0955 -0.4857 -0.3304
  174DOPC  H16R21257   4.379   2.253   4.394  1.1534  0.2010 -1.2660
  174DOPC  H16S21258   4.203   2.269   4.354  0.5972 -1.4415  0.1947
  174DOPC  C21721259   4.291   2.437   4.464 -0.0135  0.3545  1.4743
  174DOPC  H17R21260   4.212   2.504   4.424  1.1435  1.0072  0.2176
  174DOPC  H17S21261   4.385   2.495   4.457 -0.6961  1.3389  0.1289
  174DOPC  C21821262   4.275   2.387   4.605  0.3512 -0.6492  0.1771
  174DOPC  H18R21263   4.366   2.329   4.632  0.6246 -1.0050 -1.4196
  174DOPC  H18S21264   4.186   2.322   4.618  0.3704 -0.7882 -0.3425
  174DOPC  H18T21265   4.268   2.477   4.669  0.5678  0.2985 -1.0906
  174DOPC   C3321266   4.812   3.092   3.196  0.6045 -0.0396  0.5791
  174DOPC   H3X21267   4.898   3.160   3.180 -0.0664  0.5950 -0.4065
  174DOPC   H3Y21268   4.857   2.991   3.180 -2.2389 -1.5968  1.7287
  174DOPC   C3421269   4.740   3.107   3.328 -0.4085  0.6395 -0.9416
  174DOPC   H4X21270   4.657   3.033   3.328 -0.1312 -0.0680  4.7081
  174DOPC   H4Y21271   4.696   3.207   3.346  1.0621  0.8042  2.5656
  174DOPC   C3521272   4.829   3.079   3.447 -0.5409  0.0370  0.0972
  174DOPC   H5X21273   4.906   3.160   3.448 -1.0836  0.5542  1.2991
  174DOPC   H5Y21274   4.884   2.983   3.435 -0.6904  0.0663 -0.9451
  174DOPC   C3621275   4.758   3.083   3.582  0.1385 -0.2232  0.5380
  174DOPC   H6X21276   4.722   3.188   3.594  1.0125  0.3621 -1.4540
  174DOPC   H6Y21277   4.666   3.023   3.568 -1.1065  1.1811  2.2623
  174DOPC   C3721278   4.844   3.041   3.700 -0.2410 -0.0117 -0.1097
  174DOPC   H7X21279   4.883   2.938   3.683 -0.3207 -0.2857  1.2425
  174DOPC   H7Y21280   4.932   3.108   3.704 -0.0063 -0.1606 -1.8011
  174DOPC   C3821281   4.782   3.040   3.840  0.0006  0.0893 -0.3049
  174DOPC   H8X21282   4.851   2.977   3.901 -0.7495  0.4369  0.9364
  174DOPC   H8Y21283   4.680   2.996   3.833 -1.7438  2.7399  4.1337
  174DOPC   C3921284   4.768   3.181   3.901  0.0246  0.1746 -0.5128
  174DOPC   H9X21285   4.727   3.256   3.832 -0.5270  0.2107 -0.1569
  174DOPC  C31021286   4.802   3.218   4.028  0.2864  0.0962  0.3831
  174DOPC  H10X21287   4.799   3.322   4.064 -1.0297 -0.3309  1.5787
  174DOPC  C31121288   4.862   3.129   4.134 -0.2577 -0.0372  0.0533
  174DOPC  H11X21289   4.970   3.146   4.154  0.7911 -5.6996  0.8789
  174DOPC  H11Y21290   4.872   3.021   4.111  1.2930  0.2095 -0.6225
  174DOPC  C31221291   4.769   3.136   4.256  0.1885  0.2441 -0.6028
  174DOPC  H12X21292   4.666   3.125   4.215 -0.2002  2.1847 -0.2284
  174DOPC  H12Y21293   4.774   3.239   4.296 -2.2460  1.3426 -2.8326
  174DOPC  C31321294   4.783   3.028   4.365 -0.5907 -0.8523 -0.0882
  174DOPC  H13X21295   4.776   2.926   4.322 -3.2327 -1.4346  1.4776
  174DOPC  H13Y21296   4.881   3.033   4.417  0.2856 -0.7011 -1.6964
  174DOPC  C31421297   4.664   3.030   4.458  0.2927 -0.0475 -0.0805
  174DOPC  H14X21298   4.639   3.138   4.466 -2.6437 -0.6176 -0.2870
  174DOPC  H14Y21299   4.579   2.986   4.401  2.2646 -0.6309 -2.8110
  174DOPC  C31521300   4.672   2.956   4.593  0.0054  0.0270  0.1629
  174DOPC  H15X21301   4.578   2.967   4.652  0.3167 -0.9591  0.8901
  174DOPC  H15Y21302   4.745   3.010   4.657  0.6135 -2.4677  1.7097
  174DOPC  C31621303   4.707   2.801   4.575 -0.8366 -0.4955 -0.2885
  174DOPC  H16X21304   4.645   2.757   4.495  0.4665 -1.2513 -0.9175
  174DOPC  H16Y21305   4.808   2.796   4.529 -0.1511  2.5378  0.6628
  174DOPC  C31721306   4.704   2.718   4.707  0.2574 -0.0839  0.5771
  174DOPC  H17X21307   4.741   2.615   4.688 -1.1861 -0.7454  1.1870
  174DOPC  H17Y21308   4.776   2.771   4.774 -0.6480  0.3690  1.2132
  174DOPC  C31821309   4.560   2.701   4.753 -0.6691  0.6982  0.0272
  174DOPC  H18X21310   4.497   2.648   4.678 -0.8160 -2.2113  2.0495
  174DOPC  H18Y21311   4.560   2.636   4.843  0.1354 -1.1072 -1.2040
  174DOPC  H18Z21312   4.513   2.797   4.783 -0.3729  0.6047  0.8189
  175DOPC     N21313   3.904   5.211   2.520  0.0420  0.0369  0.1024
  175DOPC   C1221314   3.923   5.114   2.634  0.2506 -0.5918  0.5026
  175DOPC  H12A21315   4.018   5.065   2.620  0.0307 -0.8148 -0.2738
  175DOPC  H12B21316   3.843   5.042   2.638 -0.6285  0.2883 -0.6166
  175DOPC   C1321317   3.765   5.260   2.501 -0.8103  0.3157 -0.3166
  175DOPC  H13A21318   3.745   5.318   2.412 -0.4814 -0.1310 -0.6899
  175DOPC  H13B21319   3.684   5.190   2.515 -0.9463  0.5146 -0.1167
  175DOPC  H13C21320   3.742   5.320   2.587  0.7293  0.5679 -0.0502
  175DOPC   C1421321   3.947   5.131   2.394 -0.7636  0.0244 -0.4692
  175DOPC  H14A21322   3.958   5.194   2.306 -2.1737  1.2503  0.1784
  175DOPC  H14B21323   4.041   5.080   2.406 -0.1713  1.2207  0.1183
  175DOPC  H14C21324   3.873   5.059   2.360  1.9246 -3.9603  1.3522
  175DOPC   C1521325   3.998   5.329   2.531 -0.1550 -0.8054 -0.2469
  175DOPC  H15A21326   3.998   5.398   2.448  1.0705 -0.7279 -0.2001
  175DOPC  H15B21327   4.100   5.302   2.552 -0.7680 -2.4991  0.7863
  175DOPC  H15C21328   3.981   5.390   2.618  3.7797 -0.9164  0.7780
  175DOPC   C1121329   3.918   5.178   2.778 -0.1284 -0.1004  0.4189
  175DOPC  H11A21330   3.915   5.090   2.846  0.7220  0.1135  0.7412
  175DOPC  H11B21331   4.016   5.219   2.809  0.2297 -0.5423 -0.1026
  175DOPC     P21332   3.827   5.412   2.849 -0.1585  0.1427 -0.3004
  175DOPC   O1321333   3.698   5.478   2.813  0.6452  0.6472 -0.3694
  175DOPC   O1421334   3.954   5.476   2.798 -0.6953 -0.9170  0.0467
  175DOPC   O1221335   3.812   5.268   2.797 -0.5976  0.7144 -0.1278
  175DOPC   O1121336   3.838   5.402   3.011  0.0775  0.7768  0.2407
  175DOPC    C121337   3.753   5.312   3.088 -0.0608  0.1577 -0.4583
  175DOPC    HA21338   3.784   5.303   3.195 -1.4861 -1.7156 -0.1451
  175DOPC    HB21339   3.759   5.207   3.053  2.2065  0.0275  0.1242
  175DOPC    C221340   3.599   5.343   3.093 -0.0607 -0.8959  0.3384
  175DOPC    HS21341   3.561   5.334   2.989  0.0888  1.2272  0.0399
  175DOPC   O2121342   3.592   5.484   3.135  0.2959  0.5439 -0.6508
  175DOPC   C2121343   3.483   5.546   3.095  0.1670 -0.2383  0.2983
  175DOPC   O2221344   3.387   5.494   3.052  0.2951  0.0689 -0.0867
  175DOPC   C2221345   3.499   5.697   3.117 -0.2523 -0.0947  0.7330
  175DOPC   H2R21346   3.561   5.737   3.034 -1.0427  0.2490  0.2910
  175DOPC   H2S21347   3.560   5.712   3.208  0.4435  0.9400  0.1149
  175DOPC    C321348   3.518   5.257   3.192 -0.5935  1.0546 -0.4294
  175DOPC    HX21349   3.531   5.153   3.157 -0.2824  1.1740 -0.6749
  175DOPC    HY21350   3.411   5.284   3.180 -0.9568 -0.5794 -1.0226
  175DOPC   O3121351   3.569   5.260   3.331  0.6084 -1.0326 -0.0443
  175DOPC   C3121352   3.487   5.296   3.430 -0.2025 -0.1142 -0.1200
  175DOPC   O3221353   3.375   5.345   3.426 -0.0470 -0.3607  0.5786
  175DOPC   C3221354   3.569   5.283   3.553 -0.0276  0.7947  0.5353
  175DOPC   H2X21355   3.562   5.179   3.592 -2.1333  1.5611  2.4257
  175DOPC   H2Y21356   3.677   5.290   3.528 -0.2204  0.3764 -0.4626
  175DOPC   C2321357   3.369   5.772   3.125 -0.6894 -0.3566  0.3275
  175DOPC   H3R21358   3.295   5.738   3.049 -1.5966  0.4296  0.8312
  175DOPC   H3S21359   3.397   5.879   3.115 -0.5677 -0.3126  1.1117
  175DOPC   C2421360   3.298   5.765   3.261 -0.5785 -0.1344 -0.7774
  175DOPC   H4R21361   3.272   5.662   3.294  0.0977  0.8303  3.3437
  175DOPC   H4S21362   3.207   5.827   3.248 -0.1241  0.3394 -1.8080
  175DOPC   C2521363   3.381   5.828   3.371  0.1465 -0.5765  0.4284
  175DOPC   H5R21364   3.389   5.938   3.357  1.6541 -0.6814  0.2800
  175DOPC   H5S21365   3.483   5.786   3.379  0.5602  0.2371 -0.3934
  175DOPC   C2621366   3.318   5.812   3.514 -0.1001  0.3863  0.2050
  175DOPC   H6R21367   3.208   5.812   3.503  0.0615  0.8861 -1.8812
  175DOPC   H6S21368   3.357   5.896   3.576  1.3773  2.1525 -2.8903
  175DOPC   C2721369   3.361   5.687   3.588  0.2185  0.6373  0.5615
  175DOPC   H7R21370   3.471   5.676   3.581  0.0249 -1.8173  0.5512
  175DOPC   H7S21371   3.314   5.597   3.544  1.1312 -0.3327  1.5216
  175DOPC   C2821372   3.330   5.686   3.737 -0.9449 -0.3153  0.3737
  175DOPC   H8R21373   3.332   5.581   3.772  2.1600 -1.6416 -3.0830
  175DOPC   H8S21374   3.223   5.714   3.746 -0.5922  0.6221  2.0497
  175DOPC   C2921375   3.418   5.784   3.810  0.3398 -0.2839 -0.5013
  175DOPC   H9R21376   3.526   5.768   3.796  0.7058  0.8229  0.8928
  175DOPC  C21021377   3.385   5.891   3.884  0.5680 -0.1940  0.2988
  175DOPC  H10R21378   3.459   5.962   3.922 -1.4640  1.0579  2.1833
  175DOPC  C21121379   3.246   5.934   3.921  0.1584  0.0917  0.1899
  175DOPC  H11R21380   3.161   5.886   3.867 -0.5044  1.2637  0.1632
  175DOPC  H11S21381   3.228   6.043   3.924 -0.1616  0.0132  1.9222
  175DOPC  C21221382   3.234   5.893   4.070  0.4980  0.2417 -0.3598
  175DOPC  H12R21383   3.301   5.953   4.135  2.4536 -0.7828 -1.3294
  175DOPC  H12S21384   3.266   5.788   4.084 -1.2679 -0.0910  1.7388
  175DOPC  C21321385   3.086   5.912   4.109 -0.1172  1.2640  0.6128
  175DOPC  H13R21386   3.025   5.836   4.055  1.0185  0.2577  0.7023
  175DOPC  H13S21387   3.067   6.020   4.090 -0.3873  0.9149 -1.2986
  175DOPC  C21421388   3.057   5.873   4.261 -0.2999  0.4201  0.4224
  175DOPC  H14R21389   3.112   5.946   4.324 -2.0588 -0.0079  2.5499
  175DOPC  H14S21390   3.100   5.771   4.274 -1.1517 -0.1761 -1.1364
  175DOPC  C21521391   2.908   5.878   4.272 -0.1085 -0.1788  0.1898
  175DOPC  H15R21392   2.874   5.800   4.201  1.3255 -1.5369  0.9338
  175DOPC  H15S21393   2.861   5.972   4.236  3.1734  0.8741 -1.7892
  175DOPC  C21621394   2.856   5.831   4.408  0.5775 -0.2741  0.6155
  175DOPC  H16R21395   2.867   5.722   4.429 -1.5046 -1.0627 -1.8549
  175DOPC  H16S21396   2.745   5.841   4.418  0.3181 -0.0658 -1.8323
  175DOPC  C21721397   2.910   5.908   4.530  1.0037  0.2657  0.7542
  175DOPC  H17R21398   2.921   6.017   4.514  0.8208  0.3242  1.0150
  175DOPC  H17S21399   3.016   5.882   4.548  1.0017 -2.0147 -1.8205
  175DOPC  C21821400   2.828   5.883   4.657 -0.0586 -0.7489  0.1552
  175DOPC  H18R21401   2.836   5.779   4.697  0.3088 -0.9710 -0.4820
  175DOPC  H18S21402   2.724   5.908   4.628  0.7134  1.3509 -0.9515
  175DOPC  H18T21403   2.860   5.954   4.736 -0.3338  1.6202 -1.7643
  175DOPC   C3321404   3.537   5.380   3.676 -0.0610  0.2094 -0.1716
  175DOPC   H3X21405   3.428   5.375   3.694 -0.2417 -1.4479 -1.5518
  175DOPC   H3Y21406   3.553   5.484   3.640 -0.0811  0.7810  1.3987
  175DOPC   C3421407   3.621   5.334   3.797  0.1855 -0.0258 -0.6256
  175DOPC   H4X21408   3.731   5.335   3.779  0.0383  0.9586 -1.5130
  175DOPC   H4Y21409   3.593   5.231   3.831  0.9434  1.0367  4.0089
  175DOPC   C3521410   3.596   5.435   3.918 -0.1464 -0.4799  0.0948
  175DOPC   H5X21411   3.489   5.465   3.906 -0.7561 -3.3301 -3.5429
  175DOPC   H5Y21412   3.652   5.530   3.904  0.0144 -0.1886  2.3886
  175DOPC   C3621413   3.622   5.372   4.050 -0.0342  0.2722  0.4089
  175DOPC   H6X21414   3.559   5.282   4.065  0.4053  0.2058  2.0842
  175DOPC   H6Y21415   3.719   5.319   4.034 -0.5720 -0.3206 -1.0886
  175DOPC   C3721416   3.634   5.453   4.180  0.8418 -0.6419  0.2461
  175DOPC   H7X21417   3.610   5.383   4.263 -0.4967 -0.8633 -0.3183
  175DOPC   H7Y21418   3.736   5.495   4.196 -0.6175  2.8584  1.5379
  175DOPC   C3821419   3.530   5.568   4.182 -0.0019 -0.0851  0.0970
  175DOPC   H8X21420   3.542   5.632   4.093  0.2799 -1.7380 -1.0975
  175DOPC   H8Y21421   3.539   5.627   4.276 -0.8551  0.5576 -0.2099
  175DOPC   C3921422   3.386   5.525   4.183 -0.0713  0.3459  0.8344
  175DOPC   H9X21423   3.358   5.459   4.100  1.9988 -0.2426  0.5565
  175DOPC  C31021424   3.297   5.540   4.282  1.0802 -0.0504 -0.6468
  175DOPC  H10X21425   3.191   5.520   4.262 -0.1008  3.8306  0.8202
  175DOPC  C31121426   3.325   5.602   4.412 -0.1102  0.4171 -0.5937
  175DOPC  H11X21427   3.301   5.710   4.399  1.1915  0.6227 -1.3858
  175DOPC  H11Y21428   3.429   5.601   4.451  0.4483 -0.5481 -2.0438
  175DOPC  C31221429   3.231   5.545   4.527  0.7273  0.5465  0.1867
  175DOPC  H12X21430   3.239   5.436   4.548 -0.5291  0.4972  0.4697
  175DOPC  H12Y21431   3.127   5.559   4.492  0.0536 -1.6053  1.1324
  175DOPC  C31321432   3.256   5.621   4.663  0.0881  0.1372  0.5782
  175DOPC  H13X21433   3.362   5.605   4.692  1.2316  3.4179 -1.2100
  175DOPC  H13Y21434   3.247   5.726   4.627  0.5297 -0.3774 -1.1273
  175DOPC  C31421435   3.147   5.604   4.770 -0.3044  0.1419  0.5633
  175DOPC  H14X21436   3.048   5.641   4.737  0.3407  1.7325  0.3239
  175DOPC  H14Y21437   3.122   5.496   4.759 -0.5662  0.2832 -0.2593
  175DOPC  C31521438   3.177   5.635   4.922 -0.3444  0.1572 -0.5755
  175DOPC  H15X21439   3.193   5.744   4.937 -0.9040 -0.0098  1.6557
  175DOPC  H15Y21440   3.271   5.591   4.962 -1.2475 -1.1137  0.2458
  175DOPC  C31621441   3.066   5.584   5.016  0.1897  0.6330  0.1355
  175DOPC  H16X21442   2.975   5.640   4.983 -0.8338 -0.3030  1.2807
  175DOPC  H16Y21443   3.035   5.478   5.005  1.4795  0.3552 -1.1340
  175DOPC  C31721444   3.115   5.624   5.158  0.3378 -0.1255 -0.3436
  175DOPC  H17X21445   3.219   5.586   5.159  0.7729  0.7671  3.2383
  175DOPC  H17Y21446   3.114   5.735   5.159 -2.9742 -0.0290 -1.1833
  175DOPC  C31821447   3.028   5.593   5.273 -0.4974 -0.1318  0.3372
  175DOPC  H18X21448   2.921   5.615   5.252 -0.3188 -0.2745 -0.8121
  175DOPC  H18Y21449   3.043   5.486   5.297  2.7569  0.5974  2.1055
  175DOPC  H18Z21450   3.063   5.654   5.359 -2.2431  3.0047 -1.0118
  176DOPC     N21451   2.545   1.857   2.752  0.3557  0.0754 -0.4669
  176DOPC   C1221452   2.671   1.935   2.805  0.3430  0.1224 -0.2348
  176DOPC  H12A21453   2.640   2.028   2.851  0.8662 -0.0387  0.4602
  176DOPC  H12B21454   2.736   1.963   2.723 -0.4678  0.4518 -0.7770
  176DOPC   C1321455   2.476   1.795   2.865 -0.3695 -0.3212  0.5734
  176DOPC  H13A21456   2.393   1.735   2.828 -2.8452  1.1094  3.3806
  176DOPC  H13B21457   2.557   1.732   2.895 -0.8141 -1.2930 -0.2077
  176DOPC  H13C21458   2.441   1.861   2.943 -1.4287 -0.1255 -0.0483
  176DOPC   C1421459   2.601   1.756   2.653  0.0102  0.3713  0.1532
  176DOPC  H14A21460   2.528   1.710   2.588  0.0235  0.4105  0.1100
  176DOPC  H14B21461   2.660   1.810   2.581 -1.1805 -0.8782 -1.8718
  176DOPC  H14C21462   2.658   1.679   2.702  1.8751  1.8584  0.4153
  176DOPC   C1521463   2.449   1.955   2.679  0.0748  0.3589 -0.3180
  176DOPC  H15A21464   2.507   2.025   2.619 -0.8436  0.4394 -1.1431
  176DOPC  H15B21465   2.384   2.009   2.746  2.1387  1.8428  0.6121
  176DOPC  H15C21466   2.390   1.897   2.609 -2.6127  1.5921  0.7714
  176DOPC   C1121467   2.764   1.860   2.914 -0.1355  0.7967 -0.0920
  176DOPC  H11A21468   2.829   1.941   2.951  1.5814  0.2677 -1.7813
  176DOPC  H11B21469   2.715   1.833   3.009 -2.0444  3.8650 -0.0557
  176DOPC     P21470   2.939   1.677   2.935  0.3677  0.1100 -0.3679
  176DOPC   O1321471   3.041   1.769   2.981  0.0077  0.5325 -0.4469
  176DOPC   O1421472   2.979   1.561   2.853  0.3261 -0.1073  0.0672
  176DOPC   O1221473   2.847   1.761   2.852  0.6754  0.5018 -0.0707
  176DOPC   O1121474   2.850   1.625   3.055 -0.1303  0.4613  0.3338
  176DOPC    C121475   2.908   1.605   3.183  0.0260 -0.2846 -0.2560
  176DOPC    HA21476   2.983   1.683   3.211  0.6500 -1.6470  2.1223
  176DOPC    HB21477   2.943   1.501   3.200  0.0051  0.0458  2.2063
  176DOPC    C221478   2.797   1.633   3.286 -0.4810 -0.1242 -0.6148
  176DOPC    HS21479   2.709   1.573   3.255 -0.0705  0.3111 -2.7955
  176DOPC   O2121480   2.776   1.774   3.278  0.0570 -0.5734  0.4266
  176DOPC   C2121481   2.668   1.824   3.334  0.2361 -0.3501  0.0951
  176DOPC   O2221482   2.577   1.763   3.388  0.2717  0.3886  0.0124
  176DOPC   C2221483   2.667   1.975   3.298 -0.1128  0.2045  1.1790
  176DOPC   H2R21484   2.662   1.974   3.187  2.8338  0.4048  0.9580
  176DOPC   H2S21485   2.758   2.033   3.327  0.6180 -0.6603  0.6682
  176DOPC    C321486   2.841   1.584   3.433  0.2121 -0.2683  0.3346
  176DOPC    HX21487   2.847   1.473   3.429  1.0088 -0.2606  0.9322
  176DOPC    HY21488   2.756   1.623   3.493  1.0939  0.8257  0.9232
  176DOPC   O3121489   2.973   1.636   3.474  0.1105  0.2944  0.0886
  176DOPC   C3121490   2.972   1.759   3.526 -0.3614 -0.0078 -0.8825
  176DOPC   O3221491   2.878   1.823   3.573 -0.4552  0.0287  0.0165
  176DOPC   C3221492   3.111   1.821   3.513 -0.2359  0.0254  0.6009
  176DOPC   H2X21493   3.137   1.807   3.406 -1.9796  0.8440  0.0424
  176DOPC   H2Y21494   3.077   1.926   3.526 -0.6455 -0.3431  3.0472
  176DOPC   C2321495   2.546   2.048   3.359  1.0838 -0.6691 -0.1149
  176DOPC   H3R21496   2.452   2.006   3.315  0.4220 -0.2804  0.8852
  176DOPC   H3S21497   2.561   2.155   3.333  2.0315 -0.4200  1.3929
  176DOPC   C2421498   2.536   2.043   3.515 -0.2443 -0.1940  0.2563
  176DOPC   H4R21499   2.636   2.061   3.559  0.6050 -1.8221 -0.8950
  176DOPC   H4S21500   2.499   1.942   3.544  1.1016 -0.2756  1.7948
  176DOPC   C2521501   2.437   2.147   3.579 -0.4119 -0.1040 -0.2120
  176DOPC   H5R21502   2.330   2.130   3.558 -0.2853 -1.6287  0.2986
  176DOPC   H5S21503   2.457   2.242   3.525 -3.1890  1.9878  2.1309
  176DOPC   C2621504   2.459   2.165   3.731 -0.1454  0.5550  0.0356
  176DOPC   H6R21505   2.440   2.272   3.753  2.5113  1.2920 -0.8944
  176DOPC   H6S21506   2.564   2.143   3.758 -0.1026  0.8331  0.0978
  176DOPC   C2721507   2.377   2.066   3.811  0.4006  0.1304 -0.0316
  176DOPC   H7R21508   2.413   1.970   3.769 -1.1989 -0.3890 -0.2754
  176DOPC   H7S21509   2.268   2.082   3.794 -0.3022 -2.5497  1.2987
  176DOPC   C2821510   2.394   2.067   3.969  0.9444 -0.0476 -0.6402
  176DOPC   H8R21511   2.362   2.168   4.003  0.3271 -0.0041 -1.3204
  176DOPC   H8S21512   2.501   2.052   3.994  1.1080 -0.9846 -1.8042
  176DOPC   C2921513   2.302   1.962   4.025 -0.2641  0.1938 -0.1629
  176DOPC   H9R21514   2.204   1.957   3.976 -1.1837 -0.3482  1.6181
  176DOPC  C21021515   2.331   1.883   4.132  0.0582  0.5568  0.4139
  176DOPC  H10R21516   2.253   1.812   4.164 -0.9785  1.5873  0.2303
  176DOPC  C21121517   2.457   1.872   4.219  0.4009 -0.1774  0.5361
  176DOPC  H11R21518   2.548   1.930   4.191  1.1005 -0.0738  2.7900
  176DOPC  H11S21519   2.493   1.767   4.218 -0.1080 -0.3524  0.4249
  176DOPC  C21221520   2.423   1.914   4.366  0.3483 -0.2246 -0.1588
  176DOPC  H12R21521   2.363   1.831   4.411 -0.1383 -0.5406 -1.3522
  176DOPC  H12S21522   2.360   2.005   4.363 -3.0438 -2.2562  1.9523
  176DOPC  C21321523   2.540   1.951   4.462  0.4646 -0.3873 -0.1667
  176DOPC  H13R21524   2.608   2.029   4.421 -0.0132 -1.2985 -2.8936
  176DOPC  H13S21525   2.611   1.866   4.473  0.7865  0.1540  2.5093
  176DOPC  C21421526   2.487   2.011   4.590  0.1769 -0.4435  0.3516
  176DOPC  H14R21527   2.414   1.936   4.630 -0.2989 -0.4600 -0.5372
  176DOPC  H14S21528   2.419   2.094   4.562  0.4687  0.5328  2.3405
  176DOPC  C21521529   2.589   2.054   4.698  0.0722  0.3836 -0.0683
  176DOPC  H15R21530   2.662   2.122   4.649 -2.7358  2.2135 -1.9913
  176DOPC  H15S21531   2.645   1.965   4.735  0.8284  0.9428  0.1593
  176DOPC  C21621532   2.519   2.125   4.809 -0.3459  0.3771  0.5350
  176DOPC  H16R21533   2.451   2.197   4.760  0.9532 -0.3319 -2.4899
  176DOPC  H16S21534   2.599   2.171   4.870  0.5103 -1.5532  0.9370
  176DOPC  C21721535   2.453   2.029   4.907 -0.0353  0.4617 -0.0471
  176DOPC  H17R21536   2.526   1.969   4.966 -0.1590  0.9007  0.5605
  176DOPC  H17S21537   2.413   1.961   4.830  1.3789  0.0775 -0.4813
  176DOPC  C21821538   2.338   2.077   4.996  0.3352  0.2322 -0.1293
  176DOPC  H18R21539   2.366   2.145   5.079 -0.4086 -1.6764  1.7912
  176DOPC  H18S21540   2.291   1.987   5.040 -1.1676  1.4042  0.7402
  176DOPC  H18T21541   2.261   2.110   4.925 -0.3557 -1.1457 -0.0519
  176DOPC   C3321542   3.217   1.781   3.616  0.3671 -0.2962  0.7738
  176DOPC   H3X21543   3.241   1.675   3.589 -0.3881 -0.2203 -0.2869
  176DOPC   H3Y21544   3.181   1.789   3.720 -1.0729  1.8509  0.1776
  176DOPC   C3421545   3.344   1.861   3.588 -0.0082  0.2390 -0.5079
  176DOPC   H4X21546   3.322   1.966   3.560  1.7997  0.6243 -0.5984
  176DOPC   H4Y21547   3.394   1.815   3.500  1.1497  1.7354 -0.6774
  176DOPC   C3521548   3.428   1.857   3.712 -0.7251 -0.6989 -0.0624
  176DOPC   H5X21549   3.517   1.909   3.671  0.7549 -1.9596  1.4260
  176DOPC   H5Y21550   3.447   1.750   3.736 -0.7982 -1.0038 -1.2719
  176DOPC   C3621551   3.364   1.942   3.821  0.1471  0.2272  0.0864
  176DOPC   H6X21552   3.316   2.029   3.771 -0.1186  0.3718  0.5903
  176DOPC   H6Y21553   3.283   1.890   3.877  0.5055  1.1065  1.4909
  176DOPC   C3721554   3.455   2.017   3.917  0.1561 -0.3758  0.5487
  176DOPC   H7X21555   3.520   1.940   3.965  2.1664  0.8512 -0.0619
  176DOPC   H7Y21556   3.525   2.075   3.854  1.1335  0.7324  2.5675
  176DOPC   C3821557   3.377   2.116   4.013  0.0608  0.6761  0.4560
  176DOPC   H8X21558   3.281   2.069   4.044 -0.5945  1.4167 -0.3940
  176DOPC   H8Y21559   3.345   2.205   3.953 -1.3256 -0.6479 -0.8677
  176DOPC   C3921560   3.470   2.157   4.128 -0.3775  0.5450 -0.3091
  176DOPC   H9X21561   3.529   2.248   4.104  1.9943 -1.5500 -3.2652
  176DOPC  C31021562   3.479   2.100   4.252  0.0511 -0.2279 -0.8080
  176DOPC  H10X21563   3.541   2.147   4.329 -0.8940 -2.8179  1.7071
  176DOPC  C31121564   3.386   1.989   4.297  0.2899  0.1004 -0.1668
  176DOPC  H11X21565   3.424   1.889   4.269 -0.5510 -0.7028  1.3752
  176DOPC  H11Y21566   3.288   1.996   4.244 -0.5238  0.4527  1.3310
  176DOPC  C31221567   3.368   1.987   4.451  0.4734 -0.2257 -0.3452
  176DOPC  H12X21568   3.302   1.898   4.463  1.1552 -0.8274 -0.9379
  176DOPC  H12Y21569   3.310   2.074   4.488  0.8465 -0.2739  0.3767
  176DOPC  C31321570   3.492   1.964   4.536 -0.0472  0.0318  0.0734
  176DOPC  H13X21571   3.571   1.903   4.488  0.4754  1.7556 -1.3600
  176DOPC  H13Y21572   3.542   2.063   4.542  1.0368 -0.4742 -0.2430
  176DOPC  C31421573   3.449   1.923   4.680 -0.7952  0.1220 -0.1208
  176DOPC  H14X21574   3.375   2.002   4.706  2.6954  3.5439  0.4373
  176DOPC  H14Y21575   3.398   1.824   4.686  0.0329 -0.3024  0.0219
  176DOPC  C31521576   3.576   1.935   4.771 -0.1742  0.0796 -0.6076
  176DOPC  H15X21577   3.603   2.042   4.779 -1.9019  0.4333  1.2760
  176DOPC  H15Y21578   3.661   1.883   4.722 -0.7324  0.8196 -2.4307
  176DOPC  C31621579   3.563   1.883   4.912 -0.1904 -0.0215  0.1539
  176DOPC  H16X21580   3.477   1.936   4.958  0.1840  0.3929  0.3856
  176DOPC  H16Y21581   3.550   1.773   4.910  0.4306 -0.0953 -0.0783
  176DOPC  C31721582   3.691   1.903   5.003 -1.1612 -0.0935 -0.0076
  176DOPC  H17X21583   3.784   1.856   4.964 -0.9157 -0.9976  1.5967
  176DOPC  H17Y21584   3.725   2.008   4.998  1.2706 -0.8746 -2.7644
  176DOPC  C31821585   3.674   1.879   5.155 -0.0698 -0.9971  0.5087
  176DOPC  H18X21586   3.646   1.775   5.184 -0.7490 -0.3596  2.2470
  176DOPC  H18Y21587   3.760   1.915   5.216 -0.5983  2.4722 -0.5665
  176DOPC  H18Z21588   3.587   1.937   5.192  0.0795 -1.4789  1.6479
  177DOPC     N21589   5.671   6.233   2.226 -0.7749  0.2973  0.1503
  177DOPC   C1221590   5.805   6.228   2.303  0.4846  0.3964  0.0242
  177DOPC  H12A21591   5.831   6.331   2.323 -0.6578  0.5872  0.5665
  177DOPC  H12B21592   5.879   6.186   2.235  1.1490  0.3147  0.7924
  177DOPC   C1321593   5.631   6.100   2.190  0.6465 -0.0645  0.0146
  177DOPC  H13A21594   5.717   6.047   2.153 -1.7552 -2.7882 -2.1622
  177DOPC  H13B21595   5.615   6.045   2.282  0.8042  0.9755  0.6816
  177DOPC  H13C21596   5.543   6.092   2.128 -0.6196  0.7614  1.6234
  177DOPC   C1421597   5.686   6.313   2.103  0.9655 -0.0058  0.7569
  177DOPC  H14A21598   5.778   6.300   2.049  0.3818  1.1822 -0.5938
  177DOPC  H14B21599   5.611   6.294   2.028  2.1506 -0.9281 -0.2227
  177DOPC  H14C21600   5.660   6.416   2.125 -0.8735 -0.3686  0.4119
  177DOPC   C1521601   5.556   6.285   2.310  0.6798  0.3046 -0.4783
  177DOPC  H15A21602   5.558   6.391   2.332 -1.5135  0.1138  1.0424
  177DOPC  H15B21603   5.562   6.220   2.396 -0.2101 -0.4991 -1.0028
  177DOPC  H15C21604   5.466   6.260   2.256  0.2282  1.9470 -0.5469
  177DOPC   C1121605   5.817   6.150   2.438  0.3334  0.0794 -0.6506
  177DOPC  H11A21606   5.918   6.174   2.479  0.4251 -0.7323 -0.3746
  177DOPC  H11B21607   5.740   6.186   2.509  1.5930 -1.9958  1.9670
  177DOPC     P21608   5.796   5.909   2.532 -0.3319 -0.2615  0.0681
  177DOPC   O1321609   5.879   5.795   2.488 -0.3193  0.0203  0.2331
  177DOPC   O1421610   5.660   5.874   2.568  0.4640  0.6631  0.6964
  177DOPC   O1221611   5.793   6.012   2.418  0.3889  0.0990 -0.2442
  177DOPC   O1121612   5.865   5.987   2.657 -0.7348 -0.0924 -0.3962
  177DOPC    C121613   5.901   5.894   2.765  0.6441 -0.1741  0.4083
  177DOPC    HA21614   5.968   5.947   2.836  0.5385  1.1262 -0.4178
  177DOPC    HB21615   5.951   5.800   2.734 -0.4444 -1.2902  1.9256
  177DOPC    C221616   5.782   5.855   2.853 -0.1121 -0.4557 -0.4728
  177DOPC    HS21617   5.700   5.819   2.787  2.0769 -1.9853 -2.4865
  177DOPC   O2121618   5.744   5.973   2.926 -0.1209 -0.2670 -0.0956
  177DOPC   C2121619   5.613   5.979   2.950 -0.3568 -0.4837 -0.2849
  177DOPC   O2221620   5.528   5.896   2.913 -0.8639 -0.1912  0.4446
  177DOPC   C2221621   5.581   6.110   3.037  0.3652  0.5739  0.0068
  177DOPC   H2R21622   5.601   6.198   2.973 -1.4302  2.8929  2.4118
  177DOPC   H2S21623   5.653   6.109   3.122  0.5286 -3.1800 -0.0045
  177DOPC    C321624   5.825   5.741   2.955  0.3027 -0.8323 -0.7718
  177DOPC    HX21625   5.916   5.778   3.007  0.1315 -1.8268  0.2850
  177DOPC    HY21626   5.855   5.653   2.893 -0.6903 -0.3629 -1.9557
  177DOPC   O3121627   5.731   5.714   3.069 -0.1982 -0.4542  0.6430
  177DOPC   C3121628   5.641   5.622   3.033  0.0346 -0.2602 -0.2814
  177DOPC   O3221629   5.633   5.559   2.928  0.2051  0.2239  0.3709
  177DOPC   C3221630   5.523   5.616   3.129  0.1066 -0.5449 -0.2314
  177DOPC   H2X21631   5.546   5.687   3.211  0.6899 -4.2670  3.1528
  177DOPC   H2Y21632   5.422   5.631   3.085 -0.0583 -2.8253 -0.7857
  177DOPC   C2321633   5.439   6.113   3.091 -0.4436 -0.5770 -0.1052
  177DOPC   H3R21634   5.359   6.101   3.014 -0.6295 -0.8944  0.1354
  177DOPC   H3S21635   5.423   6.215   3.133  0.1563 -1.1913  1.7272
  177DOPC   C2421636   5.414   6.022   3.209  0.4320 -0.0107  0.6132
  177DOPC   H4R21637   5.445   5.919   3.181 -1.0739 -0.1883 -0.5054
  177DOPC   H4S21638   5.305   6.010   3.225 -0.3095  1.2960 -2.5623
  177DOPC   C2521639   5.487   6.069   3.339 -0.3145 -0.0086  0.2219
  177DOPC   H5R21640   5.460   6.174   3.365 -1.1991 -0.5020  1.3526
  177DOPC   H5S21641   5.596   6.074   3.318 -0.3225 -0.6885  0.0205
  177DOPC   C2621642   5.467   5.972   3.458 -0.6188  0.1951 -0.6108
  177DOPC   H6R21643   5.443   5.871   3.418 -2.3967 -0.8944  2.8000
  177DOPC   H6S21644   5.382   6.015   3.515 -0.0287  2.4843 -1.3373
  177DOPC   C2721645   5.576   5.974   3.559 -0.7872 -0.4777 -0.8400
  177DOPC   H7R21646   5.588   6.074   3.606  1.5510 -0.5174 -1.2469
  177DOPC   H7S21647   5.672   5.952   3.508  0.2039 -0.2097  0.8255
  177DOPC   C2821648   5.558   5.879   3.675  0.2457  0.5081  0.2744
  177DOPC   H8R21649   5.465   5.889   3.735  0.9691 -0.4836  1.6117
  177DOPC   H8S21650   5.633   5.899   3.754  0.9586  0.2061 -0.3141
  177DOPC   C2921651   5.582   5.734   3.628 -0.3684 -0.0212 -0.4561
  177DOPC   H9R21652   5.519   5.702   3.544  0.5455 -2.1592 -0.3938
  177DOPC  C21021653   5.656   5.642   3.693 -0.6249  1.2348  0.5274
  177DOPC  H10R21654   5.656   5.539   3.653  0.3333  0.5192  2.2462
  177DOPC  C21121655   5.732   5.648   3.822  0.3968 -0.0105  0.2486
  177DOPC  H11R21656   5.822   5.711   3.807 -1.2884  2.5098  0.2380
  177DOPC  H11S21657   5.756   5.542   3.848 -1.0805 -0.2190  0.8495
  177DOPC  C21221658   5.655   5.706   3.943 -0.2342 -0.0346 -0.5251
  177DOPC  H12R21659   5.562   5.648   3.962  0.6089 -1.7902 -1.5414
  177DOPC  H12S21660   5.632   5.815   3.944 -1.0200 -0.1749  1.2489
  177DOPC  C21321661   5.736   5.680   4.069 -0.3477 -0.4945  0.1296
  177DOPC  H13R21662   5.834   5.732   4.064 -0.3987  0.1984  3.8452
  177DOPC  H13S21663   5.759   5.571   4.071  0.6497 -0.2825  1.2619
  177DOPC  C21421664   5.676   5.736   4.208  0.7827  0.1744  0.7135
  177DOPC  H14R21665   5.584   5.682   4.241 -0.2404  1.1541 -0.4286
  177DOPC  H14S21666   5.649   5.843   4.196 -0.6028 -0.2579 -0.3685
  177DOPC  C21521667   5.781   5.721   4.317 -0.0025 -0.3097  0.2974
  177DOPC  H15R21668   5.877   5.751   4.271 -0.7662  2.5247  0.3898
  177DOPC  H15S21669   5.790   5.615   4.352  0.8804 -0.0385  0.9311
  177DOPC  C21621670   5.764   5.818   4.440  0.2121 -0.4728 -0.1540
  177DOPC  H16R21671   5.669   5.792   4.493  0.5757 -0.3329  0.5884
  177DOPC  H16S21672   5.738   5.918   4.399  0.9309 -0.5193 -0.7277
  177DOPC  C21721673   5.873   5.835   4.547  0.5294 -0.8566  0.2271
  177DOPC  H17R21674   5.832   5.895   4.631 -1.1395 -1.2046 -0.2971
  177DOPC  H17S21675   5.952   5.905   4.512  0.4558 -0.7748  0.2272
  177DOPC  C21821676   5.920   5.706   4.598  0.4164 -0.1381 -0.6730
  177DOPC  H18R21677   5.840   5.645   4.644  0.8898 -0.3942 -0.1863
  177DOPC  H18S21678   6.001   5.727   4.671 -1.0382 -1.4687  1.4223
  177DOPC  H18T21679   5.962   5.656   4.508 -0.6309 -0.4404 -1.0057
  177DOPC   C3321680   5.506   5.479   3.198 -0.4266  0.2545 -0.7199
  177DOPC   H3X21681   5.504   5.405   3.115 -0.4428 -0.3162 -0.2209
  177DOPC   H3Y21682   5.408   5.487   3.249  0.9581  1.5313  1.9848
  177DOPC   C3421683   5.613   5.441   3.296 -0.1449 -0.5243  0.1870
  177DOPC   H4X21684   5.557   5.364   3.354 -3.8349  0.9528 -1.1317
  177DOPC   H4Y21685   5.633   5.520   3.372 -0.1813 -0.2098 -0.1289
  177DOPC   C3521686   5.731   5.381   3.237 -0.3764  0.1678 -0.3275
  177DOPC   H5X21687   5.802   5.457   3.198 -1.9251  0.7753 -2.1303
  177DOPC   H5Y21688   5.697   5.328   3.145  2.6048  0.3258 -1.6250
  177DOPC   C3621689   5.788   5.268   3.327 -0.1525  0.4707  0.5697
  177DOPC   H6X21690   5.810   5.320   3.422 -0.5539  1.7396 -0.0104
  177DOPC   H6Y21691   5.710   5.195   3.357  0.5958 -2.3385 -3.4188
  177DOPC   C3721692   5.916   5.200   3.264 -0.1272  0.4812 -0.2912
  177DOPC   H7X21693   5.877   5.114   3.206 -1.4263  0.0675  1.1131
  177DOPC   H7Y21694   5.951   5.275   3.190 -1.5184  2.4454  0.9214
  177DOPC   C3821695   6.021   5.146   3.375 -0.3343  0.5574  1.0240
  177DOPC   H8X21696   6.051   5.239   3.429 -1.2467  1.3944  0.1519
  177DOPC   H8Y21697   6.108   5.116   3.315 -0.2966  0.6743  1.0185
  177DOPC   C3921698   5.975   5.035   3.465  0.3447  0.3341  0.1865
  177DOPC   H9X21699   5.998   4.933   3.431 -1.3631  0.3695 -1.1759
  177DOPC  C31021700   5.928   5.056   3.589 -0.5885 -0.5481 -0.5438
  177DOPC  H10X21701   5.874   4.979   3.645 -0.8442  0.1299  0.1712
  177DOPC  C31121702   5.916   5.188   3.665 -0.1943  0.2695 -0.3479
  177DOPC  H11X21703   5.811   5.215   3.686 -0.1911 -0.9663  1.4941
  177DOPC  H11Y21704   5.953   5.268   3.597  2.5055 -0.1072  0.5552
  177DOPC  C31221705   5.999   5.206   3.798 -0.0181 -0.1282 -0.4545
  177DOPC  H12X21706   6.106   5.193   3.772 -0.2527  1.9925 -3.0054
  177DOPC  H12Y21707   5.975   5.140   3.883  0.4214 -1.2922 -1.2153
  177DOPC  C31321708   5.987   5.356   3.850 -0.5234 -0.5601 -0.6498
  177DOPC  H13X21709   6.022   5.427   3.773 -0.3930  1.4813  1.2038
  177DOPC  H13Y21710   5.883   5.370   3.888 -0.1376 -0.1341  0.2882
  177DOPC  C31421711   6.082   5.383   3.971 -0.0688 -0.1022  0.0592
  177DOPC  H14X21712   6.036   5.333   4.058 -1.4019 -0.5825 -0.8863
  177DOPC  H14Y21713   6.179   5.333   3.948 -1.5316 -2.5019 -1.2098
  177DOPC  C31521714   6.103   5.537   3.988  0.8881 -0.2227  0.3580
  177DOPC  H15X21715   6.007   5.592   3.997  1.8960  1.7509 -0.3808
  177DOPC  H15Y21716   6.166   5.577   3.905 -0.3218  1.0151 -0.0093
  177DOPC  C31621717   6.161   5.575   4.123 -0.6773  0.7344  0.4543
  177DOPC  H16X21718   6.083   5.539   4.194 -2.7045 -0.2768 -2.0959
  177DOPC  H16Y21719   6.243   5.501   4.132  0.3656  1.9896  1.4943
  177DOPC  C31721720   6.212   5.715   4.165 -0.1860 -0.4865  0.8175
  177DOPC  H17X21721   6.298   5.737   4.097 -0.1813 -1.8241  0.3634
  177DOPC  H17Y21722   6.143   5.794   4.128  3.4368  2.1455 -0.9476
  177DOPC  C31821723   6.241   5.739   4.312  0.1519  0.0987 -0.6875
  177DOPC  H18X21724   6.144   5.733   4.365 -0.8727  0.5722 -2.4088
  177DOPC  H18Y21725   6.326   5.683   4.356 -0.7756 -0.7893  0.0183
  177DOPC  H18Z21726   6.263   5.848   4.322 -0.1920  0.1743 -0.7288
  178DOPC     N21727   1.758   5.316   2.706  0.2699  0.0564 -0.1925
  178DOPC   C1221728   1.888   5.388   2.714  0.3258 -0.2939  0.2448
  178DOPC  H12A21729   1.928   5.372   2.813  1.0301 -1.3454 -0.1875
  178DOPC  H12B21730   1.879   5.493   2.691  0.7500 -1.2820 -6.4705
  178DOPC   C1321731   1.653   5.375   2.797 -0.0710  0.9169  0.5141
  178DOPC  H13A21732   1.682   5.369   2.901  0.2809 -0.5445  0.3565
  178DOPC  H13B21733   1.632   5.478   2.773 -0.9744  0.6247 -0.0005
  178DOPC  H13C21734   1.561   5.317   2.794  0.4673  0.0720 -0.9278
  178DOPC   C1421735   1.783   5.169   2.740 -0.4803  0.5297 -0.4859
  178DOPC  H14A21736   1.692   5.112   2.737 -0.3713 -0.0067  2.6581
  178DOPC  H14B21737   1.848   5.123   2.667 -1.3056 -1.2497 -0.1340
  178DOPC  H14C21738   1.833   5.163   2.836  2.3117  0.2054 -1.8721
  178DOPC   C1521739   1.712   5.313   2.564 -0.1072  0.4188 -0.0845
  178DOPC  H15A21740   1.619   5.258   2.558 -0.3722  0.8924 -0.3841
  178DOPC  H15B21741   1.790   5.265   2.506 -0.2058  1.0939 -0.8016
  178DOPC  H15C21742   1.691   5.413   2.530  0.8056  1.6897  2.7681
  178DOPC   C1121743   1.998   5.357   2.606  0.1131  0.2425  0.2335
  178DOPC  H11A21744   2.097   5.377   2.653 -0.3854  1.4893  0.7988
  178DOPC  H11B21745   2.012   5.248   2.590 -1.6480  0.2493 -1.8304
  178DOPC     P21746   2.066   5.548   2.456 -0.3633 -0.2600  0.1565
  178DOPC   O1321747   1.999   5.630   2.353  0.3036  0.5085  0.3661
  178DOPC   O1421748   2.195   5.492   2.418  0.8242  0.1394  0.2264
  178DOPC   O1221749   1.980   5.427   2.486  0.4261  0.2609 -0.3816
  178DOPC   O1121750   2.078   5.621   2.598 -0.2301 -0.2513 -0.3309
  178DOPC    C121751   2.190   5.696   2.631 -0.0828  0.3502 -0.3069
  178DOPC    HA21752   2.169   5.784   2.695  1.9500  2.1859 -2.0007
  178DOPC    HB21753   2.236   5.746   2.543  0.1394  2.2353  0.8076
  178DOPC    C221754   2.298   5.613   2.707  0.1765 -0.0257  0.3509
  178DOPC    HS21755   2.300   5.521   2.645  0.8209  1.9537 -2.7989
  178DOPC   O2121756   2.250   5.582   2.843  0.3621  0.3614  0.1340
  178DOPC   C2121757   2.321   5.489   2.906 -0.1178 -0.1629 -0.0411
  178DOPC   O2221758   2.407   5.421   2.856  0.0398 -0.5983 -0.0207
  178DOPC   C2221759   2.293   5.491   3.048 -0.1704  0.4156 -0.5652
  178DOPC   H2R21760   2.189   5.464   3.077  0.5604 -0.4307  1.4215
  178DOPC   H2S21761   2.324   5.590   3.088  1.9215  0.0381 -1.1351
  178DOPC    C321762   2.435   5.686   2.717  0.0337 -0.5417 -0.2052
  178DOPC    HX21763   2.462   5.716   2.613 -1.2887  1.4058 -0.0347
  178DOPC    HY21764   2.504   5.613   2.765  0.2507 -0.5796 -0.5671
  178DOPC   O3121765   2.428   5.810   2.793  0.6173  0.3155  0.1093
  178DOPC   C3121766   2.517   5.826   2.893 -0.4419 -0.0553  0.1719
  178DOPC   O3221767   2.606   5.742   2.927  0.0873  0.8111  0.4279
  178DOPC   C3221768   2.482   5.959   2.954 -0.5072 -1.0703 -0.1087
  178DOPC   H2X21769   2.491   6.029   2.869 -0.6186 -0.7036  0.1813
  178DOPC   H2Y21770   2.373   5.959   2.979 -0.3540  2.2123  0.9374
  178DOPC   C2321771   2.365   5.374   3.117 -0.2221 -0.3306 -0.0205
  178DOPC   H3R21772   2.428   5.308   3.053  1.2185 -0.8880  1.8714
  178DOPC   H3S21773   2.289   5.308   3.164 -0.1362  0.4583  1.2870
  178DOPC   C2421774   2.456   5.422   3.231  0.6554  0.0392 -0.7697
  178DOPC   H4R21775   2.516   5.507   3.195  1.0392 -0.1840 -0.6614
  178DOPC   H4S21776   2.536   5.347   3.250 -0.2348 -0.5539  0.9455
  178DOPC   C2521777   2.389   5.447   3.367 -0.4388  0.4762 -0.1501
  178DOPC   H5R21778   2.325   5.368   3.412 -0.7205  1.1660  0.6998
  178DOPC   H5S21779   2.321   5.535   3.364  0.9324  1.5656 -3.3126
  178DOPC   C2621780   2.492   5.478   3.474  0.3631  0.3726 -0.1996
  178DOPC   H6R21781   2.576   5.536   3.430  0.4102  0.7928  0.4307
  178DOPC   H6S21782   2.534   5.387   3.522  1.1578  0.7103 -0.2464
  178DOPC   C2721783   2.423   5.562   3.592 -0.5033  0.3216  0.0024
  178DOPC   H7R21784   2.346   5.499   3.641  0.5523 -0.5152  0.6465
  178DOPC   H7S21785   2.364   5.642   3.543 -2.0195  0.1932  1.5305
  178DOPC   C2821786   2.530   5.631   3.681  0.5421  0.6312  0.8135
  178DOPC   H8R21787   2.600   5.673   3.606 -1.5187  0.8093 -1.1193
  178DOPC   H8S21788   2.587   5.552   3.734 -2.0249 -0.3993  2.2297
  178DOPC   C2921789   2.469   5.720   3.780 -0.1740  0.0466  0.3113
  178DOPC   H9R21790   2.450   5.822   3.744 -0.1680 -0.4178 -1.1091
  178DOPC  C21021791   2.434   5.685   3.904  0.0961  0.0927  0.9885
  178DOPC  H10R21792   2.378   5.765   3.955 -0.6091  0.5121 -0.3614
  178DOPC  C21121793   2.454   5.549   3.955  0.3781  0.0199  0.1133
  178DOPC  H11R21794   2.492   5.471   3.887 -1.7176 -0.4770 -0.5744
  178DOPC  H11S21795   2.352   5.512   3.979 -1.3588  3.5001 -1.1391
  178DOPC  C21221796   2.535   5.554   4.084 -0.8968 -0.2255  0.2003
  178DOPC  H12R21797   2.483   5.605   4.167  0.3789 -0.6091  1.2612
  178DOPC  H12S21798   2.630   5.610   4.075 -0.2472 -0.9382  2.1348
  178DOPC  C21321799   2.566   5.416   4.134  0.3636 -0.0664  0.7981
  178DOPC  H13R21800   2.609   5.346   4.059  0.2629 -3.1036  3.3503
  178DOPC  H13S21801   2.471   5.359   4.149  0.5728 -0.1632  1.8281
  178DOPC  C21421802   2.651   5.419   4.259 -0.8271  0.5873 -0.3606
  178DOPC  H14R21803   2.744   5.473   4.236 -0.9533  1.0816  0.2583
  178DOPC  H14S21804   2.687   5.320   4.295  0.8667  0.1149 -3.0912
  178DOPC  C21521805   2.587   5.493   4.376  0.4900  1.0245 -0.3337
  178DOPC  H15R21806   2.486   5.450   4.398  1.3675 -1.0545 -0.1459
  178DOPC  H15S21807   2.577   5.597   4.341 -3.1010  0.5773 -1.0249
  178DOPC  C21621808   2.673   5.481   4.504  0.7381  0.1324 -0.5276
  178DOPC  H16R21809   2.643   5.558   4.578 -0.9672 -0.4666 -0.5337
  178DOPC  H16S21810   2.777   5.512   4.482  0.0026  2.7714 -0.5320
  178DOPC  C21721811   2.671   5.343   4.579  0.4628 -0.1842 -0.8452
  178DOPC  H17R21812   2.721   5.267   4.515 -0.8412 -1.8721  0.0467
  178DOPC  H17S21813   2.568   5.309   4.604  1.1219 -0.6636  1.4755
  178DOPC  C21821814   2.739   5.352   4.719 -0.2935  0.2149  0.4157
  178DOPC  H18R21815   2.712   5.260   4.775  0.5073 -0.3132 -0.0386
  178DOPC  H18S21816   2.712   5.452   4.760  0.3969  0.5760  0.0053
  178DOPC  H18T21817   2.846   5.359   4.688 -0.4207 -2.0911 -0.7446
  178DOPC   C3321818   2.564   6.005   3.070 -0.1382  1.0529  0.4651
  178DOPC   H3X21819   2.525   6.104   3.102  0.2773  1.7156 -1.0074
  178DOPC   H3Y21820   2.671   6.022   3.048  0.1810 -0.8871  0.3175
  178DOPC   C3421821   2.558   5.909   3.192  0.6175 -0.0611 -0.8811
  178DOPC   H4X21822   2.574   5.806   3.154  0.4505 -0.5091  0.2401
  178DOPC   H4Y21823   2.451   5.904   3.221  0.4714 -0.3337 -1.4478
  178DOPC   C3521824   2.645   5.951   3.306  0.0851  0.4386  0.2778
  178DOPC   H5X21825   2.753   5.962   3.278  1.6901 -4.5607  3.2376
  178DOPC   H5Y21826   2.653   5.861   3.371  1.9984 -2.0358 -3.0151
  178DOPC   C3621827   2.598   6.077   3.385  1.0771 -0.0094  0.3138
  178DOPC   H6X21828   2.583   6.156   3.308 -0.3508  0.3408  0.9225
  178DOPC   H6Y21829   2.498   6.054   3.426  0.8762 -2.1602 -1.2190
  178DOPC   C3721830   2.697   6.135   3.477  0.2451 -0.1129  0.4979
  178DOPC   H7X21831   2.793   6.142   3.422  0.7345 -0.6709  1.2573
  178DOPC   H7Y21832   2.676   6.239   3.510 -1.4223 -0.1202 -0.4264
  178DOPC   C3821833   2.702   6.047   3.603 -0.8679 -0.1254  0.5967
  178DOPC   H8X21834   2.732   5.943   3.579 -0.0859  0.1773  0.2255
  178DOPC   H8Y21835   2.597   6.041   3.638 -1.5927  1.0481 -1.2267
  178DOPC   C3921836   2.789   6.107   3.709 -0.2207 -0.5709 -0.3447
  178DOPC   H9X21837   2.856   6.187   3.674 -0.4686  0.0771  0.6212
  178DOPC  C31021838   2.771   6.089   3.841 -0.2782 -0.1132  0.1457
  178DOPC  H10X21839   2.850   6.127   3.908 -0.1297 -0.0565 -0.0602
  178DOPC  C31121840   2.669   5.995   3.901 -0.1120  0.1262  0.0208
  178DOPC  H11X21841   2.724   5.904   3.929 -1.6751 -0.5982  0.8558
  178DOPC  H11Y21842   2.599   5.954   3.825 -0.2935  0.2977  0.0951
  178DOPC  C31221843   2.593   6.052   4.019  0.1747 -0.3998 -0.6757
  178DOPC  H12X21844   2.655   6.132   4.067 -0.1744 -0.7335  0.3655
  178DOPC  H12Y21845   2.592   5.973   4.097  1.9866 -0.5555 -0.7733
  178DOPC  C31321846   2.455   6.109   3.978  0.1204  0.5033  0.3794
  178DOPC  H13X21847   2.395   6.021   3.948 -0.0851  1.2788 -1.6270
  178DOPC  H13Y21848   2.416   6.146   4.075  0.6746  2.8658 -0.2263
  178DOPC  C31421849   2.445   6.224   3.871  0.3901  0.2424 -0.2205
  178DOPC  H14X21850   2.493   6.182   3.780  4.0043  1.2277  1.0393
  178DOPC  H14Y21851   2.336   6.243   3.860 -0.1658 -2.5979 -0.5439
  178DOPC  C31521852   2.523   6.346   3.903  0.2963 -0.9420 -0.1344
  178DOPC  H15X21853   2.610   6.323   3.969 -0.6271 -0.7779  1.1804
  178DOPC  H15Y21854   2.446   6.403   3.960  0.2129  0.1370 -1.2856
  178DOPC  C31621855   2.553   6.435   3.782  0.2442  0.5773  0.1411
  178DOPC  H16X21856   2.587   6.373   3.696  1.4995 -0.8202  1.5786
  178DOPC  H16Y21857   2.472   6.499   3.743 -1.2092 -2.6043 -2.5822
  178DOPC  C31721858   2.683   6.524   3.793  0.7995  0.3975  0.6059
  178DOPC  H17X21859   2.659   6.595   3.875  0.4408 -0.4780  1.2787
  178DOPC  H17Y21860   2.769   6.456   3.811 -0.6989 -1.2997  1.7180
  178DOPC  C31821861   2.709   6.600   3.664 -0.1695  0.1811  0.1674
  178DOPC  H18X21862   2.775   6.690   3.673 -0.2121  0.7518 -3.5579
  178DOPC  H18Y21863   2.763   6.538   3.589  0.7491  1.4313 -0.2440
  178DOPC  H18Z21864   2.616   6.630   3.612  0.1143  2.4055  0.8474
  179DOPC     N21865   6.976   6.313   2.054 -0.1619 -0.2441  0.3977
  179DOPC   C1221866   6.947   6.280   2.200  0.7733  0.0368  0.0062
  179DOPC  H12A21867   6.843   6.293   2.226  0.9594 -0.1140  0.8553
  179DOPC  H12B21868   6.993   6.359   2.257  1.1013 -0.2205  0.0976
  179DOPC   C1321869   6.925   6.450   2.021  0.4429  0.2505 -0.8860
  179DOPC  H13A21870   6.944   6.478   1.919  0.4406 -1.3615 -1.3624
  179DOPC  H13B21871   6.821   6.450   2.048  0.8997 -0.9544  1.1139
  179DOPC  H13C21872   6.977   6.517   2.088  3.0745 -2.6837  0.2505
  179DOPC   C1421873   6.906   6.222   1.952 -0.5565 -0.6382 -0.1715
  179DOPC  H14A21874   6.803   6.206   1.978 -0.6812  0.1291 -0.1936
  179DOPC  H14B21875   6.926   6.269   1.857 -1.5170  2.5354  1.0944
  179DOPC  H14C21876   6.939   6.119   1.946  0.1111 -0.5146  1.1263
  179DOPC   C1521877   7.118   6.310   2.018  0.2620  0.0057  0.7147
  179DOPC  H15A21878   7.148   6.206   2.025 -2.1120 -0.8534 -0.6896
  179DOPC  H15B21879   7.180   6.371   2.082  0.1156  0.0860  0.7817
  179DOPC  H15C21880   7.149   6.342   1.920  1.4401  3.3938  2.0484
  179DOPC   C1121881   7.001   6.147   2.259 -0.9814  0.3028 -0.1970
  179DOPC  H11A21882   7.108   6.170   2.279 -1.1819  1.2413 -0.1551
  179DOPC  H11B21883   6.968   6.121   2.361  1.2719 -1.6629  0.1183
  179DOPC     P21884   7.118   5.961   2.106 -0.0519  0.1880 -0.2734
  179DOPC   O1321885   7.233   6.052   2.102  0.1443  0.0018  0.0468
  179DOPC   O1421886   7.075   5.904   1.975 -0.2614 -0.0369  0.0685
  179DOPC   O1221887   6.988   6.035   2.169 -0.2060 -0.1650  0.3541
  179DOPC   O1121888   7.163   5.849   2.205  0.7950 -0.4150  0.1060
  179DOPC    C121889   7.093   5.732   2.237 -0.4086 -0.3690  0.3707
  179DOPC    HA21890   7.080   5.667   2.148  2.9945  0.3089 -0.7739
  179DOPC    HB21891   6.993   5.759   2.276  0.1678 -1.6292  2.9933
  179DOPC    C221892   7.167   5.658   2.356 -0.1886  0.1548  0.8491
  179DOPC    HS21893   7.094   5.609   2.424 -1.0077 -1.7592 -1.2588
  179DOPC   O2121894   7.232   5.758   2.443  0.6911 -0.2064  0.3096
  179DOPC   C2121895   7.154   5.853   2.491  0.3802 -0.3510 -0.2826
  179DOPC   O2221896   7.033   5.843   2.507  0.2227 -0.3690  0.3239
  179DOPC   C2221897   7.236   5.969   2.544 -0.1767 -0.6884  0.2838
  179DOPC   H2R21898   7.217   6.066   2.494  0.6403 -1.2198 -1.1285
  179DOPC   H2S21899   7.344   5.944   2.532  0.8297  2.6151  1.4738
  179DOPC    C321900   7.270   5.556   2.302  0.7781 -0.9827  0.1663
  179DOPC    HX21901   7.361   5.612   2.270 -0.1523 -0.7849 -2.3810
  179DOPC    HY21902   7.237   5.508   2.207  0.2660 -0.4940  0.0875
  179DOPC   O3121903   7.296   5.447   2.388  0.2070  0.2473 -0.5134
  179DOPC   C3121904   7.405   5.468   2.462  0.2814  1.5244  0.0013
  179DOPC   O3221905   7.485   5.560   2.451  0.0660 -0.6146  0.7036
  179DOPC   C3221906   7.408   5.370   2.575  0.8035 -0.6964  0.0937
  179DOPC   H2X21907   7.367   5.270   2.547 -0.8774  0.4670 -1.8467
  179DOPC   H2Y21908   7.515   5.355   2.603  1.1855 -1.0428 -1.4749
  179DOPC   C2321909   7.201   6.000   2.689  0.2071 -0.1824  0.5112
  179DOPC   H3R21910   7.186   5.909   2.751  2.6580 -0.6539  0.5048
  179DOPC   H3S21911   7.102   6.050   2.694  1.4497  2.3108  2.2185
  179DOPC   C2421912   7.298   6.092   2.757  0.2699  1.3218  0.0853
  179DOPC   H4R21913   7.276   6.195   2.719 -0.2103  0.4677 -2.1020
  179DOPC   H4S21914   7.403   6.065   2.732  0.2418  0.8318  0.5062
  179DOPC   C2521915   7.262   6.084   2.907 -0.4283 -0.7928 -0.3722
  179DOPC   H5R21916   7.262   5.981   2.948  1.7442 -0.4538  0.6303
  179DOPC   H5S21917   7.163   6.133   2.919 -0.0620 -0.4924  1.9603
  179DOPC   C2621918   7.362   6.163   2.996 -0.2600  0.4070  0.2748
  179DOPC   H6R21919   7.403   6.249   2.940  0.6701 -0.9832 -1.2878
  179DOPC   H6S21920   7.450   6.100   3.022  0.1081 -0.2454 -2.2522
  179DOPC   C2721921   7.297   6.225   3.120  0.6856 -0.4540 -0.3954
  179DOPC   H7R21922   7.232   6.308   3.086  0.4967 -1.0652 -1.5755
  179DOPC   H7S21923   7.380   6.282   3.168  0.6594  1.2675 -2.2716
  179DOPC   C2821924   7.232   6.131   3.218 -0.3927  0.3678 -0.1942
  179DOPC   H8R21925   7.156   6.062   3.175 -1.5741  2.5475 -1.7910
  179DOPC   H8S21926   7.184   6.205   3.286  1.1674  0.1589  1.1861
  179DOPC   C2921927   7.341   6.053   3.287  0.5418  0.4288  0.0039
  179DOPC   H9R21928   7.378   5.970   3.225 -0.4774  2.7870 -4.0595
  179DOPC  C21021929   7.390   6.085   3.407  0.2058  0.1312  0.3571
  179DOPC  H10R21930   7.472   6.032   3.458 -0.2527 -0.1609  0.7933
  179DOPC  C21121931   7.342   6.208   3.488 -0.1160  0.1831  0.7956
  179DOPC  H11R21932   7.305   6.288   3.420 -1.2026 -0.0434  1.1010
  179DOPC  H11S21933   7.430   6.244   3.546  1.0459 -0.4195 -0.5462
  179DOPC  C21221934   7.226   6.173   3.589 -0.2999  0.1121  0.5089
  179DOPC  H12R21935   7.186   6.265   3.637 -0.5373  0.8783 -1.1023
  179DOPC  H12S21936   7.269   6.113   3.672 -1.7943 -0.1130  1.1451
  179DOPC  C21321937   7.105   6.095   3.540 -0.8036 -0.4632  0.3670
  179DOPC  H13R21938   7.138   6.004   3.486  0.8334  0.9676 -1.1731
  179DOPC  H13S21939   7.057   6.162   3.466 -0.5124  1.6113  1.9759
  179DOPC  C21421940   7.006   6.048   3.650 -0.1043 -0.5014  1.1635
  179DOPC  H14R21941   6.932   5.978   3.605  0.1111  0.2682 -0.4739
  179DOPC  H14S21942   6.954   6.141   3.681 -0.3372 -0.0395 -0.4988
  179DOPC  C21521943   7.070   5.983   3.763  0.8468 -0.4282  0.3365
  179DOPC  H15R21944   7.122   6.048   3.837  1.3881 -0.4333 -0.0369
  179DOPC  H15S21945   7.143   5.911   3.720  0.4206 -1.2382  0.9345
  179DOPC  C21621946   6.969   5.887   3.840 -0.1062 -0.3952 -0.0245
  179DOPC  H16R21947   7.031   5.809   3.888  0.8873 -1.2588 -2.5425
  179DOPC  H16S21948   6.911   5.823   3.771 -2.8088 -0.1152  1.8374
  179DOPC  C21721949   6.882   5.965   3.945 -0.2611 -0.5525  1.0607
  179DOPC  H17R21950   6.816   6.024   3.877  0.7321 -1.1552 -0.4803
  179DOPC  H17S21951   6.948   6.030   4.006 -0.3966  1.4287 -0.7767
  179DOPC  C21821952   6.785   5.880   4.020 -0.4715  0.3359  0.5676
  179DOPC  H18R21953   6.834   5.813   4.093  4.7456  1.2482 -1.6087
  179DOPC  H18S21954   6.725   5.819   3.949 -0.9131  1.8658 -0.4347
  179DOPC  H18T21955   6.710   5.941   4.074 -0.7061  0.4101  0.1657
  179DOPC   C3321956   7.315   5.402   2.694 -0.5021 -0.5537  0.1253
  179DOPC   H3X21957   7.314   5.316   2.764  0.2811  0.2389  1.1261
  179DOPC   H3Y21958   7.211   5.422   2.658 -0.7358 -0.3181  0.9102
  179DOPC   C3421959   7.364   5.525   2.766  0.6737 -0.2650  0.2471
  179DOPC   H4X21960   7.373   5.618   2.706  0.7825 -0.6248 -0.3071
  179DOPC   H4Y21961   7.471   5.516   2.795  1.0642  1.6799 -0.4635
  179DOPC   C3521962   7.288   5.545   2.894 -0.1530  0.4561  0.2123
  179DOPC   H5X21963   7.289   5.449   2.951  0.0042 -0.1883 -0.8424
  179DOPC   H5Y21964   7.180   5.569   2.881 -0.6290 -0.7664  1.5904
  179DOPC   C3621965   7.344   5.648   2.982  0.0818 -0.2891  0.1424
  179DOPC   H6X21966   7.383   5.734   2.923 -1.3786  0.2012 -0.1528
  179DOPC   H6Y21967   7.268   5.698   3.046  1.0333  0.5258  0.6650
  179DOPC   C3721968   7.467   5.612   3.068 -0.5744 -0.5821  0.1054
  179DOPC   H7X21969   7.431   5.568   3.163 -1.9043  0.8522  0.3002
  179DOPC   H7Y21970   7.522   5.526   3.023  1.0816  0.3500  0.2629
  179DOPC   C3821971   7.574   5.718   3.106 -0.4393 -0.2294  0.1537
  179DOPC   H8X21972   7.524   5.813   3.135 -0.2617 -0.0169 -0.2367
  179DOPC   H8Y21973   7.624   5.744   3.011  1.5432  0.1962  1.2559
  179DOPC   C3921974   7.678   5.667   3.198 -1.0256 -0.5028 -0.4457
  179DOPC   H9X21975   7.755   5.608   3.146  1.1679  0.6805  1.2686
  179DOPC  C31021976   7.687   5.684   3.338  0.6563  0.0677 -0.4252
  179DOPC  H10X21977   7.784   5.654   3.380  1.7932  1.2884 -2.0214
  179DOPC  C31121978   7.592   5.761   3.421  0.3002  0.1153 -0.0371
  179DOPC  H11X21979   7.500   5.800   3.372 -0.7993  0.0799  1.9137
  179DOPC  H11Y21980   7.637   5.859   3.449  1.2223 -0.2666 -0.1345
  179DOPC  C31221981   7.555   5.695   3.551 -0.2369 -0.0140 -0.7879
  179DOPC  H12X21982   7.509   5.602   3.513 -1.2289  1.0845 -2.3807
  179DOPC  H12Y21983   7.476   5.743   3.611 -0.6202  0.2313 -1.4748
  179DOPC  C31321984   7.678   5.672   3.652  0.8110 -0.1317 -0.2202
  179DOPC  H13X21985   7.755   5.607   3.604 -0.2013 -1.1567 -0.5127
  179DOPC  H13Y21986   7.718   5.774   3.667 -1.0411  0.6394 -0.2248
  179DOPC  C31421987   7.641   5.619   3.790  0.0597  0.2077  0.3278
  179DOPC  H14X21988   7.557   5.687   3.816 -0.8526 -0.8481  0.2105
  179DOPC  H14Y21989   7.611   5.513   3.778  1.6683 -0.2407 -0.0654
  179DOPC  C31521990   7.747   5.642   3.898 -0.6890 -0.2115  0.5740
  179DOPC  H15X21991   7.776   5.750   3.898  0.5929 -0.1752 -5.5785
  179DOPC  H15Y21992   7.845   5.602   3.864 -0.8323  1.6139 -2.3113
  179DOPC  C31621993   7.722   5.594   4.041 -0.0102  0.4390 -0.4191
  179DOPC  H16X21994   7.669   5.497   4.032 -1.5535  1.2118  0.0851
  179DOPC  H16Y21995   7.818   5.567   4.090 -1.0872 -2.0262  0.4717
  179DOPC  C31721996   7.641   5.687   4.134 -0.0957 -0.3913  0.4321
  179DOPC  H17X21997   7.702   5.775   4.163  1.0477 -1.0550  0.0610
  179DOPC  H17Y21998   7.556   5.724   4.073  0.3670 -0.3819 -0.2088
  179DOPC  C31821999   7.587   5.635   4.267  0.1885  0.6869  0.4284
  179DOPC  H18X22000   7.671   5.592   4.326 -0.5919 -0.1297  0.9743
  179DOPC  H18Y22001   7.544   5.719   4.325  0.1671  0.7793  0.2784
  179DOPC  H18Z22002   7.513   5.554   4.247  1.6699 -0.8086  0.7201
  180DOPC     N22003   6.085   4.181   2.081 -0.0798  0.0865 -0.4461
  180DOPC   C1222004   6.021   4.053   2.141  0.1687 -0.5648 -0.4094
  180DOPC  H12A22005   6.083   3.970   2.110  1.1568 -0.5568  1.4029
  180DOPC  H12B22006   5.925   4.034   2.096  0.0916  1.9290 -1.4560
  180DOPC   C1322007   6.027   4.306   2.154 -0.0919 -0.0529 -0.3437
  180DOPC  H13A22008   6.060   4.297   2.256  0.4394 -3.2262 -0.6818
  180DOPC  H13B22009   6.051   4.407   2.124 -3.0653  1.0481  0.5877
  180DOPC  H13C22010   5.920   4.291   2.162 -0.1082  0.5618  0.7599
  180DOPC   C1422011   6.045   4.196   1.938 -0.3959 -0.0500  0.2589
  180DOPC  H14A22012   6.079   4.292   1.901 -1.9838  0.6064  0.4221
  180DOPC  H14B22013   6.085   4.118   1.874 -0.8636 -0.1849  0.1274
  180DOPC  H14C22014   5.939   4.201   1.920 -0.0717  0.8890 -1.6260
  180DOPC   C1522015   6.235   4.196   2.105  0.3913  0.5627 -0.1215
  180DOPC  H15A22016   6.266   4.293   2.070 -0.2053  1.3906  1.5582
  180DOPC  H15B22017   6.284   4.115   2.053 -2.0020 -0.5865 -0.7691
  180DOPC  H15C22018   6.261   4.178   2.208 -0.0161 -1.8373 -0.3723
  180DOPC   C1122019   6.027   4.021   2.293 -0.1234 -0.6407  0.3366
  180DOPC  H11A22020   5.970   4.087   2.362 -1.8534 -2.4468  0.7268
  180DOPC  H11B22021   5.974   3.924   2.305 -1.9675  0.3839  0.8192
  180DOPC     P22022   6.239   3.867   2.303 -0.0065 -0.2986 -0.2871
  180DOPC   O1322023   6.384   3.890   2.324 -0.8420 -0.0215 -0.2767
  180DOPC   O1422024   6.203   3.807   2.177  0.5107 -0.2901 -0.1330
  180DOPC   O1222025   6.160   4.005   2.323 -0.8149  0.4530 -0.0870
  180DOPC   O1122026   6.196   3.772   2.421 -0.6360 -0.2687 -0.2986
  180DOPC    C122027   6.128   3.819   2.538 -0.2214 -0.2367  0.2711
  180DOPC    HA22028   6.084   3.734   2.594 -0.3550 -1.9897 -2.3310
  180DOPC    HB22029   6.052   3.899   2.525  1.7654  1.9361  1.3392
  180DOPC    C222030   6.224   3.886   2.642  0.2294  0.5130  0.1893
  180DOPC    HS22031   6.310   3.936   2.591 -0.1711  2.6752  1.5389
  180DOPC   O2122032   6.274   3.790   2.730  0.1908 -0.1696  0.2152
  180DOPC   C2122033   6.374   3.814   2.815  0.2882 -0.3930  0.0570
  180DOPC   O2222034   6.446   3.912   2.820  0.0982  0.3877 -0.5404
  180DOPC   C2222035   6.385   3.691   2.903 -0.0472  0.7057 -0.7486
  180DOPC   H2R22036   6.483   3.701   2.954  0.5822  0.4838 -1.8907
  180DOPC   H2S22037   6.393   3.607   2.831  0.1847  0.0537  0.0305
  180DOPC    C322038   6.150   3.995   2.723  0.1317  0.7756  0.9862
  180DOPC    HX22039   6.103   4.069   2.655  2.3245  1.9242  0.6328
  180DOPC    HY22040   6.234   4.046   2.775  1.8397 -2.1636  1.3218
  180DOPC   O3122041   6.072   3.934   2.826  0.4226  0.6143  0.1033
  180DOPC   C3122042   5.946   3.972   2.836 -0.6551 -0.2363 -0.3012
  180DOPC   O3222043   5.904   4.081   2.799 -0.1132  0.1732  0.1868
  180DOPC   C3222044   5.871   3.869   2.923 -0.2990  0.1261  0.3343
  180DOPC   H2X22045   5.946   3.820   2.988  0.9904  0.6390 -0.7302
  180DOPC   H2Y22046   5.803   3.924   2.991  0.8655  0.0995  1.5612
  180DOPC   C2322047   6.267   3.681   2.999 -0.3442 -0.3043 -1.1306
  180DOPC   H3R22048   6.173   3.670   2.942 -0.1409 -0.2995 -1.4664
  180DOPC   H3S22049   6.263   3.778   3.053  0.4431 -0.7679 -0.1951
  180DOPC   C2422050   6.280   3.566   3.112 -0.0631 -0.1875 -0.0244
  180DOPC   H4R22051   6.383   3.565   3.154 -0.8671 -0.9012  2.0841
  180DOPC   H4S22052   6.268   3.479   3.045  1.0915 -0.3338 -0.0543
  180DOPC   C2522053   6.166   3.583   3.216 -0.6627  0.6083 -0.1686
  180DOPC   H5R22054   6.151   3.485   3.267 -1.3366  1.3342  1.0669
  180DOPC   H5S22055   6.071   3.610   3.166 -0.6350  0.8111 -0.1120
  180DOPC   C2622056   6.195   3.680   3.331  0.9774 -0.7164  0.1074
  180DOPC   H6R22057   6.227   3.784   3.311  0.8806 -0.5326  0.8910
  180DOPC   H6S22058   6.277   3.633   3.391  2.1743 -0.8868 -1.5907
  180DOPC   C2722059   6.068   3.693   3.424 -0.4528 -0.6731 -0.1422
  180DOPC   H7R22060   6.033   3.589   3.443 -0.1786 -0.6963  0.2484
  180DOPC   H7S22061   5.995   3.741   3.356 -0.2225  1.4359  1.0078
  180DOPC   C2822062   6.089   3.789   3.544  0.5030  0.6720 -0.2320
  180DOPC   H8R22063   6.095   3.894   3.509  1.5482  1.2166  1.4548
  180DOPC   H8S22064   6.189   3.764   3.585  1.3316  1.0562 -1.9122
  180DOPC   C2922065   5.967   3.771   3.629  0.7390  0.1272 -0.5545
  180DOPC   H9R22066   5.870   3.789   3.580  0.3111 -0.8799 -0.1197
  180DOPC  C21022067   5.964   3.736   3.759 -0.2300 -0.0033 -0.1345
  180DOPC  H10R22068   5.868   3.742   3.811 -1.6527 -0.3779 -2.5957
  180DOPC  C21122069   6.089   3.705   3.841  0.2481  0.1871  0.1966
  180DOPC  H11R22070   6.180   3.753   3.799  1.5300  0.0285  2.5935
  180DOPC  H11S22071   6.101   3.594   3.842  0.6561  0.1816 -1.7380
  180DOPC  C21222072   6.085   3.774   3.981 -0.3951  0.0816  0.3803
  180DOPC  H12R22073   6.180   3.756   4.035 -0.8187  0.9539  1.4852
  180DOPC  H12S22074   5.991   3.752   4.036 -1.1687  1.4024 -0.3459
  180DOPC  C21322075   6.079   3.929   3.972  0.1240 -0.5100 -0.2047
  180DOPC  H13R22076   6.024   3.966   3.883 -2.0887  1.8494  1.9571
  180DOPC  H13S22077   6.179   3.971   3.951  0.0546 -0.5883 -0.6992
  180DOPC  C21422078   6.012   3.982   4.104 -0.4461  0.2747 -0.2732
  180DOPC  H14R22079   6.065   3.929   4.186  0.0283 -0.9358 -1.3281
  180DOPC  H14S22080   5.909   3.941   4.090  0.3248 -1.9958  0.2835
  180DOPC  C21522081   6.030   4.131   4.124  0.2313  0.6031  0.4595
  180DOPC  H15R22082   5.992   4.187   4.036  1.7674  2.9771  1.2273
  180DOPC  H15S22083   6.139   4.151   4.122  0.9601 -2.6777  0.9522
  180DOPC  C21622084   5.977   4.187   4.252  0.3898  0.2842 -0.3020
  180DOPC  H16R22085   6.009   4.293   4.252  0.2602  0.3709  1.9206
  180DOPC  H16S22086   6.021   4.128   4.336 -0.6712 -0.9963 -0.6227
  180DOPC  C21722087   5.823   4.191   4.249  0.5590  0.0081 -0.5200
  180DOPC  H17R22088   5.776   4.198   4.149  0.8092  4.7557 -0.5450
  180DOPC  H17S22089   5.797   4.289   4.293  1.2258 -0.0497  0.0207
  180DOPC  C21822090   5.754   4.084   4.332 -0.7879  0.4013 -0.1192
  180DOPC  H18R22091   5.747   3.991   4.272  0.7469  0.9901 -1.3056
  180DOPC  H18S22092   5.655   4.113   4.372 -1.0603  0.0390 -0.5266
  180DOPC  H18T22093   5.820   4.038   4.409 -1.0673 -1.9905 -1.2028
  180DOPC   C3322094   5.797   3.765   2.834 -0.0998 -0.2987 -0.2002
  180DOPC   H3X22095   5.851   3.709   2.755 -0.1228  0.1989 -0.5768
  180DOPC   H3Y22096   5.723   3.831   2.784  1.1250  2.6886  1.6283
  180DOPC   C3422097   5.713   3.656   2.913 -0.3807  0.0004  0.6973
  180DOPC   H4X22098   5.790   3.615   2.982 -0.1225  1.4092  1.3022
  180DOPC   H4Y22099   5.677   3.574   2.848  0.5363 -0.8596  1.2562
  180DOPC   C3522100   5.602   3.727   2.993 -0.2926  0.4153  0.1508
  180DOPC   H5X22101   5.537   3.770   2.914 -1.2364  1.4512  1.4332
  180DOPC   H5Y22102   5.645   3.806   3.058  0.4502 -0.3153  0.5668
  180DOPC   C3622103   5.507   3.642   3.083 -0.0065 -0.1486 -0.2190
  180DOPC   H6X22104   5.551   3.602   3.177  0.7598 -1.5458 -1.1366
  180DOPC   H6Y22105   5.416   3.703   3.097  0.3392  0.0416  1.3924
  180DOPC   C3722106   5.473   3.505   3.015 -0.0947 -0.0277 -0.7547
  180DOPC   H7X22107   5.462   3.532   2.908  1.4375 -1.7709 -1.4054
  180DOPC   H7Y22108   5.558   3.434   3.024  1.6823  2.2730  3.0387
  180DOPC   C3822109   5.339   3.444   3.065  0.3400  0.5078 -0.1641
  180DOPC   H8X22110   5.266   3.523   3.039 -0.6096 -0.0701  0.6483
  180DOPC   H8Y22111   5.336   3.451   3.176  0.6819 -0.0811 -0.1132
  180DOPC   C3922112   5.287   3.310   3.013  0.3018  0.4017 -0.0579
  180DOPC   H9X22113   5.242   3.322   2.913  0.4101 -0.5404 -0.2289
  180DOPC  C31022114   5.297   3.183   3.069  1.0247  0.0471  0.1275
  180DOPC  H10X22115   5.251   3.095   3.023  1.8001 -0.1405 -0.3077
  180DOPC  C31122116   5.364   3.160   3.206 -0.1991  0.1876  0.6567
  180DOPC  H11X22117   5.390   3.253   3.261 -3.2077  0.5356  1.6649
  180DOPC  H11Y22118   5.458   3.104   3.187 -0.8885 -0.1285 -2.3224
  180DOPC  C31222119   5.283   3.076   3.302  0.4442  0.5275  0.0358
  180DOPC  H12X22120   5.241   2.978   3.270 -1.0554 -0.1826  3.6661
  180DOPC  H12Y22121   5.197   3.140   3.331 -1.0676 -0.0943 -2.7563
  180DOPC  C31322122   5.350   3.028   3.434  0.3298 -0.4679 -0.1013
  180DOPC  H13X22123   5.281   2.952   3.476  2.2319 -1.0932  2.0650
  180DOPC  H13Y22124   5.446   2.979   3.405  0.2336 -0.1151 -1.0777
  180DOPC  C31422125   5.383   3.136   3.540  0.4151 -0.1105 -1.0048
  180DOPC  H14X22126   5.482   3.184   3.522  0.4817  0.0545 -0.2401
  180DOPC  H14Y22127   5.310   3.217   3.516  1.8271  1.0606 -1.4753
  180DOPC  C31522128   5.378   3.077   3.681 -0.3413  0.1468 -0.8869
  180DOPC  H15X22129   5.278   3.031   3.697 -2.0183  3.8012  0.5538
  180DOPC  H15Y22130   5.383   3.155   3.761 -0.7938 -0.5187 -0.1903
  180DOPC  C31622131   5.492   2.975   3.707 -0.3128 -0.3605 -0.5331
  180DOPC  H16X22132   5.461   2.879   3.661  0.1709 -0.5392 -0.4957
  180DOPC  H16Y22133   5.581   3.020   3.657  0.2605 -1.6669 -0.7238
  180DOPC  C31722134   5.516   2.959   3.854  0.0860 -0.2934  0.5557
  180DOPC  H17X22135   5.548   3.060   3.889 -0.1410  1.5306 -3.8216
  180DOPC  H17Y22136   5.417   2.948   3.903  0.2294 -2.4028  0.4465
  180DOPC  C31822137   5.604   2.851   3.899 -0.4257  0.0716 -0.5391
  180DOPC  H18X22138   5.561   2.752   3.871  1.2873 -1.1593  0.9662
  180DOPC  H18Y22139   5.704   2.870   3.854 -0.6711  0.2552 -1.0137
  180DOPC  H18Z22140   5.623   2.859   4.008  0.4201  0.7298 -0.7242
  181DOPC     N22141   0.797   4.087   2.091  0.2253  0.3110  0.6307
  181DOPC   C1222142   0.677   4.098   2.179 -0.0860 -0.7857 -0.5452
  181DOPC  H12A22143   0.619   4.009   2.196  0.8031 -1.0162  1.6165
  181DOPC  H12B22144   0.608   4.161   2.125 -0.4791 -2.6033 -2.2914
  181DOPC   C1322145   0.881   3.976   2.145  0.6203 -0.0226  0.3428
  181DOPC  H13A22146   0.906   3.999   2.248  0.8101 -0.2380  0.3463
  181DOPC  H13B22147   0.827   3.885   2.127  0.2920  0.2893 -0.3006
  181DOPC  H13C22148   0.973   3.963   2.089 -1.0346 -0.7165 -2.3756
  181DOPC   C1422149   0.874   4.216   2.078  0.2792  0.1794 -0.0002
  181DOPC  H14A22150   0.920   4.241   2.173  2.3254 -1.7755 -0.3822
  181DOPC  H14B22151   0.955   4.211   2.007  0.0528  1.5506 -0.3753
  181DOPC  H14C22152   0.809   4.294   2.041 -0.4801 -0.1267  0.6609
  181DOPC   C1522153   0.745   4.044   1.954 -0.9635 -0.2968 -0.2480
  181DOPC  H15A22154   0.699   4.127   1.902  1.2488  2.6467  2.0821
  181DOPC  H15B22155   0.682   3.957   1.958 -3.0811  1.1801  2.8940
  181DOPC  H15C22156   0.827   4.024   1.887 -1.1621  1.7491 -1.1733
  181DOPC   C1122157   0.710   4.158   2.321  0.0788 -0.0381  0.4108
  181DOPC  H11A22158   0.620   4.141   2.383 -1.2918  1.9170 -0.9231
  181DOPC  H11B22159   0.788   4.090   2.362  0.1552 -2.0523 -2.7296
  181DOPC     P22160   0.665   4.414   2.316 -0.3348  0.7078  0.3840
  181DOPC   O1322161   0.572   4.399   2.203  0.2606 -0.8621  0.6496
  181DOPC   O1422162   0.752   4.537   2.317  0.1185  0.3484 -0.0296
  181DOPC   O1222163   0.754   4.287   2.329 -0.1583 -0.3425  0.3873
  181DOPC   O1122164   0.587   4.415   2.451 -0.1096 -0.0357  0.4148
  181DOPC    C122165   0.650   4.464   2.572  0.0082 -0.4931 -0.1521
  181DOPC    HA22166   0.572   4.465   2.650  0.8100  0.2489  0.6510
  181DOPC    HB22167   0.687   4.568   2.561  0.7101 -0.8401 -1.4234
  181DOPC    C222168   0.771   4.386   2.631 -0.2281 -0.1904  0.2715
  181DOPC    HS22169   0.852   4.383   2.555  1.2267  0.5486  1.7556
  181DOPC   O2122170   0.727   4.252   2.657  0.3675 -0.0304 -0.1533
  181DOPC   C2122171   0.828   4.167   2.671 -0.0279 -0.7475 -0.1782
  181DOPC   O2222172   0.946   4.186   2.653  0.5411 -0.0722 -0.2948
  181DOPC   C2222173   0.765   4.029   2.702 -0.3542 -0.1600 -0.3910
  181DOPC   H2R22174   0.745   3.977   2.605 -0.2984 -0.0262 -0.4744
  181DOPC   H2S22175   0.666   4.037   2.752  0.0066 -3.6262  1.1969
  181DOPC    C322176   0.828   4.460   2.756  0.4429 -0.0864 -0.3779
  181DOPC    HX22177   0.869   4.556   2.718  1.2761 -0.6192 -0.8659
  181DOPC    HY22178   0.916   4.402   2.791  0.5776 -0.5186 -1.4123
  181DOPC   O3122179   0.728   4.495   2.858 -0.7562  0.0308 -0.4697
  181DOPC   C3122180   0.695   4.396   2.938  0.1849 -0.0515 -0.1827
  181DOPC   O3222181   0.734   4.283   2.936 -0.0132  0.0599  0.2948
  181DOPC   C3222182   0.574   4.436   3.021 -1.2047 -0.8850  0.0433
  181DOPC   H2X22183   0.506   4.510   2.975  0.2783  2.0756  2.2985
  181DOPC   H2Y22184   0.514   4.343   3.029 -0.9001 -0.9828  1.5945
  181DOPC   C2322185   0.847   3.930   2.794 -0.1015 -0.4331 -0.0821
  181DOPC   H3R22186   0.956   3.949   2.784 -0.1276  0.1498  0.6769
  181DOPC   H3S22187   0.817   3.824   2.778  2.6102 -1.0087 -2.0663
  181DOPC   C2422188   0.830   3.946   2.946  0.3607  0.1312 -0.1206
  181DOPC   H4R22189   0.853   4.046   2.988 -1.6562  0.9495 -0.8614
  181DOPC   H4S22190   0.902   3.872   2.988  0.2666 -0.8229 -1.5661
  181DOPC   C2522191   0.693   3.910   2.988  0.4731  0.3832 -0.2599
  181DOPC   H5R22192   0.663   3.826   2.922  2.0957 -0.9344  0.5969
  181DOPC   H5S22193   0.620   3.985   2.952 -0.0619 -0.4202 -0.9083
  181DOPC   C2622194   0.676   3.873   3.134 -0.2084 -0.5546 -0.7148
  181DOPC   H6R22195   0.751   3.796   3.161 -0.4405 -0.2457  0.9416
  181DOPC   H6S22196   0.572   3.844   3.160 -0.5804  2.7620  2.4557
  181DOPC   C2722197   0.704   3.985   3.240 -0.1699  0.2870 -0.1928
  181DOPC   H7R22198   0.617   4.055   3.240 -1.8677 -1.7059 -0.0918
  181DOPC   H7S22199   0.795   4.033   3.200 -0.2243 -1.1181 -2.1155
  181DOPC   C2822200   0.736   3.931   3.380  0.0291 -0.2631  0.4076
  181DOPC   H8R22201   0.804   3.844   3.366  0.5504  0.1607  0.3058
  181DOPC   H8S22202   0.641   3.899   3.429 -0.6738  2.3851  0.9030
  181DOPC   C2922203   0.802   4.048   3.452  0.2392  0.2555 -0.1384
  181DOPC   H9R22204   0.892   4.079   3.397  1.3027  1.0427  1.9506
  181DOPC  C21022205   0.773   4.105   3.573 -0.6140 -0.1964 -0.1424
  181DOPC  H10R22206   0.823   4.198   3.606  1.5265 -1.2601 -0.1716
  181DOPC  C21122207   0.660   4.062   3.659  0.0418 -0.5321  0.2480
  181DOPC  H11R22208   0.643   3.955   3.635 -1.1382  0.0223 -1.5779
  181DOPC  H11S22209   0.570   4.115   3.621  0.2806 -0.6556 -0.4905
  181DOPC  C21222210   0.689   4.090   3.811 -0.2467 -0.4382 -0.5541
  181DOPC  H12R22211   0.703   4.200   3.816 -0.8538 -0.1820 -3.1638
  181DOPC  H12S22212   0.781   4.036   3.838  0.2734  0.8768  0.4536
  181DOPC  C21322213   0.575   4.052   3.909 -0.1412 -0.2494 -0.0534
  181DOPC  H13R22214   0.559   3.943   3.901  0.2209 -0.2454 -0.9134
  181DOPC  H13S22215   0.475   4.095   3.886 -0.5616 -0.8261  0.6788
  181DOPC  C21422216   0.623   4.073   4.060  0.2948 -0.3209  0.4932
  181DOPC  H14R22217   0.682   4.167   4.060 -1.3539  0.7651 -0.1927
  181DOPC  H14S22218   0.680   3.981   4.084 -0.9673 -0.9975  1.0197
  181DOPC  C21522219   0.509   4.085   4.161  0.0250  0.6716  0.0892
  181DOPC  H15R22220   0.447   4.173   4.134  0.1758  1.3334  1.7570
  181DOPC  H15S22221   0.544   4.089   4.267 -2.1557  3.7869  0.8358
  181DOPC  C21622222   0.409   3.968   4.154 -0.4539 -0.6108  0.6394
  181DOPC  H16R22223   0.468   3.876   4.172 -1.6335 -1.6561 -0.5922
  181DOPC  H16S22224   0.365   3.955   4.053  0.1221 -0.5080  0.3697
  181DOPC  C21722225   0.296   3.970   4.247  0.7214  0.1264 -0.0399
  181DOPC  H17R22226   0.226   4.052   4.219  1.5093  0.3829 -1.3348
  181DOPC  H17S22227   0.342   3.995   4.345  1.8783 -1.2109 -0.1987
  181DOPC  C21822228   0.219   3.837   4.237  0.3865 -0.1251  0.1703
  181DOPC  H18R22229   0.128   3.851   4.299  1.4526  0.7496  1.5976
  181DOPC  H18S22230   0.290   3.766   4.285 -1.4234 -0.7892  1.9870
  181DOPC  H18T22231   0.200   3.805   4.132  3.4501  0.3276 -0.6359
  181DOPC   C3322232   0.607   4.485   3.166 -0.8580  0.2006 -0.2497
  181DOPC   H3X22233   0.666   4.408   3.220 -0.4025  1.0279  0.4530
  181DOPC   H3Y22234   0.508   4.495   3.216 -1.0021 -0.8240 -0.2984
  181DOPC   C3422235   0.689   4.616   3.171 -0.8271 -0.1152  0.1592
  181DOPC   H4X22236   0.634   4.700   3.122  1.0063  1.6970  1.0274
  181DOPC   H4Y22237   0.781   4.616   3.108 -1.2336 -2.5256 -0.5199
  181DOPC   C3522238   0.730   4.662   3.309 -0.5066 -0.0432 -0.0378
  181DOPC   H5X22239   0.804   4.743   3.289 -2.0910  1.9807  1.8512
  181DOPC   H5Y22240   0.767   4.574   3.367 -2.7069 -0.1750  1.2720
  181DOPC   C3622241   0.625   4.725   3.397  0.1437  0.7925 -0.0422
  181DOPC   H6X22242   0.590   4.817   3.345 -0.7514 -0.0267 -0.9277
  181DOPC   H6Y22243   0.533   4.664   3.386  1.1309 -0.5678 -1.0874
  181DOPC   C3722244   0.672   4.741   3.536  0.1259  0.1994  0.5581
  181DOPC   H7X22245   0.702   4.641   3.574 -0.2542  0.4724  1.5990
  181DOPC   H7Y22246   0.764   4.803   3.526 -0.4358  0.9835  0.1838
  181DOPC   C3822247   0.572   4.827   3.622 -0.7716 -0.3991  0.5600
  181DOPC   H8X22248   0.484   4.760   3.637 -0.8415 -0.5115 -0.2775
  181DOPC   H8Y22249   0.529   4.910   3.562 -4.5372 -0.5368  2.7511
  181DOPC   C3922250   0.628   4.858   3.754 -0.7377  0.0535 -0.6146
  181DOPC   H9X22251   0.597   4.788   3.833  0.4354 -0.8756 -0.9396
  181DOPC  C31022252   0.708   4.956   3.789 -0.2188 -0.1736 -0.4877
  181DOPC  H10X22253   0.740   4.954   3.894  1.3763  1.2558 -0.8900
  181DOPC  C31122254   0.770   5.066   3.701  0.7350  0.1716  0.0172
  181DOPC  H11X22255   0.718   5.074   3.603 -0.2218  1.7737  0.6055
  181DOPC  H11Y22256   0.873   5.045   3.665  0.6756 -0.7482  0.3711
  181DOPC  C31222257   0.771   5.196   3.774 -0.1332 -0.3965 -0.0451
  181DOPC  H12X22258   0.828   5.277   3.723 -2.9968  1.0290 -1.2238
  181DOPC  H12Y22259   0.810   5.174   3.876 -0.7182 -1.7157 -0.0862
  181DOPC  C31322260   0.633   5.259   3.791  0.2312 -0.0775 -0.1240
  181DOPC  H13X22261   0.593   5.276   3.689  0.6904 -1.0647 -0.4825
  181DOPC  H13Y22262   0.564   5.194   3.849 -1.2101  2.5419  1.2752
  181DOPC  C31422263   0.633   5.400   3.867  0.7785  0.4696 -0.1186
  181DOPC  H14X22264   0.707   5.472   3.828  2.0828 -0.4240  0.6063
  181DOPC  H14Y22265   0.527   5.434   3.864  0.7079  0.2097 -0.7290
  181DOPC  C31522266   0.667   5.387   4.014 -0.4204 -0.0855  0.8301
  181DOPC  H15X22267   0.649   5.487   4.059 -0.3403 -0.2374  1.2041
  181DOPC  H15Y22268   0.771   5.350   4.010 -0.0296  0.8109  1.9821
  181DOPC  C31622269   0.578   5.295   4.091  0.7995 -0.1580  0.3130
  181DOPC  H16X22270   0.471   5.325   4.099  1.1084  0.8790  0.7685
  181DOPC  H16Y22271   0.579   5.193   4.048  0.1734 -0.2188  0.4215
  181DOPC  C31722272   0.617   5.270   4.239 -0.6789 -0.9923 -0.0479
  181DOPC  H17X22273   0.540   5.207   4.287 -0.3144 -0.1403  1.7767
  181DOPC  H17Y22274   0.707   5.206   4.229 -0.5144 -0.9890  1.1937
  181DOPC  C31822275   0.638   5.390   4.326 -0.5811  0.6053 -0.9046
  181DOPC  H18X22276   0.688   5.368   4.423  0.1220  1.6316 -1.0217
  181DOPC  H18Y22277   0.701   5.460   4.267 -1.0377  1.8563  0.0443
  181DOPC  H18Z22278   0.546   5.446   4.354 -0.0972  0.1073  2.0023
  182DOPC     N22279   1.913   2.237   2.869  0.1415 -0.1739 -0.9476
  182DOPC   C1222280   2.036   2.228   2.956 -0.4128 -0.3172 -0.0050
  182DOPC  H12A22281   2.041   2.129   3.001 -1.8550 -0.8125 -0.8783
  182DOPC  H12B22282   2.022   2.302   3.033  0.7848 -0.3721  0.2883
  182DOPC   C1322283   1.792   2.202   2.959 -0.9633  0.2998 -0.0308
  182DOPC  H13A22284   1.766   2.285   3.022  0.4944 -0.7684  2.0810
  182DOPC  H13B22285   1.707   2.178   2.896  1.2051 -1.1688 -2.6378
  182DOPC  H13C22286   1.823   2.124   3.026 -0.1834 -0.1646 -0.8969
  182DOPC   C1422287   1.924   2.136   2.756 -0.4582  0.0907  0.4717
  182DOPC  H14A22288   1.834   2.134   2.696 -0.5611 -1.4588  0.6237
  182DOPC  H14B22289   2.010   2.159   2.695 -0.7974 -1.0143 -0.4587
  182DOPC  H14C22290   1.928   2.034   2.791  0.0649 -0.2700 -0.5790
  182DOPC   C1522291   1.895   2.371   2.814 -0.1719  0.3475 -0.2042
  182DOPC  H15A22292   1.978   2.412   2.759 -2.0498  1.6608 -2.2318
  182DOPC  H15B22293   1.874   2.438   2.896  1.3140 -1.6491  1.9403
  182DOPC  H15C22294   1.806   2.367   2.753  0.6875 -0.7909 -1.4621
  182DOPC   C1122295   2.170   2.257   2.882  0.1471  0.5882  0.4370
  182DOPC  H11A22296   2.256   2.241   2.952 -0.1079  1.0392  0.8596
  182DOPC  H11B22297   2.178   2.182   2.800 -1.1275  0.8956  0.0101
  182DOPC     P22298   2.222   2.510   2.901  0.1177  0.1522 -0.0011
  182DOPC   O1322299   2.131   2.620   2.880 -0.1731  0.0712  0.6720
  182DOPC   O1422300   2.363   2.537   2.875 -0.4716 -0.6148 -0.1692
  182DOPC   O1222301   2.177   2.381   2.818 -0.0172 -0.0104  0.0098
  182DOPC   O1122302   2.199   2.468   3.049 -0.1947 -0.1466  1.1643
  182DOPC    C122303   2.305   2.474   3.142  0.4682 -0.2437 -0.5894
  182DOPC    HA22304   2.372   2.561   3.128 -0.7735  1.0030  0.7996
  182DOPC    HB22305   2.362   2.382   3.121 -2.0109 -1.9405 -0.3498
  182DOPC    C222306   2.245   2.486   3.284 -0.2464  0.1778  0.0769
  182DOPC    HS22307   2.199   2.587   3.291 -0.4271  0.1428 -0.4860
  182DOPC   O2122308   2.349   2.451   3.380 -0.1949  0.2000 -0.3177
  182DOPC   C2122309   2.427   2.558   3.400 -0.7566  0.0549 -0.2056
  182DOPC   O2222310   2.411   2.670   3.353  0.2620 -0.2522 -0.0743
  182DOPC   C2222311   2.531   2.531   3.509  0.1330  0.0857 -0.4751
  182DOPC   H2R22312   2.629   2.518   3.459  1.4270 -1.0570  2.1197
  182DOPC   H2S22313   2.511   2.439   3.568  2.4551 -0.2491 -0.1275
  182DOPC    C322314   2.121   2.391   3.300 -0.2933  0.1698 -0.4165
  182DOPC    HX22315   2.162   2.288   3.307  0.9716  0.7598  4.3940
  182DOPC    HY22316   2.037   2.400   3.228 -1.9223 -0.0285  1.3814
  182DOPC   O3122317   2.072   2.410   3.434 -0.2780 -0.3136 -1.0164
  182DOPC   C3122318   1.959   2.339   3.461 -0.4057  0.1887 -0.4887
  182DOPC   O3222319   1.892   2.277   3.380  0.3888 -0.2512  0.3665
  182DOPC   C3222320   1.919   2.350   3.610 -0.0911  0.3550 -0.7492
  182DOPC   H2X22321   1.890   2.457   3.624 -1.4727 -0.1145  0.2174
  182DOPC   H2Y22322   1.837   2.275   3.621 -0.1777  0.3737 -1.2586
  182DOPC   C2322323   2.544   2.656   3.607 -0.0195  0.4382 -0.3711
  182DOPC   H3R22324   2.454   2.650   3.671  0.8658 -1.7922  0.8024
  182DOPC   H3S22325   2.551   2.752   3.553 -0.9762  0.1729 -0.9745
  182DOPC   C2422326   2.674   2.641   3.688  0.3703 -0.0655 -0.0589
  182DOPC   H4R22327   2.685   2.739   3.740 -0.1243 -0.5225  0.9439
  182DOPC   H4S22328   2.758   2.623   3.618  2.0952  1.1971  1.5896
  182DOPC   C2522329   2.668   2.535   3.800  0.2065  0.4312 -0.1147
  182DOPC   H5R22330   2.761   2.543   3.860  0.5323  0.3593 -0.6125
  182DOPC   H5S22331   2.661   2.431   3.761 -2.5885  1.0816 -1.6311
  182DOPC   C2622332   2.550   2.551   3.897 -0.6866 -0.0289 -0.9182
  182DOPC   H6R22333   2.463   2.536   3.830  0.6608  0.8317 -2.9710
  182DOPC   H6S22334   2.554   2.653   3.941  1.0526 -0.8388  0.9648
  182DOPC   C2722335   2.556   2.445   4.007  0.9208  0.1598  0.6062
  182DOPC   H7R22336   2.661   2.420   4.036  0.8073 -0.4821  0.4939
  182DOPC   H7S22337   2.518   2.351   3.961  1.3427 -0.3228  1.2170
  182DOPC   C2822338   2.477   2.480   4.132  0.4517 -0.1324 -0.2163
  182DOPC   H8R22339   2.371   2.491   4.103  0.6678  3.2918 -0.0554
  182DOPC   H8S22340   2.518   2.573   4.178 -0.8850  0.0006  0.7615
  182DOPC   C2922341   2.486   2.363   4.223 -0.2865  0.0637  0.2451
  182DOPC   H9R22342   2.407   2.287   4.221  0.2565 -0.5433  1.1415
  182DOPC  C21022343   2.574   2.353   4.324 -0.9346  0.3491 -0.5679
  182DOPC  H10R22344   2.572   2.263   4.388  1.5328  1.3818  1.1068
  182DOPC  C21122345   2.679   2.452   4.364  0.4242  0.0505 -0.6758
  182DOPC  H11R22346   2.671   2.536   4.291  0.7039 -0.2933 -1.1093
  182DOPC  H11S22347   2.781   2.414   4.345 -0.1818 -1.6136 -0.7539
  182DOPC  C21222348   2.669   2.511   4.498  0.4409 -0.3968 -0.2648
  182DOPC  H12R22349   2.762   2.565   4.525 -0.9188  1.3775  1.1789
  182DOPC  H12S22350   2.670   2.429   4.572 -0.0912 -0.4705 -0.3301
  182DOPC  C21322351   2.543   2.602   4.514  0.1903  0.0112 -0.6424
  182DOPC  H13R22352   2.449   2.543   4.506 -1.0198  1.6251  0.7730
  182DOPC  H13S22353   2.541   2.684   4.440  0.3613  2.2749  1.7159
  182DOPC  C21422354   2.545   2.664   4.654 -0.0225  0.1482 -0.2366
  182DOPC  H14R22355   2.456   2.730   4.656 -1.9701 -2.1585 -3.3916
  182DOPC  H14S22356   2.642   2.718   4.660  1.2385 -1.7016 -2.5509
  182DOPC  C21522357   2.527   2.558   4.771  0.4595  0.8204 -0.4694
  182DOPC  H15R22358   2.592   2.469   4.757 -2.6094 -1.6293 -0.1180
  182DOPC  H15S22359   2.419   2.533   4.776  0.2212  1.9878  0.8173
  182DOPC  C21622360   2.552   2.629   4.901  1.1036 -0.7468 -0.0237
  182DOPC  H16R22361   2.492   2.723   4.905  0.8374 -0.8965 -0.4258
  182DOPC  H16S22362   2.653   2.675   4.905  0.4879  1.1509 -2.9190
  182DOPC  C21722363   2.506   2.548   5.021  0.1156 -0.1938  0.2763
  182DOPC  H17R22364   2.419   2.486   4.989  0.4434  0.4149 -2.0066
  182DOPC  H17S22365   2.464   2.609   5.104 -0.8818 -2.4505  1.5349
  182DOPC  C21822366   2.616   2.452   5.071  0.5774  0.2611  0.6929
  182DOPC  H18R22367   2.704   2.514   5.099 -0.3210  1.8465  0.1242
  182DOPC  H18S22368   2.649   2.379   4.994  0.3934  0.6825  0.2046
  182DOPC  H18T22369   2.580   2.387   5.154  0.1838  0.4331  0.6613
  182DOPC   C3322370   2.022   2.300   3.720  0.0200  0.2629 -0.2705
  182DOPC   H3X22371   2.090   2.385   3.740  1.6324 -1.3599  1.5415
  182DOPC   H3Y22372   2.090   2.223   3.677  0.9043  0.8942 -0.0256
  182DOPC   C3422373   1.957   2.272   3.857  0.1663 -0.2500 -0.4377
  182DOPC   H4X22374   1.906   2.173   3.865 -2.0049  0.7728 -0.7360
  182DOPC   H4Y22375   1.882   2.352   3.877 -0.2138 -0.4930 -0.8856
  182DOPC   C3522376   2.051   2.272   3.983 -0.4079  0.0340  0.5737
  182DOPC   H5X22377   2.119   2.359   3.976  0.3195 -0.4777  1.1053
  182DOPC   H5Y22378   2.110   2.178   3.985 -1.5070 -0.7473 -1.0007
  182DOPC   C3622379   1.976   2.273   4.117  0.1376 -1.2355  0.5407
  182DOPC   H6X22380   1.930   2.374   4.125  1.8258 -0.5853  3.8838
  182DOPC   H6Y22381   1.898   2.194   4.124  1.4916 -2.6259  0.3787
  182DOPC   C3722382   2.079   2.251   4.224  0.3012  0.5113  0.3512
  182DOPC   H7X22383   2.126   2.150   4.227  1.4621  1.0398  0.7326
  182DOPC   H7Y22384   2.160   2.324   4.202  0.5750  0.2347  0.4395
  182DOPC   C3822385   2.030   2.270   4.368  0.4318  0.1945 -0.2805
  182DOPC   H8X22386   1.937   2.212   4.385 -1.0390  1.3439 -3.5673
  182DOPC   H8Y22387   1.999   2.374   4.389  1.8615  0.1600  2.4295
  182DOPC   C3922388   2.138   2.240   4.463  0.5614 -0.3442  0.2989
  182DOPC   H9X22389   2.226   2.304   4.446 -1.0176  1.5935 -1.1383
  182DOPC  C31022390   2.138   2.135   4.548 -0.1180 -0.2563 -0.0525
  182DOPC  H10X22391   2.229   2.132   4.610  0.9793  1.0110 -1.5361
  182DOPC  C31122392   2.029   2.022   4.561 -0.3801  0.1827  0.1227
  182DOPC  H11X22393   2.076   1.923   4.579 -0.0113  0.4012  0.3765
  182DOPC  H11Y22394   1.988   2.013   4.458  0.0093  0.6345 -0.0813
  182DOPC  C31222395   1.924   2.037   4.671  0.9994  0.3335  1.3353
  182DOPC  H12X22396   1.851   1.954   4.663  1.9350 -0.3141 -2.9774
  182DOPC  H12Y22397   1.872   2.135   4.671 -0.9285 -0.6151 -0.9458
  182DOPC  C31322398   1.988   2.030   4.812 -0.4977 -0.2321  0.2892
  182DOPC  H13X22399   2.052   1.941   4.802 -0.6250 -0.6247  2.5226
  182DOPC  H13Y22400   2.067   2.107   4.825 -0.1274 -0.4091 -0.8284
  182DOPC  C31422401   1.896   2.021   4.935 -0.0291  0.2633  0.4575
  182DOPC  H14X22402   1.818   2.096   4.912  1.3991  1.7751  0.3482
  182DOPC  H14Y22403   1.839   1.926   4.929  0.8040 -0.2762  0.8241
  182DOPC  C31522404   1.983   2.038   5.058 -0.0641  0.1130 -0.5799
  182DOPC  H15X22405   2.038   2.134   5.053  1.8701 -1.0031 -3.6770
  182DOPC  H15Y22406   2.061   1.959   5.056  0.2217  0.3811 -0.1946
  182DOPC  C31622407   1.897   2.030   5.182 -0.6662 -0.4363  0.3064
  182DOPC  H16X22408   1.848   2.129   5.201 -2.7303 -1.1189 -1.1206
  182DOPC  H16Y22409   1.807   1.965   5.177 -2.8383  2.4437 -2.9324
  182DOPC  C31722410   1.979   1.999   5.317 -0.0038  0.0627 -0.2414
  182DOPC  H17X22411   2.034   1.902   5.309 -0.6659 -0.2675 -0.9459
  182DOPC  H17Y22412   2.055   2.077   5.341 -0.4034 -0.3861  2.8927
  182DOPC  C31822413   1.877   1.996   5.437 -0.6073 -0.0822  0.0873
  182DOPC  H18X22414   1.789   1.939   5.400 -1.5840 -0.2135  2.3865
  182DOPC  H18Y22415   1.918   1.941   5.525  1.0771 -1.7301 -1.6345
  182DOPC  H18Z22416   1.847   2.098   5.467  1.4234  0.7299 -0.5053
  183DOPC     N22417   0.707   5.542   1.943 -0.3201 -0.6069 -0.6767
  183DOPC   C1222418   0.757   5.503   2.085 -0.2820 -0.2362 -0.3932
  183DOPC  H12A22419   0.836   5.569   2.119 -0.1344 -0.2191 -0.7625
  183DOPC  H12B22420   0.803   5.405   2.080 -0.1278 -0.1108 -3.9133
  183DOPC   C1322421   0.578   5.481   1.911 -0.0572  0.0815 -0.3409
  183DOPC  H13A22422   0.604   5.377   1.926 -0.4432 -0.3778 -2.5029
  183DOPC  H13B22423   0.505   5.509   1.985  2.3308  1.7235  1.5283
  183DOPC  H13C22424   0.547   5.484   1.807  1.2267 -2.4724 -0.8927
  183DOPC   C1422425   0.794   5.497   1.833 -0.3326 -0.7895 -0.7317
  183DOPC  H14A22426   0.752   5.516   1.736  0.5778 -2.8243 -1.5956
  183DOPC  H14B22427   0.888   5.550   1.841 -1.2145  0.9338 -1.4171
  183DOPC  H14C22428   0.819   5.392   1.842  3.6987  0.0703  0.5461
  183DOPC   C1522429   0.695   5.695   1.928 -0.9986  0.3778  0.0397
  183DOPC  H15A22430   0.648   5.733   2.018 -1.8386  1.0182 -0.6541
  183DOPC  H15B22431   0.628   5.716   1.846 -1.4189 -1.2540 -0.0600
  183DOPC  H15C22432   0.793   5.738   1.912 -1.3630  0.4496 -2.4324
  183DOPC   C1122433   0.650   5.504   2.201 -0.3115  0.6450  0.4971
  183DOPC  H11A22434   0.574   5.432   2.163  1.6067 -0.3903 -1.6395
  183DOPC  H11B22435   0.698   5.458   2.290 -0.8451 -1.8725 -0.4337
  183DOPC     P22436   0.658   5.726   2.331  0.1205 -0.0925  0.2256
  183DOPC   O1322437   0.582   5.851   2.323  0.1243 -0.0973  0.1006
  183DOPC   O1422438   0.806   5.741   2.311 -0.0710  0.2325  0.0259
  183DOPC   O1222439   0.600   5.630   2.224  0.2687  0.1648 -0.0552
  183DOPC   O1122440   0.635   5.663   2.472 -0.3182 -0.0598 -0.6546
  183DOPC    C122441   0.532   5.578   2.519  0.1112  0.0550 -0.5575
  183DOPC    HA22442   0.571   5.502   2.590  3.0326 -0.4120 -2.5172
  183DOPC    HB22443   0.485   5.518   2.438  0.6486 -1.1864  0.0224
  183DOPC    C222444   0.428   5.660   2.597  0.0578 -0.2200  0.1063
  183DOPC    HS22445   0.407   5.752   2.538  0.1065 -0.4865 -0.3287
  183DOPC   O2122446   0.479   5.698   2.726  0.2596  0.3926 -0.1237
  183DOPC   C2122447   0.410   5.793   2.785 -0.0912  0.4352  0.3470
  183DOPC   O2222448   0.318   5.849   2.729 -0.0703  0.2316 -0.3465
  183DOPC   C2222449   0.461   5.822   2.929  0.0257  0.4536 -0.4238
  183DOPC   H2R22450   0.572   5.826   2.922  0.0999 -2.0381 -1.8389
  183DOPC   H2S22451   0.443   5.738   3.000  0.4600  1.5256  0.9921
  183DOPC    C322452   0.287   5.581   2.615 -0.0073 -0.4394 -0.0607
  183DOPC    HX22453   0.241   5.557   2.517 -0.7516  0.5111  0.0378
  183DOPC    HY22454   0.219   5.639   2.681  2.2930 -0.4972  2.5040
  183DOPC   O3122455   0.314   5.455   2.676  0.2452 -0.5232 -0.6759
  183DOPC   C3122456   0.292   5.446   2.810  0.3557 -0.4079 -0.7478
  183DOPC   O3222457   0.267   5.541   2.885  0.0069  0.6797 -0.2196
  183DOPC   C3222458   0.312   5.297   2.849 -0.0980  0.3016 -0.2117
  183DOPC   H2X22459   0.210   5.259   2.869 -0.7773  2.8487  1.6655
  183DOPC   H2Y22460   0.365   5.241   2.768 -1.8268 -0.4057 -0.9025
  183DOPC   C2322461   0.393   5.946   2.986 -0.3066  0.3968 -0.1141
  183DOPC   H3R22462   0.283   5.930   2.983 -0.1068 -1.1361 -0.2409
  183DOPC   H3S22463   0.427   6.037   2.933  2.0832 -0.3709 -0.0269
  183DOPC   C2422464   0.434   5.974   3.128 -0.8003 -0.3205 -0.3916
  183DOPC   H4R22465   0.545   5.968   3.137 -0.6786 -2.3592 -2.1639
  183DOPC   H4S22466   0.387   5.902   3.198 -2.0074 -1.3108 -2.1246
  183DOPC   C2522467   0.391   6.112   3.174  0.1087 -0.4457  0.2183
  183DOPC   H5R22468   0.281   6.122   3.157  0.3697 -0.0472 -1.3852
  183DOPC   H5S22469   0.428   6.199   3.114  1.5748  0.4457  2.2933
  183DOPC   C2622470   0.437   6.132   3.314  0.7897  0.0129 -0.8550
  183DOPC   H6R22471   0.548   6.129   3.322  0.6951 -0.0226  0.6925
  183DOPC   H6S22472   0.402   6.044   3.372 -0.4335  0.4373 -0.9260
  183DOPC   C2722473   0.379   6.252   3.385 -0.2622  0.0275  0.8506
  183DOPC   H7R22474   0.269   6.253   3.374 -0.3418 -0.0831  1.5628
  183DOPC   H7S22475   0.417   6.344   3.337 -0.5790 -0.9282 -1.3551
  183DOPC   C2822476   0.389   6.252   3.545  0.1469 -0.1540  0.0139
  183DOPC   H8R22477   0.369   6.147   3.575  2.4963 -0.2877  1.3602
  183DOPC   H8S22478   0.313   6.318   3.589  0.1615  0.0069 -0.1980
  183DOPC   C2922479   0.534   6.268   3.588  0.1237 -0.4395 -0.1426
  183DOPC   H9R22480   0.606   6.204   3.534  0.8020 -2.1078  2.5510
  183DOPC  C21022481   0.576   6.342   3.697  0.1546 -0.2721  0.8745
  183DOPC  H10R22482   0.683   6.339   3.723 -0.3823 -2.3483  3.1965
  183DOPC  C21122483   0.486   6.413   3.792 -0.8623 -0.0133 -0.1435
  183DOPC  H11R22484   0.415   6.477   3.735 -0.4515  0.4870 -0.1004
  183DOPC  H11S22485   0.537   6.489   3.855 -0.4513  0.0649 -0.5652
  183DOPC  C21222486   0.402   6.313   3.879 -0.5010 -0.7531  0.4651
  183DOPC  H12R22487   0.368   6.232   3.811  0.6146 -1.3854  0.6412
  183DOPC  H12S22488   0.322   6.376   3.924  1.1227  1.3844  0.5291
  183DOPC  C21322489   0.493   6.266   3.985 -0.0171  0.1625 -0.3299
  183DOPC  H13R22490   0.593   6.232   3.950  0.1164  0.9042 -0.6747
  183DOPC  H13S22491   0.442   6.180   4.034  0.4879 -0.5163 -0.9666
  183DOPC  C21422492   0.529   6.363   4.104  0.4566 -0.1630 -0.8973
  183DOPC  H14R22493   0.430   6.393   4.142 -0.3426 -3.3943 -0.0750
  183DOPC  H14S22494   0.595   6.450   4.081  0.7665  0.2702  1.3893
  183DOPC  C21522495   0.587   6.284   4.223  0.0786  0.1879 -0.2087
  183DOPC  H15R22496   0.697   6.271   4.217 -0.0414 -0.3183 -1.7744
  183DOPC  H15S22497   0.536   6.185   4.214  0.5886 -0.1607  0.5458
  183DOPC  C21622498   0.571   6.345   4.363  0.1001 -0.9010  1.1121
  183DOPC  H16R22499   0.462   6.362   4.376  0.4101  2.7258  0.2107
  183DOPC  H16S22500   0.609   6.449   4.369 -1.4798 -0.0601 -1.4309
  183DOPC  C21722501   0.626   6.248   4.471  0.2055  0.2775  0.4222
  183DOPC  H17R22502   0.720   6.213   4.423  0.0437 -0.6689  0.7721
  183DOPC  H17S22503   0.563   6.158   4.484  2.6422 -1.8470 -1.2734
  183DOPC  C21822504   0.651   6.295   4.618  0.4803  0.3997  0.1097
  183DOPC  H18R22505   0.741   6.356   4.636  1.0394  0.1214 -1.5600
  183DOPC  H18S22506   0.662   6.199   4.673 -0.8046  0.5483  0.6667
  183DOPC  H18T22507   0.569   6.357   4.661 -2.2936 -0.6214 -3.2168
  183DOPC   C3322508   0.392   5.273   2.982 -0.1631  0.2015 -0.1964
  183DOPC   H3X22509   0.343   5.184   3.027  0.5406  0.6259  1.5109
  183DOPC   H3Y22510   0.382   5.352   3.060 -0.5755  0.1666 -0.2125
  183DOPC   C3422511   0.540   5.231   2.955  0.3419 -0.7225  0.2963
  183DOPC   H4X22512   0.591   5.327   2.930 -2.7737  1.2428  0.9656
  183DOPC   H4Y22513   0.528   5.161   2.869 -2.0147 -0.6814  0.5183
  183DOPC   C3522514   0.610   5.164   3.073 -0.2912  0.3761  0.7648
  183DOPC   H5X22515   0.710   5.130   3.039  0.2531  1.3906  1.3260
  183DOPC   H5Y22516   0.559   5.071   3.107 -3.8411  1.3620 -1.3473
  183DOPC   C3622517   0.628   5.258   3.186 -0.0962  0.0357 -0.0673
  183DOPC   H6X22518   0.683   5.347   3.148 -0.4949  0.0912 -0.5259
  183DOPC   H6Y22519   0.528   5.280   3.227  0.7745  0.0608  2.1552
  183DOPC   C3722520   0.704   5.182   3.304  0.4666  0.1100 -0.6486
  183DOPC   H7X22521   0.683   5.252   3.388 -0.1255 -1.7178  0.7842
  183DOPC   H7Y22522   0.649   5.090   3.335  2.3045 -1.2258 -1.1783
  183DOPC   C3822523   0.849   5.149   3.280 -0.3565 -0.0438  0.2962
  183DOPC   H8X22524   0.836   5.068   3.205 -0.0612  0.1729  0.0021
  183DOPC   H8Y22525   0.894   5.105   3.371 -0.1305 -1.5544 -0.5142
  183DOPC   C3922526   0.936   5.259   3.221 -0.1643  0.0961 -0.0361
  183DOPC   H9X22527   0.925   5.279   3.113 -2.1194 -0.6356 -0.0054
  183DOPC  C31022528   1.023   5.337   3.291  0.5974 -0.0564  0.3284
  183DOPC  H10X22529   1.078   5.416   3.239  0.8002  0.7618  1.7299
  183DOPC  C31122530   1.040   5.328   3.442 -0.6523  0.0552 -0.2928
  183DOPC  H11X22531   1.127   5.270   3.479 -0.0694  1.0604 -0.0813
  183DOPC  H11Y22532   0.950   5.294   3.497 -0.6311  1.0461  0.3773
  183DOPC  C31222533   1.094   5.467   3.484  0.5382 -1.0303 -0.4421
  183DOPC  H12X22534   1.028   5.548   3.447 -1.5965 -0.6676  3.6164
  183DOPC  H12Y22535   1.195   5.482   3.439  0.2091 -1.6374 -1.4015
  183DOPC  C31322536   1.097   5.486   3.635 -0.2592  0.3031 -0.0388
  183DOPC  H13X22537   0.989   5.473   3.656 -1.3088  2.3384 -3.2623
  183DOPC  H13Y22538   1.167   5.425   3.696 -0.5018  0.3621  0.3035
  183DOPC  C31422539   1.135   5.629   3.684 -0.3803  0.8873 -0.7779
  183DOPC  H14X22540   1.236   5.659   3.651  0.7833  1.4089  2.8618
  183DOPC  H14Y22541   1.062   5.705   3.648 -0.9922 -0.0909 -1.6461
  183DOPC  C31522542   1.142   5.654   3.841  0.4799  0.0363  0.6328
  183DOPC  H15X22543   1.132   5.763   3.854  0.3277  0.2707 -1.1687
  183DOPC  H15Y22544   1.235   5.610   3.883  2.8111  2.6337 -1.4303
  183DOPC  C31622545   1.025   5.598   3.917  0.0281 -0.2304 -0.0477
  183DOPC  H16X22546   0.933   5.650   3.883  0.8602  0.6972 -0.9574
  183DOPC  H16Y22547   1.024   5.488   3.897  0.5311 -0.0830 -0.9543
  183DOPC  C31722548   1.042   5.632   4.065 -0.7265 -0.3284  0.2330
  183DOPC  H17X22549   1.134   5.582   4.102 -2.2520 -2.6501  1.1593
  183DOPC  H17Y22550   1.058   5.742   4.070  0.4229 -0.5259  1.2298
  183DOPC  C31822551   0.924   5.580   4.146 -0.7744 -0.1956 -0.4047
  183DOPC  H18X22552   0.833   5.636   4.115  0.8890  2.4534 -0.8830
  183DOPC  H18Y22553   0.901   5.474   4.121  0.7183  0.0249 -3.1112
  183DOPC  H18Z22554   0.938   5.594   4.255 -1.8630 -3.1884  0.2246
  184DOPC     N22555   5.125   1.196   1.578  0.3887 -0.0241  0.1751
  184DOPC   C1222556   5.224   1.075   1.575  0.1191 -0.1250  0.1749
  184DOPC  H12A22557   5.310   1.120   1.526 -0.0397  0.8037  0.7170
  184DOPC  H12B22558   5.187   0.996   1.511  3.3637 -0.5286 -1.4288
  184DOPC   C1322559   5.188   1.330   1.603 -0.0449  0.4760  0.0527
  184DOPC  H13A22560   5.254   1.346   1.518 -2.4757  1.4102 -1.7912
  184DOPC  H13B22561   5.124   1.416   1.617 -1.7716 -0.7918  0.1101
  184DOPC  H13C22562   5.256   1.316   1.685  0.3638 -0.8956 -0.4979
  184DOPC   C1422563   5.017   1.158   1.676  0.1051  0.4351  0.0808
  184DOPC  H14A22564   4.967   1.067   1.647 -1.8090  1.8689 -1.3656
  184DOPC  H14B22565   5.067   1.147   1.771  0.7350 -1.3304 -0.4154
  184DOPC  H14C22566   4.934   1.226   1.687 -2.4285 -2.5299  0.9141
  184DOPC   C1522567   5.055   1.205   1.450  0.2243  0.0335  0.1823
  184DOPC  H15A22568   4.989   1.290   1.443  1.1132  0.5945 -2.2833
  184DOPC  H15B22569   4.996   1.117   1.432  2.5366 -1.7181  0.6832
  184DOPC  H15C22570   5.125   1.234   1.373  2.0659  0.4786  1.9382
  184DOPC   C1122571   5.272   1.026   1.716  0.7259  0.8071  0.6253
  184DOPC  H11A22572   5.190   0.994   1.783  0.4629  0.3047  0.0784
  184DOPC  H11B22573   5.326   0.929   1.710  1.8450  1.2438  2.8441
  184DOPC     P22574   5.486   1.164   1.746 -0.1086  0.0970  0.3288
  184DOPC   O1322575   5.522   1.300   1.783  0.3832 -0.8909 -0.0579
  184DOPC   O1422576   5.502   1.133   1.605 -0.4467 -0.2963  0.5911
  184DOPC   O1222577   5.339   1.129   1.784 -0.1152  0.6424  0.0957
  184DOPC   O1122578   5.559   1.060   1.839  0.3279  0.0059 -0.5952
  184DOPC    C122579   5.507   1.005   1.964 -0.0055  0.1585  0.1476
  184DOPC    HA22580   5.552   0.903   1.975 -0.5397 -0.0520  0.4199
  184DOPC    HB22581   5.397   0.993   1.956  0.0049 -0.1447  0.4536
  184DOPC    C222582   5.551   1.085   2.084  0.9857 -0.1113 -0.0403
  184DOPC    HS22583   5.657   1.108   2.062  1.0679 -0.5457 -0.1222
  184DOPC   O2122584   5.533   0.999   2.199  0.2377 -0.1659 -0.7017
  184DOPC   C2122585   5.621   0.913   2.230 -0.2202  0.0081 -0.4862
  184DOPC   O2222586   5.720   0.881   2.162  0.5077 -1.1425 -0.1493
  184DOPC   C2222587   5.588   0.846   2.357 -0.4499 -0.2042 -0.8503
  184DOPC   H2R22588   5.477   0.832   2.355 -0.6734  1.0528  0.8097
  184DOPC   H2S22589   5.604   0.923   2.435  2.2105  1.1346 -2.5756
  184DOPC    C322590   5.473   1.212   2.109  0.1403  0.2509  0.1298
  184DOPC    HX22591   5.366   1.192   2.130  0.5528 -0.3847  1.8309
  184DOPC    HY22592   5.477   1.274   2.017 -0.8975  0.2265  0.0603
  184DOPC   O3122593   5.532   1.293   2.210 -0.2217 -0.4725 -0.3520
  184DOPC   C3122594   5.489   1.287   2.335 -0.0895  0.1484  0.4428
  184DOPC   O3222595   5.384   1.233   2.377 -0.2375  0.2653 -0.2896
  184DOPC   C3222596   5.582   1.375   2.416 -0.6653  0.4413 -0.0523
  184DOPC   H2X22597   5.686   1.336   2.408 -1.5143 -2.2520  1.1908
  184DOPC   H2Y22598   5.580   1.475   2.367 -0.4460 -0.5466 -2.1751
  184DOPC   C2322599   5.667   0.716   2.388  0.0310  0.1862 -0.5131
  184DOPC   H3R22600   5.778   0.717   2.396  0.0783 -3.9397  2.0813
  184DOPC   H3S22601   5.649   0.629   2.322  4.1927 -2.4841  1.4214
  184DOPC   C2422602   5.634   0.653   2.529  0.3985 -0.1298  0.1160
  184DOPC   H4R22603   5.525   0.634   2.524  0.2074  1.2196 -2.7757
  184DOPC   H4S22604   5.670   0.733   2.597 -2.3701  0.5044  0.9354
  184DOPC   C2522605   5.722   0.537   2.562 -0.1607  0.6072  0.7992
  184DOPC   H5R22606   5.827   0.574   2.562  0.8410 -2.0546  0.5459
  184DOPC   H5S22607   5.711   0.458   2.485  1.3056 -0.2719  1.4592
  184DOPC   C2622608   5.705   0.481   2.700  0.1439 -0.0758 -0.5055
  184DOPC   H6R22609   5.744   0.555   2.774  0.9638  0.2683 -1.2614
  184DOPC   H6S22610   5.752   0.380   2.712 -0.3381 -0.5797 -2.5104
  184DOPC   C2722611   5.556   0.463   2.736  0.0414 -0.4530 -1.3635
  184DOPC   H7R22612   5.493   0.401   2.670 -2.8525  1.5832 -0.7424
  184DOPC   H7S22613   5.504   0.561   2.729 -0.0937 -0.2888  1.0028
  184DOPC   C2822614   5.542   0.412   2.880  0.1297 -0.1727  0.6642
  184DOPC   H8R22615   5.610   0.324   2.884  0.2082 -0.3805 -2.4232
  184DOPC   H8S22616   5.438   0.376   2.898 -0.3356  0.2987 -0.9364
  184DOPC   C2922617   5.574   0.509   2.985  0.7263  0.3831  0.2209
  184DOPC   H9R22618   5.540   0.609   2.955 -1.4740 -0.9262 -2.0673
  184DOPC  C21022619   5.649   0.482   3.103 -0.1294 -0.0667 -0.1920
  184DOPC  H10R22620   5.636   0.551   3.187  1.4046  0.6689 -0.5165
  184DOPC  C21122621   5.717   0.356   3.149  1.2165  0.1544  0.2776
  184DOPC  H11R22622   5.818   0.381   3.189  1.7272  1.4945 -1.7428
  184DOPC  H11S22623   5.733   0.282   3.068  1.7996 -0.2964  0.7962
  184DOPC  C21222624   5.634   0.299   3.261  0.0918 -0.3082  0.0910
  184DOPC  H12R22625   5.690   0.210   3.300 -0.0399  0.0632  1.1653
  184DOPC  H12S22626   5.536   0.265   3.223 -0.7861  3.4824 -1.4826
  184DOPC  C21322627   5.608   0.401   3.379 -0.1298 -0.6347 -0.4053
  184DOPC  H13R22628   5.518   0.460   3.351 -0.0223 -0.6919 -0.8815
  184DOPC  H13S22629   5.693   0.471   3.387  0.4460 -1.4270  0.9255
  184DOPC  C21422630   5.586   0.328   3.512  0.5016 -0.3730 -1.0456
  184DOPC  H14R22631   5.667   0.255   3.530  0.6881  0.1940  0.6034
  184DOPC  H14S22632   5.488   0.275   3.507  0.9212 -1.6560  1.9553
  184DOPC  C21522633   5.587   0.424   3.638  0.3311 -0.1449  0.5820
  184DOPC  H15R22634   5.501   0.493   3.622  1.0095  0.8020  0.9193
  184DOPC  H15S22635   5.687   0.473   3.645 -0.6406  2.0126  0.1796
  184DOPC  C21622636   5.563   0.352   3.771  0.0225 -0.5299  0.5418
  184DOPC  H16R22637   5.655   0.292   3.789 -0.5350 -1.7549 -0.5372
  184DOPC  H16S22638   5.478   0.283   3.751  0.1192 -0.3751 -0.4725
  184DOPC  C21722639   5.544   0.442   3.891  0.6389 -0.2619 -0.2507
  184DOPC  H17R22640   5.507   0.381   3.977  2.1802 -0.5354  0.2516
  184DOPC  H17S22641   5.456   0.507   3.872 -1.7153 -2.9525  0.6030
  184DOPC  C21822642   5.671   0.509   3.941  0.3361 -0.1221 -0.4066
  184DOPC  H18R22643   5.652   0.570   4.032  0.2954 -1.1647  0.2904
  184DOPC  H18S22644   5.714   0.577   3.864  0.4124 -0.3614 -0.5744
  184DOPC  H18T22645   5.757   0.447   3.971  1.5372  0.9486 -1.5021
  184DOPC   C3322646   5.544   1.366   2.562  0.5849  0.2972 -0.0491
  184DOPC   H3X22647   5.623   1.423   2.615  1.2199  0.1253 -0.7947
  184DOPC   H3Y22648   5.547   1.265   2.610 -0.8575 -0.8009 -2.1159
  184DOPC   C3422649   5.413   1.450   2.599 -0.1484 -0.5163  0.4028
  184DOPC   H4X22650   5.320   1.400   2.563 -0.8142  1.6282 -1.0096
  184DOPC   H4Y22651   5.413   1.547   2.545  2.1252 -0.0955  1.0508
  184DOPC   C3522652   5.403   1.457   2.757 -0.3700 -0.0133  0.3774
  184DOPC   H5X22653   5.482   1.522   2.800 -1.1550  1.6688 -0.6412
  184DOPC   H5Y22654   5.403   1.355   2.801 -0.7549 -1.2376 -2.3216
  184DOPC   C3622655   5.264   1.511   2.805  0.2177  0.1243  0.1033
  184DOPC   H6X22656   5.238   1.607   2.757 -1.7590 -0.4538 -0.0541
  184DOPC   H6Y22657   5.173   1.454   2.778  0.3295 -1.2510  2.3187
  184DOPC   C3722658   5.264   1.525   2.960  1.2041  0.3668  0.1467
  184DOPC   H7X22659   5.292   1.429   3.008  0.5085 -0.3888 -0.9102
  184DOPC   H7Y22660   5.340   1.600   2.990  0.3032  1.1710  0.4770
  184DOPC   C3822661   5.129   1.560   3.011  0.4320 -0.1820 -0.2088
  184DOPC   H8X22662   5.059   1.473   3.013  0.0776  0.1060  1.3147
  184DOPC   H8Y22663   5.077   1.632   2.945 -0.3068 -0.9955 -0.5424
  184DOPC   C3922664   5.131   1.617   3.152 -0.7419  0.6999 -0.2892
  184DOPC   H9X22665   5.167   1.721   3.160  2.0885 -0.1234 -1.2107
  184DOPC  C31022666   5.110   1.565   3.266  0.2462  0.1688  0.2352
  184DOPC  H10X22667   5.089   1.630   3.353 -1.5789  2.2245 -1.6133
  184DOPC  C31122668   5.084   1.412   3.284 -0.2659 -0.4678  0.0314
  184DOPC  H11X22669   5.068   1.359   3.187  2.5861 -3.4874  1.0324
  184DOPC  H11Y22670   4.995   1.396   3.349  0.2964  1.8446  1.4623
  184DOPC  C31222671   5.208   1.332   3.342  0.1072 -0.4533  0.0951
  184DOPC  H12X22672   5.296   1.337   3.274  0.0052  0.2446  0.0116
  184DOPC  H12Y22673   5.191   1.222   3.341  1.7930 -0.7461  0.3175
  184DOPC  C31322674   5.226   1.375   3.490  0.5876 -0.2857  0.0672
  184DOPC  H13X22675   5.313   1.315   3.524  0.8652  0.0575 -0.0276
  184DOPC  H13Y22676   5.260   1.481   3.494  2.4455 -0.7115 -2.0406
  184DOPC  C31422677   5.100   1.354   3.584  0.4053 -0.0976  0.4114
  184DOPC  H14X22678   5.025   1.435   3.568  1.8380  1.6049  1.8323
  184DOPC  H14Y22679   5.052   1.255   3.569 -1.8445  0.7101  1.7691
  184DOPC  C31522680   5.139   1.365   3.734 -0.3285 -0.5445  0.5136
  184DOPC  H15X22681   5.049   1.325   3.787 -0.5546 -1.6553 -0.6414
  184DOPC  H15Y22682   5.150   1.471   3.764  1.2634 -0.4804 -0.1772
  184DOPC  C31622683   5.259   1.285   3.784 -0.2963  0.1498 -0.1162
  184DOPC  H16X22684   5.266   1.188   3.729 -0.7474  0.6765 -1.1144
  184DOPC  H16Y22685   5.347   1.345   3.750  0.3535  0.3966  1.8939
  184DOPC  C31722686   5.262   1.256   3.934 -0.4537 -0.0050  0.5003
  184DOPC  H17X22687   5.169   1.198   3.952 -1.2753  1.4992  1.3286
  184DOPC  H17Y22688   5.353   1.196   3.958  0.9507  0.6768 -2.6567
  184DOPC  C31822689   5.258   1.380   4.024 -0.0568  0.9447 -0.5388
  184DOPC  H18X22690   5.158   1.429   4.028 -1.0849 -0.9746 -1.6657
  184DOPC  H18Y22691   5.295   1.360   4.127  0.9089 -2.7839 -1.4810
  184DOPC  H18Z22692   5.317   1.460   3.975  2.0495 -0.3701 -0.2374
  185DOPC     N22693   0.146   6.511   2.223 -0.4921  0.8821  0.5248
  185DOPC   C1222694   0.049   6.471   2.335  0.6771 -0.0232  0.1260
  185DOPC  H12A22695   0.100   6.430   2.422  1.9900 -1.3226 -1.1891
  185DOPC  H12B22696  -0.017   6.394   2.299  0.5234  0.7813 -1.3897
  185DOPC   C1322697   0.219   6.389   2.180 -0.1943 -0.1852 -0.3428
  185DOPC  H13A22698   0.287   6.409   2.099  2.6493  0.2897  2.0130
  185DOPC  H13B22699   0.275   6.346   2.261  2.0196  0.4508 -1.4627
  185DOPC  H13C22700   0.143   6.321   2.144 -2.2187  1.3728  0.7057
  185DOPC   C1422701   0.241   6.616   2.265 -0.2718 -0.4728 -0.4183
  185DOPC  H14A22702   0.297   6.580   2.350  0.2606 -0.9116 -0.9410
  185DOPC  H14B22703   0.310   6.640   2.186  0.8289 -0.4111  0.5408
  185DOPC  H14C22704   0.178   6.701   2.285 -1.9441 -2.0552  1.5064
  185DOPC   C1522705   0.074   6.553   2.098 -0.0378  0.3898  0.5828
  185DOPC  H15A22706  -0.003   6.626   2.118  1.4873  1.8836  1.3166
  185DOPC  H15B22707   0.021   6.472   2.052  0.9396 -0.8887  1.6385
  185DOPC  H15C22708   0.143   6.597   2.027 -1.3056  1.2157 -0.1805
  185DOPC   C1122709  -0.042   6.585   2.394  0.6218 -0.2327 -0.0279
  185DOPC  H11A22710  -0.092   6.552   2.487  0.8502  0.2293  0.2632
  185DOPC  H11B22711   0.004   6.680   2.428  1.9617 -1.1061  0.6905
  185DOPC     P22712  -0.294   6.570   2.303 -0.1792  0.4480 -0.4861
  185DOPC   O1322713  -0.291   6.423   2.300  0.2955 -0.0697 -0.1225
  185DOPC   O1422714  -0.360   6.641   2.191 -0.1929  0.1714 -0.3660
  185DOPC   O1222715  -0.144   6.622   2.300  0.9650 -0.6229  0.1721
  185DOPC   O1122716  -0.351   6.625   2.435 -1.0901 -0.1437 -0.8135
  185DOPC    C122717  -0.362   6.764   2.446  0.4705 -0.4583 -0.6174
  185DOPC    HA22718  -0.465   6.788   2.411  0.6587 -0.8177 -1.4470
  185DOPC    HB22719  -0.285   6.823   2.391 -0.1309  0.0566 -0.9224
  185DOPC    C222720  -0.349   6.821   2.586  0.3555  0.5886  0.1893
  185DOPC    HS22721  -0.245   6.802   2.619  0.2749 -2.4882 -1.0820
  185DOPC   O2122722  -0.436   6.746   2.675  0.3586 -0.2210 -0.1377
  185DOPC   C2122723  -0.386   6.720   2.798  0.2216 -0.0421 -0.5538
  185DOPC   O2222724  -0.280   6.766   2.837 -0.7803 -0.1270  0.2119
  185DOPC   C2222725  -0.482   6.630   2.876  0.3616  0.0710 -0.2256
  185DOPC   H2R22726  -0.543   6.567   2.807  1.0675 -1.0049  0.0925
  185DOPC   H2S22727  -0.540   6.691   2.948  3.1080  2.2593  0.3036
  185DOPC    C322728  -0.380   6.975   2.615 -0.6811  0.0255  0.1339
  185DOPC    HX22729  -0.487   6.972   2.583 -0.6908 -2.1441  0.2091
  185DOPC    HY22730  -0.320   7.030   2.540  1.5398 -0.2415  1.6415
  185DOPC   O3122731  -0.380   7.026   2.751 -0.0403 -0.3722 -0.0206
  185DOPC   C3122732  -0.269   7.084   2.779  0.3914 -0.0156 -0.7473
  185DOPC   O3222733  -0.174   7.088   2.705 -0.3362  0.1157  0.0188
  185DOPC   C3222734  -0.277   7.134   2.920  0.2359  0.3266  0.3033
  185DOPC   H2X22735  -0.204   7.217   2.929 -0.0803  0.8520 -1.5000
  185DOPC   H2Y22736  -0.381   7.151   2.954 -0.3931 -2.6564  0.2156
  185DOPC   C2322737  -0.409   6.526   2.971  0.5303 -0.1709  0.8177
  185DOPC   H3R22738  -0.333   6.473   2.910  1.6416  1.5331  0.6426
  185DOPC   H3S22739  -0.476   6.450   3.015  1.4033 -0.1599  2.2505
  185DOPC   C2422740  -0.345   6.594   3.097 -0.5027  0.5297  0.9656
  185DOPC   H4R22741  -0.282   6.675   3.055  0.9123 -1.8718 -1.9858
  185DOPC   H4S22742  -0.273   6.523   3.143 -0.3173  0.4408  0.5419
  185DOPC   C2522743  -0.441   6.651   3.199  0.2383  0.3646 -0.0989
  185DOPC   H5R22744  -0.496   6.740   3.162  0.9436  1.7333  1.9634
  185DOPC   H5S22745  -0.387   6.692   3.287 -1.9052  0.5207  1.2237
  185DOPC   C2622746  -0.544   6.560   3.263  0.2126  0.8191 -0.3185
  185DOPC   H6R22747  -0.593   6.501   3.183 -0.6179  2.9684 -1.4688
  185DOPC   H6S22748  -0.622   6.625   3.308 -0.0773  1.4692 -1.7161
  185DOPC   C2722749  -0.490   6.457   3.363 -0.4373  0.4277  0.2231
  185DOPC   H7R22750  -0.416   6.507   3.430 -0.3003 -0.2050  0.5536
  185DOPC   H7S22751  -0.431   6.383   3.305  0.3274  2.7401 -2.1780
  185DOPC   C2822752  -0.600   6.396   3.459 -0.0318 -0.9634  0.3141
  185DOPC   H8R22753  -0.662   6.480   3.496  0.0679 -0.6427 -0.2379
  185DOPC   H8S22754  -0.553   6.341   3.543  2.2187  0.1791 -0.1434
  185DOPC   C2922755  -0.690   6.300   3.390  0.1237 -0.4621 -0.2079
  185DOPC   H9R22756  -0.641   6.203   3.368 -0.9078 -0.9380 -0.4725
  185DOPC  C21022757  -0.815   6.316   3.346  0.5916  0.3148 -0.1472
  185DOPC  H10R22758  -0.864   6.230   3.297  4.1622 -1.2263 -1.3188
  185DOPC  C21122759  -0.897   6.443   3.374 -0.7904 -0.7026 -0.4654
  185DOPC  H11R22760  -0.897   6.508   3.284  0.3061  1.7604  1.2225
  185DOPC  H11S22761  -0.863   6.509   3.456 -0.7422  0.0205 -1.0529
  185DOPC  C21222762  -1.036   6.394   3.399  0.4533  0.0563  0.1782
  185DOPC  H12R22763  -1.090   6.343   3.316 -1.4497 -1.8392  2.4206
  185DOPC  H12S22764  -1.088   6.488   3.425  0.2573 -0.4813  1.8524
  185DOPC  C21322765  -1.050   6.294   3.519  0.5633  0.3640  0.6943
  185DOPC  H13R22766  -0.980   6.327   3.599  0.4842  0.1512  0.8514
  185DOPC  H13S22767  -1.014   6.196   3.481 -3.2574 -1.4874  1.4071
  185DOPC  C21422768  -1.198   6.282   3.564 -1.1189  0.8479  0.2496
  185DOPC  H14R22769  -1.256   6.278   3.470 -0.1077  0.7480 -0.3927
  185DOPC  H14S22770  -1.215   6.372   3.627  0.9980  0.3485  1.6407
  185DOPC  C21522771  -1.235   6.160   3.657  0.1456  0.1545  0.2296
  185DOPC  H15R22772  -1.173   6.169   3.748 -0.0527 -1.5878  0.5733
  185DOPC  H15S22773  -1.204   6.069   3.601  0.8722  1.6716 -1.9601
  185DOPC  C21622774  -1.391   6.153   3.694 -0.0945 -0.1361 -0.0306
  185DOPC  H16R22775  -1.445   6.115   3.605 -0.2346 -0.4690  0.1911
  185DOPC  H16S22776  -1.429   6.256   3.714  3.1225  0.7355  2.4674
  185DOPC  C21722777  -1.422   6.070   3.823 -0.1301 -0.5533  0.1666
  185DOPC  H17R22778  -1.391   6.128   3.913  0.3611 -2.2052  1.1035
  185DOPC  H17S22779  -1.360   5.978   3.819  1.0304  0.1888  0.3008
  185DOPC  C21822780  -1.574   6.039   3.833 -0.4175  0.1310 -0.7608
  185DOPC  H18R22781  -1.635   6.131   3.848  0.9101  0.7665  1.0185
  185DOPC  H18S22782  -1.584   5.969   3.919  0.3475  0.9175 -0.0288
  185DOPC  H18T22783  -1.606   5.983   3.742 -0.4581 -0.8125 -0.1874
  185DOPC   C3322784  -0.232   7.021   3.014 -0.1410  0.5205 -0.0729
  185DOPC   H3X22785  -0.138   6.988   2.966  1.2031  1.1665  2.0111
  185DOPC   H3Y22786  -0.310   6.943   3.028 -0.6770  1.3971  2.2521
  185DOPC   C3422787  -0.190   7.064   3.153 -0.1240  0.3109  0.5580
  185DOPC   H4X22788  -0.100   7.129   3.150 -1.5261  2.3943  0.6592
  185DOPC   H4Y22789  -0.162   6.970   3.204 -0.5809 -0.7923 -1.1373
  185DOPC   C3522790  -0.290   7.131   3.239  0.2447 -0.3162 -0.4025
  185DOPC   H5X22791  -0.391   7.143   3.195 -0.4730 -0.0850  1.2539
  185DOPC   H5Y22792  -0.258   7.235   3.263 -0.3862  0.0056 -0.9017
  185DOPC   C3622793  -0.310   7.050   3.361  0.3918  0.6255  0.1052
  185DOPC   H6X22794  -0.371   6.964   3.324 -0.7184  1.1443  0.6900
  185DOPC   H6Y22795  -0.218   7.009   3.408 -0.7457 -2.0714  0.1942
  185DOPC   C3722796  -0.411   7.107   3.459  0.0493 -0.0591 -1.1747
  185DOPC   H7X22797  -0.369   7.199   3.506 -1.2735 -0.2966  0.5582
  185DOPC   H7Y22798  -0.506   7.127   3.405 -1.3726 -1.3976  0.6839
  185DOPC   C3822799  -0.443   7.023   3.582 -0.2952  0.3484 -0.2625
  185DOPC   H8X22800  -0.532   7.060   3.637  1.0291  0.8622  1.6529
  185DOPC   H8Y22801  -0.357   7.028   3.652 -0.5128  0.2347  0.0128
  185DOPC   C3922802  -0.466   6.885   3.530  0.0173  0.3396 -0.2033
  185DOPC   H9X22803  -0.526   6.886   3.438 -0.5725  2.1018  0.1601
  185DOPC  C31022804  -0.432   6.763   3.591  0.4638 -0.3128  0.2159
  185DOPC  H10X22805  -0.462   6.666   3.550  0.2544 -0.8316  1.5558
  185DOPC  C31122806  -0.366   6.756   3.728  0.0632  0.0181  0.1147
  185DOPC  H11X22807  -0.366   6.855   3.778  0.6607 -0.3196  0.8012
  185DOPC  H11Y22808  -0.263   6.718   3.715  0.4657  1.3899 -0.9874
  185DOPC  C31222809  -0.442   6.646   3.805 -0.2379  0.4237 -0.5163
  185DOPC  H12X22810  -0.447   6.553   3.745 -1.8763 -0.4121  0.8349
  185DOPC  H12Y22811  -0.549   6.670   3.822 -0.7466 -2.6343  1.6446
  185DOPC  C31322812  -0.371   6.604   3.931  0.1064  0.4312 -0.2356
  185DOPC  H13X22813  -0.267   6.568   3.918 -0.8148 -2.4437 -0.5173
  185DOPC  H13Y22814  -0.364   6.698   3.990  0.8394  0.8676 -0.9930
  185DOPC  C31422815  -0.428   6.493   4.023 -0.3925  0.4418 -0.2612
  185DOPC  H14X22816  -0.521   6.522   4.075 -0.9595 -2.2917  0.4091
  185DOPC  H14Y22817  -0.453   6.414   3.949 -0.0909  0.0898  0.0045
  185DOPC  C31522818  -0.332   6.439   4.132  0.4274 -0.3115 -0.3116
  185DOPC  H15X22819  -0.240   6.394   4.090  1.5308  1.3490  0.2142
  185DOPC  H15Y22820  -0.394   6.363   4.184 -1.1418  0.2084 -1.3711
  185DOPC  C31622821  -0.291   6.549   4.231  0.0403  0.2899 -0.2179
  185DOPC  H16X22822  -0.244   6.632   4.173 -1.2382 -0.8640 -3.0961
  185DOPC  H16Y22823  -0.377   6.597   4.283  1.8597  0.8347  2.4746
  185DOPC  C31722824  -0.206   6.502   4.354 -0.9294  0.0806 -0.0940
  185DOPC  H17X22825  -0.104   6.477   4.319 -1.0249  0.8497 -0.9512
  185DOPC  H17Y22826  -0.188   6.583   4.427 -1.1581 -0.6590  0.8135
  185DOPC  C31822827  -0.263   6.382   4.430  0.4649  0.5820  0.2968
  185DOPC  H18X22828  -0.372   6.398   4.448 -0.4125 -1.2464 -2.6241
  185DOPC  H18Y22829  -0.258   6.288   4.371 -1.8405  1.0108 -0.7186
  185DOPC  H18Z22830  -0.204   6.376   4.524  2.6428  1.9929 -0.9052
  186DOPC     N22831   0.177   3.604   1.783 -0.3477  0.1440 -0.0011
  186DOPC   C1222832   0.268   3.560   1.902  0.0139  0.4355 -0.0323
  186DOPC  H12A22833   0.371   3.568   1.872  0.6121 -3.2482  0.5751
  186DOPC  H12B22834   0.253   3.453   1.906 -0.3714  0.5207  1.9147
  186DOPC   C1322835   0.217   3.739   1.740 -0.1011 -0.2173 -0.3403
  186DOPC  H13A22836   0.191   3.814   1.813  1.4169  1.7303 -1.7112
  186DOPC  H13B22837   0.320   3.764   1.719 -0.5690 -0.3123 -3.0746
  186DOPC  H13C22838   0.163   3.772   1.653 -0.6906  0.3855  0.2446
  186DOPC   C1422839   0.029   3.594   1.823 -0.2611  0.3246 -0.1437
  186DOPC  H14A22840   0.004   3.640   1.917 -1.2385  0.6951 -0.5835
  186DOPC  H14B22841  -0.036   3.634   1.747 -0.9130  2.4121  1.4354
  186DOPC  H14C22842  -0.008   3.493   1.834 -1.5456  0.7926 -0.0975
  186DOPC   C1522843   0.191   3.514   1.657 -0.1588 -0.1032 -1.0475
  186DOPC  H15A22844   0.130   3.561   1.581 -1.8186 -0.5337 -0.0487
  186DOPC  H15B22845   0.158   3.412   1.672  0.1293 -0.0513 -0.0060
  186DOPC  H15C22846   0.292   3.504   1.621 -0.9433 -0.8118 -3.2324
  186DOPC   C1122847   0.261   3.617   2.049 -0.1605 -0.3635  0.2189
  186DOPC  H11A22848   0.156   3.607   2.082 -0.2013 -3.4387 -0.4988
  186DOPC  H11B22849   0.322   3.562   2.124  0.0387  0.3620  0.6011
  186DOPC     P22850   0.438   3.802   2.065  0.5450  0.4649  0.4754
  186DOPC   O1322851   0.485   3.904   1.967  0.1530 -0.0453 -0.2152
  186DOPC   O1422852   0.525   3.683   2.095 -0.2151 -0.3166  0.3504
  186DOPC   O1222853   0.292   3.758   2.026  0.1762  0.4931 -0.6283
  186DOPC   O1122854   0.421   3.871   2.207  0.5057  0.1799  0.2646
  186DOPC    C122855   0.297   3.910   2.253 -0.2159 -0.2679 -0.0252
  186DOPC    HA22856   0.216   3.834   2.255 -1.3869  0.9420  1.5830
  186DOPC    HB22857   0.257   3.988   2.184 -1.3923 -0.2210  0.6843
  186DOPC    C222858   0.298   3.958   2.404 -0.6906  0.2354 -0.1655
  186DOPC    HS22859   0.379   4.035   2.411  1.8025 -2.1859 -0.7247
  186DOPC   O2122860   0.321   3.845   2.495  0.3747 -0.4012  0.1775
  186DOPC   C2122861   0.397   3.881   2.600  0.6223  0.2435 -0.0178
  186DOPC   O2222862   0.449   3.991   2.619 -0.1205  0.0568  0.6794
  186DOPC   C2222863   0.413   3.757   2.691 -0.0262  0.0119  0.1072
  186DOPC   H2R22864   0.510   3.762   2.745 -0.1310  2.9717  0.1524
  186DOPC   H2S22865   0.421   3.671   2.621 -0.5245  1.5009 -1.8764
  186DOPC    C322866   0.161   4.030   2.443 -0.1238 -0.6982 -0.2356
  186DOPC    HX22867   0.077   3.959   2.425 -1.5345  0.9403 -0.4160
  186DOPC    HY22868   0.143   4.119   2.378  0.0504  1.2093  2.1719
  186DOPC   O3122869   0.173   4.090   2.576  0.3760  0.4349 -0.1386
  186DOPC   C3122870   0.047   4.123   2.623  0.8294  0.0158  0.9693
  186DOPC   O3222871  -0.060   4.110   2.564 -0.0558 -0.3259  0.2976
  186DOPC   C3222872   0.069   4.189   2.756 -0.2231 -0.0614  0.0262
  186DOPC   H2X22873   0.111   4.288   2.729 -2.5875  0.7340 -0.9557
  186DOPC   H2Y22874  -0.033   4.202   2.799 -0.8369 -0.7256 -1.1659
  186DOPC   C2322875   0.299   3.736   2.794  0.0042  0.6120 -0.4605
  186DOPC   H3R22876   0.244   3.652   2.747  0.8590 -0.0116 -0.3702
  186DOPC   H3S22877   0.221   3.814   2.809 -0.0829  0.5148 -0.4061
  186DOPC   C2422878   0.355   3.706   2.937 -0.1731  0.2572 -0.6138
  186DOPC   H4R22879   0.406   3.794   2.980 -1.8560  0.7283  0.5245
  186DOPC   H4S22880   0.411   3.610   2.944 -0.4487  0.1479  0.2046
  186DOPC   C2522881   0.240   3.695   3.045 -0.0069 -0.4682 -0.7863
  186DOPC   H5R22882   0.197   3.593   3.040 -0.6057 -0.1820 -1.8909
  186DOPC   H5S22883   0.156   3.767   3.034  0.2269 -0.2479 -1.1563
  186DOPC   C2622884   0.307   3.700   3.187  0.2018  0.1870  0.0529
  186DOPC   H6R22885   0.381   3.783   3.192 -0.5396  0.9048 -0.5459
  186DOPC   H6S22886   0.371   3.611   3.200 -0.2163  0.1532  2.1096
  186DOPC   C2722887   0.206   3.699   3.299  0.0175  1.1492 -0.2334
  186DOPC   H7R22888   0.155   3.601   3.306 -2.7422  2.4466 -0.7884
  186DOPC   H7S22889   0.122   3.771   3.282 -2.0076 -0.2429  2.9892
  186DOPC   C2822890   0.274   3.738   3.424  0.1444  0.0683  0.0751
  186DOPC   H8R22891   0.300   3.845   3.416  0.0335  0.0943  0.0675
  186DOPC   H8S22892   0.367   3.676   3.428  0.4695  0.1675 -3.1052
  186DOPC   C2922893   0.198   3.719   3.552  0.2085  0.1342  0.3498
  186DOPC   H9R22894   0.197   3.613   3.582  1.0712 -0.1900 -0.6907
  186DOPC  C21022895   0.139   3.807   3.631  0.2153 -0.1859 -0.0347
  186DOPC  H10R22896   0.091   3.772   3.724  1.0738  1.0248  0.9048
  186DOPC  C21122897   0.143   3.957   3.621  0.7918 -0.0124  0.4216
  186DOPC  H11R22898   0.037   3.990   3.611 -0.1510 -3.4457 -3.4238
  186DOPC  H11S22899   0.192   3.986   3.526 -1.6793 -3.5172 -2.1468
  186DOPC  C21222900   0.211   4.026   3.737  0.1540 -0.4463 -0.8910
  186DOPC  H12R22901   0.195   4.135   3.721 -2.9510 -0.6477  0.1729
  186DOPC  H12S22902   0.321   4.015   3.727  0.3897 -0.6335  1.4338
  186DOPC  C21322903   0.156   3.992   3.882  0.0771 -0.8102 -0.1238
  186DOPC  H13R22904   0.204   4.053   3.962  0.2083  0.6391 -1.2515
  186DOPC  H13S22905   0.179   3.887   3.909  1.0108 -0.4587  0.5174
  186DOPC  C21422906   0.002   4.028   3.898 -0.4436  0.0606  0.5946
  186DOPC  H14R22907  -0.042   3.942   3.843  0.0910 -0.3658  0.8173
  186DOPC  H14S22908  -0.016   4.125   3.848 -1.0902 -0.7321 -0.7621
  186DOPC  C21522909  -0.044   4.030   4.041  0.4139 -1.0311 -0.2412
  186DOPC  H15R22910   0.019   4.104   4.094 -0.5797  0.8828 -1.6002
  186DOPC  H15S22911  -0.049   3.930   4.088 -2.0825 -0.8192  0.0775
  186DOPC  C21622912  -0.183   4.096   4.066 -0.2837  0.2157  0.2669
  186DOPC  H16R22913  -0.257   4.026   4.021  0.4830  0.2805 -1.1699
  186DOPC  H16S22914  -0.188   4.185   4.000  0.9040  1.2425  1.5210
  186DOPC  C21722915  -0.210   4.123   4.210 -0.0992 -0.7346 -0.5269
  186DOPC  H17R22916  -0.292   4.196   4.225  1.3301  0.9925 -0.6956
  186DOPC  H17S22917  -0.126   4.180   4.257  0.7879 -1.8237 -0.7414
  186DOPC  C21822918  -0.245   3.995   4.292  0.0429 -0.0393 -0.6622
  186DOPC  H18R22919  -0.156   3.930   4.279  0.3106 -0.0123  0.8063
  186DOPC  H18S22920  -0.341   3.955   4.254  0.5178 -1.4634 -0.4093
  186DOPC  H18T22921  -0.261   4.021   4.399 -0.8923 -1.9509 -0.3029
  186DOPC   C3322922   0.164   4.111   2.849  0.5852  0.7497 -0.2045
  186DOPC   H3X22923   0.269   4.108   2.814  1.6441  0.3991  2.7297
  186DOPC   H3Y22924   0.134   4.004   2.850 -0.0170  0.7494 -3.5725
  186DOPC   C3422925   0.181   4.169   2.991  0.4390 -0.6068 -0.5434
  186DOPC   H4X22926   0.089   4.175   3.053  0.9351  2.5739  0.0539
  186DOPC   H4Y22927   0.211   4.276   2.993 -1.3186 -0.0836  0.0246
  186DOPC   C3522928   0.283   4.091   3.082  0.1764 -0.2773 -0.1492
  186DOPC   H5X22929   0.385   4.087   3.038  1.6360 -1.9350  3.0634
  186DOPC   H5Y22930   0.250   3.990   3.114 -1.4361  0.7301  1.6202
  186DOPC   C3622931   0.292   4.175   3.218 -0.8507 -0.5009 -0.0215
  186DOPC   H6X22932   0.373   4.125   3.276  0.1507 -0.8114 -1.6271
  186DOPC   H6Y22933   0.326   4.278   3.194 -1.1226 -0.4079 -0.0054
  186DOPC   C3722934   0.165   4.190   3.302  0.3396  0.5578 -0.4690
  186DOPC   H7X22935   0.082   4.239   3.245  0.5944 -1.8167 -3.1079
  186DOPC   H7Y22936   0.125   4.091   3.335  1.5255  0.1260 -0.2909
  186DOPC   C3822937   0.184   4.261   3.429  0.6138 -0.5037 -0.6135
  186DOPC   H8X22938   0.265   4.200   3.474  0.3452 -1.4254 -1.3595
  186DOPC   H8Y22939   0.091   4.255   3.489 -0.1173 -1.7680 -1.8087
  186DOPC   C3922940   0.226   4.404   3.415  0.6298  0.3496  0.5085
  186DOPC   H9X22941   0.144   4.475   3.393  1.4282  0.9823 -0.5046
  186DOPC  C31022942   0.345   4.462   3.438  0.1970 -0.7609 -0.6297
  186DOPC  H10X22943   0.363   4.569   3.423  0.5436 -0.8762 -1.0893
  186DOPC  C31122944   0.465   4.387   3.490 -0.2582 -0.0938  0.0105
  186DOPC  H11X22945   0.556   4.424   3.438  0.8374 -1.4107  0.8797
  186DOPC  H11Y22946   0.470   4.277   3.476  3.3225  0.0993 -1.3626
  186DOPC  C31222947   0.488   4.422   3.637  0.5509  0.6047  1.2491
  186DOPC  H12X22948   0.473   4.532   3.648  1.7988  0.6785  2.5328
  186DOPC  H12Y22949   0.590   4.388   3.665  0.1696 -1.2606  0.5408
  186DOPC  C31322950   0.386   4.354   3.726 -0.5975 -0.0850  0.6898
  186DOPC  H13X22951   0.287   4.366   3.677 -0.4019 -1.6476 -0.1702
  186DOPC  H13Y22952   0.408   4.247   3.748  1.0664  0.6369  2.8483
  186DOPC  C31422953   0.382   4.422   3.862  0.3481 -0.6806 -0.2599
  186DOPC  H14X22954   0.476   4.406   3.919  0.7531  0.8588 -0.4566
  186DOPC  H14Y22955   0.385   4.533   3.856 -2.0645 -0.4333  1.4889
  186DOPC  C31522956   0.255   4.385   3.940 -0.2287  0.2841 -0.6491
  186DOPC  H15X22957   0.249   4.277   3.967 -0.3098  0.5805  0.5980
  186DOPC  H15Y22958   0.161   4.403   3.885 -0.6573  0.3415  0.0940
  186DOPC  C31622959   0.230   4.477   4.062 -0.2619  0.0683  0.3012
  186DOPC  H16X22960   0.309   4.451   4.137  0.0166  0.1059  0.0227
  186DOPC  H16Y22961   0.223   4.582   4.025 -0.0226 -0.6179 -1.8222
  186DOPC  C31722962   0.105   4.443   4.139  0.2021 -0.2103 -0.3907
  186DOPC  H17X22963   0.020   4.458   4.068  1.1177  0.7622 -1.3272
  186DOPC  H17Y22964   0.107   4.335   4.162  2.2820 -0.1907 -0.2970
  186DOPC  C31822965   0.089   4.534   4.263  0.0045  0.0809  0.3900
  186DOPC  H18X22966  -0.009   4.507   4.308 -1.2395  1.0705 -1.6422
  186DOPC  H18Y22967   0.172   4.526   4.337  0.3956  2.0585  0.2088
  186DOPC  H18Z22968   0.093   4.641   4.234 -2.6194  0.5680  1.5679
  187DOPC     N22969   5.787   1.874   1.865  0.0388  0.2146 -0.8904
  187DOPC   C1222970   5.845   1.894   2.004 -0.1850  0.4215 -0.0292
  187DOPC  H12A22971   5.794   1.976   2.053 -0.9123 -0.0674  0.0513
  187DOPC  H12B22972   5.950   1.916   2.002  0.4667 -2.1944  0.9877
  187DOPC   C1322973   5.811   1.995   1.777  0.2071  1.0736 -0.0226
  187DOPC  H13A22974   5.913   2.010   1.746  0.2937  0.8353  0.1366
  187DOPC  H13B22975   5.759   1.983   1.683 -1.9981  0.2488  1.2181
  187DOPC  H13C22976   5.771   2.087   1.818  0.9054  0.1102  3.1395
  187DOPC   C1422977   5.641   1.859   1.871 -0.8670 -0.1653 -0.2522
  187DOPC  H14A22978   5.604   1.955   1.905  2.5611  1.1251  0.2574
  187DOPC  H14B22979   5.606   1.839   1.771 -3.3051  0.0182  0.4964
  187DOPC  H14C22980   5.622   1.768   1.927  0.0211  0.3418  0.9071
  187DOPC   C1522981   5.847   1.755   1.798  0.0339 -0.5342  0.0182
  187DOPC  H15A22982   5.952   1.770   1.778 -0.2801 -0.0277 -1.3319
  187DOPC  H15B22983   5.790   1.737   1.708  0.8665  2.1615 -1.1360
  187DOPC  H15C22984   5.847   1.668   1.862 -1.4137 -0.9924 -0.5415
  187DOPC   C1122985   5.834   1.780   2.102  0.6660  0.2706  0.2014
  187DOPC  H11A22986   5.844   1.835   2.199  1.4131  3.3743 -1.5110
  187DOPC  H11B22987   5.726   1.754   2.102  0.2155  1.9254 -2.0709
  187DOPC     P22988   6.067   1.686   2.138  0.2276 -0.3318 -0.5561
  187DOPC   O1322989   6.112   1.825   2.115  0.2064 -0.1279  0.0224
  187DOPC   O1422990   6.148   1.573   2.090 -0.3183 -0.0398  0.6672
  187DOPC   O1222991   5.925   1.672   2.079  0.9632  0.1827 -0.2900
  187DOPC   O1122992   6.049   1.668   2.289 -0.0555 -0.6472 -0.1238
  187DOPC    C122993   6.040   1.542   2.352 -0.2913 -0.5981  0.5605
  187DOPC    HA22994   6.103   1.468   2.299  1.7833  0.5817  1.2837
  187DOPC    HB22995   5.934   1.510   2.354 -0.3763 -0.3266  0.5262
  187DOPC    C222996   6.071   1.556   2.506  0.0473  0.2649  0.4486
  187DOPC    HS22997   6.031   1.647   2.556  0.8441 -1.0297  3.6850
  187DOPC   O2122998   6.220   1.556   2.521  0.4228 -0.1430 -0.0092
  187DOPC   C2122999   6.273   1.676   2.518 -0.2876 -0.0067 -0.3103
  187DOPC   O2223000   6.213   1.783   2.504  0.0282  0.0642 -0.1369
  187DOPC   C2223001   6.421   1.668   2.542  0.1616  0.0065  0.5940
  187DOPC   H2R23002   6.465   1.744   2.473  2.3644 -0.8112  1.0201
  187DOPC   H2S23003   6.460   1.569   2.510 -0.2476 -0.1734  0.6570
  187DOPC    C323004   6.009   1.442   2.580 -0.5478 -0.4446  0.2766
  187DOPC    HX23005   6.048   1.351   2.530  1.5297  0.9474 -0.7578
  187DOPC    HY23006   5.899   1.440   2.566 -0.6090  0.7574  0.4855
  187DOPC   O3123007   6.042   1.445   2.719  0.2727  0.2353 -0.5166
  187DOPC   C3123008   5.992   1.335   2.780  0.3600  0.6534 -0.2653
  187DOPC   O3223009   5.940   1.240   2.725  0.0579 -0.1804 -0.2047
  187DOPC   C3223010   6.029   1.345   2.924 -0.0608 -0.2373  0.2163
  187DOPC   H2X23011   6.092   1.434   2.945  0.9143 -0.3605 -1.9598
  187DOPC   H2Y23012   5.934   1.347   2.983 -1.2699  1.0197 -1.6669
  187DOPC   C2323013   6.478   1.675   2.687 -0.6132  0.4759 -0.6144
  187DOPC   H3R23014   6.587   1.684   2.667 -0.3172  0.0096  0.7208
  187DOPC   H3S23015   6.456   1.584   2.746 -0.8867  0.7934 -0.2179
  187DOPC   C2423016   6.446   1.803   2.767  0.1497  0.5369  0.3761
  187DOPC   H4R23017   6.445   1.885   2.692  2.2348 -1.4642 -2.0427
  187DOPC   H4S23018   6.533   1.810   2.836  1.4164 -1.7562 -0.8583
  187DOPC   C2523019   6.314   1.796   2.847  0.0514 -0.6010  0.3685
  187DOPC   H5R23020   6.231   1.775   2.776  1.8268  1.7555 -2.6798
  187DOPC   H5S23021   6.306   1.900   2.886  1.3671 -0.7085  0.9865
  187DOPC   C2623022   6.310   1.722   2.976 -0.1872 -0.3706  0.0833
  187DOPC   H6R23023   6.409   1.717   3.026 -0.6977  0.2627  1.1918
  187DOPC   H6S23024   6.276   1.618   2.955 -0.1644 -0.1578 -1.1087
  187DOPC   C2723025   6.213   1.791   3.073 -0.0189  0.0252 -0.7022
  187DOPC   H7R23026   6.128   1.833   3.015 -0.6926  2.0326  1.5538
  187DOPC   H7S23027   6.257   1.875   3.130 -2.7178  1.7379 -0.9401
  187DOPC   C2823028   6.147   1.691   3.163 -0.6126 -0.3307 -0.7295
  187DOPC   H8R23029   6.083   1.624   3.103  0.8336 -1.5088 -1.0252
  187DOPC   H8S23030   6.089   1.744   3.241  0.3326 -1.3067  0.7148
  187DOPC   C2923031   6.241   1.605   3.246 -0.2314  0.2266  0.1833
  187DOPC   H9R23032   6.347   1.624   3.224  0.0466 -0.0692  1.1852
  187DOPC  C21023033   6.207   1.512   3.334  0.4404  0.3651 -0.4331
  187DOPC  H10R23034   6.295   1.475   3.388  0.3522  0.4671 -0.2180
  187DOPC  C21123035   6.067   1.469   3.373 -0.4615  0.8579 -0.2884
  187DOPC  H11R23036   6.028   1.409   3.287  3.0012 -3.6096  0.8874
  187DOPC  H11S23037   6.005   1.561   3.375 -0.4782  0.8318  1.4214
  187DOPC  C21223038   6.049   1.388   3.504 -0.2122  0.4500  1.0890
  187DOPC  H12R23039   6.101   1.290   3.496 -0.7811  0.3095 -2.4771
  187DOPC  H12S23040   5.942   1.361   3.493  0.1874 -0.8501  0.1640
  187DOPC  C21323041   6.083   1.468   3.632 -0.0796 -0.1889 -0.4345
  187DOPC  H13R23042   6.051   1.573   3.622  0.5244  0.0945  0.4092
  187DOPC  H13S23043   6.192   1.452   3.647 -0.4241 -0.7711  1.8371
  187DOPC  C21423044   6.032   1.410   3.763 -0.0417 -0.0911  0.6335
  187DOPC  H14R23045   6.078   1.310   3.772 -1.6310 -0.7477  1.9735
  187DOPC  H14S23046   5.923   1.394   3.749  0.1012 -0.2267 -0.4297
  187DOPC  C21523047   6.056   1.507   3.872  0.0213 -0.3469  0.6840
  187DOPC  H15R23048   6.159   1.550   3.868  0.1239 -0.5725 -3.3153
  187DOPC  H15S23049   6.051   1.460   3.972 -0.5053 -1.7081  0.0476
  187DOPC  C21623050   5.959   1.631   3.866  0.2328 -0.6826 -0.1551
  187DOPC  H16R23051   5.852   1.600   3.877 -0.5538  1.5244 -1.0458
  187DOPC  H16S23052   5.973   1.673   3.764 -1.7367  0.6690  0.0662
  187DOPC  C21723053   6.003   1.733   3.978  0.2757  0.7944  0.7050
  187DOPC  H17R23054   6.101   1.780   3.955  0.3031  0.0280 -0.9027
  187DOPC  H17S23055   6.012   1.666   4.067 -0.4700  3.2032  2.6949
  187DOPC  C21823056   5.894   1.840   4.000 -0.3541 -0.2254 -1.2957
  187DOPC  H18R23057   5.798   1.807   4.044 -0.8297  1.4670 -0.9966
  187DOPC  H18S23058   5.875   1.901   3.909  0.7976  2.5840  0.2067
  187DOPC  H18T23059   5.933   1.913   4.075 -2.0400  0.3923 -0.9701
  187DOPC   C3323060   6.126   1.236   2.962  0.1695  0.9683  0.0789
  187DOPC   H3X23061   6.219   1.241   2.901  0.5692 -1.2013  0.4504
  187DOPC   H3Y23062   6.080   1.135   2.960  1.5820  0.2688  1.1038
  187DOPC   C3423063   6.181   1.231   3.106  0.1751 -0.8675 -0.6613
  187DOPC   H4X23064   6.106   1.270   3.177  0.2324 -1.9545  0.0093
  187DOPC   H4Y23065   6.270   1.298   3.103  0.9743 -1.8698 -0.2019
  187DOPC   C3523066   6.227   1.093   3.155  0.4567  0.0993  0.3606
  187DOPC   H5X23067   6.296   1.042   3.085  0.9472  1.1349  0.0730
  187DOPC   H5Y23068   6.143   1.021   3.144  0.6480  0.0610 -0.9784
  187DOPC   C3623069   6.278   1.103   3.303  0.1484  0.6345  0.3285
  187DOPC   H6X23070   6.289   1.213   3.315 -0.9939  0.5371  2.7665
  187DOPC   H6Y23071   6.188   1.085   3.364 -0.7949  2.4229 -0.4670
  187DOPC   C3723072   6.393   1.006   3.352 -0.2566  0.3892 -0.3079
  187DOPC   H7X23073   6.485   1.037   3.299 -0.3965 -0.2185 -0.9365
  187DOPC   H7Y23074   6.409   1.007   3.462 -2.3724 -0.9843  0.0826
  187DOPC   C3823075   6.362   0.857   3.322 -0.6431 -0.4703  0.8165
  187DOPC   H8X23076   6.348   0.838   3.213  1.8399  1.7405  0.0239
  187DOPC   H8Y23077   6.261   0.837   3.364 -1.1662 -0.0967 -0.2120
  187DOPC   C3923078   6.462   0.754   3.378  0.1542  0.6742 -0.1169
  187DOPC   H9X23079   6.541   0.727   3.305  0.8468  3.5327 -0.5429
  187DOPC  C31023080   6.467   0.699   3.501 -0.4386 -0.0539 -0.2618
  187DOPC  H10X23081   6.547   0.626   3.521  0.2081  0.6964 -0.0405
  187DOPC  C31123082   6.379   0.722   3.625  0.2586 -0.3487  0.3726
  187DOPC  H11X23083   6.285   0.664   3.636  1.3808 -2.9627 -2.2610
  187DOPC  H11Y23084   6.347   0.828   3.631 -3.2728 -1.2104 -0.7379
  187DOPC  C31223085   6.458   0.713   3.756 -0.5458 -0.1738 -0.0674
  187DOPC  H12X23086   6.495   0.609   3.759  0.1109  0.0308 -0.7564
  187DOPC  H12Y23087   6.390   0.734   3.842  0.1298  2.3255 -0.0487
  187DOPC  C31323088   6.571   0.819   3.782 -0.1665  0.5648 -0.1831
  187DOPC  H13X23089   6.615   0.855   3.686  0.5553 -0.3622 -0.2119
  187DOPC  H13Y23090   6.528   0.914   3.819  0.6682  0.0262  2.3614
  187DOPC  C31423091   6.678   0.771   3.882  0.8060 -0.8508 -0.0175
  187DOPC  H14X23092   6.697   0.663   3.866 -0.7813 -0.9896 -1.2357
  187DOPC  H14Y23093   6.770   0.832   3.876  0.0508  0.2234 -1.1520
  187DOPC  C31523094   6.633   0.787   4.023 -0.2718  0.1453 -0.3014
  187DOPC  H15X23095   6.538   0.735   4.045 -0.4826  0.7879  0.3162
  187DOPC  H15Y23096   6.607   0.894   4.041 -2.9246  0.0541 -2.8139
  187DOPC  C31623097   6.738   0.746   4.128 -0.2385  0.1739 -0.4547
  187DOPC  H16X23098   6.758   0.638   4.114 -0.5871  0.1923 -1.0955
  187DOPC  H16Y23099   6.831   0.802   4.103 -0.4145  0.7937  0.2108
  187DOPC  C31723100   6.687   0.780   4.269  0.2171 -1.0490  0.2579
  187DOPC  H17X23101   6.772   0.758   4.336  1.9449  0.5125 -1.2842
  187DOPC  H17Y23102   6.680   0.890   4.284  3.3447 -0.6829 -0.2285
  187DOPC  C31823103   6.567   0.703   4.320  0.8580 -0.2511  0.7534
  187DOPC  H18X23104   6.568   0.598   4.285 -0.8669 -0.3162  0.8151
  187DOPC  H18Y23105   6.555   0.709   4.430  1.0581 -1.5367  0.8631
  187DOPC  H18Z23106   6.469   0.742   4.286  0.5683  1.1048  2.9409
  188DOPC     N23107   2.391   0.406   3.333  1.2751 -0.7239  0.1771
  188DOPC   C1223108   2.472   0.497   3.424  0.6381  0.5726 -0.3613
  188DOPC  H12A23109   2.527   0.569   3.364 -1.8406  3.0344  0.0903
  188DOPC  H12B23110   2.548   0.443   3.478  0.2213  2.6565  2.5726
  188DOPC   C1323111   2.294   0.490   3.250  0.0401  0.5222  0.1216
  188DOPC  H13A23112   2.350   0.572   3.209 -0.9081  0.0495 -2.2602
  188DOPC  H13B23113   2.241   0.428   3.180  1.0420 -1.7001  1.2220
  188DOPC  H13C23114   2.220   0.532   3.316 -1.1275  0.3995 -1.0865
  188DOPC   C1423115   2.313   0.309   3.414  0.6146  0.3446  0.0308
  188DOPC  H14A23116   2.237   0.347   3.481  0.9310  1.0602 -0.0113
  188DOPC  H14B23117   2.251   0.251   3.348  0.1630 -1.3442  1.8287
  188DOPC  H14C23118   2.374   0.241   3.472 -0.9117 -1.6363 -0.5549
  188DOPC   C1523119   2.473   0.323   3.244  0.1153 -0.3662  0.4347
  188DOPC  H15A23120   2.529   0.389   3.180 -0.6108  0.6712  0.8439
  188DOPC  H15B23121   2.418   0.250   3.187 -0.0688  0.5063 -0.5453
  188DOPC  H15C23122   2.540   0.260   3.300 -1.2390 -1.4456  0.8991
  188DOPC   C1123123   2.388   0.586   3.521  0.2070  0.0870 -0.1284
  188DOPC  H11A23124   2.325   0.507   3.567  0.7166 -1.4489 -1.9222
  188DOPC  H11B23125   2.465   0.624   3.592  0.6646 -2.3566  0.7999
  188DOPC     P23126   2.380   0.806   3.386  0.2636  0.2537 -0.0264
  188DOPC   O1323127   2.279   0.876   3.303 -0.2943  0.0642 -0.0100
  188DOPC   O1423128   2.495   0.758   3.312  0.1971 -0.0051  0.3898
  188DOPC   O1223129   2.311   0.682   3.452 -0.1512  0.6101 -0.2315
  188DOPC   O1123130   2.437   0.902   3.503  0.7004  0.0854  0.1070
  188DOPC    C123131   2.346   0.990   3.566  0.0169  0.3135 -0.5328
  188DOPC    HA23132   2.267   1.027   3.497 -0.1635 -1.6237 -1.4355
  188DOPC    HB23133   2.399   1.083   3.595 -1.0495  2.1611 -3.9778
  188DOPC    C223134   2.275   0.919   3.687  0.0039 -0.2998 -0.3075
  188DOPC    HS23135   2.222   0.828   3.651 -2.3078  0.8022  0.1131
  188DOPC   O2123136   2.179   1.007   3.740  0.0424  0.1284  0.1152
  188DOPC   C2123137   2.058   1.007   3.681 -0.3976 -0.0108  0.7734
  188DOPC   O2223138   2.024   0.924   3.594 -0.6919  0.1415  0.1169
  188DOPC   C2223139   1.979   1.125   3.730  0.7028 -0.4917 -0.2657
  188DOPC   H2R23140   1.956   1.190   3.642 -1.4641  1.3003  1.4970
  188DOPC   H2S23141   2.038   1.177   3.809  1.8979 -1.1072 -0.7210
  188DOPC    C323142   2.379   0.887   3.795 -0.0809  0.0852  0.0561
  188DOPC    HX23143   2.452   0.971   3.791  0.6843 -0.5663 -3.7961
  188DOPC    HY23144   2.438   0.798   3.766 -0.1514  0.0959 -0.1180
  188DOPC   O3123145   2.320   0.891   3.925 -0.1715 -0.3880  0.5680
  188DOPC   C3123146   2.270   0.774   3.951 -0.0071  0.0782  0.3343
  188DOPC   O3223147   2.285   0.671   3.887 -0.3164  0.8838  0.0441
  188DOPC   C3223148   2.189   0.789   4.075  0.0106 -0.0976  0.9638
  188DOPC   H2X23149   2.235   0.721   4.149  2.6599  0.6803  0.1331
  188DOPC   H2Y23150   2.191   0.899   4.094  3.1285  0.7360 -3.0398
  188DOPC   C2323151   1.836   1.087   3.785  0.2997 -0.4773 -0.5935
  188DOPC   H3R23152   1.839   1.011   3.867 -1.2401 -1.0852 -1.0747
  188DOPC   H3S23153   1.780   1.034   3.706  0.6902  0.0367 -1.2204
  188DOPC   C2423154   1.753   1.205   3.833  0.6322  0.2088  0.3604
  188DOPC   H4R23155   1.804   1.260   3.915 -0.5451  4.3243 -1.4389
  188DOPC   H4S23156   1.657   1.158   3.861  1.6369 -1.8976  0.5244
  188DOPC   C2523157   1.723   1.327   3.734  0.5804  0.4601  0.8750
  188DOPC   H5R23158   1.671   1.287   3.644  1.5051 -1.7441  1.2355
  188DOPC   H5S23159   1.821   1.365   3.698 -1.1655  3.0777 -1.4519
  188DOPC   C2623160   1.634   1.433   3.795 -0.2399  0.0869  0.1524
  188DOPC   H6R23161   1.531   1.395   3.775  0.4950 -1.3619 -0.9986
  188DOPC   H6S23162   1.652   1.530   3.743 -0.0903 -0.0647 -0.0763
  188DOPC   C2723163   1.638   1.450   3.945 -0.0793 -0.3781 -0.6119
  188DOPC   H7R23164   1.743   1.474   3.973  0.2207  0.1044 -2.0650
  188DOPC   H7S23165   1.594   1.364   3.999  1.2772 -0.3848  0.5296
  188DOPC   C2823166   1.553   1.567   4.002 -0.1916  0.1177  0.6366
  188DOPC   H8R23167   1.459   1.553   3.945  0.6381 -0.0551 -0.7368
  188DOPC   H8S23168   1.595   1.661   3.959  1.5061 -0.7012  0.3987
  188DOPC   C2923169   1.526   1.556   4.152 -0.8208  0.2251 -0.4054
  188DOPC   H9R23170   1.524   1.456   4.197  1.4081 -0.4782 -1.7406
  188DOPC  C21023171   1.529   1.657   4.247 -0.3983  0.1420 -0.0829
  188DOPC  H10R23172   1.502   1.624   4.349  2.6926 -0.9734  0.4982
  188DOPC  C21123173   1.553   1.802   4.220 -0.4156  0.1688  0.5089
  188DOPC  H11R23174   1.448   1.839   4.225 -0.6035 -0.2005 -0.4486
  188DOPC  H11S23175   1.579   1.824   4.114 -0.4305  1.5570  0.7656
  188DOPC  C21223176   1.644   1.871   4.314  0.7602 -0.3131  0.3501
  188DOPC  H12R23177   1.741   1.818   4.302  0.1569 -0.9925 -2.2722
  188DOPC  H12S23178   1.612   1.863   4.420  2.6275 -0.6290  0.9380
  188DOPC  C21323179   1.677   2.016   4.290  0.0040 -0.8087  0.3301
  188DOPC  H13R23180   1.665   2.050   4.185  0.1392 -1.9554 -0.0701
  188DOPC  H13S23181   1.781   2.048   4.312 -1.0191  0.7205  3.7158
  188DOPC  C21423182   1.593   2.115   4.373 -0.4103  0.3507 -0.0156
  188DOPC  H14R23183   1.623   2.094   4.478  0.8290  1.7613 -0.0561
  188DOPC  H14S23184   1.487   2.082   4.369 -0.1451 -0.6310  0.7037
  188DOPC  C21523185   1.628   2.262   4.354  0.7253  0.0939 -0.4020
  188DOPC  H15R23186   1.611   2.307   4.254 -2.7636 -1.9149 -0.8829
  188DOPC  H15S23187   1.736   2.267   4.378  0.7178 -1.1082 -0.0697
  188DOPC  C21623188   1.583   2.367   4.461  0.1116  0.3168  0.3925
  188DOPC  H16R23189   1.592   2.321   4.562 -0.1803 -0.4229  0.0888
  188DOPC  H16S23190   1.474   2.384   4.444 -0.1559 -1.1612  0.4883
  188DOPC  C21723191   1.657   2.501   4.450 -0.5159 -0.3654 -0.9933
  188DOPC  H17R23192   1.662   2.527   4.342 -1.7928  1.1552 -0.7260
  188DOPC  H17S23193   1.763   2.477   4.475 -0.5525  0.7074  0.2855
  188DOPC  C21823194   1.606   2.608   4.542 -0.4492  0.3904 -0.1351
  188DOPC  H18R23195   1.507   2.631   4.497  0.1152  0.8388 -1.1954
  188DOPC  H18S23196   1.668   2.700   4.533  0.6633 -0.1018  1.9102
  188DOPC  H18T23197   1.600   2.578   4.648  1.6985  1.6033  0.3860
  188DOPC   C3323198   2.041   0.759   4.054 -1.1047  0.0161  0.3783
  188DOPC   H3X23199   2.028   0.653   4.022  1.3785  0.3423 -2.1420
  188DOPC   H3Y23200   2.016   0.825   3.968  1.9615  0.7458 -0.0828
  188DOPC   C3423201   1.955   0.796   4.172  0.4790 -0.1898  0.6180
  188DOPC   H4X23202   1.852   0.767   4.144  0.6442 -0.1937  0.0032
  188DOPC   H4Y23203   1.947   0.907   4.180 -1.1963 -0.3895  2.4327
  188DOPC   C3523204   1.991   0.740   4.307 -0.5106  0.0354 -0.6582
  188DOPC   H5X23205   2.041   0.641   4.311 -0.2088  0.2100  0.2594
  188DOPC   H5Y23206   1.893   0.746   4.359  1.0187  2.5532  2.3568
  188DOPC   C3623207   2.081   0.827   4.400  0.7398  0.3605  0.3678
  188DOPC   H6X23208   2.167   0.872   4.345  0.2842  0.0856 -0.5742
  188DOPC   H6Y23209   2.012   0.910   4.427  0.4640  0.0169  0.7237
  188DOPC   C3723210   2.116   0.763   4.540  0.7351  0.0197  0.3534
  188DOPC   H7X23211   2.030   0.708   4.585  0.1948 -0.3598 -1.0874
  188DOPC   H7Y23212   2.191   0.683   4.521 -0.3756 -1.1901  0.9201
  188DOPC   C3823213   2.165   0.862   4.644 -0.1854  1.0539  0.1347
  188DOPC   H8X23214   2.200   0.805   4.732 -0.4063  0.2731 -0.2721
  188DOPC   H8Y23215   2.079   0.926   4.674 -1.5837 -1.2632  1.2708
  188DOPC   C3923216   2.281   0.933   4.598 -0.1077 -0.5012  0.3882
  188DOPC   H9X23217   2.369   0.877   4.561 -0.8738 -0.9730 -0.7804
  188DOPC  C31023218   2.298   1.065   4.614  0.2102  0.1981 -0.8914
  188DOPC  H10X23219   2.392   1.111   4.580  1.4187  0.1313  2.0879
  188DOPC  C31123220   2.199   1.161   4.680 -0.0591 -0.1983  0.5784
  188DOPC  H11X23221   2.098   1.142   4.637  0.6459  1.6939 -2.1970
  188DOPC  H11Y23222   2.228   1.263   4.646 -0.8410 -0.3907 -0.7613
  188DOPC  C31223223   2.190   1.166   4.833 -0.5906  0.4430 -0.0837
  188DOPC  H12X23224   2.291   1.195   4.871 -0.3971 -1.0902  0.6347
  188DOPC  H12Y23225   2.153   1.073   4.879  0.7906  0.2744  0.7378
  188DOPC  C31323226   2.112   1.294   4.885 -0.0588 -0.6183 -0.0660
  188DOPC  H13X23227   2.137   1.380   4.819 -0.6039  1.9161  2.7921
  188DOPC  H13Y23228   2.005   1.266   4.874 -0.2269 -0.0473  0.0662
  188DOPC  C31423229   2.146   1.324   5.037  0.5368 -0.5752 -0.2627
  188DOPC  H14X23230   2.190   1.227   5.071  2.1843  0.0541 -0.4922
  188DOPC  H14Y23231   2.227   1.399   5.028  0.3504 -0.5926 -2.7176
  188DOPC  C31523232   2.044   1.375   5.130  0.0036 -0.2737 -0.0298
  188DOPC  H15X23233   2.086   1.404   5.229 -1.2095  0.0878  0.4091
  188DOPC  H15Y23234   1.969   1.297   5.157 -1.4104  1.6615  1.9934
  188DOPC  C31623235   1.966   1.491   5.061  0.0538 -0.1895 -0.7988
  188DOPC  H16X23236   2.036   1.568   5.023  0.1561  0.8555  1.3769
  188DOPC  H16Y23237   1.914   1.447   4.973  1.2072 -0.2409 -1.4677
  188DOPC  C31723238   1.854   1.550   5.154  0.0525  0.5110 -0.7056
  188DOPC  H17X23239   1.773   1.475   5.163  1.0410 -0.7890 -2.0500
  188DOPC  H17Y23240   1.901   1.559   5.254  1.5561 -1.7671 -1.1342
  188DOPC  C31823241   1.795   1.670   5.092 -0.2890 -0.2391  0.4641
  188DOPC  H18X23242   1.759   1.651   4.989 -1.7028 -0.8057  1.0353
  188DOPC  H18Y23243   1.710   1.711   5.151  0.3313 -1.3152  2.1894
  188DOPC  H18Z23244   1.876   1.745   5.080 -1.6487  0.9203 -2.3071
  189DOPC     N23245   4.133   0.719   2.347  0.1122 -0.0860  0.1949
  189DOPC   C1223246   4.121   0.730   2.497 -0.3467 -0.1374 -0.3652
  189DOPC  H12A23247   4.148   0.634   2.538 -0.1894 -0.7489 -1.8295
  189DOPC  H12B23248   4.014   0.737   2.515  0.0974 -0.2984  2.7841
  189DOPC   C1323249   4.275   0.681   2.316 -0.1120  0.3966  0.4379
  189DOPC  H13A23250   4.338   0.753   2.365 -0.8369  1.7414 -0.5636
  189DOPC  H13B23251   4.292   0.583   2.359 -2.7860 -0.4203 -0.1571
  189DOPC  H13C23252   4.296   0.679   2.210  2.2670  0.0550  0.8437
  189DOPC   C1423253   4.105   0.848   2.285  0.5084 -0.6305 -0.4639
  189DOPC  H14A23254   4.166   0.930   2.321 -3.5005  1.5579  2.0747
  189DOPC  H14B23255   4.127   0.860   2.180 -1.7569  3.7100 -0.6399
  189DOPC  H14C23256   4.003   0.880   2.297 -0.0928 -0.9746 -3.6967
  189DOPC   C1523257   4.033   0.619   2.294 -0.1560  0.3639 -0.3275
  189DOPC  H15A23258   4.054   0.520   2.331  1.1533 -0.2412 -2.5078
  189DOPC  H15B23259   4.050   0.609   2.188  0.6879 -2.8848  0.0059
  189DOPC  H15C23260   3.932   0.652   2.315  0.1246 -0.2420  2.2920
  189DOPC   C1123261   4.197   0.848   2.570 -0.5476 -0.2426  0.5283
  189DOPC  H11A23262   4.159   0.937   2.517 -2.6407  0.2661  2.7078
  189DOPC  H11B23263   4.177   0.845   2.679  0.9730 -1.6485  0.8177
  189DOPC     P23264   4.443   0.942   2.556 -0.2476 -0.1874  0.2850
  189DOPC   O1323265   4.381   1.038   2.458 -0.6711 -0.1812 -0.6965
  189DOPC   O1423266   4.577   0.890   2.518  0.1042 -0.5394 -0.0605
  189DOPC   O1223267   4.340   0.829   2.560 -0.0306  0.2007 -0.3943
  189DOPC   O1123268   4.449   1.012   2.701 -0.3935 -0.1007 -0.0594
  189DOPC    C123269   4.411   0.952   2.829  0.1154  0.1741  0.3187
  189DOPC    HA23270   4.369   0.851   2.815 -0.7420  0.6928 -1.1122
  189DOPC    HB23271   4.328   1.014   2.870 -0.8348 -1.3787  0.8010
  189DOPC    C223272   4.527   0.949   2.926  0.4837 -0.6293 -0.0458
  189DOPC    HS23273   4.586   1.043   2.917  0.4216 -0.7097 -1.5768
  189DOPC   O2123274   4.621   0.848   2.886 -0.0199  0.4204  0.5347
  189DOPC   C2123275   4.737   0.850   2.955 -0.0449 -0.7609  1.2130
  189DOPC   O2223276   4.767   0.936   3.037 -0.2140  0.0981  0.2404
  189DOPC   C2223277   4.821   0.736   2.891 -0.1654  0.4983  0.8218
  189DOPC   H2R23278   4.856   0.774   2.793 -1.5950  0.7113  0.3809
  189DOPC   H2S23279   4.754   0.650   2.871 -0.3495 -0.1514  3.7185
  189DOPC    C323280   4.464   0.923   3.067 -0.0066 -0.2032  0.4404
  189DOPC    HX23281   4.410   1.019   3.085  0.3156  0.5371 -2.0407
  189DOPC    HY23282   4.541   0.916   3.146 -1.1263  0.0778  1.5921
  189DOPC   O3123283   4.376   0.811   3.063 -0.4206  0.0464 -0.4850
  189DOPC   C3123284   4.420   0.686   3.089  0.1025  0.8007 -0.6814
  189DOPC   O3223285   4.537   0.665   3.125 -0.2357  0.0092  0.7020
  189DOPC   C3223286   4.316   0.581   3.063 -0.3328 -0.1603 -0.0816
  189DOPC   H2X23287   4.220   0.602   3.115 -0.6355 -1.7594  0.0613
  189DOPC   H2Y23288   4.294   0.570   2.954 -0.9765 -1.8051  0.1785
  189DOPC   C2323289   4.950   0.696   2.973  0.5943  0.3472  0.6887
  189DOPC   H3R23290   4.968   0.595   2.931 -0.4445  0.3083  0.3113
  189DOPC   H3S23291   4.931   0.695   3.082 -0.8091  0.9592  0.4770
  189DOPC   C2423292   5.066   0.787   2.964 -1.0688 -0.2744  0.6521
  189DOPC   H4R23293   5.050   0.892   2.995  1.1370  0.9068 -1.7832
  189DOPC   H4S23294   5.080   0.803   2.855  1.1659  2.3091  1.2158
  189DOPC   C2523295   5.194   0.738   3.030 -0.0162  0.4395  0.3341
  189DOPC   H5R23296   5.278   0.792   2.980  0.6190 -0.4245  0.4470
  189DOPC   H5S23297   5.208   0.630   3.010 -0.5339  0.4323 -0.0062
  189DOPC   C2623298   5.194   0.766   3.180  0.1802 -0.0578 -0.2905
  189DOPC   H6R23299   5.122   0.699   3.230 -0.6418  1.2301  0.3208
  189DOPC   H6S23300   5.155   0.870   3.192  1.1075  0.2329  0.3428
  189DOPC   C2723301   5.340   0.755   3.237  0.7419  0.3306  0.7583
  189DOPC   H7R23302   5.406   0.822   3.177  1.4253 -0.5365  0.5182
  189DOPC   H7S23303   5.364   0.648   3.218 -2.1058 -0.2322 -0.0804
  189DOPC   C2823304   5.357   0.775   3.384  0.0842 -0.0067 -0.0519
  189DOPC   H8R23305   5.307   0.872   3.404 -1.9867 -0.5526 -2.1292
  189DOPC   H8S23306   5.466   0.781   3.405 -0.3318 -0.9538  2.8369
  189DOPC   C2923307   5.290   0.661   3.464 -0.0334 -0.2864 -0.0475
  189DOPC   H9R23308   5.335   0.562   3.445 -1.1463 -0.7301 -0.4547
  189DOPC  C21023309   5.183   0.675   3.546 -0.3410 -0.0621  0.0179
  189DOPC  H10R23310   5.136   0.586   3.591  0.6994 -0.6589 -0.0335
  189DOPC  C21123311   5.107   0.803   3.583  0.4663  0.0348  0.3342
  189DOPC  H11R23312   5.131   0.889   3.517  2.9829  1.1491  2.5071
  189DOPC  H11S23313   5.136   0.830   3.687 -2.0329 -0.4861  1.2345
  189DOPC  C21223314   4.955   0.767   3.575 -0.2237 -0.4895  0.4183
  189DOPC  H12R23315   4.910   0.844   3.641  1.1487 -0.4536  1.3772
  189DOPC  H12S23316   4.934   0.662   3.605 -0.5951 -0.8466 -1.0380
  189DOPC  C21323317   4.895   0.782   3.434 -0.3950 -0.1479  0.1907
  189DOPC  H13R23318   4.944   0.703   3.372  0.0856  1.9959 -2.3524
  189DOPC  H13S23319   4.931   0.878   3.391 -1.7960  0.7440  0.9456
  189DOPC  C21423320   4.742   0.763   3.417 -0.0188 -0.0104 -0.5002
  189DOPC  H14R23321   4.720   0.765   3.308  2.4629 -1.2448 -1.1110
  189DOPC  H14S23322   4.710   0.856   3.468 -0.4680 -0.2684 -0.3103
  189DOPC  C21523323   4.688   0.634   3.482  0.9106  0.8750 -0.3664
  189DOPC  H15R23324   4.578   0.625   3.469  1.1469 -2.0662 -0.8591
  189DOPC  H15S23325   4.694   0.637   3.592 -0.9369 -0.7624 -0.1719
  189DOPC  C21623326   4.749   0.505   3.422  0.3032  0.4465  0.1277
  189DOPC  H16R23327   4.857   0.511   3.447  0.7602  1.8356 -1.9334
  189DOPC  H16S23328   4.738   0.507   3.311  0.7360  0.8511  0.0871
  189DOPC  C21723329   4.699   0.375   3.480 -0.0499  0.2204 -0.2232
  189DOPC  H17R23330   4.735   0.292   3.417 -1.9129  0.5431 -1.8170
  189DOPC  H17S23331   4.588   0.372   3.476 -0.0070 -0.8027 -1.2613
  189DOPC  C21823332   4.727   0.356   3.628  0.5125  0.4338 -0.8814
  189DOPC  H18R23333   4.679   0.435   3.689  1.0822  1.1573 -1.3583
  189DOPC  H18S23334   4.836   0.349   3.650  0.1939 -0.8696  0.4364
  189DOPC  H18T23335   4.683   0.261   3.665  0.6423  1.5829  2.5309
  189DOPC   C3323336   4.358   0.438   3.104  0.1028  0.1869  0.6860
  189DOPC   H3X23337   4.449   0.416   3.044 -0.8642  1.5819 -1.4145
  189DOPC   H3Y23338   4.287   0.367   3.057  0.1052  0.3176  0.4826
  189DOPC   C3423339   4.360   0.424   3.255 -0.0907  0.2250 -0.8624
  189DOPC   H4X23340   4.419   0.504   3.304  1.3018 -0.9306 -0.5657
  189DOPC   H4Y23341   4.418   0.335   3.290 -0.0913  1.0715  1.4796
  189DOPC   C3523342   4.218   0.422   3.315 -0.3840 -0.0791 -0.6520
  189DOPC   H5X23343   4.168   0.333   3.271  1.3789 -1.0882 -0.7237
  189DOPC   H5Y23344   4.159   0.512   3.287 -2.9598 -0.7055  2.1390
  189DOPC   C3623345   4.228   0.406   3.472 -0.0509 -0.5459  1.0406
  189DOPC   H6X23346   4.290   0.317   3.498  1.4764  0.5070  1.1602
  189DOPC   H6Y23347   4.298   0.482   3.513  2.6202 -1.7499 -0.9973
  189DOPC   C3723348   4.092   0.400   3.544  0.1259 -0.3062 -1.4413
  189DOPC   H7X23349   4.046   0.501   3.537  0.5281 -0.0554 -0.6385
  189DOPC   H7Y23350   4.016   0.324   3.516  0.1881 -1.6104  1.5405
  189DOPC   C3823351   4.106   0.387   3.703 -0.1078 -0.4221 -0.3309
  189DOPC   H8X23352   4.006   0.414   3.742 -0.2065 -1.3498  0.0965
  189DOPC   H8Y23353   4.182   0.466   3.724 -0.7384 -0.0716  0.6796
  189DOPC   C3923354   4.141   0.253   3.755 -0.2645  0.3919  0.8015
  189DOPC   H9X23355   4.051   0.193   3.772 -0.8701  0.9654 -0.2855
  189DOPC  C31023356   4.263   0.211   3.797 -0.0131 -0.4106 -0.3851
  189DOPC  H10X23357   4.277   0.113   3.844  0.9148  0.6971  1.7988
  189DOPC  C31123358   4.389   0.297   3.797 -0.7253 -0.5054  0.1401
  189DOPC  H11X23359   4.362   0.399   3.830 -1.5911 -0.6680 -0.0320
  189DOPC  H11Y23360   4.428   0.302   3.693 -1.2661 -1.5562 -0.1331
  189DOPC  C31223361   4.499   0.249   3.894 -0.3414  1.0887 -0.4429
  189DOPC  H12X23362   4.570   0.332   3.877  0.4510  0.4572 -0.2502
  189DOPC  H12Y23363   4.544   0.154   3.859 -3.6897 -0.7532 -0.1695
  189DOPC  C31323364   4.458   0.238   4.044 -0.3416 -0.0984 -1.0379
  189DOPC  H13X23365   4.396   0.327   4.065 -1.3991  0.1124 -4.4142
  189DOPC  H13Y23366   4.397   0.145   4.051 -2.2099  1.1333 -0.3155
  189DOPC  C31423367   4.573   0.213   4.143 -0.7153  0.0537 -0.5841
  189DOPC  H14X23368   4.624   0.126   4.095  0.5656  0.3383  0.2249
  189DOPC  H14Y23369   4.648   0.292   4.165 -1.4562 -0.0331  2.7725
  189DOPC  C31523370   4.522   0.171   4.284 -0.1374 -0.5045  0.1076
  189DOPC  H15X23371   4.454   0.085   4.268 -4.5943  2.4099  1.3861
  189DOPC  H15Y23372   4.454   0.252   4.317  0.5120  0.0352  0.1460
  189DOPC  C31623373   4.638   0.153   4.388 -0.7729 -0.4231  0.2142
  189DOPC  H16X23374   4.706   0.076   4.345  1.7931  1.4315  0.6815
  189DOPC  H16Y23375   4.701   0.245   4.387 -1.4812  0.1049 -1.7600
  189DOPC  C31723376   4.594   0.114   4.534 -0.4579  0.0165 -0.2222
  189DOPC  H17X23377   4.512   0.185   4.557 -0.3201 -0.6467  2.5730
  189DOPC  H17Y23378   4.549   0.013   4.528  0.3081 -0.4595  1.5570
  189DOPC  C31823379   4.706   0.124   4.639 -0.0699 -0.6031 -0.7058
  189DOPC  H18X23380   4.752   0.222   4.618 -1.5167 -0.4239 -3.4709
  189DOPC  H18Y23381   4.660   0.111   4.740  0.6675 -0.0431 -0.2895
  189DOPC  H18Z23382   4.784   0.048   4.619 -0.0749 -1.0466  0.8096
  190DOPC     N23383   3.471   0.168   2.665  0.5239  0.6976  0.3711
  190DOPC   C1223384   3.551   0.296   2.689  0.0839 -0.0304  1.3266
  190DOPC  H12A23385   3.645   0.285   2.638 -1.1223 -2.7308 -0.5402
  190DOPC  H12B23386   3.583   0.290   2.792 -0.5801 -2.8579  1.4305
  190DOPC   C1323387   3.553   0.050   2.688  0.0930  0.2750  0.0357
  190DOPC  H13A23388   3.643   0.050   2.627 -0.3874  0.5690 -0.6906
  190DOPC  H13B23389   3.584   0.040   2.791  2.0290  1.2218 -0.4039
  190DOPC  H13C23390   3.493  -0.034   2.658 -1.0548  1.1345 -0.1287
  190DOPC   C1423391   3.428   0.166   2.523  0.3521  0.1653  0.2795
  190DOPC  H14A23392   3.346   0.236   2.517 -0.0109 -0.2764  0.0269
  190DOPC  H14B23393   3.503   0.200   2.452 -0.1670  0.6415 -0.0538
  190DOPC  H14C23394   3.385   0.072   2.493  0.0451  0.3728  0.0598
  190DOPC   C1523395   3.353   0.156   2.755  0.5434  0.0600 -0.1846
  190DOPC  H15A23396   3.277   0.087   2.721 -0.4686  1.9524 -2.0157
  190DOPC  H15B23397   3.306   0.253   2.758  2.2028  1.0375 -2.1826
  190DOPC  H15C23398   3.390   0.131   2.853  2.1008 -0.8562 -0.9581
  190DOPC   C1123399   3.485   0.433   2.655  0.0256  0.2180 -1.0423
  190DOPC  H11A23400   3.561   0.513   2.666 -1.0998  0.9327  3.9199
  190DOPC  H11B23401   3.446   0.430   2.551  0.6863  0.4547 -1.3030
  190DOPC     P23402   3.399   0.517   2.883  0.2144  0.7610  0.1373
  190DOPC   O1323403   3.502   0.421   2.934 -0.3090 -0.3949  0.0117
  190DOPC   O1423404   3.265   0.510   2.947 -0.0021  0.7711 -0.2116
  190DOPC   O1223405   3.374   0.468   2.734  0.0101 -0.5212  0.2481
  190DOPC   O1123406   3.451   0.663   2.860 -1.1404 -0.2440  0.2197
  190DOPC    C123407   3.546   0.731   2.939  0.4960 -0.1286 -0.3497
  190DOPC    HA23408   3.580   0.826   2.892  1.8280  0.9129  2.5192
  190DOPC    HB23409   3.644   0.679   2.943  1.0084  0.3515 -3.4768
  190DOPC    C223410   3.505   0.780   3.078  0.2069  0.1869 -0.0767
  190DOPC    HS23411   3.590   0.840   3.117  1.9091 -1.2358 -1.4401
  190DOPC   O2123412   3.497   0.673   3.169 -0.3376  0.3939 -0.1262
  190DOPC   C2123413   3.600   0.613   3.223 -0.0506  0.5630 -0.1333
  190DOPC   O2223414   3.717   0.645   3.200  0.2981 -0.1856 -0.0995
  190DOPC   C2223415   3.561   0.496   3.320  0.3305 -0.3423  0.0825
  190DOPC   H2R23416   3.536   0.412   3.252 -2.7759 -0.7062  1.5222
  190DOPC   H2S23417   3.469   0.514   3.380  0.4762 -2.3315  0.9856
  190DOPC    C323418   3.364   0.856   3.076  0.7215 -0.6833  0.0521
  190DOPC    HX23419   3.288   0.800   3.018 -2.3914  0.0618  3.0510
  190DOPC    HY23420   3.379   0.953   3.025  1.6601 -1.6782 -1.6511
  190DOPC   O3123421   3.325   0.880   3.210  0.5758 -0.0093 -0.2559
  190DOPC   C3123422   3.205   0.849   3.243 -0.0396 -0.2960 -0.0634
  190DOPC   O3223423   3.120   0.794   3.176 -0.2504  0.1991  0.0523
  190DOPC   C3223424   3.177   0.899   3.383  0.2640  0.1980  0.5672
  190DOPC   H2X23425   3.272   0.932   3.430 -0.5261  2.3098  0.7751
  190DOPC   H2Y23426   3.121   0.994   3.370  1.1782  0.7085  0.3007
  190DOPC   C2323427   3.671   0.454   3.430  0.2788  0.7876 -0.1815
  190DOPC   H3R23428   3.653   0.529   3.510 -2.3323  0.0714  0.0001
  190DOPC   H3S23429   3.777   0.466   3.397  0.4371 -1.5217 -0.7194
  190DOPC   C2423430   3.649   0.319   3.495 -0.0063  0.0430 -0.2096
  190DOPC   H4R23431   3.676   0.240   3.421  0.5484  0.4407 -0.4436
  190DOPC   H4S23432   3.541   0.323   3.521 -0.0344  0.3209 -0.3659
  190DOPC   C2523433   3.737   0.310   3.622 -0.2305  0.1364 -0.2141
  190DOPC   H5R23434   3.745   0.410   3.672 -1.8861  0.2895 -0.2096
  190DOPC   H5S23435   3.840   0.277   3.597 -0.1755 -0.7894  1.1232
  190DOPC   C2623436   3.675   0.211   3.720 -0.4282  0.1077 -0.2087
  190DOPC   H6R23437   3.684   0.107   3.682  0.2980  0.5755 -1.3384
  190DOPC   H6S23438   3.573   0.248   3.742 -0.0214  1.3237 -0.3387
  190DOPC   C2723439   3.746   0.212   3.855  0.0942  0.1365 -1.1104
  190DOPC   H7R23440   3.743   0.312   3.904  0.2731 -1.3641  2.3069
  190DOPC   H7S23441   3.854   0.188   3.844  0.3287  0.3028  0.5292
  190DOPC   C2823442   3.679   0.107   3.945 -0.6933  0.5535 -0.4439
  190DOPC   H8R23443   3.757   0.092   4.023 -1.9921 -1.5715  0.5161
  190DOPC   H8S23444   3.664   0.011   3.891 -0.1302  0.1761  0.0568
  190DOPC   C2923445   3.566   0.160   4.023 -0.2164  0.7479 -0.0236
  190DOPC   H9R23446   3.476   0.170   3.962  0.4201 -1.3742 -1.4038
  190DOPC  C21023447   3.560   0.182   4.154 -0.0592  0.6982 -0.2899
  190DOPC  H10R23448   3.469   0.224   4.200  0.3289  1.4880 -0.2294
  190DOPC  C21123449   3.671   0.154   4.259  0.0957  0.1268 -0.3840
  190DOPC  H11R23450   3.740   0.075   4.223  0.7476  0.7485 -0.5388
  190DOPC  H11S23451   3.637   0.122   4.359 -0.5813  0.0478 -0.6398
  190DOPC  C21223452   3.750   0.277   4.297  0.1874  0.5386  0.1998
  190DOPC  H12R23453   3.792   0.320   4.204  0.3380 -2.7128 -1.3654
  190DOPC  H12S23454   3.835   0.252   4.363  0.7098 -1.2664 -1.0659
  190DOPC  C21323455   3.665   0.383   4.373 -0.5824  0.2652  0.7240
  190DOPC  H13R23456   3.585   0.424   4.306 -1.9518 -4.6259 -1.0256
  190DOPC  H13S23457   3.732   0.470   4.387  0.3301 -0.0818 -1.1755
  190DOPC  C21423458   3.597   0.342   4.506 -0.4716 -0.3465  0.0415
  190DOPC  H14R23459   3.517   0.268   4.486 -0.7679 -0.2786  0.9123
  190DOPC  H14S23460   3.554   0.439   4.541 -0.8630 -1.0448  1.5890
  190DOPC  C21523461   3.689   0.278   4.613  0.4580 -0.4027 -0.0682
  190DOPC  H15R23462   3.791   0.316   4.592  0.8444 -2.4791 -2.4237
  190DOPC  H15S23463   3.700   0.170   4.591  0.4852 -0.5218  0.5279
  190DOPC  C21623464   3.649   0.298   4.759  0.0793 -0.0197  0.4907
  190DOPC  H16R23465   3.550   0.249   4.770 -0.3896  0.6149 -0.7128
  190DOPC  H16S23466   3.628   0.407   4.770  1.0558  0.3140 -0.6417
  190DOPC  C21723467   3.753   0.235   4.852 -0.0500 -0.2232  0.3940
  190DOPC  H17R23468   3.828   0.315   4.869 -0.4025 -0.0260  1.0529
  190DOPC  H17S23469   3.792   0.145   4.801 -0.3511  0.0942 -0.4197
  190DOPC  C21823470   3.707   0.215   4.996 -1.2011  0.2484  0.7627
  190DOPC  H18R23471   3.747   0.125   5.046  0.2827  1.0816  1.1391
  190DOPC  H18S23472   3.596   0.213   4.986 -1.2031  1.2311  0.5059
  190DOPC  H18T23473   3.730   0.302   5.062 -0.7946  0.4328  0.3807
  190DOPC   C3323474   3.099   0.799   3.466 -0.0195 -0.2307 -0.4788
  190DOPC   H3X23475   3.009   0.757   3.415 -1.2089  0.4421  0.9660
  190DOPC   H3Y23476   3.055   0.865   3.544 -1.7233 -0.1051 -1.4985
  190DOPC   C3423477   3.176   0.680   3.535 -0.0018 -0.1426  0.3293
  190DOPC   H4X23478   3.230   0.627   3.454  1.2504 -0.3659  1.2754
  190DOPC   H4Y23479   3.100   0.613   3.581  0.4814  0.1880  1.6675
  190DOPC   C3523480   3.279   0.728   3.636  0.7785  0.3470 -1.0145
  190DOPC   H5X23481   3.226   0.785   3.715  0.0621 -0.3983 -0.9530
  190DOPC   H5Y23482   3.358   0.796   3.597  1.0455 -0.0600 -1.1877
  190DOPC   C3623483   3.350   0.605   3.711  0.7205 -0.0748 -0.3332
  190DOPC   H6X23484   3.273   0.533   3.744  0.3078 -0.1741 -1.4561
  190DOPC   H6Y23485   3.399   0.547   3.630 -0.3128 -2.4550  0.6711
  190DOPC   C3723486   3.450   0.639   3.823 -0.0575  0.2737 -0.0518
  190DOPC   H7X23487   3.551   0.597   3.803  1.3072  2.7630  1.1250
  190DOPC   H7Y23488   3.472   0.747   3.813 -0.1879  0.1657 -1.9659
  190DOPC   C3823489   3.413   0.590   3.962 -0.2479  0.3589  0.3316
  190DOPC   H8X23490   3.376   0.485   3.958  0.1723  0.2141  0.0466
  190DOPC   H8Y23491   3.325   0.654   3.983 -0.0400  1.1855 -1.1401
  190DOPC   C3923492   3.540   0.601   4.041 -0.6198 -0.0439 -0.7860
  190DOPC   H9X23493   3.633   0.561   3.997 -0.6408 -2.4504  1.1684
  190DOPC  C31023494   3.553   0.658   4.162 -0.0806 -0.6202  0.1610
  190DOPC  H10X23495   3.651   0.646   4.211  0.2949 -1.8088 -0.8372
  190DOPC  C31123496   3.433   0.716   4.241 -0.2964  0.7789 -0.0294
  190DOPC  H11X23497   3.347   0.755   4.181 -2.3642 -0.7521  1.7482
  190DOPC  H11Y23498   3.463   0.790   4.318  0.8501  0.1842  0.1184
  190DOPC  C31223499   3.356   0.607   4.320 -0.0123  0.6286 -0.0571
  190DOPC  H12X23500   3.418   0.557   4.398  0.9647  0.4351 -0.9415
  190DOPC  H12Y23501   3.314   0.529   4.254  1.9701  0.1131 -0.7724
  190DOPC  C31323502   3.242   0.676   4.389  0.1972 -0.1378 -0.1517
  190DOPC  H13X23503   3.282   0.738   4.472  0.6644 -0.7392  0.0731
  190DOPC  H13Y23504   3.182   0.746   4.326  0.1412 -1.3758 -1.5208
  190DOPC  C31423505   3.128   0.575   4.436  0.0137 -0.0858  0.0833
  190DOPC  H14X23506   3.089   0.519   4.348 -1.2680 -1.1963  1.3074
  190DOPC  H14Y23507   3.165   0.492   4.500  2.0176  2.9264  3.1528
  190DOPC  C31523508   3.013   0.652   4.504  1.0838 -0.0186  0.4808
  190DOPC  H15X23509   2.981   0.724   4.425  0.5165 -1.7871 -0.9905
  190DOPC  H15Y23510   3.051   0.707   4.593  1.5584  1.5533 -0.6381
  190DOPC  C31623511   2.888   0.558   4.540 -0.2211 -0.0108  0.1819
  190DOPC  H16X23512   2.866   0.513   4.440  2.9608  0.7924 -0.9984
  190DOPC  H16Y23513   2.936   0.483   4.607  0.2127 -1.4365 -1.6334
  190DOPC  C31723514   2.760   0.618   4.602  0.7109 -0.3169  0.0381
  190DOPC  H17X23515   2.777   0.684   4.690 -2.5776  0.4057  0.2511
  190DOPC  H17Y23516   2.721   0.694   4.531  0.6859  0.7191  1.1286
  190DOPC  C31823517   2.650   0.513   4.622  0.2312  0.7907 -0.0003
  190DOPC  H18X23518   2.556   0.558   4.661  1.6120  2.5708  1.4976
  190DOPC  H18Y23519   2.620   0.465   4.527 -1.6981  1.7798  0.0485
  190DOPC  H18Z23520   2.691   0.437   4.692  1.3149  1.0640 -0.3283
  191DOPC     N23521   5.542   7.081   2.080  0.3143  0.2290 -0.2396
  191DOPC   C1223522   5.486   7.082   2.221  0.6799  0.4740 -0.1115
  191DOPC  H12A23523   5.564   7.047   2.286  1.6021 -4.0037 -3.1205
  191DOPC  H12B23524   5.400   7.017   2.224 -1.2185  2.7027 -1.8541
  191DOPC   C1323525   5.650   7.176   2.061 -0.5621  0.0758  0.3956
  191DOPC  H13A23526   5.738   7.148   2.118  0.5461  1.3190 -0.6277
  191DOPC  H13B23527   5.678   7.180   1.956  1.0363  1.0601  0.8184
  191DOPC  H13C23528   5.617   7.275   2.087  0.3524  0.1052  1.5125
  191DOPC   C1423529   5.446   7.109   1.975  0.4675  0.7070 -0.5781
  191DOPC  H14A23530   5.365   7.040   1.993  2.0063 -0.4444  2.8930
  191DOPC  H14B23531   5.407   7.210   1.975 -1.3245  0.0634  0.3124
  191DOPC  H14C23532   5.494   7.089   1.880  1.0006  1.2983 -0.4447
  191DOPC   C1523533   5.602   6.941   2.058 -0.4648 -0.1966 -0.3500
  191DOPC  H15A23534   5.673   6.932   1.977 -0.2665 -0.3260 -0.1624
  191DOPC  H15B23535   5.517   6.879   2.033  0.2835 -0.1855 -3.2235
  191DOPC  H15C23536   5.652   6.910   2.149  2.0848  0.3995 -1.4569
  191DOPC   C1123537   5.429   7.218   2.279 -0.0264  0.2942 -0.0433
  191DOPC  H11A23538   5.428   7.200   2.388  2.6444 -3.4526 -0.4561
  191DOPC  H11B23539   5.499   7.300   2.250 -0.2266 -0.2158 -2.1542
  191DOPC     P23540   5.158   7.181   2.276  0.3656 -0.1419  0.2950
  191DOPC   O1323541   5.162   7.033   2.276 -0.7009  0.1952 -0.1952
  191DOPC   O1423542   5.037   7.237   2.208 -0.0280 -0.4301  0.0693
  191DOPC   O1223543   5.300   7.242   2.223 -0.5601 -0.1763 -0.2008
  191DOPC   O1123544   5.152   7.229   2.428  0.4147 -0.7639  0.4728
  191DOPC    C123545   5.136   7.363   2.459  0.4755  0.1870  0.6455
  191DOPC    HA23546   5.036   7.390   2.421  0.3836 -1.6038 -0.4710
  191DOPC    HB23547   5.214   7.425   2.409  0.3279  0.3441  0.6110
  191DOPC    C223548   5.153   7.389   2.615  1.0355 -0.4319 -0.1701
  191DOPC    HS23549   5.153   7.497   2.638 -1.2525 -0.5306  0.5268
  191DOPC   O2123550   5.273   7.321   2.662 -0.0024 -0.1845 -0.6340
  191DOPC   C2123551   5.363   7.401   2.707 -0.0969  0.6728 -0.0214
  191DOPC   O2223552   5.358   7.523   2.715  0.3825 -0.2674  0.5406
  191DOPC   C2223553   5.474   7.318   2.777 -0.0949 -0.5307  0.0545
  191DOPC   H2R23554   5.551   7.300   2.700  0.2713  1.8163 -0.2109
  191DOPC   H2S23555   5.432   7.222   2.816 -2.4374  0.2302 -0.3899
  191DOPC    C323556   5.033   7.335   2.693  0.1530 -0.4358 -0.6852
  191DOPC    HX23557   5.037   7.224   2.690  0.6725 -0.4771  0.8762
  191DOPC    HY23558   4.935   7.370   2.654 -0.3313 -0.2114  0.6913
  191DOPC   O3123559   5.042   7.388   2.826 -0.0980  0.1731  0.1030
  191DOPC   C3123560   4.970   7.329   2.919  0.8460  1.2019 -0.3113
  191DOPC   O3223561   4.905   7.226   2.896  0.2662  0.5317  0.1101
  191DOPC   C3223562   5.001   7.386   3.059 -0.0007 -0.0736 -0.3591
  191DOPC   H2X23563   5.102   7.356   3.094  0.0040 -0.2820 -0.5486
  191DOPC   H2Y23564   4.994   7.497   3.057 -2.5927 -0.1192  1.3187
  191DOPC   C2323565   5.528   7.404   2.897  0.0334 -0.7548  1.1503
  191DOPC   H3R23566   5.549   7.503   2.852 -1.4184 -1.0549 -0.3045
  191DOPC   H3S23567   5.627   7.359   2.922 -0.4251 -2.4081  0.1735
  191DOPC   C2423568   5.444   7.415   3.031 -0.0262  0.7170 -0.4590
  191DOPC   H4R23569   5.406   7.317   3.066  0.0895  0.9116  0.2161
  191DOPC   H4S23570   5.352   7.472   3.006 -1.2202 -1.2901 -0.8378
  191DOPC   C2523571   5.535   7.467   3.143 -0.2503  0.3485  0.0217
  191DOPC   H5R23572   5.569   7.569   3.113 -3.2249  1.9195  1.4679
  191DOPC   H5S23573   5.620   7.398   3.157 -0.0796 -0.4482 -3.7711
  191DOPC   C2623574   5.454   7.494   3.267  0.1993  0.1403  0.2465
  191DOPC   H6R23575   5.365   7.558   3.248  0.3141  0.7596  1.6565
  191DOPC   H6S23576   5.516   7.556   3.335  0.7188  0.2427 -0.3169
  191DOPC   C2723577   5.407   7.370   3.348 -0.2063  0.1767  0.2777
  191DOPC   H7R23578   5.493   7.301   3.345  0.9304  1.4463 -4.7850
  191DOPC   H7S23579   5.329   7.315   3.292 -0.0002 -0.3994  0.5456
  191DOPC   C2823580   5.353   7.400   3.486  0.1045  0.1861  0.4193
  191DOPC   H8R23581   5.281   7.317   3.508 -1.1721  0.8950 -0.8919
  191DOPC   H8S23582   5.287   7.489   3.484 -1.3150 -0.8190  0.4763
  191DOPC   C2923583   5.467   7.427   3.582 -0.0603  0.2334 -0.5743
  191DOPC   H9R23584   5.547   7.492   3.542 -0.2283  0.4219 -0.6019
  191DOPC  C21023585   5.478   7.398   3.715 -0.0899  0.6635  0.4765
  191DOPC  H10R23586   5.578   7.411   3.759  0.0915  0.6879  0.0605
  191DOPC  C21123587   5.370   7.322   3.789  0.2672  0.0599 -0.1508
  191DOPC  H11R23588   5.412   7.239   3.850  1.0120  0.7396  0.2843
  191DOPC  H11S23589   5.294   7.282   3.719  0.4965  0.1629 -0.4619
  191DOPC  C21223590   5.294   7.403   3.896  0.7901  0.5435  0.0270
  191DOPC  H12R23591   5.222   7.334   3.946  2.2130 -0.5588  0.6277
  191DOPC  H12S23592   5.230   7.469   3.834  0.8937 -1.0628 -1.8684
  191DOPC  C21323593   5.383   7.476   4.001 -0.2446  0.5663  0.0360
  191DOPC  H13R23594   5.316   7.527   4.074 -0.4423  0.1907  0.1232
  191DOPC  H13S23595   5.432   7.555   3.941 -3.1236  1.2921 -1.5534
  191DOPC  C21423596   5.485   7.380   4.080 -0.0051  0.4433  0.0835
  191DOPC  H14R23597   5.548   7.326   4.006  0.4892  1.8328 -0.5422
  191DOPC  H14S23598   5.425   7.308   4.139 -0.5852  0.7846 -0.0781
  191DOPC  C21523599   5.584   7.468   4.157  0.2651 -0.9324 -0.1538
  191DOPC  H15R23600   5.631   7.426   4.248  0.9220  1.6394  0.8020
  191DOPC  H15S23601   5.520   7.551   4.195 -1.3065 -0.9501 -2.5532
  191DOPC  C21623602   5.700   7.528   4.076  0.1822  0.1764 -0.3766
  191DOPC  H16R23603   5.665   7.556   3.974 -0.6405  1.5210  0.2378
  191DOPC  H16S23604   5.784   7.456   4.069 -0.8345 -1.1756  0.7630
  191DOPC  C21723605   5.761   7.655   4.141  0.1904  0.3374  0.5892
  191DOPC  H17R23606   5.685   7.736   4.132 -1.1117 -0.9983 -1.2992
  191DOPC  H17S23607   5.843   7.684   4.071  1.6776 -1.8909  1.2951
  191DOPC  C21823608   5.826   7.637   4.278  0.4081 -0.0899 -0.5352
  191DOPC  H18R23609   5.890   7.724   4.303 -1.2492  1.1402 -0.4353
  191DOPC  H18S23610   5.894   7.548   4.284 -0.2884 -0.5235  3.1183
  191DOPC  H18T23611   5.751   7.613   4.356  0.8325  0.0677 -0.0765
  191DOPC   C3323612   4.898   7.330   3.170  0.5440 -0.6737  0.3738
  191DOPC   H3X23613   4.902   7.219   3.180 -3.4739 -1.0716 -0.5520
  191DOPC   H3Y23614   4.796   7.352   3.132 -0.0350 -0.2797  2.0609
  191DOPC   C3423615   4.917   7.398   3.304  0.0318 -0.3446 -0.0922
  191DOPC   H4X23616   4.883   7.502   3.289  0.9756 -0.3108 -2.3770
  191DOPC   H4Y23617   5.023   7.413   3.331 -0.0762 -1.0543  0.7858
  191DOPC   C3523618   4.844   7.333   3.420  0.3105 -0.2852 -0.2973
  191DOPC   H5X23619   4.845   7.222   3.411 -1.2669 -0.4418  0.9038
  191DOPC   H5Y23620   4.737   7.364   3.414  0.1075  0.0985  3.3737
  191DOPC   C3623621   4.899   7.388   3.550  0.7989  0.2843  0.3713
  191DOPC   H6X23622   4.991   7.332   3.577 -0.2886 -0.6930  2.2628
  191DOPC   H6Y23623   4.923   7.495   3.535  0.9833 -0.0758 -2.2929
  191DOPC   C3723624   4.797   7.375   3.665  0.6441 -1.1443  0.3795
  191DOPC   H7X23625   4.702   7.430   3.649  0.6412 -0.6071  2.0519
  191DOPC   H7Y23626   4.767   7.269   3.670 -2.0700 -0.4670  0.0723
  191DOPC   C3823627   4.867   7.422   3.795  0.0195 -0.2757 -0.7225
  191DOPC   H8X23628   4.892   7.530   3.792 -1.4887  0.1847  1.1271
  191DOPC   H8Y23629   4.963   7.369   3.812 -0.7034 -1.2002  0.7336
  191DOPC   C3923630   4.775   7.394   3.912  0.5869  0.4255  0.3333
  191DOPC   H9X23631   4.676   7.365   3.874  1.9016 -2.8427 -0.9824
  191DOPC  C31023632   4.803   7.376   4.041  1.0055  0.8738  0.1290
  191DOPC  H10X23633   4.718   7.357   4.109 -0.8519  0.0990 -2.2416
  191DOPC  C31123634   4.936   7.368   4.111  0.2708 -0.6384  0.3444
  191DOPC  H11X23635   4.951   7.466   4.160 -4.2018 -0.3047  1.4740
  191DOPC  H11Y23636   5.012   7.351   4.032  1.0355  0.8274  0.7387
  191DOPC  C31223637   4.974   7.272   4.221 -0.3008  0.4873 -0.1723
  191DOPC  H12X23638   4.947   7.170   4.187 -0.2048  0.7813 -1.1682
  191DOPC  H12Y23639   4.917   7.290   4.314  1.7861 -0.3584  1.3714
  191DOPC  C31323640   5.132   7.264   4.254 -0.7848  0.0924 -0.7659
  191DOPC  H13X23641   5.153   7.172   4.312 -2.2755  1.9592  3.0371
  191DOPC  H13Y23642   5.188   7.257   4.158  0.3204 -0.6554 -0.0811
  191DOPC  C31423643   5.184   7.376   4.346 -0.2241 -0.4058 -0.3865
  191DOPC  H14X23644   5.294   7.365   4.349 -0.4523 -3.3597  1.0069
  191DOPC  H14Y23645   5.136   7.473   4.323 -3.6297 -1.8093  0.0986
  191DOPC  C31523646   5.133   7.349   4.488  0.2104  0.6537  0.4985
  191DOPC  H15X23647   5.207   7.289   4.546  0.6019 -0.1189 -0.7613
  191DOPC  H15Y23648   5.038   7.291   4.480  0.5557  0.1300  0.1216
  191DOPC  C31623649   5.109   7.481   4.567 -0.6352 -0.2762 -0.3101
  191DOPC  H16X23650   5.052   7.558   4.511  0.9518  0.8519 -0.4170
  191DOPC  H16Y23651   5.061   7.459   4.666  0.3599 -0.5742  0.1182
  191DOPC  C31723652   5.242   7.550   4.596  0.6369  0.3073 -0.1731
  191DOPC  H17X23653   5.317   7.470   4.615  0.1117 -0.0300  0.4954
  191DOPC  H17Y23654   5.274   7.597   4.500  0.9940  2.0109  0.7416
  191DOPC  C31823655   5.225   7.649   4.715 -0.5471  0.5247 -0.0608
  191DOPC  H18X23656   5.173   7.738   4.674 -1.4793  0.2815  0.5802
  191DOPC  H18Y23657   5.161   7.610   4.797  0.4662  1.6841  1.3267
  191DOPC  H18Z23658   5.322   7.684   4.757 -0.0636  0.5139 -1.1441
  192DOPC     N23659   1.309   4.819   2.468  0.1088 -0.3417  0.5851
  192DOPC   C1223660   1.178   4.887   2.478 -1.2464  0.4963 -0.8935
  192DOPC  H12A23661   1.106   4.807   2.477  1.3167 -1.9827  0.1999
  192DOPC  H12B23662   1.166   4.954   2.394  0.2651  2.0519  0.0647
  192DOPC   C1323663   1.312   4.703   2.360  0.3104  0.1442 -0.7140
  192DOPC  H13A23664   1.226   4.640   2.379  0.0616  0.9116  0.8257
  192DOPC  H13B23665   1.298   4.746   2.261 -0.2981 -0.8319 -1.0713
  192DOPC  H13C23666   1.399   4.641   2.358  0.6791  0.6565 -0.7794
  192DOPC   C1423667   1.371   4.772   2.599  0.3384 -0.1833 -0.2843
  192DOPC  H14A23668   1.354   4.851   2.671  0.5316  1.1799 -1.6687
  192DOPC  H14B23669   1.332   4.681   2.642  0.7933  0.4450  1.5036
  192DOPC  H14C23670   1.478   4.759   2.586  0.3544 -0.4492  0.1319
  192DOPC   C1523671   1.409   4.924   2.413  0.3160  0.3953 -0.2019
  192DOPC  H15A23672   1.432   5.005   2.480 -2.5706  2.5049 -1.5530
  192DOPC  H15B23673   1.366   4.971   2.326  2.6645  0.1794 -1.5811
  192DOPC  H15C23674   1.508   4.889   2.386 -0.1678  0.4496 -2.1814
  192DOPC   C1123675   1.153   4.969   2.608  0.3021 -0.3087  0.0449
  192DOPC  H11A23676   1.049   5.007   2.599  0.3142 -0.3240 -0.1804
  192DOPC  H11B23677   1.154   4.905   2.699 -1.5421  0.0161  0.3251
  192DOPC     P23678   1.217   5.226   2.593  0.0362  0.0282 -0.5946
  192DOPC   O1323679   1.147   5.245   2.465  0.4114 -0.0787  0.2137
  192DOPC   O1423680   1.340   5.312   2.609 -0.0026 -0.1461 -0.2426
  192DOPC   O1223681   1.252   5.072   2.618  0.2016  0.5747  0.3081
  192DOPC   O1123682   1.128   5.262   2.719  0.4847 -0.0568 -0.5696
  192DOPC    C123683   1.179   5.244   2.846 -0.0871 -0.6182 -0.4835
  192DOPC    HA23684   1.246   5.156   2.860 -0.5264 -0.5784  2.7304
  192DOPC    HB23685   1.096   5.223   2.916 -0.1500  0.7574 -0.1250
  192DOPC    C223686   1.252   5.371   2.900 -0.9377  0.2450 -0.5850
  192DOPC    HS23687   1.350   5.390   2.849  0.3814 -0.4382  1.5704
  192DOPC   O2123688   1.285   5.353   3.039  0.0091  0.5075 -0.1387
  192DOPC   C2123689   1.376   5.255   3.062 -0.2692 -0.6251  0.5086
  192DOPC   O2223690   1.450   5.202   2.979  0.1887  0.4859  0.0457
  192DOPC   C2223691   1.392   5.243   3.208 -0.6232 -0.0185 -0.0892
  192DOPC   H2R23692   1.311   5.179   3.248 -1.2580  1.0267  0.3409
  192DOPC   H2S23693   1.397   5.342   3.259 -0.7427  0.4243 -0.9132
  192DOPC    C323694   1.171   5.505   2.873 -0.3203 -0.1191 -0.7305
  192DOPC    HX23695   1.161   5.523   2.764 -1.5243  1.3877 -0.4179
  192DOPC    HY23696   1.240   5.577   2.922  0.5027  1.7517 -4.2820
  192DOPC   O3123697   1.039   5.494   2.933 -0.0472 -0.4019  0.7134
  192DOPC   C3123698   0.968   5.605   2.931  1.3377  0.7111 -0.5406
  192DOPC   O3223699   1.002   5.711   2.887 -0.2143  0.3513  0.1795
  192DOPC   C3223700   0.829   5.575   2.994 -0.5017 -0.6154 -0.4819
  192DOPC   H2X23701   0.750   5.593   2.919  1.7692 -2.9416 -3.7356
  192DOPC   H2Y23702   0.823   5.470   3.028 -0.2660 -0.2644  0.7068
  192DOPC   C2323703   1.523   5.164   3.261  0.0960  0.0717  0.0435
  192DOPC   H3R23704   1.617   5.214   3.230  1.0855 -2.1671 -0.8291
  192DOPC   H3S23705   1.528   5.068   3.204  1.1536  0.2404 -0.1721
  192DOPC   C2423706   1.514   5.138   3.411  0.0104 -0.6121 -0.1725
  192DOPC   H4R23707   1.429   5.067   3.411 -1.0155  0.5906  0.4658
  192DOPC   H4S23708   1.487   5.234   3.458  2.1569 -0.5447  1.0627
  192DOPC   C2523709   1.643   5.097   3.476 -0.7870  0.5093  0.0716
  192DOPC   H5R23710   1.715   5.181   3.463 -0.5896  0.1241 -1.5949
  192DOPC   H5S23711   1.692   5.021   3.412  1.0516  1.0078  0.8356
  192DOPC   C2623712   1.627   5.055   3.627  0.4488 -0.2873 -0.1518
  192DOPC   H6R23713   1.652   4.947   3.629 -1.5456 -0.8544 -2.1297
  192DOPC   H6S23714   1.521   5.082   3.649  0.7845  1.5678 -0.6435
  192DOPC   C2723715   1.714   5.136   3.729  0.2554  0.3625  0.4345
  192DOPC   H7R23716   1.725   5.242   3.697 -1.5355  0.8377  1.2799
  192DOPC   H7S23717   1.815   5.097   3.707 -0.3257 -0.7875 -0.3283
  192DOPC   C2823718   1.672   5.139   3.875 -0.0103 -0.2664  0.1844
  192DOPC   H8R23719   1.575   5.192   3.881 -0.7297 -1.5684  0.2494
  192DOPC   H8S23720   1.741   5.197   3.941 -1.2976  1.3495  0.1847
  192DOPC   C2923721   1.657   5.003   3.934  0.2558 -0.6563  0.3960
  192DOPC   H9R23722   1.684   4.927   3.859  2.0871  0.5466 -0.2209
  192DOPC  C21023723   1.645   4.979   4.070  0.0535  0.5158  0.0780
  192DOPC  H10R23724   1.607   4.881   4.105 -1.4220  2.1554  3.5293
  192DOPC  C21123725   1.632   5.086   4.177 -0.1236  0.6335 -0.1769
  192DOPC  H11R23726   1.596   5.179   4.128 -1.3702  0.5335  0.5093
  192DOPC  H11S23727   1.734   5.096   4.220 -0.7424  0.9608  1.3005
  192DOPC  C21223728   1.560   5.052   4.310  0.5994  0.0508  0.2166
  192DOPC  H12R23729   1.449   5.055   4.308  0.5773 -0.4670  0.4454
  192DOPC  H12S23730   1.587   5.141   4.372  1.1409 -0.6042  0.9467
  192DOPC  C21323731   1.619   4.936   4.387  0.6033 -0.1089  0.5960
  192DOPC  H13R23732   1.728   4.956   4.394  0.6263 -0.4383  1.2870
  192DOPC  H13S23733   1.612   4.838   4.335 -0.9222  0.6587 -0.7384
  192DOPC  C21423734   1.557   4.915   4.530 -0.3454 -0.7132  0.1369
  192DOPC  H14R23735   1.446   4.921   4.528 -0.4073 -0.0354  2.6158
  192DOPC  H14S23736   1.603   4.988   4.600  1.4534 -1.4777 -0.1966
  192DOPC  C21523737   1.599   4.783   4.598  0.2765  0.3253 -0.0614
  192DOPC  H15R23738   1.707   4.774   4.573  0.5461  2.1398  0.2738
  192DOPC  H15S23739   1.549   4.698   4.546 -4.2819  2.2975  0.6221
  192DOPC  C21623740   1.568   4.767   4.753 -0.0262  0.0030  0.0267
  192DOPC  H16R23741   1.459   4.763   4.775  0.0031  0.5695  0.2929
  192DOPC  H16S23742   1.591   4.869   4.792 -1.2025  1.1293 -2.0520
  192DOPC  C21723743   1.648   4.671   4.830  0.1132 -0.4529 -0.8351
  192DOPC  H17R23744   1.755   4.702   4.834 -0.2189  0.6116  0.6933
  192DOPC  H17S23745   1.644   4.576   4.773 -1.2798  0.1327 -1.7720
  192DOPC  C21823746   1.596   4.637   4.974 -0.5611 -0.2607  1.2927
  192DOPC  H18R23747   1.494   4.593   4.970 -0.4867 -0.5087  2.0445
  192DOPC  H18S23748   1.611   4.728   5.036  2.3739 -0.1292  0.5436
  192DOPC  H18T23749   1.662   4.558   5.016  2.2839  0.3163 -1.6616
  192DOPC   C3323750   0.815   5.664   3.122 -0.2812  0.2453  0.1599
  192DOPC   H3X23751   0.799   5.771   3.095 -0.7640  0.1186 -0.0709
  192DOPC   H3Y23752   0.912   5.658   3.176 -0.4169 -0.4306  0.3325
  192DOPC   C3423753   0.706   5.620   3.225  0.0092  0.3851 -0.4675
  192DOPC   H4X23754   0.739   5.531   3.282  0.0964 -0.7347 -2.1835
  192DOPC   H4Y23755   0.613   5.592   3.172 -0.8457 -3.1196  2.4981
  192DOPC   C3523756   0.675   5.728   3.336  0.0627 -0.7108  0.6220
  192DOPC   H5X23757   0.607   5.801   3.286  1.2055  1.5535  2.2071
  192DOPC   H5Y23758   0.769   5.779   3.366  0.1499 -0.9702  0.7900
  192DOPC   C3623759   0.603   5.673   3.453 -0.2729  0.2840  0.8291
  192DOPC   H6X23760   0.527   5.608   3.405 -0.0315  1.6450 -1.5501
  192DOPC   H6Y23761   0.671   5.612   3.517  2.2324 -0.4429 -2.2947
  192DOPC   C3723762   0.529   5.781   3.530 -0.1758 -0.0898  0.1714
  192DOPC   H7X23763   0.464   5.824   3.451 -0.3025 -0.1607  0.2348
  192DOPC   H7Y23764   0.452   5.740   3.600 -0.4722 -0.7554 -0.5293
  192DOPC   C3823765   0.623   5.880   3.603  0.4623  1.3008 -0.4860
  192DOPC   H8X23766   0.560   5.963   3.641 -1.7877 -0.0275 -1.0559
  192DOPC   H8Y23767   0.691   5.930   3.532  0.4963 -1.1619 -2.3184
  192DOPC   C3923768   0.713   5.816   3.708  0.6549 -0.1015 -0.0225
  192DOPC   H9X23769   0.812   5.777   3.680  0.1611 -1.7095  0.3839
  192DOPC  C31023770   0.682   5.814   3.838  0.5169  0.1113  0.1335
  192DOPC  H10X23771   0.748   5.755   3.903 -2.0408 -1.3860  1.4758
  192DOPC  C31123772   0.559   5.872   3.900 -0.7373  0.1632 -0.2268
  192DOPC  H11X23773   0.475   5.849   3.831 -0.6485  0.9427 -0.5931
  192DOPC  H11Y23774   0.559   5.983   3.901  0.2807  0.1821  1.3922
  192DOPC  C31223775   0.526   5.817   4.040 -0.5034  0.4863 -0.0867
  192DOPC  H12X23776   0.521   5.706   4.039  1.5756  0.3370  0.4485
  192DOPC  H12Y23777   0.424   5.855   4.062 -1.1483  0.0117 -1.9972
  192DOPC  C31323778   0.620   5.852   4.162 -0.0038 -0.0728  0.4642
  192DOPC  H13X23779   0.722   5.810   4.147 -0.3216 -2.0207  3.1428
  192DOPC  H13Y23780   0.626   5.963   4.160  0.2842 -0.0944 -0.8690
  192DOPC  C31423781   0.565   5.805   4.302 -0.3381  0.3166  0.5040
  192DOPC  H14X23782   0.461   5.832   4.331 -0.0784  0.9299  0.8813
  192DOPC  H14Y23783   0.556   5.694   4.302 -1.4755  0.3725 -1.0212
  192DOPC  C31523784   0.656   5.851   4.410  0.3644  0.5063  0.2239
  192DOPC  H15X23785   0.662   5.961   4.395  0.3299  0.3342 -1.1637
  192DOPC  H15Y23786   0.753   5.800   4.394  0.2172 -0.2328  1.5505
  192DOPC  C31623787   0.620   5.813   4.552  0.6695  0.1188 -0.5820
  192DOPC  H16X23788   0.519   5.857   4.568  0.3068 -0.9660  0.1945
  192DOPC  H16Y23789   0.589   5.707   4.566 -2.2033  0.9631  0.0341
  192DOPC  C31723790   0.719   5.861   4.660  0.4593  0.1153 -0.0640
  192DOPC  H17X23791   0.729   5.970   4.640 -1.6089  0.2178 -0.7497
  192DOPC  H17Y23792   0.668   5.843   4.757 -1.5020  0.0592 -1.0561
  192DOPC  C31823793   0.864   5.803   4.652  0.1304 -0.2574  0.3058
  192DOPC  H18X23794   0.914   5.833   4.558 -1.0640 -0.5095 -0.4314
  192DOPC  H18Y23795   0.904   5.842   4.748  0.4649  1.7128 -0.5955
  192DOPC  H18Z23796   0.861   5.692   4.658 -0.7433 -0.2090  1.0189
  193DOPC     N23797   0.354   2.028   2.064 -0.2357 -0.2493 -0.5736
  193DOPC   C1223798   0.338   2.143   2.168 -0.4547  0.4760  0.7445
  193DOPC  H12A23799   0.256   2.208   2.141 -0.3052 -0.2504 -1.7514
  193DOPC  H12B23800   0.429   2.201   2.165 -0.4548  0.4532 -1.9592
  193DOPC   C1323801   0.399   2.084   1.932 -0.3060  0.4522  0.2619
  193DOPC  H13A23802   0.505   2.102   1.933 -0.0770 -0.6770 -1.2940
  193DOPC  H13B23803   0.379   2.006   1.860  1.8624 -0.4593  0.5679
  193DOPC  H13C23804   0.344   2.170   1.897 -1.4341 -0.2291  0.2939
  193DOPC   C1423805   0.218   1.957   2.046  0.3543  0.1254  0.1083
  193DOPC  H14A23806   0.146   2.026   2.005  2.1533  2.4458  0.6109
  193DOPC  H14B23807   0.230   1.879   1.972  0.6056  1.3238 -1.1516
  193DOPC  H14C23808   0.181   1.924   2.142 -1.0426 -0.6434 -0.6697
  193DOPC   C1523809   0.451   1.929   2.111  0.0998  0.4064 -0.0182
  193DOPC  H15A23810   0.420   1.889   2.207 -0.1354 -0.8245 -0.5818
  193DOPC  H15B23811   0.551   1.970   2.115 -0.9821  3.3996 -0.9954
  193DOPC  H15C23812   0.452   1.848   2.040 -1.2161  1.3715 -1.1770
  193DOPC   C1123813   0.300   2.109   2.318  0.4047 -0.3527 -0.5340
  193DOPC  H11A23814   0.383   2.047   2.358  1.0599  1.6506  1.4194
  193DOPC  H11B23815   0.299   2.204   2.375 -1.8255 -0.5560 -0.1617
  193DOPC     P23816   0.041   2.093   2.303  0.3253 -0.0622  0.1165
  193DOPC   O1323817  -0.040   2.005   2.212  0.0345  0.1049  0.0612
  193DOPC   O1423818   0.055   2.234   2.269  0.9344 -0.3053  0.1321
  193DOPC   O1223819   0.181   2.030   2.321 -0.2883  0.4038 -0.1855
  193DOPC   O1123820  -0.027   2.077   2.447  0.2367 -0.7412  0.0524
  193DOPC    C123821   0.048   2.121   2.568  0.0161 -0.0528  0.4319
  193DOPC    HA23822   0.155   2.141   2.546 -0.2058  0.5265 -0.1694
  193DOPC    HB23823   0.040   2.038   2.641 -0.1878 -0.8973 -0.5247
  193DOPC    C223824  -0.005   2.246   2.644 -0.4094 -0.4502  0.4247
  193DOPC    HS23825   0.069   2.262   2.725  1.1062 -2.6802 -0.4053
  193DOPC   O2123826  -0.145   2.239   2.686  0.2158  0.4022 -0.5882
  193DOPC   C2123827  -0.164   2.195   2.811 -0.0822  0.4992 -0.0949
  193DOPC   O2223828  -0.073   2.152   2.889 -0.2562 -0.1226 -0.2236
  193DOPC   C2223829  -0.296   2.225   2.856  0.3728  0.1687  0.0808
  193DOPC   H2R23830  -0.351   2.129   2.843 -1.6285  1.3261 -0.3358
  193DOPC   H2S23831  -0.359   2.284   2.786  0.6130 -0.5924 -0.8011
  193DOPC    C323832  -0.002   2.364   2.544  0.2908  0.1431  0.0682
  193DOPC    HX23833  -0.079   2.361   2.465  2.7814  0.9737 -2.5520
  193DOPC    HY23834   0.096   2.334   2.502  0.1890 -0.5076  0.2921
  193DOPC   O3123835   0.020   2.481   2.616  0.2971  0.2951 -0.3695
  193DOPC   C3123836  -0.030   2.601   2.571  0.1368  0.4492 -0.4125
  193DOPC   O3223837  -0.087   2.612   2.464 -0.1968 -0.0507  0.7997
  193DOPC   C3223838  -0.025   2.714   2.676 -0.1376 -0.8373  0.6742
  193DOPC   H2X23839   0.015   2.802   2.621 -1.4951 -1.2144 -1.0140
  193DOPC   H2Y23840  -0.131   2.737   2.698 -0.4968 -0.0969 -1.5913
  193DOPC   C2323841  -0.310   2.245   3.007 -0.3730 -0.1674  0.3015
  193DOPC   H3R23842  -0.245   2.327   3.047 -1.2492 -0.7581  3.1697
  193DOPC   H3S23843  -0.285   2.149   3.057  3.5740  0.4307 -0.1307
  193DOPC   C2423844  -0.456   2.293   3.036 -1.4161  0.1464  0.9636
  193DOPC   H4R23845  -0.524   2.214   3.000 -2.8687  0.1841  3.3883
  193DOPC   H4S23846  -0.456   2.388   2.977  2.2463  0.4652  1.2168
  193DOPC   C2523847  -0.497   2.306   3.180 -0.1255 -0.6654  0.3984
  193DOPC   H5R23848  -0.430   2.378   3.232  0.7650  0.6048 -2.2812
  193DOPC   H5S23849  -0.494   2.203   3.220  0.2408 -0.7098  0.2582
  193DOPC   C2623850  -0.638   2.361   3.209 -0.1100 -0.4698  0.8700
  193DOPC   H6R23851  -0.713   2.304   3.150  0.5414  0.5105 -0.9911
  193DOPC   H6S23852  -0.644   2.463   3.165 -0.8886 -1.0231 -0.3844
  193DOPC   C2723853  -0.678   2.379   3.352  0.8121 -0.0631 -0.4887
  193DOPC   H7R23854  -0.698   2.280   3.399 -0.7315 -0.2232 -1.4325
  193DOPC   H7S23855  -0.774   2.435   3.353  0.1855 -1.0421  1.8772
  193DOPC   C2823856  -0.574   2.457   3.441 -0.7454 -0.3839 -0.9378
  193DOPC   H8R23857  -0.530   2.545   3.390  2.4440 -0.5455  1.2773
  193DOPC   H8S23858  -0.484   2.394   3.453  0.1073  1.0564  0.6803
  193DOPC   C2923859  -0.640   2.490   3.571  0.1019  0.0416  0.3596
  193DOPC   H9R23860  -0.719   2.566   3.562 -1.3731 -1.2849  1.4810
  193DOPC  C21023861  -0.616   2.429   3.686 -0.2315  0.2764 -0.1341
  193DOPC  H10R23862  -0.677   2.457   3.773 -1.4503  0.2754 -0.9671
  193DOPC  C21123863  -0.516   2.324   3.705  0.2108 -0.0718  0.2390
  193DOPC  H11R23864  -0.483   2.317   3.811 -2.3679 -0.2907  1.0907
  193DOPC  H11S23865  -0.423   2.339   3.645  0.4548 -0.3544  0.5448
  193DOPC  C21223866  -0.569   2.182   3.671 -0.6539 -0.2820  0.2456
  193DOPC  H12R23867  -0.477   2.121   3.681  0.0075  0.5295 -0.5906
  193DOPC  H12S23868  -0.600   2.178   3.564  0.3976 -0.8328 -0.0550
  193DOPC  C21323869  -0.685   2.134   3.760  0.2759 -0.5834  0.2408
  193DOPC  H13R23870  -0.733   2.045   3.714 -0.7803  0.0856  0.0334
  193DOPC  H13S23871  -0.751   2.223   3.754  1.6008  0.4838  1.0026
  193DOPC  C21423872  -0.640   2.107   3.903 -0.3315 -0.0500 -0.4625
  193DOPC  H14R23873  -0.590   2.201   3.933 -1.2120  0.1343  0.4988
  193DOPC  H14S23874  -0.569   2.022   3.917 -1.7698 -1.3284 -0.6324
  193DOPC  C21523875  -0.764   2.095   4.002 -0.2748 -0.4405  0.2735
  193DOPC  H15R23876  -0.834   2.177   3.974 -0.4640 -1.2347 -1.6888
  193DOPC  H15S23877  -0.723   2.106   4.105 -0.8169 -0.9776  0.5543
  193DOPC  C21623878  -0.838   1.961   3.995 -0.1813 -0.2009 -0.2872
  193DOPC  H16R23879  -0.888   1.933   3.900  0.7710  1.3576 -1.2925
  193DOPC  H16S23880  -0.916   1.965   4.074  0.2180 -1.6752  0.1991
  193DOPC  C21723881  -0.742   1.845   4.026 -1.0967 -0.0798 -0.0911
  193DOPC  H17R23882  -0.668   1.880   4.101 -0.8078  1.6761 -1.1460
  193DOPC  H17S23883  -0.681   1.837   3.934 -0.8697  0.1613  0.0371
  193DOPC  C21823884  -0.802   1.715   4.069  0.3357 -0.2775 -0.5046
  193DOPC  H18R23885  -0.877   1.682   3.994  0.0711 -0.1167 -0.3105
  193DOPC  H18S23886  -0.834   1.722   4.175  1.2060  1.0894 -0.3049
  193DOPC  H18T23887  -0.725   1.635   4.065 -1.2154 -1.9023  0.5581
  193DOPC   C3323888   0.049   2.679   2.804  0.1014  0.0528  0.2904
  193DOPC   H3X23889   0.082   2.778   2.845  0.2651 -0.0968  0.5245
  193DOPC   H3Y23890   0.141   2.617   2.792  0.4583  0.3844  1.1802
  193DOPC   C3423891  -0.038   2.610   2.910  0.4317 -0.3284 -0.2435
  193DOPC   H4X23892  -0.101   2.526   2.874 -0.7887  0.2719  0.4302
  193DOPC   H4Y23893  -0.106   2.691   2.945 -1.9253 -1.7950 -1.2247
  193DOPC   C3523894   0.054   2.572   3.030  0.5628 -0.0224  0.2224
  193DOPC   H5X23895   0.138   2.644   3.033  2.4695 -2.0909 -0.4949
  193DOPC   H5Y23896   0.088   2.469   3.005  0.1681 -0.0462 -0.2205
  193DOPC   C3623897  -0.034   2.582   3.158  0.5617  0.0941 -0.1641
  193DOPC   H6X23898  -0.032   2.687   3.194  1.5693  0.4360 -1.1621
  193DOPC   H6Y23899  -0.139   2.566   3.127  0.7202 -0.7687 -0.2813
  193DOPC   C3723900   0.011   2.487   3.269  0.3197 -0.6134  0.1207
  193DOPC   H7X23901  -0.021   2.383   3.248  0.5162 -0.9183  1.2588
  193DOPC   H7Y23902   0.121   2.492   3.251  0.0439 -1.3083 -2.0281
  193DOPC   C3823903  -0.026   2.535   3.404  0.3609 -0.2282 -0.0444
  193DOPC   H8X23904   0.008   2.637   3.432  2.4637 -1.2217  1.3157
  193DOPC   H8Y23905   0.035   2.480   3.479  1.4830 -0.7525 -1.3022
  193DOPC   C3923906  -0.181   2.525   3.427 -0.2138 -0.0582 -0.0952
  193DOPC   H9X23907  -0.251   2.504   3.345 -0.3947 -0.7268  0.2252
  193DOPC  C31023908  -0.222   2.542   3.550 -0.0933 -0.4770  0.1261
  193DOPC  H10X23909  -0.329   2.524   3.565  0.2532 -2.4593  0.5324
  193DOPC  C31123910  -0.148   2.567   3.671  0.7903  0.1754 -0.1765
  193DOPC  H11X23911  -0.047   2.607   3.647  0.9946  0.5277  1.1680
  193DOPC  H11Y23912  -0.121   2.474   3.725  0.4582 -0.9328 -1.8592
  193DOPC  C31223913  -0.209   2.669   3.777  0.2561 -0.7466 -0.0121
  193DOPC  H12X23914  -0.256   2.757   3.727  0.9337 -0.0402  0.5815
  193DOPC  H12Y23915  -0.128   2.723   3.829  0.6372 -0.1942 -1.1264
  193DOPC  C31323916  -0.309   2.608   3.872 -0.4599 -0.2710 -0.6270
  193DOPC  H13X23917  -0.379   2.531   3.832 -0.4314 -0.7748  0.2635
  193DOPC  H13Y23918  -0.241   2.558   3.945  0.7113 -0.7743 -2.0101
  193DOPC  C31423919  -0.382   2.717   3.958  0.0219  0.2750  0.4661
  193DOPC  H14X23920  -0.307   2.754   4.032  1.5651  0.2548 -1.0122
  193DOPC  H14Y23921  -0.398   2.800   3.886 -2.4994 -1.3573 -0.9835
  193DOPC  C31523922  -0.515   2.672   4.010  0.5787 -0.4305  0.0704
  193DOPC  H15X23923  -0.578   2.650   3.922  0.0225  0.9440  0.0997
  193DOPC  H15Y23924  -0.564   2.760   4.058  1.3575  0.7076 -1.1755
  193DOPC  C31623925  -0.507   2.542   4.097 -1.1195 -0.0203  0.1567
  193DOPC  H16X23926  -0.504   2.457   4.026  2.0356  0.5285 -0.4883
  193DOPC  H16Y23927  -0.409   2.551   4.149  0.0853 -1.0755 -1.8266
  193DOPC  C31723928  -0.615   2.520   4.196 -0.0459  0.1922  0.1083
  193DOPC  H17X23929  -0.609   2.596   4.277  0.5455 -0.2262  0.4623
  193DOPC  H17Y23930  -0.714   2.524   4.147  0.4796  4.1536 -1.0115
  193DOPC  C31823931  -0.610   2.380   4.264  0.0323  0.1542 -0.5803
  193DOPC  H18X23932  -0.706   2.368   4.317 -0.8210  0.3027 -2.0400
  193DOPC  H18Y23933  -0.611   2.299   4.188  0.1253 -1.9887  1.5911
  193DOPC  H18Z23934  -0.520   2.368   4.329  0.4191  0.9541 -0.9488
  194DOPC     N23935   2.378   1.017   2.656 -1.1401  0.3942 -0.1900
  194DOPC   C1223936   2.394   0.996   2.806  0.9953 -0.0695 -0.0737
  194DOPC  H12A23937   2.491   0.955   2.828  0.9385  0.1634  0.6382
  194DOPC  H12B23938   2.326   0.916   2.833  0.2027  0.4210 -0.5559
  194DOPC   C1323939   2.457   1.136   2.619 -0.1314  0.5584 -0.0849
  194DOPC  H13A23940   2.562   1.122   2.637 -0.1667  3.0606  2.8057
  194DOPC  H13B23941   2.447   1.161   2.514  0.5018  0.9756 -0.0538
  194DOPC  H13C23942   2.425   1.224   2.673 -0.6275 -0.3414  1.1057
  194DOPC   C1423943   2.232   1.045   2.619 -0.3299  0.1881 -0.1144
  194DOPC  H14A23944   2.189   1.117   2.687 -1.0562 -0.0503 -0.3179
  194DOPC  H14B23945   2.225   1.078   2.516 -2.0624  0.6766  0.1299
  194DOPC  H14C23946   2.176   0.959   2.651 -0.9558  0.9493  0.9121
  194DOPC   C1523947   2.426   0.895   2.580  0.6251 -0.6389  0.4207
  194DOPC  H15A23948   2.509   0.852   2.634  2.3202  1.9388  0.0124
  194DOPC  H15B23949   2.465   0.914   2.481  0.4247 -1.2896  0.2103
  194DOPC  H15C23950   2.341   0.829   2.566  0.5878 -0.1689 -1.8871
  194DOPC   C1123951   2.367   1.118   2.902  0.6135 -0.0882 -0.5489
  194DOPC  H11A23952   2.269   1.172   2.897  1.5798  2.4704  3.4097
  194DOPC  H11B23953   2.370   1.069   3.002  1.8577  1.9085  0.4736
  194DOPC     P23954   2.597   1.215   2.978  0.5230 -0.7907  0.3866
  194DOPC   O1323955   2.688   1.305   2.908  0.5342 -0.6824 -0.3224
  194DOPC   O1423956   2.648   1.080   2.997  0.8375 -0.1016 -0.2107
  194DOPC   O1223957   2.464   1.218   2.892 -0.2082 -0.3271 -0.4090
  194DOPC   O1123958   2.553   1.270   3.121 -0.1527  0.3766 -0.2493
  194DOPC    C123959   2.490   1.206   3.230  0.1849 -0.2273 -0.3134
  194DOPC    HA23960   2.492   1.095   3.225 -0.7736 -0.2792  0.1832
  194DOPC    HB23961   2.381   1.229   3.233  0.2443 -0.0237  0.3497
  194DOPC    C223962   2.564   1.232   3.361  0.5848 -0.5088 -0.9121
  194DOPC    HS23963   2.532   1.151   3.429 -2.2367  1.5257  0.4124
  194DOPC   O2123964   2.530   1.357   3.414  0.3316  0.0680 -0.0397
  194DOPC   C2123965   2.418   1.376   3.460 -0.9544  0.3004 -0.3369
  194DOPC   O2223966   2.325   1.299   3.472  0.1525 -0.1306 -0.4254
  194DOPC   C2223967   2.412   1.523   3.519 -0.1413  0.4518  0.5194
  194DOPC   H2R23968   2.372   1.588   3.437 -0.2016 -1.2093 -0.8231
  194DOPC   H2S23969   2.515   1.561   3.539 -1.1958  3.1046  1.2968
  194DOPC    C323970   2.718   1.239   3.338 -0.1884  0.5809  0.2660
  194DOPC    HX23971   2.753   1.318   3.269  2.3586  2.0081  2.9625
  194DOPC    HY23972   2.738   1.135   3.304  0.6411  0.7214  0.3066
  194DOPC   O3123973   2.798   1.259   3.455  0.2493 -0.1703 -0.1413
  194DOPC   C3123974   2.791   1.174   3.557  0.2019 -0.3024 -0.7188
  194DOPC   O3223975   2.739   1.062   3.551  0.0175  1.2252 -0.0007
  194DOPC   C3223976   2.883   1.223   3.670  0.9577  0.1697  0.0172
  194DOPC   H2X23977   2.985   1.200   3.632  0.0968 -0.7467 -1.8323
  194DOPC   H2Y23978   2.858   1.331   3.684 -1.7216 -0.2730 -0.8370
  194DOPC   C2323979   2.335   1.523   3.653 -0.0005 -0.2447 -0.7329
  194DOPC   H3R23980   2.233   1.479   3.649 -0.2249  0.2275 -0.2933
  194DOPC   H3S23981   2.332   1.629   3.686  2.0279  0.1387 -1.6214
  194DOPC   C2423982   2.409   1.456   3.776  1.4454 -0.1994  0.4589
  194DOPC   H4R23983   2.482   1.528   3.820 -0.2656  1.1750  1.1417
  194DOPC   H4S23984   2.455   1.358   3.751 -1.5219 -1.4244 -0.6914
  194DOPC   C2523985   2.314   1.434   3.891  0.2230  0.5812 -0.2388
  194DOPC   H5R23986   2.227   1.370   3.863 -0.3598  1.7720 -1.2576
  194DOPC   H5S23987   2.266   1.527   3.929 -0.2307 -0.3524  1.6064
  194DOPC   C2623988   2.378   1.358   4.010  0.9695 -0.2951  0.3302
  194DOPC   H6R23989   2.421   1.437   4.075 -0.8207  2.7121 -1.8438
  194DOPC   H6S23990   2.463   1.302   3.967  0.6867  0.7512 -1.7082
  194DOPC   C2723991   2.298   1.243   4.077  1.2500 -0.3225 -0.1344
  194DOPC   H7R23992   2.268   1.157   4.014 -1.3534  0.7631 -0.5026
  194DOPC   H7S23993   2.203   1.286   4.115  0.8780 -1.6460  0.4927
  194DOPC   C2823994   2.368   1.186   4.203 -0.2881  0.3600 -0.0617
  194DOPC   H8R23995   2.476   1.211   4.193 -0.0486 -0.9003 -0.7925
  194DOPC   H8S23996   2.349   1.077   4.194 -0.2671  0.3905 -0.4784
  194DOPC   C2923997   2.317   1.240   4.336 -0.3725  0.1275 -0.0611
  194DOPC   H9R23998   2.210   1.220   4.350 -0.5887  1.2575  0.0125
  194DOPC  C21023999   2.387   1.321   4.419  0.2489  0.9043  0.1564
  194DOPC  H10R24000   2.339   1.377   4.500  1.8157 -0.0167  1.8042
  194DOPC  C21124001   2.522   1.368   4.402 -0.8679 -0.2044  0.3784
  194DOPC  H11R24002   2.582   1.311   4.327  0.0351 -0.4783  1.2906
  194DOPC  H11S24003   2.569   1.342   4.499 -0.8570  0.5701  0.5900
  194DOPC  C21224004   2.540   1.518   4.366  0.5683 -0.1523  0.4916
  194DOPC  H12R24005   2.504   1.590   4.442  2.6981 -0.1224  1.5404
  194DOPC  H12S24006   2.498   1.542   4.265  0.8156 -1.5238  0.0402
  194DOPC  C21324007   2.689   1.560   4.353  0.3846  0.7634 -0.4786
  194DOPC  H13R24008   2.697   1.664   4.315 -2.9218  1.6905  1.0260
  194DOPC  H13S24009   2.735   1.482   4.288 -0.5092  0.9241 -1.3387
  194DOPC  C21424010   2.756   1.571   4.492 -0.9533  0.3274  0.4254
  194DOPC  H14R24011   2.736   1.474   4.543 -0.1786 -0.4809 -0.7721
  194DOPC  H14S24012   2.692   1.647   4.542  0.6027 -0.2084  3.4596
  194DOPC  C21524013   2.911   1.598   4.494  0.1295 -0.0204 -0.0525
  194DOPC  H15R24014   2.927   1.687   4.430  0.2790  1.5353  2.0344
  194DOPC  H15S24015   2.953   1.503   4.454 -0.3823  0.2943 -1.3712
  194DOPC  C21624016   2.959   1.631   4.637  0.0433 -0.5559 -0.0751
  194DOPC  H16R24017   2.959   1.535   4.693 -0.2770 -2.7727 -3.5972
  194DOPC  H16S24018   2.886   1.702   4.682 -0.9758 -0.0945 -2.3165
  194DOPC  C21724019   3.101   1.693   4.636 -0.3311  0.6743 -0.0466
  194DOPC  H17R24020   3.129   1.736   4.735  0.3020  0.1043  0.0278
  194DOPC  H17S24021   3.087   1.776   4.563 -1.9292 -0.1682 -0.7235
  194DOPC  C21824022   3.210   1.604   4.586 -0.2189  0.4240  0.1373
  194DOPC  H18R24023   3.187   1.565   4.485  0.2090 -0.9642  0.5542
  194DOPC  H18S24024   3.232   1.520   4.655 -0.3576  1.0409  0.9467
  194DOPC  H18T24025   3.302   1.665   4.592  0.1043 -0.1730  2.9330
  194DOPC   C3324026   2.868   1.134   3.800 -0.4369 -0.2045 -0.2374
  194DOPC   H3X24027   2.949   1.148   3.875 -0.6980 -2.2157  0.4758
  194DOPC   H3Y24028   2.864   1.028   3.767 -0.7851  0.5596 -2.9045
  194DOPC   C3424029   2.741   1.173   3.875  0.2013  0.6201 -0.0012
  194DOPC   H4X24030   2.650   1.154   3.813 -1.0878  0.3136  1.8980
  194DOPC   H4Y24031   2.730   1.280   3.902  2.2273  0.6333  0.9542
  194DOPC   C3524032   2.718   1.082   4.007  0.5168 -0.5700  0.6109
  194DOPC   H5X24033   2.729   0.975   3.981 -1.8765 -0.3899 -1.4565
  194DOPC   H5Y24034   2.609   1.096   4.023  0.6168 -1.8873  2.8097
  194DOPC   C3624035   2.793   1.133   4.128 -0.1972 -0.7467 -0.3653
  194DOPC   H6X24036   2.895   1.090   4.127  0.7399  1.3953 -1.4480
  194DOPC   H6Y24037   2.800   1.243   4.125 -0.5953 -0.7453 -2.6601
  194DOPC   C3724038   2.731   1.085   4.259  1.0676 -0.1319 -0.0210
  194DOPC   H7X24039   2.627   1.124   4.269  1.0494  0.0072 -0.6885
  194DOPC   H7Y24040   2.713   0.976   4.263 -1.1370  0.1749 -0.0132
  194DOPC   C3824041   2.810   1.136   4.378  0.5174 -0.4026  0.8945
  194DOPC   H8X24042   2.813   1.245   4.397  0.5258 -0.4566  1.2123
  194DOPC   H8Y24043   2.916   1.104   4.370  0.3725 -0.4277 -2.3859
  194DOPC   C3924044   2.760   1.073   4.505 -0.4280 -0.3292 -0.6146
  194DOPC   H9X24045   2.715   0.973   4.492  2.4610 -1.6536 -1.1870
  194DOPC  C31024046   2.764   1.117   4.631  0.3673  0.1984  0.4891
  194DOPC  H10X24047   2.703   1.051   4.696 -0.7229  1.4569  0.8032
  194DOPC  C31124048   2.819   1.242   4.693  1.1048 -0.5132  0.6441
  194DOPC  H11X24049   2.741   1.305   4.739  0.2052 -0.0438 -1.3948
  194DOPC  H11Y24050   2.847   1.303   4.604  0.8079 -0.5334  0.5344
  194DOPC  C31224051   2.935   1.210   4.781 -0.6743 -0.4029 -0.3858
  194DOPC  H12X24052   2.896   1.144   4.862 -2.5780  1.5840  0.3993
  194DOPC  H12Y24053   2.982   1.299   4.828 -1.2230  1.1434 -2.6117
  194DOPC  C31324054   3.039   1.138   4.708 -0.3329  0.7233  0.4185
  194DOPC  H13X24055   2.999   1.041   4.672 -0.4675  0.6258  0.8274
  194DOPC  H13Y24056   3.074   1.203   4.625 -0.7876 -0.9064 -1.1273
  194DOPC  C31424057   3.161   1.109   4.785 -0.7697 -0.4735 -0.4153
  194DOPC  H14X24058   3.122   1.049   4.870 -0.1193  0.3460  0.4846
  194DOPC  H14Y24059   3.216   1.033   4.725 -0.9305 -1.5377  0.7387
  194DOPC  C31524060   3.254   1.220   4.833 -0.0392  0.0658 -0.6472
  194DOPC  H15X24061   3.215   1.315   4.874  1.7706  0.7387 -0.3773
  194DOPC  H15Y24062   3.298   1.255   4.737 -2.0586  0.3159 -1.5295
  194DOPC  C31624063   3.373   1.168   4.919 -0.0797  0.0465  0.5875
  194DOPC  H16X24064   3.332   1.145   5.020  0.3626 -2.2406  0.3005
  194DOPC  H16Y24065   3.403   1.067   4.883 -2.8422 -0.3463 -0.8648
  194DOPC  C31724066   3.484   1.278   4.928  0.9832 -0.2152  0.6179
  194DOPC  H17X24067   3.568   1.235   4.988  0.9367 -1.4151 -0.1347
  194DOPC  H17Y24068   3.524   1.288   4.825  4.2294 -1.4714  1.6235
  194DOPC  C31824069   3.441   1.420   4.973  0.9866 -0.2004 -0.5122
  194DOPC  H18X24070   3.357   1.451   4.908 -0.1980 -1.4427  0.3763
  194DOPC  H18Y24071   3.411   1.432   5.079  3.9429  0.0455  0.4088
  194DOPC  H18Z24072   3.518   1.499   4.964  0.3863  0.6200  1.1307
  195DOPC     N24073   6.401   0.669   2.016  0.1752  0.5913 -0.2180
  195DOPC   C1224074   6.303   0.628   2.123  0.2628  0.6641  0.4411
  195DOPC  H12A24075   6.215   0.580   2.083 -0.2811  2.5293 -0.7383
  195DOPC  H12B24076   6.263   0.717   2.169 -1.0832 -1.3227  3.3740
  195DOPC   C1324077   6.509   0.740   2.083 -0.0172 -0.3259  0.2001
  195DOPC  H13A24078   6.563   0.675   2.151  2.0744  0.2234 -0.8564
  195DOPC  H13B24079   6.588   0.777   2.019  0.1770 -1.3304 -0.1571
  195DOPC  H13C24080   6.474   0.819   2.148  0.9323 -1.6004  2.3854
  195DOPC   C1424081   6.345   0.759   1.914  0.1560  0.0639  0.3255
  195DOPC  H14A24082   6.306   0.848   1.963  0.8351 -0.4598  1.8935
  195DOPC  H14B24083   6.413   0.799   1.840 -0.7032 -2.0008 -1.6967
  195DOPC  H14C24084   6.262   0.722   1.855 -0.2473  1.4741 -0.0335
  195DOPC   C1524085   6.460   0.546   1.948 -0.6376  0.0733  0.1258
  195DOPC  H15A24086   6.382   0.485   1.906 -2.3029  1.6718  0.7660
  195DOPC  H15B24087   6.507   0.475   2.015 -1.4179 -1.3849 -0.8173
  195DOPC  H15C24088   6.523   0.575   1.866  2.0457 -2.2622  1.1945
  195DOPC   C1124089   6.353   0.535   2.236  0.5971  0.6145  0.1813
  195DOPC  H11A24090   6.454   0.566   2.270  0.5244  0.7267  0.2939
  195DOPC  H11B24091   6.279   0.555   2.316  1.1558  0.6687  0.6854
  195DOPC     P24092   6.230   0.309   2.198  0.5214  0.6429 -0.2386
  195DOPC   O1324093   6.268   0.172   2.158  0.4143  0.6464  0.3554
  195DOPC   O1424094   6.123   0.372   2.112  0.0698  0.3018 -0.5347
  195DOPC   O1224095   6.354   0.395   2.192 -0.3121  0.0777  0.3443
  195DOPC   O1124096   6.190   0.305   2.348  0.5587 -0.4806 -0.2567
  195DOPC    C124097   6.274   0.285   2.458  0.2358 -0.0064  0.3882
  195DOPC    HA24098   6.327   0.381   2.472  1.9850 -1.1452  2.1148
  195DOPC    HB24099   6.353   0.213   2.427  0.9845 -0.0984  2.4035
  195DOPC    C224100   6.197   0.232   2.584 -0.0397  0.4126  0.8010
  195DOPC    HS24101   6.268   0.212   2.668  1.3095  0.7967 -0.2078
  195DOPC   O2124102   6.122   0.113   2.554  0.1142 -0.0308 -0.5897
  195DOPC   C2124103   6.193   0.008   2.553  0.3821  0.1442 -0.5631
  195DOPC   O2224104   6.311  -0.005   2.587  0.2401  0.1805 -0.6542
  195DOPC   C2224105   6.111  -0.109   2.493  0.0910 -1.0915 -0.1755
  195DOPC   H2R24106   6.156  -0.125   2.393 -1.5488 -0.4764 -1.0431
  195DOPC   H2S24107   6.008  -0.073   2.474  0.0022 -1.4403 -0.3439
  195DOPC    C324108   6.099   0.347   2.632  0.3467 -0.5441 -0.6460
  195DOPC    HX24109   6.005   0.332   2.573 -0.4146  0.1690  0.3429
  195DOPC    HY24110   6.130   0.450   2.603  0.9594 -0.5180  0.0762
  195DOPC   O3124111   6.094   0.336   2.777 -0.3107 -0.0725  0.4460
  195DOPC   C3124112   5.999   0.259   2.833 -0.6471  0.7441  0.1063
  195DOPC   O3224113   5.919   0.199   2.765  0.7719 -0.2953 -0.4462
  195DOPC   C3224114   6.006   0.257   2.980  0.0697  0.8135  0.0290
  195DOPC   H2X24115   6.096   0.306   3.022 -0.8759  1.9197  0.8577
  195DOPC   H2Y24116   5.916   0.314   3.014 -0.4814  0.7106 -1.2115
  195DOPC   C2324117   6.099  -0.236   2.585 -0.2209 -0.3279 -0.5110
  195DOPC   H3R24118   6.199  -0.276   2.611  0.6154 -0.0881 -3.1141
  195DOPC   H3S24119   6.060  -0.325   2.530  0.5464 -1.6634  1.0389
  195DOPC   C2424120   6.008  -0.222   2.700 -0.1032 -0.6246  0.2948
  195DOPC   H4R24121   5.917  -0.162   2.681  0.0748 -0.6075 -0.5583
  195DOPC   H4S24122   6.056  -0.171   2.786  0.3071 -1.5361  0.6249
  195DOPC   C2524123   5.963  -0.354   2.764 -0.9275 -0.0610  1.0678
  195DOPC   H5R24124   6.046  -0.407   2.816  0.8217  1.4992 -0.0112
  195DOPC   H5S24125   5.932  -0.415   2.676 -0.1685 -0.5667  1.1360
  195DOPC   C2624126   5.853  -0.332   2.865 -0.4042 -0.1080 -0.7601
  195DOPC   H6R24127   5.775  -0.281   2.806 -2.2826 -0.5078  1.2649
  195DOPC   H6S24128   5.886  -0.273   2.953  0.6261 -1.3529 -0.2796
  195DOPC   C2724129   5.776  -0.455   2.919  0.4896  0.2650 -0.2602
  195DOPC   H7R24130   5.849  -0.532   2.954 -0.2649 -1.3403 -2.0286
  195DOPC   H7S24131   5.726  -0.511   2.837  2.6681 -1.2777 -0.6334
  195DOPC   C2824132   5.672  -0.421   3.033  0.5557 -0.0548  0.1246
  195DOPC   H8R24133   5.609  -0.347   2.979  1.6373  0.3686 -0.5849
  195DOPC   H8S24134   5.716  -0.373   3.123 -0.5054 -0.0461  0.6508
  195DOPC   C2924135   5.591  -0.544   3.063  0.4859  0.4970 -0.3433
  195DOPC   H9R24136   5.537  -0.586   2.977 -0.0605  2.0198 -0.7819
  195DOPC  C21024137   5.566  -0.604   3.176  0.7082  0.1104 -0.2263
  195DOPC  H10R24138   5.502  -0.694   3.182  5.0520 -3.2588  1.6444
  195DOPC  C21124139   5.619  -0.576   3.320  0.8159 -0.0959 -0.1954
  195DOPC  H11R24140   5.693  -0.495   3.311  1.8183 -1.1034 -1.5321
  195DOPC  H11S24141   5.659  -0.666   3.372  1.5320  0.4651  0.2360
  195DOPC  C21224142   5.500  -0.507   3.393 -0.0184  0.4007  0.4582
  195DOPC  H12R24143   5.408  -0.569   3.389 -0.5083  1.1032  0.5649
  195DOPC  H12S24144   5.488  -0.409   3.342 -1.6514  0.6621  1.2541
  195DOPC  C21324145   5.540  -0.470   3.532 -0.2044 -0.4512 -0.5731
  195DOPC  H13R24146   5.464  -0.398   3.569  0.9009  1.4538 -1.8304
  195DOPC  H13S24147   5.636  -0.415   3.530  1.5079 -3.2849 -2.2179
  195DOPC  C21424148   5.551  -0.583   3.630 -0.0237  0.2632  0.2514
  195DOPC  H14R24149   5.629  -0.656   3.597 -0.2519 -0.8106  1.9998
  195DOPC  H14S24150   5.465  -0.651   3.620  1.8777 -2.5560  1.7838
  195DOPC  C21524151   5.565  -0.541   3.769  0.4740  0.5433  0.4039
  195DOPC  H15R24152   5.564  -0.630   3.835  3.6236  0.7311  0.8702
  195DOPC  H15S24153   5.471  -0.493   3.801 -0.4010 -0.3416 -0.7319
  195DOPC  C21624154   5.686  -0.449   3.797  0.3168  0.6255 -0.2006
  195DOPC  H16R24155   5.671  -0.352   3.744 -2.6590  0.3388 -0.0376
  195DOPC  H16S24156   5.778  -0.494   3.753 -1.3785 -0.9324 -2.4125
  195DOPC  C21724157   5.709  -0.424   3.943 -0.1142  0.4040  0.2198
  195DOPC  H17R24158   5.711  -0.519   4.001  1.1627  0.4453  0.2740
  195DOPC  H17S24159   5.615  -0.376   3.979 -0.3966 -0.3573  0.5197
  195DOPC  C21824160   5.834  -0.324   3.953 -0.1155  0.1917  0.0689
  195DOPC  H18R24161   5.877  -0.329   4.055  2.2158  0.2667 -0.8436
  195DOPC  H18S24162   5.799  -0.224   3.918 -2.1694 -1.3110 -2.5969
  195DOPC  H18T24163   5.916  -0.366   3.891 -1.9126 -1.8717 -1.0622
  195DOPC   C3324164   6.000   0.117   3.040  0.1929 -0.1683  0.6411
  195DOPC   H3X24165   6.074   0.047   2.995 -0.2326  0.7354 -1.5792
  195DOPC   H3Y24166   5.902   0.069   3.017  0.2922  0.4130 -1.0939
  195DOPC   C3424167   6.021   0.121   3.191  0.0810  0.4475  0.5494
  195DOPC   H4X24168   5.972   0.209   3.237 -4.0708 -0.9902 -0.6379
  195DOPC   H4Y24169   6.127   0.135   3.221 -0.3259  2.8838  0.9957
  195DOPC   C3524170   5.981  -0.005   3.273 -0.3692  0.2042 -0.6975
  195DOPC   H5X24171   6.034  -0.096   3.237 -1.6200 -1.4670  1.4678
  195DOPC   H5Y24172   5.873  -0.012   3.248 -0.7001  0.3298  0.6532
  195DOPC   C3624173   5.991   0.015   3.423 -0.7324  0.3821  0.0678
  195DOPC   H6X24174   6.097  -0.002   3.453 -0.7851 -1.0123 -0.4491
  195DOPC   H6Y24175   5.952   0.113   3.458 -1.4804  0.0086  0.3070
  195DOPC   C3724176   5.893  -0.093   3.489  0.1581  0.0417 -0.6156
  195DOPC   H7X24177   5.791  -0.063   3.456 -1.1766 -1.0676  2.2344
  195DOPC   H7Y24178   5.914  -0.191   3.441  1.4426 -0.3498  0.6743
  195DOPC   C3824179   5.906  -0.091   3.640 -0.6400  0.8644 -0.4417
  195DOPC   H8X24180   5.995  -0.155   3.660 -0.2494  1.7311  0.7428
  195DOPC   H8Y24181   5.812  -0.147   3.662 -1.0151  0.7874 -2.1545
  195DOPC   C3924182   5.915   0.033   3.726  0.0976 -0.1567  0.6528
  195DOPC   H9X24183   5.855   0.114   3.683 -3.0431 -3.8689 -2.7861
  195DOPC  C31024184   6.009   0.048   3.816  0.4228 -0.2320 -0.1201
  195DOPC  H10X24185   6.025   0.147   3.863  2.3972 -0.7940  0.5039
  195DOPC  C31124186   6.125  -0.035   3.863  0.5318  0.0832  0.1629
  195DOPC  H11X24187   6.216  -0.002   3.810  1.2861 -2.8961 -0.6172
  195DOPC  H11Y24188   6.096  -0.141   3.846 -2.5712  0.7422  0.6808
  195DOPC  C31224189   6.136  -0.038   4.023 -0.5139  0.3392  0.2191
  195DOPC  H12X24190   6.188  -0.130   4.059 -2.3917 -0.8539  0.0639
  195DOPC  H12Y24191   6.036  -0.044   4.070 -0.1120 -1.2034  0.9631
  195DOPC  C31324192   6.217   0.089   4.066 -0.0596 -0.1679  0.0424
  195DOPC  H13X24193   6.316   0.084   4.016  0.2685  3.2115  0.1337
  195DOPC  H13Y24194   6.162   0.174   4.020  1.0158 -1.0242 -3.0927
  195DOPC  C31424195   6.228   0.117   4.214 -0.0579  0.4207  0.9581
  195DOPC  H14X24196   6.252   0.225   4.223  1.3897  0.1374  0.7241
  195DOPC  H14Y24197   6.126   0.106   4.256 -0.3804 -0.2338  0.0341
  195DOPC  C31524198   6.323   0.022   4.283 -0.2756 -0.4319 -0.3668
  195DOPC  H15X24199   6.431   0.041   4.263  0.2265  0.0153  2.4035
  195DOPC  H15Y24200   6.310  -0.086   4.256  0.4505 -0.6370  0.0912
  195DOPC  C31624201   6.295   0.034   4.428 -0.5320 -0.6287 -0.2064
  195DOPC  H16X24202   6.305   0.141   4.455  2.4320 -0.3584 -1.8754
  195DOPC  H16Y24203   6.188   0.012   4.444 -0.3453 -0.8666  0.7830
  195DOPC  C31724204   6.379  -0.060   4.526 -0.0893 -0.0364  0.3032
  195DOPC  H17X24205   6.332  -0.160   4.524  1.9283 -1.0520  0.5479
  195DOPC  H17Y24206   6.481  -0.055   4.481 -0.5405  1.9833 -0.6238
  195DOPC  C31824207   6.379  -0.006   4.668 -0.5253  0.4389 -0.6496
  195DOPC  H18X24208   6.404   0.102   4.665  3.2261 -0.3097 -0.7217
  195DOPC  H18Y24209   6.278  -0.007   4.714 -0.0797 -0.6515  0.3525
  195DOPC  H18Z24210   6.461  -0.052   4.727  0.9089  0.6871 -2.3543
  196DOPC     N24211   0.143   0.290   2.652  0.4749 -0.0387 -0.1457
  196DOPC   C1224212   0.149   0.435   2.702 -0.1615  0.1700 -0.1820
  196DOPC  H12A24213   0.125   0.428   2.807  0.6469 -1.3613 -0.0675
  196DOPC  H12B24214   0.074   0.488   2.647 -0.1196  0.8521  0.4003
  196DOPC   C1324215   0.015   0.224   2.684  0.6461  0.0059  0.4598
  196DOPC  H13A24216  -0.059   0.288   2.637  0.5131 -1.8174 -1.9694
  196DOPC  H13B24217  -0.000   0.125   2.646 -0.4781 -0.1317  1.2092
  196DOPC  H13C24218  -0.011   0.223   2.789 -0.7613 -0.4791  0.1347
  196DOPC   C1424219   0.260   0.203   2.702 -0.1961 -0.1464 -1.1365
  196DOPC  H14A24220   0.357   0.247   2.683 -0.7088  0.1351 -3.3062
  196DOPC  H14B24221   0.255   0.192   2.810 -1.5310 -2.1049 -1.3515
  196DOPC  H14C24222   0.261   0.101   2.667  0.0582 -0.0809 -1.3213
  196DOPC   C1524223   0.142   0.294   2.503 -0.6831  0.7142  0.1324
  196DOPC  H15A24224   0.152   0.194   2.462 -1.2354  0.1665  1.2873
  196DOPC  H15B24225   0.228   0.348   2.465  0.2392 -2.6625 -3.2810
  196DOPC  H15C24226   0.055   0.339   2.457 -1.7491 -1.5303 -0.2074
  196DOPC   C1124227   0.290   0.508   2.670  0.2143  0.7242 -0.4650
  196DOPC  H11A24228   0.307   0.492   2.562 -3.9290  0.1571 -1.1938
  196DOPC  H11B24229   0.279   0.619   2.673 -1.6418  0.6065 -1.3560
  196DOPC     P24230   0.430   0.490   2.891  0.4349  0.6475 -0.0114
  196DOPC   O1324231   0.537   0.589   2.889  0.7770 -0.6286  0.3847
  196DOPC   O1424232   0.469   0.363   2.960 -0.0930  0.2361  0.1253
  196DOPC   O1224233   0.403   0.460   2.735 -0.2386 -0.2293  0.1209
  196DOPC   O1124234   0.292   0.552   2.943  0.3427 -0.5121 -0.0405
  196DOPC    C124235   0.288   0.674   3.008  0.0722  0.7595 -1.0342
  196DOPC    HA24236   0.184   0.711   3.005 -1.1649 -2.3601 -0.1403
  196DOPC    HB24237   0.352   0.745   2.951  0.5304  0.3097 -1.0902
  196DOPC    C224238   0.331   0.680   3.161 -0.2167  0.6891  0.4595
  196DOPC    HS24239   0.440   0.697   3.179 -0.0693 -0.4590  0.7568
  196DOPC   O2124240   0.279   0.558   3.217 -0.3961  0.2086  0.4593
  196DOPC   C2124241   0.352   0.512   3.319  0.1914 -0.3654 -0.6146
  196DOPC   O2224242   0.462   0.557   3.350 -0.6884 -0.1002  0.1250
  196DOPC   C2224243   0.283   0.390   3.375 -0.0213  0.6744 -0.1210
  196DOPC   H2R24244   0.282   0.314   3.294  0.8629 -1.1887  1.5311
  196DOPC   H2S24245   0.176   0.406   3.400 -0.0412 -1.3226  1.2884
  196DOPC    C324246   0.276   0.814   3.232 -0.0708  0.5295  1.1150
  196DOPC    HX24247   0.168   0.815   3.206 -0.1710 -0.7059  1.3994
  196DOPC    HY24248   0.304   0.911   3.185  1.1003 -0.4258 -0.2650
  196DOPC   O3124249   0.287   0.811   3.376  0.3195 -0.0841  0.3138
  196DOPC   C3124250   0.403   0.851   3.429 -0.4704  0.1543  0.5934
  196DOPC   O3224251   0.502   0.873   3.363 -0.2038 -0.2597  0.4414
  196DOPC   C3224252   0.386   0.851   3.583 -0.3739 -0.2637  0.8038
  196DOPC   H2X24253   0.331   0.946   3.595 -1.3656 -0.2860 -2.7108
  196DOPC   H2Y24254   0.322   0.764   3.610 -0.7831  0.4160  2.1475
  196DOPC   C2324255   0.348   0.336   3.504  0.0558 -0.2973  0.1745
  196DOPC   H3R24256   0.456   0.316   3.492  0.2567  1.0314 -0.4129
  196DOPC   H3S24257   0.300   0.237   3.522 -0.8671  0.0146 -0.4742
  196DOPC   C2424258   0.337   0.430   3.622  0.8407  0.9074 -0.3253
  196DOPC   H4R24259   0.254   0.503   3.615  2.1787  2.3976 -1.3672
  196DOPC   H4S24260   0.421   0.503   3.622  4.0084 -2.4111  0.1384
  196DOPC   C2524261   0.347   0.362   3.762  0.1184 -0.5940  0.3368
  196DOPC   H5R24262   0.438   0.301   3.746 -0.3289 -0.9778 -0.8614
  196DOPC   H5S24263   0.263   0.294   3.786 -0.4975  0.2150  0.5486
  196DOPC   C2624264   0.380   0.448   3.880  0.3454 -0.2773 -0.5663
  196DOPC   H6R24265   0.308   0.532   3.889 -1.4276 -1.5916 -1.7354
  196DOPC   H6S24266   0.483   0.490   3.878  0.5288 -0.6217  0.9371
  196DOPC   C2724267   0.378   0.373   4.019  0.8515  0.3271  0.2664
  196DOPC   H7R24268   0.439   0.280   4.009 -0.5981 -0.7013  0.6035
  196DOPC   H7S24269   0.273   0.340   4.037  1.2975 -3.0793 -2.3243
  196DOPC   C2824270   0.421   0.466   4.131  0.4816 -0.5553  0.8165
  196DOPC   H8R24271   0.343   0.544   4.135  0.3687 -0.5194 -1.1612
  196DOPC   H8S24272   0.515   0.518   4.102 -0.9787  1.7144 -0.0756
  196DOPC   C2924273   0.442   0.387   4.256  0.0765  0.8770  0.6158
  196DOPC   H9R24274   0.498   0.293   4.249  0.7747  1.3291 -0.0268
  196DOPC  C21024275   0.395   0.418   4.381  0.0177  0.0007  0.0749
  196DOPC  H10R24276   0.415   0.348   4.464 -1.7560  0.1498  0.6660
  196DOPC  C21124277   0.318   0.542   4.419 -0.5601  0.2999 -0.0933
  196DOPC  H11R24278   0.329   0.628   4.349 -0.9721  0.1171 -0.3909
  196DOPC  H11S24279   0.356   0.577   4.517 -1.5998 -2.7984  1.5523
  196DOPC  C21224280   0.168   0.527   4.438 -0.1871  0.2431  0.2422
  196DOPC  H12R24281   0.145   0.437   4.499 -1.1267 -0.8602 -1.6455
  196DOPC  H12S24282   0.128   0.509   4.336  0.5432  1.3455 -0.2601
  196DOPC  C21324283   0.104   0.651   4.500  0.2573  0.1193  0.0723
  196DOPC  H13R24284   0.159   0.737   4.456 -2.1246  1.9617  0.4987
  196DOPC  H13S24285   0.135   0.652   4.606 -0.3606  0.7241  0.2473
  196DOPC  C21424286  -0.045   0.652   4.474  0.0557 -0.3244  0.0850
  196DOPC  H14R24287  -0.088   0.552   4.494  1.3525 -0.6170  1.6502
  196DOPC  H14S24288  -0.065   0.666   4.366 -2.1266  0.4768  0.5369
  196DOPC  C21524289  -0.115   0.775   4.547  0.0564  0.5811  0.5170
  196DOPC  H15R24290  -0.098   0.762   4.656  1.6813 -0.4564  0.1678
  196DOPC  H15S24291  -0.223   0.770   4.523 -0.0848  0.4449  1.1742
  196DOPC  C21624292  -0.046   0.905   4.491  0.9012 -0.7490 -0.7676
  196DOPC  H16R24293  -0.047   0.901   4.380  0.4632  1.3594 -0.8937
  196DOPC  H16S24294   0.058   0.905   4.530  0.3950 -0.2641  0.6426
  196DOPC  C21724295  -0.116   1.040   4.531 -0.1114  0.4425 -0.2750
  196DOPC  H17R24296  -0.217   1.051   4.485 -0.4886 -0.6670  0.2437
  196DOPC  H17S24297  -0.062   1.128   4.492 -0.6455  0.6405 -0.5806
  196DOPC  C21824298  -0.140   1.058   4.682 -0.1654  0.9155  0.9974
  196DOPC  H18R24299  -0.047   1.048   4.742  0.5058 -0.7164 -0.2459
  196DOPC  H18S24300  -0.222   0.997   4.726 -0.3629  1.2329  1.0751
  196DOPC  H18T24301  -0.168   1.165   4.694  0.7039  1.0358  2.1604
  196DOPC   C3324302   0.522   0.840   3.653 -0.8694 -0.4657  0.4007
  196DOPC   H3X24303   0.593   0.921   3.625 -1.2206  0.7359  2.7129
  196DOPC   H3Y24304   0.567   0.740   3.636 -0.1924 -0.3300  1.2784
  196DOPC   C3424305   0.500   0.848   3.802  0.1799 -0.0970 -0.2362
  196DOPC   H4X24306   0.430   0.766   3.829 -0.9181  0.0794 -2.3565
  196DOPC   H4Y24307   0.443   0.941   3.823 -1.0619 -0.6737 -0.9337
  196DOPC   C3524308   0.631   0.854   3.883  0.8988  0.2422 -0.3555
  196DOPC   H5X24309   0.685   0.942   3.842 -0.7231  0.3728 -2.3999
  196DOPC   H5Y24310   0.692   0.762   3.881  1.7667  0.8110 -0.7359
  196DOPC   C3624311   0.599   0.875   4.031 -0.7007 -0.0062  0.6984
  196DOPC   H6X24312   0.555   0.975   4.053  0.7671  1.2862 -1.8221
  196DOPC   H6Y24313   0.523   0.799   4.060  0.1649  0.0452  3.2986
  196DOPC   C3724314   0.720   0.842   4.118 -0.5336  0.2717  0.0244
  196DOPC   H7X24315   0.744   0.737   4.090  0.1752  0.8108 -1.5263
  196DOPC   H7Y24316   0.807   0.905   4.087 -1.0166  0.5670 -0.7567
  196DOPC   C3824317   0.696   0.860   4.273 -0.3444  0.0903  0.3100
  196DOPC   H8X24318   0.626   0.942   4.303  0.8861  0.4611  2.3961
  196DOPC   H8Y24319   0.788   0.884   4.331 -1.2298  3.0994  0.6690
  196DOPC   C3924320   0.629   0.739   4.337  0.1254  0.0571  0.3623
  196DOPC   H9X24321   0.534   0.701   4.298 -0.1311  0.4894  0.5504
  196DOPC  C31024322   0.676   0.661   4.429  0.9671 -0.5241 -0.6154
  196DOPC  H10X24323   0.605   0.584   4.463  0.1525  0.7883  0.8125
  196DOPC  C31124324   0.811   0.667   4.499  0.3622  0.5982  0.1208
  196DOPC  H11X24325   0.875   0.755   4.476  2.1904 -0.8859 -0.7038
  196DOPC  H11Y24326   0.869   0.577   4.471  1.5725  1.1614  0.7243
  196DOPC  C31224327   0.804   0.677   4.650  0.5314  0.3564  0.7243
  196DOPC  H12X24328   0.747   0.591   4.690 -0.9420  1.0172  0.1342
  196DOPC  H12Y24329   0.751   0.770   4.681  1.4125  1.0586  0.1585
  196DOPC  C31324330   0.947   0.678   4.707  0.0056  0.2688 -1.3966
  196DOPC  H13X24331   0.992   0.584   4.668  1.0306  0.8716 -1.7046
  196DOPC  H13Y24332   0.994   0.768   4.661  2.9275  0.2060  1.1226
  196DOPC  C31424333   0.953   0.688   4.859 -0.2533  0.0254  0.1133
  196DOPC  H14X24334   0.909   0.784   4.892 -1.7474  0.5672 -3.0802
  196DOPC  H14Y24335   0.897   0.607   4.911 -0.6760 -0.2298 -0.7281
  196DOPC  C31524336   1.107   0.686   4.894  0.3304 -0.1997  0.2975
  196DOPC  H15X24337   1.162   0.763   4.835 -1.6770  0.2489 -1.0953
  196DOPC  H15Y24338   1.160   0.591   4.872  2.4073  0.9408  0.0819
  196DOPC  C31624339   1.144   0.735   5.041 -0.0371  0.2619  0.4913
  196DOPC  H16X24340   1.113   0.842   5.050 -0.7605 -0.0612  2.3641
  196DOPC  H16Y24341   1.086   0.671   5.111 -1.1159  0.9053  0.2189
  196DOPC  C31724342   1.293   0.726   5.079  0.3108 -0.3549  0.3452
  196DOPC  H17X24343   1.341   0.635   5.036 -0.3186 -0.8249  0.6359
  196DOPC  H17Y24344   1.339   0.812   5.025 -0.8215 -0.2592 -0.4938
  196DOPC  C31824345   1.321   0.744   5.223  0.4873  0.2025 -0.2752
  196DOPC  H18X24346   1.430   0.745   5.242 -0.0047 -0.0839  3.2304
  196DOPC  H18Y24347   1.288   0.844   5.261  1.5354  0.3844  0.1807
  196DOPC  H18Z24348   1.283   0.661   5.286 -0.0519 -0.6000 -1.6164
  197DOPC     N24349   2.506   7.375   2.538  0.5114  0.1038  0.1406
  197DOPC   C1224350   2.558   7.311   2.660  0.3219  0.1515  0.8654
  197DOPC  H12A24351   2.567   7.384   2.738  0.7532  0.2917  0.6872
  197DOPC  H12B24352   2.658   7.278   2.633  0.1969  0.3806  0.1060
  197DOPC   C1324353   2.491   7.281   2.421  0.0833  0.3318  0.3133
  197DOPC  H13A24354   2.420   7.325   2.352 -1.5782  0.6138  2.1181
  197DOPC  H13B24355   2.584   7.267   2.368 -0.4655 -0.3942 -0.5055
  197DOPC  H13C24356   2.462   7.185   2.461 -0.6525  0.6950  0.6774
  197DOPC   C1424357   2.596   7.476   2.477  0.3570 -0.7300 -0.1977
  197DOPC  H14A24358   2.596   7.570   2.528 -2.6473 -0.7985  0.1214
  197DOPC  H14B24359   2.699   7.443   2.472  0.4185 -0.5465 -0.1437
  197DOPC  H14C24360   2.572   7.502   2.375  2.5716  2.4196 -0.0611
  197DOPC   C1524361   2.370   7.430   2.575 -0.0490 -0.3099  0.2916
  197DOPC  H15A24362   2.327   7.478   2.488 -0.8759 -0.3774  0.6482
  197DOPC  H15B24363   2.377   7.513   2.644 -0.2263  0.4096 -0.5439
  197DOPC  H15C24364   2.295   7.359   2.607 -0.7946 -0.0738 -0.8731
  197DOPC   C1124365   2.488   7.180   2.714 -0.2860 -0.3427  0.3104
  197DOPC  H11A24366   2.524   7.162   2.817  1.2652  2.2817  0.3250
  197DOPC  H11B24367   2.378   7.191   2.721 -0.3186 -1.0320  1.0019
  197DOPC     P24368   2.650   6.999   2.620  0.2959  0.3331 -0.3313
  197DOPC   O1324369   2.722   7.073   2.516  0.0120 -0.3127 -0.0840
  197DOPC   O1424370   2.634   6.852   2.606 -0.4183 -0.4245 -0.1537
  197DOPC   O1224371   2.504   7.061   2.634  0.1797 -0.0053  0.0927
  197DOPC   O1124372   2.722   7.024   2.756 -0.3551  0.0008  0.0655
  197DOPC    C124373   2.682   6.953   2.874  0.5213  0.1354  0.2074
  197DOPC    HA24374   2.740   6.858   2.882 -0.2287 -0.2807  0.8076
  197DOPC    HB24375   2.572   6.940   2.871  0.8286 -4.5461  0.5053
  197DOPC    C224376   2.715   7.025   3.010 -0.5621  0.5260 -0.1806
  197DOPC    HS24377   2.667   7.126   3.009 -0.1111  0.7393 -0.4835
  197DOPC   O2124378   2.857   7.025   3.022 -0.6837  0.1665 -0.3675
  197DOPC   C2124379   2.913   7.115   3.107 -0.1043 -0.2414  0.1193
  197DOPC   O2224380   2.855   7.203   3.168  0.0757 -0.2227  0.2281
  197DOPC   C2224381   3.063   7.092   3.118  0.3254  0.5727 -0.0510
  197DOPC   H2R24382   3.110   7.170   3.054 -1.0655  1.7478  0.3074
  197DOPC   H2S24383   3.090   6.991   3.082 -1.0530  0.5005 -0.9196
  197DOPC    C324384   2.661   6.950   3.131  0.0933  0.2374  0.2845
  197DOPC    HX24385   2.685   6.842   3.121 -3.8745 -0.8141  0.1544
  197DOPC    HY24386   2.550   6.948   3.127  0.1285 -1.3670 -1.2437
  197DOPC   O3124387   2.713   6.988   3.261  0.1510  0.7991  0.7136
  197DOPC   C3124388   2.636   7.067   3.334 -0.0597 -0.0803  0.2863
  197DOPC   O3224389   2.528   7.108   3.293  0.0587 -0.5258 -0.6137
  197DOPC   C3224390   2.706   7.118   3.461  0.8201  0.2083  0.4742
  197DOPC   H2X24391   2.746   7.039   3.528 -0.0971  0.5497  1.4573
  197DOPC   H2Y24392   2.793   7.163   3.408  0.6695 -1.1860 -1.0652
  197DOPC   C2324393   3.106   7.127   3.263  0.3335  0.3271  0.2718
  197DOPC   H3R24394   3.047   7.215   3.296  0.2528  0.8926 -1.2871
  197DOPC   H3S24395   3.214   7.151   3.269  0.2469  0.9627 -0.5261
  197DOPC   C2424396   3.079   7.012   3.361 -0.2563  0.3096  0.1043
  197DOPC   H4R24397   3.143   6.927   3.328 -0.4253  0.2356 -0.0319
  197DOPC   H4S24398   2.972   6.982   3.365 -0.1138 -0.1503  0.6533
  197DOPC   C2524399   3.124   7.047   3.504 -0.3345 -0.6738  0.1242
  197DOPC   H5R24400   3.073   7.144   3.524  0.0926 -0.6768  1.2797
  197DOPC   H5S24401   3.234   7.054   3.515 -0.0464 -1.5813 -1.7621
  197DOPC   C2624402   3.058   6.957   3.610  0.1682 -0.0440 -0.1573
  197DOPC   H6R24403   3.088   6.852   3.590 -0.6313  0.1400 -2.7207
  197DOPC   H6S24404   2.948   6.954   3.600  0.1780 -0.3361 -0.2008
  197DOPC   C2724405   3.077   6.995   3.759 -0.5520 -0.6199  0.6960
  197DOPC   H7R24406   3.178   7.038   3.780 -0.1803 -1.8780  1.5981
  197DOPC   H7S24407   3.081   6.906   3.825 -2.7753 -1.4627 -0.2481
  197DOPC   C2824408   2.973   7.100   3.817 -0.6823  0.0644 -0.7778
  197DOPC   H8R24409   2.874   7.049   3.816 -0.5968 -0.2894  1.6458
  197DOPC   H8S24410   2.959   7.183   3.745  0.0147 -0.7747 -1.9111
  197DOPC   C2924411   3.013   7.150   3.953  0.2334  0.3819 -0.1563
  197DOPC   H9R24412   3.062   7.248   3.960  0.1237  0.3909  0.6718
  197DOPC  C21024413   3.007   7.080   4.068 -0.1366 -0.4982 -0.6681
  197DOPC  H10R24414   3.045   7.133   4.156  0.5229 -1.4529 -0.3627
  197DOPC  C21124415   2.962   6.936   4.083 -0.0827 -0.3349 -0.2734
  197DOPC  H11R24416   3.045   6.867   4.054  0.8164  0.5949  0.0277
  197DOPC  H11S24417   2.871   6.913   4.024 -0.5385  1.8932 -0.5240
  197DOPC  C21224418   2.913   6.913   4.230  0.2464 -0.1948  0.1489
  197DOPC  H12R24419   2.841   6.995   4.252 -0.6772  0.2595 -3.7844
  197DOPC  H12S24420   2.989   6.916   4.311 -1.0161 -1.2074  1.4292
  197DOPC  C21324421   2.835   6.781   4.252  0.0781  0.4522 -0.4897
  197DOPC  H13R24422   2.895   6.693   4.220 -0.3508 -0.1617  0.3248
  197DOPC  H13S24423   2.747   6.781   4.185  0.9200  0.9511 -1.6202
  197DOPC  C21424424   2.807   6.757   4.404  0.2016 -0.0426 -0.7718
  197DOPC  H14R24425   2.905   6.771   4.454 -0.4799  0.0797  0.5690
  197DOPC  H14S24426   2.757   6.659   4.419 -0.3109  0.1911 -0.9130
  197DOPC  C21524427   2.703   6.856   4.464  0.0636  0.9818  0.3466
  197DOPC  H15R24428   2.602   6.845   4.419 -1.2041  0.5574  3.1052
  197DOPC  H15S24429   2.740   6.961   4.454 -0.4721  1.2623  1.2328
  197DOPC  C21624430   2.686   6.835   4.621 -0.1885  0.5576 -0.1740
  197DOPC  H16R24431   2.786   6.851   4.668 -0.2437  2.5675 -0.6296
  197DOPC  H16S24432   2.659   6.730   4.645  2.5224 -0.4370 -1.0398
  197DOPC  C21724433   2.592   6.940   4.683  0.6772  0.1576 -0.3208
  197DOPC  H17R24434   2.492   6.961   4.640  0.0802 -0.3997  0.7434
  197DOPC  H17S24435   2.652   7.034   4.682 -0.2696  0.9899  3.4795
  197DOPC  C21824436   2.562   6.927   4.832  0.8969  0.3284 -0.1180
  197DOPC  H18R24437   2.468   6.978   4.864  0.8660 -0.0645  0.4296
  197DOPC  H18S24438   2.641   6.977   4.891  0.1607  1.8781 -0.4018
  197DOPC  H18T24439   2.558   6.821   4.866 -0.1861  0.9440  1.8471
  197DOPC   C3324440   2.613   7.208   3.546  0.0286 -0.1012 -0.1061
  197DOPC   H3X24441   2.565   7.290   3.488 -0.8913 -0.8801 -0.4614
  197DOPC   H3Y24442   2.680   7.262   3.616  0.8119  1.1122 -1.7017
  197DOPC   C3424443   2.510   7.125   3.610 -0.2813 -0.3888  0.5198
  197DOPC   H4X24444   2.553   7.055   3.685  0.5001 -0.2279  0.2285
  197DOPC   H4Y24445   2.444   7.087   3.529 -0.7257  2.0553 -0.3518
  197DOPC   C3524446   2.426   7.220   3.704 -0.0079 -0.4834  0.0469
  197DOPC   H5X24447   2.342   7.164   3.750  0.0135  0.6154  1.4828
  197DOPC   H5Y24448   2.374   7.288   3.634  0.6504  1.0271  0.9698
  197DOPC   C3624449   2.493   7.300   3.817  0.1327  0.3231  0.7001
  197DOPC   H6X24450   2.573   7.367   3.779  0.2873 -0.9969 -1.4395
  197DOPC   H6Y24451   2.412   7.356   3.870  0.3328 -0.3803  1.7639
  197DOPC   C3724452   2.548   7.187   3.912 -0.7029  0.4630 -0.4555
  197DOPC   H7X24453   2.469   7.111   3.926 -0.4223  0.0641 -0.9735
  197DOPC   H7Y24454   2.632   7.141   3.855 -1.0897 -0.3644 -0.3765
  197DOPC   C3824455   2.594   7.252   4.037 -0.1835  0.0190 -0.0763
  197DOPC   H8X24456   2.637   7.349   4.002  0.6935 -0.3435 -0.0397
  197DOPC   H8Y24457   2.683   7.200   4.078 -0.4795 -0.4580 -0.0336
  197DOPC   C3924458   2.488   7.255   4.145  0.1334 -0.1107 -0.6805
  197DOPC   H9X24459   2.481   7.153   4.186 -2.0445  0.8911  1.6939
  197DOPC  C31024460   2.418   7.359   4.200  0.1315 -0.0628 -0.2236
  197DOPC  H10X24461   2.342   7.339   4.277  2.5383 -0.1299  2.3124
  197DOPC  C31124462   2.434   7.507   4.169 -0.0153 -0.8123 -0.0382
  197DOPC  H11X24463   2.379   7.541   4.078  1.2545  1.9185  0.1099
  197DOPC  H11Y24464   2.542   7.532   4.159 -0.1719 -0.4372 -0.9364
  197DOPC  C31224465   2.374   7.586   4.285 -0.2591  0.0942  0.4763
  197DOPC  H12X24466   2.448   7.588   4.368 -0.6515 -0.0453  0.8306
  197DOPC  H12Y24467   2.277   7.542   4.315  0.1143 -1.9690 -1.1207
  197DOPC  C31324468   2.347   7.735   4.260 -0.3531  0.1799 -0.1365
  197DOPC  H13X24469   2.298   7.737   4.160 -0.3841  0.7730 -0.1081
  197DOPC  H13Y24470   2.293   7.762   4.353 -2.4632 -0.4193 -1.1184
  197DOPC  C31424471   2.478   7.812   4.244 -0.0416 -0.2059  0.4222
  197DOPC  H14X24472   2.543   7.790   4.331 -0.8753 -3.1909  0.3849
  197DOPC  H14Y24473   2.526   7.790   4.146  1.7365  0.9794  0.9819
  197DOPC  C31524474   2.449   7.968   4.245  0.4387 -0.4381 -0.3204
  197DOPC  H15X24475   2.389   7.991   4.335  0.2393 -2.7850  0.2072
  197DOPC  H15Y24476   2.382   7.993   4.159  1.4360  1.3952 -0.6246
  197DOPC  C31624477   2.581   8.032   4.229 -0.5991 -0.2448 -0.7406
  197DOPC  H16X24478   2.634   7.994   4.319 -0.2405 -2.3159 -1.7568
  197DOPC  H16Y24479   2.634   7.985   4.144 -0.4625 -4.5164  1.4226
  197DOPC  C31724480   2.566   8.189   4.214 -0.6036 -0.0601 -0.1732
  197DOPC  H17X24481   2.671   8.222   4.230 -1.0164 -0.1405  3.2470
  197DOPC  H17Y24482   2.516   8.209   4.117  1.0040 -1.0579 -1.2631
  197DOPC  C31824483   2.482   8.246   4.332  0.2314 -0.4462 -0.0343
  197DOPC  H18X24484   2.371   8.235   4.324 -0.0648 -1.7405  3.9511
  197DOPC  H18Y24485   2.503   8.186   4.423 -0.9953  0.0917  0.6326
  197DOPC  H18Z24486   2.505   8.353   4.349  0.5672 -0.4814 -0.2582
  198DOPC     N24487   7.115   0.249   2.338  0.5857  0.9217 -0.2802
  198DOPC   C1224488   7.026   0.136   2.380  0.2815  0.3753  0.3301
  198DOPC  H12A24489   7.045   0.037   2.343 -1.5412 -0.1779  0.7992
  198DOPC  H12B24490   6.929   0.146   2.335 -0.8488 -1.3787  2.2033
  198DOPC   C1324491   7.132   0.247   2.188 -0.1951 -0.1079  0.1883
  198DOPC  H13A24492   7.031   0.263   2.152  0.2894 -1.2496 -1.8636
  198DOPC  H13B24493   7.197   0.325   2.151 -0.2635 -1.2803 -2.6764
  198DOPC  H13C24494   7.152   0.150   2.145 -2.0078 -1.3926  2.0846
  198DOPC   C1424495   7.250   0.231   2.398  0.8150 -1.0032 -0.0041
  198DOPC  H14A24496   7.239   0.236   2.506 -1.2020 -3.1173 -0.0473
  198DOPC  H14B24497   7.295   0.135   2.377 -0.1599 -1.1082 -1.7072
  198DOPC  H14C24498   7.325   0.303   2.367  1.0672 -2.2105 -2.4371
  198DOPC   C1524499   7.064   0.385   2.374  0.3413 -0.4067 -0.2325
  198DOPC  H15A24500   7.133   0.451   2.323  0.7492 -0.8762 -0.2938
  198DOPC  H15B24501   7.061   0.402   2.481 -1.5162  0.8087 -0.4337
  198DOPC  H15C24502   6.964   0.405   2.339  1.1893  1.7836 -1.6066
  198DOPC   C1124503   7.000   0.132   2.537  0.2231  0.1387  1.0704
  198DOPC  H11A24504   6.951   0.225   2.573 -0.1882 -0.3974  1.9222
  198DOPC  H11B24505   6.914   0.064   2.555 -1.6203  1.8904 -0.5303
  198DOPC     P24506   7.170  -0.044   2.605 -0.0681 -0.4610 -0.0959
  198DOPC   O1324507   7.315  -0.046   2.602 -0.0075  0.4261 -0.0032
  198DOPC   O1424508   7.100  -0.115   2.496  0.2679  1.2695  0.2152
  198DOPC   O1224509   7.118   0.107   2.609 -0.1603  0.1701  0.1491
  198DOPC   O1124510   7.111  -0.095   2.747  0.1503 -0.0484 -0.0278
  198DOPC    C124511   7.113  -0.024   2.872  0.6390 -0.1733 -0.4596
  198DOPC    HA24512   7.153   0.080   2.862 -2.4657  1.3054  1.0746
  198DOPC    HB24513   7.185  -0.078   2.937  1.2946  1.1202 -0.0756
  198DOPC    C224514   6.978  -0.010   2.941  0.6230  0.4250 -0.0849
  198DOPC    HS24515   6.938   0.088   2.909  0.6099  0.4399 -0.0218
  198DOPC   O2124516   6.997  -0.025   3.081 -0.2625  0.2233 -0.2114
  198DOPC   C2124517   6.913   0.043   3.152  0.1329 -0.9646  0.3428
  198DOPC   O2224518   6.820   0.113   3.112 -0.1057  0.1951 -0.2771
  198DOPC   C2224519   6.936   0.025   3.301  0.0255  0.2296  0.3269
  198DOPC   H2R24520   7.031  -0.032   3.311 -0.9923 -1.3303  1.6410
  198DOPC   H2S24521   6.859  -0.043   3.342  1.5358 -1.2613  0.8415
  198DOPC    C324522   6.871  -0.122   2.898 -0.1779  0.4533  0.6078
  198DOPC    HX24523   6.925  -0.215   2.924  2.8205  2.1582  0.9890
  198DOPC    HY24524   6.854  -0.122   2.789  0.2500 -0.3106  0.5412
  198DOPC   O3124525   6.751  -0.131   2.979 -0.1421 -0.5036  0.3052
  198DOPC   C3124526   6.650  -0.060   2.944 -0.3520 -0.5175 -0.3678
  198DOPC   O3224527   6.652   0.010   2.843 -0.0022 -0.1044 -0.1064
  198DOPC   C3224528   6.543  -0.081   3.052 -0.0911 -1.3223  0.2055
  198DOPC   H2X24529   6.531  -0.190   3.067  2.6695 -1.5264  1.4626
  198DOPC   H2Y24530   6.578  -0.028   3.143  2.1585  0.1548 -1.4192
  198DOPC   C2324531   6.937   0.168   3.362 -0.4022  0.5362 -0.7801
  198DOPC   H3R24532   6.855   0.231   3.321 -0.6636  1.3384  0.8865
  198DOPC   H3S24533   7.037   0.214   3.347  0.7352 -1.5216  0.0595
  198DOPC   C2424534   6.895   0.177   3.508  0.0976  0.3839 -0.1622
  198DOPC   H4R24535   6.796   0.131   3.526 -0.1585  0.4713 -1.2612
  198DOPC   H4S24536   6.883   0.282   3.543  0.0252  0.3640 -0.1297
  198DOPC   C2524537   6.984   0.093   3.608  0.3053 -0.6899 -0.1289
  198DOPC   H5R24538   7.083   0.142   3.620 -0.1050  0.2635 -0.4903
  198DOPC   H5S24539   7.002  -0.009   3.568 -0.8104 -1.2783  0.7966
  198DOPC   C2624540   6.905   0.066   3.742  0.5845  0.3309  0.2368
  198DOPC   H6R24541   6.821  -0.005   3.722 -0.8609  1.8089  0.7787
  198DOPC   H6S24542   6.865   0.162   3.780  3.7764  1.5303  0.8767
  198DOPC   C2724543   6.978  -0.002   3.853  0.7358  0.7823 -0.0102
  198DOPC   H7R24544   6.903   0.010   3.933 -0.8809 -1.5650 -1.0697
  198DOPC   H7S24545   7.073   0.052   3.876  0.1288  1.3658  1.1797
  198DOPC   C2824546   6.992  -0.155   3.836 -0.9624 -0.2995  0.1000
  198DOPC   H8R24547   7.076  -0.179   3.768  0.7519 -0.2548  2.0843
  198DOPC   H8S24548   6.898  -0.191   3.790 -1.6110  0.4886  0.7930
  198DOPC   C2924549   7.015  -0.218   3.973 -0.3403  0.0768 -0.3294
  198DOPC   H9R24550   7.109  -0.186   4.020 -0.7975  1.2911 -0.2143
  198DOPC  C21024551   6.930  -0.298   4.041  0.5246 -0.0002  0.3653
  198DOPC  H10R24552   6.949  -0.340   4.141 -1.7018  0.0587  0.8650
  198DOPC  C21124553   6.793  -0.339   3.992  0.5920 -0.2996  0.3661
  198DOPC  H11R24554   6.753  -0.264   3.921 -0.1393 -0.4106  0.6451
  198DOPC  H11S24555   6.718  -0.331   4.074  0.6073 -2.1886  0.6194
  198DOPC  C21224556   6.796  -0.479   3.930  0.9698 -0.7321  0.1126
  198DOPC  H12R24557   6.806  -0.542   4.020  0.9349  1.3810  1.6838
  198DOPC  H12S24558   6.890  -0.490   3.872  0.9278  0.3211 -0.1792
  198DOPC  C21324559   6.672  -0.514   3.848  0.2347  0.2192 -0.3735
  198DOPC  H13R24560   6.668  -0.431   3.774  0.9476  0.0493 -0.6160
  198DOPC  H13S24561   6.583  -0.516   3.914 -0.2642  0.4373 -1.0297
  198DOPC  C21424562   6.684  -0.647   3.772  0.0408 -0.2762 -0.3405
  198DOPC  H14R24563   6.781  -0.653   3.718 -0.3869 -0.1811 -1.1312
  198DOPC  H14S24564   6.598  -0.664   3.703  0.4113 -0.7715 -0.6912
  198DOPC  C21524565   6.691  -0.764   3.873  0.9941 -0.2736  0.0590
  198DOPC  H15R24566   6.600  -0.749   3.935 -0.9160 -0.6484 -2.4877
  198DOPC  H15S24567   6.770  -0.740   3.947 -1.4238  1.0638  2.4066
  198DOPC  C21624568   6.693  -0.900   3.803 -0.3038 -0.2322 -0.4185
  198DOPC  H16R24569   6.775  -0.908   3.730  1.5118  0.6672  1.4071
  198DOPC  H16S24570   6.599  -0.900   3.743 -0.1284  0.4575 -0.7003
  198DOPC  C21724571   6.701  -1.029   3.893  0.3125  0.2364  0.1373
  198DOPC  H17R24572   6.622  -1.026   3.971 -0.5239  0.3107 -0.6916
  198DOPC  H17S24573   6.791  -1.015   3.957 -1.7740  0.9347  3.1551
  198DOPC  C21824574   6.710  -1.154   3.813 -0.2712  0.5608 -0.1597
  198DOPC  H18R24575   6.716  -1.235   3.889 -0.9147  1.0008  0.3826
  198DOPC  H18S24576   6.792  -1.155   3.739  1.0400 -3.0642  1.1112
  198DOPC  H18T24577   6.607  -1.160   3.770 -0.4761 -0.9382  0.4894
  198DOPC   C3324578   6.409  -0.019   3.008 -0.2480 -0.0392 -0.1294
  198DOPC   H3X24579   6.417   0.088   2.978 -1.6495 -0.4727 -2.3075
  198DOPC   H3Y24580   6.347  -0.010   3.099  0.2574 -0.7369  0.2998
  198DOPC   C3424581   6.335  -0.098   2.903  0.3260  0.6884  0.5409
  198DOPC   H4X24582   6.384  -0.092   2.803 -0.9812  2.2060 -0.0530
  198DOPC   H4Y24583   6.236  -0.056   2.874  1.7513  1.9638 -3.0823
  198DOPC   C3524584   6.307  -0.249   2.944 -0.0074  0.0224  0.0507
  198DOPC   H5X24585   6.403  -0.298   2.970 -0.1682 -2.1180 -2.8755
  198DOPC   H5Y24586   6.267  -0.307   2.858  3.0984  0.4239 -1.8184
  198DOPC   C3624587   6.216  -0.270   3.067 -0.1386  0.1097  0.4450
  198DOPC   H6X24588   6.259  -0.225   3.159 -1.6591  1.5701  0.4767
  198DOPC   H6Y24589   6.117  -0.220   3.062 -0.0735  0.5303  2.4504
  198DOPC   C3724590   6.172  -0.426   3.087 -0.1512 -1.0147 -0.0130
  198DOPC   H7X24591   6.118  -0.456   2.995 -1.6348  2.0665 -0.2591
  198DOPC   H7Y24592   6.264  -0.487   3.101  2.0218  1.5692 -1.9794
  198DOPC   C3824593   6.067  -0.439   3.197  0.8960  0.5957  0.6737
  198DOPC   H8X24594   5.979  -0.372   3.180  0.0863 -0.7210 -0.5640
  198DOPC   H8Y24595   6.125  -0.399   3.283  0.6771  0.5520  0.8426
  198DOPC   C3924596   6.009  -0.581   3.210  0.5436 -0.0777 -0.7739
  198DOPC   H9X24597   5.954  -0.625   3.126  0.9265 -0.6493 -0.7310
  198DOPC  C31024598   6.029  -0.664   3.315 -0.2615  1.0364 -0.5425
  198DOPC  H10X24599   5.984  -0.764   3.312 -0.7826  1.2510 -0.0279
  198DOPC  C31124600   6.109  -0.634   3.442  0.3034  0.9769  0.6253
  198DOPC  H11X24601   6.032  -0.612   3.520  0.5157 -1.5084  1.6570
  198DOPC  H11Y24602   6.176  -0.547   3.426  1.8702 -0.4461 -0.8769
  198DOPC  C31224603   6.203  -0.750   3.483  0.3361 -0.8582  0.3807
  198DOPC  H12X24604   6.275  -0.779   3.404 -0.6605 -2.6859  0.0878
  198DOPC  H12Y24605   6.140  -0.840   3.493 -0.1610 -0.5569 -0.0216
  198DOPC  C31324606   6.267  -0.722   3.622 -0.2086  0.1838 -0.1417
  198DOPC  H13X24607   6.373  -0.691   3.616 -0.3234  0.3318 -2.5909
  198DOPC  H13Y24608   6.206  -0.634   3.655 -0.7408  0.2635 -1.2792
  198DOPC  C31424609   6.250  -0.836   3.727  0.1722 -0.6426  0.1059
  198DOPC  H14X24610   6.155  -0.890   3.705 -1.0647  1.0707  1.0389
  198DOPC  H14Y24611   6.336  -0.904   3.711 -0.4081 -1.4454  0.2714
  198DOPC  C31524612   6.257  -0.790   3.870 -0.1388 -0.2092  0.3436
  198DOPC  H15X24613   6.183  -0.709   3.889 -0.3763 -0.0329 -1.2261
  198DOPC  H15Y24614   6.357  -0.745   3.885 -0.8031  2.0410 -1.4217
  198DOPC  C31624615   6.232  -0.899   3.977 -0.3425  0.7153 -0.4964
  198DOPC  H16X24616   6.251  -0.859   4.078 -0.9423 -3.0972  1.2977
  198DOPC  H16Y24617   6.127  -0.936   3.967  0.1060 -0.5972 -0.5925
  198DOPC  C31724618   6.321  -1.029   3.959  0.4592  0.0022  0.4260
  198DOPC  H17X24619   6.334  -1.045   3.850 -2.3467 -0.8418  0.1500
  198DOPC  H17Y24620   6.423  -1.020   4.001  0.5049  0.8763  0.1510
  198DOPC  C31824621   6.254  -1.158   4.016 -0.3917 -0.3358  0.2686
  198DOPC  H18X24622   6.255  -1.159   4.127  0.8872  0.8906  0.3057
  198DOPC  H18Y24623   6.151  -1.178   3.979  0.6069 -1.4027 -2.1745
  198DOPC  H18Z24624   6.320  -1.241   3.983 -1.7434 -0.1436 -3.3976
  199DOPC     N24625   6.528   1.474   2.001 -0.2562  0.0587  0.2829
  199DOPC   C1224626   6.555   1.439   2.152 -0.4231  0.2660 -0.2183
  199DOPC  H12A24627   6.606   1.521   2.201  0.8167 -0.7294  0.2215
  199DOPC  H12B24628   6.631   1.362   2.153 -0.8426 -0.1549  1.4540
  199DOPC   C1324629   6.652   1.546   1.947 -0.2741 -0.2511  0.4818
  199DOPC  H13A24630   6.675   1.634   2.005  0.2585 -0.1132  0.0678
  199DOPC  H13B24631   6.736   1.479   1.940 -0.6027 -0.5438 -1.0817
  199DOPC  H13C24632   6.628   1.573   1.845  0.6797  1.2683  0.6201
  199DOPC   C1424633   6.411   1.563   1.985  0.0603  0.1416 -0.3468
  199DOPC  H14A24634   6.399   1.593   1.881 -1.8618  2.9416  0.5615
  199DOPC  H14B24635   6.323   1.518   2.028 -0.2497  0.4092 -0.6866
  199DOPC  H14C24636   6.425   1.657   2.036  2.5066  0.3229 -1.2249
  199DOPC   C1524637   6.485   1.356   1.930  0.5760 -0.1818  0.2490
  199DOPC  H15A24638   6.467   1.384   1.827 -0.7738  0.3308  0.6129
  199DOPC  H15B24639   6.401   1.305   1.974 -0.4337  1.3993  0.1955
  199DOPC  H15C24640   6.568   1.287   1.923  1.6617  1.1757 -0.8844
  199DOPC   C1124641   6.434   1.400   2.244  0.0704 -0.2047 -0.0419
  199DOPC  H11A24642   6.469   1.403   2.350 -0.4090  1.3326  0.0981
  199DOPC  H11B24643   6.351   1.473   2.243 -1.5132 -1.8616  1.5385
  199DOPC     P24644   6.452   1.138   2.257 -0.2798  0.2041 -0.1909
  199DOPC   O1324645   6.597   1.161   2.260 -0.4071  0.3364  0.0950
  199DOPC   O1424646   6.397   1.031   2.170  0.0479  0.7940 -0.4288
  199DOPC   O1224647   6.376   1.269   2.208 -0.0280  0.1545 -0.0125
  199DOPC   O1124648   6.397   1.106   2.404 -0.3014 -0.9980 -0.8064
  199DOPC    C124649   6.352   1.206   2.501 -0.6909 -0.8524  0.2690
  199DOPC    HA24650   6.264   1.259   2.459 -1.8329 -1.8565  1.3290
  199DOPC    HB24651   6.430   1.284   2.517 -0.1513 -1.3007 -0.1432
  199DOPC    C224652   6.318   1.155   2.637  0.3206 -0.9427 -0.0886
  199DOPC    HS24653   6.303   1.233   2.715 -2.0976 -0.7617 -0.6752
  199DOPC   O2124654   6.420   1.058   2.679  0.1323 -0.8467 -0.5691
  199DOPC   C2124655   6.539   1.117   2.690  0.1035 -0.0838  0.4494
  199DOPC   O2224656   6.562   1.237   2.712  0.5330 -0.3318  0.1297
  199DOPC   C2224657   6.642   1.013   2.661 -1.1800  0.2615 -0.4923
  199DOPC   H2R24658   6.684   1.038   2.561  0.7488 -2.1591 -0.3683
  199DOPC   H2S24659   6.588   0.917   2.653  0.5859 -0.6775 -1.8454
  199DOPC    C324660   6.182   1.072   2.631 -0.3114  0.5258  0.1470
  199DOPC    HX24661   6.200   0.999   2.549  0.6078  1.5691 -0.6078
  199DOPC    HY24662   6.092   1.124   2.591 -0.6622 -2.3484 -3.2523
  199DOPC   O3124663   6.155   1.019   2.760 -0.5968 -0.1706 -0.5961
  199DOPC   C3124664   6.124   0.887   2.764 -0.5169 -0.7614  0.1321
  199DOPC   O3224665   6.110   0.819   2.663 -0.1940 -0.2463 -0.3730
  199DOPC   C3224666   6.112   0.833   2.910  0.2676 -0.2724  0.0501
  199DOPC   H2X24667   6.212   0.854   2.954  0.4628 -1.4081  0.1889
  199DOPC   H2Y24668   6.038   0.901   2.958 -0.3241 -0.7572 -0.1620
  199DOPC   C2324669   6.748   0.988   2.771  0.2272 -0.8377 -0.3239
  199DOPC   H3R24670   6.805   1.083   2.782  2.7589 -2.3729  0.8655
  199DOPC   H3S24671   6.807   0.904   2.729 -1.5907 -3.1707  1.5042
  199DOPC   C2424672   6.708   0.949   2.911 -0.1464  0.0215 -0.3965
  199DOPC   H4R24673   6.654   0.852   2.913 -3.4706  1.7635  0.6934
  199DOPC   H4S24674   6.636   1.023   2.950  1.8711  1.4112  0.8704
  199DOPC   C2524675   6.831   0.939   3.007 -0.0768  0.0715  0.0947
  199DOPC   H5R24676   6.851   1.046   3.031 -0.0801  0.0579  0.1582
  199DOPC   H5S24677   6.916   0.885   2.960 -0.8762 -2.7534  1.6873
  199DOPC   C2624678   6.782   0.872   3.138  0.1946  0.0705 -0.1879
  199DOPC   H6R24679   6.739   0.772   3.118  0.0611  0.0409  0.2292
  199DOPC   H6S24680   6.702   0.935   3.183  1.3369  1.5458 -0.1522
  199DOPC   C2724681   6.897   0.847   3.227 -0.2920 -0.2481 -0.0273
  199DOPC   H7R24682   6.950   0.944   3.239 -1.0385  0.0938  0.5991
  199DOPC   H7S24683   6.972   0.785   3.173  0.3144  1.2764 -1.0070
  199DOPC   C2824684   6.864   0.802   3.370  0.7846 -0.4973  1.3232
  199DOPC   H8R24685   6.779   0.867   3.401  0.1345 -1.2074  1.0503
  199DOPC   H8S24686   6.955   0.812   3.434  1.9869  0.7872 -0.4823
  199DOPC   C2924687   6.818   0.659   3.358 -0.0108  0.3370 -0.2112
  199DOPC   H9R24688   6.781   0.624   3.261 -0.2651 -0.8059  0.2846
  199DOPC  C21024689   6.832   0.565   3.451  0.4237  0.0871 -0.3024
  199DOPC  H10R24690   6.811   0.461   3.422  3.4844 -1.4675  2.3322
  199DOPC  C21124691   6.887   0.587   3.591 -1.0030 -0.1147  0.0553
  199DOPC  H11R24692   6.852   0.515   3.669 -2.1819  0.4326  0.0429
  199DOPC  H11S24693   6.864   0.688   3.629  0.4863 -0.2733  1.5151
  199DOPC  C21224694   7.046   0.571   3.604  0.1492 -0.2436  0.4258
  199DOPC  H12R24695   7.087   0.641   3.528 -2.4412 -1.1656 -2.0216
  199DOPC  H12S24696   7.075   0.466   3.580  2.4823 -0.2318  2.7139
  199DOPC  C21324697   7.097   0.605   3.749 -0.2839 -0.2054  0.0348
  199DOPC  H13R24698   7.201   0.569   3.762 -0.6596 -0.8555  1.4595
  199DOPC  H13S24699   7.043   0.546   3.827 -1.0653  0.6899  0.2000
  199DOPC  C21424700   7.089   0.753   3.776 -0.6619  0.1724 -0.5061
  199DOPC  H14R24701   6.984   0.788   3.780 -0.4934  0.7451 -0.9324
  199DOPC  H14S24702   7.145   0.810   3.699  2.0739 -2.2061 -0.4852
  199DOPC  C21524703   7.146   0.792   3.916  0.0098 -0.3359  0.4910
  199DOPC  H15R24704   7.254   0.766   3.906  0.7698  1.2991  3.2608
  199DOPC  H15S24705   7.125   0.715   3.993  1.5409 -1.5614 -0.2488
  199DOPC  C21624706   7.123   0.941   3.959 -0.1542  0.0735  0.4540
  199DOPC  H16R24707   7.013   0.954   3.964 -0.1548 -0.3327  1.8579
  199DOPC  H16S24708   7.156   1.000   3.871 -0.3141 -0.3230  0.1242
  199DOPC  C21724709   7.199   0.969   4.088 -0.6665  0.5498 -0.1639
  199DOPC  H17R24710   7.307   0.954   4.063 -0.5801 -1.3044  1.0652
  199DOPC  H17S24711   7.169   0.899   4.170 -2.4076  1.9261  0.4286
  199DOPC  C21824712   7.179   1.109   4.142 -0.3597 -0.0731  0.0107
  199DOPC  H18R24713   7.184   1.184   4.060 -1.3601 -1.6110 -1.5544
  199DOPC  H18S24714   7.264   1.132   4.209  1.0048 -1.3942 -1.1840
  199DOPC  H18T24715   7.080   1.115   4.192  1.0678  1.1787  2.8564
  199DOPC   C3324716   6.076   0.690   2.917  0.0097  0.2846 -0.2497
  199DOPC   H3X24717   6.162   0.630   2.880  0.7407  0.2109  1.4634
  199DOPC   H3Y24718   5.990   0.653   2.857  1.2802 -2.9160 -0.3123
  199DOPC   C3424719   6.046   0.645   3.065 -0.0987  0.3429  0.8896
  199DOPC   H4X24720   5.974   0.561   3.059 -1.1938  1.1570  2.1048
  199DOPC   H4Y24721   5.985   0.723   3.114 -2.8161 -0.3717 -1.1090
  199DOPC   C3524722   6.166   0.601   3.147  0.0739 -0.7840 -0.3214
  199DOPC   H5X24723   6.222   0.689   3.186  0.9311 -0.4539 -2.1767
  199DOPC   H5Y24724   6.220   0.540   3.072 -0.0531 -1.1493 -0.1171
  199DOPC   C3624725   6.121   0.518   3.268  0.4435  0.7261 -0.1980
  199DOPC   H6X24726   6.060   0.432   3.231 -3.6989  2.6419  1.5476
  199DOPC   H6Y24727   6.213   0.477   3.315 -0.1600 -3.2848 -2.0865
  199DOPC   C3724728   6.044   0.582   3.384  0.0467 -0.2696  1.0475
  199DOPC   H7X24729   6.116   0.643   3.442  2.7822 -2.7419  0.4840
  199DOPC   H7Y24730   5.964   0.648   3.345  2.0270  1.5093 -0.1821
  199DOPC   C3824731   5.981   0.464   3.465  0.0071 -0.4430  0.2221
  199DOPC   H8X24732   5.905   0.403   3.411 -0.1393 -0.1273  0.0628
  199DOPC   H8Y24733   5.924   0.531   3.532  1.2336 -0.1360  0.9894
  199DOPC   C3924734   6.072   0.378   3.538 -0.0562  0.5438  0.7402
  199DOPC   H9X24735   6.122   0.303   3.476 -2.7988 -1.6323  0.9314
  199DOPC  C31024736   6.104   0.390   3.668 -0.2570 -0.4275 -0.0330
  199DOPC  H10X24737   6.191   0.328   3.695 -1.0542 -1.1533  0.9416
  199DOPC  C31124738   6.057   0.490   3.768  0.4000 -0.7759 -0.6808
  199DOPC  H11X24739   5.966   0.546   3.737  0.8966  0.1957 -0.4310
  199DOPC  H11Y24740   6.139   0.564   3.777 -1.0212  0.7470  0.2143
  199DOPC  C31224741   6.044   0.427   3.906  0.6227 -0.0047 -0.7169
  199DOPC  H12X24742   6.138   0.370   3.920  0.9396 -0.0388 -2.7321
  199DOPC  H12Y24743   5.959   0.356   3.914  2.0223 -1.7367 -0.5544
  199DOPC  C31324744   6.027   0.530   4.012 -0.3759 -0.3477 -0.4585
  199DOPC  H13X24745   6.116   0.596   3.998  1.5156 -2.6900 -0.2119
  199DOPC  H13Y24746   5.940   0.598   4.006 -0.4006  0.0289  2.4318
  199DOPC  C31424747   6.023   0.469   4.157  0.5173 -0.7648 -0.2052
  199DOPC  H14X24748   5.931   0.408   4.162  1.3024 -1.8679  2.3288
  199DOPC  H14Y24749   6.096   0.388   4.178 -0.7438 -1.2165  3.0097
  199DOPC  C31524750   6.030   0.565   4.273  0.4568  0.0491  0.4701
  199DOPC  H15X24751   5.952   0.642   4.255  1.0384  0.2063 -1.5432
  199DOPC  H15Y24752   6.132   0.609   4.275  0.0565  0.9976  0.8481
  199DOPC  C31624753   6.004   0.510   4.413  0.3362 -0.1176 -0.2459
  199DOPC  H16X24754   6.016   0.596   4.483  1.5195 -1.1334  0.8327
  199DOPC  H16Y24755   5.897   0.478   4.418  0.9222 -2.2802 -0.7286
  199DOPC  C31724756   6.100   0.397   4.451  0.5472  0.7385 -0.2772
  199DOPC  H17X24757   6.060   0.315   4.389 -0.9986  2.4814 -1.6905
  199DOPC  H17Y24758   6.208   0.402   4.424  1.1084 -1.7488  1.1268
  199DOPC  C31824759   6.086   0.360   4.603  0.4590  0.0576  0.3168
  199DOPC  H18X24760   6.097   0.457   4.656  2.5260 -0.9018  1.8011
  199DOPC  H18Y24761   5.985   0.319   4.625  0.5257  0.1174  0.7481
  199DOPC  H18Z24762   6.165   0.290   4.637  1.9093  1.0382 -0.9126
  200DOPC     N24763   1.039   0.674   3.057  0.2458  0.0435  0.1427
  200DOPC   C1224764   0.992   0.726   3.193  0.8332 -0.6131  0.5585
  200DOPC  H12A24765   0.905   0.670   3.223  0.1812  0.8395  1.4720
  200DOPC  H12B24766   0.961   0.828   3.174 -2.1398 -1.1144  2.2233
  200DOPC   C1324767   1.165   0.744   3.011  0.0046  0.3715 -0.3415
  200DOPC  H13A24768   1.249   0.723   3.075 -0.3828  0.3283  0.1564
  200DOPC  H13B24769   1.200   0.711   2.914 -1.1772  0.0590 -0.6732
  200DOPC  H13C24770   1.156   0.852   3.017 -0.4780  0.3639 -0.8698
  200DOPC   C1424771   0.927   0.701   2.965 -0.4068  0.5613 -0.1669
  200DOPC  H14A24772   0.965   0.680   2.866  1.5337  1.1375  0.4140
  200DOPC  H14B24773   0.837   0.646   2.988 -1.5174  1.1717 -2.6510
  200DOPC  H14C24774   0.903   0.806   2.954 -0.9361  0.3672 -1.0200
  200DOPC   C1524775   1.063   0.524   3.063 -0.4451 -0.5480 -0.6802
  200DOPC  H15A24776   0.982   0.477   3.117  1.0043 -0.7598  1.4338
  200DOPC  H15B24777   1.159   0.496   3.105 -1.3952 -2.3400  0.4055
  200DOPC  H15C24778   1.070   0.482   2.963  2.9078 -0.6853 -0.4910
  200DOPC   C1124779   1.101   0.727   3.318 -0.4699 -0.3740  0.2426
  200DOPC  H11A24780   1.044   0.765   3.405 -1.9890  0.1043 -0.9151
  200DOPC  H11B24781   1.131   0.622   3.342 -0.9137 -0.4781  0.3445
  200DOPC     P24782   1.226   0.956   3.333  0.0194 -0.2679  0.0343
  200DOPC   O1324783   1.096   1.022   3.289 -0.2568 -0.2936  0.1519
  200DOPC   O1424784   1.351   1.014   3.288 -0.1554 -0.3848  0.4442
  200DOPC   O1224785   1.220   0.805   3.293  0.5543  0.5195  0.0639
  200DOPC   O1124786   1.225   0.934   3.489 -0.7769  0.2464 -0.1217
  200DOPC    C124787   1.327   0.844   3.529  0.2139  0.1981  0.5193
  200DOPC    HA24788   1.426   0.878   3.490  1.0929 -1.8938  0.7767
  200DOPC    HB24789   1.313   0.738   3.499  0.4815  1.0695 -3.2577
  200DOPC    C224790   1.346   0.860   3.684 -0.1691 -0.6465  0.0088
  200DOPC    HS24791   1.424   0.791   3.723  0.3106  0.9731  2.0535
  200DOPC   O2124792   1.228   0.839   3.754 -0.0119 -0.1070 -0.0792
  200DOPC   C2124793   1.160   0.731   3.740 -0.6548  0.7047  0.1582
  200DOPC   O2224794   1.201   0.628   3.694 -0.0590  0.5345 -0.6495
  200DOPC   C2224795   1.026   0.751   3.808 -0.6279  0.5759 -0.1178
  200DOPC   H2R24796   0.948   0.684   3.767 -0.3869  0.5416 -0.5261
  200DOPC   H2S24797   0.990   0.855   3.792 -1.2320  0.7203  1.8873
  200DOPC    C324798   1.388   1.011   3.726  0.2393  0.7607 -0.0529
  200DOPC    HX24799   1.316   1.075   3.671 -1.1772 -0.4652  0.3094
  200DOPC    HY24800   1.491   1.027   3.686  1.9667 -2.2331  2.7778
  200DOPC   O3124801   1.371   1.031   3.865 -0.0243 -0.7867 -0.4677
  200DOPC   C3124802   1.466   0.983   3.948 -0.0585 -1.0247  0.0519
  200DOPC   O3224803   1.565   0.922   3.907 -0.4785  0.0208 -0.3533
  200DOPC   C3224804   1.428   1.028   4.091  0.8430  0.1638  0.4223
  200DOPC   H2X24805   1.391   1.132   4.080  0.5305  0.2722  2.1904
  200DOPC   H2Y24806   1.332   0.976   4.114  0.9318 -0.5446 -0.7287
  200DOPC   C2324807   1.045   0.755   3.965  0.2806 -0.1663 -0.1580
  200DOPC   H3R24808   0.950   0.781   4.014 -1.1671 -1.4067 -2.1478
  200DOPC   H3S24809   1.115   0.838   3.988  0.2973  0.0321 -0.8826
  200DOPC   C2424810   1.094   0.624   4.024  0.9835  0.6678  0.4698
  200DOPC   H4R24811   1.198   0.618   3.987  0.3566 -1.0566 -1.2173
  200DOPC   H4S24812   1.038   0.534   3.991  1.0345 -0.1339  2.4091
  200DOPC   C2524813   1.081   0.637   4.174 -0.1296  0.2291 -0.4008
  200DOPC   H5R24814   0.975   0.652   4.201 -0.7581 -0.5910 -2.2359
  200DOPC   H5S24815   1.142   0.728   4.195  0.2346 -0.0941 -0.0243
  200DOPC   C2624816   1.163   0.524   4.238  0.1816 -0.3489  0.2857
  200DOPC   H6R24817   1.263   0.505   4.192  0.8201  0.7442  1.1765
  200DOPC   H6S24818   1.105   0.431   4.218 -0.8244  0.8320 -2.8952
  200DOPC   C2724819   1.186   0.558   4.385  0.6536 -0.1164 -0.2317
  200DOPC   H7R24820   1.085   0.559   4.432  0.0307 -0.5866 -1.5238
  200DOPC   H7S24821   1.218   0.664   4.390  0.3053  0.0791 -1.7022
  200DOPC   C2824822   1.270   0.459   4.461 -0.8105  0.2735  0.2150
  200DOPC   H8R24823   1.282   0.484   4.569  1.4929 -0.5211  0.2031
  200DOPC   H8S24824   1.365   0.468   4.405  0.0093 -0.7282  1.3636
  200DOPC   C2924825   1.213   0.315   4.459  0.1744  0.0589  0.6226
  200DOPC   H9R24826   1.108   0.308   4.491  0.1158  0.6420  0.5589
  200DOPC  C21024827   1.268   0.206   4.416 -0.4701  0.8369  0.6051
  200DOPC  H10R24828   1.215   0.109   4.410 -0.9497  1.0717  0.9496
  200DOPC  C21124829   1.411   0.195   4.353 -0.2728 -1.0612 -0.0036
  200DOPC  H11R24830   1.474   0.177   4.443 -0.6042 -1.7122  0.1000
  200DOPC  H11S24831   1.445   0.286   4.300 -2.1736 -0.8773 -1.0185
  200DOPC  C21224832   1.423   0.082   4.254  0.2388  0.2716  0.1610
  200DOPC  H12R24833   1.375  -0.012   4.286 -0.6134  0.7806  0.4143
  200DOPC  H12S24834   1.533   0.070   4.247  0.8846  3.5768  2.0872
  200DOPC  C21324835   1.357   0.116   4.122 -0.7863  0.5292  0.2324
  200DOPC  H13R24836   1.369   0.223   4.098  1.3940  0.6653  1.6578
  200DOPC  H13S24837   1.248   0.097   4.132 -1.2650  2.0651 -1.4335
  200DOPC  C21424838   1.428   0.035   4.008  0.1298 -0.0373  0.4026
  200DOPC  H14R24839   1.389  -0.069   4.001 -0.8350  0.0286  3.3657
  200DOPC  H14S24840   1.538   0.025   4.021  0.4097  3.3150  1.7879
  200DOPC  C21524841   1.409   0.103   3.873 -0.3818 -0.2021  0.7709
  200DOPC  H15R24842   1.498   0.167   3.857 -0.2786 -0.8504 -1.5557
  200DOPC  H15S24843   1.328   0.178   3.887 -1.5547 -0.3051 -3.8363
  200DOPC  C21624844   1.388   0.011   3.748 -0.0738  0.0460  0.3096
  200DOPC  H16R24845   1.367   0.080   3.663 -0.4049 -0.1785  0.2084
  200DOPC  H16S24846   1.294  -0.047   3.758 -0.0043 -0.5346 -1.8574
  200DOPC  C21724847   1.505  -0.074   3.712  0.4822  0.2074  0.4702
  200DOPC  H17R24848   1.499  -0.097   3.603 -3.0570 -3.5273  1.1948
  200DOPC  H17S24849   1.509  -0.162   3.780  1.3439 -0.2379 -0.1337
  200DOPC  C21824850   1.642  -0.012   3.723  0.0630 -0.0821 -1.5090
  200DOPC  H18R24851   1.660   0.089   3.682  0.1731  0.4319 -0.2317
  200DOPC  H18S24852   1.704  -0.087   3.669 -2.3583 -1.9727 -1.8715
  200DOPC  H18T24853   1.668  -0.012   3.831 -2.2344  1.8367 -0.8694
  200DOPC   C3324854   1.529   1.003   4.197 -0.3231  0.2028 -0.0085
  200DOPC   H3X24855   1.577   0.903   4.188  2.0331  1.4172 -2.5624
  200DOPC   H3Y24856   1.486   1.001   4.300 -0.4094 -1.8727 -0.0435
  200DOPC   C3424857   1.650   1.106   4.199 -0.1516 -0.2194  0.1245
  200DOPC   H4X24858   1.606   1.207   4.218 -1.2732 -0.7533  0.4632
  200DOPC   H4Y24859   1.717   1.109   4.111 -0.9705  0.1592 -0.4958
  200DOPC   C3524860   1.748   1.077   4.307  0.2534 -0.2820 -0.1329
  200DOPC   H5X24861   1.795   0.977   4.299  0.6881 -0.0861 -0.1108
  200DOPC   H5Y24862   1.700   1.072   4.407  0.5513 -0.4735  0.0020
  200DOPC   C3624863   1.858   1.179   4.329  0.3704 -0.1032  0.5946
  200DOPC   H6X24864   1.957   1.139   4.298  0.6604  0.6724  0.5079
  200DOPC   H6Y24865   1.835   1.257   4.253  0.3009 -2.0545 -1.4771
  200DOPC   C3724866   1.852   1.235   4.470 -0.3795 -0.9248  0.4856
  200DOPC   H7X24867   1.858   1.162   4.553 -4.0572 -2.4132 -0.3401
  200DOPC   H7Y24868   1.942   1.299   4.478  0.0347 -1.2026 -1.3730
  200DOPC   C3824869   1.741   1.340   4.494  0.3780  0.3584  0.6415
  200DOPC   H8X24870   1.642   1.290   4.485  1.0669 -1.2542  1.7665
  200DOPC   H8Y24871   1.745   1.427   4.424  0.1149 -1.2903 -1.5432
  200DOPC   C3924872   1.757   1.399   4.634  0.7837  0.2473 -0.2480
  200DOPC   H9X24873   1.862   1.412   4.664  1.3354 -0.7358 -1.6295
  200DOPC  C31024874   1.652   1.414   4.719  0.1310 -0.2007  0.1126
  200DOPC  H10X24875   1.679   1.448   4.820 -2.0476  0.0720  0.6569
  200DOPC  C31124876   1.503   1.389   4.705 -0.2725 -0.0733  0.1164
  200DOPC  H11X24877   1.494   1.298   4.769 -0.4915  1.5301  2.5042
  200DOPC  H11Y24878   1.482   1.355   4.602  0.2054 -0.2206  0.0630
  200DOPC  C31224879   1.409   1.501   4.744 -0.4965 -0.8786  0.3382
  200DOPC  H12X24880   1.397   1.579   4.666 -4.0378  0.2678  1.8351
  200DOPC  H12Y24881   1.455   1.542   4.836  0.9253 -0.2612 -0.5998
  200DOPC  C31324882   1.267   1.458   4.783  0.5287  0.5829 -0.2159
  200DOPC  H13X24883   1.214   1.424   4.692  1.2508  1.0702 -0.8352
  200DOPC  H13Y24884   1.271   1.378   4.860 -1.2507  1.2288  0.5851
  200DOPC  C31424885   1.178   1.567   4.852 -0.0016 -0.0993 -0.3927
  200DOPC  H14X24886   1.223   1.596   4.949  1.0786 -1.4623 -0.4674
  200DOPC  H14Y24887   1.176   1.662   4.794  0.3815 -0.2908 -0.7233
  200DOPC  C31524888   1.036   1.519   4.877  0.5178  0.0016 -0.3436
  200DOPC  H15X24889   1.032   1.442   4.957  1.7796  0.6287  0.3533
  200DOPC  H15Y24890   1.008   1.481   4.776  0.7076  3.3720 -1.7948
  200DOPC  C31624891   0.942   1.636   4.921  0.0288 -0.5258  0.1273
  200DOPC  H16X24892   0.945   1.656   5.031 -3.4362  1.8265 -0.0676
  200DOPC  H16Y24893   0.978   1.730   4.876  3.4295 -1.7644 -0.0543
  200DOPC  C31724894   0.795   1.604   4.880  0.1936 -0.2165 -0.2916
  200DOPC  H17X24895   0.737   1.697   4.896 -0.6033 -0.4324 -1.8596
  200DOPC  H17Y24896   0.790   1.594   4.770  1.2003  1.2467 -0.4988
  200DOPC  C31824897   0.717   1.492   4.954 -0.0104  0.2295  0.1700
  200DOPC  H18X24898   0.699   1.510   5.062  0.6822 -1.9774  0.6930
  200DOPC  H18Y24899   0.618   1.475   4.907  0.6997 -2.8559 -0.3900
  200DOPC  H18Z24900   0.768   1.394   4.954  0.0001  0.0892  3.8943
  201SOD    SOD24901   6.618   5.732   9.308  0.0014  0.5322 -0.4406
  202SOD    SOD24902   5.498   6.590   0.436 -0.3567 -0.2801 -0.2875
  203SOD    SOD24903   6.047   0.145   1.702  0.0612  0.0458  0.3558
  204SOD    SOD24904   1.258   0.115   1.215  0.4549 -0.3757  0.0444
  205SOD    SOD24905   2.056   0.228   6.742 -0.3451 -0.0108 -0.5494
  206SOD    SOD24906   6.528   6.935   9.428 -0.0851  0.2062  0.2282
  207SOD    SOD24907   3.599   3.317   8.591  0.1329 -0.2509  0.5546
  208SOD    SOD24908   7.265   5.761   0.660  0.0033  0.2659 -0.1174
  209SOD    SOD24909   0.809   6.782   7.603 -0.6857  0.2927  0.1565
  210SOD    SOD24910   7.043   4.398   0.633  0.3978  0.5981 -0.3673
  211SOD    SOD24911   3.261   0.252   9.135 -0.2786 -0.0664  0.1026
  212SOD    SOD24912   4.763   6.362   1.851 -0.6409  0.0818  0.0997
  213SOD    SOD24913   1.357   5.646   0.088  0.7444 -0.4347 -0.1642
  214SOD    SOD24914   5.130   2.731   8.290 -0.1256  0.0635 -0.0784
  215SOD    SOD24915   1.956   2.567   1.906 -0.2218 -0.0570 -0.1674
  216SOD    SOD24916   3.057   5.637   8.392  0.0409 -0.1290 -0.3162
  217SOD    SOD24917   3.997   5.805   1.733  0.1995 -0.5484 -0.3695
  218SOD    SOD24918   4.400   1.654   8.844  0.0226  0.3757  0.1890
  219SOD    SOD24919   1.989   2.454   0.155 -0.4049  0.3008 -0.5247
  220SOD    SOD24920   3.010   0.520   7.034 -0.0670 -0.3453 -0.4836
  221SOD    SOD24921   6.499   0.641   0.836 -0.2854  0.5115  0.0400
  222SOD    SOD24922   4.203   2.588   9.580 -0.0796 -0.2239 -0.5763
  223SOD    SOD24923   2.735   3.718   7.071  0.0094  0.0582 -0.0936
  224SOD    SOD24924   4.145   5.109   2.033  0.3410  0.2399  0.5888
  225SOD    SOD24925   4.414   3.534   0.411  0.0964  0.1698  0.4867
  226SOD    SOD24926   6.126   5.622   2.165  0.4162  0.4553  0.2534
  227CLA    CLA24927   6.315   0.581   0.634 -0.0811 -0.1797 -0.2338
  228CLA    CLA24928   5.259   4.694   2.055 -0.3019  0.3680 -0.2936
  229CLA    CLA24929   6.840   5.347   9.963  0.2697 -0.2470 -0.1910
  230CLA    CLA24930   5.060   0.810   1.417 -0.5943 -0.4185  0.5977
  231CLA    CLA24931   3.500   1.482   0.104 -0.2237 -0.0781  0.1717
  232CLA    CLA24932   3.756   5.176   1.874  0.0942 -0.2300 -0.3623
  233CLA    CLA24933   2.892   5.921   8.799  0.1806 -0.3700  0.0408
  234CLA    CLA24934   1.991   4.750   0.505 -0.3807  0.4063 -0.1763
  235CLA    CLA24935   2.756   0.657   7.524  0.1464 -0.3549 -0.0117
  236CLA    CLA24936   7.125   0.996   7.905  0.2007  0.3424  0.2044
  237CLA    CLA24937   4.067   3.538   8.106  0.1192  0.1108  0.0911
  238CLA    CLA24938   2.185   0.258   7.301  0.1758  0.1708  0.0897
  239CLA    CLA24939   1.679   3.046   1.519 -0.6559 -0.1811 -0.0723
  240CLA    CLA24940   6.291   6.165   9.705  0.1177 -0.3547  0.1429
  241CLA    CLA24941   1.366   0.473   8.325 -0.2181  0.3563 -0.5458
  242CLA    CLA24942   4.596   2.895   0.277  0.4219  0.1128  0.2236
  243CLA    CLA24943   1.348   2.089   7.781 -0.1869  0.0768  0.0141
  244CLA    CLA24944   3.723   4.290   7.473  0.7757  0.2369  0.0313
  245CLA    CLA24945   7.147   0.088   1.403  0.2642 -0.0370 -0.2221
  246CLA    CLA24946   1.868   0.642   1.289  0.0925 -0.2992 -0.0318
  247CLA    CLA24947   1.514   5.170   1.550  0.5085 -0.5417  0.0531
  248CLA    CLA24948   1.664   1.641   0.902 -0.2091 -0.0051  0.1961
  249CLA    CLA24949   0.300   5.298   9.447 -0.0982  0.3629  0.0084
  250CLA    CLA24950   6.842   5.988   0.969  0.2388  0.1215  0.4852
  251CLA    CLA24951   3.684   2.862   0.027 -0.2268 -0.2442  0.1330
  252CLA    CLA24952   4.836   5.867   0.604 -0.2259 -0.2519  0.3632
  253TIP3   OH224953   1.693   3.056   8.482 -0.5775 -0.1565  0.5894
  253TIP3    H124954   1.719   3.148   8.483  0.6787 -0.4905 -0.0089
  253TIP3    H224955   1.690   3.030   8.574  0.3745  0.1293  0.7075
  254TIP3   OH224956   4.517   7.244   2.133 -0.1402 -0.0774  0.2078
  254TIP3    H124957   4.474   7.223   2.216  0.5719  1.5895  1.0502
  254TIP3    H224958   4.600   7.197   2.137  1.3597  2.4529  1.9963
  255TIP3   OH224959   6.148   0.685   1.661  0.0022  0.2753 -0.3863
  255TIP3    H124960   6.148   0.678   1.566 -1.0002  0.0302 -0.3740
  255TIP3    H224961   6.075   0.744   1.681 -0.2574 -0.2557  0.2666
  256TIP3   OH224962   7.029   2.939   1.564  0.1762  0.0189 -0.0336
  256TIP3    H124963   7.049   2.868   1.624  0.4926  0.6706  0.6452
  256TIP3    H224964   7.018   2.896   1.479 -0.9823 -0.9963  0.5976
  257TIP3   OH224965   0.290   4.661   8.918 -0.4840  0.0103 -0.0540
  257TIP3    H124966   0.245   4.614   8.988 -0.9562 -1.5284 -1.3302
  257TIP3    H224967   0.231   4.654   8.843 -0.4234  2.4125 -0.4294
  258TIP3   OH224968   1.618   3.780   2.086  0.4721  0.4807  0.0881
  258TIP3    H124969   1.639   3.776   2.179 -1.1259 -1.0457  0.4257
  258TIP3    H224970   1.540   3.835   2.081  0.0482 -0.1390 -0.2391
  259TIP3   OH224971   6.044   4.004   7.416 -0.3682  0.4543 -0.4851
  259TIP3    H124972   6.077   4.093   7.404  0.7474  0.3347  1.4302
  259TIP3    H224973   5.956   4.016   7.451 -0.0251  0.8197  0.2664
  260TIP3   OH224974   0.681   6.342   0.662 -0.1971 -0.2410  0.3780
  260TIP3    H124975   0.623   6.418   0.652 -1.8521 -1.6361 -1.2032
  260TIP3    H224976   0.693   6.333   0.757 -2.2156  0.3615  0.7257
  261TIP3   OH224977   5.466   4.667   2.650 -0.9179 -0.1688 -0.8995
  261TIP3    H124978   5.528   4.605   2.611 -1.6014 -0.2158 -1.9358
  261TIP3    H224979   5.472   4.650   2.744  2.0234  1.0937 -0.7290
  262TIP3   OH224980   3.643   5.761   0.197  0.4497  0.4844 -0.2134
  262TIP3    H124981   3.719   5.805   0.235  0.2025  1.3164 -0.6439
  262TIP3    H224982   3.571   5.782   0.257  0.6728 -0.8567  0.5562
  263TIP3   OH224983   0.017   2.220   9.700  0.1834 -0.3901  0.2353
  263TIP3    H124984   0.093   2.265   9.737  0.9831  0.0605 -1.8126
  263TIP3    H224985  -0.023   2.176   9.774  0.7841  1.6819  1.9069
  264TIP3   OH224986   3.789   1.608   0.513 -0.0967 -0.5653 -0.1962
  264TIP3    H124987   3.704   1.649   0.499  0.1899 -0.2313 -1.0202
  264TIP3    H224988   3.777   1.518   0.483 -0.5575 -0.9319  1.0476
  265TIP3   OH224989   0.516   6.259   8.744  0.1290  0.0481  0.3297
  265TIP3    H124990   0.497   6.343   8.787 -0.3361  0.0041  0.2163
  265TIP3    H224991   0.603   6.271   8.707 -0.8735  1.3891 -1.8212
  266TIP3   OH224992   3.997   1.565   1.306 -0.4882 -1.0182 -0.6556
  266TIP3    H124993   4.030   1.477   1.322 -0.9632 -0.8997  1.1436
  266TIP3    H224994   4.049   1.597   1.233  1.7236 -1.7326  0.5286
  267TIP3   OH224995   5.422   7.459   8.671 -0.6219  0.1224 -0.3166
  267TIP3    H124996   5.359   7.389   8.654  1.1866 -1.7717  0.2888
  267TIP3    H224997   5.503   7.413   8.692  0.5112  2.4224  0.7117
  268TIP3   OH224998   2.826   7.385   8.237 -0.0575  0.0305  0.8293
  268TIP3    H124999   2.807   7.469   8.277 -0.5965 -0.0343  0.7138
  268TIP3    H225000   2.817   7.400   8.143 -1.8496 -0.5490  0.8693
  269TIP3   OH225001   1.091   1.267   1.429 -0.2236 -0.3818 -0.1518
  269TIP3    H125002   1.133   1.282   1.513 -0.2513 -1.7912  0.1260
  269TIP3    H225003   1.064   1.354   1.400 -0.7085  0.0602  1.5469
  270TIP3   OH225004   2.676   0.253   1.745  0.0902 -0.0645 -0.0763
  270TIP3    H125005   2.611   0.316   1.777 -0.0344 -0.7717  1.1226
  270TIP3    H225006   2.629   0.169   1.743  0.0718 -0.0480 -2.2607
  271TIP3   OH225007   0.478   2.767   9.923  0.6671  0.0617 -0.5011
  271TIP3    H125008   0.499   2.824   9.849  2.0223 -0.8253 -0.8446
  271TIP3    H225009   0.486   2.824  10.000  1.2856  0.5134 -0.8867
  272TIP3   OH225010   2.862   2.586   7.396 -0.7675  0.0261 -0.0315
  272TIP3    H125011   2.802   2.630   7.455 -0.8838 -0.7083  0.4122
  272TIP3    H225012   2.834   2.612   7.309 -0.4295  1.3309  0.2339
  273TIP3   OH225013   7.248   0.495   9.730  0.4774  0.0174  0.0045
  273TIP3    H125014   7.218   0.416   9.776  2.0170 -0.1729  0.7523
  273TIP3    H225015   7.225   0.567   9.789 -1.1042  0.1942 -0.7655
  274TIP3   OH225016   2.758   4.117   7.154  0.1703  0.2173  0.0139
  274TIP3    H125017   2.839   4.166   7.163  0.3328  0.0975 -0.7559
  274TIP3    H225018   2.689   4.184   7.154  0.5024  0.6579 -2.8864
  275TIP3   OH225019   3.131   0.111   8.149 -0.5500 -0.3284 -0.3208
  275TIP3    H125020   3.205   0.095   8.090  3.0232  2.2870  2.9070
  275TIP3    H225021   3.058   0.133   8.091  1.7380 -0.9961 -3.7590
  276TIP3   OH225022   3.286   2.406   1.134  0.1640  0.3123  0.2502
  276TIP3    H125023   3.351   2.403   1.064  0.8306  0.4664  0.8492
  276TIP3    H225024   3.337   2.424   1.213 -0.7718  2.1493  0.4907
  277TIP3   OH225025   1.486   6.502   9.156 -0.3535 -0.1477  0.5072
  277TIP3    H125026   1.482   6.424   9.211 -0.5917  0.0589  0.7865
  277TIP3    H225027   1.452   6.474   9.071  1.8455 -0.9775 -0.1483
  278TIP3   OH225028   4.980   1.309   8.255  0.9094  0.0302  0.3882
  278TIP3    H125029   4.998   1.232   8.201  0.7039 -0.1476  0.5706
  278TIP3    H225030   5.056   1.365   8.242  0.6647  0.1923 -0.4437
  279TIP3   OH225031   4.433   6.416   9.241  0.1367  0.0469  0.1808
  279TIP3    H125032   4.492   6.406   9.315 -0.2551 -3.0964  0.1655
  279TIP3    H225033   4.489   6.449   9.170  1.1467  0.1870  1.0183
  280TIP3   OH225034   0.463   6.818   2.306  0.1292 -0.2574  0.0739
  280TIP3    H125035   0.472   6.779   2.393 -0.2055  0.3638  0.3970
  280TIP3    H225036   0.545   6.796   2.261 -0.0780 -1.3762  0.2152
  281TIP3   OH225037   5.269   7.037   2.560  0.2947 -0.2573  0.5870
  281TIP3    H125038   5.233   7.125   2.557 -0.1099 -0.4478 -0.2483
  281TIP3    H225039   5.250   6.999   2.474 -0.0626 -1.3651  1.1321
  282TIP3   OH225040   6.177   6.992   8.120 -0.1047  0.1621 -0.1257
  282TIP3    H125041   6.126   6.983   8.040  0.5874 -0.3068 -0.5318
  282TIP3    H225042   6.143   6.923   8.178  0.2703 -0.3458 -0.5073
  283TIP3   OH225043   5.215   3.181   2.572 -0.4432  0.1015  0.2550
  283TIP3    H125044   5.226   3.087   2.558  0.9515  0.1130  1.1540
  283TIP3    H225045   5.181   3.213   2.488 -1.8906 -1.3258  0.2368
  284TIP3   OH225046   2.096   0.498   7.993  0.2387  0.7274 -0.0680
  284TIP3    H125047   2.184   0.466   7.970  0.4164  1.5536 -0.5716
  284TIP3    H225048   2.099   0.509   8.088  0.5709  0.4279 -0.0401
  285TIP3   OH225049   4.539   0.864   1.961  0.4677  0.0227  0.0542
  285TIP3    H125050   4.633   0.871   1.945  0.5834 -0.0239  0.6785
  285TIP3    H225051   4.530   0.785   2.015  0.0304 -0.1790 -0.3053
  286TIP3   OH225052   7.228   0.480   1.706 -0.6538 -0.3567  1.0324
  286TIP3    H125053   7.274   0.455   1.786 -1.8759 -0.6112  1.6662
  286TIP3    H225054   7.146   0.519   1.736 -0.2296  1.4769 -0.0295
  287TIP3   OH225055   4.485   1.085   1.559 -0.1928 -0.1473 -0.0167
  287TIP3    H125056   4.510   1.130   1.640  1.5142  0.5513 -0.8923
  287TIP3    H225057   4.402   1.043   1.580 -1.3243  2.4834  1.1894
  288TIP3   OH225058   6.371   6.396   1.956  0.2530  0.5764  0.2665
  288TIP3    H125059   6.415   6.424   1.876 -0.7816  0.7047 -0.2771
  288TIP3    H225060   6.391   6.302   1.963  0.2086  0.5272 -0.2402
  289TIP3   OH225061   2.499   2.902   7.751 -0.1357  0.4732  0.0397
  289TIP3    H125062   2.483   2.839   7.821 -0.0195  0.1590 -0.2126
  289TIP3    H225063   2.447   2.869   7.677  1.6965 -0.6354 -0.8349
  290TIP3   OH225064   6.314   4.644   7.737 -0.2186 -0.0033  0.3148
  290TIP3    H125065   6.267   4.719   7.701 -0.1299 -0.9058 -1.8336
  290TIP3    H225066   6.251   4.603   7.796 -0.1946  1.8201  1.7191
  291TIP3   OH225067   5.991   6.250   8.121  0.2931 -0.0608  0.4218
  291TIP3    H125068   5.916   6.258   8.063 -0.6699  0.3955  1.6944
  291TIP3    H225069   6.062   6.222   8.064 -0.0905  2.2961 -1.3764
  292TIP3   OH225070   6.646   6.812   1.371 -0.4461  0.1299 -0.1814
  292TIP3    H125071   6.699   6.879   1.328  0.0208 -0.7956 -1.1068
  292TIP3    H225072   6.559   6.821   1.333 -0.6355  0.8211  0.4015
  293TIP3   OH225073   2.382   1.316   8.745 -0.4489 -0.2289  0.1005
  293TIP3    H125074   2.309   1.356   8.793 -1.0810 -0.8542 -0.3315
  293TIP3    H225075   2.342   1.245   8.695  0.0822  0.7290 -1.7992
  294TIP3   OH225076   7.376   4.912   8.102 -0.1022  0.0015 -0.0748
  294TIP3    H125077   7.292   4.938   8.065  0.6072  0.3225 -1.5641
  294TIP3    H225078   7.362   4.910   8.197 -1.2959  1.8637 -0.1581
  295TIP3   OH225079   3.208   6.165   1.667 -0.5893  0.0603  0.4813
  295TIP3    H125080   3.169   6.230   1.725  0.0916 -0.3211  1.3942
  295TIP3    H225081   3.294   6.146   1.705 -0.4228 -0.7475 -0.2394
  296TIP3   OH225082   0.185   2.740   9.387 -0.3235  0.6612  0.4839
  296TIP3    H125083   0.182   2.702   9.475  2.2122  0.1493  0.4140
  296TIP3    H225084   0.172   2.666   9.328  3.3943 -0.1027  0.3830
  297TIP3   OH225085   4.797   1.742   9.893 -0.3056 -1.1452  0.0583
  297TIP3    H125086   4.860   1.697   9.837  0.3798 -1.4871  1.0839
  297TIP3    H225087   4.757   1.672   9.945  0.5528 -0.6254  1.4578
  298TIP3   OH225088   2.637   0.074   7.341  0.5246 -0.4169  0.2600
  298TIP3    H125089   2.684   0.139   7.394  0.5821 -0.4135  0.2045
  298TIP3    H225090   2.654   0.100   7.251  2.3047 -1.7377  0.1662
  299TIP3   OH225091   2.119   7.076   6.390 -0.7658 -0.4823  0.9062
  299TIP3    H125092   2.053   7.087   6.459 -0.0157  2.5139  1.2873
  299TIP3    H225093   2.175   7.152   6.399  0.2199 -0.7288 -2.1680
  300TIP3   OH225094   7.247   7.143   8.537 -0.1578  0.0463 -0.3562
  300TIP3    H125095   7.199   7.128   8.456  0.4457  0.8138 -0.8615
  300TIP3    H225096   7.182   7.126   8.606 -1.0354  0.6160 -1.0195
  301TIP3   OH225097   0.473   4.236   2.718  0.5449 -0.4476  0.1952
  301TIP3    H125098   0.562   4.253   2.688  0.5588 -1.2866 -0.2674
  301TIP3    H225099   0.451   4.150   2.682 -0.6667 -0.0095 -0.1885
  302TIP3   OH225100   5.085   4.188   0.026 -0.5883  0.0304  0.2865
  302TIP3    H125101   5.096   4.251  -0.044  0.6402  0.1632  0.5820
  302TIP3    H225102   5.132   4.110  -0.004  0.8256  0.4256  1.3531
  303TIP3   OH225103   0.576   6.254   2.117 -0.0231  0.6491 -0.2197
  303TIP3    H125104   0.598   6.347   2.123  1.2756  0.2912  1.4479
  303TIP3    H225105   0.639   6.210   2.175 -0.4038 -1.3138 -1.1861
  304TIP3   OH225106   2.580   1.615   0.973 -0.4070  0.0979 -0.1929
  304TIP3    H125107   2.657   1.628   1.029 -0.8001  2.5874 -0.1257
  304TIP3    H225108   2.615   1.578   0.892  0.6266 -0.3378  0.4349
  305TIP3   OH225109   6.850   6.894   9.085 -0.3194  0.1148  0.2961
  305TIP3    H125110   6.934   6.877   9.128  0.6310 -0.3759 -1.6572
  305TIP3    H225111   6.796   6.933   9.154  1.1861 -0.4127  1.8585
  306TIP3   OH225112   6.812   4.951   1.412  0.6911 -0.0184 -0.2785
  306TIP3    H125113   6.791   5.044   1.424 -2.1709 -0.3772 -1.6515
  306TIP3    H225114   6.894   4.951   1.362  1.4822  1.6962  0.9144
  307TIP3   OH225115   7.026   7.099   0.701 -0.8391 -0.3391 -0.5022
  307TIP3    H125116   6.983   7.051   0.772 -0.9832 -1.7646 -1.5205
  307TIP3    H225117   7.116   7.111   0.731 -1.1511 -0.0557  0.3369
  308TIP3   OH225118   1.804   0.071   2.464 -0.3266  0.2248 -0.1258
  308TIP3    H125119   1.862   0.144   2.444 -1.4780  1.2497  0.1307
  308TIP3    H225120   1.784   0.032   2.379 -1.5084  1.6651 -0.5653
  309TIP3   OH225121   4.080   6.775   8.846  0.2077  0.4482 -0.7305
  309TIP3    H125122   4.154   6.816   8.802  0.6991 -0.3353 -0.6548
  309TIP3    H225123   4.083   6.683   8.819 -2.9692  1.0344 -3.7636
  310TIP3   OH225124   4.004   0.483   9.695  0.5227  0.1129 -0.0186
  310TIP3    H125125   4.058   0.408   9.669 -0.5205 -1.0807  1.1269
  310TIP3    H225126   4.038   0.556   9.644  1.0960 -1.2912 -1.7201
  311TIP3   OH225127   5.120   2.394   9.397 -0.4763  0.4640 -0.3828
  311TIP3    H125128   5.153   2.330   9.334 -0.2997  0.4623 -0.2880
  311TIP3    H225129   5.030   2.366   9.414 -0.0848 -0.3600  0.4324
  312TIP3   OH225130   0.901   1.786   2.612 -0.2401 -0.0825  0.0838
  312TIP3    H125131   0.948   1.846   2.555  0.4055 -0.4419  0.2200
  312TIP3    H225132   0.828   1.754   2.559 -1.3590  1.7791  0.4312
  313TIP3   OH225133   7.231   5.651   0.471 -0.7757 -0.1804 -0.6809
  313TIP3    H125134   7.142   5.617   0.481  0.6780 -4.1515  0.6978
  313TIP3    H225135   7.255   5.629   0.381 -0.4877 -1.1582 -0.3766
  314TIP3   OH225136   2.494   1.220   8.170 -0.3381 -0.1470  0.5675
  314TIP3    H125137   2.409   1.262   8.158 -0.8598 -0.8113  1.8119
  314TIP3    H225138   2.477   1.127   8.159  0.5920 -0.1712 -0.9719
  315TIP3   OH225139   1.528   4.351   9.545  0.9584 -0.0175  0.2007
  315TIP3    H125140   1.565   4.390   9.624  0.4685 -0.8928  0.8867
  315TIP3    H225141   1.470   4.282   9.578  0.2096  0.0667 -0.9059
  316TIP3   OH225142   2.095   1.083   0.873 -0.4059  0.5134 -0.2105
  316TIP3    H125143   2.147   1.064   0.951 -0.3948  1.3947  0.0040
  316TIP3    H225144   2.130   1.024   0.806  0.6576  0.8490  0.0219
  317TIP3   OH225145   0.710   0.677   0.330  0.1400  0.2346  0.0492
  317TIP3    H125146   0.697   0.771   0.333  1.0794  0.4476 -1.3313
  317TIP3    H225147   0.774   0.664   0.260  0.3201 -1.3984  0.4687
  318TIP3   OH225148   5.301   7.103   0.525  0.6812  0.0286  0.3822
  318TIP3    H125149   5.351   7.178   0.557  1.8356 -1.1044  1.3280
  318TIP3    H225150   5.317   7.034   0.589  0.7212 -1.4388 -1.1368
  319TIP3   OH225151   5.314   5.693   1.359 -0.8314 -0.7593 -0.2182
  319TIP3    H125152   5.308   5.608   1.401 -0.7865 -0.2290  0.8892
  319TIP3    H225153   5.231   5.701   1.310 -0.9073 -1.3556 -0.1975
  320TIP3   OH225154   1.404   7.285   0.132  0.3783 -0.1407  0.0225
  320TIP3    H125155   1.315   7.286   0.097  1.1131  0.8005 -1.9045
  320TIP3    H225156   1.422   7.193   0.148 -0.0487 -0.6092 -1.9917
  321TIP3   OH225157   0.720   7.278   0.613  0.8077 -0.4031  0.0591
  321TIP3    H125158   0.801   7.309   0.572  2.5264 -1.0540  2.6901
  321TIP3    H225159   0.720   7.183   0.597 -0.7016 -0.1381 -1.8636
  322TIP3   OH225160   1.388   4.056   0.207 -0.0991  0.4606 -0.3490
  322TIP3    H125161   1.436   4.080   0.286 -2.2482  0.0301  1.1831
  322TIP3    H225162   1.414   3.966   0.190  0.0776  0.4197  0.1209
  323TIP3   OH225163   4.610   1.008   1.101 -0.1124  0.0039 -0.0714
  323TIP3    H125164   4.666   1.006   1.023  0.2202  1.8998  0.0846
  323TIP3    H225165   4.521   1.002   1.066  0.0137  1.2255 -0.6521
  324TIP3   OH225166   0.218   7.471   1.124 -0.3495 -0.1193 -0.2660
  324TIP3    H125167   0.172   7.516   1.053 -0.7826 -1.0444 -0.5844
  324TIP3    H225168   0.308   7.503   1.119 -0.5235  0.2907 -0.8319
  325TIP3   OH225169   2.319   2.961   7.144 -0.1822 -0.5862 -0.1292
  325TIP3    H125170   2.338   2.928   7.056  0.2608  0.6176 -0.4960
  325TIP3    H225171   2.290   2.883   7.192  0.6837 -1.4868 -1.0028
  326TIP3   OH225172   4.963   0.650   1.725 -0.2685 -0.0552 -0.0563
  326TIP3    H125173   4.970   0.556   1.708  0.1231  0.1419 -1.0202
  326TIP3    H225174   5.042   0.688   1.687  1.2795  0.3112  3.1868
  327TIP3   OH225175   0.741   5.486   8.562  0.0338 -0.3123 -0.6052
  327TIP3    H125176   0.715   5.399   8.594  1.2647 -1.3613 -2.2872
  327TIP3    H225177   0.829   5.499   8.597 -0.5493  0.7977  0.5442
  328TIP3   OH225178   1.318   5.373   0.536 -0.2265  0.5654 -0.6251
  328TIP3    H125179   1.245   5.333   0.488 -3.1680  2.8804  1.5364
  328TIP3    H225180   1.342   5.450   0.483  1.6335 -0.8066 -1.9349
  329TIP3   OH225181   4.354   1.959   8.345 -0.0489 -0.1173  0.4012
  329TIP3    H125182   4.299   2.036   8.335  0.7669  0.3376 -0.8031
  329TIP3    H225183   4.431   1.989   8.394  0.0792 -0.2636  0.2936
  330TIP3   OH225184   5.522   6.964   7.949 -0.7258 -0.3641 -0.3107
  330TIP3    H125185   5.588   6.995   7.886 -0.7099  0.3743  0.0547
  330TIP3    H225186   5.540   6.871   7.959  1.9910  0.2259  1.7255
  331TIP3   OH225187   2.244   2.625   9.696 -0.2073  0.0370 -0.2502
  331TIP3    H125188   2.269   2.584   9.779 -0.5815 -1.0708 -0.6634
  331TIP3    H225189   2.311   2.692   9.681  0.3002 -0.2751  0.5548
  332TIP3   OH225190   4.082   7.087   0.317 -0.1172 -0.3561 -0.6597
  332TIP3    H125191   4.158   7.117   0.367  0.1365  1.3908 -2.0085
  332TIP3    H225192   4.078   6.993   0.335  3.0731 -0.7840 -1.4120
  333TIP3   OH225193   2.888   2.041   9.259  0.0233  0.0702 -1.1648
  333TIP3    H125194   2.959   1.990   9.296 -0.8197 -0.6359 -0.4774
  333TIP3    H225195   2.884   2.120   9.314 -1.4172 -1.1105  0.5271
  334TIP3   OH225196   0.786   1.190   0.221 -0.2227  0.0728 -0.2075
  334TIP3    H125197   0.772   1.121   0.156 -1.1725  0.5241 -0.5166
  334TIP3    H225198   0.704   1.192   0.271  0.4280 -0.1433  0.8918
  335TIP3   OH225199   6.712   3.729   0.572  0.4251 -0.2599  0.1326
  335TIP3    H125200   6.786   3.672   0.553 -0.1744 -0.5339 -1.5336
  335TIP3    H225201   6.752   3.815   0.590  1.2445 -0.8825  1.4286
  336TIP3   OH225202   2.450   0.789   7.638  0.1408 -0.3609  0.3352
  336TIP3    H125203   2.490   0.854   7.579  0.4962 -1.2397 -0.4151
  336TIP3    H225204   2.516   0.775   7.706 -0.0575  0.2733  0.6643
  337TIP3   OH225205   0.914   4.661   0.470 -0.3290  0.0772  0.0894
  337TIP3    H125206   0.824   4.634   0.491 -0.1306 -0.9404 -0.3088
  337TIP3    H225207   0.961   4.579   0.459  0.9316  0.5945  1.3921
  338TIP3   OH225208   0.486   3.650   9.655  0.0071  0.1940  0.2651
  338TIP3    H125209   0.441   3.630   9.736  0.1190 -0.0198  0.2723
  338TIP3    H225210   0.464   3.742   9.638  0.6998  0.4947  0.9926
  339TIP3   OH225211   0.317   1.103   0.420  0.3455  0.3810  0.8535
  339TIP3    H125212   0.324   1.102   0.516  0.8723 -2.2918  0.8834
  339TIP3    H225213   0.266   1.024   0.400  0.5279  0.7186 -1.0856
  340TIP3   OH225214   6.986   3.194   0.197 -0.2339  0.3032  0.6184
  340TIP3    H125215   7.048   3.152   0.257 -1.0788 -0.6587  0.8504
  340TIP3    H225216   7.009   3.287   0.200  1.0068  0.0125  0.9114
  341TIP3   OH225217   5.461   0.318   0.111  0.5365  0.0082  0.4046
  341TIP3    H125218   5.396   0.388   0.122 -0.5617 -1.1873  1.9814
  341TIP3    H225219   5.537   0.362   0.074 -0.6935  1.7205 -0.2254
  342TIP3   OH225220   5.653   0.017   8.201 -0.3142  0.8437 -0.2048
  342TIP3    H125221   5.628   0.098   8.156 -1.2086  0.5247 -0.3023
  342TIP3    H225222   5.574  -0.009   8.248  0.0671  0.1892  0.0804
  343TIP3   OH225223   4.312   2.502   0.548  0.3143 -0.0241  0.1488
  343TIP3    H125224   4.219   2.524   0.553 -0.1730 -1.9044 -0.0168
  343TIP3    H225225   4.340   2.495   0.639  0.6356  1.7083  0.2239
  344TIP3   OH225226   5.073   7.380   9.365  0.5185  0.0624 -0.5047
  344TIP3    H125227   5.018   7.350   9.292 -0.1818  2.0823 -0.8604
  344TIP3    H225228   5.106   7.299   9.405 -1.3323 -1.1613 -1.3348
  345TIP3   OH225229   0.206   0.931   8.303  0.6360 -0.5237 -0.3008
  345TIP3    H125230   0.201   0.893   8.391  1.0126 -1.3868 -0.6372
  345TIP3    H225231   0.146   0.878   8.250 -0.6233  0.8342 -0.2950
  346TIP3   OH225232   6.273   4.816   9.379 -0.7622  0.5311  0.5955
  346TIP3    H125233   6.224   4.890   9.414  0.3135  0.5672  2.1322
  346TIP3    H225234   6.356   4.853   9.349 -0.6848  0.1241  0.2886
  347TIP3   OH225235   0.444   4.024   1.021  0.0721  0.3274  0.0370
  347TIP3    H125236   0.472   4.043   1.110 -0.6405 -1.4247  0.6909
  347TIP3    H225237   0.444   4.109   0.977  0.7070  1.1935  1.6137
  348TIP3   OH225238   2.073   0.758   0.295  0.2664  0.4272 -0.5187
  348TIP3    H125239   2.029   0.841   0.277  0.8497  0.9713  0.4780
  348TIP3    H225240   2.054   0.740   0.387  0.4415 -0.3603 -0.6305
  349TIP3   OH225241   0.668   2.457   9.724  0.4873  0.0506 -0.1729
  349TIP3    H125242   0.729   2.411   9.781 -0.8179 -1.6597 -0.0949
  349TIP3    H225243   0.593   2.478   9.780  0.5752  1.2979 -0.4869
  350TIP3   OH225244   2.551   4.616   9.389  0.2385  0.3615  0.0809
  350TIP3    H125245   2.495   4.645   9.461 -1.2193 -1.2520 -0.3281
  350TIP3    H225246   2.491   4.602   9.316  1.4763  0.4767 -0.9914
  351TIP3   OH225247   4.091   0.430   0.400 -0.1477  0.4435 -0.5385
  351TIP3    H125248   4.147   0.482   0.342 -0.5399  1.2355 -0.2260
  351TIP3    H225249   4.149   0.361   0.433  1.0587  1.9753  0.7837
  352TIP3   OH225250   1.368   0.215   1.062 -0.0057  0.4728 -0.2322
  352TIP3    H125251   1.433   0.191   0.996 -1.1463 -0.2804 -1.1181
  352TIP3    H225252   1.297   0.256   1.012 -0.2068  1.3460  0.7244
  353TIP3   OH225253   2.043   6.852   6.936  0.3169 -0.7674 -0.0133
  353TIP3    H125254   2.001   6.930   6.899  2.0496  0.6132  0.7906
  353TIP3    H225255   2.081   6.807   6.861 -0.2463 -0.5833 -0.4208
  354TIP3   OH225256   0.474   0.323   9.820  0.2634 -0.4941 -0.5341
  354TIP3    H125257   0.491   0.270   9.742  0.3076  1.3082 -1.8037
  354TIP3    H225258   0.553   0.376   9.831 -0.3642  0.4062 -0.2215
  355TIP3   OH225259   1.974   5.863   0.493 -0.6898 -0.8363 -0.4371
  355TIP3    H125260   1.953   5.824   0.408 -0.7640  1.4686 -1.5571
  355TIP3    H225261   1.891   5.861   0.541 -0.8572 -1.3637 -0.7326
  356TIP3   OH225262   2.543   3.725   6.546  0.5196  0.1643  0.1983
  356TIP3    H125263   2.451   3.729   6.571  0.3314  0.9965 -0.5525
  356TIP3    H225264   2.569   3.817   6.538  0.7015 -0.0144 -2.0324
  357TIP3   OH225265   5.378   5.775   9.561 -0.3234  0.2903  0.0320
  357TIP3    H125266   5.401   5.791   9.469 -1.3814 -2.1891 -0.7400
  357TIP3    H225267   5.306   5.712   9.558 -1.8534  1.7242  2.5576
  358TIP3   OH225268   5.380   2.087   9.504  0.2819 -0.4838 -0.0388
  358TIP3    H125269   5.395   2.144   9.580  0.5157 -0.2161 -0.2840
  358TIP3    H225270   5.442   2.015   9.516  0.9413  0.0047 -0.4224
  359TIP3   OH225271   2.664   6.384   6.586 -0.1577 -0.3238  0.2195
  359TIP3    H125272   2.742   6.329   6.583 -0.7121 -1.1005 -1.6363
  359TIP3    H225273   2.697   6.472   6.602  1.3341 -0.3522 -2.1319
  360TIP3   OH225274   2.560   0.224   8.706  0.4054 -0.1493 -0.1358
  360TIP3    H125275   2.609   0.244   8.786 -0.5553  3.6928 -0.3069
  360TIP3    H225276   2.468   0.223   8.735  0.2131 -2.1457 -0.6872
  361TIP3   OH225277   0.692   0.694   8.434 -0.0181 -0.0154  0.4029
  361TIP3    H125278   0.624   0.762   8.442 -0.5810 -0.6307  0.9331
  361TIP3    H225279   0.744   0.722   8.359  0.0205  1.2316  0.8743
  362TIP3   OH225280   1.710   0.705   7.742  0.3025  0.2616 -0.1707
  362TIP3    H125281   1.768   0.774   7.708  2.2030 -0.8547  0.6403
  362TIP3    H225282   1.769   0.636   7.771 -1.2206  0.2323  3.4613
  363TIP3   OH225283   1.108   6.731   9.847  0.1378  0.3790  0.0806
  363TIP3    H125284   1.065   6.683   9.776  0.3639  0.9133 -0.4232
  363TIP3    H225285   1.193   6.756   9.812  0.2397  0.6830  0.5285
  364TIP3   OH225286   3.839   6.553   7.338 -0.4646 -0.0299 -0.4311
  364TIP3    H125287   3.911   6.490   7.343  0.5063  1.0257 -0.6237
  364TIP3    H225288   3.773   6.519   7.398  0.8798 -0.1817  1.0343
  365TIP3   OH225289   4.212   3.157   0.313 -0.1445 -0.8407 -0.0443
  365TIP3    H125290   4.254   3.239   0.287 -0.2773 -0.6452  0.3554
  365TIP3    H225291   4.118   3.174   0.304 -0.2099 -2.1515 -3.7441
  366TIP3   OH225292   3.181   2.912   9.040  0.3359 -0.4094 -0.2045
  366TIP3    H125293   3.229   2.986   9.002  1.0340  0.2010  1.7057
  366TIP3    H225294   3.226   2.835   9.007  3.0735  0.1317  1.8167
  367TIP3   OH225295   1.126   7.130   7.783 -0.2049 -0.6772 -0.4437
  367TIP3    H125296   1.174   7.082   7.850  0.4760  1.4289  0.6666
  367TIP3    H225297   1.036   7.132   7.814  0.2267  0.8834  0.8512
  368TIP3   OH225298   7.301   4.826   9.083  0.6848 -0.7080  0.2328
  368TIP3    H125299   7.307   4.788   8.996  0.2426 -0.7949  0.2398
  368TIP3    H225300   7.387   4.867   9.097  0.6014 -0.3042 -0.4176
  369TIP3   OH225301   4.210   4.981   0.944  0.2358 -0.1370 -0.3411
  369TIP3    H125302   4.178   4.945   0.861  1.3302  1.3172 -1.4560
  369TIP3    H225303   4.140   5.037   0.975 -0.7254 -1.7086  0.4565
  370TIP3   OH225304   3.056   2.691   7.041  0.1071 -0.2291  0.0055
  370TIP3    H125305   3.050   2.676   6.947 -1.1807 -0.9546  0.1817
  370TIP3    H225306   3.150   2.698   7.058  0.3592  0.0275 -1.3408
  371TIP3   OH225307   1.120   6.503   8.315 -0.4833 -0.3816 -0.1514
  371TIP3    H125308   1.198   6.448   8.311  0.0711  0.2567  1.2718
  371TIP3    H225309   1.092   6.510   8.223  0.5803 -1.3785 -0.5837
  372TIP3   OH225310   7.314   0.771   0.388 -0.4082 -0.4876  0.2412
  372TIP3    H125311   7.352   0.793   0.303 -0.1255  3.1977  1.1640
  372TIP3    H225312   7.229   0.815   0.388 -0.3089 -0.2530  1.9204
  373TIP3   OH225313   5.966   0.311   0.802 -0.5610 -0.5333  0.0403
  373TIP3    H125314   6.007   0.392   0.772  2.4204 -0.8162  2.8566
  373TIP3    H225315   5.877   0.338   0.826  0.1736  1.8031  0.4214
  374TIP3   OH225316   3.581   0.097   7.468 -0.2861  0.8761  0.3427
  374TIP3    H125317   3.649   0.099   7.401  0.7398  1.0570  1.3588
  374TIP3    H225318   3.544   0.185   7.467  0.0423  1.0146  0.3317
  375TIP3   OH225319   5.924   7.001   9.732  0.4296 -0.4725  0.6259
  375TIP3    H125320   5.889   6.917   9.761  0.5407 -0.1239  1.7961
  375TIP3    H225321   5.897   7.063   9.800 -0.2065  0.5749 -0.5374
  376TIP3   OH225322   1.346   4.204   8.367 -0.3734  0.1936  0.4171
  376TIP3    H125323   1.303   4.234   8.287  1.1782  2.8220  0.4637
  376TIP3    H225324   1.438   4.224   8.353  0.4383 -2.2355  1.6435
  377TIP3   OH225325   5.847   2.602   1.930 -1.1203  0.3742  0.0483
  377TIP3    H125326   5.892   2.681   1.958 -1.0911  0.1919  0.5261
  377TIP3    H225327   5.892   2.575   1.849 -0.1838  0.0369  0.6700
  378TIP3   OH225328   2.958   3.939   6.534  0.5847 -0.3122 -0.1029
  378TIP3    H125329   2.936   3.846   6.528 -1.5458  0.0473  1.1240
  378TIP3    H225330   2.925   3.977   6.453  0.0417 -0.3891  0.0782
  379TIP3   OH225331   3.907   3.547   9.751 -0.3022 -0.2943  0.1095
  379TIP3    H125332   3.843   3.528   9.682 -0.2999 -0.7722  0.2399
  379TIP3    H225333   3.865   3.617   9.802 -1.3435 -1.5416  1.0209
  380TIP3   OH225334   2.350   3.098   8.766  0.3246 -0.1068 -0.1018
  380TIP3    H125335   2.382   3.178   8.808  1.5770 -0.4039 -0.4447
  380TIP3    H225336   2.255   3.101   8.778  0.4266  1.0289  0.5878
  381TIP3   OH225337   6.862   5.484   7.672  0.3475 -0.5591  0.2531
  381TIP3    H125338   6.792   5.435   7.716 -0.6658  0.5744 -0.0288
  381TIP3    H225339   6.862   5.450   7.583 -0.3118 -0.1194  0.0739
  382TIP3   OH225340   2.550   6.793   1.961  0.6499 -0.1952 -0.0631
  382TIP3    H125341   2.521   6.767   1.873  0.2199  0.1222 -0.0184
  382TIP3    H225342   2.539   6.714   2.014  0.0442 -0.1432 -0.0955
  383TIP3   OH225343   6.644   7.127   1.575 -0.2721 -0.0381 -0.9398
  383TIP3    H125344   6.696   7.189   1.626  0.6773 -0.4236 -1.4066
  383TIP3    H225345   6.686   7.126   1.489 -0.0427 -1.5771 -0.8374
  384TIP3   OH225346   5.252   6.824   9.497  0.0805 -0.0523  0.7603
  384TIP3    H125347   5.175   6.768   9.498 -1.5244  2.0297  2.5150
  384TIP3    H225348   5.272   6.836   9.404 -0.4294 -2.1845  0.3024
  385TIP3   OH225349   2.689   6.434   0.442  0.0146 -0.4379  0.1615
  385TIP3    H125350   2.673   6.342   0.462 -0.1904 -0.0145  2.0725
  385TIP3    H225351   2.652   6.445   0.354 -0.2115 -2.1046  0.0103
  386TIP3   OH225352   0.093   1.175   8.354 -0.1988  0.0926 -0.8305
  386TIP3    H125353   0.145   1.094   8.351  1.0165  0.8319 -0.5838
  386TIP3    H225354   0.005   1.146   8.380  1.1259 -0.7845  3.5257
  387TIP3   OH225355   3.472   4.954   7.938  0.1196  0.3489 -0.2594
  387TIP3    H125356   3.378   4.956   7.921 -0.0737 -1.5863  0.3721
  387TIP3    H225357   3.507   4.891   7.875  0.6159 -0.6922  1.0168
  388TIP3   OH225358   5.831   1.384   8.303 -0.2320  0.8691 -0.0632
  388TIP3    H125359   5.785   1.395   8.220 -0.5296 -2.1851 -0.4277
  388TIP3    H225360   5.887   1.461   8.311  0.3824  0.8951 -3.4857
  389TIP3   OH225361   2.198   3.734   0.528  0.1072 -0.0337 -0.0314
  389TIP3    H125362   2.213   3.807   0.467  1.8267 -0.4297 -0.1187
  389TIP3    H225363   2.260   3.667   0.501 -0.7017 -1.1235  0.7389
  390TIP3   OH225364   1.130   1.904   0.887 -0.7578 -0.1887  0.0265
  390TIP3    H125365   1.045   1.946   0.901 -0.3097  0.6510  0.3507
  390TIP3    H225366   1.112   1.830   0.829 -1.9619 -0.9863  1.3498
  391TIP3   OH225367   1.522   4.418   2.442 -0.5724  0.5849 -0.1626
  391TIP3    H125368   1.544   4.426   2.535  0.2136  3.7179 -0.4883
  391TIP3    H225369   1.427   4.411   2.440 -0.6578  1.2333  0.8756
  392TIP3   OH225370   5.028   1.569   0.628  0.0090 -0.0277 -0.4776
  392TIP3    H125371   5.008   1.509   0.556 -0.0643 -1.4535  0.6966
  392TIP3    H225372   5.054   1.650   0.584  0.4393 -0.9996 -2.1281
  393TIP3   OH225373   3.006   4.809   7.554 -0.2780  0.6702  0.4266
  393TIP3    H125374   3.065   4.797   7.628  0.8524  0.0434 -0.5474
  393TIP3    H225375   3.024   4.735   7.496 -1.1315  1.1516 -0.4899
  394TIP3   OH225376   2.064   0.786   8.842 -0.0127 -0.2864 -0.4609
  394TIP3    H125377   1.986   0.744   8.878 -0.1242 -0.2446 -0.6521
  394TIP3    H225378   2.086   0.855   8.906  0.7826 -1.2922  0.3841
  395TIP3   OH225379   6.045   1.130   8.744  0.4825 -0.1612 -0.8668
  395TIP3    H125380   6.020   1.221   8.725  1.5204  0.6518  1.2030
  395TIP3    H225381   6.132   1.138   8.783 -0.2414 -1.8174  1.2806
  396TIP3   OH225382   3.963   2.797   9.920  0.0043 -0.1192  0.2924
  396TIP3    H125383   3.997   2.736   9.986 -0.1271  1.2586  1.6900
  396TIP3    H225384   3.872   2.811   9.945  0.8851  3.2988  2.2115
  397TIP3   OH225385   6.051   4.306   7.566  0.0554 -0.0399  0.0150
  397TIP3    H125386   5.968   4.355   7.567  0.3956  0.5654 -0.5102
  397TIP3    H225387   6.099   4.342   7.491 -0.1112 -1.9133 -1.0596
  398TIP3   OH225388   5.346   5.736   1.086  0.3256 -0.0218  0.0807
  398TIP3    H125389   5.360   5.757   1.178  0.1548  0.5132 -0.0156
  398TIP3    H225390   5.428   5.758   1.043  0.0167  0.8335 -0.0844
  399TIP3   OH225391   6.209   2.773   1.743  0.2161 -0.6417 -0.2989
  399TIP3    H125392   6.262   2.787   1.664 -1.9060 -0.2920 -1.7331
  399TIP3    H225393   6.206   2.677   1.753  0.4206 -0.6924 -0.7054
  400TIP3   OH225394   3.012   5.792   6.932 -0.0490  0.1915  0.4371
  400TIP3    H125395   2.936   5.835   6.970 -0.0733 -0.3872  1.0716
  400TIP3    H225396   3.084   5.854   6.945 -0.2252  0.3451  0.6944
  401TIP3   OH225397   3.655   2.706   8.783  0.6127 -0.7620  0.1770
  401TIP3    H125398   3.729   2.701   8.843 -0.2607 -2.1985  1.2081
  401TIP3    H225399   3.667   2.632   8.723  0.1806 -0.8230  0.1595
  402TIP3   OH225400   3.635   2.884   7.215  0.0286 -0.3522  0.2034
  402TIP3    H125401   3.609   2.969   7.250 -3.2285  0.3783 -3.3990
  402TIP3    H225402   3.563   2.825   7.237  0.1604 -1.0340 -1.0901
  403TIP3   OH225403   2.328   2.364   0.470 -0.5156  0.1074 -0.1867
  403TIP3    H125404   2.390   2.404   0.409  0.4890 -0.3351  0.5221
  403TIP3    H225405   2.367   2.279   0.492 -0.9412  0.1934  0.9453
  404TIP3   OH225406   6.358   1.303   8.203  0.7043 -0.7606 -0.1758
  404TIP3    H125407   6.291   1.371   8.193  2.6539  1.3337  0.0471
  404TIP3    H225408   6.430   1.332   8.146  1.2051 -3.2845 -0.9584
  405TIP3   OH225409   2.249   6.024   0.853 -0.3878  0.7307  0.4462
  405TIP3    H125410   2.201   5.944   0.829  0.9888 -0.2226  0.7718
  405TIP3    H225411   2.230   6.085   0.782 -0.6950 -0.2218 -0.3133
  406TIP3   OH225412   2.190   3.285   7.638  0.0901 -0.0583  0.3447
  406TIP3    H125413   2.261   3.309   7.698 -0.3082 -0.5578  1.0160
  406TIP3    H225414   2.201   3.345   7.564  0.8775  0.2405  0.6923
  407TIP3   OH225415   7.111   4.416   8.955  0.4006 -0.0019  0.5662
  407TIP3    H125416   7.174   4.446   8.889  0.7325 -1.8720 -0.0085
  407TIP3    H225417   7.166   4.376   9.023 -0.0849 -0.2325  0.8217
  408TIP3   OH225418   5.629   7.088   7.570 -0.0112  0.7543 -0.2351
  408TIP3    H125419   5.644   7.009   7.519 -1.8962  0.5517 -0.5433
  408TIP3    H225420   5.675   7.073   7.652 -1.4773 -1.3010  0.2815
  409TIP3   OH225421   5.361   5.536   1.823  1.4416 -0.3855 -0.6557
  409TIP3    H125422   5.405   5.452   1.822 -0.3055 -1.3542 -2.3623
  409TIP3    H225423   5.342   5.553   1.915  0.2522 -2.7432 -0.4160
  410TIP3   OH225424   0.989   0.602   9.875  0.0007  0.0599  0.0033
  410TIP3    H125425   0.971   0.508   9.878  0.7603 -0.0901  0.1094
  410TIP3    H225426   1.034   0.615   9.791 -0.3727  0.3853 -0.1515
  411TIP3   OH225427   2.097   0.538   9.678 -0.0327 -0.2204 -0.3605
  411TIP3    H125428   2.150   0.526   9.599 -2.5220  0.3369 -2.1962
  411TIP3    H225429   2.046   0.457   9.685 -0.3988  0.0563  0.2417
  412TIP3   OH225430   0.326   0.178   2.312 -0.0268  0.1371 -0.3486
  412TIP3    H125431   0.408   0.130   2.325 -0.2963  0.0428  1.1811
  412TIP3    H225432   0.259   0.110   2.303 -0.3210  0.1843  1.2203
  413TIP3   OH225433   5.466   2.592   9.041  0.9734 -0.3804 -0.1100
  413TIP3    H125434   5.450   2.583   9.135 -1.0145  0.9702 -0.2447
  413TIP3    H225435   5.458   2.503   9.007 -0.6773 -0.6022  0.7259
  414TIP3   OH225436   1.734   5.790   9.958 -0.3614  0.0761  0.5704
  414TIP3    H125437   1.684   5.869   9.980 -0.9440  0.0872 -0.6956
  414TIP3    H225438   1.669   5.720   9.958  0.0963 -0.3704  1.3717
  415TIP3   OH225439   4.007   4.166   1.534 -0.1102  0.0502  0.1605
  415TIP3    H125440   4.004   4.072   1.555 -0.1805 -0.2119 -0.9611
  415TIP3    H225441   4.020   4.209   1.619 -1.4646 -0.8835  0.8933
  416TIP3   OH225442   6.269   4.475   8.142 -0.3299  0.0165 -0.0598
  416TIP3    H125443   6.347   4.419   8.143 -0.2490  0.0483 -1.5662
  416TIP3    H225444   6.297   4.557   8.181  1.2234  0.9779 -2.8678
  417TIP3   OH225445   0.959   7.278   8.742 -0.3550 -0.1979 -0.6152
  417TIP3    H125446   1.017   7.322   8.804 -1.2710  1.9488 -1.1818
  417TIP3    H225447   1.016   7.254   8.669  0.0088  1.1947 -0.8263
  418TIP3   OH225448   6.381   2.105   8.759 -0.7285  0.5187 -0.0138
  418TIP3    H125449   6.352   2.122   8.848 -0.1793 -1.9725  0.7135
  418TIP3    H225450   6.318   2.041   8.725  0.2266 -0.0757 -0.6958
  419TIP3   OH225451   7.216   0.395   7.507  0.1670  0.5493 -0.3163
  419TIP3    H125452   7.286   0.458   7.491  0.2649  1.3821  2.7192
  419TIP3    H225453   7.135   0.446   7.496  0.2330  1.1100  1.4251
  420TIP3   OH225454   0.884   4.321   7.519 -0.1704  0.4033 -0.6901
  420TIP3    H125455   0.961   4.266   7.505  0.2803 -0.0921  2.7667
  420TIP3    H225456   0.820   4.263   7.561 -0.8398  1.7399  0.2222
  421TIP3   OH225457   0.467   0.402   2.241  0.0513  0.3091 -0.4586
  421TIP3    H125458   0.548   0.352   2.238 -0.5900 -0.8263  0.1044
  421TIP3    H225459   0.405   0.344   2.286 -0.0937  2.5565  2.5897
  422TIP3   OH225460   2.398   5.769   9.730  0.3343  0.1247 -0.1986
  422TIP3    H125461   2.481   5.722   9.717  0.6250  0.2568  1.0442
  422TIP3    H225462   2.340   5.704   9.769 -0.0952  0.0905 -0.8824
  423TIP3   OH225463   1.256   4.694   8.164  0.3250  0.0842 -0.1559
  423TIP3    H125464   1.347   4.686   8.136  0.1638  1.3843 -1.1384
  423TIP3    H225465   1.251   4.641   8.244  1.0797 -2.8281 -1.8635
  424TIP3   OH225466   3.567   7.069   9.804 -0.7078 -0.1944  0.6718
  424TIP3    H125467   3.498   7.026   9.854  1.6214 -2.4439  2.1818
  424TIP3    H225468   3.566   7.026   9.719  0.4880 -2.2547  1.6089
  425TIP3   OH225469   6.046   1.056   0.230  0.2024  0.0510 -0.6372
  425TIP3    H125470   6.044   1.083   0.138 -0.8418 -0.8934 -0.9150
  425TIP3    H225471   6.136   1.028   0.246  1.4394  3.6455 -0.2978
  426TIP3   OH225472   2.867   5.669   1.004 -0.4514  0.0262  0.1462
  426TIP3    H125473   2.859   5.595   1.064  0.6266 -0.1859  0.0502
  426TIP3    H225474   2.947   5.713   1.030 -0.9368  1.0157  0.0228
  427TIP3   OH225475   2.713   7.193   0.629 -0.2235  0.2303  0.2018
  427TIP3    H125476   2.728   7.101   0.610 -0.2797 -0.2111  2.0689
  427TIP3    H225477   2.801   7.231   0.636 -0.1983  0.2894 -0.4188
  428TIP3   OH225478   6.920   5.335   8.989 -0.1047 -0.0750 -0.6893
  428TIP3    H125479   6.914   5.288   8.905  0.9199 -0.3407 -0.6255
  428TIP3    H225480   6.832   5.326   9.027 -0.0778 -1.5645 -0.8927
  429TIP3   OH225481   3.106   5.960   0.515  0.2314  0.2458 -0.5381
  429TIP3    H125482   3.032   6.001   0.469 -0.4330 -0.0446  0.2566
  429TIP3    H225483   3.124   6.018   0.588 -1.3526 -1.2896  1.1791
  430TIP3   OH225484   3.952   3.123   8.972  0.1087 -0.1452  0.4805
  430TIP3    H125485   3.958   3.072   9.052  0.6138 -2.0323 -0.7003
  430TIP3    H225486   4.039   3.118   8.933 -0.3909 -0.1308 -0.6802
  431TIP3   OH225487   5.142   0.881   2.028  0.6958  0.4436  0.5794
  431TIP3    H125488   5.172   0.938   1.957 -0.2481  0.3950  0.1219
  431TIP3    H225489   5.222   0.839   2.060  1.2499  1.1281  0.1376
  432TIP3   OH225490   6.807   1.663   2.196  0.3314 -0.1019 -0.2023
  432TIP3    H125491   6.791   1.638   2.287 -2.9361 -0.6627 -0.8100
  432TIP3    H225492   6.763   1.748   2.186  0.8268  0.0531 -1.2411
  433TIP3   OH225493   2.577   4.579   7.279  0.6210 -0.4245 -0.3043
  433TIP3    H125494   2.550   4.652   7.336  1.6638  0.2105 -0.6020
  433TIP3    H225495   2.544   4.501   7.324  0.7666  0.1211  0.7938
  434TIP3   OH225496   6.727   2.107   0.685  0.2065  0.1396  0.0408
  434TIP3    H125497   6.696   2.092   0.774 -1.8932  1.5108 -0.3937
  434TIP3    H225498   6.764   2.023   0.658  1.9563 -0.0060  2.5372
  435TIP3   OH225499   3.054   0.447   2.607 -0.1346  0.4998  0.1123
  435TIP3    H125500   3.133   0.449   2.553  0.1972  0.3225  0.5881
  435TIP3    H225501   3.070   0.377   2.671 -0.5822  0.6124  0.3532
  436TIP3   OH225502   6.911   2.855   7.795  0.0053  0.0490 -0.5527
  436TIP3    H125503   6.965   2.928   7.765 -0.8615  0.8046 -0.3241
  436TIP3    H225504   6.834   2.856   7.738 -1.5950  1.4059  1.4821
  437TIP3   OH225505   4.466   7.484   9.073  0.1114  0.1615  0.8403
  437TIP3    H125506   4.384   7.435   9.073  0.7045 -0.8515  0.7825
  437TIP3    H225507   4.531   7.423   9.107  1.0003  0.6913  0.1408
  438TIP3   OH225508   4.935   0.864   2.289  0.1132 -0.8620 -0.0290
  438TIP3    H125509   4.961   0.815   2.367 -0.3340  1.4065  1.6606
  438TIP3    H225510   5.014   0.913   2.264 -0.2544 -0.1811  0.1313
  439TIP3   OH225511   2.008   0.092   2.979  0.3467 -0.3450  0.1782
  439TIP3    H125512   1.913   0.081   2.972  0.1893 -1.4542  2.9835
  439TIP3    H225513   2.043   0.031   2.914 -0.8791 -2.5131  1.4271
  440TIP3   OH225514   5.970   4.277   0.499 -0.0020  0.0185  0.1990
  440TIP3    H125515   6.030   4.347   0.473 -0.7352  0.6479  0.1894
  440TIP3    H225516   5.938   4.304   0.585 -0.1147 -0.4244  0.3001
  441TIP3   OH225517   5.346   4.180   8.585  0.5424 -0.1685 -0.4174
  441TIP3    H125518   5.318   4.262   8.544  0.1562 -0.3124 -0.4473
  441TIP3    H225519   5.341   4.115   8.515 -0.2128 -0.4346 -0.1299
  442TIP3   OH225520   7.317   6.680   0.084 -0.1083  0.1041 -0.4097
  442TIP3    H125521   7.319   6.708   0.175 -0.3457  0.2775 -0.4558
  442TIP3    H225522   7.248   6.613   0.080 -1.1235  1.1282 -0.7397
  443TIP3   OH225523   5.420   6.431   0.315 -0.0640  0.0436 -0.3251
  443TIP3    H125524   5.378   6.427   0.230 -1.3809 -0.5810  0.3283
  443TIP3    H225525   5.367   6.375   0.371  0.6427  0.6082  0.9635
  444TIP3   OH225526   4.788   2.505   8.383  0.6005  0.0990  0.7563
  444TIP3    H125527   4.794   2.501   8.287 -0.2721 -0.3990  0.7165
  444TIP3    H225528   4.769   2.415   8.410 -0.1308  0.4154  1.3241
  445TIP3   OH225529   5.947   0.695   7.748  0.2982 -0.0647  0.1561
  445TIP3    H125530   5.903   0.756   7.690  1.2931  0.0672 -0.4913
  445TIP3    H225531   5.890   0.689   7.825 -1.0585 -0.2505 -0.8196
  446TIP3   OH225532   1.718   2.963   2.599  0.7530 -0.3757 -0.0760
  446TIP3    H125533   1.805   2.997   2.576  0.5387 -1.0838 -2.2130
  446TIP3    H225534   1.658   3.035   2.582  0.7389 -0.4836 -0.5021
  447TIP3   OH225535   7.109   2.467   1.687  0.6719 -0.2400 -0.7568
  447TIP3    H125536   7.071   2.446   1.772  0.8885 -0.5249 -0.7298
  447TIP3    H225537   7.037   2.461   1.625  1.2279 -3.9305 -1.2343
  448TIP3   OH225538   7.383   4.250   9.805 -0.1624 -0.2168  0.4716
  448TIP3    H125539   7.363   4.197   9.727  1.9238 -1.0177  0.4146
  448TIP3    H225540   7.322   4.218   9.872 -0.0027 -1.6114 -0.0142
  449TIP3   OH225541   6.247   7.353   7.665  0.4053  0.1660 -0.6502
  449TIP3    H125542   6.189   7.304   7.607  0.8554 -0.6774 -0.4111
  449TIP3    H225543   6.291   7.285   7.717  0.1645  0.8953  0.5250
  450TIP3   OH225544   4.544   4.140   9.477 -0.0292  0.0789 -0.7659
  450TIP3    H125545   4.563   4.053   9.512  0.5388  0.2679 -0.5849
  450TIP3    H225546   4.450   4.138   9.458 -0.4932  0.1449  1.2560
  451TIP3   OH225547   6.563   2.868   9.643 -0.1291  0.0061 -0.3194
  451TIP3    H125548   6.633   2.899   9.700  0.7096 -1.8845 -0.2258
  451TIP3    H225549   6.588   2.896   9.555 -0.2423  0.9628 -0.0497
  452TIP3   OH225550   3.347   0.459   8.701  0.1299  0.2604  0.3289
  452TIP3    H125551   3.402   0.405   8.643 -0.6708 -0.0531 -0.1529
  452TIP3    H225552   3.330   0.539   8.651  0.3458  0.4633  0.5765
  453TIP3   OH225553   5.059   5.189   0.935  0.1467 -0.0524 -0.0151
  453TIP3    H125554   5.118   5.254   0.897  0.9859  0.0795  1.4461
  453TIP3    H225555   5.002   5.240   0.994  1.1431 -0.6557  1.5296
  454TIP3   OH225556   1.633   0.824   2.869 -0.0928  0.1345  0.1533
  454TIP3    H125557   1.585   0.790   2.793  1.5931 -0.0285 -0.9089
  454TIP3    H225558   1.616   0.762   2.939 -2.1941  0.6173  0.1224
  455TIP3   OH225559   4.623   0.061   0.121 -0.0901  0.1273  0.0180
  455TIP3    H125560   4.694   0.124   0.108  0.0446 -0.1840 -0.8321
  455TIP3    H225561   4.666  -0.025   0.118 -0.5839 -0.1101 -1.4034
  456TIP3   OH225562   6.496   1.510   0.794  0.3450 -0.4080 -0.0392
  456TIP3    H125563   6.459   1.596   0.817  0.7412 -0.5951  1.3713
  456TIP3    H225564   6.534   1.478   0.875  2.0488 -1.0201 -1.0285
  457TIP3   OH225565   0.121   6.599   9.770 -0.6832  0.4944  0.5745
  457TIP3    H125566   0.082   6.528   9.719 -0.2240  0.4425  0.2884
  457TIP3    H225567   0.093   6.679   9.726  1.8787  0.4175 -1.4391
  458TIP3   OH225568   2.830   4.439   1.770  0.1301  0.1996 -0.3869
  458TIP3    H125569   2.811   4.532   1.782 -0.0838 -0.0144  1.1807
  458TIP3    H225570   2.804   4.399   1.853 -3.3700 -1.8703 -2.2656
  459TIP3   OH225571   4.434   1.245   0.979  0.9025  0.4829 -0.1196
  459TIP3    H125572   4.397   1.185   1.044  0.8902  1.1528  0.5151
  459TIP3    H225573   4.359   1.276   0.929  0.7119  1.0614  0.5001
  460TIP3   OH225574   2.721   2.014   6.842  0.6552  0.1879 -0.2346
  460TIP3    H125575   2.778   1.970   6.904 -0.5054 -0.3082  0.5127
  460TIP3    H225576   2.633   1.981   6.862 -0.0553  1.7559 -0.6124
  461TIP3   OH225577   6.163   6.137   0.238  0.0644 -0.0491 -0.2882
  461TIP3    H125578   6.091   6.164   0.296 -0.0758  0.8432 -0.8710
  461TIP3    H225579   6.119   6.104   0.160  0.2836 -0.0466 -0.4107
  462TIP3   OH225580   1.745   6.090   2.449  0.3174 -0.6180 -0.0672
  462TIP3    H125581   1.760   6.000   2.421  0.5861 -0.6402  0.1468
  462TIP3    H225582   1.651   6.095   2.466  0.0988 -0.5522 -1.1763
  463TIP3   OH225583   4.840   7.183   8.810  0.1379  0.5835 -0.6209
  463TIP3    H125584   4.858   7.190   8.716 -1.6357  2.5398 -0.8992
  463TIP3    H225585   4.918   7.218   8.852  1.1133 -0.6726 -1.3170
  464TIP3   OH225586   3.822   2.634   1.980  0.4135 -1.1486  0.0547
  464TIP3    H125587   3.739   2.618   2.025 -0.1972 -0.6286 -0.8452
  464TIP3    H225588   3.796   2.669   1.895  1.5728 -0.3340  0.0146
  465TIP3   OH225589   1.979   0.987   0.230  0.2071 -0.0347 -0.6535
  465TIP3    H125590   1.942   1.049   0.293  0.9871 -1.1864  1.0316
  465TIP3    H225591   1.906   0.963   0.173 -1.1789 -0.7996  1.3585
  466TIP3   OH225592   4.528   1.593   8.347 -0.2497  0.3712 -0.0241
  466TIP3    H125593   4.557   1.512   8.389  2.1893  0.6699 -0.9445
  466TIP3    H225594   4.433   1.588   8.348 -0.2183 -1.3054  2.2014
  467TIP3   OH225595   3.826   5.085   9.628  0.1307 -0.7218 -0.2820
  467TIP3    H125596   3.803   5.171   9.665 -2.8790 -0.4730 -2.3306
  467TIP3    H225597   3.860   5.035   9.702  2.8104  2.4233  0.8389
  468TIP3   OH225598   3.785   1.654   2.043 -0.1298  0.3174  0.0446
  468TIP3    H125599   3.772   1.560   2.028 -1.1762  0.4696 -0.0885
  468TIP3    H225600   3.850   1.680   1.977  0.5089 -0.3999  0.3884
  469TIP3   OH225601   2.511   0.459   1.662 -0.2819  0.9691 -0.0828
  469TIP3    H125602   2.548   0.511   1.591 -0.1226  0.2393 -0.5491
  469TIP3    H225603   2.483   0.523   1.727 -1.8165  1.7714 -1.4585
  470TIP3   OH225604   4.953   3.490   8.040 -0.4984  0.4885 -0.7818
  470TIP3    H125605   5.047   3.472   8.035 -0.6581 -0.8288  0.4015
  470TIP3    H225606   4.938   3.554   7.971  1.3177  0.9575 -0.8055
  471TIP3   OH225607   0.779   4.311   0.444  0.6832  0.2436  0.3967
  471TIP3    H125608   0.854   4.358   0.481 -0.3052  0.4861  2.2689
  471TIP3    H225609   0.800   4.219   0.457  1.7300  0.1892 -1.4112
  472TIP3   OH225610   3.265   3.345   2.830 -0.1751 -1.0052  0.3012
  472TIP3    H125611   3.317   3.277   2.787  2.8645  1.4863 -0.2849
  472TIP3    H225612   3.275   3.326   2.924  1.3528 -0.9242  0.1776
  473TIP3   OH225613   2.667   2.321   8.240  0.2821  0.9819 -0.4536
  473TIP3    H125614   2.701   2.404   8.207 -0.3320  1.1751 -0.6123
  473TIP3    H225615   2.627   2.343   8.324  1.7165  0.5169  0.4004
  474TIP3   OH225616   0.674   0.371   1.773  0.4709  0.1178  0.2156
  474TIP3    H125617   0.603   0.331   1.723  0.2855  0.2623  0.3605
  474TIP3    H225618   0.647   0.462   1.785 -1.1621 -0.6482  3.4615
  475TIP3   OH225619   4.037   7.304   0.582  0.4420  0.0921  0.4555
  475TIP3    H125620   4.060   7.358   0.506 -1.2870  1.4724  0.8350
  475TIP3    H225621   4.099   7.330   0.650  2.8878 -2.1207 -0.7694
  476TIP3   OH225622   2.752   6.034   9.731 -0.2184  0.3383  0.3311
  476TIP3    H125623   2.840   6.052   9.699 -0.8565  0.2481 -1.6076
  476TIP3    H225624   2.759   5.949   9.774  0.6124  0.2820  0.1015
  477TIP3   OH225625   5.954   0.001   1.304  0.3958  0.4695 -0.2836
  477TIP3    H125626   5.971   0.023   1.213  0.1836  0.6958 -0.2726
  477TIP3    H225627   5.995  -0.084   1.317  2.8699  1.6357  0.1542
  478TIP3   OH225628   6.030   3.245   1.171  0.0690 -0.2558 -0.1740
  478TIP3    H125629   6.062   3.329   1.137  1.3854 -0.7163 -0.1338
  478TIP3    H225630   6.001   3.265   1.260 -1.4195  0.5234 -0.7900
  479TIP3   OH225631   4.819   5.591   0.727 -0.5150  0.2065 -0.1142
  479TIP3    H125632   4.728   5.580   0.698 -0.3926 -0.4281 -0.2564
  479TIP3    H225633   4.844   5.677   0.693 -0.4428 -0.4114 -1.6941
  480TIP3   OH225634   5.707   3.892   0.836 -0.0062  0.1215  0.5786
  480TIP3    H125635   5.673   3.912   0.923  0.4382 -0.9947  1.0386
  480TIP3    H225636   5.794   3.932   0.835  1.0527 -1.9720  1.6489
  481TIP3   OH225637   6.193   0.139   0.291  0.1766 -0.3127 -0.0789
  481TIP3    H125638   6.225   0.083   0.220  2.0597 -0.8361  1.0961
  481TIP3    H225639   6.239   0.222   0.278  0.9624 -0.5922  0.8122
  482TIP3   OH225640   2.274   0.504   2.702 -0.1016  0.2525 -0.0425
  482TIP3    H125641   2.330   0.515   2.625 -0.7190  0.6488 -0.4420
  482TIP3    H225642   2.309   0.567   2.765 -0.0712  0.4743 -0.2775
  483TIP3   OH225643   4.462   6.431   3.320  0.1990 -0.5673  0.6601
  483TIP3    H125644   4.442   6.431   3.226  0.8078 -0.5317  0.5217
  483TIP3    H225645   4.536   6.370   3.328 -0.1619 -0.9333  1.1866
  484TIP3   OH225646   3.278   1.288   1.573 -0.0380  0.1797  1.0191
  484TIP3    H125647   3.314   1.201   1.555 -0.6780  0.4117 -1.9718
  484TIP3    H225648   3.324   1.346   1.513 -1.5886  1.3999  0.9284
  485TIP3   OH225649   2.984   3.812   7.139  0.5687 -0.3082 -0.0866
  485TIP3    H125650   3.041   3.889   7.138  2.2135 -1.4764 -0.8683
  485TIP3    H225651   3.042   3.739   7.117 -1.7415 -1.1965 -4.4381
  486TIP3   OH225652   5.086   1.572   9.973  0.2375 -0.0279 -0.3654
  486TIP3    H125653   5.037   1.589   9.893  0.4437  0.7240 -0.3382
  486TIP3    H225654   5.084   1.477   9.983 -1.3598 -0.0175 -0.2753
  487TIP3   OH225655   6.838   1.937   8.602 -0.0985 -0.5791  0.2191
  487TIP3    H125656   6.750   1.925   8.639 -1.8060 -0.5331 -3.3651
  487TIP3    H225657   6.842   2.031   8.581  0.2389 -0.8169 -0.8385
  488TIP3   OH225658   6.313   1.230   1.286 -0.8563 -0.6244 -0.1158
  488TIP3    H125659   6.222   1.218   1.311 -0.8393 -0.9749 -0.2181
  488TIP3    H225660   6.313   1.227   1.190 -0.7670 -0.4090 -0.1243
  489TIP3   OH225661   4.931   4.408   0.981  0.8739 -0.6655  0.1077
  489TIP3    H125662   4.871   4.348   0.937  0.3422  0.4099 -0.7083
  489TIP3    H225663   4.873   4.470   1.026  1.4131 -1.1848  1.5504
  490TIP3   OH225664   6.518   7.464   8.641 -0.5455  0.0551  1.0154
  490TIP3    H125665   6.516   7.551   8.682  0.3399 -1.0326  3.5891
  490TIP3    H225666   6.478   7.406   8.706 -1.1387 -1.4890 -0.6456
  491TIP3   OH225667   1.783   0.698   1.637 -0.6903 -1.0209  0.0353
  491TIP3    H125668   1.764   0.686   1.544  2.3743  1.4082 -1.0768
  491TIP3    H225669   1.843   0.627   1.658  2.1974  0.8651 -1.2303
  492TIP3   OH225670   1.407   1.819   7.395 -0.3383  0.2539 -0.2318
  492TIP3    H125671   1.406   1.826   7.300  0.3798  1.6376 -0.1717
  492TIP3    H225672   1.375   1.904   7.426  0.3237  0.1695  0.7457
  493TIP3   OH225673   5.149   2.728   9.877 -0.3365 -0.7028 -0.2874
  493TIP3    H125674   5.208   2.760   9.946 -0.7891 -1.3143  0.4014
  493TIP3    H225675   5.206   2.712   9.802  0.2746 -0.6691  0.1584
  494TIP3   OH225676   0.679   6.649   1.684  0.3856  0.3925 -0.3166
  494TIP3    H125677   0.758   6.602   1.709 -0.3149 -0.5033  0.3095
  494TIP3    H225678   0.702   6.742   1.692  0.3035  0.2349  3.6672
  495TIP3   OH225679   0.085   2.392   1.339  0.0861  0.2455 -0.0219
  495TIP3    H125680   0.029   2.375   1.263  0.8429  1.1245 -0.8093
  495TIP3    H225681   0.070   2.317   1.397 -2.0492  0.5614 -0.0881
  496TIP3   OH225682   2.385   3.833   3.158 -0.1164 -0.2081  1.1302
  496TIP3    H125683   2.345   3.756   3.117 -1.3519  0.0161  1.8778
  496TIP3    H225684   2.406   3.806   3.247 -2.1134  0.7659  1.9587
  497TIP3   OH225685   3.182   3.287   1.545 -0.3778 -0.1335 -0.0837
  497TIP3    H125686   3.233   3.362   1.514 -0.1866 -0.2187  0.0265
  497TIP3    H225687   3.175   3.300   1.639  0.2222 -0.5990  0.0340
  498TIP3   OH225688   0.663   0.039   8.788 -0.3148  0.1476 -0.2261
  498TIP3    H125689   0.578   0.066   8.753 -0.5561  0.7766  0.8069
  498TIP3    H225690   0.668  -0.055   8.769 -2.3442 -0.4697  1.8062
  499TIP3   OH225691   3.598   5.188   1.100  0.1329 -0.3872  0.8591
  499TIP3    H125692   3.676   5.151   1.142  0.5582  2.1638  2.5044
  499TIP3    H225693   3.525   5.156   1.153  0.0595 -2.0073 -0.1281
  500TIP3   OH225694   4.254   2.443   1.168 -0.0994 -0.0881  0.6000
  500TIP3    H125695   4.159   2.448   1.169 -0.0611  1.2799 -0.1441
  500TIP3    H225696   4.282   2.522   1.122  1.3694 -0.8856  0.0411
  501TIP3   OH225697   4.079   2.295   2.356  0.2452  0.3179  0.1678
  501TIP3    H125698   4.029   2.213   2.355  0.9060 -0.1457  1.8712
  501TIP3    H225699   4.014   2.363   2.341 -0.7145 -0.3650  1.0809
  502TIP3   OH225700   0.001   7.113   8.040  0.2118  0.4248 -0.3791
  502TIP3    H125701   0.035   7.183   8.096  1.0879 -0.1717 -0.1515
  502TIP3    H225702  -0.083   7.090   8.078  0.4385  0.5708  0.2174
  503TIP3   OH225703   0.163   0.505   9.231 -0.3384 -0.5110 -0.3125
  503TIP3    H125704   0.106   0.427   9.228  1.5227 -1.9299 -1.4925
  503TIP3    H225705   0.205   0.506   9.145 -0.8861  2.3129 -0.6127
  504TIP3   OH225706   3.055   5.159   0.703 -0.2293 -0.6007 -0.1975
  504TIP3    H125707   3.112   5.122   0.770  0.3272 -0.3556 -0.5227
  504TIP3    H225708   3.066   5.101   0.628  1.7805  0.9556 -1.2171
  505TIP3   OH225709   1.363   5.399   0.114  0.0495 -0.5439 -0.2539
  505TIP3    H125710   1.418   5.348   0.173 -1.7700 -1.3222  0.8543
  505TIP3    H225711   1.301   5.336   0.077  0.1217  0.2213 -1.7852
  506TIP3   OH225712   3.143   6.874   8.355 -0.1469 -0.1570 -0.1627
  506TIP3    H125713   3.199   6.880   8.433  0.1915  3.3717 -0.4831
  506TIP3    H225714   3.053   6.882   8.390 -0.1378 -0.8683  0.0232
  507TIP3   OH225715   0.503   3.907   1.705  0.4051  0.1361  0.4948
  507TIP3    H125716   0.596   3.905   1.683  0.4008 -2.2714  0.4335
  507TIP3    H225717   0.501   3.907   1.801  0.5339 -1.5140  0.5306
  508TIP3   OH225718   5.748   5.512   2.677  0.6293 -0.1108 -0.3762
  508TIP3    H125719   5.762   5.417   2.684  1.8365  0.0648 -0.1025
  508TIP3    H225720   5.706   5.536   2.759  0.8057 -0.3422 -0.2160
  509TIP3   OH225721   3.790   7.173   6.445 -0.2793 -0.0672 -0.6362
  509TIP3    H125722   3.736   7.113   6.395  0.2699  0.4510 -1.8822
  509TIP3    H225723   3.877   7.133   6.446 -0.7725 -1.3415  2.1024
  510TIP3   OH225724   4.405   2.798   7.555  1.0940  0.0883 -0.2364
  510TIP3    H125725   4.383   2.875   7.503  0.4714 -1.0578 -1.7588
  510TIP3    H225726   4.385   2.724   7.498 -0.3417 -1.3008  1.9236
  511TIP3   OH225727   0.876   0.202   3.157  0.3873  0.3184  0.3577
  511TIP3    H125728   0.797   0.167   3.116  1.3545 -1.4817 -0.0823
  511TIP3    H225729   0.863   0.296   3.158 -1.3936  0.1181 -0.4659
  512TIP3   OH225730   6.093   3.610   8.333 -0.0412 -0.0633 -0.6062
  512TIP3    H125731   6.142   3.633   8.411 -0.1187 -3.7482  0.7394
  512TIP3    H225732   6.157   3.571   8.274 -0.5809 -0.8176 -0.7185
  513TIP3   OH225733   0.507   1.493   0.388 -0.4801 -0.0966 -0.1742
  513TIP3    H125734   0.487   1.583   0.413 -0.3780 -0.1266  0.0141
  513TIP3    H225735   0.523   1.497   0.293 -0.4336  0.0905 -0.1577
  514TIP3   OH225736   0.455   4.097   8.568  0.9490  0.1570  0.3686
  514TIP3    H125737   0.368   4.065   8.592  1.6304 -0.6726  1.9414
  514TIP3    H225738   0.515   4.034   8.610  2.2966  1.0802 -0.1296
  515TIP3   OH225739   1.608   5.272   9.232  0.0629  0.1282  0.0997
  515TIP3    H125740   1.557   5.206   9.186 -0.1752 -0.4894  1.2181
  515TIP3    H225741   1.698   5.240   9.230 -0.0100 -0.0992  0.4049
  516TIP3   OH225742   1.493   5.126   9.924 -0.3884 -0.1549  0.0514
  516TIP3    H125743   1.564   5.127   9.988 -0.6054 -0.2440  0.2966
  516TIP3    H225744   1.426   5.069   9.963 -0.5024 -0.2488 -0.2767
  517TIP3   OH225745   2.671   4.474   9.672  0.7588 -0.0995  0.1530
  517TIP3    H125746   2.749   4.530   9.676  0.2314  0.7782 -1.2609
  517TIP3    H225747   2.610   4.522   9.616 -0.1246 -1.6105 -0.2179
  518TIP3   OH225748   3.133   3.653   1.559 -0.1984 -0.4092 -0.1762
  518TIP3    H125749   3.160   3.606   1.480 -2.2319 -3.0927  0.6013
  518TIP3    H225750   3.185   3.613   1.629 -0.7690 -0.3640  0.2778
  519TIP3   OH225751   1.019   3.285   6.676 -0.2625  0.2041 -0.1191
  519TIP3    H125752   1.069   3.214   6.716 -2.1711 -1.6951 -0.9417
  519TIP3    H225753   0.956   3.312   6.743  0.4445  1.1466  0.1852
  520TIP3   OH225754   6.736   1.774   0.740  0.6048 -0.2176 -0.4662
  520TIP3    H125755   6.782   1.695   0.714  0.3059 -1.0706  1.4693
  520TIP3    H225756   6.805   1.838   0.756  0.8966 -0.3838 -1.0261
  521TIP3   OH225757   4.540   2.034   1.451  0.0321 -0.2420 -0.5847
  521TIP3    H125758   4.454   2.011   1.486 -1.3005  4.4099 -0.1367
  521TIP3    H225759   4.599   2.028   1.527 -0.6149 -0.2709 -0.0753
  522TIP3   OH225760   2.606   3.959   7.717  0.8232 -0.0612  0.1904
  522TIP3    H125761   2.519   3.996   7.731  0.8485  0.2771 -0.4781
  522TIP3    H225762   2.651   3.971   7.801  0.3298  0.0531  0.4432
  523TIP3   OH225763   4.852   4.182   8.914  0.6861 -0.4681 -0.1319
  523TIP3    H125764   4.823   4.091   8.912  2.0582 -0.9919  1.4784
  523TIP3    H225765   4.889   4.194   9.002  0.2151  1.7614 -0.1667
  524TIP3   OH225766   2.962   5.957   7.656 -0.0809  0.0735 -0.2888
  524TIP3    H125767   2.884   6.005   7.685  0.3169  2.0640 -2.2718
  524TIP3    H225768   3.036   6.012   7.683  0.5350 -0.6339 -0.5078
  525TIP3   OH225769   3.814   0.815   8.404 -0.2246 -0.4911  0.2901
  525TIP3    H125770   3.871   0.768   8.465  2.7562  0.5806 -1.4704
  525TIP3    H225771   3.829   0.907   8.422 -0.4162 -0.1695 -1.0550
  526TIP3   OH225772   1.523   4.605   8.966 -0.2444 -0.6807  0.1434
  526TIP3    H125773   1.496   4.567   8.882 -0.9211 -1.4965  0.7196
  526TIP3    H225774   1.549   4.530   9.019 -0.5143 -0.2372  0.9142
  527TIP3   OH225775   3.096   1.304   9.626 -0.3309 -0.7011  0.4166
  527TIP3    H125776   3.105   1.395   9.652  2.2085 -0.5146 -0.7128
  527TIP3    H225777   3.079   1.308   9.531 -1.6300 -1.4091  0.6011
  528TIP3   OH225778   4.464   4.061   1.978 -0.1746  0.0545 -0.1610
  528TIP3    H125779   4.528   4.117   1.935 -1.0973  0.3643 -1.2013
  528TIP3    H225780   4.501   3.973   1.972 -0.1757  0.1215 -1.4365
  529TIP3   OH225781   5.209   6.650   8.559  0.2108  0.2246  0.2024
  529TIP3    H125782   5.141   6.707   8.594 -1.0002 -0.0358 -1.5721
  529TIP3    H225783   5.174   6.619   8.475  2.8247  0.6421 -1.1574
  530TIP3   OH225784   4.677   1.465   9.255 -0.0710 -0.0082 -0.5656
  530TIP3    H125785   4.586   1.438   9.269 -0.5106  0.9922 -1.3912
  530TIP3    H225786   4.719   1.449   9.340 -0.7867 -1.2994 -0.4212
  531TIP3   OH225787   1.892   1.432   1.536 -0.1527 -0.1991  0.0903
  531TIP3    H125788   1.945   1.360   1.502 -1.8214 -0.7632 -1.5447
  531TIP3    H225789   1.927   1.510   1.493 -0.6002 -0.5722 -1.0033
  532TIP3   OH225790   1.785   6.423   6.888 -0.0782  0.1187  0.1304
  532TIP3    H125791   1.783   6.516   6.909  2.6976  0.4629 -0.7806
  532TIP3    H225792   1.847   6.415   6.815  0.1190 -2.4831  0.4697
  533TIP3   OH225793   1.398   5.182   8.083  0.0803  0.6761  0.0865
  533TIP3    H125794   1.360   5.263   8.117  0.0579  0.4629  0.5785
  533TIP3    H225795   1.376   5.182   7.990  0.1365  1.2672  0.0706
  534TIP3   OH225796   6.496   3.190   0.628  0.0832  0.2030  0.2230
  534TIP3    H125797   6.446   3.110   0.609 -1.8924  1.2524  0.7051
  534TIP3    H225798   6.504   3.234   0.543 -2.7434  1.5689  0.5351
  535TIP3   OH225799   5.103   4.103   2.426 -0.2418  0.5345 -0.0512
  535TIP3    H125800   5.095   4.126   2.334 -0.2339  1.0251  0.0641
  535TIP3    H225801   5.145   4.017   2.427  0.7823  1.0050 -0.4837
  536TIP3   OH225802   3.489   4.891   6.523 -0.9512 -0.1316 -0.1523
  536TIP3    H125803   3.464   4.977   6.491  1.1620  0.2527 -0.9415
  536TIP3    H225804   3.406   4.846   6.539 -2.1461  2.4243  1.4746
  537TIP3   OH225805   2.776   0.271   0.080  0.3358 -0.3305 -0.4509
  537TIP3    H125806   2.855   0.272   0.025 -0.0396  0.7799 -0.9981
  537TIP3    H225807   2.799   0.215   0.154  0.5111 -2.8068 -2.2475
  538TIP3   OH225808   6.123   1.042   9.741 -0.7039  0.2980 -0.4944
  538TIP3    H125809   6.200   1.087   9.775 -1.1907  1.4056 -0.8256
  538TIP3    H225810   6.107   1.082   9.656 -0.4930 -1.2928 -1.3266
  539TIP3   OH225811   4.502   5.429   2.190  0.6275 -0.1983  0.3352
  539TIP3    H125812   4.445   5.503   2.173  2.8805  1.6009  0.1333
  539TIP3    H225813   4.523   5.435   2.283  2.3858  0.6514 -0.0871
  540TIP3   OH225814   7.059   6.590   8.470  0.0005  0.6457 -0.0924
  540TIP3    H125815   7.068   6.675   8.513  1.8243 -0.1150  1.1742
  540TIP3    H225816   7.133   6.587   8.408  0.4317 -0.3054  0.4508
  541TIP3   OH225817   2.466   5.033   8.675 -0.0805 -0.0856 -0.0644
  541TIP3    H125818   2.474   4.979   8.754  2.4777 -1.7229 -1.2991
  541TIP3    H225819   2.523   5.108   8.691 -0.1514 -0.0316 -0.0646
  542TIP3   OH225820   3.522   0.606   8.020 -0.3599  0.1853  0.3643
  542TIP3    H125821   3.580   0.604   8.096 -0.9715 -0.0497  0.8296
  542TIP3    H225822   3.574   0.650   7.952  0.7183 -0.8489  0.4712
  543TIP3   OH225823   2.028   5.143   7.247  0.1649  0.1892 -0.2199
  543TIP3    H125824   2.087   5.112   7.178  0.3908 -0.7362  0.3662
  543TIP3    H225825   2.085   5.191   7.307 -0.3093  2.5181 -1.5249
  544TIP3   OH225826   3.997   5.217   7.788  0.2431 -0.2201  0.0024
  544TIP3    H125827   4.001   5.235   7.882  0.6857  0.9395 -0.2286
  544TIP3    H225828   4.068   5.154   7.773 -0.1216 -0.7671  0.5052
  545TIP3   OH225829   4.560   4.937   7.170 -0.8728  0.0307 -0.2943
  545TIP3    H125830   4.536   4.973   7.086 -2.8275  0.1984  0.2949
  545TIP3    H225831   4.480   4.939   7.222  0.2552 -0.0909  1.5713
  546TIP3   OH225832   4.725   5.153   0.699  0.5303  0.2978 -0.8267
  546TIP3    H125833   4.671   5.141   0.777  1.2515 -0.0171 -0.3676
  546TIP3    H225834   4.666   5.132   0.626 -0.0459  0.2397 -0.3533
  547TIP3   OH225835   3.220   5.577   0.836 -0.3051 -0.6620  0.4163
  547TIP3    H125836   3.235   5.485   0.814 -2.2280 -1.2541  1.3674
  547TIP3    H225837   3.126   5.590   0.823  0.0023  1.3395 -0.2165
  548TIP3   OH225838   6.224   0.763   0.857  0.0830 -0.4257 -0.5295
  548TIP3    H125839   6.130   0.742   0.860  0.2849 -1.2976  0.7055
  548TIP3    H225840   6.260   0.699   0.796 -0.1042 -0.1570 -0.9262
  549TIP3   OH225841   2.760   2.980   7.736  0.0090  0.6856 -0.6050
  549TIP3    H125842   2.794   2.967   7.825  0.2862  2.1633 -0.4683
  549TIP3    H225843   2.666   2.964   7.744 -0.2856  2.5964  0.4084
  550TIP3   OH225844   1.862   3.904   2.035  0.4659 -0.0758  0.0517
  550TIP3    H125845   1.771   3.876   2.043  0.6349 -0.5773  0.2366
  550TIP3    H225846   1.863   3.961   1.958 -0.2440  0.9166  0.7561
  551TIP3   OH225847   5.848   5.488   2.340 -0.2190 -0.4165 -0.1872
  551TIP3    H125848   5.870   5.411   2.287  0.3410 -0.7623  0.5189
  551TIP3    H225849   5.897   5.560   2.300  0.4940 -0.7471  0.0631
  552TIP3   OH225850   1.949   1.529   0.936  0.0371  0.3598 -0.5114
  552TIP3    H125851   1.866   1.577   0.934 -1.0269 -1.3917 -0.5340
  552TIP3    H225852   1.937   1.463   1.004  1.0138 -0.5648 -1.2004
  553TIP3   OH225853   5.515   1.419   0.503 -0.4308 -0.0651  0.7131
  553TIP3    H125854   5.440   1.379   0.459 -0.5215  1.1414 -0.2652
  553TIP3    H225855   5.529   1.502   0.458  0.9975  0.1095  1.4073
  554TIP3   OH225856   3.212   2.050   2.341 -0.0262  0.2186  0.3756
  554TIP3    H125857   3.122   2.027   2.365 -0.2426  1.4982  0.8860
  554TIP3    H225858   3.213   2.146   2.344  1.2577  0.2260 -0.0032
  555TIP3   OH225859   6.432   5.345   0.452 -0.2161 -0.2815  0.6147
  555TIP3    H125860   6.339   5.368   0.460 -0.2415 -0.4305  0.7520
  555TIP3    H225861   6.477   5.430   0.444 -0.2755 -0.1695  1.4487
  556TIP3   OH225862   0.358   3.548   9.223 -0.0437  0.6801 -0.0836
  556TIP3    H125863   0.309   3.537   9.304  0.8154 -0.3515  0.3245
  556TIP3    H225864   0.446   3.572   9.252  0.0031  1.3490 -0.7571
  557TIP3   OH225865   3.555   5.136   6.873  0.3096 -0.2425  0.0360
  557TIP3    H125866   3.497   5.183   6.812  0.3308 -1.1730 -0.7238
  557TIP3    H225867   3.599   5.071   6.819  0.3459 -1.0843  1.0475
  558TIP3   OH225868   5.860   7.197   9.912 -0.2945  0.0909 -0.0797
  558TIP3    H125869   5.912   7.208   9.991  0.1286 -2.0959  0.0104
  558TIP3    H225870   5.803   7.274   9.910 -1.1761 -0.3533  3.0109
  559TIP3   OH225871   4.300   5.204   9.960  0.7390  0.1968  0.4151
  559TIP3    H125872   4.299   5.299   9.963  0.8903  0.1907  0.6486
  559TIP3    H225873   4.208   5.179   9.962  0.6804  0.3546 -0.2014
  560TIP3   OH225874   0.777   0.990   2.261  0.1255 -0.1275  0.0438
  560TIP3    H125875   0.799   1.014   2.351  0.7162  0.1310 -0.1594
  560TIP3    H225876   0.850   1.024   2.209 -0.1271 -0.4193 -0.5128
  561TIP3   OH225877   7.421   7.274   2.434  0.2422 -0.0345 -0.0619
  561TIP3    H125878   7.512   7.246   2.433 -0.0077 -0.8752  0.1569
  561TIP3    H225879   7.408   7.314   2.520  0.0396 -1.1947  0.4672
  562TIP3   OH225880   6.256   3.865   7.521  0.3787 -0.1425  0.0159
  562TIP3    H125881   6.311   3.932   7.480 -0.7565  1.2261  0.6465
  562TIP3    H225882   6.166   3.893   7.503 -0.1254 -1.2910  0.6339
  563TIP3   OH225883   6.446   3.547   8.527 -0.0565  0.1830  0.0722
  563TIP3    H125884   6.472   3.483   8.460 -0.4347  1.4425 -1.3390
  563TIP3    H225885   6.362   3.515   8.560  0.2927 -0.6305  0.1920
  564TIP3   OH225886   2.406   6.455   9.429  0.1220 -0.4169  0.2931
  564TIP3    H125887   2.332   6.511   9.454  0.5225  0.6170 -0.7519
  564TIP3    H225888   2.410   6.461   9.334  2.2055  0.4289  0.3859
  565TIP3   OH225889   3.236   3.338   0.089 -0.1567  0.6109 -0.5242
  565TIP3    H125890   3.302   3.396   0.126 -1.7668  0.6368  2.7213
  565TIP3    H225891   3.236   3.358  -0.005  2.5413  2.4500 -0.2554
  566TIP3   OH225892   7.353   6.071   1.866 -0.1858 -0.0228 -0.1661
  566TIP3    H125893   7.298   6.099   1.794  0.1627  0.8617 -0.1087
  566TIP3    H225894   7.292   6.054   1.938 -0.4815 -0.3101 -0.4827
  567TIP3   OH225895   4.528   0.913   9.744  0.2326  0.0266 -0.1701
  567TIP3    H125896   4.473   0.977   9.789  0.0502 -0.5986  0.5150
  567TIP3    H225897   4.471   0.876   9.676 -1.1928 -2.5065  2.1512
  568TIP3   OH225898   3.444   5.152   6.335 -0.3219 -0.2508  0.6796
  568TIP3    H125899   3.371   5.114   6.286 -1.1600  0.3770  1.4184
  568TIP3    H225900   3.427   5.246   6.335  1.1687  0.0525 -0.2218
  569TIP3   OH225901   2.913   5.032   7.423  0.0893  0.4699 -0.2795
  569TIP3    H125902   2.940   4.963   7.483  0.5095 -1.2952 -2.3727
  569TIP3    H225903   2.988   5.044   7.364 -0.8184  1.0624 -1.3679
  570TIP3   OH225904   4.788   1.981   2.193 -0.5380  0.3347  0.5325
  570TIP3    H125905   4.875   2.014   2.214 -0.4602  0.0867  0.5952
  570TIP3    H225906   4.740   1.986   2.276 -0.2523 -0.5765  0.7605
  571TIP3   OH225907   4.388   2.497   0.812 -0.0418 -0.1710 -0.3879
  571TIP3    H125908   4.374   2.408   0.843 -0.3943 -0.2324 -0.7183
  571TIP3    H225909   4.355   2.552   0.884 -0.1296 -0.3068 -0.3235
  572TIP3   OH225910   7.046   5.736   8.369  0.4294  0.4481  0.1381
  572TIP3    H125911   7.104   5.660   8.369 -0.0894  0.0229 -1.3321
  572TIP3    H225912   6.961   5.702   8.341 -0.4362  1.1606  1.7201
  573TIP3   OH225913   6.005   4.713   2.378 -0.0962 -0.3048 -0.2250
  573TIP3    H125914   6.070   4.642   2.375 -1.0444 -1.2491  0.4173
  573TIP3    H225915   6.056   4.791   2.399  0.8706 -0.9651 -0.0081
  574TIP3   OH225916   6.855   2.909   0.929  0.3265 -0.2336 -0.3387
  574TIP3    H125917   6.815   2.828   0.962  1.7659 -1.1461 -0.7499
  574TIP3    H225918   6.786   2.948   0.875 -1.5073  0.4553  2.2851
  575TIP3   OH225919   6.940   3.464   8.829  0.0758 -0.8247 -0.0159
  575TIP3    H125920   6.944   3.518   8.749  0.9000  0.2941  0.7452
  575TIP3    H225921   6.892   3.518   8.891 -1.0659 -1.9304  0.0936
  576TIP3   OH225922   1.871   5.350   9.635 -0.8053 -0.3632  0.0322
  576TIP3    H125923   1.847   5.266   9.674  1.4467 -1.4011 -0.5966
  576TIP3    H225924   1.853   5.415   9.703 -1.2260 -1.5481  1.0906
  577TIP3   OH225925   2.502   0.840   3.056 -0.4680 -0.6909 -0.5819
  577TIP3    H125926   2.541   0.927   3.057 -2.3375  0.2002 -0.4567
  577TIP3    H225927   2.532   0.800   3.137 -1.2669  0.6606  0.4276
  578TIP3   OH225928   0.245   6.444   0.759  0.1602 -0.3013  0.0717
  578TIP3    H125929   0.151   6.430   0.773 -0.2086  1.9469  0.3423
  578TIP3    H225930   0.272   6.373   0.701 -1.8465 -0.6468 -0.5280
  579TIP3   OH225931   4.475   6.354   6.859 -0.1424  0.3485 -0.1476
  579TIP3    H125932   4.421   6.277   6.877  0.1920  0.3932  1.1896
  579TIP3    H225933   4.509   6.380   6.945 -1.4099  2.8574 -0.3117
  580TIP3   OH225934   0.644   5.050   0.699  0.0357  0.5595 -0.1544
  580TIP3    H125935   0.617   5.141   0.706  0.2869  0.5942  0.4322
  580TIP3    H225936   0.697   5.046   0.620  2.3507  1.5342  1.2335
  581TIP3   OH225937   6.063   4.063   7.741 -0.1841  0.4328  0.1780
  581TIP3    H125938   6.050   3.969   7.729  3.1940 -0.0462 -0.8575
  581TIP3    H225939   6.021   4.102   7.665 -1.8564 -0.1755  0.7541
  582TIP3   OH225940   6.532   3.846   9.154 -0.6006 -0.2152  0.2206
  582TIP3    H125941   6.502   3.920   9.207  2.0444  2.9219 -2.2496
  582TIP3    H225942   6.514   3.872   9.063  2.0973 -1.6854 -0.8754
  583TIP3   OH225943   3.149   3.261   1.816 -0.3558  0.5079 -0.4144
  583TIP3    H125944   3.100   3.252   1.897  0.5047  1.5642  0.2392
  583TIP3    H225945   3.241   3.265   1.843 -0.0258  0.5025 -1.4680
  584TIP3   OH225946   4.005   6.419   8.561 -0.2145 -0.0843  0.2999
  584TIP3    H125947   4.014   6.493   8.501 -2.0391  2.0901  2.4782
  584TIP3    H225948   4.078   6.429   8.622 -0.5123 -0.0163  0.6487
  585TIP3   OH225949   3.183   1.240   1.117  0.7425 -0.1434 -0.4714
  585TIP3    H125950   3.101   1.195   1.138 -0.3823  1.0794 -2.0213
  585TIP3    H225951   3.202   1.214   1.027  2.2794 -0.6962 -0.0093
  586TIP3   OH225952   0.715   2.763   2.188  0.1052  0.7367 -0.1239
  586TIP3    H125953   0.636   2.711   2.201  0.5525 -0.8099 -2.8087
  586TIP3    H225954   0.687   2.854   2.197 -1.5630  0.1827  0.6629
  587TIP3   OH225955   2.545   3.613   7.685  0.3024 -0.6885 -0.0803
  587TIP3    H125956   2.623   3.669   7.686 -0.0176 -0.2071 -0.7571
  587TIP3    H225957   2.538   3.583   7.594 -1.2297  0.6483 -0.4700
  588TIP3   OH225958   5.399   0.104   1.450  0.0870 -0.6346  0.2169
  588TIP3    H125959   5.397   0.159   1.528  0.8568  0.0160 -0.2097
  588TIP3    H225960   5.490   0.076   1.443 -0.1651 -1.4166  0.0492
  589TIP3   OH225961   7.457   0.124   8.654 -0.0965  0.2457  0.3436
  589TIP3    H125962   7.376   0.143   8.702 -1.3262 -0.3777 -1.3529
  589TIP3    H225963   7.449   0.032   8.628  0.9166  0.3168 -0.2977
  590TIP3   OH225964   4.028   4.807   1.173 -0.1663 -0.3613  0.0384
  590TIP3    H125965   4.038   4.715   1.195  1.1368 -0.1767  0.2727
  590TIP3    H225966   3.998   4.806   1.082 -0.5834 -1.0150  0.1736
  591TIP3   OH225967   4.057   4.298   7.445 -0.0626  0.0376  0.3066
  591TIP3    H125968   4.064   4.349   7.365  0.6688 -0.8998 -0.2468
  591TIP3    H225969   3.973   4.252   7.437  0.2276 -0.4233 -0.1588
  592TIP3   OH225970   7.027   0.110   9.791  0.2532  0.7249  0.1110
  592TIP3    H125971   7.082   0.034   9.773  0.2268  0.3977  1.3390
  592TIP3    H225972   7.087   0.178   9.821  0.2064  1.0039 -0.4142
  593TIP3   OH225973   2.867   3.307   8.311 -0.5970  0.3566  0.4779
  593TIP3    H125974   2.897   3.294   8.222  1.4625 -0.5653  1.2664
  593TIP3    H225975   2.787   3.360   8.302 -1.4398 -1.1862 -1.9757
  594TIP3   OH225976   1.441   0.756   1.852  0.2024 -0.3297 -0.1400
  594TIP3    H125977   1.371   0.750   1.788  0.0967  3.0990 -0.5423
  594TIP3    H225978   1.497   0.827   1.820  0.6979  0.8733  3.0143
  595TIP3   OH225979   2.511   0.358   8.465 -0.3486  0.0717 -0.3684
  595TIP3    H125980   2.518   0.292   8.534  1.7334 -0.2834 -0.8628
  595TIP3    H225981   2.439   0.415   8.494  1.3855  0.8570  2.9290
  596TIP3   OH225982   2.818   6.652   9.055  0.3240  0.0738 -0.4019
  596TIP3    H125983   2.911   6.663   9.037  0.2115 -1.0831 -1.8532
  596TIP3    H225984   2.801   6.559   9.040 -1.0754  0.2798 -0.2227
  597TIP3   OH225985   0.243   2.310   0.358  0.6902  0.3051  0.4278
  597TIP3    H125986   0.155   2.347   0.348  0.0393 -1.1345  0.5564
  597TIP3    H225987   0.250   2.289   0.451  0.3106 -1.5294  0.0971
  598TIP3   OH225988   1.314   0.751   0.884 -0.1457  0.2805  0.0715
  598TIP3    H125989   1.247   0.701   0.838 -0.8123  0.6863  0.5877
  598TIP3    H225990   1.284   0.754   0.975  0.9444 -0.1645  0.4663
  599TIP3   OH225991   1.352   7.459   6.679  0.0174 -0.1617  0.0611
  599TIP3    H125992   1.390   7.406   6.609  0.6442 -0.3403  0.5289
  599TIP3    H225993   1.301   7.525   6.633  0.5206 -0.2001 -0.5744
  600TIP3   OH225994   4.004   4.036   7.797 -0.1016 -0.2111  0.5035
  600TIP3    H125995   3.989   4.013   7.889  1.2000  0.5128  0.9224
  600TIP3    H225996   4.086   4.085   7.798  0.2666 -0.7509 -1.1441
  601TIP3   OH225997   5.692   6.881   8.352  0.0638  0.0500 -0.2248
  601TIP3    H125998   5.703   6.876   8.257 -1.4699 -0.2753 -0.4084
  601TIP3    H225999   5.608   6.837   8.369 -0.0381  0.7493  1.2029
  602TIP3   OH226000   3.016   3.467   1.222  0.8090 -0.2237 -0.3638
  602TIP3    H126001   3.061   3.552   1.213  0.5962 -0.1030 -0.3031
  602TIP3    H226002   2.924   3.488   1.207  0.6383 -0.2880  0.5452
  603TIP3   OH226003   1.797   3.134   2.898 -0.7509  0.4013  0.3910
  603TIP3    H126004   1.860   3.177   2.840 -0.4793  3.8230  2.9345
  603TIP3    H226005   1.851   3.090   2.964 -1.0446 -0.1767  0.2514
  604TIP3   OH226006   2.918   5.554   9.967  0.5977 -0.5612 -0.0601
  604TIP3    H126007   2.965   5.624   9.921 -1.9867  2.1872  1.0850
  604TIP3    H226008   2.929   5.576  10.060 -1.2686 -0.9254  0.2791
  605TIP3   OH226009   7.143   3.003   7.703 -0.2168  0.1778  0.8300
  605TIP3    H126010   7.188   3.064   7.762 -1.0118 -0.2973  1.9768
  605TIP3    H226011   7.175   2.917   7.728 -0.5323 -0.0257  0.5397
  606TIP3   OH226012   4.157   4.392   0.250  0.3808 -0.5480  0.7467
  606TIP3    H126013   4.172   4.329   0.179 -1.4248 -0.1445 -0.0724
  606TIP3    H226014   4.062   4.401   0.253  0.5900  2.3896  0.6192
  607TIP3   OH226015   3.260   0.551   8.054 -0.1833  0.1005  0.2195
  607TIP3    H126016   3.352   0.565   8.032 -0.7149 -0.2473 -2.5664
  607TIP3    H226017   3.231   0.634   8.092  0.8123  0.8767 -0.6678
  608TIP3   OH226018   3.452   3.323   1.129  0.6559 -0.0225 -0.0510
  608TIP3    H126019   3.455   3.418   1.116  0.2089 -0.1824 -1.5314
  608TIP3    H226020   3.360   3.303   1.141  0.7308 -0.2815  0.0898
  609TIP3   OH226021   4.677   2.551   0.831  0.5267 -0.1399  0.0761
  609TIP3    H126022   4.655   2.599   0.911  2.0776 -0.6363  0.8563
  609TIP3    H226023   4.593   2.531   0.791 -0.2758  0.4874  1.3730
  610TIP3   OH226024   3.183   2.717   2.270  0.5863 -0.6045  0.2818
  610TIP3    H126025   3.112   2.668   2.228  1.2761 -0.0181 -1.6638
  610TIP3    H226026   3.240   2.649   2.307 -0.6970 -1.0901  1.4506
  611TIP3   OH226027   5.861   0.077   9.934  0.3116 -0.6093 -0.4435
  611TIP3    H126028   5.769   0.064   9.909 -0.2112 -2.2473  1.9827
  611TIP3    H226029   5.873   0.172   9.933 -1.0665 -0.4036 -1.8458
  612TIP3   OH226030   1.886   6.044   0.959 -0.0892 -0.4295  0.7071
  612TIP3    H126031   1.947   6.093   0.904 -0.4962  0.1508  0.7637
  612TIP3    H226032   1.921   5.955   0.961  0.6371 -0.1516  0.5682
  613TIP3   OH226033   3.935   1.070   1.453  0.0776  0.1499 -0.4121
  613TIP3    H126034   3.941   1.146   1.395 -0.2109 -0.4248 -1.2130
  613TIP3    H226035   3.850   1.080   1.496 -0.9440 -0.7820 -2.0919
  614TIP3   OH226036   2.098   3.500   2.197  0.3396 -0.0613  0.5852
  614TIP3    H126037   2.074   3.587   2.229 -0.4935 -0.4256  0.9905
  614TIP3    H226038   2.028   3.478   2.136  1.9299  0.6587 -1.6419
  615TIP3   OH226039   2.928   0.627   1.647  0.1601  0.0154  0.1947
  615TIP3    H126040   2.949   0.719   1.663  1.7692 -0.2465 -0.2819
  615TIP3    H226041   2.980   0.603   1.570  1.1436 -1.7381  1.3293
  616TIP3   OH226042   5.294   4.965   0.109 -0.2949 -0.4063  0.4346
  616TIP3    H126043   5.286   5.050   0.065 -0.4399 -1.2961 -1.3369
  616TIP3    H226044   5.203   4.937   0.123 -0.4346 -2.0439 -2.7253
  617TIP3   OH226045   2.250   6.759   7.707 -0.3625  0.2775 -0.1458
  617TIP3    H126046   2.183   6.794   7.765  0.1016 -0.3281  0.7731
  617TIP3    H226047   2.225   6.668   7.693 -0.0231  0.1968 -0.2349
  618TIP3   OH226048   4.485   4.754   7.471 -0.7067  0.4235  0.0651
  618TIP3    H126049   4.440   4.796   7.397  0.7068  0.4736 -0.8085
  618TIP3    H226050   4.485   4.821   7.540  0.4411  1.4777 -0.8914
  619TIP3   OH226051   4.606   4.826   7.766  0.2895 -0.0106  0.1476
  619TIP3    H126052   4.522   4.821   7.812  0.2716 -3.0094 -0.0370
  619TIP3    H226053   4.590   4.887   7.694 -0.8703  1.6026  1.6955
  620TIP3   OH226054   3.830   6.817   7.058  0.5178 -0.7098 -0.2736
  620TIP3    H126055   3.864   6.904   7.080 -1.0332  0.7345 -3.0273
  620TIP3    H226056   3.876   6.793   6.978 -0.3686 -1.6084 -0.5337
  621TIP3   OH226057   5.838   5.939   0.545  0.0179 -0.0890  0.2525
  621TIP3    H126058   5.828   5.863   0.488  2.2547 -0.6284  0.4976
  621TIP3    H226059   5.874   5.903   0.626  2.4683  1.3584 -0.1202
  622TIP3   OH226060   4.135   7.114   0.049  0.3244  0.5596 -0.5201
  622TIP3    H126061   4.111   7.109   0.141 -0.0950 -1.4312 -0.6903
  622TIP3    H226062   4.062   7.072   0.003 -0.1576  2.7800 -1.9312
  623TIP3   OH226063   3.718   4.034   1.561 -0.0672  0.4548  0.1692
  623TIP3    H126064   3.636   4.074   1.591  0.2320  1.2429 -0.0369
  623TIP3    H226065   3.749   4.093   1.493  1.2690  0.8224  1.0543
  624TIP3   OH226066   5.834   1.034   9.881 -0.1740  0.4475  0.1088
  624TIP3    H126067   5.904   1.015   9.818 -1.8102  0.5159 -1.8087
  624TIP3    H226068   5.763   1.069   9.828 -2.7596 -2.2331  1.5389
  625TIP3   OH226069   1.650   7.152   0.184  0.4010 -0.1121  0.2289
  625TIP3    H126070   1.635   7.243   0.211 -0.4635 -0.1224 -0.1869
  625TIP3    H226071   1.671   7.106   0.266  1.2097  0.5244  0.3909
  626TIP3   OH226072   6.905   4.096   9.825  0.1587 -0.1373 -0.1206
  626TIP3    H126073   6.935   4.141   9.746  1.4507 -0.1982  0.3196
  626TIP3    H226074   6.819   4.134   9.843 -0.2417 -0.2750 -1.6641
  627TIP3   OH226075   7.425   2.353   9.938 -0.0768 -0.0422  0.2082
  627TIP3    H126076   7.494   2.375   9.875 -0.7402 -0.7520 -0.7737
  627TIP3    H226077   7.467   2.292   9.998  0.5376  0.5829  0.4379
  628TIP3   OH226078   6.162   4.961   7.289 -0.4750  0.1631 -0.1245
  628TIP3    H126079   6.214   4.901   7.342  1.1347  0.7219 -0.9866
  628TIP3    H226080   6.219   5.037   7.276 -0.7803  0.0728 -2.5576
  629TIP3   OH226081   2.373   4.318   6.604 -0.0328 -0.1297 -0.3596
  629TIP3    H126082   2.422   4.397   6.626  0.2771 -0.5062  0.3744
  629TIP3    H226083   2.285   4.334   6.637  0.4913 -0.7885  1.5225
  630TIP3   OH226084   2.028   3.365   8.380  0.2738 -0.2323 -0.2152
  630TIP3    H126085   2.112   3.406   8.397  0.2548 -0.3927  0.2776
  630TIP3    H226086   2.039   3.274   8.408 -0.8179  0.3345  2.2946
  631TIP3   OH226087   6.743   6.638   7.515  0.0538 -0.3027  0.0864
  631TIP3    H126088   6.654   6.605   7.509 -0.5490  1.3162 -0.1636
  631TIP3    H226089   6.753   6.697   7.441  0.6502  1.0620  1.1940
  632TIP3   OH226090   0.028   5.215   1.064 -0.5886 -0.8340 -0.0797
  632TIP3    H126091   0.062   5.130   1.091  0.5129 -0.1937  0.5882
  632TIP3    H226092   0.069   5.231   0.978  0.3408 -0.3536  0.4356
  633TIP3   OH226093   2.451   4.845   7.415 -0.2798  0.4392 -0.1312
  633TIP3    H126094   2.368   4.828   7.369 -0.0781  0.8381 -0.6544
  633TIP3    H226095   2.453   4.780   7.484 -0.3645 -0.4979 -0.9880
  634TIP3   OH226096   2.526   4.120   2.303 -0.6392 -0.2044  0.1613
  634TIP3    H126097   2.571   4.183   2.358  0.4748 -2.3614  1.8620
  634TIP3    H226098   2.571   4.125   2.218 -1.4211  2.1000 -0.1961
  635TIP3   OH226099   6.698   1.585   0.341  0.2012  0.3137  0.7332
  635TIP3    H126100   6.686   1.513   0.402 -0.1051 -0.4714 -0.2379
  635TIP3    H226101   6.789   1.578   0.312 -0.1098 -0.3330 -0.1420
  636TIP3   OH226102   6.575   0.044   9.971 -0.6244  0.3502  0.0409
  636TIP3    H126103   6.578   0.072   9.879 -1.0664  0.0402 -0.0733
  636TIP3    H226104   6.646   0.092  10.013 -0.7810  0.9317 -0.3434
  637TIP3   OH226105   4.254   5.641   8.154  0.7935  0.3574  0.2380
  637TIP3    H126106   4.343   5.607   8.163  0.8713  0.3938 -0.3644
  637TIP3    H226107   4.203   5.589   8.216  1.5318  1.5004  1.8712
  638TIP3   OH226108   2.353   4.498   0.225 -0.3706 -0.0183  0.1952
  638TIP3    H126109   2.442   4.463   0.228  0.0529  0.8954 -1.0547
  638TIP3    H226110   2.325   4.497   0.317  0.7943 -0.6351  0.5731
  639TIP3   OH226111   3.483   7.057   1.386 -0.6238  0.1413  0.1894
  639TIP3    H126112   3.425   7.075   1.312  1.2071  1.7269 -0.9494
  639TIP3    H226113   3.431   7.079   1.463 -2.0220  0.0512 -0.6907
  640TIP3   OH226114   6.516   3.978   1.466  0.4590 -0.0948 -0.4233
  640TIP3    H126115   6.562   3.923   1.529 -0.9931 -1.5418 -0.5519
  640TIP3    H226116   6.441   4.012   1.514  0.1081 -0.0592 -0.9926
  641TIP3   OH226117   5.187   5.392   7.592 -0.6170 -0.3621 -0.3292
  641TIP3    H126118   5.181   5.317   7.650 -1.6721 -1.1244 -1.3706
  641TIP3    H226119   5.273   5.431   7.611 -0.4625 -1.2397  0.9030
  642TIP3   OH226120   2.961   0.800   8.612  0.2784 -0.2048  0.8343
  642TIP3    H126121   2.868   0.804   8.634 -0.0311  1.5342 -0.5828
  642TIP3    H226122   2.967   0.728   8.548 -0.1557 -0.0769  0.6463
  643TIP3   OH226123   5.218   5.846   9.833  0.2170  0.3417  0.1959
  643TIP3    H126124   5.249   5.764   9.872 -1.3099 -0.1673  0.3941
  643TIP3    H226125   5.265   5.852   9.750 -0.9902 -1.7032 -0.7033
  644TIP3   OH226126   4.146   1.108   8.351  0.0305  0.1263  0.6320
  644TIP3    H126127   4.086   1.129   8.280 -1.2408  1.3779  1.9896
  644TIP3    H226128   4.089   1.084   8.424  1.2825 -0.8499  1.3291
  645TIP3   OH226129   3.216   6.054   0.985  0.4226  0.3513  0.0926
  645TIP3    H126130   3.306   6.084   0.970  0.1122  0.9144 -0.6878
  645TIP3    H226131   3.165   6.134   0.994 -0.0400  0.0361  0.2858
  646TIP3   OH226132   7.343   5.555   9.143  0.0002  0.1347 -0.2178
  646TIP3    H126133   7.274   5.594   9.089 -0.6158 -0.5371  0.0704
  646TIP3    H226134   7.408   5.625   9.153 -1.2048  1.1992  0.5347
  647TIP3   OH226135   0.785   6.898   1.716 -0.1886  0.1537 -0.8823
  647TIP3    H126136   0.787   6.975   1.659 -0.1589  0.7335 -0.0983
  647TIP3    H226137   0.855   6.912   1.779 -0.8372 -0.0254 -0.1028
  648TIP3   OH226138   1.438   7.302   7.551 -0.1784  0.1421 -0.1110
  648TIP3    H126139   1.390   7.337   7.476 -0.7668  0.7994  0.5573
  648TIP3    H226140   1.378   7.240   7.591 -0.3723  0.7563  0.5647
  649TIP3   OH226141   6.813   7.337   1.679 -0.3553 -0.0009 -0.7870
  649TIP3    H126142   6.861   7.354   1.760 -0.7517 -0.1644 -0.5170
  649TIP3    H226143   6.809   7.423   1.636 -1.5496  0.4364  0.1374
  650TIP3   OH226144   3.288   5.341   6.779 -0.1717 -0.2822 -0.5917
  650TIP3    H126145   3.240   5.290   6.844  1.5753 -1.0950  0.1320
  650TIP3    H226146   3.243   5.426   6.777 -0.5907 -0.4213  1.2948
  651TIP3   OH226147   4.470   5.134   2.791 -0.4795  0.0795 -0.0925
  651TIP3    H126148   4.557   5.096   2.798 -0.6660 -0.5910 -1.2270
  651TIP3    H226149   4.485   5.219   2.749 -0.4966 -0.7009 -1.7640
  652TIP3   OH226150   5.256   3.349   0.700 -0.0770 -0.2256 -0.0654
  652TIP3    H126151   5.266   3.425   0.757  0.1334  0.0609 -0.4795
  652TIP3    H226152   5.309   3.281   0.741  0.3428  0.0808 -0.0978
  653TIP3   OH226153   3.230   0.459   7.797  0.0805 -0.2560 -0.0868
  653TIP3    H126154   3.226   0.479   7.890 -0.6611  0.2298 -0.2141
  653TIP3    H226155   3.142   0.430   7.775 -0.2152  1.2110 -0.9778
  654TIP3   OH226156   3.895   0.842   9.280 -0.2819  0.3066  0.0574
  654TIP3    H126157   3.857   0.762   9.317  0.5155 -0.1891 -0.1884
  654TIP3    H226158   3.820   0.887   9.241 -0.5318 -1.0086 -1.0614
  655TIP3   OH226159   1.975   6.414   0.329 -0.3440  0.0621 -0.6678
  655TIP3    H126160   1.993   6.321   0.340 -1.7322 -0.3996 -2.0175
  655TIP3    H226161   1.902   6.431   0.389 -0.5971  0.0920 -0.9815
  656TIP3   OH226162   3.842   6.117   6.927 -0.0127 -0.2439 -0.0978
  656TIP3    H126163   3.815   6.099   6.836  1.5509 -0.0019 -0.6308
  656TIP3    H226164   3.822   6.037   6.974  0.1655 -0.7636 -0.8914
  657TIP3   OH226165   6.254   4.280   7.749 -0.4455 -0.7996  0.4039
  657TIP3    H126166   6.170   4.262   7.708 -0.0513 -0.6874 -0.5021
  657TIP3    H226167   6.278   4.367   7.716 -1.0332  0.2007  2.4869
  658TIP3   OH226168   6.958   3.540   9.222  0.7304  0.2464  0.2608
  658TIP3    H126169   6.970   3.591   9.143  1.3744  0.9262  0.7917
  658TIP3    H226170   7.029   3.476   9.221  1.2370  0.8020  0.7128
  659TIP3   OH226171   4.058   4.532   1.251 -0.5060  0.0199 -0.2637
  659TIP3    H126172   4.022   4.453   1.291  2.0785 -0.4846  1.2693
  659TIP3    H226173   4.117   4.500   1.183 -0.1446  0.6844 -0.2696
  660TIP3   OH226174   0.426   5.966   9.618  0.2826 -0.1889  0.2128
  660TIP3    H126175   0.421   6.027   9.544  0.2383 -2.0407 -1.3924
  660TIP3    H226176   0.345   5.980   9.666  0.4318  1.2335  0.0804
  661TIP3   OH226177   7.126   3.003   9.224  0.3297 -0.4150 -0.3011
  661TIP3    H126178   7.099   2.913   9.207  1.2569 -1.1079  1.5738
  661TIP3    H226179   7.044   3.051   9.238 -0.1484 -1.1597 -0.5002
  662TIP3   OH226180   3.941   6.852   8.436  0.1920 -0.3429 -0.3315
  662TIP3    H126181   4.008   6.806   8.385  0.8519 -0.2935  0.4728
  662TIP3    H226182   3.883   6.783   8.468  2.1701 -0.8861  2.3448
  663TIP3   OH226183   7.043   3.333   0.489 -0.3088 -0.1741  0.1287
  663TIP3    H126184   7.098   3.298   0.558 -1.8187 -1.5302  0.7122
  663TIP3    H226185   7.098   3.397   0.444  0.5760  1.1041  2.8343
  664TIP3   OH226186   4.040   0.507   0.658 -0.1021 -0.0032  0.0398
  664TIP3    H126187   4.029   0.479   0.567  1.2717  0.5084 -0.3055
  664TIP3    H226188   4.134   0.523   0.667 -0.2776  0.3544  1.4365
  665TIP3   OH226189   7.186   1.868   1.402  0.0489  0.1296  0.2878
  665TIP3    H126190   7.275   1.855   1.434  0.8744  0.9869 -1.5446
  665TIP3    H226191   7.150   1.780   1.393  0.8873 -0.2396  0.5385
  666TIP3   OH226192   5.941   3.187   0.321 -0.3750 -0.0277 -0.1248
  666TIP3    H126193   5.922   3.171   0.414 -0.3131 -0.6020 -0.2085
  666TIP3    H226194   6.027   3.228   0.322  0.3048 -1.3973 -0.0067
  667TIP3   OH226195   1.856   6.660   0.736 -0.6654 -0.1506 -0.1023
  667TIP3    H126196   1.822   6.571   0.751 -3.3650  0.8579  0.2158
  667TIP3    H226197   1.849   6.673   0.641  1.4508 -0.8509 -0.4130
  668TIP3   OH226198   6.316   3.563   9.779 -0.1601 -0.4664  0.0104
  668TIP3    H126199   6.264   3.637   9.750  0.0654  0.2409  1.3417
  668TIP3    H226200   6.383   3.601   9.837  0.7460 -1.5524 -0.2796
  669TIP3   OH226201   0.199   2.336   0.631  0.7492  0.1833  0.1514
  669TIP3    H126202   0.170   2.422   0.660 -1.7744  0.2011 -2.0078
  669TIP3    H226203   0.155   2.275   0.690 -0.1598  0.3431 -0.3320
  670TIP3   OH226204   3.591   5.063   0.659  0.1570  0.2560  0.4036
  670TIP3    H126205   3.526   5.112   0.709 -0.5092  0.4091 -0.5762
  670TIP3    H226206   3.614   4.989   0.714 -2.4177 -0.9915 -0.0606
  671TIP3   OH226207   1.343   3.396   2.150  0.1043 -0.2869  0.3360
  671TIP3    H126208   1.330   3.309   2.186  0.1575 -0.0884  0.8421
  671TIP3    H226209   1.287   3.398   2.072  0.5226 -0.9543  0.0148
  672TIP3   OH226210   4.348   1.137   9.858 -0.2499 -0.4549  0.1797
  672TIP3    H126211   4.257   1.158   9.836  0.0855  0.8128 -0.0274
  672TIP3    H226212   4.341   1.087   9.940 -1.1477 -0.7070 -0.0344
  673TIP3   OH226213   6.032   1.013   1.768  0.5483 -1.0150  0.3449
  673TIP3    H126214   6.126   1.032   1.769  0.5125 -0.7652 -0.4057
  673TIP3    H226215   6.022   0.946   1.700  0.0961 -0.5658 -0.0304
  674TIP3   OH226216   2.796   1.749   8.161 -0.3110  0.0723  0.1958
  674TIP3    H126217   2.738   1.825   8.153 -1.0341 -0.5460 -0.6730
  674TIP3    H226218   2.756   1.696   8.231  0.5212  0.7501  1.2161
  675TIP3   OH226219   3.937   5.403   8.849 -0.4023 -0.4859  0.2636
  675TIP3    H126220   3.854   5.380   8.808  0.1444  0.0976 -1.2163
  675TIP3    H226221   3.921   5.489   8.887 -0.2560 -0.0114 -0.7235
  676TIP3   OH226222   1.205   1.591   0.532 -0.7002  0.1075 -0.3616
  676TIP3    H126223   1.151   1.627   0.462  0.0956  0.0683 -1.0155
  676TIP3    H226224   1.264   1.663   0.555  0.0123 -0.3382 -0.7562
  677TIP3   OH226225   3.933   0.122   0.451 -0.3636 -0.1779  0.3551
  677TIP3    H126226   4.013   0.173   0.456 -1.9550  2.6211 -0.4859
  677TIP3    H226227   3.963   0.031   0.447  2.8980  0.7872 -2.1537
  678TIP3   OH226228   4.321   0.175   2.010  0.0206 -0.0985  0.0766
  678TIP3    H126229   4.319   0.128   1.927 -1.5949  0.7528 -0.4177
  678TIP3    H226230   4.414   0.196   2.024  0.2953  0.0118 -1.6790
  679TIP3   OH226231   3.260   0.066   7.103 -0.1311  0.1330 -0.0384
  679TIP3    H126232   3.239   0.022   7.185  0.5073 -0.9149 -0.4164
  679TIP3    H226233   3.270   0.158   7.128 -0.8752 -0.0154  0.8808
  680TIP3   OH226234   3.873   2.452   1.720 -0.4181  0.3502 -0.2407
  680TIP3    H126235   3.865   2.469   1.814 -0.8775  1.1029 -0.4094
  680TIP3    H226236   3.956   2.494   1.695 -1.9842  3.3381 -0.8366
  681TIP3   OH226237   3.569   1.162   8.173 -0.0059  0.1307 -0.1700
  681TIP3    H126238   3.608   1.238   8.129 -0.2089  0.2401 -0.1637
  681TIP3    H226239   3.623   1.148   8.250  0.6971 -0.4070 -0.7429
  682TIP3   OH226240   3.252   5.136   6.609  0.3847 -0.3777 -0.4278
  682TIP3    H126241   3.300   5.198   6.663 -1.7256  0.1690  0.9413
  682TIP3    H226242   3.201   5.190   6.549 -2.8849 -0.4718  1.9598
  683TIP3   OH226243   3.213   3.064   2.049  0.3518 -0.2680  0.2435
  683TIP3    H126244   3.164   3.146   2.052  1.6180  0.5131  0.4469
  683TIP3    H226245   3.272   3.069   2.125  0.8738 -1.0839 -0.1007
  684TIP3   OH226246   1.613   5.403   7.743  0.3732  0.1909  0.1723
  684TIP3    H126247   1.611   5.310   7.766  1.4754 -0.0586 -0.6438
  684TIP3    H226248   1.521   5.426   7.728  0.0959 -0.7875  0.2933
  685TIP3   OH226249   2.390   2.756   7.957 -0.7196  0.5157  0.3226
  685TIP3    H126250   2.375   2.691   8.026  0.0767  0.4090  0.4108
  685TIP3    H226251   2.351   2.837   7.992  0.5426  0.7176  1.3749
  686TIP3   OH226252   2.695   0.601   1.517 -0.3571 -0.1477  0.1758
  686TIP3    H126253   2.744   0.594   1.599  0.1085  1.2704  0.0613
  686TIP3    H226254   2.744   0.665   1.466 -1.1912 -0.2646 -0.8048
  687TIP3   OH226255   2.339   4.915   9.538  0.8640  0.0438  0.1915
  687TIP3    H126256   2.268   4.910   9.475  1.9519  0.8526 -1.1618
  687TIP3    H226257   2.356   5.009   9.548  1.5971 -0.1290  0.6467
  688TIP3   OH226258   0.628   5.694   7.178 -0.0866 -0.1819 -0.1974
  688TIP3    H126259   0.639   5.602   7.201  1.0894 -0.2924 -1.0832
  688TIP3    H226260   0.709   5.717   7.133 -0.6703  1.0927 -0.6459
  689TIP3   OH226261   5.883   3.724   1.777  0.1170  0.3901 -0.2922
  689TIP3    H126262   5.975   3.727   1.804  0.4053  0.6344 -1.2823
  689TIP3    H226263   5.841   3.793   1.830  0.7364  1.0709 -0.6647
  690TIP3   OH226264   1.153   6.611   8.562 -0.4539  0.1111 -0.0337
  690TIP3    H126265   1.177   6.589   8.472  0.2170  0.0032  0.1705
  690TIP3    H226266   1.135   6.526   8.603  1.5621 -0.0628  0.5899
  691TIP3   OH226267   2.071   1.038   2.333  0.1994  0.2138 -0.3342
  691TIP3    H126268   1.989   1.079   2.303  0.7793  1.7860  0.1349
  691TIP3    H226269   2.042   0.962   2.385 -0.9166  0.0601 -1.1308
  692TIP3   OH226270   0.504   2.933   1.014 -0.4680  0.0112 -0.1127
  692TIP3    H126271   0.526   2.878   1.090 -1.3646  0.2516  0.3353
  692TIP3    H226272   0.413   2.960   1.030  0.1741  2.2103  0.0168
  693TIP3   OH226273   6.865   0.386   0.576  0.2717 -0.0738 -0.3009
  693TIP3    H126274   6.924   0.313   0.559  0.6291  0.1073  0.1442
  693TIP3    H226275   6.875   0.444   0.501 -0.6331 -0.8786 -1.0632
  694TIP3   OH226276   4.584   0.927   0.387  0.1101 -0.1412 -0.2739
  694TIP3    H126277   4.557   1.018   0.396  0.3912 -0.0158 -0.6951
  694TIP3    H226278   4.676   0.927   0.414  0.1318 -0.2879 -0.3496
  695TIP3   OH226279   2.141   7.253   8.691  0.1284  0.6759 -0.0260
  695TIP3    H126280   2.159   7.166   8.727 -0.3486  0.9781  0.9687
  695TIP3    H226281   2.227   7.295   8.685  0.1606  0.8277  1.3189
  696TIP3   OH226282   4.995   6.304   1.484 -0.0021 -0.8104  0.5256
  696TIP3    H126283   5.085   6.308   1.451 -0.3191 -1.1097 -0.3888
  696TIP3    H226284   4.960   6.392   1.470  0.5556 -0.2970  2.1183
  697TIP3   OH226285   2.396   6.279   6.635 -0.0232 -0.3452  0.4777
  697TIP3    H126286   2.354   6.324   6.562  0.7047 -0.3886  0.0165
  697TIP3    H226287   2.490   6.297   6.622  0.1100 -0.3651  1.3918
  698TIP3   OH226288   4.334   0.862   9.108 -0.7771  0.0920  0.0101
  698TIP3    H126289   4.243   0.833   9.100 -0.2952 -1.0991 -1.7654
  698TIP3    H226290   4.385   0.793   9.065  0.8570  1.3367 -0.1552
  699TIP3   OH226291   2.581   7.478   0.400 -0.3347 -0.0736 -0.3034
  699TIP3    H126292   2.545   7.506   0.317 -1.0501  2.0548  0.6639
  699TIP3    H226293   2.512   7.425   0.440 -1.1714  1.3253  0.1599
  700TIP3   OH226294   1.761   2.076   9.087  0.2386  0.0677 -0.2780
  700TIP3    H126295   1.832   2.129   9.051  0.3521  0.5207  0.5905
  700TIP3    H226296   1.802   2.020   9.152  0.0913 -1.0101 -1.0758
  701TIP3   OH226297   5.090   1.632   1.010  0.1206  0.0557  0.3050
  701TIP3    H126298   5.170   1.603   1.054  0.4461 -2.6924 -1.8915
  701TIP3    H226299   5.064   1.559   0.955  0.4557  3.4764 -5.1329
  702TIP3   OH226300   6.214   1.940   9.725  0.2792  0.0861  0.0389
  702TIP3    H126301   6.293   1.928   9.778  0.3059 -1.7294 -0.3617
  702TIP3    H226302   6.238   2.007   9.661  1.0631  0.4745  0.7193
  703TIP3   OH226303   4.962   7.078   8.146 -0.2038  0.3816 -0.6174
  703TIP3    H126304   4.926   7.089   8.058 -1.5762 -0.2400 -0.1709
  703TIP3    H226305   5.013   6.997   8.141 -0.9460 -0.0962 -0.6632
  704TIP3   OH226306   6.611   6.415   2.146  0.3461 -0.1225 -0.3214
  704TIP3    H126307   6.562   6.495   2.169  1.3005  1.0458 -2.1165
  704TIP3    H226308   6.649   6.386   2.229  0.2547  1.5081  0.3320
  705TIP3   OH226309   2.982   0.952   9.737  0.2760 -0.1831 -0.2382
  705TIP3    H126310   2.918   0.938   9.668  1.4426 -1.7367 -1.0501
  705TIP3    H226311   2.963   1.041   9.769 -2.1879 -0.5417 -0.4750
  706TIP3   OH226312   3.792   1.837   9.779  0.0329  0.9869 -0.6221
  706TIP3    H126313   3.850   1.763   9.763  1.4168  1.3890  2.0778
  706TIP3    H226314   3.704   1.800   9.768  0.6937 -0.9617  0.1447
  707TIP3   OH226315   3.749   4.238   1.828  0.1645  0.4164  0.6631
  707TIP3    H126316   3.695   4.160   1.840  0.4959  0.5543  3.9886
  707TIP3    H226317   3.838   4.204   1.814  0.0032  0.2024  0.1462
  708TIP3   OH226318   4.602   7.375   9.773 -0.4234  0.0303 -0.5031
  708TIP3    H126319   4.602   7.377   9.869  0.5848 -1.4910 -0.4336
  708TIP3    H226320   4.635   7.461   9.748 -2.1473  1.0415  0.4334
  709TIP3   OH226321   5.801   1.915   8.871  0.6092  0.5292 -0.0438
  709TIP3    H126322   5.850   1.959   8.801  0.2906 -2.5682 -2.4924
  709TIP3    H226323   5.751   1.848   8.825  0.7630 -2.0907  3.2385
  710TIP3   OH226324   1.709   3.955   8.212 -0.2249 -0.2747  0.1637
  710TIP3    H126325   1.785   3.921   8.165  0.0446 -0.7964  0.9579
  710TIP3    H226326   1.702   3.900   8.290 -1.8664 -0.7236 -0.2550
  711TIP3   OH226327   5.316   0.948   9.138 -0.3281  0.5386 -0.0570
  711TIP3    H126328   5.349   1.008   9.205  0.5346 -1.3446  1.2959
  711TIP3    H226329   5.233   0.917   9.172  0.7174 -1.4173  0.8394
  712TIP3   OH226330   4.108   7.299   0.920 -0.4800 -0.4611 -0.2799
  712TIP3    H126331   4.067   7.218   0.952  1.4642 -1.3461  0.1324
  712TIP3    H226332   4.159   7.272   0.844 -3.8769  1.3646 -3.5334
  713TIP3   OH226333   3.453   0.823   1.826  0.6887  0.1515 -0.4447
  713TIP3    H126334   3.451   0.916   1.847  0.1558 -0.0721  0.5351
  713TIP3    H226335   3.380   0.786   1.875  1.1291 -0.8485 -0.5339
  714TIP3   OH226336   0.694   6.151   9.436 -0.0223 -0.3634  0.1138
  714TIP3    H126337   0.762   6.159   9.503  2.2594 -2.7506 -1.7142
  714TIP3    H226338   0.658   6.239   9.427  2.7956  1.0097  1.2024
  715TIP3   OH226339   1.072   4.038   8.712  0.5144 -0.4284  0.4246
  715TIP3    H126340   1.155   4.083   8.696  1.7333 -2.3153  1.0224
  715TIP3    H226341   1.010   4.107   8.734  2.4491  0.8845  2.0876
  716TIP3   OH226342   1.112   0.548   9.630 -0.0068  0.0624 -0.1845
  716TIP3    H126343   1.197   0.551   9.587 -1.1236  0.2229 -2.5552
  716TIP3    H226344   1.102   0.457   9.657  0.7154 -0.0617 -0.3170
  717TIP3   OH226345   2.752   0.341   9.436 -0.4738 -0.0844  0.2055
  717TIP3    H126346   2.744   0.252   9.471  2.2460 -0.2505  0.6332
  717TIP3    H226347   2.766   0.328   9.342  2.1420 -0.3346  0.5664
  718TIP3   OH226348   0.038   0.280   9.144 -0.5571  0.5898  0.1006
  718TIP3    H126349   0.052   0.250   9.055 -0.2304  1.5857 -0.2040
  718TIP3    H226350  -0.053   0.255   9.164  0.1674 -2.0159  0.4936
  719TIP3   OH226351   6.342   7.108   8.828  0.1103 -0.2313  0.3468
  719TIP3    H126352   6.345   7.197   8.862  0.3325 -0.1663  0.1630
  719TIP3    H226353   6.419   7.066   8.865  1.5649  0.4525 -1.7177
  720TIP3   OH226354   1.874   4.867   9.288 -0.2334 -0.1932  0.6296
  720TIP3    H126355   1.874   4.962   9.299  0.3456 -0.0958 -0.0922
  720TIP3    H226356   1.782   4.844   9.280 -0.3527  0.3910  0.2048
  721TIP3   OH226357   3.637   1.672   8.697  0.1711 -0.3273 -0.0313
  721TIP3    H126358   3.690   1.592   8.690 -0.2552 -0.6212  0.0020
  721TIP3    H226359   3.673   1.719   8.771  0.4724 -0.4569 -0.0936
  722TIP3   OH226360   4.842   4.481   0.450  0.0059 -0.2267 -0.9534
  722TIP3    H126361   4.795   4.562   0.431 -1.2002 -0.8589 -0.7855
  722TIP3    H226362   4.895   4.464   0.372  0.4501  0.8283 -0.8979
  723TIP3   OH226363   3.812   3.713   0.758 -0.5036 -0.1371 -0.3803
  723TIP3    H126364   3.776   3.655   0.691 -0.8028 -0.7592  0.3128
  723TIP3    H226365   3.784   3.675   0.841 -2.2462  1.9575  0.0895
  724TIP3   OH226366   1.173   4.001   6.879  0.0106 -0.3297  0.2381
  724TIP3    H126367   1.123   4.067   6.831  0.4676 -0.3231 -0.2421
  724TIP3    H226368   1.154   3.919   6.834  1.7193 -0.0858 -1.0142
  725TIP3   OH226369   4.475   2.157   1.792 -0.6763  0.2418  0.1983
  725TIP3    H126370   4.488   2.112   1.875  0.7001 -0.2154 -0.2477
  725TIP3    H226371   4.547   2.127   1.736 -1.2989  0.9072 -1.0063
  726TIP3   OH226372   1.616   2.921   8.050 -0.0481  0.4342  0.0007
  726TIP3    H126373   1.581   2.879   7.971 -1.1161  1.4795 -0.1145
  726TIP3    H226374   1.584   2.866   8.121  1.8143 -1.1365 -0.2896
  727TIP3   OH226375   0.803   7.045   7.119  0.0875 -0.2402 -0.0243
  727TIP3    H126376   0.790   6.999   7.036 -2.6827 -0.2484  0.3382
  727TIP3    H226377   0.720   7.090   7.135  1.4208  1.8544  1.5131
  728TIP3   OH226378   5.627   3.408   0.094 -0.3334  0.2484  0.9889
  728TIP3    H126379   5.660   3.462   0.022 -0.0224 -1.1992 -0.0107
  728TIP3    H226380   5.532   3.402   0.078 -0.2667 -0.0602  0.6838
  729TIP3   OH226381   3.770   3.356   0.860  0.2945 -0.7349  0.0532
  729TIP3    H126382   3.762   3.441   0.904  2.0378 -0.4567 -0.1062
  729TIP3    H226383   3.686   3.312   0.878 -1.3588  1.6402 -1.2665
  730TIP3   OH226384   4.903   1.103   8.940 -0.5960  0.1775  0.1753
  730TIP3    H126385   4.988   1.097   8.897 -0.1391  1.7258  0.7997
  730TIP3    H226386   4.846   1.046   8.888  0.6704 -0.4198 -0.6048
  731TIP3   OH226387   4.060   2.349   8.231 -0.3826 -0.3413  0.0358
  731TIP3    H126388   3.967   2.362   8.212 -0.0238 -1.0829 -2.6587
  731TIP3    H226389   4.064   2.261   8.271 -0.9209  0.2486  1.4666
  732TIP3   OH226390   5.205   1.345   0.893  0.5327 -0.7180 -0.9057
  732TIP3    H126391   5.293   1.347   0.854  2.4817  4.0439  2.7371
  732TIP3    H226392   5.218   1.310   0.981 -1.1601  0.1830 -0.2487
  733TIP3   OH226393   2.781   4.432   9.288  0.9892  0.3103  0.1499
  733TIP3    H126394   2.694   4.425   9.328  1.1667  0.4346  0.5646
  733TIP3    H226395   2.836   4.375   9.341  1.3941  1.0687  0.5594
  734TIP3   OH226396   5.845   3.531   8.294  0.3246 -0.2257 -0.0799
  734TIP3    H126397   5.804   3.489   8.371  0.3221  0.6555  0.4133
  734TIP3    H226398   5.927   3.566   8.327  0.3416  0.1295 -0.4957
  735TIP3   OH226399   2.397   1.703   0.407 -0.3730 -0.4086  0.3597
  735TIP3    H126400   2.454   1.779   0.421  1.2583 -1.8290  1.9655
  735TIP3    H226401   2.399   1.656   0.490 -0.4291 -2.8094 -0.9151
  736TIP3   OH226402   2.629   2.367   3.173 -0.4895  0.0656  0.2939
  736TIP3    H126403   2.616   2.446   3.121 -0.3115 -0.1280 -0.0443
  736TIP3    H226404   2.697   2.390   3.236  1.5516 -0.6136 -1.5298
  737TIP3   OH226405   5.121   7.280   0.878  0.1073 -0.3815 -0.4524
  737TIP3    H126406   5.121   7.184   0.879 -1.8876 -0.4205 -1.0647
  737TIP3    H226407   5.213   7.303   0.894  0.2097 -2.3351  2.7140
  738TIP3   OH226408   6.669   2.939   9.407  0.3940  0.0711 -0.5535
  738TIP3    H126409   6.745   2.998   9.411 -1.1450  2.1145  2.3517
  738TIP3    H226410   6.594   2.997   9.417 -1.3834 -2.1622 -0.2523
  739TIP3   OH226411   6.937   4.260   1.029 -0.0576 -1.0276  0.2341
  739TIP3    H126412   6.925   4.172   1.062  1.7847 -1.2282  0.5010
  739TIP3    H226413   7.030   4.264   1.004  0.0075  0.9328  0.5733
  740TIP3   OH226414   6.131   1.275   1.513  0.5838 -0.0463 -0.3662
  740TIP3    H126415   6.038   1.270   1.532  0.5120  1.0582 -0.3972
  740TIP3    H226416   6.166   1.192   1.545 -0.7057 -1.3226 -2.0594
  741TIP3   OH226417   1.780   0.344   1.380  0.3290  0.0345  0.0446
  741TIP3    H126418   1.703   0.360   1.326  0.6541 -0.1724 -0.4820
  741TIP3    H226419   1.845   0.406   1.349  0.6381 -0.3346 -0.0538
  742TIP3   OH226420   2.181   2.876   6.577  0.9469  0.1205  0.3702
  742TIP3    H126421   2.226   2.876   6.492  0.1407  0.1887 -0.0682
  742TIP3    H226422   2.195   2.965   6.611 -1.1908  1.0883 -1.0621
  743TIP3   OH226423   2.532   6.067   8.080  0.6892  0.8789  0.2905
  743TIP3    H126424   2.538   5.972   8.092 -1.0143  0.5665 -0.9784
  743TIP3    H226425   2.488   6.099   8.159  0.3700  0.4736  0.2802
  744TIP3   OH226426   0.346   2.391   7.502 -0.3070  0.0764  0.1967
  744TIP3    H126427   0.404   2.422   7.432 -0.9081  0.3161 -0.2069
  744TIP3    H226428   0.334   2.467   7.559 -0.3472  0.0748  0.1907
  745TIP3   OH226429   4.267   4.788   9.388 -0.2645 -0.0121  0.2829
  745TIP3    H126430   4.294   4.697   9.376 -0.2894 -0.4136  2.8041
  745TIP3    H226431   4.171   4.784   9.394 -0.3016  0.2643 -0.0447
  746TIP3   OH226432   4.925   4.260   0.650 -0.0337  0.2017  0.4292
  746TIP3    H126433   4.928   4.351   0.681  1.1749 -0.1439  1.4057
  746TIP3    H226434   4.900   4.267   0.557 -1.0708  1.4420  0.7761
  747TIP3   OH226435   3.990   5.684   7.200 -0.2771  0.4007  0.7653
  747TIP3    H126436   4.051   5.667   7.128 -0.3148 -0.1839  0.8626
  747TIP3    H226437   4.031   5.755   7.250  0.6500 -0.4092  1.1953
  748TIP3   OH226438   6.116   6.372   7.801  0.4020 -0.3364  0.4981
  748TIP3    H126439   6.203   6.402   7.777  0.2394  1.5705  2.0740
  748TIP3    H226440   6.131   6.303   7.866  0.7125 -1.3412 -0.5942
  749TIP3   OH226441   2.764   2.321   1.979 -0.5017  0.2470  0.1403
  749TIP3    H126442   2.777   2.226   1.972 -0.3480  0.1500  1.4712
  749TIP3    H226443   2.852   2.357   1.981 -0.4874  0.1880  2.0899
  750TIP3   OH226444   5.088   0.423   0.700  1.0537  0.7464 -0.1357
  750TIP3    H126445   4.998   0.397   0.682  0.9945  0.8059  0.0674
  750TIP3    H226446   5.121   0.356   0.760  1.8896 -0.5592 -1.9814
  751TIP3   OH226447   1.139   6.829   1.777 -0.2580  0.1956  0.2660
  751TIP3    H126448   1.179   6.742   1.774  0.3903  0.4536  1.0315
  751TIP3    H226449   1.189   6.876   1.844  0.8282  1.8653 -1.5947
  752TIP3   OH226450   3.052   1.880   8.915 -0.0892 -0.0666 -0.3274
  752TIP3    H126451   3.144   1.886   8.889  0.2147  0.2866  0.7795
  752TIP3    H226452   3.004   1.895   8.834  0.8251  0.6960 -0.7559
  753TIP3   OH226453   2.249   0.229   2.733  0.3374 -0.5395  0.1582
  753TIP3    H126454   2.189   0.173   2.684 -1.2882  0.2468  1.1255
  753TIP3    H226455   2.234   0.317   2.697  0.7999 -0.3051  0.5236
  754TIP3   OH226456   3.356   2.741   9.444 -0.1149 -0.0041 -0.0995
  754TIP3    H126457   3.379   2.791   9.365  2.7447 -1.3800 -0.2864
  754TIP3    H226458   3.349   2.807   9.513 -3.1260  1.2861 -1.4507
  755TIP3   OH226459   4.772   3.612   1.776 -0.3615 -0.0953 -0.8025
  755TIP3    H126460   4.819   3.553   1.835  0.4149  0.1698 -1.1343
  755TIP3    H226461   4.783   3.699   1.815  0.4165  0.1257 -1.4684
  756TIP3   OH226462   3.732   1.697   7.604  0.6248 -0.0582  0.0414
  756TIP3    H126463   3.735   1.690   7.699  1.3692 -2.4806 -0.0917
  756TIP3    H226464   3.824   1.695   7.577  0.3827 -1.6121 -0.7925
  757TIP3   OH226465   2.266   5.992   8.902  0.6416  0.0697 -0.1010
  757TIP3    H126466   2.241   5.912   8.855  1.7885 -0.7680  0.6613
  757TIP3    H226467   2.197   6.004   8.967  0.6206 -0.4658 -0.0229
  758TIP3   OH226468   7.369   5.291   9.510  0.3970  0.1140 -0.7121
  758TIP3    H126469   7.440   5.347   9.480 -0.4562  0.5605 -1.9877
  758TIP3    H226470   7.357   5.226   9.441  0.9783 -1.3288  0.4817
  759TIP3   OH226471   2.975   1.362   1.535 -0.0165  0.1500  0.7381
  759TIP3    H126472   3.015   1.359   1.622 -0.3804  0.1429  0.9070
  759TIP3    H226473   3.049   1.378   1.475  0.0893  1.3701  1.1652
  760TIP3   OH226474   1.231   0.268   2.210  0.1653  0.3647  0.3065
  760TIP3    H126475   1.202   0.180   2.189 -0.5767  0.6476  0.0985
  760TIP3    H226476   1.292   0.257   2.283 -1.7488 -0.1458  1.9322
  761TIP3   OH226477   0.113   0.926   2.631  0.0464  0.4549  0.0378
  761TIP3    H126478   0.058   0.994   2.670 -0.9811 -0.1616 -0.2878
  761TIP3    H226479   0.201   0.945   2.662 -0.5915  0.4797  1.9919
  762TIP3   OH226480   1.304   2.461   0.921 -0.2422 -0.1135 -0.1016
  762TIP3    H126481   1.299   2.403   0.998  1.4099 -0.3202 -0.1083
  762TIP3    H226482   1.269   2.545   0.952 -0.0932 -0.3456  0.7193
  763TIP3   OH226483   5.366   3.574   0.431 -0.4898  0.1249  0.0105
  763TIP3    H126484   5.328   3.514   0.495 -1.6973  3.1332  2.3160
  763TIP3    H226485   5.453   3.595   0.466 -0.4652  0.4863 -0.2586
  764TIP3   OH226486   6.917   3.151   7.983 -0.8422 -0.8938 -0.3949
  764TIP3    H126487   6.875   3.201   8.053 -0.3940  1.4439 -1.7168
  764TIP3    H226488   6.920   3.061   8.017  0.7803  0.3512  3.2771
  765TIP3   OH226489   6.023   6.280   9.605  0.2949  0.9079 -0.1521
  765TIP3    H126490   5.975   6.270   9.687  0.4532  0.1939 -0.1403
  765TIP3    H226491   6.113   6.258   9.627  0.1772 -0.1746 -0.7050
  766TIP3   OH226492   1.995   6.892   8.625 -0.1390  0.1506  0.9004
  766TIP3    H126493   1.962   6.981   8.616  0.8719  0.5753  1.2782
  766TIP3    H226494   2.084   6.895   8.590  0.1043 -0.5826  1.4210
  767TIP3   OH226495   0.404   7.239   1.116  0.2142 -0.0723 -0.0597
  767TIP3    H126496   0.410   7.230   1.021  0.0850  1.3447 -0.2270
  767TIP3    H226497   0.465   7.174   1.151  0.3746 -0.5034 -1.1061
  768TIP3   OH226498   6.455   4.089   1.899 -0.2753  0.0822  0.0606
  768TIP3    H126499   6.527   4.038   1.935  0.1316  0.2100 -0.5607
  768TIP3    H226500   6.431   4.044   1.818 -0.4612  0.4017 -0.0650
  769TIP3   OH226501   0.828   0.786   1.648 -0.2362 -0.2284 -0.2099
  769TIP3    H126502   0.803   0.782   1.556  0.9811  2.4810 -0.7639
  769TIP3    H226503   0.924   0.779   1.647 -0.1959  0.0372  0.8249
  770TIP3   OH226504   6.864   5.770   7.392  0.2142  0.0832  0.6561
  770TIP3    H126505   6.837   5.860   7.374 -0.2730  0.2208  1.9516
  770TIP3    H226506   6.783   5.720   7.384  0.0131  0.1250  2.1636
  771TIP3   OH226507   6.185   4.090   0.017  0.0840  0.4629  0.2549
  771TIP3    H126508   6.089   4.094   0.013  0.0539  0.9204  1.1119
  771TIP3    H226509   6.214   4.167  -0.033 -0.0158  0.6878  0.5397
  772TIP3   OH226510   6.509   5.379   2.004  0.1899  0.1382  0.5337
  772TIP3    H126511   6.600   5.408   2.008  0.4553 -0.3341 -1.2952
  772TIP3    H226512   6.514   5.285   1.992 -0.5351  0.1177  0.3270
  773TIP3   OH226513   6.647   2.080   0.945  0.3261 -0.1386 -0.4707
  773TIP3    H126514   6.724   2.083   1.002  0.1304  2.4850 -0.2054
  773TIP3    H226515   6.582   2.029   0.994  1.7138 -2.0678 -0.5438
  774TIP3   OH226516   7.429   3.122   2.288  0.0949 -0.0135 -0.6968
  774TIP3    H126517   7.457   3.094   2.375 -0.1954 -0.4282 -0.7345
  774TIP3    H226518   7.387   3.207   2.303 -1.0815 -0.6513 -0.2327
  775TIP3   OH226519   2.183   1.733   8.421  0.0055 -0.2679 -0.2152
  775TIP3    H126520   2.270   1.763   8.444 -0.2256 -0.1349  0.5047
  775TIP3    H226521   2.137   1.724   8.504 -0.5976 -0.5621 -0.5653
  776TIP3   OH226522   2.630   5.846   2.058  0.2779  0.4104  0.3369
  776TIP3    H126523   2.538   5.821   2.071  0.2882 -0.4446 -1.0200
  776TIP3    H226524   2.630   5.896   1.976  1.1329 -0.4453 -0.2167
  777TIP3   OH226525   2.394   6.376   7.229  0.1920 -0.0086 -0.1455
  777TIP3    H126526   2.427   6.437   7.295  1.6559 -1.2305  0.3318
  777TIP3    H226527   2.345   6.430   7.168  1.1445  1.5918  0.4416
  778TIP3   OH226528   1.288   7.367   9.516 -0.5475  0.3081 -0.3436
  778TIP3    H126529   1.208   7.354   9.567 -2.7083  2.4758 -2.8706
  778TIP3    H226530   1.319   7.454   9.541 -0.0236  0.2251 -0.6916
  779TIP3   OH226531   6.978   4.749   1.238  0.2525 -0.0870 -0.0802
  779TIP3    H126532   7.028   4.828   1.258  1.4707 -0.6785 -0.6925
  779TIP3    H226533   7.020   4.680   1.289 -0.8996 -0.3389  0.5715
  780TIP3   OH226534   5.479   0.295   9.526  0.1479  0.0145 -0.3244
  780TIP3    H126535   5.511   0.266   9.441 -0.2393  0.8289 -0.7605
  780TIP3    H226536   5.398   0.342   9.506  0.1000  0.2889  0.4800
  781TIP3   OH226537   5.324   1.223   9.562  0.1507  0.3473  0.1212
  781TIP3    H126538   5.382   1.300   9.557 -1.2906  1.5641  1.2160
  781TIP3    H226539   5.383   1.150   9.582  1.4848  1.2632 -0.2801
  782TIP3   OH226540   1.037   3.459   9.473 -0.0795 -0.3436 -0.0600
  782TIP3    H126541   0.968   3.462   9.406 -1.3228  2.3676  1.2091
  782TIP3    H226542   1.007   3.393   9.535  0.0078 -1.3322 -1.0325
  783TIP3   OH226543   1.350   7.001   0.157  0.2681  0.6034 -0.3106
  783TIP3    H126544   1.274   6.943   0.166 -0.3471  1.3984 -0.2919
  783TIP3    H226545   1.423   6.942   0.138 -0.7120 -0.0578 -2.3875
  784TIP3   OH226546   3.575   1.386   9.383  0.0119 -0.4578  0.2019
  784TIP3    H126547   3.513   1.459   9.393  0.7032 -0.0075  1.3364
  784TIP3    H226548   3.540   1.336   9.309 -1.0786  0.4133  0.0916
  785TIP3   OH226549   1.339   2.418   8.801 -0.5060 -0.4261 -0.4319
  785TIP3    H126550   1.317   2.384   8.714 -0.9408  0.3708 -0.6413
  785TIP3    H226551   1.433   2.438   8.795 -0.5282 -0.3950 -0.7128
  786TIP3   OH226552   3.968   5.343   6.884  0.1329 -0.4278  0.8488
  786TIP3    H126553   3.959   5.377   6.795 -1.6373  2.6842  2.0838
  786TIP3    H226554   3.931   5.254   6.879  2.2573 -1.3192 -1.9160
  787TIP3   OH226555   4.247   1.559   8.973 -0.0291  0.9182 -0.2261
  787TIP3    H126556   4.171   1.611   9.001 -0.6210 -0.1364  0.1725
  787TIP3    H226557   4.300   1.551   9.051  0.7504  2.0328 -0.6105
  788TIP3   OH226558   2.529   3.770   2.511  0.5673  0.0987  0.0162
  788TIP3    H126559   2.606   3.717   2.493 -1.0920 -1.9444 -1.6126
  788TIP3    H226560   2.502   3.804   2.426  0.3258  1.8316  0.7298
  789TIP3   OH226561   4.355   0.326   1.020  0.0794  0.0406  0.6530
  789TIP3    H126562   4.374   0.290   1.106  0.9658 -1.3832 -0.0880
  789TIP3    H226563   4.333   0.249   0.967  1.5721  0.5936 -0.8797
  790TIP3   OH226564   1.222   0.484   9.242 -0.5099 -0.1815 -0.4627
  790TIP3    H126565   1.241   0.542   9.316 -1.5554  0.9890 -1.0631
  790TIP3    H226566   1.239   0.538   9.165  1.2247 -1.5929 -1.1349
  791TIP3   OH226567   5.294   3.913   0.026  0.5277  0.1217  0.2822
  791TIP3    H126568   5.348   3.984   0.062 -0.6414  0.6128  1.1342
  791TIP3    H226569   5.320   3.835   0.075  0.3784  0.3819  0.7833
  792TIP3   OH226570   2.391   3.866   2.263  0.2747  0.1421  0.1852
  792TIP3    H126571   2.357   3.847   2.175  1.6524  0.5384 -0.4655
  792TIP3    H226572   2.461   3.930   2.248 -0.5594  1.4953  1.7531
  793TIP3   OH226573   3.283   5.441   1.878  0.1879  0.4161 -0.0677
  793TIP3    H126574   3.211   5.493   1.914  0.0964  0.7465 -0.7175
  793TIP3    H226575   3.337   5.419   1.954 -0.1596  0.8521  0.3106
  794TIP3   OH226576   1.963   3.633   0.959 -0.8535  0.1201 -0.0807
  794TIP3    H126577   1.997   3.706   1.012 -1.5949 -0.3635  1.0834
  794TIP3    H226578   1.944   3.564   1.022 -2.2725 -0.2776 -0.9114
  795TIP3   OH226579   4.449   3.261   1.348  0.2028 -0.6263  0.2006
  795TIP3    H126580   4.392   3.319   1.298  0.7500 -0.5730 -0.3697
  795TIP3    H226581   4.403   3.248   1.431 -0.5202 -0.3907 -0.1559
  796TIP3   OH226582   1.845   6.333   8.186 -0.0142  0.1941 -0.3195
  796TIP3    H126583   1.809   6.246   8.202  0.2977  0.0899 -0.1896
  796TIP3    H226584   1.784   6.392   8.231 -0.1049  0.0287 -0.2238
  797TIP3   OH226585   0.392   3.773   8.846  0.5406 -0.3212  0.1200
  797TIP3    H126586   0.361   3.701   8.790  0.4483 -0.0582 -0.1705
  797TIP3    H226587   0.456   3.819   8.792 -0.6121  0.8153 -0.3295
  798TIP3   OH226588   3.210   2.075   9.275  0.4003 -0.2948  0.6491
  798TIP3    H126589   3.228   2.142   9.342 -1.0672 -0.8986  1.7126
  798TIP3    H226590   3.173   2.125   9.202  1.4600  0.3040  0.4992
  799TIP3   OH226591   4.117   5.212   8.344  0.1561  0.2150  0.0951
  799TIP3    H126592   4.027   5.195   8.373  1.0819 -0.3044  2.9743
  799TIP3    H226593   4.156   5.125   8.335  0.3602  0.4324 -1.3785
  800TIP3   OH226594   6.976   6.825   0.974  0.2886 -0.2090 -0.4326
  800TIP3    H126595   7.053   6.832   0.916 -0.1655  0.5529 -0.9624
  800TIP3    H226596   6.903   6.853   0.919 -0.0915  0.9975  0.6486
  801TIP3   OH226597   4.352   6.720   0.931 -0.5697  0.3417 -0.2474
  801TIP3    H126598   4.369   6.729   0.837  0.9523  1.5884  0.0972
  801TIP3    H226599   4.439   6.715   0.970 -1.1934 -0.6737  1.0749
  802TIP3   OH226600   1.728   7.197   2.529  0.1588  0.6266  0.2087
  802TIP3    H126601   1.640   7.181   2.493 -0.2024  1.6862  0.5853
  802TIP3    H226602   1.725   7.158   2.617 -0.4809  2.0578  0.8466
  803TIP3   OH226603   7.368   5.883   0.833 -0.0276 -0.1418  0.4456
  803TIP3    H126604   7.376   5.976   0.851 -0.7700  0.2267 -0.9866
  803TIP3    H226605   7.414   5.840   0.906  0.0758  1.3149  1.2707
  804TIP3   OH226606   0.652   6.997   9.963  0.3221  0.0988  0.8630
  804TIP3    H126607   0.624   7.076   9.916  1.3988  0.3727  0.6632
  804TIP3    H226608   0.614   7.007  10.050 -1.1292 -0.0892  0.2850
  805TIP3   OH226609   1.895   0.277   6.916  0.3928 -0.0872  0.2213
  805TIP3    H126610   1.902   0.264   7.010  1.0401  1.4885  0.4238
  805TIP3    H226611   1.804   0.303   6.902  0.4572  0.3024  0.5080
  806TIP3   OH226612   6.259   2.907   8.437  0.1107 -0.8069  0.1515
  806TIP3    H126613   6.343   2.862   8.438  0.6407  0.1160  1.7763
  806TIP3    H226614   6.195   2.838   8.454  0.4688 -1.5905 -1.5419
  807TIP3   OH226615   4.114   3.758   0.627 -0.3057 -0.2228  0.4759
  807TIP3    H126616   4.026   3.794   0.639 -0.7286 -0.2837 -1.9136
  807TIP3    H226617   4.131   3.709   0.708 -2.0390  0.6117  1.4101
  808TIP3   OH226618   6.380   0.525   0.076 -0.8634  0.2783  0.3357
  808TIP3    H126619   6.337   0.447   0.110 -1.8525  1.1413  1.1249
  808TIP3    H226620   6.442   0.491   0.010 -0.4082 -1.2398  1.4889
  809TIP3   OH226621   7.138   0.954   0.574  1.1244 -0.0257 -0.2355
  809TIP3    H126622   7.088   0.998   0.642 -0.9121  0.1185 -1.7186
  809TIP3    H226623   7.201   0.899   0.621  1.8423  2.2860  1.6703
  810TIP3   OH226624   2.975   2.256   9.478 -0.5894 -0.2079  0.5717
  810TIP3    H126625   2.932   2.293   9.401 -0.2970 -0.1230  0.4446
  810TIP3    H226626   3.069   2.263   9.458 -0.4871  0.6233  1.3061
  811TIP3   OH226627   2.249   0.124   1.986 -0.0748  0.2983  0.2054
  811TIP3    H126628   2.286   0.148   2.071  2.8792 -0.8856 -0.5958
  811TIP3    H226629   2.302   0.171   1.922  0.9124 -2.3488 -1.0839
  812TIP3   OH226630   1.183   5.614   9.935  0.1662  0.4609  0.2845
  812TIP3    H126631   1.121   5.541   9.929  0.8258 -0.0078 -1.1904
  812TIP3    H226632   1.137   5.687   9.893 -0.1040  0.6274  0.8636
  813TIP3   OH226633   7.110   5.954   7.490  0.4050 -0.1506  0.0440
  813TIP3    H126634   7.194   5.929   7.451 -0.2839 -0.9678 -0.9366
  813TIP3    H226635   7.046   5.895   7.451 -0.6458  0.4742  0.7695
  814TIP3   OH226636   4.045   2.701   2.517  0.7700  0.2091 -0.6918
  814TIP3    H126637   4.014   2.624   2.470  1.0975 -0.1220 -0.3754
  814TIP3    H226638   4.121   2.670   2.567  1.4022  0.9292 -1.1933
  815TIP3   OH226639   3.470   5.550   9.861  0.1859  0.3356 -0.1688
  815TIP3    H126640   3.530   5.534   9.934  0.9296  0.6692 -0.6882
  815TIP3    H226641   3.509   5.625   9.815 -0.9718  0.9591 -0.1674
  816TIP3   OH226642   3.461   3.213   8.167  0.1220  0.5105 -0.3772
  816TIP3    H126643   3.462   3.133   8.218  0.6443  1.2237  0.7683
  816TIP3    H226644   3.538   3.207   8.110 -1.5783 -1.2267 -2.6642
  817TIP3   OH226645   2.272   2.251   1.277 -0.8133 -0.1767  0.1270
  817TIP3    H126646   2.324   2.310   1.222  0.1255  0.0902  1.2383
  817TIP3    H226647   2.294   2.163   1.246 -1.3125  0.0067 -0.7720
  818TIP3   OH226648   5.236   4.378   0.323 -0.0060  0.0807 -0.2449
  818TIP3    H126649   5.308   4.369   0.385  0.0557  3.6834  0.3899
  818TIP3    H226650   5.278   4.383   0.237  0.7118  2.9048  0.1757
  819TIP3   OH226651   5.927   3.013   0.526 -0.0618  0.2003  0.4451
  819TIP3    H126652   5.855   2.955   0.552 -0.1489 -0.1169 -0.4843
  819TIP3    H226653   6.003   2.955   0.519 -0.5815 -0.2813 -2.6049
  820TIP3   OH226654   0.433   1.917   8.405 -0.2990 -0.1709 -0.1653
  820TIP3    H126655   0.515   1.934   8.452 -0.0819  0.5593 -0.7743
  820TIP3    H226656   0.435   1.979   8.332 -2.4067  1.4322  1.0076
  821TIP3   OH226657   7.191   1.091   7.456 -0.2917  0.5080 -0.0409
  821TIP3    H126658   7.134   1.068   7.383 -1.7017  0.7399  0.9538
  821TIP3    H226659   7.267   1.033   7.446  0.0667  1.2738 -2.2811
  822TIP3   OH226660   3.923   7.375   7.247 -0.3168 -0.3187 -0.1847
  822TIP3    H126661   3.874   7.457   7.234  0.2510  0.1876  0.7335
  822TIP3    H226662   4.003   7.388   7.196 -0.3732 -0.4350 -0.3017
  823TIP3   OH226663   2.782   6.136   1.020  0.6075 -0.0570  0.1006
  823TIP3    H126664   2.715   6.196   0.987  1.6900  0.5998 -0.9825
  823TIP3    H226665   2.859   6.191   1.033  1.8022 -1.2726 -1.4577
  824TIP3   OH226666   5.423   5.179   2.681  0.2431  0.4088  0.3233
  824TIP3    H126667   5.485   5.237   2.636 -0.1642  0.4668 -0.1679
  824TIP3    H226668   5.429   5.205   2.773  0.4270  0.9001  0.1780
  825TIP3   OH226669   4.838   2.742   9.388 -0.5367  0.5161 -0.8133
  825TIP3    H126670   4.775   2.676   9.416 -0.4901  1.2054  1.0818
  825TIP3    H226671   4.848   2.727   9.294 -3.7228  0.5592 -1.2739
  826TIP3   OH226672   2.837   6.525   2.138  0.9004 -0.4128  0.2110
  826TIP3    H126673   2.913   6.583   2.139  0.1084  0.7021  2.4128
  826TIP3    H226674   2.765   6.579   2.172 -0.6600 -1.7118 -0.8911
  827TIP3   OH226675   3.942   7.183   1.805 -0.5538 -0.7185  0.2139
  827TIP3    H126676   3.875   7.179   1.736 -1.1940  0.9053  0.6886
  827TIP3    H226677   4.010   7.122   1.776 -0.1264  0.8943 -2.5998
  828TIP3   OH226678   4.340   7.307   7.685 -0.5917 -0.0782 -0.0422
  828TIP3    H126679   4.427   7.322   7.721 -0.7818  1.4682 -0.1558
  828TIP3    H226680   4.355   7.252   7.608  0.3267  0.4668 -0.2693
  829TIP3   OH226681   6.358   4.752   7.405  0.1889 -0.1063 -0.3567
  829TIP3    H126682   6.333   4.762   7.497  0.4986  1.4489 -0.4140
  829TIP3    H226683   6.450   4.777   7.402 -0.0191  0.6299 -1.1954
  830TIP3   OH226684   7.030   1.191   7.680 -0.0133  0.1789 -0.5167
  830TIP3    H126685   7.040   1.129   7.752 -2.1887  1.4864  1.0474
  830TIP3    H226686   7.088   1.158   7.612  4.0162  0.1156  2.5761
  831TIP3   OH226687   5.271   4.151   0.688 -0.0623 -0.0581  0.5080
  831TIP3    H126688   5.257   4.114   0.775 -0.1739  0.6985  0.8145
  831TIP3    H226689   5.210   4.103   0.632 -0.4390 -0.1182  0.9601
  832TIP3   OH226690   2.974   2.069   7.394  0.4566 -0.4846 -0.1112
  832TIP3    H126691   2.885   2.056   7.425  0.4432 -0.4737 -0.1455
  832TIP3    H226692   2.975   2.160   7.363  0.0626 -0.9374 -1.5110
  833TIP3   OH226693   6.527   3.857   7.341  0.2128 -0.7224  0.0056
  833TIP3    H126694   6.497   3.901   7.261 -0.0398 -1.3910 -0.2804
  833TIP3    H226695   6.517   3.922   7.410 -0.8095 -0.5553 -0.2857
  834TIP3   OH226696   1.341   7.172   7.153  0.0235 -0.5426 -0.3192
  834TIP3    H126697   1.245   7.171   7.158 -0.1568 -1.8415 -2.6786
  834TIP3    H226698   1.361   7.137   7.066  2.6740 -0.8621  0.3350
  835TIP3   OH226699   5.035   0.004   2.118  0.5673 -0.4401 -0.3570
  835TIP3    H126700   4.989   0.062   2.178  3.1563  0.0407  1.2958
  835TIP3    H226701   5.022  -0.084   2.155 -1.0477 -0.6757 -1.3448
  836TIP3   OH226702   1.554   5.428   7.409  0.7687 -0.4511 -0.1657
  836TIP3    H126703   1.528   5.362   7.474  0.5828 -1.3257 -1.1022
  836TIP3    H226704   1.641   5.400   7.381  0.8483 -0.0748 -0.2935
  837TIP3   OH226705   2.195   4.498   2.005  0.0975 -0.8045 -0.1953
  837TIP3    H126706   2.111   4.461   2.030  0.1952 -0.3630  0.8853
  837TIP3    H226707   2.173   4.574   1.951 -0.1628 -1.2542 -0.7204
  838TIP3   OH226708   3.162   4.986   7.894 -0.1739  0.4511  0.0521
  838TIP3    H126709   3.183   5.076   7.870  1.9871  0.0418  0.2484
  838TIP3    H226710   3.201   4.932   7.825 -1.9699 -0.3640 -0.4052
  839TIP3   OH226711   5.516   3.672   1.857 -0.6372  0.8967 -0.0305
  839TIP3    H126712   5.550   3.711   1.777  1.2115  1.5166  1.0030
  839TIP3    H226713   5.548   3.582   1.856  0.9466  1.4301  0.8591
  840TIP3   OH226714   6.604   1.126   9.614 -0.1639 -0.5114 -0.4985
  840TIP3    H126715   6.592   1.067   9.539  0.1045  0.7658 -1.5779
  840TIP3    H226716   6.699   1.135   9.623 -0.1950 -0.6235 -0.0142
  841TIP3   OH226717   0.040   4.701   9.410 -0.1225 -0.2149  0.6884
  841TIP3    H126718  -0.001   4.631   9.461  0.2694 -0.3415  0.8297
  841TIP3    H226719  -0.033   4.744   9.365 -0.4585 -0.1667  1.2764
  842TIP3   OH226720   3.455   1.560   2.261  0.2456  0.4166  0.5097
  842TIP3    H126721   3.477   1.645   2.298 -0.5631  0.9604 -0.2070
  842TIP3    H226722   3.365   1.544   2.288 -0.3785  0.8397 -1.1692
  843TIP3   OH226723   3.362   6.653   2.059  0.5951 -0.8872 -0.2097
  843TIP3    H126724   3.339   6.631   2.149 -0.0940 -0.4203 -0.2639
  843TIP3    H226725   3.430   6.590   2.036  0.7732 -1.0179  0.6310
  844TIP3   OH226726   6.239   7.077   0.192  0.1621  0.2455  0.2336
  844TIP3    H126727   6.309   7.028   0.235 -1.1023 -2.0766 -0.1932
  844TIP3    H226728   6.236   7.043   0.103 -1.0006  0.8704  0.0030
  845TIP3   OH226729   6.147   6.669   1.868 -0.1715 -0.0894  0.0250
  845TIP3    H126730   6.114   6.602   1.928 -0.2722 -1.5060 -1.5367
  845TIP3    H226731   6.160   6.746   1.923 -2.1945 -0.6965  1.4701
  846TIP3   OH226732   3.024   3.160   8.663 -0.3302  0.4847  0.3134
  846TIP3    H126733   2.961   3.091   8.682  0.0915 -0.5197 -1.6716
  846TIP3    H226734   3.075   3.126   8.589  1.9121  1.6536  1.2268
  847TIP3   OH226735   2.286   1.966   9.248  0.2394  0.0653  0.3128
  847TIP3    H126736   2.240   2.017   9.315 -2.6592 -2.1729  0.2342
  847TIP3    H226737   2.349   1.913   9.296  0.5533  0.9010  0.8366
  848TIP3   OH226738   4.880   4.811   1.303  0.3704  0.2490  0.3123
  848TIP3    H126739   4.846   4.857   1.226 -0.4010  0.2067  0.6219
  848TIP3    H226740   4.949   4.755   1.269  0.0345  0.2285 -0.3540
  849TIP3   OH226741   1.210   2.026   7.060 -0.0390  0.0935 -0.2504
  849TIP3    H126742   1.148   2.022   7.134 -1.9353 -0.1003 -1.7661
  849TIP3    H226743   1.249   1.938   7.057 -0.0724  0.0500  0.4047
  850TIP3   OH226744   4.581   3.432   8.207 -0.3654 -0.1406  0.0073
  850TIP3    H126745   4.518   3.360   8.215 -0.7810  0.3539  1.3799
  850TIP3    H226746   4.526   3.509   8.190 -0.0900  0.1897  0.6001
  851TIP3   OH226747   1.449   7.185   9.011 -0.3822  0.9656 -0.2527
  851TIP3    H126748   1.458   7.255   8.947  1.7052  1.6261  0.6835
  851TIP3    H226749   1.450   7.229   9.096  1.4837 -0.1791  0.3813
  852TIP3   OH226750   0.817   5.961   0.598 -0.1489  0.1633 -0.0387
  852TIP3    H126751   0.729   5.964   0.635  0.6711  0.5261  1.9960
  852TIP3    H226752   0.859   6.041   0.629  0.4117  0.8588 -2.3828
  853TIP3   OH226753   4.532   5.060   8.980 -0.2690  0.2147 -0.0882
  853TIP3    H126754   4.540   5.042   9.074  1.8489  0.9140 -0.0710
  853TIP3    H226755   4.499   5.149   8.975 -0.5868  0.1003  0.0003
  854TIP3   OH226756   3.505   3.693   2.447 -0.4840  0.0002  0.6130
  854TIP3    H126757   3.557   3.683   2.527 -0.3460 -3.1631  0.2682
  854TIP3    H226758   3.421   3.653   2.469 -1.3611  1.4029 -0.0819
  855TIP3   OH226759   3.946   4.692   1.724  0.0990  0.2908 -0.7286
  855TIP3    H126760   3.911   4.743   1.797 -1.6052  0.0156 -1.3233
  855TIP3    H226761   3.939   4.750   1.648  1.3177  0.3648 -0.8056
  856TIP3   OH226762   0.277   7.474   1.785  0.0236  0.0653  0.8293
  856TIP3    H126763   0.237   7.560   1.773  1.5964  0.9652  1.5927
  856TIP3    H226764   0.205   7.412   1.777 -0.7170  1.1986 -2.7396
  857TIP3   OH226765   1.667   1.918   9.942 -0.4150 -0.2350 -0.0438
  857TIP3    H126766   1.657   1.927  10.037  0.5448 -0.7392  0.1226
  857TIP3    H226767   1.629   1.833   9.922 -0.1205 -0.3767 -0.0162
  858TIP3   OH226768   0.477   6.388   9.566  0.0213  0.5877 -0.3964
  858TIP3    H126769   0.427   6.314   9.601  0.3733  0.5434  0.0251
  858TIP3    H226770   0.411   6.452   9.541 -0.2506  1.6008  2.4898
  859TIP3   OH226771   4.695   3.663   1.524  0.0979  0.2348  0.9231
  859TIP3    H126772   4.711   3.756   1.509 -0.3620  0.1948  0.0853
  859TIP3    H226773   4.699   3.652   1.619  2.0452  0.7576  0.9408
  860TIP3   OH226774   2.148   1.722   2.370  0.6096  0.3737 -0.1532
  860TIP3    H126775   2.117   1.650   2.316  1.1122  0.0763 -0.0554
  860TIP3    H226776   2.101   1.713   2.453  1.3390 -0.4048  0.1982
  861TIP3   OH226777   7.283   4.409   2.178 -0.1806 -0.2993  0.0635
  861TIP3    H126778   7.336   4.488   2.193  0.3652 -0.8183  0.9397
  861TIP3    H226779   7.203   4.424   2.228  0.6324 -1.0043  1.6153
  862TIP3   OH226780   3.072   0.299   6.737  0.4496 -0.0479 -0.6487
  862TIP3    H126781   3.060   0.209   6.767  0.7693  0.4681  1.1542
  862TIP3    H226782   3.160   0.322   6.765 -0.3012  1.4299  0.6072
  863TIP3   OH226783   6.470   0.921   8.002  0.6166  0.2081 -0.4741
  863TIP3    H126784   6.443   0.863   7.931  3.0631  0.3607 -1.5937
  863TIP3    H226785   6.497   1.002   7.959 -0.0140  1.1547  0.8424
  864TIP3   OH226786   2.696   3.624   9.596 -0.2662 -0.4394  0.1957
  864TIP3    H126787   2.630   3.554   9.599  0.8278 -1.5125 -0.1507
  864TIP3    H226788   2.715   3.642   9.688  0.6484 -1.7925  0.3032
  865TIP3   OH226789   3.322   2.999   0.821 -0.3526  0.3001  0.6744
  865TIP3    H126790   3.392   3.014   0.757 -3.2333 -0.6314 -3.0549
  865TIP3    H226791   3.347   2.918   0.865  1.5635  0.7549  0.5413
  866TIP3   OH226792   2.257   6.702   6.816 -0.0013  0.1141 -0.5911
  866TIP3    H126793   2.275   6.791   6.786 -2.4017  0.7985 -0.1980
  866TIP3    H226794   2.304   6.646   6.755  1.0198  1.6275 -1.2427
  867TIP3   OH226795   2.848   0.847   8.250  0.1609 -0.1939  0.1637
  867TIP3    H126796   2.836   0.900   8.171 -0.6030  2.3697  1.8783
  867TIP3    H226797   2.919   0.891   8.298 -1.5685  0.3589  2.3968
  868TIP3   OH226798   6.020   5.205   8.339  0.4172  0.1649 -0.6894
  868TIP3    H126799   5.937   5.175   8.378  0.7347  0.5143  0.2823
  868TIP3    H226800   6.057   5.264   8.405  1.0851  0.5926 -1.4395
  869TIP3   OH226801   3.235   3.517   2.447 -0.2566  0.3026 -0.4413
  869TIP3    H126802   3.251   3.560   2.531 -1.5569  0.4081 -0.2204
  869TIP3    H226803   3.246   3.424   2.466 -0.2144  0.3484 -0.2349
  870TIP3   OH226804   0.847   0.760   0.841 -0.0383  0.0786 -0.5748
  870TIP3    H126805   0.896   0.678   0.831  0.7903  0.4420  0.3695
  870TIP3    H226806   0.913   0.824   0.867 -1.2057  0.2647  2.2441
  871TIP3   OH226807   6.393   6.127   0.112  0.0118 -0.2120  0.3400
  871TIP3    H126808   6.442   6.209   0.110 -0.5421  0.1338 -1.8659
  871TIP3    H226809   6.327   6.140   0.180  1.3888  0.2598  1.6121
  872TIP3   OH226810   3.836   3.451   6.924 -0.1734 -0.0262 -0.0124
  872TIP3    H126811   3.846   3.504   6.844 -0.0706  0.3860  0.2697
  872TIP3    H226812   3.809   3.365   6.892 -0.2218  0.1595 -0.4889
  873TIP3   OH226813   7.187   5.913   1.187 -0.5750 -0.0845  0.2639
  873TIP3    H126814   7.156   5.864   1.111  0.3734 -0.7403  0.2807
  873TIP3    H226815   7.204   6.001   1.153  1.0480 -0.6912 -0.6160
  874TIP3   OH226816   4.360   5.328   7.935 -0.2594  0.2979 -0.2269
  874TIP3    H126817   4.282   5.284   7.970  0.5448 -0.7040  0.3738
  874TIP3    H226818   4.431   5.265   7.950  0.3195  0.2414 -2.7629
  875TIP3   OH226819   6.756   6.089   8.311  0.5419  0.2861 -0.2585
  875TIP3    H126820   6.749   6.133   8.396 -1.8392 -0.9865  0.3034
  875TIP3    H226821   6.665   6.068   8.287  1.3616 -2.0352 -1.6961
  876TIP3   OH226822   7.476   1.318   1.244 -0.6522 -1.1769 -1.1333
  876TIP3    H126823   7.545   1.278   1.296  0.3879  0.1656 -1.4181
  876TIP3    H226824   7.498   1.296   1.154 -1.0303 -1.3856 -1.1758
  877TIP3   OH226825   2.042   5.146   0.973 -0.0153 -0.6541  0.4738
  877TIP3    H126826   2.121   5.100   0.945  1.7492  0.9331  2.5115
  877TIP3    H226827   1.970   5.088   0.948  1.8728 -2.9476  0.0125
  878TIP3   OH226828   3.706   3.567   1.007  0.6279 -0.3573 -0.3664
  878TIP3    H126829   3.752   3.565   1.091 -1.4618 -0.6718  0.8331
  878TIP3    H226830   3.637   3.632   1.019 -0.7423 -1.5873 -1.2641
  879TIP3   OH226831   2.457   0.933   7.952  0.7617 -0.3590  0.5800
  879TIP3    H126832   2.462   0.929   7.856  0.0139  0.2738  0.5099
  879TIP3    H226833   2.442   0.842   7.978 -0.0294 -0.3975  0.0256
  880TIP3   OH226834   5.312   4.115   9.236 -0.2055 -0.0958  0.0471
  880TIP3    H126835   5.295   4.034   9.283  1.9350 -0.3202  0.5452
  880TIP3    H226836   5.387   4.094   9.180  0.4242  1.5394  0.2356
  881TIP3   OH226837   0.979   0.691   9.428  0.7204 -0.0310 -0.2546
  881TIP3    H126838   1.066   0.720   9.400  0.9652  0.1086  0.6267
  881TIP3    H226839   0.993   0.656   9.516 -0.0104 -0.5746 -0.3495
  882TIP3   OH226840   6.358   4.907   0.511 -0.2506 -0.0457 -0.3234
  882TIP3    H126841   6.351   4.887   0.604 -1.2165  0.0990 -0.3582
  882TIP3    H226842   6.405   4.832   0.474  1.4270  0.5464  0.4861
  883TIP3   OH226843   1.986   7.058   1.319  0.5574  0.2525 -0.7653
  883TIP3    H126844   1.942   7.143   1.305 -0.6872 -0.2611 -0.1415
  883TIP3    H226845   2.055   7.077   1.383 -1.8458  0.2392  2.0352
  884TIP3   OH226846   4.067   2.768   9.020  0.1588  0.1014  0.1915
  884TIP3    H126847   4.087   2.738   9.109 -0.1673  0.0091  0.2372
  884TIP3    H226848   4.152   2.772   8.976  0.7868  3.2201  1.4183
  885TIP3   OH226849   1.354   2.648   7.457 -0.7365  0.0858 -0.4741
  885TIP3    H126850   1.316   2.712   7.397  0.0783  1.4089  0.3949
  885TIP3    H226851   1.286   2.581   7.467 -1.6194  0.8322 -1.3437
  886TIP3   OH226852   1.854   0.710   9.413  0.3354  0.3218  0.4776
  886TIP3    H126853   1.942   0.745   9.400  0.2063  0.4025 -0.1858
  886TIP3    H226854   1.834   0.729   9.505  1.6786 -1.2203  1.1315
  887TIP3   OH226855   3.895   6.282   6.426  0.0121  0.0263  0.2440
  887TIP3    H126856   3.942   6.326   6.356 -0.6229 -0.4823 -0.5234
  887TIP3    H226857   3.962   6.261   6.491  0.8911 -0.7889 -0.8787
  888TIP3   OH226858   1.360   4.910   8.669  0.0421  0.4030 -0.0324
  888TIP3    H126859   1.385   4.939   8.756  1.0272 -0.5799  0.0402
  888TIP3    H226860   1.279   4.861   8.683 -1.0801  2.1718 -0.0260
  889TIP3   OH226861   5.786   7.055   8.951 -0.0449 -0.6815  0.1005
  889TIP3    H126862   5.865   7.035   9.001  0.2965 -0.0891 -0.1994
  889TIP3    H226863   5.818   7.094   8.869 -0.6550 -0.1351  0.1124
  890TIP3   OH226864   1.808   3.579   2.057 -0.3768  0.6433 -0.3614
  890TIP3    H126865   1.810   3.483   2.050 -0.0980  0.5247  1.0775
  890TIP3    H226866   1.719   3.603   2.032 -0.3657  0.0448 -1.0171
  891TIP3   OH226867   1.962   1.455   2.847  0.4081  0.3962 -0.1837
  891TIP3    H126868   1.910   1.534   2.831  1.4215  1.1101 -0.0667
  891TIP3    H226869   1.925   1.418   2.927 -1.6688 -0.6331 -1.5375
  892TIP3   OH226870   6.182   4.929   8.770  0.6342  0.2380  0.1104
  892TIP3    H126871   6.143   4.875   8.701  0.5146 -0.2358  0.5390
  892TIP3    H226872   6.121   5.001   8.782  0.6024  0.2672 -0.2021
  893TIP3   OH226873   6.494   1.945   9.767  0.3484 -0.5647 -0.6074
  893TIP3    H126874   6.526   2.034   9.781  0.1313 -0.2937 -1.7050
  893TIP3    H226875   6.572   1.893   9.751  0.4506 -0.5052 -0.3055
  894TIP3   OH226876   3.573   2.603   2.102 -0.5267  0.2270 -0.6126
  894TIP3    H126877   3.601   2.606   2.194 -0.5760 -1.9100 -0.4990
  894TIP3    H226878   3.507   2.673   2.096  1.2657  2.1318  0.2934
  895TIP3   OH226879   0.489   2.155   8.599  0.2168  0.3649 -0.2070
  895TIP3    H126880   0.498   2.073   8.648 -0.5505  0.2141 -0.2947
  895TIP3    H226881   0.578   2.188   8.590  0.6800 -1.0618 -1.2096
  896TIP3   OH226882   5.042   3.192   7.310  0.5198 -0.0391 -0.6169
  896TIP3    H126883   5.071   3.280   7.333  2.6795 -0.7565 -0.3957
  896TIP3    H226884   4.959   3.206   7.263 -1.3394  1.8262  2.8117
  897TIP3   OH226885   7.370   2.221   1.138 -0.4406  0.3400  0.0403
  897TIP3    H126886   7.344   2.131   1.123  0.5833 -0.0094  0.2861
  897TIP3    H226887   7.303   2.256   1.197 -1.2673 -0.0191 -0.6718
  898TIP3   OH226888   0.160   2.073   1.372 -0.0041  0.8353 -0.2245
  898TIP3    H126889   0.073   2.079   1.411 -0.8099 -0.0001 -1.8123
  898TIP3    H226890   0.206   2.009   1.426 -0.9534  0.0309 -0.3331
  899TIP3   OH226891   0.426   4.621   8.627 -0.2327  0.0510 -0.5365
  899TIP3    H126892   0.382   4.551   8.676  1.2844 -0.3608  0.3099
  899TIP3    H226893   0.518   4.614   8.653 -0.1171  2.8014  0.1088
  900TIP3   OH226894   6.972   4.068   8.549  0.1393  0.2890 -0.1380
  900TIP3    H126895   6.945   3.978   8.569  0.7755  0.2355  0.5018
  900TIP3    H226896   6.926   4.088   8.467 -0.4490 -0.4162  0.0001
  901TIP3   OH226897   1.146   1.046   2.657  0.4539  0.3005  0.5084
  901TIP3    H126898   1.067   1.040   2.710  0.0119  2.0806  0.1209
  901TIP3    H226899   1.141   0.971   2.597 -1.5307  0.9880 -0.2570
  902TIP3   OH226900   5.900   4.938   7.550 -0.5062  0.5325  0.6273
  902TIP3    H126901   5.813   4.918   7.515 -0.2120 -1.3023  0.8340
  902TIP3    H226902   5.931   5.011   7.497 -1.5227  0.1547 -0.5378
  903TIP3   OH226903   2.292   0.982   1.731 -0.0006  0.2151  0.2062
  903TIP3    H126904   2.271   0.916   1.798 -0.1738 -0.0955 -0.1525
  903TIP3    H226905   2.359   0.941   1.677 -0.1910  0.2865 -0.0851
  904TIP3   OH226906   4.071   4.902   2.157 -0.2978 -0.4609  0.5856
  904TIP3    H126907   3.976   4.910   2.167 -0.1943  1.9068  0.2846
  904TIP3    H226908   4.088   4.808   2.161 -2.7532 -1.0166 -0.2209
  905TIP3   OH226909   3.281   1.304   2.275 -0.4082  0.1446  0.0518
  905TIP3    H126910   3.189   1.277   2.278 -0.6523  0.9627  0.3641
  905TIP3    H226911   3.309   1.304   2.367 -0.0568 -0.2201 -0.0522
  906TIP3   OH226912   1.847   0.131   9.720 -0.7199  0.2820  0.0877
  906TIP3    H126913   1.794   0.201   9.684 -2.0099 -0.7274 -0.0170
  906TIP3    H226914   1.911   0.176   9.776 -2.0143  1.4826  0.6410
  907TIP3   OH226915   4.570   2.724   1.721 -0.2811 -0.1016 -0.4521
  907TIP3    H126916   4.526   2.805   1.745  0.9857  0.2449  0.8467
  907TIP3    H226917   4.626   2.749   1.647 -1.5151 -0.3342 -1.4987
  908TIP3   OH226918   0.960   1.723   0.451  0.7660 -0.2385  0.3533
  908TIP3    H126919   0.972   1.769   0.368  1.3325 -1.2061 -0.1182
  908TIP3    H226920   0.869   1.741   0.476 -0.1718 -1.8329 -1.6810
  909TIP3   OH226921   3.460   2.271   7.711  0.4228 -0.4182 -0.5288
  909TIP3    H126922   3.448   2.347   7.653  1.3940 -0.0438 -0.2495
  909TIP3    H226923   3.522   2.300   7.777 -0.2853 -1.0067  0.4297
  910TIP3   OH226924   6.470   0.660   8.760  0.3784  0.2020 -0.4838
  910TIP3    H126925   6.433   0.620   8.682  0.2467 -1.4702  0.3902
  910TIP3    H226926   6.539   0.599   8.788 -1.1441 -0.5178  2.0075
  911TIP3   OH226927   3.297   1.529   7.361  0.9792  0.1523 -0.4188
  911TIP3    H126928   3.352   1.606   7.370  0.5751  0.3763  0.2111
  911TIP3    H226929   3.217   1.561   7.318  0.7190  0.1415  0.0425
  912TIP3   OH226930   3.833   7.386   2.826 -0.0591  0.2751  0.3517
  912TIP3    H126931   3.839   7.321   2.756  0.5190 -0.6469  1.2458
  912TIP3    H226932   3.921   7.392   2.862 -0.6837 -0.5233  2.1237
  913TIP3   OH226933   1.303   0.942   1.153  0.0240 -0.3437  0.6114
  913TIP3    H126934   1.288   1.029   1.190  0.2493 -1.0656  2.5048
  913TIP3    H226935   1.398   0.933   1.153  0.0556 -0.2057 -0.6047
  914TIP3   OH226936   0.107   3.964   1.192 -0.2105  0.2094  0.3728
  914TIP3    H126937   0.111   3.973   1.097 -1.3090  0.6028  0.3531
  914TIP3    H226938   0.040   4.027   1.219 -0.4141 -0.4038  1.3331
  915TIP3   OH226939   6.171   3.800   1.885  0.1826  0.3279  0.3622
  915TIP3    H126940   6.244   3.823   1.828  0.2626 -1.7435 -0.4797
  915TIP3    H226941   6.207   3.803   1.973  0.9301  0.5832  0.0543
  916TIP3   OH226942   3.203   0.388   0.645 -0.2072  0.1089 -0.3192
  916TIP3    H126943   3.164   0.302   0.656 -0.1881  0.3008  1.5748
  916TIP3    H226944   3.294   0.370   0.619 -0.2061 -0.4423  0.0565
  917TIP3   OH226945   2.668   3.297   7.083 -0.5275  0.1620 -0.0384
  917TIP3    H126946   2.574   3.298   7.096 -0.3866  0.6371  1.1051
  917TIP3    H226947   2.690   3.385   7.053 -0.4309  0.1100 -0.1222
  918TIP3   OH226948   7.203   1.459   1.905 -0.2659  1.0507 -0.3335
  918TIP3    H126949   7.149   1.422   1.834 -0.6475 -2.8148  1.6752
  918TIP3    H226950   7.142   1.513   1.955 -1.3820 -0.3115 -0.1597
  919TIP3   OH226951   2.736   5.887   1.137 -0.2177  0.6179 -0.0202
  919TIP3    H126952   2.789   5.823   1.089  0.5704  1.0006  0.3272
  919TIP3    H226953   2.782   5.970   1.125 -0.7461  0.9626  0.2811
  920TIP3   OH226954   0.927   5.129   9.801 -0.4026 -0.8543 -0.0511
  920TIP3    H126955   0.991   5.138   9.730 -0.7990 -2.0586 -0.5977
  920TIP3    H226956   0.845   5.111   9.755 -1.8414  3.3520  0.4414
  921TIP3   OH226957   3.699   6.710   1.001 -0.0500 -0.9289  0.5208
  921TIP3    H126958   3.752   6.685   1.077  0.9826 -0.6693 -0.0902
  921TIP3    H226959   3.684   6.627   0.955 -2.7501 -1.5004  2.2231
  922TIP3   OH226960   0.158   0.668   1.645  0.3687 -0.2324  0.3769
  922TIP3    H126961   0.186   0.591   1.695  0.8263  0.8527  1.8983
  922TIP3    H226962   0.237   0.723   1.642 -0.2959  0.7404  0.4905
  923TIP3   OH226963   3.177   3.618   2.950  0.0769 -0.3397  0.2549
  923TIP3    H126964   3.164   3.548   3.013  0.2512 -1.1562 -0.5954
  923TIP3    H226965   3.089   3.639   2.918 -0.0425  0.2536  0.9253
  924TIP3   OH226966   0.214   1.718   8.143  0.3053 -0.0762 -0.1118
  924TIP3    H126967   0.222   1.796   8.089 -0.0056 -0.7820 -1.2229
  924TIP3    H226968   0.205   1.750   8.233  1.3407  1.1136 -0.4201
  925TIP3   OH226969   2.958   2.259   8.805  0.0037 -0.7606  0.1595
  925TIP3    H126970   3.045   2.299   8.800 -0.3635  0.0509  0.0949
  925TIP3    H226971   2.913   2.290   8.727 -1.3348  1.2747  1.6391
  926TIP3   OH226972   0.027   0.788   0.934  0.0276 -0.6424 -0.7385
  926TIP3    H126973   0.122   0.777   0.927  0.0719  0.6209 -3.2879
  926TIP3    H226974   0.016   0.877   0.967 -0.1693  0.2455 -2.9857
  927TIP3   OH226975   0.451   4.982   8.752  0.6056  0.1496  0.2585
  927TIP3    H126976   0.479   4.937   8.832 -0.4909 -1.1061 -0.0181
  927TIP3    H226977   0.383   5.042   8.781 -1.3079 -1.7943  0.0859
  928TIP3   OH226978   4.758   6.060   9.184  0.1389  0.3053  0.1886
  928TIP3    H126979   4.703   6.079   9.108  0.5812  1.0615  0.0562
  928TIP3    H226980   4.847   6.082   9.156  0.2181  1.2394  1.1440
  929TIP3   OH226981   3.345   6.958   9.383  0.8952 -0.0683  0.2697
  929TIP3    H126982   3.349   7.052   9.366 -1.1367  0.0102  0.0221
  929TIP3    H226983   3.392   6.947   9.466 -0.7925  1.5330  1.5105
  930TIP3   OH226984   5.884   2.390   0.696  0.0082  0.2335  0.3054
  930TIP3    H126985   5.967   2.406   0.652  0.5998 -1.4819  0.7185
  930TIP3    H226986   5.901   2.411   0.788 -0.8623  2.5804 -0.0051
  931TIP3   OH226987   0.741   1.833   8.902 -0.5056  0.7087  0.6823
  931TIP3    H126988   0.768   1.837   8.994  0.4696  2.6576  0.3605
  931TIP3    H226989   0.822   1.836   8.852 -1.0757  1.2913 -0.2530
  932TIP3   OH226990   2.584   6.888   8.546 -0.0995 -0.1732  0.2176
  932TIP3    H126991   2.546   6.952   8.606  0.4135 -0.0442  0.4100
  932TIP3    H226992   2.585   6.806   8.596 -1.3296 -0.4883 -0.2423
  933TIP3   OH226993   0.017   7.400   9.298  0.2551  0.3994 -0.2986
  933TIP3    H126994   0.037   7.483   9.342  0.8928 -0.0034  0.1854
  933TIP3    H226995   0.059   7.408   9.212 -0.0574  0.7484 -0.4221
  934TIP3   OH226996   3.786   5.074   7.994  0.2821  0.4566  0.0888
  934TIP3    H126997   3.865   5.053   8.044  0.6991  2.6880  0.4724
  934TIP3    H226998   3.744   4.989   7.978  3.1506 -0.9105 -0.8669
  935TIP3   OH226999   4.082   7.146   1.568 -0.5087  0.2139  0.2212
  935TIP3    H127000   4.107   7.237   1.554  0.3419 -0.0766 -0.1659
  935TIP3    H227001   4.000   7.136   1.519 -0.3977  0.6628 -0.0592
  936TIP3   OH227002   2.461   3.617   1.150 -0.1209 -0.3990 -0.3908
  936TIP3    H127003   2.391   3.568   1.192  0.7919 -0.2061  1.4967
  936TIP3    H227004   2.508   3.658   1.223  0.8575  0.9499 -1.7110
  937TIP3   OH227005   0.626   5.080   1.623  0.4220  0.1117  0.1557
  937TIP3    H127006   0.720   5.099   1.618  0.5520 -0.7520 -1.0963
  937TIP3    H227007   0.622   4.991   1.656  0.0345  0.0974  0.0654
  938TIP3   OH227008   0.048   0.431   0.411  0.1949  0.3325  0.0783
  938TIP3    H127009  -0.032   0.444   0.461  1.3493  0.7633  1.9339
  938TIP3    H227010   0.019   0.407   0.323 -1.9385  0.1794  0.7833
  939TIP3   OH227011   2.162   2.738   9.103 -0.4212  0.5397 -1.1494
  939TIP3    H127012   2.151   2.818   9.052 -1.3051  1.3875  0.3340
  939TIP3    H227013   2.078   2.692   9.095  0.1131 -0.3297 -2.0821
  940TIP3   OH227014   1.986   0.254   8.897  0.2846  0.5448  0.4449
  940TIP3    H127015   1.955   0.184   8.840  1.1148  0.7344 -0.2455
  940TIP3    H227016   1.906   0.294   8.931 -0.2064 -0.0742  0.0360
  941TIP3   OH227017   2.238   7.250   7.895 -0.0495  0.2445  0.6518
  941TIP3    H127018   2.288   7.286   7.822 -1.0303  1.8317  0.7308
  941TIP3    H227019   2.163   7.207   7.854  0.2304 -0.2625  0.6576
  942TIP3   OH227020   3.553   6.543   0.060  0.6707 -0.3949  0.5462
  942TIP3    H127021   3.550   6.625   0.010  0.4510 -1.5375 -1.4499
  942TIP3    H227022   3.471   6.542   0.109  1.4612  1.3643  2.0109
  943TIP3   OH227023   3.622   4.221   7.963  0.0497 -0.3400 -0.5180
  943TIP3    H127024   3.629   4.128   7.941 -0.2245 -0.5120  0.0997
  943TIP3    H227025   3.712   4.247   7.986 -0.1221 -0.8785  0.9012
  944TIP3   OH227026   3.991   2.138   1.557 -0.4006  0.0764 -0.1502
  944TIP3    H127027   4.062   2.113   1.616  0.4124  1.0559 -0.6766
  944TIP3    H227028   4.010   2.093   1.475 -1.0180 -0.5467  0.0381
  945TIP3   OH227029   4.042   4.263   1.782  0.3808  0.2043  0.1911
  945TIP3    H127030   4.105   4.332   1.760  2.4936 -1.7726 -0.2924
  945TIP3    H227031   4.096   4.190   1.812 -1.8453 -0.8043  2.0319
  946TIP3   OH227032   5.030   5.580   9.309 -0.0072 -0.2319  0.5107
  946TIP3    H127033   4.969   5.581   9.382 -2.1738  1.4253 -1.1769
  946TIP3    H227034   4.989   5.522   9.244  0.3321  0.6484 -0.5309
  947TIP3   OH227035   1.824   6.771   8.204 -0.0523 -0.0960 -0.4191
  947TIP3    H127036   1.823   6.854   8.154 -0.0592 -0.8971 -1.8041
  947TIP3    H227037   1.765   6.787   8.277 -1.4093  0.5985 -1.5978
  948TIP3   OH227038   5.379   1.946   1.241  0.2034  0.2287  0.1766
  948TIP3    H127039   5.321   1.895   1.185 -3.2072  1.1271  2.5614
  948TIP3    H227040   5.414   2.015   1.184 -2.1256  0.4008 -1.1778
  949TIP3   OH227041   4.557   6.476   1.151  0.3605 -0.5193  0.2676
  949TIP3    H127042   4.653   6.479   1.144  0.3223 -0.0281 -0.0957
  949TIP3    H227043   4.530   6.414   1.083  0.3005  0.7692 -0.9151
  950TIP3   OH227044   6.760   5.469   0.356 -0.5058 -0.0357  0.2494
  950TIP3    H127045   6.789   5.508   0.274  0.1499  1.0811  0.9831
  950TIP3    H227046   6.822   5.503   0.421 -0.4258 -1.6710  1.0536
  951TIP3   OH227047   1.367   6.579   6.570  0.7666 -0.0413 -0.0578
  951TIP3    H127048   1.414   6.496   6.580  0.5466 -0.3807 -1.5287
  951TIP3    H227049   1.307   6.582   6.645  1.1408 -0.9679  0.2919
  952TIP3   OH227050   2.380   7.332   3.268  0.0827 -0.5421  0.6717
  952TIP3    H127051   2.436   7.396   3.312  0.1038  0.1579 -0.3283
  952TIP3    H227052   2.437   7.257   3.251  0.6876  0.0845 -0.1567
  953TIP3   OH227053   4.107   4.088   8.354 -0.1923  0.0471 -0.7150
  953TIP3    H127054   4.068   4.014   8.307  0.8051 -0.2326 -1.1252
  953TIP3    H227055   4.065   4.086   8.440  2.5740 -3.5177  0.8504
  954TIP3   OH227056   0.618   2.179   0.339 -0.6805  0.5531 -0.3001
  954TIP3    H127057   0.542   2.145   0.292 -1.2145  2.6415 -1.0060
  954TIP3    H227058   0.604   2.151   0.430 -1.9081  0.2885 -0.5551
  955TIP3   OH227059   2.519   4.555   6.629 -0.1624 -0.3090  0.4562
  955TIP3    H127060   2.519   4.650   6.618 -0.0429 -0.2863  0.6628
  955TIP3    H227061   2.601   4.535   6.673  0.1115 -0.5773 -0.1589
  956TIP3   OH227062   4.228   4.547   1.996  0.5675  0.2190  0.0040
  956TIP3    H127063   4.284   4.476   2.026 -2.6463 -2.3505  0.5044
  956TIP3    H227064   4.209   4.597   2.076  0.0162 -0.5809  0.3940
  957TIP3   OH227065   2.538   7.104   0.247  0.0091  0.4338 -0.5117
  957TIP3    H127066   2.508   7.131   0.334  2.1080  0.2205  0.3405
  957TIP3    H227067   2.568   7.185   0.206 -1.4908  0.6220 -1.2909
  958TIP3   OH227068   5.518   4.303   7.772  0.0623  0.6496 -0.5198
  958TIP3    H127069   5.586   4.332   7.833 -0.6336  1.1318  0.0489
  958TIP3    H227070   5.515   4.372   7.706  2.3522 -0.9042 -2.4305
  959TIP3   OH227071   6.168   3.575   7.862  0.2080 -0.1485  0.0938
  959TIP3    H127072   6.244   3.540   7.816  1.2087  2.9551 -0.8837
  959TIP3    H227073   6.203   3.614   7.942 -0.8143 -1.1224  1.0552
  960TIP3   OH227074   1.680   6.128   0.759 -0.4531  0.1112  0.4944
  960TIP3    H127075   1.733   6.101   0.834  1.0941 -0.6910 -0.8322
  960TIP3    H227076   1.618   6.057   0.747 -0.5129  0.1065  0.8053
  961TIP3   OH227077   0.480   3.929   9.596  0.1506  0.1241  0.0805
  961TIP3    H127078   0.403   3.968   9.637  1.1284  1.5122  0.6789
  961TIP3    H227079   0.554   3.967   9.643  1.3362  1.4316 -2.5932
  962TIP3   OH227080   5.420   5.741   8.225  0.3161 -0.3117 -0.4019
  962TIP3    H127081   5.390   5.688   8.299  0.6671  0.3454  0.2194
  962TIP3    H227082   5.344   5.794   8.200  0.3673 -0.1150 -0.1385
  963TIP3   OH227083   6.850   0.922   7.961 -0.4235 -0.0192  0.2731
  963TIP3    H127084   6.812   1.010   7.962 -1.2909 -0.3691 -0.5092
  963TIP3    H227085   6.943   0.936   7.944 -0.6224  0.7222 -0.2538
  964TIP3   OH227086   4.293   6.569   9.537 -0.0860  0.2423  0.0209
  964TIP3    H127087   4.312   6.583   9.629  0.0148  0.7914 -0.0806
  964TIP3    H227088   4.340   6.639   9.491 -0.4673  0.2260 -0.4090
  965TIP3   OH227089   4.259   0.342   8.958  0.3683  0.4004  0.2358
  965TIP3    H127090   4.274   0.257   8.917 -1.1836  0.1672  0.0866
  965TIP3    H227091   4.345   0.369   8.992  0.8404 -1.3134  0.4631
  966TIP3   OH227092   1.206   0.554   8.575 -0.2350 -0.1974 -0.3607
  966TIP3    H127093   1.156   0.480   8.606 -1.5026 -0.1432 -2.1216
  966TIP3    H227094   1.238   0.527   8.488  0.7127  0.6893 -0.3134
  967TIP3   OH227095   2.932   1.373   7.505  0.2523  0.1931 -0.1513
  967TIP3    H127096   2.940   1.460   7.467 -0.1511  0.2279 -0.1632
  967TIP3    H227097   2.966   1.313   7.438 -1.3703  0.1626 -0.9889
  968TIP3   OH227098   4.295   6.888   7.527  0.0803  0.1221  0.4836
  968TIP3    H127099   4.313   6.975   7.493  2.0544 -0.6827 -0.7077
  968TIP3    H227100   4.367   6.871   7.588 -1.1356 -0.0967  1.8914
  969TIP3   OH227101   1.493   0.895   9.353 -0.3032  0.2378  0.0646
  969TIP3    H127102   1.554   0.961   9.387 -0.0911 -0.0069  0.1594
  969TIP3    H227103   1.542   0.852   9.283 -0.3811  0.0656  0.1154
  970TIP3   OH227104   7.092   4.592   9.206 -0.4591 -0.0529  0.4816
  970TIP3    H127105   7.061   4.578   9.116  3.1361  1.7140 -1.2139
  970TIP3    H227106   7.068   4.682   9.226 -1.5410 -0.5418  1.5053
  971TIP3   OH227107   2.068   2.585   8.619 -0.1596  0.3970 -0.3378
  971TIP3    H127108   2.130   2.521   8.653  0.4542  1.0004 -0.2993
  971TIP3    H227109   2.049   2.643   8.693 -0.8344  0.1710 -0.3276
  972TIP3   OH227110   0.114   6.214   1.119  0.3292 -0.5998  0.3333
  972TIP3    H127111   0.163   6.144   1.162  1.2017  0.0092  0.3590
  972TIP3    H227112   0.101   6.279   1.187 -0.5657 -0.7693  0.3336
  973TIP3   OH227113   3.312   5.106   2.120  0.3134  0.0745  0.3188
  973TIP3    H127114   3.321   5.196   2.149  2.2659 -0.1183  0.4487
  973TIP3    H227115   3.266   5.062   2.193 -1.1986  1.0279 -0.0026
  974TIP3   OH227116   4.210   4.041   1.896  0.5068 -0.5858  0.0657
  974TIP3    H127117   4.293   4.045   1.943  0.3150 -0.4005  0.3902
  974TIP3    H227118   4.210   3.955   1.855  0.6412 -0.7824  0.4691
  975TIP3   OH227119   4.267   3.097   1.030 -0.0258  0.1346 -0.0866
  975TIP3    H127120   4.226   3.133   1.108 -0.1594  0.6074 -0.3708
  975TIP3    H227121   4.324   3.027   1.063 -1.5790 -1.0127  0.2533
  976TIP3   OH227122   7.459   4.522   2.499 -0.3282  0.2651 -0.4543
  976TIP3    H127123   7.443   4.616   2.507 -0.8436  0.1679 -0.2452
  976TIP3    H227124   7.375   4.482   2.523 -0.0612 -0.2528 -0.3720
  977TIP3   OH227125   0.579   6.992   8.742  0.1201  0.6081 -0.1651
  977TIP3    H127126   0.546   6.959   8.659 -0.1284  0.0010  0.1697
  977TIP3    H227127   0.611   7.080   8.722  1.2289  0.0104 -1.1808
  978TIP3   OH227128   1.160   5.299   8.684 -0.0507 -0.2895 -0.0604
  978TIP3    H127129   1.189   5.331   8.770 -2.3499 -1.9674  1.4652
  978TIP3    H227130   1.097   5.365   8.654  0.6672  0.2397 -0.4238
  979TIP3   OH227131   0.167   1.544   1.777 -0.2642  0.0963  0.7305
  979TIP3    H127132   0.141   1.459   1.812 -0.0802  0.7399  2.4870
  979TIP3    H227133   0.086   1.596   1.779 -0.1961  0.2168  0.4051
  980TIP3   OH227134   0.703   4.912   7.370  0.1139 -0.0160  0.2619
  980TIP3    H127135   0.725   4.962   7.291  1.4152  0.2036  0.7278
  980TIP3    H227136   0.788   4.883   7.404 -0.5165 -1.3145  0.8103
  981TIP3   OH227137   4.926   7.453   8.391 -0.2949  0.3351  0.2785
  981TIP3    H127138   4.961   7.541   8.401 -0.2469  0.4170 -0.5444
  981TIP3    H227139   4.831   7.464   8.388 -0.3221  0.2820  0.8874
  982TIP3   OH227140   3.212   4.922   0.623 -0.8321 -0.1584 -0.2709
  982TIP3    H127141   3.306   4.918   0.607 -0.8866 -0.3534 -0.5522
  982TIP3    H227142   3.196   4.855   0.689 -0.7932 -0.2096 -0.3143
  983TIP3   OH227143   4.672   3.924   7.117  0.3225 -0.0754 -0.0498
  983TIP3    H127144   4.593   3.904   7.167 -0.6316 -0.0038 -1.4788
  983TIP3    H227145   4.692   4.015   7.139 -0.7410  0.3148 -0.6206
  984TIP3   OH227146   0.729   7.294   1.060  0.1178 -0.0592  0.3511
  984TIP3    H127147   0.679   7.280   1.140 -1.4921  0.9026 -0.4276
  984TIP3    H227148   0.678   7.251   0.992  0.8611  0.1200 -0.3336
  985TIP3   OH227149   3.005   5.436   2.357 -0.1392 -0.3279  0.0035
  985TIP3    H127150   2.935   5.486   2.398  1.1610 -0.3332  2.4353
  985TIP3    H227151   3.002   5.350   2.401 -1.4124 -2.0362 -3.0658
  986TIP3   OH227152   7.096   1.570   1.304  0.0994 -0.3958  0.6361
  986TIP3    H127153   7.002   1.576   1.320  0.4580 -1.0322  3.6474
  986TIP3    H227154   7.121   1.483   1.334  1.7724  0.0862  0.8018
  987TIP3   OH227155   3.795   5.383   7.708 -0.0232  0.9672  0.1839
  987TIP3    H127156   3.859   5.316   7.731 -1.2220 -0.3036 -0.0404
  987TIP3    H227157   3.750   5.403   7.790 -1.2908 -0.3010 -0.1709
  988TIP3   OH227158   3.881   0.203   9.902 -0.3909  0.0218  0.0452
  988TIP3    H127159   3.968   0.162   9.906  0.6349  2.1059  0.2746
  988TIP3    H227160   3.892   0.287   9.946 -2.7007  0.1004  0.5838
  989TIP3   OH227161   0.393   1.072   8.163 -0.2927 -0.2182 -0.1459
  989TIP3    H127162   0.358   1.153   8.126 -0.6981 -1.3579 -2.4012
  989TIP3    H227163   0.318   1.013   8.167  0.5282 -1.4176 -1.3521
  990TIP3   OH227164   1.156   3.249   7.911  0.0091  0.4748 -0.3668
  990TIP3    H127165   1.138   3.316   7.977  0.3919  0.9083 -0.6934
  990TIP3    H227166   1.134   3.167   7.953  0.2757  0.7481  0.3139
  991TIP3   OH227167   1.873   1.847   9.611  0.2761 -0.6608 -0.4761
  991TIP3    H127168   1.873   1.766   9.560 -0.2242 -1.1974  0.3497
  991TIP3    H227169   1.860   1.819   9.701  0.4384  0.3204 -0.1309
  992TIP3   OH227170   4.664   7.149   8.246 -0.2200 -0.1243  0.0783
  992TIP3    H127171   4.757   7.148   8.224 -0.0005  1.9740  0.6793
  992TIP3    H227172   4.629   7.225   8.200 -1.6190 -0.8098 -0.0436
  993TIP3   OH227173   5.776   5.630   1.056 -0.4079  0.1890  0.1935
  993TIP3    H127174   5.804   5.721   1.058 -1.9301  0.6875  0.8451
  993TIP3    H227175   5.723   5.622   0.976  1.0289 -0.5789 -0.7234
  994TIP3   OH227176   5.205   2.715   8.871 -0.1825  0.4410  0.1436
  994TIP3    H127177   5.244   2.748   8.952 -0.6205  0.9225  0.1626
  994TIP3    H227178   5.127   2.770   8.857 -1.6891 -1.3925  0.8770
  995TIP3   OH227179   4.547   6.620   0.739  0.5371 -0.5465  0.0165
  995TIP3    H127180   4.559   6.692   0.677  0.2344 -0.5011  0.0090
  995TIP3    H227181   4.551   6.541   0.685  1.7352 -0.5954  0.1377
  996TIP3   OH227182   2.969   4.553   8.291 -0.3986 -0.4947  0.0072
  996TIP3    H127183   3.037   4.619   8.303 -1.3021  0.5539 -0.4525
  996TIP3    H227184   2.891   4.603   8.267 -1.1038 -1.7378 -0.3966
  997TIP3   OH227185   5.637   3.584   0.540  0.0925 -0.0001 -0.2040
  997TIP3    H127186   5.646   3.548   0.628 -0.8746  1.2284  0.4281
  997TIP3    H227187   5.726   3.599   0.510  0.4323 -0.6608  0.4543
  998TIP3   OH227188   5.952   4.263   0.179  0.0372 -0.1726  0.0544
  998TIP3    H127189   5.903   4.317   0.241 -0.5585 -1.2909  0.5900
  998TIP3    H227190   6.027   4.231   0.230 -0.5722 -1.2723  0.2914
  999TIP3   OH227191   2.770   7.154   8.375 -0.1337  0.3827 -0.0550
  999TIP3    H127192   2.786   7.163   8.469  2.9029 -1.9679 -0.1835
  999TIP3    H227193   2.802   7.236   8.337  0.7248  0.4484  0.7872
 1000TIP3   OH227194   0.390   0.622   8.439  0.3856 -0.0452  0.4007
 1000TIP3    H127195   0.406   0.606   8.532  1.0974 -1.3131  0.0723
 1000TIP3    H227196   0.414   0.714   8.427  0.2425  0.1448  1.4793
 1001TIP3   OH227197   1.573   3.697   9.929 -0.2968 -0.0525 -0.8174
 1001TIP3    H127198   1.572   3.791   9.948 -0.6565  0.0889 -1.5075
 1001TIP3    H227199   1.666   3.675   9.923 -0.2046  0.2043 -0.4264
 1002TIP3   OH227200   2.845   5.181   8.208 -0.3283 -0.4356 -0.3140
 1002TIP3    H127201   2.899   5.131   8.147  0.4006 -1.2444  0.9291
 1002TIP3    H227202   2.756   5.169   8.177 -0.1031 -2.0104 -0.4248
 1003TIP3   OH227203   5.409   0.619   0.412  0.1594  0.2602 -0.0961
 1003TIP3    H127204   5.406   0.713   0.431 -3.1861  0.6190 -1.6092
 1003TIP3    H227205   5.354   0.579   0.479 -0.3186 -0.2792 -0.7948
 1004TIP3   OH227206   5.392   1.901   8.481  0.6033  0.2171  0.3319
 1004TIP3    H127207   5.372   1.857   8.564  0.0652 -1.4819 -0.6403
 1004TIP3    H227208   5.434   1.833   8.428  2.2152  1.6593 -0.3290
 1005TIP3   OH227209   6.972   4.354   8.384  0.4595 -0.5907  0.3351
 1005TIP3    H127210   6.938   4.272   8.348 -0.8123  0.0953 -0.0940
 1005TIP3    H227211   6.962   4.345   8.479 -4.2104  0.7953  0.2241
 1006TIP3   OH227212   0.000   7.032   0.401 -0.4660 -0.3966  0.5117
 1006TIP3    H127213   0.086   7.056   0.436  0.0052 -2.2356  0.7262
 1006TIP3    H227214  -0.045   7.115   0.389  1.8832  0.7643 -1.0593
 1007TIP3   OH227215   1.927   5.337   0.235  0.6865  0.1312 -0.5222
 1007TIP3    H127216   1.964   5.304   0.153  0.7651  0.2483 -0.5345
 1007TIP3    H227217   2.002   5.345   0.294  0.5723 -0.3252 -0.3116
 1008TIP3   OH227218   7.419   6.334   1.871 -0.2583  0.2729 -0.3468
 1008TIP3    H127219   7.423   6.240   1.855  1.6932  0.3936 -0.9167
 1008TIP3    H227220   7.511   6.361   1.874 -0.7494  1.9138  1.4212
 1009TIP3   OH227221   0.020   1.987   1.750 -0.0375 -0.0348  0.5101
 1009TIP3    H127222   0.071   2.068   1.755  0.3308 -0.2521  0.3118
 1009TIP3    H227223  -0.071   2.016   1.746  0.0981  0.3718  0.3362
 1010TIP3   OH227224   6.835   4.467   1.211 -0.1854 -0.1940 -0.2877
 1010TIP3    H127225   6.879   4.395   1.165  0.8148  0.4722 -0.4211
 1010TIP3    H227226   6.893   4.487   1.285 -1.0577 -0.3087  0.4446
 1011TIP3   OH227227   2.244   6.959   8.133 -0.2780  0.4722  0.0941
 1011TIP3    H127228   2.326   6.974   8.086 -1.7066 -0.7355 -3.0581
 1011TIP3    H227229   2.241   6.864   8.145 -1.1159  0.5308  0.3518
 1012TIP3   OH227230   7.229   7.402   0.608 -0.7841  0.2815 -0.3464
 1012TIP3    H127231   7.263   7.322   0.647 -0.1274  0.6374 -0.1684
 1012TIP3    H227232   7.140   7.409   0.640 -1.0891 -0.7544 -0.9429
 1013TIP3   OH227233   6.575   1.389   9.830 -0.2510 -0.3993  0.4845
 1013TIP3    H127234   6.582   1.298   9.860  1.3187 -1.7413 -3.3332
 1013TIP3    H227235   6.484   1.397   9.801 -0.6493 -0.4168  1.6850
 1014TIP3   OH227236   1.661   4.666   1.456  0.1267  0.9362  0.0105
 1014TIP3    H127237   1.684   4.573   1.452 -2.3142  0.2482  0.3975
 1014TIP3    H227238   1.597   4.673   1.527  0.0948  2.8890 -0.1388
 1015TIP3   OH227239   6.965   1.895   0.731  0.0290  0.6753 -0.1713
 1015TIP3    H127240   7.032   1.831   0.755 -0.7886 -0.4836 -0.8568
 1015TIP3    H227241   7.012   1.961   0.680  0.6207 -0.2452 -0.8372
 1016TIP3   OH227242   0.837   4.434   9.078 -0.4438  0.0639  0.5281
 1016TIP3    H127243   0.875   4.469   8.996  0.6416  1.2194  1.4684
 1016TIP3    H227244   0.870   4.493   9.146 -0.6185 -1.3772  1.9158
 1017TIP3   OH227245   1.481   1.242   3.358 -0.1679 -0.5385  0.1400
 1017TIP3    H127246   1.424   1.176   3.318 -0.0642 -0.1968 -0.5807
 1017TIP3    H227247   1.467   1.321   3.306 -0.3460  0.0325  1.0459
 1018TIP3   OH227248   3.812   0.461   0.401  0.1143  0.3991  0.1504
 1018TIP3    H127249   3.901   0.442   0.431  0.0017 -1.1128 -0.3714
 1018TIP3    H227250   3.779   0.377   0.369 -1.2508  1.0843 -0.3344
 1019TIP3   OH227251   1.162   2.772   1.315 -0.1917  0.0789 -0.2311
 1019TIP3    H127252   1.127   2.746   1.229 -0.8761 -0.3237  0.1614
 1019TIP3    H227253   1.257   2.767   1.304 -0.2569  0.5054 -1.1084
 1020TIP3   OH227254   2.388   3.696   0.893  0.1198  0.2459  0.5229
 1020TIP3    H127255   2.346   3.618   0.858  2.5167 -0.8079 -0.1762
 1020TIP3    H227256   2.420   3.670   0.979 -1.6515  1.4176  1.5972
 1021TIP3   OH227257   6.659   6.632   1.924 -0.0415 -0.2817 -0.1223
 1021TIP3    H127258   6.573   6.672   1.932  0.2146 -0.1289  3.3300
 1021TIP3    H227259   6.651   6.547   1.968  1.6944  0.0067  0.8574
 1022TIP3   OH227260   3.411   6.539   2.783 -0.2014  0.1808  0.0053
 1022TIP3    H127261   3.408   6.539   2.879 -0.0795  0.8997  0.0155
 1022TIP3    H227262   3.408   6.446   2.759  0.9900 -0.0808  0.7455
 1023TIP3   OH227263   0.724   3.165   7.819 -0.2231  0.0644 -0.1174
 1023TIP3    H127264   0.719   3.114   7.739  0.3558  0.9744 -0.7513
 1023TIP3    H227265   0.756   3.103   7.885  1.7150 -0.1148 -1.1617
 1024TIP3   OH227266   4.015   5.789   8.359 -0.4305  0.8426  0.0119
 1024TIP3    H127267   4.040   5.853   8.293  0.4828  0.8256  0.3293
 1024TIP3    H227268   3.929   5.757   8.331 -0.6377  1.7875 -0.4532
 1025TIP3   OH227269   2.588   6.633   1.024  0.1251  0.2152  0.2608
 1025TIP3    H127270   2.531   6.577   0.970 -0.7008  0.3639  0.9458
 1025TIP3    H227271   2.662   6.654   0.967 -0.8711  0.6384 -0.9341
 1026TIP3   OH227272   3.389   0.265   2.053 -0.3790 -0.1697  0.1746
 1026TIP3    H127273   3.460   0.259   2.117 -0.9411 -0.4597  0.7865
 1026TIP3    H227274   3.313   0.293   2.104 -0.9704 -0.9421 -0.2624
 1027TIP3   OH227275   4.575   4.271   7.738 -0.7051 -0.2157  0.1727
 1027TIP3    H127276   4.522   4.230   7.670  0.4407  1.0216 -1.5178
 1027TIP3    H227277   4.522   4.344   7.769  0.0655  1.2313 -1.7539
 1028TIP3   OH227278   4.299   7.216   2.986  0.5753 -0.7406  0.8529
 1028TIP3    H127279   4.244   7.226   3.064 -0.2021 -0.0638  0.2327
 1028TIP3    H227280   4.366   7.152   3.012  0.4500 -0.3849  2.1409
 1029TIP3   OH227281   6.466   3.272   8.403 -0.0193  0.5074 -0.0410
 1029TIP3    H127282   6.504   3.188   8.431 -0.4039  0.7403  1.2202
 1029TIP3    H227283   6.538   3.334   8.411  0.1788  0.3636 -0.6695
 1030TIP3   OH227284   3.785   5.739   9.862 -0.1645 -0.6003  0.6564
 1030TIP3    H127285   3.822   5.682   9.929 -0.7241 -1.4197  0.2920
 1030TIP3    H227286   3.860   5.772   9.813  0.3407  0.9477  2.3860
 1031TIP3   OH227287   5.965   5.333   9.537 -0.5713  0.5069 -0.1830
 1031TIP3    H127288   5.986   5.427   9.537 -0.9469  0.6339  2.1938
 1031TIP3    H227289   5.870   5.330   9.522 -0.6503  0.5363  0.3118
 1032TIP3   OH227290   6.366   7.375   8.937  0.3244  0.4367  0.6069
 1032TIP3    H127291   6.442   7.428   8.962 -1.2053  2.0055  2.2235
 1032TIP3    H227292   6.350   7.319   9.013 -0.4163  0.5005  0.5049
 1033TIP3   OH227293   5.928   0.789   9.394  0.7358  0.0135  0.4934
 1033TIP3    H127294   6.000   0.727   9.405  0.7851 -0.2655 -1.0363
 1033TIP3    H227295   5.849   0.734   9.392  0.5889  0.1998  0.9953
 1034TIP3   OH227296   0.996   3.787   7.877 -0.7129 -0.4746 -0.2092
 1034TIP3    H127297   1.083   3.782   7.838 -1.3885 -0.6939 -1.7554
 1034TIP3    H227298   1.002   3.859   7.939  0.2365  0.3300 -1.1939
 1035TIP3   OH227299   3.144   6.239   1.419  0.2949 -0.0599  0.3246
 1035TIP3    H127300   3.118   6.147   1.423 -1.0170  0.2962  0.4410
 1035TIP3    H227301   3.212   6.248   1.487  1.8571 -1.3383 -0.9844
 1036TIP3   OH227302   5.967   3.328   7.817  0.2355  0.3097  0.1133
 1036TIP3    H127303   5.920   3.246   7.802  0.5303  0.0241  0.6885
 1036TIP3    H227304   5.934   3.358   7.902 -1.4803  1.9246 -1.0497
 1037TIP3   OH227305   6.875   4.105   0.183 -0.2106 -0.1891 -0.1577
 1037TIP3    H127306   6.782   4.109   0.161  0.3080 -1.1636 -3.0005
 1037TIP3    H227307   6.890   4.015   0.211 -0.0566 -0.1466 -0.0994
 1038TIP3   OH227308   6.591   7.092   9.259 -0.0501 -0.0050 -0.0852
 1038TIP3    H127309   6.637   7.171   9.285 -0.0732 -0.1372  0.3696
 1038TIP3    H227310   6.596   7.092   9.164 -1.0681  1.1472 -0.1527
 1039TIP3   OH227311   1.134   6.997   8.830  0.0632  0.5643 -0.5339
 1039TIP3    H127312   1.190   6.937   8.879 -0.3480  2.1126  2.0081
 1039TIP3    H227313   1.192   7.068   8.804  0.1133  0.1210 -1.7141
 1040TIP3   OH227314   1.441   6.862   9.871  0.3585  0.3726  0.0253
 1040TIP3    H127315   1.407   6.951   9.875 -0.6022  0.0989 -1.3877
 1040TIP3    H227316   1.482   6.848   9.957  1.1869  2.4087  0.0136
 1041TIP3   OH227317   7.022   3.929   7.632  0.3849  0.0922  0.3094
 1041TIP3    H127318   7.095   3.878   7.668  2.1300  2.2681  0.0252
 1041TIP3    H227319   7.003   3.887   7.548  0.2343 -1.4499  1.0830
 1042TIP3   OH227320   1.560   7.446   8.903  0.3995  0.7497 -0.1807
 1042TIP3    H127321   1.513   7.520   8.942 -1.3634 -0.7590  0.6592
 1042TIP3    H227322   1.568   7.470   8.811  0.7105  2.3886  0.2241
 1043TIP3   OH227323   6.046   1.136   1.223  0.6753 -0.7568  0.0837
 1043TIP3    H127324   6.112   1.117   1.156 -0.5404 -0.5621 -1.2128
 1043TIP3    H227325   5.966   1.094   1.190 -0.6777  1.7505 -0.0420
 1044TIP3   OH227326   7.197   0.493   0.154 -0.3139  0.1385  0.0177
 1044TIP3    H127327   7.263   0.536   0.099  0.9757 -1.3024  0.3538
 1044TIP3    H227328   7.243   0.418   0.191 -1.3368  0.6847  2.5633
 1045TIP3   OH227329   6.555   3.931   1.030 -0.0590  0.0125  0.6051
 1045TIP3    H127330   6.495   3.921   1.105  0.6113 -0.0960  1.1374
 1045TIP3    H227331   6.525   4.010   0.986 -0.4805  0.0668  0.9751
 1046TIP3   OH227332   3.722   1.093   9.619  0.1374  0.1304  0.3927
 1046TIP3    H127333   3.773   1.115   9.697  0.0774 -0.9317  0.7478
 1046TIP3    H227334   3.683   1.008   9.639 -0.3182  0.0947 -0.5874
 1047TIP3   OH227335   5.580   5.588   1.327  0.1024 -0.1082  0.5390
 1047TIP3    H127336   5.577   5.539   1.246  2.1212 -1.0886  1.0011
 1047TIP3    H227337   5.489   5.615   1.342 -0.3939 -0.3198 -1.7437
 1048TIP3   OH227338   5.969   7.226   1.824 -0.0650  0.5253 -0.5851
 1048TIP3    H127339   5.932   7.297   1.877 -0.9018 -0.0364 -0.3946
 1048TIP3    H227340   5.917   7.228   1.743 -0.4178 -0.1629 -0.3841
 1049TIP3   OH227341   6.279   3.684   1.602  0.8379 -0.0947 -0.3058
 1049TIP3    H127342   6.345   3.622   1.632  0.4633 -0.1619  0.3898
 1049TIP3    H227343   6.213   3.630   1.559 -0.6998 -0.5194  2.3726
 1050TIP3   OH227344   4.970   1.440   8.854  0.0362  0.2044 -0.0635
 1050TIP3    H127345   5.018   1.523   8.862 -1.0351  0.6477  2.8236
 1050TIP3    H227346   5.032   1.373   8.883  1.1650 -0.2292 -3.1235
 1051TIP3   OH227347   0.880   0.382   1.312 -0.2773 -0.2484 -0.2342
 1051TIP3    H127348   0.885   0.358   1.404 -0.8758 -0.6833 -0.3073
 1051TIP3    H227349   0.787   0.372   1.289 -0.5801  2.0334 -0.3032
 1052TIP3   OH227350   3.044   3.805   2.637  0.4578  0.1511  0.8341
 1052TIP3    H127351   3.018   3.757   2.716  1.5158 -0.3001  0.9304
 1052TIP3    H227352   3.128   3.846   2.660  1.3899 -0.9538 -0.4004
 1053TIP3   OH227353   0.266   6.842   0.617 -0.0788 -0.1961  0.1727
 1053TIP3    H127354   0.277   6.835   0.712  1.2102  0.8462  0.1351
 1053TIP3    H227355   0.246   6.934   0.602  1.0004 -0.0703 -0.6466
 1054TIP3   OH227356   4.602   0.506   2.318  0.5230  0.0503 -0.5785
 1054TIP3    H127357   4.692   0.473   2.326  0.6706  0.9085  3.5976
 1054TIP3    H227358   4.591   0.563   2.394 -2.9701  1.6343 -2.0453
 1055TIP3   OH227359   0.857   1.298   9.848 -0.2106 -0.4046  0.6794
 1055TIP3    H127360   0.770   1.261   9.834 -0.2386 -0.0832 -0.0445
 1055TIP3    H227361   0.864   1.368   9.783  0.5321 -0.3379  0.8257
 1056TIP3   OH227362   3.411   0.022   8.020  0.2188 -0.0844 -0.0592
 1056TIP3    H127363   3.428   0.001   8.112 -0.4153  1.4182  0.4386
 1056TIP3    H227364   3.479   0.085   7.997  1.4249 -1.7145 -1.1844
 1057TIP3   OH227365   6.893   4.427   0.819 -0.1543 -0.3143 -0.2283
 1057TIP3    H127366   6.889   4.508   0.871 -1.8523  0.7180 -1.8282
 1057TIP3    H227367   6.895   4.357   0.884 -1.5595  0.9444  1.2548
 1058TIP3   OH227368   3.099   0.070   9.113  0.3666  0.4045  0.3648
 1058TIP3    H127369   3.007   0.068   9.138  0.0060  1.4806 -0.7883
 1058TIP3    H227370   3.139  -0.001   9.164 -1.3592 -1.1063 -0.2691
 1059TIP3   OH227371   5.306   3.285   8.525 -0.2858  0.7549  0.1463
 1059TIP3    H127372   5.347   3.334   8.596 -1.6956 -1.5433  2.7695
 1059TIP3    H227373   5.379   3.254   8.471  1.0469  0.7530  1.8740
 1060TIP3   OH227374   2.243   1.119   8.591  0.0328  0.1432 -0.3746
 1060TIP3    H127375   2.211   1.041   8.635  0.6648 -0.1841 -0.4813
 1060TIP3    H227376   2.301   1.086   8.522  0.6574  0.7109 -0.1403
 1061TIP3   OH227377   0.674   4.555   0.975 -0.5395 -0.1342 -0.1150
 1061TIP3    H127378   0.758   4.548   0.929 -1.0700  0.1542 -1.1467
 1061TIP3    H227379   0.693   4.612   1.050  0.5497 -1.3686  0.5921
 1062TIP3   OH227380   5.556   6.398   8.862 -0.0535  0.4722  0.1281
 1062TIP3    H127381   5.645   6.408   8.829  0.5268 -1.3900  0.9850
 1062TIP3    H227382   5.560   6.434   8.951 -0.2682  0.7900  0.0081
 1063TIP3   OH227383   5.360   7.063   0.883  0.1308 -0.6801 -0.1993
 1063TIP3    H127384   5.454   7.059   0.867  0.1556 -1.0297  0.0317
 1063TIP3    H227385   5.345   7.004   0.957 -0.3538 -1.0825 -0.6069
 1064TIP3   OH227386   3.832   4.257   8.508  0.5141  0.7197 -0.1884
 1064TIP3    H127387   3.892   4.237   8.580  0.2305  1.7014  0.3286
 1064TIP3    H227388   3.831   4.352   8.502 -1.3220  0.7501  0.1071
 1065TIP3   OH227389   1.401   2.620   1.389 -0.1212  0.2539 -0.6659
 1065TIP3    H127390   1.433   2.710   1.376  0.6016  0.0104 -0.6357
 1065TIP3    H227391   1.479   2.566   1.376 -0.8301 -0.4794 -2.1088
 1066TIP3   OH227392   0.805   6.008   9.908  0.5608  0.2114 -0.1935
 1066TIP3    H127393   0.800   5.958   9.990  0.1547 -0.8761 -0.8667
 1066TIP3    H227394   0.715   6.038   9.893  0.4331 -0.4319 -0.7471
 1067TIP3   OH227395   1.393   1.417   8.107  0.0682 -0.1971  0.2363
 1067TIP3    H127396   1.334   1.358   8.061  0.0032 -2.1193  2.6155
 1067TIP3    H227397   1.350   1.503   8.101 -0.2446 -0.4367 -2.5761
 1068TIP3   OH227398   1.229   0.048   1.834 -0.5296 -0.1692 -0.2888
 1068TIP3    H127399   1.299   0.074   1.775 -1.5966 -1.8069 -2.3918
 1068TIP3    H227400   1.265   0.061   1.922  1.2155  2.0662 -1.2372
 1069TIP3   OH227401   5.449   3.095   9.072 -0.6631  0.0906 -0.0548
 1069TIP3    H127402   5.500   3.018   9.097 -0.3835  0.5503  0.7991
 1069TIP3    H227403   5.494   3.169   9.112 -0.6378  0.7661 -1.2955
 1070TIP3   OH227404   1.652   0.728   0.247 -0.6100 -0.0370 -0.6900
 1070TIP3    H127405   1.578   0.673   0.273 -0.1679 -0.3671 -0.1129
 1070TIP3    H227406   1.672   0.779   0.326 -0.1800  0.0015 -0.8242
 1071TIP3   OH227407   6.607   6.019   0.683 -0.3133 -0.1430 -0.6883
 1071TIP3    H127408   6.578   5.958   0.615  1.8171 -0.1146 -1.6989
 1071TIP3    H227409   6.700   6.034   0.664  0.4733 -0.3918  2.4625
 1072TIP3   OH227410   1.395   1.496   0.887  0.5048  0.0755 -0.2667
 1072TIP3    H127411   1.341   1.535   0.956  2.0113  0.6888  0.6131
 1072TIP3    H227412   1.479   1.541   0.894  1.0320 -0.6054 -1.8227
 1073TIP3   OH227413   0.022   7.042   8.432  0.3108  0.0544  0.0842
 1073TIP3    H127414  -0.067   7.059   8.463  0.5802 -0.6405  1.2967
 1073TIP3    H227415   0.059   6.983   8.498  1.6854  0.3805 -0.3746
 1074TIP3   OH227416   5.372   5.368   9.060 -0.4621 -0.0453 -0.4187
 1074TIP3    H127417   5.350   5.461   9.073  0.4392  0.1783 -0.4192
 1074TIP3    H227418   5.287   5.323   9.061 -0.8139  0.5957  1.0095
 1075TIP3   OH227419   2.761   4.711   1.826 -0.0298  0.3714  0.3701
 1075TIP3    H127420   2.813   4.790   1.842 -0.7620  1.7503 -3.0773
 1075TIP3    H227421   2.682   4.723   1.879 -0.7512  2.7396 -1.1075
 1076TIP3   OH227422   2.494   3.333   1.276 -0.2174 -0.2105  0.4905
 1076TIP3    H127423   2.482   3.358   1.368  0.8798  0.3152  0.5083
 1076TIP3    H227424   2.501   3.238   1.277  1.6824 -0.1031  1.2207
 1077TIP3   OH227425   4.875   2.659   9.114 -0.0228  0.1284  0.6742
 1077TIP3    H127426   4.854   2.669   9.021  0.1468  0.3409  0.6584
 1077TIP3    H227427   4.878   2.564   9.127 -1.2760  0.0824  0.7457
 1078TIP3   OH227428   5.926   1.287   0.632  1.1167 -0.2047 -0.4978
 1078TIP3    H127429   5.895   1.198   0.618  1.9364 -0.3497 -1.4779
 1078TIP3    H227430   5.959   1.287   0.722 -1.1151 -0.1957  0.3897
 1079TIP3   OH227431   6.119   1.413   8.123 -0.5558  0.2736  0.1150
 1079TIP3    H127432   6.075   1.390   8.041 -1.3222 -0.0118  0.5982
 1079TIP3    H227433   6.050   1.410   8.189  0.4083 -1.3461  1.1111
 1080TIP3   OH227434   7.025   0.038   8.791 -0.7360 -0.6350  0.1144
 1080TIP3    H127435   6.930   0.041   8.775 -0.4462 -1.0814 -1.9806
 1080TIP3    H227436   7.063   0.085   8.717  0.6669  0.7156  1.6320
 1081TIP3   OH227437   3.111   4.706   0.801 -0.5043 -0.0321 -0.4423
 1081TIP3    H127438   3.168   4.642   0.758  1.0320  0.3346  0.9876
 1081TIP3    H227439   3.023   4.668   0.793  0.0290 -1.0646 -1.8548
 1082TIP3   OH227440   3.783   2.396   8.220 -0.4502 -0.1401  0.3497
 1082TIP3    H127441   3.758   2.303   8.216  2.7804 -1.1538  0.9673
 1082TIP3    H227442   3.745   2.434   8.141 -1.2083 -2.1631 -0.3404
 1083TIP3   OH227443   2.173   6.557   9.572 -0.3062  0.5577 -0.4395
 1083TIP3    H127444   2.094   6.566   9.626  1.0499 -0.7300  1.9733
 1083TIP3    H227445   2.223   6.637   9.589  0.2597  0.0198  0.5601
 1084TIP3   OH227446   2.364   5.572   0.939 -0.2225 -0.2364 -0.3049
 1084TIP3    H127447   2.341   5.627   1.013  1.0325 -1.2042  0.8329
 1084TIP3    H227448   2.451   5.601   0.912  0.1081 -1.1004 -0.2068
 1085TIP3   OH227449   2.815   2.639   3.203  0.3546 -0.1589  0.0545
 1085TIP3    H127450   2.728   2.637   3.165  0.3851  0.4126 -0.0577
 1085TIP3    H227451   2.873   2.614   3.131  0.2379 -1.2888  0.3210
 1086TIP3   OH227452   2.117   3.527   9.083  0.5803 -0.3824  0.1444
 1086TIP3    H127453   2.063   3.605   9.081  1.3451  0.2734  2.2902
 1086TIP3    H227454   2.144   3.513   8.992 -0.5470  1.1235 -0.4474
 1087TIP3   OH227455   7.474   0.963   1.182 -0.4345 -0.6806  0.0622
 1087TIP3    H127456   7.411   0.987   1.115 -0.5678 -1.9768 -0.3120
 1087TIP3    H227457   7.438   0.998   1.263  0.1159  1.5832 -0.5992
 1088TIP3   OH227458   6.247   6.550   8.910  0.0554  0.0883  0.3432
 1088TIP3    H127459   6.277   6.519   8.825  2.3497  0.3645  0.9748
 1088TIP3    H227460   6.153   6.561   8.900  0.1890 -0.3855 -1.9795
 1089TIP3   OH227461   5.107   5.569   7.399 -0.2656  0.6528  0.0987
 1089TIP3    H127462   5.137   5.510   7.468 -1.6327  1.2786  1.2614
 1089TIP3    H227463   5.187   5.600   7.358  0.5511 -0.2421  0.9586
 1090TIP3   OH227464   7.486   1.651   0.282 -0.2772 -0.1829  0.1709
 1090TIP3    H127465   7.434   1.637   0.202  0.0070  1.3909 -0.3095
 1090TIP3    H227466   7.573   1.618   0.260 -0.1212  0.5188 -0.2761
 1091TIP3   OH227467   6.207   4.199   8.002  0.4208  0.1883 -0.3299
 1091TIP3    H127468   6.120   4.235   7.986 -0.5088 -1.1906  1.3373
 1091TIP3    H227469   6.257   4.221   7.923 -0.8415  2.7071 -0.5231
 1092TIP3   OH227470   7.465   3.253   1.167  0.3777 -0.2481 -0.2817
 1092TIP3    H127471   7.484   3.177   1.223  0.8056 -0.5589 -0.8426
 1092TIP3    H227472   7.379   3.235   1.130  0.1527 -0.1059  0.1532
 1093TIP3   OH227473   1.434   6.016   7.572  0.6133  0.6161 -0.5762
 1093TIP3    H127474   1.475   6.103   7.578 -0.5321  1.1011  0.8985
 1093TIP3    H227475   1.508   5.955   7.571  1.4154  1.5543 -0.2631
 1094TIP3   OH227476   1.113   3.695   9.127  0.4992 -0.2518 -0.2570
 1094TIP3    H127477   1.139   3.736   9.045  1.7665  0.4404  0.4656
 1094TIP3    H227478   1.033   3.647   9.106 -0.2485  1.4445 -1.4576
 1095TIP3   OH227479   7.340   1.015   8.431 -0.0302 -0.0436  0.1864
 1095TIP3    H127480   7.330   0.923   8.408 -1.2192  0.0906  0.1118
 1095TIP3    H227481   7.287   1.062   8.366  3.1503  0.9997 -1.8995
 1096TIP3   OH227482   3.957   1.802   8.592  0.3920  0.0296  0.6235
 1096TIP3    H127483   4.026   1.868   8.597  0.3579  0.1170 -0.0254
 1096TIP3    H227484   3.904   1.816   8.671  0.2672  0.9120  0.3921
 1097TIP3   OH227485   6.891   6.394   1.365  0.0083  0.2565  0.1434
 1097TIP3    H127486   6.925   6.439   1.288  2.6158 -2.8383 -0.7085
 1097TIP3    H227487   6.796   6.393   1.352  0.2211  1.4872 -2.0071
 1098TIP3   OH227488   6.968   3.598   0.637 -0.6357 -0.0894  0.1269
 1098TIP3    H127489   7.037   3.537   0.612 -1.2577 -0.8165  0.1534
 1098TIP3    H227490   6.940   3.570   0.723 -0.1704  0.9359  0.6408
 1099TIP3   OH227491   0.922   4.177   0.840 -0.1363 -0.7541  0.0245
 1099TIP3    H127492   0.841   4.131   0.819  0.3819 -0.4250 -3.1074
 1099TIP3    H227493   0.986   4.107   0.852 -0.5347 -0.9672  1.0051
 1100TIP3   OH227494   0.401   4.847   1.228 -0.3450 -0.3772  0.0508
 1100TIP3    H127495   0.349   4.767   1.237 -2.0322  0.8197  1.6305
 1100TIP3    H227496   0.449   4.835   1.146 -2.6104 -1.8604 -1.1605
 1101TIP3   OH227497   0.186   0.826   0.436  0.6812 -0.1897  0.0473
 1101TIP3    H127498   0.190   0.750   0.378  1.1320 -0.1283 -0.0080
 1101TIP3    H227499   0.105   0.814   0.486  0.4337 -0.3873 -0.3918
 1102TIP3   OH227500   7.073   2.741   0.733  0.1535 -0.0708  0.3635
 1102TIP3    H127501   6.978   2.737   0.720 -0.0869 -0.0063  1.8793
 1102TIP3    H227502   7.096   2.654   0.766  0.6499 -0.1301 -0.1333
 1103TIP3   OH227503   0.526   6.017   1.438  0.1285  0.5422  0.0004
 1103TIP3    H127504   0.587   5.987   1.505 -0.0600  0.5184  0.1647
 1103TIP3    H227505   0.504   6.107   1.463 -1.2623 -0.0136  0.9629
 1104TIP3   OH227506   1.294   3.753   0.907 -0.1616 -0.0445  0.5208
 1104TIP3    H127507   1.352   3.804   0.851 -0.0419  0.2788  0.9333
 1104TIP3    H227508   1.346   3.676   0.930 -0.6978 -0.8791 -0.9181
 1105TIP3   OH227509   7.212   2.481   0.778 -0.2294  0.0348  0.5496
 1105TIP3    H127510   7.276   2.482   0.707 -0.7561  2.3290  0.0430
 1105TIP3    H227511   7.139   2.430   0.744  0.2808 -0.4596  0.1736
 1106TIP3   OH227512   4.972   4.052   0.804  0.1950  0.3235  0.1094
 1106TIP3    H127513   4.947   4.133   0.759  2.5447 -0.2540 -2.5330
 1106TIP3    H227514   4.985   3.988   0.733  0.6848 -1.7270  1.9155
 1107TIP3   OH227515   5.348   5.169   8.180 -0.4535 -0.2920 -0.5002
 1107TIP3    H127516   5.306   5.087   8.155 -0.3795 -0.1784 -1.0133
 1107TIP3    H227517   5.316   5.232   8.115 -1.8200  0.4737  0.8643
 1108TIP3   OH227518   6.728   4.473   1.669 -0.0519 -0.2383  0.2928
 1108TIP3    H127519   6.735   4.395   1.724 -1.7721  1.0044  2.4423
 1108TIP3    H227520   6.690   4.540   1.726 -1.6217  1.2726 -2.3047
 1109TIP3   OH227521   4.862   0.373   1.658 -1.0521  0.0156 -0.0413
 1109TIP3    H127522   4.795   0.412   1.714 -1.3705  1.3451 -1.3079
 1109TIP3    H227523   4.863   0.427   1.579  1.4678  0.0272 -0.0967
 1110TIP3   OH227524   5.025   3.584   0.418  0.7526  0.2870 -0.2992
 1110TIP3    H127525   5.031   3.622   0.505  1.4508 -0.8511  0.1598
 1110TIP3    H227526   4.931   3.583   0.399  0.4706 -0.8261  1.0648
 1111TIP3   OH227527   0.889   4.890   2.386  0.3156  0.4834 -0.2289
 1111TIP3    H127528   0.813   4.867   2.332  1.1437  1.2289 -1.7680
 1111TIP3    H227529   0.873   4.981   2.413 -1.0062 -0.4366  2.4706
 1112TIP3   OH227530   6.551   4.057   7.857 -0.5342 -0.6851  0.4836
 1112TIP3    H127531   6.472   4.003   7.853 -0.6645 -0.4690  0.1226
 1112TIP3    H227532   6.523   4.144   7.827  0.1371 -0.9492 -0.9639
 1113TIP3   OH227533   5.990   6.082   0.045 -0.0991 -0.3831 -0.2970
 1113TIP3    H127534   5.981   5.986   0.043  0.4915 -0.5641  2.2346
 1113TIP3    H227535   5.899   6.113   0.049 -0.2773 -0.8775 -0.3204
 1114TIP3   OH227536   4.588   0.425   7.049  0.2285 -0.2696 -0.1777
 1114TIP3    H127537   4.659   0.367   7.021  0.5031 -1.4324  2.5838
 1114TIP3    H227538   4.624   0.513   7.041  1.7159 -0.7958  0.3169
 1115TIP3   OH227539   6.703   5.916   8.645 -0.5159  0.2282 -0.0524
 1115TIP3    H127540   6.618   5.921   8.601 -0.8638  1.1701  0.7035
 1115TIP3    H227541   6.740   6.004   8.636 -0.4471  0.3511  1.2439
 1116TIP3   OH227542   0.418   4.227   0.841  0.3093  0.2218 -0.7841
 1116TIP3    H127543   0.324   4.233   0.823  0.2759 -0.7040 -0.9961
 1116TIP3    H227544   0.458   4.217   0.754  0.6585  1.1540 -0.7382
 1117TIP3   OH227545   7.173   1.300   9.923  0.1134  0.3347 -0.4147
 1117TIP3    H127546   7.209   1.285   9.835 -0.0744  0.6554 -0.5521
 1117TIP3    H227547   7.083   1.266   9.918  1.3527 -3.7293  0.9413
 1118TIP3   OH227548   4.542   0.835   9.302  0.0906 -0.3423  0.0575
 1118TIP3    H127549   4.501   0.869   9.382  0.5403 -1.0623  0.6089
 1118TIP3    H227550   4.469   0.821   9.242 -0.1678  1.0042  0.0322
 1119TIP3   OH227551   7.113   7.015   0.449  0.3702  0.2818 -0.1447
 1119TIP3    H127552   7.112   7.091   0.391 -5.2355  0.1348 -0.7045
 1119TIP3    H227553   7.105   7.053   0.537 -0.7179  0.4309 -0.2935
 1120TIP3   OH227554   6.885   1.760   0.990 -0.3370  0.1111  0.1828
 1120TIP3    H127555   6.841   1.768   0.906 -0.9234  2.5179  0.6624
 1120TIP3    H227556   6.899   1.666   1.000 -2.7664 -0.4935 -1.3066
 1121TIP3   OH227557   0.704   0.247   2.191 -0.3121 -0.0832 -0.1413
 1121TIP3    H127558   0.702   0.199   2.275  1.2074 -2.4424 -1.3263
 1121TIP3    H227559   0.792   0.284   2.187 -0.2382 -0.3236 -0.8596
 1122TIP3   OH227560   7.250   2.766   7.726  0.0031  0.7748  0.0159
 1122TIP3    H127561   7.172   2.717   7.698 -1.3015  2.6963  0.1269
 1122TIP3    H227562   7.315   2.698   7.743 -1.6353 -0.9182 -0.0843
 1123TIP3   OH227563   3.235   0.744   6.703 -0.2685 -0.1458  0.4955
 1123TIP3    H127564   3.314   0.692   6.722 -0.2128  0.0531  0.8141
 1123TIP3    H227565   3.175   0.724   6.775 -0.8606 -0.9790 -0.2030
 1124TIP3   OH227566   3.194   0.556   6.507  0.3218 -0.2549 -0.7310
 1124TIP3    H127567   3.172   0.627   6.567  0.1398 -0.1281 -0.9437
 1124TIP3    H227568   3.109   0.526   6.473  0.4091 -0.4568 -0.7732
 1125TIP3   OH227569   1.224   6.970   8.467 -0.5869 -0.2873  0.4945
 1125TIP3    H127570   1.203   6.895   8.411 -1.2669  0.4797 -0.3099
 1125TIP3    H227571   1.314   6.954   8.495 -0.9649 -1.7835  0.9711
 1126TIP3   OH227572   2.180   3.599   2.594  0.1663 -0.7333 -0.2396
 1126TIP3    H127573   2.189   3.687   2.632  0.3610 -1.0358  0.4448
 1126TIP3    H227574   2.111   3.558   2.646 -0.7535 -0.5832 -1.3346
 1127TIP3   OH227575   3.091   4.281   7.415 -0.1028  0.0403  0.2983
 1127TIP3    H127576   3.169   4.251   7.463  0.2437 -0.5410 -0.6087
 1127TIP3    H227577   3.126   4.323   7.336 -0.6648  1.1699  0.6241
 1128TIP3   OH227578   3.462   1.597   8.486  0.0462 -0.0232  0.3786
 1128TIP3    H127579   3.509   1.626   8.565 -1.1662  1.7036  0.5256
 1128TIP3    H227580   3.376   1.639   8.493 -0.2345 -0.1634 -1.6761
 1129TIP3   OH227581   2.196   3.532   7.470 -0.4808 -0.0543  0.2799
 1129TIP3    H127582   2.108   3.501   7.488  0.5321 -2.4778  1.5688
 1129TIP3    H227583   2.184   3.620   7.432 -3.3777 -0.2426  0.5624
 1130TIP3   OH227584   3.205   3.494   9.861  0.1979 -0.5190 -0.5590
 1130TIP3    H127585   3.162   3.521   9.779 -0.4338 -0.0248 -0.0804
 1130TIP3    H227586   3.157   3.541   9.929 -2.0330 -3.9913  0.5127
 1131TIP3   OH227587   2.266   0.271   0.425  0.2272  0.0019  0.2181
 1131TIP3    H127588   2.344   0.325   0.435  0.1279  0.3639 -0.8084
 1131TIP3    H227589   2.195   0.323   0.464  0.6381 -0.7803  2.1187
 1132TIP3   OH227590   0.190   6.877   9.491  0.4786  0.0577 -0.0260
 1132TIP3    H127591   0.138   6.908   9.417  0.3058  0.2445  0.1714
 1132TIP3    H227592   0.125   6.860   9.560  0.7820  1.4003  0.6141
 1133TIP3   OH227593   7.304   1.668   8.710  0.5750  0.9583  0.4577
 1133TIP3    H127594   7.226   1.699   8.756 -0.6481 -1.0557 -0.1341
 1133TIP3    H227595   7.271   1.632   8.628  2.3095  1.2816 -0.4230
 1134TIP3   OH227596   1.077   0.713   2.042  0.8195  0.3840  0.2022
 1134TIP3    H127597   0.987   0.725   2.013  0.5594 -0.7470  0.4746
 1134TIP3    H227598   1.088   0.618   2.047  2.2694  0.4821 -0.5554
 1135TIP3   OH227599   1.417   6.144   0.075  0.6487 -0.2169 -0.3729
 1135TIP3    H127600   1.394   6.183   0.159 -1.1234  0.6571 -1.1950
 1135TIP3    H227601   1.423   6.218   0.015 -1.3357 -0.9932 -1.6513
 1136TIP3   OH227602   2.486   5.983   6.617 -0.3861  0.3709  0.1340
 1136TIP3    H127603   2.414   5.928   6.586 -0.1058  0.8809 -1.5136
 1136TIP3    H227604   2.450   6.072   6.619  0.2560  0.6657 -0.9395
 1137TIP3   OH227605   0.562   0.740   0.092 -0.0401  0.3271 -0.0147
 1137TIP3    H127606   0.473   0.774   0.100  0.8522  2.7444  0.3553
 1137TIP3    H227607   0.590   0.725   0.182 -0.0853 -0.4993 -0.1338
 1138TIP3   OH227608   3.845   3.638   7.898 -0.0353  0.4705  0.2416
 1138TIP3    H127609   3.886   3.689   7.828 -1.1993  2.5765  1.0219
 1138TIP3    H227610   3.919   3.603   7.948  0.7982  0.6618 -0.8002
 1139TIP3   OH227611   5.443   2.347   8.911 -0.4938  0.2698  0.4007
 1139TIP3    H127612   5.406   2.261   8.930  0.0093  0.0916  0.5989
 1139TIP3    H227613   5.534   2.329   8.887 -0.3716  0.7520  0.4920
 1140TIP3   OH227614   1.147   1.801   7.956 -0.0549  0.3724  0.0796
 1140TIP3    H127615   1.126   1.807   7.863  0.9065  1.3281 -0.0921
 1140TIP3    H227616   1.129   1.888   7.991  0.9308  0.4302  0.4846
 1141TIP3   OH227617   2.097   1.276   3.354  0.4393  0.4851 -0.6186
 1141TIP3    H127618   2.179   1.271   3.403 -0.6662  0.3749  1.3360
 1141TIP3    H227619   2.079   1.186   3.327  0.0203  0.1782  0.6333
 1142TIP3   OH227620   1.711   0.016   3.050 -0.4457 -0.0977  0.0612
 1142TIP3    H127621   1.706  -0.070   3.091 -0.0815 -1.2456 -2.1583
 1142TIP3    H227622   1.620   0.040   3.033 -0.5352 -0.1605  0.4510
 1143TIP3   OH227623   0.985   0.034   1.945  0.1980  0.0994 -0.2873
 1143TIP3    H127624   1.044   0.031   2.021 -0.6293  0.1981  0.3734
 1143TIP3    H227625   1.043   0.049   1.871  1.0993 -0.6363  0.2370
 1144TIP3   OH227626   5.123   6.069   8.087 -0.4666 -0.6212  0.0993
 1144TIP3    H127627   5.103   6.124   8.162 -0.3218  0.0204 -0.3201
 1144TIP3    H227628   5.114   6.127   8.011 -1.4790 -1.4685 -0.4652
 1145TIP3   OH227629   6.929   6.236   8.129 -0.0158  0.5137  0.3879
 1145TIP3    H127630   6.913   6.200   8.042  2.8256  1.1640 -0.4929
 1145TIP3    H227631   6.869   6.188   8.186  0.1374 -2.0861 -1.4628
 1146TIP3   OH227632   0.375   5.751   7.081  0.3134  0.7868 -0.1703
 1146TIP3    H127633   0.460   5.722   7.112  0.9007 -0.1636 -2.4628
 1146TIP3    H227634   0.319   5.674   7.089  0.1899  0.8425 -0.4866
 1147TIP3   OH227635   3.110   4.818   0.382 -0.0993  0.0360  0.7400
 1147TIP3    H127636   3.116   4.726   0.405  1.2702  0.1845  1.0647
 1147TIP3    H227637   3.142   4.865   0.459 -0.6614  0.7793  0.5357
 1148TIP3   OH227638   0.992   5.961   0.896 -0.0746  0.2602 -0.4573
 1148TIP3    H127639   1.054   5.986   0.964 -1.4209  1.5309  0.3602
 1148TIP3    H227640   1.047   5.927   0.825  1.5203  1.0929  0.3211
 1149TIP3   OH227641   5.853   0.621   7.003  0.1934 -0.1807 -0.2892
 1149TIP3    H127642   5.832   0.577   6.921  1.2668 -1.2903  0.0092
 1149TIP3    H227643   5.945   0.599   7.020  0.0093  0.0566  1.1805
 1150TIP3   OH227644   0.324   4.078   1.422 -0.0985  0.4252  0.3541
 1150TIP3    H127645   0.415   4.075   1.453 -0.6097 -1.8809  1.9121
 1150TIP3    H227646   0.320   4.011   1.354 -0.1634  2.0931 -1.3640
 1151TIP3   OH227647   3.132   5.903   6.204  0.4984 -0.2557  0.3553
 1151TIP3    H127648   3.178   5.930   6.283  2.1644  2.4306 -1.3707
 1151TIP3    H227649   3.189   5.838   6.164 -0.4999 -1.8575  1.4416
 1152TIP3   OH227650   3.343   2.475   8.509  0.1457 -0.4721  0.5230
 1152TIP3    H127651   3.366   2.463   8.601 -0.0539 -1.0054  0.5071
 1152TIP3    H227652   3.247   2.482   8.509  0.1290 -0.6714  0.3404
 1153TIP3   OH227653   3.786   4.809   8.026 -0.1410  0.1728  0.2043
 1153TIP3    H127654   3.734   4.733   8.052 -0.0028 -0.1206 -0.3746
 1153TIP3    H227655   3.867   4.772   7.992  0.1351  0.6002  0.3884
 1154TIP3   OH227656   4.840   5.599   1.723  0.1381 -0.0968 -0.4011
 1154TIP3    H127657   4.769   5.543   1.692 -0.5317  0.4743  0.0689
 1154TIP3    H227658   4.875   5.639   1.644  0.9155 -1.4851 -0.7976
 1155TIP3   OH227659   3.342   7.237   8.474 -0.1277  0.1241  0.0291
 1155TIP3    H127660   3.277   7.242   8.545 -0.2728  1.4918 -0.1773
 1155TIP3    H227661   3.290   7.229   8.394  0.0288 -0.8886  0.0038
 1156TIP3   OH227662   2.900   4.664   7.905 -0.3395 -0.0876  0.3392
 1156TIP3    H127663   2.979   4.626   7.867 -0.7623  0.3825 -1.0626
 1156TIP3    H227664   2.844   4.589   7.925 -0.6751 -0.3022 -1.2791
 1157TIP3   OH227665   7.399   1.539   1.542  0.5457 -0.0355  0.0792
 1157TIP3    H127666   7.368   1.613   1.490  0.6729 -0.2794 -0.3458
 1157TIP3    H227667   7.383   1.565   1.632 -2.0173 -0.6414 -0.1291
 1158TIP3   OH227668   3.245   3.932   0.084  0.3479 -0.2456 -0.5211
 1158TIP3    H127669   3.233   3.862   0.148  0.4982  0.0322 -0.1845
 1158TIP3    H227670   3.161   3.936   0.037 -0.6230  1.0367  1.1759
 1159TIP3   OH227671   1.458   7.465   1.609 -0.3757  0.0411 -0.4873
 1159TIP3    H127672   1.464   7.500   1.520 -0.5878 -0.5263 -0.7284
 1159TIP3    H227673   1.510   7.526   1.662  0.1667  0.1077 -1.0818
 1160TIP3   OH227674   2.384   7.344   7.683 -0.6307 -0.1817 -0.0145
 1160TIP3    H127675   2.458   7.401   7.705 -0.9298  0.6035 -0.9553
 1160TIP3    H227676   2.370   7.359   7.589 -2.0903 -0.1750  0.1832
 1161TIP3   OH227677   0.262   2.556   8.132 -0.1365 -0.5176 -0.1720
 1161TIP3    H127678   0.264   2.570   8.037  3.7013  2.1608  0.0857
 1161TIP3    H227679   0.320   2.481   8.146  0.5999  0.0875  0.0988
 1162TIP3   OH227680   1.848   7.370   9.827  0.3283 -0.2797 -0.5982
 1162TIP3    H127681   1.756   7.379   9.803  0.3936 -1.7085 -1.4949
 1162TIP3    H227682   1.889   7.451   9.795 -0.3632 -0.2913 -1.5391
 1163TIP3   OH227683   7.026   0.511   1.308  0.1638  0.5363  0.1375
 1163TIP3    H127684   7.012   0.491   1.215 -2.4369 -0.2161  0.5993
 1163TIP3    H227685   7.117   0.487   1.324  0.5989  0.4127 -2.1367
 1164TIP3   OH227686   3.743   2.364   1.501 -0.1711  0.5222 -0.0819
 1164TIP3    H127687   3.759   2.387   1.593 -1.2951 -2.5440  1.0078
 1164TIP3    H227688   3.821   2.313   1.475 -0.4943  0.1454 -0.3270
 1165TIP3   OH227689   1.298   6.136   7.818 -0.3091  0.4898 -0.0236
 1165TIP3    H127690   1.312   6.147   7.912 -0.8056  1.3485 -0.0420
 1165TIP3    H227691   1.371   6.080   7.790  0.5388  1.2029  0.6617
 1166TIP3   OH227692   7.031   6.640   7.449  0.0085 -0.6982 -0.3576
 1166TIP3    H127693   7.058   6.548   7.454 -1.1910 -1.1445 -1.5318
 1166TIP3    H227694   6.936   6.638   7.457 -0.0551  0.4159 -0.6606
 1167TIP3   OH227695   3.620   0.100   9.874  0.0833  1.1490 -0.2058
 1167TIP3    H127696   3.596   0.074   9.785  0.3852  1.0166 -0.2501
 1167TIP3    H227697   3.695   0.158   9.864  0.3529  0.8396 -0.0208
 1168TIP3   OH227698   3.250   6.580   0.668  0.3041  0.9081  0.1011
 1168TIP3    H127699   3.231   6.549   0.579 -0.1262 -0.8762  0.7681
 1168TIP3    H227700   3.191   6.529   0.724  1.3747  1.1574  1.5096
 1169TIP3   OH227701   3.500   4.880   9.119  0.4970  0.0952 -0.8754
 1169TIP3    H127702   3.422   4.911   9.073  0.8839  1.4983 -0.6536
 1169TIP3    H227703   3.473   4.871   9.210  0.1154 -1.2696 -1.1032
 1170TIP3   OH227704   3.327   2.776   7.941 -0.2236 -0.1187  0.0086
 1170TIP3    H127705   3.289   2.802   7.857 -2.2779  0.5999  1.1131
 1170TIP3    H227706   3.382   2.850   7.966  0.0173 -0.1347 -0.4558
 1171TIP3   OH227707   6.161   3.181   0.921  0.5418  0.8372  0.7005
 1171TIP3    H127708   6.100   3.197   0.994 -0.1009  0.7415  0.1964
 1171TIP3    H227709   6.248   3.193   0.959  0.3181 -1.2403  2.0169
 1172TIP3   OH227710   1.818   1.327   1.781 -0.7019  0.3357  0.3060
 1172TIP3    H127711   1.790   1.240   1.753 -1.8560  0.8220 -0.1025
 1172TIP3    H227712   1.858   1.366   1.704 -0.7972  0.4203  0.2995
 1173TIP3   OH227713   5.279   1.090   0.158  0.1279  0.1355 -0.3744
 1173TIP3    H127714   5.266   1.138   0.240 -0.2260  0.3674 -0.5670
 1173TIP3    H227715   5.206   1.029   0.155  0.6150 -0.4715 -0.0958
 1174TIP3   OH227716   6.454   4.355   1.216 -0.5163 -0.2690  0.5624
 1174TIP3    H127717   6.505   4.349   1.297 -0.2104 -0.3904  0.3639
 1174TIP3    H227718   6.363   4.365   1.245 -0.6883 -2.4671  0.9383
 1175TIP3   OH227719   0.160   6.204   8.753  0.1356  0.2409 -0.5433
 1175TIP3    H127720   0.106   6.263   8.701  0.9952  0.8481 -0.7711
 1175TIP3    H227721   0.248   6.214   8.716  0.4627 -0.4919  0.0207
 1176TIP3   OH227722   1.006   2.001   7.270  0.2271  0.3684  0.2688
 1176TIP3    H127723   1.055   2.068   7.317  3.6855 -2.0093  0.4571
 1176TIP3    H227724   0.989   1.933   7.335  1.1068 -1.0239 -0.8905
 1177TIP3   OH227725   1.244   4.540   0.193  0.2252 -0.0229 -0.2165
 1177TIP3    H127726   1.329   4.535   0.149  0.3931  0.5919  0.0345
 1177TIP3    H227727   1.262   4.582   0.277  0.2237 -2.7564  1.2740
 1178TIP3   OH227728   6.915   6.548   0.499  0.0813 -0.1822 -0.7230
 1178TIP3    H127729   6.984   6.584   0.554 -1.7489 -1.1111  2.4071
 1178TIP3    H227730   6.842   6.610   0.508 -1.2187 -1.7814  0.3167
 1179TIP3   OH227731   4.533   2.452   1.118  0.1648 -0.3282 -0.7544
 1179TIP3    H127732   4.447   2.430   1.154  1.0129 -0.5292  1.3070
 1179TIP3    H227733   4.563   2.370   1.078 -0.0505 -0.6495 -0.2746
 1180TIP3   OH227734   2.338   2.879   6.873  0.4685  0.4343 -0.2592
 1180TIP3    H127735   2.325   2.787   6.852 -0.3922  0.5962 -0.4479
 1180TIP3    H227736   2.410   2.906   6.817  1.9998 -0.5774  1.1063
 1181TIP3   OH227737   2.840   6.480   8.359 -1.1625  0.6088  0.2544
 1181TIP3    H127738   2.923   6.516   8.327 -0.3552  0.4136  2.0337
 1181TIP3    H227739   2.774   6.513   8.296  0.3525 -0.1656 -1.8623
 1182TIP3   OH227740   0.813   3.148   0.567 -0.2513 -0.4970  0.4734
 1182TIP3    H127741   0.866   3.227   0.575 -0.9174 -0.0633  0.6560
 1182TIP3    H227742   0.869   3.078   0.601  0.7038 -0.2700 -0.5818
 1183TIP3   OH227743   0.434   6.746   2.561  0.0155  0.1661  0.3319
 1183TIP3    H127744   0.440   6.652   2.550 -1.0027  0.2662 -1.9049
 1183TIP3    H227745   0.353   6.759   2.611  0.4359 -0.1543  1.0998
 1184TIP3   OH227746   2.404   5.616   8.882  0.5772  0.0067  0.0101
 1184TIP3    H127747   2.483   5.653   8.842 -0.2819  1.4503 -0.4255
 1184TIP3    H227748   2.417   5.627   8.976  0.6085  0.9096 -0.0880
 1185TIP3   OH227749   2.473   1.697   0.151  0.4641  0.0912  0.1340
 1185TIP3    H127750   2.442   1.706   0.241 -0.0054  0.5672 -0.0700
 1185TIP3    H227751   2.530   1.772   0.137  0.4158  0.1013 -0.0120
 1186TIP3   OH227752   5.754   5.936   0.221  0.6516  0.2219  0.0548
 1186TIP3    H127753   5.671   5.899   0.189  0.8408  0.0428 -0.2316
 1186TIP3    H227754   5.815   5.863   0.219  0.4640 -0.0241  1.6561
 1187TIP3   OH227755   0.427   4.527   0.857  0.2666  0.0484 -0.5163
 1187TIP3    H127756   0.437   4.444   0.811 -0.3682 -0.5416  0.3953
 1187TIP3    H227757   0.511   4.540   0.902  0.6216  0.2629 -1.2206
 1188TIP3   OH227758   5.181   3.127   7.623  0.0172 -0.0630  0.0760
 1188TIP3    H127759   5.161   3.087   7.538 -1.8682 -0.7580  0.8074
 1188TIP3    H227760   5.230   3.060   7.670  1.2868  0.4153 -0.5163
 1189TIP3   OH227761   2.672   3.571   0.389  0.0588  0.0209 -0.1687
 1189TIP3    H127762   2.634   3.519   0.460  0.5339  1.9719  1.6061
 1189TIP3    H227763   2.602   3.632   0.365  0.6748  0.9313  0.2958
 1190TIP3   OH227764   2.264   3.696   7.719  0.1970  0.8398  0.4966
 1190TIP3    H127765   2.241   3.656   7.635 -0.9022 -0.8078  1.5115
 1190TIP3    H227766   2.357   3.678   7.730 -0.1899 -1.2643  0.7522
 1191TIP3   OH227767   1.822   2.822   8.471  0.4454 -0.1915 -0.3188
 1191TIP3    H127768   1.871   2.837   8.390  0.0628  0.1168 -0.4953
 1191TIP3    H227769   1.786   2.907   8.494  0.2060 -0.3635 -0.0514
 1192TIP3   OH227770   1.129   1.769   8.969 -0.2196 -0.4735 -0.0490
 1192TIP3    H127771   1.098   1.821   9.044 -1.0742 -1.3114  0.1975
 1192TIP3    H227772   1.219   1.746   8.992  0.9182  2.5131 -1.0594
 1193TIP3   OH227773   4.906   3.329   0.235  0.1707 -0.4989 -0.2859
 1193TIP3    H127774   4.866   3.333   0.322  0.1211 -0.9350 -0.2879
 1193TIP3    H227775   4.834   3.312   0.175  0.2909 -0.8416 -0.3386
 1194TIP3   OH227776   2.638   4.868   9.070  0.0558  0.1432 -0.0864
 1194TIP3    H127777   2.583   4.932   9.116 -1.8699  0.2265 -2.3121
 1194TIP3    H227778   2.692   4.829   9.139 -0.4685  2.3825  1.7200
 1195TIP3   OH227779   7.245   3.189   9.397 -0.0479  0.0443 -0.0462
 1195TIP3    H127780   7.204   3.122   9.342  0.0431 -0.3954  0.4200
 1195TIP3    H227781   7.210   3.174   9.484  0.0392  0.5544  0.0830
 1196TIP3   OH227782   5.443   0.278   0.715 -0.6948  1.0170  0.4552
 1196TIP3    H127783   5.395   0.273   0.797  0.1006  1.2524  0.9502
 1196TIP3    H227784   5.428   0.367   0.684 -2.8914  0.2520 -0.8680
 1197TIP3   OH227785   2.125   6.760   2.405  0.7159  0.5759 -0.5562
 1197TIP3    H127786   2.090   6.810   2.331 -1.6092  0.9892  0.7283
 1197TIP3    H227787   2.158   6.827   2.466 -0.2587  0.4412  0.1386
 1198TIP3   OH227788   2.495   3.688   8.342 -0.5220  0.1596  0.2686
 1198TIP3    H127789   2.508   3.780   8.320  0.5172 -0.5235 -2.3003
 1198TIP3    H227790   2.572   3.666   8.395  0.1831  0.3444 -0.6480
 1199TIP3   OH227791   2.945   2.066   1.834 -0.6738  0.7250 -0.4248
 1199TIP3    H127792   2.953   2.138   1.773  1.0996 -0.7205 -2.0425
 1199TIP3    H227793   2.909   1.994   1.782  0.7895 -0.5125  0.1617
 1200TIP3   OH227794   4.376   3.533   1.551 -0.1422 -0.1977 -0.1571
 1200TIP3    H127795   4.409   3.482   1.625 -1.7467 -0.4317  0.4340
 1200TIP3    H227796   4.388   3.624   1.577  0.0380 -0.2818  0.0525
 1201TIP3   OH227797   3.690   3.462   0.299  0.2902 -0.2159  0.1670
 1201TIP3    H127798   3.775   3.472   0.256  0.0504 -2.3015 -0.9027
 1201TIP3    H227799   3.700   3.386   0.355 -0.9563 -0.6901 -0.2168
 1202TIP3   OH227800   1.586   5.639   2.482  0.6464 -0.9879  0.0260
 1202TIP3    H127801   1.616   5.707   2.422 -0.2053 -1.1662 -0.6285
 1202TIP3    H227802   1.544   5.574   2.425 -3.1439  0.3673  0.9592
 1203TIP3   OH227803   3.725   0.655   8.196 -0.1653  0.4189  0.4211
 1203TIP3    H127804   3.755   0.696   8.277 -1.1640  0.7457  0.6464
 1203TIP3    H227805   3.793   0.676   8.132  0.5405  0.3197  1.1241
 1204TIP3   OH227806   5.049   0.802   6.803 -0.3904  0.3094  0.1412
 1204TIP3    H127807   5.124   0.832   6.854 -0.2810 -0.0757  0.2120
 1204TIP3    H227808   5.041   0.865   6.731  0.1182  0.2480  0.0286
 1205TIP3   OH227809   6.960   6.495   8.117 -0.7950  0.1649  0.6949
 1205TIP3    H127810   6.924   6.406   8.126  0.4831 -0.4228  0.2074
 1205TIP3    H227811   7.025   6.501   8.187 -0.6391  0.5935  0.5132
 1206TIP3   OH227812   4.296   5.281   2.440  0.3318 -0.4304 -0.3136
 1206TIP3    H127813   4.331   5.279   2.529 -0.3005 -1.0642 -0.0667
 1206TIP3    H227814   4.296   5.189   2.413  0.3740 -0.2589 -0.9119
 1207TIP3   OH227815   6.394   6.691   9.611 -0.5081 -0.3089 -0.5813
 1207TIP3    H127816   6.459   6.670   9.544  1.5670 -2.5124  1.9032
 1207TIP3    H227817   6.443   6.738   9.679 -2.1770  0.4861  0.1448
 1208TIP3   OH227818   4.848   5.679   8.109  0.3668 -0.2572  0.8369
 1208TIP3    H127819   4.892   5.757   8.143 -1.5366  0.8358  0.9342
 1208TIP3    H227820   4.829   5.701   8.018 -0.8874 -0.2422  1.0822
 1209TIP3   OH227821   2.755   5.533   1.407 -0.3723 -0.2556  0.0800
 1209TIP3    H127822   2.835   5.484   1.391  1.2181  1.5270  2.0870
 1209TIP3    H227823   2.703   5.476   1.464  0.2446 -0.6935  0.2150
 1210TIP3   OH227824   6.097   0.603   0.222 -0.3115  0.4356 -0.3233
 1210TIP3    H127825   6.009   0.621   0.255 -0.4754  0.3293 -0.6934
 1210TIP3    H227826   6.111   0.668   0.154 -1.3948 -1.4838 -2.5303
 1211TIP3   OH227827   3.919   1.089   0.223 -0.8123 -0.1276 -0.2737
 1211TIP3    H127828   3.944   1.177   0.251  0.0945 -0.5633  0.3238
 1211TIP3    H227829   3.837   1.071   0.269  0.3676 -0.6191  1.7389
 1212TIP3   OH227830   2.432   0.651   7.972  0.3207  0.0846 -0.0461
 1212TIP3    H127831   2.509   0.654   7.914  0.1831 -1.1382 -0.3154
 1212TIP3    H227832   2.401   0.561   7.966 -0.3589  0.2234  1.0895
 1213TIP3   OH227833   0.025   3.707   9.955 -0.6198  0.1453  0.7008
 1213TIP3    H127834  -0.035   3.643   9.915  1.3928 -2.1710  1.1631
 1213TIP3    H227835   0.044   3.670  10.041  1.2871  0.9076  0.6474
 1214TIP3   OH227836   0.215   2.536   8.975  0.0145  0.4719 -0.4840
 1214TIP3    H127837   0.234   2.598   9.045 -2.5037  0.1465  0.5812
 1214TIP3    H227838   0.265   2.457   8.998  2.2006  1.5728 -1.1589
 1215TIP3   OH227839   1.025   0.225   0.443 -0.2755 -0.2947 -0.2883
 1215TIP3    H127840   1.120   0.235   0.446 -0.1339 -1.5900 -0.2100
 1215TIP3    H227841   0.996   0.249   0.531 -0.1361  0.9576 -0.5535
 1216TIP3   OH227842   0.167   1.012   9.391 -0.2378 -0.2775 -0.2793
 1216TIP3    H127843   0.096   0.947   9.392  0.3062 -0.8733  0.0028
 1216TIP3    H227844   0.244   0.964   9.361 -0.0439  0.4729 -1.0064
 1217TIP3   OH227845   1.721   7.031   0.414 -0.4584  0.7562 -0.5522
 1217TIP3    H127846   1.745   7.047   0.506  0.1426 -0.5364 -0.4684
 1217TIP3    H227847   1.633   6.993   0.419 -0.6794  1.2560 -0.5622
 1218TIP3   OH227848   2.320   5.721   0.383  0.3148 -0.0105  0.0030
 1218TIP3    H127849   2.252   5.664   0.420  0.1736  0.9173  1.2267
 1218TIP3    H227850   2.401   5.674   0.401  0.0810 -0.6702 -0.6100
 1219TIP3   OH227851   0.961   4.497   7.306 -0.1227  0.0311 -0.0528
 1219TIP3    H127852   0.943   4.591   7.308 -0.0816  0.0261  1.0250
 1219TIP3    H227853   0.933   4.465   7.392  0.2329 -0.8781 -0.2609
 1220TIP3   OH227854   7.356   2.757   9.444  0.1789 -0.0318 -0.4562
 1220TIP3    H127855   7.336   2.707   9.523  0.6781  1.4651  0.6700
 1220TIP3    H227856   7.451   2.770   9.447  0.2461 -0.1875 -1.4694
 1221TIP3   OH227857   2.271   2.182   8.070  0.3116  0.5668 -0.3108
 1221TIP3    H127858   2.284   2.213   8.159 -0.0027 -1.6152  0.5767
 1221TIP3    H227859   2.178   2.196   8.053 -0.2805 -1.4690  0.8290
 1222TIP3   OH227860   2.443   5.785   7.923  0.4461  0.0122  0.0135
 1222TIP3    H127861   2.433   5.833   7.840 -0.4785 -1.7554 -0.9629
 1222TIP3    H227862   2.364   5.807   7.972 -0.4987 -1.2459 -0.8721
 1223TIP3   OH227863   4.139   5.891   7.274  0.2985  0.6649 -0.4877
 1223TIP3    H127864   4.215   5.920   7.224  1.3620 -0.3967  0.4314
 1223TIP3    H227865   4.173   5.875   7.362 -1.6879  3.4258  0.9213
 1224TIP3   OH227866   6.584   4.760   0.452 -0.1890  0.1469 -0.5016
 1224TIP3    H127867   6.557   4.716   0.371  0.4413 -0.5837 -0.3293
 1224TIP3    H227868   6.603   4.688   0.512  1.0177  0.6514 -0.2654
 1225TIP3   OH227869   4.439   1.757   0.538 -0.0612  0.2148 -0.0755
 1225TIP3    H127870   4.456   1.799   0.454  1.5868  0.2949  0.2676
 1225TIP3    H227871   4.381   1.817   0.584  1.2402  1.5502 -0.0912
 1226TIP3   OH227872   1.827   6.107   0.020 -0.6574 -0.0752 -0.4562
 1226TIP3    H127873   1.919   6.083   0.034 -0.1095  0.8413 -2.2424
 1226TIP3    H227874   1.830   6.197  -0.012 -2.1810 -0.0757 -0.6645
 1227TIP3   OH227875   5.733   0.297   2.121 -0.2063 -0.1222 -0.3674
 1227TIP3    H127876   5.641   0.279   2.139 -0.5158  0.4990 -1.2661
 1227TIP3    H227877   5.778   0.279   2.204 -1.3509  1.1214  0.5569
 1228TIP3   OH227878   6.693   0.599   0.119  0.6364  0.3319  0.3597
 1228TIP3    H127879   6.788   0.592   0.116  0.5312 -1.8788  0.3017
 1228TIP3    H227880   6.662   0.511   0.096 -1.4704  1.5413 -1.8813
 1229TIP3   OH227881   3.850   6.251   7.596  0.0810 -0.7621 -0.0264
 1229TIP3    H127882   3.779   6.252   7.532  1.8712  0.9315 -2.1383
 1229TIP3    H227883   3.850   6.162   7.630 -1.8698 -1.3185 -1.2940
 1230TIP3   OH227884   1.620   1.034   1.016  0.1269 -0.8594 -0.7567
 1230TIP3    H127885   1.626   1.077   1.101 -0.1751 -1.7351 -0.2751
 1230TIP3    H227886   1.707   0.998   1.001 -0.0566 -1.4823 -0.3795
 1231TIP3   OH227887   0.841   3.149   9.889 -0.2070 -0.4245 -0.5259
 1231TIP3    H127888   0.809   3.172   9.976  0.0164 -0.1805 -0.5081
 1231TIP3    H227889   0.936   3.145   9.898  0.0141  1.7744 -1.2459
 1232TIP3   OH227890   3.444   0.256   0.908  0.1810 -1.1307  0.5880
 1232TIP3    H127891   3.456   0.165   0.935 -2.7007 -0.9077  3.1535
 1232TIP3    H227892   3.436   0.252   0.813  1.7697 -3.2716  0.4742
 1233TIP3   OH227893   6.061   0.728   1.199 -0.1222  0.4666  0.1586
 1233TIP3    H127894   6.007   0.807   1.198  3.1915  2.9987 -3.3645
 1233TIP3    H227895   6.022   0.671   1.134 -0.2959  0.9267 -0.1423
 1234TIP3   OH227896   1.742   7.007   1.793 -0.0548 -0.4464  0.3567
 1234TIP3    H127897   1.758   6.980   1.883  2.9793  0.2620  0.1296
 1234TIP3    H227898   1.727   7.102   1.800  1.7790 -0.0985  0.0332
 1235TIP3   OH227899   5.548   3.893   0.322  0.0237 -0.2207 -0.1902
 1235TIP3    H127900   5.596   3.889   0.405 -0.3616 -0.3657  0.0254
 1235TIP3    H227901   5.563   3.982   0.290  1.0016 -0.4694 -0.4633
 1236TIP3   OH227902   4.814   3.755   7.614 -0.4887  1.3683  0.1712
 1236TIP3    H127903   4.873   3.787   7.546 -2.0626  1.8179 -1.0581
 1236TIP3    H227904   4.728   3.752   7.571 -1.0950 -0.8145  1.4021
 1237TIP3   OH227905   4.628   6.327   7.722  0.0058 -0.4162 -0.1385
 1237TIP3    H127906   4.552   6.306   7.667 -0.7006 -0.5763  0.8730
 1237TIP3    H227907   4.681   6.248   7.721 -0.2866 -0.6152 -0.1494
 1238TIP3   OH227908   6.416   0.613   9.741 -0.6860 -0.1765  0.0969
 1238TIP3    H127909   6.489   0.648   9.792  0.7969  0.9650 -2.6022
 1238TIP3    H227910   6.347   0.678   9.750 -0.1581  0.3981  0.0377
 1239TIP3   OH227911   5.772   1.080   1.494 -0.1941  0.5317  0.4531
 1239TIP3    H127912   5.701   1.043   1.547  0.5757 -0.1759  1.0184
 1239TIP3    H227913   5.812   1.146   1.551  0.0264  0.4533  0.3878
 1240TIP3   OH227914   2.660   4.362   1.406 -0.2952  0.0207  0.2314
 1240TIP3    H127915   2.587   4.340   1.464  1.6916  0.9212  3.2771
 1240TIP3    H227916   2.620   4.415   1.336 -2.7853 -1.0698  0.7386
 1241TIP3   OH227917   6.537   0.870   0.822 -0.8303  0.2306 -0.1207
 1241TIP3    H127918   6.542   0.949   0.876  0.7117  0.5281 -0.6305
 1241TIP3    H227919   6.534   0.902   0.732 -2.3801 -0.2830 -0.2831
 1242TIP3   OH227920   0.889   3.295   0.311 -0.5746 -0.0787  0.2018
 1242TIP3    H127921   0.840   3.260   0.386 -1.9879  1.6642  0.1621
 1242TIP3    H227922   0.934   3.372   0.346  0.9850 -0.8022 -0.1351
 1243TIP3   OH227923   1.450   0.050   0.326  0.2746  0.4841  0.0154
 1243TIP3    H127924   1.428  -0.004   0.250  1.7626 -0.5776  0.2849
 1243TIP3    H227925   1.436  -0.007   0.401  0.2916  1.0150  0.4277
 1244TIP3   OH227926   6.827   3.716   8.326  0.3308 -0.1783 -0.2865
 1244TIP3    H127927   6.818   3.764   8.409 -0.9272 -1.1820  0.2028
 1244TIP3    H227928   6.918   3.728   8.301  0.2246  1.9607  0.1068
 1245TIP3   OH227929   7.469   6.671   1.404 -0.3721  0.1238 -0.3163
 1245TIP3    H127930   7.483   6.760   1.435 -2.7335  0.5325 -0.2014
 1245TIP3    H227931   7.495   6.616   1.479 -0.5201  0.8039  0.2476
 1246TIP3   OH227932   4.849   0.357   1.293  0.2332 -0.1793  0.1005
 1246TIP3    H127933   4.890   0.283   1.248 -0.7281 -1.0942  0.6938
 1246TIP3    H227934   4.909   0.376   1.366  1.3674  0.7748 -1.0269
 1247TIP3   OH227935   0.540   4.482   1.421 -0.0086  0.1478 -0.2609
 1247TIP3    H127936   0.629   4.514   1.404  0.0553  0.2518  0.2583
 1247TIP3    H227937   0.553   4.400   1.467 -0.1837  0.2613 -0.0115
 1248TIP3   OH227938   6.537   0.590   2.603 -0.2901  0.3301 -0.1064
 1248TIP3    H127939   6.622   0.635   2.599 -1.0610  1.8583 -0.0208
 1248TIP3    H227940   6.483   0.635   2.538 -0.8083 -1.1820 -0.7724
 1249TIP3   OH227941   2.510   4.520   1.754  0.5523 -0.1770  0.0182
 1249TIP3    H127942   2.561   4.552   1.829 -0.5003 -0.3387  0.8287
 1249TIP3    H227943   2.474   4.437   1.784  2.3480 -1.6675 -1.6623
 1250TIP3   OH227944   1.886   5.431   7.934  0.2094  0.2815 -0.6303
 1250TIP3    H127945   1.827   5.372   7.980 -0.9040  1.4469 -0.5161
 1250TIP3    H227946   1.828   5.492   7.888  1.3177  1.1376 -0.9401
 1251TIP3   OH227947   4.338   1.155   9.168 -0.1072  0.0378 -0.3941
 1251TIP3    H127948   4.245   1.141   9.183 -0.1977  1.3301  0.4506
 1251TIP3    H227949   4.374   1.068   9.151 -1.3088 -0.5883  0.2022
 1252TIP3   OH227950   6.058   2.613   1.474  0.1198  0.0314 -0.4572
 1252TIP3    H127951   5.969   2.587   1.449  0.0885 -0.0537 -0.2602
 1252TIP3    H227952   6.067   2.584   1.565  0.3397  0.0647 -0.4673
 1253TIP3   OH227953   4.330   5.144   9.689  0.0015  0.6228 -0.0900
 1253TIP3    H127954   4.353   5.131   9.781 -0.7104 -0.4352 -0.0455
 1253TIP3    H227955   4.262   5.080   9.672 -0.3569  1.2670 -1.1845
 1254TIP3   OH227956   5.381   2.990   8.598  0.0270  0.4719  0.1462
 1254TIP3    H127957   5.400   3.075   8.638  0.5073  0.5061 -0.1461
 1254TIP3    H227958   5.410   2.926   8.662 -0.5750  0.5214  0.4789
 1255TIP3   OH227959   0.910   1.723   9.449  0.0418  0.1487  0.1494
 1255TIP3    H127960   0.928   1.795   9.510  0.0978  1.2927 -1.1501
 1255TIP3    H227961   0.979   1.659   9.467 -0.7161 -0.1703  2.1612
 1256TIP3   OH227962   1.148   4.394   8.692  0.1327 -0.8750 -0.3711
 1256TIP3    H127963   1.069   4.420   8.644  0.5706 -0.6156 -0.9596
 1256TIP3    H227964   1.201   4.346   8.629  0.3707 -1.2069  0.0703
 1257TIP3   OH227965   1.386   0.571   9.492  0.1701 -0.1858 -0.0375
 1257TIP3    H127966   1.410   0.643   9.551  0.6700  0.1577 -0.6569
 1257TIP3    H227967   1.448   0.576   9.420 -1.0620  0.0249 -1.1137
 1258TIP3   OH227968   0.908   2.292   8.524 -0.4467  0.2776 -0.2446
 1258TIP3    H127969   0.878   2.204   8.548  1.6425  0.0458  1.8497
 1258TIP3    H227970   0.852   2.350   8.575 -1.1390  0.1521 -0.8381
 1259TIP3   OH227971   1.430   2.303   7.516  0.2514  0.4006 -0.5063
 1259TIP3    H127972   1.351   2.348   7.486  0.0556 -0.1975 -0.9026
 1259TIP3    H227973   1.409   2.210   7.509 -1.0416  0.0368  4.6280
 1260TIP3   OH227974   5.986   5.559   8.543  0.9876 -0.6340  0.3703
 1260TIP3    H127975   5.955   5.575   8.454  2.5994 -1.5995 -0.4042
 1260TIP3    H227976   5.952   5.633   8.593 -1.1288 -0.7924 -0.7153
 1261TIP3   OH227977   3.528   3.247   0.030 -0.0532 -0.3501 -0.3723
 1261TIP3    H127978   3.504   3.323   0.083  0.7539 -0.4762  0.1838
 1261TIP3    H227979   3.455   3.237  -0.032 -0.0879  0.9707 -0.5620
 1262TIP3   OH227980   2.504   3.513   7.430 -0.2120  0.2665  0.0558
 1262TIP3    H127981   2.419   3.526   7.388 -0.3245  0.7257  0.4139
 1262TIP3    H227982   2.567   3.553   7.370 -0.2105 -0.3127 -0.3412
 1263TIP3   OH227983   3.756   0.614   9.404  0.2577 -0.7670  0.4506
 1263TIP3    H127984   3.730   0.601   9.313  0.2914  1.2992  0.0967
 1263TIP3    H227985   3.717   0.540   9.451  1.8636 -2.9942 -1.4752
 1264TIP3   OH227986   6.193   1.794   0.575  0.0498 -0.4830  0.5798
 1264TIP3    H127987   6.288   1.792   0.568  0.1532  1.0890  1.0887
 1264TIP3    H227988   6.163   1.820   0.488  0.1172 -0.4137  0.5773
 1265TIP3   OH227989   4.756   3.190   0.436  0.5604  0.1623  0.4065
 1265TIP3    H127990   4.753   3.178   0.531  0.1160 -0.4953  0.3187
 1265TIP3    H227991   4.716   3.110   0.401 -1.0633  1.2303 -0.2690
 1266TIP3   OH227992   4.386   1.291   0.216  0.2397  0.2145  0.0668
 1266TIP3    H127993   4.374   1.302   0.310 -0.6895  0.4666 -0.0721
 1266TIP3    H227994   4.344   1.368   0.177  1.0582  0.3642 -0.5298
 1267TIP3   OH227995   1.975   4.362   1.689  0.3279 -0.0022 -0.2377
 1267TIP3    H127996   1.939   4.332   1.606  1.7252 -0.7644 -0.5897
 1267TIP3    H227997   1.910   4.424   1.722  0.0548  0.8361 -2.2144
 1268TIP3   OH227998   5.779   1.913   9.610  0.6305  0.2282 -0.0721
 1268TIP3    H127999   5.752   1.841   9.667  1.1028  1.2681  1.5241
 1268TIP3    H228000   5.863   1.885   9.574  0.6219 -0.1939  0.2285
 1269TIP3   OH228001   1.829   1.728   8.925  0.7091 -0.1270  0.3809
 1269TIP3    H128002   1.772   1.779   8.982 -0.3677 -0.6454 -0.2071
 1269TIP3    H228003   1.885   1.678   8.985  0.0399 -0.1684  0.9752
 1270TIP3   OH228004   4.527   6.377   1.967 -0.0126  0.0461 -0.1368
 1270TIP3    H128005   4.461   6.318   1.932 -0.3675  0.0610  0.4974
 1270TIP3    H228006   4.544   6.344   2.055 -0.2626  0.9197  0.2484
 1271TIP3   OH228007   5.054   6.574   7.841  0.2197  0.1935 -0.1166
 1271TIP3    H128008   5.038   6.667   7.824  0.1401 -0.0697 -1.5835
 1271TIP3    H228009   5.134   6.573   7.894 -0.4285  1.1366  0.9385
 1272TIP3   OH228010   0.368   4.456   0.110 -0.0588 -0.1643  0.2867
 1272TIP3    H128011   0.375   4.546   0.079 -0.8965 -0.2100 -0.0436
 1272TIP3    H228012   0.445   4.444   0.166  1.0369  0.1660 -1.1107
 1273TIP3   OH228013   5.326   5.633   2.083  0.0768  0.0875 -0.4232
 1273TIP3    H128014   5.344   5.724   2.058  0.4081  0.4655  1.0853
 1273TIP3    H228015   5.267   5.641   2.158 -0.7495 -0.9846 -0.9410
 1274TIP3   OH228016   6.838   5.699   0.800 -0.0113 -0.4201 -0.2517
 1274TIP3    H128017   6.870   5.783   0.831  0.6562  0.3189 -2.7277
 1274TIP3    H228018   6.755   5.719   0.756  0.2002 -1.0287 -0.9477
 1275TIP3   OH228019   3.613   5.553   8.089 -0.3380 -0.0990 -0.3578
 1275TIP3    H128020   3.538   5.591   8.043 -0.1941  0.2720 -0.2921
 1275TIP3    H228021   3.644   5.484   8.031 -2.8400 -2.6757  1.0973
 1276TIP3   OH228022   4.469   7.172   1.303 -0.6356 -1.0743  0.2377
 1276TIP3    H128023   4.412   7.248   1.317 -0.0728 -0.5195 -0.3901
 1276TIP3    H228024   4.544   7.207   1.255 -0.0890 -1.9241  0.4491
 1277TIP3   OH228025   2.764   2.639   8.668 -0.1956 -0.0122  0.1565
 1277TIP3    H128026   2.827   2.711   8.670  0.5547 -0.6597  1.4015
 1277TIP3    H228027   2.774   2.597   8.754 -0.8846 -1.3641 -0.4057
 1278TIP3   OH228028   3.787   4.817   2.460 -0.1108  0.2010 -0.2404
 1278TIP3    H128029   3.840   4.761   2.403  0.6086  0.3372  0.2843
 1278TIP3    H228030   3.839   4.828   2.539 -0.9692  0.2566  0.3372
 1279TIP3   OH228031   2.295   0.763   0.128 -0.4586 -0.3848 -0.1545
 1279TIP3    H128032   2.369   0.723   0.174  0.1247  0.2515 -0.5104
 1279TIP3    H228033   2.225   0.763   0.192  1.3141  3.7265  2.1783
 1280TIP3   OH228034   6.602   5.137   9.504  0.3970 -0.0458 -0.7303
 1280TIP3    H128035   6.632   5.217   9.460  0.8598 -0.3018 -0.8838
 1280TIP3    H228036   6.603   5.160   9.597 -2.2631  1.0809 -0.8790
 1281TIP3   OH228037   2.187   2.785   1.596  0.1439  0.5538  0.2100
 1281TIP3    H128038   2.122   2.855   1.586 -1.1882 -0.5266  0.9203
 1281TIP3    H228039   2.228   2.802   1.680 -0.9595 -0.1025  0.9055
 1282TIP3   OH228040   5.367   2.843   9.992 -0.1483 -0.1884  0.2016
 1282TIP3    H128041   5.383   2.917  10.051  1.5248 -1.2674  1.2004
 1282TIP3    H228042   5.443   2.841   9.934 -0.9939 -0.1332 -0.9407
 1283TIP3   OH228043   2.830   5.986   0.384 -0.4207 -0.6127  0.2991
 1283TIP3    H128044   2.846   5.986   0.290 -1.9272 -0.2120  0.0161
 1283TIP3    H228045   2.820   5.894   0.407 -0.7625 -0.6774 -0.0858
 1284TIP3   OH228046   6.326   1.089   7.709 -0.1468 -0.2309  0.0552
 1284TIP3    H128047   6.319   0.993   7.711  0.7054 -0.3356 -1.1393
 1284TIP3    H228048   6.403   1.108   7.762  0.1528 -0.2693 -0.3632
 1285TIP3   OH228049   7.198   7.304   2.259  0.5174  0.4352 -0.5626
 1285TIP3    H128050   7.289   7.298   2.290  0.3159  1.9919  0.4300
 1285TIP3    H228051   7.147   7.319   2.339 -0.4822  0.7235 -1.2410
 1286TIP3   OH228052   5.234   5.022   8.439 -0.0484 -0.1692  0.6309
 1286TIP3    H128053   5.254   5.001   8.347  0.8127 -0.9215  0.9754
 1286TIP3    H228054   5.274   4.951   8.489 -0.1114  0.4749  1.6270
 1287TIP3   OH228055   1.577   4.568   7.776 -0.0022  0.2204 -0.2277
 1287TIP3    H128056   1.595   4.643   7.833 -1.6116  1.0666 -0.7460
 1287TIP3    H228057   1.484   4.549   7.791  0.1790 -1.1774 -0.7052
 1288TIP3   OH228058   5.322   2.708   8.132  0.4624  0.3720 -0.3303
 1288TIP3    H128059   5.417   2.709   8.125  0.4721  2.7063 -0.6434
 1288TIP3    H228060   5.291   2.731   8.044 -0.4809 -1.5439 -0.5652
 1289TIP3   OH228061   4.034   2.518   2.119 -0.4863  0.1168  0.8353
 1289TIP3    H128062   3.972   2.582   2.084 -1.2853 -0.0729  1.8533
 1289TIP3    H228063   4.018   2.519   2.214  1.7956  0.8186  1.2580
 1290TIP3   OH228064   1.491   4.942   8.193 -0.2936  0.1560 -0.6810
 1290TIP3    H128065   1.417   4.916   8.248 -0.0814 -1.2792 -1.0286
 1290TIP3    H228066   1.468   5.030   8.163 -1.9944 -0.3452 -0.9949
 1291TIP3   OH228067   3.994   4.490   7.257  0.3270 -0.0644 -0.0594
 1291TIP3    H128068   4.026   4.578   7.277 -0.4359  0.6687 -1.8482
 1291TIP3    H228069   3.907   4.486   7.297  0.4137 -0.0663  0.1317
 1292TIP3   OH228070   4.217   3.856   9.175 -0.0386 -0.7579 -0.4524
 1292TIP3    H128071   4.250   3.831   9.261  0.0065 -1.1253 -0.5725
 1292TIP3    H228072   4.121   3.851   9.184 -0.0573 -0.0305 -0.2039
 1293TIP3   OH228073   3.547   3.879   7.227 -0.1996  0.1790 -0.2690
 1293TIP3    H128074   3.624   3.936   7.219 -0.9622  1.1823 -0.6418
 1293TIP3    H228075   3.573   3.798   7.183  1.2620 -0.1698  1.1555
 1294TIP3   OH228076   6.476   3.571   0.264  0.5288  0.1117 -0.4471
 1294TIP3    H128077   6.425   3.538   0.190  0.1155 -0.6543  0.1751
 1294TIP3    H228078   6.431   3.538   0.341  2.2453 -1.0216  0.1260
 1295TIP3   OH228079   3.543   0.562   2.015 -0.1556 -0.3026 -0.2786
 1295TIP3    H128080   3.610   0.631   2.012 -1.8708  1.4367 -0.2688
 1295TIP3    H228081   3.541   0.527   1.926  0.8177 -0.4622 -0.2543
 1296TIP3   OH228082   2.453   4.584   2.417  0.2873 -0.0996 -0.6081
 1296TIP3    H128083   2.371   4.624   2.388  0.4554 -0.2126 -1.2547
 1296TIP3    H228084   2.426   4.507   2.466  0.0086 -0.4391 -1.2763
 1297TIP3   OH228085   7.136   4.947   0.063  0.2762 -0.1043  0.4097
 1297TIP3    H128086   7.159   4.999  -0.014 -0.5835 -1.4957 -0.8360
 1297TIP3    H228087   7.041   4.956   0.070  0.4330  0.6678  1.8307
 1298TIP3   OH228088   7.435   1.686   8.356  0.1795 -0.0510  0.2400
 1298TIP3    H128089   7.386   1.762   8.388 -1.6483 -0.7101 -0.9090
 1298TIP3    H228090   7.521   1.722   8.332  0.1302  1.2237  1.7641
 1299TIP3   OH228091   1.081   4.691   1.902 -0.7861  0.5040  0.1051
 1299TIP3    H128092   1.062   4.629   1.973 -0.7005 -0.2697 -0.5325
 1299TIP3    H228093   1.001   4.743   1.895 -1.4500 -0.5333 -0.3391
 1300TIP3   OH228094   7.290   4.342   8.290  0.0968  0.6837  0.1352
 1300TIP3    H128095   7.202   4.358   8.323  0.6042  1.8928  0.9884
 1300TIP3    H228096   7.326   4.276   8.350 -0.3578 -0.1334 -0.4756
 1301TIP3   OH228097   6.063   6.748   2.282 -0.5424  0.6306 -0.8859
 1301TIP3    H128098   5.999   6.698   2.333  1.2987 -0.6315  0.2871
 1301TIP3    H228099   6.132   6.686   2.262  1.9279  2.6237  0.7453
 1302TIP3   OH228100   3.469   3.767   0.412  0.1736 -0.0687  0.0766
 1302TIP3    H128101   3.563   3.751   0.413 -0.2140 -3.0116  0.6292
 1302TIP3    H228102   3.438   3.738   0.498 -1.2965  0.3994 -0.2529
 1303TIP3   OH228103   2.836   2.080   8.189 -0.2212 -0.0008 -0.0477
 1303TIP3    H128104   2.777   2.053   8.259  1.1729  0.9440  1.5692
 1303TIP3    H228105   2.786   2.145   8.139 -1.5338 -1.3081 -0.5067
 1304TIP3   OH228106   2.660   1.641   0.566  0.0462  0.5615 -0.0392
 1304TIP3    H128107   2.648   1.575   0.634 -0.4289  0.7783  0.0940
 1304TIP3    H228108   2.745   1.621   0.526 -0.9889 -1.4046 -1.3944
 1305TIP3   OH228109   0.763   2.480   9.125 -0.1973  1.1225  0.2179
 1305TIP3    H128110   0.728   2.399   9.162  1.2853  0.1518 -0.4044
 1305TIP3    H228111   0.773   2.538   9.200 -1.0428  0.6504  0.7141
 1306TIP3   OH228112   7.407   2.010   3.105  0.6075 -0.3245 -0.1852
 1306TIP3    H128113   7.428   2.070   3.034  1.3152 -0.3383  0.0042
 1306TIP3    H228114   7.350   1.944   3.065 -1.4575  1.2808 -0.0599
 1307TIP3   OH228115   3.975   1.913   8.069 -0.0356 -0.0310 -0.3735
 1307TIP3    H128116   4.009   1.870   8.148  0.6365 -0.6601 -0.9870
 1307TIP3    H228117   3.932   1.843   8.020 -0.6651  0.4051 -0.4656
 1308TIP3   OH228118   1.935   6.942   9.589 -0.6123 -0.3199 -0.1818
 1308TIP3    H128119   1.993   6.891   9.533  0.0841 -0.2330  0.4478
 1308TIP3    H228120   1.896   7.007   9.530 -0.1363 -0.4345 -0.6297
 1309TIP3   OH228121   1.471   4.352   2.006  0.2125 -0.1238  0.3076
 1309TIP3    H128122   1.428   4.269   2.027  1.1198 -0.9813 -1.0726
 1309TIP3    H228123   1.559   4.344   2.042  0.6790 -0.2422 -0.8225
 1310TIP3   OH228124   2.294   6.815   1.619  0.3540  0.0430  0.3954
 1310TIP3    H128125   2.382   6.778   1.616  0.9187  1.3694  0.0821
 1310TIP3    H228126   2.289   6.872   1.543 -0.8341 -0.0986  0.3457
 1311TIP3   OH228127   2.207   2.209   2.499  0.2797 -0.3532  0.1284
 1311TIP3    H128128   2.268   2.230   2.429  0.7450  0.9742  0.8974
 1311TIP3    H228129   2.227   2.272   2.568 -2.5457  0.7917  0.0725
 1312TIP3   OH228130   1.342   6.633   9.718 -0.0536 -0.2240  0.0316
 1312TIP3    H128131   1.407   6.686   9.764 -0.4600  0.2585  0.0643
 1312TIP3    H228132   1.340   6.550   9.765  0.6118 -0.2784 -0.0355
 1313TIP3   OH228133   6.404   6.825   9.942  0.0464 -0.0450  0.4223
 1313TIP3    H128134   6.488   6.863   9.914  0.3707 -1.4610 -0.6548
 1313TIP3    H228135   6.340   6.892   9.923  0.9767  1.2419  1.6669
 1314TIP3   OH228136   3.095   0.320   2.869  0.3024  0.4073 -0.9225
 1314TIP3    H128137   3.141   0.253   2.920 -1.4356 -1.2951 -1.4807
 1314TIP3    H228138   3.140   0.401   2.891  2.4248 -0.8866 -0.1081
 1315TIP3   OH228139   2.835   6.387   9.041  0.1022 -0.6882  1.0354
 1315TIP3    H128140   2.865   6.314   8.987 -0.7758 -1.5410  1.6611
 1315TIP3    H228141   2.909   6.408   9.097  0.3222 -1.1865  0.9321
 1316TIP3   OH228142   3.779   3.931   8.483  0.0002 -0.3488 -0.0528
 1316TIP3    H128143   3.723   3.944   8.406  2.8368  3.3734 -1.8414
 1316TIP3    H228144   3.841   3.863   8.456 -0.3251 -0.6135 -0.1482
 1317TIP3   OH228145   4.220   6.045   9.611  0.1030 -0.2706 -0.7362
 1317TIP3    H128146   4.241   6.131   9.576 -2.0455  0.6983  0.1497
 1317TIP3    H228147   4.270   5.984   9.557  0.8574  1.4435 -2.0787
 1318TIP3   OH228148   4.718   0.650   7.076 -0.3266  0.7414 -0.0558
 1318TIP3    H128149   4.792   0.624   7.020 -0.7828 -0.6395 -0.0512
 1318TIP3    H228150   4.742   0.737   7.109  1.6041  0.0687  0.4473
 1319TIP3   OH228151   2.559   5.283   8.760 -0.1982  0.4311 -0.7022
 1319TIP3    H128152   2.546   5.349   8.691 -0.6988 -0.3126 -1.3386
 1319TIP3    H228153   2.654   5.283   8.775 -0.0975  0.7081 -1.2940
 1320TIP3   OH228154   2.306   7.309   6.421  0.0202 -0.6478  0.5764
 1320TIP3    H128155   2.266   7.321   6.508 -1.4225  0.5791 -0.1998
 1320TIP3    H228156   2.359   7.388   6.408 -0.8950 -0.1351 -0.1975
 1321TIP3   OH228157   1.327   5.892   9.999  0.2935  0.0223  0.0774
 1321TIP3    H128158   1.351   5.966  10.055  0.9121 -0.6389  0.7170
 1321TIP3    H228159   1.255   5.925   9.945  0.9912  1.2877 -0.1262
 1322TIP3   OH228160   2.131   6.033   2.380  0.2838 -0.2496  0.0415
 1322TIP3    H128161   2.054   6.000   2.333  0.1976 -2.1052  1.3613
 1322TIP3    H228162   2.103   6.040   2.471  1.2583  0.5437  0.3036
 1323TIP3   OH228163   6.296   4.384   9.396 -0.0969 -0.8444  0.1290
 1323TIP3    H128164   6.375   4.428   9.426 -0.5562 -0.6175  1.0483
 1323TIP3    H228165   6.248   4.452   9.348 -1.2569  0.0274  2.3469
 1324TIP3   OH228166   6.832   2.303   1.288 -0.4337 -0.5096 -0.0833
 1324TIP3    H128167   6.842   2.384   1.337 -1.0634  0.4205 -1.4448
 1324TIP3    H228168   6.737   2.290   1.281 -0.3408 -1.5961  0.4807
 1325TIP3   OH228169   1.724   4.271   2.117 -0.3255  0.4588 -0.2671
 1325TIP3    H128170   1.738   4.199   2.055 -1.4820  0.0231 -0.0436
 1325TIP3    H228171   1.812   4.304   2.135  0.3326 -1.4381  0.2465
 1326TIP3   OH228172   0.508   1.016   1.692 -0.0315 -0.2476  0.3287
 1326TIP3    H128173   0.505   0.929   1.652 -0.4707 -0.0237 -0.1420
 1326TIP3    H228174   0.494   1.077   1.619  0.9618  0.2597  0.5373
 1327TIP3   OH228175   3.279   4.542   1.462  0.1657  0.4025 -0.1345
 1327TIP3    H128176   3.215   4.602   1.499 -1.0807  0.5685 -2.3704
 1327TIP3    H228177   3.234   4.501   1.388  1.9652 -1.0643 -0.4997
 1328TIP3   OH228178   0.645   0.275   0.837  0.2970  0.5129 -0.0300
 1328TIP3    H128179   0.609   0.350   0.790 -0.7138  0.1330  0.1078
 1328TIP3    H228180   0.627   0.200   0.781 -2.3035 -0.1800  1.5098
 1329TIP3   OH228181   4.257   6.504   2.409  0.3528  0.6944  0.2400
 1329TIP3    H128182   4.204   6.584   2.408 -0.2115  0.3217 -0.4405
 1329TIP3    H228183   4.241   6.464   2.324  0.2934 -0.3562  0.7366
 1330TIP3   OH228184   2.405   3.476   8.769  0.4930  0.1990  0.2827
 1330TIP3    H128185   2.422   3.529   8.847 -1.7163 -0.6410  1.3981
 1330TIP3    H228186   2.313   3.491   8.748  0.2667 -1.8426 -0.4197
 1331TIP3   OH228187   1.769   5.026   7.576 -0.1202  0.2725  0.1827
 1331TIP3    H128188   1.850   4.976   7.590 -0.2146 -0.0313 -0.3298
 1331TIP3    H228189   1.729   5.030   7.663  0.8377  1.1288  0.6017
 1332TIP3   OH228190   0.113   0.463   7.885 -0.2092  0.3401 -0.3526
 1332TIP3    H128191   0.165   0.460   7.965  1.3774  1.6300 -1.2858
 1332TIP3    H228192   0.102   0.372   7.860  2.6854  0.0194 -0.7569
 1333TIP3   OH228193   0.358   4.876   9.612  0.3824 -0.5104  0.3666
 1333TIP3    H128194   0.317   4.816   9.675  1.2416  0.0536  1.5060
 1333TIP3    H228195   0.301   4.953   9.613  0.7751 -0.2187  1.0122
 1334TIP3   OH228196   4.156   2.226   0.189 -0.2300 -0.1632 -0.1501
 1334TIP3    H128197   4.200   2.281   0.254  0.2502 -1.6206  0.8141
 1334TIP3    H228198   4.195   2.251   0.105 -1.6264  2.5190 -0.1031
 1335TIP3   OH228199   2.211   0.666   6.719  0.1199  0.3821  0.1598
 1335TIP3    H128200   2.125   0.702   6.699 -0.3871 -0.1284  1.3547
 1335TIP3    H228201   2.253   0.733   6.774 -1.0876 -1.0025  2.9769
 1336TIP3   OH228202   7.171   6.859   0.774 -0.3275  0.3147 -0.2473
 1336TIP3    H128203   7.264   6.883   0.786 -0.0244 -1.0536  0.2825
 1336TIP3    H228204   7.173   6.773   0.733 -1.3334 -0.3709  1.0501
 1337TIP3   OH228205   5.292   5.048   0.874  0.1132  0.4328  0.3493
 1337TIP3    H128206   5.284   5.130   0.825  0.2026  1.3065  1.7428
 1337TIP3    H228207   5.212   5.043   0.926  0.4650  0.0285  0.8601
 1338TIP3   OH228208   3.454   2.333   9.844 -0.3074  0.0731 -0.2737
 1338TIP3    H128209   3.366   2.360   9.871  0.1242 -0.6271  2.0795
 1338TIP3    H228210   3.513   2.388   9.896  0.6900  0.6818 -1.9763
 1339TIP3   OH228211   7.122   4.677   1.526  0.0999 -1.2041  0.6409
 1339TIP3    H128212   7.190   4.671   1.593  1.7280  1.0558 -0.6988
 1339TIP3    H228213   7.079   4.761   1.542 -0.7288 -1.4796 -0.0509
 1340TIP3   OH228214   3.391   0.445   1.806 -0.5550 -0.9683  0.2637
 1340TIP3    H128215   3.332   0.516   1.779  2.2835  1.9836  1.0912
 1340TIP3    H228216   3.348   0.406   1.882 -1.9867  0.2967  0.1587
 1341TIP3   OH228217   2.694   4.147   9.741 -0.8011 -0.3411  0.3971
 1341TIP3    H128218   2.718   4.235   9.767 -1.7457 -0.1234  0.5863
 1341TIP3    H228219   2.621   4.159   9.680 -0.1246 -0.9399 -0.5607
 1342TIP3   OH228220   5.398   2.775   1.704  0.3249 -0.4412 -0.1438
 1342TIP3    H128221   5.433   2.851   1.657 -0.2357 -0.6724 -0.9573
 1342TIP3    H228222   5.474   2.736   1.747  1.1515 -1.0904 -2.0834
 1343TIP3   OH228223   2.404   6.478   8.355 -0.6392 -0.6977  0.2303
 1343TIP3    H128224   2.472   6.416   8.380 -0.5656 -0.3889  0.8162
 1343TIP3    H228225   2.382   6.524   8.436 -1.1402 -0.3981 -0.0683
 1344TIP3   OH228226   2.857   4.258   7.904  0.1320  0.0444  0.0272
 1344TIP3    H128227   2.869   4.323   7.973 -0.2663 -0.2665  0.3902
 1344TIP3    H228228   2.946   4.233   7.879  0.2779 -0.7908  1.3253
 1345TIP3   OH228229   4.452   5.427   8.216 -0.0296 -0.4462 -0.2386
 1345TIP3    H128230   4.436   5.394   8.304 -2.1161  1.5320  0.2170
 1345TIP3    H228231   4.501   5.357   8.172  4.7704 -0.0266  3.5505
 1346TIP3   OH228232   5.150   6.299   1.015  0.1249  0.0821 -0.2091
 1346TIP3    H128233   5.198   6.278   1.095 -0.1377 -2.4260 -0.6230
 1346TIP3    H228234   5.059   6.280   1.037  0.1408 -1.3887 -1.2779
 1347TIP3   OH228235   4.812   5.801   7.181  0.2029  0.5239  0.2832
 1347TIP3    H128236   4.817   5.727   7.242  1.3689 -0.5105 -0.9931
 1347TIP3    H228237   4.855   5.873   7.226 -1.7449  0.7459  1.9167
 1348TIP3   OH228238   1.270   5.914   8.989 -0.4337  0.2100  0.2176
 1348TIP3    H128239   1.214   5.837   8.990 -3.3440  2.1695  0.8367
 1348TIP3    H228240   1.313   5.914   9.074 -3.0730  0.9323  1.6797
 1349TIP3   OH228241   6.053   1.407   1.124  0.0471  0.0372 -0.1357
 1349TIP3    H128242   6.112   1.458   1.179  0.8510  0.3455 -1.2405
 1349TIP3    H228243   6.011   1.345   1.184  1.3674 -0.0817  0.7122
 1350TIP3   OH228244   2.467   1.972   7.937  0.2904 -0.2481 -0.1205
 1350TIP3    H128245   2.396   2.001   7.995  2.1060 -0.2695  2.2583
 1350TIP3    H228246   2.532   2.042   7.941  0.0526  0.2713 -3.1119
 1351TIP3   OH228247   3.393   1.901   7.538 -0.1739 -0.5272  0.3082
 1351TIP3    H128248   3.355   1.951   7.610 -0.7054 -0.1077 -0.2584
 1351TIP3    H228249   3.487   1.920   7.543 -0.0459 -1.2755  1.4808
 1352TIP3   OH228250   2.093   4.831   9.849 -0.1812 -0.5072 -0.1587
 1352TIP3    H128251   2.141   4.912   9.829 -0.5353 -0.2056  0.1895
 1352TIP3    H228252   2.145   4.790   9.918  0.3194 -0.8787 -0.7497
 1353TIP3   OH228253   1.195   1.992   8.753 -0.5786 -0.1250 -0.1737
 1353TIP3    H128254   1.263   1.932   8.723 -1.6556 -0.9003 -1.2031
 1353TIP3    H228255   1.218   2.077   8.716  1.3726  0.3370  1.9149
 1354TIP3   OH228256   4.004   3.873   2.725 -0.4347 -0.4363  0.2590
 1354TIP3    H128257   3.959   3.925   2.792  0.7422 -0.1909  0.8796
 1354TIP3    H228258   4.028   3.792   2.770  0.6495 -0.1357  0.2581
 1355TIP3   OH228259   2.669   4.896   9.545 -0.1994 -0.4217  0.2954
 1355TIP3    H128260   2.586   4.850   9.557  0.7379 -2.2889 -0.0514
 1355TIP3    H228261   2.730   4.828   9.517  1.7000  0.7194  1.5084
 1356TIP3   OH228262   2.769   2.082   1.354  0.1642  0.1360 -0.1305
 1356TIP3    H128263   2.723   2.130   1.422  0.3254 -0.2313  0.2430
 1356TIP3    H228264   2.862   2.089   1.378  0.2872  0.6422 -0.7270
 1357TIP3   OH228265   5.744   6.575   8.709  0.2601 -0.1353 -0.0117
 1357TIP3    H128266   5.672   6.636   8.721 -0.2550 -1.0006  1.5447
 1357TIP3    H228267   5.756   6.570   8.614 -1.9249 -0.1867 -0.3265
 1358TIP3   OH228268   1.728   6.984   2.074  0.7083  0.5191 -0.1707
 1358TIP3    H128269   1.733   7.073   2.040 -0.4701  0.4574 -0.5579
 1358TIP3    H228270   1.783   6.984   2.152  0.0599  1.8155  0.3059
 1359TIP3   OH228271   5.416   3.761   8.915  0.2457 -0.9996  0.3780
 1359TIP3    H128272   5.386   3.683   8.960  0.1387 -0.8117  0.6349
 1359TIP3    H228273   5.422   3.828   8.984 -0.7164 -0.4865 -0.0165
 1360TIP3   OH228274   3.070   6.676   2.111 -0.1340 -0.2348 -0.8498
 1360TIP3    H128275   3.163   6.693   2.093 -0.2244  2.2798  0.5152
 1360TIP3    H228276   3.025   6.754   2.077 -1.4210 -0.2312  0.7386
 1361TIP3   OH228277   0.910   0.289   9.330 -0.4204  0.0467 -0.1034
 1361TIP3    H128278   0.998   0.260   9.355 -0.4220 -0.3188 -0.5199
 1361TIP3    H228279   0.909   0.283   9.235 -1.6372 -2.1544 -0.0145
 1362TIP3   OH228280   0.642   4.224   1.138  0.4185  0.2244 -0.3793
 1362TIP3    H128281   0.577   4.293   1.135 -0.5438 -0.5772  0.8298
 1362TIP3    H228282   0.726   4.270   1.148 -0.0257  1.2402 -1.2253
 1363TIP3   OH228283   4.633   4.043   0.577 -0.6204  0.3030  0.6327
 1363TIP3    H128284   4.654   4.123   0.528 -0.2507 -0.5197 -0.5993
 1363TIP3    H228285   4.576   4.072   0.648 -1.4297  1.4988 -0.4692
 1364TIP3   OH228286   1.870   2.701   2.111 -0.2397 -0.3139 -0.2208
 1364TIP3    H128287   1.796   2.761   2.115 -0.0584  0.0346 -1.5092
 1364TIP3    H228288   1.925   2.725   2.185  0.2517  1.7168 -1.1791
 1365TIP3   OH228289   7.373   4.122   8.137 -0.0569 -0.3086 -0.4870
 1365TIP3    H128290   7.361   4.203   8.186  1.0266  0.9812 -2.2261
 1365TIP3    H228291   7.293   4.114   8.085 -0.7370 -1.1029  0.6355
 1366TIP3   OH228292   0.269   4.030   9.744  0.4118 -0.1568 -0.5330
 1366TIP3    H128293   0.197   3.979   9.705  2.2740 -2.0086 -1.7184
 1366TIP3    H228294   0.283   3.989   9.830 -1.1670  1.4867  0.5896
 1367TIP3   OH228295   6.096   0.492   8.140 -0.4142 -0.3739 -0.0517
 1367TIP3    H128296   6.130   0.540   8.064 -0.3852 -1.9606 -1.0929
 1367TIP3    H228297   6.112   0.400   8.119 -2.7175 -1.0104  0.7426
 1368TIP3   OH228298   7.466   0.988   7.515 -0.8482 -0.0289  0.7884
 1368TIP3    H128299   7.425   0.931   7.580  3.8199 -0.8483  3.4484
 1368TIP3    H228300   7.499   0.928   7.448 -0.6127  0.1782  0.7174
 1369TIP3   OH228301   0.740   3.952   8.413 -0.3077  0.4893 -0.4192
 1369TIP3    H128302   0.663   3.897   8.406  0.5072 -0.5790 -1.6495
 1369TIP3    H228303   0.731   4.015   8.340  0.3035 -0.0966 -1.0140
 1370TIP3   OH228304   2.266   1.846   3.357 -0.2939 -0.1093 -0.0147
 1370TIP3    H128305   2.234   1.765   3.316  0.0222 -0.9343  1.2958
 1370TIP3    H228306   2.349   1.821   3.396  1.4693  1.7170 -2.3461
 1371TIP3   OH228307   0.084   7.100   9.080 -0.1305 -0.0432  0.3367
 1371TIP3    H128308   0.072   7.009   9.106 -0.0032 -0.1618 -0.0208
 1371TIP3    H228309   0.080   7.099   8.985  1.9784 -0.0066  0.1956
 1372TIP3   OH228310   6.756   4.801   8.055  0.1189 -0.3312  0.4994
 1372TIP3    H128311   6.846   4.790   8.087 -0.0784 -1.1343  0.8162
 1372TIP3    H228312   6.701   4.768   8.126 -0.4891  1.2680  0.7961
 1373TIP3   OH228313   0.728   4.772   7.787  0.6984  0.0882 -0.0626
 1373TIP3    H128314   0.704   4.707   7.720  0.6305  0.9734 -0.9306
 1373TIP3    H228315   0.794   4.826   7.744  0.8500  0.5075  0.6956
 1374TIP3   OH228316   6.290   6.783   0.893  0.2737 -0.6123 -0.5152
 1374TIP3    H128317   6.351   6.711   0.903  0.6290 -0.2145  0.2065
 1374TIP3    H228318   6.323   6.852   0.950 -0.9094 -0.4349 -0.0149
 1375TIP3   OH228319   0.823   1.724   0.948  0.4929 -0.3694 -0.5734
 1375TIP3    H128320   0.875   1.738   0.869  1.3718 -0.5706 -0.0354
 1375TIP3    H228321   0.837   1.632   0.970  1.5520  0.0711  0.7151
 1376TIP3   OH228322   2.331   4.736   1.671  0.3007 -0.2700  0.4682
 1376TIP3    H128323   2.363   4.759   1.584 -3.1716 -2.6188 -1.6537
 1376TIP3    H228324   2.372   4.652   1.691 -0.2163 -0.5879  0.2362
 1377TIP3   OH228325   2.294   0.714   2.934  0.1838 -0.3784 -0.1925
 1377TIP3    H128326   2.226   0.700   3.000 -0.8112  0.9651 -0.8913
 1377TIP3    H228327   2.368   0.750   2.983 -0.4945  0.4657  0.2397
 1378TIP3   OH228328   3.286   2.571   2.487 -0.2704 -0.2212 -0.8581
 1378TIP3    H128329   3.293   2.535   2.575  1.8103 -0.8980 -1.2543
 1378TIP3    H228330   3.233   2.650   2.497 -0.8250 -0.7809  0.8275
 1379TIP3   OH228331   2.333   0.361   7.958 -0.5078 -0.6357 -0.1207
 1379TIP3    H128332   2.353   0.335   8.048 -0.3678 -0.8745 -0.2172
 1379TIP3    H228333   2.344   0.280   7.907 -0.1976 -0.4173 -0.4108
 1380TIP3   OH228334   3.233   1.753   1.691  0.1043  0.3375  0.4675
 1380TIP3    H128335   3.148   1.740   1.651  0.6205 -1.9304 -0.0397
 1380TIP3    H228336   3.284   1.800   1.625 -0.1158 -0.1969 -0.0820
 1381TIP3   OH228337   6.493   0.902   8.929 -0.3161  0.7857 -0.3409
 1381TIP3    H128338   6.588   0.902   8.934 -0.3392  1.8213  0.4523
 1381TIP3    H228339   6.473   0.864   8.843  0.7687 -0.3556 -0.1165
 1382TIP3   OH228340   5.109   1.402   7.705 -0.3246 -0.0070 -0.0900
 1382TIP3    H128341   5.158   1.484   7.704 -1.3955  0.6522  0.0757
 1382TIP3    H228342   5.017   1.429   7.706 -0.7131 -1.2125 -0.9379
 1383TIP3   OH228343   6.618   1.114   8.363 -0.2438 -0.0713  0.6145
 1383TIP3    H128344   6.603   1.190   8.419 -1.4131  0.7934 -0.7898
 1383TIP3    H228345   6.601   1.146   8.275 -0.8529 -1.9966 -0.0141
 1384TIP3   OH228346   7.330   2.893   0.443 -0.0618  0.0472  0.5511
 1384TIP3    H128347   7.409   2.918   0.491  0.3187  1.5065 -0.7419
 1384TIP3    H228348   7.356   2.815   0.393  1.1662  1.4707 -1.1749
 1385TIP3   OH228349   4.703   1.164   7.163  0.2297  0.1437  0.1926
 1385TIP3    H128350   4.627   1.110   7.140  0.5278  0.2313 -1.0713
 1385TIP3    H228351   4.775   1.102   7.168  0.2156  0.1612  0.7128
 1386TIP3   OH228352   4.329   6.812   8.396 -0.0302 -0.8839  0.6526
 1386TIP3    H128353   4.411   6.762   8.405 -0.1979 -1.1630  0.6415
 1386TIP3    H228354   4.339   6.858   8.312 -0.3626 -1.8311  0.0697
 1387TIP3   OH228355   2.793   2.543   1.201 -0.5814  0.0137  0.1785
 1387TIP3    H128356   2.849   2.466   1.213 -0.8278 -0.2223 -0.1600
 1387TIP3    H228357   2.852   2.611   1.169 -0.4663 -0.1981 -0.0592
 1388TIP3   OH228358   6.508   1.914   1.959 -0.4870 -0.4211 -0.0219
 1388TIP3    H128359   6.432   1.972   1.960  0.3904  0.8596 -1.5620
 1388TIP3    H228360   6.546   1.926   1.871  1.4092 -1.0974  0.6559
 1389TIP3   OH228361   6.006   2.909   1.435  0.0179  0.1077  0.3175
 1389TIP3    H128362   5.927   2.963   1.446 -0.4270  0.0171 -1.8603
 1389TIP3    H228363   5.986   2.827   1.480 -1.1178  0.1395 -0.0809
 1390TIP3   OH228364   1.562   6.392   1.323 -0.2843 -0.2439  0.1623
 1390TIP3    H128365   1.649   6.426   1.302  0.3673 -1.0779  1.3392
 1390TIP3    H228366   1.531   6.448   1.394  0.8355 -1.9910  2.1775
 1391TIP3   OH228367   1.692   0.038   7.330 -0.1696  0.4217 -0.0530
 1391TIP3    H128368   1.746  -0.039   7.348  0.3400  1.0304  1.1470
 1391TIP3    H228369   1.625   0.007   7.270  1.1360 -0.5123 -1.0995
 1392TIP3   OH228370   1.442   3.276   9.811 -0.5803  0.4266  0.1238
 1392TIP3    H128371   1.404   3.232   9.734 -0.4548  0.6588 -0.0711
 1392TIP3    H228372   1.419   3.368   9.799  0.3703  0.6317 -0.1893
 1393TIP3   OH228373   3.817   0.683   9.844 -0.0741 -0.0231  0.3905
 1393TIP3    H128374   3.849   0.604   9.800 -2.7222 -1.2498  0.4244
 1393TIP3    H228375   3.752   0.651   9.907 -1.0199  2.1539  0.6383
 1394TIP3   OH228376   0.957   2.556   9.447 -0.1386 -0.8239  0.4208
 1394TIP3    H128377   0.960   2.627   9.511 -0.5151  0.3773 -0.8580
 1394TIP3    H228378   0.864   2.546   9.426  0.1308  0.1466 -1.3793
 1395TIP3   OH228379   3.790   1.955   0.459  0.0422  0.5453  0.5687
 1395TIP3    H128380   3.842   2.015   0.405  1.1723 -1.0292 -0.1819
 1395TIP3    H228381   3.855   1.904   0.507 -0.8879 -0.1667  1.1003
 1396TIP3   OH228382   3.299   5.886   7.185  0.1938 -0.4233 -0.1984
 1396TIP3    H128383   3.308   5.970   7.139  0.1965 -0.5273 -0.3909
 1396TIP3    H228384   3.290   5.822   7.114 -0.4411 -0.5090 -0.0422
 1397TIP3   OH228385   3.649   6.157   0.707 -0.1239 -0.1554 -1.2627
 1397TIP3    H128386   3.649   6.188   0.617  0.9559  0.7564 -0.9677
 1397TIP3    H228387   3.740   6.162   0.735 -0.3897 -0.7305 -0.2150
 1398TIP3   OH228388   3.306   2.620   1.941 -0.0277  0.3350 -0.4338
 1398TIP3    H128389   3.369   2.607   1.870 -0.2503 -0.4086 -0.4999
 1398TIP3    H228390   3.244   2.548   1.932 -0.2251  0.4001  0.3457
 1399TIP3   OH228391   2.609   6.610   8.181  0.3475 -0.2765  0.3241
 1399TIP3    H128392   2.601   6.696   8.221 -0.1180 -1.2886  2.5952
 1399TIP3    H228393   2.535   6.560   8.217  0.2422 -1.4484 -1.4124
 1400TIP3   OH228394   5.473   6.984   2.740 -0.0066 -0.0740  0.3209
 1400TIP3    H128395   5.394   7.018   2.697 -0.9543 -1.0390  1.2227
 1400TIP3    H228396   5.542   6.990   2.674 -1.2313 -0.7763 -1.0720
 1401TIP3   OH228397   1.476   0.518   7.770  0.1650  0.1614  0.1822
 1401TIP3    H128398   1.496   0.532   7.863  0.2582 -0.9071  0.3359
 1401TIP3    H228399   1.499   0.601   7.728 -0.4278  0.8513  1.1950
 1402TIP3   OH228400   4.272   6.253   2.952  0.6351  0.0415  0.3076
 1402TIP3    H128401   4.277   6.165   2.915  0.8428 -0.1998  0.9015
 1402TIP3    H228402   4.183   6.283   2.932  0.9343  0.1724 -0.9450
 1403TIP3   OH228403   1.514   3.323   8.382  0.4640 -0.7733 -0.0517
 1403TIP3    H128404   1.606   3.334   8.407  0.7341 -2.2353 -0.3425
 1403TIP3    H228405   1.473   3.284   8.458 -0.6786  2.6583  1.2864
 1404TIP3   OH228406   5.639   6.944   0.027  0.2580 -0.3033 -0.2018
 1404TIP3    H128407   5.689   7.007   0.079 -0.3633 -0.5081  0.6560
 1404TIP3    H228408   5.705   6.884  -0.007  1.0841  1.6447 -2.3207
 1405TIP3   OH228409   6.183   6.291   0.814 -0.1588 -1.1272 -0.8024
 1405TIP3    H128410   6.109   6.231   0.805  0.9418 -2.5874 -0.5461
 1405TIP3    H228411   6.164   6.363   0.754 -1.7220 -1.5283 -0.8154
 1406TIP3   OH228412   7.093   7.347   8.963 -0.6986  0.8998  0.4699
 1406TIP3    H128413   7.180   7.348   9.003 -0.1782 -0.1907 -0.5461
 1406TIP3    H228414   7.090   7.425   8.908  1.2303 -0.9213 -2.5360
 1407TIP3   OH228415   1.984   3.866   1.438  0.1784 -0.3330 -0.1540
 1407TIP3    H128416   2.010   3.884   1.528 -0.0719  0.6789 -0.2653
 1407TIP3    H228417   2.067   3.860   1.390  0.2921  0.0278 -0.0096
 1408TIP3   OH228418   1.342   2.372   8.094  0.4897 -0.0313  0.0242
 1408TIP3    H128419   1.314   2.317   8.168 -0.4132 -0.9742 -0.9907
 1408TIP3    H228420   1.416   2.325   8.057  2.9331  1.9075  2.0300
 1409TIP3   OH228421   0.162   7.071   1.816 -0.0269 -0.1034  0.3053
 1409TIP3    H128422   0.185   7.068   1.723 -0.5461  1.4906  0.0936
 1409TIP3    H228423   0.245   7.090   1.861  0.2200 -0.8547  0.1749
 1410TIP3   OH228424   5.582   4.568   8.811 -0.1319  0.7831 -0.5749
 1410TIP3    H128425   5.507   4.509   8.814  0.0939  0.4798 -0.8149
 1410TIP3    H228426   5.563   4.635   8.876 -0.5915  0.6839 -0.6068
 1411TIP3   OH228427   6.498   6.335   8.554 -0.4447 -0.1911 -0.3100
 1411TIP3    H128428   6.521   6.425   8.530  1.2301  0.0128  1.7645
 1411TIP3    H228429   6.548   6.318   8.634 -3.8939 -1.5393  1.7788
 1412TIP3   OH228430   4.257   4.041   8.713 -0.1535 -0.2813  0.1684
 1412TIP3    H128431   4.294   4.018   8.798  3.0448  0.2215 -0.9677
 1412TIP3    H228432   4.272   3.963   8.659 -0.4958  0.0611 -0.4222
 1413TIP3   OH228433   4.386   6.236   6.535 -0.2417  0.0296  0.2728
 1413TIP3    H128434   4.297   6.273   6.534 -0.2092  0.1219  0.6725
 1413TIP3    H228435   4.375   6.148   6.569 -0.2514 -0.1511 -0.1992
 1414TIP3   OH228436   0.644   3.027   8.649  0.8956 -0.0875 -0.2151
 1414TIP3    H128437   0.722   3.037   8.595  1.3279 -0.1109  0.3961
 1414TIP3    H228438   0.631   2.932   8.655  1.8917 -0.1577  1.1771
 1415TIP3   OH228439   4.031   7.208   8.921 -0.2089  0.0793 -0.5843
 1415TIP3    H128440   4.018   7.125   8.967  0.3426  1.6283  2.6644
 1415TIP3    H228441   4.124   7.207   8.897  0.1007  0.2314  0.5549
 1416TIP3   OH228442   6.658   5.681   2.334 -0.2078  0.3442  0.3561
 1416TIP3    H128443   6.622   5.692   2.246 -1.3984  1.2361  0.9214
 1416TIP3    H228444   6.743   5.639   2.320 -0.2607  0.6919 -1.2293
 1417TIP3   OH228445   4.056   1.076   9.649  0.1624 -0.3452  0.5271
 1417TIP3    H128446   4.007   1.136   9.706 -1.3013  0.8385 -1.7737
 1417TIP3    H228447   3.989   1.016   9.616  0.8384 -0.6178 -0.3743
 1418TIP3   OH228448   0.808   4.011   1.199 -0.1289  0.2967  0.1220
 1418TIP3    H128449   0.790   4.032   1.290  1.4314 -1.2279  0.8451
 1418TIP3    H228450   0.739   4.056   1.149 -1.3642  0.6708  2.0720
 1419TIP3   OH228451   6.383   4.130   7.448 -0.5910 -0.5790 -0.1138
 1419TIP3    H128452   6.369   4.205   7.506 -1.1967 -1.6259  1.1446
 1419TIP3    H228453   6.347   4.157   7.364 -0.9891  0.4571  0.3803
 1420TIP3   OH228454   3.541   1.666   0.379 -0.1124  0.7164 -0.0196
 1420TIP3    H128455   3.556   1.613   0.301 -1.0695  0.9717 -0.3926
 1420TIP3    H228456   3.460   1.630   0.417  1.5056 -0.9073  2.1530
 1421TIP3   OH228457   1.324   6.367   7.616 -0.0294  0.9217  0.1053
 1421TIP3    H128458   1.392   6.328   7.561  0.9437  1.6943  0.7050
 1421TIP3    H228459   1.323   6.313   7.695  0.2977  1.2352  0.3293
 1422TIP3   OH228460   1.344   5.577   2.168  0.7876 -0.0352  0.2254
 1422TIP3    H128461   1.427   5.583   2.215  2.5699  0.6444 -2.7881
 1422TIP3    H228462   1.363   5.521   2.093 -1.8152 -0.7362 -0.0100
 1423TIP3   OH228463   3.498   4.720   1.001 -0.2838  0.5215  0.0996
 1423TIP3    H128464   3.534   4.795   0.955 -0.9767  0.5396 -0.4223
 1423TIP3    H228465   3.451   4.758   1.076 -0.0329  0.5583  0.2398
 1424TIP3   OH228466   5.367   3.436   2.365  0.6920 -0.1279 -0.2338
 1424TIP3    H128467   5.378   3.457   2.273  0.4189  0.0996 -0.2150
 1424TIP3    H228468   5.315   3.356   2.365 -1.3936  1.1491 -0.2500
 1425TIP3   OH228469   5.319   0.669   9.914  0.5479  0.0661  0.3468
 1425TIP3    H128470   5.312   0.651  10.008  0.9309 -0.8261  0.2235
 1425TIP3    H228471   5.262   0.745   9.899  0.5565  0.2740  1.3115
 1426TIP3   OH228472   0.078   3.060   8.994 -0.0889  0.5031 -0.3773
 1426TIP3    H128473   0.022   3.078   8.919 -2.6688  1.6212  1.6538
 1426TIP3    H228474   0.020   3.020   9.059  1.7302  0.6405  1.4462
 1427TIP3   OH228475   0.073   7.462   1.350 -0.3211  0.1984  0.1028
 1427TIP3    H128476   0.123   7.456   1.269  0.1760  0.8458  0.3527
 1427TIP3    H228477   0.067   7.556   1.367  1.1480  0.0225  1.7827
 1428TIP3   OH228478   3.594   4.681   0.432 -0.0520 -0.0640  1.0227
 1428TIP3    H128479   3.579   4.773   0.451  0.3065 -0.1340  1.6718
 1428TIP3    H228480   3.658   4.680   0.361 -0.5488  0.1918  0.5677
 1429TIP3   OH228481   6.611   3.294   7.444  0.4172 -0.0915  0.0366
 1429TIP3    H128482   6.582   3.385   7.438 -0.3781 -0.2031  1.6447
 1429TIP3    H228483   6.539   3.243   7.407  0.2137 -0.1472  0.5054
 1430TIP3   OH228484   4.017   5.153   1.024  0.3539  0.2282 -0.4823
 1430TIP3    H128485   4.023   5.119   1.113  1.2775  0.0205 -0.6128
 1430TIP3    H228486   3.939   5.208   1.025  1.8756  2.5171  1.2261
 1431TIP3   OH228487   2.975   5.381   0.828  0.5437 -0.3801  0.0965
 1431TIP3    H128488   2.922   5.430   0.766 -0.4460  0.9061  1.8783
 1431TIP3    H228489   3.013   5.310   0.776 -0.1725  0.6686 -1.9644
 1432TIP3   OH228490   2.209   1.018   0.381 -0.4652  0.5573 -0.1856
 1432TIP3    H128491   2.266   0.992   0.309 -0.8346 -1.1170  0.0905
 1432TIP3    H228492   2.122   0.992   0.353 -1.0290  2.3340 -0.2427
 1433TIP3   OH228493   5.392   4.626   8.120 -0.2328  0.1612 -0.3387
 1433TIP3    H128494   5.472   4.621   8.067  0.4754  1.0226  0.6042
 1433TIP3    H228495   5.365   4.718   8.113  1.3620  1.0024  2.8240
 1434TIP3   OH228496   2.889   0.521   3.358  0.4942 -0.1839  0.1834
 1434TIP3    H128497   2.837   0.528   3.278 -1.0357  1.2718  1.2320
 1434TIP3    H228498   2.976   0.496   3.328  0.0392  0.5868 -1.9543
 1435TIP3   OH228499   6.357   5.998   7.192  0.3086  0.4061 -0.1989
 1435TIP3    H128500   6.418   6.070   7.210 -1.1273  1.7736 -0.5221
 1435TIP3    H228501   6.331   5.968   7.279  2.3111 -1.0385 -0.0328
 1436TIP3   OH228502   3.421   5.083   9.550  0.3582 -0.2388  0.8501
 1436TIP3    H128503   3.446   5.115   9.463 -0.7480 -0.7281  0.3348
 1436TIP3    H228504   3.440   4.989   9.548 -0.1966 -0.3555  0.9348
 1437TIP3   OH228505   0.959   4.027   9.613 -0.5837  0.7335 -0.3705
 1437TIP3    H128506   1.028   4.035   9.548  0.5349 -1.7072  0.3817
 1437TIP3    H228507   0.996   4.066   9.692 -0.9371  1.3576 -0.5033
 1438TIP3   OH228508   6.444   4.129   2.448 -0.3030 -0.2184  0.2054
 1438TIP3    H128509   6.540   4.136   2.448 -0.4376  2.7107 -0.4120
 1438TIP3    H228510   6.427   4.049   2.398  1.8000  0.3726 -1.6268
 1439TIP3   OH228511   5.216   1.790   9.428  0.0480 -0.0418  0.1576
 1439TIP3    H128512   5.205   1.704   9.387  0.5034  0.3426 -0.8259
 1439TIP3    H228513   5.243   1.847   9.355 -0.4787  0.9821  0.7482
 1440TIP3   OH228514   5.574   4.401   1.953 -0.2110 -0.2689  0.0219
 1440TIP3    H128515   5.609   4.489   1.934  0.0696 -0.5109 -0.6130
 1440TIP3    H228516   5.487   4.401   1.914  0.0915 -0.5283 -0.6692
 1441TIP3   OH228517   4.545   0.443   1.591  0.0656 -0.1609 -0.7024
 1441TIP3    H128518   4.549   0.486   1.506  0.9653 -0.9120 -1.0529
 1441TIP3    H228519   4.463   0.394   1.590  0.3310 -0.5975 -1.3521
 1442TIP3   OH228520   2.818   4.718   0.247 -0.3467  0.8744 -0.1915
 1442TIP3    H128521   2.902   4.689   0.209 -1.3001 -1.7982 -0.4843
 1442TIP3    H228522   2.779   4.772   0.178  0.1621  0.2689 -0.9871
 1443TIP3   OH228523   2.430   6.346   1.195 -0.4202  0.2940  0.5481
 1443TIP3    H128524   2.421   6.398   1.116 -0.1417  0.1119  0.3941
 1443TIP3    H228525   2.351   6.292   1.199  0.5734 -1.3739 -0.8454
 1444TIP3   OH228526   5.968   4.449   0.721 -0.2388  0.6859 -0.0862
 1444TIP3    H128527   5.934   4.533   0.752 -0.5155  1.0357 -1.2657
 1444TIP3    H228528   6.061   4.450   0.746 -0.6665  0.4821  1.6104
 1445TIP3   OH228529   1.150   1.217   2.111  0.3660  0.1044  0.1321
 1445TIP3    H128530   1.171   1.217   2.204  1.7780 -2.4607 -0.1003
 1445TIP3    H228531   1.086   1.147   2.100  0.8257 -0.1808 -0.9060
 1446TIP3   OH228532   2.415   3.933   0.738  0.1923  0.6163 -0.3699
 1446TIP3    H128533   2.401   3.851   0.787  0.0406  1.2105  0.6024
 1446TIP3    H228534   2.497   3.967   0.772  0.9426  0.2450 -1.6995
 1447TIP3   OH228535   6.331   5.599   2.044  0.4067 -0.3457  0.3667
 1447TIP3    H128536   6.368   5.511   2.032  0.5088 -0.1177 -1.2015
 1447TIP3    H228537   6.400   5.658   2.012 -0.6079  0.1694 -0.9511
 1448TIP3   OH228538   2.993   0.718   7.705  0.0228  0.3514 -0.1806
 1448TIP3    H128539   2.938   0.719   7.627  0.9456 -0.0483 -0.8581
 1448TIP3    H228540   3.058   0.787   7.690  1.2223 -0.8111 -0.5471
 1449TIP3   OH228541   0.989   5.528   8.679 -0.3970  0.7893  0.3124
 1449TIP3    H128542   0.938   5.549   8.757 -1.7011  1.1494 -0.6008
 1449TIP3    H228543   1.053   5.599   8.672 -0.8944  1.2613  0.5251
 1450TIP3   OH228544   0.385   3.448   8.959  0.1992 -0.1277  0.1602
 1450TIP3    H128545   0.392   3.519   9.023 -2.2435  0.5019 -0.1447
 1450TIP3    H228546   0.306   3.400   8.985 -0.4624 -0.2826 -1.9382
 1451TIP3   OH228547   4.417   4.174   8.025 -0.3393 -0.3229 -0.2781
 1451TIP3    H128548   4.431   4.094   8.075  0.2905  0.4202  0.7631
 1451TIP3    H228549   4.505   4.207   8.006 -0.5190  1.7028  1.9395
 1452TIP3   OH228550   2.605   5.739   7.532  0.2098  0.1103 -0.1725
 1452TIP3    H128551   2.605   5.760   7.626  2.1843 -3.1564  0.7195
 1452TIP3    H228552   2.677   5.791   7.496 -1.5436  2.6109 -0.3546
 1453TIP3   OH228553   0.591   1.603   8.786  0.2997  0.0494  0.8842
 1453TIP3    H128554   0.596   1.564   8.698 -2.0177 -0.6281  0.9872
 1453TIP3    H228555   0.635   1.687   8.777  1.6249 -0.7227 -0.4646
 1454TIP3   OH228556   6.426   6.796   1.964  0.3382 -0.4515 -0.4071
 1454TIP3    H128557   6.373   6.859   2.014  0.2678 -0.9842  0.2001
 1454TIP3    H228558   6.417   6.824   1.873 -0.1551  0.0751 -0.2020
 1455TIP3   OH228559   5.011   0.346   6.684  0.1744 -0.1187  0.3221
 1455TIP3    H128560   4.928   0.299   6.684  0.0908  0.0252 -0.0892
 1455TIP3    H228561   4.987   0.436   6.706  0.3866 -0.3421  1.5776
 1456TIP3   OH228562   6.943   5.162   7.416 -0.9336  0.1269 -0.0068
 1456TIP3    H128563   6.883   5.237   7.417 -1.1550 -0.0173  1.9281
 1456TIP3    H228564   7.028   5.198   7.443 -1.3114 -0.4614  2.1510
 1457TIP3   OH228565   0.389   1.135   8.738 -0.0156  0.9756 -0.1860
 1457TIP3    H128566   0.334   1.209   8.712 -1.0019  0.4923  0.4321
 1457TIP3    H228567   0.351   1.106   8.822  0.8482  0.2760 -0.0241
 1458TIP3   OH228568   5.512   6.099   9.946 -0.4175 -0.2920  0.0614
 1458TIP3    H128569   5.475   6.039   9.881  1.7381 -0.4785 -1.0850
 1458TIP3    H228570   5.597   6.060   9.968 -0.0819  1.0366  1.2213
 1459TIP3   OH228571   6.602   0.407   9.884 -0.4342  0.0424 -0.0270
 1459TIP3    H128572   6.642   0.333   9.839 -2.5748 -0.5165 -1.1297
 1459TIP3    H228573   6.563   0.459   9.814 -1.0711  0.9006  0.9362
 1460TIP3   OH228574   4.739   6.824   9.885 -0.2648 -0.2740  0.2752
 1460TIP3    H128575   4.731   6.813   9.790 -0.8180  1.4245  0.0915
 1460TIP3    H228576   4.833   6.836   9.899 -0.0161 -1.8441  0.1340
 1461TIP3   OH228577   1.013   1.730   0.730  0.5285 -0.0839  0.2475
 1461TIP3    H128578   1.028   1.636   0.732 -0.2007 -0.2382 -0.7585
 1461TIP3    H228579   0.992   1.749   0.639  1.0372  1.1189  0.3551
 1462TIP3   OH228580   5.859   0.996   0.713 -0.5910  0.3784 -0.7514
 1462TIP3    H128581   5.897   0.927   0.657  0.9602  0.7786 -0.2515
 1462TIP3    H228582   5.827   0.949   0.790  4.0641  0.3732  1.5367
 1463TIP3   OH228583   5.682   2.277   8.829 -0.1037  0.1217 -0.2403
 1463TIP3    H128584   5.701   2.192   8.869  0.0830  0.2401 -0.0773
 1463TIP3    H228585   5.764   2.325   8.834 -0.3861  0.5632  0.2759
 1464TIP3   OH228586   7.183   3.409   2.025 -0.4506 -0.1718  0.1264
 1464TIP3    H128587   7.251   3.425   1.960  1.3512 -3.9252  0.7848
 1464TIP3    H228588   7.105   3.389   1.974 -0.0655  0.5894 -0.7693
 1465TIP3   OH228589   2.224   4.758   7.255 -0.1517  0.4536  0.3367
 1465TIP3    H128590   2.178   4.779   7.173 -0.2779 -0.7979  0.0623
 1465TIP3    H228591   2.168   4.694   7.298  0.7990 -0.2851  0.5144
 1466TIP3   OH228592   6.646   4.101   8.109 -0.6048 -0.1759  0.5504
 1466TIP3    H128593   6.624   4.104   8.016 -1.1522 -1.3015  0.6296
 1466TIP3    H228594   6.644   4.008   8.132 -1.2879  0.1386  1.8854
 1467TIP3   OH228595   4.548   4.986   8.247 -0.0483  0.3531  0.0091
 1467TIP3    H128596   4.597   4.906   8.226 -1.7494 -0.6320 -0.4613
 1467TIP3    H228597   4.558   4.996   8.342 -1.0046 -1.3280  0.3456
 1468TIP3   OH228598   1.574   1.943   7.655  0.0237 -0.2339  0.0854
 1468TIP3    H128599   1.498   1.989   7.690  0.3619  1.1960 -0.9525
 1468TIP3    H228600   1.538   1.861   7.619 -1.5815  1.5437 -2.8000
 1469TIP3   OH228601   4.595   2.388   0.429 -0.0189  0.3459 -0.1318
 1469TIP3    H128602   4.516   2.424   0.470 -0.2118  0.6537 -0.7553
 1469TIP3    H228603   4.576   2.391   0.335  0.5195 -0.0953 -0.2570
 1470TIP3   OH228604   6.258   0.548   9.009 -0.1602  0.6263  0.1402
 1470TIP3    H128605   6.324   0.489   9.045  0.1735 -0.2731 -1.7904
 1470TIP3    H228606   6.223   0.501   8.933 -0.3237  2.6643 -1.1187
 1471TIP3   OH228607   4.635   3.835   8.995  0.1248 -0.0561  0.6105
 1471TIP3    H128608   4.725   3.836   9.027  0.6862  1.4678 -0.8776
 1471TIP3    H228609   4.642   3.860   8.903 -1.7600 -0.6792  0.2521
 1472TIP3   OH228610   4.236   0.157   6.732  0.0119  0.1953  0.3439
 1472TIP3    H128611   4.236   0.252   6.739  2.9894  0.2622  0.9098
 1472TIP3    H228612   4.172   0.137   6.664  0.3307  2.7072 -0.7692
 1473TIP3   OH228613   3.908   0.209   8.506  0.0253 -0.8984 -0.3224
 1473TIP3    H128614   3.915   0.292   8.459 -1.5862  0.5247  1.7946
 1473TIP3    H228615   3.834   0.165   8.465  0.1155 -0.7453 -0.6566
 1474TIP3   OH228616   7.046   0.551   1.050  0.3247 -0.3613 -0.0843
 1474TIP3    H128617   7.052   0.500   0.969  0.9220 -2.4594  1.1931
 1474TIP3    H228618   7.136   0.581   1.067  0.2782 -0.2744  0.0110
 1475TIP3   OH228619   5.828   6.779   0.770 -0.0365 -0.2769  0.3149
 1475TIP3    H128620   5.893   6.850   0.769  0.3561 -0.6285  0.8058
 1475TIP3    H228621   5.773   6.798   0.846  1.2078 -1.5077  1.5700
 1476TIP3   OH228622   4.859   6.274   7.294  0.0821 -0.0592 -0.3129
 1476TIP3    H128623   4.842   6.339   7.363  1.8582  0.7443 -0.5779
 1476TIP3    H228624   4.921   6.213   7.333  1.4583  0.6544 -1.2910
 1477TIP3   OH228625   4.918   0.076   1.875  0.1039 -0.2178 -0.3363
 1477TIP3    H128626   4.975   0.043   1.944  0.5550  1.4767  0.1655
 1477TIP3    H228627   4.829   0.056   1.906  0.3556 -1.3319 -0.2913
 1478TIP3   OH228628   2.904   3.907   1.289 -0.0386  0.4289 -0.0325
 1478TIP3    H128629   2.863   3.929   1.206 -0.0117 -0.2778 -0.2420
 1478TIP3    H228630   2.924   3.991   1.330  1.7953  0.8529 -1.6337
 1479TIP3   OH228631   0.337   0.103   1.421  0.7966 -0.2133 -0.1876
 1479TIP3    H128632   0.257   0.050   1.416 -1.0423  2.3714 -0.3352
 1479TIP3    H228633   0.396   0.051   1.476 -1.5422 -1.5789  1.2365
 1480TIP3   OH228634   4.329   2.407   7.719  0.3242 -0.2157 -0.2830
 1480TIP3    H128635   4.396   2.347   7.685  1.2713  1.9464 -2.5092
 1480TIP3    H228636   4.258   2.402   7.656  1.1938  2.2793 -1.5661
 1481TIP3   OH228637   1.714   1.655   1.279 -0.0439 -0.1101  0.3604
 1481TIP3    H128638   1.710   1.605   1.197 -1.9911 -0.8843  0.8767
 1481TIP3    H228639   1.667   1.736   1.259  0.3541  0.1395  0.4326
 1482TIP3   OH228640   0.403   4.343   8.743  0.5404  0.2350  0.4753
 1482TIP3    H128641   0.405   4.314   8.835  1.5415  0.8920  0.6684
 1482TIP3    H228642   0.434   4.267   8.694 -1.1932 -0.5631  0.5356
 1483TIP3   OH228643   1.928   0.138   1.055  0.2833  0.3606  0.2072
 1483TIP3    H128644   2.010   0.095   1.079  0.0155  0.5761  1.6287
 1483TIP3    H228645   1.955   0.222   1.019  0.6981  0.6891  1.2309
 1484TIP3   OH228646   0.586   0.324   2.592 -0.2228  0.1321 -0.2587
 1484TIP3    H128647   0.648   0.358   2.657 -0.7148  0.2113  0.1814
 1484TIP3    H228648   0.507   0.375   2.607 -0.4310 -0.0465 -0.7401
 1485TIP3   OH228649   3.363   6.571   9.738 -0.2908  0.3083  0.0054
 1485TIP3    H128650   3.355   6.483   9.773 -2.2058  0.4401  0.0184
 1485TIP3    H228651   3.294   6.621   9.782  0.3865  1.6754 -0.4188
 1486TIP3   OH228652   5.327   2.603   0.156  0.3385  0.4572 -0.5819
 1486TIP3    H128653   5.270   2.647   0.220  3.6511  0.8647  2.4183
 1486TIP3    H228654   5.348   2.672   0.093  1.4408  1.8599  1.1977
 1487TIP3   OH228655   4.129   2.161   0.592 -0.3239 -0.4740 -0.2889
 1487TIP3    H128656   4.154   2.211   0.669 -2.6725 -0.3934  0.5111
 1487TIP3    H228657   4.211   2.143   0.547  0.9569  0.8141  1.4018
 1488TIP3   OH228658   5.347   1.160   7.433  0.3765  0.6078  0.3553
 1488TIP3    H128659   5.380   1.194   7.516  1.0768 -2.3310  1.4225
 1488TIP3    H228660   5.425   1.143   7.380  0.2434 -0.9461  0.6017
 1489TIP3   OH228661   5.661   1.710   9.775 -0.0856  0.0430  0.1649
 1489TIP3    H128662   5.620   1.689   9.859  0.1632  0.4289  0.3864
 1489TIP3    H228663   5.595   1.760   9.728  0.2115  0.8915  0.6262
 1490TIP3   OH228664   0.133   3.124   1.394  0.1633  0.2878 -0.0282
 1490TIP3    H128665   0.191   3.150   1.465 -1.7587  1.2919  1.2500
 1490TIP3    H228666   0.138   3.028   1.393  0.3601  0.2691  1.3444
 1491TIP3   OH228667   6.297   1.474   1.696  0.7127  0.0215  0.4496
 1491TIP3    H128668   6.238   1.399   1.686 -0.2745  0.7584  0.5194
 1491TIP3    H228669   6.240   1.550   1.686  1.9096  0.7788 -0.9996
 1492TIP3   OH228670   5.529   1.592   2.129  0.3626 -0.5742 -0.1195
 1492TIP3    H128671   5.511   1.562   2.039  2.7381  2.0719 -1.6642
 1492TIP3    H228672   5.443   1.612   2.166 -0.6263  1.3614 -3.0737
 1493TIP3   OH228673   1.181   0.046   0.135  0.0683  0.2077 -0.1230
 1493TIP3    H128674   1.180   0.020   0.228  1.1279  0.6404  0.0323
 1493TIP3    H228675   1.173  -0.037   0.088 -2.9129  0.1698  0.3084
 1494TIP3   OH228676   5.336   6.329   9.674  0.2988 -0.0189 -0.6187
 1494TIP3    H128677   5.362   6.253   9.622  2.9516  0.6006 -0.3593
 1494TIP3    H228678   5.419   6.373   9.694 -0.8640  1.1712  1.9781
 1495TIP3   OH228679   4.057   2.077   8.326  0.2412  0.0474 -0.2320
 1495TIP3    H128680   4.080   1.989   8.296 -0.1665  0.1923 -0.9913
 1495TIP3    H228681   4.065   2.073   8.421 -1.7788 -1.4339 -0.0519
 1496TIP3   OH228682   1.117   5.479   1.158 -0.0447 -0.1570 -0.1960
 1496TIP3    H128683   1.103   5.440   1.244 -1.0072  1.0459  0.2174
 1496TIP3    H228684   1.064   5.558   1.158  1.3160  0.8113 -1.2504
 1497TIP3   OH228685   2.813   0.333   1.976  0.1707  0.2823 -0.1041
 1497TIP3    H128686   2.874   0.394   1.935 -0.3285 -0.0544 -1.4104
 1497TIP3    H228687   2.769   0.290   1.902 -1.9069  0.7678  0.7988
 1498TIP3   OH228688   0.732   3.022   9.068 -0.3280  0.3116  0.6952
 1498TIP3    H128689   0.667   3.082   9.031  1.5554  1.6657 -0.5738
 1498TIP3    H228690   0.763   2.972   8.993 -0.5364 -0.9821  1.4430
 1499TIP3   OH228691   7.241   5.759   9.604  0.7090 -0.5377  0.0631
 1499TIP3    H128692   7.301   5.833   9.601 -1.4808  1.3533 -0.8136
 1499TIP3    H228693   7.197   5.768   9.689  0.2845 -0.7090 -0.1356
 1500TIP3   OH228694   5.376   0.712   7.957 -0.3370  0.9506  0.1919
 1500TIP3    H128695   5.431   0.723   8.034  0.7841  1.8694 -0.6981
 1500TIP3    H228696   5.389   0.792   7.906 -1.4416  0.5908 -0.7156
 1501TIP3   OH228697   1.119   6.279   0.216  0.7245 -0.3493 -0.0986
 1501TIP3    H128698   1.064   6.218   0.265  1.1973  0.5552  1.6508
 1501TIP3    H228699   1.066   6.304   0.140  0.2533 -2.3609 -0.4789
 1502TIP3   OH228700   4.228   1.536   1.595  0.1864  0.5232  0.2965
 1502TIP3    H128701   4.283   1.523   1.518  1.9466 -1.3872  1.7567
 1502TIP3    H228702   4.206   1.448   1.624  0.3683  1.1338  2.4689
 1503TIP3   OH228703   3.178   0.910   1.963  0.3140  0.1156 -0.3490
 1503TIP3    H128704   3.161   0.978   2.028  1.5631 -0.0855  0.2032
 1503TIP3    H228705   3.211   0.836   2.014  3.0783  0.5718 -1.3517
 1504TIP3   OH228706   6.710   3.453   9.817  0.0494  0.5158  0.0270
 1504TIP3    H128707   6.724   3.522   9.751  2.9665  1.2482  1.2247
 1504TIP3    H228708   6.643   3.397   9.779  1.7235  0.7261 -3.7187
 1505TIP3   OH228709   3.315   4.578   9.572 -0.2149  0.1140  0.6959
 1505TIP3    H128710   3.278   4.587   9.660  1.4035 -1.0548  1.5580
 1505TIP3    H228711   3.250   4.529   9.523 -1.3511  1.1888  1.0810
 1506TIP3   OH228712   3.992   6.967   1.372 -0.1626  0.3139  0.6861
 1506TIP3    H128713   3.917   7.000   1.322  1.5104  1.0286 -1.5480
 1506TIP3    H228714   4.068   7.001   1.325  1.5971 -1.8966  1.7578
 1507TIP3   OH228715   4.550   6.039   8.282 -0.1312  0.1865 -0.2065
 1507TIP3    H128716   4.492   6.075   8.215  0.5591 -0.7635 -1.3523
 1507TIP3    H228717   4.544   5.944   8.272 -0.7176 -0.0178  1.7184
 1508TIP3   OH228718   0.794   1.242   0.720 -0.9749 -0.4780  0.1946
 1508TIP3    H128719   0.739   1.320   0.729 -0.7173  0.0211 -2.0593
 1508TIP3    H228720   0.858   1.264   0.653 -1.0012 -2.6674 -0.6542
 1509TIP3   OH228721   3.939   4.487   7.632 -0.4889 -0.2235  0.5667
 1509TIP3    H128722   3.874   4.432   7.588 -0.8969  0.5410  0.1799
 1509TIP3    H228723   3.996   4.517   7.562  0.9771 -1.7568  1.0433
 1510TIP3   OH228724   0.921   7.274   2.057  0.6995  0.3248 -0.4371
 1510TIP3    H128725   0.942   7.349   2.001  2.4041  0.6995  0.6299
 1510TIP3    H228726   0.860   7.309   2.122  0.8520  0.5706 -0.4262
 1511TIP3   OH228727   2.207   4.306   7.679 -0.3559 -0.2533 -0.4603
 1511TIP3    H128728   2.212   4.354   7.596 -1.1998 -0.1922 -0.4882
 1511TIP3    H228729   2.125   4.257   7.673 -1.5257  1.3749  1.1883
 1512TIP3   OH228730   2.020   5.527   8.436 -0.0579  0.3053 -0.5865
 1512TIP3    H128731   2.054   5.475   8.363  0.1082 -1.1689  0.4890
 1512TIP3    H228732   1.926   5.534   8.418 -0.0187 -0.0472 -0.9527
 1513TIP3   OH228733   6.343   6.115   0.456  0.1065  0.0411  0.2047
 1513TIP3    H128734   6.275   6.151   0.399  0.4413  1.7794  0.8715
 1513TIP3    H228735   6.297   6.092   0.537 -0.0647 -0.8954 -0.1396
 1514TIP3   OH228736   7.265   3.909   9.937  0.2592  0.2601 -0.6563
 1514TIP3    H128737   7.337   3.891   9.998 -0.1451 -1.5881 -0.6682
 1514TIP3    H228738   7.283   3.853   9.861 -1.3873 -0.5786 -0.4767
 1515TIP3   OH228739   3.081   0.921   8.403  0.1211  0.2043 -0.0890
 1515TIP3    H128740   3.137   0.997   8.419 -0.9663  1.3081 -1.3029
 1515TIP3    H228741   3.050   0.895   8.490  1.7628  0.1306  0.5099
 1516TIP3   OH228742   0.102   5.959   9.502  0.0023 -0.5001  0.5875
 1516TIP3    H128743   0.024   5.966   9.447 -1.2771  0.5647  2.4138
 1516TIP3    H228744   0.121   5.865   9.506 -1.0580 -0.7528 -0.0572
 1517TIP3   OH228745   7.241   6.858   8.106  0.3402 -0.3834  0.3212
 1517TIP3    H128746   7.299   6.785   8.128  0.6331  0.2437  1.7241
 1517TIP3    H228747   7.185   6.824   8.037  0.1428 -2.1229  1.2844
 1518TIP3   OH228748   3.087   6.712   9.055 -0.6370 -0.2413  0.0383
 1518TIP3    H128749   3.108   6.621   9.078  0.9928 -0.2745 -1.3541
 1518TIP3    H228750   3.111   6.762   9.133  0.1046 -0.8415  0.2072
 1519TIP3   OH228751   6.297   1.977   9.057  0.0494  0.2428 -0.0628
 1519TIP3    H128752   6.277   1.897   9.007 -0.4537  1.0854 -1.2619
 1519TIP3    H228753   6.391   1.989   9.046  0.2988 -0.6545  0.8820
 1520TIP3   OH228754   0.912   3.729   0.588 -0.5169 -0.2706  0.2011
 1520TIP3    H128755   0.917   3.750   0.495 -0.9953 -1.7947 -0.1914
 1520TIP3    H228756   0.955   3.643   0.595 -0.9441 -0.4061  1.2947
 1521TIP3   OH228757   4.534   6.880   7.724  0.0387 -0.7012  0.7415
 1521TIP3    H128758   4.537   6.962   7.773 -1.6230 -0.3843  0.3774
 1521TIP3    H228759   4.510   6.814   7.789 -1.6448 -0.3680  0.4923
 1522TIP3   OH228760   0.481   0.549   0.850 -0.3028 -0.3387  0.0116
 1522TIP3    H128761   0.475   0.576   0.758 -0.1926  0.9848  0.3776
 1522TIP3    H228762   0.407   0.490   0.863 -1.1763  0.6228 -0.5385
 1523TIP3   OH228763   5.304   6.819   2.235  0.1488 -0.4374  0.1153
 1523TIP3    H128764   5.263   6.745   2.278 -1.1182 -1.2048 -2.2157
 1523TIP3    H228765   5.238   6.889   2.238 -0.6017 -0.9981 -1.8106
 1524TIP3   OH228766   3.967   7.468   6.857 -0.0320  0.3724  0.0029
 1524TIP3    H128767   3.932   7.436   6.774 -0.1512  2.0522 -0.6325
 1524TIP3    H228768   3.893   7.515   6.897 -0.3510 -1.4146  1.6568
 1525TIP3   OH228769   4.142   1.956   1.385  0.3520 -0.2175 -0.0506
 1525TIP3    H128770   4.164   1.918   1.300  1.5663  1.1804 -0.4189
 1525TIP3    H228771   4.223   1.948   1.436 -0.1165 -0.3080  0.6971
 1526TIP3   OH228772   6.611   6.916   9.642 -0.3336  0.5701  0.2967
 1526TIP3    H128773   6.704   6.928   9.659 -0.2900 -0.5593  1.0286
 1526TIP3    H228774   6.568   6.975   9.703 -0.1027  1.4537 -0.3822
 1527TIP3   OH228775   6.243   6.187   7.987 -0.0292  0.0875  0.1997
 1527TIP3    H128776   6.314   6.170   7.925 -0.4848 -0.7215 -0.1303
 1527TIP3    H228777   6.218   6.100   8.019 -0.7049  0.3783  0.4914
 1528TIP3   OH228778   4.912   6.894   0.120 -0.2313 -0.1054 -0.2469
 1528TIP3    H128779   4.993   6.925   0.079 -1.6287 -0.1339 -3.2445
 1528TIP3    H228780   4.895   6.958   0.190  1.2452  1.1314 -0.9646
 1529TIP3   OH228781   5.427   5.465   1.093 -0.3435 -0.4446 -0.4281
 1529TIP3    H128782   5.353   5.526   1.102 -0.8949 -1.0117 -1.0344
 1529TIP3    H228783   5.476   5.498   1.018  0.9597  0.8704  0.9248
 1530TIP3   OH228784   2.703   6.432   8.731 -0.1161  0.4087 -0.3803
 1530TIP3    H128785   2.675   6.518   8.764 -0.4354  0.2764 -0.3060
 1530TIP3    H228786   2.790   6.420   8.768 -0.2546  0.4978 -0.0183
 1531TIP3   OH228787   7.298   3.294   1.410 -0.6385  0.3348 -0.2441
 1531TIP3    H128788   7.371   3.329   1.360 -1.3580  2.0513 -0.1650
 1531TIP3    H228789   7.328   3.294   1.501 -0.5019  0.4118 -0.2903
 1532TIP3   OH228790   1.716   1.156   3.419  0.0040  0.4050 -0.0270
 1532TIP3    H128791   1.699   1.167   3.513  0.7375  0.5202  0.1025
 1532TIP3    H228792   1.634   1.181   3.377  0.1553  1.9243  0.5070
 1533TIP3   OH228793   1.120   3.117   8.596  0.2848  0.6943  0.0017
 1533TIP3    H128794   1.196   3.068   8.628  0.3317  1.4016  1.0044
 1533TIP3    H228795   1.140   3.209   8.616  0.1433  1.1435 -1.7223
 1534TIP3   OH228796   5.702   7.252   1.315  0.4549  0.2041 -0.1200
 1534TIP3    H128797   5.718   7.186   1.248 -0.1359  0.2494 -0.3100
 1534TIP3    H228798   5.693   7.202   1.396  0.4113  0.0851 -0.1984
 1535TIP3   OH228799   6.622   1.646   9.965 -0.1941  0.3835 -0.0788
 1535TIP3    H128800   6.615   1.572  10.025  2.8197  0.7660  0.9300
 1535TIP3    H228801   6.534   1.683   9.962 -0.6532  0.0503  3.7774
 1536TIP3   OH228802   4.735   2.752   1.987 -0.6594 -0.4300  0.4568
 1536TIP3    H128803   4.660   2.798   1.950 -0.1188 -0.4554 -0.7261
 1536TIP3    H228804   4.735   2.777   2.079 -3.3933 -2.1500  1.0531
 1537TIP3   OH228805   4.890   2.623   9.702  0.3349  0.1763  0.1206
 1537TIP3    H128806   4.922   2.651   9.788 -1.6643  0.1175  0.9355
 1537TIP3    H228807   4.894   2.703   9.648  0.5166  0.4985  0.6040
 1538TIP3   OH228808   1.455   6.249   2.145 -0.2166 -0.6904  0.3391
 1538TIP3    H128809   1.543   6.286   2.138 -1.1659  1.5792 -0.6028
 1538TIP3    H228810   1.445   6.226   2.237  1.0765 -0.2879  0.5972
 1539TIP3   OH228811   4.371   1.022   0.178 -0.2188  0.3338 -0.5225
 1539TIP3    H128812   4.370   1.115   0.200 -0.3353 -0.3128  2.7116
 1539TIP3    H228813   4.453   0.990   0.214 -0.1274 -0.8348 -1.6921
 1540TIP3   OH228814   2.307   0.005   8.377 -0.3531 -0.0599  0.1504
 1540TIP3    H128815   2.211  -0.002   8.375 -0.3214 -2.0327  1.8635
 1540TIP3    H228816   2.338  -0.067   8.323  0.1800  0.2149  0.0822
 1541TIP3   OH228817   1.115   1.795   7.432 -0.7724 -0.1413  0.2956
 1541TIP3    H128818   1.103   1.736   7.358  1.2629 -0.0677 -0.1356
 1541TIP3    H228819   1.198   1.838   7.416 -1.2974  1.4572  1.5757
 1542TIP3   OH228820   0.385   1.274   0.665 -0.1006 -0.3880 -0.1526
 1542TIP3    H128821   0.439   1.324   0.727  0.7114  0.2285 -1.3018
 1542TIP3    H228822   0.425   1.187   0.663 -0.7364 -0.7188  0.9063
 1543TIP3   OH228823   1.325   6.328   8.273 -0.1830 -0.2354  0.4052
 1543TIP3    H128824   1.416   6.314   8.296  0.1415  1.3122  0.1710
 1543TIP3    H228825   1.277   6.262   8.323  0.8591  0.4191  2.3941
 1544TIP3   OH228826   1.066   6.904   2.364  0.2568 -0.2054 -0.2591
 1544TIP3    H128827   1.048   6.970   2.430  0.0791  0.4935 -0.9969
 1544TIP3    H228828   1.070   6.821   2.413 -0.0760  0.2718  0.5841
 1545TIP3   OH228829   7.377   5.864   0.303  0.1143  0.4353  0.7028
 1545TIP3    H128830   7.372   5.797   0.372 -0.2666  0.6144  0.8458
 1545TIP3    H228831   7.288   5.895   0.292  0.1108  0.1648 -0.1168
 1546TIP3   OH228832   3.072   3.822   2.359  0.0262 -0.4797 -0.5599
 1546TIP3    H128833   3.140   3.888   2.372 -1.3145  0.7612  0.4603
 1546TIP3    H228834   3.063   3.780   2.444  0.0950 -1.2294 -0.9175
 1547TIP3   OH228835   1.668   6.968   9.050  0.2817 -0.0617  0.3531
 1547TIP3    H128836   1.654   7.062   9.037  0.7995 -0.2045 -1.5621
 1547TIP3    H228837   1.595   6.940   9.105 -0.7108  1.1939 -0.2783
 1548TIP3   OH228838   0.766   6.555   7.635  0.5847  0.3631  0.0577
 1548TIP3    H128839   0.815   6.508   7.703  0.5699  0.0636 -0.1352
 1548TIP3    H228840   0.753   6.490   7.566  1.7564  1.0253 -0.8299
 1549TIP3   OH228841   4.184   7.479   9.043  0.8813  0.1578  0.0267
 1549TIP3    H128842   4.142   7.536   9.107 -0.7554  1.4095 -2.0174
 1549TIP3    H228843   4.123   7.407   9.031  0.5423  0.5890 -0.9866
 1550TIP3   OH228844   4.366   3.354   0.878  0.6498  0.9439  0.1917
 1550TIP3    H128845   4.433   3.354   0.947  0.7751  0.9622  0.0724
 1550TIP3    H228846   4.310   3.280   0.899 -0.0986  1.7242  1.0630
 1551TIP3   OH228847   3.333   4.194   0.170 -0.5855 -0.4909 -0.0359
 1551TIP3    H128848   3.342   4.108   0.130  1.0421 -0.8296  0.9576
 1551TIP3    H228849   3.407   4.244   0.136  0.1692 -0.4291  1.5879
 1552TIP3   OH228850   4.606   7.270   9.167  0.1361  0.4872  0.1862
 1552TIP3    H128851   4.659   7.197   9.137 -1.3329 -1.0219  1.1375
 1552TIP3    H228852   4.635   7.286   9.257 -1.6262 -1.0386  1.0915
 1553TIP3   OH228853   5.163   4.721   0.139  0.5476 -0.2961  0.5138
 1553TIP3    H128854   5.087   4.779   0.140 -0.2830 -1.3214 -0.1981
 1553TIP3    H228855   5.209   4.743   0.057 -0.8269 -1.8939 -0.7537
 1554TIP3   OH228856   0.466   0.819   9.029 -0.3043  0.2928  0.3965
 1554TIP3    H128857   0.483   0.747   8.968  0.8901  0.3314  0.6634
 1554TIP3    H228858   0.486   0.783   9.115 -0.8363  0.6039  0.6572
 1555TIP3   OH228859   6.430   5.683   9.923 -0.9632  0.7284 -0.1137
 1555TIP3    H128860   6.358   5.621   9.939 -0.8422  0.7694  0.6347
 1555TIP3    H228861   6.491   5.634   9.868 -1.2640  0.4713 -0.2248
 1556TIP3   OH228862   5.309   6.582   1.263 -0.1182 -0.3837  0.3542
 1556TIP3    H128863   5.310   6.517   1.334 -0.4422  1.1034  1.7701
 1556TIP3    H228864   5.314   6.666   1.308 -1.0526  0.6367 -1.3717
 1557TIP3   OH228865   2.902   0.183   7.967  0.4746 -0.2403  0.0830
 1557TIP3    H128866   2.936   0.144   7.886  0.2947  1.2201 -0.7340
 1557TIP3    H228867   2.837   0.247   7.937 -1.8931 -1.8064  1.5288
 1558TIP3   OH228868   4.722   6.014   0.872 -0.4471  0.4340  0.0303
 1558TIP3    H128869   4.709   5.947   0.939 -3.9829  0.0965 -0.8116
 1558TIP3    H228870   4.782   5.973   0.809 -0.4751 -0.8955  0.8298
 1559TIP3   OH228871   7.440   5.932   2.192  0.0546 -0.4293  0.4343
 1559TIP3    H128872   7.362   5.966   2.148  0.7555  0.1690 -0.3829
 1559TIP3    H228873   7.469   5.859   2.138  2.1162  1.5725 -1.4161
 1560TIP3   OH228874   6.881   1.166   9.618 -0.2510  0.0283 -0.0649
 1560TIP3    H128875   6.949   1.102   9.598  1.1991  0.9355  1.5908
 1560TIP3    H228876   6.899   1.240   9.559 -1.5450 -0.7716 -1.5405
 1561TIP3   OH228877   2.806   3.915   9.136  0.4483  0.1360  0.4555
 1561TIP3    H128878   2.897   3.944   9.142  0.6293 -0.3224 -0.0180
 1561TIP3    H228879   2.786   3.918   9.042  0.3819 -0.9989  0.4237
 1562TIP3   OH228880   6.956   4.581   7.877 -0.4460  0.0515  0.2466
 1562TIP3    H128881   6.933   4.540   7.794  0.1824 -0.3387  0.2666
 1562TIP3    H228882   6.927   4.672   7.867 -1.3685 -0.2511  0.0130
 1563TIP3   OH228883   2.723   7.069   8.107  0.3204 -0.0098  0.0420
 1563TIP3    H128884   2.812   7.044   8.084  0.6344 -0.8892  1.9659
 1563TIP3    H228885   2.733   7.136   8.175 -0.5384  1.9033 -1.5941
 1564TIP3   OH228886   5.151   7.479   1.441  0.1137 -0.3426  0.4623
 1564TIP3    H128887   5.239   7.514   1.437 -0.3238  0.8472  0.9022
 1564TIP3    H228888   5.107   7.529   1.509 -0.5311 -1.8117  1.1813
 1565TIP3   OH228889   0.741   0.354   0.025  0.8594  0.5516  0.5911
 1565TIP3    H128890   0.666   0.313   0.067 -1.5162  3.3113 -0.5520
 1565TIP3    H228891   0.817   0.314   0.066 -1.1365 -3.4714  0.8072
 1566TIP3   OH228892   5.079   3.235   1.324 -0.3085  0.0811  0.1332
 1566TIP3    H128893   5.016   3.185   1.375 -0.7401 -0.5960 -1.0121
 1566TIP3    H228894   5.031   3.315   1.299 -0.6161 -0.2821 -0.4605
 1567TIP3   OH228895   3.649   6.138   7.213 -0.3562  0.3865 -0.6632
 1567TIP3    H128896   3.603   6.133   7.130  1.1737  0.3986 -1.5449
 1567TIP3    H228897   3.708   6.213   7.203 -0.2720  0.4930  0.4987
 1568TIP3   OH228898   2.671   6.174   0.482  0.1311  0.1619 -0.3353
 1568TIP3    H128899   2.721   6.107   0.436 -0.5018 -0.0933 -0.6674
 1568TIP3    H228900   2.613   6.125   0.540  2.0450  0.4911  2.0145
 1569TIP3   OH228901   2.459   0.958   1.145  0.2690 -0.3056  0.2650
 1569TIP3    H128902   2.482   1.004   1.064 -1.3696 -1.0153 -0.6707
 1569TIP3    H228903   2.436   1.027   1.207 -0.6740  0.2302 -0.6349
 1570TIP3   OH228904   5.583   6.011   0.468 -0.6898  0.5451  0.1634
 1570TIP3    H128905   5.587   6.076   0.398 -1.5534  0.2847 -0.1500
 1570TIP3    H228906   5.674   5.995   0.492 -0.3273  0.2483 -1.2909
 1571TIP3   OH228907   4.486   3.376   7.933  0.0617 -0.3451  0.3022
 1571TIP3    H128908   4.432   3.315   7.882 -0.3870 -1.2223  1.7747
 1571TIP3    H228909   4.569   3.329   7.945  0.1787 -0.1274  0.3407
 1572TIP3   OH228910   5.018   1.323   0.117 -0.7716  0.4267  0.3865
 1572TIP3    H128911   4.999   1.300   0.026  0.1363 -1.0715  0.5335
 1572TIP3    H228912   4.945   1.288   0.167 -0.7086  0.2248  0.3386
 1573TIP3   OH228913   6.669   0.433   8.854 -0.7268  0.7273 -0.1621
 1573TIP3    H128914   6.711   0.467   8.775  0.0648  2.3882  0.9028
 1573TIP3    H228915   6.717   0.353   8.875 -0.2600  0.8377 -0.7810
 1574TIP3   OH228916   4.731   7.441   0.730  0.5326 -0.1240  0.0270
 1574TIP3    H128917   4.785   7.363   0.721 -1.3337 -1.3482 -1.0368
 1574TIP3    H228918   4.684   7.429   0.812  0.6815  0.1960  0.1637
 1575TIP3   OH228919   0.665   1.015   9.179  0.2490 -0.3470  0.2737
 1575TIP3    H128920   0.637   0.957   9.108 -0.6937  0.1011  0.2627
 1575TIP3    H228921   0.749   0.980   9.206 -0.2437 -1.6601  0.1995
 1576TIP3   OH228922   5.929   0.994   0.995  0.3237 -0.0763 -0.0726
 1576TIP3    H128923   5.940   1.054   0.921 -1.5627 -0.7440 -0.9572
 1576TIP3    H228924   5.914   0.909   0.954  0.0985 -0.6191  1.1033
 1577TIP3   OH228925   2.731   3.416   1.565 -0.0498 -0.1596  0.3070
 1577TIP3    H128926   2.779   3.488   1.524  0.6531 -0.5419  0.4528
 1577TIP3    H228927   2.720   3.352   1.495  0.5331 -0.5067  0.5287
 1578TIP3   OH228928   6.605   0.862   7.138  0.3834  0.9940 -0.0579
 1578TIP3    H128929   6.640   0.937   7.185 -1.2713  0.6919  1.7565
 1578TIP3    H228930   6.551   0.900   7.069  2.4474  1.4301 -1.5591
 1579TIP3   OH228931   3.927   4.003   9.639 -0.5311 -0.2590  0.3042
 1579TIP3    H128932   3.975   3.993   9.721 -1.2233  0.6405  0.8438
 1579TIP3    H228933   3.917   4.097   9.628 -3.1944 -0.3898  0.8768
 1580TIP3   OH228934   4.603   3.604   7.154  0.2898 -0.0032  0.2677
 1580TIP3    H128935   4.529   3.559   7.114  1.0526 -0.3073 -0.8610
 1580TIP3    H228936   4.565   3.654   7.226 -1.2817  1.2988 -1.3737
 1581TIP3   OH228937   3.236   5.952   6.814 -0.2194 -0.3779  0.1627
 1581TIP3    H128938   3.240   5.874   6.758 -1.6175 -0.2068 -0.2155
 1581TIP3    H228939   3.172   6.009   6.771  0.2687  0.6782  0.8115
 1582TIP3   OH228940   3.211   1.920   8.437  0.2961  0.1393  0.1589
 1582TIP3    H128941   3.227   2.010   8.408  0.6319  0.7728  2.1583
 1582TIP3    H228942   3.192   1.872   8.357  1.0321  1.7943 -1.0637
 1583TIP3   OH228943   6.871   4.998   8.958  0.3854  0.2582  0.2399
 1583TIP3    H128944   6.899   4.961   9.042 -1.1494  1.6783  1.4469
 1583TIP3    H228945   6.787   5.039   8.977  1.0892  2.6766 -1.4401
 1584TIP3   OH228946   3.022   6.227   8.442  0.3417 -0.8219 -0.8174
 1584TIP3    H128947   2.989   6.258   8.357 -1.1985  1.6715  0.5654
 1584TIP3    H228948   2.951   6.172   8.476 -1.1676  1.8878  0.7311
 1585TIP3   OH228949   1.878   4.366   0.789 -0.0418 -0.2283 -0.0382
 1585TIP3    H128950   1.881   4.276   0.755 -0.5653  0.1648 -1.1765
 1585TIP3    H228951   1.925   4.362   0.872  0.2105 -1.4928 -0.2252
 1586TIP3   OH228952   2.315   0.335   2.978 -0.2182  0.2575  0.2452
 1586TIP3    H128953   2.293   0.300   2.891  2.5563  0.2948 -0.5823
 1586TIP3    H228954   2.298   0.263   3.038 -1.3047 -0.0866 -0.4567
 1587TIP3   OH228955   4.469   5.578   9.964  0.5378 -0.8054  0.7372
 1587TIP3    H128956   4.475   5.635   9.888  0.1178 -3.3819 -1.3500
 1587TIP3    H228957   4.515   5.626  10.033 -1.2130  2.7633 -0.3159
 1588TIP3   OH228958   0.199   1.436   0.991 -0.1857  0.2305 -0.4243
 1588TIP3    H128959   0.293   1.448   0.998  0.0099 -1.3334 -0.2022
 1588TIP3    H228960   0.172   1.499   0.924  0.3947  3.4349  2.0804
 1589TIP3   OH228961   2.433   0.138   9.567  0.0542 -0.0332  0.1464
 1589TIP3    H128962   2.433   0.087   9.647  0.9620  0.3303  0.3980
 1589TIP3    H228963   2.436   0.229   9.596  1.6520  0.0863 -0.2541
 1590TIP3   OH228964   7.399   4.587   1.901  0.3612 -0.1354  0.2339
 1590TIP3    H128965   7.415   4.672   1.941 -1.7796  0.6176 -0.4055
 1590TIP3    H228966   7.400   4.604   1.807  0.8088 -1.0200  0.0602
 1591TIP3   OH228967   3.869   2.541   6.754 -0.7734  0.8987  0.2884
 1591TIP3    H128968   3.813   2.571   6.826 -1.5372  1.0737 -0.3650
 1591TIP3    H228969   3.903   2.457   6.785 -1.8108  0.5323  0.5052
 1592TIP3   OH228970   5.225   5.562   9.500 -0.3867  0.3393 -0.3147
 1592TIP3    H128971   5.192   5.550   9.411  1.4180 -2.0183 -0.7585
 1592TIP3    H228972   5.208   5.479   9.543 -0.8441  1.3035  1.4461
 1593TIP3   OH228973   2.821   7.185   9.304 -0.3504 -0.3990 -0.0164
 1593TIP3    H128974   2.859   7.098   9.311 -1.2297 -0.6673  2.1731
 1593TIP3    H228975   2.829   7.223   9.391 -2.8338  0.4681 -0.0698
 1594TIP3   OH228976   0.530   1.225   9.456  0.2040  0.6529 -0.1410
 1594TIP3    H128977   0.619   1.255   9.438 -0.1335  1.1435 -1.0574
 1594TIP3    H228978   0.540   1.134   9.482  1.0996  1.0906  1.1317
 1595TIP3   OH228979   6.564   1.987   8.993 -0.6656  0.3770 -1.0194
 1595TIP3    H128980   6.642   1.933   9.006 -2.1440 -1.1617  2.7470
 1595TIP3    H228981   6.597   2.077   8.990  1.2827 -0.1209  1.8204
 1596TIP3   OH228982   5.015   1.227   2.644 -0.0158 -0.4161 -0.1161
 1596TIP3    H128983   4.957   1.296   2.676  1.7079 -0.0195  2.3972
 1596TIP3    H228984   5.071   1.205   2.718  1.9356 -1.9803 -1.8984
 1597TIP3   OH228985   1.796   6.511   1.319 -1.1206 -0.0448 -0.4075
 1597TIP3    H128986   1.876   6.459   1.318 -1.3494 -0.4155 -1.4148
 1597TIP3    H228987   1.827   6.602   1.315 -0.7283 -0.0886  1.0720
 1598TIP3   OH228988   0.282   1.290   8.042  0.0517 -0.2679 -0.3808
 1598TIP3    H128989   0.294   1.313   7.950 -0.0068  3.5336  0.3918
 1598TIP3    H228990   0.188   1.298   8.057  0.0057 -1.3033 -0.0721
 1599TIP3   OH228991   0.708   3.372   8.010 -0.1110  0.3175  0.0958
 1599TIP3    H128992   0.616   3.393   8.024 -0.5444 -0.3048 -1.5844
 1599TIP3    H228993   0.708   3.312   7.936  1.5788 -0.5124  0.7203
 1600TIP3   OH228994   3.162   6.326   1.141  0.3710  0.2762  0.0613
 1600TIP3    H128995   3.173   6.290   1.229  0.1319  2.1441  0.9015
 1600TIP3    H228996   3.069   6.345   1.134  0.1622 -1.0215 -1.1126
 1601TIP3   OH228997   7.291   7.296   7.861  0.4907 -0.0739 -0.1932
 1601TIP3    H128998   7.247   7.253   7.788 -0.0325 -1.8963  1.1143
 1601TIP3    H228999   7.281   7.389   7.843 -1.3357 -0.4506 -1.4475
 1602TIP3   OH229000   3.456   5.962   0.622  0.2737  0.5528  0.5582
 1602TIP3    H129001   3.425   5.913   0.698 -0.1413 -0.2973 -0.1457
 1602TIP3    H229002   3.533   6.009   0.654  0.6733 -0.5435  1.2548
 1603TIP3   OH229003   5.426   0.425   1.099 -0.1796  0.3873  0.2121
 1603TIP3    H129004   5.406   0.461   1.185  2.4284  0.5004  0.8505
 1603TIP3    H229005   5.515   0.455   1.080  0.8925 -2.8873 -0.6980
 1604TIP3   OH229006   0.071   6.467   8.907  0.2344  0.1820  0.0584
 1604TIP3    H129007   0.058   6.441   8.816 -0.1920 -0.5468  0.3198
 1604TIP3    H229008   0.052   6.388   8.958 -1.5149  1.0869  0.9118
 1605TIP3   OH229009   6.406   5.786   8.461  0.1473 -0.6424 -0.4729
 1605TIP3    H129010   6.400   5.855   8.394 -0.0938 -0.2098 -0.0075
 1605TIP3    H229011   6.353   5.818   8.533  2.3421  0.0515  0.9331
 1606TIP3   OH229012   5.693   4.759   0.196  0.5601 -0.5176 -0.1315
 1606TIP3    H129013   5.612   4.716   0.169  0.4002  1.1620 -2.5519
 1606TIP3    H229014   5.670   4.803   0.278 -0.1188 -2.3774  0.7423
 1607TIP3   OH229015   0.752   2.010   2.266  0.0793 -0.1127 -0.4715
 1607TIP3    H129016   0.738   1.918   2.290  0.2860 -0.0251  0.0006
 1607TIP3    H229017   0.845   2.026   2.283 -0.2686  0.5959  0.9267
 1608TIP3   OH229018   0.942   4.767   7.436  0.3466  0.1475 -0.2861
 1608TIP3    H129019   0.948   4.703   7.507 -1.2607 -0.2434 -0.4544
 1608TIP3    H229020   1.012   4.829   7.453  0.6650 -0.5419  1.0306
 1609TIP3   OH229021   2.771   2.299   6.980 -0.0948  0.3537 -0.5188
 1609TIP3    H129022   2.766   2.207   6.954  2.6359 -0.2241  0.6449
 1609TIP3    H229023   2.782   2.347   6.898  0.7287 -0.6192 -0.9932
 1610TIP3   OH229024   0.642   7.314   7.924  0.4489 -0.2599  0.0401
 1610TIP3    H129025   0.550   7.337   7.937  0.4733 -0.2856  0.2719
 1610TIP3    H229026   0.669   7.277   8.009  1.9163  3.8364  1.6043
 1611TIP3   OH229027   5.310   6.021   2.215 -0.1827 -0.5765 -0.9527
 1611TIP3    H129028   5.358   5.959   2.271  2.3880  1.2420 -0.9599
 1611TIP3    H229029   5.276   6.086   2.276 -1.0652 -0.8469 -1.1460
 1612TIP3   OH229030   4.521   4.130   8.591  0.1184 -0.7369  0.2392
 1612TIP3    H129031   4.523   4.154   8.499 -0.0449 -0.0425  0.4126
 1612TIP3    H229032   4.449   4.067   8.599 -1.5350  1.0784  0.3250
 1613TIP3   OH229033   5.393   4.041   2.293 -0.5199 -0.4939 -0.3222
 1613TIP3    H129034   5.329   3.983   2.334 -0.4969 -0.2108  0.1170
 1613TIP3    H229035   5.470   3.987   2.279 -0.3988 -0.4929  0.3460
 1614TIP3   OH229036   4.290   6.457   2.671  0.0361 -0.1117  0.4119
 1614TIP3    H129037   4.207   6.428   2.709  0.2357  0.7597  1.5656
 1614TIP3    H229038   4.266   6.492   2.585 -0.8559  0.4389  0.8705
 1615TIP3   OH229039   2.902   0.754   0.110  0.5968  0.3176  0.0956
 1615TIP3    H129040   2.982   0.759   0.058  0.6206  1.5615  0.2229
 1615TIP3    H229041   2.832   0.751   0.045  0.7361 -1.2000 -0.0239
 1616TIP3   OH229042   2.912   6.853   8.515 -0.0607 -0.2096  0.5958
 1616TIP3    H129043   2.817   6.852   8.503 -0.1041  1.2120  0.6949
 1616TIP3    H229044   2.932   6.940   8.549  1.1614 -0.8619  1.6586
 1617TIP3   OH229045   4.412   3.159   7.786  0.7710  0.1329 -0.3909
 1617TIP3    H129046   4.475   3.087   7.782  2.8267  1.8084 -0.1868
 1617TIP3    H229047   4.341   3.132   7.728  1.6525 -1.8705 -0.6302
 1618TIP3   OH229048   2.196   0.822   1.918  0.3132  0.3066  0.5608
 1618TIP3    H129049   2.196   0.740   1.967 -0.9696  0.2783  0.5551
 1618TIP3    H229050   2.120   0.816   1.861  1.1670  0.7965 -0.6814
 1619TIP3   OH229051   4.801   1.432   7.681  0.1702  0.1490  0.1111
 1619TIP3    H129052   4.810   1.479   7.598  0.4799  0.4193  0.2917
 1619TIP3    H229053   4.738   1.482   7.731 -0.0004 -0.0020  0.0477
 1620TIP3   OH229054   4.781   3.253   7.962 -0.3266 -0.5237  0.2228
 1620TIP3    H129055   4.830   3.213   7.890 -0.2349  0.6941 -0.4206
 1620TIP3    H229056   4.836   3.325   7.991 -1.1516  0.0723  0.3489
 1621TIP3   OH229057   7.346   2.081   1.984 -0.3790  0.7694 -0.1389
 1621TIP3    H129058   7.380   2.036   2.062 -2.3901 -0.1181  0.2896
 1621TIP3    H229059   7.262   2.117   2.013 -2.0650 -1.1269 -2.3439
 1622TIP3   OH229060   5.837   4.023   1.371 -0.3197  0.2767  0.1228
 1622TIP3    H129061   5.886   4.094   1.411  0.3252  0.6592 -1.2832
 1622TIP3    H229062   5.746   4.053   1.371  0.0291  1.4479 -1.0878
 1623TIP3   OH229063   1.049   1.477   9.493  0.0831  0.0183  0.3224
 1623TIP3    H129064   1.025   1.390   9.459  1.2610 -0.0171 -0.4660
 1623TIP3    H229065   1.143   1.484   9.477 -0.1829  1.8877 -0.6753
 1624TIP3   OH229066   3.871   1.458   8.634  0.0570 -0.3930  0.4506
 1624TIP3    H129067   3.961   1.435   8.655  0.1939 -0.0708  0.2258
 1624TIP3    H229068   3.877   1.506   8.551 -0.4281 -1.3108 -0.1361
 1625TIP3   OH229069   1.320   0.150   9.642 -0.3734  0.5395 -0.1000
 1625TIP3    H129070   1.242   0.204   9.658 -1.1606 -0.5000 -0.3663
 1625TIP3    H229071   1.374   0.162   9.720 -0.8560  1.1551  0.1479
 1626TIP3   OH229072   1.640   1.288   9.440  0.0189 -0.4564  0.0854
 1626TIP3    H129073   1.631   1.321   9.529  0.0250 -0.8996  0.2504
 1626TIP3    H229074   1.682   1.203   9.450 -2.8080 -1.9993 -0.0573
 1627TIP3   OH229075   0.647   4.545   8.755  0.2497 -0.0990 -0.2363
 1627TIP3    H129076   0.639   4.450   8.766 -0.3558  0.0853  1.0637
 1627TIP3    H229077   0.675   4.577   8.841 -0.7336  1.0252 -0.3119
 1628TIP3   OH229078   4.074   2.524   0.630 -0.7171 -0.1941 -0.7444
 1628TIP3    H129079   4.004   2.468   0.597 -0.2809 -0.6981 -0.8156
 1628TIP3    H229080   4.030   2.607   0.650 -0.9527  0.2158 -2.7969
 1629TIP3   OH229081   0.653   2.827   9.666 -0.1554 -0.4611  0.2897
 1629TIP3    H129082   0.605   2.826   9.583  1.1487  0.4249 -0.5330
 1629TIP3    H229083   0.616   2.901   9.714  1.3018  1.1921 -0.9810
 1630TIP3   OH229084   3.826   4.923   7.205  0.0855  0.0442 -0.3875
 1630TIP3    H129085   3.921   4.923   7.193 -0.1288 -1.2343 -2.4872
 1630TIP3    H229086   3.791   4.894   7.121 -2.1161 -0.8695  0.7703
 1631TIP3   OH229087   7.018   6.524   0.875 -0.0688  0.4758  0.1309
 1631TIP3    H129088   7.037   6.434   0.900 -0.5145  0.0537 -0.9691
 1631TIP3    H229089   6.926   6.536   0.897 -0.9353 -0.4275 -2.5897
 1632TIP3   OH229090   3.098   5.013   6.799 -0.1516 -0.1220  0.0519
 1632TIP3    H129091   3.054   4.933   6.771 -0.9557  0.6264 -0.8649
 1632TIP3    H229092   3.148   5.042   6.722 -0.0845  0.4062  0.2860
 1633TIP3   OH229093   2.245   4.271   1.262  0.1032 -0.7125  0.3710
 1633TIP3    H129094   2.210   4.245   1.348  2.4589 -1.6838  1.1228
 1633TIP3    H229095   2.201   4.214   1.200 -2.0860  0.4052  0.7981
 1634TIP3   OH229096   1.413   1.196   0.889  0.0404 -0.2637  0.2608
 1634TIP3    H129097   1.476   1.125   0.907 -0.5426 -0.5441  1.2850
 1634TIP3    H229098   1.455   1.274   0.925  0.0294 -0.3566  0.4767
 1635TIP3   OH229099   1.999   2.846   0.620 -0.1981 -0.2402 -0.4961
 1635TIP3    H129100   2.073   2.789   0.640 -0.4931 -0.5600 -0.3025
 1635TIP3    H229101   1.966   2.815   0.536 -0.4163 -0.4164 -0.3462
 1636TIP3   OH229102   1.007   6.897   0.492 -0.2318 -0.4141 -0.0434
 1636TIP3    H129103   1.049   6.878   0.407 -1.3256  1.3366 -1.0359
 1636TIP3    H229104   0.914   6.884   0.476 -0.6118  1.4698  0.4018
 1637TIP3   OH229105   2.802   5.773   2.634 -0.4107  0.2285  0.1829
 1637TIP3    H129106   2.891   5.739   2.621 -0.4374 -0.1652  0.9161
 1637TIP3    H229107   2.745   5.710   2.590 -0.3039  0.7094 -0.6511
 1638TIP3   OH229108   3.385   6.858   7.186  0.2939  0.4193 -0.3686
 1638TIP3    H129109   3.454   6.806   7.228  1.6579  1.1525 -1.6084
 1638TIP3    H229110   3.427   6.895   7.108 -1.5027  0.9335 -1.1466
 1639TIP3   OH229111   5.964   5.790   0.150  0.4435  0.3675 -0.6756
 1639TIP3    H129112   6.046   5.744   0.167 -0.2037 -0.6625 -0.1883
 1639TIP3    H229113   5.942   5.766   0.060 -1.1463 -2.4870  0.3050
 1640TIP3   OH229114   6.458   1.882   7.622  0.7025 -0.4148  0.2372
 1640TIP3    H129115   6.482   1.971   7.597  0.5451 -0.1430  1.0300
 1640TIP3    H229116   6.513   1.863   7.698  0.0477 -0.6303  0.6670
 1641TIP3   OH229117   7.101   6.483   0.120  0.3307  0.1434  0.2412
 1641TIP3    H129118   7.132   6.422   0.053 -1.9347 -0.1212 -0.6348
 1641TIP3    H229119   7.095   6.429   0.200  1.0910 -0.0391  0.1847
 1642TIP3   OH229120   5.692   6.762   2.282  0.0219 -0.0675 -0.3067
 1642TIP3    H129121   5.640   6.699   2.332  0.3028  0.3188  0.4816
 1642TIP3    H229122   5.729   6.710   2.210  0.3668 -0.8350  0.4138
 1643TIP3   OH229123   0.576   4.827   1.007 -0.1558 -0.2542 -0.2150
 1643TIP3    H129124   0.655   4.867   1.045 -1.1914  0.8925  0.7963
 1643TIP3    H229125   0.609   4.778   0.932  1.2492  2.3949 -1.4846
 1644TIP3   OH229126   2.134   6.545   6.513 -0.0899 -0.3909 -0.2327
 1644TIP3    H129127   2.204   6.523   6.451  1.2982 -1.0143  1.4922
 1644TIP3    H229128   2.142   6.640   6.524  0.3035 -0.4196 -0.2499
 1645TIP3   OH229129   2.953   2.599   2.120 -0.4218  0.4402 -0.2960
 1645TIP3    H129130   2.937   2.581   2.027  2.3019 -1.1941 -0.5378
 1645TIP3    H229131   2.950   2.513   2.162 -0.9276  1.0827  1.0279
 1646TIP3   OH229132   0.693   1.308   7.355 -0.0331  0.2956 -0.3889
 1646TIP3    H129133   0.622   1.363   7.389  0.6102  2.2795 -2.0094
 1646TIP3    H229134   0.753   1.370   7.314  1.9858 -1.4570 -0.2360
 1647TIP3   OH229135   5.169   4.240   1.430  0.2433  0.2077  0.1798
 1647TIP3    H129136   5.247   4.286   1.460  0.6560 -1.1078  1.1829
 1647TIP3    H229137   5.118   4.225   1.509 -0.4156 -0.0895 -0.2886
 1648TIP3   OH229138   4.786   6.942   1.105  0.0411 -0.7485  0.3854
 1648TIP3    H129139   4.723   6.965   1.174 -0.2370 -0.3074 -0.0064
 1648TIP3    H229140   4.737   6.883   1.048 -0.7757  1.2520 -1.1130
 1649TIP3   OH229141   3.326   3.517   1.406 -0.3065  0.5772 -0.3891
 1649TIP3    H129142   3.417   3.511   1.434 -0.4214  3.1170  0.8387
 1649TIP3    H229143   3.331   3.540   1.313  0.1157 -3.9399 -1.7268
 1650TIP3   OH229144   0.033   0.743   8.158  0.0133  0.4963  0.6446
 1650TIP3    H129145   0.065   0.674   8.100  0.7460  0.3333  1.2238
 1650TIP3    H229146  -0.062   0.739   8.151  0.0842  0.2009 -0.2146
 1651TIP3   OH229147   7.311   3.737   0.644 -0.5090 -0.2433  0.7523
 1651TIP3    H129148   7.251   3.673   0.606 -1.5402  1.4471 -0.6711
 1651TIP3    H229149   7.306   3.723   0.738 -1.2763 -1.7303  0.5083
 1652TIP3   OH229150   6.886   0.998   8.303  0.0332  0.5594 -0.0097
 1652TIP3    H129151   6.804   1.034   8.336 -0.7481 -0.8260 -0.3758
 1652TIP3    H229152   6.861   0.952   8.223  1.2577  0.5504 -0.3986
 1653TIP3   OH229153   3.725   3.250   0.474 -0.5214 -0.0648  0.6026
 1653TIP3    H129154   3.750   3.251   0.567 -0.1624 -1.2691  0.5376
 1653TIP3    H229155   3.639   3.208   0.473  0.7387 -2.8176  0.1592
 1654TIP3   OH229156   5.898   0.819   0.504  0.0777 -0.4316 -0.1170
 1654TIP3    H129157   5.863   0.730   0.498  0.2905 -0.6128  1.0110
 1654TIP3    H229158   5.992   0.809   0.491 -0.0317 -0.2162 -1.1090
 1655TIP3   OH229159   0.130   3.072   2.491 -0.3268  0.4926  0.0687
 1655TIP3    H129160   0.161   3.157   2.459  1.4316 -0.2224 -0.2618
 1655TIP3    H229161   0.159   3.069   2.582 -0.3054  0.2322  0.0550
 1656TIP3   OH229162   3.974   0.303   9.045 -0.5002  0.1933  0.0640
 1656TIP3    H129163   4.019   0.285   8.962  0.3223 -0.2255  0.5892
 1656TIP3    H229164   3.944   0.217   9.075 -2.2662  0.5215 -0.5848
 1657TIP3   OH229165   3.306   3.790   8.035  0.2995  0.1669 -1.0208
 1657TIP3    H129166   3.281   3.760   7.948  0.5927  0.4637 -1.2075
 1657TIP3    H229167   3.399   3.769   8.043  0.3047  0.2579 -0.8297
 1658TIP3   OH229168   6.288   7.065   9.897  0.1000 -0.2083  0.1321
 1658TIP3    H129169   6.254   7.117   9.824  0.9582 -0.2682 -0.3206
 1658TIP3    H229170   6.382   7.081   9.896  0.2396 -0.9662  0.6377
 1659TIP3   OH229171   4.365   2.731   8.332 -0.4796 -0.6832 -0.3760
 1659TIP3    H129172   4.421   2.714   8.408  1.4384  0.7321 -1.3660
 1659TIP3    H229173   4.323   2.815   8.351 -1.5961 -1.3039 -0.0311
 1660TIP3   OH229174   3.895   3.899   1.715  0.4856 -0.5020  0.1111
 1660TIP3    H129175   3.838   3.953   1.660  2.0985  0.2558 -0.8890
 1660TIP3    H229176   3.854   3.813   1.716 -1.0085  0.1841 -0.0301
 1661TIP3   OH229177   7.356   1.426   0.479  0.1211  0.0545  0.1544
 1661TIP3    H129178   7.427   1.456   0.422  0.6412 -0.4873  0.5174
 1661TIP3    H229179   7.379   1.337   0.502 -0.0985  0.2525  1.1935
 1662TIP3   OH229180   2.987   4.532   7.447 -0.5444  0.2229 -0.4789
 1662TIP3    H129181   3.004   4.438   7.439 -0.6307  0.3453 -2.8938
 1662TIP3    H229182   2.926   4.551   7.375 -0.8605  2.0541  0.2223
 1663TIP3   OH229183   4.991   2.627   1.295 -0.0850  0.0628 -0.3030
 1663TIP3    H129184   5.057   2.647   1.361  0.1851  1.0042 -0.8470
 1663TIP3    H229185   4.925   2.575   1.343 -0.4035  1.5700  0.9735
 1664TIP3   OH229186   4.024   5.311   0.439  0.0684  0.4547  0.1563
 1664TIP3    H129187   4.039   5.235   0.383 -1.2282 -0.0503  0.4613
 1664TIP3    H229188   4.089   5.303   0.509 -0.0980 -0.4071  0.2197
 1665TIP3   OH229189   5.547   4.501   2.891 -0.4352  0.1410 -0.4030
 1665TIP3    H129190   5.547   4.559   2.967  1.0279 -2.6890  1.9601
 1665TIP3    H229191   5.464   4.453   2.899  0.0922 -0.7350 -0.0574
 1666TIP3   OH229192   4.387   4.868   0.451  0.1554 -0.1904  0.1006
 1666TIP3    H129193   4.397   4.894   0.542  0.1393  0.6419 -0.1292
 1666TIP3    H229194   4.399   4.773   0.451  1.9168  0.0089  0.7191
 1667TIP3   OH229195   1.579   3.427   0.108  0.6611  0.1916 -0.7142
 1667TIP3    H129196   1.651   3.424   0.045 -1.1207 -0.9617 -2.8252
 1667TIP3    H229197   1.519   3.493   0.072 -0.1298 -0.0819  0.0749
 1668TIP3   OH229198   3.100   0.622   2.287 -0.3888 -0.1807  1.0086
 1668TIP3    H129199   3.151   0.665   2.219 -0.4675  0.3544  1.2840
 1668TIP3    H229200   3.030   0.684   2.308 -2.2870 -1.6305 -0.6647
 1669TIP3   OH229201   1.643   1.169   3.095 -0.1758  0.5410 -0.1986
 1669TIP3    H129202   1.633   1.080   3.061 -1.7731  0.7866 -0.4600
 1669TIP3    H229203   1.573   1.218   3.052  0.2457  1.7624  0.4876
 1670TIP3   OH229204   2.249   0.808   1.047  0.3918 -0.2039  0.2223
 1670TIP3    H129205   2.310   0.877   1.074  0.4617 -0.0431 -0.3346
 1670TIP3    H229206   2.183   0.807   1.116  1.4829 -0.9770  1.2839
 1671TIP3   OH229207   1.407   2.520   9.883  0.1192  0.1212 -0.2595
 1671TIP3    H129208   1.341   2.585   9.859 -0.2806 -0.2465 -0.1649
 1671TIP3    H229209   1.490   2.568   9.881 -0.3279  1.0437  1.2999
 1672TIP3   OH229210   4.037   3.224   9.925 -0.3643  0.3384 -0.0651
 1672TIP3    H129211   3.955   3.194   9.964  0.0958 -1.3497 -0.3164
 1672TIP3    H229212   4.019   3.230   9.832 -0.7704  2.0107  0.0950
 1673TIP3   OH229213   2.310   3.476   1.816 -0.2988 -0.1999 -0.3609
 1673TIP3    H129214   2.229   3.443   1.856  0.6384 -1.9749  0.2103
 1673TIP3    H229215   2.325   3.560   1.859 -1.9277  0.2732 -0.6387
 1674TIP3   OH229216   1.575   2.499   7.422 -0.4653 -0.0179 -0.4408
 1674TIP3    H129217   1.533   2.424   7.463 -0.0161 -1.1344 -1.9028
 1674TIP3    H229218   1.517   2.573   7.439 -0.2928 -0.4027  2.1018
 1675TIP3   OH229219   7.309   0.023   0.093 -0.4985 -0.2798  0.4352
 1675TIP3    H129220   7.369  -0.036   0.139  0.9778  0.8676  0.0529
 1675TIP3    H229221   7.327   0.007   0.000 -1.9925 -1.0999  0.2501
 1676TIP3   OH229222   2.466   0.987   8.920  0.1862 -0.2092  0.1980
 1676TIP3    H129223   2.480   1.005   8.827 -0.0640  0.0585  0.2085
 1676TIP3    H229224   2.371   0.977   8.928  0.2118 -0.2870  0.4152
 1677TIP3   OH229225   6.965   5.603   0.080  0.1942 -0.1173 -0.2838
 1677TIP3    H129226   6.904   5.677   0.073  0.8058  0.3270 -1.2485
 1677TIP3    H229227   6.924   5.534   0.028  0.3693  0.0943 -0.7142
 1678TIP3   OH229228   1.877   5.223   1.928  0.1318  0.5427  0.0665
 1678TIP3    H129229   1.847   5.219   1.837  0.3580  0.2611  0.0034
 1678TIP3    H229230   1.839   5.304   1.962 -0.2530  0.4663 -0.1720
 1679TIP3   OH229231   4.553   2.454   1.850 -0.1115  0.3906 -0.3490
 1679TIP3    H129232   4.522   2.531   1.802 -1.1856  0.6289  0.6845
 1679TIP3    H229233   4.513   2.380   1.804 -0.1183  0.5278 -0.5687
 1680TIP3   OH229234   0.490   4.187   9.375  0.5088 -0.0462  0.2122
 1680TIP3    H129235   0.520   4.097   9.389  0.2959  0.0540  1.4002
 1680TIP3    H229236   0.560   4.227   9.322  0.1032 -1.1839 -1.2834
 1681TIP3   OH229237   0.242   2.325   9.842  0.2276 -0.1073 -0.5802
 1681TIP3    H129238   0.272   2.253   9.899 -1.8095  0.7412  1.7319
 1681TIP3    H229239   0.317   2.385   9.839  0.7551 -0.6810  0.3765
 1682TIP3   OH229240   5.366   2.261   1.382  0.2851  0.1290  0.1744
 1682TIP3    H129241   5.425   2.334   1.398 -0.8888  1.2412 -0.4261
 1682TIP3    H229242   5.303   2.265   1.454 -0.3029  0.2694 -0.3363
 1683TIP3   OH229243   2.148   6.048   7.159  0.5617 -0.1744 -0.3688
 1683TIP3    H129244   2.052   6.041   7.159  0.4692  0.9192 -0.2069
 1683TIP3    H229245   2.166   6.123   7.102  1.2140  0.6983  0.9340
 1684TIP3   OH229246   6.664   0.129   1.812  0.4149 -0.2012  0.1689
 1684TIP3    H129247   6.705   0.208   1.776 -0.6477  0.2155 -0.1644
 1684TIP3    H229248   6.624   0.158   1.895  0.8049 -0.6082  0.5059
 1685TIP3   OH229249   6.782   5.654   9.452 -0.1136  0.2081 -0.2030
 1685TIP3    H129250   6.847   5.724   9.460  0.3690 -0.2406 -0.1860
 1685TIP3    H229251   6.785   5.609   9.537  0.7104 -0.8154 -0.7622
 1686TIP3   OH229252   6.945   2.499   8.695 -0.1813 -0.2420  0.3048
 1686TIP3    H129253   6.920   2.588   8.719 -1.2622 -0.7058  0.9965
 1686TIP3    H229254   7.030   2.485   8.737  1.1602  1.2258 -1.7261
 1687TIP3   OH229255   6.747   6.189   7.617 -0.1837  0.1542  0.1319
 1687TIP3    H129256   6.791   6.260   7.663  0.5734 -0.2169 -0.0220
 1687TIP3    H229257   6.658   6.222   7.604 -0.2537  0.4895  1.3385
 1688TIP3   OH229258   1.511   3.172   9.000  0.1500  0.9042  0.4587
 1688TIP3    H129259   1.595   3.141   8.965 -0.7987  1.5268 -2.6078
 1688TIP3    H229260   1.454   3.095   8.998  0.4201  0.6076  2.0760
 1689TIP3   OH229261   3.711   6.151   0.183  0.0085 -0.3448 -0.4826
 1689TIP3    H129262   3.770   6.099   0.129  3.7257  2.4930  0.4499
 1689TIP3    H229263   3.679   6.220   0.125  0.7439  0.3434 -0.0870
 1690TIP3   OH229264   3.508   6.784   1.370 -0.1694  0.5316 -0.0409
 1690TIP3    H129265   3.515   6.743   1.457  0.2224  0.6570 -0.0126
 1690TIP3    H229266   3.508   6.878   1.388  0.1308  0.5619 -0.1896
 1691TIP3   OH229267   2.324   3.958   9.356  0.6395 -0.2912  0.5479
 1691TIP3    H129268   2.298   3.869   9.333  1.5313 -0.6290  0.8104
 1691TIP3    H229269   2.388   3.947   9.427 -1.4294  0.6763  2.6902
 1692TIP3   OH229270   7.098   7.168   1.171 -0.1680 -0.6120  0.2211
 1692TIP3    H129271   7.115   7.228   1.243 -0.1970 -1.2841  0.7929
 1692TIP3    H229272   7.140   7.209   1.095 -1.2604  0.7576  0.3132
 1693TIP3   OH229273   3.245   0.643   1.684 -0.3865 -0.0677  0.1966
 1693TIP3    H129274   3.258   0.632   1.590  0.2620  0.9066  0.1665
 1693TIP3    H229275   3.194   0.723   1.692  1.5368  1.1704  0.7623
 1694TIP3   OH229276   7.386   2.729   1.418 -0.2957  0.4747 -0.1853
 1694TIP3    H129277   7.466   2.780   1.431  0.4364 -1.1428  2.0229
 1694TIP3    H229278   7.409   2.666   1.350 -0.5144  1.5678 -1.3181
 1695TIP3   OH229279   2.540   0.961   7.459 -0.0574 -0.7472  0.2901
 1695TIP3    H129280   2.561   1.042   7.506  0.1988 -1.7517  1.9659
 1695TIP3    H229281   2.569   0.978   7.369 -0.2691  1.1146  0.5322
 1696TIP3   OH229282   5.799   0.115   7.937 -0.0297 -0.5031 -0.1800
 1696TIP3    H129283   5.754   0.041   7.896 -1.0513 -1.1568  1.9640
 1696TIP3    H229284   5.861   0.145   7.871 -3.2119  0.1512 -3.1786
 1697TIP3   OH229285   6.536   5.892   1.326  0.5345  0.4002 -0.3059
 1697TIP3    H129286   6.476   5.821   1.305 -0.1268  0.4212  1.3975
 1697TIP3    H229287   6.510   5.964   1.268  0.0517 -0.1487 -0.7829
 1698TIP3   OH229288   3.473   5.404   8.295  0.2146 -0.1614 -0.5596
 1698TIP3    H129289   3.465   5.320   8.249  2.2902 -0.5807 -0.2551
 1698TIP3    H229290   3.539   5.452   8.246  0.1813  0.6572  0.1764
 1699TIP3   OH229291   0.609   6.539   1.092  0.0729  0.3205  0.1917
 1699TIP3    H129292   0.518   6.549   1.065  0.4957 -0.2679 -1.6254
 1699TIP3    H229293   0.659   6.580   1.022  1.2386 -0.5909  0.4590
 1700TIP3   OH229294   2.218   4.037   8.049  0.3628 -0.5529 -0.2573
 1700TIP3    H129295   2.288   4.079   7.999  0.5804 -0.6247 -0.0131
 1700TIP3    H229296   2.180   3.973   7.988  0.5630 -0.5731 -0.3613
 1701TIP3   OH229297   5.361   1.623   9.708 -0.5737 -0.2967 -0.1563
 1701TIP3    H129298   5.275   1.624   9.664 -0.2911  1.6684 -0.7651
 1701TIP3    H229299   5.415   1.565   9.654 -0.4251  1.5610 -2.1068
 1702TIP3   OH229300   2.587   1.487   2.357 -0.7458 -0.5320 -0.4758
 1702TIP3    H129301   2.590   1.468   2.451 -2.4023 -0.1001 -0.2988
 1702TIP3    H229302   2.530   1.419   2.321  1.8266 -2.2183 -1.6361
 1703TIP3   OH229303   1.638   0.295   8.740  0.3914  0.2840 -0.0795
 1703TIP3    H129304   1.608   0.217   8.694 -2.8392  1.1733  0.2660
 1703TIP3    H229305   1.615   0.368   8.682  0.3804  1.1515  0.9820
 1704TIP3   OH229306   3.106   5.238   6.976  0.4487  0.4399  0.2140
 1704TIP3    H129307   3.092   5.151   6.938  0.2833  0.3227  0.5400
 1704TIP3    H229308   3.026   5.255   7.027  1.1477  0.1180  1.4397
 1705TIP3   OH229309   2.146   4.923   9.311  0.1993  0.4769 -0.1887
 1705TIP3    H129310   2.060   4.899   9.344 -0.1688 -0.2845 -1.6185
 1705TIP3    H229311   2.137   5.015   9.284 -0.0281  0.5237  0.0422
 1706TIP3   OH229312   5.646   4.268   9.288 -0.0830 -0.1184 -0.0852
 1706TIP3    H129313   5.657   4.188   9.340 -1.0320 -0.1881  0.0330
 1706TIP3    H229314   5.567   4.252   9.237 -0.5133  0.9000  0.2381
 1707TIP3   OH229315   1.885   3.795   8.038 -0.0097  0.3861 -0.3636
 1707TIP3    H129316   1.966   3.826   7.998  0.4270  1.2854  1.1461
 1707TIP3    H229317   1.860   3.719   7.986  2.8401 -1.0952  0.2232
 1708TIP3   OH229318   6.181   4.165   9.510 -0.5262  0.0841  0.8053
 1708TIP3    H129319   6.119   4.183   9.440  0.0364 -0.2716  0.2083
 1708TIP3    H229320   6.249   4.232   9.502  1.8478 -2.3702 -1.7460
 1709TIP3   OH229321   7.231   7.479   0.931 -0.0438 -0.3284 -0.6421
 1709TIP3    H129322   7.174   7.419   0.883 -1.0302  0.0814 -0.0067
 1709TIP3    H229323   7.245   7.553   0.872  0.4201 -0.7525 -1.0705
 1710TIP3   OH229324   2.092   3.086   8.590  0.2947 -0.0092 -0.1773
 1710TIP3    H129325   2.148   3.009   8.588  0.9046  0.4361 -0.7472
 1710TIP3    H229326   2.049   3.087   8.505  0.0220  0.0903 -0.0403
 1711TIP3   OH229327   0.552   6.735   8.825  0.0535  0.6638 -0.3912
 1711TIP3    H129328   0.609   6.720   8.901  0.4357  0.9070 -0.6272
 1711TIP3    H229329   0.572   6.824   8.798 -1.1649  1.1065  0.1325
 1712TIP3   OH229330   4.396   7.185   0.086  0.2397  0.7032  0.6097
 1712TIP3    H129331   4.307   7.152   0.077 -0.1889  1.5967  1.3604
 1712TIP3    H229332   4.390   7.277   0.059  1.0926  0.5671 -0.0646
 1713TIP3   OH229333   4.398   5.713   1.900 -0.2913  0.2786  0.5596
 1713TIP3    H129334   4.378   5.694   1.991 -0.9859  1.4201  0.6574
 1713TIP3    H229335   4.488   5.681   1.888  0.0276  0.6623  1.8056
 1714TIP3   OH229336   3.397   6.311   6.911 -0.3211 -0.4054 -0.6725
 1714TIP3    H129337   3.303   6.325   6.916 -0.2023  0.1024  0.5223
 1714TIP3    H229338   3.432   6.354   6.989  0.7505 -1.9190 -0.2733
 1715TIP3   OH229339   1.970   0.332   0.838  0.8406 -0.0007  0.7687
 1715TIP3    H129340   1.953   0.410   0.891  1.1276 -0.2003  1.1644
 1715TIP3    H229341   1.899   0.330   0.774  0.6806  0.4361  0.9284
 1716TIP3   OH229342   6.603   4.973   1.004  0.4000  0.0174 -0.5376
 1716TIP3    H129343   6.561   4.964   1.090 -0.5248  0.8438 -0.8852
 1716TIP3    H229344   6.596   4.885   0.966  0.5714 -0.2910  0.1212
 1717TIP3   OH229345   6.606   1.392   1.073 -0.2646  0.0507 -0.0993
 1717TIP3    H129346   6.634   1.325   1.136  0.1145 -1.0951 -1.4430
 1717TIP3    H229347   6.553   1.453   1.125  1.3909  0.0664  1.6682
 1718TIP3   OH229348   4.979   5.825   8.368 -0.3189  0.4819  0.1913
 1718TIP3    H129349   4.890   5.796   8.350  0.2802 -1.0547 -0.4779
 1718TIP3    H229350   4.985   5.828   8.463 -1.3440  1.5384  0.2453
 1719TIP3   OH229351   5.486   5.346   9.948  0.5921  0.2977 -0.6326
 1719TIP3    H129352   5.550   5.304  10.005 -1.9348 -1.4028  1.1783
 1719TIP3    H229353   5.498   5.440   9.964  0.4790 -0.0783  2.2394
 1720TIP3   OH229354   4.561   1.714   1.544  0.0415  0.7682 -0.1686
 1720TIP3    H129355   4.638   1.754   1.586  0.9333 -0.5768 -0.4640
 1720TIP3    H229356   4.581   1.716   1.451 -0.4347  0.7010 -0.2727
 1721TIP3   OH229357   2.373   0.854   6.876  0.3362  0.1384 -0.0799
 1721TIP3    H129358   2.459   0.818   6.898 -0.6356 -1.8093  0.8105
 1721TIP3    H229359   2.358   0.922   6.941  1.5039  1.0386 -0.7212
 1722TIP3   OH229360   1.522   0.031   9.971 -0.5477  0.1880 -0.0312
 1722TIP3    H129361   1.459  -0.027  10.013 -1.2067  1.4425  0.7809
 1722TIP3    H229362   1.547  -0.015   9.890  0.7450 -2.2927  1.6476
 1723TIP3   OH229363   1.564   3.602   8.585 -0.2006  0.4870 -0.4411
 1723TIP3    H129364   1.495   3.542   8.557 -0.4096  0.6944 -0.3752
 1723TIP3    H229365   1.568   3.592   8.680  1.7188 -1.5313 -0.6592
 1724TIP3   OH229366   1.469   7.154   0.733 -0.5641  0.6306  0.3017
 1724TIP3    H129367   1.382   7.191   0.753 -0.4325  2.1805 -1.7189
 1724TIP3    H229368   1.530   7.214   0.776 -0.4479  0.7295 -0.0005
 1725TIP3   OH229369   7.016   2.664   0.380  0.6075 -0.2173  0.1913
 1725TIP3    H129370   7.050   2.663   0.470  1.0961 -0.6180  0.0013
 1725TIP3    H229371   7.003   2.757   0.361  0.4116 -0.1320  0.7066
 1726TIP3   OH229372   1.316   4.868   8.402  0.2410  0.0421 -0.6239
 1726TIP3    H129373   1.339   4.779   8.427 -1.4250 -0.0680  0.7029
 1726TIP3    H229374   1.351   4.923   8.472  0.7446  0.3888 -1.1345
 1727TIP3   OH229375   4.986   6.825   1.578 -0.2276 -0.0908  0.0854
 1727TIP3    H129376   5.035   6.882   1.520  1.4639 -0.8529  0.7076
 1727TIP3    H229377   4.894   6.846   1.560  0.2977  3.0628  0.5780
 1728TIP3   OH229378   6.229   4.571   9.696 -0.3101  0.0272 -0.0248
 1728TIP3    H129379   6.140   4.571   9.659 -1.0822  1.3986  1.7004
 1728TIP3    H229380   6.231   4.492   9.750  0.3853 -1.2774 -1.8263
 1729TIP3   OH229381   2.689   0.291   2.575 -0.0469 -0.1332 -0.1371
 1729TIP3    H129382   2.753   0.253   2.635  0.7137 -0.8708 -1.3612
 1729TIP3    H229383   2.687   0.384   2.597  0.9651 -0.2176  0.3624
 1730TIP3   OH229384   1.189   5.978   9.395  0.2903  0.4220  0.3588
 1730TIP3    H129385   1.170   5.890   9.362  1.5789 -0.4782  1.8681
 1730TIP3    H229386   1.285   5.982   9.399  0.2294  1.4911  1.2975
 1731TIP3   OH229387   5.349   4.565   9.042  0.0418  0.1030  0.0429
 1731TIP3    H129388   5.322   4.637   8.986  1.7200 -0.0718 -1.0932
 1731TIP3    H229389   5.338   4.487   8.988  0.1269 -0.2622  0.5425
 1732TIP3   OH229390   6.336   2.681   1.432  0.3510  0.0829 -0.0655
 1732TIP3    H129391   6.339   2.768   1.394  0.2804  0.8732  1.6254
 1732TIP3    H229392   6.254   2.644   1.401  0.6275  0.4030 -1.2134
 1733TIP3   OH229393   5.559   1.156   0.168 -0.5870 -0.2032  0.1316
 1733TIP3    H129394   5.577   1.142   0.260  0.5077 -1.3489 -0.2340
 1733TIP3    H229395   5.472   1.119   0.154 -0.8963  0.2715  0.7569
 1734TIP3   OH229396   1.597   0.114   6.747  0.3056 -0.3209  0.7145
 1734TIP3    H129397   1.510   0.074   6.740  1.3375 -2.4102 -1.5677
 1734TIP3    H229398   1.580   0.207   6.756 -2.1808 -0.5850 -0.4684
 1735TIP3   OH229399   3.758   7.210   2.621  0.4216  0.2145 -0.2479
 1735TIP3    H129400   3.736   7.117   2.624  0.5122  0.2088  0.3545
 1735TIP3    H229401   3.702   7.246   2.552 -1.5140  0.2016  1.2337
 1736TIP3   OH229402   1.635   2.467   1.407 -0.0242 -0.1223 -0.6376
 1736TIP3    H129403   1.685   2.439   1.484 -0.5551  1.0348  0.1563
 1736TIP3    H229404   1.693   2.529   1.363 -0.1857  0.1349 -0.4941
 1737TIP3   OH229405   2.724   2.999   6.068 -0.0606  0.2324 -0.3398
 1737TIP3    H129406   2.794   3.054   6.103 -0.4332  0.5658 -0.1228
 1737TIP3    H229407   2.754   2.909   6.086 -1.1399  0.3689  2.6632
 1738TIP3   OH229408   3.832   3.583   7.355 -0.7621 -0.6915  0.0508
 1738TIP3    H129409   3.916   3.571   7.311  0.1323  0.3751  1.3619
 1738TIP3    H229410   3.845   3.543   7.441 -1.5481 -0.4072  0.3065
 1739TIP3   OH229411   0.095   1.532   8.857 -0.0712 -0.3132 -0.0739
 1739TIP3    H129412   0.072   1.542   8.765 -2.2229  2.0738  0.6054
 1739TIP3    H229413   0.191   1.523   8.857  0.3319  2.4621 -2.4473
 1740TIP3   OH229414   4.760   4.425   9.211 -0.4825  0.1261 -0.8385
 1740TIP3    H129415   4.665   4.422   9.202 -0.4273 -3.3863 -1.6347
 1740TIP3    H229416   4.779   4.361   9.279  1.3211  1.5677  0.1076
 1741TIP3   OH229417   2.327   4.485   1.483  0.3554 -0.2050  0.2318
 1741TIP3    H129418   2.331   4.575   1.452  0.2848 -0.6141 -1.0388
 1741TIP3    H229419   2.331   4.432   1.403  0.4427 -1.3277  0.9565
 1742TIP3   OH229420   4.804   2.962   8.445  0.2036 -0.5046 -0.0941
 1742TIP3    H129421   4.786   3.054   8.466  0.1726 -0.5148 -0.0772
 1742TIP3    H229422   4.798   2.957   8.350  0.6756 -0.3847 -0.1350
 1743TIP3   OH229423   2.050   6.528   2.156  0.0778  0.2038 -0.0400
 1743TIP3    H129424   2.023   6.591   2.089 -1.2613  1.1519  1.3358
 1743TIP3    H229425   2.002   6.448   2.134 -2.1919  1.1912  1.0339
 1744TIP3   OH229426   2.024   2.628   7.934  0.3650  0.1206  0.1838
 1744TIP3    H129427   2.092   2.568   7.903 -0.7268 -2.7796  2.8723
 1744TIP3    H229428   2.066   2.676   8.006 -0.0096 -0.7188  0.9776
 1745TIP3   OH229429   5.748   4.161   1.097 -0.0895 -0.0584  0.1164
 1745TIP3    H129430   5.679   4.228   1.093  0.8517  0.9052 -0.7305
 1745TIP3    H229431   5.798   4.175   1.017  0.9611 -0.8774  0.6212
 1746TIP3   OH229432   0.045   5.970   8.889 -0.2650  0.4208  0.3544
 1746TIP3    H129433  -0.037   6.014   8.863  0.0527  0.4075 -0.6896
 1746TIP3    H229434   0.114   6.024   8.851  0.2194  0.2868  1.0236
 1747TIP3   OH229435   3.143   3.593   8.180 -0.3679  0.3541 -0.0076
 1747TIP3    H129436   3.052   3.577   8.152 -0.7584  0.3556  1.1886
 1747TIP3    H229437   3.169   3.671   8.131 -0.4112 -0.6009 -1.6332
 1748TIP3   OH229438   3.816   1.394   1.153  0.0049  0.4478 -0.1291
 1748TIP3    H129439   3.836   1.472   1.204 -0.2487 -0.5086  1.5128
 1748TIP3    H229440   3.869   1.403   1.073  1.4924  1.3468  0.9000
 1749TIP3   OH229441   5.384   0.742   6.837  0.1528  0.1854 -0.5440
 1749TIP3    H129442   5.460   0.684   6.834  0.0838  0.1210 -1.3370
 1749TIP3    H229443   5.332   0.710   6.910  1.4995  1.0209  0.8182
 1750TIP3   OH229444   6.296   4.140   7.184  0.1009  0.2257 -0.7419
 1750TIP3    H129445   6.238   4.070   7.151  1.1757  0.3574 -3.1207
 1750TIP3    H229446   6.382   4.116   7.151  1.1149  0.9815  1.2340
 1751TIP3   OH229447   0.801   6.874   2.332  0.0032 -0.1690 -0.1522
 1751TIP3    H129448   0.789   6.875   2.237 -2.7606 -2.0863  0.0593
 1751TIP3    H229449   0.896   6.881   2.344  0.4168  0.3822 -3.0066
 1752TIP3   OH229450   6.764   6.973   1.174 -0.5290  0.2398  0.3706
 1752TIP3    H129451   6.831   6.945   1.112 -0.4252  1.6593 -0.1974
 1752TIP3    H229452   6.690   6.999   1.118 -1.2399 -0.4836  0.9515
 1753TIP3   OH229453   4.485   4.481   0.672  0.2168 -0.0930  0.1705
 1753TIP3    H129454   4.427   4.406   0.688 -1.9804  1.9421  2.6985
 1753TIP3    H229455   4.517   4.505   0.759  2.1406  1.0086 -0.7675
 1754TIP3   OH229456   4.064   6.529   8.109  0.0539  0.5310  0.4607
 1754TIP3    H129457   3.969   6.528   8.117  0.1306 -1.8410  2.1975
 1754TIP3    H229458   4.081   6.473   8.033  0.0305 -2.1288  2.2496
 1755TIP3   OH229459   5.816   3.475   0.303 -0.2970  0.1347 -0.3298
 1755TIP3    H129460   5.776   3.544   0.250  0.1764  0.1033 -0.7427
 1755TIP3    H229461   5.752   3.404   0.303 -0.4270  0.2474 -0.6288
 1756TIP3   OH229462   6.064   5.213   7.708 -0.1262 -0.1672 -0.4141
 1756TIP3    H129463   6.020   5.297   7.720 -0.6751 -0.4489 -0.4667
 1756TIP3    H229464   6.026   5.176   7.629  0.5503 -0.1961 -0.7337
 1757TIP3   OH229465   4.110   3.233   2.326  0.3343 -0.1104 -0.1675
 1757TIP3    H129466   4.097   3.306   2.386  1.6449 -0.4334  0.5455
 1757TIP3    H229467   4.165   3.268   2.257 -0.3846 -0.0006 -0.7001
 1758TIP3   OH229468   4.819   4.086   1.307  0.2732 -0.6345 -0.4105
 1758TIP3    H129469   4.730   4.088   1.272  0.7637 -0.7799 -1.7246
 1758TIP3    H229470   4.831   4.173   1.347 -1.0464 -1.2336  1.4026
 1759TIP3   OH229471   5.606   0.759   1.241  0.0571  0.1780  0.4826
 1759TIP3    H129472   5.571   0.789   1.157  2.4513  0.3961 -0.5046
 1759TIP3    H229473   5.613   0.664   1.232  0.2093  0.1888  0.4906
 1760TIP3   OH229474   3.241   3.012   0.544  0.0514  0.2558  0.1888
 1760TIP3    H129475   3.181   3.086   0.557  0.3399  0.9035 -1.8377
 1760TIP3    H229476   3.237   2.964   0.627 -3.0702  0.4037  0.2524
 1761TIP3   OH229477   0.628   4.792   2.300  0.8643 -0.2523  0.1030
 1761TIP3    H129478   0.537   4.792   2.330  0.6828 -0.1649 -0.4317
 1761TIP3    H229479   0.652   4.700   2.297  0.5853 -0.3134 -0.3563
 1762TIP3   OH229480   4.748   0.896   7.360 -0.1394  0.4382  0.2592
 1762TIP3    H129481   4.670   0.870   7.409 -1.8419  2.2851 -1.3062
 1762TIP3    H229482   4.808   0.932   7.425 -0.0059 -2.0915  1.6575
 1763TIP3   OH229483   0.476   2.320   8.876  0.3400 -0.5955  0.0458
 1763TIP3    H129484   0.568   2.294   8.874  0.0945 -1.5137 -2.4021
 1763TIP3    H229485   0.432   2.246   8.918  0.4401 -1.2683 -1.0091
 1764TIP3   OH229486   2.946   5.401   9.759  0.6174  0.4747  0.5309
 1764TIP3    H129487   2.969   5.455   9.683 -0.6538  1.3903  0.7576
 1764TIP3    H229488   2.955   5.461   9.833 -0.8678  0.4177  0.7834
 1765TIP3   OH229489   2.528   3.128   8.375 -0.4497 -0.4334 -0.2049
 1765TIP3    H129490   2.485   3.193   8.430  0.1124 -0.1157 -0.1338
 1765TIP3    H229491   2.503   3.152   8.285  1.1273  0.9421 -0.3199
 1766TIP3   OH229492   2.352   4.133   9.134 -0.8257 -0.1968 -0.1039
 1766TIP3    H129493   2.320   4.211   9.179  0.6890 -0.2570  1.1730
 1766TIP3    H229494   2.324   4.060   9.190  0.1449 -0.3491  0.2063
 1767TIP3   OH229495   6.109   2.193   8.533  0.4438  0.4561 -0.3745
 1767TIP3    H129496   6.194   2.208   8.490 -0.4063  1.6690 -1.7394
 1767TIP3    H229497   6.102   2.098   8.541  2.7483  0.3508  1.5588
 1768TIP3   OH229498   6.953   0.955   9.203  0.1614  0.0473 -0.1818
 1768TIP3    H129499   6.990   0.924   9.120  3.1124 -0.4571  1.1820
 1768TIP3    H229500   7.025   1.002   9.245 -1.1180  0.0109  2.2448
 1769TIP3   OH229501   2.197   5.366   0.836  0.0839  0.0512  0.0122
 1769TIP3    H129502   2.266   5.371   0.770 -0.6932  1.1450 -0.7461
 1769TIP3    H229503   2.224   5.428   0.903  1.0245 -1.2760  0.9148
 1770TIP3   OH229504   7.006   0.754   0.798 -0.3503 -0.6470 -0.0244
 1770TIP3    H129505   7.022   0.846   0.821  0.4634 -0.7767 -0.0401
 1770TIP3    H229506   6.942   0.758   0.727 -0.1433 -0.0812 -0.1879
 1771TIP3   OH229507   4.039   5.101   0.270  0.7365  0.3384  0.0580
 1771TIP3    H129508   3.961   5.059   0.305  1.6742 -0.6664  1.0109
 1771TIP3    H229509   4.026   5.099   0.175 -1.5847  2.6237  0.2004
 1772TIP3   OH229510   1.943   1.951   1.399 -0.3038 -0.2137 -0.5510
 1772TIP3    H129511   1.952   1.930   1.306  0.4451  1.0149 -0.7673
 1772TIP3    H229512   1.946   2.046   1.404  0.2362 -0.2649  0.7830
 1773TIP3   OH229513   1.744   0.574   2.507 -0.0653  0.0232 -0.0089
 1773TIP3    H129514   1.687   0.617   2.443 -0.5039  1.5815  1.3488
 1773TIP3    H229515   1.822   0.630   2.511  0.7560 -1.0619 -0.4835
 1774TIP3   OH229516   1.539   5.326   8.948  0.1855  0.0133 -0.2474
 1774TIP3    H129517   1.577   5.241   8.928  0.3790  0.3560 -1.4107
 1774TIP3    H229518   1.479   5.344   8.876 -0.1013  0.7250  0.1509
 1775TIP3   OH229519   3.523   1.504   0.680  0.0805 -0.5360 -0.7045
 1775TIP3    H129520   3.568   1.420   0.669  0.5763 -0.5678  1.2517
 1775TIP3    H229521   3.442   1.495   0.629 -0.3151 -2.5551  0.1943
 1776TIP3   OH229522   6.632   0.364   2.506 -0.2565  0.1764  0.1722
 1776TIP3    H129523   6.584   0.434   2.550  0.9670  0.8167  0.5229
 1776TIP3    H229524   6.604   0.284   2.550 -0.5134  0.6027  0.7938
 1777TIP3   OH229525   6.274   4.871   0.228 -0.3566 -0.5648  1.0953
 1777TIP3    H129526   6.233   4.889   0.144  3.4222 -2.4500 -1.4587
 1777TIP3    H229527   6.301   4.957   0.261  0.5613  0.0828 -1.1404
 1778TIP3   OH229528   4.325   2.574   7.405 -0.1520 -0.6869  0.4762
 1778TIP3    H129529   4.252   2.527   7.364  0.3945 -0.6376 -0.5899
 1778TIP3    H229530   4.394   2.508   7.415  0.1157 -0.4369  0.2901
 1779TIP3   OH229531   5.282   3.723   9.823 -0.1036 -0.5097 -0.1232
 1779TIP3    H129532   5.199   3.696   9.863  0.1310 -0.2716  0.5381
 1779TIP3    H229533   5.327   3.771   9.892  1.1761 -1.7919 -0.0189
 1780TIP3   OH229534   5.998   3.846   1.494 -0.0420  0.4350 -0.3985
 1780TIP3    H129535   5.942   3.908   1.445 -1.6493 -0.1717  0.5765
 1780TIP3    H229536   5.948   3.827   1.573  0.5425 -1.8880 -0.5300
 1781TIP3   OH229537   4.072   5.812   7.696  0.4759 -0.0017  0.0614
 1781TIP3    H129538   4.108   5.824   7.784 -1.0993 -1.3475  0.9446
 1781TIP3    H229539   4.018   5.890   7.681  1.4920  0.6891 -0.1462
 1782TIP3   OH229540   2.214   3.378   6.870  0.5950  0.2944 -0.2239
 1782TIP3    H129541   2.308   3.378   6.852  0.9645  0.9228  1.5413
 1782TIP3    H229542   2.198   3.296   6.917  0.4393  0.6014  0.2665
 1783TIP3   OH229543   0.871   1.316   9.145  0.2982  0.9020  0.2221
 1783TIP3    H129544   0.910   1.264   9.075 -0.1651  1.0046 -0.1138
 1783TIP3    H229545   0.906   1.404   9.132 -0.5867  1.1601 -0.5165
 1784TIP3   OH229546   4.263   4.338   7.592  0.4644 -0.6289 -0.0968
 1784TIP3    H129547   4.261   4.433   7.585  0.4053 -0.6691 -0.6775
 1784TIP3    H229548   4.186   4.309   7.544  0.8149 -1.0007 -0.4401
 1785TIP3   OH229549   4.696   0.439   3.017  0.4448  0.1692  0.1500
 1785TIP3    H129550   4.675   0.492   3.094 -0.0451  1.0346 -0.5723
 1785TIP3    H229551   4.664   0.489   2.943 -0.9129 -1.5544 -0.5106
 1786TIP3   OH229552   0.142   3.448   0.011 -0.8574 -0.6882  0.4257
 1786TIP3    H129553   0.193   3.423   0.088  1.0823  1.1019 -0.1704
 1786TIP3    H229554   0.051   3.450   0.042 -0.2009 -0.5481  2.5119
 1787TIP3   OH229555   4.005   2.668   1.066  0.0391  0.4240 -0.0426
 1787TIP3    H129556   3.954   2.658   1.147 -0.9734  0.7322 -0.6166
 1787TIP3    H229557   4.017   2.578   1.034 -1.7651  0.4221 -0.8435
 1788TIP3   OH229558   2.078   2.708   9.933  0.4055 -0.1833 -0.7754
 1788TIP3    H129559   2.143   2.637   9.927  1.5832  0.8511 -0.7595
 1788TIP3    H229560   1.994   2.664   9.928  1.1107 -1.5486 -1.2160
 1789TIP3   OH229561   1.730   4.084   6.707 -0.2666 -0.1481  0.7784
 1789TIP3    H129562   1.679   4.024   6.652  0.2828 -0.1400  0.2435
 1789TIP3    H229563   1.709   4.058   6.796 -2.3246  0.7945  0.6319
 1790TIP3   OH229564   0.160   3.936   8.891  0.2612  0.1658  0.3639
 1790TIP3    H129565   0.212   3.940   8.811  1.4435 -0.7553  1.0412
 1790TIP3    H229566   0.190   3.856   8.934 -1.6144 -0.2991  0.8846
 1791TIP3   OH229567   3.868   3.604   0.061 -0.1429  0.8775  0.0593
 1791TIP3    H129568   3.934   3.562   0.007  1.3365  0.2023  2.2740
 1791TIP3    H229569   3.796   3.624   0.000  1.5849  0.5910 -2.1949
 1792TIP3   OH229570   7.071   2.862   1.228 -0.1615  0.2067 -0.2908
 1792TIP3    H129571   6.976   2.867   1.240 -0.4846  1.9405 -2.6939
 1792TIP3    H229572   7.084   2.882   1.135  2.4599 -1.7557 -0.4571
 1793TIP3   OH229573   2.510   2.691   0.735 -0.7286  0.3632  0.0981
 1793TIP3    H129574   2.506   2.784   0.758 -1.9712  0.6671 -1.1785
 1793TIP3    H229575   2.435   2.652   0.781  0.1834 -0.1542  1.1713
 1794TIP3   OH229576   1.799   7.002   8.058 -0.1563 -0.0048  0.2124
 1794TIP3    H129577   1.798   7.048   7.974  0.6363 -0.6099 -0.1329
 1794TIP3    H229578   1.883   7.025   8.097 -0.6605  0.5509  1.0143
 1795TIP3   OH229579   6.309   2.970   9.776 -0.8459 -0.2406 -0.4021
 1795TIP3    H129580   6.348   2.993   9.861  0.5369  0.4644 -1.1858
 1795TIP3    H229581   6.375   2.914   9.735 -0.2268  1.5868 -2.0726
 1796TIP3   OH229582   5.299   0.446   7.301  0.2361 -0.5152  0.4811
 1796TIP3    H129583   5.322   0.373   7.244  0.8394 -0.9149  1.2183
 1796TIP3    H229584   5.337   0.423   7.386 -0.2953  0.2578  0.9392
 1797TIP3   OH229585   7.019   6.093   9.232  0.1502 -0.2255 -1.0207
 1797TIP3    H129586   6.954   6.029   9.203 -0.4605 -0.8342  1.5006
 1797TIP3    H229587   7.060   6.053   9.309  1.5605  1.3625 -0.8852
 1798TIP3   OH229588   5.060   3.461   8.647 -0.4591  0.1654  0.5004
 1798TIP3    H129589   5.113   3.416   8.712 -2.1280 -2.4443  0.2214
 1798TIP3    H229590   5.122   3.490   8.580  0.9865  0.6802  2.0047
 1799TIP3   OH229591   7.195   3.961   8.899  0.1417  0.7102  0.4563
 1799TIP3    H129592   7.132   4.033   8.905 -2.1944 -0.9715 -1.8147
 1799TIP3    H229593   7.149   3.886   8.938  1.7773 -0.0400  1.0479
 1800TIP3   OH229594   0.953   5.534   0.241  0.0045  0.9318  0.1242
 1800TIP3    H129595   1.029   5.540   0.183 -0.2053 -1.6985 -0.5549
 1800TIP3    H229596   0.976   5.465   0.303 -1.5453  0.5878  0.3538
 1801TIP3   OH229597   6.839   2.461   1.559 -0.0951 -0.3919 -0.0381
 1801TIP3    H129598   6.779   2.423   1.623 -0.9807 -1.1283 -1.2739
 1801TIP3    H229599   6.796   2.541   1.530  0.0791 -0.3095 -0.0730
 1802TIP3   OH229600   5.215   5.281   8.405  0.3897  0.2817  0.3465
 1802TIP3    H129601   5.256   5.259   8.321  2.9440  1.6138  1.1046
 1802TIP3    H229602   5.224   5.202   8.458  0.5103  0.0408 -0.0280
 1803TIP3   OH229603   1.247   4.433   2.509 -0.2223 -0.3987  0.3234
 1803TIP3    H129604   1.249   4.482   2.591 -0.6489 -0.3447  0.3010
 1803TIP3    H229605   1.154   4.427   2.487 -0.1116 -0.4639 -0.1244
 1804TIP3   OH229606   5.153   0.408   6.971  0.4130 -0.5077 -0.2055
 1804TIP3    H129607   5.241   0.413   6.933  0.7913 -0.8189  0.5892
 1804TIP3    H229608   5.165   0.355   7.051 -0.3800 -0.0448  0.2327
 1805TIP3   OH229609   3.040   0.698   1.147  0.4360  0.3169 -0.0508
 1805TIP3    H129610   2.948   0.714   1.130  0.1524 -1.4987 -0.4164
 1805TIP3    H229611   3.086   0.764   1.094 -0.6194  2.3148  1.3979
 1806TIP3   OH229612   4.696   2.750   0.023 -0.2123  0.2173 -0.7358
 1806TIP3    H129613   4.761   2.684   0.048 -1.8490 -0.7631  1.2756
 1806TIP3    H229614   4.666   2.787   0.106 -1.5165  1.3178 -1.6489
 1807TIP3   OH229615   4.369   4.044   1.585  0.2757 -0.0770 -0.2065
 1807TIP3    H129616   4.459   4.015   1.600 -0.4670 -1.0590  3.1401
 1807TIP3    H229617   4.368   4.135   1.616  0.6324  0.8850 -2.7640
 1808TIP3   OH229618   0.832   6.412   1.762  0.1122 -0.0148  0.3372
 1808TIP3    H129619   0.773   6.336   1.763  0.7722 -0.7383 -2.9806
 1808TIP3    H229620   0.905   6.384   1.707  1.1886  2.4796  0.3954
 1809TIP3   OH229621   3.352   0.604   7.585  0.1522 -0.7704  0.4105
 1809TIP3    H129622   3.302   0.545   7.641  1.8871 -2.1068  0.6146
 1809TIP3    H229623   3.364   0.683   7.638 -1.1080 -0.6977  0.6130
 1810TIP3   OH229624   6.973   4.813   7.743  0.2767  0.0829  0.1948
 1810TIP3    H129625   7.039   4.878   7.767 -0.4419  0.7154  0.4577
 1810TIP3    H229626   6.990   4.796   7.650  1.1967 -0.2298  0.3975
 1811TIP3   OH229627   1.744   5.075   0.082 -0.0420  0.2953 -0.0168
 1811TIP3    H129628   1.751   5.091   0.176 -1.4243  1.1345 -0.0298
 1811TIP3    H229629   1.778   4.986   0.070 -1.1985 -0.3987  1.5013
 1812TIP3   OH229630   1.584   6.743   0.384 -0.1185  0.0460  0.0587
 1812TIP3    H129631   1.568   6.780   0.471  2.3754 -0.9501  1.0366
 1812TIP3    H229632   1.548   6.655   0.389 -1.6101  0.5744 -0.6044
 1813TIP3   OH229633   4.825   7.115   0.256  0.4260 -0.3954 -0.1316
 1813TIP3    H129634   4.880   7.105   0.334 -1.3442  0.2576  1.2606
 1813TIP3    H229635   4.736   7.103   0.288 -0.3313 -0.5718 -2.1634
 1814TIP3   OH229636   3.133   3.391   3.082 -0.3350 -0.2793 -0.3847
 1814TIP3    H129637   3.187   3.312   3.076  1.5929  0.7675  1.8560
 1814TIP3    H229638   3.074   3.375   3.156  0.2473  0.4513  0.2531
 1815TIP3   OH229639   2.935   0.290   6.479 -0.5512 -0.1000 -0.1137
 1815TIP3    H129640   2.991   0.291   6.557  1.7703 -1.3920 -1.6453
 1815TIP3    H229641   2.901   0.379   6.474  1.2915  0.7485  1.0202
 1816TIP3   OH229642   4.044   3.144   8.442  0.0804 -0.2059  0.0552
 1816TIP3    H129643   4.056   3.191   8.525 -0.9130  0.3788 -0.1229
 1816TIP3    H229644   4.082   3.202   8.376  0.1829 -0.3259  0.0083
 1817TIP3   OH229645   6.016   6.895   2.042 -0.6066 -0.0569 -0.2597
 1817TIP3    H129646   6.012   6.865   2.133 -1.9909  2.1064  0.4843
 1817TIP3    H229647   6.086   6.959   2.041 -0.5847 -0.0888 -0.7308
 1818TIP3   OH229648   1.868   1.830   0.575 -0.1812  0.1878  0.3749
 1818TIP3    H129649   1.862   1.760   0.640  0.4277  0.4897  0.7746
 1818TIP3    H229650   1.961   1.831   0.550 -0.4999 -0.2455 -0.8644
 1819TIP3   OH229651   3.501   0.594   8.902  0.1978  0.2593 -0.4165
 1819TIP3    H129652   3.451   0.540   8.840 -2.5366 -1.4893  2.9510
 1819TIP3    H229653   3.570   0.536   8.933  0.4259  0.5045 -0.4619
 1820TIP3   OH229654   4.682   5.462   8.581 -0.4532 -0.3500 -0.3991
 1820TIP3    H129655   4.768   5.420   8.571  0.1962  0.5030  1.2664
 1820TIP3    H229656   4.675   5.522   8.507  1.4591  1.2894  0.6585
 1821TIP3   OH229657   5.946   4.795   1.049 -0.1478  0.3853 -0.0238
 1821TIP3    H129658   5.903   4.799   0.963  0.0725 -0.6186 -0.1998
 1821TIP3    H229659   5.884   4.747   1.104  0.2948 -0.1787 -0.0052
 1822TIP3   OH229660   1.320   3.989   1.091  0.3418  0.2197 -0.3743
 1822TIP3    H129661   1.236   4.034   1.100 -0.6974 -1.8697  1.3320
 1822TIP3    H229662   1.308   3.933   1.014  0.7261  0.9453 -0.9799
 1823TIP3   OH229663   5.825   5.472   7.488 -0.2847  0.1768 -0.8531
 1823TIP3    H129664   5.742   5.520   7.488 -0.0019  0.6660 -0.6188
 1823TIP3    H229665   5.876   5.513   7.418  0.1335  0.5176 -0.3466
 1824TIP3   OH229666   5.328   4.439   0.697 -0.1559  1.1006 -0.6211
 1824TIP3    H129667   5.402   4.443   0.637  0.7303  2.8702  0.4899
 1824TIP3    H229668   5.299   4.348   0.694  0.8831  0.7871 -2.4678
 1825TIP3   OH229669   4.332   1.704   8.541  0.0246 -0.1076 -0.1386
 1825TIP3    H129670   4.260   1.767   8.535  0.9815  1.1924  1.4184
 1825TIP3    H229671   4.411   1.757   8.535  0.8738 -0.9454  2.2774
 1826TIP3   OH229672   6.042   2.134   9.376 -0.1579 -0.2861 -0.0428
 1826TIP3    H129673   6.003   2.219   9.395 -0.0769 -0.4005  0.6857
 1826TIP3    H229674   6.061   2.136   9.283 -0.2546  0.4547 -0.0513
 1827TIP3   OH229675   6.983   2.507   8.025 -0.2219  0.2327 -0.0038
 1827TIP3    H129676   6.899   2.533   8.061 -0.4246  1.4537 -1.2761
 1827TIP3    H229677   6.975   2.521   7.931  1.1983 -0.2124 -0.2263
 1828TIP3   OH229678   7.468   6.945   0.801 -0.1979  0.3953 -0.3230
 1828TIP3    H129679   7.482   6.865   0.751  1.8728  1.3544 -1.4140
 1828TIP3    H229680   7.475   6.918   0.893  0.1904 -0.7082 -0.6593
 1829TIP3   OH229681   2.861   6.643   9.959  0.2899  0.0547 -0.1076
 1829TIP3    H129682   2.825   6.708   9.899  0.9100 -0.0230 -0.5739
 1829TIP3    H229683   2.829   6.559   9.926 -2.1853  0.1985  1.6467
 1830TIP3   OH229684   7.013   0.815   0.317  1.2733  1.0304  0.7569
 1830TIP3    H129685   6.980   0.725   0.326 -2.1199  2.0926  0.5953
 1830TIP3    H229686   6.989   0.857   0.400 -0.2204  2.5625 -0.3957
 1831TIP3   OH229687   4.889   1.306   2.126  0.3629 -0.2428  0.0962
 1831TIP3    H129688   4.919   1.298   2.216  1.7383 -1.6398 -0.4527
 1831TIP3    H229689   4.954   1.260   2.074 -1.3446 -1.0447 -1.4511
 1832TIP3   OH229690   3.779   5.933   7.907 -0.4870 -0.3526  0.6312
 1832TIP3    H129691   3.728   5.937   7.988  1.1608 -1.3074  1.7977
 1832TIP3    H229692   3.750   5.852   7.865 -1.1364 -0.0104  0.4131
 1833TIP3   OH229693   3.481   7.326   8.785 -0.1034 -0.0567  0.4801
 1833TIP3    H129694   3.432   7.388   8.731 -0.1872 -0.7818 -0.2903
 1833TIP3    H229695   3.556   7.301   8.732  0.6328  0.3499  1.3012
 1834TIP3   OH229696   2.237   7.103   7.272 -0.1540 -0.7024  0.2211
 1834TIP3    H129697   2.312   7.162   7.284  0.6307 -1.6207 -0.0206
 1834TIP3    H229698   2.230   7.056   7.355 -0.8830 -0.1649  0.4725
 1835TIP3   OH229699   6.060   0.585   8.669 -1.2096  0.3864  0.0423
 1835TIP3    H129700   6.094   0.660   8.719 -2.4172  0.7563  0.3465
 1835TIP3    H229701   6.099   0.509   8.710  0.5387  0.8569 -0.6588
 1836TIP3   OH229702   7.366   5.375   1.540 -0.3198  0.0426 -0.2823
 1836TIP3    H129703   7.451   5.336   1.556 -1.7144 -1.9180  3.8046
 1836TIP3    H229704   7.340   5.342   1.454  1.6865 -2.0891 -0.1635
 1837TIP3   OH229705   0.009   1.364   8.036  0.1265 -0.2456 -0.0143
 1837TIP3    H129706  -0.020   1.305   7.966 -0.6875  0.0496  0.0626
 1837TIP3    H229707   0.018   1.449   7.994 -0.1056 -0.1246  0.1762
 1838TIP3   OH229708   1.702   3.118   0.671  0.3095  0.3079  0.3726
 1838TIP3    H129709   1.743   3.047   0.721  0.1798  0.2758  0.4322
 1838TIP3    H229710   1.611   3.092   0.662  0.0319  0.9404  1.2503
 1839TIP3   OH229711   0.828   4.840   9.747 -0.9148 -0.2522 -0.2059
 1839TIP3    H129712   0.779   4.771   9.703 -0.8750 -0.1603 -0.3979
 1839TIP3    H229713   0.788   4.921   9.716 -0.4823 -0.1687 -0.5564
 1840TIP3   OH229714   3.877   7.086   7.070 -0.6919  0.2295  0.4019
 1840TIP3    H129715   3.958   7.137   7.063 -0.5406 -0.0864 -0.3580
 1840TIP3    H229716   3.808   7.151   7.080 -0.3617  0.5131  0.8830
 1841TIP3   OH229717   6.313   5.138   0.302 -0.1660 -0.0434 -0.6863
 1841TIP3    H129718   6.354   5.125   0.387 -0.5795  0.6834 -0.3768
 1841TIP3    H229719   6.377   5.188   0.252 -1.1291  2.2411  0.2198
 1842TIP3   OH229720   3.271   0.161   9.534 -0.3397  0.0318  0.3457
 1842TIP3    H129721   3.185   0.125   9.511  0.4626  0.0852 -3.4384
 1842TIP3    H229722   3.253   0.231   9.596 -3.0039 -0.0706 -0.2182
 1843TIP3   OH229723   7.312   6.818   0.406  0.0235 -0.0637  0.3707
 1843TIP3    H129724   7.231   6.860   0.435 -1.5405 -0.9351 -2.3812
 1843TIP3    H229725   7.378   6.887   0.410 -0.9404  0.8367  2.0975
 1844TIP3   OH229726   7.377   5.548   0.764 -0.1584  0.6499 -0.5547
 1844TIP3    H129727   7.417   5.521   0.846 -0.7243  1.2091 -0.0867
 1844TIP3    H229728   7.303   5.489   0.752 -1.4994  2.0272  0.5557
 1845TIP3   OH229729   2.897   4.003   8.130  0.0355 -0.1133  0.3565
 1845TIP3    H129730   2.979   3.962   8.157  0.8635  0.3734 -1.2628
 1845TIP3    H229731   2.840   3.995   8.206  0.4482 -3.3608  0.4684
 1846TIP3   OH229732   0.854   4.302   9.478 -0.8017 -0.5347  0.4628
 1846TIP3    H129733   0.788   4.349   9.428  2.3427  1.7035 -2.0464
 1846TIP3    H229734   0.833   4.209   9.464 -3.0424  0.0706 -0.6627
 1847TIP3   OH229735   1.218   4.425   9.117 -0.0966  0.1508  0.5362
 1847TIP3    H129736   1.261   4.510   9.117  2.5560 -1.0691 -1.4492
 1847TIP3    H229737   1.248   4.382   9.198  2.5566 -0.6566 -0.7907
 1848TIP3   OH229738   3.858   1.050   0.842  0.1782  0.1399 -0.4628
 1848TIP3    H129739   3.878   0.959   0.864  2.0450  0.8261  0.9183
 1848TIP3    H229740   3.762   1.052   0.834  0.1033 -1.9331 -0.6180
 1849TIP3   OH229741   2.212   4.290   6.969  0.0823 -0.2430  0.5118
 1849TIP3    H129742   2.293   4.338   6.956 -0.6225  0.7387 -0.4426
 1849TIP3    H229743   2.189   4.258   6.882 -0.2705 -0.9810  0.8693
 1850TIP3   OH229744   2.453   6.285   2.068  0.1652  0.7585  0.1336
 1850TIP3    H129745   2.537   6.241   2.052 -0.2661  0.5093 -1.6672
 1850TIP3    H229746   2.390   6.214   2.079 -0.0003  0.9363  0.3289
 1851TIP3   OH229747   4.387   5.056   2.103 -0.7819 -0.5682  0.0047
 1851TIP3    H129748   4.427   4.996   2.039 -2.7966  0.2521 -2.1880
 1851TIP3    H229749   4.432   5.038   2.185  0.6845 -3.0129 -1.2338
 1852TIP3   OH229750   6.709   4.688   8.543 -0.2271 -0.2071  0.4037
 1852TIP3    H129751   6.798   4.653   8.544 -0.3513 -0.5555  2.2464
 1852TIP3    H229752   6.713   4.766   8.598 -0.3790  1.7447 -2.1307
 1853TIP3   OH229753   4.269   5.911   7.516  0.3579  0.5094 -0.3732
 1853TIP3    H129754   4.322   5.990   7.521  1.4572 -0.2086 -0.5151
 1853TIP3    H229755   4.244   5.893   7.607 -2.1821  2.4754 -0.5367
 1854TIP3   OH229756   5.359   0.943   7.791  0.1549 -0.8005  0.5421
 1854TIP3    H129757   5.309   1.021   7.767 -0.9294 -1.6319 -0.0058
 1854TIP3    H229758   5.415   0.926   7.715  1.0429 -0.0866  1.0072
 1855TIP3   OH229759   2.643   1.698   8.656 -0.2755  0.5082  0.2217
 1855TIP3    H129760   2.612   1.687   8.745  0.8850  1.7000  0.8188
 1855TIP3    H229761   2.692   1.618   8.637 -0.7513  0.1357  0.5469
 1856TIP3   OH229762   4.770   6.625   7.155 -0.2617  0.3183  0.2696
 1856TIP3    H129763   4.859   6.607   7.125 -1.0185  0.8246 -2.5744
 1856TIP3    H229764   4.763   6.720   7.155 -1.3095  0.2859 -1.4074
 1857TIP3   OH229765   2.344   2.301   8.591  0.1293 -0.0311  0.3545
 1857TIP3    H129766   2.325   2.321   8.499  0.9302  0.3892  0.2739
 1857TIP3    H229767   2.439   2.289   8.594  0.0222 -0.8649  0.9768
 1858TIP3   OH229768   6.546   2.581   0.787  0.1025 -0.1297  0.0464
 1858TIP3    H129769   6.602   2.590   0.710  2.5151 -0.2244  1.6799
 1858TIP3    H229770   6.596   2.526   0.847 -2.7367 -2.1885  0.7931
 1859TIP3   OH229771   4.716   4.493   7.952 -0.2991 -0.4960  0.2658
 1859TIP3    H129772   4.769   4.471   8.029 -0.7793 -0.2253  0.6760
 1859TIP3    H229773   4.674   4.410   7.927  1.0208 -0.9284 -0.6230
 1860TIP3   OH229774   1.140   5.672   8.977  0.7937 -0.5797  0.1523
 1860TIP3    H129775   1.185   5.589   8.993  1.3477  0.0145  1.9561
 1860TIP3    H229776   1.068   5.673   9.040  0.2227 -0.0754 -0.4838
 1861TIP3   OH229777   5.885   0.014   1.018  0.1081  0.3071  0.1374
 1861TIP3    H129778   5.935   0.068   0.958  0.9744  0.8351  1.2949
 1861TIP3    H229779   5.868  -0.067   0.970  1.0804  0.5762 -0.6793
 1862TIP3   OH229780   2.384   0.248   8.233 -0.0691  0.0416  0.3776
 1862TIP3    H129781   2.354   0.172   8.282  0.7083 -0.1679  0.5290
 1862TIP3    H229782   2.380   0.320   8.296 -1.7898  0.3534 -0.0425
 1863TIP3   OH229783   7.156   1.648   9.806 -0.0917  0.5184  0.0605
 1863TIP3    H129784   7.226   1.583   9.808 -0.1291  0.4833  0.2017
 1863TIP3    H229785   7.082   1.605   9.850 -0.3637  0.3625 -0.5376
 1864TIP3   OH229786   5.731   1.504   1.186 -0.2732  0.3488  0.5707
 1864TIP3    H129787   5.703   1.435   1.246 -0.3896  0.7359  0.9646
 1864TIP3    H229788   5.727   1.463   1.100  0.6707 -0.4597  0.8989
 1865TIP3   OH229789   0.592   0.693   8.789  0.1974  0.3838 -0.5706
 1865TIP3    H129790   0.675   0.655   8.816  0.3541  0.4873 -0.9124
 1865TIP3    H229791   0.615   0.779   8.754  0.2153 -0.4791 -2.7884
 1866TIP3   OH229792   4.004   2.435   8.854  0.2222 -0.0574  0.1055
 1866TIP3    H129793   3.966   2.489   8.785 -0.2718 -1.4785 -0.7751
 1866TIP3    H229794   3.936   2.430   8.921  0.2382  0.3419  0.1527
 1867TIP3   OH229795   5.995   3.887   0.801 -0.1551  0.3871  0.3336
 1867TIP3    H129796   5.965   3.930   0.721 -0.3482  0.2325  0.3240
 1867TIP3    H229797   6.061   3.824   0.770  0.5631  1.0822  0.4045
 1868TIP3   OH229798   5.991   3.132   8.181 -0.0787  0.1521  0.0290
 1868TIP3    H129799   5.966   3.141   8.273 -1.9176  1.3665 -0.5324
 1868TIP3    H229800   6.086   3.145   8.181 -0.0596  0.2485  1.7342
 1869TIP3   OH229801   0.712   1.415   1.110  0.2257  0.2104  0.1523
 1869TIP3    H129802   0.792   1.441   1.064  0.5355  0.8443  1.0050
 1869TIP3    H229803   0.720   1.321   1.121  1.8819  0.4781  1.9917
 1870TIP3   OH229804   6.641   5.230   9.762  0.8677 -0.0718  0.3914
 1870TIP3    H129805   6.704   5.294   9.797 -1.1249  1.2022  1.8986
 1870TIP3    H229806   6.656   5.152   9.815  0.0739  0.7945  1.9815
 1871TIP3   OH229807   1.337   2.994   0.133 -0.0736 -0.1411 -0.5492
 1871TIP3    H129808   1.323   3.086   0.112  1.8383  0.0823 -0.9634
 1871TIP3    H229809   1.414   2.992   0.188 -1.3641 -1.3359  1.3332
 1872TIP3   OH229810   2.965   0.078   7.154  0.0228 -0.0900 -0.0718
 1872TIP3    H129811   3.010   0.029   7.223 -0.0995 -1.3577 -0.8541
 1872TIP3    H229812   2.877   0.040   7.151 -0.6218  1.2997  0.3858
 1873TIP3   OH229813   4.932   6.371   7.671  0.3399 -0.0667 -0.2188
 1873TIP3    H129814   4.953   6.452   7.718  2.8144  0.2065 -1.6232
 1873TIP3    H229815   4.883   6.400   7.594  1.9232  0.2676 -1.1521
 1874TIP3   OH229816   3.686   6.066   8.737  0.1733  0.5089  0.2536
 1874TIP3    H129817   3.748   6.114   8.682 -1.7898  0.9639 -1.7207
 1874TIP3    H229818   3.656   5.994   8.681 -1.8694  0.9533  0.7191
 1875TIP3   OH229819   5.275   7.203   8.554 -0.0928  0.0017  0.0680
 1875TIP3    H129820   5.246   7.129   8.609 -0.7550  1.2806  1.5104
 1875TIP3    H229821   5.195   7.237   8.515  0.0944  0.4988  0.1144
 1876TIP3   OH229822   3.472   6.680   9.042 -0.0559  0.1233 -0.1820
 1876TIP3    H129823   3.543   6.626   9.008 -0.5168 -0.3746 -0.3601
 1876TIP3    H229824   3.489   6.768   9.007  1.3843  0.3906  1.1150
 1877TIP3   OH229825   1.459   5.898   6.640 -0.4109  0.0756 -0.1065
 1877TIP3    H129826   1.389   5.964   6.635  1.2510  1.8451 -2.3137
 1877TIP3    H229827   1.536   5.947   6.668 -0.0206 -1.9259  2.7496
 1878TIP3   OH229828   6.560   3.041   8.521  0.5365  0.3295  0.3583
 1878TIP3    H129829   6.655   3.037   8.505  0.1615 -1.9665 -1.9912
 1878TIP3    H229830   6.548   2.994   8.604  1.3386 -1.4125 -0.4472
 1879TIP3   OH229831   4.335   3.590   7.702  0.1823 -0.1317 -0.4259
 1879TIP3    H129832   4.270   3.520   7.713 -1.2447  1.0025 -1.3402
 1879TIP3    H229833   4.283   3.668   7.681  1.8161  0.9497 -0.6126
 1880TIP3   OH229834   5.743   4.963   1.181 -0.6937  0.0998 -0.1595
 1880TIP3    H129835   5.835   4.943   1.201 -1.3423 -1.1656  1.9005
 1880TIP3    H229836   5.747   5.014   1.100  1.8749  0.8290  0.3129
 1881TIP3   OH229837   1.848   1.974   7.621  0.1591  0.2423 -0.0416
 1881TIP3    H129838   1.836   2.015   7.535 -0.0902  0.3226  0.0284
 1881TIP3    H229839   1.759   1.954   7.650  0.1391  1.3173  0.7213
 1882TIP3   OH229840   0.084   4.958   8.577 -0.2703 -0.7046  0.1277
 1882TIP3    H129841   0.111   5.021   8.510  1.0390  0.2536  1.5026
 1882TIP3    H229842   0.025   5.008   8.634  0.2757 -0.8967  0.8659
 1883TIP3   OH229843   2.473   6.271   9.597 -0.2673  0.9672 -0.4472
 1883TIP3    H129844   2.443   6.352   9.555 -1.5637  0.3772 -0.7196
 1883TIP3    H229845   2.456   6.203   9.532 -1.8083  0.0997  0.7955
 1884TIP3   OH229846   6.162   3.779   8.551 -0.7951  0.1013  0.4234
 1884TIP3    H129847   6.084   3.815   8.509 -0.2380  1.1551  0.2667
 1884TIP3    H229848   6.226   3.850   8.550  0.2669 -0.8114  0.3286
 1885TIP3   OH229849   1.820   6.410   9.828 -0.3174 -0.2896  0.2893
 1885TIP3    H129850   1.785   6.469   9.762  0.7273  0.0304  0.0176
 1885TIP3    H229851   1.915   6.420   9.823 -0.1369 -1.5669  0.6224
 1886TIP3   OH229852   0.147   3.382   0.768  0.3087 -0.1686 -0.9612
 1886TIP3    H129853   0.053   3.388   0.784  0.8012  0.4401  2.3217
 1886TIP3    H229854   0.185   3.357   0.852  3.1929  0.6857 -1.8892
 1887TIP3   OH229855   4.193   3.121   9.156 -0.3116  0.1668 -0.2018
 1887TIP3    H129856   4.142   3.142   9.234  0.6098 -0.8168  0.7110
 1887TIP3    H229857   4.275   3.085   9.191  0.2105 -0.0781 -1.6323
 1888TIP3   OH229858   4.375   2.138   1.166 -0.4527  0.2386 -0.6014
 1888TIP3    H129859   4.360   2.044   1.155  0.9659 -0.1623  0.5416
 1888TIP3    H229860   4.464   2.152   1.133 -1.4495  1.6594 -2.9481
 1889TIP3   OH229861   2.121   3.937   9.052  0.1993  0.4092 -0.7639
 1889TIP3    H129862   2.142   3.962   8.962 -0.0133  0.1705 -0.8822
 1889TIP3    H229863   2.131   4.018   9.102 -1.6095  1.0329 -1.3374
 1890TIP3   OH229864   3.316   2.462   2.741  0.5647  0.2361 -0.3864
 1890TIP3    H129865   3.321   2.538   2.798  2.8753  0.9926 -1.4712
 1890TIP3    H229866   3.398   2.416   2.755 -0.2581 -1.3963 -0.6881
 1891TIP3   OH229867   2.521   7.286   9.403  0.8675 -0.3845 -0.0501
 1891TIP3    H129868   2.528   7.380   9.383 -0.3954 -0.3143 -0.2118
 1891TIP3    H229869   2.601   7.248   9.367  1.4021  0.6342  0.0294
 1892TIP3   OH229870   2.296   5.218   1.232 -0.1549 -0.2627  0.0333
 1892TIP3    H129871   2.373   5.275   1.226 -0.2711 -0.0061  0.8609
 1892TIP3    H229872   2.233   5.255   1.169 -0.0339  0.2079  0.1886
 1893TIP3   OH229873   3.713   6.622   0.296  0.1664 -0.1603  0.3480
 1893TIP3    H129874   3.660   6.580   0.229 -1.6796 -0.9574  2.2162
 1893TIP3    H229875   3.717   6.714   0.269 -1.4896 -0.2434 -0.2609
 1894TIP3   OH229876   6.510   6.843   8.584  0.0507 -0.0491 -0.3233
 1894TIP3    H129877   6.513   6.924   8.533 -0.3706 -0.5086 -1.0911
 1894TIP3    H229878   6.421   6.809   8.570  0.6101 -1.2852 -1.0287
 1895TIP3   OH229879   4.868   5.984   9.424 -1.2587 -0.5362  0.4731
 1895TIP3    H129880   4.852   5.999   9.331  1.8939  1.9112  0.1162
 1895TIP3    H229881   4.956   5.947   9.427 -1.4662 -0.9762  2.4789
 1896TIP3   OH229882   3.013   2.547   1.461 -0.7578  0.5447 -0.0963
 1896TIP3    H129883   3.095   2.589   1.434  0.3922 -1.5515 -0.0617
 1896TIP3    H229884   2.987   2.494   1.386 -2.1814  1.2703 -0.1479
 1897TIP3   OH229885   2.283   5.174   9.595 -0.3516 -0.1438  0.4663
 1897TIP3    H129886   2.280   5.270   9.600 -3.6403 -0.1512  0.4366
 1897TIP3    H229887   2.248   5.144   9.679 -0.0678 -1.3349  0.1771
 1898TIP3   OH229888   3.341   7.312   1.842 -0.1217 -0.0884 -0.5741
 1898TIP3    H129889   3.407   7.243   1.837 -0.4804 -0.3883 -1.5617
 1898TIP3    H229890   3.370   7.378   1.779 -0.2835  0.2056 -0.3413
 1899TIP3   OH229891   5.601   4.830   8.961 -0.3961  0.6341  0.2502
 1899TIP3    H129892   5.560   4.912   8.987  2.5199  2.4521 -0.4301
 1899TIP3    H229893   5.588   4.772   9.036 -1.9960  1.8749  0.9986
 1900TIP3   OH229894   0.226   3.074   8.732 -0.1546 -0.7432 -0.0301
 1900TIP3    H129895   0.298   3.017   8.760 -0.2315 -0.5848  0.5107
 1900TIP3    H229896   0.151   3.047   8.786  0.0262  0.4267  0.8608
 1901TIP3   OH229897   6.145   6.938   1.264  0.4245  0.5606 -0.1164
 1901TIP3    H129898   6.103   6.862   1.303  1.3500 -0.5408 -1.1999
 1901TIP3    H229899   6.072   6.994   1.236 -0.2792 -0.3334 -0.1017
 1902TIP3   OH229900   2.405   2.444   2.470 -0.2192 -0.1992 -0.1999
 1902TIP3    H129901   2.438   2.474   2.555  0.0349 -0.4277 -0.2150
 1902TIP3    H229902   2.479   2.458   2.410  0.0611 -1.2505 -0.1202
 1903TIP3   OH229903   4.428   2.695   9.499 -0.0941 -0.4804  0.5887
 1903TIP3    H129904   4.477   2.744   9.566  1.4212 -1.4335  0.2276
 1903TIP3    H229905   4.413   2.758   9.429  1.7110 -0.4264  0.1912
 1904TIP3   OH229906   6.767   5.896   2.448 -0.2041  0.4898 -0.1428
 1904TIP3    H129907   6.851   5.869   2.484 -0.6911  0.1972  0.7981
 1904TIP3    H229908   6.727   5.815   2.418 -0.0054  0.6738 -0.9562
 1905TIP3   OH229909   6.568   7.132   1.021  0.1719  0.0876 -0.0294
 1905TIP3    H129910   6.526   7.175   0.946  0.5191 -0.4953 -0.5686
 1905TIP3    H229911   6.646   7.184   1.038  0.6471 -0.3706 -0.7478
 1906TIP3   OH229912   4.278   2.726   9.211  0.2327 -0.0918 -0.0320
 1906TIP3    H129913   4.340   2.784   9.167  0.9384 -0.8079 -0.0174
 1906TIP3    H229914   4.299   2.639   9.177  0.4535 -0.5960  1.3215
 1907TIP3   OH229915   3.690   6.515   0.791 -0.4912 -0.1161 -0.1477
 1907TIP3    H129916   3.647   6.576   0.732 -0.8224  0.0883  0.3034
 1907TIP3    H229917   3.727   6.448   0.734 -0.3482  0.3650 -0.6258
 1908TIP3   OH229918   0.453   6.167   7.572 -0.4116  0.1130 -0.0846
 1908TIP3    H129919   0.545   6.182   7.550 -0.9938  1.0853 -2.2006
 1908TIP3    H229920   0.408   6.171   7.487 -2.3680 -0.6606  0.8606
 1909TIP3   OH229921   0.170   6.028   0.706  0.3617  0.3827 -0.2194
 1909TIP3    H129922   0.209   5.981   0.780  0.0805 -0.1532 -0.4040
 1909TIP3    H229923   0.096   6.075   0.743 -0.7088 -1.0928 -0.4085
 1910TIP3   OH229924   1.354   1.916   1.021  0.0889  0.1847  0.4978
 1910TIP3    H129925   1.272   1.905   0.972  0.5166 -1.1743  0.0338
 1910TIP3    H229926   1.395   1.993   0.982 -1.2082  1.2328  1.1185
 1911TIP3   OH229927   5.101   1.518   8.531  0.6298 -0.4121 -0.3121
 1911TIP3    H129928   5.162   1.451   8.561 -0.4876 -1.0082  0.7100
 1911TIP3    H229929   5.028   1.514   8.593 -1.7837 -1.6078 -3.0077
 1912TIP3   OH229930   5.873   6.628   7.996 -0.3824 -0.5555  0.1343
 1912TIP3    H129931   5.885   6.615   7.902 -0.6862 -0.6491  0.1049
 1912TIP3    H229932   5.960   6.619   8.033  0.2159  2.0954 -0.4233
 1913TIP3   OH229933   2.082   2.548   1.702  0.0974  0.3783  0.6388
 1913TIP3    H129934   2.108   2.637   1.676  1.2363 -0.6414 -2.1360
 1913TIP3    H229935   2.152   2.492   1.669 -0.5627 -1.5956  2.3516
 1914TIP3   OH229936   6.134   5.622   9.364 -0.2001 -0.0946 -0.8242
 1914TIP3    H129937   6.059   5.661   9.407  1.1420  0.8085  0.8334
 1914TIP3    H229938   6.185   5.583   9.436  1.0146 -0.4808 -1.8535
 1915TIP3   OH229939   6.857   5.942   9.065  0.2867 -0.4995  0.3111
 1915TIP3    H129940   6.884   6.022   9.020  0.4769 -0.9706 -0.4387
 1915TIP3    H229941   6.780   5.912   9.018  0.9798 -1.4550 -0.2743
 1916TIP3   OH229942   0.189   3.453   9.388 -0.0132  0.3379  0.0600
 1916TIP3    H129943   0.154   3.401   9.316  0.4193 -1.8214  1.3334
 1916TIP3    H229944   0.202   3.391   9.459  0.7043  2.1766  1.6326
 1917TIP3   OH229945   7.301   0.593   9.265 -0.2917  0.2362 -0.2721
 1917TIP3    H129946   7.334   0.585   9.355  0.5711 -2.0988 -0.7264
 1917TIP3    H229947   7.301   0.503   9.232 -0.4894  1.0584 -2.6567
 1918TIP3   OH229948   3.257   2.702   1.360  0.0053 -0.1643  0.0318
 1918TIP3    H129949   3.279   2.783   1.406 -0.9594 -0.2237  0.6162
 1918TIP3    H229950   3.325   2.694   1.293  0.9577  0.3499  0.9172
 1919TIP3   OH229951   1.466   3.839   0.457  0.0007 -0.7368  0.0069
 1919TIP3    H129952   1.380   3.807   0.484 -0.3349  0.3071  0.2413
 1919TIP3    H229953   1.520   3.832   0.536 -0.1083 -0.6115  0.0940
 1920TIP3   OH229954   6.046   7.268   9.479 -0.2508 -0.4092  0.1901
 1920TIP3    H129955   5.978   7.335   9.489  0.7816  0.7870 -0.6316
 1920TIP3    H229956   5.997   7.188   9.457 -1.4425  0.2494  0.3611
 1921TIP3   OH229957   4.079   4.047   8.960 -0.1542 -0.3710  0.0889
 1921TIP3    H129958   4.116   3.961   8.945 -2.1969 -1.1929 -0.6243
 1921TIP3    H229959   4.142   4.091   9.018  1.9050 -1.5759 -1.1146
 1922TIP3   OH229960   5.622   6.665   9.017  0.2601  0.1440  0.2193
 1922TIP3    H129961   5.688   6.602   9.047 -0.2928 -0.1746  0.7655
 1922TIP3    H229962   5.664   6.709   8.943  0.3272 -1.4639 -0.7425
 1923TIP3   OH229963   1.181   3.459   6.982 -0.7083  0.1494 -0.0652
 1923TIP3    H129964   1.215   3.532   7.033  0.8792 -1.1090  0.7830
 1923TIP3    H229965   1.199   3.481   6.891 -0.5143  0.9307  0.1597
 1924TIP3   OH229966   6.065   5.695   1.919  1.1472 -0.3050  0.0475
 1924TIP3    H129967   6.052   5.790   1.912  0.4556 -0.4492 -0.7716
 1924TIP3    H229968   5.976   5.660   1.927  1.4715 -0.7419  2.6466
 1925TIP3   OH229969   6.454   2.403   9.728  0.4144  0.3622 -0.3762
 1925TIP3    H129970   6.503   2.328   9.761  1.3490  0.3571 -1.6909
 1925TIP3    H229971   6.518   2.475   9.726  0.4503  0.3345 -2.2016
 1926TIP3   OH229972   7.100   1.835   0.016 -0.8487  0.1784 -0.6872
 1926TIP3    H129973   7.094   1.800  -0.073 -0.6504  0.2342 -0.7226
 1926TIP3    H229974   7.191   1.824   0.040 -1.1947 -1.1952  0.0791
 1927TIP3   OH229975   0.248   4.630   1.145 -0.1434 -0.4749 -0.1745
 1927TIP3    H129976   0.184   4.586   1.200 -0.1912  0.3045  0.3950
 1927TIP3    H229977   0.210   4.627   1.057  0.0119 -1.8683 -0.2203
 1928TIP3   OH229978   1.781   7.394   0.501 -0.1490 -0.4501 -0.5093
 1928TIP3    H129979   1.735   7.372   0.420 -1.0105  1.8468 -0.7091
 1928TIP3    H229980   1.836   7.468   0.478 -1.1314  0.8885  1.1893
 1929TIP3   OH229981   0.709   1.793   0.332 -0.8292 -0.1692 -0.0635
 1929TIP3    H129982   0.791   1.837   0.310 -0.7353  0.7232  1.8591
 1929TIP3    H229983   0.661   1.787   0.250  0.9594 -0.2807 -1.1334
 1930TIP3   OH229984   6.608   3.300   9.621 -0.6748 -0.2042 -0.0366
 1930TIP3    H129985   6.695   3.261   9.621 -1.0290 -1.0264 -0.8452
 1930TIP3    H229986   6.596   3.333   9.532 -1.7246 -1.3910 -0.3761
 1931TIP3   OH229987   1.800   5.413   7.258 -0.1642  0.9343  0.3425
 1931TIP3    H129988   1.857   5.358   7.204  0.5282  0.3724  1.6142
 1931TIP3    H229989   1.772   5.483   7.199  0.4751  0.2883 -0.7740
 1932TIP3   OH229990   6.858   0.199   8.431 -0.0023  0.5421  0.1026
 1932TIP3    H129991   6.836   0.165   8.345 -0.3802 -0.1752  0.4747
 1932TIP3    H229992   6.837   0.293   8.427  0.4136  0.6111 -0.7159
 1933TIP3   OH229993   5.911   2.479   2.172 -0.3726  0.4480  0.5714
 1933TIP3    H129994   6.000   2.466   2.140  1.1408  3.1493  3.1758
 1933TIP3    H229995   5.874   2.546   2.115  0.0628  0.8178  0.7155
 1934TIP3   OH229996   5.027   3.270   0.589 -0.0784  0.2109  0.0989
 1934TIP3    H129997   5.120   3.293   0.589  0.1266 -0.4332 -1.3422
 1934TIP3    H229998   5.024   3.186   0.542 -1.1988 -0.7142  1.7328
 1935TIP3   OH229999   0.007   1.872   8.616  0.0043 -0.0334  0.6319
 1935TIP3    H130000  -0.046   1.801   8.652  0.1410  0.1445  1.2055
 1935TIP3    H230001   0.045   1.915   8.693  0.6719  0.0811  0.2484
 1936TIP3   OH230002   2.106   5.276   7.887  0.1592 -0.0833  0.5308
 1936TIP3    H130003   2.029   5.328   7.910  0.0465 -0.6929  1.5834
 1936TIP3    H230004   2.167   5.339   7.849 -1.2215  0.2519 -1.2641
 1937TIP3   OH230005   3.888   5.349   6.614  0.2568 -0.5739 -0.4811
 1937TIP3    H130006   3.804   5.394   6.623  1.2883  1.7222 -1.6387
 1937TIP3    H230007   3.867   5.256   6.629 -2.0613  0.1533  1.5119
 1938TIP3   OH230008   7.376   4.608   1.002  0.4661  0.2067  0.3211
 1938TIP3    H130009   7.342   4.520   1.018 -0.4509 -0.1209 -2.6631
 1938TIP3    H230010   7.463   4.594   0.964 -0.1869  0.4331 -1.3626
 1939TIP3   OH230011   3.039   7.073   7.547 -0.5987  0.0473 -0.0176
 1939TIP3    H130012   3.084   7.115   7.474 -0.3239 -0.1429  0.0429
 1939TIP3    H230013   3.069   6.983   7.546 -1.0221 -0.0967 -0.0103
 1940TIP3   OH230014   6.734   0.991   9.341 -0.7906  0.3270  0.5045
 1940TIP3    H130015   6.690   0.911   9.370 -1.7009  0.3387 -0.7835
 1940TIP3    H230016   6.816   0.961   9.303 -0.9394  0.0492  0.4028
 1941TIP3   OH230017   5.872   0.849   0.082 -0.2839 -0.4082 -0.0947
 1941TIP3    H130018   5.890   0.907   0.156 -0.4934  0.3705 -0.6383
 1941TIP3    H230019   5.867   0.908   0.007 -0.3747 -1.1556 -0.6791
 1942TIP3   OH230020   5.677   6.747   7.758 -0.4849  0.0231  0.6521
 1942TIP3    H130021   5.721   6.831   7.749  0.2891 -0.5678 -1.9461
 1942TIP3    H230022   5.746   6.682   7.744 -1.3613 -1.0336  1.0732
 1943TIP3   OH230023   4.172   2.987   1.687 -0.0222 -0.0144  0.2652
 1943TIP3    H130024   4.133   2.902   1.668 -1.0251  0.4046  0.3920
 1943TIP3    H230025   4.105   3.034   1.735  0.5256  0.8546  0.2007
 1944TIP3   OH230026   1.867   6.662   8.633 -0.4749  0.2073 -0.0426
 1944TIP3    H130027   1.915   6.741   8.608 -0.0389 -0.3557 -1.0384
 1944TIP3    H230028   1.848   6.674   8.726  0.9366  0.8026  0.1937
 1945TIP3   OH230029   5.331   4.594   2.353  0.1560  0.0709  0.1440
 1945TIP3    H130030   5.243   4.615   2.382 -0.0629 -0.1791 -0.3311
 1945TIP3    H230031   5.336   4.628   2.264  1.6474  3.1423  1.2409
 1946TIP3   OH230032   3.048   0.641   0.627  0.2037  0.1182 -0.0211
 1946TIP3    H130033   3.085   0.553   0.634 -1.9408 -0.9001 -0.4422
 1946TIP3    H230034   3.025   0.650   0.535 -2.1128 -0.0505  0.4703
 1947TIP3   OH230035   2.390   6.270   7.805 -0.2420  0.0432  0.1546
 1947TIP3    H130036   2.403   6.314   7.889  0.6503  1.8438 -0.8640
 1947TIP3    H230037   2.468   6.291   7.755 -0.8002 -0.9149 -1.1704
 1948TIP3   OH230038   3.507   3.451   9.271  0.1653  0.8070  1.1703
 1948TIP3    H130039   3.594   3.453   9.230  0.1333  1.2408  1.1192
 1948TIP3    H230040   3.484   3.543   9.283 -1.6507  0.8251 -1.6819
 1949TIP3   OH230041   0.017   6.496   2.860 -0.2812  0.4331  0.3463
 1949TIP3    H130042  -0.013   6.582   2.831  2.4099  2.2379  2.4125
 1949TIP3    H230043   0.061   6.459   2.784 -1.3007  0.9478 -0.5195
 1950TIP3   OH230044   2.063   1.955   3.056 -0.3696 -0.0910  0.5714
 1950TIP3    H130045   2.008   1.968   3.134 -0.2152 -0.5046  0.7518
 1950TIP3    H230046   2.012   1.898   3.000  0.7615 -2.3874  1.7159
 1951TIP3   OH230047   5.989   4.911   1.349  0.0455 -0.3532  0.2707
 1951TIP3    H130048   6.069   4.951   1.314  0.3866 -0.2225  1.1713
 1951TIP3    H230049   6.021   4.833   1.396 -0.5924 -1.6570 -1.3705
 1952TIP3   OH230050   6.061   1.275   0.847 -0.1237  0.0662 -0.2862
 1952TIP3    H130051   6.058   1.281   0.942 -3.4073 -1.5730 -0.1501
 1952TIP3    H230052   6.122   1.203   0.830 -1.0505 -1.0086  0.7463
 1953TIP3   OH230053   0.165   7.305   8.679  0.2907 -0.0871  0.4258
 1953TIP3    H130054   0.256   7.279   8.661  0.2293  0.3693 -0.5882
 1953TIP3    H230055   0.114   7.226   8.664  0.3383  0.0712 -0.6664
 1954TIP3   OH230056   2.339   5.182   9.092 -0.1764 -0.2683  0.4777
 1954TIP3    H130057   2.358   5.274   9.113 -0.5933 -0.3223  1.1229
 1954TIP3    H230058   2.262   5.161   9.145  0.5313 -1.2935  1.1343
 1955TIP3   OH230059   1.954   2.471   8.330  0.1939 -0.1647 -0.4170
 1955TIP3    H130060   1.950   2.498   8.422  0.4853  2.0413 -0.9797
 1955TIP3    H230061   1.926   2.549   8.282  1.7262 -0.6927 -2.2657
 1956TIP3   OH230062   6.576   5.380   0.139  0.6558  0.1997 -0.4221
 1956TIP3    H130063   6.658   5.390   0.091  1.6658 -1.8982  0.7080
 1956TIP3    H230064   6.577   5.450   0.204  0.6964  1.2362 -1.5165
 1957TIP3   OH230065   1.192   1.224   0.626 -0.2845  0.6658  0.1228
 1957TIP3    H130066   1.283   1.252   0.634  0.4684 -1.2903 -0.9055
 1957TIP3    H230067   1.179   1.161   0.697 -0.5929  0.3750 -0.1865
 1958TIP3   OH230068   3.403   6.857   1.873  0.1832 -0.3530 -0.1304
 1958TIP3    H130069   3.458   6.916   1.925  0.3471 -0.9040  0.3340
 1958TIP3    H230070   3.383   6.784   1.932  1.0140 -1.3827 -1.0554
 1959TIP3   OH230071   1.134   2.611   0.634 -0.1101  0.0300  0.2067
 1959TIP3    H130072   1.199   2.627   0.565 -1.3925 -1.1413 -1.3292
 1959TIP3    H230073   1.074   2.547   0.597 -1.3263 -0.0324  2.1355
 1960TIP3   OH230074   5.964   4.867   0.217  0.4694  0.3164 -0.2006
 1960TIP3    H130075   5.902   4.796   0.201  1.5100 -0.5308 -0.6157
 1960TIP3    H230076   5.932   4.909   0.297  0.2363 -1.1091  0.4941
 1961TIP3   OH230077   1.119   5.609   1.920  0.8762  0.0380 -0.6654
 1961TIP3    H130078   1.187   5.663   1.881  0.6649  0.1964 -0.8138
 1961TIP3    H230079   1.144   5.519   1.896  1.8892 -0.0454  0.5911
 1962TIP3   OH230080   6.361   6.463   9.314  0.1638 -0.5207  0.4146
 1962TIP3    H130081   6.371   6.521   9.238  0.2317 -0.5224  0.4220
 1962TIP3    H230082   6.273   6.428   9.305 -0.9803  1.7441  1.9252
 1963TIP3   OH230083   3.453   2.974   8.325  0.0378 -0.2250 -0.2020
 1963TIP3    H130084   3.480   2.950   8.413 -0.8275  0.1282  0.1688
 1963TIP3    H230085   3.361   2.946   8.319 -0.5028  1.4632 -0.3237
 1964TIP3   OH230086   0.566   5.154   9.458 -0.1966 -0.0495  0.5958
 1964TIP3    H130087   0.544   5.096   9.385 -0.2370  1.4860 -0.6582
 1964TIP3    H230088   0.482   5.192   9.484 -0.2090 -0.7252  1.5912
 1965TIP3   OH230089   1.918   3.701   0.429  0.5780  0.6475  0.3672
 1965TIP3    H130090   1.957   3.623   0.469 -0.3746  0.1907  0.4222
 1965TIP3    H230091   1.992   3.762   0.418  2.3728 -1.8655 -3.8735
 1966TIP3   OH230092   6.513   1.619   1.668 -0.3923 -0.0204 -0.2096
 1966TIP3    H130093   6.438   1.560   1.682 -0.7002  0.4711  0.2693
 1966TIP3    H230094   6.568   1.573   1.604 -0.0121 -1.3954  1.0340
 1967TIP3   OH230095   0.682   5.822   9.675  0.1095 -0.3076 -0.3159
 1967TIP3    H130096   0.664   5.775   9.593  0.7243 -1.1165 -0.0104
 1967TIP3    H230097   0.603   5.872   9.692 -0.6788 -1.4390 -0.5384
 1968TIP3   OH230098   3.420   4.589   7.487  0.3541  0.3374 -0.3107
 1968TIP3    H130099   3.388   4.506   7.521  2.4680 -0.3862  0.0582
 1968TIP3    H230100   3.380   4.596   7.400 -0.1078 -0.9108 -0.2191
 1969TIP3   OH230101   5.483   5.409   8.810 -0.0573 -0.1606 -0.1112
 1969TIP3    H130102   5.485   5.396   8.905  0.0278  2.0565  0.2339
 1969TIP3    H230103   5.510   5.324   8.774  0.2011 -0.9597  1.8403
 1970TIP3   OH230104   3.809   4.329   0.745 -0.1268 -0.4064  0.3960
 1970TIP3    H130105   3.870   4.297   0.811  0.5592 -0.9703 -0.4921
 1970TIP3    H230106   3.863   4.380   0.685 -0.4326 -1.2605 -0.6403
 1971TIP3   OH230107   1.743   5.523   8.583  0.2540  0.0913 -0.1703
 1971TIP3    H130108   1.731   5.571   8.664  1.7343 -0.4293  0.3930
 1971TIP3    H230109   1.672   5.459   8.581 -1.1251  1.5770 -0.4322
 1972TIP3   OH230110   2.367   0.250   1.791 -0.9045 -0.4243 -0.2474
 1972TIP3    H130111   2.380   0.339   1.759 -0.2004 -0.1164  0.8512
 1972TIP3    H230112   2.341   0.200   1.713  3.2213 -0.2974 -1.9333
 1973TIP3   OH230113   2.026   5.269   7.565 -0.4595 -0.1825  0.4555
 1973TIP3    H130114   2.089   5.225   7.508 -2.1996 -0.7418 -1.1635
 1973TIP3    H230115   1.982   5.198   7.611  0.4384  0.2338  2.0296
 1974TIP3   OH230116   5.782   2.872   8.779 -0.0081 -0.6108  0.3887
 1974TIP3    H130117   5.875   2.874   8.803  0.4778 -1.0765 -1.3306
 1974TIP3    H230118   5.779   2.820   8.699 -1.6836 -0.0640  0.0622
 1975TIP3   OH230119   2.116   1.039   7.638 -0.4603 -0.5993 -0.5315
 1975TIP3    H130120   2.194   1.036   7.582  0.0262 -1.0118  0.1411
 1975TIP3    H230121   2.125   1.121   7.687  0.7161 -1.6159  1.1038
 1976TIP3   OH230122   0.310   1.470   8.252 -0.1303  0.2417  0.3128
 1976TIP3    H130123   0.299   1.547   8.197 -0.0286  1.4905  1.9806
 1976TIP3    H230124   0.306   1.396   8.190  3.7510  1.6261 -1.9529
 1977TIP3   OH230125   4.530   7.098   7.923 -0.0197  0.2106 -0.2682
 1977TIP3    H130126   4.479   7.128   7.998 -2.4112 -1.0882 -1.2633
 1977TIP3    H230127   4.526   7.171   7.861 -0.7239  0.1240 -0.3365
 1978TIP3   OH230128   2.523   3.254   0.825  0.4674 -0.1286 -0.7316
 1978TIP3    H130129   2.581   3.179   0.837  1.6602  0.6549 -1.4366
 1978TIP3    H230130   2.495   3.278   0.913 -1.3547 -2.4454 -0.5694
 1979TIP3   OH230131   0.503   5.982   8.659  0.2165 -0.1176  0.0919
 1979TIP3    H130132   0.495   6.073   8.688 -0.4979  0.5715 -2.0856
 1979TIP3    H230133   0.595   5.973   8.635  0.1286  0.2918 -0.4259
 1980TIP3   OH230134   2.146   4.663   0.092 -0.5455  0.8575  0.0744
 1980TIP3    H130135   2.085   4.606   0.138 -0.6824 -0.1910 -1.3580
 1980TIP3    H230136   2.232   4.623   0.106 -0.2112  2.0025  1.5856
 1981TIP3   OH230137   6.494   6.461   1.738 -0.1318 -0.2202  0.2099
 1981TIP3    H130138   6.551   6.402   1.687  1.6876 -0.2081  2.0844
 1981TIP3    H230139   6.474   6.532   1.678 -0.5734 -1.6427 -1.4193
 1982TIP3   OH230140   7.001   1.111   0.161 -0.0586  0.1063  0.6781
 1982TIP3    H130141   7.096   1.108   0.174 -0.0066  0.1651  0.3339
 1982TIP3    H230142   6.991   1.127   0.067 -0.4196 -0.6387  0.5845
 1983TIP3   OH230143   1.162   4.666   7.911 -0.8636 -0.2692  0.1364
 1983TIP3    H130144   1.101   4.603   7.951  0.2448 -1.6412 -0.2621
 1983TIP3    H230145   1.207   4.706   7.985 -0.5495 -1.0158  0.3559
 1984TIP3   OH230146   4.760   7.275   9.404  0.4980  0.4487 -0.0028
 1984TIP3    H130147   4.769   7.370   9.405  2.4647  0.3080 -0.0030
 1984TIP3    H230148   4.823   7.244   9.468 -0.5472 -0.8580  0.4481
 1985TIP3   OH230149   3.725   7.304   9.756  0.1668 -0.0500  0.4552
 1985TIP3    H130150   3.681   7.219   9.760 -2.7705  0.9582 -3.7075
 1985TIP3    H230151   3.680   7.357   9.822 -2.1594 -0.2574 -0.8370
 1986TIP3   OH230152   0.773   6.273   9.033 -0.2121 -0.3437 -0.2187
 1986TIP3    H130153   0.850   6.307   9.077  0.6945 -1.8249 -0.5971
 1986TIP3    H230154   0.699   6.314   9.078  0.7802  1.3266 -0.0402
 1987TIP3   OH230155   6.150   5.350   1.085 -0.1747  0.1552 -0.1430
 1987TIP3    H130156   6.205   5.332   1.009 -2.9354 -0.6361 -2.1200
 1987TIP3    H230157   6.148   5.267   1.133 -0.6934 -0.2640 -0.8534
 1988TIP3   OH230158   6.282   0.450   1.720 -0.4273  0.1309  0.3763
 1988TIP3    H130159   6.238   0.535   1.716 -0.2289  0.2138 -0.1260
 1988TIP3    H230160   6.213   0.389   1.747 -0.4862  0.5048  1.1075
 1989TIP3   OH230161   0.377   0.824   2.083 -0.2139 -0.3330  0.2597
 1989TIP3    H130162   0.399   0.790   2.170  0.3835  2.1469  1.1404
 1989TIP3    H230163   0.402   0.753   2.023 -1.6248 -2.5316  2.1034
 1990TIP3   OH230164   2.383   0.052   0.201  0.3030 -0.2779  0.4700
 1990TIP3    H130165   2.296   0.057   0.240  0.9340 -0.2804  1.9505
 1990TIP3    H230166   2.397   0.138   0.161 -0.0953 -0.0329  0.8550
 1991TIP3   OH230167   4.980   4.273   0.269 -0.3552  0.3357  0.7122
 1991TIP3    H130168   4.987   4.236   0.181 -0.5647  0.2330  0.7377
 1991TIP3    H230169   5.070   4.297   0.293 -0.6607  3.9269 -1.0485
 1992TIP3   OH230170   5.307   3.839   0.668  0.0885 -0.2346  0.0678
 1992TIP3    H130171   5.392   3.863   0.630 -1.2508  3.5151 -1.0765
 1992TIP3    H230172   5.304   3.887   0.751 -1.0038 -0.1052 -0.0380
 1993TIP3   OH230173   1.616   6.522   8.257 -0.1604 -0.0324 -0.4167
 1993TIP3    H130174   1.599   6.533   8.351 -2.9154 -1.2417 -0.6690
 1993TIP3    H230175   1.608   6.610   8.220 -1.0673  0.1791  0.2509
 1994TIP3   OH230176   3.454   3.178   2.760  0.1784  0.0340 -0.1616
 1994TIP3    H130177   3.427   3.094   2.722 -0.2360  0.7273 -1.4596
 1994TIP3    H230178   3.499   3.223   2.689  2.1927  0.1212  1.1126
 1995TIP3   OH230179   2.303   0.539   1.171 -0.1247  0.1067  0.2672
 1995TIP3    H130180   2.280   0.619   1.124  1.0731  0.5671  0.4212
 1995TIP3    H230181   2.396   0.550   1.191 -0.3295 -0.6223  1.6868
 1996TIP3   OH230182   6.369   3.285   2.343 -0.2008  0.5325  0.1500
 1996TIP3    H130183   6.328   3.352   2.398 -0.0472  0.4195  0.4082
 1996TIP3    H230184   6.442   3.252   2.396 -0.8667 -0.5318  0.4442
 1997TIP3   OH230185   2.229   5.425   1.801 -0.2979  0.4701  0.4142
 1997TIP3    H130186   2.160   5.376   1.758 -1.4717  0.8600  1.7562
 1997TIP3    H230187   2.303   5.364   1.807  0.0196  0.4954 -2.3000
 1998TIP3   OH230188   5.895   5.152   2.078 -0.0895  0.5011  0.3774
 1998TIP3    H130189   5.926   5.087   2.141  2.7493  0.2697 -1.0940
 1998TIP3    H230190   5.809   5.177   2.110 -1.0963 -3.4826  1.4016
 1999TIP3   OH230191   4.010   7.387   2.522  0.2893 -0.6316 -0.0704
 1999TIP3    H130192   4.023   7.326   2.449 -0.7901 -1.6382  0.5536
 1999TIP3    H230193   3.936   7.352   2.570  0.5708  0.3828  1.1575
 2000TIP3   OH230194   3.922   6.101   9.556  0.2754 -0.2528  0.0776
 2000TIP3    H130195   4.005   6.078   9.599  0.4581 -0.4035 -0.3467
 2000TIP3    H230196   3.866   6.131   9.627  0.4736 -0.7741  0.4618
 2001TIP3   OH230197   3.963   3.470   2.216  0.0337 -0.2514  0.6770
 2001TIP3    H130198   4.055   3.448   2.203  0.1310  0.8556 -0.9222
 2001TIP3    H230199   3.964   3.563   2.240 -0.7139  0.5066 -1.8782
 2002TIP3   OH230200   3.398   7.337   7.689  0.7040  0.2692  0.0275
 2002TIP3    H130201   3.393   7.257   7.740 -1.0575 -0.7175 -1.5875
 2002TIP3    H230202   3.330   7.394   7.726 -0.0787 -0.1644 -0.7216
 2003TIP3   OH230203   7.193   0.553   7.944 -0.2267  0.2727 -0.2520
 2003TIP3    H130204   7.265   0.597   7.899  0.3140 -0.9359 -0.5936
 2003TIP3    H230205   7.121   0.553   7.881 -0.7956  2.0798  0.3224
 2004TIP3   OH230206   6.951   4.032   0.487  0.9569  0.3065 -0.8172
 2004TIP3    H130207   7.014   4.053   0.418  0.9572 -0.8733 -1.1925
 2004TIP3    H230208   6.913   3.949   0.461  0.7584 -0.0391  0.4730
 2005TIP3   OH230209   7.109   5.910   0.243  0.7078 -0.2826  0.6198
 2005TIP3    H130210   7.039   5.923   0.307  1.0997 -0.4198  1.0821
 2005TIP3    H230211   7.064   5.876   0.166  0.3674 -1.1471  1.1833
 2006TIP3   OH230212   0.650   5.614   1.185  0.1917  0.0625 -0.5421
 2006TIP3    H130213   0.597   5.562   1.125 -0.4148  1.1384 -0.9768
 2006TIP3    H230214   0.592   5.630   1.260  1.4535 -2.6265  1.1689
 2007TIP3   OH230215   2.088   0.892   8.591 -0.7558 -0.8547 -0.3412
 2007TIP3    H130216   2.062   0.867   8.679 -1.1689 -1.2603 -0.5721
 2007TIP3    H230217   2.016   0.947   8.559 -0.1007  0.2036 -0.0321
 2008TIP3   OH230218   2.764   3.612   6.678  0.7279 -0.4626  0.0371
 2008TIP3    H130219   2.689   3.634   6.623  0.2752 -0.5861  0.5904
 2008TIP3    H230220   2.840   3.642   6.628  0.4410 -1.7893 -1.2710
 2009TIP3   OH230221   2.244   4.762   6.900 -0.0363  0.3910 -0.5132
 2009TIP3    H130222   2.180   4.745   6.969 -0.7095 -0.4985 -1.3220
 2009TIP3    H230223   2.193   4.798   6.828  0.6981  1.5455 -0.4812
 2010TIP3   OH230224   2.423   5.943   8.439  0.3036 -0.3227  0.1284
 2010TIP3    H130225   2.337   5.948   8.481 -0.2746  1.3101 -1.1507
 2010TIP3    H230226   2.424   6.016   8.377  1.7514 -1.6068 -1.4742
 2011TIP3   OH230227   1.722   7.009   7.151 -0.1138  0.1106 -0.6376
 2011TIP3    H130228   1.676   7.004   7.235  0.6660 -1.9838 -0.2597
 2011TIP3    H230229   1.671   6.954   7.092  1.4237 -1.6529 -0.4066
 2012TIP3   OH230230   2.210   4.696   2.294  0.4109 -0.5512 -0.6952
 2012TIP3    H130231   2.228   4.679   2.201 -1.5476  0.0325 -1.2441
 2012TIP3    H230232   2.119   4.727   2.295  0.7486  0.5531  1.2949
 2013TIP3   OH230233   7.414   4.533   9.141  0.0255 -0.4297  0.6951
 2013TIP3    H130234   7.389   4.560   9.229 -1.3302 -1.0735  0.5346
 2013TIP3    H230235   7.379   4.602   9.084  0.5537 -0.2186  0.6179
 2014TIP3   OH230236   1.816   1.481   8.830 -0.3917  0.0846 -0.4260
 2014TIP3    H130237   1.805   1.576   8.841 -0.1007 -0.1542  2.6052
 2014TIP3    H230238   1.899   1.472   8.784 -0.3594  1.2902 -0.6515
 2015TIP3   OH230239   2.480   3.981   1.695 -0.7250  0.1902  0.3694
 2015TIP3    H130240   2.555   3.924   1.680  0.0301  0.9431  1.1576
 2015TIP3    H230241   2.504   4.063   1.652 -1.5372  0.1305 -0.2267
 2016TIP3   OH230242   5.187   5.096   9.679 -0.4236  0.1590  0.0331
 2016TIP3    H130243   5.171   5.078   9.771 -0.5996  1.2628  0.2348
 2016TIP3    H230244   5.251   5.030   9.652  0.0594  0.1756  1.0990
 2017TIP3   OH230245   3.542   6.931   9.573 -0.4788 -0.2018 -0.2185
 2017TIP3    H130246   3.526   6.837   9.586 -1.9796  0.2915  1.9290
 2017TIP3    H230247   3.631   6.935   9.539 -0.0447 -2.3587  0.4967
 2018TIP3   OH230248   1.431   3.604   1.893 -0.1523 -0.3821 -0.0845
 2018TIP3    H130249   1.433   3.628   1.985  2.6719 -0.9178  0.0635
 2018TIP3    H230250   1.376   3.671   1.852 -1.4958 -0.1771  1.9514
 2019TIP3   OH230251   1.369   1.884   2.545 -0.2726  0.1649  0.3100
 2019TIP3    H130252   1.340   1.826   2.615  0.7844  0.4016  0.9811
 2019TIP3    H230253   1.415   1.955   2.591  0.4501  0.3220 -0.6176
 2020TIP3   OH230254   1.853   1.227   2.281  0.2781 -0.3361 -0.4882
 2020TIP3    H130255   1.760   1.247   2.286  0.4912  0.3616  1.6000
 2020TIP3    H230256   1.884   1.276   2.205 -1.0258 -0.5072 -1.1504
 2021TIP3   OH230257   3.048   2.929   9.636  0.9962 -0.3415 -0.6202
 2021TIP3    H130258   2.975   2.958   9.581  0.6659 -1.0295 -0.5582
 2021TIP3    H230259   3.126   2.958   9.589  0.7199 -0.9003 -1.4464
 2022TIP3   OH230260   5.887   0.402   9.886  0.5430  0.0956  0.0909
 2022TIP3    H130261   5.836   0.407   9.805 -0.2405  1.1773  0.6252
 2022TIP3    H230262   5.903   0.493   9.910  1.8604 -0.2214  0.4862
 2023TIP3   OH230263   4.787   6.092   7.756  1.0436  0.4209  0.2259
 2023TIP3    H130264   4.798   6.027   7.825 -0.7028 -0.1369  0.0391
 2023TIP3    H230265   4.874   6.129   7.744  2.2113 -2.1735  0.0137
 2024TIP3   OH230266   5.519   3.585   8.480 -0.3298  0.0439  0.0698
 2024TIP3    H130267   5.595   3.572   8.536  0.2383  0.4460 -0.6066
 2024TIP3    H230268   5.518   3.679   8.460  0.6671 -0.3739 -2.2443
 2025TIP3   OH230269   6.891   1.692   7.731 -0.2047  0.2673  0.5353
 2025TIP3    H130270   6.838   1.688   7.651  0.4953 -0.2463  0.0781
 2025TIP3    H230271   6.977   1.723   7.700  0.0416  0.1582  1.1091
 2026TIP3   OH230272   1.537   0.441   1.524  0.8158  0.3294 -0.3376
 2026TIP3    H130273   1.583   0.438   1.607 -2.3197  1.5277  1.6444
 2026TIP3    H230274   1.579   0.513   1.476  2.2193  0.0934  0.4760
 2027TIP3   OH230275   3.641   0.139   8.028  0.2311 -0.5717  0.2190
 2027TIP3    H130276   3.682   0.214   8.072  0.7955 -0.1453 -0.9912
 2027TIP3    H230277   3.650   0.158   7.935 -0.7491 -1.5543 -0.0983
 2028TIP3   OH230278   7.302   6.802   9.302 -0.0526 -0.3195  0.0515
 2028TIP3    H130279   7.370   6.738   9.323 -0.7248 -0.3661  2.4305
 2028TIP3    H230280   7.305   6.864   9.375 -0.7274  1.2562 -1.2008
 2029TIP3   OH230281   5.097   7.125   7.783  0.3087 -0.2940 -0.2591
 2029TIP3    H130282   5.152   7.111   7.861 -1.1309 -0.8100  0.7092
 2029TIP3    H230283   5.010   7.096   7.810 -0.4005  0.2795 -1.8258
 2030TIP3   OH230284   6.116   2.115   0.369 -0.3291 -0.1766 -0.1902
 2030TIP3    H130285   6.080   2.202   0.350  1.7790  0.8227 -0.0028
 2030TIP3    H230286   6.080   2.092   0.455 -3.2490 -0.9043 -1.4842
 2031TIP3   OH230287   5.063   4.771   9.832 -0.6197 -0.0627  0.5545
 2031TIP3    H130288   5.050   4.795   9.740 -2.1205  1.8350  1.1906
 2031TIP3    H230289   4.983   4.724   9.855 -0.7022  0.3546  1.1351
 2032TIP3   OH230290   6.442   3.244   9.836 -0.0401 -0.2240 -0.0459
 2032TIP3    H130291   6.357   3.274   9.805 -0.4806 -0.3888  0.9781
 2032TIP3    H230292   6.501   3.259   9.762 -1.1854 -1.2215 -1.2125
 2033TIP3   OH230293   6.280   1.059   1.904 -0.0001  0.2173 -0.7200
 2033TIP3    H130294   6.241   1.139   1.938 -0.6415  0.0296 -0.9930
 2033TIP3    H230295   6.311   1.012   1.982 -1.4503 -0.2046 -0.3741
 2034TIP3   OH230296   3.798   0.007   9.096  0.0936 -0.2635  0.1247
 2034TIP3    H130297   3.840  -0.050   9.161  0.5332 -0.3306 -0.2104
 2034TIP3    H230298   3.748  -0.053   9.040 -1.0048 -0.1170  0.9221
 2035TIP3   OH230299   2.815   2.245   7.651  0.2439 -0.3576  0.3481
 2035TIP3    H130300   2.888   2.285   7.604 -0.9211 -0.5626 -1.7378
 2035TIP3    H230301   2.857   2.196   7.723  2.3825 -2.0255 -1.8525
 2036TIP3   OH230302   1.302   1.527   3.046  0.5318 -0.9705  0.1903
 2036TIP3    H130303   1.360   1.585   3.096  1.1663 -0.2372 -1.3400
 2036TIP3    H230304   1.235   1.500   3.109 -0.6422  2.5655  0.6259
 2037TIP3   OH230305   6.427   6.708   1.163 -0.1181 -0.1062  0.5831
 2037TIP3    H130306   6.375   6.730   1.240  0.9561 -0.9753  1.5801
 2037TIP3    H230307   6.385   6.630   1.127 -0.1781 -0.1391  0.7225
 2038TIP3   OH230308   7.314   0.963   8.932 -0.3766  0.5080  0.4206
 2038TIP3    H130309   7.374   1.019   8.982 -0.6479  0.7135  0.5154
 2038TIP3    H230310   7.320   0.997   8.842  1.7324 -1.1863 -0.1638
 2039TIP3   OH230311   1.686   5.602   7.098  0.4005  0.6073 -0.3760
 2039TIP3    H130312   1.673   5.670   7.164 -1.8667 -0.0341 -0.0598
 2039TIP3    H230313   1.667   5.644   7.015 -1.8577  0.2490 -0.1101
 2040TIP3   OH230314   4.709   0.621   9.041  0.3166  0.2988 -0.5219
 2040TIP3    H130315   4.757   0.696   9.077  0.0065 -0.0856  0.7149
 2040TIP3    H230316   4.653   0.660   8.973  0.0330  1.2162  0.2193
 2041TIP3   OH230317   6.265   6.699   1.623  0.3251 -0.5151 -0.6601
 2041TIP3    H130318   6.221   6.783   1.640  0.6497 -0.3787 -0.4912
 2041TIP3    H230319   6.250   6.648   1.702  1.3929 -0.0711 -0.1567
 2042TIP3   OH230320   2.502   6.392   0.218 -0.7007 -0.0704 -0.0049
 2042TIP3    H130321   2.424   6.374   0.270 -0.6058  0.4458  0.3328
 2042TIP3    H230322   2.515   6.314   0.165  0.1479 -1.3431  1.9476
 2043TIP3   OH230323   3.890   5.884   0.842 -0.2316 -0.2758  0.5777
 2043TIP3    H130324   3.969   5.830   0.846 -0.5761 -0.7338  1.4976
 2043TIP3    H230325   3.884   5.923   0.930 -0.5982  0.3737  0.2709
 2044TIP3   OH230326   3.660   1.003   2.045  0.0893  0.3430  0.6462
 2044TIP3    H130327   3.630   1.066   1.979 -0.3104  0.5803  1.0484
 2044TIP3    H230328   3.699   1.057   2.114 -2.3714  0.3876  2.1266
 2045TIP3   OH230329   6.148   6.752   9.465 -0.0736 -0.3562 -0.0510
 2045TIP3    H130330   6.088   6.679   9.476  0.3437 -0.7369 -0.2592
 2045TIP3    H230331   6.220   6.733   9.526  0.2702 -0.3792 -0.4545
 2046TIP3   OH230332   1.070   3.895   1.365 -0.5333  0.2035  0.4350
 2046TIP3    H130333   1.019   3.963   1.323  0.5797  0.6806 -0.2008
 2046TIP3    H230334   1.099   3.839   1.293  1.8162  1.3075  0.4238
 2047TIP3   OH230335   4.871   7.405   1.035  0.2080  0.2831  0.1655
 2047TIP3    H130336   4.840   7.492   1.013 -1.0309 -0.7297 -2.4717
 2047TIP3    H230337   4.956   7.398   0.991  0.6943  0.3823  1.0450
 2048TIP3   OH230338   6.064   5.418   0.360 -0.0086  0.6265  0.1909
 2048TIP3    H130339   6.094   5.339   0.315 -0.9757  0.7708 -0.7610
 2048TIP3    H230340   6.049   5.390   0.450 -0.6857 -0.3707 -0.2145
 2049TIP3   OH230341   4.222   2.209   9.921 -1.1149  0.6318 -0.1560
 2049TIP3    H130342   4.312   2.233   9.941 -0.2048 -0.9708 -1.9644
 2049TIP3    H230343   4.228   2.159   9.839 -3.5246 -0.3383  0.1623
 2050TIP3   OH230344   4.905   2.646   0.679  0.1362  0.3772  0.2594
 2050TIP3    H130345   4.880   2.618   0.591  1.4274 -0.2750  0.0774
 2050TIP3    H230346   4.840   2.605   0.737  0.0864 -0.3152 -0.2796
 2051TIP3   OH230347   3.439   1.745   1.175 -0.4355  0.5732  0.7333
 2051TIP3    H130348   3.520   1.781   1.209  0.5857 -0.6151 -0.3338
 2051TIP3    H230349   3.447   1.754   1.080 -0.6615 -1.3162  0.5024
 2052TIP3   OH230350   6.835   1.142   1.488 -0.3591 -0.6258  0.1146
 2052TIP3    H130351   6.779   1.167   1.562 -1.1694 -0.8183 -0.4136
 2052TIP3    H230352   6.794   1.183   1.412  0.0933 -0.9623 -0.3204
 2053TIP3   OH230353   1.280   5.431   0.807 -0.2582 -0.0802  0.6041
 2053TIP3    H130354   1.350   5.496   0.814  0.5582 -1.0524  1.7770
 2053TIP3    H230355   1.277   5.410   0.713  0.7068  0.3154  0.4712
 2054TIP3   OH230356   4.107   6.331   6.599 -0.1000  0.4235  0.4434
 2054TIP3    H130357   4.116   6.339   6.694 -2.2541 -0.0048  0.7358
 2054TIP3    H230358   4.115   6.421   6.567  1.5353  0.4725  0.9011
 2055TIP3   OH230359   2.084   2.329   0.347 -0.2797 -0.2002 -0.3686
 2055TIP3    H130360   2.072   2.242   0.386 -0.8178 -0.0357 -0.1629
 2055TIP3    H230361   2.156   2.367   0.398  0.5607 -0.8502 -1.0331
 2056TIP3   OH230362   3.745   2.771   1.755  0.2369  0.0995  0.1708
 2056TIP3    H130363   3.713   2.861   1.752 -0.3526 -0.1051  0.1607
 2056TIP3    H230364   3.829   2.773   1.708 -0.3471  0.4129 -0.8857
 2057TIP3   OH230365   0.634   6.902   7.706 -0.2720 -0.0569  0.2638
 2057TIP3    H130366   0.697   6.955   7.754 -1.1580 -1.4800  3.2187
 2057TIP3    H230367   0.554   6.955   7.705 -0.6079 -0.5088  1.5363
 2058TIP3   OH230368   0.652   0.174   1.327  0.4866 -0.1028  0.0756
 2058TIP3    H130369   0.684   0.132   1.248  1.0284 -1.3381  0.9088
 2058TIP3    H230370   0.614   0.256   1.298  0.9016 -0.4211 -1.4218
 2059TIP3   OH230371   0.744   4.735   8.053  0.8238  0.2044 -0.1124
 2059TIP3    H130372   0.735   4.751   7.959  3.8566 -3.4090 -1.2576
 2059TIP3    H230373   0.668   4.681   8.075  0.9216 -0.2743 -0.9018
 2060TIP3   OH230374   1.175   1.618   7.622 -0.0468 -0.3858 -0.6354
 2060TIP3    H130375   1.139   1.682   7.560  0.3751  0.5935  0.1075
 2060TIP3    H230376   1.268   1.640   7.629 -0.3654  0.5247  1.4951
 2061TIP3   OH230377   7.204   3.566   0.395  0.3590  0.5995 -0.1879
 2061TIP3    H130378   7.281   3.520   0.427  0.4380  1.4459  0.9218
 2061TIP3    H230379   7.237   3.625   0.327  0.4539 -0.0265 -0.6976
 2062TIP3   OH230380   4.009   0.909   1.988 -0.1704  0.0558 -0.3396
 2062TIP3    H130381   3.976   0.981   2.043  0.5183 -0.3193  0.5808
 2062TIP3    H230382   4.102   0.928   1.978  0.0141 -0.7199 -0.0858
 2063TIP3   OH230383   2.034   7.246   6.727  0.3192 -0.4002  0.0608
 2063TIP3    H130384   2.054   7.183   6.658 -1.5075 -0.8167 -0.1417
 2063TIP3    H230385   2.003   7.192   6.800  2.2438  0.0289  1.2496
 2064TIP3   OH230386   6.178   6.409   1.732  0.2816 -0.6028 -0.5578
 2064TIP3    H130387   6.234   6.453   1.796 -0.4554  1.0581 -0.9844
 2064TIP3    H230388   6.148   6.330   1.776 -0.0181  0.3814  1.0858
 2065TIP3   OH230389   7.232   0.608   2.106 -0.1948  0.0046  0.3026
 2065TIP3    H130390   7.288   0.653   2.170 -0.3178 -0.8428  1.0373
 2065TIP3    H230391   7.293   0.560   2.050  0.0346  2.1948 -1.4252
 2066TIP3   OH230392   4.828   2.138   9.567 -0.0708  0.5769 -0.4638
 2066TIP3    H130393   4.787   2.136   9.653 -2.3412  0.3407 -1.4847
 2066TIP3    H230394   4.886   2.061   9.566  1.0793  1.3601  1.2906
 2067TIP3   OH230395   3.919   3.492   0.492 -0.0236 -0.0210 -0.4961
 2067TIP3    H130396   3.841   3.487   0.547 -0.1417  0.5917 -0.5998
 2067TIP3    H230397   3.989   3.453   0.544  0.0740  1.3809  0.4678
 2068TIP3   OH230398   1.840   0.074   8.741  0.1396  0.4016 -0.7243
 2068TIP3    H130399   1.822  -0.003   8.687  2.5607 -0.4141 -0.5151
 2068TIP3    H230400   1.808   0.148   8.690 -2.1559 -0.6796 -0.9889
 2069TIP3   OH230401   0.618   5.374   1.640 -0.7084 -0.0596  0.6803
 2069TIP3    H130402   0.633   5.281   1.659 -1.6274 -0.2379  0.6075
 2069TIP3    H230403   0.606   5.377   1.545  1.0395  0.4034  0.4480
 2070TIP3   OH230404   6.073   7.300   9.017  0.1084 -0.1825 -0.2906
 2070TIP3    H130405   6.008   7.350   9.066 -0.3843 -1.4862  0.4122
 2070TIP3    H230406   6.126   7.257   9.084  0.5263 -0.6087 -0.8836
 2071TIP3   OH230407   7.058   1.307   0.793 -0.3165  0.3420 -0.0908
 2071TIP3    H130408   6.988   1.336   0.735 -1.2233 -0.6107  0.5005
 2071TIP3    H230409   7.040   1.350   0.876 -0.4798 -0.2728  0.1963
 2072TIP3   OH230410   2.463   5.554   1.686  0.0880 -0.0173  0.8015
 2072TIP3    H130411   2.420   5.538   1.770  1.0202 -1.6459  1.0397
 2072TIP3    H230412   2.516   5.475   1.672  0.8037  0.7002 -0.7931
 2073TIP3   OH230413   3.511   0.825   0.872 -0.5740  0.1641 -1.0254
 2073TIP3    H130414   3.501   0.730   0.877  0.9375 -0.0888 -2.0624
 2073TIP3    H230415   3.507   0.843   0.778 -0.6464  1.1147 -0.8412
 2074TIP3   OH230416   3.097   1.881   9.422  0.2151 -0.2276  0.0621
 2074TIP3    H130417   3.164   1.940   9.387  2.0646 -1.6916  0.9642
 2074TIP3    H230418   3.116   1.797   9.382  0.5428 -1.2640  2.2785
 2075TIP3   OH230419   5.233   3.051   1.495  0.4257  0.2870 -0.4339
 2075TIP3    H130420   5.286   3.114   1.544 -0.0066  1.4932 -1.4779
 2075TIP3    H230421   5.206   3.098   1.417 -0.8179 -0.8557 -0.7206
 2076TIP3   OH230422   5.589   0.005   2.083 -0.0681 -0.2575 -0.1099
 2076TIP3    H130423   5.528   0.043   2.019 -0.2278 -2.0592 -1.0825
 2076TIP3    H230424   5.568   0.051   2.164 -2.1603 -0.2079 -0.6043
 2077TIP3   OH230425   5.118   3.486   7.725  0.3653 -0.0465  0.2230
 2077TIP3    H130426   5.175   3.474   7.801  0.4216  0.2537  0.2298
 2077TIP3    H230427   5.045   3.538   7.757  0.3560  0.0252  0.0878
 2078TIP3   OH230428   6.271   3.472   1.838 -0.0220 -0.0773  0.3813
 2078TIP3    H130429   6.237   3.384   1.820 -0.3966 -0.4944  2.7641
 2078TIP3    H230430   6.194   3.528   1.841  0.3109  0.6928 -2.4435
 2079TIP3   OH230431   6.869   1.387   0.489  0.7414  0.3622  0.3799
 2079TIP3    H130432   6.830   1.328   0.424 -0.7059  0.9232  0.6881
 2079TIP3    H230433   6.961   1.391   0.466  0.5154 -0.5569 -0.7802
 2080TIP3   OH230434   1.870   2.776   0.382  0.0035 -0.1930 -0.0953
 2080TIP3    H130435   1.821   2.694   0.392  0.8344 -0.9152 -1.5758
 2080TIP3    H230436   1.905   2.772   0.293  1.3366  1.0669  0.3293
 2081TIP3   OH230437   6.733   2.601   8.141 -0.3725 -0.2272 -0.1991
 2081TIP3    H130438   6.700   2.623   8.054  1.2689 -0.2952 -0.8709
 2081TIP3    H230439   6.708   2.510   8.154 -1.3472  0.0235 -0.2280
 2082TIP3   OH230440   3.886   7.395   8.248  0.4020  0.0743 -0.1242
 2082TIP3    H130441   3.908   7.479   8.207  0.7285 -0.4148 -0.9847
 2082TIP3    H230442   3.791   7.388   8.237 -0.0952  1.6016  2.4660
 2083TIP3   OH230443   3.645   2.459   7.757  0.1272  0.1224 -0.9535
 2083TIP3    H130444   3.688   2.377   7.729  2.0186  0.4842  0.6638
 2083TIP3    H230445   3.697   2.528   7.716  2.1999  0.6228  2.2164
 2084TIP3   OH230446   5.093   3.984   0.569 -0.3083  0.4724  1.1241
 2084TIP3    H130447   5.158   3.920   0.598  0.1821  0.3199 -0.2519
 2084TIP3    H230448   5.117   4.004   0.479 -1.5605  1.2082  0.9295
 2085TIP3   OH230449   0.373   6.972   8.249  0.1081  0.4389  0.4790
 2085TIP3    H130450   0.393   6.957   8.157  4.2613 -0.2715  1.2939
 2085TIP3    H230451   0.285   6.937   8.261  0.0289 -0.8375 -2.8804
 2086TIP3   OH230452   1.853   2.320   0.813  0.3534  0.6082 -0.5874
 2086TIP3    H130453   1.829   2.242   0.763 -1.1133 -0.0611  1.0441
 2086TIP3    H230454   1.898   2.287   0.890 -1.8139  1.1285  1.0208
 2087TIP3   OH230455   4.435   3.464   0.014  0.3466  0.1579  0.0831
 2087TIP3    H130456   4.518   3.477  -0.031  0.8964  0.8490  1.2611
 2087TIP3    H230457   4.403   3.380  -0.020  0.9484  0.4281 -1.2303
 2088TIP3   OH230458   0.816   5.726   1.383 -0.0823 -0.1514  0.2696
 2088TIP3    H130459   0.780   5.776   1.456 -0.9100  0.7442 -0.7197
 2088TIP3    H230460   0.740   5.680   1.347  0.8249 -3.0881  1.8244
 2089TIP3   OH230461   1.818   1.096   8.276 -0.0946 -0.6865  0.1285
 2089TIP3    H130462   1.760   1.043   8.221  1.6546 -1.1068 -1.4460
 2089TIP3    H230463   1.797   1.186   8.253 -0.5550 -0.8072  0.0592
 2090TIP3   OH230464   0.572   1.465   0.104 -0.4170 -0.1549 -0.4689
 2090TIP3    H130465   0.534   1.380   0.124 -1.6990  0.5692  0.3453
 2090TIP3    H230466   0.666   1.449   0.099 -0.6091 -1.5585 -0.0501
 2091TIP3   OH230467   6.573   4.405   0.240  0.6305 -0.3547  0.1944
 2091TIP3    H130468   6.522   4.423   0.319  1.2839 -0.6117  0.6875
 2091TIP3    H230469   6.512   4.363   0.180 -0.1327  0.7527  0.1773
 2092TIP3   OH230470   1.991   6.562   3.096  0.5673  0.2559  0.2344
 2092TIP3    H130471   2.003   6.488   3.156 -1.3097 -1.1024 -0.9475
 2092TIP3    H230472   1.948   6.524   3.020  1.6973  2.1612 -1.4697
 2093TIP3   OH230473   7.380   2.491   0.553  0.0840  0.4891 -0.5012
 2093TIP3    H130474   7.371   2.533   0.468 -0.2095  1.4125 -0.0295
 2093TIP3    H230475   7.471   2.506   0.578  0.3940 -0.5008 -1.0124
 2094TIP3   OH230476   2.048   2.944   9.307 -0.5452  0.1929  0.5052
 2094TIP3    H130477   2.043   2.856   9.344 -1.6089  1.2201  3.0866
 2094TIP3    H230478   2.131   2.979   9.340 -0.0581  0.1291 -0.6259
 2095TIP3   OH230479   0.229   5.543   9.726 -0.6265  0.3785 -0.1323
 2095TIP3    H130480   0.262   5.582   9.807 -0.1128  2.8035 -1.4221
 2095TIP3    H230481   0.308   5.514   9.680 -0.4129  3.0594 -1.6710
 2096TIP3   OH230482   7.417   4.877   1.987 -0.1537 -0.6962 -0.6555
 2096TIP3    H130483   7.448   4.923   1.909  3.7836 -0.9576  0.5341
 2096TIP3    H230484   7.403   4.946   2.052 -3.5374 -0.4669 -1.4538
 2097TIP3   OH230485   3.518   2.964   8.916  0.1846  0.0028  0.2741
 2097TIP3    H130486   3.472   3.008   8.844 -0.1023  0.2235  0.5871
 2097TIP3    H230487   3.609   2.958   8.887 -0.1860 -1.1738 -0.6978
 2098TIP3   OH230488   5.635   5.592   9.894 -0.1291 -0.1229 -0.0786
 2098TIP3    H130489   5.689   5.520   9.862  0.6263 -0.2510  1.3905
 2098TIP3    H230490   5.660   5.602   9.986 -0.9475  1.3529  0.0224
 2099TIP3   OH230491   0.702   2.656   9.317 -0.0821 -0.3862  0.5098
 2099TIP3    H130492   0.738   2.745   9.319  0.7935 -0.6673 -1.1727
 2099TIP3    H230493   0.611   2.667   9.343  0.0703  0.9772  0.5570
 2100TIP3   OH230494   4.968   4.698   7.432 -0.6200  0.3788 -0.2003
 2100TIP3    H130495   4.977   4.642   7.355 -0.3681  0.6943 -0.3981
 2100TIP3    H230496   4.924   4.776   7.400 -2.2003 -0.2421  0.3260
 2101TIP3   OH230497   2.757   7.323   1.529  0.4548  0.2444 -0.6177
 2101TIP3    H130498   2.806   7.241   1.535  1.4169  0.8825  1.1226
 2101TIP3    H230499   2.819   7.386   1.492  0.2549  0.5603 -0.4230
 2102TIP3   OH230500   5.157   0.874   9.853  0.4054 -0.2919  0.1241
 2102TIP3    H130501   5.216   0.912   9.788 -0.4307 -2.2113 -1.8814
 2102TIP3    H230502   5.089   0.941   9.865  1.3134  0.6602  0.1143
 2103TIP3   OH230503   5.331   0.702   1.492 -0.4098  0.3785  0.4952
 2103TIP3    H130504   5.240   0.727   1.477 -0.5883 -0.6794 -0.2515
 2103TIP3    H230505   5.383   0.770   1.450 -0.8380  1.0842  1.0826
 2104TIP3   OH230506   1.381   4.693   9.454 -0.4088 -0.8753  0.4130
 2104TIP3    H130507   1.400   4.717   9.545 -2.7080 -0.5783  0.8642
 2104TIP3    H230508   1.287   4.708   9.444 -0.0107  0.3336 -2.4103
 2105TIP3   OH230509   7.104   3.483   0.148  0.3375  0.2601  0.5929
 2105TIP3    H130510   7.068   3.534   0.076 -1.2173 -0.0865  1.0996
 2105TIP3    H230511   7.100   3.541   0.224  0.8186  0.1917  0.6791
 2106TIP3   OH230512   5.878   5.809   9.859  0.4154 -0.2341  0.0602
 2106TIP3    H130513   5.908   5.885   9.808  2.6331 -0.1242  1.4427
 2106TIP3    H230514   5.793   5.787   9.820  0.6770  1.6447 -1.7439
 2107TIP3   OH230515   7.154   1.262   9.161  0.1653 -0.1504 -0.5656
 2107TIP3    H130516   7.095   1.336   9.152  0.9053  0.4940 -0.1949
 2107TIP3    H230517   7.157   1.224   9.073  0.1822  0.5637 -0.8820
 2108TIP3   OH230518   3.711   2.851   0.766 -0.3618  0.5107  0.5819
 2108TIP3    H130519   3.759   2.907   0.704  0.1629 -0.4114  0.1368
 2108TIP3    H230520   3.733   2.762   0.739 -0.1011  0.0877  2.1209
 2109TIP3   OH230521   4.709   5.147   8.743  0.6050  0.6160  0.0086
 2109TIP3    H130522   4.640   5.137   8.808  0.1673  0.6018 -0.4541
 2109TIP3    H230523   4.782   5.186   8.791  0.8956 -0.9342  0.9143
 2110TIP3   OH230524   6.526   4.697   0.966  0.6712 -0.2493 -0.2512
 2110TIP3    H130525   6.598   4.687   1.029 -0.3046 -0.5727  0.8531
 2110TIP3    H230526   6.474   4.618   0.976  0.5742 -0.3780 -1.6138
 2111TIP3   OH230527   0.893   3.529   9.046 -0.5125 -0.2452 -0.4448
 2111TIP3    H130528   0.857   3.466   9.108 -0.5601 -0.4192 -0.6527
 2111TIP3    H230529   0.823   3.545   8.983 -1.1988  1.4379  0.6545
 2112TIP3   OH230530   6.210   5.174   2.176 -0.0559 -0.3025  0.3971
 2112TIP3    H130531   6.251   5.218   2.250  2.3273 -1.6495 -0.0413
 2112TIP3    H230532   6.220   5.081   2.194  2.0754 -0.7070 -2.2945
 2113TIP3   OH230533   6.611   6.327   7.923 -0.2157  0.1369  0.7678
 2113TIP3    H130534   6.668   6.376   7.862  0.5757 -1.7572 -0.0829
 2113TIP3    H230535   6.537   6.299   7.868 -0.2468 -0.3299  1.0536
 2114TIP3   OH230536   5.242   3.932   0.922  0.3183 -0.0426 -0.4658
 2114TIP3    H130537   5.150   3.919   0.945  0.0004 -1.7702 -2.3390
 2114TIP3    H230538   5.288   3.934   1.006 -1.1045 -2.3480  0.4690
 2115TIP3   OH230539   2.436   4.939   8.923 -0.4769 -0.1297 -0.3901
 2115TIP3    H130540   2.520   4.925   8.966  0.2237  2.0273 -0.9283
 2115TIP3    H230541   2.373   4.895   8.978  0.8456 -0.5984  0.7990
 2116TIP3   OH230542   3.248   4.095   8.380 -0.0106  0.0702 -0.4498
 2116TIP3    H130543   3.328   4.146   8.389 -0.8341  1.7685 -2.1422
 2116TIP3    H230544   3.228   4.067   8.469  1.1983  1.5875  0.3537
 2117TIP3   OH230545   7.099   5.167   9.486  0.4103 -0.0154  0.0625
 2117TIP3    H130546   7.172   5.227   9.501  0.4640 -0.4535  1.7805
 2117TIP3    H230547   7.038   5.185   9.558 -0.9432 -0.0187 -1.0511
 2118TIP3   OH230548   0.934   2.989   1.251 -0.1561  0.6788  0.3125
 2118TIP3    H130549   0.952   3.001   1.158 -0.1835 -0.8312  0.0785
 2118TIP3    H230550   0.930   2.894   1.262 -3.2524  0.7844  1.2381
 2119TIP3   OH230551   3.704   4.067   0.978 -0.1073  0.6577 -0.5372
 2119TIP3    H130552   3.797   4.041   0.984  0.2156  1.6413 -1.1046
 2119TIP3    H230553   3.703   4.158   1.007 -0.8871  0.6826 -0.6400
 2120TIP3   OH230554   2.730   0.640   1.884  0.0353  0.6547  0.2530
 2120TIP3    H130555   2.810   0.602   1.849  0.1692  1.0915  0.0792
 2120TIP3    H230556   2.760   0.713   1.939 -0.1474 -0.1561  1.4858
 2121TIP3   OH230557   7.218   5.880   1.479  0.4963 -0.3957  0.4608
 2121TIP3    H130558   7.274   5.803   1.483 -1.6125 -2.1067 -1.0984
 2121TIP3    H230559   7.253   5.931   1.406  0.5938 -0.9812  0.0947
 2122TIP3   OH230560   2.737   4.575   8.591 -0.0987  0.1066  0.4903
 2122TIP3    H130561   2.666   4.513   8.572 -0.6539  0.8572  0.0624
 2122TIP3    H230562   2.707   4.658   8.553  0.8960  0.4977  0.5344
 2123TIP3   OH230563   6.699   6.227   9.412 -0.0598  0.4108  0.0636
 2123TIP3    H130564   6.638   6.255   9.480 -1.0287 -0.9958 -0.1626
 2123TIP3    H230565   6.784   6.263   9.438 -0.6330  0.8433  1.4034
 2124TIP3   OH230566   2.663   3.872   7.227 -0.1298 -0.0728 -0.4065
 2124TIP3    H130567   2.587   3.895   7.280 -1.2705 -0.9380 -1.5900
 2124TIP3    H230568   2.697   3.956   7.195  0.4157  0.4337  1.4118
 2125TIP3   OH230569   2.123   5.675   1.859  0.2449  0.0151 -0.2592
 2125TIP3    H130570   2.145   5.598   1.807 -0.0995 -1.1284  1.2366
 2125TIP3    H230571   2.121   5.644   1.949 -0.3972  1.6728  0.3374
 2126TIP3   OH230572   2.571   1.660   7.421  0.1505 -0.0957  0.7669
 2126TIP3    H130573   2.556   1.588   7.359 -0.6666 -0.1190  0.9769
 2126TIP3    H230574   2.500   1.722   7.403  1.8325  1.5483 -0.6342
 2127TIP3   OH230575   1.274   0.840   2.507  0.2525 -0.2444  0.7694
 2127TIP3    H130576   1.201   0.780   2.490 -0.5652  0.5400  1.4258
 2127TIP3    H230577   1.305   0.865   2.420  0.0422 -0.9315  0.4840
 2128TIP3   OH230578   3.719   3.686   1.719 -0.2446 -0.1298 -0.2508
 2128TIP3    H130579   3.628   3.700   1.744  0.1211 -0.3640  1.2987
 2128TIP3    H230580   3.762   3.654   1.798  1.4602  1.0831 -0.6232
 2129TIP3   OH230581   3.289   0.429   0.178 -0.1503  0.5215 -0.0941
 2129TIP3    H130582   3.224   0.407   0.245  0.8407 -1.5064  0.2888
 2129TIP3    H230583   3.308   0.346   0.135  1.9556  1.0948 -0.3807
 2130TIP3   OH230584   4.389   5.196   1.031  0.3086  0.2227  0.3071
 2130TIP3    H130585   4.340   5.122   0.993 -2.8542  1.6891  1.1652
 2130TIP3    H230586   4.375   5.188   1.125  0.5120  1.5003  0.4615
 2131TIP3   OH230587   1.402   1.454   8.564 -0.1620  0.5112  0.1039
 2131TIP3    H130588   1.435   1.369   8.534 -1.2289 -0.1209  0.6440
 2131TIP3    H230589   1.480   1.501   8.593  0.2355 -1.3397  2.3729
 2132TIP3   OH230590   4.416   5.376   8.512 -0.1332 -0.2191 -0.1530
 2132TIP3    H130591   4.504   5.360   8.547 -0.2345 -0.3664  0.0288
 2132TIP3    H230592   4.359   5.378   8.588 -0.8631 -3.6665 -0.4425
 2133TIP3   OH230593   0.774   0.567   2.019 -0.0948  0.6942  0.6327
 2133TIP3    H130594   0.751   0.593   2.108 -1.3955  0.3614  0.4145
 2133TIP3    H230595   0.826   0.487   2.029 -2.2583 -0.7507  1.0510
 2134TIP3   OH230596   2.168   2.233   0.017  0.2094  0.0130  0.4549
 2134TIP3    H130597   2.097   2.172   0.036 -0.2881  0.0321 -1.2154
 2134TIP3    H230598   2.246   2.191   0.056 -0.0902 -1.7943 -0.7465
 2135TIP3   OH230599   0.681   4.116   9.716  0.3199  0.2506 -0.1863
 2135TIP3    H130600   0.622   4.192   9.710 -0.2211 -0.2047 -0.7275
 2135TIP3    H230601   0.766   4.154   9.741 -0.1190  0.9494  0.2798
 2136TIP3   OH230602   0.215   3.071   0.803 -0.3783  1.0203  0.0143
 2136TIP3    H130603   0.144   3.129   0.774  0.3016  1.9835  0.2424
 2136TIP3    H230604   0.284   3.130   0.833  0.7311  0.1115 -0.6478
 2137TIP3   OH230605   3.816   6.938   9.455  0.4516 -0.1156  0.2010
 2137TIP3    H130606   3.850   7.027   9.451  0.4473 -0.0514  1.3861
 2137TIP3    H230607   3.799   6.915   9.364 -0.3082  1.3870 -0.0577
 2138TIP3   OH230608   1.285   3.736   6.827 -0.5394 -0.0797  0.2896
 2138TIP3    H130609   1.378   3.716   6.834 -0.5431 -0.2297 -0.0749
 2138TIP3    H230610   1.250   3.668   6.769 -0.7562  0.3525 -0.0899
 2139TIP3   OH230611   5.680   5.393   9.585 -0.0803  0.3155  0.0870
 2139TIP3    H130612   5.687   5.413   9.678 -1.8798  1.1550  0.0941
 2139TIP3    H230613   5.601   5.341   9.577 -0.0097  0.3381 -0.9817
 2140TIP3   OH230614   4.631   4.453   8.560 -0.0270 -0.3379 -0.7047
 2140TIP3    H130615   4.649   4.365   8.526 -0.3267  0.0688 -1.9648
 2140TIP3    H230616   4.658   4.449   8.652  2.2705 -1.0591 -1.3327
 2141TIP3   OH230617   3.758   4.572   1.010 -0.0015  0.1950 -0.2159
 2141TIP3    H130618   3.753   4.487   0.967 -1.1538  0.9111 -1.5823
 2141TIP3    H230619   3.668   4.594   1.032  0.3619  0.7426  0.7818
 2142TIP3   OH230620   7.078   1.981   9.568  0.1723 -0.6449 -0.3777
 2142TIP3    H130621   7.061   2.018   9.482 -1.0305 -2.0406 -0.7831
 2142TIP3    H230622   7.118   1.895   9.550  0.8909 -0.5141  0.4835
 2143TIP3   OH230623   4.572   0.436   7.929  0.2821 -0.2996 -0.7148
 2143TIP3    H130624   4.611   0.502   7.987  0.0551 -2.6234  2.3402
 2143TIP3    H230625   4.496   0.480   7.891  0.3426  1.3523  0.8953
 2144TIP3   OH230626   2.239   2.469   7.848 -0.2523 -0.1781 -0.5276
 2144TIP3    H130627   2.199   2.382   7.844 -1.6472  0.4707 -1.2817
 2144TIP3    H230628   2.332   2.453   7.832 -0.2494 -1.6625  0.6995
 2145TIP3   OH230629   5.971   2.332   0.334  0.1963 -0.1351 -0.1738
 2145TIP3    H130630   6.014   2.356   0.416  0.9769 -0.3168 -0.5229
 2145TIP3    H230631   6.008   2.391   0.269  0.4706 -0.7917 -0.6181
 2146TIP3   OH230632   6.290   0.111   1.094  0.2741  0.0319  0.0056
 2146TIP3    H130633   6.273   0.017   1.094  2.3482 -0.3893 -0.5507
 2146TIP3    H230634   6.375   0.121   1.051 -0.5500  2.3105 -1.3124
 2147TIP3   OH230635   0.328   1.832   8.987  0.0962 -0.1511  0.4894
 2147TIP3    H130636   0.415   1.849   8.950  0.0880  1.2187  1.0273
 2147TIP3    H230637   0.315   1.738   8.977  1.1208 -0.1871 -0.7206
 2148TIP3   OH230638   1.851   7.125   8.690  0.2433  0.0564  0.9409
 2148TIP3    H130639   1.804   7.056   8.736 -0.5239  0.9935  1.5907
 2148TIP3    H230640   1.906   7.166   8.757 -0.3382  0.9586  0.8912
 2149TIP3   OH230641   6.264   5.525   0.684  0.0893 -0.0519 -0.2389
 2149TIP3    H130642   6.186   5.471   0.674 -1.9114  2.0829  2.3618
 2149TIP3    H230643   6.325   5.469   0.733 -0.6713 -1.0047 -0.3502
 2150TIP3   OH230644   6.226   4.643   1.734  0.1938 -0.8095 -0.2591
 2150TIP3    H130645   6.186   4.562   1.704 -0.3605 -1.1745  1.3397
 2150TIP3    H230646   6.152   4.701   1.754  0.3900 -1.3529  2.3525
 2151TIP3   OH230647   1.355   0.024   2.099 -0.1213 -0.0673 -0.2449
 2151TIP3    H130648   1.438   0.040   2.144  0.0103  1.0556 -0.8548
 2151TIP3    H230649   1.320  -0.055   2.141  0.9361 -0.1833  0.4626
 2152TIP3   OH230650   2.200   7.029   7.535  0.2118  0.7053 -0.0216
 2152TIP3    H130651   2.148   7.049   7.613  1.4456  0.0136  1.0264
 2152TIP3    H230652   2.161   6.949   7.501 -1.0400  1.6094 -0.8069
 2153TIP3   OH230653   1.843   0.829   9.667  0.3410  0.5233  0.3238
 2153TIP3    H130654   1.928   0.821   9.710  0.7039  1.0235 -0.2820
 2153TIP3    H230655   1.810   0.914   9.697 -0.0807  0.2068  0.7786
 2154TIP3   OH230656   5.716   4.353   2.734  0.2587  0.3104  0.1719
 2154TIP3    H130657   5.663   4.413   2.786  0.7329  0.5463  0.3990
 2154TIP3    H230658   5.776   4.313   2.798  1.4396  1.2554 -0.3066
 2155TIP3   OH230659   3.871   6.659   1.832 -0.1554 -0.2847  0.1770
 2155TIP3    H130660   3.917   6.633   1.912  1.5242 -0.4268 -0.8022
 2155TIP3    H230661   3.930   6.721   1.789 -0.3663 -1.2889 -1.6678
 2156TIP3   OH230662   4.374   0.224   7.960  0.2869 -0.7657  0.2035
 2156TIP3    H130663   4.453   0.265   7.996  0.4481 -0.9551  0.0671
 2156TIP3    H230664   4.366   0.142   8.009 -1.0050  0.1903  1.7176
 2157TIP3   OH230665   7.253   1.858   1.865 -0.3267 -0.0136 -0.2507
 2157TIP3    H130666   7.224   1.910   1.790  2.8812  0.2526 -1.4181
 2157TIP3    H230667   7.304   1.919   1.918 -1.2321 -0.6120  1.3807
 2158TIP3   OH230668   3.053   0.649   0.333 -0.1218 -0.2206  0.1734
 2158TIP3    H130669   3.147   0.657   0.319 -0.2109 -0.3668 -0.5404
 2158TIP3    H230670   3.013   0.690   0.256 -0.6593  0.5620  0.8470
 2159TIP3   OH230671   6.499   7.046   0.330 -0.3454  0.2028  0.2711
 2159TIP3    H130672   6.547   6.964   0.344  1.4027  1.3951  1.6703
 2159TIP3    H230673   6.562   7.103   0.285 -1.5481  0.8151 -0.7170
 2160TIP3   OH230674   2.717   5.266   9.773  0.0823  0.2981  0.1259
 2160TIP3    H130675   2.799   5.305   9.743 -0.5733  2.3951  0.8381
 2160TIP3    H230676   2.743   5.202   9.839  1.1686  0.8088  0.2226
 2161TIP3   OH230677   5.925   2.794   1.744  0.0165  0.0735  0.3252
 2161TIP3    H130678   6.021   2.795   1.743  0.1154 -1.6534  2.0404
 2161TIP3    H230679   5.902   2.860   1.809  0.0186  0.6158 -0.2167
 2162TIP3   OH230680   0.403   6.061   1.733 -0.4183  0.0275  0.4128
 2162TIP3    H130681   0.486   6.102   1.710  0.3188 -1.9841 -0.6893
 2162TIP3    H230682   0.393   6.078   1.827  1.3835  0.0328  0.6299
 2163TIP3   OH230683   4.862   5.323   0.042  0.3068  0.1711  0.1072
 2163TIP3    H130684   4.870   5.328   0.137  0.5303  0.9074  0.0565
 2163TIP3    H230685   4.768   5.328   0.024  0.2958  0.5442  0.2665
 2164TIP3   OH230686   5.912   6.144   0.374  0.5598 -0.0650  0.6594
 2164TIP3    H130687   5.914   6.074   0.439 -2.0075 -0.6360  0.2263
 2164TIP3    H230688   5.886   6.101   0.292  0.7957  1.0949 -0.0535
 2165TIP3   OH230689   0.789   5.575   0.481  0.0369 -0.1454 -0.2963
 2165TIP3    H130690   0.855   5.581   0.412  0.2395  2.5404  0.0287
 2165TIP3    H230691   0.828   5.619   0.556 -1.0680 -0.9909  0.8225
 2166TIP3   OH230692   3.695   1.009   1.581 -0.4378 -0.0994  0.1685
 2166TIP3    H130693   3.731   0.964   1.658 -0.3569 -1.4855 -0.6591
 2166TIP3    H230694   3.628   0.950   1.548  0.2722 -0.0146 -1.4735
 2167TIP3   OH230695   3.083   0.387   1.579  0.2033  0.1179  0.7330
 2167TIP3    H130696   3.010   0.362   1.522  1.4872 -0.4243 -0.7693
 2167TIP3    H230697   3.107   0.475   1.551 -0.6700  0.8370  2.1275
 2168TIP3   OH230698   7.367   3.697   2.098 -0.3203 -0.8743  0.2200
 2168TIP3    H130699   7.281   3.739   2.094 -0.8142 -1.7492  1.0523
 2168TIP3    H230700   7.388   3.694   2.191  1.0284  0.1006 -0.0207
 2169TIP3   OH230701   6.454   5.264   1.257 -0.5296  0.2049 -0.4093
 2169TIP3    H130702   6.469   5.242   1.349 -2.0608 -0.3292 -0.2612
 2169TIP3    H230703   6.463   5.181   1.211 -1.3780  0.1581 -0.5099
 2170TIP3   OH230704   4.936   3.449   1.258 -0.3041 -0.3038 -1.2224
 2170TIP3    H130705   4.841   3.456   1.250 -0.5769  2.8703  1.8769
 2170TIP3    H230706   4.970   3.521   1.204 -0.1820  1.8679  1.5248
 2171TIP3   OH230707   5.296   3.505   8.996 -0.2025 -0.6319  0.4263
 2171TIP3    H130708   5.284   3.487   9.089  1.5585 -1.6666  0.4839
 2171TIP3    H230709   5.267   3.425   8.952  0.4986 -0.7570  0.1876
 2172TIP3   OH230710   0.051   4.005   0.925  0.6041  0.4340 -0.2128
 2172TIP3    H130711   0.132   4.012   0.874  0.6192 -2.0734 -0.6570
 2172TIP3    H230712  -0.012   3.965   0.866 -0.5091  0.9112  0.6119
 2173TIP3   OH230713   1.956   5.769   8.224  0.5812  0.4547 -0.2103
 2173TIP3    H130714   1.960   5.792   8.317 -2.1217 -0.8057  0.3121
 2173TIP3    H230715   1.903   5.689   8.222  0.5265  0.4903 -2.8525
 2174TIP3   OH230716   4.938   3.689   7.865  0.2965 -0.1592  0.0729
 2174TIP3    H130717   4.845   3.697   7.888 -0.1533 -0.3954 -1.5283
 2174TIP3    H230718   4.943   3.716   7.774  1.6498 -1.0474 -0.1549
 2175TIP3   OH230719   2.165   2.514   2.012 -0.1953 -0.0748  0.3010
 2175TIP3    H130720   2.219   2.591   2.029  0.4608 -0.5004  0.2257
 2175TIP3    H230721   2.155   2.472   2.097  0.4827 -0.5486  0.1616
 2176TIP3   OH230722   1.269   3.669   7.100 -0.1862 -0.2904  0.5705
 2176TIP3    H130723   1.226   3.743   7.143 -1.4183 -0.3494 -0.4806
 2176TIP3    H230724   1.320   3.710   7.029 -0.3905 -0.3957  0.3613
 2177TIP3   OH230725   7.402   6.730   0.651  0.5836  0.7334 -0.1952
 2177TIP3    H130726   7.319   6.689   0.627  0.7327  0.7498 -0.7603
 2177TIP3    H230727   7.450   6.737   0.569  1.5796 -0.2415  0.2816
 2178TIP3   OH230728   1.157   0.802   1.342  0.4137 -0.2707 -0.0556
 2178TIP3    H130729   1.200   0.865   1.284  0.1024 -0.2421 -0.2613
 2178TIP3    H230730   1.220   0.731   1.351 -0.3241 -1.2649 -2.1341
 2179TIP3   OH230731   6.723   4.284   9.932  0.2614 -0.0662 -0.1849
 2179TIP3    H130732   6.659   4.335   9.881  1.1357 -0.3284 -1.5750
 2179TIP3    H230733   6.669   4.224   9.984 -0.6382  0.0435 -0.9697
 2180TIP3   OH230734   5.095   0.324   0.214 -0.0325 -0.5183 -0.9278
 2180TIP3    H130735   5.145   0.258   0.166 -1.8931 -1.8227 -1.1700
 2180TIP3    H230736   5.005   0.313   0.184 -1.0746 -0.5555  1.9083
 2181TIP3   OH230737   1.443   3.011   8.375  0.0525 -0.1891 -0.2626
 2181TIP3    H130738   1.470   2.930   8.331 -0.8124 -1.2921  1.1489
 2181TIP3    H230739   1.525   3.059   8.390  0.5598 -0.7210 -1.2302
 2182TIP3   OH230740   0.310   3.940   0.803 -0.2804 -0.1307  0.5547
 2182TIP3    H130741   0.360   3.906   0.729  0.7785  0.1854  1.0989
 2182TIP3    H230742   0.376   3.967   0.866 -1.1642 -0.4604  1.6573
 2183TIP3   OH230743   6.627   6.301   8.811  0.0337  0.8336  1.1463
 2183TIP3    H130744   6.570   6.247   8.866  0.3802 -0.8042 -0.0486
 2183TIP3    H230745   6.672   6.358   8.873 -1.7745  1.1376  2.2592
 2184TIP3   OH230746   3.377   2.494   7.976  0.0314  0.0870  0.1836
 2184TIP3    H130747   3.362   2.587   7.993  1.5470  0.2063  1.0398
 2184TIP3    H230748   3.471   2.487   7.960 -0.0976 -1.2666 -0.1134
 2185TIP3   OH230749   6.348   2.653   9.454 -0.5040 -0.0311 -0.3321
 2185TIP3    H130750   6.299   2.579   9.491  1.5137 -1.9514 -1.2494
 2185TIP3    H230751   6.406   2.680   9.525  0.3099 -0.8460 -0.6613
 2186TIP3   OH230752   0.149   5.218   0.197 -0.1123 -0.3240  0.0031
 2186TIP3    H130753   0.081   5.193   0.134 -0.6663 -0.3371  0.5907
 2186TIP3    H230754   0.190   5.135   0.222  0.8390 -0.2096 -1.1429
 2187TIP3   OH230755   6.643   4.071   7.517 -0.5488  0.0122  0.6226
 2187TIP3    H130756   6.561   4.112   7.489 -0.5083  0.9761  1.8340
 2187TIP3    H230757   6.709   4.140   7.507 -0.3337  0.0241  1.9267
 2188TIP3   OH230758   6.473   4.945   1.617  0.1164 -0.1097 -0.0682
 2188TIP3    H130759   6.460   4.852   1.597  0.5778 -0.1028 -0.4145
 2188TIP3    H230760   6.508   4.946   1.706  5.0913 -0.6589 -1.7301
 2189TIP3   OH230761   6.439   6.369   0.531  0.4955  0.7113  0.3825
 2189TIP3    H130762   6.414   6.439   0.471  2.0849  0.8532 -0.1390
 2189TIP3    H230763   6.424   6.288   0.482  1.5340  0.8172 -0.1372
 2190TIP3   OH230764   2.188   6.623   0.205  0.0382 -0.0053 -0.3515
 2190TIP3    H130765   2.129   6.656   0.136  0.2477  0.0309 -0.5157
 2190TIP3    H230766   2.135   6.561   0.254  0.3721 -1.3011 -1.5696
 2191TIP3   OH230767   0.025   3.213   9.478  0.0653  0.0807 -0.0555
 2191TIP3    H130768   0.075   3.145   9.432  1.4147 -0.9491  2.6664
 2191TIP3    H230769  -0.066   3.197   9.454  0.7397  0.4410 -3.2555
 2192TIP3   OH230770   6.824   4.187   9.206  0.0921  0.2099 -0.0592
 2192TIP3    H130771   6.753   4.187   9.269  0.4499 -0.5276  0.3636
 2192TIP3    H230772   6.893   4.239   9.246  0.1216  0.1807 -0.0709
 2193TIP3   OH230773   4.733   2.809   7.319  0.0111 -0.3631 -0.3378
 2193TIP3    H130774   4.669   2.878   7.304  0.4113  0.3162  0.9392
 2193TIP3    H230775   4.814   2.856   7.341  1.1100 -1.1815 -2.3294
 2194TIP3   OH230776   6.450   3.567   1.381  0.2998 -0.2853  0.2098
 2194TIP3    H130777   6.380   3.512   1.347  0.1278 -0.6733  1.1712
 2194TIP3    H230778   6.450   3.551   1.475  0.3832  1.2051  0.4874
 2195TIP3   OH230779   4.796   6.051   8.509  0.3263 -0.3298  0.0217
 2195TIP3    H130780   4.744   6.018   8.436 -0.8056  0.7849  0.2845
 2195TIP3    H230781   4.754   6.014   8.587 -0.1205  0.5794  0.2332
 2196TIP3   OH230782   1.036   6.517   0.965  0.2368 -0.1059  0.2876
 2196TIP3    H130783   1.056   6.577   0.893  2.8523 -1.1241  0.0433
 2196TIP3    H230784   1.102   6.448   0.957 -2.1418 -2.6287  1.0417
 2197TIP3   OH230785   1.952   6.198   1.213  0.5530  0.3057 -0.1506
 2197TIP3    H130786   1.880   6.168   1.269  1.3957 -2.9112 -0.5877
 2197TIP3    H230787   1.929   6.166   1.126  3.0532 -2.1430 -0.0544
 2198TIP3   OH230788   1.448   4.349   1.174  0.0784  0.6508  0.0825
 2198TIP3    H130789   1.414   4.299   1.249  0.5809  0.9933  0.5430
 2198TIP3    H230790   1.529   4.387   1.205  1.1765 -0.5714 -1.1602
 2199TIP3   OH230791   4.936   4.235   2.150  0.1057  0.0590  0.0252
 2199TIP3    H130792   4.896   4.303   2.205 -2.1088 -0.1361 -1.2187
 2199TIP3    H230793   5.002   4.282   2.099 -1.1874  1.2815 -0.6059
 2200TIP3   OH230794   0.608   3.078   9.740  0.1648  0.6312 -0.3481
 2200TIP3    H130795   0.694   3.074   9.783  0.7725  0.0960 -1.5357
 2200TIP3    H230796   0.582   3.170   9.747  0.3226  0.5901  0.9719
 2201TIP3   OH230797   3.088   1.367   1.777  0.0461 -0.1526  0.1174
 2201TIP3    H130798   3.082   1.437   1.842  1.5169 -2.4392  3.0012
 2201TIP3    H230799   3.182   1.353   1.765 -0.2085 -0.7214 -1.4737
 2202TIP3   OH230800   5.379   5.798   9.256  0.3998  0.6992  0.3497
 2202TIP3    H130801   5.446   5.866   9.244 -0.0212  1.2090  0.7982
 2202TIP3    H230802   5.351   5.777   9.167  1.1863  0.4431  0.1537
 2203TIP3   OH230803   1.133   5.730   1.545  0.3774 -0.1351  0.6261
 2203TIP3    H130804   1.074   5.761   1.476 -0.7763  1.1271  2.0952
 2203TIP3    H230805   1.195   5.672   1.500 -0.7670  0.0652 -1.3158
 2204TIP3   OH230806   0.573   1.515   9.548 -0.0664 -0.0681  0.0791
 2204TIP3    H130807   0.502   1.482   9.603  0.3189 -2.4307 -0.7393
 2204TIP3    H230808   0.551   1.487   9.460  1.6227 -0.4324 -0.2704
 2205TIP3   OH230809   4.061   6.723   7.299 -0.2792  0.7192 -0.2397
 2205TIP3    H130810   4.119   6.659   7.341  0.6029  1.3749 -0.4209
 2205TIP3    H230811   3.976   6.679   7.295 -0.2166  0.3326  1.5108
 2206TIP3   OH230812   3.753   5.318   0.718  0.3925 -0.4521  0.2114
 2206TIP3    H130813   3.708   5.247   0.763 -0.3491 -1.5541 -2.1074
 2206TIP3    H230814   3.841   5.318   0.756 -0.3125 -0.9993  1.9231
 2207TIP3   OH230815   2.718   2.947   8.218  0.9464  0.3348  0.2281
 2207TIP3    H130816   2.700   3.033   8.255  0.5895  1.5400 -2.5416
 2207TIP3    H230817   2.652   2.889   8.258  0.8775  1.4173  1.7427
 2208TIP3   OH230818   3.195   5.012   2.331 -0.4846  0.1657  0.0482
 2208TIP3    H130819   3.154   4.936   2.374  0.6376 -0.8599 -0.6219
 2208TIP3    H230820   3.267   5.036   2.388  2.1975 -2.3756 -1.9551
 2209TIP3   OH230821   1.591   0.875   3.268  0.2232  0.6546 -0.7539
 2209TIP3    H130822   1.520   0.933   3.295 -0.8046 -0.3898 -1.1557
 2209TIP3    H230823   1.551   0.813   3.208  0.5641 -2.2434  1.7429
 2210TIP3   OH230824   3.916   6.144   8.586 -0.6128  0.1246  0.3120
 2210TIP3    H130825   3.994   6.104   8.623 -0.6816  0.4915  0.8556
 2210TIP3    H230826   3.938   6.237   8.576 -1.4460  0.5063  1.7753
 2211TIP3   OH230827   4.580   4.416   0.229  0.3186 -0.3483 -0.2941
 2211TIP3    H130828   4.572   4.325   0.258  0.0915  0.0187  0.8453
 2211TIP3    H230829   4.651   4.415   0.165  0.4728 -1.2794 -0.1195
 2212TIP3   OH230830   0.422   5.906   0.085 -0.3411  0.1375 -0.4230
 2212TIP3    H130831   0.380   5.929   0.168 -0.9177 -2.4565  0.1018
 2212TIP3    H230832   0.508   5.872   0.110 -0.6445 -0.9605 -0.8233
 2213TIP3   OH230833   1.582   6.533   2.358 -0.2928  0.2329 -0.1656
 2213TIP3    H130834   1.590   6.484   2.439 -1.1679  0.7343  0.2401
 2213TIP3    H230835   1.659   6.590   2.357 -0.5068  0.5427  0.5402
 2214TIP3   OH230836   5.627   2.659   0.740 -0.2136 -0.5331  0.0593
 2214TIP3    H130837   5.566   2.719   0.782 -1.9638 -1.1402 -1.4685
 2214TIP3    H230838   5.634   2.585   0.800  0.9383  0.5437  1.3389
 2215TIP3   OH230839   1.960   7.158   0.466 -0.4223  0.1406  0.0023
 2215TIP3    H130840   1.904   7.235   0.463  0.2826  0.9971  3.5618
 2215TIP3    H230841   1.906   7.088   0.429 -1.5590  2.0131 -2.1356
 2216TIP3   OH230842   2.121   0.079   3.648  0.1295 -0.5978 -0.3632
 2216TIP3    H130843   2.129   0.174   3.660  1.7988 -0.8293  0.5885
 2216TIP3    H230844   2.211   0.047   3.651 -0.4884 -2.3552  0.5078
 2217TIP3   OH230845   6.678   1.528   8.203  0.2660  0.5384 -0.6764
 2217TIP3    H130846   6.630   1.470   8.143 -2.2780  1.7273  0.0563
 2217TIP3    H230847   6.638   1.512   8.288  2.0366  0.7643  0.2355
 2218TIP3   OH230848   1.733   2.655   6.746  0.5156  0.3829 -0.7346
 2218TIP3    H130849   1.816   2.700   6.728  1.2621 -0.6852 -0.1554
 2218TIP3    H230850   1.753   2.599   6.821 -0.3644 -0.8752 -1.4020
 2219TIP3   OH230851   6.093   4.991   9.092  0.5769  0.2088  0.0290
 2219TIP3    H130852   6.014   5.036   9.064  1.9292  1.2622 -2.3910
 2219TIP3    H230853   6.075   4.965   9.182 -3.2686 -1.3708 -0.9676
 2220TIP3   OH230854   5.730   0.661   0.215  0.4711 -0.0537 -0.1432
 2220TIP3    H130855   5.661   0.716   0.252  0.9763  0.5088 -0.0254
 2220TIP3    H230856   5.769   0.714   0.145  1.4799  0.0693  0.4863
 2221TIP3   OH230857   5.058   6.871   1.206 -0.2176  0.1295  0.1524
 2221TIP3    H130858   5.085   6.916   1.286 -2.7478 -1.6496  2.1596
 2221TIP3    H230859   4.962   6.875   1.208 -0.3869 -1.5715 -1.8478
 2222TIP3   OH230860   3.437   3.315   8.423 -0.3160 -0.4528 -0.2497
 2222TIP3    H130861   3.347   3.348   8.428 -0.1325 -0.0169  0.1914
 2222TIP3    H230862   3.442   3.274   8.336  0.0445  2.4780 -1.7355
 2223TIP3   OH230863   0.791   0.046   9.032 -0.1562  0.2597  0.1440
 2223TIP3    H130864   0.736   0.043   8.954 -1.4625 -1.7469  1.0420
 2223TIP3    H230865   0.830   0.133   9.031 -1.7596  1.0318 -1.6193
 2224TIP3   OH230866   5.520   1.606   0.900 -0.1481 -0.5258  0.2425
 2224TIP3    H130867   5.442   1.637   0.853 -0.2712 -1.6386 -0.3271
 2224TIP3    H230868   5.535   1.518   0.865  1.2069 -0.4322  0.5426
 2225TIP3   OH230869   3.375   4.924   7.410  0.5602  0.0295 -0.0800
 2225TIP3    H130870   3.468   4.924   7.389  0.8266 -1.7809  0.9257
 2225TIP3    H230871   3.341   4.845   7.367 -0.7164  1.1128 -1.1502
 2226TIP3   OH230872   1.084   4.814   0.605  0.3929 -0.0647  1.2290
 2226TIP3    H130873   1.133   4.736   0.630  1.9583 -0.1111 -1.6088
 2226TIP3    H230874   1.012   4.781   0.552  0.3616  0.3507  1.0092
 2227TIP3   OH230875   4.244   0.204   0.448  0.0198 -0.4330 -0.0212
 2227TIP3    H130876   4.216   0.160   0.529  2.1939 -1.5712  0.1945
 2227TIP3    H230877   4.279   0.134   0.394  1.3173  0.7041 -0.7065
 2228TIP3   OH230878   5.332   2.778   9.349 -0.1022 -0.1049 -0.0506
 2228TIP3    H130879   5.393   2.704   9.357  0.0061  0.1268  1.7285
 2228TIP3    H230880   5.249   2.743   9.381 -0.6509 -0.0885 -1.3942
 2229TIP3   OH230881   6.019   6.629   8.790  0.1373  0.1232 -0.4392
 2229TIP3    H130882   6.052   6.596   8.707  0.8932  0.8911 -0.4558
 2229TIP3    H230883   5.924   6.626   8.781  0.1233 -2.3892 -0.3004
 2230TIP3   OH230884   3.151   6.794   7.948 -0.1894  0.3583 -0.0952
 2230TIP3    H130885   3.218   6.832   7.892 -0.3066  2.1973  0.9274
 2230TIP3    H230886   3.077   6.854   7.942 -1.8929 -1.7307 -1.3622
 2231TIP3   OH230887   6.962   5.114   9.265  0.4038  0.1002 -0.3855
 2231TIP3    H130888   7.034   5.134   9.325 -0.7760 -0.9156  1.4471
 2231TIP3    H230889   6.930   5.201   9.239 -0.2366  0.6764  1.9912
 2232TIP3   OH230890   6.980   0.525   0.347  0.1559  0.4003  0.0289
 2232TIP3    H130891   6.933   0.450   0.311  0.5646 -0.7314  1.6772
 2232TIP3    H230892   7.061   0.529   0.296 -0.7441  0.9941 -1.3855
 2233TIP3   OH230893   5.796   5.387   9.828  0.3725  0.0652 -0.0194
 2233TIP3    H130894   5.873   5.443   9.836  1.2614 -1.1403  0.3019
 2233TIP3    H230895   5.832   5.302   9.800 -0.9499 -0.2604 -0.8048
 2234TIP3   OH230896   4.590   0.112   1.565 -0.1910 -0.4480  0.1557
 2234TIP3    H130897   4.603   0.182   1.629  0.1399 -1.7016  1.5198
 2234TIP3    H230898   4.499   0.084   1.578 -1.4668  1.8264 -2.6644
 2235TIP3   OH230899   0.921   6.010   2.418 -0.4482 -0.0054 -0.6135
 2235TIP3    H130900   0.979   6.052   2.354 -0.8141  0.4783 -0.6362
 2235TIP3    H230901   0.882   6.083   2.466 -0.6133 -0.3469 -0.2210
 2236TIP3   OH230902   2.771   0.174   1.291  0.8250  0.4165 -0.3052
 2236TIP3    H130903   2.749   0.245   1.351  1.2965  0.3746 -0.0767
 2236TIP3    H230904   2.691   0.122   1.284  0.7847  0.3908  0.3297
 2237TIP3   OH230905   4.522   2.216   8.456 -0.0443 -0.0018  0.2977
 2237TIP3    H130906   4.481   2.238   8.373  0.3289  0.0902  0.1339
 2237TIP3    H230907   4.460   2.245   8.523 -0.7208 -0.8399  0.0405
 2238TIP3   OH230908   0.539   3.189   9.000  0.3839  0.1007  0.2162
 2238TIP3    H130909   0.445   3.195   9.021  0.9847  1.1504  2.9981
 2238TIP3    H230910   0.554   3.261   8.939 -0.3912  0.7891  0.8105
 2239TIP3   OH230911   0.062   1.897   1.190 -0.1840 -0.0033  0.7816
 2239TIP3    H130912   0.128   1.922   1.254 -0.6505 -0.7309  1.5714
 2239TIP3    H230913   0.057   1.802   1.196 -0.4956 -0.0545 -0.0801
 2240TIP3   OH230914   0.170   3.346   8.767  0.2844  0.1385 -0.3335
 2240TIP3    H130915   0.077   3.325   8.773  0.1680  0.1406 -1.7776
 2240TIP3    H230916   0.213   3.260   8.772  0.2859  0.2011  1.2094
 2241TIP3   OH230917   0.758   0.503   2.766  0.5496  0.2610  0.0342
 2241TIP3    H130918   0.688   0.535   2.823 -1.1953 -1.4749 -1.0032
 2241TIP3    H230919   0.826   0.473   2.826 -0.7470 -0.4516  1.1962
 2242TIP3   OH230920   4.345   2.772   0.046  0.5976 -0.6197  0.2002
 2242TIP3    H130921   4.424   2.793   0.096  0.4111 -0.9351  0.6376
 2242TIP3    H230922   4.365   2.799  -0.044  1.2542 -0.8209  0.2816
 2243TIP3   OH230923   2.413   0.131   9.086 -0.5629  0.4025  0.1141
 2243TIP3    H130924   2.351   0.160   9.153 -0.4615 -0.0204  0.3982
 2243TIP3    H230925   2.369   0.060   9.040  0.0956 -0.6400  1.0254
 2244TIP3   OH230926   4.753   4.718   0.360  0.7708 -0.2417  0.0719
 2244TIP3    H130927   4.723   4.781   0.426  1.7648  0.2163  0.1080
 2244TIP3    H230928   4.716   4.749   0.278  1.4377  0.5293  0.0553
 2245TIP3   OH230929   6.988   3.237   7.576  0.2380 -0.3364  0.4316
 2245TIP3    H130930   7.031   3.151   7.580  1.6221  0.2453 -0.8649
 2245TIP3    H230931   6.921   3.228   7.509  1.5347  0.0426 -0.9506
 2246TIP3   OH230932   5.834   6.843   9.261  0.1574  0.3585  0.2578
 2246TIP3    H130933   5.887   6.880   9.332  1.9476 -0.7691 -0.4246
 2246TIP3    H230934   5.886   6.854   9.182 -0.9756 -0.0868 -0.5966
 2247TIP3   OH230935   4.990   0.481   9.946 -0.1112 -0.4435 -0.5638
 2247TIP3    H130936   5.061   0.523   9.898  0.9830 -2.0043 -0.4240
 2247TIP3    H230937   4.992   0.522  10.033  0.3199 -0.1280 -0.7201
 2248TIP3   OH230938   3.635   2.379   0.321 -0.0528  0.2593  0.3476
 2248TIP3    H130939   3.593   2.465   0.329 -0.4636  0.0533  0.3858
 2248TIP3    H230940   3.565   2.320   0.296  0.3739  0.0600 -0.3827
 2249TIP3   OH230941   6.042   4.222   8.222  0.2386  0.2747  0.1514
 2249TIP3    H130942   6.132   4.211   8.190 -1.0305 -2.2132 -3.0877
 2249TIP3    H230943   6.003   4.285   8.162 -0.4765  0.7193  1.0496
 2250TIP3   OH230944   0.392   2.409   7.832  0.1365  0.3441 -0.0219
 2250TIP3    H130945   0.446   2.472   7.785 -1.2816  1.2477 -0.5123
 2250TIP3    H230946   0.302   2.440   7.819 -0.6215 -1.8437 -0.3678
 2251TIP3   OH230947   1.579   5.815   1.527  0.0157  0.0344 -0.7742
 2251TIP3    H130948   1.498   5.866   1.532 -0.3348 -0.4274 -1.5464
 2251TIP3    H230949   1.579   5.777   1.439  2.2155  1.8731 -1.6772
 2252TIP3   OH230950   6.428   4.873   8.860  0.2642  0.5266  0.1226
 2252TIP3    H130951   6.338   4.892   8.833  0.1813 -1.2138 -0.9230
 2252TIP3    H230952   6.462   4.958   8.891 -0.9776  1.7292 -1.6058
 2253TIP3   OH230953   2.948   0.841   2.412  0.2675  0.1496  0.4832
 2253TIP3    H130954   2.929   0.754   2.448  1.7647  1.1560  4.1488
 2253TIP3    H230955   2.869   0.892   2.432 -0.2791 -0.1023 -0.9240
 2254TIP3   OH230956   2.725   4.726   8.254 -0.1734 -0.1290  0.7670
 2254TIP3    H130957   2.709   4.758   8.166 -0.2718  0.3308  0.9483
 2254TIP3    H230958   2.697   4.798   8.311 -1.7127 -1.0492  1.2387
 2255TIP3   OH230959   4.983   0.906   8.465  0.0787 -0.1564 -0.3938
 2255TIP3    H130960   4.928   0.889   8.541 -2.2665 -2.2133 -2.4124
 2255TIP3    H230961   5.027   0.823   8.447 -1.5287 -0.6023 -2.7871
 2256TIP3   OH230962   1.459   1.064   2.550  0.1554  0.3605  0.4302
 2256TIP3    H130963   1.508   1.066   2.633  0.0689  0.9986  0.4724
 2256TIP3    H230964   1.376   1.022   2.573  1.1363 -1.8921  0.0910
 2257TIP3   OH230965   5.392   4.539   9.324 -0.2496  0.3099 -0.0147
 2257TIP3    H130966   5.384   4.554   9.230 -0.9611  1.3588  0.1935
 2257TIP3    H230967   5.310   4.573   9.361 -1.5225 -3.0936  0.6961
 2258TIP3   OH230968   3.527   6.964   7.577  0.9594 -0.5992 -0.2820
 2258TIP3    H130969   3.577   6.989   7.655  1.6883  0.5872 -1.0896
 2258TIP3    H230970   3.594   6.946   7.511  0.3696  1.2578 -1.4654
 2259TIP3   OH230971   3.433   7.090   0.852  0.2202 -0.4524  0.0274
 2259TIP3    H130972   3.435   6.995   0.859  1.5966 -0.4725 -0.2644
 2259TIP3    H230973   3.343   7.114   0.873  0.0746 -1.7440  1.0048
 2260TIP3   OH230974   5.135   2.318   1.242  0.2872  0.1196  0.5312
 2260TIP3    H130975   5.141   2.402   1.196  2.2234  0.0565  0.5813
 2260TIP3    H230976   5.226   2.292   1.255 -0.2702 -2.2583  0.0355
 2261TIP3   OH230977   0.427   6.675   8.239 -0.2992  0.1387 -0.2202
 2261TIP3    H130978   0.393   6.638   8.320 -1.3456 -0.2077 -0.8016
 2261TIP3    H230979   0.520   6.689   8.256 -0.2964 -0.8827  0.6936
 2262TIP3   OH230980   0.207   7.456   9.915  1.3452 -0.3745 -0.4244
 2262TIP3    H130981   0.242   7.523   9.975  0.5601 -0.8366  0.5657
 2262TIP3    H230982   0.283   7.429   9.863  2.4148 -1.0548  1.3988
 2263TIP3   OH230983   4.766   0.953   6.859  0.0893  0.2551  0.1022
 2263TIP3    H130984   4.838   0.898   6.827  0.3461 -0.2018  1.3873
 2263TIP3    H230985   4.776   0.951   6.954 -1.8779 -0.1646  0.3371
 2264TIP3   OH230986   3.193   3.204   9.326 -0.3692  0.6706  0.1903
 2264TIP3    H130987   3.144   3.262   9.268 -2.1194 -1.1171 -0.2180
 2264TIP3    H230988   3.126   3.154   9.372  1.0460  0.2020  1.8602
 2265TIP3   OH230989   5.823   2.723   8.570 -0.8275 -0.2631 -0.2391
 2265TIP3    H130990   5.900   2.759   8.526  0.8094 -1.3106  1.6325
 2265TIP3    H230991   5.776   2.677   8.501  0.7488 -0.4311 -1.2561
 2266TIP3   OH230992   3.536   4.773   1.817  1.0466  0.1281  0.3303
 2266TIP3    H130993   3.507   4.684   1.838 -0.3964  0.4633 -0.1216
 2266TIP3    H230994   3.629   4.763   1.794  0.5424 -1.5317 -1.2772
 2267TIP3   OH230995   0.817   2.913   9.315 -0.5126  1.1551  0.4163
 2267TIP3    H130996   0.904   2.930   9.350 -0.0308 -0.8592  0.3383
 2267TIP3    H230997   0.805   2.978   9.246  1.4197  0.7672 -0.3306
 2268TIP3   OH230998   3.362   0.988   8.268 -0.1324 -0.6189  0.1273
 2268TIP3    H130999   3.397   1.071   8.236 -1.6246  0.5692  1.3801
 2268TIP3    H231000   3.429   0.955   8.328 -0.4223  0.8216  1.3008
 2269TIP3   OH231001   3.346   2.750   8.531 -0.2131 -0.2122  0.0661
 2269TIP3    H131002   3.367   2.657   8.531  1.0077  0.0505 -0.2727
 2269TIP3    H231003   3.303   2.765   8.447  0.8210 -0.2140 -0.4744
 2270TIP3   OH231004   2.519   5.883   0.914 -0.9711 -0.7268 -0.7319
 2270TIP3    H131005   2.431   5.916   0.898 -2.1820 -2.9857  0.7615
 2270TIP3    H231006   2.547   5.925   0.996 -0.9696 -0.5720 -0.8124
 2271TIP3   OH231007   6.454   2.500   1.095  0.2443  0.2724  0.2972
 2271TIP3    H131008   6.510   2.475   1.021  2.0356 -0.8580  1.9514
 2271TIP3    H231009   6.369   2.519   1.055  0.9222 -1.0612 -1.9587
 2272TIP3   OH231010   6.500   4.243   9.660  0.0279 -0.1649 -0.6074
 2272TIP3    H131011   6.541   4.216   9.578 -1.8071  1.5169 -2.1643
 2272TIP3    H231012   6.534   4.330   9.677  0.2319 -0.4182  0.3273
 2273TIP3   OH231013   5.909   6.261   9.877 -0.5341 -0.1189 -0.0770
 2273TIP3    H131014   5.821   6.239   9.906 -0.2267 -1.6652 -0.2665
 2273TIP3    H231015   5.967   6.203   9.926  0.2463 -0.3621 -1.2415
 2274TIP3   OH231016   6.817   2.750   1.367 -0.1565 -0.2450 -0.4085
 2274TIP3    H131017   6.750   2.757   1.299 -1.1538  1.3693  0.6629
 2274TIP3    H231018   6.768   2.732   1.447  0.9520 -1.6088  0.0058
 2275TIP3   OH231019   7.445   5.484   1.036 -0.2657 -0.3609 -0.3380
 2275TIP3    H131020   7.458   5.390   1.033  0.5677 -0.2892  0.5241
 2275TIP3    H231021   7.403   5.500   1.120 -0.2554  0.0511 -0.4080
 2276TIP3   OH231022   3.423   7.248   7.165 -0.1776  0.3490 -0.5639
 2276TIP3    H131023   3.503   7.229   7.115  0.9285 -2.3443  1.9456
 2276TIP3    H231024   3.419   7.178   7.231 -1.8586  3.2257  2.6788
 2277TIP3   OH231025   3.860   3.888   2.485  0.1555  0.2610 -1.1125
 2277TIP3    H131026   3.917   3.897   2.409  1.0870 -0.9422 -0.5865
 2277TIP3    H231027   3.917   3.904   2.560 -0.4457  0.1318 -0.6193
 2278TIP3   OH231028   5.320   5.103   3.161 -0.0482  0.3101 -0.2854
 2278TIP3    H131029   5.267   5.074   3.086 -0.7417  0.1168  0.2753
 2278TIP3    H231030   5.325   5.027   3.218  1.8637 -0.0678 -0.8726
 2279TIP3   OH231031   4.221   1.771   9.898 -0.0788 -0.0044  0.3830
 2279TIP3    H131032   4.271   1.690   9.912  1.4964  0.8974  0.1997
 2279TIP3    H231033   4.203   1.803   9.986  0.3614  0.0717  0.4473
 2280TIP3   OH231034   1.852   0.146   6.623 -0.1895  0.1098  0.2048
 2280TIP3    H131035   1.814   0.128   6.537  0.1650 -1.7645  0.4000
 2280TIP3    H231036   1.776   0.161   6.680 -0.4157  2.2128 -0.5383
 2281TIP3   OH231037   6.485   5.537   9.335 -0.0123 -0.0119 -0.4088
 2281TIP3    H131038   6.463   5.484   9.412 -1.7500  0.2860 -0.6574
 2281TIP3    H231039   6.401   5.552   9.291  0.8103  0.6664 -1.8282
 2282TIP3   OH231040   5.035   3.878   9.331  0.1803  0.4139  0.7831
 2282TIP3    H131041   5.114   3.895   9.382 -0.1313 -0.5632  1.6428
 2282TIP3    H231042   4.963   3.912   9.385  0.0691  2.2198 -0.4505
 2283TIP3   OH231043   1.597   2.469   2.041  0.5175 -0.1627 -0.0622
 2283TIP3    H131044   1.594   2.562   2.062  1.8358 -0.6867  2.9469
 2283TIP3    H231045   1.565   2.464   1.951 -1.5650  2.9363  0.3356
 2284TIP3   OH231046   0.761   3.640   9.675 -1.0773  0.2423  0.0196
 2284TIP3    H131047   0.752   3.562   9.731 -1.1198  1.4309  1.7454
 2284TIP3    H231048   0.671   3.664   9.653 -1.2780  1.4554  1.9424
 2285TIP3   OH231049   2.947   1.300   2.874  0.1530  0.0164  0.6105
 2285TIP3    H131050   2.970   1.392   2.861  0.7222 -0.3100 -0.9719
 2285TIP3    H231051   2.851   1.300   2.876  0.1177  0.9158  3.3706
 2286TIP3   OH231052   3.054   2.668   8.012  0.1114  0.6370  0.0633
 2286TIP3    H131053   3.017   2.651   7.925  1.9076  3.3813 -1.4110
 2286TIP3    H231054   3.148   2.676   7.997  0.8108 -1.2157  2.7743
 2287TIP3   OH231055   0.579   7.140   9.510  0.5244  0.3506 -0.4061
 2287TIP3    H131056   0.560   7.046   9.505  1.2805  0.1734 -0.0415
 2287TIP3    H231057   0.493   7.181   9.522  0.4467 -0.5781  3.4530
 2288TIP3   OH231058   3.339   4.868   1.200  0.1799  0.5738  0.5101
 2288TIP3    H131059   3.263   4.840   1.150  1.3204 -1.1394 -0.3741
 2288TIP3    H231060   3.315   4.851   1.291 -0.1234 -1.0114  0.1707
 2289TIP3   OH231061   4.064   5.560   7.599  0.1259 -0.3930 -0.7942
 2289TIP3    H131062   4.036   5.645   7.634 -3.7584 -0.9604 -2.1105
 2289TIP3    H231063   4.077   5.506   7.677 -2.3062  0.0856  0.0418
 2290TIP3   OH231064   3.115   4.564   9.196  0.4180  0.0836 -0.5169
 2290TIP3    H131065   3.170   4.515   9.135 -0.1166 -2.1361  0.6487
 2290TIP3    H231066   3.051   4.609   9.142  0.9936 -0.4521 -1.6664
 2291TIP3   OH231067   1.294   6.969   9.350  0.0993  0.2335  0.3426
 2291TIP3    H131068   1.215   7.013   9.319 -0.6819 -1.1107  0.3530
 2291TIP3    H231069   1.263   6.912   9.420  1.0630 -0.3914  0.2712
 2292TIP3   OH231070   5.917   6.565   7.735 -0.0321  0.3211 -0.5515
 2292TIP3    H131071   6.010   6.546   7.719  0.0126  0.8623 -0.9924
 2292TIP3    H231072   5.871   6.506   7.675  0.1131  1.7041 -2.1163
 2293TIP3   OH231073   2.296   2.920   8.582  0.3403 -0.1208 -0.0605
 2293TIP3    H131074   2.366   2.856   8.596 -0.6648 -1.1740  0.2767
 2293TIP3    H231075   2.328   2.999   8.626  1.8081 -0.2121 -0.8791
 2294TIP3   OH231076   7.400   5.229   8.389 -0.3667 -0.0034  0.6205
 2294TIP3    H131077   7.493   5.216   8.409  0.2789 -0.3584 -2.2036
 2294TIP3    H231078   7.398   5.311   8.341 -1.7126  0.5127  1.5076
 2295TIP3   OH231079   0.492   0.172   0.548 -0.1240 -0.5362 -0.4332
 2295TIP3    H131080   0.416   0.222   0.517 -0.4656 -0.2592  0.8059
 2295TIP3    H231081   0.455   0.106   0.607  0.5357 -0.9096 -0.4271
 2296TIP3   OH231082   2.627   0.222   0.556  0.5631  0.2030  0.5950
 2296TIP3    H131083   2.591   0.310   0.548 -0.8575 -0.4390 -0.6412
 2296TIP3    H231084   2.585   0.173   0.485  0.3420 -1.7953  2.0348
 2297TIP3   OH231085   3.136   0.824   8.900  0.4378 -0.2443  0.6224
 2297TIP3    H131086   3.141   0.788   8.988  0.7636 -0.6175  0.4595
 2297TIP3    H231087   3.085   0.760   8.851  0.2352 -0.0253  0.5473
 2298TIP3   OH231088   7.048   3.726   1.469  0.6159 -0.0851  0.7506
 2298TIP3    H131089   7.073   3.716   1.561  1.5249 -0.6579  0.4519
 2298TIP3    H231090   7.023   3.638   1.441  2.3247 -0.3308 -0.0981
 2299TIP3   OH231091   2.199   1.175   1.150  0.4124 -0.1905  0.6610
 2299TIP3    H131092   2.261   1.225   1.096 -0.2974  1.5428  1.3903
 2299TIP3    H231093   2.238   1.172   1.237  0.9285 -1.8556  0.4211
 2300TIP3   OH231094   3.479   0.532   2.305  0.0429 -0.0685  0.0951
 2300TIP3    H131095   3.563   0.544   2.350  1.3070 -0.8780 -1.9107
 2300TIP3    H231096   3.491   0.574   2.220 -1.5383 -0.3371 -0.2939
 2301TIP3   OH231097   5.967   5.553   0.681 -0.0239 -0.0605 -0.1093
 2301TIP3    H131098   5.881   5.584   0.711 -0.0026  1.7391 -1.7329
 2301TIP3    H231099   6.028   5.583   0.749 -0.6099 -1.3389  1.0497
 2302TIP3   OH231100   5.771   3.042   8.543 -0.5867 -0.1399  0.0237
 2302TIP3    H131101   5.760   3.009   8.632  0.1916 -0.8329 -0.1272
 2302TIP3    H231102   5.699   3.002   8.494 -0.2037 -0.8877  0.0484
 2303TIP3   OH231103   2.928   3.177   1.211  0.2303 -0.0251 -0.4082
 2303TIP3    H131104   2.841   3.209   1.185 -0.0721 -0.5685 -0.0757
 2303TIP3    H231105   2.975   3.256   1.238  0.1126  0.3830 -1.3503
 2304TIP3   OH231106   1.353   4.642   9.176 -0.5474 -0.0760 -0.3826
 2304TIP3    H131107   1.395   4.639   9.262  1.9826  1.4169 -1.4436
 2304TIP3    H231108   1.425   4.662   9.115 -2.4217  0.0011 -2.7200
 2305TIP3   OH231109   1.256   1.031   1.615  0.2590 -0.6716 -0.1576
 2305TIP3    H131110   1.227   0.986   1.536  0.1376 -0.0513 -0.4783
 2305TIP3    H231111   1.346   1.059   1.596 -0.3517  1.0290 -0.8010
 2306TIP3   OH231112   4.680   4.003   7.803 -0.2172 -0.2380  0.0084
 2306TIP3    H131113   4.697   3.921   7.757 -0.7464  0.1378 -0.8900
 2306TIP3    H231114   4.692   4.070   7.736  0.8854  0.4875  0.8925
 2307TIP3   OH231115   4.990   5.958   7.312  0.3242 -0.3674  0.1175
 2307TIP3    H131116   5.042   5.990   7.238  0.6147  1.0140  0.8822
 2307TIP3    H231117   5.014   6.015   7.385 -2.6725  0.7318  0.3948
 2308TIP3   OH231118   4.087   0.702   9.566 -0.0526  0.6113 -0.7049
 2308TIP3    H131119   4.140   0.710   9.645  0.0134  0.4618 -0.7326
 2308TIP3    H231120   4.152   0.698   9.495 -0.1123  0.7814 -0.7691
 2309TIP3   OH231121   0.849   6.447   8.401  0.1789 -0.2866 -0.4762
 2309TIP3    H131122   0.929   6.472   8.354  0.3656  2.3267  1.0561
 2309TIP3    H231123   0.881   6.407   8.481 -0.0231  0.5046  0.0094
 2310TIP3   OH231124   5.192   6.358   8.151 -0.6232 -0.4438 -0.1514
 2310TIP3    H131125   5.140   6.313   8.217 -0.7030  0.1973  0.2326
 2310TIP3    H231126   5.134   6.425   8.116  0.1177  0.7291  0.7596
 2311TIP3   OH231127   7.016   2.108   1.822  0.3919 -0.6894 -0.1154
 2311TIP3    H131128   6.925   2.083   1.808  0.1776 -0.2483  0.4371
 2311TIP3    H231129   7.012   2.202   1.840  0.8079 -0.9128  1.2377
 2312TIP3   OH231130   3.206   4.459   0.710  0.0201  0.0178  0.2726
 2312TIP3    H131131   3.196   4.378   0.658  0.2715 -0.5299  1.0612
 2312TIP3    H231132   3.300   4.476   0.710 -0.0086  0.1747  0.3193
 2313TIP3   OH231133   3.379   2.095   8.877 -0.1732 -0.7288 -0.3741
 2313TIP3    H131134   3.365   2.020   8.935 -1.2093 -1.4382 -1.4966
 2313TIP3    H231135   3.474   2.107   8.876 -0.1739  0.8137  3.2750
 2314TIP3   OH231136   3.401   2.544   0.627 -0.5495 -0.5786 -0.2662
 2314TIP3    H131137   3.432   2.629   0.597 -1.5369  0.2996  1.0795
 2314TIP3    H231138   3.320   2.529   0.579 -0.5356 -0.6185 -0.2772
 2315TIP3   OH231139   2.021   7.426   0.752 -0.2874  0.2709  0.5196
 2315TIP3    H131140   2.068   7.343   0.751 -2.5161 -1.0618 -0.8684
 2315TIP3    H231141   2.080   7.488   0.708  1.3606 -0.5451  1.4979
 2316TIP3   OH231142   4.371   4.012   8.254 -0.5394  0.3212  0.4644
 2316TIP3    H131143   4.323   3.935   8.225  0.3797  0.2994 -1.1180
 2316TIP3    H231144   4.344   4.025   8.345 -1.7380 -1.0447  0.3276
 2317TIP3   OH231145   1.040   3.020   7.209 -0.0020  0.0536  0.5098
 2317TIP3    H131146   1.118   3.072   7.223  1.1928 -1.6370  0.4425
 2317TIP3    H231147   1.049   2.987   7.119 -1.0897  0.2911  0.2928
 2318TIP3   OH231148   3.085   4.050   7.258 -0.2880 -0.4872 -0.1385
 2318TIP3    H131149   3.180   4.038   7.258 -0.3458 -0.9584  0.0926
 2318TIP3    H231150   3.071   4.136   7.299 -0.0741 -1.3366  1.7769
 2319TIP3   OH231151   6.552   2.065   7.917  0.5146  0.4248 -0.2685
 2319TIP3    H131152   6.583   1.978   7.893 -0.9382 -0.1163 -0.3114
 2319TIP3    H231153   6.612   2.125   7.874  2.5498 -0.5255  1.1020
 2320TIP3   OH231154   6.406   1.868   9.480  0.1380 -0.7162 -0.2293
 2320TIP3    H131155   6.369   1.951   9.449 -1.4114 -1.3873 -0.2417
 2320TIP3    H231156   6.422   1.883   9.574 -0.2283 -0.4457 -0.2091
 2321TIP3   OH231157   4.887   4.388   8.143  0.0968  0.5158 -0.6661
 2321TIP3    H131158   4.962   4.338   8.112  1.8928  3.1975 -1.0189
 2321TIP3    H231159   4.883   4.370   8.237 -0.4300 -1.5567 -1.0450
 2322TIP3   OH231160   2.692   0.807   8.691 -0.3371  0.4159 -0.0170
 2322TIP3    H131161   2.694   0.838   8.782 -0.5970  1.3675 -0.3348
 2322TIP3    H231162   2.646   0.724   8.696 -0.3091  0.4319  0.7298
 2323TIP3   OH231163   2.453   4.984   1.143  0.9571  0.1772 -0.8763
 2323TIP3    H131164   2.538   5.020   1.167  0.5974 -0.4071  1.4309
 2323TIP3    H231165   2.394   5.060   1.143  0.8229  0.1064  0.9081
 2324TIP3   OH231166   2.036   5.138   8.399  0.0748  0.0728 -0.3501
 2324TIP3    H131167   1.988   5.055   8.406 -0.0127  0.1395 -0.1424
 2324TIP3    H231168   2.127   5.115   8.421  0.2511 -0.1544 -1.2622
 2325TIP3   OH231169   7.386   5.674   9.968 -0.0509 -0.2116  0.0122
 2325TIP3    H131170   7.463   5.644  10.016 -0.6973 -1.5153  0.2970
 2325TIP3    H231171   7.421   5.727   9.896  0.9991  0.6724  1.1350
 2326TIP3   OH231172   3.873   5.955   9.322 -0.3262  0.1310 -0.2750
 2326TIP3    H131173   3.885   5.974   9.415 -1.2996  0.0834 -0.1280
 2326TIP3    H231174   3.890   5.861   9.315 -1.6208 -0.1663  0.1325
 2327TIP3   OH231175   2.008   2.771   8.822  0.0941 -0.5625 -0.4659
 2327TIP3    H131176   1.936   2.788   8.761  0.4930 -2.4017 -1.5233
 2327TIP3    H231177   2.041   2.858   8.844 -2.5412  0.3798  0.2267
 2328TIP3   OH231178   6.884   5.034   0.006 -0.0604 -0.3946  0.8925
 2328TIP3    H131179   6.853   5.124  -0.003 -0.2272 -0.4390  0.9951
 2328TIP3    H231180   6.837   4.985  -0.062  0.6626 -0.2518  0.2899
 2329TIP3   OH231181   6.522   2.209   1.571  0.6417 -0.7271 -0.2985
 2329TIP3    H131182   6.445   2.246   1.528  0.3675 -0.3016  0.5316
 2329TIP3    H231183   6.565   2.157   1.504  0.6671  0.5655 -1.3281
 2330TIP3   OH231184   2.375   4.235   8.616 -0.0529  0.1042  0.4052
 2330TIP3    H131185   2.438   4.282   8.561 -1.6201  0.5402 -1.1223
 2330TIP3    H231186   2.291   4.249   8.572 -0.9553 -1.9866  1.3556
 2331TIP3   OH231187   2.976   1.930   2.378 -0.3760  0.4578 -0.2362
 2331TIP3    H131188   2.913   1.884   2.322  0.8804 -0.5694 -0.8653
 2331TIP3    H231189   2.947   1.911   2.467  0.1591 -1.7170 -0.4762
 2332TIP3   OH231190   5.624   6.431   0.554 -0.5043  0.1242 -0.0269
 2332TIP3    H131191   5.603   6.338   0.566  0.0001 -0.1410 -1.0895
 2332TIP3    H231192   5.709   6.442   0.597  0.8115 -0.5871 -2.3154
 2333TIP3   OH231193   0.480   3.186   8.458  0.3133  0.1054  0.2408
 2333TIP3    H131194   0.542   3.198   8.386  0.7246  0.9621  0.7196
 2333TIP3    H231195   0.524   3.124   8.517  0.1661 -0.2577 -0.0298
 2334TIP3   OH231196   1.741   3.812   1.592 -0.0034  0.5461  0.3225
 2334TIP3    H131197   1.765   3.848   1.678 -0.1808  0.4318  0.4219
 2334TIP3    H231198   1.823   3.810   1.543 -0.1720  2.1485 -0.0782
 2335TIP3   OH231199   3.023   5.233   1.944 -0.2666  0.0102 -0.3345
 2335TIP3    H131200   3.023   5.222   1.849 -1.4024  1.3354 -0.5246
 2335TIP3    H231201   3.028   5.328   1.957  1.5889 -0.2204  0.9781
 2336TIP3   OH231202   2.933   2.093   0.404  0.0687  0.3032  0.0804
 2336TIP3    H131203   2.937   2.034   0.480  2.3898  1.3160  0.8345
 2336TIP3    H231204   2.880   2.166   0.434 -1.1083 -0.4266 -0.1607
 2337TIP3   OH231205   6.916   3.492   1.320  0.4951  0.7413  0.3767
 2337TIP3    H131206   6.942   3.405   1.351  2.1196  1.1684  0.3213
 2337TIP3    H231207   6.828   3.480   1.285  0.7940 -0.9350  0.1224
 2338TIP3   OH231208   2.036   3.368   1.800  0.1960  0.4587 -0.2707
 2338TIP3    H131209   1.954   3.349   1.755  0.0991 -1.0511  0.4874
 2338TIP3    H231210   2.102   3.317   1.753 -0.0503 -1.9063  1.7430
 2339TIP3   OH231211   4.557   1.029   8.278 -0.1309 -0.0584 -0.2448
 2339TIP3    H131212   4.552   0.950   8.332 -0.4975  0.0375 -0.1394
 2339TIP3    H231213   4.648   1.030   8.247  0.0152 -0.2487  0.1647
 2340TIP3   OH231214   7.179   7.219   8.106  0.6326  0.0281  0.2173
 2340TIP3    H131215   7.124   7.297   8.103  0.6203  0.1497  2.2143
 2340TIP3    H231216   7.241   7.230   8.034  0.1980  1.5409  0.0423
 2341TIP3   OH231217   2.460   4.891   0.793  0.3148  0.2939  0.7686
 2341TIP3    H131218   2.544   4.845   0.784 -0.2166 -0.6325  0.5030
 2341TIP3    H231219   2.408   4.862   0.718  0.3664  2.2235 -0.0916
 2342TIP3   OH231220   7.440   4.229   0.288  0.0079  0.1409  0.2109
 2342TIP3    H131221   7.487   4.159   0.243  0.2474 -0.2943  1.1399
 2342TIP3    H231222   7.496   4.306   0.277  0.8547 -0.3301  1.1541
 2343TIP3   OH231223   0.173   4.939   1.591 -0.1463 -0.1075 -0.6949
 2343TIP3    H131224   0.214   4.916   1.674  0.9887  1.4573 -0.7843
 2343TIP3    H231225   0.146   4.855   1.554  0.3337 -0.9297  0.7225
 2344TIP3   OH231226   1.124   2.110   9.433 -0.5696 -0.2168  0.1263
 2344TIP3    H131227   1.069   2.057   9.491  0.1264 -1.3239 -0.1899
 2344TIP3    H231228   1.205   2.123   9.483 -0.7725  0.6730  0.2463
 2345TIP3   OH231229   7.169   4.785   2.128  0.1407  0.0770  0.7514
 2345TIP3    H131230   7.263   4.765   2.128  0.0033 -0.7352 -0.6551
 2345TIP3    H231231   7.164   4.875   2.096  0.3651 -0.7630 -1.9185
 2346TIP3   OH231232   6.179   4.217   2.472  1.1183  0.1197  0.2353
 2346TIP3    H131233   6.271   4.192   2.475  0.8313 -1.1398 -0.5776
 2346TIP3    H231234   6.139   4.155   2.411  0.1728  2.1044 -1.2497
 2347TIP3   OH231235   1.222   6.125   2.935 -0.0997 -0.3220 -0.5855
 2347TIP3    H131236   1.284   6.083   2.875 -1.3514 -2.1107 -0.7265
 2347TIP3    H231237   1.137   6.090   2.910 -1.0096  1.0007  0.4864
 2348TIP3   OH231238   7.100   6.833   1.784  0.2659  0.9942  0.1226
 2348TIP3    H131239   7.072   6.917   1.820 -2.5518  0.1506  0.1240
 2348TIP3    H231240   7.075   6.836   1.692  1.7616  0.7648 -0.3309
 2349TIP3   OH231241   6.161   0.860   2.267 -0.3071 -0.0745 -0.0295
 2349TIP3    H131242   6.094   0.864   2.199  0.8167  0.5597 -1.1415
 2349TIP3    H231243   6.231   0.916   2.234  0.3887  0.0099  1.5328
 2350TIP3   OH231244   5.729   4.583   9.147 -0.0903  0.2332  0.1897
 2350TIP3    H131245   5.810   4.546   9.112  0.7567  0.8751  1.4434
 2350TIP3    H231246   5.674   4.506   9.164  0.2359 -0.2075 -0.6795
 2351TIP3   OH231247   4.526   1.722   9.028 -0.4110 -0.5008 -0.0943
 2351TIP3    H131248   4.553   1.812   9.046 -1.9409  0.3852 -1.8004
 2351TIP3    H231249   4.608   1.673   9.019  0.4488  0.1762  3.0302
 2352TIP3   OH231250   6.713   5.835   9.711 -0.3324  0.0980 -0.1063
 2352TIP3    H131251   6.792   5.884   9.688  0.5983 -0.8461  0.9532
 2352TIP3    H231252   6.657   5.898   9.755  1.3224  0.0354  2.2716
 2353TIP3   OH231253   6.268   1.913   0.881  0.1084 -0.5700 -0.0577
 2353TIP3    H131254   6.341   1.911   0.819 -0.8989 -1.3831 -1.2834
 2353TIP3    H231255   6.203   1.853   0.843 -0.8650 -0.4889  1.4035
 2354TIP3   OH231256   3.725   6.638   1.534  0.6211  0.1127  0.3330
 2354TIP3    H131257   3.644   6.652   1.583  0.8805 -0.4267  0.9198
 2354TIP3    H231258   3.793   6.673   1.590  0.6884  1.8009 -0.7311
 2355TIP3   OH231259   0.989   2.113   8.907  0.0582 -0.6654 -0.0781
 2355TIP3    H131260   1.016   2.094   8.996 -0.0912  1.1608  0.4110
 2355TIP3    H231261   1.063   2.086   8.852  1.3704  0.8001  0.8850
 2356TIP3   OH231262   0.773   6.849   2.081 -0.6955 -0.0869 -0.3230
 2356TIP3    H131263   0.801   6.902   2.006 -0.2305 -0.5503 -0.4852
 2356TIP3    H231264   0.778   6.758   2.050 -1.0836 -0.2511  0.0795
 2357TIP3   OH231265   3.060   1.659   1.873  0.2589  0.0181  0.2853
 2357TIP3    H131266   3.041   1.679   1.781 -0.3796  0.9686  0.6073
 2357TIP3    H231267   3.142   1.705   1.890  1.0301 -1.1584 -0.1250
 2358TIP3   OH231268   2.124   0.723   3.151  0.0585  0.2565  0.3990
 2358TIP3    H131269   2.180   0.786   3.195 -0.7676  2.5534 -1.5779
 2358TIP3    H231270   2.039   0.731   3.194  0.1670 -0.1400  0.6905
 2359TIP3   OH231271   7.097   4.639   0.979 -0.1544  0.0828  0.0792
 2359TIP3    H131272   7.046   4.625   1.059 -1.1884 -1.6611 -0.8346
 2359TIP3    H231273   7.182   4.669   1.011 -0.8173  0.3205  1.7797
 2360TIP3   OH231274   6.727   0.863   9.789 -0.4480  0.1908 -0.0955
 2360TIP3    H131275   6.779   0.879   9.867 -2.3783  0.0742  1.2829
 2360TIP3    H231276   6.715   0.949   9.749  0.6294  0.2343 -0.3427
 2361TIP3   OH231277   1.030   7.377   8.329  0.0766  0.7228  0.2778
 2361TIP3    H131278   1.085   7.325   8.387  2.7456  0.4991 -2.2465
 2361TIP3    H231279   1.025   7.463   8.371  2.6874  0.8350  0.5010
 2362TIP3   OH231280   4.961   2.952   9.979 -0.2116 -0.4894  0.3867
 2362TIP3    H131281   4.991   2.878   9.926 -1.7792 -1.1419  0.3646
 2362TIP3    H231282   4.990   3.029   9.931 -1.6503 -1.0557 -1.5046
 2363TIP3   OH231283   0.726   2.537   0.852 -0.4352  0.0045  0.2912
 2363TIP3    H131284   0.726   2.474   0.780  0.1579  1.3169 -0.9079
 2363TIP3    H231285   0.717   2.623   0.810  0.2651  0.8502  1.7465
 2364TIP3   OH231286   6.347   6.537   8.218  0.2018 -0.5559  0.6796
 2364TIP3    H131287   6.435   6.535   8.179  0.2143  0.2023  0.6480
 2364TIP3    H231288   6.361   6.516   8.310  0.0447 -3.4628  0.1188
 2365TIP3   OH231289   1.177   2.668   9.849  0.2007 -0.2753  0.3162
 2365TIP3    H131290   1.135   2.712   9.922  0.5754 -1.5078  1.2985
 2365TIP3    H231291   1.106   2.618   9.807  0.5190 -1.8451  1.5871
 2366TIP3   OH231292   0.672   0.037   0.726 -0.1712  0.2593 -0.4058
 2366TIP3    H131293   0.652  -0.056   0.716 -0.0916  0.2653 -0.6182
 2366TIP3    H231294   0.767   0.042   0.714  0.0725  0.1454  1.1726
 2367TIP3   OH231295   3.866   1.151   9.348 -0.6781 -0.3873  0.2810
 2367TIP3    H131296   3.809   1.093   9.298 -0.8644  0.1394 -0.1223
 2367TIP3    H231297   3.820   1.164   9.431 -1.2273  0.1505 -0.0956
 2368TIP3   OH231298   0.826   0.691   8.971  0.5225 -0.3375  0.0097
 2368TIP3    H131299   0.906   0.673   9.021  0.2098 -1.1219  0.2266
 2368TIP3    H231300   0.824   0.787   8.964  0.7387 -0.2292  1.2235
 2369TIP3   OH231301   2.135   0.813   7.251  0.4400  0.6352  0.1729
 2369TIP3    H131302   2.054   0.775   7.284  1.5898 -1.5394  0.6392
 2369TIP3    H231303   2.109   0.860   7.171 -1.1183 -0.8780 -0.2493
 2370TIP3   OH231304   1.355   3.891   1.338 -0.1884 -0.6516 -0.5508
 2370TIP3    H131305   1.262   3.911   1.341 -0.0711  0.3648 -2.1167
 2370TIP3    H231306   1.387   3.937   1.259  2.0953  1.0427  1.2097
 2371TIP3   OH231307   3.015   3.557   7.780 -0.0801 -0.1780 -0.5701
 2371TIP3    H131308   2.992   3.546   7.873 -2.0053 -1.6736 -1.1659
 2371TIP3    H231309   2.993   3.474   7.739  0.4087  0.5640 -2.4561
 2372TIP3   OH231310   7.413   3.543   9.160 -0.1745  0.0949 -0.0342
 2372TIP3    H131311   7.476   3.576   9.096  0.9254 -0.0824  0.9102
 2372TIP3    H231312   7.395   3.618   9.217  0.8276 -0.3885  0.9515
 2373TIP3   OH231313   3.717   4.911   6.705  0.6348  0.1842 -0.2942
 2373TIP3    H131314   3.654   4.894   6.635 -0.6529  0.1237  0.8386
 2373TIP3    H231315   3.783   4.842   6.695  0.6720  0.3840 -1.6415
 2374TIP3   OH231316   2.907   1.107   2.147 -0.2259 -0.0527  0.2180
 2374TIP3    H131317   2.899   1.013   2.135  0.8672 -0.1143 -0.1759
 2374TIP3    H231318   2.952   1.117   2.232 -1.9502  0.1860  1.1434
 2375TIP3   OH231319   2.117   1.246   6.772 -0.3318 -0.6218 -0.3310
 2375TIP3    H131320   2.207   1.253   6.740  0.4167 -1.7135  1.3881
 2375TIP3    H231321   2.102   1.152   6.782 -1.5847 -0.4476 -0.3525
 2376TIP3   OH231322   2.839   3.915   9.700 -0.1558  0.2506 -0.4310
 2376TIP3    H131323   2.788   3.995   9.690  0.9698  1.6996  3.5593
 2376TIP3    H231324   2.781   3.854   9.746  0.3576  0.4117  0.4535
 2377TIP3   OH231325   6.603   6.438   1.320  0.5203  0.4065 -0.5756
 2377TIP3    H131326   6.573   6.432   1.230 -1.2217  0.2478 -0.0171
 2377TIP3    H231327   6.558   6.514   1.356 -0.3662 -0.6675  0.6914
 2378TIP3   OH231328   7.374   6.307   8.369  0.1584  0.5864 -0.2740
 2378TIP3    H131329   7.287   6.286   8.336 -0.2913  0.2120  1.1044
 2378TIP3    H231330   7.431   6.239   8.333 -0.6586 -0.9537  1.2030
 2379TIP3   OH231331   1.960   4.497   1.301  0.5075  0.0722 -0.3302
 2379TIP3    H131332   1.899   4.558   1.260  1.6807  0.3645 -1.7240
 2379TIP3    H231333   2.004   4.548   1.369 -1.3070 -0.3592  1.2590
 2380TIP3   OH231334   1.905   2.215   8.445 -0.1813 -0.6108 -0.4201
 2380TIP3    H131335   1.939   2.148   8.386 -1.1801 -0.6974 -0.9164
 2380TIP3    H231336   1.891   2.291   8.389 -1.4914 -0.8116 -0.3794
 2381TIP3   OH231337   1.449   2.125   0.875  0.8926  0.1296 -0.0236
 2381TIP3    H131338   1.480   2.197   0.930 -1.0403  0.0493  1.2787
 2381TIP3    H231339   1.366   2.156   0.839  0.5724 -1.0264 -0.3260
 2382TIP3   OH231340   6.545   6.289   0.782 -0.1310  0.1164  0.0940
 2382TIP3    H131341   6.514   6.312   0.694 -0.6079  0.9725  0.4656
 2382TIP3    H231342   6.543   6.194   0.784 -2.2239  0.1068 -0.1073
 2383TIP3   OH231343   2.935   1.523   8.049 -0.1915  0.2886  0.6285
 2383TIP3    H131344   2.902   1.609   8.075  0.7937  1.3450 -1.3874
 2383TIP3    H231345   2.876   1.460   8.091 -1.0227  1.9321  2.0214
 2384TIP3   OH231346   2.887   0.244   0.498  0.6393  0.5532  0.4458
 2384TIP3    H131347   2.905   0.281   0.584 -2.0341  0.4153  1.1724
 2384TIP3    H231348   2.793   0.222   0.501  0.7490 -0.5990 -2.0731
 2385TIP3   OH231349   2.505   0.630   8.809  0.3802 -0.4138  0.7739
 2385TIP3    H131350   2.453   0.698   8.765  0.4964 -1.6867 -1.4860
 2385TIP3    H231351   2.441   0.581   8.861 -0.2384 -0.4449 -0.0019
 2386TIP3   OH231352   6.807   1.539   1.318  0.1306  0.3453 -0.9461
 2386TIP3    H131353   6.755   1.481   1.374 -0.0750  1.1966 -0.2334
 2386TIP3    H231354   6.747   1.610   1.295  1.4155  2.2824  1.3230
 2387TIP3   OH231355   3.031   1.923   8.094  0.0806  0.1446  0.3822
 2387TIP3    H131356   2.983   1.841   8.107  1.3963 -0.6917  0.1287
 2387TIP3    H231357   2.966   1.992   8.112 -0.7156 -0.9345  1.8674
 2388TIP3   OH231358   2.597   1.470   8.468 -0.0443 -0.6819 -0.0428
 2388TIP3    H131359   2.515   1.501   8.430 -0.7832 -1.0336  1.1783
 2388TIP3    H231360   2.589   1.374   8.467  0.2720 -0.7129  0.2274
 2389TIP3   OH231361   6.390   2.493   0.354 -0.7027  0.4982  0.5207
 2389TIP3    H131362   6.444   2.525   0.282 -0.3302 -0.2841  0.4381
 2389TIP3    H231363   6.315   2.452   0.312 -0.6019  0.2502  0.5755
 2390TIP3   OH231364   7.162   1.607   8.493 -0.1202  0.4151  0.5954
 2390TIP3    H131365   7.089   1.646   8.541  0.4048  1.3282  0.6657
 2390TIP3    H231366   7.124   1.579   8.409 -0.7517 -0.0036  1.0079
 2391TIP3   OH231367   4.812   0.004   8.930  0.0597  0.0050 -0.3292
 2391TIP3    H131368   4.892   0.043   8.893  0.6327 -0.6927  0.1503
 2391TIP3    H231369   4.758  -0.016   8.854 -0.4030  2.0005 -0.5910
 2392TIP3   OH231370   3.933   5.271   9.168 -0.1088 -0.1332 -0.2807
 2392TIP3    H131371   3.922   5.200   9.231  0.5401  0.5045  0.5789
 2392TIP3    H231372   3.956   5.228   9.086 -2.3608 -1.0761 -0.4878
 2393TIP3   OH231373   6.133   5.713   7.604 -0.0091 -0.0923  0.4436
 2393TIP3    H131374   6.165   5.728   7.693  0.1840 -0.6173  0.4679
 2393TIP3    H231375   6.090   5.627   7.609 -2.8468  1.2190  0.8092
 2394TIP3   OH231376   7.065   0.067   0.215  0.3676 -0.2664  0.1912
 2394TIP3    H131377   7.075   0.155   0.180  3.7489 -0.5912 -0.0090
 2394TIP3    H231378   7.152   0.027   0.204  0.2219 -2.1712  4.2112
 2395TIP3   OH231379   1.574   5.343   9.514 -0.2450  0.1404  0.2663
 2395TIP3    H131380   1.587   5.437   9.504  0.8213 -0.1466 -1.5244
 2395TIP3    H231381   1.592   5.307   9.427 -0.2659 -1.7594  0.9985
 2396TIP3   OH231382   1.138   2.638   1.567 -0.5448  0.1650  0.5500
 2396TIP3    H131383   1.064   2.695   1.587 -0.5302  1.6073 -2.8162
 2396TIP3    H231384   1.164   2.663   1.478  1.8147 -2.6550  0.2971
 2397TIP3   OH231385   3.804   1.699   8.050  0.0814  0.3746  0.0166
 2397TIP3    H131386   3.845   1.613   8.036 -1.6372 -0.6286  0.8792
 2397TIP3    H231387   3.775   1.698   8.141  1.5927  2.6189  0.6162
 2398TIP3   OH231388   5.643   3.279   1.310  0.0230  0.1507 -0.3039
 2398TIP3    H131389   5.553   3.281   1.342  0.3737 -1.6940  0.9847
 2398TIP3    H231390   5.667   3.371   1.300 -0.6614  0.9199  3.4173
 2399TIP3   OH231391   3.314   2.252   1.510 -0.2731 -0.3109  0.6657
 2399TIP3    H131392   3.332   2.304   1.588 -2.3742  0.0861  0.9412
 2399TIP3    H231393   3.363   2.295   1.441  0.4170  0.2288  1.4706
 2400TIP3   OH231394   7.167   3.453   8.216  0.3995  0.9234  0.8147
 2400TIP3    H131395   7.118   3.535   8.208  0.3404  0.6955 -1.9256
 2400TIP3    H231396   7.258   3.480   8.226  0.2881  1.3206  0.7584
 2401TIP3   OH231397   7.166   4.058   0.969  0.1352  0.3012 -0.0043
 2401TIP3    H131398   7.224   4.059   0.893 -0.9771  0.7216 -0.8778
 2401TIP3    H231399   7.120   3.974   0.963 -0.1546  0.4543  0.0330
 2402TIP3   OH231400   5.404   0.254   2.030  0.2539 -0.5973  0.2005
 2402TIP3    H131401   5.361   0.215   2.106 -0.3899  0.9973  0.6960
 2402TIP3    H231402   5.441   0.336   2.063 -0.5266  0.4087 -1.2932
 2403TIP3   OH231403   3.144   0.741   7.379 -0.5753  0.2172 -0.6708
 2403TIP3    H131404   3.110   0.691   7.306 -1.8793 -0.3443  0.2812
 2403TIP3    H231405   3.126   0.687   7.456  0.6089  0.8604  0.0967
 2404TIP3   OH231406   4.254   6.106   7.989 -0.3675  0.1965  0.1902
 2404TIP3    H131407   4.199   6.097   7.911  0.6421 -2.1543 -0.3423
 2404TIP3    H231408   4.233   6.193   8.023 -3.7327 -0.2248 -0.4611
 2405TIP3   OH231409   0.327   6.791   0.912  0.5777 -0.1310  0.3613
 2405TIP3    H131410   0.331   6.842   0.993 -0.1529  0.1195  0.2454
 2405TIP3    H231411   0.315   6.701   0.942 -4.0722  0.3216  0.6063
 2406TIP3   OH231412   0.673   1.359   8.096  0.6030  0.4033 -0.0859
 2406TIP3    H131413   0.761   1.339   8.064  1.0033  0.8737  0.6626
 2406TIP3    H231414   0.645   1.433   8.043  0.1122 -0.5619 -1.2081
 2407TIP3   OH231415   6.992   3.037   0.630  0.0068 -0.6103  0.6686
 2407TIP3    H131416   6.989   2.941   0.628  0.0089 -0.6786  2.3188
 2407TIP3    H231417   6.909   3.063   0.669 -1.7884  0.3455 -3.3014
 2408TIP3   OH231418   0.666   4.034   7.928  0.5248  0.3249 -0.4737
 2408TIP3    H131419   0.685   3.942   7.946  2.0189  0.7598  0.3542
 2408TIP3    H231420   0.604   4.032   7.855  0.0218 -1.3424 -0.0394
 2409TIP3   OH231421   0.438   4.182   1.947 -0.4904  0.3128 -0.4664
 2409TIP3    H131422   0.448   4.089   1.967 -0.8757  0.1924 -0.8110
 2409TIP3    H231423   0.394   4.218   2.024  1.9536  0.7404  0.8088
 2410TIP3   OH231424   0.787   5.259   9.093  0.5997 -0.5466 -0.0236
 2410TIP3    H131425   0.794   5.226   9.182 -0.0184 -2.3390 -0.5976
 2410TIP3    H231426   0.795   5.182   9.037  0.7095  0.4906 -1.5256
 2411TIP3   OH231427   6.903   4.724   9.912 -0.6793 -0.7401  0.2627
 2411TIP3    H131428   6.899   4.746  10.005 -0.7970  0.3912  0.0138
 2411TIP3    H231429   6.929   4.632   9.909  1.3170 -0.2597  1.3733
 2412TIP3   OH231430   3.271   3.974   0.892  0.5608  0.2806 -0.2485
 2412TIP3    H131431   3.363   4.000   0.898  1.0066 -0.7758 -1.7518
 2412TIP3    H231432   3.269   3.886   0.927  0.2114  0.1488 -0.5908
 2413TIP3   OH231433   4.114   6.354   7.586 -0.1579  0.4065  0.2422
 2413TIP3    H131434   4.025   6.319   7.580 -0.6201  1.8052 -2.6095
 2413TIP3    H231435   4.117   6.424   7.521  2.1623  2.4237  2.3046
 2414TIP3   OH231436   7.147   2.861   0.122 -0.4584 -0.2412  0.3080
 2414TIP3    H131437   7.157   2.769   0.146  1.0393 -0.5608 -1.3052
 2414TIP3    H231438   7.112   2.903   0.200 -0.1269 -1.9791  1.4413
 2415TIP3   OH231439   2.821   5.004   0.367  0.5315 -0.3316 -0.4516
 2415TIP3    H131440   2.751   5.021   0.430  1.2783  0.5282  0.1739
 2415TIP3    H231441   2.824   4.908   0.359 -1.5905 -0.3652 -1.5392
 2416TIP3   OH231442   4.646   4.725   8.278 -0.4815  0.0383  0.0187
 2416TIP3    H131443   4.568   4.681   8.313 -0.2051 -0.3230  0.1886
 2416TIP3    H231444   4.710   4.719   8.349 -1.1348  2.6986  0.9528
 2417TIP3   OH231445   3.677   1.947   7.542 -0.0653 -0.5560 -0.0342
 2417TIP3    H131446   3.757   1.994   7.520 -0.3014  0.9110  1.9669
 2417TIP3    H231447   3.706   1.862   7.573  0.6330 -0.4488 -0.3815
 2418TIP3   OH231448   2.966   0.291   6.986 -0.5280  0.3206 -0.0321
 2418TIP3    H131449   2.982   0.207   7.029 -0.1661  0.0765 -0.6240
 2418TIP3    H231450   3.003   0.280   6.898 -2.5544  0.2768 -0.9316
 2419TIP3   OH231451   1.049   2.364   6.782  0.0273 -0.0279 -0.1979
 2419TIP3    H131452   1.112   2.295   6.803 -0.0647 -0.0895 -0.1229
 2419TIP3    H231453   1.099   2.427   6.729  0.2629  0.1306  0.2036
 2420TIP3   OH231454   6.349   5.662   0.990  0.3688  0.5646  0.5910
 2420TIP3    H131455   6.421   5.706   0.944  0.4106 -2.0561 -2.1832
 2420TIP3    H231456   6.392   5.612   1.059  1.3034 -0.8019 -0.9015
 2421TIP3   OH231457   3.633   0.607   1.201  0.1230 -0.3952  0.6224
 2421TIP3    H131458   3.656   0.698   1.223  3.1292 -0.2582 -2.3633
 2421TIP3    H231459   3.714   0.558   1.212 -0.2507 -1.7849 -2.0188
 2422TIP3   OH231460   2.778   3.579   1.151 -0.3056  0.2194 -0.1742
 2422TIP3    H131461   2.784   3.647   1.083 -1.2075  1.3145  0.7970
 2422TIP3    H231462   2.705   3.608   1.207 -1.0594 -1.8172 -0.0166
 2423TIP3   OH231463   2.319   0.047   1.583  0.0856 -0.2020  0.2209
 2423TIP3    H131464   2.386   0.030   1.517  0.8217 -2.0216  1.3654
 2423TIP3    H231465   2.360   0.022   1.666 -1.3415  0.5530  1.2059
 2424TIP3   OH231466   3.806   5.097   1.499  0.2050 -0.1018 -0.2014
 2424TIP3    H131467   3.854   5.152   1.561  0.1399 -1.0172  0.6761
 2424TIP3    H231468   3.714   5.112   1.521  0.2073 -1.2900  0.7095
 2425TIP3   OH231469   6.553   6.348   0.067  0.1509  0.0102 -0.7465
 2425TIP3    H131470   6.643   6.328   0.094  0.3630  2.0713  0.2267
 2425TIP3    H231471   6.560   6.370  -0.026  0.4417 -0.9871 -0.9722
 2426TIP3   OH231472   3.792   3.145   7.658  0.2596 -0.2494  0.2300
 2426TIP3    H131473   3.801   3.152   7.563 -1.3455  0.0811  0.0826
 2426TIP3    H231474   3.870   3.188   7.692  0.8261 -0.3123 -0.9318
 2427TIP3   OH231475   2.593   3.981   6.646  0.0678  0.0844 -0.2016
 2427TIP3    H131476   2.499   3.994   6.641  0.2195  0.8413 -2.3731
 2427TIP3    H231477   2.630   4.061   6.609  1.5972 -0.0130  1.0107
 2428TIP3   OH231478   5.974   2.858   9.391 -0.0785  0.2985 -0.3272
 2428TIP3    H131479   6.033   2.907   9.449  0.7859 -0.6110 -0.4272
 2428TIP3    H231480   6.029   2.830   9.318 -0.6188 -0.6241 -0.3890
 2429TIP3   OH231481   4.124   2.997   0.515  0.3238 -0.0810 -0.3324
 2429TIP3    H131482   4.206   2.965   0.551  0.1833 -0.6826 -0.5464
 2429TIP3    H231483   4.149   3.038   0.432  0.4661  0.1413 -0.1814
 2430TIP3   OH231484   0.236   4.967   0.306  0.1950 -0.2613  0.4675
 2430TIP3    H131485   0.180   4.913   0.251  0.6089 -0.2711  0.0479
 2430TIP3    H231486   0.312   4.912   0.324  0.0012 -0.3069  1.1661
 2431TIP3   OH231487   6.497   0.554   7.390  0.1456 -0.5430  0.3029
 2431TIP3    H131488   6.505   0.597   7.475 -0.4702  0.5217 -0.1692
 2431TIP3    H231489   6.486   0.461   7.412  1.6580 -0.5272  1.3231
 2432TIP3   OH231490   2.889   4.145   2.430  0.2174 -0.7038  0.1981
 2432TIP3    H131491   2.921   4.056   2.417  0.4107 -0.5911 -0.1090
 2432TIP3    H231492   2.834   4.139   2.508 -1.4082 -1.5040 -0.9704
 2433TIP3   OH231493   5.157   6.468   9.402 -0.2093  0.6813  0.3011
 2433TIP3    H131494   5.143   6.405   9.472  1.0635  1.6901  1.5177
 2433TIP3    H231495   5.088   6.534   9.414 -0.4082  0.4968  0.1759
 2434TIP3   OH231496   2.044   7.344   2.134 -0.5218 -0.0417 -0.3974
 2434TIP3    H131497   2.134   7.373   2.144 -0.4415 -0.6051  0.7337
 2434TIP3    H231498   2.049   7.273   2.070  0.2101 -1.5411  1.2383
 2435TIP3   OH231499   7.222   6.489   0.401  0.3519  0.0022  0.7344
 2435TIP3    H131500   7.212   6.584   0.403 -0.2288  0.3182 -4.0848
 2435TIP3    H231501   7.316   6.474   0.396  0.4123  0.4702  0.3644
 2436TIP3   OH231502   2.247   2.002   8.628  0.5423 -0.1344  0.1484
 2436TIP3    H131503   2.153   2.016   8.633  0.2628 -1.5152 -0.7880
 2436TIP3    H231504   2.285   2.087   8.651 -0.9358  0.7066 -0.4087
 2437TIP3   OH231505   3.099   4.483   1.255 -0.1219 -0.3372  0.2896
 2437TIP3    H131506   3.042   4.477   1.332 -0.6797  1.5355  0.0659
 2437TIP3    H231507   3.047   4.444   1.184 -0.4131 -0.2246  0.4419
 2438TIP3   OH231508   0.448   4.572   9.223 -0.0834  0.2428  0.3012
 2438TIP3    H131509   0.377   4.519   9.186 -1.5116 -0.0143  3.1622
 2438TIP3    H231510   0.404   4.635   9.280  1.7195  3.1688 -1.2409
 2439TIP3   OH231511   1.102   3.778   2.605 -0.2493  0.0777 -0.0781
 2439TIP3    H131512   1.171   3.838   2.632  0.0718  0.9690 -2.6257
 2439TIP3    H231513   1.149   3.700   2.574 -0.5268 -0.2853  0.3892
 2440TIP3   OH231514   0.200   6.669   0.418 -0.0680 -0.2146 -0.0541
 2440TIP3    H131515   0.235   6.721   0.490 -0.0908 -0.6217  0.2550
 2440TIP3    H231516   0.262   6.597   0.407  0.4980  0.4159 -1.1400
 2441TIP3   OH231517   5.146   0.552   7.987  0.6250 -0.5581 -0.0608
 2441TIP3    H131518   5.205   0.477   7.990  1.2599 -0.1382 -1.2921
 2441TIP3    H231519   5.200   0.624   7.954 -0.2864  0.1230 -0.1066
 2442TIP3   OH231520   1.176   1.591   9.808 -0.0807  0.6139  0.1377
 2442TIP3    H131521   1.138   1.548   9.732 -2.6485 -0.2806  1.7998
 2442TIP3    H231522   1.224   1.666   9.772  2.6442 -2.1790 -2.6726
 2443TIP3   OH231523   2.458   2.969   1.042 -0.3344  0.9004  0.3843
 2443TIP3    H131524   2.551   2.959   1.064 -0.6621 -1.2347  1.0513
 2443TIP3    H231525   2.419   3.010   1.119  0.1165  2.3575 -0.1301
 2444TIP3   OH231526   0.476   2.570   8.738 -0.0757 -0.0469  0.2251
 2444TIP3    H131527   0.483   2.520   8.820 -1.7281 -1.0620 -0.1980
 2444TIP3    H231528   0.383   2.564   8.715  0.3852  0.1023 -1.8011
 2445TIP3   OH231529   1.537   0.541   0.980 -0.4665 -0.5557  0.1932
 2445TIP3    H131530   1.518   0.449   0.961 -2.4754  0.3738 -2.9212
 2445TIP3    H231531   1.458   0.589   0.954  1.3029  2.2734 -0.4462
 2446TIP3   OH231532   7.430   2.981   8.752  0.4089  0.7229  0.4256
 2446TIP3    H131533   7.364   2.967   8.684  0.1770  0.1108  0.7682
 2446TIP3    H231534   7.465   2.893   8.770  0.0377  0.7843  1.5197
 2447TIP3   OH231535   2.484   3.955   8.339  0.2165  0.1237  0.1503
 2447TIP3    H131536   2.491   3.966   8.434 -0.3118  0.1029  0.1925
 2447TIP3    H231537   2.391   3.943   8.322  0.2746  0.3805 -0.4010
 2448TIP3   OH231538   1.512   5.921   0.712  0.2119  0.0729 -0.2260
 2448TIP3    H131539   1.460   5.956   0.784 -0.6572  0.6101 -1.0717
 2448TIP3    H231540   1.456   5.853   0.673  0.0140  0.8234 -1.3030
 2449TIP3   OH231541   2.448   1.819   8.491  0.2177  0.2036  0.2256
 2449TIP3    H131542   2.413   1.887   8.548  0.2628  0.5763 -0.1883
 2449TIP3    H231543   2.517   1.778   8.543  0.3430  0.6221  0.3934
 2450TIP3   OH231544   3.178   3.016   6.535  1.3038  0.7663  0.2750
 2450TIP3    H131545   3.181   2.935   6.585 -1.5154  0.9648  0.9634
 2450TIP3    H231546   3.186   2.987   6.444 -1.6923 -0.6572  0.3338
 2451TIP3   OH231547   1.069   0.234   0.745  0.3950 -0.5025  0.0299
 2451TIP3    H131548   1.158   0.238   0.779  1.1435 -2.1108 -1.5694
 2451TIP3    H231549   1.016   0.280   0.810  2.1707 -0.7584  1.7421
 2452TIP3   OH231550   6.520   3.650   9.934 -0.1133 -0.0651  0.2805
 2452TIP3    H131551   6.567   3.571   9.907 -1.1272 -0.6103  0.0271
 2452TIP3    H231552   6.582   3.699   9.988  0.9832 -0.3787 -0.6705
 2453TIP3   OH231553   5.025   0.978   0.178 -0.3848 -0.5312 -0.6888
 2453TIP3    H131554   4.953   1.000   0.118  0.2410  3.0406 -0.3365
 2453TIP3    H231555   4.986   0.984   0.265 -0.5235 -2.4870 -0.5880
 2454TIP3   OH231556   5.476   0.810   0.940 -0.0779  0.0132  0.5512
 2454TIP3    H131557   5.489   0.806   0.846  1.5670 -0.3912  0.7756
 2454TIP3    H231558   5.406   0.746   0.957  0.2174 -0.5488 -0.2900
 2455TIP3   OH231559   5.086   6.658   8.984 -0.2315 -0.1603 -0.1081
 2455TIP3    H131560   5.105   6.719   8.913 -0.4327 -0.3771 -0.3457
 2455TIP3    H231561   5.172   6.628   9.014 -0.0959  0.7349  0.4434
 2456TIP3   OH231562   0.821   2.398   8.271 -0.0067  0.5255 -0.3277
 2456TIP3    H131563   0.727   2.393   8.287  0.0036  0.0372 -0.3833
 2456TIP3    H231564   0.859   2.334   8.332  0.2357  0.3260 -0.6809
 2457TIP3   OH231565   4.819   3.557   8.511 -0.3527  0.9423 -0.3563
 2457TIP3    H131566   4.842   3.515   8.428 -1.2672  1.0433 -0.6736
 2457TIP3    H231567   4.874   3.514   8.576 -0.2101  0.2937 -0.9006
 2458TIP3   OH231568   5.878   5.402   8.726 -0.1167  0.2831  0.6934
 2458TIP3    H131569   5.795   5.417   8.682  0.1266 -0.6256 -0.1151
 2458TIP3    H231570   5.944   5.423   8.660  0.4140  3.1376  1.9744
 2459TIP3   OH231571   1.231   2.777   0.919 -0.1352  0.1935  0.5483
 2459TIP3    H131572   1.186   2.766   0.835  0.8255 -0.1354  0.0551
 2459TIP3    H231573   1.164   2.762   0.985 -1.2034  1.6417 -0.1452
 2460TIP3   OH231574   2.265   1.235   1.993  0.6531  0.0394 -0.2392
 2460TIP3    H131575   2.186   1.188   2.019  1.6367 -1.8401 -0.4859
 2460TIP3    H231576   2.235   1.303   1.933 -0.6020 -1.7130 -1.6657
 2461TIP3   OH231577   4.996   3.353   0.906 -0.2897  0.2831  0.2936
 2461TIP3    H131578   5.014   3.447   0.906  2.0309 -0.0753 -1.5984
 2461TIP3    H231579   5.024   3.323   0.819 -0.9112 -2.1920  0.8656
 2462TIP3   OH231580   6.936   6.260   1.633  0.1977  0.0030 -0.6141
 2462TIP3    H131581   6.964   6.307   1.554  0.8906 -0.0591 -0.4136
 2462TIP3    H231582   6.855   6.302   1.659  0.2699  0.4042 -1.0310
 2463TIP3   OH231583   2.483   6.807   9.824 -0.3440 -0.2413  0.0112
 2463TIP3    H131584   2.533   6.770   9.896 -1.7525  0.1175  1.2240
 2463TIP3    H231585   2.476   6.900   9.845  0.4135  0.1423 -1.3277
 2464TIP3   OH231586   4.986   1.044   9.493 -0.1819  0.4800 -0.2722
 2464TIP3    H131587   4.891   1.030   9.499 -0.1823  0.8365  0.7735
 2464TIP3    H231588   5.012   1.066   9.582  1.6465 -4.2010  0.6251
 2465TIP3   OH231589   2.313   6.974   1.861 -0.0647 -0.6495  0.1188
 2465TIP3    H131590   2.403   6.943   1.871 -0.4354 -1.6088  0.6035
 2465TIP3    H231591   2.292   6.957   1.770  0.2069 -0.5130  0.0282
 2466TIP3   OH231592   1.814   0.399   8.011  0.3897  0.4607 -0.5493
 2466TIP3    H131593   1.850   0.323   7.965 -1.2909 -1.1736  0.6375
 2466TIP3    H231594   1.839   0.474   7.958 -0.6462 -1.1999 -3.6154
 2467TIP3   OH231595   1.144   2.514   9.237 -0.8668 -0.1751 -0.1570
 2467TIP3    H131596   1.088   2.481   9.166 -0.8400  0.4469 -0.4734
 2467TIP3    H231597   1.085   2.526   9.311 -0.9116 -0.7511 -0.0947
 2468TIP3   OH231598   6.205   6.915   8.730 -0.3198 -0.0317 -0.0640
 2468TIP3    H131599   6.161   6.891   8.812 -0.4949  0.3223 -0.0523
 2468TIP3    H231600   6.260   6.990   8.753 -0.3595  0.0606 -0.2689
 2469TIP3   OH231601   4.764   0.597   1.018  0.1086 -0.3848 -0.3547
 2469TIP3    H131602   4.791   0.626   1.105  0.7043  0.1377 -0.7088
 2469TIP3    H231603   4.673   0.624   1.011 -0.0826 -0.8452  0.2822
 2470TIP3   OH231604   2.863   2.326   9.246  0.0179  0.2171  0.5044
 2470TIP3    H131605   2.919   2.328   9.168  0.1058 -0.8219  0.5245
 2470TIP3    H231606   2.774   2.329   9.212  0.0544 -0.3466  0.3453
 2471TIP3   OH231607   0.028   1.228   0.998  0.3985 -0.2335  0.2278
 2471TIP3    H131608   0.081   1.307   1.000 -0.4201  0.3078  0.9644
 2471TIP3    H231609   0.090   1.157   1.016  1.1163  0.2402 -0.3339
 2472TIP3   OH231610   2.104   0.223   1.551  0.5459 -0.0366 -0.0666
 2472TIP3    H131611   2.141   0.277   1.481  0.2584 -1.2665 -1.2021
 2472TIP3    H231612   2.165   0.150   1.560  0.4320 -0.0351  0.7831
 2473TIP3   OH231613   0.971   6.243   1.977  0.5045  0.4064 -0.7586
 2473TIP3    H131614   0.999   6.332   1.997 -1.3082  0.6550  0.9983
 2473TIP3    H231615   0.875   6.248   1.970  0.4347 -1.2270 -1.5869
 2474TIP3   OH231616   0.555   0.687   9.528  0.1192 -0.4487 -0.1352
 2474TIP3    H131617   0.548   0.678   9.433  0.3725 -0.8891 -0.1170
 2474TIP3    H231618   0.608   0.612   9.555 -0.9466 -1.0044  0.4881
 2475TIP3   OH231619   4.103   7.280   2.248 -0.1723  0.0732 -0.6983
 2475TIP3    H131620   4.111   7.184   2.249  0.3290  0.1158 -0.6407
 2475TIP3    H231621   4.029   7.297   2.189 -0.3244 -0.3510 -0.6342
 2476TIP3   OH231622   3.689   4.226   8.242 -0.0575 -0.1018 -0.1864
 2476TIP3    H131623   3.630   4.156   8.270 -0.6261  0.5478  0.2582
 2476TIP3    H231624   3.771   4.208   8.289 -0.5680  0.1799  0.8537
 2477TIP3   OH231625   5.232   1.662   7.728  0.0145 -0.3542  0.0720
 2477TIP3    H131626   5.302   1.618   7.680  0.1000 -1.6575  1.3216
 2477TIP3    H231627   5.236   1.753   7.698  1.2677 -0.7226 -0.9737
 2478TIP3   OH231628   1.127   0.616   0.734  0.9599  0.2247 -0.0068
 2478TIP3    H131629   1.047   0.581   0.694 -0.6398  2.8007  0.6577
 2478TIP3    H231630   1.192   0.616   0.664  0.6352 -2.5627 -0.3966
 2479TIP3   OH231631   3.462   4.500   1.966  0.0441  0.4054  0.5920
 2479TIP3    H131632   3.378   4.456   1.978 -0.9166  1.6922 -0.8751
 2479TIP3    H231633   3.491   4.522   2.054 -2.0839  1.5460  1.0664
 2480TIP3   OH231634   3.167   7.354   9.273 -0.2033 -0.2834 -0.1519
 2480TIP3    H131635   3.131   7.265   9.277 -0.0758 -0.3384 -0.2201
 2480TIP3    H231636   3.127   7.399   9.348 -0.4667 -0.3226 -0.2688
 2481TIP3   OH231637   6.663   1.787   8.089  0.2951  0.3169 -0.2278
 2481TIP3    H131638   6.731   1.840   8.131 -3.2902  1.6420  4.9120
 2481TIP3    H231639   6.667   1.703   8.135  0.1822 -0.6775 -1.9475
 2482TIP3   OH231640   5.807   6.511   8.449  0.2545  0.0266  0.2739
 2482TIP3    H131641   5.805   6.557   8.365 -0.4943  1.2114  0.9153
 2482TIP3    H231642   5.768   6.426   8.430 -0.7894  0.6290 -0.3948
 2483TIP3   OH231643   5.207   3.230   2.303  0.0671  0.1756  0.8369
 2483TIP3    H131644   5.158   3.277   2.235 -0.0571 -0.6144  0.3739
 2483TIP3    H231645   5.246   3.156   2.258 -1.1942 -1.1907  1.8824
 2484TIP3   OH231646   3.774   3.245   1.119 -0.4496  0.2859  0.2772
 2484TIP3    H131647   3.747   3.154   1.105 -0.4638  0.0921  1.4504
 2484TIP3    H231648   3.785   3.281   1.031  2.5281 -1.7148 -0.3130
 2485TIP3   OH231649   1.883   3.271   6.757 -0.7278  0.2776 -0.3781
 2485TIP3    H131650   1.861   3.191   6.709 -1.2611  0.7015 -0.8652
 2485TIP3    H231651   1.947   3.244   6.822 -1.2666 -0.6412 -0.2132
 2486TIP3   OH231652   0.797   3.838   1.660 -0.4929  0.3234  0.2929
 2486TIP3    H131653   0.758   3.781   1.726 -0.0463 -0.5695 -0.1845
 2486TIP3    H231654   0.886   3.804   1.649 -0.2234  1.0993 -0.0350
 2487TIP3   OH231655   6.947   3.713   1.850 -0.3708 -0.4985  0.2871
 2487TIP3    H131656   7.000   3.652   1.799  0.3734 -0.4500  0.9802
 2487TIP3    H231657   6.976   3.700   1.940 -1.0494  0.0337  0.5860
 2488TIP3   OH231658   0.334   2.372   1.563 -0.0704 -0.1302 -0.0686
 2488TIP3    H131659   0.299   2.433   1.498  0.4092  0.8310  0.5588
 2488TIP3    H231660   0.414   2.338   1.524 -0.1241 -0.0500 -0.2472
 2489TIP3   OH231661   0.398   1.963   7.351 -0.5736  0.3796  0.4687
 2489TIP3    H131662   0.466   1.988   7.289  0.2396  0.9285  1.5394
 2489TIP3    H231663   0.420   1.873   7.377 -2.4230 -0.9025 -1.9563
 2490TIP3   OH231664   7.169   5.373   0.006 -0.4961 -0.0495 -0.3499
 2490TIP3    H131665   7.098   5.437   0.009  0.9465  1.6996  3.4085
 2490TIP3    H231666   7.144   5.307   0.072  0.7737 -0.0251  0.1806
 2491TIP3   OH231667   0.866   7.033   8.921  0.8235  0.2144 -0.0705
 2491TIP3    H131668   0.840   6.949   8.884  1.1226 -0.4012  1.0776
 2491TIP3    H231669   0.962   7.034   8.913  0.9159 -0.0508  0.9207
 2492TIP3   OH231670   1.612   1.254   8.523 -0.3753  0.6324  0.5732
 2492TIP3    H131671   1.662   1.309   8.463 -0.1240 -0.3590 -0.1544
 2492TIP3    H231672   1.577   1.184   8.468 -1.8249  0.8092  1.2337
 2493TIP3   OH231673   4.934   1.330   9.841 -0.7023  0.1262 -0.8867
 2493TIP3    H131674   4.986   1.262   9.799  0.0057  0.5397 -0.6910
 2493TIP3    H231675   4.937   1.404   9.781  0.6141  0.8494  0.0018
 2494TIP3   OH231676   3.517   3.819   8.638  0.5519 -0.0112 -0.2503
 2494TIP3    H131677   3.612   3.808   8.643  0.5523  0.5648  2.3429
 2494TIP3    H231678   3.500   3.904   8.678 -1.1715 -0.7555  0.7046
 2495TIP3   OH231679   6.268   0.812   9.069  0.0091  0.2272  0.3588
 2495TIP3    H131680   6.240   0.733   9.024 -0.5071  0.0330  0.9995
 2495TIP3    H231681   6.343   0.843   9.019 -0.3603 -0.1456 -0.4507
 2496TIP3   OH231682   6.231   4.419   9.065  0.5308 -0.6493  0.1863
 2496TIP3    H131683   6.270   4.340   9.102  1.5386  0.1979  0.9830
 2496TIP3    H231684   6.305   4.477   9.048 -0.3106  0.8760  1.4230
 2497TIP3   OH231685   2.747   3.601   7.264  0.3671  0.0131 -0.6370
 2497TIP3    H131686   2.761   3.680   7.317  1.3690 -0.4401 -0.2056
 2497TIP3    H231687   2.775   3.529   7.320 -2.2814 -0.8611 -0.3259
 2498TIP3   OH231688   1.813   2.426   9.494  0.5292 -0.0040  0.3482
 2498TIP3    H131689   1.805   2.336   9.462  0.1485  0.7803 -2.0205
 2498TIP3    H231690   1.897   2.427   9.540  1.0073 -1.3757 -0.4053
 2499TIP3   OH231691   7.206   5.701   1.870 -0.0233  0.5460  0.1365
 2499TIP3    H131692   7.278   5.746   1.827 -1.1763  1.2580 -1.1287
 2499TIP3    H231693   7.149   5.772   1.900 -1.8246  0.0088 -1.7843
 2500TIP3   OH231694   3.145   1.817   0.824 -0.6210 -0.4472  0.0712
 2500TIP3    H131695   3.157   1.886   0.759  0.7391  0.4536  1.2171
 2500TIP3    H231696   3.193   1.742   0.787 -2.7220 -1.0998 -1.5271
 2501TIP3   OH231697   2.172   1.673   9.632  0.3054 -0.2183 -0.6952
 2501TIP3    H131698   2.098   1.723   9.597  0.2941 -0.0281 -0.3983
 2501TIP3    H231699   2.248   1.730   9.618 -0.0134  0.9026  1.7418
 2502TIP3   OH231700   4.556   7.346   0.984  0.0609  0.2569 -0.3750
 2502TIP3    H131701   4.522   7.261   0.956 -0.0937  0.4989 -0.9246
 2502TIP3    H231702   4.613   7.326   1.058 -0.3144 -0.2802 -0.2297
 2503TIP3   OH231703   0.925   3.459   8.682 -0.5934  0.8031  0.2794
 2503TIP3    H131704   0.888   3.450   8.594 -0.0263  0.6387  0.0523
 2503TIP3    H231705   0.895   3.380   8.728  1.1572 -0.4200 -0.5366
 2504TIP3   OH231706   2.633   2.899   5.843  0.0361  0.0842 -0.5152
 2504TIP3    H131707   2.680   2.816   5.850  0.2558  0.1414 -1.1754
 2504TIP3    H231708   2.668   2.953   5.914  0.6549 -0.0319 -0.7240
 2505TIP3   OH231709   7.291   6.562   8.325 -0.2556 -0.0144 -0.0495
 2505TIP3    H131710   7.270   6.474   8.356  0.1933  0.5018  1.8685
 2505TIP3    H231711   7.342   6.548   8.245 -1.3842 -1.4404 -0.5594
 2506TIP3   OH231712   1.612   4.291   8.028 -0.7060 -0.0700  0.6509
 2506TIP3    H131713   1.625   4.301   8.122  0.0489  0.9210  0.4620
 2506TIP3    H231714   1.572   4.374   8.000 -0.4954 -0.1714  0.0290
 2507TIP3   OH231715   4.340   3.897   0.644 -0.7623  0.0371 -0.0467
 2507TIP3    H131716   4.357   3.911   0.737 -1.7581  0.5392  0.0717
 2507TIP3    H231717   4.254   3.856   0.641 -0.5999 -0.2730 -0.7394
 2508TIP3   OH231718   5.859   3.593   1.160  0.3553 -0.7406 -0.4800
 2508TIP3    H131719   5.911   3.670   1.137 -2.0078  1.0604 -0.1924
 2508TIP3    H231720   5.923   3.523   1.172  3.0738  1.9576  2.8046
 2509TIP3   OH231721   1.516   2.101   9.285 -0.3112  0.2396 -0.1448
 2509TIP3    H131722   1.445   2.161   9.265 -1.0635 -0.3499  0.6998
 2509TIP3    H231723   1.594   2.156   9.288 -1.0032  1.1846  0.6901
 2510TIP3   OH231724   2.646   7.452   0.689  0.1424 -0.3332 -0.4830
 2510TIP3    H131725   2.664   7.521   0.625 -1.1290 -2.2262 -3.1022
 2510TIP3    H231726   2.686   7.374   0.651  0.1889 -1.3793  1.5945
 2511TIP3   OH231727   4.023   3.201   9.398 -0.2187  0.0741  0.8640
 2511TIP3    H131728   4.003   3.111   9.427 -0.0707  0.3803  1.9805
 2511TIP3    H231729   3.938   3.235   9.369 -0.4930 -0.0767  1.4585
 2512TIP3   OH231730   0.938   4.386   1.182 -0.4950  0.4599  0.1426
 2512TIP3    H131731   0.965   4.353   1.096 -2.4844 -0.2936 -0.2458
 2512TIP3    H231732   1.010   4.361   1.240  1.8922  2.7801 -1.5605
 2513TIP3   OH231733   2.871   6.787   7.389  0.3944  0.1607 -0.9300
 2513TIP3    H131734   2.805   6.803   7.457 -0.4982  0.0380 -1.7491
 2513TIP3    H231735   2.939   6.851   7.407  1.9401 -2.0632  2.2471
 2514TIP3   OH231736   2.646   2.208   1.571  0.1363 -0.8710  0.5663
 2514TIP3    H131737   2.623   2.291   1.614 -1.2765 -0.8190 -0.2175
 2514TIP3    H231738   2.567   2.154   1.580  0.8607 -1.9601  0.6248
 2515TIP3   OH231739   6.814   7.130   0.292  0.1437  0.0092  0.0264
 2515TIP3    H131740   6.850   7.052   0.336 -0.7963  0.0514  0.9233
 2515TIP3    H231741   6.843   7.203   0.346  0.4915  0.2346 -0.4582
 2516TIP3   OH231742   2.797   6.130   9.429 -0.2282  0.7936  0.2817
 2516TIP3    H131743   2.702   6.130   9.436 -0.2919 -2.0924  0.9173
 2516TIP3    H231744   2.827   6.155   9.517 -0.4564 -0.2505  0.6675
 2517TIP3   OH231745   3.420   1.945   9.154 -0.0117  0.4589  0.1364
 2517TIP3    H131746   3.495   2.005   9.158 -0.2337  0.7850 -0.4375
 2517TIP3    H231747   3.346   1.996   9.187 -0.0657  0.2709  0.3113
 2518TIP3   OH231748   0.049   3.897   1.986 -0.0383 -0.3329 -0.0999
 2518TIP3    H131749   0.009   3.819   2.025  0.1049 -0.7448 -0.7426
 2518TIP3    H231750   0.143   3.883   1.997  0.0350  2.0033  4.0595
 2519TIP3   OH231751   7.282   7.099   1.621 -0.6009 -0.4066  0.2685
 2519TIP3    H131752   7.195   7.061   1.608  0.5167 -2.4119 -2.5041
 2519TIP3    H231753   7.283   7.177   1.566 -0.4966 -0.6633 -0.0954
 2520TIP3   OH231754   2.461   1.179   7.647 -0.2282  0.5605 -0.0427
 2520TIP3    H131755   2.486   1.224   7.566 -0.3402 -3.2596 -2.4515
 2520TIP3    H231756   2.542   1.176   7.698  0.9662 -0.3435 -1.8716
 2521TIP3   OH231757   7.483   6.642   9.431  0.4357  0.6391 -0.0350
 2521TIP3    H131758   7.578   6.637   9.428  0.4580  0.5701  0.6963
 2521TIP3    H231759   7.454   6.564   9.383  0.7151  1.5775 -1.8470
 2522TIP3   OH231760   6.117   4.659   1.351  0.1355 -0.2894  0.2864
 2522TIP3    H131761   6.126   4.692   1.262 -0.8820  0.0728  0.3066
 2522TIP3    H231762   6.203   4.676   1.392  0.6193 -0.5023 -0.6277
 2523TIP3   OH231763   2.843   2.800   2.785 -0.1712  0.1178 -0.3393
 2523TIP3    H131764   2.797   2.729   2.830  1.4496 -0.5568  0.3066
 2523TIP3    H231765   2.797   2.880   2.813 -0.3558 -0.4552  1.0241
 2524TIP3   OH231766   5.010   1.963   0.648 -0.4345 -0.3188  0.1153
 2524TIP3    H131767   4.945   1.925   0.707  0.9641 -0.9001  1.3662
 2524TIP3    H231768   5.018   1.899   0.577 -0.7161 -0.5803  0.3174
 2525TIP3   OH231769   3.517   5.396   0.274 -0.7276  0.7183 -0.0589
 2525TIP3    H131770   3.573   5.374   0.348 -1.1151 -1.5932 -0.3858
 2525TIP3    H231771   3.428   5.392   0.309 -1.0699 -2.4144 -0.9728
 2526TIP3   OH231772   4.633   2.520   9.419  0.1510  0.4177  0.1507
 2526TIP3    H131773   4.619   2.443   9.475  0.7559 -0.4440 -0.8558
 2526TIP3    H231774   4.558   2.576   9.437  0.2522  0.0875  1.7004
 2527TIP3   OH231775   1.934   3.307   2.069  0.4704  0.0710  0.4971
 2527TIP3    H131776   1.933   3.211   2.067  0.3545  0.0613  0.8580
 2527TIP3    H231777   1.970   3.332   1.984  0.5107 -0.2924  0.4020
 2528TIP3   OH231778   1.020   2.966   2.302 -0.3705  0.1872  0.2487
 2528TIP3    H131779   1.005   3.053   2.265 -0.2288 -0.5132 -1.5197
 2528TIP3    H231780   1.080   2.982   2.376 -0.4591  1.5894  0.0464
 2529TIP3   OH231781   4.062   0.798   9.049 -0.0128  0.2708  0.2457
 2529TIP3    H131782   4.043   0.705   9.064 -0.1393  0.4614  1.3344
 2529TIP3    H231783   4.011   0.844   9.116  3.0102  0.9182  2.2983
 2530TIP3   OH231784   6.175   6.462   1.098 -0.1669 -0.1688  0.1739
 2530TIP3    H131785   6.235   6.448   1.172  1.1549  1.4968 -0.5106
 2530TIP3    H231786   6.207   6.402   1.031 -1.1913 -1.4742  0.8039
 2531TIP3   OH231787   6.790   7.132   7.387 -0.7351 -1.2970 -0.4558
 2531TIP3    H131788   6.739   7.129   7.468 -0.6606 -2.2370 -0.4356
 2531TIP3    H231789   6.868   7.182   7.410 -0.8218 -1.3648 -0.0023
 2532TIP3   OH231790   2.407   3.603   2.165 -0.1084  0.6207 -0.5373
 2532TIP3    H131791   2.451   3.687   2.162  0.6477  0.3404  1.6039
 2532TIP3    H231792   2.475   3.541   2.192 -1.2752 -0.1957  0.6243
 2533TIP3   OH231793   3.038   1.771   0.118  0.0238 -0.3369  0.4158
 2533TIP3    H131794   3.129   1.796   0.135 -0.3143  0.0130  1.8781
 2533TIP3    H231795   3.044   1.685   0.078  1.0427  0.2533 -0.7754
 2534TIP3   OH231796   1.253   0.317   8.869  0.1569 -0.3736 -0.1496
 2534TIP3    H131797   1.247   0.229   8.906 -0.7286  0.2337  1.2217
 2534TIP3    H231798   1.326   0.358   8.915  0.0164 -0.1060 -0.1629
 2535TIP3   OH231799   7.445   4.779   0.531 -0.0001  0.5578  0.1237
 2535TIP3    H131800   7.363   4.819   0.558 -0.8558  2.0702 -3.9684
 2535TIP3    H231801   7.513   4.838   0.563 -0.7742  1.2818  0.4585
 2536TIP3   OH231802   5.712   3.682   0.150 -0.7092 -0.1357 -0.3471
 2536TIP3    H131803   5.709   3.678   0.054 -0.3525  0.3129 -0.3810
 2536TIP3    H231804   5.648   3.749   0.172  0.6779  1.2752 -0.4075
 2537TIP3   OH231805   5.026   0.738   0.050 -0.1431 -0.2804  0.9988
 2537TIP3    H131806   5.057   0.781  -0.029 -2.0498 -0.2146  0.2492
 2537TIP3    H231807   5.030   0.805   0.118 -2.3689  0.9392  0.0100
 2538TIP3   OH231808   4.957   5.341   0.342 -0.2235 -0.3445  0.2250
 2538TIP3    H131809   4.969   5.340   0.436 -1.0549 -1.1139  0.3374
 2538TIP3    H231810   4.932   5.251   0.320 -0.9344  0.0431 -0.6019
 2539TIP3   OH231811   3.042   5.560   7.769  0.4004 -0.0802 -0.0409
 2539TIP3    H131812   2.970   5.530   7.714 -0.3401  3.0666 -0.9799
 2539TIP3    H231813   3.121   5.533   7.721 -0.2239  1.1849 -1.9087
 2540TIP3   OH231814   6.992   5.694   9.167 -0.2543 -0.5295  0.2878
 2540TIP3    H131815   7.007   5.654   9.081 -0.5436 -0.7157  0.3228
 2540TIP3    H231816   6.959   5.782   9.147 -0.8058 -0.7540  0.2054
 2541TIP3   OH231817   7.183   3.131   1.665 -0.1241  0.2129  0.4394
 2541TIP3    H131818   7.137   3.054   1.631 -0.4912 -0.0315  1.4405
 2541TIP3    H231819   7.271   3.099   1.686 -0.3377 -0.0058  1.0464
 2542TIP3   OH231820   3.657   0.079   1.481  0.6705 -0.3063 -0.3322
 2542TIP3    H131821   3.638   0.152   1.540 -1.4260 -0.4866 -0.7174
 2542TIP3    H231822   3.646   0.116   1.393  0.0490 -0.9643 -0.5376
 2543TIP3   OH231823   2.402   1.244   9.037 -0.3341  0.1071 -0.1164
 2543TIP3    H131824   2.317   1.227   9.078  0.0541 -0.0918  0.6125
 2543TIP3    H231825   2.417   1.168   8.981 -0.1231 -0.4009  0.6166
 2544TIP3   OH231826   2.945   3.409   2.439 -0.1356 -0.8375 -0.4923
 2544TIP3    H131827   3.021   3.382   2.387  0.4738  0.9893 -0.6255
 2544TIP3    H231828   2.981   3.429   2.525 -0.7746 -1.6242 -0.0258
 2545TIP3   OH231829   0.825   0.311   7.996  0.4117 -0.2767 -0.2917
 2545TIP3    H131830   0.752   0.284   8.052  1.3298 -0.8544  0.6718
 2545TIP3    H231831   0.841   0.403   8.019  0.9273 -0.5739  0.5869
 2546TIP3   OH231832   0.215   0.834   1.160 -0.5769  0.0526  0.4313
 2546TIP3    H131833   0.226   0.852   1.253 -1.0312  1.9546  0.1411
 2546TIP3    H231834   0.125   0.860   1.140 -0.5834 -0.6039 -0.4917
 2547TIP3   OH231835   6.655   7.145   0.066 -0.0276  0.6838  1.0055
 2547TIP3    H131836   6.648   7.052   0.085  1.2323  0.0104 -1.4986
 2547TIP3    H231837   6.734   7.173   0.113  2.6968 -0.8125 -2.2750
 2548TIP3   OH231838   6.916   4.802   2.068 -0.1942  0.2158 -0.4712
 2548TIP3    H131839   6.875   4.715   2.065 -2.0235  1.0362 -1.1118
 2548TIP3    H231840   7.004   4.786   2.101 -0.6349 -1.8236 -0.1245
 2549TIP3   OH231841   4.242   6.204   8.894 -0.2943  0.0027 -0.1031
 2549TIP3    H131842   4.277   6.207   8.983 -0.1280  1.2379 -0.1940
 2549TIP3    H231843   4.259   6.291   8.859  1.0800 -0.9449 -1.9091
 2550TIP3   OH231844   5.039   6.081   9.840  0.2071 -0.1745  0.6791
 2550TIP3    H131845   5.063   5.988   9.839  0.9326  0.0056 -0.0491
 2550TIP3    H231846   4.949   6.082   9.872  0.9604 -0.9277  3.0467
 2551TIP3   OH231847   3.921   6.401   1.278 -0.4682  0.1329  0.1604
 2551TIP3    H131848   3.929   6.496   1.274  0.3465  0.0594 -0.0475
 2551TIP3    H231849   3.857   6.380   1.210 -1.5116  0.6195  0.9646
 2552TIP3   OH231850   4.975   2.629   0.037 -0.4363  0.4877  0.0544
 2552TIP3    H131851   4.985   2.543  -0.002 -2.6483  0.4160 -0.5106
 2552TIP3    H231852   5.046   2.681   0.000 -0.1354 -0.6239 -0.9953
 2553TIP3   OH231853   2.740   0.949   2.532  0.8352  0.3762 -0.2820
 2553TIP3    H131854   2.785   0.975   2.612 -0.3444  1.9054 -0.0473
 2553TIP3    H231855   2.722   1.032   2.487 -1.1128 -0.1815 -0.6495
 2554TIP3   OH231856   6.341   3.542   2.473 -0.4142  0.4417 -0.1583
 2554TIP3    H131857   6.267   3.602   2.466 -0.5322  0.2631 -0.4832
 2554TIP3    H231858   6.412   3.595   2.510 -0.6212  0.6869 -0.1110
 2555TIP3   OH231859   6.300   7.026   1.056  0.7805  0.3993  0.4110
 2555TIP3    H131860   6.386   7.055   1.087  1.3737 -0.6175 -0.2445
 2555TIP3    H231861   6.258   6.988   1.134  1.0940  0.4944  0.6284
 2556TIP3   OH231862   7.295   1.406   9.370 -0.1289 -0.0537 -0.6036
 2556TIP3    H131863   7.216   1.354   9.358  0.2412 -0.7066 -0.2424
 2556TIP3    H231864   7.317   1.436   9.282  0.1677 -1.2716 -0.9624
 2557TIP3   OH231865   7.480   4.631   8.453 -0.0049  0.0019 -0.5406
 2557TIP3    H131866   7.479   4.598   8.363  0.2009  0.2788 -0.6481
 2557TIP3    H231867   7.544   4.703   8.451  0.5141 -0.4286 -0.0175
 2558TIP3   OH231868   4.941   5.953   1.816  0.1040  0.2578 -0.4491
 2558TIP3    H131869   4.939   6.043   1.847  2.7300  0.3004 -0.1500
 2558TIP3    H231870   4.934   5.960   1.721 -0.6481  0.6887 -0.3652
 2559TIP3   OH231871   5.637   0.493   1.377  0.5544  0.2479 -0.5022
 2559TIP3    H131872   5.726   0.503   1.411  0.8375  1.2303 -1.4501
 2559TIP3    H231873   5.589   0.569   1.411 -0.4413 -1.1770  1.4403
 2560TIP3   OH231874   3.521   4.713   2.173  0.0192 -0.5894  0.0496
 2560TIP3    H131875   3.607   4.678   2.152  0.3039  0.6931 -1.0385
 2560TIP3    H231876   3.524   4.805   2.144 -1.6224 -0.4459  0.2158
 2561TIP3   OH231877   2.180   6.260   9.216  0.1474 -0.0071 -0.0939
 2561TIP3    H131878   2.162   6.287   9.307 -2.4604 -1.2138 -0.1597
 2561TIP3    H231879   2.144   6.331   9.163 -0.4061 -0.3457 -0.1821
 2562TIP3   OH231880   1.263   1.665   8.163 -0.3487  0.5314  0.1846
 2562TIP3    H131881   1.227   1.695   8.079 -1.5688 -1.4557 -0.0672
 2562TIP3    H231882   1.188   1.627   8.209  0.6974 -0.2683  1.2997
 2563TIP3   OH231883   5.225   6.201   2.389 -0.4015  0.2040  0.1774
 2563TIP3    H131884   5.220   6.164   2.477 -2.2399 -0.9692 -0.3577
 2563TIP3    H231885   5.181   6.286   2.395  1.0824  0.9669  0.7412
 2564TIP3   OH231886   5.316   2.818   0.493  0.5766 -0.5595 -0.3521
 2564TIP3    H131887   5.378   2.884   0.522  0.2621  0.6531 -2.2229
 2564TIP3    H231888   5.370   2.742   0.471  1.2792  0.0773 -0.8643
 2565TIP3   OH231889   5.852   1.697   1.324 -0.1904 -0.5048 -0.3858
 2565TIP3    H131890   5.893   1.634   1.384  0.9462 -0.5690 -1.1951
 2565TIP3    H231891   5.809   1.643   1.258  1.1944 -0.4888 -1.3564
 2566TIP3   OH231892   0.210   0.464   1.837  0.0582  0.5485  0.4965
 2566TIP3    H131893   0.271   0.459   1.910  0.1478  0.4029  0.4129
 2566TIP3    H231894   0.217   0.379   1.794 -0.3666  0.4538  0.6157
 2567TIP3   OH231895   5.395   0.486   2.367  0.3267  0.3750 -0.8550
 2567TIP3    H131896   5.360   0.575   2.373 -0.6671  0.0453 -1.4849
 2567TIP3    H231897   5.332   0.433   2.417  0.8993  0.0259 -0.5024
 2568TIP3   OH231898   2.474   5.761   2.350 -0.2341  0.9378 -0.1487
 2568TIP3    H131899   2.389   5.721   2.333 -0.2106  1.7152 -2.6446
 2568TIP3    H231900   2.455   5.855   2.358 -0.0009  0.8010  3.0990
 2569TIP3   OH231901   4.557   0.840   0.808 -0.0597 -0.0701  0.1665
 2569TIP3    H131902   4.575   0.929   0.837 -0.9632  0.7867 -1.7175
 2569TIP3    H231903   4.619   0.825   0.737 -0.3005 -0.7223  0.0859
 2570TIP3   OH231904   1.382   1.829   1.840 -0.0359  0.5808 -0.1145
 2570TIP3    H131905   1.388   1.917   1.801  1.1459  0.4297 -0.3214
 2570TIP3    H231906   1.450   1.828   1.907 -0.3135 -0.0502  0.1610
 2571TIP3   OH231907   1.842   4.092   0.462  0.0651 -0.2755  0.0331
 2571TIP3    H131908   1.848   4.054   0.375 -0.9328 -1.1471  0.3333
 2571TIP3    H231909   1.754   4.071   0.493  0.1355  0.6625  0.9656
 2572TIP3   OH231910   0.439   0.177   8.729 -0.4230  0.3745 -0.0371
 2572TIP3    H131911   0.490   0.258   8.725 -1.7513  1.3886  2.1260
 2572TIP3    H231912   0.351   0.202   8.703 -0.7638 -0.4713  0.2673
 2573TIP3   OH231913   0.600   6.852   0.830 -0.0297 -0.3587 -0.2113
 2573TIP3    H131914   0.657   6.781   0.800  0.7186 -0.3829  1.1632
 2573TIP3    H231915   0.520   6.809   0.858  0.1519 -0.5923 -0.0424
 2574TIP3   OH231916   2.696   6.586   9.335 -0.1018 -0.2114  0.5238
 2574TIP3    H131917   2.721   6.576   9.243  0.7737 -0.3090  0.7664
 2574TIP3    H231918   2.607   6.551   9.339  0.0596 -0.7266 -0.1768
 2575TIP3   OH231919   4.471   6.911   9.803  0.2446 -0.2158  0.5663
 2575TIP3    H131920   4.523   6.851   9.856 -0.5615 -1.7373 -0.2986
 2575TIP3    H231921   4.535   6.956   9.747  0.7330 -1.3879  0.1628
 2576TIP3   OH231922   5.516   2.914   9.546  0.6243  0.1785  0.3073
 2576TIP3    H131923   5.595   2.940   9.500  0.2412 -1.5418 -1.4444
 2576TIP3    H231924   5.452   2.895   9.477 -0.1716 -1.8937  1.5089
 2577TIP3   OH231925   5.218   5.707   0.264 -0.0349 -0.2128  0.2325
 2577TIP3    H131926   5.184   5.678   0.349  0.5148 -0.1605  0.4792
 2577TIP3    H231927   5.143   5.704   0.205 -0.8330  1.3508  1.1041
 2578TIP3   OH231928   2.362   2.703   2.081 -0.0953 -0.0959 -0.0685
 2578TIP3    H131929   2.332   2.746   2.161  1.2157  1.9473 -0.5978
 2578TIP3    H231930   2.456   2.717   2.080 -0.1414  0.3710 -2.1869
 2579TIP3   OH231931   0.660   5.268   8.688 -0.2437  0.0081  0.0702
 2579TIP3    H131932   0.720   5.204   8.727 -0.8339 -0.3014  0.4982
 2579TIP3    H231933   0.619   5.311   8.764  0.3783  1.1328 -0.2085
 2580TIP3   OH231934   2.591   2.199   9.951 -0.0427 -0.0229 -0.3181
 2580TIP3    H131935   2.642   2.129   9.909 -0.6440  0.7423 -2.4553
 2580TIP3    H231936   2.653   2.240  10.011  1.2031 -0.5603 -1.1747
 2581TIP3   OH231937   6.193   7.378   9.875 -0.6747 -0.3452 -0.3176
 2581TIP3    H131938   6.104   7.369   9.909 -0.4076 -0.3978  0.3896
 2581TIP3    H231939   6.194   7.324   9.796 -1.3077 -0.2306 -0.4132
 2582TIP3   OH231940   3.475   2.412   1.696 -0.4586  0.3389 -0.0268
 2582TIP3    H131941   3.551   2.358   1.718  0.4467  1.9993  1.1320
 2582TIP3    H231942   3.511   2.482   1.641 -0.7917  1.9750  1.7222
 2583TIP3   OH231943   3.129   3.242   7.433  0.2166 -0.8490 -0.4804
 2583TIP3    H131944   3.035   3.226   7.419 -0.4817  2.5563 -0.4486
 2583TIP3    H231945   3.149   3.192   7.513 -2.3252  0.4632  1.1287
 2584TIP3   OH231946   3.646   0.989   8.717 -0.6119  0.2349 -0.0240
 2584TIP3    H131947   3.583   0.943   8.773 -0.5528  1.4957  1.1305
 2584TIP3    H231948   3.596   1.062   8.681 -0.2955  0.1569 -0.6348
 2585TIP3   OH231949   1.941   6.084   1.773 -0.0482  0.4694 -0.1424
 2585TIP3    H131950   1.894   6.044   1.699 -0.0977 -0.1729  0.2254
 2585TIP3    H231951   1.871   6.111   1.833  0.0378 -1.6602  1.0084
 2586TIP3   OH231952   6.778   3.980   0.714 -0.7121  0.5201  0.2338
 2586TIP3    H131953   6.842   4.050   0.701 -0.5451  0.4922  0.8673
 2586TIP3    H231954   6.810   3.933   0.791  0.4084 -1.6144 -1.4285
 2587TIP3   OH231955   6.724   3.617   9.601  0.2171  0.0535 -0.6101
 2587TIP3    H131956   6.682   3.657   9.524 -1.8372  0.8252  0.8241
 2587TIP3    H231957   6.735   3.690   9.662  2.5406 -0.4012 -0.4230
 2588TIP3   OH231958   1.308   0.788   7.244  0.1158 -0.3771 -0.6736
 2588TIP3    H131959   1.402   0.793   7.265  0.0740 -0.7107 -0.4025
 2588TIP3    H231960   1.268   0.746   7.320 -0.1652 -0.7888 -1.0384
 2589TIP3   OH231961   3.813   3.137   1.413 -0.0599  0.0763 -0.6205
 2589TIP3    H131962   3.732   3.125   1.364 -0.6926  0.1766  0.3750
 2589TIP3    H231963   3.824   3.232   1.418  0.0886  0.0636 -0.6981
 2590TIP3   OH231964   3.472   6.806   8.387 -0.0564 -0.2428 -0.2356
 2590TIP3    H131965   3.443   6.807   8.296  1.1981 -2.0231 -0.7342
 2590TIP3    H231966   3.515   6.890   8.400 -0.3212  0.0647 -1.2846
 2591TIP3   OH231967   1.817   3.586   7.387  0.2824  0.2422 -0.1424
 2591TIP3    H131968   1.737   3.552   7.348  1.7792 -1.5423 -1.9005
 2591TIP3    H231969   1.854   3.643   7.320  1.2389 -0.1805  0.0042
 2592TIP3   OH231970   3.049   1.315   9.114  0.0076  0.1628 -0.1953
 2592TIP3    H131971   3.116   1.306   9.046  0.0649 -0.3544 -0.0720
 2592TIP3    H231972   2.982   1.371   9.074  0.1537  0.0585 -0.5946
 2593TIP3   OH231973   1.173   7.442   7.145 -0.3594  0.1742  0.2123
 2593TIP3    H131974   1.119   7.365   7.129  2.3789 -1.9410  0.4187
 2593TIP3    H231975   1.220   7.457   7.063 -0.7926  1.6370  0.1913
 2594TIP3   OH231976   1.346   7.188   1.055  0.4268  0.6877 -0.4105
 2594TIP3    H131977   1.322   7.187   0.962  1.7904 -1.9246 -0.8301
 2594TIP3    H231978   1.294   7.119   1.095  0.9064  0.8056  0.4457
 2595TIP3   OH231979   4.684   6.750   7.539  0.3350 -0.1710 -0.3064
 2595TIP3    H131980   4.658   6.805   7.465 -1.1339 -0.1191  0.2093
 2595TIP3    H231981   4.656   6.798   7.616 -1.1101 -1.6317  0.1572
 2596TIP3   OH231982   3.896   4.976   8.247  0.2116  0.0852 -0.1521
 2596TIP3    H131983   3.858   4.912   8.187  0.3623 -1.6354  1.4996
 2596TIP3    H231984   3.990   4.961   8.241  0.1774 -0.8887  1.2855
 2597TIP3   OH231985   6.326   1.356   9.062  0.1286 -0.3402  0.1567
 2597TIP3    H131986   6.372   1.273   9.077 -0.0320 -0.6994 -1.2409
 2597TIP3    H231987   6.361   1.415   9.129  1.3018 -1.1253  0.2658
 2598TIP3   OH231988   0.002   2.365   8.769  0.3058 -0.2431  0.1454
 2598TIP3    H131989   0.082   2.312   8.771 -1.4320 -3.0488  0.3255
 2598TIP3    H231990  -0.029   2.365   8.859  1.1814  2.7992  0.5648
 2599TIP3   OH231991   4.282   2.748   8.861 -0.0418 -0.3432  0.2155
 2599TIP3    H131992   4.302   2.655   8.872 -1.8905 -0.9482 -1.1601
 2599TIP3    H231993   4.365   2.793   8.878  1.5897 -2.4264 -1.7978
 2600TIP3   OH231994   2.562   0.011   8.004  0.2687  0.2145  0.5014
 2600TIP3    H131995   2.630  -0.046   7.968 -0.6314 -0.2639 -0.4539
 2600TIP3    H231996   2.607   0.059   8.074  0.9102 -2.0991  1.8080
 2601TIP3   OH231997   0.215   1.171   2.405 -0.2965  0.2445 -0.0522
 2601TIP3    H131998   0.190   1.259   2.434 -0.7083  0.0577  0.1740
 2601TIP3    H231999   0.307   1.163   2.429 -0.3368  0.5026  0.1914
 2602TIP3   OH232000   2.773   7.423   2.864 -0.4441 -0.4619 -0.1209
 2602TIP3    H132001   2.836   7.358   2.832  2.1226 -0.1415  3.6513
 2602TIP3    H232002   2.818   7.507   2.853 -1.5322  0.1443 -0.1035
 2603TIP3   OH232003   6.412   6.756   7.390  0.1986 -0.0576  0.0260
 2603TIP3    H132004   6.409   6.741   7.295  2.2135  0.3954 -0.1618
 2603TIP3    H232005   6.445   6.674   7.426  0.8199  0.2385  0.1552
 2604TIP3   OH232006   4.469   5.180   6.958  0.6642  0.0725  0.2245
 2604TIP3    H132007   4.517   5.245   6.907  0.4779 -0.2577 -0.3801
 2604TIP3    H232008   4.413   5.232   7.016 -0.9421  0.5109 -1.6010
 2605TIP3   OH232009   1.762   2.717   2.443  0.3613 -0.1899 -0.2515
 2605TIP3    H132010   1.713   2.714   2.525  0.0284  0.0086 -0.4405
 2605TIP3    H232011   1.704   2.763   2.382  0.6212 -0.3024 -0.5870
 2606TIP3   OH232012   2.498   4.638   7.624  0.1137 -0.0730  0.1889
 2606TIP3    H132013   2.461   4.614   7.709  1.0789 -2.9090 -0.0783
 2606TIP3    H232014   2.592   4.620   7.634  0.0509 -2.0039 -1.8645
 2607TIP3   OH232015   3.312   5.181   7.487  0.1817 -0.1518  0.3086
 2607TIP3    H132016   3.349   5.100   7.452 -0.5711 -0.0450 -0.8172
 2607TIP3    H232017   3.387   5.233   7.514  0.7092 -0.9452  0.3853
 2608TIP3   OH232018   5.366   0.708   2.015  0.3412 -0.6988 -0.5760
 2608TIP3    H132019   5.442   0.655   2.036  0.9864  0.1635 -0.6754
 2608TIP3    H232020   5.361   0.705   1.919  1.5786  0.9967 -0.7368
 2609TIP3   OH232021   0.410   0.194   1.147 -0.1623  0.1394 -0.3631
 2609TIP3    H132022   0.388   0.182   1.240  1.4022  0.9402  0.1537
 2609TIP3    H232023   0.500   0.164   1.140 -1.0609 -2.4129 -2.2462
 2610TIP3   OH232024   4.907   7.219   0.674  0.3377 -0.0203 -0.1129
 2610TIP3    H132025   4.970   7.286   0.649 -0.3162  1.2370  1.3715
 2610TIP3    H232026   4.950   7.170   0.745  0.1143  0.0654  0.0858
 2611TIP3   OH232027   3.395   3.881   7.735 -0.0747 -0.5846  0.2184
 2611TIP3    H132028   3.425   3.925   7.656 -1.6155 -0.3800 -0.2887
 2611TIP3    H232029   3.307   3.851   7.713  0.0297 -1.8002  1.3769
 2612TIP3   OH232030   1.168   2.760   8.180 -0.0706 -0.0130 -0.0289
 2612TIP3    H132031   1.161   2.760   8.275 -1.1589  1.3901 -0.0648
 2612TIP3    H232032   1.255   2.725   8.162 -0.4681 -1.8478  1.3910
 2613TIP3   OH232033   3.741   0.240   0.246  0.1649  0.2257 -0.0869
 2613TIP3    H132034   3.783   0.190   0.316 -0.8392 -1.1519 -0.4298
 2613TIP3    H232035   3.726   0.177   0.177 -3.9307  0.1446  0.6278
 2614TIP3   OH232036   1.401   5.781   7.768 -0.0040  0.0759 -0.5504
 2614TIP3    H132037   1.485   5.823   7.751 -0.5311  1.0119 -0.9185
 2614TIP3    H232038   1.402   5.703   7.712  0.7523 -0.1100 -0.2958
 2615TIP3   OH232039   5.196   6.046   8.539 -0.5074  0.6419 -0.2274
 2615TIP3    H132040   5.165   5.980   8.602 -1.8033  1.3124 -0.1342
 2615TIP3    H232041   5.287   6.021   8.522 -0.8059 -0.8609  0.2062
 2616TIP3   OH232042   3.738   7.346   1.661  0.0693 -0.3168  0.5294
 2616TIP3    H132043   3.711   7.427   1.617  0.7425 -0.8312 -0.9025
 2616TIP3    H232044   3.744   7.370   1.754 -0.5700  1.0407  0.2469
 2617TIP3   OH232045   5.073   6.780   1.833 -0.2113 -0.2523 -0.4620
 2617TIP3    H132046   5.025   6.825   1.764  0.0392  0.4694 -0.1695
 2617TIP3    H232047   5.061   6.835   1.911  1.3263  0.0980 -0.4460
 2618TIP3   OH232048   7.317   5.593   1.243 -0.3009 -0.6778 -0.5061
 2618TIP3    H132049   7.226   5.606   1.216  0.0757  0.4254 -1.3491
 2618TIP3    H232050   7.322   5.630   1.331 -0.4595  0.2159 -0.8552
 2619TIP3   OH232051   1.477   5.172   7.501  0.1115  0.2893 -0.4046
 2619TIP3    H132052   1.491   5.083   7.470 -2.1658 -0.5279  0.6747
 2619TIP3    H232053   1.394   5.198   7.462 -0.2545  1.1626  0.8850
 2620TIP3   OH232054   0.296   1.343   7.771  0.1216  0.3987  0.1830
 2620TIP3    H132055   0.330   1.424   7.732 -0.0688  0.1591 -0.4854
 2620TIP3    H232056   0.233   1.310   7.707 -0.2794  0.0569  0.7449
 2621TIP3   OH232057   5.741   6.276   1.548 -0.1628 -0.2577 -0.1893
 2621TIP3    H132058   5.719   6.206   1.609  2.1973 -0.3585  0.6779
 2621TIP3    H232059   5.672   6.274   1.482 -2.0033 -1.1237  1.6678
 2622TIP3   OH232060   4.117   0.943   7.597  0.1121  0.2352  0.5666
 2622TIP3    H132061   4.135   0.915   7.508 -0.2827  0.2919  0.4694
 2622TIP3    H232062   4.063   1.022   7.588 -0.1483  0.0922  0.8560
 2623TIP3   OH232063   3.962   1.859   8.858 -0.3125 -0.1357  0.0817
 2623TIP3    H132064   3.952   1.779   8.908 -3.1705  0.4213  0.6102
 2623TIP3    H232065   3.916   1.926   8.910 -1.0654  1.0447 -1.9733
 2624TIP3   OH232066   5.405   1.940   0.821  0.5403 -0.1717  0.4072
 2624TIP3    H132067   5.400   1.985   0.737 -2.9720  0.5809  0.8418
 2624TIP3    H232068   5.369   1.853   0.804  0.9641 -0.4419  0.8835
 2625TIP3   OH232069   4.617   2.809   9.682 -0.1605  0.1900 -0.0948
 2625TIP3    H132070   4.649   2.764   9.759  1.0946 -1.0456 -1.2727
 2625TIP3    H232071   4.694   2.852   9.645 -0.9048  1.5063 -0.2011
 2626TIP3   OH232072   3.590   5.108   2.834 -0.2448  0.5541 -0.2048
 2626TIP3    H132073   3.667   5.156   2.806 -1.5615  2.1265 -1.3246
 2626TIP3    H232074   3.579   5.040   2.767  1.4192 -1.2274  1.1983
 2627TIP3   OH232075   2.939   1.640   0.612  0.3726  0.4790 -0.2901
 2627TIP3    H132076   2.935   1.577   0.683  2.2092  0.7869  0.1523
 2627TIP3    H232077   2.951   1.587   0.533  0.6242  0.2147 -0.0751
 2628TIP3   OH232078   2.952   6.978   2.373 -0.1973 -0.1169 -0.0211
 2628TIP3    H132079   2.867   6.989   2.416  0.1163 -0.5931  0.7361
 2628TIP3    H232080   3.016   7.004   2.439  0.3024 -0.9896 -0.1442
 2629TIP3   OH232081   2.765   7.336   7.628  1.0896 -0.5787  0.5327
 2629TIP3    H132082   2.823   7.319   7.554  0.3099 -0.3487 -0.1524
 2629TIP3    H232083   2.789   7.271   7.694  1.9964 -0.5934  0.1959
 2630TIP3   OH232084   2.070   7.438   7.045  0.1481  0.1406 -0.1890
 2630TIP3    H132085   2.033   7.516   7.085 -0.5217  0.3832 -1.2458
 2630TIP3    H232086   2.077   7.459   6.952 -1.5478 -1.6004 -0.7737
 2631TIP3   OH232087   4.585   1.225   2.712 -0.0757  0.3667 -0.1948
 2631TIP3    H132088   4.534   1.302   2.736 -2.3563 -1.1028 -0.0179
 2631TIP3    H232089   4.521   1.154   2.708  1.7857 -1.3624 -1.2173
 2632TIP3   OH232090   7.117   6.849   8.536  0.0312  0.0588 -0.3886
 2632TIP3    H132091   7.114   6.881   8.446  0.3302  1.6895  0.1461
 2632TIP3    H232092   7.058   6.907   8.584 -1.5391 -1.8853  0.1859
 2633TIP3   OH232093   1.033   2.787   9.581  0.2079 -0.2373 -0.0078
 2633TIP3    H132094   1.127   2.771   9.586  0.2282  0.0939  0.7657
 2633TIP3    H232095   1.025   2.871   9.537  0.3108  0.0900  0.5874
 2634TIP3   OH232096   1.257   4.191   7.552 -0.2233  0.4464  0.5418
 2634TIP3    H132097   1.193   4.156   7.490 -0.6102  1.5669  0.2874
 2634TIP3    H232098   1.209   4.199   7.634  0.3619 -1.2942  1.0973
 2635TIP3   OH232099   4.539   0.343   0.309  0.2328  0.2042 -0.2423
 2635TIP3    H132100   4.524   0.261   0.356  0.5143 -0.9898 -2.1228
 2635TIP3    H232101   4.616   0.326   0.256  0.5421  1.8501 -0.3622
 2636TIP3   OH232102   6.204   5.901   8.072 -0.6221  0.0237  0.5508
 2636TIP3    H132103   6.245   5.821   8.105 -1.5659 -0.4542  0.6082
 2636TIP3    H232104   6.171   5.877   7.985  0.7255  0.9058 -0.2439
 2637TIP3   OH232105   1.446   6.049   1.921  0.6204 -0.3350 -0.0851
 2637TIP3    H132106   1.434   6.111   1.993 -0.6820  0.0293 -0.5703
 2637TIP3    H232107   1.366   5.996   1.922 -1.5667  2.4104 -3.7604
 2638TIP3   OH232108   6.781   6.715   8.176 -0.3727  0.0267  0.3250
 2638TIP3    H132109   6.860   6.662   8.164 -0.1806  0.0286  1.4430
 2638TIP3    H232110   6.750   6.734   8.088  1.5035  0.9659 -0.1722
 2639TIP3   OH232111   3.109   0.452   7.466 -0.4859 -0.4547 -0.3316
 2639TIP3    H132112   3.069   0.460   7.553 -0.7010  1.0200 -0.5405
 2639TIP3    H232113   3.167   0.377   7.474  1.8178  1.3500  2.0690
 2640TIP3   OH232114   5.846   2.469   2.632 -0.4827 -0.1966 -0.2199
 2640TIP3    H132115   5.813   2.555   2.605 -1.0912 -0.6944 -1.1373
 2640TIP3    H232116   5.820   2.410   2.561  0.3061 -1.0624  0.1850
 2641TIP3   OH232117   5.302   1.551   8.887  0.6530  0.0545 -0.0998
 2641TIP3    H132118   5.261   1.490   8.948 -1.1168  2.9471  1.8673
 2641TIP3    H232119   5.371   1.594   8.938 -0.0914  1.7076 -0.4046
 2642TIP3   OH232120   2.466   5.951   1.491  0.4798 -0.1876 -0.4843
 2642TIP3    H132121   2.502   5.871   1.452  2.3598  0.6693 -0.5972
 2642TIP3    H232122   2.429   5.922   1.575  0.4773 -1.2944 -0.8520
 2643TIP3   OH232123   4.926   4.422   1.374  0.2018  0.0159 -0.2106
 2643TIP3    H132124   4.958   4.510   1.352  0.2395 -0.1605 -0.8737
 2643TIP3    H232125   5.004   4.367   1.368 -0.1142 -0.3353 -1.3629
 2644TIP3   OH232126   6.845   5.863   1.850 -0.3843  0.0420 -0.5252
 2644TIP3    H132127   6.805   5.950   1.845 -1.0347 -0.3260 -3.4043
 2644TIP3    H232128   6.926   5.876   1.899 -0.8336  2.1024 -0.2508
 2645TIP3   OH232129   1.726   2.641   1.844 -0.7216 -0.0903  0.2787
 2645TIP3    H132130   1.720   2.672   1.753 -0.6427 -0.2833  0.2079
 2645TIP3    H232131   1.647   2.674   1.885  0.8081  2.9703  1.0552
 2646TIP3   OH232132   6.486   1.121   9.164  0.0857 -0.0413 -0.3198
 2646TIP3    H132133   6.573   1.149   9.192  0.1639  0.1686 -0.7652
 2646TIP3    H232134   6.487   1.026   9.175 -0.2063  0.1130  1.2635
 2647TIP3   OH232135   6.969   3.553   9.908  0.2135 -1.1705  0.6102
 2647TIP3    H132136   7.041   3.569   9.847 -0.0167  2.0183  0.9704
 2647TIP3    H232137   6.920   3.481   9.870  1.6196 -1.1055 -1.5119
 2648TIP3   OH232138   0.705   7.199   7.518 -0.1511 -0.1277  0.4107
 2648TIP3    H132139   0.626   7.163   7.558 -1.1410 -1.0126 -2.1979
 2648TIP3    H232140   0.673   7.258   7.450  1.3962 -1.2571 -1.3690
 2649TIP3   OH232141   5.222   2.170   9.980  0.4895  0.3235 -0.1964
 2649TIP3    H132142   5.261   2.257   9.972 -0.9942  1.2140  1.5509
 2649TIP3    H232143   5.282   2.123  10.039  0.3431  0.7940  0.3417
 2650TIP3   OH232144   4.114   7.179   7.371 -0.0991 -0.1422  0.1248
 2650TIP3    H132145   4.024   7.195   7.343 -0.4561  1.2076  1.9038
 2650TIP3    H232146   4.108   7.099   7.424 -0.2608 -0.0320  0.2745
 2651TIP3   OH232147   2.810   3.959   2.620 -0.6104 -1.3444  0.2782
 2651TIP3    H132148   2.899   3.924   2.621 -0.2765 -0.5057  0.7919
 2651TIP3    H232149   2.762   3.905   2.683 -0.6981 -2.3642 -0.6440
 2652TIP3   OH232150   3.633   3.718   9.500 -0.0839  0.2745 -0.2376
 2652TIP3    H132151   3.701   3.784   9.485  0.7361 -0.6506 -0.7449
 2652TIP3    H232152   3.650   3.686   9.589  0.5169 -0.3473 -0.5643
 2653TIP3   OH232153   5.803   0.595   9.107  0.1278  0.1588  0.5958
 2653TIP3    H132154   5.775   0.639   9.026 -0.3112  2.2169  1.7947
 2653TIP3    H232155   5.897   0.611   9.112  0.3835 -1.0015 -0.0648
 2654TIP3   OH232156   7.190   4.324   7.673  0.4036  0.3984  0.0128
 2654TIP3    H132157   7.199   4.333   7.578 -3.7806  1.0457 -0.5116
 2654TIP3    H232158   7.254   4.384   7.709  2.1211  0.1454 -2.3669
 2655TIP3   OH232159   4.413   5.432   1.524 -0.0231 -0.2574 -0.1504
 2655TIP3    H132160   4.344   5.405   1.585 -0.4024  1.9746  0.5289
 2655TIP3    H232161   4.443   5.516   1.559  0.7839  0.3817 -2.2343
 2656TIP3   OH232162   4.496   3.829   2.567 -0.6108 -0.1886  0.5485
 2656TIP3    H132163   4.447   3.834   2.649 -1.7208  0.1329 -0.1143
 2656TIP3    H232164   4.568   3.892   2.579 -0.8710 -0.0018  1.2011
 2657TIP3   OH232165   1.144   0.308   1.595  0.1084 -0.3108 -0.1413
 2657TIP3    H132166   1.051   0.308   1.618 -0.5004 -0.7296 -2.3807
 2657TIP3    H232167   1.183   0.369   1.658 -1.6698 -0.0758  0.8291
 2658TIP3   OH232168   4.560   3.656   7.860 -0.7156  0.1290  0.2095
 2658TIP3    H132169   4.552   3.588   7.927 -0.5911 -0.3286 -0.2347
 2658TIP3    H232170   4.486   3.641   7.801 -1.2289  0.9625  0.6174
 2659TIP3   OH232171   1.259   0.561   1.138 -0.5394 -0.4217 -0.0647
 2659TIP3    H132172   1.267   0.500   1.064 -2.0286 -0.1365 -0.5029
 2659TIP3    H232173   1.251   0.505   1.215 -2.1549 -0.8344 -0.4895
 2660TIP3   OH232174   2.054   1.497   8.701 -0.0408 -0.0598 -0.2066
 2660TIP3    H132175   2.062   1.589   8.676 -0.4426 -0.5856 -2.5112
 2660TIP3    H232176   2.022   1.454   8.622  1.2226 -2.3787  0.4641
 2661TIP3   OH232177   1.208   4.901   2.106  0.5531  0.2294 -0.2655
 2661TIP3    H132178   1.190   4.984   2.151 -0.0249  0.1838 -0.3961
 2661TIP3    H232179   1.121   4.869   2.081  0.9217  1.3082 -3.3067
 2662TIP3   OH232180   1.951   4.173   9.146 -0.0759  0.0516 -0.5977
 2662TIP3    H132181   1.999   4.146   9.224  1.4269  2.3334 -0.6371
 2662TIP3    H232182   2.010   4.235   9.102 -2.6939  2.4108 -1.0718
 2663TIP3   OH232183   5.103   0.829   7.298  0.4927  0.0859 -0.5098
 2663TIP3    H132184   5.123   0.917   7.329 -1.8898 -0.0053  1.6117
 2663TIP3    H232185   5.074   0.782   7.376 -0.3940 -1.9466 -1.9609
 2664TIP3   OH232186   3.613   1.041   0.091  0.9051  0.1018 -0.3760
 2664TIP3    H132187   3.684   0.999   0.043  1.2864  1.6913 -1.2682
 2664TIP3    H232188   3.539   1.040   0.031  0.6911  0.0360 -0.1149
 2665TIP3   OH232189   1.469   5.455   1.618  0.4490 -0.9215 -0.1955
 2665TIP3    H132190   1.457   5.360   1.608  0.4864 -0.6828 -3.1220
 2665TIP3    H232191   1.564   5.465   1.629  0.6351 -1.1249 -1.5372
 2666TIP3   OH232192   1.986   2.950   1.476 -0.3930  0.1149  0.1970
 2666TIP3    H132193   1.977   2.908   1.391 -0.0429 -1.8234  1.0682
 2666TIP3    H232194   1.904   2.997   1.490 -0.8253 -0.3460 -0.7873
 2667TIP3   OH232195   1.335   4.043   7.107  0.5180 -0.0879 -0.0953
 2667TIP3    H132196   1.277   4.014   7.177 -0.7187  2.4316  0.0201
 2667TIP3    H232197   1.287   4.024   7.027  1.5324 -2.0993 -0.2959
 2668TIP3   OH232198   2.995   3.484   0.633 -0.0381 -0.4159 -0.4267
 2668TIP3    H132199   3.057   3.555   0.612 -0.4396 -0.4096 -1.6342
 2668TIP3    H232200   2.921   3.529   0.673  0.3564 -0.3321  0.2342
 2669TIP3   OH232201   6.378   1.137   9.754 -0.7694  0.0479 -0.4137
 2669TIP3    H132202   6.468   1.128   9.725 -1.1018  0.0786 -1.4968
 2669TIP3    H232203   6.382   1.203   9.824 -0.1424  1.1528 -1.4454
 2670TIP3   OH232204   3.557   6.793   9.938  0.0799 -0.4728  0.0735
 2670TIP3    H132205   3.471   6.827   9.914  0.3355 -0.2151 -0.4867
 2670TIP3    H232206   3.619   6.851   9.894  0.5348 -1.9619 -1.3481
 2671TIP3   OH232207   1.908   4.307   9.797  0.0876 -0.3375  0.2613
 2671TIP3    H132208   1.925   4.383   9.743  0.3792  0.3615  1.3014
 2671TIP3    H232209   1.880   4.343   9.881  1.8645 -1.3092  1.3263
 2672TIP3   OH232210   4.371   1.891   7.206  0.0493  0.2905 -0.5665
 2672TIP3    H132211   4.399   1.827   7.272  1.4854 -0.1521 -1.5567
 2672TIP3    H232212   4.299   1.848   7.160  0.3641 -0.2317 -0.5804
 2673TIP3   OH232213   4.357   1.572   7.661 -0.0399  0.1586 -0.0631
 2673TIP3    H132214   4.428   1.635   7.646  0.9029 -0.5791  1.1069
 2673TIP3    H232215   4.310   1.568   7.578  0.8421  1.2117 -0.6360
 2674TIP3   OH232216   2.308   3.327   9.759  0.8448  0.3701  0.2364
 2674TIP3    H132217   2.240   3.270   9.724  0.5215 -0.0551  1.5182
 2674TIP3    H232218   2.262   3.387   9.817  1.3691  1.0782 -0.0601
 2675TIP3   OH232219   1.116   3.044   9.897 -0.4888 -0.5545 -0.0201
 2675TIP3    H132220   1.177   3.080   9.961 -1.2833  0.0920  0.3957
 2675TIP3    H232221   1.152   3.071   9.812 -0.2644 -0.0592  0.2272
 2676TIP3   OH232222   2.255   3.089   9.412  0.4695 -0.3580  0.2354
 2676TIP3    H132223   2.280   3.172   9.371  1.0357 -0.8478 -0.4261
 2676TIP3    H232224   2.236   3.113   9.503 -0.7981  0.7457 -0.2752
 2677TIP3   OH232225   2.452   7.371   8.889 -0.0191  0.2867  1.1003
 2677TIP3    H132226   2.471   7.348   8.798  0.6834 -0.7434  1.4870
 2677TIP3    H232227   2.537   7.374   8.932 -0.3227  1.0185  1.6716
 2678TIP3   OH232228   3.666   5.656   1.428 -0.8613  0.0623  0.3306
 2678TIP3    H132229   3.712   5.718   1.372 -1.2457  0.1111  0.0669
 2678TIP3    H232230   3.596   5.621   1.372 -0.4833 -0.8026  0.3863
 2679TIP3   OH232231   2.646   3.181   1.669 -1.0557  0.0528 -0.4337
 2679TIP3    H132232   2.727   3.130   1.672 -1.9102 -1.3104  1.0349
 2679TIP3    H232233   2.674   3.272   1.677  0.5199 -0.1056 -3.0478
 2680TIP3   OH232234   3.373   4.184   9.729  0.1232  0.4377  0.0892
 2680TIP3    H132235   3.370   4.090   9.744  0.3514  0.3290 -0.5074
 2680TIP3    H232236   3.463   4.208   9.750  0.0721  0.5170  0.2153
 2681TIP3   OH232237   2.669   0.038   7.060  0.0969 -0.2843 -0.3462
 2681TIP3    H132238   2.713   0.057   6.977  1.8041  1.7757  0.9079
 2681TIP3    H232239   2.634  -0.050   7.049  3.6206 -1.7156 -1.9107
 2682TIP3   OH232240   0.416   3.999   9.041 -0.5458  0.1818  0.2191
 2682TIP3    H132241   0.410   3.914   8.997 -1.0661  0.0965  0.4559
 2682TIP3    H232242   0.419   3.978   9.134  1.4744  0.3156  0.2254
 2683TIP3   OH232243   4.586   7.372   7.766 -0.9179  0.5630 -0.0395
 2683TIP3    H132244   4.671   7.406   7.739 -0.4042 -0.5004  0.1600
 2683TIP3    H232245   4.579   7.396   7.858 -0.8930  0.7672 -0.0907
 2684TIP3   OH232246   1.839   2.369   9.159 -0.1199  0.0170  0.6608
 2684TIP3    H132247   1.883   2.450   9.135 -1.7672  0.7994  0.1364
 2684TIP3    H232248   1.887   2.300   9.113  0.6062  0.8140  0.2012
 2685TIP3   OH232249   1.742   4.124   1.871  0.1839 -0.5218 -0.7322
 2685TIP3    H132250   1.783   4.140   1.786  0.6542  0.2984 -0.3649
 2685TIP3    H232251   1.648   4.136   1.856  0.3638  0.9804 -0.8687
 2686TIP3   OH232252   3.667   6.928   0.400 -0.1620 -0.1652 -0.0286
 2686TIP3    H132253   3.712   6.901   0.320 -0.1450  2.9140 -1.1951
 2686TIP3    H232254   3.738   6.948   0.462  0.1194  2.1465 -0.9861
 2687TIP3   OH232255   4.748   0.120   9.721  0.2487  0.1472  0.8845
 2687TIP3    H132256   4.808   0.166   9.780  0.1158 -0.1151  1.2286
 2687TIP3    H232257   4.709   0.189   9.667  1.9769  0.2072 -0.4035
 2688TIP3   OH232258   1.630   3.990   7.708 -0.3557 -0.1570 -0.0529
 2688TIP3    H132259   1.595   4.057   7.649 -0.4133 -0.0772  0.0710
 2688TIP3    H232260   1.590   4.010   7.793 -1.5520 -1.2406 -0.3283
 2689TIP3   OH232261   4.984   0.146   1.611  0.8700 -0.0932 -0.4834
 2689TIP3    H132262   4.991   0.121   1.703  0.1906 -0.5461 -0.5440
 2689TIP3    H232263   4.938   0.230   1.613  0.7388 -0.1664 -0.4143
 2690TIP3   OH232264   3.219   0.524   7.159 -0.0175  0.4224  0.6267
 2690TIP3    H132265   3.291   0.577   7.192  0.7895 -0.8228  0.9377
 2690TIP3    H232266   3.253   0.435   7.158 -1.3331 -0.1062  0.1232
 2691TIP3   OH232267   2.410   3.690   0.312  0.1008  0.1310  0.2624
 2691TIP3    H132268   2.457   3.765   0.274 -1.0292  0.4991 -0.4578
 2691TIP3    H232269   2.365   3.650   0.238  1.6422 -2.0319  0.4190
 2692TIP3   OH232270   3.157   3.366   9.105  0.4502 -0.3848 -0.2429
 2692TIP3    H132271   3.251   3.379   9.091  0.7821  0.9190  2.5164
 2692TIP3    H232272   3.123   3.454   9.123 -0.2210 -1.2553  3.8695
 2693TIP3   OH232273   0.504   5.970   1.124 -0.0827  0.1633 -0.1339
 2693TIP3    H132274   0.503   5.946   1.216  1.0889  1.6122  0.3026
 2693TIP3    H232275   0.515   6.065   1.124  0.5157  0.1330 -1.7613
 2694TIP3   OH232276   1.182   2.321   8.592  0.1618 -0.7751 -0.3773
 2694TIP3    H132277   1.111   2.368   8.637  0.6835  1.2306 -1.5271
 2694TIP3    H232278   1.140   2.285   8.514  0.3914  0.3792 -1.0385
 2695TIP3   OH232279   1.609   4.467   7.525  0.2629 -0.2225 -0.2573
 2695TIP3    H132280   1.629   4.551   7.483 -2.5790  0.1438 -1.1194
 2695TIP3    H232281   1.562   4.491   7.605 -1.0848 -0.9387 -0.7997
 2696TIP3   OH232282   1.115   1.462   8.515 -0.3616  0.5456 -0.2890
 2696TIP3    H132283   1.056   1.511   8.573 -0.7919 -0.7234  0.3850
 2696TIP3    H232284   1.187   1.435   8.572 -0.9716 -1.0365 -0.2089
 2697TIP3   OH232285   0.096   0.388   7.550  0.8365 -0.0503  0.2076
 2697TIP3    H132286   0.034   0.457   7.526  1.8611  0.3106 -1.6082
 2697TIP3    H232287   0.094   0.327   7.476  1.4709 -0.8843  0.8510
 2698TIP3   OH232288   1.293   2.287   0.692 -0.0997  0.2105 -0.2459
 2698TIP3    H132289   1.284   2.329   0.607  0.6115 -2.3896 -1.6984
 2698TIP3    H232290   1.278   2.358   0.755 -0.2410  2.3074 -2.4867
 2699TIP3   OH232291   1.925   1.635   9.207 -0.4749 -0.0878  0.0780
 2699TIP3    H132292   1.957   1.723   9.224  0.0281 -0.0427 -1.0156
 2699TIP3    H232293   1.879   1.610   9.288  0.7051  0.5654  0.9813
 2700TIP3   OH232294   3.840   5.514   7.424  0.0497  0.0679  0.5668
 2700TIP3    H132295   3.900   5.555   7.361  1.8423 -1.4286  1.2123
 2700TIP3    H232296   3.891   5.505   7.504 -0.6768 -2.1135  0.8664
 2701TIP3   OH232297   0.918   1.089   3.089  0.5017 -0.9314  0.4067
 2701TIP3    H132298   1.004   1.084   3.131  1.8876 -0.7048 -2.2410
 2701TIP3    H232299   0.885   1.175   3.116  1.6893 -0.4513  0.4068
 2702TIP3   OH232300   4.452   2.338   7.959 -0.2119 -0.5404 -0.4014
 2702TIP3    H132301   4.387   2.315   7.892 -1.4344 -2.7060  1.4026
 2702TIP3    H232302   4.513   2.265   7.959  0.8413  0.3076 -0.3343
 2703TIP3   OH232303   2.633   1.292   9.191  0.0823 -0.2803  0.7747
 2703TIP3    H132304   2.622   1.381   9.222  2.1033 -0.3263  1.7955
 2703TIP3    H232305   2.558   1.277   9.134 -0.3115  2.0549  0.5800
 2704TIP3   OH232306   2.934   2.622   8.938  0.7720  0.2636  0.3031
 2704TIP3    H132307   2.866   2.557   8.957  0.9702 -0.0721 -0.1036
 2704TIP3    H232308   2.901   2.704   8.975  0.4479 -0.0369  0.6859
 2705TIP3   OH232309   3.746   0.359   9.704  0.6633 -0.5337  0.6706
 2705TIP3    H132310   3.818   0.412   9.740  0.3920 -0.5789  1.2969
 2705TIP3    H232311   3.777   0.333   9.617  0.6614  0.9361  0.1954
 2706TIP3   OH232312   3.344   4.789   2.646  0.1665  0.7404  0.1506
 2706TIP3    H132313   3.294   4.731   2.704  0.6117  0.6584  0.4625
 2706TIP3    H232314   3.343   4.744   2.562 -0.5008  0.8687  0.0841
 2707TIP3   OH232315   5.272   4.197   8.266 -0.3008 -0.4981  0.1364
 2707TIP3    H132316   5.305   4.175   8.179  0.5015  0.6097  0.1263
 2707TIP3    H232317   5.265   4.113   8.311  1.3993 -0.9086 -0.2884
 2708TIP3   OH232318   3.310   2.673   9.158  0.1152 -0.3666 -0.1695
 2708TIP3    H132319   3.280   2.627   9.080 -2.0237  0.5764  0.0142
 2708TIP3    H232320   3.396   2.707   9.135 -0.0936 -0.8771 -1.7968
 2709TIP3   OH232321   3.047   0.019   0.144  0.1088 -0.2247  0.2350
 2709TIP3    H132322   2.953   0.014   0.160  0.3252 -0.9697  1.3337
 2709TIP3    H232323   3.064   0.112   0.128 -0.8644 -0.1351 -0.3710
 2710TIP3   OH232324   6.232   5.796   9.718 -0.0792 -0.1591 -0.0972
 2710TIP3    H132325   6.311   5.750   9.689  0.5054  0.3767  0.5870
 2710TIP3    H232326   6.257   5.834   9.803 -0.9398  0.3741 -0.0734
 2711TIP3   OH232327   0.906   5.443   9.496 -0.6365  0.2183 -0.0682
 2711TIP3    H132328   0.856   5.440   9.578  2.3688  0.1757  1.9152
 2711TIP3    H232329   0.916   5.536   9.478 -1.8932  0.2235 -0.8230
 2712TIP3   OH232330   6.822   4.969   9.430  0.1808  0.4287 -0.0865
 2712TIP3    H132331   6.878   5.017   9.369  0.6498 -1.5134 -1.2723
 2712TIP3    H232332   6.748   5.028   9.446 -0.0334  1.0101 -2.6735
 2713TIP3   OH232333   4.001   3.388   0.748  0.0311 -0.0691 -0.9602
 2713TIP3    H132334   3.911   3.373   0.776  0.4097 -1.5451 -0.4316
 2713TIP3    H232335   4.047   3.306   0.769  1.7399  1.0071 -0.1978
 2714TIP3   OH232336   1.126   4.797   8.738 -0.5028  0.0712  0.0259
 2714TIP3    H132337   1.061   4.774   8.672 -0.2324  2.1244 -1.0521
 2714TIP3    H232338   1.078   4.851   8.801  0.0825  1.5093 -0.7190
 2715TIP3   OH232339   2.215   3.974   8.296 -0.0518 -0.0641  0.1849
 2715TIP3    H132340   2.194   4.063   8.324  0.1110  0.3683 -1.0290
 2715TIP3    H232341   2.211   3.977   8.201 -1.9648 -1.8115  0.1187
 2716TIP3   OH232342   0.468   5.465   9.192 -0.3244 -0.4362 -0.0196
 2716TIP3    H132343   0.457   5.415   9.273 -1.2522 -2.3171 -1.2468
 2716TIP3    H232344   0.560   5.491   9.192 -0.4111  0.0328  1.8333
 2717TIP3   OH232345   6.066   6.714   1.385  0.1997 -0.1553  0.1683
 2717TIP3    H132346   6.010   6.672   1.450 -1.0009  1.3162  0.1419
 2717TIP3    H232347   6.148   6.666   1.389 -0.7784 -1.8554  0.8143
 2718TIP3   OH232348   3.163   2.564   7.281 -0.3486  0.0784  0.2234
 2718TIP3    H132349   3.146   2.639   7.338  2.2077  1.9934 -1.3528
 2718TIP3    H232350   3.113   2.583   7.202 -1.4220 -1.0459  0.5929
 2719TIP3   OH232351   6.281   5.824   0.730 -0.2442  0.3667 -0.4849
 2719TIP3    H132352   6.375   5.837   0.740 -0.1226 -0.3558 -0.6419
 2719TIP3    H232353   6.267   5.731   0.748 -0.4069 -0.4269 -4.0354
 2720TIP3   OH232354   4.518   6.590   2.772  0.2223 -0.0145  0.0226
 2720TIP3    H132355   4.485   6.680   2.778  0.5692  0.1930 -0.9589
 2720TIP3    H232356   4.442   6.539   2.742 -0.1102 -0.1507  1.0528
 2721TIP3   OH232357   2.170   2.460   2.306  0.2078  0.3178 -0.0670
 2721TIP3    H132358   2.099   2.512   2.343  0.8310 -0.6421  2.7580
 2721TIP3    H232359   2.232   2.449   2.378  1.9855 -1.0461 -1.6760
 2722TIP3   OH232360   6.725   1.262   9.259 -0.3097  0.0333  0.1254
 2722TIP3    H132361   6.782   1.187   9.277  0.2046  0.8735  2.2174
 2722TIP3    H232362   6.768   1.305   9.185  1.8014  0.5743  1.5541
 2723TIP3   OH232363   5.384   6.522   8.298  0.0349  0.0989 -0.5463
 2723TIP3    H132364   5.329   6.445   8.309  0.6945 -0.3291 -0.1583
 2723TIP3    H232365   5.460   6.491   8.250 -0.3707  0.8413 -1.7124
 2724TIP3   OH232366   0.849   3.528   8.175 -0.1744 -0.2764  0.0038
 2724TIP3    H132367   0.799   3.483   8.107  0.9992 -0.7571 -0.5545
 2724TIP3    H232368   0.930   3.478   8.182 -0.9358 -1.3090  2.9750
 2725TIP3   OH232369   2.030   5.799   7.592 -0.7114 -0.2616 -0.5702
 2725TIP3    H132370   2.056   5.870   7.650 -0.0434 -0.2475 -0.8852
 2725TIP3    H232371   2.101   5.735   7.599 -2.2854 -1.9393  1.4046
 2726TIP3   OH232372   0.398   1.002   2.669  0.0204  0.5538  0.0073
 2726TIP3    H132373   0.447   0.945   2.730  0.3561 -1.0757 -1.6809
 2726TIP3    H232374   0.414   0.963   2.583 -1.2283  2.2187 -1.0270
 2727TIP3   OH232375   1.811   7.460   2.186  0.1807  0.8081 -0.1831
 2727TIP3    H132376   1.809   7.531   2.122 -0.3286  1.1772  0.2260
 2727TIP3    H232377   1.901   7.428   2.185 -0.1574 -0.3004 -2.2696
 2728TIP3   OH232378   0.025   2.881   8.420 -0.5294  0.3670 -0.1571
 2728TIP3    H132379   0.087   2.952   8.440  0.2280 -0.8693  2.2204
 2728TIP3    H232380   0.067   2.832   8.350  1.4582 -0.6207  1.5934
 2729TIP3   OH232381   1.499   1.137   0.580 -0.3862 -0.0994 -0.0830
 2729TIP3    H132382   1.498   1.083   0.660 -0.2029 -0.4784 -0.3367
 2729TIP3    H232383   1.467   1.223   0.609 -0.2944 -0.2282  0.4047
 2730TIP3   OH232384   2.636   3.190   2.459  0.1392  0.5985 -0.1387
 2730TIP3    H132385   2.726   3.163   2.479  0.8343  0.6300 -2.8828
 2730TIP3    H232386   2.588   3.108   2.450  0.7825  0.4025 -2.2187
 2731TIP3   OH232387   3.548   6.310   1.086  0.3324 -0.3687 -0.5743
 2731TIP3    H132388   3.643   6.305   1.079  0.4500 -1.0606  1.0995
 2731TIP3    H232389   3.532   6.375   1.154 -0.3632 -0.9742 -0.1458
 2732TIP3   OH232390   6.983   0.564   1.780 -0.0906  0.1430  0.0572
 2732TIP3    H132391   6.905   0.583   1.727 -0.2457  1.3336  0.6843
 2732TIP3    H232392   6.961   0.597   1.867  1.3519  1.0592  0.0936
 2733TIP3   OH232393   1.563   6.895   8.440 -0.2138 -0.2465 -0.4965
 2733TIP3    H132394   1.548   6.932   8.353 -0.3424 -1.3044 -0.9384
 2733TIP3    H232395   1.574   6.971   8.497 -2.4107  0.5519 -1.0098
 2734TIP3   OH232396   2.780   1.180   7.700 -0.2881 -0.4765  0.1484
 2734TIP3    H132397   2.852   1.208   7.755 -1.0700  0.9114  0.5039
 2734TIP3    H232398   2.806   1.204   7.611 -0.6099  0.7033  0.3611
 2735TIP3   OH232399   3.129   0.961   7.595 -0.2530  0.0970  0.0815
 2735TIP3    H132400   3.175   0.938   7.514 -1.3460 -0.1911 -0.4697
 2735TIP3    H232401   3.040   0.983   7.567 -1.6145 -3.0284  1.5078
 2736TIP3   OH232402   5.366   6.371   8.664  0.5106  0.2741 -0.4165
 2736TIP3    H132403   5.366   6.464   8.640 -2.2933  0.4504 -0.0999
 2736TIP3    H232404   5.417   6.368   8.745 -0.8766  1.9347  0.6135
 2737TIP3   OH232405   6.306   1.645   8.395  0.1352  0.3334 -0.4439
 2737TIP3    H132406   6.305   1.587   8.472 -1.8451  2.2799  1.1107
 2737TIP3    H232407   6.375   1.708   8.414  0.8545 -0.2093 -1.1565
 2738TIP3   OH232408   4.188   5.927   9.138 -0.1904 -0.3979 -0.2267
 2738TIP3    H132409   4.123   5.962   9.077  0.1807 -1.4734 -1.2815
 2738TIP3    H232410   4.264   5.908   9.084  0.5825 -0.2766  0.7864
 2739TIP3   OH232411   5.207   0.002   6.769  0.6179  0.5310 -0.0546
 2739TIP3    H132412   5.214   0.094   6.794 -1.3353  0.5808  0.4099
 2739TIP3    H232413   5.130  -0.002   6.712  1.3666 -0.6402 -1.0493
 2740TIP3   OH232414   3.054   4.241   8.190  0.5655  0.3404  0.0778
 2740TIP3    H132415   3.102   4.238   8.273  3.3608 -0.6014 -1.4493
 2740TIP3    H232416   2.974   4.192   8.207  1.5069 -0.6517  1.9861
 2741TIP3   OH232417   6.537   6.252   9.192 -0.6937 -0.1732  0.9231
 2741TIP3    H132418   6.596   6.199   9.245  0.4064 -0.2257 -0.3024
 2741TIP3    H232419   6.494   6.310   9.254  0.7596 -0.0415  1.8530
 2742TIP3   OH232420   4.632   5.722   6.981  0.2353  0.2772  0.3699
 2742TIP3    H132421   4.581   5.801   6.963  0.6747  0.0372 -2.3057
 2742TIP3    H232422   4.686   5.745   7.056 -2.1174  1.3057  1.8765
 2743TIP3   OH232423   3.023   6.631   1.710 -0.1248 -0.2541 -0.3560
 2743TIP3    H132424   2.992   6.624   1.620 -0.5463 -0.7535 -0.1791
 2743TIP3    H232425   2.957   6.585   1.762  0.8956 -1.3536  0.0327
 2744TIP3   OH232426   2.143   3.964   0.098  0.6516 -0.9319 -0.3506
 2744TIP3    H132427   2.163   4.046   0.053  1.9794 -0.7189  0.5852
 2744TIP3    H232428   2.125   3.902   0.027  0.9394 -0.1664 -1.1139
 2745TIP3   OH232429   5.221   0.388   9.512 -0.3278  0.3529  0.4234
 2745TIP3    H132430   5.199   0.295   9.506 -0.6621  0.3343  1.6336
 2745TIP3    H232431   5.161   0.430   9.449 -1.7658 -0.0289  1.4843
 2746TIP3   OH232432   5.536   5.141   9.760  0.3663 -0.1342 -0.2443
 2746TIP3    H132433   5.552   5.211   9.823 -0.0799  0.7799 -1.1196
 2746TIP3    H232434   5.495   5.185   9.686  0.4392 -1.2684 -0.9725
 2747TIP3   OH232435   7.068   2.976   0.382 -0.3795 -0.3842  0.3643
 2747TIP3    H132436   7.025   3.027   0.451 -0.2962 -1.7313  1.4598
 2747TIP3    H232437   7.155   2.956   0.419  0.0124 -0.3552 -0.5202
 2748TIP3   OH232438   3.117   4.143   7.793 -0.1978  0.3446  0.7037
 2748TIP3    H132439   3.146   4.130   7.702 -2.1560 -0.2670  0.1205
 2748TIP3    H232440   3.199   4.150   7.843  0.9411 -0.9576 -0.8649
 2749TIP3   OH232441   2.256   6.033   7.522  0.3472 -0.4266 -0.3189
 2749TIP3    H132442   2.212   5.986   7.451 -0.9011  1.0335 -0.5726
 2749TIP3    H232443   2.321   6.088   7.478 -0.0264  0.0418 -0.3007
 2750TIP3   OH232444   6.903   0.016   1.193  0.5069  0.2876  0.5989
 2750TIP3    H132445   6.938   0.052   1.275 -0.1409  1.3602  0.4320
 2750TIP3    H232446   6.954   0.059   1.124 -0.2389  0.8817  0.3962
 2751TIP3   OH232447   0.992   7.342   9.186 -0.4822  0.4277 -0.1068
 2751TIP3    H132448   1.035   7.265   9.223  0.2266  0.8366 -0.0645
 2751TIP3    H232449   0.926   7.306   9.126  0.9436 -0.2254 -1.3481
 2752TIP3   OH232450   0.119   0.060   0.465  0.7312 -0.0983 -0.2860
 2752TIP3    H132451   0.181   0.126   0.434  5.6713 -4.1042 -0.2326
 2752TIP3    H232452   0.101   0.006   0.388  0.5934 -1.2518  0.5224
 2753TIP3   OH232453   1.795   5.595   7.704 -0.2496  0.1733 -0.0704
 2753TIP3    H132454   1.837   5.565   7.623 -0.4043  0.5646 -0.3006
 2753TIP3    H232455   1.742   5.521   7.733  0.4304 -0.2466  0.1063
 2754TIP3   OH232456   5.369   3.270   1.613 -0.3162  0.3508 -0.5200
 2754TIP3    H132457   5.437   3.331   1.587  1.8494 -1.4598  0.5911
 2754TIP3    H232458   5.359   3.283   1.707 -0.6353 -0.2269 -0.4684
 2755TIP3   OH232459   5.779   0.696   9.686  0.0265  0.2385 -0.0498
 2755TIP3    H132460   5.709   0.710   9.750  0.4062 -0.7440  0.6106
 2755TIP3    H232461   5.761   0.609   9.649  1.6741 -0.6828  1.1971
 2756TIP3   OH232462   5.817   3.934   7.564 -0.0681  0.3244  0.2339
 2756TIP3    H132463   5.833   3.845   7.596  2.6193  0.9274  0.8478
 2756TIP3    H232464   5.755   3.971   7.627  0.6074 -0.3984  1.3736
 2757TIP3   OH232465   0.712   3.087   1.720 -0.7978 -0.2804 -0.1582
 2757TIP3    H132466   0.699   3.123   1.633 -2.1321 -0.5248 -0.0880
 2757TIP3    H232467   0.772   3.147   1.763 -0.2390 -0.0796 -1.1901
 2758TIP3   OH232468   1.512   1.977   9.005 -0.3111  0.0915  0.0306
 2758TIP3    H132469   1.453   2.052   9.010 -1.1486 -0.5735  0.5197
 2758TIP3    H232470   1.594   2.007   9.045 -0.8883  0.5097  0.9121
 2759TIP3   OH232471   5.662   4.020   9.397  0.3787  0.1134  0.2695
 2759TIP3    H132472   5.695   3.933   9.417  0.9558 -0.0356 -1.2094
 2759TIP3    H232473   5.592   4.035   9.461  1.4980 -0.6531  1.7292
 2760TIP3   OH232474   5.812   2.889   0.262 -0.5297  0.0721 -0.0260
 2760TIP3    H132475   5.730   2.879   0.310 -0.5498  0.8898  0.1274
 2760TIP3    H232476   5.854   2.964   0.303  0.6506 -0.7952  0.3859
 2761TIP3   OH232477   2.961   6.118   1.921  0.4878  0.4710 -0.3219
 2761TIP3    H132478   3.006   6.139   2.003 -0.3860  1.3320 -0.0457
 2761TIP3    H232479   3.001   6.176   1.857  0.6500  0.3323 -0.3466
 2762TIP3   OH232480   4.014   6.524   1.594 -0.0270 -0.1893  0.5287
 2762TIP3    H132481   3.921   6.526   1.615  0.0194  0.4346  0.6951
 2762TIP3    H232482   4.036   6.615   1.572  1.0335  0.1423  2.6923
 2763TIP3   OH232483   7.084   2.187   1.000  0.8087  0.1278 -0.3142
 2763TIP3    H132484   7.122   2.115   1.051  0.4526  0.3991  0.3564
 2763TIP3    H232485   7.080   2.154   0.911  0.4861 -0.7659  0.0162
 2764TIP3   OH232486   1.872   5.987   8.059  0.6156  0.2685 -0.5609
 2764TIP3    H132487   1.862   5.987   7.964 -0.9946 -0.0167 -0.4249
 2764TIP3    H232488   1.902   5.898   8.080 -2.2895 -0.8318 -0.5863
 2765TIP3   OH232489   4.379   3.166   9.681 -0.3749 -0.0754  0.1531
 2765TIP3    H132490   4.446   3.214   9.632 -0.9396  0.9114  0.3259
 2765TIP3    H232491   4.298   3.214   9.665 -0.9047 -0.8193  0.5548
 2766TIP3   OH232492   2.459   1.211   1.638 -0.0703 -0.3194 -0.1848
 2766TIP3    H132493   2.440   1.142   1.701  1.1366 -0.0862  0.4633
 2766TIP3    H232494   2.553   1.226   1.646  0.1153 -0.2584 -2.0370
 2767TIP3   OH232495   1.849   3.561   7.906  0.1448 -0.4043 -0.2671
 2767TIP3    H132496   1.877   3.492   7.966  0.1929 -2.0228 -2.0432
 2767TIP3    H232497   1.754   3.563   7.914  0.2243  0.1647  0.6384
 2768TIP3   OH232498   6.227   0.795   9.771 -0.4830  0.0404  0.5061
 2768TIP3    H132499   6.186   0.880   9.759  0.0286  0.3990  1.2133
 2768TIP3    H232500   6.156   0.737   9.799 -0.4754  0.7260  2.0344
 2769TIP3   OH232501   3.446   6.888   3.076  0.6678  0.4587 -0.1911
 2769TIP3    H132502   3.494   6.826   3.131  1.5674  1.9636  0.7688
 2769TIP3    H232503   3.448   6.970   3.124 -0.7827  1.1862 -1.2878
 2770TIP3   OH232504   6.484   6.101   8.177 -0.5829  0.2445  0.1464
 2770TIP3    H132505   6.447   6.157   8.108 -1.1102 -1.1742 -0.7711
 2770TIP3    H232506   6.506   6.019   8.132 -1.8397 -1.0885  1.8311
 2771TIP3   OH232507   5.691   4.840   1.543  0.7713 -0.0313  0.3112
 2771TIP3    H132508   5.680   4.905   1.474  0.3405 -0.1737  0.2447
 2771TIP3    H232509   5.767   4.870   1.592  0.1483  0.9119  0.7146
 2772TIP3   OH232510   1.061   4.290   8.938  0.2892 -0.3843 -0.3856
 2772TIP3    H132511   1.077   4.328   8.851  0.6977 -0.7111 -0.4545
 2772TIP3    H232512   1.120   4.336   8.996 -0.4601  0.3016 -0.1560
 2773TIP3   OH232513   2.869   5.221   6.485 -0.6831 -0.4172 -0.3017
 2773TIP3    H132514   2.808   5.292   6.467 -0.3246 -0.2782 -0.9910
 2773TIP3    H232515   2.955   5.263   6.485 -0.5579 -0.6735  0.3084
 2774TIP3   OH232516   0.646   3.190   1.054 -0.4526 -0.3365  0.5850
 2774TIP3    H132517   0.631   3.251   0.982  0.8893  0.4880  0.9690
 2774TIP3    H232518   0.616   3.106   1.021  0.2951 -0.0079 -1.0055
 2775TIP3   OH232519   3.955   6.804   1.581 -0.5490  0.1080 -0.3717
 2775TIP3    H132520   3.961   6.878   1.641  0.1313 -0.9047  0.8408
 2775TIP3    H232521   3.968   6.843   1.494 -0.9030  1.5019  0.1728
 2776TIP3   OH232522   4.264   4.120   7.328  0.1304  0.1677 -0.1230
 2776TIP3    H132523   4.188   4.161   7.371 -1.4231 -3.7841  1.3920
 2776TIP3    H232524   4.338   4.145   7.384 -0.3583  2.1551 -0.2607
 2777TIP3   OH232525   3.770   0.042   0.750  0.1514  0.2284  0.2014
 2777TIP3    H132526   3.824  -0.036   0.734 -0.3664 -0.1204  0.1136
 2777TIP3    H232527   3.737   0.066   0.663  1.3394  1.3273  0.0278
 2778TIP3   OH232528   5.457   5.218   1.511 -0.2798  0.1166  0.1352
 2778TIP3    H132529   5.397   5.225   1.436  0.7279 -0.5649 -0.7719
 2778TIP3    H232530   5.532   5.168   1.477  0.6085  0.5660  1.3578
 2779TIP3   OH232531   1.872   4.247   8.632  0.1327 -0.4521  0.6632
 2779TIP3    H132532   1.862   4.251   8.537 -0.2857  0.9560  0.7352
 2779TIP3    H232533   1.929   4.172   8.648  1.1009 -0.0537 -0.7755
 2780TIP3   OH232534   0.285   2.080   9.981  0.7002  0.3159 -0.0101
 2780TIP3    H132535   0.305   2.063  10.073  1.3105  0.0463 -0.1895
 2780TIP3    H232536   0.346   2.025   9.932 -1.4110 -1.6516 -0.5971
 2781TIP3   OH232537   0.679   2.468   1.609 -0.2550  0.3842 -0.0966
 2781TIP3    H132538   0.702   2.453   1.701  0.4735  0.1250 -0.3148
 2781TIP3    H232539   0.622   2.395   1.586 -1.5117  1.1546  0.5186
 2782TIP3   OH232540   0.416   3.389   8.017  0.0440 -1.0275  0.0257
 2782TIP3    H132541   0.357   3.433   7.955  0.0912 -0.6241  0.2647
 2782TIP3    H232542   0.417   3.446   8.094  1.4213 -0.5835 -0.2939
 2783TIP3   OH232543   0.226   5.971   7.389 -0.2375 -0.3039  0.1233
 2783TIP3    H132544   0.154   5.925   7.346 -0.1626  0.5494 -0.9325
 2783TIP3    H232545   0.270   6.019   7.319 -0.4359  1.5481  1.2087
 2784TIP3   OH232546   4.569   3.063   0.915  0.3258 -0.2779 -0.0291
 2784TIP3    H132547   4.663   3.045   0.911  0.5963 -0.3348  3.4224
 2784TIP3    H232548   4.551   3.080   1.008 -3.1673 -0.7158 -0.4599
 2785TIP3   OH232549   5.365   2.029   0.556 -0.4867 -0.2622 -0.5030
 2785TIP3    H132550   5.321   1.970   0.495  1.9800 -0.7677 -1.8995
 2785TIP3    H232551   5.347   2.116   0.520  0.8743 -0.5486 -1.9766
 2786TIP3   OH232552   4.193   3.280   8.246  0.8068 -0.1243  0.1670
 2786TIP3    H132553   4.153   3.352   8.197 -0.2449 -0.6860  0.1863
 2786TIP3    H232554   4.176   3.202   8.194  0.8167 -0.5384  0.7712
 2787TIP3   OH232555   5.359   0.413   7.549 -0.1620  0.4193 -0.6409
 2787TIP3    H132556   5.343   0.434   7.641  2.5566 -1.6982  0.4438
 2787TIP3    H232557   5.348   0.318   7.544 -0.3351  0.4996 -2.5509
 2788TIP3   OH232558   6.835   2.252   8.608 -0.4140 -0.2095  0.3759
 2788TIP3    H132559   6.841   2.314   8.681 -0.3748 -0.6305  0.7354
 2788TIP3    H232560   6.875   2.299   8.534  0.5716 -0.1888  0.8999
 2789TIP3   OH232561   1.350   2.124   1.333  0.2568  0.0040 -0.3702
 2789TIP3    H132562   1.443   2.130   1.312  0.6355 -1.2489  0.7714
 2789TIP3    H232563   1.319   2.214   1.333  2.2845  0.8393  2.6135
 2790TIP3   OH232564   5.528   5.440   7.859 -0.1834 -0.0080 -0.2833
 2790TIP3    H132565   5.455   5.487   7.901 -0.2673 -0.1632 -0.2546
 2790TIP3    H232566   5.513   5.452   7.766 -0.2051  0.0216 -0.2762
 2791TIP3   OH232567   4.641   2.219   1.073  0.7628  0.3735  0.0372
 2791TIP3    H132568   4.677   2.159   1.138  0.1866  1.0004  0.9427
 2791TIP3    H232569   4.708   2.220   1.003 -0.1177 -2.9080 -1.0518
 2792TIP3   OH232570   0.866   2.272   2.586  0.2218 -0.2060 -0.1820
 2792TIP3    H132571   0.818   2.285   2.505 -1.7019  0.4456  1.0102
 2792TIP3    H232572   0.892   2.360   2.613  0.2047 -0.3435  0.2921
 2793TIP3   OH232573   1.043   2.334   8.027 -0.0201 -0.1770 -0.1930
 2793TIP3    H132574   1.111   2.377   7.976 -0.2178  1.0764  0.5518
 2793TIP3    H232575   1.002   2.405   8.077 -1.3636 -1.0158 -0.0547
 2794TIP3   OH232576   3.150   0.815   8.151  0.0465 -0.0110  0.1255
 2794TIP3    H132577   3.091   0.835   8.224 -2.4351  0.4726 -1.8693
 2794TIP3    H232578   3.220   0.880   8.159 -1.8360  2.1232  0.3379
 2795TIP3   OH232579   5.695   3.604   9.887 -0.1007 -0.2025  0.1755
 2795TIP3    H132580   5.644   3.663   9.832  2.8819  1.7623 -0.7717
 2795TIP3    H232581   5.754   3.559   9.825  1.0679 -0.4319  1.3964
 2796TIP3   OH232582   6.420   1.997   1.092  0.9152  0.4558  0.1076
 2796TIP3    H132583   6.371   1.973   1.013 -0.0160  2.6264 -0.0508
 2796TIP3    H232584   6.367   2.066   1.133  1.7732 -0.0652  2.2270
 2797TIP3   OH232585   2.903   4.197   2.949 -0.2522  0.0119  0.4040
 2797TIP3    H132586   2.837   4.195   3.019 -0.9342 -0.7619 -0.2366
 2797TIP3    H232587   2.953   4.117   2.962 -1.0656 -0.6877 -0.6122
 2798TIP3   OH232588   5.146   2.103   9.363 -0.1023 -0.3086 -0.4102
 2798TIP3    H132589   5.080   2.053   9.411  0.0118 -1.3746 -1.3219
 2798TIP3    H232590   5.224   2.100   9.419 -0.1570 -0.9916 -0.3603
 2799TIP3   OH232591   3.697   1.325   8.774 -0.0183 -0.3476 -0.6370
 2799TIP3    H132592   3.674   1.255   8.712 -0.2434 -1.1200  0.3046
 2799TIP3    H232593   3.767   1.374   8.730 -1.6030  0.4465 -2.4393
 2800TIP3   OH232594   7.120   6.334   8.316  0.4130  0.0536 -0.0037
 2800TIP3    H132595   7.080   6.312   8.401  2.0232  0.5914  0.9510
 2800TIP3    H232596   7.065   6.291   8.251 -1.3540  0.3096  1.2588
 2801TIP3   OH232597   5.516   7.124   8.375 -0.0242 -0.2403  0.4647
 2801TIP3    H132598   5.431   7.080   8.383  1.3822 -3.4296 -0.6009
 2801TIP3    H232599   5.563   7.100   8.455  0.4895  0.1090  0.2739
 2802TIP3   OH232600   5.690   7.474   7.556  0.0063  0.1058 -0.3984
 2802TIP3    H132601   5.687   7.511   7.468  0.1316 -2.3367 -1.5189
 2802TIP3    H232602   5.633   7.397   7.551  1.3472 -1.0551  1.1368
 2803TIP3   OH232603   3.231   2.713   0.818  0.1732 -0.0864  0.3401
 2803TIP3    H132604   3.262   2.677   0.735 -3.3716  1.4221 -1.8935
 2803TIP3    H232605   3.177   2.644   0.856 -0.8206  0.3190 -0.3032
 2804TIP3   OH232606   6.018   7.226   0.130  0.1278  0.1869  0.1847
 2804TIP3    H132607   6.103   7.182   0.134 -0.4093 -0.9490 -0.3542
 2804TIP3    H232608   5.977   7.209   0.214 -0.2848 -0.8037 -0.2056
 2805TIP3   OH232609   2.237   2.377   1.525  0.4461  0.6819 -0.1440
 2805TIP3    H132610   2.310   2.436   1.542 -0.6354  1.8253  0.7955
 2805TIP3    H232611   2.253   2.342   1.437  3.2488 -0.8654  0.8479
 2806TIP3   OH232612   2.545   6.073   0.703  0.1464  0.1521  0.1474
 2806TIP3    H132613   2.586   6.012   0.765  0.1049 -1.7344 -1.5848
 2806TIP3    H232614   2.464   6.030   0.677  0.1654  0.8754 -1.2021
 2807TIP3   OH232615   5.671   5.606   8.921  0.3776  0.4812 -0.0904
 2807TIP3    H132616   5.624   5.689   8.915 -1.3426 -0.2818  1.5754
 2807TIP3    H232617   5.630   5.550   8.856 -0.0125  0.2676  0.3350
 2808TIP3   OH232618   2.628   2.799   6.980 -0.2852 -0.2951  0.5361
 2808TIP3    H132619   2.570   2.847   6.921  1.1483  1.0110  0.1317
 2808TIP3    H232620   2.692   2.758   6.923  0.9643  0.7755  1.1204
 2809TIP3   OH232621   2.002   4.069   9.646 -0.0001 -0.4413  0.3097
 2809TIP3    H132622   2.073   4.101   9.591 -0.5615  2.3419  1.0360
 2809TIP3    H232623   1.925   4.116   9.615 -0.9475 -1.1897  1.4388
 2810TIP3   OH232624   6.236   7.316   1.125 -0.0555 -0.3991  0.0645
 2810TIP3    H132625   6.190   7.293   1.205  0.2453 -0.2911  0.2725
 2810TIP3    H232626   6.219   7.243   1.065  2.8605 -2.4713  1.5038
 2811TIP3   OH232627   0.515   6.454   1.824 -0.6564 -0.2771  0.2078
 2811TIP3    H132628   0.579   6.507   1.776  0.7096 -1.6725  0.4042
 2811TIP3    H232629   0.550   6.450   1.913 -2.1746  0.7003  0.8935
 2812TIP3   OH232630   6.354   3.957   1.695  0.2065 -0.3423 -0.1853
 2812TIP3    H132631   6.295   4.023   1.657 -1.2311 -1.0504  0.7529
 2812TIP3    H232632   6.338   3.878   1.642 -0.7319 -0.9165  0.9030
 2813TIP3   OH232633   1.833   0.959   8.915 -0.1694 -0.2635  0.1823
 2813TIP3    H132634   1.817   1.039   8.864 -1.0529  0.0114  0.8709
 2813TIP3    H232635   1.838   0.890   8.850  2.7031  0.5748 -0.6562
 2814TIP3   OH232636   0.822   4.673   2.066  0.2191  0.2645  0.6832
 2814TIP3    H132637   0.799   4.628   2.147  0.3537 -0.1292  0.5014
 2814TIP3    H232638   0.738   4.688   2.023 -0.0533  2.1384  1.7552
 2815TIP3   OH232639   2.099   1.261   8.039  0.6068 -0.0628  0.7409
 2815TIP3    H132640   2.154   1.332   8.071  2.6003 -1.0622 -0.2459
 2815TIP3    H232641   2.134   1.241   7.951 -1.3913 -0.7269  0.0387
 2816TIP3   OH232642   0.869   3.613   2.673 -0.0586 -0.2727  0.0428
 2816TIP3    H132643   0.949   3.646   2.632 -0.2221 -1.5473 -1.3691
 2816TIP3    H232644   0.886   3.619   2.767  1.3862  0.1992 -0.2268
 2817TIP3   OH232645   2.664   6.045   7.704 -0.3853  0.3929  0.4759
 2817TIP3    H132646   2.657   6.100   7.627  1.0644  0.1219  0.1082
 2817TIP3    H232647   2.574   6.023   7.727 -1.0502  3.0837  0.7830
 2818TIP3   OH232648   7.396   2.941   9.143  0.4949 -0.1983 -0.6393
 2818TIP3    H132649   7.383   2.847   9.130  0.9914 -0.3753  0.0728
 2818TIP3    H232650   7.308   2.977   9.153  0.3621 -0.7861  0.3404
 2819TIP3   OH232651   0.180   5.202   0.823 -0.1993  0.3804  0.3628
 2819TIP3    H132652   0.201   5.232   0.735  0.3720  1.5850  0.8788
 2819TIP3    H232653   0.212   5.111   0.826  0.7151  0.6638 -0.3448
 2820TIP3   OH232654   3.522   1.155   1.821 -0.3153 -0.1024  0.2285
 2820TIP3    H132655   3.597   1.151   1.763  0.0593 -0.5566  0.7375
 2820TIP3    H232656   3.496   1.248   1.820 -1.8681 -0.4766 -2.5680
 2821TIP3   OH232657   5.159   5.134   9.388 -1.0113 -0.1245 -0.1808
 2821TIP3    H132658   5.161   5.102   9.478  0.2481 -1.1802 -0.5431
 2821TIP3    H232659   5.149   5.054   9.335  0.6842  0.1968 -1.0528
 2822TIP3   OH232660   1.476   3.205   8.069  0.4669 -0.4205 -0.1984
 2822TIP3    H132661   1.505   3.162   7.988  2.7635 -0.3513  0.5127
 2822TIP3    H232662   1.512   3.151   8.139  0.6351  0.8689  0.7417
 2823TIP3   OH232663   5.335   2.985   7.806  0.4441 -0.2471 -0.1546
 2823TIP3    H132664   5.429   2.970   7.794  0.3451 -0.3463 -0.8756
 2823TIP3    H232665   5.298   2.898   7.820  0.1083 -0.5714 -2.5913
 2824TIP3   OH232666   0.923   0.157   0.191 -0.6838 -0.3020  0.3341
 2824TIP3    H132667   0.941   0.145   0.285 -1.5794  2.3413  0.9221
 2824TIP3    H232668   1.004   0.130   0.148 -0.1647 -1.3535  1.8744
 2825TIP3   OH232669   5.435   1.518   1.886 -0.2603  0.6513 -0.2385
 2825TIP3    H132670   5.465   1.438   1.842  1.3529  0.3741  1.2531
 2825TIP3    H232671   5.340   1.519   1.871  0.0611  0.0753 -2.8183
 2826TIP3   OH232672   0.553   2.035   8.205 -0.5731  0.5242  0.1976
 2826TIP3    H132673   0.555   1.963   8.142 -1.6143 -1.0595  1.8693
 2826TIP3    H232674   0.640   2.035   8.245 -0.6104  0.0722  0.2843
 2827TIP3   OH232675   1.358   3.437   7.455 -0.0601 -0.8728 -0.3420
 2827TIP3    H132676   1.349   3.418   7.548  1.2468 -0.9451 -0.2055
 2827TIP3    H232677   1.332   3.528   7.446 -0.0436 -0.8216  0.1220
 2828TIP3   OH232678   7.389   3.797   2.363  0.3238 -0.4421  0.2312
 2828TIP3    H132679   7.305   3.755   2.382 -0.3768  0.9314  0.2831
 2828TIP3    H232680   7.366   3.884   2.330  1.6554 -0.9576 -2.2963
 2829TIP3   OH232681   7.051   1.457   1.005 -0.1817 -0.3651  0.6003
 2829TIP3    H132682   7.117   1.526   1.013 -1.3095  1.3191 -2.5372
 2829TIP3    H232683   6.978   1.488   1.059 -0.6046  0.9329 -0.6293
 2830TIP3   OH232684   3.305   3.166   9.875  0.1337  0.1969  0.0317
 2830TIP3    H132685   3.209   3.165   9.884  0.0788 -0.9572 -0.4802
 2830TIP3    H232686   3.321   3.231   9.806 -0.2309  0.7853  0.4859
 2831TIP3   OH232687   5.807   4.263   9.886  0.5540  0.2086  0.2015
 2831TIP3    H132688   5.805   4.221   9.971 -0.1007  0.3074  0.2414
 2831TIP3    H232689   5.742   4.216   9.834  0.8474  0.2383 -0.1994
 2832TIP3   OH232690   0.467   3.464   8.456  0.4154  0.0058  0.4179
 2832TIP3    H132691   0.422   3.456   8.372  1.8228 -1.1564 -0.2899
 2832TIP3    H232692   0.446   3.383   8.503  1.5613 -0.4979  0.1275
 2833TIP3   OH232693   2.275   0.961   2.170 -0.2745 -0.2000 -0.1650
 2833TIP3    H132694   2.202   0.999   2.218  0.0445  0.6860 -0.3766
 2833TIP3    H232695   2.253   0.975   2.078 -0.1874 -0.5997 -0.2487
 2834TIP3   OH232696   5.332   4.055   7.697 -0.1955  0.2658 -0.0086
 2834TIP3    H132697   5.362   3.999   7.625 -2.2243 -0.4674 -0.3835
 2834TIP3    H232698   5.360   4.143   7.673  2.5004 -0.4504  0.2667
 2835TIP3   OH232699   2.742   0.071   6.810 -0.4882 -0.4128 -0.3669
 2835TIP3    H132700   2.806   0.021   6.759 -0.7460 -0.6156 -0.4929
 2835TIP3    H232701   2.750   0.160   6.776  0.3613 -0.2463  0.2388
 2836TIP3   OH232702   6.568   2.988   1.560 -0.4802 -0.5683 -0.3520
 2836TIP3    H132703   6.636   3.007   1.624  0.5418  1.6017 -1.9424
 2836TIP3    H232704   6.582   2.896   1.536  0.3904 -0.8209  1.0208
 2837TIP3   OH232705   3.129   6.261   9.878  0.2975 -0.4079  0.1258
 2837TIP3    H132706   3.174   6.224   9.954 -0.6887  0.8847  1.4079
 2837TIP3    H232707   3.138   6.356   9.889  0.3574 -0.1953 -1.5312
 2838TIP3   OH232708   6.784   6.966   8.302  0.0092 -0.2626  0.2245
 2838TIP3    H132709   6.807   6.883   8.260  1.4695 -0.5312  1.4724
 2838TIP3    H232710   6.813   6.955   8.393 -0.4303  1.3594  0.5807
 2839TIP3   OH232711   2.695   6.930   7.569 -0.3169 -0.5151 -0.2199
 2839TIP3    H132712   2.678   7.019   7.537  1.0818 -0.6178 -1.3276
 2839TIP3    H232713   2.610   6.900   7.600 -0.6649  1.5123  1.0048
 2840TIP3   OH232714   2.750   3.981   8.872  0.2925 -0.6998 -0.5682
 2840TIP3    H132715   2.709   3.903   8.836  0.8400 -1.2687  0.0148
 2840TIP3    H232716   2.778   4.032   8.796 -2.2032  0.1225 -1.0204
 2841TIP3   OH232717   6.742   6.378   2.390 -0.0188 -0.2602 -0.3735
 2841TIP3    H132718   6.793   6.454   2.416  0.5025 -0.5370 -0.5821
 2841TIP3    H232719   6.779   6.305   2.440 -1.1105 -0.2257  0.5207
 2842TIP3   OH232720   2.556   6.970   9.317 -0.2514 -0.0583 -0.1070
 2842TIP3    H132721   2.541   6.961   9.223  3.6084  2.0272 -1.1417
 2842TIP3    H232722   2.514   7.053   9.340  1.3080  0.9488 -0.7581
 2843TIP3   OH232723   5.219   5.974   9.422  0.2130  0.2405 -0.3908
 2843TIP3    H132724   5.153   5.942   9.483 -0.0816 -0.0815 -0.8739
 2843TIP3    H232725   5.238   5.899   9.365  1.1803  0.2493 -0.1030
 2844TIP3   OH232726   0.170   0.046   8.824  0.3828  0.0918  0.6328
 2844TIP3    H132727   0.093   0.095   8.798  0.7327  0.0658 -0.5318
 2844TIP3    H232728   0.166  -0.035   8.772  1.1617  0.0779  0.5714
 2845TIP3   OH232729   1.513   4.951   0.305  0.3745  0.8897  0.2056
 2845TIP3    H132730   1.427   4.911   0.297  1.4525 -2.0948  1.7290
 2845TIP3    H232731   1.563   4.916   0.231  0.8099  1.0308  0.4271
 2846TIP3   OH232732   3.501   3.080   0.480  0.1960  0.0228  0.1198
 2846TIP3    H132733   3.422   3.029   0.499  0.3228  0.0121  0.6493
 2846TIP3    H232734   3.532   3.047   0.396 -0.9677  0.7758 -0.6214
 2847TIP3   OH232735   4.064   4.847   8.016  0.5710  0.5459  0.2098
 2847TIP3    H132736   4.073   4.809   8.104  0.4814  0.0469  0.0078
 2847TIP3    H232737   4.111   4.786   7.959 -1.0111 -0.2015 -0.3589
 2848TIP3   OH232738   3.339   0.067   1.674 -0.2091 -0.3245 -0.4884
 2848TIP3    H132739   3.259   0.087   1.722 -0.1242  2.5656 -1.3532
 2848TIP3    H232740   3.326   0.107   1.588  1.7710 -0.6920 -1.0077
 2849TIP3   OH232741   4.141   2.700   0.341 -0.0672  0.6454 -0.4343
 2849TIP3    H132742   4.091   2.769   0.298 -1.0291  0.2348 -0.0023
 2849TIP3    H232743   4.084   2.670   0.412  0.2305 -0.7498 -0.7532
 2850TIP3   OH232744   0.746   5.556   0.021 -0.1456  0.0514  0.4000
 2850TIP3    H132745   0.800   5.553   0.100 -0.1225 -0.5448  0.3655
 2850TIP3    H232746   0.792   5.616  -0.038 -0.8423  1.5586  1.3230
 2851TIP3   OH232747   0.640   6.516   9.766  0.3865  0.3940 -0.2974
 2851TIP3    H132748   0.665   6.459   9.839  1.1500  1.3374  0.2054
 2851TIP3    H232749   0.579   6.463   9.714 -0.5639 -0.1277  1.2907
 2852TIP3   OH232750   1.768   0.533   7.159 -0.3582 -0.5688  0.0964
 2852TIP3    H132751   1.863   0.538   7.171 -0.5675  4.4716  2.0375
 2852TIP3    H232752   1.737   0.482   7.233  0.7373  0.8950  1.6450
 2853TIP3   OH232753   4.657   6.365   8.399  0.0791  0.2543  0.1875
 2853TIP3    H132754   4.733   6.387   8.454  1.4556 -2.0127 -0.6622
 2853TIP3    H232755   4.678   6.279   8.363 -2.6585 -0.1691 -0.5976
 2854TIP3   OH232756   5.467   2.776   0.932  0.2079  0.4087  0.3738
 2854TIP3    H132757   5.424   2.855   0.901  0.7916  0.0481 -1.4870
 2854TIP3    H232758   5.521   2.805   1.006 -1.2851  1.2955  1.1559
 2855TIP3   OH232759   3.675   7.277   7.027 -0.5180  0.2893 -0.1790
 2855TIP3    H132760   3.663   7.292   6.933  1.3835  0.7265 -0.3892
 2855TIP3    H232761   3.688   7.365   7.063 -0.3255  0.0470  0.3516
 2856TIP3   OH232762   3.065   3.935   9.086  0.0787 -0.3893 -0.5322
 2856TIP3    H132763   3.118   3.944   9.166 -1.0004 -2.0270  0.4200
 2856TIP3    H232764   3.121   3.887   9.025  0.4301 -0.2837 -0.2958
 2857TIP3   OH232765   3.013   1.652   1.289 -0.0004 -0.0985  0.4581
 2857TIP3    H132766   3.076   1.709   1.333  0.5864  1.6481 -2.3385
 2857TIP3    H232767   3.047   1.563   1.301  2.0088  0.6449  0.5398
 2858TIP3   OH232768   2.431   0.131   3.712  0.0002 -0.5456 -0.1791
 2858TIP3    H132769   2.410   0.178   3.792  0.7748  0.8438 -0.7495
 2858TIP3    H232770   2.526   0.139   3.703 -0.1330 -0.1209 -1.5446
 2859TIP3   OH232771   3.792   4.737   8.843 -0.6225 -0.2965  0.4117
 2859TIP3    H132772   3.719   4.774   8.795 -0.2401  0.8180  0.6721
 2859TIP3    H232773   3.791   4.781   8.928 -0.3523 -1.1215  0.8639
 2860TIP3   OH232774   3.460   3.231   9.418  0.2034 -0.1134 -0.0362
 2860TIP3    H132775   3.480   3.305   9.361 -0.1847 -0.6444 -0.8781
 2860TIP3    H232776   3.367   3.215   9.406  0.2730 -0.7086  0.1829
 2861TIP3   OH232777   3.374   3.483   0.869  0.2805  0.3398  0.1651
 2861TIP3    H132778   3.406   3.441   0.789  0.1766 -0.3441  0.4704
 2861TIP3    H232779   3.297   3.431   0.893 -2.1633  2.8860 -1.4585
 2862TIP3   OH232780   5.403   7.113   7.719  0.0864 -0.6730  0.3236
 2862TIP3    H132781   5.478   7.108   7.660  0.9077 -3.6637  1.4499
 2862TIP3    H232782   5.328   7.089   7.663  0.0357  1.3770 -0.5732
 2863TIP3   OH232783   2.984   6.774   0.660 -0.3298 -0.1973 -0.5197
 2863TIP3    H132784   2.973   6.727   0.578 -0.6757 -0.7395 -0.1699
 2863TIP3    H232785   3.077   6.766   0.680 -0.5032 -1.3233 -0.1227
 2864TIP3   OH232786   3.137   6.152   7.718  0.4652 -0.1344  0.8076
 2864TIP3    H132787   3.230   6.134   7.701  0.2163 -1.6390  0.9365
 2864TIP3    H232788   3.136   6.243   7.750  1.6626  0.5406 -0.9121
 2865TIP3   OH232789   3.563   5.674   0.740 -0.2541  0.5816 -0.0710
 2865TIP3    H132790   3.625   5.730   0.693  1.4410  0.2020  1.6380
 2865TIP3    H232791   3.508   5.735   0.789 -0.1196  0.8385 -0.2376
 2866TIP3   OH232792   0.726   1.741   2.341  0.5415 -0.6026 -0.3633
 2866TIP3    H132793   0.771   1.660   2.319 -1.2064 -1.3203 -1.5192
 2866TIP3    H232794   0.637   1.714   2.366  0.0639  0.9025 -0.2712
 2867TIP3   OH232795   3.723   5.951   9.073 -0.2720  0.4159 -0.1011
 2867TIP3    H132796   3.662   6.025   9.074  0.4890  1.0503  0.3098
 2867TIP3    H232797   3.757   5.947   9.163 -0.7006 -0.7726  0.0188
 2868TIP3   OH232798   7.199   2.978   9.847  0.0783 -0.0820 -0.3485
 2868TIP3    H132799   7.202   2.936   9.933 -1.2978 -1.1413 -0.7709
 2868TIP3    H232800   7.115   2.950   9.810 -0.7670  2.8123 -0.8206
 2869TIP3   OH232801   1.491   1.163   8.801 -0.0522  0.1574 -0.1983
 2869TIP3    H132802   1.506   1.150   8.707  0.6481  0.9752 -0.2132
 2869TIP3    H232803   1.579   1.179   8.837 -0.2443 -0.6811  0.6897
 2870TIP3   OH232804   3.436   4.277   8.508 -0.8804 -0.7171  0.2704
 2870TIP3    H132805   3.523   4.238   8.511  0.2938  1.6860 -0.0992
 2870TIP3    H232806   3.423   4.314   8.595  0.6168  2.9768 -0.8374
 2871TIP3   OH232807   4.443   5.858   2.368  1.2689  0.0325  0.8294
 2871TIP3    H132808   4.389   5.937   2.364  0.6522 -0.4117 -0.1085
 2871TIP3    H232809   4.395   5.800   2.427  1.2010 -0.0175  0.7250
 2872TIP3   OH232810   2.367   5.394   8.565 -0.0557 -0.3264 -0.5612
 2872TIP3    H132811   2.451   5.438   8.572 -0.3096  0.0493  0.1601
 2872TIP3    H232812   2.326   5.404   8.651 -0.7216 -0.7438 -0.8149
 2873TIP3   OH232813   6.217   3.213   7.921 -0.8413 -0.6260  0.8286
 2873TIP3    H132814   6.122   3.216   7.907 -0.7241 -3.2009 -1.4177
 2873TIP3    H232815   6.251   3.290   7.876 -1.8571  0.8664  2.4738
 2874TIP3   OH232816   4.324   6.278   9.498  0.4125 -0.3607  0.0264
 2874TIP3    H132817   4.403   6.255   9.449  1.3478  2.1418  0.1701
 2874TIP3    H232818   4.327   6.374   9.504 -3.0978 -0.0821 -0.6762
 2875TIP3   OH232819   3.496   0.394   0.392 -0.5237  0.6700  0.0605
 2875TIP3    H132820   3.572   0.362   0.344 -0.4569  0.3362  0.3847
 2875TIP3    H232821   3.431   0.414   0.324  0.0529  1.5210 -0.2606
 2876TIP3   OH232822   5.856   0.307   9.066  0.0977 -0.2779  0.1896
 2876TIP3    H132823   5.866   0.284   8.974  2.2584 -0.1413  0.3244
 2876TIP3    H232824   5.822   0.396   9.066  1.3643  0.2374 -0.5502
 2877TIP3   OH232825   3.400   5.068   7.107 -0.5712 -0.3447  0.1700
 2877TIP3    H132826   3.439   4.984   7.130 -1.2443 -0.5078  0.7713
 2877TIP3    H232827   3.445   5.094   7.027  0.3088 -0.8232  0.4872
 2878TIP3   OH232828   4.692   7.364   1.231  0.6651  0.0133 -0.2013
 2878TIP3    H132829   4.769   7.394   1.183  0.0754  0.1169 -1.1029
 2878TIP3    H232830   4.715   7.376   1.323  1.5822  0.3840 -0.4675
 2879TIP3   OH232831   6.055   0.573   9.197 -0.8775 -0.0210  0.3392
 2879TIP3    H132832   6.081   0.597   9.286 -1.3074 -1.7986  0.9666
 2879TIP3    H232833   6.138   0.566   9.150 -0.5955  0.0853  0.8108
 2880TIP3   OH232834   3.623   3.687   9.243  0.1523 -0.3335  0.0165
 2880TIP3    H132835   3.652   3.671   9.333  0.3254 -1.8984 -0.2858
 2880TIP3    H232836   3.605   3.781   9.240 -1.9256 -0.5647  2.2813
 2881TIP3   OH232837   3.602   2.671   0.297 -0.2907 -0.3979  0.0705
 2881TIP3    H132838   3.616   2.732   0.225 -1.0415  0.2330  0.4521
 2881TIP3    H232839   3.651   2.708   0.370  1.7751 -1.8309 -0.4794
 2882TIP3   OH232840   1.447   0.125   7.519 -0.2718 -0.3818  0.1787
 2882TIP3    H132841   1.482   0.048   7.474 -1.1228 -0.6626 -0.0038
 2882TIP3    H232842   1.525   0.178   7.538  0.1405 -0.3470 -1.4382
 2883TIP3   OH232843   1.508   2.604   0.339 -0.3755  0.3917  0.2076
 2883TIP3    H132844   1.489   2.565   0.424 -2.5825  2.6505  0.8700
 2883TIP3    H232845   1.452   2.555   0.278 -0.0705 -0.1099  0.3221
 2884TIP3   OH232846   7.390   1.688   0.003  0.6235  0.2667  0.1749
 2884TIP3    H132847   7.432   1.694  -0.083  1.7055 -0.4208  0.6363
 2884TIP3    H232848   7.367   1.596   0.012 -2.8845  0.9166 -0.9020
 2885TIP3   OH232849   5.191   2.669   0.693  0.0455 -0.3293  0.2327
 2885TIP3    H132850   5.231   2.732   0.632  0.1994 -0.3287  0.3368
 2885TIP3    H232851   5.097   2.690   0.689  0.1069 -0.0203  0.3483
 2886TIP3   OH232852   0.666   5.109   8.396  0.2999  0.5081 -0.3434
 2886TIP3    H132853   0.595   5.058   8.435  0.3758  0.1010 -0.7249
 2886TIP3    H232854   0.744   5.083   8.443  0.2238  0.8454 -0.0239
 2887TIP3   OH232855   3.818   3.339   1.894  0.4211 -0.5498  0.1214
 2887TIP3    H132856   3.832   3.425   1.935  1.0454  0.0339 -1.2340
 2887TIP3    H232857   3.723   3.331   1.887  0.3068 -0.5794  1.4541
 2888TIP3   OH232858   3.615   1.417   8.085 -0.3233  0.2011 -0.4198
 2888TIP3    H132859   3.661   1.441   8.004  0.8072 -0.2363  0.0705
 2888TIP3    H232860   3.557   1.490   8.103 -1.8700 -0.4128 -2.5352
 2889TIP3   OH232861   7.345   3.634   0.886  0.1153  0.1961 -0.1661
 2889TIP3    H132862   7.427   3.676   0.860 -0.4441 -0.1049 -2.6759
 2889TIP3    H232863   7.344   3.551   0.837 -0.6419 -0.9230  1.6291
 2890TIP3   OH232864   2.950   4.147   0.498  0.1852 -0.1782  0.4946
 2890TIP3    H132865   3.033   4.153   0.546  0.3119  0.3377  0.2172
 2890TIP3    H232866   2.967   4.083   0.429  0.0799 -0.7326  0.9712
 2891TIP3   OH232867   4.500   0.405   9.091  0.0781 -0.1049 -0.4431
 2891TIP3    H132868   4.578   0.455   9.115  1.0217 -1.6267 -0.2049
 2891TIP3    H232869   4.505   0.325   9.144 -0.9431 -0.8380 -1.3994
 2892TIP3   OH232870   4.190   0.877   0.915 -0.5707  0.2216  0.8290
 2892TIP3    H132871   4.113   0.833   0.879  0.4145 -0.2042 -0.8724
 2892TIP3    H232872   4.206   0.951   0.857 -0.3652  1.0182  1.8566
 2893TIP3   OH232873   4.012   7.129   8.525 -0.2750  0.3376 -0.0012
 2893TIP3    H132874   3.976   7.042   8.510 -0.2434  0.6422 -2.1811
 2893TIP3    H232875   4.102   7.114   8.550  0.0692 -0.2792 -1.4900
 2894TIP3   OH232876   5.810   5.114   9.040 -0.0723 -0.2354 -0.4520
 2894TIP3    H132877   5.737   5.057   9.014 -1.6931  0.8957  1.3216
 2894TIP3    H232878   5.768   5.187   9.086  2.3030 -0.7062  2.8574
 2895TIP3   OH232879   3.475   6.069   1.766  0.1470  0.1862  0.1124
 2895TIP3    H132880   3.437   6.039   1.848  0.1494 -0.9113 -0.2789
 2895TIP3    H232881   3.503   5.989   1.722  0.7823  0.8156 -0.6470
 2896TIP3   OH232882   3.958   1.799   2.840  0.1508  0.3354  0.2514
 2896TIP3    H132883   3.896   1.854   2.888 -1.0312 -1.3016  0.6759
 2896TIP3    H232884   3.937   1.710   2.867  1.9175 -0.3684 -0.5202
 2897TIP3   OH232885   7.315   4.109   8.491  0.0936  0.1273  0.4711
 2897TIP3    H132886   7.328   4.102   8.586  0.4647  1.7866  0.5638
 2897TIP3    H232887   7.269   4.028   8.468  0.1176 -0.3742  2.0356
 2898TIP3   OH232888   6.830   7.306   9.850 -0.1457  0.1976  0.1341
 2898TIP3    H132889   6.923   7.318   9.830 -0.2229  0.4380 -0.0833
 2898TIP3    H232890   6.816   7.354   9.931 -0.2398  0.7792 -0.2205
 2899TIP3   OH232891   6.477   4.613   8.647 -0.6258 -0.2470  0.3626
 2899TIP3    H132892   6.465   4.533   8.595 -1.2675  0.1227 -0.0735
 2899TIP3    H232893   6.556   4.653   8.610 -0.5414 -0.4614  0.3047
 2900TIP3   OH232894   2.966   2.558   7.781 -0.4723  0.1548 -0.3529
 2900TIP3    H132895   2.873   2.563   7.802 -0.6631 -2.2742 -0.4061
 2900TIP3    H232896   2.979   2.469   7.748  2.0389  0.1118  0.5322
 2901TIP3   OH232897   0.091   5.983   7.642 -0.3233  0.3361  0.0781
 2901TIP3    H132898   0.147   6.019   7.711 -1.1905  1.8060  0.0707
 2901TIP3    H232899   0.145   5.985   7.563 -0.0863  0.9223  0.2467
 2902TIP3   OH232900   1.809   5.258   1.678  0.8945  0.0732  0.7371
 2902TIP3    H132901   1.784   5.349   1.660 -0.4750 -0.5569 -0.8232
 2902TIP3    H232902   1.745   5.206   1.630  1.5830 -1.7335  1.7012
 2903TIP3   OH232903   6.784   3.811   7.917  0.2804 -0.0267  0.6391
 2903TIP3    H132904   6.691   3.825   7.938  0.3747  0.1145  0.9794
 2903TIP3    H232905   6.796   3.852   7.832  0.4308  1.5761  1.3829
 2904TIP3   OH232906   0.503   3.338   9.786 -0.1541  0.2009  0.1474
 2904TIP3    H132907   0.576   3.374   9.735 -0.3458 -1.4806 -1.3996
 2904TIP3    H232908   0.425   3.376   9.746 -0.2553 -0.2434 -0.0775
 2905TIP3   OH232909   2.123   3.655   9.660 -0.5337 -0.2212 -0.0480
 2905TIP3    H132910   2.076   3.702   9.591 -1.5959 -1.5801 -0.3069
 2905TIP3    H232911   2.192   3.715   9.688  0.2283  0.1899 -2.6066
 2906TIP3   OH232912   6.001   3.212   9.598  0.2036 -0.1397 -0.0321
 2906TIP3    H132913   6.071   3.272   9.623 -1.2189  1.3290  0.6561
 2906TIP3    H232914   5.931   3.229   9.662 -1.2050 -0.7553 -1.3451
 2907TIP3   OH232915   3.204   5.730   8.858 -0.3565  0.0471  1.0635
 2907TIP3    H132916   3.139   5.800   8.863 -0.4551 -0.0361  0.9402
 2907TIP3    H232917   3.287   5.773   8.881 -0.2167  0.4694 -0.1577
 2908TIP3   OH232918   4.387   4.788   7.964  0.4348  0.2373 -0.2566
 2908TIP3    H132919   4.314   4.743   7.923  0.4780 -0.3932  0.3348
 2908TIP3    H232920   4.421   4.726   8.028  1.2184  0.6812 -0.2190
 2909TIP3   OH232921   5.565   3.511   8.847 -0.3202  0.1173 -0.1840
 2909TIP3    H132922   5.525   3.467   8.922 -0.7824 -0.3142 -0.6756
 2909TIP3    H232923   5.511   3.589   8.833  1.1523  1.4823  1.3811
 2910TIP3   OH232924   2.799   1.800   1.830 -0.0035  0.5988  0.2391
 2910TIP3    H132925   2.877   1.771   1.877 -0.0806  2.2470  1.4676
 2910TIP3    H232926   2.750   1.719   1.814  1.6177 -0.3946 -0.0084
 2911TIP3   OH232927   2.589   4.645   7.017  0.3151  0.2285 -0.4224
 2911TIP3    H132928   2.659   4.593   6.979  1.4303  0.7275  0.8841
 2911TIP3    H232929   2.572   4.605   7.103 -3.8055 -2.3947 -2.1259
 2912TIP3   OH232930   7.364   3.722   1.603 -0.4599  0.1711 -0.2145
 2912TIP3    H132931   7.289   3.663   1.599 -0.1472 -0.2512  0.0617
 2912TIP3    H232932   7.361   3.771   1.521 -2.6399  2.1600  0.9046
 2913TIP3   OH232933   4.298   6.198   9.149  0.1285  0.0615 -0.8652
 2913TIP3    H132934   4.336   6.268   9.203  1.6087 -2.4084  1.5357
 2913TIP3    H232935   4.215   6.178   9.191 -0.6998  0.8405 -2.0519
 2914TIP3   OH232936   3.337   6.930   9.792  0.2968  0.6183 -0.0760
 2914TIP3    H132937   3.309   6.990   9.723 -0.2373 -0.7994 -1.1340
 2914TIP3    H232938   3.258   6.882   9.817  0.6536  0.5325  0.9513
 2915TIP3   OH232939   0.667   6.494   9.198  0.5784  0.4812 -0.5740
 2915TIP3    H132940   0.661   6.580   9.240  0.6420  1.0873 -1.7593
 2915TIP3    H232941   0.702   6.437   9.266 -1.0310  0.9957  0.7573
 2916TIP3   OH232942   3.499   5.160   9.779 -0.0239  0.1640 -0.3487
 2916TIP3    H132943   3.467   5.149   9.690  1.9051  0.7850 -1.1868
 2916TIP3    H232944   3.421   5.155   9.834 -1.1867 -0.7911 -2.0131
 2917TIP3   OH232945   2.473   0.412   9.274  0.4929 -0.2670 -0.3380
 2917TIP3    H132946   2.462   0.360   9.195  0.6541  1.8224 -1.8131
 2917TIP3    H232947   2.549   0.374   9.318 -0.1346 -2.0087 -0.6937
 2918TIP3   OH232948   6.501   7.337   0.851 -0.2717 -0.0207  0.3982
 2918TIP3    H132949   6.465   7.398   0.915 -0.3688 -1.2279  1.5327
 2918TIP3    H232950   6.437   7.336   0.780 -0.6387  0.6396  0.7147
 2919TIP3   OH232951   3.031   7.089   1.122  0.6599  0.2087 -1.0848
 2919TIP3    H132952   3.017   7.065   1.031 -2.2736  0.7171 -0.8621
 2919TIP3    H232953   3.038   7.185   1.121  0.7400  0.2075 -0.7705
 2920TIP3   OH232954   3.102   6.456   6.625 -0.1219  0.1416 -0.2284
 2920TIP3    H132955   3.064   6.542   6.609 -0.5528  0.2442  1.1511
 2920TIP3    H232956   3.030   6.395   6.610 -0.1623  0.1314  0.0005
 2921TIP3   OH232957   1.642   1.755   7.842 -0.1644  0.0232 -0.4281
 2921TIP3    H132958   1.555   1.794   7.834 -1.7240 -3.0018  0.2786
 2921TIP3    H232959   1.702   1.829   7.835 -2.8424  2.8590  2.8041
 2922TIP3   OH232960   6.307   0.000   8.160  0.2841  0.6536 -0.4229
 2922TIP3    H132961   6.373  -0.014   8.091  0.6315 -1.0540  0.2037
 2922TIP3    H232962   6.355   0.041   8.231  0.2462  1.0862 -0.6415
 2923TIP3   OH232963   4.994   1.903   9.554 -0.1858  0.2362 -0.3349
 2923TIP3    H132964   5.010   1.936   9.643 -0.1020 -1.7398  0.4462
 2923TIP3    H232965   5.077   1.863   9.528 -0.9439 -1.5568 -0.1716
 2924TIP3   OH232966   5.805   6.777   1.308  0.1336 -0.0361 -0.2342
 2924TIP3    H132967   5.753   6.697   1.303  0.9448 -0.6265  0.5494
 2924TIP3    H232968   5.893   6.748   1.331  0.0034  1.2229  2.1538
 2925TIP3   OH232969   4.817   1.033   8.311  0.0718  0.1010  0.4858
 2925TIP3    H132970   4.840   1.006   8.222  0.3055 -1.1586  0.9044
 2925TIP3    H232971   4.891   1.004   8.364  0.1612  1.2792  1.0391
 2926TIP3   OH232972   4.605   5.575   8.824  0.0868 -0.0446 -0.1079
 2926TIP3    H132973   4.613   5.541   8.735  0.5754 -1.3075  0.4003
 2926TIP3    H232974   4.558   5.657   8.813 -0.6295 -0.5913 -1.4512
 2927TIP3   OH232975   4.442   4.852   8.640 -0.4021 -0.5089 -0.0033
 2927TIP3    H132976   4.509   4.885   8.580  0.9473 -0.1668  1.6034
 2927TIP3    H232977   4.489   4.840   8.723 -2.2462 -0.7042  1.0580
 2928TIP3   OH232978   4.955   6.249   1.763 -0.4200 -0.1046 -0.5074
 2928TIP3    H132979   4.968   6.215   1.674 -2.2314  1.8341 -1.6097
 2928TIP3    H232980   5.044   6.264   1.796  0.3079 -1.3946 -1.7469
 2929TIP3   OH232981   2.180   6.599   7.333 -0.7287 -0.0784  0.3739
 2929TIP3    H132982   2.220   6.540   7.397 -1.7022 -1.1739  0.0089
 2929TIP3    H232983   2.101   6.631   7.376 -0.9527 -0.1673  0.0335
 2930TIP3   OH232984   0.131   6.144   0.042 -0.0906 -0.4976  0.0960
 2930TIP3    H132985   0.204   6.151   0.103  0.5506 -2.2300 -0.4064
 2930TIP3    H232986   0.070   6.083   0.084 -0.7874  0.1782  0.0781
 2931TIP3   OH232987   5.878   1.826   9.984  0.4044  0.5935  0.1854
 2931TIP3    H132988   5.856   1.762  10.052  1.1500  0.4960  0.3408
 2931TIP3    H232989   5.854   1.910  10.022 -2.4955  0.3179 -0.7711
 2932TIP3   OH232990   2.714   3.675   8.508 -0.0124 -0.4384  0.3961
 2932TIP3    H132991   2.799   3.716   8.492  0.5105 -1.6894 -0.0848
 2932TIP3    H232992   2.733   3.598   8.561 -0.5954 -1.8220 -1.3333
 2933TIP3   OH232993   2.938   6.016   9.217  0.0572 -0.0648  0.2281
 2933TIP3    H132994   2.859   5.999   9.166 -0.2290  0.4905  0.4709
 2933TIP3    H232995   2.909   6.077   9.285 -0.0388 -2.2504  2.2805
 2934TIP3   OH232996   6.419   2.217   0.175  0.0393  0.2896 -0.6947
 2934TIP3    H132997   6.481   2.248   0.240 -0.7502  0.7224 -0.1238
 2934TIP3    H232998   6.355   2.288   0.167  0.4572  0.5138 -2.4102
 2935TIP3   OH232999   6.916   1.603   9.528  0.4825 -0.2760  0.1178
 2935TIP3    H133000   6.829   1.642   9.515  0.5932 -0.2675 -0.6657
 2935TIP3    H233001   6.910   1.560   9.613 -0.3607 -0.4596 -0.0197
 2936TIP3   OH233002   0.211   3.337   2.398 -0.0361  0.6600  0.5769
 2936TIP3    H133003   0.196   3.429   2.375  0.2479  1.0997  2.0529
 2936TIP3    H233004   0.296   3.337   2.442  1.2880 -0.7594 -1.7866
 2937TIP3   OH233005   1.943   1.046   7.354 -0.1267 -0.2757 -0.2659
 2937TIP3    H133006   1.996   0.994   7.414 -0.3577 -0.1209  0.0748
 2937TIP3    H233007   2.000   1.061   7.279  1.1646  1.8584  1.0390
 2938TIP3   OH233008   0.277   5.372   0.364 -0.5076 -0.0305  0.8121
 2938TIP3    H133009   0.235   5.319   0.296  0.3981 -0.0693  0.2670
 2938TIP3    H233010   0.363   5.393   0.328  0.4070 -0.9139  2.3534
 2939TIP3   OH233011   6.120   7.151   0.865  0.1423 -0.2573 -0.0043
 2939TIP3    H133012   6.141   7.237   0.829  0.4985 -0.9100 -1.4432
 2939TIP3    H233013   6.196   7.128   0.919  0.0990  0.2828  0.2858
 2940TIP3   OH233014   5.887   5.721   2.208 -0.2251  0.0368 -0.8266
 2940TIP3    H133015   5.813   5.768   2.170 -0.3060 -1.2661 -2.4010
 2940TIP3    H233016   5.902   5.764   2.292 -1.9263  1.1683 -1.0472
 2941TIP3   OH233017   2.916   1.193   8.672  0.1504  0.1758  0.0402
 2941TIP3    H133018   2.910   1.211   8.578  2.2567 -1.1266 -0.4142
 2941TIP3    H233019   2.842   1.240   8.711  0.4116  2.4534 -2.0093
 2942TIP3   OH233020   0.583   7.486   9.426 -0.6176  0.1236  0.6815
 2942TIP3    H133021   0.512   7.463   9.366 -0.2105 -0.3651  0.3757
 2942TIP3    H233022   0.547   7.556   9.481 -1.7264 -0.9021  1.3095
 2943TIP3   OH233023   1.458   3.852   1.599 -0.0335  0.3400 -0.0270
 2943TIP3    H133024   1.423   3.866   1.511 -2.1102  1.0270  0.8412
 2943TIP3    H233025   1.550   3.830   1.585 -0.5064 -0.4502 -2.4111
 2944TIP3   OH233026   3.755   0.741   1.998  0.0010  0.2574 -0.0464
 2944TIP3    H133027   3.724   0.828   2.023  0.2520  0.9332 -1.8947
 2944TIP3    H233028   3.850   0.751   1.988  0.2834 -0.6926  1.3598
 2945TIP3   OH233029   4.867   6.269   7.987  0.6828 -0.0929  0.1084
 2945TIP3    H133030   4.812   6.272   7.909  0.0265  1.1231  0.5904
 2945TIP3    H233031   4.948   6.313   7.961  0.7604 -0.3559 -0.0996
 2946TIP3   OH233032   5.590   5.978   7.495  0.1889  0.8523  0.3305
 2946TIP3    H133033   5.659   5.924   7.455  2.6463  1.9715  2.6921
 2946TIP3    H233034   5.529   5.915   7.532  1.6140 -0.2962  0.8344
 2947TIP3   OH233035   0.287   0.524   0.592 -0.0596 -0.5076 -0.0845
 2947TIP3    H133036   0.250   0.532   0.680 -0.6576  1.9708 -0.4714
 2947TIP3    H233037   0.210   0.514   0.535  0.1880 -0.2686 -0.4639
 2948TIP3   OH233038   2.137   5.070   2.110 -0.2257 -0.2645 -0.3265
 2948TIP3    H133039   2.101   5.111   2.031  1.2291  1.9793  0.0943
 2948TIP3    H233040   2.085   5.106   2.182  1.7184  1.8066  0.1413
 2949TIP3   OH233041   4.419   2.007   0.914 -0.1367  0.0264  0.0370
 2949TIP3    H133042   4.459   2.074   0.859  1.0886 -0.1375  0.6887
 2949TIP3    H233043   4.470   1.928   0.897 -0.6334 -0.3694  0.3625
 2950TIP3   OH233044   5.146   0.198   7.148 -0.1621  0.3630 -0.7887
 2950TIP3    H133045   5.199   0.127   7.112  0.1083  1.3157 -2.3440
 2950TIP3    H233046   5.057   0.165   7.146  0.1768 -0.7448  0.5860
 2951TIP3   OH233047   2.976   5.575   6.363 -0.0495  0.8875  0.4036
 2951TIP3    H133048   2.925   5.576   6.445 -0.4389  2.0693  0.1689
 2951TIP3    H233049   2.930   5.637   6.306 -0.2973 -0.5605 -1.0407
 2952TIP3   OH233050   3.822   6.872   0.191  0.0408  0.2632 -0.2252
 2952TIP3    H133051   3.908   6.845   0.223 -0.0679  0.2729  0.0717
 2952TIP3    H233052   3.831   6.867   0.095  0.7614  1.4782 -0.2382
 2953TIP3   OH233053   2.069   3.151   6.965 -0.2934 -0.3869  0.4499
 2953TIP3    H133054   2.051   3.062   6.934  0.1926 -0.8118  1.3675
 2953TIP3    H233055   2.100   3.140   7.054 -0.8998  0.7675  0.8280
 2954TIP3   OH233056   2.591   6.621   7.340 -0.1295  0.3392  0.3074
 2954TIP3    H133057   2.618   6.598   7.429  1.7083  0.1119 -0.2569
 2954TIP3    H233058   2.558   6.710   7.347 -1.5292 -0.2214  1.4659
 2955TIP3   OH233059   0.684   2.232   2.127 -0.4271  0.2918  0.4565
 2955TIP3    H133060   0.696   2.153   2.180 -1.2537  1.1315  1.9614
 2955TIP3    H233061   0.611   2.278   2.169  1.9125  3.4003  1.5840
 2956TIP3   OH233062   1.499   5.413   2.376  0.3960 -0.0642  0.0954
 2956TIP3    H133063   1.520   5.330   2.333 -1.2963 -0.9780  0.9191
 2956TIP3    H233064   1.424   5.392   2.432  0.8727  1.6835  1.4654
 2957TIP3   OH233065   0.288   4.364   1.361 -0.4380  0.3252  0.1325
 2957TIP3    H133066   0.370   4.386   1.315 -0.2374 -0.7008 -0.0271
 2957TIP3    H233067   0.300   4.273   1.389 -1.3608  0.3017  0.4817
 2958TIP3   OH233068   1.657   1.768   1.659  0.0258  0.2111 -0.0518
 2958TIP3    H133069   1.652   1.678   1.626 -0.4003  0.8978 -1.9882
 2958TIP3    H233070   1.749   1.781   1.678  0.1054 -0.6153  0.1895
 2959TIP3   OH233071   3.487   2.758   0.940  0.3159 -0.0166 -0.3124
 2959TIP3    H133072   3.554   2.751   0.871  0.5177  1.1942 -0.2572
 2959TIP3    H233073   3.407   2.725   0.899  1.4420 -4.5270  0.5311
 2960TIP3   OH233074   3.714   7.134   0.865  0.2481 -0.3576  0.5997
 2960TIP3    H133075   3.620   7.115   0.854 -0.1312  2.0984 -1.3637
 2960TIP3    H233076   3.717   7.201   0.933  0.2972  1.0566 -0.7324
 2961TIP3   OH233077   6.327   0.339   7.748 -0.0568 -0.0904  0.1003
 2961TIP3    H133078   6.297   0.294   7.669 -1.4984  1.0628 -0.0708
 2961TIP3    H233079   6.338   0.430   7.720 -2.4652  0.7691  1.5765
 2962TIP3   OH233080   6.013   6.994   9.099  0.2202 -0.6272 -0.4068
 2962TIP3    H133081   6.046   6.905   9.110 -0.4659 -0.8286  0.0474
 2962TIP3    H233082   6.086   7.050   9.128  0.7967 -1.0193 -1.0676
 2963TIP3   OH233083   0.803   2.127   1.005  0.0756 -0.4005 -0.5680
 2963TIP3    H133084   0.879   2.154   0.953  0.2899 -0.3545 -0.2359
 2963TIP3    H233085   0.761   2.059   0.953  0.8184 -1.0096 -0.3851
 2964TIP3   OH233086   6.235   6.242   6.893  0.2918 -0.0449 -0.5793
 2964TIP3    H133087   6.186   6.321   6.916 -1.8563 -0.9883 -1.5903
 2964TIP3    H233088   6.249   6.250   6.799  1.7821 -0.0053 -0.3752
 2965TIP3   OH233089   5.614   2.732   1.867  0.6066 -0.3825 -0.0426
 2965TIP3    H133090   5.571   2.773   1.942  0.7349  0.8453 -0.6108
 2965TIP3    H233091   5.685   2.681   1.905  0.5470  0.0662  0.6863
 2966TIP3   OH233092   7.363   4.320   0.966  0.0481 -0.0734  0.1214
 2966TIP3    H133093   7.451   4.291   0.942  1.0784  2.6833  0.1384
 2966TIP3    H233094   7.353   4.295   1.058  1.4191  0.7799  0.5294
 2967TIP3   OH233095   1.490   7.161   9.591 -0.2415 -0.1942  0.0589
 2967TIP3    H133096   1.447   7.124   9.669  1.3348  2.3482  2.3044
 2967TIP3    H233097   1.423   7.216   9.551 -0.4510  0.1278  0.8381
 2968TIP3   OH233098   0.653   7.332   0.176 -0.4121  0.7922 -0.1126
 2968TIP3    H133099   0.569   7.285   0.182  0.0417  0.0617  0.8964
 2968TIP3    H233100   0.638   7.413   0.224  0.3691 -0.8022  3.1183
 2969TIP3   OH233101   5.619   0.737   7.773 -0.6157 -0.1448  0.0716
 2969TIP3    H133102   5.608   0.802   7.703 -0.7720  0.5528  0.7257
 2969TIP3    H233103   5.556   0.669   7.752 -2.1869  1.0726  0.6658
 2970TIP3   OH233104   0.227   4.265   9.319  0.2742 -0.2832 -0.7019
 2970TIP3    H133105   0.150   4.229   9.362 -0.8027  1.6040 -0.9293
 2970TIP3    H233106   0.300   4.212   9.352 -0.8436 -0.7570  1.1803
 2971TIP3   OH233107   6.109   0.544   7.019  0.5185 -0.2537  0.4281
 2971TIP3    H133108   6.186   0.539   6.962 -0.0789 -0.5412 -0.3706
 2971TIP3    H233109   6.142   0.523   7.106  1.4326  0.1050  0.1821
 2972TIP3   OH233110   6.220   7.350   1.585 -0.5409  0.0608 -0.0526
 2972TIP3    H133111   6.220   7.255   1.567 -0.1497  0.3540 -1.8296
 2972TIP3    H233112   6.128   7.376   1.574 -0.5359 -0.0035 -0.2519
 2973TIP3   OH233113   0.752   6.427   9.450  0.3760  0.3542  0.0781
 2973TIP3    H133114   0.788   6.515   9.458  1.4812 -0.2051  2.1912
 2973TIP3    H233115   0.665   6.433   9.488  0.8725  0.3612  1.2831
 2974TIP3   OH233116   2.782   5.265   8.455  0.4258  0.1833 -0.8907
 2974TIP3    H133117   2.802   5.221   8.372 -0.3051 -0.7125 -0.6117
 2974TIP3    H233118   2.785   5.195   8.521 -0.8099  0.5258 -0.4351
 2975TIP3   OH233119   0.095   2.610   0.662 -0.0360  0.0444  0.4106
 2975TIP3    H133120   0.148   2.606   0.741  1.5250 -2.0725 -0.6494
 2975TIP3    H233121   0.072   2.703   0.654  1.4838  0.6523  2.2319
 2976TIP3   OH233122   3.922   4.779   6.984 -0.6260  0.5180 -0.3043
 2976TIP3    H133123   3.884   4.743   6.904 -0.5936  0.8498 -0.4683
 2976TIP3    H233124   3.988   4.841   6.954 -0.1900  0.1931 -0.0205
 2977TIP3   OH233125   1.637   6.428   9.411  0.2486  0.2986 -0.7306
 2977TIP3    H133126   1.715   6.483   9.423  0.2699  0.1362 -0.0832
 2977TIP3    H233127   1.564   6.488   9.424  0.2682 -0.0250  1.0576
 2978TIP3   OH233128   2.371   6.919   2.129 -0.5177 -0.0686 -0.0020
 2978TIP3    H133129   2.325   6.914   2.045 -2.3378 -1.5434  1.0062
 2978TIP3    H233130   2.453   6.872   2.114 -0.9307 -0.5356 -0.8820
 2979TIP3   OH233131   2.324   1.978   3.092  0.3226  0.3237 -0.2424
 2979TIP3    H133132   2.319   1.922   3.170 -1.3834  0.1104 -0.4637
 2979TIP3    H233133   2.234   1.981   3.059  0.9102  0.8564 -1.9006
 2980TIP3   OH233134   2.099   4.920   8.096 -0.5478 -0.4564  0.0865
 2980TIP3    H133135   2.035   4.990   8.083 -0.9055 -0.6243  0.8711
 2980TIP3    H233136   2.074   4.880   8.180 -0.8741 -2.0745 -0.7358
 2981TIP3   OH233137   7.341   1.852   9.766 -0.3064  0.8345 -0.2755
 2981TIP3    H133138   7.272   1.786   9.771  0.2209  0.2892  0.0121
 2981TIP3    H233139   7.301   1.932   9.801 -0.8865  0.6150 -0.4237
 2982TIP3   OH233140   6.909   5.157   0.304  0.7798 -0.2105 -0.3244
 2982TIP3    H133141   6.936   5.248   0.314 -0.5924  0.2907 -0.9913
 2982TIP3    H233142   6.878   5.151   0.214 -1.3036 -0.7121  0.3578
 2983TIP3   OH233143   4.498   4.428   1.145 -0.4533 -0.3549 -0.0828
 2983TIP3    H133144   4.560   4.366   1.106 -1.0935 -1.1559  0.1415
 2983TIP3    H233145   4.548   4.472   1.213 -0.3049 -1.4743  0.5533
 2984TIP3   OH233146   6.159   3.700   8.843  0.2596  0.3804  0.2172
 2984TIP3    H133147   6.140   3.679   8.751  0.1995 -3.0771  0.8686
 2984TIP3    H233148   6.246   3.739   8.841  0.7248 -0.6609 -1.2382
 2985TIP3   OH233149   4.560   3.942   9.921 -0.2406  0.2129 -0.1640
 2985TIP3    H133150   4.481   3.960   9.870 -0.0033 -3.4129 -2.1274
 2985TIP3    H233151   4.556   4.004   9.994 -3.3038  2.1728 -1.7750
 2986TIP3   OH233152   5.473   0.506   7.796  0.0247 -0.3931  0.3442
 2986TIP3    H133153   5.488   0.434   7.857  1.4955  0.2892  0.8397
 2986TIP3    H233154   5.420   0.568   7.846  2.0009  0.5914  1.3394
 2987TIP3   OH233155   6.814   4.693   9.550 -0.2629 -0.0018  0.0430
 2987TIP3    H133156   6.821   4.766   9.489 -1.4374  0.9075  0.9303
 2987TIP3    H233157   6.904   4.669   9.569  0.1354  0.7056 -0.8682
 2988TIP3   OH233158   4.789   3.634   8.872 -0.1102 -0.0764  0.2257
 2988TIP3    H133159   4.871   3.662   8.831 -0.8225 -0.4929 -1.5587
 2988TIP3    H233160   4.801   3.655   8.965  2.4222 -1.0953  0.2079
 2989TIP3   OH233161   6.694   3.214   1.422 -0.6714 -0.0513  0.3899
 2989TIP3    H133162   6.669   3.255   1.505  0.0257  0.0948  0.5352
 2989TIP3    H233163   6.789   3.202   1.429 -0.8313 -1.5375  0.2727
 2990TIP3   OH233164   6.299   5.158   9.687  0.0080 -0.2029 -0.3151
 2990TIP3    H133165   6.277   5.168   9.594 -0.7477 -0.0044 -0.1230
 2990TIP3    H233166   6.270   5.240   9.728  2.1165  0.5395 -0.2055
 2991TIP3   OH233167   1.902   0.603   8.987 -0.7613  0.7657 -0.0343
 2991TIP3    H133168   1.830   0.542   8.967 -2.9401  2.1766  2.6803
 2991TIP3    H233169   1.946   0.563   9.062  0.6035  0.4867 -0.9629
 2992TIP3   OH233170   5.887   2.468   8.799 -1.3190  0.3510 -0.3364
 2992TIP3    H133171   5.913   2.560   8.803  0.4309 -0.1073 -0.6058
 2992TIP3    H233172   5.900   2.443   8.708  0.9910 -0.8909  0.2544
 2993TIP3   OH233173   1.331   5.780   0.534 -0.1406  0.1110 -0.0911
 2993TIP3    H133174   1.272   5.754   0.605  0.6171 -2.1816 -0.2378
 2993TIP3    H233175   1.385   5.703   0.518  0.3692  0.8893 -2.5167
 2994TIP3   OH233176   0.826   5.847   8.991 -0.0992 -0.3951  0.0997
 2994TIP3    H133177   0.812   5.915   8.926  1.5921  0.0472  0.1493
 2994TIP3    H233178   0.877   5.889   9.060 -1.7113 -0.8866  1.6899
 2995TIP3   OH233179   1.374   3.393   8.760  0.2797  0.0440  0.7638
 2995TIP3    H133180   1.291   3.372   8.804 -0.6326  2.7696  0.4973
 2995TIP3    H233181   1.432   3.420   8.831 -0.3732  1.9323  0.6388
 2996TIP3   OH233182   3.101   6.376   8.653  0.5842  0.1639  0.1499
 2996TIP3    H133183   3.053   6.455   8.626 -0.3941 -0.4975 -0.0922
 2996TIP3    H233184   3.081   6.311   8.586 -1.0127 -1.1889  1.8322
 2997TIP3   OH233185   0.920   5.627   9.169  0.1144 -0.3867  0.5928
 2997TIP3    H133186   0.874   5.701   9.210 -0.3954  0.3847 -1.2849
 2997TIP3    H233187   0.854   5.558   9.163 -0.4515  0.2360 -0.8087
 2998TIP3   OH233188   3.111   6.794   7.585 -0.6278 -0.5403 -0.5532
 2998TIP3    H133189   3.177   6.792   7.655 -0.1921 -1.9927 -0.9631
 2998TIP3    H233190   3.147   6.737   7.517 -0.8274  1.1842 -2.1822
 2999TIP3   OH233191   1.022   3.614   9.999  0.1993 -0.3308  0.0280
 2999TIP3    H133192   0.944   3.564  10.022  1.8288 -2.2531  1.7721
 2999TIP3    H233193   1.009   3.639   9.908 -2.3138 -0.7956  0.1959
 3000TIP3   OH233194   4.902   4.923   8.771  0.0747  0.3477  0.0286
 3000TIP3    H133195   4.974   4.919   8.833  0.9536 -2.1737 -1.0081
 3000TIP3    H233196   4.917   5.002   8.720  0.6827  1.1580  1.4308
 3001TIP3   OH233197   6.290   4.060   8.435  0.3415 -1.1753  0.0531
 3001TIP3    H133198   6.291   4.054   8.339  0.8254 -0.5265  0.0103
 3001TIP3    H233199   6.255   4.147   8.453  1.1441 -0.9236  0.4390
 3002TIP3   OH233200   5.143   0.858   0.770  0.6425  0.8799  0.2570
 3002TIP3    H133201   5.119   0.946   0.798 -0.9736  0.0465  1.6447
 3002TIP3    H233202   5.064   0.806   0.780  1.6258 -0.8182 -0.2459
 3003TIP3   OH233203   2.847   3.237   2.275 -0.0528 -0.6475  0.0955
 3003TIP3    H133204   2.865   3.151   2.314 -0.5882 -1.2230 -0.8914
 3003TIP3    H233205   2.879   3.299   2.340  2.1779 -1.5794 -0.0078
 3004TIP3   OH233206   7.004   4.170   8.924 -0.0453 -0.0946 -0.4231
 3004TIP3    H133207   7.032   4.262   8.921  0.3356 -0.1360  1.2728
 3004TIP3    H233208   6.926   4.170   8.980 -0.5439 -0.7038 -1.0932
 3005TIP3   OH233209   6.812   4.006   9.532  0.1247 -0.1337  0.4586
 3005TIP3    H133210   6.816   3.928   9.476  0.0677  0.3929 -0.3010
 3005TIP3    H233211   6.820   3.972   9.621 -0.7569 -1.0920  0.1944
 3006TIP3   OH233212   1.496   5.341   6.957  0.0700 -0.2959  0.7107
 3006TIP3    H133213   1.510   5.253   6.923 -1.4988 -0.0577 -0.6438
 3006TIP3    H233214   1.583   5.381   6.957  0.8748 -1.9449  1.7309
 3007TIP3   OH233215   1.099   6.861   0.201 -0.3155  0.6508  0.0917
 3007TIP3    H133216   1.031   6.853   0.134  0.5879 -1.0709 -0.6724
 3007TIP3    H233217   1.130   6.772   0.214  1.3921  1.3242  0.8664
 3008TIP3   OH233218   2.075   6.513   9.192 -0.0510 -0.5567 -0.4380
 3008TIP3    H133219   2.088   6.581   9.259  4.7577 -1.1586 -0.3922
 3008TIP3    H233220   1.985   6.525   9.163 -0.3120  4.0960  1.4084
 3009TIP3   OH233221   4.543   3.444   8.533  0.3349  0.4692  0.3553
 3009TIP3    H133222   4.556   3.490   8.616 -0.9195  1.5613 -0.0139
 3009TIP3    H233223   4.624   3.459   8.484  0.6157  0.8184  0.9140
 3010TIP3   OH233224   3.264   2.630   9.923 -0.3687  0.2992 -0.0899
 3010TIP3    H133225   3.339   2.653   9.868  1.3855 -2.0007  1.1862
 3010TIP3    H233226   3.293   2.649  10.012 -0.0951 -3.1898  0.7049
 3011TIP3   OH233227   3.733   3.748   9.857 -0.0179 -0.2523 -0.2162
 3011TIP3    H133228   3.641   3.729   9.879  0.0819 -0.2199  0.2466
 3011TIP3    H233229   3.744   3.840   9.880  0.0620 -0.1865 -0.5159
 3012TIP3   OH233230   2.803   0.107   9.654 -0.3672  0.2146  0.2176
 3012TIP3    H133231   2.732   0.147   9.705 -1.6640 -2.6582  0.8527
 3012TIP3    H233232   2.872   0.091   9.718  0.2115  1.4564 -0.0653
 3013TIP3   OH233233   6.729   1.230   1.729  0.5093 -0.1572  0.3193
 3013TIP3    H133234   6.802   1.270   1.776 -0.2553  0.5442  0.9253
 3013TIP3    H233235   6.695   1.163   1.788 -1.7044  2.0344  1.6966
 3014TIP3   OH233236   4.720   4.174   8.018  0.1165  0.3624 -0.1755
 3014TIP3    H133237   4.690   4.114   7.950 -1.5534  0.1126  0.7304
 3014TIP3    H233238   4.802   4.136   8.049 -0.8437 -1.4343  0.2976
 3015TIP3   OH233239   0.810   5.649   6.990 -0.3798 -0.1071 -0.2420
 3015TIP3    H133240   0.838   5.561   7.014 -0.4450 -0.0157  0.1788
 3015TIP3    H233241   0.881   5.683   6.934  0.8023  0.4423  1.4913
 3016TIP3   OH233242   4.542   1.725   9.376 -0.7779  0.3757  0.5790
 3016TIP3    H133243   4.635   1.732   9.400 -0.2312 -0.8942 -0.9549
 3016TIP3    H233244   4.542   1.664   9.301 -2.8282  0.5435  0.4050
 3017TIP3   OH233245   2.777   1.541   9.871  0.2099  0.0847 -0.6476
 3017TIP3    H133246   2.771   1.519   9.964 -2.1210 -0.0140 -0.7526
 3017TIP3    H233247   2.762   1.458   9.826 -0.2566  0.3954 -1.0788
 3018TIP3   OH233248   0.621   3.282   7.274 -0.0379 -0.5210  0.5217
 3018TIP3    H133249   0.593   3.298   7.184  0.5046  1.8621  0.7112
 3018TIP3    H233250   0.714   3.261   7.267  0.0652 -0.0853  0.5173
 3019TIP3   OH233251   2.439   7.305   6.724 -0.0736 -0.2390 -0.7591
 3019TIP3    H133252   2.527   7.298   6.688  1.1978 -0.4381  2.0931
 3019TIP3    H233253   2.423   7.399   6.729  0.7610 -0.1351  0.3381
 3020TIP3   OH233254   2.029   7.413   7.358  0.2154 -0.0785  0.1139
 3020TIP3    H133255   2.039   7.465   7.278 -0.6248  1.1212  0.7590
 3020TIP3    H233256   2.013   7.324   7.326  1.5680  0.0513 -1.0097
 3021TIP3   OH233257   3.063   2.195   9.084  1.0384 -0.4043  0.3724
 3021TIP3    H133258   2.999   2.124   9.082  0.6597 -0.0877  0.9305
 3021TIP3    H233259   3.058   2.234   8.997  0.2653 -0.2055  0.5021
 3022TIP3   OH233260   2.022   6.152   0.383  0.0063 -0.3135 -0.0309
 3022TIP3    H133261   2.044   6.063   0.357  3.3054 -0.4431  2.4895
 3022TIP3    H233262   1.988   6.145   0.472  0.0162  0.8962  0.0973
 3023TIP3   OH233263   3.593   4.906   8.772 -0.2197  0.2757 -0.3848
 3023TIP3    H133264   3.564   4.958   8.847  1.2825  1.5277 -0.6182
 3023TIP3    H233265   3.512   4.873   8.732 -1.1184  1.0121  0.7869
 3024TIP3   OH233266   3.470   1.921   6.694  0.3786  0.2178  1.1952
 3024TIP3    H133267   3.554   1.900   6.736  0.7283 -3.0660 -0.8046
 3024TIP3    H233268   3.493   1.980   6.623  0.6457  0.9859  1.8959
 3025TIP3   OH233269   1.866   6.557   7.671  0.5036 -0.6413  0.4126
 3025TIP3    H133270   1.871   6.591   7.760  1.5329  0.4433 -0.0349
 3025TIP3    H233271   1.955   6.565   7.637  0.2617 -1.6130 -0.5176
 3026TIP3   OH233272   2.823   2.290   9.725 -0.2268 -0.0680  0.1574
 3026TIP3    H133273   2.864   2.256   9.646 -0.7574 -0.8956  0.2200
 3026TIP3    H233274   2.846   2.383   9.727  0.0409 -0.1090 -0.7994
 3027TIP3   OH233275   0.162   6.444   8.305 -0.7480  0.1727  0.1869
 3027TIP3    H133276   0.217   6.466   8.380  1.5522 -1.0474 -1.0609
 3027TIP3    H233277   0.089   6.394   8.343  0.1288 -0.0622  1.6422
 3028TIP3   OH233278   6.164   7.162   9.683 -0.5174 -0.1943 -0.9527
 3028TIP3    H133279   6.141   7.192   9.595 -0.6421 -1.7930 -1.5117
 3028TIP3    H233280   6.095   7.099   9.705  0.2949 -0.8861 -0.3199
 3029TIP3   OH233281   0.454   0.921   2.406 -0.0368 -0.1405  0.6859
 3029TIP3    H133282   0.452   0.843   2.350  1.4616 -0.5683  1.1703
 3029TIP3    H233283   0.437   0.994   2.346  1.8731 -0.5496 -0.4265
 3030TIP3   OH233284   2.790   7.335   7.957  0.3217  0.3402 -0.0667
 3030TIP3    H133285   2.809   7.249   7.995  2.7053  1.5496  1.8076
 3030TIP3    H233286   2.822   7.330   7.867  0.4987 -0.7213  0.0480
 3031TIP3   OH233287   3.176   1.796   7.871  0.5467 -0.3217  0.1870
 3031TIP3    H133288   3.150   1.825   7.958 -3.1508  1.3052 -1.2631
 3031TIP3    H233289   3.188   1.876   7.821 -0.1982 -1.2238 -1.5071
 3032TIP3   OH233290   5.315   2.484   8.697 -0.1433  0.2503 -0.0823
 3032TIP3    H133291   5.286   2.568   8.734 -0.1391 -0.0915  0.7248
 3032TIP3    H233292   5.360   2.440   8.770 -1.0521 -0.8933 -0.1903
 3033TIP3   OH233293   5.170   5.815   8.166 -0.6412  0.0811  0.0851
 3033TIP3    H133294   5.160   5.904   8.131  2.2794  1.0090  1.2647
 3033TIP3    H233295   5.108   5.810   8.238 -1.1707  0.9796 -0.2833
 3034TIP3   OH233296   2.129   2.954   0.098 -0.0121  0.5448  0.1571
 3034TIP3    H133297   2.211   2.919   0.135  1.0223  2.2097 -0.4481
 3034TIP3    H233298   2.098   2.885   0.039  0.5512 -0.4085  0.9312
 3035TIP3   OH233299   6.945   5.046   0.548  0.2681  0.3076  0.2924
 3035TIP3    H133300   6.858   5.024   0.581 -0.0651  1.1804  0.0422
 3035TIP3    H233301   6.928   5.097   0.469  1.0405 -1.1722 -0.8619
 3036TIP3   OH233302   1.109   6.165   8.429  0.4406  0.5343  0.6823
 3036TIP3    H133303   1.148   6.097   8.484  0.9103  0.2271 -0.0128
 3036TIP3    H233304   1.034   6.122   8.387 -1.6198  1.5002  3.0842
 3037TIP3   OH233305   5.204   2.017   1.001 -0.2347 -0.5369  0.1638
 3037TIP3    H133306   5.166   2.062   0.925 -0.5143 -0.7963  0.1468
 3037TIP3    H233307   5.288   1.983   0.969  0.1391  0.2660  0.2751
 3038TIP3   OH233308   2.275   3.617   3.016  0.3861  0.3490 -0.1556
 3038TIP3    H133309   2.327   3.572   2.949  0.5496  1.1652 -0.5864
 3038TIP3    H233310   2.199   3.559   3.030  0.2851  0.2247 -1.1387
 3039TIP3   OH233311   2.943   3.760   9.488 -0.5872  0.3196 -0.3566
 3039TIP3    H133312   2.901   3.755   9.573  1.3511  0.1323  0.6378
 3039TIP3    H233313   2.981   3.848   9.485  1.2200 -0.3877 -0.0344
 3040TIP3   OH233314   5.258   1.003   6.772  0.8056  0.2489  0.5993
 3040TIP3    H133315   5.327   1.068   6.756  1.1065 -0.1067  0.4368
 3040TIP3    H233316   5.305   0.922   6.791  0.5161 -0.7340 -2.2990
 3041TIP3   OH233317   3.203   5.213   9.179  0.3475  0.1166  0.1924
 3041TIP3    H133318   3.171   5.230   9.268  0.9448  1.3544  0.1948
 3041TIP3    H233319   3.138   5.255   9.122 -0.7352 -1.7849 -0.0470
 3042TIP3   OH233320   2.972   2.923   1.865  0.5422  0.0300 -0.1298
 3042TIP3    H133321   3.046   2.863   1.877 -0.1587 -1.1594 -1.4832
 3042TIP3    H233322   2.896   2.866   1.852 -0.6902  1.2190  1.3906
 3043TIP3   OH233323   5.588   2.968   0.443  0.0864 -0.3110 -0.1124
 3043TIP3    H133324   5.522   3.034   0.425  0.0238 -0.5518 -0.7935
 3043TIP3    H233325   5.559   2.926   0.524  0.0261  0.3612  0.2155
 3044TIP3   OH233326   1.698   3.917   9.632  0.8158  0.5089  0.4076
 3044TIP3    H133327   1.604   3.919   9.618  0.7667 -1.5240  0.1785
 3044TIP3    H233328   1.715   3.990   9.692 -0.8142  1.1991  0.0727
 3045TIP3   OH233329   6.466   4.463   0.465 -0.1950 -0.3356 -0.5969
 3045TIP3    H133330   6.393   4.470   0.526 -0.3048 -0.5516 -0.7066
 3045TIP3    H233331   6.540   4.436   0.520 -0.2401 -0.3088 -0.5217
 3046TIP3   OH233332   4.492   5.542   1.271 -0.0868  0.2421  0.1079
 3046TIP3    H133333   4.434   5.513   1.342 -0.9248  1.8683  0.1509
 3046TIP3    H233334   4.442   5.611   1.227  0.7109 -0.2470 -1.6397
 3047TIP3   OH233335   2.103   7.485   6.795  0.2940  0.6058  0.7913
 3047TIP3    H133336   2.194   7.461   6.816  0.3935  0.1878 -0.0672
 3047TIP3    H233337   2.074   7.415   6.737 -0.0387  1.6094 -0.2730
 3048TIP3   OH233338   4.202   4.013   0.429 -0.3327 -0.0897 -0.3085
 3048TIP3    H133339   4.233   3.934   0.384  1.8903  1.0651 -0.9669
 3048TIP3    H233340   4.263   4.025   0.501 -0.5191  1.1321 -0.3303
 3049TIP3   OH233341   7.270   3.573   8.874 -0.0339  0.3837  0.9819
 3049TIP3    H133342   7.361   3.603   8.869  0.5231 -1.3672 -0.4070
 3049TIP3    H233343   7.276   3.483   8.905 -1.3100  0.2818  0.9696
 3050TIP3   OH233344   3.665   5.627   9.161 -0.2530 -0.1987 -0.0845
 3050TIP3    H133345   3.682   5.544   9.205 -1.1185 -0.0898  0.4768
 3050TIP3    H233346   3.652   5.690   9.232  0.1062  0.3667 -0.5040
 3051TIP3   OH233347   1.660   5.083   8.863  0.6882 -0.2050  0.0364
 3051TIP3    H133348   1.683   5.012   8.924 -0.0585 -0.0618  0.5002
 3051TIP3    H233349   1.676   5.046   8.777  0.3994 -0.9175  0.2771
 3052TIP3   OH233350   5.939   6.875   0.263 -0.0831  0.4395 -0.2844
 3052TIP3    H133351   5.863   6.821   0.282  1.4830 -1.4308  1.1896
 3052TIP3    H233352   6.007   6.812   0.238  1.2086  1.9517 -0.7699
 3053TIP3   OH233353   3.913   0.576   0.927 -0.2723  0.1925  0.3874
 3053TIP3    H133354   3.932   0.505   0.989 -0.1250  1.0029  1.2758
 3053TIP3    H233355   3.944   0.542   0.843  0.8374 -0.3636  0.9966
 3054TIP3   OH233356   4.466   4.996   7.623 -0.2665 -0.3933  0.0737
 3054TIP3    H133357   4.510   5.081   7.618 -2.1582  0.5876 -1.2505
 3054TIP3    H233358   4.382   5.015   7.663 -1.5353 -1.2308 -2.0363
 3055TIP3   OH233359   4.118   6.743   2.458  0.1330  0.0595  0.4266
 3055TIP3    H133360   4.053   6.778   2.518  0.8591  0.6672  0.8799
 3055TIP3    H233361   4.199   6.789   2.481  0.8550 -1.0890  0.2742
 3056TIP3   OH233362   5.398   6.762   0.300  0.4931  0.8387  0.4993
 3056TIP3    H133363   5.394   6.857   0.303 -2.0473  0.8519 -0.7030
 3056TIP3    H233364   5.391   6.740   0.207 -0.9370 -0.5207  0.8839
 3057TIP3   OH233365   0.193   0.831   9.113 -0.3058 -0.0607 -0.4667
 3057TIP3    H133366   0.217   0.876   9.032  1.0686 -0.1759 -0.1630
 3057TIP3    H233367   0.277   0.816   9.157 -1.0356  0.1287  1.0475
 3058TIP3   OH233368   0.962   1.519   1.386 -0.0805 -0.2095 -0.1877
 3058TIP3    H133369   0.879   1.485   1.353 -0.2677  0.0751 -0.0177
 3058TIP3    H233370   0.961   1.612   1.362 -0.9153  0.3803  1.9490
 3059TIP3   OH233371   5.713   3.242   9.538  0.5780 -0.4718 -0.1190
 3059TIP3    H133372   5.740   3.155   9.507  0.4429 -0.1944 -1.0337
 3059TIP3    H233373   5.758   3.303   9.480 -0.5263  0.0321 -0.4684
 3060TIP3   OH233374   2.762   0.562   3.104 -0.2833 -0.4655  0.1097
 3060TIP3    H133375   2.799   0.640   3.061 -1.9682  0.1142 -0.3408
 3060TIP3    H233376   2.688   0.537   3.049 -0.7517 -1.4239  1.1394
 3061TIP3   OH233377   2.574   0.490   2.900 -0.1655 -1.5830  0.5970
 3061TIP3    H133378   2.632   0.414   2.906 -0.2182 -1.6984 -0.2223
 3061TIP3    H233379   2.492   0.461   2.940 -0.3659 -2.1504 -0.2007
 3062TIP3   OH233380   5.055   6.993   0.917 -0.0071 -0.3369  0.1212
 3062TIP3    H133381   5.107   6.916   0.893  1.0391  0.2941  0.3023
 3062TIP3    H233382   5.010   6.968   0.997  0.1450 -0.8367  0.0552
 3063TIP3   OH233383   4.306   1.846   9.478  0.0171 -0.4600  0.2770
 3063TIP3    H133384   4.386   1.828   9.429 -1.2577  0.6965 -2.4480
 3063TIP3    H233385   4.262   1.762   9.484  0.7571 -0.8399  0.5309
 3064TIP3   OH233386   5.138   6.235   7.858 -0.1073  0.2146 -0.4939
 3064TIP3    H133387   5.098   6.178   7.792  0.2934 -0.1650 -0.4123
 3064TIP3    H233388   5.174   6.308   7.808 -0.1015  0.0975 -0.6616
 3065TIP3   OH233389   5.765   2.172   8.445  0.4308 -0.1363  0.1740
 3065TIP3    H133390   5.789   2.204   8.358  0.9772 -1.1013 -0.0447
 3065TIP3    H233391   5.706   2.239   8.480  2.4045  1.6853  0.2082
 3066TIP3   OH233392   6.858   3.453   1.665 -0.0568 -0.2822 -0.1936
 3066TIP3    H133393   6.793   3.383   1.657 -0.0053 -0.2935 -0.5070
 3066TIP3    H233394   6.812   3.531   1.635 -0.2325 -0.1061  0.4993
 3067TIP3   OH233395   3.397   7.267   2.646  0.5357  0.5457 -0.1398
 3067TIP3    H133396   3.355   7.216   2.715  1.7761  1.5828  1.4553
 3067TIP3    H233397   3.326   7.289   2.586 -0.3934 -1.2842  0.1959
 3068TIP3   OH233398   4.683   1.278   1.937 -0.2665 -0.2594 -0.2987
 3068TIP3    H133399   4.705   1.286   1.844  0.6502  1.1350 -0.0040
 3068TIP3    H233400   4.766   1.257   1.980 -0.2502  1.0624  0.3938
 3069TIP3   OH233401   0.809   0.820   8.174  0.2140 -0.4022 -0.3448
 3069TIP3    H133402   0.857   0.898   8.201 -0.4103 -0.5894  1.4296
 3069TIP3    H233403   0.723   0.854   8.147 -0.3185 -0.5027  1.1290
 3070TIP3   OH233404   4.325   7.135   8.110  0.4262 -0.3940 -0.2241
 3070TIP3    H133405   4.257   7.159   8.173 -1.3808 -0.9701 -1.8578
 3070TIP3    H233406   4.322   7.039   8.108  0.7036 -0.3950 -0.9082
 3071TIP3   OH233407   3.664   1.354   9.866 -0.8421  0.0532 -0.1855
 3071TIP3    H133408   3.632   1.395   9.946 -0.2090  0.9251 -0.3640
 3071TIP3    H233409   3.585   1.320   9.823 -1.3922  1.1222 -0.0483
 3072TIP3   OH233410   1.630   6.293   7.831 -0.0751  0.0722 -0.1309
 3072TIP3    H133411   1.721   6.287   7.805  0.1688 -0.6729  0.8244
 3072TIP3    H233412   1.607   6.205   7.861 -0.5371  0.6687  1.3972
 3073TIP3   OH233413   1.190   0.039   9.205  0.6341 -0.3519  0.2721
 3073TIP3    H133414   1.136  -0.037   9.229  1.5790 -0.9856  0.4565
 3073TIP3    H233415   1.214   0.078   9.289 -0.3554  0.5381  0.1623
 3074TIP3   OH233416   4.054   1.180   9.148  0.1418  0.7394 -0.2934
 3074TIP3    H133417   3.983   1.172   9.213  0.1188  0.8815 -0.3010
 3074TIP3    H233418   4.010   1.169   9.064  0.2170  0.2507 -0.2723
 3075TIP3   OH233419   3.235   2.791   6.698 -0.2523 -0.0596 -0.2116
 3075TIP3    H133420   3.308   2.790   6.760 -0.5055  1.9545  0.1849
 3075TIP3    H233421   3.176   2.722   6.728  0.1570  0.1516  1.1229
 3076TIP3   OH233422   0.044   4.919   0.094  0.7032  0.2234  0.7815
 3076TIP3    H133423  -0.024   4.918   0.160  0.7172  1.2769  0.8358
 3076TIP3    H233424  -0.002   4.940   0.012  0.8899  0.4770  0.7387
 3077TIP3   OH233425   6.953   5.835   1.443 -0.1005 -0.7323 -0.3617
 3077TIP3    H133426   6.928   5.916   1.401 -0.4028 -1.2311 -1.1636
 3077TIP3    H233427   7.047   5.844   1.459 -0.4836  0.5916  1.4413
 3078TIP3   OH233428   0.788   6.859   6.918  0.2439 -0.0464 -0.5200
 3078TIP3    H133429   0.867   6.827   6.874 -0.0909 -1.3460 -0.2261
 3078TIP3    H233430   0.727   6.786   6.912 -0.3928  0.3749  0.6215
 3079TIP3   OH233431   6.873   6.407   9.909  0.4477 -0.3895 -0.1169
 3079TIP3    H133432   6.956   6.401   9.861  0.1184  1.2727 -0.9757
 3079TIP3    H233433   6.807   6.385   9.843  0.1881 -2.3726  0.7298
 3080TIP3   OH233434   3.190   4.633   2.787  1.0145  0.0001 -0.2493
 3080TIP3    H133435   3.229   4.611   2.872  0.4872 -0.7771 -0.1978
 3080TIP3    H233436   3.110   4.581   2.783  0.8166  0.3506 -1.0465
 3081TIP3   OH233437   6.536   3.207   9.037 -0.6901 -0.1119 -0.0257
 3081TIP3    H133438   6.499   3.142   9.097  0.3053 -0.3087  0.3999
 3081TIP3    H233439   6.504   3.180   8.950 -0.0254 -1.3930  0.0944
 3082TIP3   OH233440   3.752   6.918   7.386  0.0568  0.3616 -0.1654
 3082TIP3    H133441   3.739   6.987   7.322  1.8178 -0.0372 -1.0138
 3082TIP3    H233442   3.822   6.950   7.443  1.4647 -0.9779 -1.0504
 3083TIP3   OH233443   1.567   2.170   8.585  0.0748  0.0802  0.6633
 3083TIP3    H133444   1.568   2.189   8.679  1.0732  0.1819  0.6419
 3083TIP3    H233445   1.646   2.119   8.570  0.3345  0.7346 -0.2558
 3084TIP3   OH233446   7.077   5.313   0.483 -0.5925  0.0793 -0.1000
 3084TIP3    H133447   7.058   5.232   0.530 -1.5081 -0.5886 -1.5575
 3084TIP3    H233448   7.151   5.291   0.426 -1.7117 -0.1759 -1.5045
 3085TIP3   OH233449   5.899   5.390   0.974  0.3282  0.3761  0.4905
 3085TIP3    H133450   5.984   5.381   1.016  1.2101  0.6839 -1.1571
 3085TIP3    H233451   5.881   5.484   0.975  0.4920  0.4160 -0.0710
 3086TIP3   OH233452   2.372   4.242   9.590  0.1034  0.8976  0.2776
 3086TIP3    H133453   2.338   4.325   9.621  2.3263  1.8118  0.4872
 3086TIP3    H233454   2.375   4.186   9.668 -1.6231  0.4896  0.0867
 3087TIP3   OH233455   1.810   4.813   8.067 -0.5180 -0.4770  0.1679
 3087TIP3    H133456   1.858   4.730   8.076 -1.4648 -1.0462  0.0594
 3087TIP3    H233457   1.780   4.814   7.976 -1.1672 -0.3864  0.3789
 3088TIP3   OH233458   6.708   7.210   0.649 -0.5485 -0.4516 -0.1560
 3088TIP3    H133459   6.685   7.273   0.717  0.7328 -0.7511  0.5948
 3088TIP3    H233460   6.736   7.263   0.575 -0.5772 -0.1320  0.0615
 3089TIP3   OH233461   1.137   7.185   2.197 -0.0835 -0.2511 -0.0726
 3089TIP3    H133462   1.050   7.208   2.166 -0.3311  1.2404  1.5672
 3089TIP3    H233463   1.129   7.095   2.229 -0.5780 -0.6958 -1.4067
 3090TIP3   OH233464   0.448   6.891   0.377  0.4543  0.0970  0.2136
 3090TIP3    H133465   0.440   6.803   0.340  0.1663  0.6036 -0.9570
 3090TIP3    H233466   0.387   6.891   0.451 -1.9709  0.2419 -1.6361
 3091TIP3   OH233467   4.239   1.394   7.812 -0.0450  0.1350 -0.1825
 3091TIP3    H133468   4.149   1.388   7.781 -0.1141  0.9199 -0.1442
 3091TIP3    H233469   4.277   1.468   7.765  0.4900 -0.0032  0.0200
 3092TIP3   OH233470   3.989   2.482   9.645 -0.2850 -0.9545  0.2717
 3092TIP3    H133471   3.986   2.440   9.730  2.4649 -2.5238 -0.2805
 3092TIP3    H233472   3.914   2.447   9.597 -2.3296  0.5371  2.1756
 3093TIP3   OH233473   2.353   2.617   8.786 -0.3884  0.0349  0.1220
 3093TIP3    H133474   2.397   2.625   8.871 -1.2741 -0.1431  0.6056
 3093TIP3    H233475   2.286   2.551   8.800 -0.9937  0.4994 -0.5384
 3094TIP3   OH233476   5.533   6.751   8.708  0.2533  0.3768 -0.6333
 3094TIP3    H133477   5.468   6.801   8.659 -2.5098 -0.2016  2.1104
 3094TIP3    H233478   5.556   6.807   8.782  1.1896 -0.3178 -0.3838
 3095TIP3   OH233479   3.061   6.187   0.178  0.7356  0.0551 -0.3913
 3095TIP3    H133480   3.081   6.265   0.230  0.1999  1.5427 -2.3076
 3095TIP3    H233481   2.986   6.213   0.124 -1.2954 -2.7105  0.8463
 3096TIP3   OH233482   1.171   3.057   8.314  0.4642  0.0261  0.2024
 3096TIP3    H133483   1.128   3.061   8.399  1.0562  2.0673  0.4770
 3096TIP3    H233484   1.264   3.042   8.335  0.2047 -2.7136 -0.2960
 3097TIP3   OH233485   3.017   1.535   7.020 -0.3477 -0.9298 -0.1248
 3097TIP3    H133486   3.067   1.455   7.038 -0.4283 -1.7881 -3.1346
 3097TIP3    H233487   3.076   1.606   7.044  0.2052 -1.8845  1.4604
 3098TIP3   OH233488   7.341   0.290   2.937 -0.1583 -0.1093 -0.2443
 3098TIP3    H133489   7.404   0.349   2.978 -0.5780  0.0643  0.1512
 3098TIP3    H233490   7.360   0.204   2.975 -0.8068  0.1208  0.6187
 3099TIP3   OH233491   6.754   5.804   0.060  0.3564  0.2441 -0.0970
 3099TIP3    H133492   6.688   5.736   0.065  0.1482  0.0394 -3.2768
 3099TIP3    H233493   6.706   5.886   0.070 -0.1564  0.0361 -0.7954
 3100TIP3   OH233494   6.465   4.564   9.548 -0.7079  0.1960 -0.3344
 3100TIP3    H133495   6.472   4.639   9.489  0.1203  0.4358  0.0579
 3100TIP3    H233496   6.386   4.582   9.600 -1.3360  0.0723 -1.2301
 3101TIP3   OH233497   6.736   3.073   0.707 -0.0185 -0.3853 -0.2531
 3101TIP3    H133498   6.752   3.164   0.732  0.8481 -0.4516 -0.5172
 3101TIP3    H233499   6.649   3.074   0.666  1.2434  0.9793 -3.1971
 3102TIP3   OH233500   2.429   4.094   3.209  0.2211  0.5752  0.0527
 3102TIP3    H133501   2.392   4.123   3.126  0.3480  0.6308  0.0160
 3102TIP3    H233502   2.435   3.999   3.201  0.5298  0.6101 -0.1214
 3103TIP3   OH233503   0.231   0.990   1.685 -0.4372  0.5244 -0.3949
 3103TIP3    H133504   0.327   0.987   1.689 -0.4640  0.3646  2.4075
 3103TIP3    H233505   0.205   1.023   1.771 -3.0348 -5.0958  1.4360
 3104TIP3   OH233506   0.255   1.974   9.510  0.4738 -0.0641  0.2498
 3104TIP3    H133507   0.282   1.926   9.432  1.8160  0.5347  0.3189
 3104TIP3    H233508   0.168   1.940   9.531  0.7438 -1.3204 -0.6121
 3105TIP3   OH233509   0.737   5.877   1.573 -0.1950 -0.1330  0.4311
 3105TIP3    H133510   0.812   5.841   1.622 -0.1114  1.6084  1.6779
 3105TIP3    H233511   0.660   5.846   1.621 -0.3209 -1.7323 -0.7188
 3106TIP3   OH233512   2.668   6.625   2.778 -0.5109  0.1955 -0.0211
 3106TIP3    H133513   2.621   6.681   2.716  0.7374  0.1044 -1.0837
 3106TIP3    H233514   2.650   6.536   2.749  1.1391  0.1761 -1.1110
 3107TIP3   OH233515   4.124   4.642   0.358  0.1112  0.0906  0.4158
 3107TIP3    H133516   4.159   4.566   0.313  0.3647 -0.4839  1.5521
 3107TIP3    H233517   4.132   4.621   0.452  0.7434  1.7516  0.7716
 3108TIP3   OH233518   6.290   6.506   1.354 -0.1714 -0.7068  0.4110
 3108TIP3    H133519   6.232   6.434   1.379 -1.4678  0.2713  0.3017
 3108TIP3    H233520   6.360   6.504   1.420 -0.3620 -1.8588  0.5984
 3109TIP3   OH233521   2.360   0.656   1.456  0.0075 -0.1239 -0.1088
 3109TIP3    H133522   2.335   0.564   1.449 -1.6231  0.2626  0.1564
 3109TIP3    H233523   2.414   0.672   1.378 -0.9477 -0.9320 -0.9729
 3110TIP3   OH233524   6.944   0.077   1.641  0.5398 -0.2055 -0.3432
 3110TIP3    H133525   6.959   0.140   1.712 -1.1628  2.0478 -1.8433
 3110TIP3    H233526   7.027   0.073   1.594  0.7086  0.8870 -0.1634
 3111TIP3   OH233527   6.291   6.382   9.915 -0.2309  0.0703  0.3195
 3111TIP3    H133528   6.295   6.312   9.851 -1.0373 -0.2606  0.6086
 3111TIP3    H233529   6.305   6.339   9.999 -2.3774 -0.0527  0.6701
 3112TIP3   OH233530   2.860   5.795   6.211  0.2899  0.1328  0.4223
 3112TIP3    H133531   2.796   5.860   6.238  1.4338  1.9404 -0.9640
 3112TIP3    H233532   2.940   5.845   6.196  1.9662 -1.9941  1.7720
 3113TIP3   OH233533   2.004   0.166   1.810  0.0579 -0.1141  0.1025
 3113TIP3    H133534   2.052   0.183   1.729  0.5115 -0.8404  0.2130
 3113TIP3    H233535   2.052   0.094   1.852 -0.5630 -0.1943  0.6892
 3114TIP3   OH233536   7.296   3.032   1.286  0.3273  0.1192 -0.2908
 3114TIP3    H133537   7.267   3.118   1.316  0.8218 -0.2396  1.2984
 3114TIP3    H233538   7.217   2.977   1.290  0.8945 -0.6641  3.3053
 3115TIP3   OH233539   2.018   0.710   3.442  0.6712  0.0341 -0.5629
 3115TIP3    H133540   2.002   0.792   3.487  1.3645  0.5219 -1.1635
 3115TIP3    H233541   2.114   0.707   3.432  0.7040 -1.1524  0.0153
 3116TIP3   OH233542   5.993   1.539   9.916 -0.1972  0.4434 -0.2369
 3116TIP3    H133543   5.993   1.634   9.905 -1.8490  0.5222  0.1077
 3116TIP3    H233544   5.995   1.525  10.011 -0.5710  0.1549 -0.2690
 3117TIP3   OH233545   5.521   3.036   1.690  0.0595  0.1717 -0.3349
 3117TIP3    H133546   5.593   3.038   1.753  2.8799  1.0916 -3.2973
 3117TIP3    H233547   5.465   3.110   1.715  1.5308  1.0026  0.6412
 3118TIP3   OH233548   6.287   5.805   0.386 -0.2764  0.1524 -0.5989
 3118TIP3    H133549   6.229   5.768   0.319 -0.2720 -0.2254 -0.3950
 3118TIP3    H233550   6.232   5.868   0.433  0.3190  2.1442 -2.4041
 3119TIP3   OH233551   0.072   1.950   0.239 -0.3985  0.0757  0.2709
 3119TIP3    H133552   0.057   1.856   0.226 -0.0233  0.1793 -1.0503
 3119TIP3    H233553   0.040   1.967   0.327  1.5850 -1.7419  1.4405
 3120TIP3   OH233554   6.406   7.120   9.504  0.3258  0.2694  0.4841
 3120TIP3    H133555   6.346   7.144   9.574 -0.8655 -0.2815 -0.3175
 3120TIP3    H233556   6.403   7.194   9.443 -0.6338 -0.3416 -0.2403
 3121TIP3   OH233557   6.040   6.440   7.486 -0.9097 -0.1898 -0.0496
 3121TIP3    H133558   6.133   6.421   7.489 -1.0371 -0.7846  0.5806
 3121TIP3    H233559   5.998   6.354   7.491 -1.4993  0.1416  1.2925
 3122TIP3   OH233560   3.464   3.370   2.030 -0.5044 -0.0914 -0.0880
 3122TIP3    H133561   3.384   3.400   2.072 -0.6826  0.3829 -0.7455
 3122TIP3    H233562   3.524   3.351   2.102 -1.3080 -0.7534  0.4252
 3123TIP3   OH233563   4.990   5.777   7.602 -0.3340  0.2565 -0.1730
 3123TIP3    H133564   5.014   5.685   7.591 -1.1037 -0.0764  0.7861
 3123TIP3    H233565   4.918   5.791   7.541  0.4497  0.5198 -1.0666
 3124TIP3   OH233566   1.159   4.081   9.420 -0.1587 -0.1450 -0.0838
 3124TIP3    H133567   1.223   4.152   9.433 -1.3076  0.6181  1.7136
 3124TIP3    H233568   1.108   4.108   9.344  0.1860  0.3616 -0.1398
 3125TIP3   OH233569   4.522   6.677   9.391 -0.0240  0.1594 -0.0191
 3125TIP3    H133570   4.601   6.729   9.377  0.6130 -0.6465  0.5020
 3125TIP3    H233571   4.479   6.675   9.305  2.1246 -1.9587 -1.1448
 3126TIP3   OH233572   1.628   4.599   9.384 -0.3823 -0.2809 -0.2742
 3126TIP3    H133573   1.552   4.640   9.425  0.6271  1.0530  0.3770
 3126TIP3    H233574   1.646   4.522   9.438 -0.0108  0.5941  0.8972
 3127TIP3   OH233575   2.519   6.653   8.842 -0.1715  0.4035  0.2092
 3127TIP3    H133576   2.462   6.625   8.771  1.6797  1.0004 -1.6112
 3127TIP3    H233577   2.460   6.667   8.916 -2.4105  1.2003 -1.6132
 3128TIP3   OH233578   2.215   3.903   1.639 -0.0440 -0.2227  0.0018
 3128TIP3    H133579   2.253   3.828   1.593 -0.4805 -0.3224 -0.2090
 3128TIP3    H233580   2.290   3.956   1.665  0.2527 -0.5708 -0.1295
 3129TIP3   OH233581   4.296   0.312   1.309  0.5651 -0.1529  0.3126
 3129TIP3    H133582   4.380   0.336   1.350  1.2276 -0.6320 -0.7151
 3129TIP3    H233583   4.249   0.395   1.301  0.9200  0.1200  0.9255
 3130TIP3   OH233584   6.763   6.293   0.589 -0.7146 -0.2361 -0.0977
 3130TIP3    H133585   6.752   6.387   0.572  0.4438  0.1018  0.8558
 3130TIP3    H233586   6.732   6.282   0.679 -1.3816 -0.8934 -0.3982
 3131TIP3   OH233587   4.263   3.368   9.397 -0.5939 -0.2545 -0.3657
 3131TIP3    H133588   4.188   3.310   9.409  0.0932 -1.4864 -1.6653
 3131TIP3    H233589   4.234   3.431   9.330 -1.1021  0.4982  0.5413
 3132TIP3   OH233590   5.403   0.610   9.283 -0.2064 -0.0547 -0.1341
 3132TIP3    H133591   5.452   0.531   9.304  0.9336  0.4743 -0.7113
 3132TIP3    H233592   5.400   0.659   9.365  3.1807  1.4405 -0.7333
 3133TIP3   OH233593   5.520   6.577   2.399 -0.2939  0.9231  0.1692
 3133TIP3    H133594   5.591   6.542   2.453 -2.4237 -0.4206  2.2843
 3133TIP3    H233595   5.458   6.614   2.462 -2.5008  0.0952 -1.3986
 3134TIP3   OH233596   1.342   6.225   7.347  0.4016 -0.1770 -0.4919
 3134TIP3    H133597   1.342   6.141   7.300  0.8916 -0.7701  0.5201
 3134TIP3    H233598   1.435   6.244   7.361  0.3324  0.9557 -1.3935
 3135TIP3   OH233599   4.605   1.699   8.747  0.4187  0.4258 -0.2812
 3135TIP3    H133600   4.648   1.779   8.776  0.6753  1.1713 -2.4832
 3135TIP3    H233601   4.645   1.680   8.662 -2.0473 -0.0645 -1.4304
 3136TIP3   OH233602   1.285   2.040   7.487 -0.6474 -0.1442  0.0248
 3136TIP3    H133603   1.222   2.105   7.456 -1.2343 -0.9253 -0.4669
 3136TIP3    H233604   1.306   2.067   7.577  0.5658  1.7725 -0.7752
 3137TIP3   OH233605   0.073   5.904   8.503 -0.1271 -0.0937  0.1497
 3137TIP3    H133606   0.097   5.849   8.429  0.0294  0.1508  0.0161
 3137TIP3    H233607   0.052   5.842   8.573  0.6260 -0.3211  0.1859
 3138TIP3   OH233608   1.295   2.354   0.172  0.1914  0.1838  0.1612
 3138TIP3    H133609   1.385   2.322   0.161  0.6061  1.3618  0.0121
 3138TIP3    H233610   1.243   2.299   0.113  1.1452  0.8804 -1.4102
 3139TIP3   OH233611   4.896   6.528   8.110 -0.0917  0.5758  0.1447
 3139TIP3    H133612   4.908   6.572   8.026 -1.7238  2.0217  0.6170
 3139TIP3    H233613   4.818   6.474   8.098  1.1191 -1.2095 -0.0070
 3140TIP3   OH233614   6.457   0.102   8.378  0.0653 -0.3844  0.5373
 3140TIP3    H133615   6.453   0.056   8.462  0.6679  0.1935  0.8950
 3140TIP3    H233616   6.464   0.195   8.403 -1.6646 -0.0206 -0.1568
 3141TIP3   OH233617   6.987   2.053   9.876 -0.1188 -0.5098  0.3654
 3141TIP3    H133618   7.041   1.974   9.881  0.9101  0.1136 -0.4622
 3141TIP3    H233619   7.038   2.120   9.922  0.5327  0.4374 -1.5961
 3142TIP3   OH233620   1.446   3.172   2.301  0.2089 -0.1455 -0.3299
 3142TIP3    H133621   1.455   3.078   2.283  2.2976  0.0214 -0.3750
 3142TIP3    H233622   1.437   3.177   2.396  1.2841 -0.3666 -0.1940
 3143TIP3   OH233623   6.770   3.939   2.467  0.2522  0.4786 -0.0616
 3143TIP3    H133624   6.798   3.990   2.391 -0.1689 -0.3070 -0.7681
 3143TIP3    H233625   6.789   3.995   2.542 -0.5539  1.8306 -0.8188
 3144TIP3   OH233626   5.388   4.732   1.311  0.7305 -0.3689 -0.4894
 3144TIP3    H133627   5.417   4.768   1.395  0.0658  0.9342 -0.7908
 3144TIP3    H233628   5.469   4.717   1.262  1.0300  1.9775 -0.8345
 3145TIP3   OH233629   2.289   0.478   8.558 -0.2216 -0.2454  0.1028
 3145TIP3    H133630   2.228   0.444   8.624  0.2859 -0.4443  0.4807
 3145TIP3    H233631   2.315   0.564   8.592  1.8849 -1.3225  1.4325
 3146TIP3   OH233632   5.900   0.143   8.404 -0.2321  0.1042 -0.0930
 3146TIP3    H133633   5.962   0.082   8.445 -2.0415 -1.4346  0.5302
 3146TIP3    H233634   5.833   0.157   8.471 -1.0984  0.8835 -1.0981
 3147TIP3   OH233635   1.208   3.652   9.568  0.4047 -0.0516 -0.6872
 3147TIP3    H133636   1.178   3.679   9.481 -1.8662  1.3435  0.4150
 3147TIP3    H233637   1.175   3.563   9.578 -0.6781  0.3193 -0.7317
 3148TIP3   OH233638   0.060   6.759   1.835 -0.2294  0.3227 -0.0529
 3148TIP3    H133639  -0.010   6.765   1.901  0.3670 -0.1889  0.6402
 3148TIP3    H233640   0.065   6.847   1.799 -1.2270  0.3755 -0.1136
 3149TIP3   OH233641   3.631   4.482   7.734  0.0420 -0.0604 -0.3853
 3149TIP3    H133642   3.691   4.462   7.806  0.4590 -0.6382 -0.8812
 3149TIP3    H233643   3.675   4.446   7.656 -1.0767 -0.7309 -0.7243
 3150TIP3   OH233644   5.186   2.707   1.471  0.0438 -0.1117  0.1483
 3150TIP3    H133645   5.250   2.694   1.401 -0.5295  0.3907 -0.4831
 3150TIP3    H233646   5.239   2.720   1.550  0.7345  0.5662 -0.4141
 3151TIP3   OH233647   6.809   3.024   1.723 -0.0062 -0.5489  0.0530
 3151TIP3    H133648   6.857   3.035   1.805 -0.5926  1.0485  0.2130
 3151TIP3    H233649   6.874   2.987   1.663  0.6930 -0.8320  0.9567
 3152TIP3   OH233650   6.016   5.335   9.166 -0.3121  0.3149 -0.0347
 3152TIP3    H133651   6.013   5.255   9.218  0.0600 -0.9246 -1.8392
 3152TIP3    H233652   5.928   5.371   9.174 -1.7414 -2.3293 -2.1789
 3153TIP3   OH233653   0.945   2.602   1.887 -0.4263 -0.2313 -0.2584
 3153TIP3    H133654   1.022   2.567   1.843 -0.5124  0.4779 -0.9906
 3153TIP3    H233655   0.979   2.644   1.966  0.0003  0.4975 -0.8226
 3154TIP3   OH233656   5.754   5.596   7.912 -0.2016 -0.2898  0.3488
 3154TIP3    H133657   5.683   5.538   7.886 -0.6910 -0.5754  2.2118
 3154TIP3    H233658   5.731   5.625   8.000  1.6839  0.0983  0.7569
 3155TIP3   OH233659   5.436   4.700   0.132 -0.0698  0.2287 -0.3197
 3155TIP3    H133660   5.414   4.793   0.126  0.6710  0.5660  1.5763
 3155TIP3    H233661   5.360   4.660   0.175  0.4614  0.3224  0.7150
 3156TIP3   OH233662   1.243   6.269   9.182  0.3454  0.7735  0.2896
 3156TIP3    H133663   1.334   6.240   9.173  0.9353  2.6093 -0.2258
 3156TIP3    H233664   1.227   6.270   9.277  0.3854 -0.8582  0.3306
 3157TIP3   OH233665   5.886   1.860   0.489  0.2776 -0.2896  0.5319
 3157TIP3    H133666   5.798   1.897   0.477  0.5171 -0.2259 -1.3702
 3157TIP3    H233667   5.880   1.811   0.571 -1.8402 -1.0865 -0.0164
 3158TIP3   OH233668   2.625   6.345   8.497 -0.1781 -0.3201  0.2584
 3158TIP3    H133669   2.680   6.386   8.429  0.9953 -1.4196  0.5142
 3158TIP3    H233670   2.670   6.366   8.579 -1.1991  0.3804  0.6588
 3159TIP3   OH233671   2.084   4.527   3.083  0.3351 -0.0104  0.1409
 3159TIP3    H133672   2.168   4.515   3.126  0.4621 -1.0148 -0.3473
 3159TIP3    H233673   2.025   4.555   3.153  1.2628  1.6613  0.3085
 3160TIP3   OH233674   3.142   6.445   9.114 -0.2910  0.2631  0.3094
 3160TIP3    H133675   3.220   6.400   9.081 -1.9120 -1.4740 -1.4326
 3160TIP3    H233676   3.124   6.403   9.198 -0.7417 -1.1706 -0.4607
 3161TIP3   OH233677   5.553   2.905   8.400 -0.1296 -0.0498 -0.2834
 3161TIP3    H133678   5.482   2.935   8.457 -0.1477  1.7874 -1.2274
 3161TIP3    H233679   5.536   2.946   8.316  2.6351  1.3799 -0.2507
 3162TIP3   OH233680   4.145   0.667   8.348  0.1651 -0.0182  0.1778
 3162TIP3    H133681   4.173   0.622   8.427  1.5632 -0.6633 -0.6398
 3162TIP3    H233682   4.209   0.738   8.336 -0.6372  0.7219  0.1749
 3163TIP3   OH233683   5.842   5.540   1.916 -0.5902  0.3616  0.1214
 3163TIP3    H133684   5.771   5.512   1.973  1.1611  0.3116  2.4665
 3163TIP3    H233685   5.866   5.462   1.866 -0.2630 -0.4869  1.5378
 3164TIP3   OH233686   2.716   0.528   9.617 -1.3423  0.3015  0.2721
 3164TIP3    H133687   2.728   0.448   9.568 -0.0519  0.7964 -0.2649
 3164TIP3    H233688   2.777   0.521   9.691 -0.5903  1.1168 -0.2402
 3165TIP3   OH233689   5.649   0.990   9.129 -0.3430 -0.5368 -0.0956
 3165TIP3    H133690   5.727   0.938   9.109  0.0315 -0.9181  2.0233
 3165TIP3    H233691   5.594   0.931   9.182 -1.7585 -0.0408 -0.9481
 3166TIP3   OH233692   3.382   4.128   7.866 -0.2799 -0.0214 -0.3022
 3166TIP3    H133693   3.468   4.145   7.906 -0.3011 -0.0218 -0.2567
 3166TIP3    H233694   3.389   4.037   7.835 -0.1385  0.1013 -0.6260
 3167TIP3   OH233695   0.630   2.128   9.106 -0.0527  0.3486  0.0009
 3167TIP3    H133696   0.540   2.103   9.084  0.0172  0.5410 -0.5034
 3167TIP3    H233697   0.622   2.170   9.192 -0.4769  0.5630 -0.1388
 3168TIP3   OH233698   2.478   4.382   7.501 -0.0546  0.3279 -0.0034
 3168TIP3    H133699   2.449   4.438   7.573 -0.0976 -0.7610  0.8652
 3168TIP3    H233700   2.549   4.330   7.539  0.4879  0.3286 -1.0071
 3169TIP3   OH233701   5.818   7.197   9.299  0.5164  0.2372  0.7213
 3169TIP3    H133702   5.746   7.149   9.341  0.6451  0.1960  0.8986
 3169TIP3    H233703   5.881   7.129   9.275 -0.0458  0.1432 -0.5357
 3170TIP3   OH233704   6.946   7.038   1.934  0.1617 -0.1152 -0.2185
 3170TIP3    H133705   6.964   6.985   2.011 -0.5627  0.3982  0.3249
 3170TIP3    H233706   6.867   6.999   1.896 -1.3767  1.5144  1.1331
 3171TIP3   OH233707   3.784   2.324   7.516 -0.1723  0.3741 -0.8336
 3171TIP3    H133708   3.777   2.269   7.594  0.0990  0.1520 -0.9658
 3171TIP3    H233709   3.857   2.287   7.467 -0.1000  0.7451 -1.0087
 3172TIP3   OH233710   1.641   4.633   2.314  0.3749  0.2800  0.2707
 3172TIP3    H133711   1.701   4.654   2.386 -1.2742  1.8381  1.2759
 3172TIP3    H233712   1.587   4.562   2.348  0.8942 -0.3526 -0.2078
 3173TIP3   OH233713   2.684   4.479   2.447 -0.0504 -0.1373  0.3254
 3173TIP3    H133714   2.604   4.529   2.458  1.1629  2.4154 -1.5007
 3173TIP3    H233715   2.730   4.490   2.531 -0.7092  0.0440  0.6726
 3174TIP3   OH233716   7.165   2.098   8.425  0.5682  0.2385 -0.3155
 3174TIP3    H133717   7.241   2.050   8.392  1.2241  1.0889 -0.0734
 3174TIP3    H233718   7.191   2.129   8.512 -1.7759 -3.6015  2.0611
 3175TIP3   OH233719   3.985   0.913   0.475 -0.6197 -0.0966  0.1358
 3175TIP3    H133720   3.898   0.883   0.450 -0.4674  0.4658 -1.1673
 3175TIP3    H233721   4.040   0.891   0.399  0.3769 -0.4412  0.9395
 3176TIP3   OH233722   2.428   4.955   8.344 -0.0423  0.0710 -0.1521
 3176TIP3    H133723   2.362   5.003   8.395 -0.3529  0.9384 -1.3006
 3176TIP3    H233724   2.465   5.022   8.285  2.5189 -0.1846  1.0484
 3177TIP3   OH233725   2.743   1.323   2.120  0.1122  0.3985  0.2767
 3177TIP3    H133726   2.783   1.236   2.112 -1.9371 -0.7985  1.9090
 3177TIP3    H233727   2.811   1.383   2.091  0.9666 -1.8087 -2.8338
 3178TIP3   OH233728   2.693   1.950   2.430 -0.3610 -0.1222  0.0347
 3178TIP3    H133729   2.660   2.025   2.479  0.6243  0.3398  0.0249
 3178TIP3    H233730   2.651   1.956   2.345  0.2341  0.8394 -0.2079
 3179TIP3   OH233731   2.917   1.248   8.396 -0.1000 -0.5231  0.3998
 3179TIP3    H133732   3.002   1.205   8.405  0.2143  0.0075  0.0339
 3179TIP3    H233733   2.898   1.245   8.302 -0.0550  0.1672  0.3634
 3180TIP3   OH233734   2.162   0.198   0.186  0.2261 -0.2388  0.2843
 3180TIP3    H133735   2.198   0.230   0.269 -0.4340  0.7826  0.1977
 3180TIP3    H233736   2.097   0.133   0.211  0.7729 -0.7144  0.5116
 3181TIP3   OH233737   4.690   0.913   8.895 -0.3891  0.0370 -0.5041
 3181TIP3    H133738   4.643   0.997   8.891  0.5284  0.6268  0.5738
 3181TIP3    H233739   4.620   0.847   8.894 -1.5590  0.9200  3.5274
 3182TIP3   OH233740   0.914   5.458   7.176 -0.5686  0.3595 -0.2600
 3182TIP3    H133741   0.894   5.370   7.206 -2.1948  0.2571 -1.5579
 3182TIP3    H233742   0.929   5.508   7.257 -2.4999 -0.4404  0.6399
 3183TIP3   OH233743   1.636   0.391   6.787  0.2400  0.2333  0.1631
 3183TIP3    H133744   1.552   0.425   6.756  0.0295  1.5517  1.9826
 3183TIP3    H233745   1.693   0.468   6.790  0.6176 -0.0699  1.6944
 3184TIP3   OH233746   2.460   3.469   2.864  0.3526 -0.2222 -0.6199
 3184TIP3    H133747   2.547   3.502   2.842  0.3950  1.2977  1.5555
 3184TIP3    H233748   2.440   3.407   2.793  2.7033  0.2053 -1.7748
 3185TIP3   OH233749   1.917   3.925   7.295 -0.0230  0.0991 -0.5279
 3185TIP3    H133750   1.930   3.966   7.210 -1.4842  0.8372 -0.4116
 3185TIP3    H233751   1.825   3.899   7.296 -0.3366  1.1158  1.2397
 3186TIP3   OH233752   6.371   3.414   7.754  0.2429 -0.5218 -0.2184
 3186TIP3    H133753   6.324   3.443   7.676  1.8550 -0.0935 -1.0912
 3186TIP3    H233754   6.447   3.367   7.720  1.5633  0.5889  1.0505
 3187TIP3   OH233755   3.853   6.643   9.717 -0.0021  0.2562  0.0642
 3187TIP3    H133756   3.933   6.625   9.668  0.2326 -0.3700  0.6590
 3187TIP3    H233757   3.793   6.572   9.692  0.2492 -0.2842  0.9491
 3188TIP3   OH233758   1.678   6.530   7.229 -0.3558 -0.2280 -0.1849
 3188TIP3    H133759   1.765   6.494   7.212 -0.2905 -0.1188 -0.0842
 3188TIP3    H233760   1.673   6.538   7.325 -0.0277  0.8681 -0.2486
 3189TIP3   OH233761   2.192   6.246   8.797  0.4152 -0.2111  0.1355
 3189TIP3    H133762   2.265   6.278   8.744 -1.3524  0.8303 -1.8001
 3189TIP3    H233763   2.224   6.163   8.834  2.7858  0.5478 -0.0358
 3190TIP3   OH233764   0.864   4.039   0.460 -0.4589  0.6538  0.6039
 3190TIP3    H133765   0.805   3.967   0.440  0.8606 -0.6650  1.2224
 3190TIP3    H233766   0.949   3.997   0.473  0.2966  2.2976  1.2839
 3191TIP3   OH233767   5.127   4.305   9.225 -0.2618 -0.0464  0.0235
 3191TIP3    H133768   5.053   4.246   9.213 -0.4629  0.1025  0.5000
 3191TIP3    H233769   5.204   4.248   9.219 -0.4642 -0.4151  0.7854
 3192TIP3   OH233770   1.933   3.847   9.889  0.7810 -0.1225 -0.1256
 3192TIP3    H133771   1.940   3.896   9.807 -0.4596  0.7774  0.2739
 3192TIP3    H233772   1.914   3.757   9.862 -0.9976  0.4243 -0.8408
 3193TIP3   OH233773   5.024   3.742   9.915  0.0593 -0.1971 -0.6826
 3193TIP3    H133774   4.943   3.695   9.937  1.2329 -1.9258  0.1705
 3193TIP3    H233775   5.064   3.761  10.000  1.5145 -1.1808 -1.1130
 3194TIP3   OH233776   0.331   5.659   0.887  0.3290  0.3501 -0.5640
 3194TIP3    H133777   0.355   5.613   0.967  0.0376  0.2635 -0.5258
 3194TIP3    H233778   0.300   5.745   0.916 -1.8455 -0.4225 -0.3740
 3195TIP3   OH233779   7.392   2.639   0.297 -0.1670  0.3809 -0.1767
 3195TIP3    H133780   7.371   2.638   0.204  1.1698  0.1964 -0.4955
 3195TIP3    H233781   7.487   2.625   0.301 -0.1001  1.0199  1.1814
 3196TIP3   OH233782   2.780   7.409   6.243 -0.6024  0.0210 -0.0263
 3196TIP3    H133783   2.733   7.490   6.259  0.5221  0.3197  2.2464
 3196TIP3    H233784   2.869   7.437   6.222 -0.3558 -0.5954  0.1719
 3197TIP3   OH233785   5.710   3.000   1.462 -0.1344 -0.2046  0.2712
 3197TIP3    H133786   5.707   3.067   1.394 -0.6704 -0.2641  0.2320
 3197TIP3    H233787   5.645   3.029   1.527 -0.4149 -0.7153  0.2235
 3198TIP3   OH233788   5.815   2.551   0.443  0.0682  0.2854  0.2166
 3198TIP3    H133789   5.831   2.484   0.510 -1.8853 -0.1768  0.2842
 3198TIP3    H233790   5.816   2.504   0.360  0.6648  0.5444  0.0670
 3199TIP3   OH233791   3.452   6.835   0.914 -0.5290  0.0772 -0.4320
 3199TIP3    H133792   3.379   6.801   0.965  0.6621  0.2003  1.4600
 3199TIP3    H233793   3.528   6.784   0.942  0.3890  0.9554 -1.2063
 3200TIP3   OH233794   5.886   3.041   1.883  0.2322  0.3038 -0.1624
 3200TIP3    H133795   5.898   3.136   1.890  0.8587  0.3450 -1.5478
 3200TIP3    H233796   5.791   3.028   1.887  0.0453  1.1355 -1.3373
 3201TIP3   OH233797   1.825   6.436   2.923 -0.4514 -0.0500  0.4285
 3201TIP3    H133798   1.730   6.425   2.924 -0.8430  2.7117  0.1776
 3201TIP3    H233799   1.851   6.411   2.834 -1.5658  2.8322 -0.8336
 3202TIP3   OH233800   6.117   2.444   0.559  0.8061  0.3095  0.4774
 3202TIP3    H133801   6.203   2.429   0.598  0.3485  2.9275  2.7978
 3202TIP3    H233802   6.125   2.528   0.515 -0.1752 -0.1462 -0.6229
 3203TIP3   OH233803   3.955   4.243   7.106 -0.2096 -0.2961 -0.2671
 3203TIP3    H133804   3.984   4.329   7.135 -1.9467 -0.1161  1.1240
 3203TIP3    H233805   4.035   4.200   7.074  0.8828  1.4138  0.0395
 3204TIP3   OH233806   5.394   1.919   7.434  0.8070  0.1131  0.4127
 3204TIP3    H133807   5.369   1.953   7.520  0.0776  0.7563 -0.0462
 3204TIP3    H233808   5.482   1.884   7.447  0.6574  0.0906  1.4519
 3205TIP3   OH233809   5.671   2.756   2.235  0.1910  0.2593  0.2717
 3205TIP3    H133810   5.629   2.703   2.302  1.5470  0.6676  1.5042
 3205TIP3    H233811   5.600   2.785   2.178 -1.1010  0.4579  1.9302
 3206TIP3   OH233812   4.590   4.213   8.341  0.4223 -0.1346 -0.4953
 3206TIP3    H133813   4.568   4.228   8.249 -0.0240 -0.7143 -0.4878
 3206TIP3    H233814   4.686   4.210   8.342  0.4128 -1.0332 -1.0944
 3207TIP3   OH233815   3.084   3.221   0.612 -0.0213 -0.0119  0.1118
 3207TIP3    H133816   3.110   3.237   0.703 -0.4180  0.5140  0.1398
 3207TIP3    H233817   3.039   3.301   0.587  2.4303  1.0158 -1.4157
 3208TIP3   OH233818   0.215   3.353   0.252  0.3173 -0.5593 -0.0499
 3208TIP3    H133819   0.262   3.399   0.321  0.7505 -1.5483  0.3384
 3208TIP3    H233820   0.160   3.290   0.299 -0.0783 -0.6135 -0.5738
 3209TIP3   OH233821   4.199   0.166   2.835 -0.1738  0.3336 -0.4632
 3209TIP3    H133822   4.150   0.246   2.815 -2.2066 -0.4077  1.2514
 3209TIP3    H233823   4.291   0.192   2.827 -0.7182  3.2114  1.3148
 3210TIP3   OH233824   1.787   0.154   2.740 -0.1432 -0.5118 -0.3535
 3210TIP3    H133825   1.757   0.225   2.682 -1.0249  0.4726  1.2480
 3210TIP3    H233826   1.807   0.082   2.680 -0.9886  0.4659 -1.8915
 3211TIP3   OH233827   5.909   4.553   9.995 -0.2582  0.0308 -0.1960
 3211TIP3    H133828   5.887   4.486   9.930  1.7322 -0.0731 -0.8319
 3211TIP3    H233829   5.999   4.533  10.021 -0.6067  0.7724  1.7633
 3212TIP3   OH233830   5.532   6.096   1.869 -0.6426  0.4756  0.4801
 3212TIP3    H133831   5.624   6.083   1.847 -1.4349  0.3800 -3.4560
 3212TIP3    H233832   5.513   6.185   1.838 -2.9265 -1.2354 -3.8645
 3213TIP3   OH233833   1.882   1.181   2.841 -0.2169 -0.1164 -0.1385
 3213TIP3    H133834   1.940   1.227   2.781 -2.2877  1.0007 -1.3922
 3213TIP3    H233835   1.893   1.227   2.925  0.2322  0.4943 -0.5233
 3214TIP3   OH233836   0.929   6.073   9.141 -0.3027 -0.1550 -0.4338
 3214TIP3    H133837   0.964   6.097   9.227 -2.2737 -0.4945  0.5301
 3214TIP3    H233838   0.863   6.140   9.123 -1.6222 -1.4165 -0.5108
 3215TIP3   OH233839   4.003   6.932   7.473 -0.1904 -0.0626  0.3713
 3215TIP3    H133840   4.077   6.901   7.524 -0.8056 -0.7603  0.8587
 3215TIP3    H233841   4.007   6.881   7.392 -0.2471 -0.2245  0.4717
 3216TIP3   OH233842   3.095   2.025   9.801  0.0331 -0.4983  0.5895
 3216TIP3    H133843   3.089   2.114   9.835 -0.8932 -0.2907 -0.0623
 3216TIP3    H233844   3.048   1.971   9.865 -0.3539 -0.3441  0.4411
 3217TIP3   OH233845   4.435   6.461   8.880  0.0456  0.4537  0.2496
 3217TIP3    H133846   4.504   6.474   8.815 -0.6058  0.5126 -0.4450
 3217TIP3    H233847   4.475   6.486   8.963 -0.2235  4.1032 -0.5683
 3218TIP3   OH233848   4.779   6.814   9.325  0.2790  0.0877  0.1508
 3218TIP3    H133849   4.801   6.901   9.290 -0.8243  0.2916 -0.0858
 3218TIP3    H233850   4.848   6.757   9.292  0.3709  0.6599 -0.6907
 3219TIP3   OH233851   2.293   0.189   8.747  0.3927 -0.2615  0.4559
 3219TIP3    H133852   2.226   0.165   8.683  1.2046 -0.1920 -0.4497
 3219TIP3    H233853   2.245   0.234   8.816 -0.6585 -1.3040  0.4349
 3220TIP3   OH233854   3.897   4.799   0.527 -0.7839  0.3233  0.1542
 3220TIP3    H133855   3.869   4.758   0.446  0.5108  1.6473 -1.0255
 3220TIP3    H233856   3.875   4.892   0.516 -1.8779  0.3347  1.9368
 3221TIP3   OH233857   6.387   4.640   1.404 -0.1855  0.3293  0.1994
 3221TIP3    H133858   6.465   4.637   1.349  0.5685  3.4489  0.8887
 3221TIP3    H233859   6.420   4.630   1.493 -0.4705  1.8141  0.5066
 3222TIP3   OH233860   4.136   0.884   8.703 -0.7186  0.5338  0.3187
 3222TIP3    H133861   4.053   0.931   8.715  0.0633  1.8591  0.6471
 3222TIP3    H233862   4.200   0.934   8.754 -0.0085 -1.3772  1.4026
 3223TIP3   OH233863   5.911   2.792   2.136 -0.1647 -0.4743 -0.0808
 3223TIP3    H133864   5.947   2.849   2.205  0.3755  0.9580 -1.4794
 3223TIP3    H233865   5.816   2.799   2.147 -0.1515  1.5583 -0.8170
 3224TIP3   OH233866   1.182   4.544   2.742  0.2229 -0.0514 -0.2324
 3224TIP3    H133867   1.242   4.585   2.805  0.9896 -0.8016 -0.4406
 3224TIP3    H233868   1.128   4.486   2.795  1.0457 -0.8822 -0.2690
 3225TIP3   OH233869   2.147   3.824   8.505  0.3667 -0.6800  0.5301
 3225TIP3    H133870   2.072   3.794   8.454 -0.6296 -0.3865  1.7726
 3225TIP3    H233871   2.198   3.877   8.444 -0.8520 -0.2435 -0.1319
 3226TIP3   OH233872   6.447   5.022   9.342  0.0381 -0.2033 -0.5792
 3226TIP3    H133873   6.501   5.071   9.404  0.5826 -1.3113 -0.1342
 3226TIP3    H233874   6.410   5.088   9.284 -0.7669  0.9154  1.1320
 3227TIP3   OH233875   0.704   3.774   7.988  0.2472  0.5836  0.2504
 3227TIP3    H133876   0.662   3.727   8.060  0.8821 -0.3031  0.0619
 3227TIP3    H233877   0.798   3.762   8.002  0.3770 -0.6059 -1.3367
 3228TIP3   OH233878   1.598   1.917   7.094 -0.3753 -0.1078  0.1004
 3228TIP3    H133879   1.570   1.967   7.017  0.1287  1.4792  0.8957
 3228TIP3    H233880   1.593   1.826   7.066 -1.2411  0.3659 -1.4586
 3229TIP3   OH233881   3.090   3.748   0.678 -0.1845  0.0593 -0.0398
 3229TIP3    H133882   2.995   3.740   0.669 -0.4229 -1.5745  2.6828
 3229TIP3    H233883   3.104   3.779   0.767  1.7996 -2.4622  0.6830
 3230TIP3   OH233884   4.782   1.413   0.466  0.0478  0.4967  0.1559
 3230TIP3    H133885   4.834   1.334   0.457  0.3242  0.4470  1.7795
 3230TIP3    H233886   4.809   1.468   0.393  1.3064 -0.1314  0.1157
 3231TIP3   OH233887   5.035   6.098   9.209 -0.0612 -0.1972  0.2839
 3231TIP3    H133888   5.114   6.151   9.209  0.1617 -0.5129  1.2729
 3231TIP3    H233889   5.065   6.010   9.186 -0.0591 -0.3923  1.0062
 3232TIP3   OH233890   1.056   6.176   2.228 -0.1036 -0.4074 -0.1254
 3232TIP3    H133891   1.050   6.216   2.142 -1.6244  2.6925  1.2715
 3232TIP3    H233892   1.149   6.178   2.249 -0.0064  1.7157 -0.5086
 3233TIP3   OH233893   1.600   5.584   6.681  0.2256 -0.1248 -0.5614
 3233TIP3    H133894   1.511   5.563   6.709 -0.7029  1.6218 -2.0415
 3233TIP3    H233895   1.632   5.646   6.746 -0.6661  1.3054 -1.4472
 3234TIP3   OH233896   1.951   6.285   2.393 -0.1763  0.0388 -0.5480
 3234TIP3    H133897   1.882   6.225   2.421 -0.4901 -0.3784 -2.0905
 3234TIP3    H233898   1.965   6.263   2.300  1.3399  0.7789 -0.5267
 3235TIP3   OH233899   2.813   3.043   1.405 -0.1972  0.0195 -0.5364
 3235TIP3    H133900   2.842   3.106   1.338 -2.1349  1.7331  0.1418
 3235TIP3    H233901   2.886   3.038   1.466  1.3622 -1.0995 -2.3762
 3236TIP3   OH233902   1.896   7.355   1.262 -0.3617  0.6529 -0.1128
 3236TIP3    H133903   1.876   7.433   1.314  0.7356  1.0761 -0.3028
 3236TIP3    H233904   1.979   7.375   1.219 -0.4539 -0.3203 -0.7799
 3237TIP3   OH233905   1.565   0.920   1.288  0.0124 -0.1854 -0.5245
 3237TIP3    H133906   1.615   0.870   1.352 -0.2989 -1.3244 -1.1290
 3237TIP3    H233907   1.631   0.960   1.232  0.3108  1.5596  1.0012
 3238TIP3   OH233908   6.483   7.298   8.328 -0.2040 -0.1937 -0.1229
 3238TIP3    H133909   6.430   7.340   8.261 -1.1283  0.0707  0.7504
 3238TIP3    H233910   6.541   7.367   8.361 -0.9603  0.1359  0.5480
 3239TIP3   OH233911   1.668   1.247   7.561 -0.5031  0.0209  0.1611
 3239TIP3    H133912   1.703   1.252   7.471 -0.4785  0.0629  0.1726
 3239TIP3    H233913   1.745   1.258   7.617 -0.7238  1.7637  0.1993
 3240TIP3   OH233914   0.564   2.178   2.492  0.2750  0.1759 -0.3739
 3240TIP3    H133915   0.643   2.156   2.444  0.7521 -0.0485  0.4972
 3240TIP3    H233916   0.580   2.265   2.527 -0.3945  0.6795 -1.2721
 3241TIP3   OH233917   5.236   0.183   2.253 -0.2333  0.1541 -0.5894
 3241TIP3    H133918   5.144   0.193   2.229 -0.2034  2.4757 -0.0083
 3241TIP3    H233919   5.235   0.172   2.348  0.0814  0.4773 -0.5453
 3242TIP3   OH233920   4.029   5.128   9.978 -0.2846 -0.1765 -0.0989
 3242TIP3    H133921   3.973   5.206   9.975 -1.2564 -0.8893 -1.2483
 3242TIP3    H233922   3.970   5.055   9.960  0.4690 -1.2823  1.6504
 3243TIP3   OH233923   1.623   3.201   2.070 -0.2481  0.4314  0.0117
 3243TIP3    H133924   1.676   3.122   2.072 -1.6149 -0.5105  0.7654
 3243TIP3    H233925   1.557   3.187   2.138 -0.0825  2.5376  0.6669
 3244TIP3   OH233926   0.132   0.537   0.876  0.3072 -0.0526  0.5489
 3244TIP3    H133927   0.121   0.445   0.899 -2.8538 -0.3994 -1.6361
 3244TIP3    H233928   0.064   0.583   0.926  1.6934  1.1531  1.4419
 3245TIP3   OH233929   4.359   5.323   9.453  0.6903 -0.5287  0.0473
 3245TIP3    H133930   4.361   5.282   9.539  0.4480 -1.2086 -0.2597
 3245TIP3    H233931   4.308   5.262   9.399  1.0497 -0.2352 -0.6344
 3246TIP3   OH233932   3.780   3.017   8.799  0.5175  0.3522  0.4391
 3246TIP3    H133933   3.838   3.079   8.844 -2.1440  2.6366  1.0505
 3246TIP3    H233934   3.774   3.051   8.710  0.0360  0.2257  0.4219
 3247TIP3   OH233935   5.716   4.279   2.129 -0.0475 -0.2035 -0.2121
 3247TIP3    H133936   5.686   4.344   2.193 -0.6153 -0.5247 -0.1548
 3247TIP3    H233937   5.664   4.296   2.051  0.9502  0.4775 -0.7581
 3248TIP3   OH233938   1.499   3.696   1.250 -0.5496  0.0496  0.3957
 3248TIP3    H133939   1.449   3.772   1.279 -1.1966  0.2696 -1.2352
 3248TIP3    H233940   1.590   3.727   1.251 -0.8833  1.1906 -1.1741
 3249TIP3   OH233941   0.226   2.576   9.616  0.1258  0.1018 -0.4165
 3249TIP3    H133942   0.234   2.570   9.711  0.5011  0.9971 -0.3790
 3249TIP3    H233943   0.314   2.555   9.583  0.3380  1.0471 -0.4867
 3250TIP3   OH233944   3.495   2.985   7.962  0.1881 -0.5365 -0.6548
 3250TIP3    H133945   3.578   2.937   7.965 -0.5417 -1.9710 -1.6736
 3250TIP3    H233946   3.516   3.068   7.919  1.5313  0.2192  1.3287
 3251TIP3   OH233947   1.185   2.077   8.063 -0.3527  0.2316 -0.1908
 3251TIP3    H133948   1.144   2.163   8.069 -0.0478  0.3988 -0.4508
 3251TIP3    H233949   1.255   2.088   7.999 -0.7242 -0.3756 -0.7168
 3252TIP3   OH233950   6.712   6.433   9.033 -0.2421  0.0357 -0.0410
 3252TIP3    H133951   6.642   6.399   9.090  0.6007  2.0006  2.3638
 3252TIP3    H233952   6.787   6.376   9.052  0.3847  1.3776  1.9051
 3253TIP3   OH233953   3.493   5.243   2.341 -0.3058  0.2672  0.5684
 3253TIP3    H133954   3.513   5.332   2.371  0.7165  0.6266 -1.0824
 3253TIP3    H233955   3.494   5.249   2.246 -4.3235 -0.6091  0.2927
 3254TIP3   OH233956   4.042   5.831   9.800 -0.7212  0.1746 -0.5023
 3254TIP3    H133957   4.098   5.895   9.756  0.0823 -1.2397 -1.6284
 3254TIP3    H233958   4.094   5.750   9.800 -0.3517  0.1968  3.7102
 3255TIP3   OH233959   5.255   4.973   2.184 -0.3497 -0.2178 -0.0537
 3255TIP3    H133960   5.328   5.018   2.141  1.2241 -1.6256  1.0006
 3255TIP3    H233961   5.270   4.881   2.165 -0.5091 -0.7342  2.1026
 3256TIP3   OH233962   3.833   6.970   2.067 -0.0679  0.0275  0.0696
 3256TIP3    H133963   3.831   7.066   2.060 -0.5690 -0.0552 -1.0630
 3256TIP3    H233964   3.859   6.954   2.158  3.6787  1.2194 -0.6220
 3257TIP3   OH233965   6.303   6.612   0.453 -0.3547 -0.3642 -0.5406
 3257TIP3    H133966   6.257   6.695   0.440 -0.8266 -0.5355 -0.0051
 3257TIP3    H233967   6.389   6.627   0.414 -0.0104  0.7798  0.5658
 3258TIP3   OH233968   2.506   4.269   8.261  0.1079 -0.4635  0.3674
 3258TIP3    H133969   2.509   4.178   8.231  1.9414 -0.1040 -0.6945
 3258TIP3    H233970   2.423   4.302   8.229  0.3192 -1.2092 -1.0373
 3259TIP3   OH233971   2.349   7.310   0.065 -0.2494 -0.2688  0.4000
 3259TIP3    H133972   2.362   7.395   0.106 -0.8152 -1.0124  2.2454
 3259TIP3    H233973   2.437   7.279   0.045 -0.0692  1.0266 -0.9808
 3260TIP3   OH233974   3.949   1.426   9.900  0.3878 -0.3224  0.0449
 3260TIP3    H133975   3.855   1.419   9.886  0.3731 -0.4893  0.2187
 3260TIP3    H233976   3.958   1.453   9.992  0.4756  0.9265 -0.3140
 3261TIP3   OH233977   2.835   4.546   7.193  0.2175  0.4683  0.0049
 3261TIP3    H133978   2.860   4.455   7.178  2.2517  1.0809 -0.6422
 3261TIP3    H233979   2.748   4.541   7.233 -0.3129 -1.6955 -1.2690
 3262TIP3   OH233980   2.712   4.065   2.091  0.4496  0.1146 -0.2493
 3262TIP3    H133981   2.627   4.067   2.047 -0.0051  1.3510  0.6078
 3262TIP3    H233982   2.758   4.142   2.057  0.7768  0.0937  0.1430
 3263TIP3   OH233983   3.361   0.858   7.710 -0.0742 -0.5749  0.4159
 3263TIP3    H133984   3.286   0.902   7.670  0.5894 -1.2379 -1.6873
 3263TIP3    H233985   3.389   0.918   7.779 -0.3341  1.4534 -1.1190
 3264TIP3   OH233986   3.044   0.175   1.312  0.2803  0.1038  1.1819
 3264TIP3    H133987   3.074   0.186   1.221  0.3556  0.2427  1.2229
 3264TIP3    H233988   2.957   0.215   1.314 -0.6280 -1.7754  0.6546
 3265TIP3   OH233989   4.964   5.523   7.723 -0.3881 -0.2541  0.5603
 3265TIP3    H133990   5.053   5.494   7.706 -0.1212  0.6341  0.3753
 3265TIP3    H233991   4.909   5.453   7.688  0.2219 -0.2468 -0.4448
 3266TIP3   OH233992   7.099   7.458   2.057 -0.3296  0.3267  0.1611
 3266TIP3    H133993   7.144   7.420   2.133  2.1202  0.9259 -0.9100
 3266TIP3    H233994   7.096   7.387   1.993  0.9311  0.8567 -0.5004
 3267TIP3   OH233995   3.093   0.693   9.159  0.0537  0.2503 -0.3145
 3267TIP3    H133996   3.005   0.661   9.179  0.4310 -0.9072 -0.4246
 3267TIP3    H233997   3.115   0.749   9.234 -0.5278  0.0445  0.0182
 3268TIP3   OH233998   2.171   1.307   2.365 -0.1048  0.4945  0.0681
 3268TIP3    H133999   2.113   1.371   2.407 -0.5354 -0.1072  0.4080
 3268TIP3    H234000   2.124   1.224   2.373  0.6561  0.0565  0.0455
 3269TIP3   OH234001   7.378   0.879   7.744  0.3734  0.1662  0.7335
 3269TIP3    H134002   7.379   0.784   7.755  0.7615  0.1422  0.5082
 3269TIP3    H234003   7.303   0.908   7.796  0.0949 -0.2882  0.5942
 3270TIP3   OH234004   5.635   5.319   8.094 -0.6714  0.5814  0.7491
 3270TIP3    H134005   5.647   5.231   8.059  2.2704  0.9567  0.6197
 3270TIP3    H234006   5.608   5.371   8.018 -0.4727  0.1749  0.3946
 3271TIP3   OH234007   2.013   6.561   8.271  0.1351  0.0934  0.3171
 3271TIP3    H134008   1.962   6.490   8.234 -1.0682  0.1847  1.6801
 3271TIP3    H234009   1.968   6.641   8.241  0.2666  0.2145  0.4391
 3272TIP3   OH234010   4.588   5.642   9.347 -0.1345  0.6123  0.0242
 3272TIP3    H134011   4.497   5.624   9.370 -0.2168  2.1966  1.0744
 3272TIP3    H234012   4.582   5.699   9.270 -0.0282  0.5443 -0.0341
 3273TIP3   OH234013   5.982   4.880   8.559 -0.4493  0.2724  0.4298
 3273TIP3    H134014   6.003   4.797   8.516 -1.4392 -0.6273  1.6223
 3273TIP3    H234015   5.933   4.855   8.637 -0.3579  1.9682  1.0683
 3274TIP3   OH234016   6.763   5.444   1.955  0.5161  0.0679  0.2706
 3274TIP3    H134017   6.858   5.446   1.968  0.6006  0.1479 -0.3219
 3274TIP3    H234018   6.752   5.452   1.860 -0.0759 -0.1383  0.3180
 3275TIP3   OH234019   3.639   1.220   8.505 -0.2114 -0.1387  0.1468
 3275TIP3    H134020   3.690   1.291   8.466 -0.9941  0.7071  0.6248
 3275TIP3    H234021   3.549   1.241   8.483 -0.6558  0.1998  2.1153
 3276TIP3   OH234022   2.347   3.300   8.497 -0.1789 -0.2911  0.0221
 3276TIP3    H134023   2.355   3.270   8.587 -0.5742 -1.3643 -0.2933
 3276TIP3    H234024   2.289   3.376   8.502 -1.1919 -1.0766  0.5367
 3277TIP3   OH234025   5.354   3.082   0.115  0.0513  0.4692  0.5057
 3277TIP3    H134026   5.336   3.110   0.205  0.5339  4.2863 -0.4168
 3277TIP3    H234027   5.277   3.109   0.065 -0.1148 -1.3907 -0.3497
 3278TIP3   OH234028   3.359   3.668   0.648  0.3261 -0.0876 -0.4493
 3278TIP3    H134029   3.271   3.705   0.644  0.1111 -0.6054 -0.6646
 3278TIP3    H234030   3.361   3.620   0.730 -0.1075 -1.3059 -1.1196
 3279TIP3   OH234031   7.141   4.712   0.201  0.2348 -0.1342 -0.1496
 3279TIP3    H134032   7.152   4.801   0.169  0.9388 -0.5215 -0.9861
 3279TIP3    H234033   7.048   4.708   0.227  0.2146  0.8534 -0.0269
 3280TIP3   OH234034   2.206   0.260   0.940  0.1304  0.8104 -0.5785
 3280TIP3    H134035   2.273   0.257   0.871  1.6333  1.4389  0.7778
 3280TIP3    H234036   2.124   0.277   0.893  0.6363 -1.3487 -2.4606
 3281TIP3   OH234037   6.812   5.696   1.640  0.6939 -0.2764  0.3361
 3281TIP3    H134038   6.848   5.732   1.721  2.8056  1.5968 -1.3344
 3281TIP3    H234039   6.851   5.749   1.571 -1.7826 -1.1817 -1.8993
 3282TIP3   OH234040   0.258   2.777   9.105  0.6781  0.1016 -0.2124
 3282TIP3    H134041   0.317   2.814   9.171  0.4539  0.0577  0.0114
 3282TIP3    H234042   0.224   2.853   9.058 -0.0809  0.2134  0.4979
 3283TIP3   OH234043   6.604   5.707   2.035 -0.0244 -0.4035 -0.4297
 3283TIP3    H134044   6.647   5.790   2.057  0.2663 -1.1604  2.2777
 3283TIP3    H234045   6.675   5.644   2.027 -0.2044 -0.3775 -2.9668
 3284TIP3   OH234046   5.086   0.130   7.466 -0.5934 -0.0697  0.0953
 3284TIP3    H134047   5.049   0.059   7.414 -0.2942  0.0273 -0.2489
 3284TIP3    H234048   5.025   0.140   7.540 -0.5175 -0.8310  0.2678
 3285TIP3   OH234049   1.511   0.926   0.789  0.5037 -0.2939  0.0040
 3285TIP3    H134050   1.561   0.958   0.864 -0.4112  0.2514  0.3971
 3285TIP3    H234051   1.455   0.857   0.825 -1.3318  1.2437  0.2748
 3286TIP3   OH234052   7.331   4.511   7.844  0.3540  0.5057  0.1198
 3286TIP3    H134053   7.362   4.572   7.777 -1.5918 -0.5305 -1.8540
 3286TIP3    H234054   7.274   4.564   7.900  0.7993  1.0570  0.0614
 3287TIP3   OH234055   3.936   2.594   7.962  0.3828  0.7191 -0.1251
 3287TIP3    H134056   3.881   2.671   7.978  1.7211  1.7159 -0.1243
 3287TIP3    H234057   4.013   2.608   8.017  0.0956 -1.2899  0.8812
 3288TIP3   OH234058   6.325   1.954   0.169  0.0103  0.2737  0.1305
 3288TIP3    H134059   6.342   2.048   0.168  1.7304 -0.0136  0.3318
 3288TIP3    H234060   6.240   1.945   0.126  0.0293  1.8748 -0.2983
 3289TIP3   OH234061   4.411   0.712   1.739  0.9138  0.5641  0.0832
 3289TIP3    H134062   4.439   0.792   1.785  2.0331  0.2177  0.0448
 3289TIP3    H234063   4.424   0.733   1.646 -0.0144  0.7756 -0.0055
 3290TIP3   OH234064   3.910   1.059   8.516 -0.3119 -0.0340  0.6604
 3290TIP3    H134065   3.893   1.065   8.610  0.6356  0.2025  0.8241
 3290TIP3    H234066   3.862   1.132   8.478 -0.8996 -0.2755  0.9259
 3291TIP3   OH234067   5.859   0.134   9.584 -0.4786  0.4455  0.3307
 3291TIP3    H134068   5.840   0.048   9.620 -0.8507  0.1226 -0.6086
 3291TIP3    H234069   5.945   0.156   9.619 -0.1405 -0.5445  0.1597
 3292TIP3   OH234070   5.795   6.076   9.329 -0.4200 -0.0098  0.4254
 3292TIP3    H134071   5.887   6.087   9.304 -0.3034 -0.0211  0.8424
 3292TIP3    H234072   5.755   6.161   9.311 -0.5549 -0.2888 -0.6838
 3293TIP3   OH234073   1.834   1.561   7.834  0.0326 -0.1204  0.0635
 3293TIP3    H134074   1.764   1.626   7.831  0.6591  0.5384 -0.4178
 3293TIP3    H234075   1.789   1.479   7.856 -0.9877  0.1597 -0.8898
 3294TIP3   OH234076   1.199   6.380   9.887 -0.2515 -0.1519 -0.0777
 3294TIP3    H134077   1.266   6.443   9.913  0.7464 -1.7132  1.4147
 3294TIP3    H234078   1.117   6.417   9.919  0.1298  0.9694 -0.3719
 3295TIP3   OH234079   1.514   2.777   8.602  0.2909  0.3413  0.4002
 3295TIP3    H134080   1.535   2.774   8.509 -0.7587 -0.5823  0.1745
 3295TIP3    H234081   1.500   2.685   8.626  0.6936  0.5525  1.5132
 3296TIP3   OH234082   3.873   3.132   7.398 -0.0448 -0.3764  0.1115
 3296TIP3    H134083   3.837   3.183   7.326  0.0013 -0.7292 -0.1622
 3296TIP3    H234084   3.967   3.146   7.394  0.5076 -3.5360 -2.4297
 3297TIP3   OH234085   2.087   6.805   3.042 -0.1374  0.0269  0.5147
 3297TIP3    H134086   2.054   6.718   3.065 -0.3561  0.0495  0.2891
 3297TIP3    H234087   2.147   6.790   2.969  1.1747 -0.1403  1.5898
 3298TIP3   OH234088   0.422   4.342   1.729 -0.1922  0.3569  0.4915
 3298TIP3    H134089   0.478   4.301   1.663 -1.2891 -0.2801 -0.0702
 3298TIP3    H234090   0.430   4.285   1.805 -2.1755 -1.3527 -0.4729
 3299TIP3   OH234091   6.698   0.490   9.506 -0.1524  0.2229 -0.7263
 3299TIP3    H134092   6.616   0.452   9.538  0.5693 -1.8574 -1.1804
 3299TIP3    H234093   6.671   0.556   9.443 -1.5273 -1.9286 -2.5405
 3300TIP3   OH234094   1.541   0.490   8.041  0.0141  0.0879 -0.5156
 3300TIP3    H134095   1.489   0.454   8.113 -0.0148  1.3209  0.1198
 3300TIP3    H234096   1.629   0.453   8.055 -0.0196  0.2170  0.0978
 3301TIP3   OH234097   6.752   5.339   9.372  0.5824 -0.3723 -0.1644
 3301TIP3    H134098   6.844   5.358   9.391  0.2867 -1.2314  2.4891
 3301TIP3    H234099   6.711   5.425   9.364  1.5752  0.0195 -1.5093
 3302TIP3   OH234100   1.954   6.164   8.746 -0.0631 -0.0133 -0.1313
 3302TIP3    H134101   2.038   6.209   8.747  0.1215 -0.3505 -0.4043
 3302TIP3    H234102   1.906   6.201   8.821  0.1642  0.4795 -0.2273
 3303TIP3   OH234103   4.110   3.244   2.010 -0.2409 -0.2854  0.6781
 3303TIP3    H134104   4.163   3.165   1.992 -0.1523 -0.2549  0.8077
 3303TIP3    H234105   4.161   3.293   2.074 -0.0637  0.1170  0.2381
 3304TIP3   OH234106   0.105   5.228   1.571  0.1408  0.3348  0.3890
 3304TIP3    H134107   0.142   5.140   1.577 -0.3735  0.1310  0.5875
 3304TIP3    H234108   0.177   5.282   1.538  0.6705 -0.0241  0.9385
 3305TIP3   OH234109   6.122   1.522   0.581  0.1066 -0.5014  0.0007
 3305TIP3    H134110   6.083   1.472   0.653  0.0538 -1.4382 -0.6558
 3305TIP3    H234111   6.128   1.612   0.614  0.8816 -1.0647  1.4915
 3306TIP3   OH234112   0.457   2.224   0.698  0.3945  0.3050 -0.4100
 3306TIP3    H134113   0.364   2.225   0.679  0.5478 -0.8107 -1.2874
 3306TIP3    H234114   0.465   2.178   0.782  0.0366  1.9734  0.5957
 3307TIP3   OH234115   5.224   1.039   1.250  0.3138  0.5054 -0.1003
 3307TIP3    H134116   5.297   1.022   1.309  1.5854 -0.7879 -1.9222
 3307TIP3    H234117   5.154   0.980   1.279  0.2045  1.2579  1.2367
 3308TIP3   OH234118   5.642   7.145   8.132  0.7583 -0.7800  0.4117
 3308TIP3    H134119   5.584   7.115   8.061  1.0951  0.9895 -0.6811
 3308TIP3    H234120   5.596   7.122   8.212 -1.0738 -0.2062 -0.4220
 3309TIP3   OH234121   4.709   1.426   9.537 -0.4432 -0.2236  0.0990
 3309TIP3    H134122   4.627   1.389   9.567 -0.8100  1.1946  0.9465
 3309TIP3    H234123   4.753   1.354   9.491 -2.6546 -0.6743 -1.4378
 3310TIP3   OH234124   0.587   3.270   0.347  0.6019  0.0811  0.3624
 3310TIP3    H134125   0.648   3.257   0.420 -0.4103 -0.9800  1.0746
 3310TIP3    H234126   0.536   3.347   0.373  1.5160  0.8878 -0.1711
 3311TIP3   OH234127   6.698   2.279   1.776 -0.9462  0.5067 -0.3736
 3311TIP3    H134128   6.634   2.264   1.707 -1.0373 -0.4755 -0.0926
 3311TIP3    H234129   6.746   2.197   1.783 -0.2207  0.9487  0.0020
 3312TIP3   OH234130   3.430   1.044   7.908 -0.6672 -0.4226  0.4093
 3312TIP3    H134131   3.464   1.021   7.994  1.1315  0.0057 -0.1608
 3312TIP3    H234132   3.388   1.129   7.921  1.5812  0.7462  0.4406
 3313TIP3   OH234133   0.951   6.853   7.761 -0.4436 -0.2307  0.0365
 3313TIP3    H134134   0.935   6.876   7.852 -0.6949 -1.4195  0.3077
 3313TIP3    H234135   1.046   6.841   7.756 -0.3714  0.2916  0.0126
 3314TIP3   OH234136   5.851   1.090   0.432 -0.2866 -0.4644 -0.0069
 3314TIP3    H134137   5.844   1.004   0.474 -0.1736 -1.2986 -1.6078
 3314TIP3    H234138   5.931   1.084   0.378 -0.7035  0.3480 -0.7429
 3315TIP3   OH234139   0.809   2.204   7.977 -0.1430  0.1622  0.0149
 3315TIP3    H134140   0.872   2.268   8.009  0.2400 -0.2811  0.1496
 3315TIP3    H234141   0.844   2.176   7.892 -0.7215  0.7129 -0.4181
 3316TIP3   OH234142   2.605   2.375   8.510  0.0260  0.6369 -0.1259
 3316TIP3    H134143   2.646   2.439   8.569  0.3638 -0.3184  0.7054
 3316TIP3    H234144   2.660   2.297   8.518 -2.7015 -1.2455  2.2255
 3317TIP3   OH234145   0.391   2.276   8.181 -0.1093  0.1181  0.1459
 3317TIP3    H134146   0.453   2.337   8.142 -0.3661  0.8596  0.8575
 3317TIP3    H234147   0.441   2.196   8.194 -0.6535 -1.1883 -4.1372
 3318TIP3   OH234148   6.434   4.301   0.016  0.2045  0.0328 -0.1153
 3318TIP3    H134149   6.358   4.283  -0.041 -0.5859  0.2947  0.8311
 3318TIP3    H234150   6.455   4.393  -0.002  0.7555 -0.2400 -0.9001
 3319TIP3   OH234151   4.549   3.557   8.788  0.4423 -0.1319  0.2754
 3319TIP3    H134152   4.490   3.613   8.839  2.6370  2.9640 -0.2536
 3319TIP3    H234153   4.637   3.583   8.817  1.6434 -1.4215 -1.9616
 3320TIP3   OH234154   1.146   0.430   7.545  0.2732 -0.4443  0.0051
 3320TIP3    H134155   1.201   0.355   7.522  0.5822 -0.4568  0.7836
 3320TIP3    H234156   1.198   0.506   7.518 -0.1036 -0.4993 -0.9242
 3321TIP3   OH234157   6.253   4.264   9.794 -0.3767 -0.3355 -0.5047
 3321TIP3    H134158   6.168   4.233   9.764 -0.4266 -1.0532  0.3307
 3321TIP3    H234159   6.308   4.263   9.716 -0.7253 -1.3604 -0.7538
 3322TIP3   OH234160   5.657   6.137   8.619  0.1229 -0.0892  0.1166
 3322TIP3    H134161   5.700   6.087   8.689  0.0575  1.7472  1.5621
 3322TIP3    H234162   5.564   6.135   8.641 -0.1420 -1.0378 -0.9929
 3323TIP3   OH234163   2.891   4.685   1.205  0.1981  0.4328 -0.5621
 3323TIP3    H134164   2.813   4.716   1.252  0.9317  0.3463  0.7481
 3323TIP3    H234165   2.955   4.755   1.218  0.5691  0.1783 -1.0294
 3324TIP3   OH234166   6.804   7.433   2.038 -0.3213  0.0760  0.1980
 3324TIP3    H134167   6.897   7.416   2.025 -0.6403 -1.5148 -0.2687
 3324TIP3    H234168   6.788   7.408   2.129 -0.1019  1.3280  0.5880
 3325TIP3   OH234169   6.011   2.168   8.262 -0.1572 -0.1484 -0.0581
 3325TIP3    H134170   6.017   2.177   8.358 -0.3532  1.1381 -0.1504
 3325TIP3    H234171   5.941   2.104   8.249  0.2484 -0.7572  0.6614
 3326TIP3   OH234172   3.585   0.596   0.592  0.0151  0.0437 -0.0661
 3326TIP3    H134173   3.622   0.542   0.522  2.3614  2.1127 -0.5820
 3326TIP3    H234174   3.601   0.546   0.672 -2.5708 -2.2906 -0.8703
 3327TIP3   OH234175   6.725   5.970   2.147  0.0735 -0.3895 -0.4067
 3327TIP3    H134176   6.818   5.991   2.144  0.7451 -2.7158  1.4820
 3327TIP3    H234177   6.706   5.958   2.239 -1.6973 -1.6234 -0.8838
 3328TIP3   OH234178   2.028   2.696   2.646  0.2167 -0.8239  0.1353
 3328TIP3    H134179   1.938   2.724   2.663 -0.0997 -1.8118  0.1702
 3328TIP3    H234180   2.056   2.657   2.729  1.1519  0.6646  0.5401
 3329TIP3   OH234181   0.130   1.298   0.355 -0.0811 -0.5021  0.2243
 3329TIP3    H134182   0.158   1.375   0.403  1.1949  0.6818 -2.2106
 3329TIP3    H234183   0.195   1.231   0.376  1.1906  0.3857 -0.7304
 3330TIP3   OH234184   7.418   5.709   8.181 -0.0472 -0.8672 -0.4223
 3330TIP3    H134185   7.370   5.790   8.197  1.9284 -0.1737  2.9894
 3330TIP3    H234186   7.443   5.714   8.088 -0.9592  1.8571 -0.6020
 3331TIP3   OH234187   7.121   2.886   0.948 -0.4149  0.0685  0.7659
 3331TIP3    H134188   7.153   2.846   0.867  0.7705 -1.2222  1.8118
 3331TIP3    H234189   7.029   2.905   0.931  0.1750  1.3729 -1.4327
 3332TIP3   OH234190   0.342   1.469   1.356 -0.0349  0.2239 -0.5254
 3332TIP3    H134191   0.391   1.473   1.438  3.0770  0.6702 -2.2392
 3332TIP3    H234192   0.325   1.376   1.342  3.4976 -0.4347 -1.4407
 3333TIP3   OH234193   5.607   3.851   0.594  0.0393 -0.0436  0.4505
 3333TIP3    H134194   5.611   3.755   0.585  0.5161 -0.1203  1.4477
 3333TIP3    H234195   5.612   3.867   0.688  0.8213  1.0084  0.2429
 3334TIP3   OH234196   4.377   2.228   8.240  0.2435 -0.0381  0.7410
 3334TIP3    H134197   4.402   2.214   8.148  0.6070  0.2158  0.7994
 3334TIP3    H234198   4.350   2.320   8.244  1.0991  0.2053  1.0797
 3335TIP3   OH234199   5.913   0.343   1.158  0.1032 -0.4077 -0.1881
 3335TIP3    H134200   5.900   0.357   1.252 -0.2943  0.6948 -0.3927
 3335TIP3    H234201   5.828   0.316   1.125 -0.1193  0.6167 -0.4677
 3336TIP3   OH234202   3.911   0.253   7.507  0.3612 -0.4847  0.0903
 3336TIP3    H134203   3.850   0.180   7.500 -0.5629  0.3329 -0.7355
 3336TIP3    H234204   3.962   0.249   7.425 -0.4618  0.4376 -0.4892
 3337TIP3   OH234205   1.067   2.123   1.945 -0.0036  0.8899 -0.2296
 3337TIP3    H134206   0.993   2.155   1.894 -1.4787  0.8882  1.8086
 3337TIP3    H234207   1.130   2.195   1.943 -1.2448  2.0285  0.2919
 3338TIP3   OH234208   0.342   0.348   0.945 -0.2758  0.0530  0.0449
 3338TIP3    H134209   0.363   0.285   0.876  0.4780  0.9912 -0.6087
 3338TIP3    H234210   0.361   0.302   1.026 -0.9631 -0.9950 -0.3698
 3339TIP3   OH234211   3.328   5.527   7.373  0.1233  0.3680 -0.3237
 3339TIP3    H134212   3.320   5.448   7.320 -0.1902  0.3899 -0.3131
 3339TIP3    H234213   3.418   5.527   7.404  0.4628  0.6293 -1.2845
 3340TIP3   OH234214   3.450   5.600   1.250  0.3718  0.0829  0.1373
 3340TIP3    H134215   3.465   5.563   1.162 -0.7896 -0.2987  0.0839
 3340TIP3    H234216   3.387   5.540   1.290  1.1521  0.0565  1.3775
 3341TIP3   OH234217   6.064   0.869   7.479  0.2630  1.0346 -0.4002
 3341TIP3    H134218   6.067   0.889   7.385  0.5049  2.6192 -0.0737
 3341TIP3    H234219   6.135   0.921   7.517  0.2264  0.3329  0.6573
 3342TIP3   OH234220   3.231   1.071   9.497 -0.1741 -0.1016  0.4872
 3342TIP3    H134221   3.320   1.094   9.469 -0.1159 -1.0050 -0.1488
 3342TIP3    H234222   3.187   1.154   9.511 -0.1036  0.4532 -2.0680
 3343TIP3   OH234223   3.704   2.980   1.011 -0.4365 -0.3348  0.1437
 3343TIP3    H134224   3.732   2.964   0.920 -0.7654 -1.4910  0.2238
 3343TIP3    H234225   3.636   2.915   1.026 -0.4555 -0.0800  1.1943
 3344TIP3   OH234226   4.289   2.837   7.870  0.3546 -0.0150 -0.1320
 3344TIP3    H134227   4.330   2.872   7.949 -2.2034  1.4050  0.6595
 3344TIP3    H234228   4.287   2.742   7.884  0.9101  0.1246  1.0189
 3345TIP3   OH234229   2.206   1.509   7.647 -0.1917 -0.0173  0.1562
 3345TIP3    H134230   2.156   1.566   7.588 -0.1852  0.1124  0.2743
 3345TIP3    H234231   2.289   1.555   7.659 -1.3483  1.6472  2.8309
 3346TIP3   OH234232   2.781   3.118   9.915  0.2000  0.1133  0.3509
 3346TIP3    H134233   2.703   3.170   9.933 -1.2420 -1.8405  0.0843
 3346TIP3    H234234   2.773   3.042   9.973  1.6358 -0.4010 -0.0728
 3347TIP3   OH234235   1.739   4.919   8.324  0.3480  0.2479 -0.0690
 3347TIP3    H134236   1.736   4.847   8.261  1.3951  0.0288  0.1078
 3347TIP3    H234237   1.661   4.971   8.305 -0.3674 -0.8709 -0.2659
 3348TIP3   OH234238   4.526   2.935   2.015  0.2269  0.0908 -0.1161
 3348TIP3    H134239   4.502   2.931   2.107  0.3401  1.9194  0.0215
 3348TIP3    H234240   4.443   2.929   1.968  0.0036  0.8140  0.1727
 3349TIP3   OH234241   1.624   4.169   2.338  0.2626  0.0347 -0.4762
 3349TIP3    H134242   1.575   4.242   2.374 -0.7362  0.0270 -1.7210
 3349TIP3    H234243   1.648   4.197   2.250 -0.0761 -1.0799 -0.9536
 3350TIP3   OH234244   4.023   6.033   2.656 -0.1664  0.0613  0.1295
 3350TIP3    H134245   4.026   5.981   2.575  1.7024  2.0853 -1.2099
 3350TIP3    H234246   4.091   5.994   2.711  0.3612  0.2595 -0.3637
 3351TIP3   OH234247   2.135   6.880   1.169  0.1547  0.3912  0.0835
 3351TIP3    H134248   2.069   6.936   1.209 -1.1236 -2.4144  2.3052
 3351TIP3    H234249   2.086   6.820   1.114  1.1554 -0.2040 -0.1981
 3352TIP3   OH234250   4.612   2.705   1.055 -0.1812 -0.8981  0.2307
 3352TIP3    H134251   4.571   2.757   1.125 -0.4207 -2.8838  1.6561
 3352TIP3    H234252   4.586   2.615   1.075  1.7520 -1.7817 -1.0585
 3353TIP3   OH234253   1.624   4.834   9.241 -0.7079  0.6128  0.4961
 3353TIP3    H134254   1.615   4.759   9.299 -1.0375  0.1218 -0.1776
 3353TIP3    H234255   1.553   4.893   9.267 -2.5245 -0.7591 -1.0864
 3354TIP3   OH234256   4.194   5.356   8.773  0.4958  0.5222 -0.0106
 3354TIP3    H134257   4.100   5.375   8.769  0.1257 -0.6495  1.8980
 3354TIP3    H234258   4.236   5.442   8.786 -0.4656  0.8800  0.8426
 3355TIP3   OH234259   6.053   1.920   8.459 -0.0453 -0.7977  0.1570
 3355TIP3    H134260   6.020   1.899   8.371 -1.8367  1.9312  0.0595
 3355TIP3    H234261   5.975   1.918   8.515  0.7260 -0.4763  1.2837
 3356TIP3   OH234262   6.061   6.597   0.216  0.0983 -0.6348  0.5399
 3356TIP3    H134263   6.041   6.521   0.271  1.2036 -1.0847  0.3485
 3356TIP3    H234264   6.155   6.592   0.201  0.2662  0.9611  0.7973
 3357TIP3   OH234265   4.646   5.579   8.326 -0.4754 -0.0893 -0.2369
 3357TIP3    H134266   4.725   5.530   8.302 -0.0158 -0.1883  1.3551
 3357TIP3    H234267   4.583   5.557   8.258  0.7502 -0.2823 -1.3648
 3358TIP3   OH234268   7.327   1.452   8.897  0.0915  0.1914 -0.2576
 3358TIP3    H134269   7.423   1.456   8.905  0.0708 -0.0036  0.1441
 3358TIP3    H234270   7.303   1.534   8.855  0.4129  0.3731 -0.0970
 3359TIP3   OH234271   4.740   7.077   0.530 -0.7168 -0.4218 -0.5654
 3359TIP3    H134272   4.658   7.116   0.501 -2.0843  0.9038  4.2484
 3359TIP3    H234273   4.778   7.142   0.589  1.4528 -2.8207  0.8996
 3360TIP3   OH234274   2.967   3.342   8.914  0.5809 -0.5767  0.0685
 3360TIP3    H134275   3.052   3.351   8.957  0.7628  0.6368 -0.5058
 3360TIP3    H234276   2.983   3.283   8.841  0.7878 -0.8449  0.3293
 3361TIP3   OH234277   6.961   1.053   1.129  0.4613 -0.6683  0.2269
 3361TIP3    H134278   6.998   0.974   1.168  1.4440 -0.9101 -1.0957
 3361TIP3    H234279   7.024   1.122   1.150 -0.4610 -0.1934  1.4897
 3362TIP3   OH234280   2.165   4.403   0.673 -0.2851  0.0579 -0.3151
 3362TIP3    H134281   2.243   4.411   0.728  0.4356  0.0644 -1.3084
 3362TIP3    H234282   2.093   4.435   0.728  0.4760  0.4728  0.4630
 3363TIP3   OH234283   3.894   2.310   7.947 -0.5285 -0.1308  0.0902
 3363TIP3    H134284   3.988   2.302   7.964 -0.4191 -1.2002 -0.8783
 3363TIP3    H234285   3.877   2.404   7.949  0.2786  0.0190  1.6362
 3364TIP3   OH234286   3.072   5.942   1.589  0.9352  0.0604 -0.2839
 3364TIP3    H134287   3.093   6.035   1.595  2.9487 -0.2718 -1.2832
 3364TIP3    H234288   3.155   5.897   1.605  0.6082 -1.4801 -2.4136
 3365TIP3   OH234289   3.737   1.377   0.375 -0.1563 -0.1173 -0.2493
 3365TIP3    H134290   3.764   1.285   0.379  0.6137 -0.0456 -2.2450
 3365TIP3    H234291   3.651   1.375   0.334 -0.2677  0.0272 -0.0209
 3366TIP3   OH234292   7.160   7.468   9.306 -0.3505 -0.3905  0.4413
 3366TIP3    H134293   7.081   7.517   9.281  0.1181  1.7498  2.8037
 3366TIP3    H234294   7.220   7.482   9.233 -0.9114  0.9815  0.2089
 3367TIP3   OH234295   3.964   5.446   8.159  0.0819 -0.4531 -0.3174
 3367TIP3    H134296   3.929   5.524   8.202  0.0674 -0.1356 -0.8896
 3367TIP3    H234297   3.993   5.389   8.231  0.0797  0.0710  0.1025
 3368TIP3   OH234298   2.559   4.403   8.487 -0.3549 -0.1122 -0.1552
 3368TIP3    H134299   2.558   4.371   8.397 -1.3173 -0.6377  0.0303
 3368TIP3    H234300   2.481   4.458   8.494  0.9439  1.8777 -0.2984
 3369TIP3   OH234301   2.294   5.138   8.499 -0.4548 -1.0398  0.0987
 3369TIP3    H134302   2.323   5.228   8.485  0.7355 -1.6034 -1.2208
 3369TIP3    H234303   2.322   5.117   8.588 -0.4642 -0.2276  0.3010
 3370TIP3   OH234304   3.760   7.245   9.491  0.0561  0.4629 -0.0374
 3370TIP3    H134305   3.679   7.215   9.451 -0.2403  1.9999 -0.6567
 3370TIP3    H234306   3.733   7.278   9.577  0.6348 -2.4860  1.3887
 3371TIP3   OH234307   3.638   1.964   1.806  0.0270  0.0540  0.2343
 3371TIP3    H134308   3.636   1.916   1.890 -1.3667 -1.0700 -0.4009
 3371TIP3    H234309   3.688   1.907   1.747 -2.5093 -1.2262 -0.8160
 3372TIP3   OH234310   3.392   3.797   1.942 -0.3301  0.0175 -0.1970
 3372TIP3    H134311   3.326   3.754   1.997  0.5385 -0.3195  0.6005
 3372TIP3    H234312   3.475   3.759   1.969  0.2239  0.5876 -1.0490
 3373TIP3   OH234313   2.318   5.406   7.383 -0.1208 -0.8192  0.3037
 3373TIP3    H134314   2.406   5.387   7.350 -0.3711 -2.5594  0.5853
 3373TIP3    H234315   2.326   5.394   7.478 -0.5225 -0.3168  0.4056
 3374TIP3   OH234316   2.040   4.027   6.583 -0.1733  0.5177 -0.1252
 3374TIP3    H134317   2.013   4.089   6.515 -1.0819 -0.7661 -0.9862
 3374TIP3    H234318   1.970   3.962   6.585  1.3055 -1.1552 -0.1198
 3375TIP3   OH234319   3.290   6.033   2.261  0.2500  0.0908  0.1963
 3375TIP3    H134320   3.301   6.086   2.340  0.9693  1.7176 -0.9369
 3375TIP3    H234321   3.340   5.953   2.278  0.0924  0.2562  1.5118
 3376TIP3   OH234322   6.664   1.682   9.457 -0.2465 -0.0008  0.1221
 3376TIP3    H134323   6.570   1.667   9.443  0.0231 -1.8281 -0.0099
 3376TIP3    H234324   6.669   1.730   9.539 -1.2730 -0.6739  0.5968
 3377TIP3   OH234325   3.835   0.176   2.644  0.0006  0.0128  0.3518
 3377TIP3    H134326   3.824   0.133   2.729  2.3032 -1.8399 -0.1783
 3377TIP3    H234327   3.919   0.143   2.611 -0.3263  1.4671 -2.1939
 3378TIP3   OH234328   3.152   2.791   7.409  0.5981 -0.0135  1.0851
 3378TIP3    H134329   3.072   2.840   7.389  0.6462 -0.1436  0.5650
 3378TIP3    H234330   3.219   2.858   7.420  0.9717  0.0221 -0.9659
 3379TIP3   OH234331   4.708   7.010   6.715 -0.4587 -0.1666 -0.4937
 3379TIP3    H134332   4.672   7.012   6.804 -1.6540  0.9223 -0.9804
 3379TIP3    H234333   4.632   6.999   6.658 -0.0854  2.1113 -1.5414
 3380TIP3   OH234334   2.941   6.580   0.452  0.4932  0.2868 -0.4143
 3380TIP3    H134335   2.857   6.537   0.468  0.6438  0.3433  0.5933
 3380TIP3    H234336   2.924   6.636   0.377 -0.7169  1.2073  0.4966
 3381TIP3   OH234337   3.178   4.003   8.633  0.0096  0.1162  0.3298
 3381TIP3    H134338   3.186   3.908   8.629  0.6368  0.1982 -0.6290
 3381TIP3    H234339   3.093   4.018   8.675 -0.2824 -0.8647  0.1142
 3382TIP3   OH234340   5.581   0.747   9.833  0.2339 -0.3412 -0.5614
 3382TIP3    H134341   5.576   0.825   9.888  3.2211 -1.0089  0.8875
 3382TIP3    H234342   5.510   0.691   9.864 -0.9691  1.1282 -0.5622
 3383TIP3   OH234343   3.540   7.317   0.030 -0.6010 -0.4510  0.0574
 3383TIP3    H134344   3.501   7.269   0.102 -0.9438 -0.5266 -0.1773
 3383TIP3    H234345   3.525   7.262  -0.047  0.6031 -0.8295  0.0737
 3384TIP3   OH234346   7.188   1.238   1.140 -0.4035 -0.2429 -0.1891
 3384TIP3    H134347   7.149   1.314   1.099  0.1156  0.3914  0.4706
 3384TIP3    H234348   7.239   1.273   1.214  2.7147 -0.8374 -1.8900
 3385TIP3   OH234349   4.546   5.609   0.685 -0.3763  1.0135 -0.0478
 3385TIP3    H134350   4.530   5.665   0.609 -1.1495  1.4229  0.4053
 3385TIP3    H234351   4.474   5.628   0.744 -2.0654 -2.1947 -0.8450
 3386TIP3   OH234352   6.105   1.825   0.313  0.2717  0.3822 -0.2581
 3386TIP3    H134353   6.122   1.896   0.251 -0.2161  0.2495 -0.5508
 3386TIP3    H234354   6.022   1.849   0.355 -0.0610 -0.1648 -0.5895
 3387TIP3   OH234355   6.969   6.604   1.183 -0.2626  0.3488  0.4406
 3387TIP3    H134356   7.005   6.662   1.116 -2.1411 -0.0350 -0.9707
 3387TIP3    H234357   6.966   6.658   1.262  0.5813  1.2792 -0.1305
 3388TIP3   OH234358   5.552   0.785   0.683 -0.1730 -0.2335  0.2897
 3388TIP3    H134359   5.568   0.842   0.609 -0.1145 -0.0494  0.4432
 3388TIP3    H234360   5.499   0.714   0.648 -0.5812  0.1203  0.1858
 3389TIP3   OH234361   0.142   4.520   0.918  0.0207  0.1076 -0.4366
 3389TIP3    H134362   0.234   4.494   0.924 -0.1648 -0.2582  1.9543
 3389TIP3    H234363   0.098   4.445   0.879  0.7931  0.5539 -2.2601
 3390TIP3   OH234364   0.387   0.440   9.395  0.2008  0.7893  0.3909
 3390TIP3    H134365   0.458   0.443   9.331 -1.1765 -2.0619 -1.4505
 3390TIP3    H234366   0.307   0.450   9.343 -0.8751  1.6281  2.1106
 3391TIP3   OH234367   5.849   1.591   9.480  0.1478  0.3599  0.4976
 3391TIP3    H134368   5.811   1.550   9.558 -0.2509 -0.8694 -0.3049
 3391TIP3    H234369   5.937   1.617   9.506  0.0876 -0.2177  1.2979
 3392TIP3   OH234370   3.071   5.714   2.590  0.7856  0.6558  0.0213
 3392TIP3    H134371   3.044   5.764   2.513 -3.8471 -0.7105  0.4358
 3392TIP3    H234372   3.098   5.629   2.555 -0.5249  0.3163 -0.2211
 3393TIP3   OH234373   2.155   4.904   0.256 -0.1225 -0.5192 -0.2133
 3393TIP3    H134374   2.167   4.851   0.178 -1.0848 -0.6942 -0.2584
 3393TIP3    H234375   2.110   4.845   0.318  0.0413 -0.1841  0.2295
 3394TIP3   OH234376   3.899   4.840   1.503  0.5958 -0.1810  0.4750
 3394TIP3    H134377   3.838   4.792   1.448  0.0358 -0.4157  1.2833
 3394TIP3    H234378   3.861   4.928   1.510  1.1482  0.1308 -0.2564
 3395TIP3   OH234379   3.060   3.977   2.999  0.2115 -0.1801  0.4719
 3395TIP3    H134380   3.134   3.920   3.020  2.1152  0.9753 -2.3957
 3395TIP3    H234381   2.983   3.930   3.030  2.0746 -1.5980  3.3168
 3396TIP3   OH234382   2.764   2.275   0.492  0.2981 -0.1102 -0.0708
 3396TIP3    H134383   2.722   2.226   0.563  0.7189  0.4920  0.6063
 3396TIP3    H234384   2.723   2.361   0.495  0.3439 -0.0701 -0.5452
 3397TIP3   OH234385   1.639   2.212   2.297 -0.4287 -0.7688  0.5183
 3397TIP3    H134386   1.581   2.138   2.284  0.4760 -1.4901  0.5008
 3397TIP3    H234387   1.639   2.258   2.213  0.6438 -1.9659 -0.1736
 3398TIP3   OH234388   0.214   0.456   9.635 -0.8058 -0.6002 -0.0641
 3398TIP3    H134389   0.188   0.547   9.621 -0.6405 -0.6448 -0.7236
 3398TIP3    H234390   0.293   0.446   9.582  0.5281 -0.4995  1.8075
 3399TIP3   OH234391   0.343   4.085   8.056  0.3424  0.0095  0.2409
 3399TIP3    H134392   0.377   4.128   8.135 -1.2568  2.9474 -0.5336
 3399TIP3    H234393   0.391   4.125   7.984 -2.2102  1.7957 -0.6162
 3400TIP3   OH234394   1.015   4.557   2.341  0.0174 -0.4545  0.4908
 3400TIP3    H134395   1.028   4.652   2.352  0.4032 -0.3367 -0.8299
 3400TIP3    H234396   0.922   4.544   2.358 -0.2836  0.3492 -0.4683
 3401TIP3   OH234397   4.360   2.390   0.276  0.0043  0.0972  0.1901
 3401TIP3    H134398   4.334   2.436   0.356  0.0487  0.1845  0.1540
 3401TIP3    H234399   4.402   2.457   0.222  1.9671 -0.4145  0.9975
 3402TIP3   OH234400   2.451   4.299   1.058 -0.1845 -0.3751  0.4610
 3402TIP3    H134401   2.490   4.298   0.971 -0.9449  2.4564 -0.0124
 3402TIP3    H234402   2.368   4.252   1.048 -0.6277  0.5984 -0.5582
 3403TIP3   OH234403   1.501   6.693   1.101  0.0315 -0.4118 -0.2682
 3403TIP3    H134404   1.509   6.781   1.138 -1.3566 -0.3335 -0.1043
 3403TIP3    H234405   1.438   6.648   1.158  0.0179 -1.2112 -0.8921
 3404TIP3   OH234406   3.774   4.934   9.068  0.0195 -0.2448 -0.3216
 3404TIP3    H134407   3.683   4.910   9.084  0.0721  0.0178  0.4560
 3404TIP3    H234408   3.824   4.887   9.135  0.3716  0.1907 -0.2702
 3405TIP3   OH234409   7.438   5.039   9.347 -0.6518  0.0067  0.7470
 3405TIP3    H134410   7.350   5.033   9.310 -0.8226 -0.6228  1.2512
 3405TIP3    H234411   7.496   5.039   9.270 -1.0531 -0.2508  0.4410
 3406TIP3   OH234412   0.949   4.935   7.719 -0.1345  0.0641  0.0380
 3406TIP3    H134413   1.036   4.917   7.684 -0.4194  0.1628 -0.7359
 3406TIP3    H234414   0.960   5.015   7.771  0.2557  0.0165  0.0300
 3407TIP3   OH234415   2.213   2.864   0.995  0.2435  0.9806  0.4009
 3407TIP3    H134416   2.249   2.784   0.958 -0.4812  0.8985 -0.1396
 3407TIP3    H234417   2.289   2.909   1.032  0.7485  0.3451  0.1559
 3408TIP3   OH234418   1.795   0.622   0.950  0.4346 -0.2385 -0.6897
 3408TIP3    H134419   1.702   0.617   0.970  0.7562 -0.5705  0.8765
 3408TIP3    H234420   1.838   0.606   1.034  1.8874  2.0506 -0.9082
 3409TIP3   OH234421   7.213   2.430   2.114 -0.3450  0.0230 -0.3973
 3409TIP3    H134422   7.142   2.462   2.169 -0.5340 -0.2841 -0.4631
 3409TIP3    H234423   7.190   2.339   2.095 -0.1226  0.0323 -0.7231
 3410TIP3   OH234424   4.828   6.012   9.992 -0.3575 -0.5202 -0.1908
 3410TIP3    H134425   4.889   6.031  10.063  2.8154  0.2379 -2.8946
 3410TIP3    H234426   4.742   6.031  10.029  1.2416  1.6925  2.8602
 3411TIP3   OH234427   2.744   2.773   0.390 -0.4911 -0.0128 -0.0229
 3411TIP3    H134428   2.794   2.780   0.471 -1.0571 -1.2218  0.4429
 3411TIP3    H234429   2.784   2.838   0.332  0.6061  0.1244  0.8555
 3412TIP3   OH234430   7.309   1.465   0.123  0.5345  0.1645  0.1636
 3412TIP3    H134431   7.255   1.496   0.196  0.2028 -0.5505  0.2332
 3412TIP3    H234432   7.265   1.385   0.094  2.3943 -1.3087  1.2119
 3413TIP3   OH234433   5.753   6.226   0.137 -0.0009  0.0660 -0.5096
 3413TIP3    H134434   5.667   6.208   0.176 -0.3801 -1.0514 -1.7883
 3413TIP3    H234435   5.761   6.322   0.140 -2.2983  0.4068 -2.3613
 3414TIP3   OH234436   4.866   1.590   2.340  0.5101 -0.6949 -0.2089
 3414TIP3    H134437   4.885   1.499   2.361  0.6551 -0.3667  1.2108
 3414TIP3    H234438   4.940   1.639   2.376 -0.8921  0.2239  1.5959
 3415TIP3   OH234439   1.136   5.075   8.854 -0.1723  0.0920 -0.0586
 3415TIP3    H134440   1.230   5.064   8.866 -0.2661 -0.2465  0.4050
 3415TIP3    H234441   1.128   5.138   8.782  0.4058  0.2296 -0.0069
 3416TIP3   OH234442   5.886   2.802   1.015  0.4216 -0.0415 -0.7920
 3416TIP3    H134443   5.843   2.826   1.097  0.2733  1.9404 -1.3794
 3416TIP3    H234444   5.901   2.886   0.971  0.6241 -1.0382 -2.7275
 3417TIP3   OH234445   0.767   3.310   9.160 -0.3445  0.9263  0.2511
 3417TIP3    H134446   0.755   3.223   9.121  0.3458  1.4773 -1.2722
 3417TIP3    H234447   0.696   3.318   9.224 -1.1462 -0.2831 -0.4449
 3418TIP3   OH234448   3.945   3.209   0.287 -0.1583 -0.6987 -0.7471
 3418TIP3    H134449   3.891   3.207   0.208 -1.6872  1.9297  0.0952
 3418TIP3    H234450   3.886   3.237   0.356  2.1320  2.0368  0.3121
 3419TIP3   OH234451   2.665   1.133   2.336 -0.1049  0.0899 -0.0443
 3419TIP3    H134452   2.709   1.196   2.279  0.4981  0.6173  0.9823
 3419TIP3    H234453   2.572   1.144   2.316  0.0765  0.4411 -0.7382
 3420TIP3   OH234454   5.796   5.778   1.395  0.1752 -0.3483  0.3412
 3420TIP3    H134455   5.849   5.709   1.436 -0.2365  0.1743  1.8194
 3420TIP3    H234456   5.717   5.732   1.366  0.7507 -0.8460 -0.4987
 3421TIP3   OH234457   2.440   7.303   0.828 -0.3377 -0.8942  0.2949
 3421TIP3    H134458   2.366   7.295   0.768 -0.4834 -0.1826  0.3603
 3421TIP3    H234459   2.504   7.358   0.781  0.3804 -1.9344  0.0296
 3422TIP3   OH234460   2.144   4.160   9.371 -0.7409 -0.2595 -0.3852
 3422TIP3    H134461   2.213   4.094   9.369 -0.6118 -0.1593  0.5209
 3422TIP3    H234462   2.189   4.243   9.356 -0.8442 -0.3242 -1.0831
 3423TIP3   OH234463   2.092   6.244   2.767 -0.4375  0.1324  0.3811
 3423TIP3    H134464   2.020   6.304   2.747  0.0093  0.1437 -1.2971
 3423TIP3    H234465   2.085   6.174   2.702  2.1806  1.1298 -1.1245
 3424TIP3   OH234466   3.565   6.542   8.322  0.2606 -0.3461 -0.2072
 3424TIP3    H134467   3.496   6.528   8.257  0.6769  1.4310 -1.0985
 3424TIP3    H234468   3.536   6.619   8.371  0.3072 -1.2394  1.2687
 3425TIP3   OH234469   5.413   3.714   0.192 -0.1412  0.1768  0.1542
 3425TIP3    H134470   5.456   3.792   0.228 -0.6631 -0.1044  1.4559
 3425TIP3    H234471   5.388   3.663   0.269 -2.3770  0.0998 -0.5422
 3426TIP3   OH234472   2.372   2.795   1.797 -0.0197  0.8700  0.1183
 3426TIP3    H134473   2.345   2.801   1.889  0.2937  4.5397  0.1229
 3426TIP3    H234474   2.468   2.803   1.800  0.2781 -1.6846 -0.4715
 3427TIP3   OH234475   0.302   6.565   8.764  0.1308  0.0272  0.2890
 3427TIP3    H134476   0.376   6.573   8.824  1.2144 -2.2824 -0.6105
 3427TIP3    H234477   0.226   6.590   8.816  1.5564  3.8610  0.8650
 3428TIP3   OH234478   2.652   5.966   1.801  0.6609 -0.6639  0.4601
 3428TIP3    H134479   2.710   5.959   1.726 -0.2030  2.7258 -0.7212
 3428TIP3    H234480   2.569   5.929   1.771  0.2524  0.8791 -0.4288
 3429TIP3   OH234481   7.421   2.840   9.722  0.0174  0.0663 -0.5688
 3429TIP3    H134482   7.332   2.849   9.756  0.3582  0.6737  0.1916
 3429TIP3    H234483   7.447   2.929   9.700  1.3758  0.3099  1.6919
 3430TIP3   OH234484   7.155   7.353   9.761 -0.1397 -0.3651  0.0329
 3430TIP3    H134485   7.244   7.342   9.795  0.0668  2.9461  0.9120
 3430TIP3    H234486   7.163   7.338   9.667  2.5330  4.1117 -0.7706
 3431TIP3   OH234487   6.902   1.947   2.348 -0.4282 -0.5891  0.1182
 3431TIP3    H134488   6.943   1.887   2.410  0.9193  1.4043  1.2367
 3431TIP3    H234489   6.941   1.924   2.264  0.0134 -1.3177  0.5125
 3432TIP3   OH234490   3.747   0.293   0.917  0.3094 -0.0490  0.1318
 3432TIP3    H134491   3.728   0.254   0.832  0.3011  2.4728 -1.1127
 3432TIP3    H234492   3.841   0.278   0.930  0.3749 -0.1965 -0.4738
 3433TIP3   OH234493   1.679   1.843   1.985 -0.0536  0.6552  0.9339
 3433TIP3    H134494   1.765   1.854   2.027  0.5641 -1.9489  0.4962
 3433TIP3    H234495   1.699   1.838   1.892 -0.8645  1.2646  0.7105
 3434TIP3   OH234496   4.547   0.138   6.643  0.0277 -0.3332  0.4611
 3434TIP3    H134497   4.502   0.065   6.685  0.6950 -0.9159  0.1832
 3434TIP3    H234498   4.477   0.201   6.624 -0.9515 -1.8547 -1.3331
 3435TIP3   OH234499   0.265   0.053   9.608  0.1157  0.2154 -0.2086
 3435TIP3    H134500   0.211   0.092   9.676 -1.4261 -3.0759  0.6846
 3435TIP3    H234501   0.223   0.080   9.526 -1.7584 -0.5772  0.4223
 3436TIP3   OH234502   3.578   2.080   9.513  0.1574 -0.3725  0.6750
 3436TIP3    H134503   3.497   2.101   9.559  0.4024  0.5668  0.7040
 3436TIP3    H234504   3.647   2.099   9.577  0.6139  2.6185 -0.5423
 3437TIP3   OH234505   6.598   6.291   1.564 -0.5487  0.0009  0.2938
 3437TIP3    H134506   6.594   6.343   1.484 -1.9351  0.6911  0.7798
 3437TIP3    H234507   6.631   6.206   1.536  2.4862  1.2530 -0.4277
 3438TIP3   OH234508   5.811   6.646   2.012 -0.2035 -0.4683  0.3771
 3438TIP3    H134509   5.884   6.708   2.004 -1.1343  0.4513 -1.6359
 3438TIP3    H234510   5.853   6.564   2.038  1.2383  0.6087  1.6576
 3439TIP3   OH234511   6.511   1.975   1.364 -0.6374 -0.1316 -0.6030
 3439TIP3    H134512   6.471   2.025   1.293 -0.3052  2.4239  0.8964
 3439TIP3    H234513   6.596   1.948   1.329  0.0190  2.0930 -0.8346
 3440TIP3   OH234514   2.719   0.975   0.653 -0.0902 -0.3228  0.1301
 3440TIP3    H134515   2.773   0.947   0.727  0.1402  1.4425  0.6663
 3440TIP3    H234516   2.780   1.018   0.593 -1.0403  3.7242  1.7568
 3441TIP3   OH234517   2.517   4.595   9.081 -0.0271 -0.1282  0.0698
 3441TIP3    H134518   2.591   4.535   9.090  0.7766  1.0707  2.0482
 3441TIP3    H234519   2.557   4.681   9.069 -1.0768  0.5233  1.0400
 3442TIP3   OH234520   2.260   0.226   2.347  0.3268  0.2561  0.4362
 3442TIP3    H134521   2.173   0.257   2.371 -0.5816  0.2852 -2.5269
 3442TIP3    H234522   2.320   0.290   2.385 -1.0867  1.4820  0.6863
 3443TIP3   OH234523   3.362   5.090   2.534 -0.4987 -0.5068  0.1045
 3443TIP3    H134524   3.410   5.058   2.609 -0.7612  0.8824  0.9053
 3443TIP3    H234525   3.418   5.159   2.497 -0.8396 -0.4539 -0.3219
 3444TIP3   OH234526   1.936   6.475   7.218  0.2656 -0.2551  0.0167
 3444TIP3    H134527   2.000   6.433   7.161 -0.2836  1.2437 -1.8092
 3444TIP3    H234528   1.958   6.568   7.215 -0.5189 -0.0014  1.3137
 3445TIP3   OH234529   4.764   2.603   7.518  0.4426  0.3888  0.1745
 3445TIP3    H134530   4.753   2.692   7.483  0.8161  0.6690  0.7507
 3445TIP3    H234531   4.707   2.549   7.463 -2.0847  1.4183  1.5699
 3446TIP3   OH234532   2.561   2.652   7.419  0.1556 -0.0117  0.4019
 3446TIP3    H134533   2.613   2.691   7.489 -1.3187 -0.4912  1.8361
 3446TIP3    H234534   2.551   2.560   7.445 -0.0805 -0.3018 -0.6671
 3447TIP3   OH234535   0.593   4.041   7.380  0.1399 -0.6088  0.3638
 3447TIP3    H134536   0.504   4.038   7.415  0.7796 -2.0621  2.0276
 3447TIP3    H234537   0.589   4.104   7.308 -2.9873 -2.8496 -1.7255
 3448TIP3   OH234538   1.551   4.094   0.434 -0.0427 -0.5179  0.3543
 3448TIP3    H134539   1.532   4.137   0.518  2.6431  0.3913  0.5983
 3448TIP3    H234540   1.524   4.003   0.447 -0.7717 -0.1251  1.7808
 3449TIP3   OH234541   5.419   5.040   9.043  0.3941 -0.3408  0.3576
 3449TIP3    H134542   5.349   5.087   8.997 -0.5418 -1.1511  0.8994
 3449TIP3    H234543   5.464   5.107   9.094 -0.0189  0.1911  0.0308
 3450TIP3   OH234544   2.226   6.148   1.337  0.1153  0.1591 -0.4265
 3450TIP3    H134545   2.280   6.079   1.298 -1.3548 -1.9990  1.1750
 3450TIP3    H234546   2.153   6.159   1.276 -0.5800 -1.0221  0.1681
 3451TIP3   OH234547   0.742   6.084   8.048  0.8188 -0.4135 -0.5844
 3451TIP3    H134548   0.666   6.036   8.081 -0.9068  1.4304 -1.6303
 3451TIP3    H234549   0.727   6.174   8.075  2.7918 -0.0308 -0.6277
 3452TIP3   OH234550   0.530   6.105   9.909 -0.3149 -0.6902  0.0136
 3452TIP3    H134551   0.473   6.094   9.833 -0.1117  0.7995 -0.3913
 3452TIP3    H234552   0.483   6.060   9.980 -2.0831  0.5683 -0.2739
 3453TIP3   OH234553   2.951   7.208   2.791 -0.0921  0.3276  0.1737
 3453TIP3    H134554   2.926   7.122   2.825  0.3780 -0.2600 -0.9007
 3453TIP3    H234555   2.946   7.198   2.696  0.5916  1.2932  0.0206
 3454TIP3   OH234556   1.703   5.581   1.639  0.0404 -0.3203 -0.4203
 3454TIP3    H134557   1.738   5.614   1.721 -1.8956 -1.4396  0.9183
 3454TIP3    H234558   1.660   5.657   1.599 -0.2723 -0.0948  0.3265
 3455TIP3   OH234559   2.935   4.530   0.648  0.7019  0.3202 -0.2950
 3455TIP3    H134560   2.881   4.547   0.571 -0.7851  0.7375  0.7759
 3455TIP3    H234561   3.023   4.518   0.614  0.0602  0.3005 -2.0654
 3456TIP3   OH234562   4.755   2.931   8.836  0.0149  0.3635  0.3860
 3456TIP3    H134563   4.707   2.926   8.753 -1.6145 -3.2708  1.3708
 3456TIP3    H234564   4.721   3.011   8.877 -1.7909  0.3467 -0.9283
 3457TIP3   OH234565   1.030   3.830   8.893  0.0699 -0.3916  0.4157
 3457TIP3    H134566   1.078   3.753   8.862  0.6823  0.4606 -0.7991
 3457TIP3    H234567   1.048   3.898   8.828  1.6609  1.5839  2.7163
 3458TIP3   OH234568   3.224   5.369   2.214  0.4331  0.1955  0.3641
 3458TIP3    H134569   3.282   5.375   2.290 -0.0257  1.5287  0.6405
 3458TIP3    H234570   3.141   5.408   2.244 -0.9837 -2.5156  0.2751
 3459TIP3   OH234571   2.999   2.369   2.233 -0.0432 -0.1230 -0.4911
 3459TIP3    H134572   2.941   2.309   2.280  1.9937 -0.1422  2.2650
 3459TIP3    H234573   3.042   2.314   2.167 -2.3120 -0.3172 -1.8885
 3460TIP3   OH234574   5.742   4.099   0.188  0.2091 -0.0488 -0.0739
 3460TIP3    H134575   5.786   4.015   0.188 -2.0777 -1.3434  0.2936
 3460TIP3    H234576   5.812   4.164   0.189  2.0381 -1.9416  1.2502
 3461TIP3   OH234577   2.947   4.300   7.114 -0.3993 -0.1554  0.3085
 3461TIP3    H134578   2.944   4.317   7.020 -0.9195 -1.9033 -0.0259
 3461TIP3    H234579   3.036   4.326   7.140 -0.4259  0.8477 -0.5388
 3462TIP3   OH234580   4.321   3.175   9.969 -0.1651 -0.3537  0.0139
 3462TIP3    H134581   4.235   3.141   9.996 -1.2437  2.3026  0.2259
 3462TIP3    H234582   4.322   3.166   9.874 -1.1673  0.5044 -0.1030
 3463TIP3   OH234583   4.470   1.637   0.141  0.0915 -0.6430  0.0154
 3463TIP3    H134584   4.478   1.585   0.061 -1.2543 -1.0235  0.1212
 3463TIP3    H234585   4.386   1.613   0.179  0.7859 -0.6401  1.6870
 3464TIP3   OH234586   4.726   0.668   2.592  0.1152 -0.1368 -0.2422
 3464TIP3    H134587   4.807   0.718   2.601  1.1987 -1.2256 -3.0611
 3464TIP3    H234588   4.662   0.731   2.558  0.7298 -0.0127 -1.2011
 3465TIP3   OH234589   3.781   4.397   9.985  0.2750 -0.4552 -0.7295
 3465TIP3    H134590   3.717   4.391   9.914  0.3079  0.5165 -0.8606
 3465TIP3    H234591   3.864   4.416   9.940  0.3342 -0.0412 -0.4498
 3466TIP3   OH234592   1.224   6.696   2.444 -0.0884  0.6025 -0.0712
 3466TIP3    H134593   1.206   6.650   2.361 -1.0930 -1.8291  1.3823
 3466TIP3    H234594   1.285   6.639   2.490 -1.5182  0.5589  1.8991
 3467TIP3   OH234595   0.122   5.065   2.611  0.2276  0.3231  0.3806
 3467TIP3    H134596   0.030   5.049   2.587  0.1266 -0.5389  1.3224
 3467TIP3    H234597   0.148   4.989   2.663  1.6737  0.2652 -0.3718
 3468TIP3   OH234598   2.197   4.659   8.817 -0.1585  0.4099  0.2188
 3468TIP3    H134599   2.196   4.715   8.895 -0.2631  0.1773  0.3852
 3468TIP3    H234600   2.277   4.606   8.826 -0.5155 -0.0910  0.5093
 3469TIP3   OH234601   4.399   2.060   2.281  0.3068  0.0659 -0.1932
 3469TIP3    H134602   4.456   2.011   2.341  0.1161  0.3476  0.2268
 3469TIP3    H234603   4.310   2.036   2.309  0.1988  1.1293  0.4370
 3470TIP3   OH234604   3.553   3.095   1.295 -0.3872 -0.0437  0.2358
 3470TIP3    H134605   3.539   3.160   1.225 -0.4641  1.7802  1.8483
 3470TIP3    H234606   3.472   3.099   1.347 -0.4170 -1.5208  0.3269
 3471TIP3   OH234607   0.635   0.687   1.049  0.7526 -0.0116  0.2770
 3471TIP3    H134608   0.572   0.643   0.992 -0.0565  1.5304 -0.0732
 3471TIP3    H234609   0.701   0.723   0.990  2.1706 -1.8352  0.6587
 3472TIP3   OH234610   3.800   3.464   9.469 -0.0119  0.0562  0.1272
 3472TIP3    H134611   3.869   3.523   9.440 -1.9563  1.8220 -1.2256
 3472TIP3    H234612   3.774   3.417   9.391 -2.1444  1.4485 -0.0947
 3473TIP3   OH234613   1.592   4.007   8.570 -0.4627  0.5972  0.2387
 3473TIP3    H134614   1.525   3.969   8.627 -2.0726  0.6176 -1.5255
 3473TIP3    H234615   1.623   3.934   8.517  0.8473  0.6217  0.9393
 3474TIP3   OH234616   4.934   4.652   8.733  0.4546  0.5154 -0.0573
 3474TIP3    H134617   4.936   4.748   8.738 -0.4037  0.6096 -1.1777
 3474TIP3    H234618   4.932   4.624   8.825 -4.2100  1.7783  0.5212
 3475TIP3   OH234619   1.002   7.229   7.526  0.2606 -0.1110 -0.7963
 3475TIP3    H134620   0.931   7.183   7.481 -1.2601  0.9701  0.3554
 3475TIP3    H234621   1.017   7.177   7.605 -0.1144  0.2791 -0.4553
 3476TIP3   OH234622   7.122   3.480   9.697 -0.1912 -0.6791  0.0855
 3476TIP3    H134623   7.202   3.461   9.648 -0.4981  0.0096 -0.7036
 3476TIP3    H234624   7.051   3.458   9.638 -0.5755 -0.4679  0.4603
 3477TIP3   OH234625   1.211   1.632   1.066 -0.0986 -0.0214 -0.5403
 3477TIP3    H134626   1.228   1.608   1.158 -1.8176 -0.3556 -0.2741
 3477TIP3    H234627   1.223   1.727   1.064  0.7362 -0.1101 -0.1615
 3478TIP3   OH234628   0.961   0.584   1.047  0.1243  0.1977  0.4034
 3478TIP3    H134629   1.024   0.545   1.107  0.2569  1.0555  0.8349
 3478TIP3    H234630   0.975   0.678   1.055 -0.5102  0.3621 -0.2655
 3479TIP3   OH234631   1.184   4.199   7.814  0.1393  0.1991  0.4167
 3479TIP3    H134632   1.093   4.176   7.834  0.3731 -0.4626  0.7542
 3479TIP3    H234633   1.209   4.261   7.883  0.3067 -0.5235  1.0202
 3480TIP3   OH234634   3.427   6.153   8.807  0.3073 -0.5713 -0.1906
 3480TIP3    H134635   3.517   6.143   8.778  1.1353  1.5319  1.4012
 3480TIP3    H234636   3.413   6.081   8.869  1.0627 -0.6162 -0.0722
 3481TIP3   OH234637   5.147   4.507   7.939  0.4856  0.4946  0.1912
 3481TIP3    H134638   5.197   4.498   8.021 -0.1685  0.1082  0.5586
 3481TIP3    H234639   5.110   4.595   7.943  0.2320  0.3781  0.4432
 3482TIP3   OH234640   6.050   4.496   0.993  0.3118 -0.1258  0.8670
 3482TIP3    H134641   5.958   4.519   0.981  0.5584  1.6001  1.9519
 3482TIP3    H234642   6.048   4.414   1.042 -0.6159 -0.7446 -0.1605
 3483TIP3   OH234643   3.109   5.549   6.736 -0.2307  0.1864 -0.1697
 3483TIP3    H134644   3.134   5.631   6.694  1.6841 -0.6408 -0.7848
 3483TIP3    H234645   3.014   5.544   6.727 -0.0679  0.7642 -3.0953
 3484TIP3   OH234646   1.578   2.290   0.282 -0.3730 -0.5926  0.4578
 3484TIP3    H134647   1.653   2.232   0.268  0.7291  1.0517 -1.0145
 3484TIP3    H234648   1.548   2.271   0.370  0.3474 -2.8911  0.2645
 3485TIP3   OH234649   1.305   0.257   0.420  1.3768  0.1134  0.2499
 3485TIP3    H134650   1.320   0.173   0.376  1.2284  1.0328 -1.6866
 3485TIP3    H234651   1.335   0.322   0.357 -1.3672  1.6399  0.3657
 3486TIP3   OH234652   0.499   0.942   7.413 -0.1388 -0.2994 -0.0311
 3486TIP3    H134653   0.523   0.923   7.323 -0.9107  1.0371 -0.5469
 3486TIP3    H234654   0.451   1.025   7.409 -1.9944 -1.2105  1.3224
 3487TIP3   OH234655   2.902   4.461   1.490 -0.5445 -0.1288  0.0916
 3487TIP3    H134656   2.890   4.446   1.584  0.1428 -0.1117  0.1863
 3487TIP3    H234657   2.823   4.425   1.450 -0.2326 -1.3875  0.5587
 3488TIP3   OH234658   3.575   7.325   6.736 -0.1578 -0.5071 -0.0674
 3488TIP3    H134659   3.519   7.348   6.810  0.9876 -1.4630  1.1506
 3488TIP3    H234660   3.572   7.402   6.679 -0.2593  0.6900  1.4739
 3489TIP3   OH234661   1.836   5.111   9.798 -0.3067 -0.0165 -0.0877
 3489TIP3    H134662   1.801   5.141   9.882  0.9618  0.3886  0.3315
 3489TIP3    H234663   1.917   5.065   9.821 -0.8351 -1.4441 -0.9533
 3490TIP3   OH234664   2.367   5.390   7.991 -0.5683 -0.0303 -0.3023
 3490TIP3    H134665   2.345   5.356   8.078 -1.7043 -0.5929 -0.7794
 3490TIP3    H234666   2.316   5.470   7.983  0.9628  1.0284  0.2437
 3491TIP3   OH234667   5.019   6.629   7.055 -0.4972 -0.3549  0.1416
 3491TIP3    H134668   5.104   6.672   7.054 -1.7793  2.4438 -1.0347
 3491TIP3    H234669   5.039   6.536   7.062  2.5726  0.2608  1.0199
 3492TIP3   OH234670   5.702   1.409   1.538 -0.1683  0.0116 -0.4422
 3492TIP3    H134671   5.748   1.340   1.587  0.3094  0.1996 -0.6235
 3492TIP3    H234672   5.610   1.398   1.563 -0.0119 -0.2885  0.0223
 3493TIP3   OH234673   1.574   1.664   9.920  0.6552 -0.0247  0.2040
 3493TIP3    H134674   1.558   1.575   9.889  0.8042 -0.4506  1.2947
 3493TIP3    H234675   1.513   1.675   9.993  0.2056  0.9969 -0.3105
 3494TIP3   OH234676   3.982   7.450   8.769 -0.4600 -0.1547  1.1518
 3494TIP3    H134677   3.974   7.376   8.828 -3.3958  0.1165  1.2614
 3494TIP3    H234678   3.963   7.414   8.682 -0.6754  0.2290  1.0343
 3495TIP3   OH234679   2.057   4.076   1.186  0.4340  0.1339 -0.3313
 3495TIP3    H134680   2.070   3.981   1.189 -0.8590 -0.0445  0.5162
 3495TIP3    H234681   1.965   4.088   1.208  0.4111  1.5582 -1.1056
 3496TIP3   OH234682   1.403   2.216   2.566  0.2557  0.5780 -0.0469
 3496TIP3    H134683   1.364   2.293   2.524  0.8696  1.2180  0.5180
 3496TIP3    H234684   1.352   2.203   2.645  0.4488  0.7053  0.1010
 3497TIP3   OH234685   6.018   5.218   9.807  0.3455 -0.1294 -0.0700
 3497TIP3    H134686   5.972   5.142   9.844 -1.8269 -0.0309 -2.3811
 3497TIP3    H234687   6.021   5.201   9.713  2.2583  1.4232 -0.3532
 3498TIP3   OH234688   1.458   3.126   9.581  0.6660 -0.7778  0.3287
 3498TIP3    H134689   1.447   3.077   9.499  1.7783 -2.4962  1.1470
 3498TIP3    H234690   1.549   3.153   9.581 -0.1777  2.6618 -0.7229
 3499TIP3   OH234691   3.783   6.682   1.262 -0.1948 -0.1149  0.3369
 3499TIP3    H134692   3.770   6.675   1.356 -1.1274 -1.7127  0.1175
 3499TIP3    H234693   3.871   6.720   1.253 -0.3993  0.8076  1.8231
 3500TIP3   OH234694   1.308   6.707   7.530  0.1031  0.0867  0.3268
 3500TIP3    H134695   1.290   6.725   7.437 -1.9279  1.0449  0.8310
 3500TIP3    H234696   1.347   6.620   7.530  1.4453  0.6258 -1.5248
 3501TIP3   OH234697   1.005   3.717   9.747 -0.7015 -0.1750 -0.3790
 3501TIP3    H134698   1.072   3.722   9.679  0.8798 -0.1632  1.1006
 3501TIP3    H234699   0.927   3.686   9.702  0.6133 -1.3329 -1.9986
 3502TIP3   OH234700   3.155   7.233   8.687  0.0689 -0.2862  0.0260
 3502TIP3    H134701   3.210   7.165   8.725  0.5213  0.0927  0.0575
 3502TIP3    H234702   3.113   7.275   8.763  0.2227 -0.1660  0.0456
 3503TIP3   OH234703   2.098   3.191   8.858 -0.5010  0.4363  0.8120
 3503TIP3    H134704   2.068   3.176   8.768 -0.1028  0.2447  0.7097
 3503TIP3    H234705   2.084   3.284   8.873  0.1812  0.6303  0.2690
 3504TIP3   OH234706   3.490   2.806   0.607  0.3408 -0.0480  0.1891
 3504TIP3    H134707   3.539   2.802   0.525  0.2344 -3.1868  0.1421
 3504TIP3    H234708   3.557   2.818   0.674  0.8276 -0.8998 -0.1296
 3505TIP3   OH234709   2.981   4.943   1.282 -0.0592 -0.1795  0.1029
 3505TIP3    H134710   3.072   4.915   1.272 -0.1349 -0.6861  0.7310
 3505TIP3    H234711   2.984   5.039   1.281  0.4130 -0.1986 -0.4060
 3506TIP3   OH234712   2.838   5.329   8.761 -0.1256 -0.0008 -0.6103
 3506TIP3    H134713   2.883   5.406   8.797  1.2642 -1.8738  2.0290
 3506TIP3    H234714   2.908   5.279   8.718 -0.3354 -1.2271  0.4128
 3507TIP3   OH234715   1.829   5.174   0.626 -0.4488  0.0293  0.0102
 3507TIP3    H134716   1.761   5.201   0.688 -1.0365  0.9763 -1.0087
 3507TIP3    H234717   1.783   5.123   0.560  0.1328 -0.7736  0.2145
 3508TIP3   OH234718   1.931   0.550   7.797 -0.1556  0.2194  0.5696
 3508TIP3    H134719   1.998   0.539   7.865 -0.7306  0.1023  1.1182
 3508TIP3    H234720   1.942   0.474   7.740  0.4477  0.4115  0.4227
 3509TIP3   OH234721   3.415   4.378   8.756  0.2782 -0.0538 -0.1700
 3509TIP3    H134722   3.350   4.449   8.753 -0.1595 -0.4752 -1.2452
 3509TIP3    H234723   3.498   4.423   8.773 -0.3326  0.4410  1.8822
 3510TIP3   OH234724   6.983   5.445   9.303 -0.0502 -0.5345  0.1269
 3510TIP3    H134725   7.052   5.451   9.369  0.1530 -0.1249 -0.1174
 3510TIP3    H234726   6.984   5.531   9.260 -0.2109 -0.7845 -0.3799
 3511TIP3   OH234727   1.948   5.738   7.887 -0.2692 -0.2924  0.0678
 3511TIP3    H134728   1.910   5.695   7.811  1.2019  0.7222 -1.3154
 3511TIP3    H234729   1.981   5.822   7.854 -0.0637  0.4380  1.9437
 3512TIP3   OH234730   1.322   7.120   1.456 -0.0716 -0.4147  0.0558
 3512TIP3    H134731   1.317   7.089   1.546 -0.5507 -0.0812  0.1471
 3512TIP3    H234732   1.393   7.184   1.456  1.6928 -2.2539 -0.3720
 3513TIP3   OH234733   4.976   0.273   9.271 -0.4778  0.0666 -0.1568
 3513TIP3    H134734   4.965   0.216   9.347 -0.8379 -0.4959 -0.6217
 3513TIP3    H234735   4.977   0.362   9.307 -2.0356 -0.1017  0.3753
 3514TIP3   OH234736   3.684   4.189   9.076  0.3105 -0.0456 -0.5961
 3514TIP3    H134737   3.598   4.230   9.088  0.7168  0.6498  0.0255
 3514TIP3    H234738   3.737   4.257   9.034  0.8206 -0.1366 -0.1141
 3515TIP3   OH234739   5.665   3.438   0.978  0.2356 -0.0806 -0.2256
 3515TIP3    H134740   5.723   3.426   0.902 -0.3285  3.0984 -1.3032
 3515TIP3    H234741   5.721   3.479   1.044 -0.1194  0.5197 -0.2920
 3516TIP3   OH234742   2.375   5.010   2.364 -0.0776 -0.5649 -0.2132
 3516TIP3    H134743   2.302   4.990   2.306 -1.6030  0.8742  1.1274
 3516TIP3    H234744   2.357   5.098   2.397  0.7685 -1.2529  2.3184
 3517TIP3   OH234745   2.428   4.326   1.997 -0.7419  0.1378 -1.1374
 3517TIP3    H134746   2.400   4.235   2.011 -1.4414  0.4656 -0.3217
 3517TIP3    H234747   2.347   4.376   1.993 -0.3577  0.7445 -1.4694
 3518TIP3   OH234748   6.734   3.846   9.755 -0.3439  0.3384 -0.1992
 3518TIP3    H134749   6.817   3.881   9.787  0.9087 -1.7701 -1.0151
 3518TIP3    H234750   6.671   3.870   9.823  0.9418  1.8019  0.5397
 3519TIP3   OH234751   5.902   1.630   8.594  0.4992 -0.0267 -0.3448
 3519TIP3    H134752   5.839   1.579   8.645  2.0230 -0.3118  1.3408
 3519TIP3    H234753   5.853   1.708   8.568 -0.5639 -0.2098  0.9583
 3520TIP3   OH234754   7.340   1.415   8.263  0.0543  0.5117 -0.4594
 3520TIP3    H134755   7.409   1.412   8.197  1.8651 -0.5169  1.3815
 3520TIP3    H234756   7.342   1.504   8.297  1.5705  0.1063  0.6144
 3521TIP3   OH234757   4.996   2.894   1.505 -0.0420  0.1844  0.2218
 3521TIP3    H134758   5.065   2.960   1.515 -0.1337  0.1054  1.5374
 3521TIP3    H234759   5.042   2.810   1.507 -0.1122  0.1513  0.4895
 3522TIP3   OH234760   2.290   0.588   0.706  0.1351 -0.7239 -0.2089
 3522TIP3    H134761   2.306   0.664   0.650 -0.8694 -0.7655 -0.5734
 3522TIP3    H234762   2.234   0.622   0.776 -0.7207 -1.2204 -0.6374
 3523TIP3   OH234763   3.508   4.302   7.254 -0.0551 -0.1598  0.4923
 3523TIP3    H134764   3.584   4.280   7.308  0.3192  2.2252  1.0644
 3523TIP3    H234765   3.483   4.390   7.282  0.0365  1.1691 -3.0488
 3524TIP3   OH234766   3.102   2.157   2.075  0.3566  0.1454 -0.2001
 3524TIP3    H134767   3.076   2.065   2.083  0.3962  0.0433 -1.1310
 3524TIP3    H234768   3.146   2.162   1.991  1.2255  0.8258  0.2812
 3525TIP3   OH234769   1.855   4.866   1.118 -0.1794 -0.5374  0.3128
 3525TIP3    H134770   1.911   4.795   1.086  1.3275  1.2565 -1.2959
 3525TIP3    H234771   1.866   4.935   1.053 -1.9424  1.0143  1.5841
 3526TIP3   OH234772   2.292   6.863   3.227  0.1677 -0.1902  0.2386
 3526TIP3    H134773   2.368   6.818   3.189  0.0801 -1.8319  1.8757
 3526TIP3    H234774   2.217   6.826   3.181  0.2587  0.5522 -0.5353
 3527TIP3   OH234775   1.835   5.295   8.844 -0.0825  0.2817  0.0001
 3527TIP3    H134776   1.773   5.222   8.854 -0.8083  0.9132  0.2937
 3527TIP3    H234777   1.868   5.287   8.755 -0.5444 -0.1066 -0.1414
 3528TIP3   OH234778   7.271   6.427   8.927  0.5531  0.3488 -0.4062
 3528TIP3    H134779   7.249   6.470   8.845 -1.8195 -0.6894 -0.3727
 3528TIP3    H234780   7.212   6.466   8.992 -0.9331 -2.0612 -0.1717
 3529TIP3   OH234781   1.946   1.333   9.437 -0.7621 -0.0030 -0.0454
 3529TIP3    H134782   1.896   1.322   9.356 -0.5105  2.0127 -0.5312
 3529TIP3    H234783   1.989   1.249   9.451 -0.1992 -0.1757 -2.4402
 3530TIP3   OH234784   3.543   1.912   0.152  0.1109 -0.1365  0.1538
 3530TIP3    H134785   3.563   1.942   0.063 -0.3282 -3.9406 -1.3865
 3530TIP3    H234786   3.628   1.894   0.191  0.3303  1.9439  0.7850
 3531TIP3   OH234787   6.716   1.152   1.206 -0.6608  0.1034  0.2636
 3531TIP3    H134788   6.671   1.068   1.190 -1.1040  0.2360  0.7879
 3531TIP3    H234789   6.796   1.146   1.154 -0.4553 -0.8462  0.6554
 3532TIP3   OH234790   7.445   0.512   1.942  0.5334  0.7858 -0.0732
 3532TIP3    H134791   7.527   0.509   1.894  0.5964 -0.0105  0.0827
 3532TIP3    H234792   7.430   0.422   1.971  0.2649  1.1655  1.0152
 3533TIP3   OH234793   4.754   2.057   9.853  0.1883 -0.3233  0.0838
 3533TIP3    H134794   4.743   1.967   9.885 -0.7538 -0.4398 -0.5134
 3533TIP3    H234795   4.810   2.098   9.918 -0.9009 -0.8190  1.4137
 3534TIP3   OH234796   2.294   1.210   0.546 -0.5109 -0.4848 -0.3778
 3534TIP3    H134797   2.249   1.146   0.490 -1.6569  1.0203 -1.2714
 3534TIP3    H234798   2.233   1.284   0.551  0.9387  0.7255  0.2376
 3535TIP3   OH234799   1.490   6.466   1.613 -0.1555  0.1357 -0.2703
 3535TIP3    H134800   1.419   6.517   1.651 -0.0015 -0.5633  1.0113
 3535TIP3    H234801   1.559   6.530   1.594 -0.2295  0.5096  0.6778
 3536TIP3   OH234802   0.731   6.063   2.233 -0.2475  0.1070  0.1468
 3536TIP3    H134803   0.661   6.014   2.275  0.3207 -1.0628 -0.2327
 3536TIP3    H234804   0.811   6.027   2.270  0.2066  0.1866 -0.7376
 3537TIP3   OH234805   1.864   6.806   1.359 -0.0475 -0.0768  0.6965
 3537TIP3    H134806   1.922   6.783   1.431 -0.0382 -0.5196  0.5472
 3537TIP3    H234807   1.879   6.900   1.345 -1.4716  0.5094  2.5717
 3538TIP3   OH234808   5.540   1.682   8.964  0.6559 -0.2902  0.0882
 3538TIP3    H134809   5.530   1.737   8.886 -0.3610 -2.2528 -1.2386
 3538TIP3    H234810   5.634   1.661   8.966  0.8067  0.3137 -0.2124
 3539TIP3   OH234811   3.259   4.913   1.947 -0.5559  0.3575 -0.1283
 3539TIP3    H134812   3.254   4.991   2.001  0.3785  0.9223 -0.8415
 3539TIP3    H234813   3.352   4.902   1.928 -0.7967 -0.2367 -1.0261
 3540TIP3   OH234814   4.423   4.284   1.701 -0.1356  0.1865 -0.7430
 3540TIP3    H134815   4.412   4.362   1.647  1.6342 -0.7662 -2.6307
 3540TIP3    H234816   4.416   4.316   1.791 -1.1733  2.1961 -1.4699
 3541TIP3   OH234817   0.373   3.579   8.227  0.1212 -0.0949 -0.4182
 3541TIP3    H134818   0.372   3.653   8.167  1.3144  0.0226 -0.3217
 3541TIP3    H234819   0.281   3.554   8.237 -0.0835 -0.5201 -2.7706
 3542TIP3   OH234820   2.254   1.404   0.231  0.0835 -0.0755  0.0006
 3542TIP3    H134821   2.174   1.360   0.200 -0.4622 -0.4698  1.8390
 3542TIP3    H234822   2.225   1.457   0.305  1.7101 -1.2218  1.5483
 3543TIP3   OH234823   4.996   4.072   8.317 -0.3673  0.1295  0.4841
 3543TIP3    H134824   5.032   3.987   8.342 -2.5031 -1.1906 -0.5909
 3543TIP3    H234825   4.971   4.062   8.225  0.6249  2.4245 -0.1041
 3544TIP3   OH234826   4.866   1.800   0.357  0.2050 -0.2304  0.5319
 3544TIP3    H134827   4.820   1.850   0.425  0.0477 -0.9011  0.9262
 3544TIP3    H234828   4.797   1.760   0.305  0.3213 -1.2668  1.1433
 3545TIP3   OH234829   4.584   5.803   0.115 -0.6873 -0.2522  0.2485
 3545TIP3    H134830   4.594   5.781   0.208  5.3572 -0.4536 -0.0945
 3545TIP3    H234831   4.615   5.893   0.108 -2.3838  0.2762 -1.5229
 3546TIP3   OH234832   0.863   0.313   7.186  0.4992 -0.1274 -0.0488
 3546TIP3    H134833   0.926   0.341   7.251  0.9974 -1.4105  0.0474
 3546TIP3    H234834   0.836   0.225   7.214  1.0226 -0.8772 -1.7657
 3547TIP3   OH234835   4.139   5.998   8.674  0.2112  0.6563  0.1170
 3547TIP3    H134836   4.129   5.903   8.661 -1.9980  0.6514  1.2939
 3547TIP3    H234837   4.195   6.007   8.751 -0.3413  0.2583  0.5746
 3548TIP3   OH234838   1.346   4.589   2.078  0.3923 -0.2686 -0.6064
 3548TIP3    H134839   1.409   4.517   2.076  0.9447 -0.0822  3.1561
 3548TIP3    H234840   1.398   4.666   2.055  0.4136 -0.6663 -1.9952
 3549TIP3   OH234841   0.138   0.439   1.210 -0.0891 -0.4034  0.0444
 3549TIP3    H134842   0.218   0.487   1.185 -0.7882  1.5858  1.3762
 3549TIP3    H234843   0.164   0.390   1.288  0.0347 -0.3950  0.0100
 3550TIP3   OH234844   2.247   0.981   6.593  0.3516 -0.3183 -0.5408
 3550TIP3    H134845   2.340   0.957   6.594  0.0598 -1.5472 -1.0935
 3550TIP3    H234846   2.244   1.068   6.632  1.5562 -0.9410  1.0443
 3551TIP3   OH234847   6.295   3.517   8.171  0.2949 -0.0287 -0.1963
 3551TIP3    H134848   6.365   3.461   8.137 -0.7398 -0.5165 -1.6524
 3551TIP3    H234849   6.295   3.593   8.113 -0.8799 -0.4157 -0.7410
 3552TIP3   OH234850   6.054   2.630   0.329 -0.3207 -0.6745 -0.5282
 3552TIP3    H134851   5.968   2.641   0.369 -0.4147 -1.5826 -0.4566
 3552TIP3    H234852   6.040   2.652   0.236 -0.7849 -1.4338 -0.6469
 3553TIP3   OH234853   4.207   1.848   0.155 -0.2765  0.0017 -0.1507
 3553TIP3    H134854   4.248   1.930   0.181 -1.0079  0.4893 -0.5048
 3553TIP3    H234855   4.170   1.813   0.236 -2.9671  1.7539 -0.5047
 3554TIP3   OH234856   4.270   5.936   2.027  0.1950 -0.5358 -0.0085
 3554TIP3    H134857   4.180   5.921   1.998 -0.5849  0.8181  1.5050
 3554TIP3    H234858   4.287   5.866   2.090  0.8189 -1.7279 -1.4466
 3555TIP3   OH234859   3.283   3.839   3.098 -0.1262 -0.2662  0.1273
 3555TIP3    H134860   3.344   3.891   3.045 -0.7534  0.8410  0.4568
 3555TIP3    H234861   3.278   3.754   3.053  2.2044 -0.6692  0.4976
 3556TIP3   OH234862   1.920   3.365   9.636 -0.0963 -0.6172  0.6577
 3556TIP3    H134863   1.939   3.458   9.640  0.4666 -0.7667  2.7279
 3556TIP3    H234864   1.896   3.349   9.545 -1.2303  1.7389  0.4582
 3557TIP3   OH234865   0.702   6.312   8.184  0.0111  0.2106  0.3564
 3557TIP3    H134866   0.688   6.387   8.127  0.4729 -0.2998 -0.4454
 3557TIP3    H234867   0.758   6.345   8.254  0.4836  0.5360 -0.1693
 3558TIP3   OH234868   1.120   1.851   1.912 -0.3786 -0.1968  0.4299
 3558TIP3    H134869   1.193   1.854   1.851  0.3282 -1.5760  1.1705
 3558TIP3    H234870   1.108   1.942   1.940 -0.7426  0.4899 -1.7338
 3559TIP3   OH234871   0.996   5.134   1.049  0.4263 -0.1663 -0.2611
 3559TIP3    H134872   0.939   5.093   0.984  1.7130  0.6433 -1.9719
 3559TIP3    H234873   1.022   5.217   1.010  0.8392  0.6004  1.5386
 3560TIP3   OH234874   0.796   4.577   1.360  0.1323  0.4299 -0.3788
 3560TIP3    H134875   0.812   4.638   1.288  1.0629  0.1846 -0.3870
 3560TIP3    H234876   0.849   4.500   1.338 -0.6589 -0.1986 -0.1334
 3561TIP3   OH234877   2.475   6.147   9.304  0.2845 -0.2186  0.2735
 3561TIP3    H134878   2.527   6.200   9.244  0.9906 -2.6138 -1.3817
 3561TIP3    H234879   2.386   6.182   9.297  0.4967  0.0354 -1.6516
 3562TIP3   OH234880   3.102   6.450   7.709  0.2571  0.1989 -0.0927
 3562TIP3    H134881   3.181   6.485   7.667 -0.1965  0.0515 -1.0870
 3562TIP3    H234882   3.097   6.496   7.793  1.3563  0.2666 -0.0493
 3563TIP3   OH234883   6.190   0.389   8.796  0.3519 -0.4998  0.1984
 3563TIP3    H134884   6.117   0.330   8.814  1.8348 -2.4063  0.2476
 3563TIP3    H234885   6.248   0.339   8.739  1.7008  0.9096  0.2752
 3564TIP3   OH234886   5.954   4.713   0.503 -0.9014 -0.0289 -0.1868
 3564TIP3    H134887   6.018   4.735   0.571 -1.0684 -2.3633  0.8165
 3564TIP3    H234888   6.001   4.727   0.421  1.0295 -1.8290  0.5262
 3565TIP3   OH234889   3.640   3.689   6.886 -0.0479 -0.2037  0.5334
 3565TIP3    H134890   3.575   3.641   6.834  0.9385 -1.2824  0.2314
 3565TIP3    H234891   3.644   3.642   6.969 -1.5280  1.4456  1.5781
 3566TIP3   OH234892   3.662   3.925   8.042  0.4161 -0.1379 -0.2944
 3566TIP3    H134893   3.749   3.953   8.070 -0.1933  0.2229  1.3281
 3566TIP3    H234894   3.672   3.832   8.022  0.9878 -0.3110  0.7478
 3567TIP3   OH234895   3.522   1.756   7.769  0.1647  0.1416  0.3471
 3567TIP3    H134896   3.476   1.840   7.778 -0.3620 -0.0821 -0.2494
 3567TIP3    H234897   3.514   1.734   7.677  0.4372 -0.4920  0.4732
 3568TIP3   OH234898   7.417   3.772   8.219 -0.3544  0.3727 -0.2130
 3568TIP3    H134899   7.458   3.857   8.236  1.2782 -0.3647 -0.2621
 3568TIP3    H234900   7.393   3.775   8.126 -2.4133  1.5973  0.3013
 3569TIP3   OH234901   6.269   7.387   0.748 -0.3275  0.2689 -0.3397
 3569TIP3    H134902   6.191   7.440   0.735 -0.0893  0.2072 -2.1923
 3569TIP3    H234903   6.264   7.319   0.681 -0.0580 -1.4336  1.2581
 3570TIP3   OH234904   3.337   4.192   7.532  0.2716  0.4320  0.2321
 3570TIP3    H134905   3.387   4.243   7.596 -1.5840 -0.0009  2.1839
 3570TIP3    H234906   3.402   4.142   7.483  1.8584  1.7193  0.9721
 3571TIP3   OH234907   5.527   0.892   0.376 -0.1226  0.1050 -0.0301
 3571TIP3    H134908   5.478   0.914   0.297  0.6734 -1.5403 -1.0483
 3571TIP3    H234909   5.566   0.974   0.404  1.3484  0.3985 -2.6209
 3572TIP3   OH234910   2.749   7.156   6.339 -0.0758 -0.2870  0.0231
 3572TIP3    H134911   2.665   7.135   6.297  0.7254 -1.1930 -1.2018
 3572TIP3    H234912   2.774   7.240   6.301 -0.6782  0.2465  0.7946
 3573TIP3   OH234913   6.958   1.583   1.956  0.0067 -0.2902  0.2728
 3573TIP3    H134914   6.900   1.605   2.029 -1.0912  0.6298 -0.8396
 3573TIP3    H234915   6.921   1.503   1.919  0.2036 -0.4094  0.3278
 3574TIP3   OH234916   3.305   3.013   9.558  0.2318 -0.0147 -0.1533
 3574TIP3    H134917   3.298   3.092   9.612  0.4689  0.6725 -1.0996
 3574TIP3    H234918   3.371   3.034   9.492  0.4921 -1.1031 -0.2610
 3575TIP3   OH234919   3.902   3.602   1.921  0.5095 -0.0432  0.5828
 3575TIP3    H134920   3.905   3.636   2.010  4.6959  0.3813  0.4741
 3575TIP3    H234921   3.993   3.584   1.899 -0.6585 -4.5281 -2.0200
 3576TIP3   OH234922   1.451   7.140   1.979 -0.3195  0.8439 -0.4633
 3576TIP3    H134923   1.455   7.167   2.070 -2.3994  0.3957 -0.1851
 3576TIP3    H234924   1.529   7.178   1.939  0.6677  1.0004  1.4901
 3577TIP3   OH234925   3.806   5.983   7.587  0.0562 -0.5591 -0.6034
 3577TIP3    H134926   3.784   5.964   7.496 -0.9187  0.9137 -0.7068
 3577TIP3    H234927   3.743   5.933   7.638  0.3952 -1.1253 -0.7228
 3578TIP3   OH234928   3.260   0.218   1.482  0.1703 -0.3882 -0.0329
 3578TIP3    H134929   3.200   0.182   1.417  0.3544  0.7883 -0.8956
 3578TIP3    H234930   3.204   0.269   1.541  0.0708 -1.0020  0.4056
 3579TIP3   OH234931   0.225   4.296   9.660 -0.1976 -0.2635 -0.0253
 3579TIP3    H134932   0.243   4.240   9.736 -0.0414 -1.0419 -0.6156
 3579TIP3    H234933   0.157   4.248   9.611  0.0912 -0.0438 -0.6505
 3580TIP3   OH234934   5.156   1.103   8.082 -0.3886  0.3118  0.1622
 3580TIP3    H134935   5.239   1.132   8.121 -0.6887  2.2827 -0.5379
 3580TIP3    H234936   5.169   1.116   7.988 -2.0862  2.4720  0.1530
 3581TIP3   OH234937   6.262   5.532   8.511 -0.2403  0.1323 -0.0804
 3581TIP3    H134938   6.167   5.531   8.523 -0.4379  1.1209 -1.3457
 3581TIP3    H234939   6.283   5.623   8.490  0.8709 -0.2324 -0.6718
 3582TIP3   OH234940   4.167   6.202   0.717  0.6673  0.2147 -0.0262
 3582TIP3    H134941   4.222   6.206   0.638  0.4257 -0.6561 -0.2534
 3582TIP3    H234942   4.203   6.270   0.774  2.1639 -0.4903 -0.0639
 3583TIP3   OH234943   3.980   5.310   1.725 -0.0188 -0.2002 -1.0648
 3583TIP3    H134944   3.911   5.293   1.790  3.2092  0.5165  2.9350
 3583TIP3    H234945   3.980   5.405   1.714  1.9367  0.1363  1.1528
 3584TIP3   OH234946   1.445   6.524   8.650 -0.6365  0.4189  0.0789
 3584TIP3    H134947   1.503   6.552   8.579 -0.6449  0.3496  0.0452
 3584TIP3    H234948   1.395   6.451   8.613  0.0253 -0.2282  0.4610
 3585TIP3   OH234949   3.234   5.247   7.840 -0.6483  0.0024 -0.4923
 3585TIP3    H134950   3.327   5.230   7.830 -0.6295  0.5464 -1.3258
 3585TIP3    H234951   3.209   5.292   7.760 -1.8024 -0.8494 -0.6309
 3586TIP3   OH234952   1.075   4.386   0.914  0.0324  0.2803 -0.2966
 3586TIP3    H134953   1.031   4.461   0.874 -0.3203 -0.3209 -1.0650
 3586TIP3    H234954   1.020   4.311   0.891  1.0913 -0.4007 -0.7167
 3587TIP3   OH234955   0.127   5.219   7.887  0.5903  0.1840  0.5959
 3587TIP3    H134956   0.205   5.222   7.831  1.2171 -1.6383  1.2936
 3587TIP3    H234957   0.108   5.311   7.907  1.7997  0.7300 -0.6104
 3588TIP3   OH234958   6.560   4.999   8.507 -0.4127 -0.6173 -0.4612
 3588TIP3    H134959   6.470   4.967   8.500  0.1023 -2.3028  0.1191
 3588TIP3    H234960   6.596   4.952   8.582  1.2738 -0.7734 -1.3282
 3589TIP3   OH234961   1.081   7.136   0.176 -0.0963  0.8231 -0.3844
 3589TIP3    H134962   1.065   7.042   0.179  1.5798  0.4637  3.6977
 3589TIP3    H234963   1.001   7.175   0.212  0.0342  0.7305  0.0191
 3590TIP3   OH234964   3.465   4.807   9.506  0.1019  0.2229  0.3712
 3590TIP3    H134965   3.451   4.739   9.571  2.3692 -2.8788 -2.0302
 3590TIP3    H234966   3.398   4.791   9.439  0.7188  0.2064 -0.2609
 3591TIP3   OH234967   3.644   1.109   0.337  0.1030 -0.2634 -0.1084
 3591TIP3    H134968   3.616   1.077   0.251 -0.2355 -0.1511 -0.0418
 3591TIP3    H234969   3.573   1.166   0.366  0.3874 -0.0024  0.0812
 3592TIP3   OH234970   7.455   6.739   2.744  0.0250  0.4900 -0.7142
 3592TIP3    H134971   7.463   6.832   2.725  0.5789  1.0908  1.9492
 3592TIP3    H234972   7.372   6.731   2.792  0.1239 -0.3352 -0.6598
 3593TIP3   OH234973   4.458   1.342   9.650  0.0674  0.3261  0.5244
 3593TIP3    H134974   4.383   1.296   9.687  0.8558 -1.7433 -0.2907
 3593TIP3    H234975   4.424   1.427   9.624 -2.1454 -0.7570 -0.3554
 3594TIP3   OH234976   1.734   6.216   1.909  0.4516 -0.2717 -0.5532
 3594TIP3    H134977   1.689   6.278   1.966 -0.3377 -1.9802  0.7851
 3594TIP3    H234978   1.707   6.241   1.820 -0.3662  0.8765 -0.0091
 3595TIP3   OH234979   1.932   3.319   0.158 -0.2723 -0.2142 -1.0004
 3595TIP3    H134980   1.988   3.267   0.216 -1.3822 -0.0948  0.2153
 3595TIP3    H234981   1.917   3.401   0.206 -2.1188 -0.5491 -0.9381
 3596TIP3   OH234982   0.326   6.198   0.225  0.0542  0.2574 -0.5019
 3596TIP3    H134983   0.300   6.119   0.272 -2.0600  0.5681 -1.0378
 3596TIP3    H234984   0.401   6.232   0.275  2.6445 -3.2854 -1.6060
 3597TIP3   OH234985   0.403   0.674   8.131 -0.4589  0.5532  0.1352
 3597TIP3    H134986   0.418   0.734   8.058 -0.7160  1.3629  0.7291
 3597TIP3    H234987   0.467   0.700   8.197  0.7098 -1.0659 -0.2987
 3598TIP3   OH234988   6.066   2.501   9.108 -0.0747 -0.0376  0.8281
 3598TIP3    H134989   5.977   2.466   9.117 -0.0971 -0.3613 -0.4386
 3598TIP3    H234990   6.119   2.450   9.170 -0.6537 -0.2705  1.1394
 3599TIP3   OH234991   1.196   5.834   2.164  0.1924  0.0945  0.6263
 3599TIP3    H134992   1.196   5.869   2.252  0.9148 -1.2503  1.1941
 3599TIP3    H234993   1.267   5.769   2.163  0.2778  0.1511 -0.9673
 3600TIP3   OH234994   3.170   4.100   0.656 -0.1509 -0.7725 -0.0577
 3600TIP3    H134995   3.214   4.057   0.729  2.2436 -1.2773 -1.6814
 3600TIP3    H234996   3.240   4.122   0.595 -1.4512  3.4468 -0.4131
 3601TIP3   OH234997   1.359   6.928   8.964  0.3973  0.1023  0.2753
 3601TIP3    H134998   1.379   7.020   8.981 -0.1643  0.1518  0.7083
 3601TIP3    H234999   1.408   6.880   9.030 -1.1026  0.2425  1.5464
 3602TIP3   OH235000   7.072   4.713   7.512 -0.1938  0.2357  0.2595
 3602TIP3    H135001   7.157   4.689   7.548 -0.2820 -0.3987  0.0456
 3602TIP3    H235002   7.024   4.631   7.506 -1.2132  0.7179  1.3756
 3603TIP3   OH235003   1.464   5.966   1.279  0.3318  0.2275 -0.6181
 3603TIP3    H135004   1.495   5.984   1.368 -0.4290  2.5534 -0.7645
 3603TIP3    H235005   1.543   5.944   1.230  1.0257  0.8486  0.1943
 3604TIP3   OH235006   1.561   7.147   8.576  0.1506 -0.1929  0.2041
 3604TIP3    H135007   1.643   7.166   8.621  1.0569 -1.6806 -0.7163
 3604TIP3    H235008   1.578   7.170   8.484 -0.0385 -1.5978 -0.2061
 3605TIP3   OH235009   1.902   2.212   1.813 -0.0894  0.0700  0.5923
 3605TIP3    H135010   1.902   2.262   1.895 -0.6212 -0.3750  0.8700
 3605TIP3    H235011   1.977   2.154   1.821  1.1371  1.4821 -0.1586
 3606TIP3   OH235012   5.806   3.446   0.750  0.2441  0.1946 -0.1241
 3606TIP3    H135013   5.877   3.502   0.721 -0.5066  0.5048 -1.4610
 3606TIP3    H235014   5.801   3.377   0.684 -1.7497  1.1105 -1.0106
 3607TIP3   OH235015   0.198   0.140   9.341 -0.3733 -0.1372 -0.1546
 3607TIP3    H135016   0.163   0.212   9.289  1.4942 -0.1645 -1.5204
 3607TIP3    H235017   0.258   0.094   9.283 -1.0567 -2.4702  0.8723
 3608TIP3   OH235018   3.439   5.509   8.847 -0.0016 -0.3786 -0.3800
 3608TIP3    H135019   3.430   5.467   8.932  0.4658 -1.1153 -0.6875
 3608TIP3    H235020   3.393   5.451   8.786 -0.5022  0.2419 -0.6129
 3609TIP3   OH235021   1.771   6.556   1.972  0.2856 -0.0999 -0.4896
 3609TIP3    H135022   1.812   6.566   1.886  0.0163  1.3352 -0.4747
 3609TIP3    H235023   1.696   6.615   1.970  0.4157  0.1424  0.8182
 3610TIP3   OH235024   0.142   5.064   8.108  0.3982  0.0761 -0.7311
 3610TIP3    H135025   0.137   5.129   8.038  0.2147  2.0605  1.0393
 3610TIP3    H235026   0.056   5.020   8.106 -0.8423  2.3082  0.2081
 3611TIP3   OH235027   4.983   0.514   9.406 -0.0152  0.4630  0.0786
 3611TIP3    H135028   4.973   0.590   9.349 -0.6413 -0.6316 -1.3218
 3611TIP3    H235029   4.897   0.503   9.445 -0.2107 -0.1163 -0.5038
 3612TIP3   OH235030   5.560   2.453   1.429  1.1783 -0.2388  0.0407
 3612TIP3    H135031   5.590   2.497   1.350 -1.1656  0.8919 -0.2992
 3612TIP3    H235032   5.584   2.513   1.500 -0.9579  1.1654 -0.3175
 3613TIP3   OH235033   3.261   1.572   0.759  0.5173  0.2056 -0.1451
 3613TIP3    H135034   3.205   1.529   0.823  0.1550 -1.1771 -1.3318
 3613TIP3    H235035   3.345   1.581   0.803  0.9269 -2.6899 -0.1055
 3614TIP3   OH235036   7.284   2.100   9.883 -0.9568  0.0096  0.5096
 3614TIP3    H135037   7.346   2.090   9.954  1.3173  2.7047 -0.9035
 3614TIP3    H235038   7.237   2.181   9.903 -0.0905  0.9637 -1.0787
 3615TIP3   OH235039   6.992   1.350   9.407  0.3767  0.3207  0.0888
 3615TIP3    H135040   6.984   1.365   9.312 -1.9614  1.0599  0.3494
 3615TIP3    H235041   6.983   1.438   9.445  0.4422 -0.0827  1.0352
 3616TIP3   OH235042   7.304   4.169   1.189  0.4263 -0.1343  0.0561
 3616TIP3    H135043   7.225   4.178   1.243  1.1901 -1.9969  1.6226
 3616TIP3    H235044   7.282   4.102   1.125  0.6275 -0.4490  0.3120
 3617TIP3   OH235045   5.303   7.311   1.807 -0.0961 -0.0245  0.1630
 3617TIP3    H135046   5.240   7.242   1.788 -1.7735  1.2713  0.7178
 3617TIP3    H235047   5.259   7.366   1.873  1.7417  0.7774  0.7780
 3618TIP3   OH235048   6.264   3.784   0.737 -0.0093  0.1875 -0.6143
 3618TIP3    H135049   6.292   3.856   0.680 -1.4493  0.6265 -0.8100
 3618TIP3    H235050   6.337   3.722   0.735  0.6046  0.9083 -1.7115
 3619TIP3   OH235051   6.710   3.310   0.838  0.3528  0.2830  0.0141
 3619TIP3    H135052   6.681   3.305   0.929 -0.2128  0.8832 -0.1297
 3619TIP3    H235053   6.631   3.301   0.786  0.2504  2.6983 -0.3661
 3620TIP3   OH235054   2.328   6.812   9.590 -0.2307  0.4084  0.5606
 3620TIP3    H135055   2.368   6.897   9.571  1.6591 -0.0392  2.2091
 3620TIP3    H235056   2.371   6.783   9.670 -0.5935 -2.2681 -0.1314
 3621TIP3   OH235057   4.845   6.309   8.634 -0.1378  0.0534  0.1657
 3621TIP3    H135058   4.831   6.229   8.584 -0.8401  2.0645 -3.1665
 3621TIP3    H235059   4.940   6.314   8.645  0.0762 -0.2818 -1.3603
 3622TIP3   OH235060   2.093   2.129   0.701  0.2855  0.5322 -0.4123
 3622TIP3    H135061   2.125   2.181   0.775 -2.2353 -0.8593  1.8203
 3622TIP3    H235062   2.026   2.072   0.738 -0.4741 -0.9319 -3.6420
 3623TIP3   OH235063   2.334   6.629   8.661 -0.1287 -0.4329  0.1937
 3623TIP3    H135064   2.325   6.702   8.599 -1.1450 -0.9710 -0.3214
 3623TIP3    H235065   2.244   6.604   8.681  0.1656 -0.2904  1.8912
 3624TIP3   OH235066   1.769   3.038   9.311  0.0230  0.5288 -0.6031
 3624TIP3    H135067   1.733   3.013   9.396 -0.5381  0.4847 -0.8456
 3624TIP3    H235068   1.858   3.003   9.311 -0.2204 -0.0978 -0.3182
 3625TIP3   OH235069   1.870   4.376   2.460 -0.6992  0.0550  0.3445
 3625TIP3    H135070   1.908   4.455   2.499 -1.6362  0.0535  1.3049
 3625TIP3    H235071   1.815   4.340   2.529 -2.0742 -0.2132 -0.8458
 3626TIP3   OH235072   1.922   3.900   2.302 -0.0800  0.0128  0.2300
 3626TIP3    H135073   1.991   3.834   2.305 -1.0329 -1.0687 -0.6057
 3626TIP3    H235074   1.896   3.904   2.210 -0.0129  1.6190  0.2503
 3627TIP3   OH235075   5.641   1.211   9.452  0.2567 -0.0704  0.5744
 3627TIP3    H135076   5.660   1.122   9.481  0.3424  0.2081  1.3916
 3627TIP3    H235077   5.722   1.240   9.410  0.6652  0.0758  1.4522
 3628TIP3   OH235078   4.724   7.403   8.087 -0.5013 -0.1394  1.2955
 3628TIP3    H135079   4.819   7.399   8.080 -0.4921 -0.1825  1.4379
 3628TIP3    H235080   4.707   7.468   8.155 -0.6227  1.2008  0.0294
 3629TIP3   OH235081   5.199   0.469   9.100 -0.2125 -0.3771 -0.0499
 3629TIP3    H135082   5.280   0.426   9.072  0.0744  0.7248 -0.9817
 3629TIP3    H235083   5.221   0.508   9.185 -0.0501 -0.8433  0.1277
 3630TIP3   OH235084   6.473   4.040   9.327  0.3832  0.0513  0.3492
 3630TIP3    H135085   6.420   4.027   9.405  0.9170 -0.0085  0.7067
 3630TIP3    H235086   6.545   4.096   9.356 -0.4150  1.6198 -0.5377
 3631TIP3   OH235087   1.414   5.042   9.238 -0.3291  0.2272  0.1975
 3631TIP3    H135088   1.330   5.057   9.281 -0.9819 -0.6767 -0.7048
 3631TIP3    H235089   1.480   5.059   9.305 -1.2351  0.9134  0.9215
 3632TIP3   OH235090   7.071   6.312   0.650  0.4808  0.1202 -0.0774
 3632TIP3    H135091   7.075   6.292   0.743 -0.2275 -1.7845 -0.4105
 3632TIP3    H235092   6.980   6.296   0.626  0.8121 -0.1118 -1.2320
 3633TIP3   OH235093   5.410   4.125   9.545 -0.1828 -0.1309  0.5800
 3633TIP3    H135094   5.344   4.192   9.528 -1.5955 -1.2574  1.4558
 3633TIP3    H235095   5.455   4.155   9.624 -0.1981  0.2266  0.4564
 3634TIP3   OH235096   1.448   0.770   8.427 -0.1867 -0.1557  0.2126
 3634TIP3    H135097   1.458   0.693   8.371 -3.4132  0.4846 -1.5150
 3634TIP3    H235098   1.356   0.768   8.454  0.2183  1.8729  2.0357
 3635TIP3   OH235099   2.581   6.787   0.456  0.1470  0.3010  0.5650
 3635TIP3    H135100   2.588   6.803   0.362 -1.8482 -1.1562  0.0961
 3635TIP3    H235101   2.532   6.863   0.490  0.5640  0.6545  0.3813
 3636TIP3   OH235102   1.347   4.286   9.310 -0.2595 -0.2082 -0.9918
 3636TIP3    H135103   1.369   4.346   9.381  1.6042  0.1548 -1.8127
 3636TIP3    H235104   1.405   4.211   9.323 -1.8468 -1.4305 -0.5664
 3637TIP3   OH235105   0.200   7.177   0.123  0.6739  0.1435 -0.1689
 3637TIP3    H135106   0.143   7.100   0.130  2.0297 -0.8308  0.4814
 3637TIP3    H235107   0.236   7.172   0.035  1.8433 -0.7774  0.3400
 3638TIP3   OH235108   0.022   4.161   2.065 -0.4356  0.2359 -0.0550
 3638TIP3    H135109  -0.028   4.147   2.145 -0.7163 -0.2521 -0.3143
 3638TIP3    H235110   0.022   4.076   2.021 -0.3312  0.5148 -0.6029
 3639TIP3   OH235111   0.127   4.023   8.270 -0.0315  0.2039  0.5151
 3639TIP3    H135112   0.208   4.042   8.224 -0.3156  1.8049  0.6399
 3639TIP3    H235113   0.061   4.078   8.228 -1.1350 -1.2259  0.2531
 3640TIP3   OH235114   6.302   3.141   8.579  0.2937  0.5673  0.2559
 3640TIP3    H135115   6.372   3.184   8.531 -1.3489  1.8774 -1.0975
 3640TIP3    H235116   6.276   3.067   8.524 -1.8748  2.3158 -1.2590
 3641TIP3   OH235117   2.854   3.307   7.737  0.1368  0.4038  0.4388
 3641TIP3    H135118   2.774   3.327   7.786 -0.8325  1.5210 -1.4726
 3641TIP3    H235119   2.847   3.213   7.716 -0.0373  0.2092  1.3453
 3642TIP3   OH235120   5.839   4.539   8.444 -0.1129 -0.1845 -0.0160
 3642TIP3    H135121   5.889   4.617   8.421 -1.7759  0.9704  0.1905
 3642TIP3    H235122   5.791   4.516   8.365  0.3141 -0.9855 -0.0594
 3643TIP3   OH235123   0.381   6.212   7.323  0.2929  0.4909 -0.3258
 3643TIP3    H135124   0.415   6.130   7.285 -0.7283 -0.2740  0.3538
 3643TIP3    H235125   0.390   6.276   7.252  0.6061 -0.3400 -1.0670
 3644TIP3   OH235126   3.382   0.081   9.262 -0.2225 -0.3008 -0.8284
 3644TIP3    H135127   3.332   0.097   9.341 -0.3645 -0.7238 -0.8312
 3644TIP3    H235128   3.371  -0.012   9.244 -0.2466 -0.1965 -1.3830
 3645TIP3   OH235129   7.199   5.076   8.496 -0.1087  0.1175 -0.5822
 3645TIP3    H135130   7.187   5.097   8.588 -1.4805 -0.7688 -0.5356
 3645TIP3    H235131   7.281   5.119   8.472  0.3152  0.2814  1.0674
 3646TIP3   OH235132   6.109   5.238   0.075  0.1575  0.3710  0.5399
 3646TIP3    H135133   6.065   5.233  -0.009  0.5172 -1.0429  0.4057
 3646TIP3    H235134   6.169   5.163   0.075 -1.0572 -0.6890  2.7292
 3647TIP3   OH235135   1.847   2.555   9.959 -0.4012 -0.1309  0.7993
 3647TIP3    H135136   1.791   2.632   9.967  0.0471  0.1172  1.6008
 3647TIP3    H235137   1.806   2.503   9.889  0.8236  2.1257 -1.7842
 3648TIP3   OH235138   5.251   2.541   8.422 -0.0116 -0.1355  0.6602
 3648TIP3    H135139   5.308   2.547   8.499 -0.0119  0.4095  0.6232
 3648TIP3    H235140   5.278   2.459   8.379 -0.1390 -0.5381  1.3327
 3649TIP3   OH235141   3.960   6.280   2.528 -0.0860 -0.2751 -0.1960
 3649TIP3    H135142   3.939   6.197   2.570  0.3884  0.1085  0.8137
 3649TIP3    H235143   3.962   6.343   2.599  0.7531  0.3883 -0.7928
 3650TIP3   OH235144   2.281   1.004   7.419  0.3774  0.3386 -0.0417
 3650TIP3    H135145   2.225   0.948   7.365  0.3296  1.1722 -0.8915
 3650TIP3    H235146   2.369   0.967   7.408  0.6342  1.3712 -1.9620
 3651TIP3   OH235147   0.999   1.906   7.675 -0.0088 -0.5855  0.1606
 3651TIP3    H135148   1.044   1.898   7.591  0.0366 -1.4164  0.2588
 3651TIP3    H235149   1.037   1.984   7.715 -0.9201  0.5565 -1.1155
 3652TIP3   OH235150   5.179   1.055   8.919  0.0272  0.0798  0.2817
 3652TIP3    H135151   5.228   1.014   8.991  0.5713 -0.8499 -0.5949
 3652TIP3    H235152   5.199   1.001   8.843  1.3316  2.3632 -1.1082
 3653TIP3   OH235153   5.677   3.889   1.108 -0.0913  0.4997 -0.2237
 3653TIP3    H135154   5.691   3.984   1.117  0.1641  0.2908  2.3367
 3653TIP3    H235155   5.764   3.853   1.097  0.1963  0.3697  1.9422
 3654TIP3   OH235156   3.347   2.722   0.197 -0.2361  0.7047 -0.7327
 3654TIP3    H135157   3.429   2.680   0.224  0.3907  2.1744 -0.2344
 3654TIP3    H235158   3.367   2.816   0.199 -0.8831  1.0532 -3.9358
 3655TIP3   OH235159   1.797   4.521   0.580 -0.7575 -0.7427 -0.0644
 3655TIP3    H135160   1.867   4.584   0.564 -1.0200 -0.8768 -2.0857
 3655TIP3    H235161   1.819   4.481   0.664  0.6619  0.3919  0.1494
 3656TIP3   OH235162   5.617   0.662   7.114  0.1975  0.2370 -0.2051
 3656TIP3    H135163   5.687   0.645   7.051 -0.4385 -1.0319 -0.5934
 3656TIP3    H235164   5.587   0.575   7.141 -0.3402  0.7618  0.9590
 3657TIP3   OH235165   3.196   2.573   8.935  0.4738 -0.1720 -0.6082
 3657TIP3    H135166   3.181   2.544   8.845 -1.3721  1.9897 -1.0984
 3657TIP3    H235167   3.110   2.600   8.966  1.4603  1.3891  0.9594
 3658TIP3   OH235168   4.021   4.251   0.896 -0.0721  0.3086  0.2319
 3658TIP3    H135169   4.033   4.256   0.991 -0.2444  0.5403  0.2402
 3658TIP3    H235170   4.025   4.157   0.877  1.3483  0.3320  0.2854
 3659TIP3   OH235171   1.587   5.061   9.466  0.1190  0.0161 -0.0971
 3659TIP3    H135172   1.630   5.004   9.530  0.6637  1.0456  0.4990
 3659TIP3    H235173   1.549   5.131   9.520  0.2638  0.6992 -0.8683
 3660TIP3   OH235174   6.275   1.530   9.797  0.3754 -0.2181  0.3893
 3660TIP3    H135175   6.208   1.489   9.851 -0.3517 -1.2271 -1.2449
 3660TIP3    H235176   6.308   1.602   9.852 -1.4052 -0.2362  1.5665
 3661TIP3   OH235177   0.697   7.249   8.771 -0.0672  0.0639  0.1795
 3661TIP3    H135178   0.779   7.251   8.721 -0.7761  1.2405 -1.0021
 3661TIP3    H235179   0.723   7.218   8.858  1.5462 -0.0277 -0.2921
 3662TIP3   OH235180   1.987   1.667   1.903  0.5116 -0.1156  0.2430
 3662TIP3    H135181   1.949   1.712   1.827  2.2443  1.5658  0.2913
 3662TIP3    H235182   1.973   1.728   1.975  1.3920 -0.4150  0.6728
 3663TIP3   OH235183   2.118   7.173   0.038 -0.2220 -0.2102 -0.2737
 3663TIP3    H135184   2.092   7.166  -0.054  1.6268 -0.9736 -0.7885
 3663TIP3    H235185   2.204   7.217   0.035  1.2687 -2.8284  0.7821
 3664TIP3   OH235186   5.492   7.261   9.929  0.2496  0.5832  0.1096
 3664TIP3    H135187   5.473   7.270  10.022 -0.8646 -1.6822  0.1744
 3664TIP3    H235188   5.410   7.285   9.885 -0.1323 -0.9446 -0.0879
 3665TIP3   OH235189   6.889   1.813   8.239 -0.6803  0.3685 -0.3088
 3665TIP3    H135190   6.894   1.908   8.255  1.6685 -0.0873  2.2550
 3665TIP3    H235191   6.898   1.773   8.325 -1.8626 -2.2482 -1.2918
 3666TIP3   OH235192   7.117   4.039   2.007  0.6092 -0.0929 -0.0219
 3666TIP3    H135193   7.117   3.977   2.080  2.3673 -0.1065  0.0087
 3666TIP3    H235194   7.164   3.995   1.937 -1.2258 -0.1634 -1.3034
 3667TIP3   OH235195   4.487   0.100   8.239  0.5074  0.4000 -0.0728
 3667TIP3    H135196   4.527   0.055   8.313 -0.1897  0.3610  0.2897
 3667TIP3    H235197   4.487   0.034   8.169  0.7925  0.3050  0.0133
 3668TIP3   OH235198   1.127   0.944   8.861 -0.1867  0.2395  0.7771
 3668TIP3    H135199   1.123   0.902   8.775  0.4491  0.8590  0.4359
 3668TIP3    H235200   1.149   1.035   8.842 -1.6431  0.7743  1.4887
 3669TIP3   OH235201   2.511   5.456   9.829 -0.4924 -0.4784 -0.0845
 3669TIP3    H135202   2.564   5.389   9.785 -1.3517 -2.2838  1.4948
 3669TIP3    H235203   2.449   5.485   9.762 -1.3421 -2.6773 -0.3514
 3670TIP3   OH235204   3.412   5.735   2.276  0.8804 -0.1885 -0.3280
 3670TIP3    H135205   3.418   5.746   2.371  1.6815 -3.3351  0.1016
 3670TIP3    H235206   3.319   5.736   2.257  0.7344  1.0149  0.3835
 3671TIP3   OH235207   2.184   2.714   8.364  0.3077  0.5891  0.2508
 3671TIP3    H135208   2.196   2.804   8.392 -2.7091  1.2800 -0.3655
 3671TIP3    H235209   2.143   2.671   8.439 -0.9888  0.5178 -0.4823
 3672TIP3   OH235210   3.734   6.105   1.799 -0.0985 -0.2427  0.4177
 3672TIP3    H135211   3.761   6.190   1.835  0.3222  0.4019 -1.3046
 3672TIP3    H235212   3.639   6.113   1.788  0.0058  0.2393 -0.2401
 3673TIP3   OH235213   3.211   0.929   0.413  0.1416  0.5563 -0.6661
 3673TIP3    H135214   3.241   0.839   0.409 -1.2396  0.0489 -0.0904
 3673TIP3    H235215   3.214   0.959   0.322 -0.3073 -0.3923 -1.0042
 3674TIP3   OH235216   1.527   7.202   1.685 -0.1191 -0.3586 -0.2203
 3674TIP3    H135217   1.518   7.290   1.649  0.5925  0.4234  1.4153
 3674TIP3    H235218   1.595   7.161   1.631  2.5244  1.5311  1.4494
 3675TIP3   OH235219   4.271   6.275   8.200  0.6186  0.3534 -0.0434
 3675TIP3    H135220   4.255   6.365   8.230 -1.4957  0.3636 -1.0223
 3675TIP3    H235221   4.239   6.220   8.271 -0.4063  0.4007 -0.4433
 3676TIP3   OH235222   2.803   0.144   0.954  0.3685 -0.4382 -0.5353
 3676TIP3    H135223   2.774   0.068   0.904  3.9967 -1.0739 -1.9533
 3676TIP3    H235224   2.851   0.107   1.029 -0.2381  0.4977  0.3459
 3677TIP3   OH235225   1.277   0.079   8.138  0.0904  0.2898  0.1397
 3677TIP3    H135226   1.283   0.074   8.233  0.9894 -1.1488  0.0250
 3677TIP3    H235227   1.197   0.130   8.122 -0.8079 -0.5881  1.6558
 3678TIP3   OH235228   6.583   2.538   1.998 -0.7822  0.0359  0.2381
 3678TIP3    H135229   6.523   2.477   2.040  1.1161 -2.2545 -0.1772
 3678TIP3    H235230   6.666   2.525   2.042 -0.0655  1.6688 -0.5356
 3679TIP3   OH235231   5.261   6.217   9.295 -0.1593 -0.1056 -0.1242
 3679TIP3    H135232   5.247   6.306   9.328  0.8624  0.2548 -0.6125
 3679TIP3    H235233   5.269   6.163   9.373 -0.0606  0.3496  0.1823
 3680TIP3   OH235234   4.327   4.841   2.592 -0.1008 -0.5093  0.3813
 3680TIP3    H135235   4.415   4.846   2.556 -0.3234  0.4879 -0.0545
 3680TIP3    H235236   4.338   4.801   2.678  0.6143 -1.5426 -0.1724
 3681TIP3   OH235237   0.117   2.774   8.187 -0.3380 -0.2723  0.2865
 3681TIP3    H135238   0.168   2.692   8.187  0.7038  0.3472 -0.5758
 3681TIP3    H235239   0.092   2.786   8.096 -0.5103  0.3505  0.4161
 3682TIP3   OH235240   2.365   6.200   8.249  0.2867 -0.1003  0.1795
 3682TIP3    H135241   2.305   6.213   8.323 -0.2676 -0.2398 -0.2382
 3682TIP3    H235242   2.358   6.281   8.198  0.2699 -0.2162 -0.0029
 3683TIP3   OH235243   1.686   1.669   0.404 -1.0374  0.0314 -0.0906
 3683TIP3    H135244   1.715   1.709   0.322 -0.3200 -1.8253 -0.7689
 3683TIP3    H235245   1.721   1.727   0.472 -1.7376  1.6610 -1.0525
 3684TIP3   OH235246   3.532   3.505   8.682 -0.2686 -0.2071  0.0654
 3684TIP3    H135247   3.610   3.507   8.739  1.3458 -1.9957 -1.9155
 3684TIP3    H235248   3.516   3.597   8.661  1.4830  0.2147  0.3585
 3685TIP3   OH235249   4.599   0.102   0.464 -0.1316  0.4734  0.1321
 3685TIP3    H135250   4.684   0.080   0.426  0.3997  2.0731  0.3232
 3685TIP3    H235251   4.605   0.077   0.555 -0.7663 -1.6872 -0.3689
 3686TIP3   OH235252   1.070   3.696   1.585 -0.4773  0.5586  0.1948
 3686TIP3    H135253   1.088   3.775   1.533  0.1761  0.1622 -0.1864
 3686TIP3    H235254   1.072   3.625   1.522 -1.3811  0.2620  0.4879
 3687TIP3   OH235255   3.076   2.702   9.334 -0.2908 -0.2343 -0.1076
 3687TIP3    H135256   3.139   2.664   9.273 -0.3073 -1.8010  0.7847
 3687TIP3    H235257   3.109   2.790   9.351  0.2831 -0.1424 -1.5438
 3688TIP3   OH235258   0.695   7.136   8.142 -0.1350 -0.1984  0.1847
 3688TIP3    H135259   0.672   7.139   8.235 -0.3216  1.6435  0.1020
 3688TIP3    H235260   0.666   7.049   8.114 -0.2182 -0.7298  1.8034
 3689TIP3   OH235261   1.452   2.887   1.383 -0.1266 -0.4542  0.6504
 3689TIP3    H135262   1.523   2.929   1.431  0.4968 -0.0410 -0.5866
 3689TIP3    H235263   1.436   2.945   1.308  0.3950 -2.1127 -0.8199
 3690TIP3   OH235264   3.976   0.058   0.974 -0.3096  0.0048  0.0426
 3690TIP3    H135265   4.003  -0.031   0.952 -1.7204 -0.1861 -0.9977
 3690TIP3    H235266   4.012   0.072   1.062 -0.8594 -1.9324  0.6217
 3691TIP3   OH235267   0.043   3.953   0.207 -0.6074 -0.0117 -0.4350
 3691TIP3    H135268   0.023   3.884   0.271  0.5581  1.2848  1.4529
 3691TIP3    H235269   0.081   3.907   0.133  0.5681 -1.4020  0.9584
 3692TIP3   OH235270   6.422   5.217   9.968  0.2801  0.9402 -0.1794
 3692TIP3    H135271   6.474   5.287  10.008  1.5681  0.1275 -0.3531
 3692TIP3    H235272   6.451   5.215   9.877 -0.8720  1.1838 -0.5561
 3693TIP3   OH235273   7.119   6.571   9.616  0.5106  0.0806 -0.4337
 3693TIP3    H135274   7.175   6.530   9.682  0.5337 -1.9057 -1.6257
 3693TIP3    H235275   7.112   6.662   9.644  0.6464 -0.6453  2.2138
 3694TIP3   OH235276   4.994   2.889   8.145 -0.2887  0.1315  0.3968
 3694TIP3    H135277   5.014   2.926   8.059  0.3015  0.1119  0.5245
 3694TIP3    H235278   4.916   2.937   8.173 -0.5040  0.1210 -0.1570
 3695TIP3   OH235279   2.527   5.006   0.473  0.1675 -0.3909 -0.2852
 3695TIP3    H135280   2.458   4.942   0.487 -0.5298  0.4167  0.0183
 3695TIP3    H235281   2.563   5.024   0.560 -1.0389  1.1500 -0.0572
 3696TIP3   OH235282   0.075   5.777   9.799 -0.2480  0.5325 -0.1331
 3696TIP3    H135283   0.135   5.718   9.755 -0.9736 -1.0257  0.8891
 3696TIP3    H235284   0.127   5.855   9.818  1.2206 -0.4427 -0.0150
 3697TIP3   OH235285   6.770   6.687   9.917 -0.5326  0.7184 -0.4956
 3697TIP3    H135286   6.741   6.625   9.850 -0.6005 -0.6152  0.7148
 3697TIP3    H235287   6.861   6.664   9.933  0.0592  2.2670 -1.4246
 3698TIP3   OH235288   0.349   6.178   1.963 -0.5126  0.0097 -0.4614
 3698TIP3    H135289   0.276   6.167   2.023  0.0572 -0.4032  0.1678
 3698TIP3    H235290   0.425   6.193   2.019 -0.0146 -0.1194 -1.0854
 3699TIP3   OH235291   3.325   6.969   2.320 -0.1125 -0.0653 -0.0518
 3699TIP3    H135292   3.342   6.946   2.228  1.7598  0.4421  0.1100
 3699TIP3    H235293   3.250   6.916   2.345  1.0650 -2.3468 -1.0785
 3700TIP3   OH235294   1.947   3.747   9.124  0.2653  0.1316  0.1470
 3700TIP3    H135295   2.008   3.807   9.081  1.1429 -0.5994  0.3275
 3700TIP3    H235296   1.861   3.777   9.098  0.7238  0.8763 -0.5532
 3701TIP3   OH235297   1.561   7.388   0.865 -0.2760 -0.2121  0.1003
 3701TIP3    H135298   1.587   7.346   0.947  0.8668 -1.1112 -0.6843
 3701TIP3    H235299   1.641   7.432   0.836 -0.7224  0.2397 -0.4468
 3702TIP3   OH235300   1.360   4.838   7.741  0.3095 -0.5953 -0.6860
 3702TIP3    H135301   1.275   4.808   7.773  0.4412  0.2081  0.4830
 3702TIP3    H235302   1.360   4.815   7.648 -0.2754 -2.6077 -0.2253
 3703TIP3   OH235303   2.995   3.132   6.182  0.1567 -0.1323 -0.0226
 3703TIP3    H135304   3.063   3.197   6.167 -1.8658  1.8724 -1.0598
 3703TIP3    H235305   2.973   3.142   6.275  0.3553  0.1092 -0.0004
 3704TIP3   OH235306   7.123   3.545   1.683  0.1925 -0.3170  0.6386
 3704TIP3    H135307   7.046   3.489   1.683  0.7219 -1.1456 -1.2509
 3704TIP3    H235308   7.194   3.489   1.714  0.3367 -0.0726  0.7495
 3705TIP3   OH235309   0.002   0.169   9.631 -0.2887  0.2387 -0.3741
 3705TIP3    H135310  -0.079   0.180   9.581 -0.4431  0.7759 -0.0142
 3705TIP3    H235311   0.032   0.259   9.648 -1.0614  0.1337  1.8187
 3706TIP3   OH235312   4.210   4.213   7.857 -0.4362 -0.1263 -0.1471
 3706TIP3    H135313   4.281   4.205   7.921 -1.5243 -3.2090  0.8416
 3706TIP3    H235314   4.246   4.269   7.788  1.7689  1.0595  1.8089
 3707TIP3   OH235315   3.596   0.638   0.048  0.2356 -0.0058  0.0990
 3707TIP3    H135316   3.605   0.711   0.109  0.8351 -1.7924  2.2979
 3707TIP3    H235317   3.502   0.620   0.048  0.2155  0.0718  0.4497
 3708TIP3   OH235318   5.252   0.272   6.710 -0.1817 -0.5029 -0.1366
 3708TIP3    H135319   5.294   0.351   6.677 -0.9614 -0.8309 -2.0622
 3708TIP3    H235320   5.159   0.292   6.709 -0.4564 -1.6779 -1.4546
 3709TIP3   OH235321   7.387   3.378   0.529 -1.2036  0.4802 -0.0705
 3709TIP3    H135322   7.410   3.393   0.621 -1.2060 -0.6890  0.1286
 3709TIP3    H235323   7.421   3.291   0.510 -1.3496  0.6503 -1.1422
 3710TIP3   OH235324   0.049   6.989   1.217  0.1594  0.7148  0.6799
 3710TIP3    H135325   0.139   6.961   1.200 -0.0364  0.6666 -0.3011
 3710TIP3    H235326   0.042   6.987   1.313  1.1676  0.6258  0.7671
 3711TIP3   OH235327   4.772   6.655   0.477  0.2335 -0.2023 -0.7838
 3711TIP3    H135328   4.769   6.659   0.381  1.0014 -0.6610 -0.8380
 3711TIP3    H235329   4.843   6.593   0.496 -0.8631 -1.2385  0.0639
 3712TIP3   OH235330   1.207   3.377   8.540 -0.2266  0.4035  0.0472
 3712TIP3    H135331   1.187   3.464   8.505  1.1573  1.4370  1.6669
 3712TIP3    H235332   1.281   3.391   8.599 -1.3861 -1.4691  2.1088
 3713TIP3   OH235333   1.088   4.188   1.339 -0.6224 -0.4939  0.5155
 3713TIP3    H135334   1.025   4.157   1.403  0.6795 -2.5751  0.8815
 3713TIP3    H235335   1.166   4.210   1.389 -0.1745 -0.4557 -0.1731
 3714TIP3   OH235336   6.877   1.533   0.727  0.1587 -0.0172 -0.1967
 3714TIP3    H135337   6.854   1.473   0.656 -0.8365 -0.2365  0.2890
 3714TIP3    H235338   6.954   1.579   0.696 -1.4045  1.3692 -2.2940
 3715TIP3   OH235339   2.512   6.829   7.766 -0.6991 -0.0547 -0.2302
 3715TIP3    H135340   2.508   6.849   7.859 -1.4588 -2.3544  0.2882
 3715TIP3    H235341   2.423   6.841   7.734 -0.1284  2.3948 -1.1107
 3716TIP3   OH235342   7.332   7.268   0.367 -0.3662  0.0084 -0.2287
 3716TIP3    H135343   7.263   7.256   0.301 -0.9185 -1.2723  0.5497
 3716TIP3    H235344   7.290   7.321   0.435 -0.0216  0.7023 -0.5412
 3717TIP3   OH235345   4.298   1.765   2.144  0.4601  0.2433  0.1005
 3717TIP3    H135346   4.258   1.795   2.226  0.0651  1.5928 -0.5588
 3717TIP3    H235347   4.301   1.670   2.152  0.6888  0.3557  1.8023
 3718TIP3   OH235348   5.490   7.251   1.616  0.3778 -0.0070 -0.1267
 3718TIP3    H135349   5.425   7.284   1.678 -1.2862 -0.0302 -1.7695
 3718TIP3    H235350   5.455   7.166   1.588  0.7574  0.2815 -1.5456
 3719TIP3   OH235351   5.333   2.606   9.712  0.3256  0.1331  0.3382
 3719TIP3    H135352   5.332   2.528   9.657 -0.0273  1.0029 -0.9552
 3719TIP3    H235353   5.403   2.660   9.676 -0.6356  1.1997  0.0045
 3720TIP3   OH235354   1.782   4.943   2.466  0.0553 -0.0305 -0.0169
 3720TIP3    H135355   1.774   4.906   2.378  0.4961 -1.0327  0.3483
 3720TIP3    H235356   1.780   4.867   2.524  0.1060  0.5967  0.8247
 3721TIP3   OH235357   1.699   3.763   0.595 -0.1005  0.1018 -0.6264
 3721TIP3    H135358   1.723   3.694   0.656 -1.2265  0.0385 -0.2269
 3721TIP3    H235359   1.742   3.740   0.513  3.0410  1.2104  0.5788
 3722TIP3   OH235360   4.912   3.825   1.316  0.3854  0.1794  0.5032
 3722TIP3    H135361   4.890   3.917   1.331  1.8072  0.6460 -0.0739
 3722TIP3    H235362   5.001   3.827   1.279  0.8820 -1.4862  1.4664
 3723TIP3   OH235363   1.158   7.310   9.988 -0.1766  0.1827  0.3265
 3723TIP3    H135364   1.113   7.302   9.904 -0.2702  1.7635  0.1908
 3723TIP3    H235365   1.120   7.241  10.042 -1.2307  0.1260 -0.4428
 3724TIP3   OH235366   2.727   1.763   9.309  0.0285  0.5618 -0.3919
 3724TIP3    H135367   2.766   1.835   9.260  0.2970  1.2951  0.8688
 3724TIP3    H235368   2.660   1.804   9.363 -0.4164 -0.2641 -0.3047
 3725TIP3   OH235369   6.909   3.477   9.474  0.1935 -0.1286  0.1387
 3725TIP3    H135370   6.910   3.496   9.381 -0.4342  0.0583  0.1679
 3725TIP3    H235371   6.842   3.535   9.510 -0.2246 -0.8489  0.5602
 3726TIP3   OH235372   5.507   5.278   1.780  0.0168  0.1404 -0.5327
 3726TIP3    H135373   5.490   5.190   1.815  2.8162 -0.3716 -0.2523
 3726TIP3    H235374   5.499   5.268   1.686  1.1216 -0.6300 -0.5526
 3727TIP3   OH235375   1.702   7.310   9.301 -0.2480  0.1597  0.0018
 3727TIP3    H135376   1.607   7.299   9.307 -0.2793  0.6043  0.3966
 3727TIP3    H235377   1.721   7.302   9.208 -0.7738  0.8134 -0.1746
 3728TIP3   OH235378   2.347   4.930   7.965  0.2314  0.7209  0.6965
 3728TIP3    H135379   2.332   4.991   7.893 -0.3865  1.6775  1.6182
 3728TIP3    H235380   2.265   4.927   8.013  0.1561 -1.0612  0.5374
 3729TIP3   OH235381   2.804   3.453   7.505 -0.0488 -0.4603  0.9625
 3729TIP3    H135382   2.853   3.394   7.562  4.3997  2.7450  0.9250
 3729TIP3    H235383   2.809   3.538   7.547 -2.6206  0.8071 -0.9825
 3730TIP3   OH235384   5.985   2.785   0.101 -0.2496 -0.0600  0.4572
 3730TIP3    H135385   5.923   2.813   0.169  0.8761 -0.6496  1.7817
 3730TIP3    H235386   5.994   2.862   0.044 -0.9711  0.5731  1.1615
 3731TIP3   OH235387   0.625   2.380   8.478  0.1355 -0.3899 -0.1344
 3731TIP3    H135388   0.648   2.428   8.557 -1.2495 -1.0600  0.7189
 3731TIP3    H235389   0.575   2.442   8.426  2.6897  0.6965 -1.4652
 3732TIP3   OH235390   6.916   0.620   2.046 -0.4822 -0.1611  0.1472
 3732TIP3    H135391   7.005   0.625   2.081  0.2169 -0.0207 -1.5324
 3732TIP3    H235392   6.861   0.596   2.121  1.0594 -0.9035  1.0878
 3733TIP3   OH235393   6.239   1.761   1.176  0.6511  0.3672  0.4910
 3733TIP3    H135394   6.301   1.822   1.135 -0.5294  1.2754 -0.0145
 3733TIP3    H235395   6.293   1.708   1.235  2.0463  0.5059 -0.5971
 3734TIP3   OH235396   0.153   6.862   9.200  0.1650  0.1449 -0.0299
 3734TIP3    H135397   0.105   6.784   9.175 -0.2337  0.4676 -0.2964
 3734TIP3    H235398   0.245   6.839   9.188  0.1161 -0.6313  0.9246
 3735TIP3   OH235399   7.002   6.649   1.596  0.7258  0.0934  0.7177
 3735TIP3    H135400   7.064   6.673   1.527 -1.0453  0.2585 -0.9181
 3735TIP3    H235401   7.042   6.679   1.677  2.3730  0.9440 -0.3650
 3736TIP3   OH235402   0.584   2.842   1.273  0.0944 -0.5491 -0.6027
 3736TIP3    H135403   0.677   2.824   1.287  0.4802  1.9763  0.6168
 3736TIP3    H235404   0.558   2.896   1.348 -1.7247  0.7682 -2.0755
 3737TIP3   OH235405   2.486   5.424   1.194  0.2963  0.5574  0.3463
 3737TIP3    H135406   2.513   5.440   1.104  0.0206  0.0687  0.1751
 3737TIP3    H235407   2.562   5.384   1.235  0.4322  0.8059  0.3414
 3738TIP3   OH235408   1.555   2.498   2.947  0.6834  0.4038 -0.6735
 3738TIP3    H135409   1.629   2.498   3.008 -0.9556  2.5335  1.5145
 3738TIP3    H235410   1.505   2.420   2.972  2.2644 -1.3275 -2.4842
 3739TIP3   OH235411   2.619   3.264   7.417  0.0383  0.4661  0.4677
 3739TIP3    H135412   2.527   3.257   7.394  0.0340  0.7684  0.3904
 3739TIP3    H235413   2.630   3.355   7.444  0.5019  0.6543 -0.3350
 3740TIP3   OH235414   1.818   1.609   9.506  0.0535  0.5824  0.1048
 3740TIP3    H135415   1.724   1.604   9.489  0.2025  2.1956 -1.5277
 3740TIP3    H235416   1.843   1.519   9.530 -1.6590 -0.1590 -0.7063
 3741TIP3   OH235417   1.091   2.129   0.588 -0.4048  0.1550  0.8815
 3741TIP3    H135418   1.112   2.085   0.505 -1.0737 -0.2826  0.9352
 3741TIP3    H235419   1.176   2.143   0.629 -0.1903 -1.8428  1.2323
 3742TIP3   OH235420   0.057   6.939   0.159  0.3251  0.7917  0.2060
 3742TIP3    H135421   0.075   6.845   0.150 -0.9955  0.5540 -0.2141
 3742TIP3    H235422   0.062   6.956   0.253  0.5823  0.3010  0.2830
 3743TIP3   OH235423   1.949   5.468   2.997 -0.0220  0.4214 -0.1990
 3743TIP3    H135424   1.964   5.553   2.956 -0.2690 -0.3185 -1.9028
 3743TIP3    H235425   1.895   5.487   3.074  1.5563  2.0062  0.5848
 3744TIP3   OH235426   0.653   6.284   7.815 -0.1451  0.3748  0.4210
 3744TIP3    H135427   0.703   6.356   7.853  0.3074 -0.1221  0.7851
 3744TIP3    H235428   0.698   6.266   7.732 -1.0906  1.4127 -0.3522
 3745TIP3   OH235429   2.232   1.271   7.802 -0.5939 -0.1727 -0.0562
 3745TIP3    H135430   2.320   1.242   7.777 -0.0575  0.5778  0.8635
 3745TIP3    H235431   2.220   1.354   7.755 -1.3889 -0.9419 -1.2633
 3746TIP3   OH235432   5.900   5.807   8.651 -0.2014 -0.1726 -0.4283
 3746TIP3    H135433   5.894   5.766   8.737 -0.2261  1.8683  0.6112
 3746TIP3    H235434   5.858   5.892   8.662  1.4906  0.9321 -1.9131
 3747TIP3   OH235435   6.640   6.548   0.607  0.9584  0.1972 -0.2994
 3747TIP3    H135436   6.605   6.622   0.657  1.2105  0.5600 -0.6503
 3747TIP3    H235437   6.563   6.501   0.576  0.7845 -0.7487  1.4505
 3748TIP3   OH235438   0.054   7.314   1.792 -0.6394 -0.1114  0.3282
 3748TIP3    H135439   0.063   7.219   1.783  0.1307  0.0999 -1.4155
 3748TIP3    H235440  -0.012   7.338   1.727  1.6391  0.9343 -1.7042
 3749TIP3   OH235441   2.640   7.304   0.073 -0.0279 -0.0186  0.1213
 3749TIP3    H135442   2.646   7.379   0.013  2.9119 -1.6374 -1.8532
 3749TIP3    H235443   2.729   7.291   0.105 -0.4478 -2.5386  0.5030
 3750TIP3   OH235444   4.887   3.788   7.357 -0.3923 -0.0838  0.2141
 3750TIP3    H135445   4.870   3.762   7.267  0.5844  0.4594 -0.1378
 3750TIP3    H235446   4.819   3.852   7.377  1.4541  2.6020 -1.4143
 3751TIP3   OH235447   3.736   3.738   0.412  0.0159  0.6017  0.2891
 3751TIP3    H135448   3.716   3.645   0.404 -1.1731  0.9009 -0.4829
 3751TIP3    H235449   3.826   3.746   0.379  0.9550 -0.5562  2.3541
 3752TIP3   OH235450   3.457   2.978   8.612 -0.2857  0.2301 -0.7560
 3752TIP3    H135451   3.407   2.898   8.595 -1.0489  0.7173 -0.8877
 3752TIP3    H235452   3.392   3.039   8.648  0.7793  0.0337  1.6443
 3753TIP3   OH235453   2.014   5.382   1.396 -0.1171  0.1885 -0.1069
 3753TIP3    H135454   1.920   5.381   1.379 -0.1915  2.4466 -0.0603
 3753TIP3    H235455   2.054   5.377   1.310 -0.2325 -1.2797 -0.1030
 3754TIP3   OH235456   7.419   4.696   9.744 -0.0783  0.2805 -0.3038
 3754TIP3    H135457   7.355   4.690   9.815  0.0861  0.6688 -0.1180
 3754TIP3    H235458   7.433   4.790   9.733  2.3902  0.1934  1.4066
 3755TIP3   OH235459   0.110   3.566   8.282 -0.0665  0.4698  0.5779
 3755TIP3    H135460   0.068   3.485   8.254  0.0805 -0.1118  1.9692
 3755TIP3    H235461   0.043   3.634   8.270 -0.0277  0.2489 -1.0571
 3756TIP3   OH235462   1.198   5.927   9.683  0.5021 -0.4942 -0.4261
 3756TIP3    H135463   1.198   5.970   9.597  2.3123 -0.0774 -0.2681
 3756TIP3    H235464   1.169   5.994   9.744  0.9197 -0.2344 -0.5055
 3757TIP3   OH235465   1.040   1.533   8.817 -0.2173  0.3227  0.1008
 3757TIP3    H135466   1.015   1.556   8.906 -0.6821 -1.5158  0.4870
 3757TIP3    H235467   1.123   1.580   8.803 -0.9908  1.9955  0.8408
 3758TIP3   OH235468   1.826   4.651   8.787 -0.9036  0.1368 -0.2678
 3758TIP3    H135469   1.742   4.679   8.751 -0.2634  1.1420 -1.0539
 3758TIP3    H235470   1.831   4.695   8.872 -0.7638  0.8689 -0.6436
 3759TIP3   OH235471   7.301   0.091   0.431 -0.1657 -0.2187 -0.0480
 3759TIP3    H135472   7.369   0.146   0.468 -1.0740  1.7820 -1.2250
 3759TIP3    H235473   7.284   0.025   0.499  1.3639  0.5807  1.1568
 3760TIP3   OH235474   5.331   2.115   9.003 -0.5373 -0.1029 -0.5297
 3760TIP3    H135475   5.413   2.068   9.018 -0.6823 -0.3607 -0.5364
 3760TIP3    H235476   5.264   2.046   8.999 -0.6933  0.0710 -0.9638
 3761TIP3   OH235477   0.288   2.377   9.299  0.4540 -0.2563  0.3057
 3761TIP3    H135478   0.340   2.297   9.307  1.3484  0.2969  0.2153
 3761TIP3    H235479   0.317   2.431   9.372  0.0824  0.1057  0.1857
 3762TIP3   OH235480   2.941   0.983   0.458  0.2984  0.6606 -0.1544
 3762TIP3    H135481   3.007   0.914   0.455 -0.1933  0.1602  0.4740
 3762TIP3    H235482   2.992   1.065   0.459  0.8988  0.4879 -3.5719
 3763TIP3   OH235483   6.097   4.197   0.901  0.6061 -0.6487  0.3229
 3763TIP3    H135484   6.168   4.190   0.837 -0.1557 -1.3022 -0.4776
 3763TIP3    H235485   6.019   4.167   0.854 -0.5374  1.5615  0.6524
 3764TIP3   OH235486   5.537   3.943   8.491 -0.6830 -0.5560  0.6543
 3764TIP3    H135487   5.596   4.010   8.457 -0.6559 -1.0435 -0.2759
 3764TIP3    H235488   5.571   3.924   8.578 -0.1305 -0.0374  0.5579
 3765TIP3   OH235489   1.968   4.731   9.060 -0.4136 -0.1081  0.3099
 3765TIP3    H135490   1.930   4.810   9.098  0.1719  0.5380 -0.4015
 3765TIP3    H235491   1.949   4.662   9.123 -2.0335  0.3464  0.3465
 3766TIP3   OH235492   5.776   2.481   8.309  0.0926 -0.2568  0.4381
 3766TIP3    H135493   5.818   2.496   8.224 -0.3429  0.9777  0.4241
 3766TIP3    H235494   5.704   2.421   8.289  0.0835 -0.0932 -0.0361
 3767TIP3   OH235495   4.366   7.309   8.413 -0.3097 -0.5533 -0.5146
 3767TIP3    H135496   4.294   7.287   8.354 -2.3054  1.1666  1.0976
 3767TIP3    H235497   4.339   7.273   8.497  0.6789  0.1963  0.1379
 3768TIP3   OH235498   6.032   1.942   2.395  0.1549 -0.1072  0.2517
 3768TIP3    H135499   6.109   1.937   2.452  1.0698 -1.6623 -1.0177
 3768TIP3    H235500   6.023   1.853   2.360 -1.0559  0.5284 -1.1213
 3769TIP3   OH235501   5.413   0.762   7.365  0.0463 -0.2289 -0.1749
 3769TIP3    H135502   5.331   0.716   7.346  0.0432 -0.3883  0.2004
 3769TIP3    H235503   5.446   0.789   7.280 -0.4310 -0.1042 -0.3235
 3770TIP3   OH235504   3.676   2.176   9.769  0.3516 -0.2474  0.5785
 3770TIP3    H135505   3.712   2.262   9.791 -0.8931  1.1117 -2.2341
 3770TIP3    H235506   3.584   2.182   9.796  0.1459 -0.5035 -0.0589
 3771TIP3   OH235507   0.649   2.278   1.191  0.1571 -0.3756  0.1063
 3771TIP3    H135508   0.740   2.270   1.162  1.3250  4.1902  1.7268
 3771TIP3    H235509   0.608   2.335   1.126 -0.7566 -0.1732  0.8430
 3772TIP3   OH235510   7.301   4.015   0.735 -0.0469 -0.2096  0.4695
 3772TIP3    H135511   7.289   3.938   0.680 -1.0949  0.6633 -0.5677
 3772TIP3    H235512   7.359   4.072   0.686 -0.4841  0.3043  0.5346
 3773TIP3   OH235513   3.089   1.365   9.942 -0.3097 -0.4446  0.1087
 3773TIP3    H135514   3.020   1.347   9.878 -0.0078  0.0748 -0.3766
 3773TIP3    H235515   3.149   1.291   9.934 -0.0181 -0.1413 -0.5682
 3774TIP3   OH235516   1.496   6.664   7.858  0.1096 -0.1635  0.1000
 3774TIP3    H135517   1.563   6.642   7.794 -0.2952 -0.2624 -0.2845
 3774TIP3    H235518   1.468   6.580   7.895  2.4215 -0.0120  2.5609
 3775TIP3   OH235519   2.505   1.742   2.246 -0.5951 -0.4667  0.3282
 3775TIP3    H135520   2.466   1.795   2.315  0.1673 -1.3522  1.4615
 3775TIP3    H235521   2.538   1.664   2.290  2.8655  0.3782 -0.4296
 3776TIP3   OH235522   7.400   6.398   1.258 -0.3858  0.0030  0.8221
 3776TIP3    H135523   7.431   6.481   1.222 -0.9240 -0.6815 -1.3577
 3776TIP3    H235524   7.315   6.418   1.295 -1.1756  0.2033 -0.9944
 3777TIP3   OH235525   7.155   2.460   9.107 -0.2462 -0.1144 -0.2813
 3777TIP3    H135526   7.242   2.422   9.098  0.0406  0.4245  0.2449
 3777TIP3    H235527   7.135   2.494   9.019 -0.6439 -1.7327 -0.8611
 3778TIP3   OH235528   6.187   0.588   1.388  0.7901 -0.1450 -0.0296
 3778TIP3    H135529   6.177   0.634   1.305 -1.6131  0.8049  0.7131
 3778TIP3    H235530   6.195   0.496   1.364 -1.8085 -0.1200 -1.3251
 3779TIP3   OH235531   6.066   2.242   9.954  0.0727  0.1187 -0.1604
 3779TIP3    H135532   5.995   2.177   9.951 -0.2855  0.5307 -1.5066
 3779TIP3    H235533   6.024   2.322   9.987  0.3217 -0.0934  0.6951
 3780TIP3   OH235534   5.935   7.250   8.776  0.7475 -1.0152 -0.0040
 3780TIP3    H135535   5.994   7.262   8.851  1.6284  1.9869 -1.0537
 3780TIP3    H235536   5.990   7.214   8.707  0.7522 -0.6236 -0.2076
 3781TIP3   OH235537   6.692   4.271   2.414 -0.0865  0.3627 -0.0943
 3781TIP3    H135538   6.717   4.347   2.467 -1.6789  0.4934  0.5070
 3781TIP3    H235539   6.717   4.295   2.325  1.0356  0.8553  0.3324
 3782TIP3   OH235540   5.244   7.002   7.973  0.2842 -0.3268  0.0379
 3782TIP3    H135541   5.221   6.939   8.041  1.5544 -0.7577  0.0888
 3782TIP3    H235542   5.334   6.981   7.949  0.2181  0.4902 -1.0411
 3783TIP3   OH235543   0.640   3.544   0.652  0.3733  0.5833 -0.6047
 3783TIP3    H135544   0.629   3.552   0.747  0.6916 -0.6682 -0.4442
 3783TIP3    H235545   0.735   3.549   0.638  0.5042 -1.1635 -0.6187
 3784TIP3   OH235546   5.523   4.975   9.450 -0.4129 -0.0402  0.4879
 3784TIP3    H135547   5.532   4.895   9.397 -0.6341  2.1480 -3.1606
 3784TIP3    H235548   5.466   4.948   9.523  1.2484 -3.6757  0.6789
 3785TIP3   OH235549   2.751   3.295   9.100 -0.0428  0.0075 -0.0165
 3785TIP3    H135550   2.698   3.370   9.124  1.3324  0.5995  1.3242
 3785TIP3    H235551   2.805   3.327   9.027 -0.4331 -0.1262 -0.3690
 3786TIP3   OH235552   2.816   7.469   8.607  0.3104  0.1822  0.6061
 3786TIP3    H135553   2.896   7.498   8.563  0.5366 -1.4344 -0.1016
 3786TIP3    H235554   2.745   7.493   8.547  0.2062  1.7857  1.3186
 3787TIP3   OH235555   1.669   5.838   7.672 -0.0316  0.0092  0.1930
 3787TIP3    H135556   1.726   5.904   7.631 -0.8380  0.9774  0.5927
 3787TIP3    H235557   1.726   5.761   7.682  1.1994  0.9201  0.5270
 3788TIP3   OH235558   1.260   2.417   7.748  0.1126  0.5148  0.1081
 3788TIP3    H135559   1.283   2.324   7.746 -2.5983 -0.2542  1.0586
 3788TIP3    H235560   1.247   2.440   7.656  0.3566 -0.1669 -0.1043
 3789TIP3   OH235561   6.883   7.023   9.730  0.6425 -0.2864 -1.0374
 3789TIP3    H135562   6.877   7.100   9.673 -0.7143  0.6652  0.3294
 3789TIP3    H235563   6.867   7.057   9.818  0.8770 -2.0110 -0.2930
 3790TIP3   OH235564   3.243   4.582   8.786 -0.5551 -0.2309 -0.2634
 3790TIP3    H135565   3.156   4.599   8.748 -0.5667 -1.2768 -0.7497
 3790TIP3    H235566   3.225   4.546   8.873 -0.6560 -1.1689 -0.6550
 3791TIP3   OH235567   0.786   1.485   2.280 -0.3966 -0.1763  0.0701
 3791TIP3    H135568   0.840   1.432   2.220 -0.0091  0.6128 -0.2887
 3791TIP3    H235569   0.711   1.511   2.227  0.7109  1.8429 -0.6011
 3792TIP3   OH235570   1.576   2.781   8.323  0.1052 -0.2715  0.2282
 3792TIP3    H135571   1.533   2.712   8.273  1.0698 -0.9080  0.2453
 3792TIP3    H235572   1.659   2.742   8.350 -0.0048  0.3701  1.5590
 3793TIP3   OH235573   0.327   1.774   2.364  0.7903  0.0471 -0.0662
 3793TIP3    H135574   0.271   1.852   2.364 -0.3326 -0.7337  1.1713
 3793TIP3    H235575   0.394   1.793   2.429 -0.0295 -0.3677  0.9267
 3794TIP3   OH235576   4.899   1.838   0.969 -0.8169  0.0514 -0.2490
 3794TIP3    H135577   4.917   1.889   1.047  0.9000  2.0972 -1.8734
 3794TIP3    H235578   4.963   1.767   0.970  0.2426  0.9883 -0.5545
 3795TIP3   OH235579   7.213   3.802   0.228 -0.2927 -0.1490 -0.1658
 3795TIP3    H135580   7.140   3.802   0.166 -0.4920  0.4700  0.0565
 3795TIP3    H235581   7.209   3.889   0.269  0.1240 -0.3787  0.3717
 3796TIP3   OH235582   2.441   0.544   2.154  0.2091 -0.5765 -0.2408
 3796TIP3    H135583   2.498   0.466   2.153  0.1906 -0.5946  0.1026
 3796TIP3    H235584   2.451   0.581   2.066 -2.1359 -2.6562 -1.5201
 3797TIP3   OH235585   1.159   4.297   0.284 -0.3675  0.4133  0.0281
 3797TIP3    H135586   1.197   4.231   0.226 -0.6045  0.1273  0.1934
 3797TIP3    H235587   1.216   4.373   0.274 -1.3896  0.9952 -1.9115
 3798TIP3   OH235588   5.731   3.241   0.607  0.0024  0.0079 -0.1710
 3798TIP3    H135589   5.782   3.176   0.559  0.3145 -0.3998  0.6896
 3798TIP3    H235590   5.711   3.199   0.691 -0.1701  0.8542  0.2239
 3799TIP3   OH235591   4.791   1.754   1.686  0.4998 -0.3577  0.4318
 3799TIP3    H135592   4.843   1.830   1.661 -0.6103  0.5503  0.8085
 3799TIP3    H235593   4.849   1.702   1.743  0.2864  1.8178  2.8144
 3800TIP3   OH235594   0.927   1.602   8.126  0.4636  0.4920 -0.1109
 3800TIP3    H135595   0.904   1.613   8.033 -1.9385  0.8374  0.4664
 3800TIP3    H235596   0.965   1.514   8.130 -2.0361 -0.7307 -1.0235
 3801TIP3   OH235597   5.179   2.185   1.592  0.3741  0.6195  0.0786
 3801TIP3    H135598   5.162   2.094   1.566  1.0552  0.3944  0.3996
 3801TIP3    H235599   5.249   2.178   1.657  0.6813  1.4054 -0.1635
 3802TIP3   OH235600   1.700   1.334   0.912  0.2661  0.1583 -0.4467
 3802TIP3    H135601   1.662   1.417   0.939  0.5564  0.5204 -1.1181
 3802TIP3    H235602   1.783   1.328   0.960 -1.2110 -1.3346  2.1928
 3803TIP3   OH235603   2.529   7.108   7.305 -0.0676 -0.8069  0.3324
 3803TIP3    H135604   2.525   7.113   7.400  0.4349  1.0171  0.2966
 3803TIP3    H235605   2.527   7.014   7.285  1.9627 -1.3272  2.2428
 3804TIP3   OH235606   1.700   4.142   9.810  0.5628  0.4204  0.3813
 3804TIP3    H135607   1.770   4.205   9.793  1.3071 -0.3745  0.4356
 3804TIP3    H235608   1.640   4.188   9.868  0.4391  1.5157 -0.5871
 3805TIP3   OH235609   0.704   2.156   1.864 -0.1274 -0.7480 -0.5589
 3805TIP3    H135610   0.760   2.218   1.818 -3.7468  1.5767 -2.3354
 3805TIP3    H235611   0.712   2.181   1.957  1.4094 -0.2357 -0.8094
 3806TIP3   OH235612   7.289   2.247   8.976 -1.0543  0.5366  0.8618
 3806TIP3    H135613   7.208   2.231   9.024 -0.5378 -0.5273  1.4192
 3806TIP3    H235614   7.298   2.171   8.918 -0.8223  0.9996  0.2734
 3807TIP3   OH235615   5.526   5.859   9.823  0.2497  0.1193  0.1894
 3807TIP3    H135616   5.508   5.845   9.730 -0.2761 -0.7297  0.4133
 3807TIP3    H235617   5.543   5.772   9.858  1.2979  0.5207  0.7297
 3808TIP3   OH235618   0.841   1.104   2.500  0.3296  0.2062 -0.0488
 3808TIP3    H135619   0.896   1.172   2.460 -0.2406  0.5751 -0.2195
 3808TIP3    H235620   0.790   1.151   2.566 -0.2230 -0.0132 -0.3132
 3809TIP3   OH235621   5.093   4.024   1.741 -0.3075 -0.6863 -0.1434
 3809TIP3    H135622   5.059   4.113   1.732 -0.6907 -0.9602 -1.5851
 3809TIP3    H235623   5.182   4.036   1.775 -1.0420  0.1294  1.6077
 3810TIP3   OH235624   1.272   4.550   1.052  0.0220 -0.0242 -0.3673
 3810TIP3    H135625   1.211   4.491   1.009 -0.6246  0.2091  0.1943
 3810TIP3    H235626   1.340   4.493   1.089 -2.2972 -0.9064  3.0680
 3811TIP3   OH235627   3.181   4.722   8.430 -0.2596 -0.4088 -0.2346
 3811TIP3    H135628   3.262   4.683   8.398  0.4785  0.6360  0.2878
 3811TIP3    H235629   3.189   4.815   8.406 -0.1902  0.1839  1.9342
 3812TIP3   OH235630   4.806   0.800   9.454  0.3264 -0.3858  0.0496
 3812TIP3    H135631   4.725   0.752   9.433  1.7037 -2.0578 -1.8850
 3812TIP3    H235632   4.808   0.872   9.391  0.5285 -0.5724 -0.1573
 3813TIP3   OH235633   1.400   2.673   8.926  0.0705 -0.4166  0.7525
 3813TIP3    H135634   1.359   2.629   9.000 -1.0882 -2.0194 -0.7509
 3813TIP3    H235635   1.396   2.609   8.855 -1.2460  1.9213 -1.4586
 3814TIP3   OH235636   4.145   6.896   9.360  0.1043  0.3966  0.0183
 3814TIP3    H135637   4.131   6.989   9.340  0.8545  0.1732 -1.7414
 3814TIP3    H235638   4.113   6.886   9.450  0.4065  2.4513  0.4182
 3815TIP3   OH235639   0.987   2.608   8.031 -0.4781  0.0661 -0.2551
 3815TIP3    H135640   0.985   2.598   7.936 -0.1599  4.4041 -0.9143
 3815TIP3    H235641   1.068   2.656   8.049  1.3088 -3.5344  2.7834
 3816TIP3   OH235642   0.950   6.365   9.197 -0.1582 -0.4541 -0.0618
 3816TIP3    H135643   0.960   6.373   9.292  1.0868 -0.3027 -0.1909
 3816TIP3    H235644   1.034   6.392   9.162 -0.3898 -1.1364 -1.1845
 3817TIP3   OH235645   4.107   3.483   9.985  0.1654 -0.0604 -0.1164
 3817TIP3    H135646   4.095   3.391   9.963 -0.5032 -0.0985  0.3852
 3817TIP3    H235647   4.142   3.523   9.905  0.8727 -0.8275 -0.1967
 3818TIP3   OH235648   1.796   2.096   0.669  0.0870  0.3093  0.1185
 3818TIP3    H135649   1.830   2.012   0.636  2.4528  0.3971  2.0520
 3818TIP3    H235650   1.734   2.071   0.737  0.4807  0.0971  0.4077
 3819TIP3   OH235651   0.243   2.877   7.372  0.3557  0.3098 -0.0025
 3819TIP3    H135652   0.250   2.789   7.335  1.5554  0.8837 -1.2042
 3819TIP3    H235653   0.149   2.891   7.381  0.1482 -1.3676  0.9473
 3820TIP3   OH235654   0.491   5.552   8.301 -0.4573  0.6323 -0.5677
 3820TIP3    H135655   0.535   5.515   8.224 -2.0531 -0.3118 -1.0715
 3820TIP3    H235656   0.456   5.475   8.347  1.1535  1.0912  1.5946
 3821TIP3   OH235657   0.519   1.320   2.386 -0.3424 -0.1030  0.2581
 3821TIP3    H135658   0.523   1.249   2.322  3.6828 -1.3040  1.5616
 3821TIP3    H235659   0.547   1.398   2.338 -2.1957  0.1281 -0.5331
 3822TIP3   OH235660   2.607   0.072   7.647 -0.3397  0.4597 -0.3205
 3822TIP3    H135661   2.671   0.001   7.642  0.4639  1.2425 -1.8023
 3822TIP3    H235662   2.594   0.099   7.557 -1.6866  1.2969  0.0954
 3823TIP3   OH235663   2.383   3.375   7.817  0.1686 -0.0574  0.2445
 3823TIP3    H135664   2.317   3.416   7.873  1.7509  0.7728  1.5759
 3823TIP3    H235665   2.421   3.448   7.768  1.9428 -0.0529  1.5062
 3824TIP3   OH235666   5.434   2.249   9.247 -0.3888 -0.5330 -0.2362
 3824TIP3    H135667   5.406   2.195   9.173 -2.5519  0.9677 -0.6175
 3824TIP3    H235668   5.401   2.204   9.325 -1.2265 -0.3515 -0.4744
 3825TIP3   OH235669   7.234   4.432   9.674  0.0345 -0.2942 -0.8355
 3825TIP3    H135670   7.295   4.375   9.720  1.1541 -1.6684 -3.7493
 3825TIP3    H235671   7.282   4.460   9.596 -1.8369  1.6106 -1.3884
 3826TIP3   OH235672   5.438   0.957   1.414 -0.3882  0.1709  0.0491
 3826TIP3    H135673   5.480   1.010   1.482 -0.0759 -0.8184  0.6445
 3826TIP3    H235674   5.487   0.978   1.334  1.2532 -0.9279  0.7193
 3827TIP3   OH235675   4.319   4.492   8.131 -0.3202 -0.2542 -0.7494
 3827TIP3    H135676   4.262   4.433   8.180 -1.2639  1.7660  0.7736
 3827TIP3    H235677   4.360   4.547   8.199  1.7916 -0.2201 -1.9722
 3828TIP3   OH235678   6.083   5.662   0.929  0.1552  0.9022 -0.3840
 3828TIP3    H135679   6.038   5.668   1.013 -0.1063 -2.2387 -0.1640
 3828TIP3    H235680   6.175   5.680   0.949  0.0288  0.6072  0.5161
 3829TIP3   OH235681   3.312   5.306   2.856 -0.1852  1.1428 -0.2062
 3829TIP3    H135682   3.312   5.382   2.914  0.8697  1.8549 -1.1025
 3829TIP3    H235683   3.308   5.231   2.915 -0.7902  1.8718  0.7128
 3830TIP3   OH235684   0.171   0.264   7.329 -0.1549 -0.6004  0.9087
 3830TIP3    H135685   0.263   0.289   7.322 -0.8035  1.6322 -0.5514
 3830TIP3    H235686   0.147   0.234   7.241 -1.0901 -0.0689  0.9634
 3831TIP3   OH235687   1.450   7.311   6.483 -0.2137  0.0582  0.3468
 3831TIP3    H135688   1.541   7.317   6.513 -0.4508 -0.5776  1.2623
 3831TIP3    H235689   1.430   7.217   6.487 -0.9364  0.2043  0.2467
 3832TIP3   OH235690   5.840   0.520   0.431 -0.0407 -0.2930  0.4259
 3832TIP3    H135691   5.836   0.559   0.344 -0.2103 -0.5091  0.3350
 3832TIP3    H235692   5.758   0.471   0.440 -0.1798  0.0066  0.8446
 3833TIP3   OH235693   2.649   4.252   6.539  0.3889 -0.2658  0.0139
 3833TIP3    H135694   2.569   4.296   6.565  0.6338  0.4405 -0.3829
 3833TIP3    H235695   2.718   4.317   6.551  0.8656 -0.7719  0.0936
 3834TIP3   OH235696   5.904   0.826   1.564  0.2154  0.5958 -0.0005
 3834TIP3    H135697   5.818   0.817   1.606  1.1502  0.4982  2.0200
 3834TIP3    H235698   5.892   0.896   1.500 -1.2029  1.1194  0.7825
 3835TIP3   OH235699   2.557   1.208   9.560  0.5418  0.3558  0.1611
 3835TIP3    H135700   2.508   1.290   9.558 -0.8664 -0.4579 -1.6195
 3835TIP3    H235701   2.513   1.155   9.626 -3.0884 -1.4369 -3.2774
 3836TIP3   OH235702   7.186   4.065   0.299 -0.2470  0.6759  0.2487
 3836TIP3    H135703   7.268   4.111   0.318  1.3389 -0.2971 -3.3549
 3836TIP3    H235704   7.143   4.119   0.233 -0.3062 -0.9107 -1.0813
 3837TIP3   OH235705   4.163   6.447   9.934  0.0167  0.1382 -0.2151
 3837TIP3    H135706   4.091   6.428   9.993  0.4350  0.0434  0.2775
 3837TIP3    H235707   4.206   6.362   9.919  1.5752  0.5494  1.5739
 3838TIP3   OH235708   7.388   3.274   8.760 -0.3638  0.2167  0.4146
 3838TIP3    H135709   7.401   3.184   8.731  1.4574  0.2042  1.1454
 3838TIP3    H235710   7.300   3.275   8.797 -0.7451 -1.0356 -0.4291
 3839TIP3   OH235711   0.481   1.223   2.777 -0.5039  0.0436 -0.3006
 3839TIP3    H135712   0.462   1.286   2.708  1.4557  1.3290  0.2498
 3839TIP3    H235713   0.443   1.140   2.746 -0.5194  0.8043 -2.4337
 3840TIP3   OH235714   6.696   6.770   2.453 -0.1731 -0.3796 -0.4937
 3840TIP3    H135715   6.719   6.850   2.406  0.0603 -0.9673 -1.4245
 3840TIP3    H235716   6.602   6.779   2.472 -0.1520  0.1013 -0.6066
 3841TIP3   OH235717   2.106   3.486   8.806  0.9084 -0.5308 -0.3341
 3841TIP3    H135718   2.011   3.484   8.797  0.4961  1.0924  2.5235
 3841TIP3    H235719   2.132   3.574   8.778  1.4712 -0.6737 -0.2772
 3842TIP3   OH235720   0.317   4.968   1.831 -0.7204 -0.2941  0.4485
 3842TIP3    H135721   0.309   4.933   1.920  0.9481 -0.7837  0.4432
 3842TIP3    H235722   0.349   5.057   1.843 -0.5455 -0.3429  0.3530
 3843TIP3   OH235723   5.578   6.602   1.573 -0.5072 -0.3199 -0.3563
 3843TIP3    H135724   5.505   6.650   1.534 -0.0661  1.0851  0.5156
 3843TIP3    H235725   5.620   6.559   1.498 -0.1176  1.7199 -1.3757
 3844TIP3   OH235726   6.832   3.205   8.764 -0.2153  0.0636 -0.1547
 3844TIP3    H135727   6.898   3.273   8.749 -0.0524  0.2268  1.2266
 3844TIP3    H235728   6.865   3.129   8.717  0.5085  0.4108 -0.2179
 3845TIP3   OH235729   1.425   3.102   7.469 -0.0503 -0.4274  0.1822
 3845TIP3    H135730   1.404   3.071   7.381  0.3192 -0.9034  0.2562
 3845TIP3    H235731   1.463   3.189   7.456 -3.1465  1.0521  0.1275
 3846TIP3   OH235732   1.647   0.360   2.607 -0.5079  0.0852 -0.0527
 3846TIP3    H135733   1.696   0.437   2.579  1.1104 -0.5562  0.8932
 3846TIP3    H235734   1.600   0.332   2.528  1.6980 -0.0550 -1.3990
 3847TIP3   OH235735   2.221   6.097   7.991 -0.7601 -0.1168 -0.4248
 3847TIP3    H135736   2.316   6.108   7.983 -0.6143 -0.5812  0.4811
 3847TIP3    H235737   2.211   6.038   8.067 -1.8362  1.3253  0.5989
 3848TIP3   OH235738   5.124   1.185   9.296  0.1011  0.0798 -0.1483
 3848TIP3    H135739   5.086   1.147   9.375 -1.7134  2.0341  0.0313
 3848TIP3    H235740   5.219   1.181   9.310 -0.1689  1.0349  2.5078
 3849TIP3   OH235741   6.960   2.774   1.801  0.1717 -0.2724  0.7803
 3849TIP3    H135742   6.879   2.747   1.843 -0.7259  0.0580 -0.6859
 3849TIP3    H235743   6.990   2.849   1.853 -0.6921 -0.1302  1.0874
 3850TIP3   OH235744   4.433   7.429   6.818  0.6161  0.0563  0.0686
 3850TIP3    H135745   4.439   7.347   6.869  0.2985 -0.0934 -0.1332
 3850TIP3    H235746   4.354   7.418   6.765 -0.3257  1.1485  1.1942
 3851TIP3   OH235747   2.641   6.450   6.268  0.7357 -0.4105 -0.0180
 3851TIP3    H135748   2.737   6.447   6.274  0.8572  1.6269 -0.4174
 3851TIP3    H235749   2.614   6.359   6.279  2.5784 -0.7758  2.1051
 3852TIP3   OH235750   1.225   2.803   7.272  0.6234 -0.0486 -0.1590
 3852TIP3    H135751   1.295   2.831   7.214 -0.0768  1.4088 -0.3391
 3852TIP3    H235752   1.146   2.844   7.236 -0.3142 -1.5234  0.1209
 3853TIP3   OH235753   4.928   1.148   3.069  0.0668  0.2805  0.2680
 3853TIP3    H135754   4.889   1.205   3.003  1.3014  0.2279 -0.5531
 3853TIP3    H235755   4.871   1.071   3.073  0.6192 -0.2881 -1.6847
 3854TIP3   OH235756   7.390   2.581   1.869 -0.2721  0.1960  0.2658
 3854TIP3    H135757   7.446   2.532   1.808  0.4815  1.3858 -0.0483
 3854TIP3    H235758   7.346   2.646   1.814 -0.5925  0.4329  0.7959
 3855TIP3   OH235759   6.328   2.179   8.389  0.0364  0.1540  0.2367
 3855TIP3    H135760   6.354   2.192   8.298  0.7714 -0.4576  0.3528
 3855TIP3    H235761   6.410   2.171   8.438 -0.3479  0.1452  0.9047
 3856TIP3   OH235762   3.345   0.689   0.379  0.1619  0.0074  0.1295
 3856TIP3    H135763   3.421   0.741   0.354  0.9470 -1.1055  0.1103
 3856TIP3    H235764   3.382   0.612   0.423 -0.9616 -0.4750  0.2688
 3857TIP3   OH235765   5.553   0.186   2.311  0.3268  0.4455 -0.1778
 3857TIP3    H135766   5.489   0.235   2.362  1.0381  1.6454 -0.3736
 3857TIP3    H235767   5.615   0.152   2.375 -0.9497 -1.4857  0.1003
 3858TIP3   OH235768   3.151   4.129   1.992  0.0146  0.5407 -0.2236
 3858TIP3    H135769   3.164   4.082   1.910 -1.9301  0.2781 -0.4236
 3858TIP3    H235770   3.096   4.072   2.045  2.6121 -0.0813  2.0436
 3859TIP3   OH235771   0.977   5.685   7.350 -0.2769  0.4433 -0.3165
 3859TIP3    H135772   0.973   5.750   7.280  1.4920  0.6586 -0.2476
 3859TIP3    H235773   1.068   5.685   7.378 -0.8703  0.0799  1.7388
 3860TIP3   OH235774   1.428   1.740   0.177 -0.1076 -0.4838  0.1518
 3860TIP3    H135775   1.342   1.724   0.138 -0.3926  0.0222  0.5653
 3860TIP3    H235776   1.437   1.835   0.176 -1.3265 -0.1706  3.7993
 3861TIP3   OH235777   1.937   7.323   0.169 -0.3366 -0.3538 -0.4490
 3861TIP3    H135778   2.008   7.351   0.227  0.2948  0.2701 -1.4951
 3861TIP3    H235779   1.979   7.264   0.107 -0.8726 -0.5234 -0.6542
 3862TIP3   OH235780   3.022   0.561   6.800  0.1312  0.4380 -0.0224
 3862TIP3    H135781   2.975   0.595   6.724  0.6386  1.3541  0.0487
 3862TIP3    H235782   3.051   0.474   6.775 -1.4406 -0.0692 -0.1283
 3863TIP3   OH235783   3.958   2.048   0.204  0.2294  0.1020 -0.2371
 3863TIP3    H135784   4.035   2.104   0.190  0.1888  0.7287  1.7386
 3863TIP3    H235785   3.902   2.064   0.128  2.1525 -0.6071 -1.8905
 3864TIP3   OH235786   3.259   0.873   9.695 -0.1756  0.5517 -0.2399
 3864TIP3    H135787   3.171   0.870   9.733  0.2303 -2.0710  0.6701
 3864TIP3    H235788   3.257   0.950   9.638 -1.0307  4.3677  4.3845
 3865TIP3   OH235789   2.071   5.236   2.933  0.3959 -0.0286 -0.0373
 3865TIP3    H135790   2.030   5.322   2.944 -0.3633 -0.3072 -0.5784
 3865TIP3    H235791   2.002   5.174   2.959  0.5415 -0.5009 -0.7692
 3866TIP3   OH235792   6.677   7.250   7.658  0.4564  0.3215  0.6764
 3866TIP3    H135793   6.764   7.286   7.677  0.0931  1.1075  0.9255
 3866TIP3    H235794   6.625   7.327   7.635 -0.0122 -0.2157 -0.0935
 3867TIP3   OH235795   3.146   1.041   0.152  0.1089  0.2829 -0.4274
 3867TIP3    H135796   3.081   1.108   0.174  0.1666  0.4515 -0.7642
 3867TIP3    H235797   3.226   1.091   0.134  0.0146  0.1681 -1.2048
 3868TIP3   OH235798   6.743   0.526   8.615  0.1820  0.1377 -0.0269
 3868TIP3    H135799   6.778   0.613   8.597  1.3582 -0.5632 -1.3084
 3868TIP3    H235800   6.747   0.481   8.531 -0.8813 -1.0055  0.5029
 3869TIP3   OH235801   5.304   3.900   9.395  0.6587 -0.4224 -0.1845
 3869TIP3    H135802   5.341   3.979   9.434  1.3723 -0.2461 -1.1578
 3869TIP3    H235803   5.321   3.831   9.459 -0.3236  0.2558  0.8552
 3870TIP3   OH235804   1.625   6.149   8.374  0.2241  0.6963 -0.2315
 3870TIP3    H135805   1.650   6.067   8.331  0.1482 -0.2887  1.5129
 3870TIP3    H235806   1.699   6.170   8.431 -1.5064 -0.6299  2.7278
 3871TIP3   OH235807   2.620   2.193   7.295 -0.0167  0.5540  0.2695
 3871TIP3    H135808   2.586   2.122   7.240  2.7568  0.2375 -1.2062
 3871TIP3    H235809   2.649   2.150   7.375 -0.5691  0.4255  0.4071
 3872TIP3   OH235810   3.195   2.033   0.580 -0.3081 -0.2106  0.0369
 3872TIP3    H135811   3.263   1.974   0.547 -0.4000  0.0525 -0.6416
 3872TIP3    H235812   3.167   2.082   0.503  0.6701  1.6236  0.7875
 3873TIP3   OH235813   1.325   1.445   9.534 -0.4229  0.2000  0.4858
 3873TIP3    H135814   1.366   1.405   9.457  1.7130  2.1250  0.5250
 3873TIP3    H235815   1.321   1.375   9.598  0.9580 -0.5926 -0.2388
 3874TIP3   OH235816   4.046   0.884   6.979 -0.0111  0.0056  0.6682
 3874TIP3    H135817   3.990   0.930   7.041  0.5638 -0.2468  1.3862
 3874TIP3    H235818   4.079   0.808   7.028  0.7413  0.0030  0.1775
 3875TIP3   OH235819   2.339   0.409   3.869  0.0258  1.1824  0.1783
 3875TIP3    H135820   2.303   0.494   3.892 -0.8926  0.8938 -0.1344
 3875TIP3    H235821   2.433   0.423   3.862  0.1376  1.7005  2.1880
 3876TIP3   OH235822   4.101   0.097   9.297  0.1781 -0.2868  0.3679
 3876TIP3    H135823   4.027   0.036   9.296  0.8690 -1.1327 -1.2149
 3876TIP3    H235824   4.061   0.181   9.323 -1.6742 -0.3495 -1.9077
 3877TIP3   OH235825   4.478   3.678   9.144  0.2314  0.0894  0.1401
 3877TIP3    H135826   4.553   3.729   9.112  0.4830 -0.0234  0.5353
 3877TIP3    H235827   4.414   3.744   9.171  0.4772  0.1928  0.4681
 3878TIP3   OH235828   0.856   3.638   9.385  0.0038 -0.4966 -0.0340
 3878TIP3    H135829   0.930   3.690   9.418  0.8904 -1.2843 -0.7176
 3878TIP3    H235830   0.830   3.584   9.460 -0.5005  0.4471  0.4855
 3879TIP3   OH235831   2.377   7.063   9.514 -0.3057 -0.2066  0.1615
 3879TIP3    H135832   2.422   7.142   9.486 -0.3197 -0.4862 -0.6908
 3879TIP3    H235833   2.294   7.094   9.551 -0.7625  0.1396 -1.0903
 3880TIP3   OH235834   2.867   6.026   8.150 -0.3729 -0.4389 -0.2420
 3880TIP3    H135835   2.891   5.935   8.130  0.4058 -0.4024  0.4596
 3880TIP3    H235836   2.821   6.056   8.071  0.6681 -0.9761 -1.0915
 3881TIP3   OH235837   2.381   6.932   1.390 -0.4859 -0.2328  0.3743
 3881TIP3    H135838   2.475   6.951   1.383 -0.5420  0.2232  0.8035
 3881TIP3    H235839   2.374   6.838   1.372  0.1575 -0.4591  1.2531
 3882TIP3   OH235840   5.310   6.348   1.512  0.2731  0.6758 -0.0731
 3882TIP3    H135841   5.276   6.427   1.554  1.1369  0.6398  0.7511
 3882TIP3    H235842   5.302   6.280   1.580  1.3988  0.5399 -0.0497
 3883TIP3   OH235843   5.713   1.786   0.737 -0.5555 -0.6793  0.2797
 3883TIP3    H135844   5.640   1.792   0.798  1.2010 -0.5808  2.4985
 3883TIP3    H235845   5.742   1.695   0.743  1.2192 -0.0675  1.6051
 3884TIP3   OH235846   7.043   3.270   1.451  0.4314  0.1247 -0.2520
 3884TIP3    H135847   7.060   3.223   1.533  1.8333  0.9982 -0.0093
 3884TIP3    H235848   7.130   3.293   1.418 -0.1547  0.6757 -1.4654
 3885TIP3   OH235849   6.253   0.499   7.230  0.1322  0.5860 -0.0538
 3885TIP3    H135850   6.190   0.524   7.297 -0.1360  0.4104 -0.2395
 3885TIP3    H235851   6.327   0.462   7.278 -0.0577  0.4645  0.1415
 3886TIP3   OH235852   3.031   5.304   9.401  0.3187  0.2984  0.3421
 3886TIP3    H135853   3.037   5.394   9.432  0.3810  0.1515  0.7711
 3886TIP3    H235854   2.954   5.303   9.344  2.1433  1.3676 -2.3129
 3887TIP3   OH235855   1.595   3.578   1.600 -0.4334 -0.0718 -0.1852
 3887TIP3    H135856   1.570   3.554   1.689 -2.2474 -0.5444 -0.7685
 3887TIP3    H235857   1.637   3.664   1.609 -2.5111  0.9130  0.9587
 3888TIP3   OH235858   3.382   5.737   2.543 -0.2593 -0.7767 -0.2034
 3888TIP3    H135859   3.326   5.666   2.574 -0.9849 -0.2761 -0.3391
 3888TIP3    H235860   3.384   5.799   2.615 -1.3531  0.0448 -0.8473
 3889TIP3   OH235861   1.856   5.655   1.863  0.6904  0.0902  0.6184
 3889TIP3    H135862   1.948   5.650   1.837  0.6345  1.7051  0.0044
 3889TIP3    H235863   1.852   5.730   1.923 -0.6041  1.7178 -1.3514
 3890TIP3   OH235864   4.082   4.714   9.124 -0.5519 -0.0920 -0.2717
 3890TIP3    H135865   4.144   4.774   9.082 -1.3461  0.7766 -0.2297
 3890TIP3    H235866   4.065   4.647   9.058 -0.9348  0.6519 -0.9432
 3891TIP3   OH235867   7.146   0.491   0.791 -0.3311 -0.0150 -0.4115
 3891TIP3    H135868   7.230   0.517   0.754 -0.6393  2.1422  0.3011
 3891TIP3    H235869   7.091   0.569   0.783 -1.0153 -0.0510  2.7976
 3892TIP3   OH235870   3.136   4.751   1.081  0.5497  0.0718 -0.1240
 3892TIP3    H135871   3.088   4.688   1.134  0.0462  0.2821 -0.3217
 3892TIP3    H235872   3.120   4.724   0.990  0.9898  0.0109 -0.1861
 3893TIP3   OH235873   7.067   1.239   8.565 -0.5518 -0.4451 -0.0362
 3893TIP3    H135874   7.155   1.277   8.563 -1.3148  1.5204  0.7965
 3893TIP3    H235875   7.017   1.289   8.501 -1.5892 -0.0142  1.0604
 3894TIP3   OH235876   1.553   1.389   7.135 -0.2874  0.0257  0.5651
 3894TIP3    H135877   1.555   1.326   7.063  2.3063 -1.7504  2.0535
 3894TIP3    H235878   1.602   1.347   7.206 -1.5185  2.2740  2.9130
 3895TIP3   OH235879   0.530   0.622   0.553  0.0284  0.0485 -0.0523
 3895TIP3    H135880   0.592   0.609   0.481 -0.6812  1.8851 -1.0633
 3895TIP3    H235881   0.455   0.568   0.530  1.0807 -2.0373  1.0836
 3896TIP3   OH235882   3.535   0.863   0.605 -0.0811 -0.6523  0.3227
 3896TIP3    H135883   3.553   0.769   0.604 -0.3874 -0.7199  0.6585
 3896TIP3    H235884   3.535   0.889   0.513  3.0737 -0.3512  0.3149
 3897TIP3   OH235885   0.293   0.781   9.626  0.3230  0.2333 -0.0533
 3897TIP3    H135886   0.375   0.740   9.598  0.2142 -0.1544  0.1941
 3897TIP3    H235887   0.234   0.772   9.551  0.1527 -0.4678  0.1573
 3898TIP3   OH235888   5.036   6.909   2.065 -0.2617  0.0275 -0.2803
 3898TIP3    H135889   4.951   6.880   2.099  1.2413 -2.6913  1.6099
 3898TIP3    H235890   5.077   6.954   2.139  0.3852  0.2769 -0.7820
 3899TIP3   OH235891   1.779   0.359   0.654  0.6479  0.4154 -0.0268
 3899TIP3    H135892   1.722   0.294   0.612  0.7717 -0.0345  0.4973
 3899TIP3    H235893   1.784   0.430   0.591 -2.5608  1.6251  0.8822
 3900TIP3   OH235894   3.077   5.292   8.933 -0.2803  0.4494 -0.0926
 3900TIP3    H135895   3.149   5.229   8.923  0.6132  1.4584 -0.1355
 3900TIP3    H235896   3.074   5.338   8.849 -0.0865  1.3344  0.3857
 3901TIP3   OH235897   4.358   0.910   9.509 -0.0230  0.1207  0.5266
 3901TIP3    H135898   4.316   0.877   9.429 -0.5366  0.0229  0.8300
 3901TIP3    H235899   4.294   0.970   9.547  1.0601  1.8187 -0.2194
 3902TIP3   OH235900   7.204   1.751   0.852 -0.0479 -0.0935 -0.3317
 3902TIP3    H135901   7.281   1.788   0.809  0.2527 -0.5419 -0.1865
 3902TIP3    H235902   7.239   1.692   0.919 -0.5040  0.9615  0.8777
 3903TIP3   OH235903   2.799   3.317   2.769 -0.0778  0.2000 -0.1324
 3903TIP3    H135904   2.759   3.403   2.755  2.3157  2.1379  3.2184
 3903TIP3    H235905   2.886   3.324   2.728 -0.8096 -1.7126 -2.1535
 3904TIP3   OH235906   3.517   3.009   9.794  1.2726  0.3549  0.5121
 3904TIP3    H135907   3.439   3.050   9.830 -0.4486  0.0476 -2.5049
 3904TIP3    H235908   3.534   2.934   9.851 -1.5573 -0.4149  0.4876
 3905TIP3   OH235909   0.702   2.384   0.629 -0.0427  0.3652  0.3789
 3905TIP3    H135910   0.634   2.317   0.640  0.7059 -0.9845 -2.4389
 3905TIP3    H235911   0.657   2.455   0.583  0.0290  0.2146  0.0740
 3906TIP3   OH235912   5.031   4.498   0.056  0.2367  0.1053  0.2013
 3906TIP3    H135913   5.078   4.435   0.110  1.2395 -0.1067 -0.9011
 3906TIP3    H235914   5.067   4.583   0.081  2.1851 -0.1442 -1.5149
 3907TIP3   OH235915   4.718   0.345   7.697 -0.6701  0.1461 -0.1150
 3907TIP3    H135916   4.679   0.394   7.770  0.9549  0.0046  0.8956
 3907TIP3    H235917   4.687   0.391   7.619 -1.5760  0.9594  0.6869
 3908TIP3   OH235918   1.878   2.051   3.229  0.4480  0.1287  0.3334
 3908TIP3    H135919   1.883   1.996   3.307 -1.3943  0.3534  0.6774
 3908TIP3    H235920   1.866   2.140   3.263  0.3506  0.3260 -0.2012
 3909TIP3   OH235921   5.322   7.215   8.865 -0.1470  0.2872 -0.0471
 3909TIP3    H135922   5.388   7.213   8.796 -0.0533  0.8533  0.0213
 3909TIP3    H235923   5.290   7.125   8.870 -0.8548  0.4251 -1.5074
 3910TIP3   OH235924   1.423   1.143   2.100 -0.4104 -0.6890 -0.2383
 3910TIP3    H135925   1.333   1.155   2.070 -0.7384  0.2660  1.0315
 3910TIP3    H235926   1.476   1.186   2.033 -0.8736 -1.3926 -1.0724
 3911TIP3   OH235927   5.949   6.506   0.891 -0.3309  0.1522  0.4418
 3911TIP3    H135928   6.011   6.573   0.918 -2.0337  2.5089 -1.0652
 3911TIP3    H235929   5.977   6.427   0.937  2.2681  1.6675  1.6881
 3912TIP3   OH235930   0.744   2.674   0.567 -0.1710  0.1194 -0.5092
 3912TIP3    H135931   0.716   2.751   0.616  0.6294 -0.8663  1.6458
 3912TIP3    H235932   0.792   2.709   0.493  0.2243  1.7083  0.4412
 3913TIP3   OH235933   6.809   0.027   0.829  0.3836 -0.0464  0.3827
 3913TIP3    H135934   6.803   0.072   0.913  0.9800  0.1323  0.3385
 3913TIP3    H235935   6.770   0.087   0.766 -0.9255 -0.5738  0.6589
 3914TIP3   OH235936   4.322   3.974   1.278 -0.0378 -0.1469 -0.9323
 3914TIP3    H135937   4.277   4.007   1.355  0.8342  0.4706 -0.6826
 3914TIP3    H235938   4.397   3.926   1.312 -0.6754 -1.4863 -1.3363
 3915TIP3   OH235939   0.430   4.718   9.967  0.5272  0.4557 -0.4219
 3915TIP3    H135940   0.390   4.804   9.965  1.5031  0.9225 -0.7220
 3915TIP3    H235941   0.430   4.689   9.876 -1.1224 -0.5284 -0.1592
 3916TIP3   OH235942   6.625   3.395   8.733  0.4572  0.1487  0.5648
 3916TIP3    H135943   6.651   3.353   8.651 -1.9533  0.6886 -0.5694
 3916TIP3    H235944   6.655   3.335   8.801  1.3493 -0.9846 -0.7575
 3917TIP3   OH235945   6.350   5.542   1.475 -0.2656 -0.4286 -0.1654
 3917TIP3    H135946   6.389   5.466   1.518 -0.3940  0.7891  2.2814
 3917TIP3    H235947   6.291   5.505   1.410 -1.8401 -2.5484  2.2635
 3918TIP3   OH235948   0.373   2.838   8.812 -0.5713  0.0842 -0.9553
 3918TIP3    H135949   0.406   2.833   8.902 -1.1469 -0.3866 -0.7659
 3918TIP3    H235950   0.437   2.787   8.761 -1.4750 -1.6362 -0.4387
 3919TIP3   OH235951   7.215   5.089   9.849  0.0928 -0.3672 -0.3248
 3919TIP3    H135952   7.167   5.172   9.843  0.3607 -0.3015 -1.8072
 3919TIP3    H235953   7.159   5.026   9.804  0.9413 -0.4938 -1.2245
 3920TIP3   OH235954   0.156   4.039   1.620  0.3650 -0.0532  0.2768
 3920TIP3    H135955   0.209   4.057   1.542 -0.9613  0.7527 -0.4821
 3920TIP3    H235956   0.189   4.100   1.686  0.7225  0.0831 -0.0216
 3921TIP3   OH235957   5.382   3.362   9.841 -0.2543  0.2943 -0.0112
 3921TIP3    H135958   5.331   3.413   9.903  2.6241  1.9485  1.1791
 3921TIP3    H235959   5.435   3.426   9.794  0.4457 -1.2754 -1.4993
 3922TIP3   OH235960   0.817   2.545   0.001  0.4668  0.1735  0.5816
 3922TIP3    H135961   0.752   2.602   0.041  0.4570  0.1627  0.5807
 3922TIP3    H235962   0.853   2.597  -0.071 -0.7846 -0.4538 -0.5507
 3923TIP3   OH235963   7.256   1.149   0.227 -0.1566  0.0632 -0.6734
 3923TIP3    H135964   7.281   1.139   0.319 -1.3855  0.1971 -0.3040
 3923TIP3    H235965   7.332   1.192   0.186  0.6894 -0.6427  0.1103
 3924TIP3   OH235966   6.255   5.565   9.107 -0.2666 -0.3205  0.0740
 3924TIP3    H135967   6.209   5.495   9.061  1.4612 -0.7744 -1.0524
 3924TIP3    H235968   6.210   5.573   9.191 -0.1883 -3.1486  0.4646
 3925TIP3   OH235969   3.482   5.884   1.258  0.0965  0.0557 -0.3902
 3925TIP3    H135970   3.461   5.792   1.248 -0.5699  0.1801 -0.1943
 3925TIP3    H235971   3.423   5.915   1.327 -0.2875  0.8176 -1.0366
 3926TIP3   OH235972   4.146   0.085   0.684 -0.8554  0.2730  0.1668
 3926TIP3    H135973   4.081   0.082   0.755  1.6168 -0.0767  2.5770
 3926TIP3    H235974   4.231   0.087   0.729  0.8840 -0.3254 -2.8195
 3927TIP3   OH235975   2.804   1.236   8.148  0.2308  0.2348 -0.1378
 3927TIP3    H135976   2.770   1.166   8.092  0.7102  1.2224 -1.7631
 3927TIP3    H235977   2.736   1.303   8.146  0.1908  0.2163  0.5981
 3928TIP3   OH235978   2.560   5.372   2.280 -0.5750  0.2674  0.0189
 3928TIP3    H135979   2.626   5.400   2.217  0.2233  2.1882  1.5927
 3928TIP3    H235980   2.609   5.320   2.344 -0.9870 -0.0148  0.1106
 3929TIP3   OH235981   4.754   6.854   7.946  0.2738  0.6267  0.2082
 3929TIP3    H135982   4.743   6.766   7.910 -1.4923  0.2779  1.4583
 3929TIP3    H235983   4.705   6.853   8.029  0.8243  2.5671  0.6269
 3930TIP3   OH235984   5.950   2.904   2.385  0.6013  0.1082  0.3716
 3930TIP3    H135985   5.915   2.833   2.440  0.2117 -0.3370 -0.4227
 3930TIP3    H235986   5.892   2.978   2.402  0.7893  0.1250  0.9396
 3931TIP3   OH235987   5.699   2.221   1.200  0.4428 -0.3423  0.2955
 3931TIP3    H135988   5.678   2.152   1.137 -0.8235  0.4984 -0.2455
 3931TIP3    H235989   5.614   2.247   1.237  1.0046  0.2304  1.2252
 3932TIP3   OH235990   5.497   5.405   0.492  0.0666 -0.3684  0.0481
 3932TIP3    H135991   5.416   5.451   0.466  1.9016  1.3865 -3.3222
 3932TIP3    H235992   5.496   5.325   0.439  1.5259  0.8450 -1.9864
 3933TIP3   OH235993   5.592   2.691   8.068 -0.0924 -0.5204 -0.7074
 3933TIP3    H135994   5.646   2.612   8.067  0.5943 -0.0575 -0.9972
 3933TIP3    H235995   5.649   2.759   8.103 -1.5312 -0.7365  2.3902
 3934TIP3   OH235996   2.072   1.061   9.683 -0.0520 -0.3414  0.0284
 3934TIP3    H135997   2.114   0.975   9.696  3.8691  1.2683 -0.5429
 3934TIP3    H235998   2.096   1.111   9.761 -0.9066  0.7284 -0.3768
 3935TIP3   OH235999   0.701   0.094   1.073  0.3798 -0.0808  0.2261
 3935TIP3    H136000   0.665   0.120   0.989 -1.1940 -0.7019  0.6645
 3935TIP3    H236001   0.746   0.011   1.056  1.7986  0.7721 -0.3547
 3936TIP3   OH236002   6.616   6.803   0.977 -0.0190 -0.1125  0.1736
 3936TIP3    H136003   6.668   6.726   1.001 -0.1298 -0.2791 -0.1259
 3936TIP3    H236004   6.534   6.792   1.025  1.1504  1.4479  2.7732
 3937TIP3   OH236005   2.056   0.554   2.384  0.3817 -0.6734  0.1866
 3937TIP3    H136006   2.017   0.615   2.447 -1.1988  0.0515 -1.4073
 3937TIP3    H236007   2.121   0.606   2.338  0.0276 -0.5908 -0.2207
 3938TIP3   OH236008   6.362   3.844   1.225  0.8024  0.3148  0.0378
 3938TIP3    H136009   6.397   3.831   1.314 -0.4493  1.8747  0.7919
 3938TIP3    H236010   6.285   3.899   1.237 -0.7529 -1.3123 -1.7927
 3939TIP3   OH236011   7.161   2.614   9.345 -0.2032  1.0094  0.5182
 3939TIP3    H136012   7.253   2.635   9.357 -0.4499  1.3335  1.9970
 3939TIP3    H236013   7.162   2.536   9.288  1.0040  0.6339  1.0179
 3940TIP3   OH236014   3.617   5.214   7.569 -0.5188 -0.1579 -0.2231
 3940TIP3    H136015   3.681   5.283   7.585 -0.2756 -0.3706 -0.2745
 3940TIP3    H236016   3.608   5.211   7.474  0.3825 -1.0187 -0.2921
 3941TIP3   OH236017   5.516   6.229   2.659  0.4098 -0.1414 -0.9992
 3941TIP3    H136018   5.469   6.309   2.635 -0.1824 -0.3330 -0.5207
 3941TIP3    H236019   5.446   6.166   2.678  0.8440 -1.1533 -2.5765
 3942TIP3   OH236020   6.122   1.383   0.322 -0.0566  0.5930  0.5404
 3942TIP3    H136021   6.047   1.387   0.262 -0.1245  0.5275  0.6193
 3942TIP3    H236022   6.099   1.444   0.392  0.2199  1.0005  0.2801
 3943TIP3   OH236023   4.702   7.360   2.439  0.3180  0.0616 -0.2891
 3943TIP3    H136024   4.710   7.307   2.359 -0.4850 -0.5384  0.0138
 3943TIP3    H236025   4.726   7.448   2.411  1.0795 -0.3379 -0.9487
 3944TIP3   OH236026   2.426   5.283   0.423 -0.3410 -0.4091  0.2092
 3944TIP3    H136027   2.508   5.234   0.437  0.3148  0.7413  0.5397
 3944TIP3    H236028   2.454   5.364   0.381 -1.3811 -0.2047 -0.1158
 3945TIP3   OH236029   6.439   6.135   8.955 -0.0320  0.0970 -0.0106
 3945TIP3    H136030   6.369   6.077   8.985  0.8549 -0.9169  0.1878
 3945TIP3    H236031   6.486   6.160   9.035  0.6883 -0.4012 -0.2633
 3946TIP3   OH236032   1.504   5.387   8.513 -0.1390 -0.5170 -0.2812
 3946TIP3    H136033   1.513   5.468   8.463 -0.8309 -0.8438 -0.9571
 3946TIP3    H236034   1.416   5.355   8.492 -0.4186 -0.7200  1.0800
 3947TIP3   OH236035   2.163   6.258   6.991 -0.0205  0.5179 -0.4226
 3947TIP3    H136036   2.189   6.349   7.001 -1.6918  1.1899 -1.6052
 3947TIP3    H236037   2.152   6.247   6.896  0.1400 -0.9162 -0.2919
 3948TIP3   OH236038   5.311   2.568   1.240  0.0033 -0.6502 -0.1298
 3948TIP3    H136039   5.306   2.577   1.145 -0.8500  0.0398 -0.0428
 3948TIP3    H236040   5.403   2.554   1.259  0.7830  2.7119 -0.8100
 3949TIP3   OH236041   7.307   6.436   9.873  0.7784  0.0793 -0.6266
 3949TIP3    H136042   7.346   6.484   9.946  1.6710 -1.6836  0.1188
 3949TIP3    H236043   7.379   6.387   9.834  0.0834  0.0302 -1.9454
 3950TIP3   OH236044   1.308   1.573   8.793  0.9321 -0.2286 -0.2325
 3950TIP3    H136045   1.367   1.647   8.788  1.4131 -0.5670  0.3444
 3950TIP3    H236046   1.330   1.519   8.717  0.5946  0.1969 -0.6416
 3951TIP3   OH236047   6.133   4.525   7.888  0.6364  0.0118 -0.4533
 3951TIP3    H136048   6.183   4.503   7.967 -0.4492 -1.7641 -0.2044
 3951TIP3    H236049   6.048   4.554   7.921  0.8671  1.2909 -0.9315
 3952TIP3   OH236050   3.449   5.819   7.400 -0.3508  0.3576 -0.4209
 3952TIP3    H136051   3.409   5.837   7.314 -0.2143 -0.6897 -0.7153
 3952TIP3    H236052   3.386   5.762   7.444  0.2432 -0.2916 -0.3999
 3953TIP3   OH236053   3.851   0.611   8.859  0.0479 -0.1906 -0.1179
 3953TIP3    H136054   3.805   0.527   8.851 -0.9865  0.3332  0.1703
 3953TIP3    H236055   3.914   0.610   8.787 -3.0492  0.6799 -3.1650
 3954TIP3   OH236056   2.046   0.963   6.889 -0.2983 -0.0047 -0.4624
 3954TIP3    H136057   2.112   0.909   6.845 -1.0841 -0.9844 -0.4853
 3954TIP3    H236058   1.965   0.913   6.881 -0.7076  0.3600  1.0463
 3955TIP3   OH236059   4.618   5.332   1.099  0.3437  0.3587 -0.1129
 3955TIP3    H136060   4.538   5.291   1.067  1.1453  0.6181 -2.6732
 3955TIP3    H236061   4.588   5.397   1.163 -1.3419 -0.5776  0.0867
 3956TIP3   OH236062   3.480   3.769   1.577 -0.4780 -0.6064  0.1916
 3956TIP3    H136063   3.536   3.846   1.590 -1.1625 -0.3241  1.6714
 3956TIP3    H236064   3.526   3.718   1.510  0.7567  0.3588  0.2502
 3957TIP3   OH236065   5.600   7.262   9.085 -0.3261 -0.4363  0.2649
 3957TIP3    H136066   5.601   7.341   9.032 -0.9452 -0.1438  0.6798
 3957TIP3    H236067   5.646   7.197   9.032 -1.1272 -0.2211 -0.7271
 3958TIP3   OH236068   5.494   1.826   9.522 -0.1146 -0.4672 -0.2759
 3958TIP3    H136069   5.530   1.820   9.433 -1.6004 -0.2352 -0.9129
 3958TIP3    H236070   5.411   1.779   9.518  0.7453 -2.3070  1.5594
 3959TIP3   OH236071   6.106   1.577   7.735 -0.4172  0.4779  0.4342
 3959TIP3    H136072   6.162   1.645   7.698  0.0911  0.0517  0.4135
 3959TIP3    H236073   6.025   1.582   7.684  0.6818 -0.8765 -1.5982
 3960TIP3   OH236074   7.308   5.318   0.277 -0.3095 -0.6224  0.4194
 3960TIP3    H136075   7.283   5.407   0.254  1.1278  0.0311  1.2372
 3960TIP3    H236076   7.355   5.285   0.200  1.2024  0.2098  0.9321
 3961TIP3   OH236077   3.530   3.040   0.224 -0.1774 -0.2264 -0.5027
 3961TIP3    H136078   3.523   3.116   0.168 -1.2858  0.4683  0.5353
 3961TIP3    H236079   3.580   2.976   0.173 -0.7047  0.5671 -2.0462
 3962TIP3   OH236080   2.848   5.946   0.018 -0.4266 -0.2072  0.4436
 3962TIP3    H136081   2.794   6.025   0.023 -0.5054 -0.1811 -0.5265
 3962TIP3    H236082   2.938   5.979   0.021 -0.3743  0.2242 -2.4104
 3963TIP3   OH236083   2.884   1.602   7.336 -0.2101 -0.0140  0.1374
 3963TIP3    H136084   2.863   1.693   7.354  0.6565  0.2123  0.0563
 3963TIP3    H236085   2.811   1.571   7.281  0.1802  1.0464 -1.0338
 3964TIP3   OH236086   1.729   3.209   8.766 -0.0073  0.1000 -0.2446
 3964TIP3    H136087   1.731   3.116   8.789 -1.5908  0.2870  0.8555
 3964TIP3    H236088   1.646   3.220   8.719  0.4965  0.8281 -0.9768
 3965TIP3   OH236089   0.340   2.780   0.477 -0.2317  0.3457 -0.4948
 3965TIP3    H136090   0.375   2.696   0.504 -0.7085  0.7547  1.5555
 3965TIP3    H236091   0.416   2.838   0.473 -0.0723  0.1260 -0.6995
 3966TIP3   OH236092   2.158   3.546   0.780  0.4979  0.1834  0.2181
 3966TIP3    H136093   2.103   3.570   0.854 -0.2584  0.0649 -0.2909
 3966TIP3    H236094   2.128   3.603   0.709  0.0785 -0.8226 -0.4370
 3967TIP3   OH236095   2.473   7.164   8.387  0.3630 -0.3327 -0.2487
 3967TIP3    H136096   2.565   7.190   8.381 -0.1293  2.8692  2.5991
 3967TIP3    H236097   2.434   7.194   8.305  1.7852 -1.8617 -1.5537
 3968TIP3   OH236098   0.840   5.251   2.709  0.4708 -0.1415 -0.4293
 3968TIP3    H136099   0.935   5.240   2.709  0.3132 -2.2140  1.2029
 3968TIP3    H236100   0.827   5.346   2.721  2.3520  0.0478  0.6065
 3969TIP3   OH236101   0.450   0.515   1.996 -0.6294 -0.3610  0.2337
 3969TIP3    H136102   0.432   0.468   2.077 -1.2012  1.3462  1.1376
 3969TIP3    H236103   0.545   0.526   1.995 -0.6052 -0.5212  0.5914
 3970TIP3   OH236104   3.606   6.965   7.966  0.4936 -0.0935  0.2950
 3970TIP3    H136105   3.652   7.007   7.894  0.6517  0.4826  0.7250
 3970TIP3    H236106   3.613   6.871   7.948  3.1589 -0.1278  1.1307
 3971TIP3   OH236107   1.057   7.472   8.909  0.2692 -0.6978  0.3393
 3971TIP3    H136108   1.093   7.453   8.995 -0.9777 -0.4802  0.9454
 3971TIP3    H236109   0.962   7.465   8.921  0.0915 -1.3503 -1.1856
 3972TIP3   OH236110   4.939   4.551   8.993  0.3301 -0.1360 -0.2993
 3972TIP3    H136111   5.009   4.581   9.051 -0.8980 -0.7062  1.5810
 3972TIP3    H236112   4.905   4.472   9.035 -2.3068  0.8464 -0.4024
 3973TIP3   OH236113   4.629   0.644   8.268  0.5222  0.3243  0.2498
 3973TIP3    H136114   4.576   0.568   8.244 -1.3762  1.4580  0.6403
 3973TIP3    H236115   4.707   0.637   8.212  0.3699 -1.8262  0.2193
 3974TIP3   OH236116   6.952   4.020   1.458 -0.1089  0.3006  0.0694
 3974TIP3    H136117   6.996   3.953   1.406  1.7495  0.2322  1.6231
 3974TIP3    H236118   7.023   4.067   1.501 -1.5348  0.5902  2.2452
 3975TIP3   OH236119   0.928   5.716   0.680 -0.0589  0.1370 -0.2493
 3975TIP3    H136120   0.868   5.733   0.752 -0.9241 -0.8281 -0.7209
 3975TIP3    H236121   0.924   5.795   0.626 -0.8308  0.1203 -0.2246
 3976TIP3   OH236122   6.699   2.550   9.577 -0.1294  0.0922  0.1168
 3976TIP3    H136123   6.783   2.569   9.535  0.1008 -1.3544 -0.1299
 3976TIP3    H236124   6.661   2.636   9.595  1.0644  0.7600 -0.4489
 3977TIP3   OH236125   5.648   7.009   2.535 -0.0974  0.6150  0.1727
 3977TIP3    H136126   5.686   7.095   2.521 -0.0013  0.5994  0.3416
 3977TIP3    H236127   5.721   6.948   2.527 -0.4009  0.4231 -1.3654
 3978TIP3   OH236128   1.242   6.264   1.334 -0.4792  0.1104  0.3511
 3978TIP3    H136129   1.235   6.355   1.304  0.8558  0.6137  1.4619
 3978TIP3    H236130   1.322   6.262   1.386 -1.0274 -1.4658  1.1994
 3979TIP3   OH236131   5.061   1.641   7.948  0.0388 -0.1411 -0.0875
 3979TIP3    H136132   5.110   1.654   7.866  1.2381 -0.4887  0.5478
 3979TIP3    H236133   5.129   1.639   8.016 -1.0185  1.2614  1.0643
 3980TIP3   OH236134   0.804   2.100   0.581  0.3558  0.5392  0.4592
 3980TIP3    H136135   0.792   2.177   0.524 -3.0915 -1.8064 -2.3959
 3980TIP3    H236136   0.892   2.069   0.560  0.5615  1.8774 -0.8629
 3981TIP3   OH236137   5.110   3.951   8.900  0.4184  0.2059  0.2818
 3981TIP3    H136138   5.067   3.939   8.816 -1.3006  0.6016  1.0659
 3981TIP3    H236139   5.114   3.862   8.937 -2.7164  0.4612  1.5480
 3982TIP3   OH236140   5.814   2.508   0.155 -0.1799  0.6844  0.2850
 3982TIP3    H136141   5.721   2.503   0.177 -0.6493  2.4320 -1.0820
 3982TIP3    H236142   5.820   2.576   0.088  1.6992 -1.3882 -1.8449
 3983TIP3   OH236143   7.205   2.733   8.850 -0.3631 -0.5938  0.5600
 3983TIP3    H136144   7.117   2.756   8.880 -1.3121 -2.2049 -0.8193
 3983TIP3    H236145   7.206   2.757   8.758  0.7689 -0.3256  0.6274
 3984TIP3   OH236146   6.313   5.894   7.461  0.2651 -0.2140  0.0714
 3984TIP3    H136147   6.349   5.884   7.549 -0.9130  2.9853  1.0509
 3984TIP3    H236148   6.231   5.844   7.463  1.0013 -1.4637  0.2153
 3985TIP3   OH236149   5.274   5.676   9.019  0.6997 -0.0080 -0.1020
 3985TIP3    H136150   5.348   5.722   8.979  0.6292 -0.2516 -0.5249
 3985TIP3    H236151   5.233   5.630   8.946 -0.0303  0.3416  0.0822
 3986TIP3   OH236152   1.671   2.598   2.695 -0.5188  0.0044  0.1631
 3986TIP3    H136153   1.623   2.568   2.772 -1.4236  0.0285 -0.3706
 3986TIP3    H236154   1.652   2.532   2.628 -0.9933  0.7519 -0.4703
 3987TIP3   OH236155   7.418   3.946   9.130 -0.2997  0.0608 -0.2362
 3987TIP3    H136156   7.457   4.034   9.138  2.4284 -1.0440 -0.2822
 3987TIP3    H236157   7.407   3.934   9.036  0.0564  0.0485 -0.2759
 3988TIP3   OH236158   2.403   5.335   7.632  0.3991  0.4589 -0.0938
 3988TIP3    H136159   2.437   5.256   7.589  0.9550  0.4541  0.3411
 3988TIP3    H236160   2.459   5.346   7.709 -1.5970 -0.5236  1.6184
 3989TIP3   OH236161   5.139   5.838   0.706  0.3569  0.3248 -0.3777
 3989TIP3    H136162   5.211   5.826   0.644  2.4435  2.0764  1.5132
 3989TIP3    H236163   5.063   5.855   0.652  1.9245  1.0456 -2.4799
 3990TIP3   OH236164   2.086   5.294   9.960  0.0492  0.0061 -0.1588
 3990TIP3    H136165   2.088   5.371   9.903 -1.1169 -1.1578 -1.8653
 3990TIP3    H236166   2.160   5.306  10.019  1.0166  1.5166 -1.5936
 3991TIP3   OH236167   6.853   1.698   8.473 -0.2599 -0.0657 -0.1391
 3991TIP3    H136168   6.847   1.786   8.512  1.2699 -0.3126  0.7391
 3991TIP3    H236169   6.784   1.648   8.516 -0.1219  0.3059  0.5315
 3992TIP3   OH236170   5.041   6.359   7.103 -0.6973  0.8155 -0.4639
 3992TIP3    H136171   4.967   6.325   7.154 -0.1659 -0.0364 -0.2470
 3992TIP3    H236172   5.115   6.305   7.129 -0.4339  0.2627 -2.2233
 3993TIP3   OH236173   7.320   0.468   1.448 -0.2082 -0.0057 -0.3418
 3993TIP3    H136174   7.334   0.562   1.435 -2.1806  0.4355  0.4035
 3993TIP3    H236175   7.270   0.463   1.530  1.7459 -1.8829  0.8558
 3994TIP3   OH236176   4.118   3.418   8.902  0.5896 -0.2933  0.6482
 3994TIP3    H136177   4.131   3.505   8.941  0.4099  0.4352 -0.8672
 3994TIP3    H236178   4.054   3.376   8.959 -0.8439  1.3223  0.3133
 3995TIP3   OH236179   0.823   2.043   8.530  0.1516  0.4429  0.1488
 3995TIP3    H136180   0.838   2.033   8.436 -0.6515  1.6902 -0.1315
 3995TIP3    H236181   0.861   1.964   8.568  2.3608  0.8554 -1.0075
 3996TIP3   OH236182   5.385   1.838   9.906 -0.1600  0.0008  0.1991
 3996TIP3    H136183   5.400   1.781   9.831  0.2391  1.2018 -0.6583
 3996TIP3    H236184   5.431   1.919   9.885 -3.8704  2.2047 -0.4769
 3997TIP3   OH236185   5.895   5.887   1.065 -0.0527 -0.0143 -0.4374
 3997TIP3    H136186   5.864   5.907   1.153 -0.6294  1.1856 -0.8925
 3997TIP3    H236187   5.987   5.912   1.065 -0.0248 -0.1107 -0.1564
 3998TIP3   OH236188   0.862   6.993   7.406  0.4705  0.0102 -0.3207
 3998TIP3    H136189   0.797   7.033   7.464 -0.2268 -2.4760  0.7255
 3998TIP3    H236190   0.845   7.033   7.321 -1.4347  0.5331  0.2591
 3999TIP3   OH236191   7.356   6.986   9.502  0.7344 -0.1727  0.4732
 3999TIP3    H136192   7.302   7.034   9.565  0.6196 -0.8209  0.8779
 3999TIP3    H236193   7.407   7.054   9.458  0.6542  0.3109  1.1102
 4000TIP3   OH236194   5.030   5.636   0.477 -0.2482  0.4159 -0.8440
 4000TIP3    H136195   4.997   5.575   0.543 -0.4208  0.6947 -0.6706
 4000TIP3    H236196   4.962   5.704   0.471 -0.3339  0.2807 -1.4610
 4001TIP3   OH236197   2.129   1.176   1.659  0.2993 -0.1330 -0.5747
 4001TIP3    H136198   2.201   1.115   1.675 -0.6226 -0.8765  0.9655
 4001TIP3    H236199   2.130   1.235   1.734 -1.5083 -1.0070  0.1972
 4002TIP3   OH236200   4.424   2.493   8.835  0.4801 -0.1300 -0.2454
 4002TIP3    H136201   4.499   2.526   8.785 -0.5273  1.5795 -0.6968
 4002TIP3    H236202   4.444   2.516   8.925  0.6917 -0.0484 -0.3123
 4003TIP3   OH236203   0.259   3.579   0.603 -0.1134  0.3173  0.3715
 4003TIP3    H136204   0.341   3.549   0.563 -0.5972 -1.5309  0.6628
 4003TIP3    H236205   0.225   3.501   0.648 -2.1947  0.9448 -0.0283
 4004TIP3   OH236206   0.671   7.297   9.136  0.0900  0.1258 -0.0425
 4004TIP3    H136207   0.618   7.323   9.212  3.2321 -1.8482  3.1806
 4004TIP3    H236208   0.697   7.380   9.096  1.8445  1.7587  3.8599
 4005TIP3   OH236209   3.193   5.018   0.914 -0.6158  0.3398 -0.3709
 4005TIP3    H136210   3.169   5.070   0.991  0.8289 -0.8791  0.9613
 4005TIP3    H236211   3.184   4.927   0.943 -0.3451 -0.1460 -1.7460
 4006TIP3   OH236212   2.878   4.058   1.838  0.7181  0.1734 -0.0323
 4006TIP3    H136213   2.928   3.994   1.787  0.4024  0.1333 -0.3013
 4006TIP3    H236214   2.867   4.016   1.924  0.0489 -0.3860 -0.3741
 4007TIP3   OH236215   3.329   3.603   1.751 -0.0691  0.3149  0.7280
 4007TIP3    H136216   3.317   3.653   1.832  0.8922  0.4311  0.8165
 4007TIP3    H236217   3.375   3.664   1.692  0.2963 -0.1579  0.5141
 4008TIP3   OH236218   5.337   6.905   9.755  0.3266 -0.1495 -0.0893
 4008TIP3    H136219   5.430   6.915   9.735  0.1776  0.8507 -0.3528
 4008TIP3    H236220   5.298   6.874   9.674  0.4802 -0.9130  0.1245
 4009TIP3   OH236221   5.140   7.212   7.322  0.4680 -0.1428  0.3290
 4009TIP3    H136222   5.099   7.223   7.236 -1.0330 -1.2436  0.8646
 4009TIP3    H236223   5.118   7.291   7.370 -1.4005 -0.8303  0.7072
 4010TIP3   OH236224   3.660   4.584   8.137 -0.2114 -0.5793 -0.2958
 4010TIP3    H136225   3.573   4.572   8.098 -0.7240 -0.9703  0.9240
 4010TIP3    H236226   3.647   4.648   8.206  0.4432 -0.7421 -0.0176
 4011TIP3   OH236227   4.569   4.075   0.140 -0.1769  0.3368 -0.8046
 4011TIP3    H136228   4.537   4.022   0.213  0.0574  0.5943 -0.5171
 4011TIP3    H236229   4.661   4.052   0.132 -0.3464 -0.1745 -1.4405
 4012TIP3   OH236230   1.629   1.417   9.687  0.2850 -0.0207 -0.2363
 4012TIP3    H136231   1.569   1.375   9.748 -0.1494  0.6218 -0.2022
 4012TIP3    H236232   1.716   1.385   9.712 -0.0556 -1.1397 -0.4334
 4013TIP3   OH236233   6.052   5.603   8.274 -0.0292 -0.1792 -0.9462
 4013TIP3    H136234   6.147   5.594   8.262  0.2561 -0.3530  1.0857
 4013TIP3    H236235   6.014   5.551   8.204  1.3681  0.0005 -1.8798
 4014TIP3   OH236236   6.207   1.786   7.608  0.1399  0.1190 -0.7586
 4014TIP3    H136237   6.294   1.824   7.596  0.2640 -0.1178 -0.6101
 4014TIP3    H236238   6.152   1.860   7.635  0.8663 -0.1678  1.8128
 4015TIP3   OH236239   0.999   0.157   8.435  0.2138  0.1628  0.2134
 4015TIP3    H136240   1.038   0.182   8.351  2.5586 -0.2789  1.0858
 4015TIP3    H236241   0.978   0.241   8.477 -0.9735  0.3857 -0.7778
 4016TIP3   OH236242   7.426   6.174   9.167  0.1699 -0.5756 -0.2626
 4016TIP3    H136243   7.383   6.170   9.081 -0.3507  0.3271 -0.0613
 4016TIP3    H236244   7.519   6.169   9.148  0.0437 -0.7131 -0.8621
 4017TIP3   OH236245   6.288   3.825   9.424  0.2101  0.2458  0.0427
 4017TIP3    H136246   6.204   3.859   9.454 -1.3839 -2.8824 -0.4554
 4017TIP3    H236247   6.284   3.831   9.329  0.4402 -0.1122  0.0062
 4018TIP3   OH236248   6.665   4.374   0.624 -0.4261  0.6524 -0.0532
 4018TIP3    H136249   6.699   4.374   0.713 -1.5776 -0.1959  0.3983
 4018TIP3    H236250   6.732   4.328   0.573  0.0168  0.7211  0.4608
 4019TIP3   OH236251   5.981   2.214   8.863  0.8182  0.3573 -0.2479
 4019TIP3    H136252   5.989   2.309   8.876 -0.6713  0.5844 -0.8916
 4019TIP3    H236253   6.019   2.177   8.943  0.3429  1.5215  0.5482
 4020TIP3   OH236254   5.632   4.219   8.574  0.3064  0.3006 -0.4841
 4020TIP3    H136255   5.538   4.212   8.592  0.5008  1.2943  1.0431
 4020TIP3    H236256   5.669   4.255   8.654  2.0875 -0.5777 -0.8726
 4021TIP3   OH236257   0.190   6.414   2.645 -0.6575 -0.3280 -0.0311
 4021TIP3    H136258   0.270   6.432   2.595 -0.0926  0.3078  1.0748
 4021TIP3    H236259   0.157   6.332   2.607  0.3882 -0.4842 -0.6622
 4022TIP3   OH236260   6.876   4.888   2.690  0.2207  0.3745 -0.4267
 4022TIP3    H136261   6.787   4.911   2.663 -0.2339 -0.4047  0.3378
 4022TIP3    H236262   6.869   4.797   2.718  0.8108  0.9079  1.5887
 4023TIP3   OH236263   3.277   6.782   1.231  0.2821 -0.3530 -0.5934
 4023TIP3    H136264   3.203   6.741   1.275 -0.6300  0.1224 -1.6466
 4023TIP3    H236265   3.349   6.775   1.294 -1.2320  1.3236  1.4819
 4024TIP3   OH236266   1.813   7.113   9.961  0.2814 -0.1194  0.4015
 4024TIP3    H136267   1.845   7.202   9.948  0.9422 -0.3080  0.7046
 4024TIP3    H236268   1.756   7.119  10.038  0.8499 -0.0812  0.8247
 4025TIP3   OH236269   1.434   7.134   2.508  0.1987  0.1160 -0.0025
 4025TIP3    H136270   1.403   7.047   2.534  0.6266  0.0331  0.2465
 4025TIP3    H236271   1.391   7.194   2.568  0.5804 -0.0061  0.4001
 4026TIP3   OH236272   6.208   6.009   1.411 -0.3544  0.9256 -0.5060
 4026TIP3    H136273   6.249   5.926   1.386  1.1796  1.1214  1.1517
 4026TIP3    H236274   6.147   5.984   1.481  1.7269  1.3700  1.5942
 4027TIP3   OH236275   5.283   3.596   0.801 -0.0138 -0.3704  1.0133
 4027TIP3    H136276   5.365   3.629   0.837 -0.6338 -1.3545  3.5687
 4027TIP3    H236277   5.251   3.666   0.745  1.8743  0.5885  1.0687
 4028TIP3   OH236278   6.319   5.592   8.226  0.2459  0.1554 -0.0805
 4028TIP3    H136279   6.368   5.611   8.306  0.9728  1.3909 -0.7794
 4028TIP3    H236280   6.383   5.551   8.168  0.3275  1.2062 -0.7715
 4029TIP3   OH236281   3.731   6.175   9.728 -0.2562 -0.0508  0.4778
 4029TIP3    H136282   3.653   6.141   9.685  0.6556  0.0073 -1.3385
 4029TIP3    H236283   3.740   6.122   9.807 -0.4446 -2.1600 -0.8348
 4030TIP3   OH236284   0.438   5.880   1.993 -0.0242  0.4682 -0.1407
 4030TIP3    H136285   0.506   5.943   1.969  0.2774  0.0129 -0.5008
 4030TIP3    H236286   0.405   5.911   2.077 -0.1086  1.2876 -0.4696
 4031TIP3   OH236287   2.043   1.982   2.519  0.0318 -0.3028 -0.0059
 4031TIP3    H136288   2.090   2.064   2.535 -0.6465 -0.0700  0.8671
 4031TIP3    H236289   2.026   1.982   2.425 -0.9000  1.0797  0.1301
 4032TIP3   OH236290   0.018   1.550   9.554  0.1338  0.2367 -0.1909
 4032TIP3    H136291  -0.045   1.494   9.510  0.1060 -1.3756  1.7248
 4032TIP3    H236292   0.102   1.504   9.545  0.6511  1.2851 -0.9097
 4033TIP3   OH236293   4.092   6.260   6.890 -0.5843 -0.0364 -0.3153
 4033TIP3    H136294   4.174   6.228   6.928 -0.2975  1.7000  0.6210
 4033TIP3    H236295   4.025   6.202   6.926  0.0008 -0.1491  0.6470
 4034TIP3   OH236296   0.734   0.317   0.534  0.1277 -0.1607  0.0559
 4034TIP3    H136297   0.686   0.244   0.572  0.0688 -0.7408 -1.1081
 4034TIP3    H236298   0.686   0.339   0.454  1.0296  0.1339 -0.4163
 4035TIP3   OH236299   6.210   3.546   9.437  0.1942  0.3220 -0.1543
 4035TIP3    H136300   6.213   3.630   9.482  1.7292  1.2086 -1.7629
 4035TIP3    H236301   6.123   3.543   9.397  0.7302  2.0680 -1.5940
 4036TIP3   OH236302   2.961   1.759   8.407 -0.0178  0.6066  0.0110
 4036TIP3    H136303   2.927   1.671   8.426 -0.1079  0.4979 -0.6199
 4036TIP3    H236304   3.028   1.745   8.340 -0.7321  1.1214 -0.8276
 4037TIP3   OH236305   4.575   1.243   0.004 -0.2118  0.0447  0.0324
 4037TIP3    H136306   4.507   1.248  -0.063 -1.1369  0.8236  0.9997
 4037TIP3    H236307   4.527   1.241   0.087  0.9263 -0.2999  0.7021
 4038TIP3   OH236308   5.656   0.917   9.527 -0.1858 -0.5464  0.3112
 4038TIP3    H136309   5.720   0.868   9.580 -0.8132 -0.7818  0.8664
 4038TIP3    H236310   5.647   0.865   9.447 -0.5139 -1.1201  0.7086
 4039TIP3   OH236311   2.856   3.753   0.279 -0.2470 -0.1645 -0.2779
 4039TIP3    H136312   2.811   3.675   0.312  0.1246  0.3767  1.6676
 4039TIP3    H236313   2.793   3.824   0.294  0.1598  0.1812 -0.1746
 4040TIP3   OH236314   1.943   3.418   1.146  0.3244  0.1818  0.0782
 4040TIP3    H136315   1.941   3.386   1.237 -0.3118  1.6900  0.6339
 4040TIP3    H236316   1.893   3.353   1.097  1.5560 -1.2018  0.5887
 4041TIP3   OH236317   3.965   1.778   1.484 -0.3104  0.9123  0.2707
 4041TIP3    H136318   3.971   1.702   1.426  0.2911  0.9190  0.3204
 4041TIP3    H236319   4.027   1.842   1.447 -0.7034  1.3241  0.3119
 4042TIP3   OH236320   6.755   2.794   0.604 -0.3306 -0.1906 -0.0072
 4042TIP3    H136321   6.738   2.879   0.645  1.0482  0.2767 -0.3434
 4042TIP3    H236322   6.670   2.765   0.572 -0.5937  1.8083 -1.2633
 4043TIP3   OH236323   6.157   4.480   2.343 -0.0903 -0.2325 -0.1747
 4043TIP3    H136324   6.232   4.425   2.322  0.1361  0.0673 -0.1525
 4043TIP3    H236325   6.111   4.433   2.413 -0.1393 -0.6022 -0.4535
 4044TIP3   OH236326   0.568   5.568   8.870 -0.1460  0.5187  0.1990
 4044TIP3    H136327   0.507   5.619   8.816 -1.2393 -0.8800  0.0519
 4044TIP3    H236328   0.512   5.506   8.917  1.1981 -1.1350 -0.3037
 4045TIP3   OH236329   4.969   4.269   1.626  0.2611 -0.1031 -0.0243
 4045TIP3    H136330   4.927   4.292   1.542 -0.7898 -1.3955  0.1151
 4045TIP3    H236331   4.955   4.346   1.681  0.4398  0.5339 -0.8525
 4046TIP3   OH236332   0.368   6.845   0.042 -0.1879 -0.3015  0.4348
 4046TIP3    H136333   0.348   6.934   0.013 -1.3140 -0.7477 -0.2408
 4046TIP3    H236334   0.282   6.802   0.048  0.3224 -1.2795  0.9526
 4047TIP3   OH236335   4.298   2.634   1.818  0.4805 -0.6471  0.1839
 4047TIP3    H136336   4.264   2.616   1.730  1.0347 -0.5385 -0.0542
 4047TIP3    H236337   4.387   2.666   1.803  0.0659  0.8052  0.6837
 4048TIP3   OH236338   6.672   5.618   1.397  0.1734  0.4844  0.0043
 4048TIP3    H136339   6.721   5.648   1.474  0.4744  0.5663 -0.2186
 4048TIP3    H236340   6.697   5.679   1.328  1.4410 -0.7466 -0.6789
 4049TIP3   OH236341   0.656   6.778   7.411 -0.5310  0.0911 -0.1204
 4049TIP3    H136342   0.634   6.731   7.330 -2.0013 -0.1104  0.3585
 4049TIP3    H236343   0.584   6.840   7.424 -1.1754 -0.9618  1.8289
 4050TIP3   OH236344   2.101   0.802   2.774 -0.2479 -0.1260 -0.4325
 4050TIP3    H136345   2.170   0.754   2.820  0.2189  0.6208 -0.3417
 4050TIP3    H236346   2.051   0.844   2.844 -0.8472 -0.7177 -0.4943
 4051TIP3   OH236347   4.872   0.869   0.409 -0.4396  0.5059  0.1683
 4051TIP3    H136348   4.966   0.858   0.423  0.1246  0.8440 -2.7333
 4051TIP3    H236349   4.851   0.807   0.340 -2.0449  1.4494 -0.2445
 4052TIP3   OH236350   4.708   6.611   7.841 -0.0572 -0.4128  0.1336
 4052TIP3    H136351   4.614   6.629   7.847 -0.3849 -1.2576 -1.7819
 4052TIP3    H236352   4.714   6.517   7.829  1.0273 -0.3321 -0.0880
 4053TIP3   OH236353   0.870   2.718   9.787  0.0547  0.0370 -0.1616
 4053TIP3    H136354   0.937   2.739   9.721  0.3848 -2.2046 -0.6287
 4053TIP3    H236355   0.787   2.741   9.746  0.2420 -1.5178 -1.5105
 4054TIP3   OH236356   1.869   1.327   3.067  0.4220  0.2931  0.1240
 4054TIP3    H136357   1.784   1.296   3.098  1.0422 -0.5197  1.0908
 4054TIP3    H236358   1.923   1.330   3.145  0.8274  2.4394 -0.1996
 4055TIP3   OH236359   4.405   4.439   7.867  0.1449  0.3082  0.1442
 4055TIP3    H136360   4.366   4.432   7.954  0.5527  0.4611  0.3387
 4055TIP3    H236361   4.361   4.515   7.828 -1.8316 -1.1742 -0.7175
 4056TIP3   OH236362   2.685   4.663   0.482 -0.3359 -0.7590  0.1917
 4056TIP3    H136363   2.730   4.676   0.399 -1.5439 -1.4256 -0.6002
 4056TIP3    H236364   2.603   4.619   0.458 -0.0576 -2.3093  1.8858
 4057TIP3   OH236365   5.539   4.604   8.500  0.2507  0.1231 -0.0762
 4057TIP3    H136366   5.609   4.572   8.443  0.6858  1.1565 -0.1456
 4057TIP3    H236367   5.570   4.588   8.589  0.1427 -0.3179 -0.1194
 4058TIP3   OH236368   0.572   1.769   1.647  0.1402 -0.8002 -0.1380
 4058TIP3    H136369   0.654   1.742   1.606 -0.4484 -2.1324 -0.5047
 4058TIP3    H236370   0.512   1.697   1.629 -1.4338  0.6119 -0.8533
 4059TIP3   OH236371   0.052   7.380   0.233  0.1094 -0.1509 -0.5917
 4059TIP3    H136372  -0.019   7.327   0.270 -0.8383  1.8911  0.6213
 4059TIP3    H236373   0.103   7.317   0.182 -1.7660 -1.9648 -0.3881
 4060TIP3   OH236374   6.091   3.515   0.708  0.0291 -0.2540  0.6180
 4060TIP3    H136375   6.126   3.526   0.796  0.1459  1.1362  0.4150
 4060TIP3    H236376   6.125   3.430   0.679  0.5812 -0.3896  1.6252
 4061TIP3   OH236377   0.405   7.411   9.210 -0.0756 -0.1092  0.6066
 4061TIP3    H136378   0.374   7.324   9.234 -1.5720  0.2965  0.2558
 4061TIP3    H236379   0.361   7.430   9.127  2.1373  0.0090 -0.6126
 4062TIP3   OH236380   7.145   1.340   2.620  0.0509 -0.5252  0.0038
 4062TIP3    H136381   7.233   1.366   2.646 -0.5822  2.2044 -0.2105
 4062TIP3    H236382   7.130   1.256   2.664  3.0621 -1.5741 -0.7631
 4063TIP3   OH236383   4.313   1.019   1.118 -0.1944  0.5191 -0.1377
 4063TIP3    H136384   4.240   1.080   1.131 -0.6711 -0.1633  0.4481
 4063TIP3    H236385   4.283   0.962   1.047  0.1534  0.8090 -0.5215
 4064TIP3   OH236386   5.630   4.723   1.162  0.0770 -0.2261  0.1047
 4064TIP3    H136387   5.570   4.739   1.089  0.7354  2.0607 -0.0074
 4064TIP3    H236388   5.658   4.811   1.190  0.6012 -1.0678  2.4746
 4065TIP3   OH236389   2.745   3.713   9.296 -0.0753  0.7103  0.1036
 4065TIP3    H136390   2.766   3.790   9.243 -0.4042  1.5312  1.1485
 4065TIP3    H236391   2.793   3.726   9.378 -1.2242  0.5058  0.8367
 4066TIP3   OH236392   4.255   3.705   0.398  0.3249  0.6272  0.2558
 4066TIP3    H136393   4.187   3.689   0.333  0.4571  1.0545  0.0049
 4066TIP3    H236394   4.208   3.728   0.478  0.0634 -2.1523  1.0158
 4067TIP3   OH236395   1.027   4.072   9.143 -0.1944 -0.3876 -0.3481
 4067TIP3    H136396   0.956   4.008   9.138 -1.5989  0.9719  1.1622
 4067TIP3    H236397   1.019   4.122   9.062 -1.1616 -0.0603 -0.0591
 4068TIP3   OH236398   4.547   7.099   0.320 -0.2369 -0.4818 -0.2175
 4068TIP3    H136399   4.462   7.091   0.364 -0.6721  2.1541 -0.4230
 4068TIP3    H236400   4.525   7.125   0.230  0.7534  1.9731  0.1828
 4069TIP3   OH236401   6.607   6.710   9.417 -0.3214  0.0018  0.0314
 4069TIP3    H136402   6.680   6.725   9.477 -0.0862 -1.1059  0.0380
 4069TIP3    H236403   6.647   6.668   9.340 -0.6531  1.1950 -0.8197
 4070TIP3   OH236404   0.299   6.710   8.007  0.3665 -0.2203  0.4382
 4070TIP3    H136405   0.292   6.804   8.022 -0.0233 -0.3758  1.2732
 4070TIP3    H236406   0.333   6.675   8.089  0.9456 -0.7626 -0.0163
 4071TIP3   OH236407   3.193   2.049   7.702 -0.5223  0.0800  0.1272
 4071TIP3    H136408   3.112   2.022   7.658  0.0596  0.1927 -1.0630
 4071TIP3    H236409   3.177   2.140   7.726 -1.9771 -0.8039  2.9349
 4072TIP3   OH236410   5.576   3.888   1.369  0.3070  0.6950  0.8208
 4072TIP3    H136411   5.602   3.879   1.278 -0.8525 -0.0725  0.5444
 4072TIP3    H236412   5.613   3.972   1.397  1.6032  0.4172 -0.0203
 4073TIP3   OH236413   2.639   3.803   2.101 -0.0414 -0.3744 -0.1278
 4073TIP3    H136414   2.682   3.880   2.138  1.9796 -0.7406 -1.5354
 4073TIP3    H236415   2.702   3.768   2.038 -1.3869 -2.5074 -0.4060
 4074TIP3   OH236416   5.384   6.140   1.118 -0.1396  0.4812  0.3955
 4074TIP3    H136417   5.470   6.174   1.095 -0.7566  1.9417  0.1498
 4074TIP3    H236418   5.368   6.071   1.053  1.3150 -0.6225  1.1676
 4075TIP3   OH236419   2.774   7.455   8.886  0.0006 -0.2261  0.5497
 4075TIP3    H136420   2.799   7.370   8.924 -0.9506 -1.3975 -1.3123
 4075TIP3    H236421   2.792   7.446   8.793  0.8668  2.0413  0.4359
 4076TIP3   OH236422   0.012   6.476   0.408 -0.1047  0.1120  0.6395
 4076TIP3    H136423   0.089   6.533   0.413 -0.3263  0.5031 -0.3291
 4076TIP3    H236424   0.014   6.440   0.320 -1.1533  0.2955  0.5309
 4077TIP3   OH236425   3.707   5.458   1.704 -0.3180 -0.6028 -0.0371
 4077TIP3    H136426   3.777   5.455   1.638  0.4814 -0.1634  0.7734
 4077TIP3    H236427   3.716   5.375   1.751  0.3101 -0.1200  0.7126
 4078TIP3   OH236428   3.027   7.461   2.635  0.1614  0.1206 -0.0107
 4078TIP3    H136429   3.076   7.464   2.552 -2.6815 -0.7726 -1.8718
 4078TIP3    H236430   2.958   7.397   2.620 -0.9977  0.5608  2.8063
 4079TIP3   OH236431   3.263   7.352   0.221  0.1439  1.0436 -0.3201
 4079TIP3    H136432   3.187   7.409   0.208 -0.4452  1.1109  2.6572
 4079TIP3    H236433   3.333   7.412   0.250  0.2586  0.5750  0.3935
 4080TIP3   OH236434   2.257   3.006   7.919 -0.0063 -0.9828  0.5902
 4080TIP3    H136435   2.232   3.084   7.870  2.5856  1.3714  2.6621
 4080TIP3    H236436   2.334   2.973   7.874  0.2778 -0.9324  1.0329
 4081TIP3   OH236437   6.490   2.577   9.244 -0.0495  0.4039  0.1864
 4081TIP3    H136438   6.431   2.603   9.315  0.0075  0.6096  0.1598
 4081TIP3    H236439   6.524   2.491   9.270 -0.9716 -0.0886 -0.1696
 4082TIP3   OH236440   4.269   4.993   2.364 -0.0947  0.1563  0.0845
 4082TIP3    H136441   4.293   4.940   2.440 -0.5584  0.9540  0.7927
 4082TIP3    H236442   4.218   4.934   2.308  1.8778 -1.0334 -0.5799
 4083TIP3   OH236443   2.484   6.755   2.380 -0.0348 -0.5641  0.5486
 4083TIP3    H136444   2.460   6.844   2.353 -1.3609 -1.6367 -2.1470
 4083TIP3    H236445   2.580   6.754   2.373 -0.1530 -0.0924 -2.2393
 4084TIP3   OH236446   1.534   0.292   9.876  0.2765 -0.0692  0.2367
 4084TIP3    H136447   1.528   0.206   9.917 -2.1272  0.9003  2.1269
 4084TIP3    H236448   1.596   0.341   9.930 -1.6507  0.6848  1.8849
 4085TIP3   OH236449   2.427   7.018   6.498  0.8799  0.3932  0.3949
 4085TIP3    H136450   2.402   6.962   6.425  0.8221 -0.0616  0.7586
 4085TIP3    H236451   2.449   7.102   6.458 -0.8523  0.7055  0.0165
 4086TIP3   OH236452   0.067   1.134   8.964 -0.1713  0.2010 -0.0428
 4086TIP3    H136453   0.156   1.102   8.980  1.1124  2.0388 -2.7343
 4086TIP3    H236454   0.059   1.138   8.869 -4.0288 -1.9632 -0.0119
 4087TIP3   OH236455   0.981   2.233   0.807 -0.5514 -0.2681  0.7260
 4087TIP3    H136456   0.897   2.212   0.765 -1.0878 -1.0698  2.1273
 4087TIP3    H236457   1.047   2.202   0.746 -1.2505  0.6631 -0.5536
 4088TIP3   OH236458   1.051   6.450   1.616 -0.0371  0.0852  0.3558
 4088TIP3    H136459   0.987   6.408   1.559 -0.7390  0.4456  0.8593
 4088TIP3    H236460   1.047   6.543   1.593  1.7133 -0.1112 -0.9593
 4089TIP3   OH236461   4.170   3.587   0.834 -0.2716  0.0028 -0.2058
 4089TIP3    H136462   4.112   3.513   0.815 -0.7005  0.4852 -0.8542
 4089TIP3    H236463   4.257   3.555   0.812 -0.3597 -0.5493  0.2332
 4090TIP3   OH236464   2.304   0.073   3.104 -0.1117  0.5578 -0.5100
 4090TIP3    H136465   2.328  -0.018   3.120  1.3415  1.0445  0.3274
 4090TIP3    H236466   2.236   0.092   3.168 -1.0142 -0.1487 -1.2322
 4091TIP3   OH236467   4.519   5.754   9.784  0.1051 -0.3311 -1.4610
 4091TIP3    H136468   4.504   5.834   9.836  0.2413 -0.0544 -1.8397
 4091TIP3    H236469   4.577   5.783   9.713 -1.7410 -0.2122 -3.0105
 4092TIP3   OH236470   1.936   6.422   6.657  0.1341 -0.2017 -0.4945
 4092TIP3    H136471   2.014   6.472   6.629  0.6391 -1.5537 -1.6278
 4092TIP3    H236472   1.869   6.446   6.593 -0.1277  0.2741 -0.0498
 4093TIP3   OH236473   1.567   3.298   0.997  0.4153 -0.3283  0.0445
 4093TIP3    H136474   1.573   3.215   1.045  1.2701 -0.0596  0.4150
 4093TIP3    H236475   1.652   3.308   0.954  0.4060  0.4640  0.1888
 4094TIP3   OH236476   2.223   4.541   0.466 -0.2657  0.5102 -0.4778
 4094TIP3    H136477   2.154   4.607   0.465 -0.1866  0.6515  0.7769
 4094TIP3    H236478   2.201   4.484   0.540  1.5613  1.2896  0.7698
 4095TIP3   OH236479   5.345   0.133   7.504  0.2000 -0.1963 -0.3702
 4095TIP3    H136480   5.250   0.146   7.511  0.3164 -0.1422  1.5734
 4095TIP3    H236481   5.354   0.040   7.480 -0.3572 -0.6758  1.1262
 4096TIP3   OH236482   1.328   6.493   2.272  0.4401 -0.0419  0.6068
 4096TIP3    H136483   1.349   6.408   2.234  1.6152  1.1377 -1.5675
 4096TIP3    H236484   1.412   6.528   2.300 -0.1111  0.2000  2.0634
 4097TIP3   OH236485   3.955   1.476   7.962 -0.1996 -0.2504 -0.1082
 4097TIP3    H136486   3.984   1.423   7.888 -1.4698  0.3874 -1.1187
 4097TIP3    H236487   3.978   1.425   8.039  1.0949 -0.9710 -0.9402
 4098TIP3   OH236488   1.885   0.627   2.147  0.1202  0.1669  0.1231
 4098TIP3    H136489   1.972   0.617   2.110  0.6717  2.1823  0.7594
 4098TIP3    H236490   1.888   0.579   2.229  1.3716  1.9713  1.1899
 4099TIP3   OH236491   3.018   1.095   2.387 -0.0950 -0.6346 -0.5244
 4099TIP3    H136492   3.009   1.125   2.478 -1.1270 -1.1845 -0.4394
 4099TIP3    H236493   3.022   1.000   2.394 -0.1259 -0.6751 -1.0645
 4100TIP3   OH236494   4.582   5.764   8.506 -0.2631  0.4160  0.2235
 4100TIP3    H136495   4.599   5.692   8.446  1.8858  0.9253  0.1441
 4100TIP3    H236496   4.497   5.798   8.480  0.2316  0.0710 -1.9691
 4101TIP3   OH236497   5.346   7.223   9.145 -1.3722 -0.0149  0.1408
 4101TIP3    H136498   5.436   7.254   9.132 -1.6889  1.8552  1.8419
 4101TIP3    H236499   5.310   7.219   9.057  0.0919  0.1437 -0.5061
 4102TIP3   OH236500   2.500   6.098   9.864 -0.7813  0.0496  0.4994
 4102TIP3    H136501   2.582   6.057   9.836 -1.5707 -1.1206 -0.1691
 4102TIP3    H236502   2.478   6.158   9.792 -0.6845  0.1070  0.5183
 4103TIP3   OH236503   4.572   3.268   7.177 -0.2646  0.2235  0.0639
 4103TIP3    H136504   4.530   3.290   7.260  2.8621  1.7033  1.3930
 4103TIP3    H236505   4.526   3.322   7.112  0.0572  2.3963  1.5634
 4104TIP3   OH236506   1.575   6.282   7.502  0.5060 -0.1734 -0.1329
 4104TIP3    H136507   1.598   6.371   7.528  1.1873 -0.6689  1.0136
 4104TIP3    H236508   1.658   6.243   7.475 -0.0187  0.0178 -2.2600
 4105TIP3   OH236509   0.967   2.335   0.073  0.2928  0.3306 -0.0461
 4105TIP3    H136510   0.915   2.408   0.040  0.4272  0.2250 -0.4987
 4105TIP3    H236511   1.037   2.324   0.009 -0.3711 -0.9209 -0.6078
 4106TIP3   OH236512   7.267   5.253   1.749  0.3799 -0.5758  0.3251
 4106TIP3    H136513   7.294   5.308   1.676  3.2395 -1.7835  0.3768
 4106TIP3    H236514   7.268   5.312   1.825  0.0434  0.0455 -0.1439
 4107TIP3   OH236515   2.258   7.389   1.837  0.6174  0.4345  0.5244
 4107TIP3    H136516   2.329   7.334   1.871 -2.1614 -2.1671  2.6119
 4107TIP3    H236517   2.252   7.461   1.899 -0.3236 -0.8722  2.0025
 4108TIP3   OH236518   3.041   6.567   2.419  0.1565  0.3545  0.0539
 4108TIP3    H136519   2.987   6.604   2.349  1.8844  1.0591 -0.9939
 4108TIP3    H236520   3.075   6.644   2.465  1.7702  0.0367 -0.5403
 4109TIP3   OH236521   3.286   5.371   0.418  0.6117  0.1246 -0.1055
 4109TIP3    H136522   3.284   5.340   0.508  0.9992 -1.1488 -0.5143
 4109TIP3    H236523   3.253   5.461   0.422 -1.0169 -0.4953  1.0486
 4110TIP3   OH236524   1.295   3.959   9.036  0.0148 -0.1263 -0.4443
 4110TIP3    H136525   1.207   3.994   9.043  0.8359  1.9361  0.2894
 4110TIP3    H236526   1.328   3.958   9.126  0.6063 -1.3273 -0.6406
 4111TIP3   OH236527   0.891   5.869   9.365  0.0656  0.2164 -0.7709
 4111TIP3    H136528   0.904   5.834   9.453  2.0156  0.9259 -0.7359
 4111TIP3    H236529   0.843   5.951   9.379 -0.4686 -0.1426 -0.4654
 4112TIP3   OH236530   1.870   2.123   9.566 -0.1109  0.5644 -0.0145
 4112TIP3    H136531   1.878   2.028   9.573 -0.7244  0.3486 -1.7804
 4112TIP3    H236532   1.938   2.148   9.504  0.2117  1.3380  0.6244
 4113TIP3   OH236533   1.103   0.090   2.952 -0.1484 -0.6363 -0.0788
 4113TIP3    H136534   1.022   0.098   3.002 -1.0206 -2.2088 -1.1500
 4113TIP3    H236535   1.172   0.116   3.013 -1.4866  1.4626  0.6302
 4114TIP3   OH236536   4.829   5.806   1.493 -0.1151  0.4116  0.1586
 4114TIP3    H136537   4.835   5.899   1.510 -0.5953  0.3346  0.7625
 4114TIP3    H236538   4.888   5.791   1.419 -0.4697  1.2796 -0.3051
 4115TIP3   OH236539   6.666   4.494   9.702  0.2404  0.2020 -0.4397
 4115TIP3    H136540   6.737   4.556   9.688  0.7211 -0.2873 -0.2114
 4115TIP3    H236541   6.597   4.521   9.641  0.1768  1.3489  0.0969
 4116TIP3   OH236542   3.662   1.732   8.277  0.7573  0.6666  0.3602
 4116TIP3    H136543   3.618   1.817   8.275 -1.2913 -0.2862 -2.3928
 4116TIP3    H236544   3.604   1.676   8.329  0.2124  0.1309 -0.7924
 4117TIP3   OH236545   3.316   2.664   2.936 -1.3177  0.0935 -0.4477
 4117TIP3    H136546   3.302   2.676   3.030  0.2157  2.2031 -0.4437
 4117TIP3    H236547   3.275   2.741   2.895  2.0839  1.7531 -1.0699
 4118TIP3   OH236548   6.920   1.333   1.891 -0.3278  0.1159  0.7365
 4118TIP3    H136549   6.891   1.290   1.972 -0.3517  0.3740  0.8661
 4118TIP3    H236550   7.005   1.292   1.871  0.4256  1.1220  1.7372
 4119TIP3   OH236551   2.273   7.466   9.722 -0.1662 -0.1858 -0.3971
 4119TIP3    H136552   2.210   7.481   9.651  1.3205  3.2361 -1.1926
 4119TIP3    H236553   2.252   7.533   9.787  0.5489 -1.2147  0.9504
 4120TIP3   OH236554   0.002   6.081   8.264 -0.2263 -0.3054 -0.0863
 4120TIP3    H136555   0.033   6.074   8.173 -0.8993  0.1239 -0.3533
 4120TIP3    H236556  -0.067   6.015   8.271 -2.1214  1.4968 -0.7308
 4121TIP3   OH236557   0.705   0.218   8.536 -0.2279 -0.2526 -0.0258
 4121TIP3    H136558   0.769   0.282   8.506 -2.3217  0.9360 -2.3586
 4121TIP3    H236559   0.634   0.271   8.574 -1.1016 -1.3210 -0.1090
 4122TIP3   OH236560   5.735   4.323   8.824 -0.3586 -0.4100  0.0836
 4122TIP3    H136561   5.714   4.415   8.840 -1.2353 -0.6330  0.2475
 4122TIP3    H236562   5.828   4.324   8.802 -0.2125  0.4500  0.6595
 4123TIP3   OH236563   2.613   1.668   8.951 -0.3232  0.3161  0.0136
 4123TIP3    H136564   2.565   1.630   9.025 -2.1906  1.5537 -0.4935
 4123TIP3    H236565   2.655   1.746   8.987  0.1137  0.0407  0.1141
 4124TIP3   OH236566   4.493   4.950   9.286  0.1744 -0.2148  0.5429
 4124TIP3    H136567   4.535   4.865   9.273  1.0908  0.1300  1.1412
 4124TIP3    H236568   4.414   4.930   9.336 -1.7056 -1.1614 -2.5290
 4125TIP3   OH236569   1.439   7.439   7.226  0.2074  0.2259  0.0688
 4125TIP3    H136570   1.343   7.436   7.225  0.1336  1.7898  0.7827
 4125TIP3    H236571   1.465   7.359   7.179 -1.4394  0.3404 -1.1374
 4126TIP3   OH236572   1.156   1.977   1.213  0.1967  0.5044 -0.1598
 4126TIP3    H136573   1.181   2.060   1.253 -0.9352  1.1411 -0.7392
 4126TIP3    H236574   1.231   1.954   1.157  0.8558  0.7071  0.6235
 4127TIP3   OH236575   4.845   3.706   9.124 -0.4082 -0.4295  0.6113
 4127TIP3    H136576   4.818   3.649   9.195  0.6016 -0.8056  0.7048
 4127TIP3    H236577   4.939   3.717   9.136 -0.4997  0.8389  0.2917
 4128TIP3   OH236578   0.262   4.250   0.289  0.4903  0.3959 -0.7968
 4128TIP3    H136579   0.246   4.294   0.373 -0.9402 -1.3866 -0.0792
 4128TIP3    H236580   0.288   4.321   0.230 -1.1097  2.1177  0.4570
 4129TIP3   OH236581   4.459   5.979   1.807  0.3805  0.2193  0.1473
 4129TIP3    H136582   4.399   5.953   1.877  1.2502 -0.5932  0.6228
 4129TIP3    H236583   4.533   5.919   1.815  1.1989  1.0965 -0.5167
 4130TIP3   OH236584   5.684   5.171   0.090  0.1077 -0.7774 -0.1312
 4130TIP3    H136585   5.755   5.134   0.037 -1.0762 -0.4434 -2.0328
 4130TIP3    H236586   5.727   5.237   0.145  1.2159 -0.3000 -1.5226
 4131TIP3   OH236587   1.310   7.477   0.758 -0.2452 -0.2675  0.2540
 4131TIP3    H136588   1.397   7.463   0.795 -0.1411 -1.2281 -0.3128
 4131TIP3    H236589   1.253   7.420   0.810 -0.6531  0.8003  1.0121
 4132TIP3   OH236590   3.439   5.437   0.670 -0.0805  0.2881  0.5702
 4132TIP3    H136591   3.487   5.364   0.709 -0.8598 -0.9009 -0.6223
 4132TIP3    H236592   3.501   5.510   0.671  2.0473 -1.3314 -1.4282
 4133TIP3   OH236593   2.822   5.212   1.616  0.0141 -0.1981  0.0626
 4133TIP3    H136594   2.906   5.221   1.570 -0.1190  1.2265  0.0441
 4133TIP3    H236595   2.823   5.123   1.651  0.8897 -0.7076 -1.1834
 4134TIP3   OH236596   2.123   5.988   9.150  0.7375  0.2449  0.0902
 4134TIP3    H136597   2.048   5.998   9.209  0.0518 -0.4446 -0.6420
 4134TIP3    H236598   2.178   6.064   9.168 -0.8090  1.5227 -0.3370
 4135TIP3   OH236599   7.021   6.764   9.397  0.2197 -0.2353 -0.2786
 4135TIP3    H136600   7.026   6.785   9.490  2.1916  2.2923 -0.8462
 4135TIP3    H236601   7.094   6.704   9.381  0.7131  0.3959 -0.4190
 4136TIP3   OH236602   1.737   5.462   2.003  0.1495  0.3230  0.2697
 4136TIP3    H136603   1.728   5.498   2.091 -1.6935  1.5559 -0.3691
 4136TIP3    H236604   1.750   5.538   1.947  0.9209 -0.4184 -0.6088
 4137TIP3   OH236605   1.920   2.596   9.030 -0.2808 -0.1835  0.3607
 4137TIP3    H136606   1.957   2.605   8.942 -0.5867  1.4404  0.3759
 4137TIP3    H236607   1.829   2.622   9.021 -0.2798  0.1545  1.1814
 4138TIP3   OH236608   5.184   4.848   9.311 -0.0182 -0.5084  0.5591
 4138TIP3    H136609   5.268   4.804   9.302  0.5215  0.6381 -0.3650
 4138TIP3    H236610   5.124   4.797   9.256  0.1152 -1.2288  1.0784
 4139TIP3   OH236611   1.863   4.827   0.022  0.0452 -0.6524 -0.2439
 4139TIP3    H136612   1.862   4.762   0.093 -1.0385 -0.0637  0.3117
 4139TIP3    H236613   1.926   4.793  -0.041  0.0730 -1.8530  0.3979
 4140TIP3   OH236614   6.776   0.867   8.974 -0.4691 -0.1373  0.4262
 4140TIP3    H136615   6.801   0.934   9.037  1.0979  1.4141 -1.7035
 4140TIP3    H236616   6.858   0.839   8.934 -1.4027 -0.8653 -1.0921
 4141TIP3   OH236617   2.809   6.472   8.045  0.0509 -0.4407  0.3247
 4141TIP3    H136618   2.756   6.409   7.996  0.8997 -0.8991 -0.0302
 4141TIP3    H236619   2.745   6.529   8.087 -0.7551 -1.5874  0.7312
 4142TIP3   OH236620   6.888   2.645   9.873  0.0603 -0.8997  0.3412
 4142TIP3    H136621   6.921   2.708   9.809  1.4425  1.4253  3.0783
 4142TIP3    H236622   6.931   2.563   9.851  0.8234 -0.0893 -1.4020
 4143TIP3   OH236623   4.781   5.541   0.276 -0.0262  0.4759 -0.1584
 4143TIP3    H136624   4.693   5.505   0.292  0.6058 -0.3887  1.6934
 4143TIP3    H236625   4.840   5.483   0.324  1.6923  0.5364 -2.0583
 4144TIP3   OH236626   4.251   6.574   6.488 -0.7133  0.2582 -0.2025
 4144TIP3    H136627   4.319   6.640   6.499 -0.5336 -0.2738  2.7180
 4144TIP3    H236628   4.190   6.591   6.560 -1.6406 -1.6323 -0.4805
 4145TIP3   OH236629   1.402   0.970   9.028 -0.4260 -0.0012  0.4991
 4145TIP3    H136630   1.435   0.993   8.942 -1.2395  0.7199  0.3672
 4145TIP3    H236631   1.403   1.052   9.077 -0.9487 -0.1951  0.8429
 4146TIP3   OH236632   1.557   7.432   8.110 -0.4293  0.2353 -0.3628
 4146TIP3    H136633   1.649   7.403   8.106 -0.6592 -0.8874  1.2237
 4146TIP3    H236634   1.525   7.423   8.020  0.2688 -2.1071 -0.4544
 4147TIP3   OH236635   3.474   4.105   1.627 -0.2653 -0.1908 -0.3897
 4147TIP3    H136636   3.408   4.057   1.677  0.8475 -0.9005  0.4526
 4147TIP3    H236637   3.477   4.191   1.669  0.8434 -0.8641  1.0046
 4148TIP3   OH236638   4.157   6.599   0.564 -0.2146  0.4304 -0.2570
 4148TIP3    H136639   4.080   6.650   0.590 -0.6414  0.0363 -0.7134
 4148TIP3    H236640   4.123   6.534   0.502  0.4810  0.2293 -0.4428
 4149TIP3   OH236641   1.638   3.075   9.833  0.0844 -0.3451  0.4683
 4149TIP3    H136642   1.643   3.064   9.928  0.3354 -1.0264  0.3841
 4149TIP3    H236643   1.598   3.161   9.821  2.4423  0.9448  1.2015
 4150TIP3   OH236644   3.474   5.402   1.555 -0.3573  0.3273 -0.1618
 4150TIP3    H136645   3.535   5.452   1.609 -0.9572  2.1642 -1.0997
 4150TIP3    H236646   3.489   5.311   1.580  1.0562  0.9228  1.3442
 4151TIP3   OH236647   5.216   1.545   9.314  0.1789 -0.1506  0.3544
 4151TIP3    H136648   5.283   1.486   9.279 -0.2246 -0.5575  0.2518
 4151TIP3    H236649   5.143   1.538   9.252  0.2121  0.6338  0.2206
 4152TIP3   OH236650   5.327   5.482   1.530 -0.3223 -0.3417  0.0363
 4152TIP3    H136651   5.384   5.405   1.528  0.1628  0.0319 -0.7368
 4152TIP3    H236652   5.310   5.497   1.624  1.0344 -0.3190  0.2980
 4153TIP3   OH236653   4.210   4.424   8.534 -0.4739  0.3556 -0.1924
 4153TIP3    H136654   4.121   4.439   8.567  0.1679  2.4996  0.7698
 4153TIP3    H236655   4.262   4.412   8.613  0.4727  1.6107 -0.6002
 4154TIP3   OH236656   2.793   0.903   1.995 -0.3633  0.0036 -0.2856
 4154TIP3    H136657   2.756   0.923   1.909  0.0001 -2.1160 -1.0055
 4154TIP3    H236658   2.720   0.917   2.056 -0.6420  1.4895 -0.9257
 4155TIP3   OH236659   4.803   5.523   9.755 -0.2679  0.1541  0.1800
 4155TIP3    H136660   4.760   5.480   9.828 -0.1780  0.9243  0.7000
 4155TIP3    H236661   4.857   5.591   9.795 -0.3933  0.7461 -0.6143
 4156TIP3   OH236662   2.498   2.634   2.638 -0.3540 -0.7392 -0.0835
 4156TIP3    H136663   2.421   2.690   2.630 -0.4890 -0.7598  0.9154
 4156TIP3    H236664   2.492   2.598   2.727  1.2082 -0.1428  0.2799
 4157TIP3   OH236665   6.476   5.389   0.766  0.1791 -0.3133 -0.4158
 4157TIP3    H136666   6.490   5.296   0.783  1.1164 -0.2647 -0.8608
 4157TIP3    H236667   6.564   5.426   0.756 -0.1880  0.5601 -0.5470
 4158TIP3   OH236668   5.272   4.161   8.875  0.2105 -0.3443  0.0277
 4158TIP3    H136669   5.292   4.142   8.783 -0.2183  0.7842 -0.3164
 4158TIP3    H236670   5.199   4.103   8.896  0.0203 -0.2964 -0.4826
 4159TIP3   OH236671   3.938   3.111   1.824 -0.6214  0.7408 -0.0752
 4159TIP3    H136672   3.848   3.099   1.793 -1.0061  1.4863  0.6949
 4159TIP3    H236673   3.934   3.190   1.878  0.1738 -0.0463  1.1926
 4160TIP3   OH236674   3.120   0.317   0.337 -0.0457 -0.1915  0.4152
 4160TIP3    H136675   3.031   0.302   0.369 -0.8354  0.5424 -1.3328
 4160TIP3    H236676   3.167   0.237   0.362 -0.3782  0.5269  3.8738
 4161TIP3   OH236677   7.189   3.844   9.271  0.1202  0.0605  0.5054
 4161TIP3    H136678   7.146   3.800   9.198  0.1756 -2.3702  1.8463
 4161TIP3    H236679   7.270   3.879   9.233  0.3532 -1.5288 -0.5502
 4162TIP3   OH236680   1.797   2.523   0.288  0.0271  0.2932 -0.2969
 4162TIP3    H136681   1.702   2.536   0.290  0.2079  1.7575  0.7280
 4162TIP3    H236682   1.814   2.467   0.364 -0.0928 -0.7631 -1.0293
 4163TIP3   OH236683   0.927   6.794   6.629 -0.0021  0.1502  0.2464
 4163TIP3    H136684   0.961   6.785   6.718  0.6299 -1.3116 -0.1061
 4163TIP3    H236685   0.844   6.747   6.630 -0.4676  0.9579  0.2928
 4164TIP3   OH236686   1.627   4.207   8.284 -0.5177  0.2525  0.0119
 4164TIP3    H136687   1.655   4.120   8.256 -1.1342 -0.6553  2.0087
 4164TIP3    H236688   1.680   4.226   8.361 -0.0784  1.8787 -0.6425
 4165TIP3   OH236689   3.506   3.249   8.797  0.0054  0.0629  0.0451
 4165TIP3    H136690   3.516   3.267   8.891 -1.0806  2.6320 -0.2457
 4165TIP3    H236691   3.422   3.205   8.790 -0.0209  0.0783  0.2609
 4166TIP3   OH236692   5.307   2.359   9.596  0.0026 -0.0906  0.0187
 4166TIP3    H136693   5.242   2.302   9.636  1.5558 -0.3715  2.3343
 4166TIP3    H236694   5.264   2.393   9.517 -1.7019 -2.8086 -0.3377
 4167TIP3   OH236695   3.770   3.982   0.629  0.2367  0.2253  0.0730
 4167TIP3    H136696   3.740   3.900   0.588  1.4508  0.1751 -0.7560
 4167TIP3    H236697   3.692   4.015   0.674  0.2269 -2.4493  2.2790
 4168TIP3   OH236698   4.941   5.383   8.470  0.5604 -0.2552  0.2325
 4168TIP3    H136699   4.921   5.374   8.376 -0.4987 -1.5335  0.5596
 4168TIP3    H236700   5.025   5.339   8.480  0.4731 -0.4980 -0.0523
 4169TIP3   OH236701   3.550   0.127   1.843  0.5766 -0.4294  0.0538
 4169TIP3    H136702   3.493   0.111   1.768 -0.6429  3.4484 -0.0829
 4169TIP3    H236703   3.497   0.182   1.901  2.3829 -1.2024  2.5558
 4170TIP3   OH236704   4.681   5.064   1.160  0.1586 -0.2667 -0.7557
 4170TIP3    H136705   4.651   5.152   1.136  0.1374  0.1372  0.6341
 4170TIP3    H236706   4.770   5.060   1.125  0.5252  0.7018  0.0038
 4171TIP3   OH236707   1.507   0.359   9.155 -0.1615  0.3571  0.0973
 4171TIP3    H136708   1.526   0.434   9.212 -0.8320  0.6479 -0.0510
 4171TIP3    H236709   1.537   0.283   9.205 -0.8461  0.5947  0.8970
 4172TIP3   OH236710   7.426   0.945   9.205  0.0330 -0.5631  0.3659
 4172TIP3    H136711   7.354   0.896   9.166  0.3413 -2.2943  1.8459
 4172TIP3    H236712   7.505   0.911   9.162  0.1707 -0.5824  0.6300
 4173TIP3   OH236713   7.275   0.295   9.246  0.2011  0.1365  0.3266
 4173TIP3    H136714   7.238   0.253   9.324 -0.0923 -0.0607  0.0835
 4173TIP3    H236715   7.200   0.330   9.199  0.4605  1.1103  0.6183
 4174TIP3   OH236716   3.327   6.476   8.188  0.5553 -0.6098  0.3344
 4174TIP3    H136717   3.335   6.435   8.102  0.3296  0.4723 -0.2205
 4174TIP3    H236718   3.338   6.404   8.250  0.4457 -1.4530 -0.5993
 4175TIP3   OH236719   2.190   1.737   0.070  0.2268 -0.4086 -0.0434
 4175TIP3    H136720   2.198   1.660   0.127 -0.6144 -1.1417 -0.8767
 4175TIP3    H236721   2.276   1.779   0.073 -0.0851  0.2431  2.6718
 4176TIP3   OH236722   0.318   7.359   2.033 -0.3133 -0.0962  0.1777
 4176TIP3    H136723   0.381   7.305   1.985  0.4457  0.7760  0.1581
 4176TIP3    H236724   0.293   7.427   1.970 -1.6984 -0.7316  0.0062
 4177TIP3   OH236725   4.592   5.335   0.013 -0.3709  0.5133 -0.2998
 4177TIP3    H136726   4.551   5.421   0.001 -1.2918  0.1212 -0.0618
 4177TIP3    H236727   4.521   5.272  -0.004 -0.0909 -0.1663  0.9202
 4178TIP3   OH236728   5.514   5.143   0.629  0.6446 -0.3962 -0.5912
 4178TIP3    H136729   5.538   5.056   0.597 -0.6181 -0.9004 -0.1898
 4178TIP3    H236730   5.546   5.203   0.561  1.8569 -1.1166 -0.6918
 4179TIP3   OH236731   1.202   0.832   8.011 -0.3176 -0.2513  0.0199
 4179TIP3    H136732   1.178   0.923   7.996  0.9051  0.2492  0.9207
 4179TIP3    H236733   1.298   0.831   8.008 -0.2428 -1.2082  1.5803
 4180TIP3   OH236734   4.811   4.919   7.324  0.2038 -0.0228 -0.4068
 4180TIP3    H136735   4.733   4.919   7.268  1.2791  0.4429 -1.9636
 4180TIP3    H236736   4.842   5.009   7.322  0.4761 -0.0845  0.6505
 4181TIP3   OH236737   4.985   6.645   8.314  0.6590  0.3746 -0.1939
 4181TIP3    H136738   4.942   6.632   8.399 -0.0004  1.9707 -0.2630
 4181TIP3    H236739   4.934   6.591   8.253  0.6968 -0.2077  0.2737
 4182TIP3   OH236740   2.835   6.642   0.857  0.2917  0.0318 -0.0319
 4182TIP3    H136741   2.910   6.594   0.893 -0.1721 -2.5202 -2.0887
 4182TIP3    H236742   2.864   6.671   0.770 -0.6049  0.3540 -0.2407
 4183TIP3   OH236743   5.547   5.165   0.343 -0.0164 -0.0530 -0.2997
 4183TIP3    H136744   5.487   5.093   0.360 -1.2627  0.4833 -2.0519
 4183TIP3    H236745   5.572   5.154   0.251  0.5776  1.1392 -0.3016
 4184TIP3   OH236746   0.960   5.453   2.419 -0.2231  0.2907  0.4141
 4184TIP3    H136747   1.000   5.366   2.414 -0.8490 -0.0119  0.4851
 4184TIP3    H236748   0.991   5.498   2.341 -0.3637 -0.2077  0.0648
 4185TIP3   OH236749   3.500   6.138   6.577 -0.3400  0.2224 -0.3444
 4185TIP3    H136750   3.474   6.228   6.599  0.2782  0.0862  1.0332
 4185TIP3    H236751   3.418   6.095   6.553 -1.4483 -0.0229  3.3028
 4186TIP3   OH236752   6.375   4.774   8.289  0.0526  0.0865  0.3105
 4186TIP3    H136753   6.470   4.763   8.289  0.0811  0.2086  1.2732
 4186TIP3    H236754   6.359   4.840   8.357 -0.6264  1.0033 -0.7024
 4187TIP3   OH236755   4.042   6.870   1.883 -0.2675  0.0446 -0.1275
 4187TIP3    H136756   3.966   6.902   1.932 -0.3849 -1.1606  0.5176
 4187TIP3    H236757   4.117   6.887   1.941 -0.2082  0.1057 -0.2235
 4188TIP3   OH236758   0.374   1.202   7.363 -0.2391  0.2256  0.2783
 4188TIP3    H136759   0.368   1.221   7.269  0.2616 -1.0331 -0.0167
 4188TIP3    H236760   0.423   1.277   7.398 -2.3608  1.8843 -0.0479
 4189TIP3   OH236761   1.893   6.245   0.614 -0.0906 -0.1713 -0.7688
 4189TIP3    H136762   1.820   6.215   0.668  0.1578  0.9492  0.2504
 4189TIP3    H236763   1.856   6.312   0.557 -0.3867 -1.4739 -2.1454
 4190TIP3   OH236764   3.783   6.896   9.739 -0.5260 -0.1987 -0.3133
 4190TIP3    H136765   3.774   6.803   9.717 -1.0185  0.0618 -1.2321
 4190TIP3    H236766   3.824   6.935   9.663  0.0527  0.2781  0.2348
 4191TIP3   OH236767   3.878   3.632   1.502 -0.2720  0.1385  0.2555
 4191TIP3    H136768   3.804   3.647   1.561 -1.3766 -0.5181 -0.9071
 4191TIP3    H236769   3.915   3.549   1.531 -2.1169 -1.2830 -1.1944
 4192TIP3   OH236770   5.088   5.145   9.929 -0.0923 -0.0121 -0.1711
 4192TIP3    H136771   4.996   5.167   9.945  0.0490  0.6515 -0.2624
 4192TIP3    H236772   5.137   5.211   9.978  0.3407 -0.2711 -0.2519
 4193TIP3   OH236773   6.227   7.148   9.175  0.1859  0.1563  0.3133
 4193TIP3    H136774   6.251   7.058   9.196 -3.1679 -1.1223 -0.7317
 4193TIP3    H236775   6.260   7.200   9.249  1.9333 -1.9079  1.0821
 4194TIP3   OH236776   3.243   2.791   8.238 -0.0090 -0.0136  0.6304
 4194TIP3    H136777   3.150   2.808   8.257 -0.1277  0.5609 -0.4017
 4194TIP3    H236778   3.249   2.795   8.143  1.2359  0.7503  0.7193
 4195TIP3   OH236779   0.011   5.715   8.738 -0.1206 -0.0140 -0.3032
 4195TIP3    H136780   0.079   5.768   8.781 -1.4980  0.3874  1.5243
 4195TIP3    H236781  -0.068   5.731   8.790 -1.5723 -0.6963 -2.1664
 4196TIP3   OH236782   1.991   0.484   7.474 -0.7224  1.1199 -0.5327
 4196TIP3    H136783   2.044   0.557   7.506 -0.2981 -0.4146  2.7273
 4196TIP3    H236784   2.055   0.419   7.444 -0.7398  0.1953  1.2551
 4197TIP3   OH236785   6.168   0.581   7.882 -0.0320 -0.1630 -1.0003
 4197TIP3    H136786   6.087   0.580   7.832  0.1987 -1.2872 -1.3876
 4197TIP3    H236787   6.237   0.591   7.816  0.1744  0.2874 -0.7225
 4198TIP3   OH236788   7.197   2.699   2.307  0.7345 -0.4396 -0.1941
 4198TIP3    H136789   7.261   2.670   2.372 -2.0257  0.1820  3.1309
 4198TIP3    H236790   7.130   2.630   2.308 -0.5080  0.7086 -0.5204
 4199TIP3   OH236791   4.580   6.715   0.083 -0.2053 -0.7421 -0.1948
 4199TIP3    H136792   4.629   6.774   0.026 -1.9663 -0.0074 -1.0338
 4199TIP3    H236793   4.647   6.669   0.134  1.2617  2.4826  1.0386
 4200TIP3   OH236794   4.217   7.061   9.804  0.3948  0.0862  0.0144
 4200TIP3    H136795   4.197   7.072   9.897  0.4726  2.3194 -0.1808
 4200TIP3    H236796   4.302   7.017   9.802  1.1732  1.4971  1.0420
 4201TIP3   OH236797   3.565   2.346   0.707  0.3001  0.0880 -0.1595
 4201TIP3    H136798   3.576   2.272   0.647  0.8629 -0.6266  0.8029
 4201TIP3    H236799   3.503   2.404   0.662 -0.5255 -1.1864 -0.7330
 4202TIP3   OH236800   1.461   6.859   2.199  0.0767  0.1441 -0.2613
 4202TIP3    H136801   1.480   6.841   2.292 -0.0106 -1.2682 -0.4896
 4202TIP3    H236802   1.520   6.931   2.176  1.4198 -0.6878  0.4278
 4203TIP3   OH236803   2.208   3.859   1.233  0.1029 -0.0065 -0.1647
 4203TIP3    H136804   2.230   3.772   1.266  0.0851  0.1159  0.1771
 4203TIP3    H236805   2.282   3.914   1.260 -0.3813  0.3055  0.5766
 4204TIP3   OH236806   2.094   7.149   1.925 -0.5840  0.0900 -0.0808
 4204TIP3    H136807   2.100   7.217   1.857  0.0180  0.8929  0.7465
 4204TIP3    H236808   2.165   7.088   1.904  0.2473  0.8681  0.3612
 4205TIP3   OH236809   4.300   6.068   2.273 -0.0446 -0.8035 -0.3212
 4205TIP3    H136810   4.220   6.095   2.318  0.0319  0.2651 -0.8128
 4205TIP3    H236811   4.270   6.030   2.190  0.0071  0.9832 -1.1936
 4206TIP3   OH236812   4.855   5.967   7.999  0.1409  0.9093 -0.7151
 4206TIP3    H136813   4.927   5.911   7.969  1.0844  1.3202  0.6816
 4206TIP3    H236814   4.896   6.026   8.062 -1.9783 -0.8150  2.4982
 4207TIP3   OH236815   3.181   3.502   0.411  0.6369  0.3334 -0.3556
 4207TIP3    H136816   3.099   3.467   0.376  0.3676 -1.1055  1.5881
 4207TIP3    H236817   3.207   3.440   0.479  1.6705  2.4241  1.2657
 4208TIP3   OH236818   0.523   6.622   0.051  0.3964  0.0464 -0.0450
 4208TIP3    H136819   0.449   6.564   0.065  1.8005 -1.3845  2.0555
 4208TIP3    H236820   0.490   6.709   0.074 -0.8907 -0.3750 -0.2104
 4209TIP3   OH236821   7.080   0.217   8.021 -0.2833  0.4087  0.0320
 4209TIP3    H136822   7.009   0.242   7.961  0.2694  2.1665  0.0828
 4209TIP3    H236823   7.145   0.175   7.964 -0.3798  0.8054 -0.3763
 4210TIP3   OH236824   3.810   2.597   9.275  0.1692  0.1920 -0.1027
 4210TIP3    H136825   3.738   2.660   9.282 -0.8784 -1.0071  0.1602
 4210TIP3    H236826   3.787   2.527   9.335  1.6978 -0.1074  0.1752
 4211TIP3   OH236827   0.980   4.884   8.011 -0.0894 -0.2032 -0.1290
 4211TIP3    H136828   0.915   4.831   8.057  1.0407 -0.5150  1.1381
 4211TIP3    H236829   1.031   4.822   7.959  1.1813 -0.3839  1.2918
 4212TIP3   OH236830   2.275   4.395   9.275 -0.4001  0.3347  0.1819
 4212TIP3    H136831   2.283   4.486   9.303  1.8194  1.4237 -3.3337
 4212TIP3    H236832   2.216   4.398   9.201  2.1882 -0.3675 -2.0850
 4213TIP3   OH236833   2.326   4.530   8.528  0.2692 -0.7352  0.6052
 4213TIP3    H136834   2.251   4.479   8.559 -0.3852  0.5386  1.2164
 4213TIP3    H236835   2.288   4.615   8.503  1.0166 -1.0893 -2.1242
 4214TIP3   OH236836   3.141   1.080   8.828  0.2201  0.3798  0.1087
 4214TIP3    H136837   3.068   1.102   8.770  0.5456 -0.3084 -0.5818
 4214TIP3    H236838   3.115   0.998   8.869 -0.5675  1.4911  1.9413
 4215TIP3   OH236839   3.108   2.974   1.156  0.4272  0.1343  0.7484
 4215TIP3    H136840   3.141   3.018   1.077 -0.5637  0.0742  0.2900
 4215TIP3    H236841   3.033   3.027   1.183  0.4825 -0.1112  1.3885
 4216TIP3   OH236842   6.010   4.238   1.146  0.1747 -0.5085  0.0215
 4216TIP3    H136843   6.037   4.195   1.064  1.4479 -1.9754  1.1350
 4216TIP3    H236844   5.919   4.210   1.158  0.3151 -1.1776 -0.3655
 4217TIP3   OH236845   3.030   2.717   1.178  0.2364  0.4837  0.7707
 4217TIP3    H136846   3.040   2.805   1.140  2.3039 -0.2791 -0.5711
 4217TIP3    H236847   3.102   2.709   1.240 -0.1209 -0.1934  1.1094
 4218TIP3   OH236848   3.990   0.118   1.748  0.1336 -0.4161 -0.0810
 4218TIP3    H136849   4.067   0.160   1.710 -0.3238  1.6085  1.1191
 4218TIP3    H236850   4.025   0.053   1.808  0.9489  0.8228  0.8194
 4219TIP3   OH236851   2.336   4.809   0.560 -0.7374 -0.3119 -0.4306
 4219TIP3    H136852   2.244   4.800   0.539 -0.7727 -1.8293  0.2626
 4219TIP3    H236853   2.377   4.730   0.525 -0.2118 -1.1366  1.8404
 4220TIP3   OH236854   2.131   2.896   8.120  0.5237  0.1408 -0.7658
 4220TIP3    H136855   2.193   2.871   8.188  1.1350 -1.1505 -1.7448
 4220TIP3    H236856   2.172   2.971   8.077  0.2779  0.7679  0.0850
 4221TIP3   OH236857   2.877   4.665   9.672  0.1829  0.6392 -0.7524
 4221TIP3    H136858   2.945   4.623   9.724 -2.0539 -0.1094  1.7876
 4221TIP3    H236859   2.918   4.682   9.587  3.0166 -1.1272  0.1507
 4222TIP3   OH236860   1.159   4.331   7.217 -0.0397 -0.4961 -0.7408
 4222TIP3    H136861   1.145   4.252   7.270 -1.8652 -0.5021 -1.1423
 4222TIP3    H236862   1.090   4.391   7.246  1.0731  0.8123 -0.7300
 4223TIP3   OH236863   2.591   3.429   2.311 -0.2001 -0.7860  0.6499
 4223TIP3    H136864   2.637   3.345   2.311 -1.6554 -1.6269  0.6781
 4223TIP3    H236865   2.633   3.480   2.380 -0.5689 -2.2463  2.0139
 4224TIP3   OH236866   3.429   0.632   7.315 -0.6896 -0.0356  0.0613
 4224TIP3    H136867   3.468   0.546   7.298 -0.2856  0.1996 -0.2077
 4224TIP3    H236868   3.419   0.635   7.410 -0.9024 -0.4663  0.0536
 4225TIP3   OH236869   2.183   7.047   0.553 -0.2786  0.1697  0.2390
 4225TIP3    H136870   2.106   7.097   0.524 -0.7964 -0.9695 -0.4191
 4225TIP3    H236871   2.191   6.976   0.489 -0.0017 -1.0184  1.5369
 4226TIP3   OH236872   6.919   1.503   8.764  0.0164  0.0781 -0.0322
 4226TIP3    H136873   6.939   1.460   8.847 -0.0930  2.8406  1.5426
 4226TIP3    H236874   6.974   1.582   8.764 -1.0393  0.8750 -1.9340
 4227TIP3   OH236875   5.656   2.963   0.033  0.0704  0.4078  0.4152
 4227TIP3    H136876   5.651   2.900   0.105 -0.6707  2.2892  2.1033
 4227TIP3    H236877   5.730   3.019   0.054  0.6870  0.1951 -1.0303
 4228TIP3   OH236878   2.980   1.282   0.579 -0.1311  0.4807 -0.1206
 4228TIP3    H136879   2.988   1.262   0.672  0.5903 -0.8335 -0.4415
 4228TIP3    H236880   2.887   1.276   0.561 -0.1669 -0.2672  0.3052
 4229TIP3   OH236881   2.142   6.999   8.843  0.1521  0.1049  0.1210
 4229TIP3    H136882   2.099   7.036   8.921 -0.0285  0.7162 -0.2654
 4229TIP3    H236883   2.088   6.923   8.820 -1.6039  1.6318 -1.1782
 4230TIP3   OH236884   4.433   0.228   2.701  0.1966  0.2387  0.0339
 4230TIP3    H136885   4.443   0.206   2.608 -1.6831 -0.0777 -0.1485
 4230TIP3    H236886   4.472   0.314   2.709 -1.0165  0.9908 -1.4558
 4231TIP3   OH236887   6.516   4.571   9.949  0.5368  0.5744  0.2916
 4231TIP3    H136888   6.585   4.547   9.886  1.5959  0.4832  1.4427
 4231TIP3    H236889   6.477   4.650   9.912 -1.4919 -1.5214 -2.4143
 4232TIP3   OH236890   0.667   3.981   1.451  0.4172 -0.3804  0.7351
 4232TIP3    H136891   0.732   3.945   1.513  0.5161 -0.8179  0.3843
 4232TIP3    H236892   0.609   3.907   1.432 -1.3835  0.4902  2.5417
 4233TIP3   OH236893   1.600   3.287   7.314  0.3482 -0.1640 -0.7729
 4233TIP3    H136894   1.616   3.373   7.274  1.0406 -0.3543 -0.9260
 4233TIP3    H236895   1.552   3.238   7.247 -2.0993  0.8253  0.1555
 4234TIP3   OH236896   0.003   3.341   8.126  0.4479  0.3533  0.1696
 4234TIP3    H136897  -0.022   3.251   8.144 -1.4558  0.6055 -1.0367
 4234TIP3    H236898  -0.002   3.350   8.031  1.8222  1.4252  0.1539
 4235TIP3   OH236899   5.467   0.489   8.129  0.3690 -0.4454  0.2148
 4235TIP3    H136900   5.527   0.561   8.148 -2.2310  2.1675 -0.7571
 4235TIP3    H236901   5.516   0.431   8.072  2.0373  1.4839 -0.4155
 4236TIP3   OH236902   7.343   4.070   2.306 -0.2987 -0.2990  0.1275
 4236TIP3    H136903   7.252   4.101   2.304  0.7471  3.2305 -1.5190
 4236TIP3    H236904   7.377   4.100   2.390 -0.5226 -1.2904  0.5832
 4237TIP3   OH236905   5.747   3.961   2.524 -0.1569 -0.2034  0.1649
 4237TIP3    H136906   5.705   4.025   2.582 -0.2449  0.1844 -0.3170
 4237TIP3    H236907   5.709   3.979   2.438 -1.1256 -1.7233  0.2227
 4238TIP3   OH236908   2.702   6.035   2.707  0.0672  0.2262 -0.2219
 4238TIP3    H136909   2.641   6.029   2.634  0.7675  0.6603 -0.8481
 4238TIP3    H236910   2.753   5.955   2.702  0.6711  0.6366 -0.7149
 4239TIP3   OH236911   1.647   0.958   2.364 -0.6988  0.3271  0.2822
 4239TIP3    H136912   1.704   0.957   2.441 -0.8478 -1.0004  0.4036
 4239TIP3    H236913   1.566   0.998   2.395 -1.3553 -1.6854  1.3122
 4240TIP3   OH236914   0.660   3.618   1.423 -0.5158 -0.1343  0.6624
 4240TIP3    H136915   0.720   3.570   1.480 -0.0445  2.0958  2.1483
 4240TIP3    H236916   0.577   3.570   1.431  0.6301 -2.4907 -0.4020
 4241TIP3   OH236917   3.878   7.259   1.409 -0.6367  0.0381 -0.5273
 4241TIP3    H136918   3.870   7.330   1.346  0.6856  0.8049  0.1419
 4241TIP3    H236919   3.840   7.293   1.490 -1.1266 -0.4620 -0.5440
 4242TIP3   OH236920   4.023   6.579   9.485 -0.3312  0.1142 -0.6849
 4242TIP3    H136921   4.007   6.673   9.479 -0.6141  0.0821 -0.4521
 4242TIP3    H236922   4.114   6.573   9.516  0.0712  0.2944 -1.7919
 4243TIP3   OH236923   6.386   0.633   9.253 -0.3996  0.1974  0.0866
 4243TIP3    H136924   6.432   0.586   9.184 -1.6847 -0.3966 -0.3849
 4243TIP3    H236925   6.327   0.693   9.207 -0.4378  0.6245  0.6751
 4244TIP3   OH236926   1.280   2.303   1.966 -0.0937 -0.1305 -0.1444
 4244TIP3    H136927   1.277   2.397   1.948 -2.6623  0.0235  0.7132
 4244TIP3    H236928   1.289   2.297   2.061  1.0139 -0.8061 -0.2673
 4245TIP3   OH236929   1.137   6.252   8.081  0.2655  0.1418  0.1019
 4245TIP3    H136930   1.163   6.211   8.164  0.7890 -0.1678 -0.2129
 4245TIP3    H236931   1.195   6.327   8.073  0.0032  0.3521  0.1668
 4246TIP3   OH236932   3.825   3.995   2.001  0.1574  0.0245 -0.5993
 4246TIP3    H136933   3.730   3.985   1.993  0.2625 -2.4880  0.3625
 4246TIP3    H236934   3.860   3.960   1.919  0.2961 -1.3405  0.0141
 4247TIP3   OH236935   6.870   7.393   0.123  0.5062 -0.1775 -0.0898
 4247TIP3    H136936   6.802   7.424   0.182  1.0733  0.8762  0.0475
 4247TIP3    H236937   6.947   7.446   0.145  0.9519 -0.2984 -1.2373
 4248TIP3   OH236938   6.168   5.506   1.761  0.4865  0.0794 -0.2954
 4248TIP3    H136939   6.193   5.439   1.825 -0.2898  0.1595  0.1047
 4248TIP3    H236940   6.143   5.582   1.815 -0.5286  0.0255 -0.6807
 4249TIP3   OH236941   2.793   0.846   1.117 -0.1784  0.7110  0.4040
 4249TIP3    H136942   2.741   0.924   1.099 -0.6031  0.2296 -0.4851
 4249TIP3    H236943   2.759   0.780   1.057 -1.1214 -0.7455  2.4610
 4250TIP3   OH236944   1.821   4.389   0.349  0.2266 -0.3124  0.5379
 4250TIP3    H136945   1.811   4.433   0.433 -0.6912 -0.7100  0.6464
 4250TIP3    H236946   1.894   4.328   0.362  0.3614 -0.0734  0.9100
 4251TIP3   OH236947   7.009   7.398   8.406  0.0715 -0.3024 -0.1938
 4251TIP3    H136948   6.998   7.463   8.336 -0.5740  0.1005  0.2664
 4251TIP3    H236949   7.044   7.448   8.480  1.6683 -0.9050 -0.5049
 4252TIP3   OH236950   2.261   2.503   9.934 -0.1177  0.1582  0.1128
 4252TIP3    H136951   2.324   2.511  10.005 -1.7538  0.0319  1.6530
 4252TIP3    H236952   2.229   2.413   9.939 -0.4015  0.1999 -0.6846
 4253TIP3   OH236953   5.690   6.565   0.976 -0.3187 -0.1777 -0.4291
 4253TIP3    H136954   5.784   6.577   0.960 -0.3280  0.2981 -0.1481
 4253TIP3    H236955   5.684   6.483   1.023 -0.0737 -0.3915 -0.7649
 4254TIP3   OH236956   7.019   4.826   8.580 -0.3274 -0.2142 -0.9075
 4254TIP3    H136957   7.048   4.861   8.663 -0.9227  0.9214 -1.1617
 4254TIP3    H236958   7.089   4.766   8.553  0.3802  0.2435 -0.1283
 4255TIP3   OH236959   1.203   1.635   1.404  0.5598  0.2859  0.1124
 4255TIP3    H136960   1.217   1.708   1.464  0.7142  0.4459 -0.1155
 4255TIP3    H236961   1.135   1.582   1.446  0.3947  0.5994  0.2455
 4256TIP3   OH236962   1.967   0.771   2.536 -0.4845 -0.3980  0.8094
 4256TIP3    H136963   1.903   0.834   2.570  0.1861  0.4192  0.6145
 4256TIP3    H236964   2.035   0.768   2.603  2.5077  3.7034 -1.5585
 4257TIP3   OH236965   4.109   1.310   8.647  0.0646 -0.2720 -0.0849
 4257TIP3    H136966   4.142   1.309   8.737  0.2186  1.3151 -0.0992
 4257TIP3    H236967   4.100   1.217   8.624 -3.0974 -0.8680  2.7180
 4258TIP3   OH236968   3.322   0.726   2.133 -0.1172  0.1017  1.0402
 4258TIP3    H136969   3.382   0.685   2.071 -1.8326  0.4113 -0.9256
 4258TIP3    H236970   3.379   0.775   2.193  1.6126  0.1280 -0.5417
 4259TIP3   OH236971   1.022   4.463   8.045  0.0234 -0.1867 -0.4258
 4259TIP3    H136972   0.993   4.520   8.116  0.3733 -0.3705 -0.1312
 4259TIP3    H236973   0.941   4.428   8.008 -0.1713  0.0965 -0.2719
 4260TIP3   OH236974   2.208   3.553   8.468 -0.3002  1.0295  0.6944
 4260TIP3    H136975   2.294   3.595   8.461  0.2703 -0.0847  0.7478
 4260TIP3    H236976   2.147   3.625   8.477  0.4090  1.9754 -1.3330
 4261TIP3   OH236977   5.059   6.975   9.303  0.5686 -0.4284  0.0255
 4261TIP3    H136978   5.138   6.920   9.295  0.7989 -0.1214  0.1518
 4261TIP3    H236979   5.080   7.035   9.375  1.1917  1.2899 -1.5154
 4262TIP3   OH236980   7.247   5.254   0.742 -0.1587 -0.2463 -0.8021
 4262TIP3    H136981   7.272   5.192   0.811 -1.2389 -1.5572 -1.5299
 4262TIP3    H236982   7.293   5.222   0.664 -0.2146  0.2624 -1.0418
 4263TIP3   OH236983   2.752   6.532   9.597  0.2183  0.2014 -0.4776
 4263TIP3    H136984   2.780   6.511   9.508  0.2308  0.4169 -0.5242
 4263TIP3    H236985   2.673   6.585   9.586  1.3077  1.9126 -0.4115
 4264TIP3   OH236986   3.223   5.225   1.105  0.0547  0.5395 -0.0760
 4264TIP3    H136987   3.210   5.320   1.105 -0.1986  0.5185 -0.9368
 4264TIP3    H236988   3.296   5.210   1.165  0.6609  1.3767 -0.5835
 4265TIP3   OH236989   1.512   1.106   1.500 -0.0292  0.3550  0.5592
 4265TIP3    H136990   1.564   1.041   1.547 -0.0114  0.0492  0.1167
 4265TIP3    H236991   1.509   1.075   1.410  0.6279  1.3613  0.1713
 4266TIP3   OH236992   7.436   4.589   8.179  0.2020 -0.3619 -0.5619
 4266TIP3    H136993   7.371   4.528   8.214 -0.4075 -0.1980 -1.3739
 4266TIP3    H236994   7.390   4.673   8.174 -0.1752 -0.6507 -2.9632
 4267TIP3   OH236995   6.461   2.564   7.937 -0.5048 -0.2217  0.1230
 4267TIP3    H136996   6.377   2.608   7.922 -0.5140 -0.0708  0.5968
 4267TIP3    H236997   6.522   2.607   7.877 -0.4350  0.6847  0.8187
 4268TIP3   OH236998   3.011   2.965   0.378  0.2188  0.2877  0.9094
 4268TIP3    H136999   3.086   2.962   0.438 -1.0202  2.0880  2.6977
 4268TIP3    H237000   3.021   3.049   0.332  0.6074 -0.6187 -0.7155
 4269TIP3   OH237001   0.403   0.476   7.542 -0.5065  0.0239 -0.8951
 4269TIP3    H137002   0.427   0.488   7.634 -0.9521 -0.3845 -0.7206
 4269TIP3    H237003   0.310   0.454   7.544 -0.5871  0.2898 -1.4681
 4270TIP3   OH237004   5.435   3.287   0.999 -0.3064  0.0336 -0.3268
 4270TIP3    H137005   5.389   3.315   1.077 -1.3210 -0.3780 -0.7653
 4270TIP3    H237006   5.513   3.343   0.995 -0.7062  0.6563  0.4781
 4271TIP3   OH237007   2.850   1.763   0.309 -0.0924 -0.4518  1.0829
 4271TIP3    H137008   2.884   1.831   0.368 -2.0804 -0.4605  2.3120
 4271TIP3    H237009   2.909   1.766   0.234  0.7595  1.6158  1.7495
 4272TIP3   OH237010   6.568   0.117   2.612 -0.0993 -0.0646  0.0423
 4272TIP3    H137011   6.579   0.087   2.702 -0.6218  1.4120  0.6261
 4272TIP3    H237012   6.488   0.074   2.582 -0.1821 -0.1995  0.4443
 4273TIP3   OH237013   5.989   6.297   8.699 -0.1039 -0.4194 -0.2462
 4273TIP3    H137014   5.972   6.218   8.648  0.1958 -1.2945  0.9794
 4273TIP3    H237015   5.909   6.348   8.692 -0.6558 -1.2696 -0.2720
 4274TIP3   OH237016   6.384   6.909   1.393 -0.1306  0.3889 -0.4474
 4274TIP3    H137017   6.290   6.910   1.374 -0.1778  1.3634 -0.2285
 4274TIP3    H237018   6.417   6.990   1.355  0.3731  0.7229  0.6573
 4275TIP3   OH237019   3.403   0.621   1.338  0.2166 -0.0464 -0.5573
 4275TIP3    H137020   3.489   0.606   1.299 -0.4089  0.5045 -2.2269
 4275TIP3    H237021   3.365   0.534   1.348 -0.3306 -0.1260 -2.9432
 4276TIP3   OH237022   2.237   2.990   1.969  0.3545 -0.2089  0.4845
 4276TIP3    H137023   2.290   2.994   2.049  0.1232  0.1112  0.6241
 4276TIP3    H237024   2.274   3.059   1.913  0.8250 -0.7471  0.1205
 4277TIP3   OH237025   1.636   4.812   0.752 -0.1188 -0.6050  0.4352
 4277TIP3    H137026   1.590   4.736   0.790  0.1726 -1.9851 -1.7813
 4277TIP3    H237027   1.728   4.796   0.772 -0.0675 -0.7949  0.0542
 4278TIP3   OH237028   1.131   3.012   1.432  0.1017  0.2056  0.4263
 4278TIP3    H137029   1.167   2.941   1.379  0.7954  0.4352  0.5818
 4278TIP3    H237030   1.064   3.052   1.376  0.6816  0.3192 -0.1992
 4279TIP3   OH237031   3.279   4.939   9.808  0.6575 -0.3991  0.9050
 4279TIP3    H137032   3.373   4.930   9.820  0.9088  0.5043 -0.1879
 4279TIP3    H237033   3.270   4.998   9.733 -0.7673 -1.5987  0.0605
 4280TIP3   OH237034   6.836   7.204   8.480 -0.3654  0.6362 -0.2209
 4280TIP3    H137035   6.908   7.267   8.469  0.1337  0.0502 -0.3723
 4280TIP3    H237036   6.844   7.146   8.404  1.5010 -1.8891  1.7500
 4281TIP3   OH237037   7.347   3.407   8.533  0.0642 -0.1118 -0.2222
 4281TIP3    H137038   7.356   3.355   8.612  0.4782 -1.7456 -1.2953
 4281TIP3    H237039   7.373   3.348   8.462  1.1504  1.7403 -1.4564
 4282TIP3   OH237040   3.638   1.683   9.029 -0.2970  0.4877 -0.5063
 4282TIP3    H137041   3.553   1.670   9.071 -0.5575  1.0979 -0.8298
 4282TIP3    H237042   3.678   1.596   9.027 -1.0982  0.1215 -0.7388
 4283TIP3   OH237043   5.758   5.095   9.381 -0.5460  0.6425 -0.0257
 4283TIP3    H137044   5.696   5.154   9.337 -0.7092 -1.0000 -2.2160
 4283TIP3    H237045   5.703   5.027   9.419 -0.2573  0.9766  1.0228
 4284TIP3   OH237046   2.432   3.722   9.913 -0.0004 -0.0945  1.0176
 4284TIP3    H137047   2.372   3.793   9.891 -0.0192 -0.2017  0.7207
 4284TIP3    H237048   2.392   3.681   9.990 -1.2025 -1.2088 -0.1417
 4285TIP3   OH237049   5.250   5.436   8.675  0.4022  0.0410 -0.3700
 4285TIP3    H137050   5.321   5.401   8.729  0.5280 -1.4308 -1.4217
 4285TIP3    H237051   5.281   5.425   8.585 -1.3378 -1.0998 -0.8736
 4286TIP3   OH237052   7.338   0.571   0.575 -0.2255  0.1325  0.5169
 4286TIP3    H137053   7.315   0.626   0.500  0.8347  1.6718  1.2677
 4286TIP3    H237054   7.328   0.629   0.651 -0.1731 -1.0598  1.4540
 4287TIP3   OH237055   3.170   2.312   7.799  0.0711 -0.0793 -0.1268
 4287TIP3    H137056   3.145   2.349   7.884  0.2458  0.1964 -0.1954
 4287TIP3    H237057   3.209   2.385   7.751  0.4791 -0.3644 -0.2377
 4288TIP3   OH237058   1.360   3.430   8.181  0.2899 -0.3126  0.2988
 4288TIP3    H137059   1.385   3.352   8.132 -1.4903 -0.0835 -1.0781
 4288TIP3    H237060   1.398   3.417   8.268  0.0999 -2.6604  0.0875
 4289TIP3   OH237061   2.130   3.740   2.338 -0.1557 -0.0132 -0.0040
 4289TIP3    H137062   2.156   3.727   2.429  0.0639 -0.3703 -0.1177
 4289TIP3    H237063   2.212   3.749   2.290 -0.2707  0.1710 -0.1674
 4290TIP3   OH237064   5.756   1.859   8.486 -0.3301  0.2740  0.3505
 4290TIP3    H137065   5.702   1.825   8.415  1.1638 -0.1415 -0.6209
 4290TIP3    H237066   5.749   1.954   8.478  2.2028  0.3451 -2.3298
 4291TIP3   OH237067   1.647   5.796   8.372  0.4042 -0.1265 -0.1390
 4291TIP3    H137068   1.559   5.827   8.354  0.3029 -0.1606  0.2889
 4291TIP3    H237069   1.643   5.702   8.357  0.2246 -0.2110  0.4119
 4292TIP3   OH237070   3.343   1.461   8.149  0.1979 -0.3168 -0.4376
 4292TIP3    H137071   3.358   1.541   8.099 -2.7117  0.8028  0.3002
 4292TIP3    H237072   3.313   1.397   8.085 -0.6185  0.2087 -0.5959
 4293TIP3   OH237073   2.590   2.807   0.112  0.0568  0.0987 -0.1477
 4293TIP3    H137074   2.533   2.877   0.079  0.6809  1.2543  1.1349
 4293TIP3    H237075   2.677   2.846   0.116  0.4701 -0.8392  0.3391
 4294TIP3   OH237076   1.905   1.074   3.247 -0.4220  0.1898 -0.0393
 4294TIP3    H137077   1.845   1.104   3.315  0.2993 -0.2894  0.8270
 4294TIP3    H237078   1.857   1.088   3.165 -1.1343  1.1778  0.5225
 4295TIP3   OH237079   0.080   0.930   2.357 -0.4392 -0.0003 -0.0815
 4295TIP3    H137080   0.135   1.005   2.332  0.2959 -0.0388  1.2891
 4295TIP3    H237081   0.104   0.913   2.448 -1.6517 -0.9998  0.0738
 4296TIP3   OH237082   2.150   0.702   7.584  0.3608  0.1973 -0.5640
 4296TIP3    H137083   2.246   0.708   7.584  0.3486  1.7385  1.8590
 4296TIP3    H237084   2.122   0.764   7.651 -2.3469 -0.5054 -0.9241
 4297TIP3   OH237085   0.060   3.028   0.054 -0.1827 -0.1042  0.1638
 4297TIP3    H137086   0.093   3.055  -0.031 -1.4774 -1.2924 -0.7632
 4297TIP3    H237087   0.009   2.949   0.036 -0.6048 -0.2961  2.0179
 4298TIP3   OH237088   6.132   6.854   0.487 -0.2916  0.2200  0.2482
 4298TIP3    H137089   6.055   6.883   0.439 -1.3174 -1.8486  0.5433
 4298TIP3    H237090   6.109   6.864   0.579 -0.8851 -1.8127  0.3827
 4299TIP3   OH237091   3.054   0.417   1.858 -0.4646  0.3014 -0.2146
 4299TIP3    H137092   3.038   0.505   1.893 -0.9609  0.2349 -0.2624
 4299TIP3    H237093   3.051   0.428   1.763 -0.6612  0.2076 -0.2184
 4300TIP3   OH237094   2.340   2.072   0.193  0.2477 -0.6042  0.0304
 4300TIP3    H137095   2.276   2.061   0.263 -0.0397  0.1441 -0.0983
 4300TIP3    H237096   2.409   2.127   0.231  0.3987 -0.7113 -0.0846
 4301TIP3   OH237097   6.761   0.714   1.710 -0.2712  0.2500  0.0979
 4301TIP3    H137098   6.797   0.725   1.622  0.8339  0.7247  0.5887
 4301TIP3    H237099   6.674   0.678   1.696 -0.0429  0.1526 -1.1827
 4302TIP3   OH237100   0.033   3.746   0.468 -0.0439 -0.2193 -0.5466
 4302TIP3    H137101   0.063   3.828   0.506 -1.8780  1.2370 -2.0585
 4302TIP3    H237102  -0.051   3.729   0.512 -0.1034 -0.8306 -0.8821
 4303TIP3   OH237103   3.664   0.240   9.176 -0.1757 -0.3394 -0.4297
 4303TIP3    H137104   3.667   0.145   9.167  0.2325 -0.2356 -1.5607
 4303TIP3    H237105   3.580   0.257   9.218  0.6108 -1.3054  1.7061
 4304TIP3   OH237106   1.450   5.791   8.721  0.6971  0.3191  0.3940
 4304TIP3    H137107   1.454   5.877   8.762 -0.5200  0.0283  1.1824
 4304TIP3    H237108   1.528   5.746   8.753  0.8168  0.7886  0.7759
 4305TIP3   OH237109   7.092   7.225   0.230  0.9075  0.2871  0.7243
 4305TIP3    H137110   7.038   7.297   0.197  1.5376  0.5698  0.2765
 4305TIP3    H237111   7.066   7.149   0.178 -0.7034 -0.1569  2.0865
 4306TIP3   OH237112   6.961   2.897   8.056  0.0966 -0.1531 -0.7628
 4306TIP3    H137113   6.935   2.828   8.118 -1.1683  2.0071  1.2904
 4306TIP3    H237114   6.936   2.863   7.971 -1.6734 -1.7272  0.3024
 4307TIP3   OH237115   2.761   6.273   1.547  0.1771 -0.5599 -0.0088
 4307TIP3    H137116   2.718   6.188   1.545  1.5799 -1.3657  1.9069
 4307TIP3    H237117   2.709   6.324   1.610 -0.2405 -0.2239 -0.6186
 4308TIP3   OH237118   3.418   6.285   9.764  0.1641  0.1099 -0.0413
 4308TIP3    H137119   3.451   6.213   9.710 -1.8294 -0.2687 -0.8585
 4308TIP3    H237120   3.327   6.262   9.781  0.0593  1.4472  1.4618
 4309TIP3   OH237121   7.368   1.025   1.415  0.2579 -0.0218 -0.3680
 4309TIP3    H137122   7.280   1.017   1.452  0.6817 -1.2291  0.4326
 4309TIP3    H237123   7.405   1.102   1.459 -0.7682  1.2167 -1.5679
 4310TIP3   OH237124   0.977   5.237   8.303  0.3874  0.4390 -0.0813
 4310TIP3    H137125   1.041   5.167   8.289 -0.2821 -0.0647 -0.6942
 4310TIP3    H237126   0.921   5.205   8.373  0.7442  0.8382  0.3878
 4311TIP3   OH237127   4.694   5.846   1.117  0.0322 -0.2791  0.3327
 4311TIP3    H137128   4.714   5.928   1.162 -0.4384  0.3944 -0.6450
 4311TIP3    H237129   4.653   5.791   1.185  0.7571  0.1097  1.1062
 4312TIP3   OH237130   3.562   0.823   0.347 -0.6983  0.2527  0.1573
 4312TIP3    H137131   3.639   0.767   0.346 -0.8565 -0.0949 -2.8085
 4312TIP3    H237132   3.589   0.903   0.301 -2.0160  0.1474 -0.8997
 4313TIP3   OH237133   2.897   5.651   8.216 -0.0964 -0.4357  0.1444
 4313TIP3    H137134   2.905   5.650   8.121  0.1407  4.2515 -0.1087
 4313TIP3    H237135   2.803   5.661   8.232  0.0499  1.0277  0.2194
 4314TIP3   OH237136   2.308   4.049   6.603 -0.1536 -0.6315 -0.7629
 4314TIP3    H137137   2.339   4.139   6.599  0.1864 -0.7205 -0.1767
 4314TIP3    H237138   2.213   4.057   6.594  0.0474 -0.4097 -3.1694
 4315TIP3   OH237139   0.801   5.030   0.030  0.0169  0.0443  0.0741
 4315TIP3    H137140   0.719   5.078   0.019 -0.1340  0.0361  1.0605
 4315TIP3    H237141   0.853   5.053  -0.046 -1.8738 -1.9731 -1.9694
 4316TIP3   OH237142   4.570   6.819   0.571  0.4249 -0.4514 -0.3982
 4316TIP3    H137143   4.608   6.903   0.594  1.9159 -0.9058 -1.0515
 4316TIP3    H237144   4.642   6.770   0.531 -0.1602 -2.3697  0.7599
 4317TIP3   OH237145   6.784   0.079   8.669 -0.6204  0.4120  0.1628
 4317TIP3    H137146   6.825   0.108   8.587 -1.3130  2.6458  0.5368
 4317TIP3    H237147   6.697   0.048   8.642 -0.0583 -0.9518 -0.1783
 4318TIP3   OH237148   6.734   0.349   1.658 -0.1326 -0.7118 -0.4574
 4318TIP3    H137149   6.657   0.405   1.666  1.1787  1.2721 -0.9234
 4318TIP3    H237150   6.761   0.358   1.566  0.8225 -1.0903 -0.2280
 4319TIP3   OH237151   6.757   4.043   8.793 -0.1834  0.2935  0.3050
 4319TIP3    H137152   6.782   4.066   8.703 -0.0550 -1.3602 -0.1197
 4319TIP3    H237153   6.840   4.029   8.838 -0.2400  1.5186  0.8045
 4320TIP3   OH237154   5.935   1.141   8.462 -0.1953  0.9472  0.2355
 4320TIP3    H137155   5.982   1.225   8.465  2.9756 -0.6830  1.2480
 4320TIP3    H237156   5.898   1.132   8.549 -0.1900  1.1264  0.2572
 4321TIP3   OH237157   0.829   2.740   1.354  0.1020 -0.1875  0.4644
 4321TIP3    H137158   0.821   2.705   1.442 -0.5606 -0.7242  0.1989
 4321TIP3    H237159   0.867   2.668   1.303  1.6238  0.5117  0.5444
 4322TIP3   OH237160   1.200   1.068   7.682  0.1893 -0.4141 -0.1298
 4322TIP3    H137161   1.285   1.091   7.644 -0.9713  1.0978 -2.0049
 4322TIP3    H237162   1.159   1.012   7.617 -0.7186 -0.1763  0.2217
 4323TIP3   OH237163   6.542   0.535   1.632 -0.4453  0.3205 -0.1103
 4323TIP3    H137164   6.456   0.492   1.640  0.0352 -0.5666  0.4341
 4323TIP3    H237165   6.521   0.624   1.602 -1.3954 -0.5674 -2.2465
 4324TIP3   OH237166   1.255   2.639   0.176  0.3060  0.5633 -0.0998
 4324TIP3    H137167   1.231   2.547   0.187  0.0613  0.6113 -0.2115
 4324TIP3    H237168   1.284   2.645   0.084  0.2162  0.6191 -0.1250
 4325TIP3   OH237169   6.598   3.511   9.052  0.4884  0.2001  0.3112
 4325TIP3    H137170   6.506   3.526   9.074  0.3995  0.4293 -0.2002
 4325TIP3    H237171   6.603   3.417   9.032  0.6538 -0.1023  1.6611
 4326TIP3   OH237172   5.922   1.342   0.123 -0.4835 -0.4445 -0.1682
 4326TIP3    H137173   5.841   1.391   0.106 -0.6325 -0.6915 -0.1739
 4326TIP3    H237174   5.893   1.263   0.168 -0.0511  0.5179  1.9210
 4327TIP3   OH237175   4.473   4.182   2.868  0.1623  0.1722  0.3051
 4327TIP3    H137176   4.406   4.250   2.876  0.5375  0.2918  3.3608
 4327TIP3    H237177   4.534   4.217   2.803 -0.1471  2.3513  1.1104
 4328TIP3   OH237178   2.600   6.321   7.618  0.4889  0.0669 -0.5150
 4328TIP3    H137179   2.590   6.415   7.603  2.0084  0.5003  0.8999
 4328TIP3    H237180   2.694   6.308   7.625  0.3045 -1.6091 -0.8825
 4329TIP3   OH237181   0.390   0.502   7.803 -0.1375  0.5579 -0.3415
 4329TIP3    H137182   0.408   0.518   7.896  3.1443 -0.7791 -0.6199
 4329TIP3    H237183   0.296   0.484   7.800  0.0924 -2.2960  3.2311
 4330TIP3   OH237184   1.567   1.265   1.894  0.2723  0.3750  0.2665
 4330TIP3    H137185   1.508   1.295   1.824  1.7363 -0.5097 -1.4312
 4330TIP3    H237186   1.649   1.311   1.877  0.9780 -0.6929  0.7275
 4331TIP3   OH237187   0.923   4.813   8.499  0.1106 -0.3512 -0.2179
 4331TIP3    H137188   0.834   4.834   8.471 -0.4954 -0.3767  1.5494
 4331TIP3    H237189   0.955   4.753   8.432 -0.1160  1.8281 -2.4158
 4332TIP3   OH237190   4.442   0.071   1.102  0.4413  0.1274 -0.0373
 4332TIP3    H137191   4.497  -0.004   1.077 -0.0035 -0.1251 -0.2587
 4332TIP3    H237192   4.493   0.116   1.170 -0.6007 -2.0922  2.3644
 4333TIP3   OH237193   6.802   6.196   8.603 -0.5500 -0.1920  0.5414
 4333TIP3    H137194   6.830   6.279   8.562 -2.0624 -0.4229 -1.0857
 4333TIP3    H237195   6.750   6.223   8.678 -0.5547  0.3337  0.3575
 4334TIP3   OH237196   4.350   6.247   9.930 -0.0991  0.3391 -0.5137
 4334TIP3    H137197   4.398   6.280   9.855 -0.7606  2.4277 -0.0820
 4334TIP3    H237198   4.407   6.265  10.005  0.2354 -1.0430 -0.4150
 4335TIP3   OH237199   1.127   7.007   7.337  0.1965 -0.0538  0.3137
 4335TIP3    H137200   1.161   6.930   7.293 -0.9470  0.9670 -2.5559
 4335TIP3    H237201   1.047   6.976   7.380 -0.0852 -0.5624 -0.5518
 4336TIP3   OH237202   2.894   0.322   0.763 -0.1535  0.0034  0.3234
 4336TIP3    H137203   2.878   0.407   0.804 -0.2610 -0.6068  1.6094
 4336TIP3    H237204   2.861   0.258   0.827  1.2692 -1.0525  0.0542
 4337TIP3   OH237205   3.687   4.948   7.687 -0.1860 -0.4021  0.7005
 4337TIP3    H137206   3.658   4.953   7.595 -1.5585  0.3706  1.1463
 4337TIP3    H237207   3.689   5.039   7.716  4.0693 -0.1780  0.3835
 4338TIP3   OH237208   0.644   6.761   9.289 -0.4819  0.1106 -0.0827
 4338TIP3    H137209   0.607   6.788   9.373 -0.2260 -0.3320  0.1790
 4338TIP3    H237210   0.670   6.842   9.246 -1.8870  0.4480 -0.3337
 4339TIP3   OH237211   1.852   4.969   1.969  0.5237  0.0370 -0.2294
 4339TIP3    H137212   1.782   4.960   1.904  0.7375  1.3811 -0.6813
 4339TIP3    H237213   1.876   5.062   1.966  3.0201 -0.5619 -0.7947
 4340TIP3   OH237214   2.237   6.255   1.016  0.1496 -0.2133  0.1629
 4340TIP3    H137215   2.170   6.279   0.952 -0.2507  0.9867  1.0114
 4340TIP3    H237216   2.258   6.164   0.995  0.4348  0.3047 -2.0245
 4341TIP3   OH237217   0.912   4.672   0.098 -0.2983  0.3554  0.0138
 4341TIP3    H137218   0.838   4.643   0.045  0.7395  1.6448 -2.2582
 4341TIP3    H237219   0.974   4.598   0.096 -0.2952  0.3735 -0.5234
 4342TIP3   OH237220   1.177   1.519   2.185 -0.2492  0.2905  0.2209
 4342TIP3    H137221   1.128   1.540   2.265 -1.6111  0.2318 -0.5619
 4342TIP3    H237222   1.136   1.439   2.152  2.1586 -1.3509  0.9446
 4343TIP3   OH237223   6.875   3.258   9.618 -0.0449 -0.5322  0.2660
 4343TIP3    H137224   6.882   3.334   9.560  0.0259 -1.0349 -0.3917
 4343TIP3    H237225   6.964   3.223   9.622 -0.4965 -1.9557 -1.3222
 4344TIP3   OH237226   4.756   2.122   1.305 -0.1250 -0.1424 -0.3194
 4344TIP3    H137227   4.761   2.215   1.328 -1.8110 -0.4204  1.5739
 4344TIP3    H237228   4.676   2.092   1.349  0.8898 -2.7016 -0.0553
 4345TIP3   OH237229   6.365   2.356   1.759 -0.7172 -0.1243 -0.5676
 4345TIP3    H137230   6.388   2.276   1.711 -0.1057 -0.9118  0.9699
 4345TIP3    H237231   6.371   2.331   1.852  0.6171  2.0031 -0.0207
 4346TIP3   OH237232   1.016   4.588   8.881  0.1704  0.3620 -0.2355
 4346TIP3    H137233   1.074   4.625   8.948 -1.4185  2.2010  0.1999
 4346TIP3    H237234   1.075   4.566   8.809  1.5079  1.5519  0.4383
 4347TIP3   OH237235   4.648   6.783   0.941 -0.1906 -0.0332  0.9459
 4347TIP3    H137236   4.714   6.823   0.884 -1.0690  0.8492  0.5122
 4347TIP3    H237237   4.606   6.716   0.887  0.3343 -0.5891  1.2193
 4348TIP3   OH237238   3.029   1.261   9.375  0.3096  0.2634  0.1466
 4348TIP3    H137239   3.039   1.275   9.281  1.0675  1.1881  0.3502
 4348TIP3    H237240   2.963   1.192   9.382  2.5614 -2.2465 -1.1917
 4349TIP3   OH237241   6.820   0.186   9.657  0.1534 -0.5494  0.1344
 4349TIP3    H137242   6.849   0.275   9.637 -0.1953  0.0279  1.9928
 4349TIP3    H237243   6.888   0.152   9.715 -1.1755 -0.3165  1.9565
 4350TIP3   OH237244   0.835   1.899   7.061  0.7977  0.3923  0.1673
 4350TIP3    H137245   0.897   1.930   7.127  1.0912 -1.9014  1.0715
 4350TIP3    H237246   0.878   1.822   7.022 -1.0033 -0.6538  0.1162
 4351TIP3   OH237247   4.205   0.841   0.291 -0.3650 -0.3164  0.0227
 4351TIP3    H137248   4.271   0.904   0.263 -0.6543  0.2370  0.5664
 4351TIP3    H237249   4.232   0.814   0.378  1.5868 -3.4761 -1.3930
 4352TIP3   OH237250   6.866   6.501   9.509 -0.4736  0.7486  0.2847
 4352TIP3    H137251   6.945   6.553   9.526 -1.6139  2.5731  0.2855
 4352TIP3    H237252   6.895   6.410   9.515  1.1131  1.3380  2.7450
 4353TIP3   OH237253   4.353   6.253   0.530  0.2465 -0.3470  0.2684
 4353TIP3    H137254   4.334   6.312   0.457 -2.3000  0.4929  1.4920
 4353TIP3    H237255   4.352   6.166   0.492 -1.6982  0.0219 -0.6377
 4354TIP3   OH237256   4.231   1.999   9.695  0.5144  0.1639 -0.2722
 4354TIP3    H137257   4.231   1.939   9.620 -3.4395 -1.1731  0.5310
 4354TIP3    H237258   4.234   1.941   9.772 -2.0646  0.9500  0.5188
 4355TIP3   OH237259   1.141   7.465   7.751  0.1414  0.0946 -0.4024
 4355TIP3    H137260   1.152   7.411   7.673  0.4328 -2.2541  1.1575
 4355TIP3    H237261   1.050   7.451   7.777  0.0975  0.7285 -0.1949
 4356TIP3   OH237262   3.451   4.356   8.145 -0.2066 -0.2402  0.3106
 4356TIP3    H137263   3.486   4.313   8.067  1.2270  1.4367 -0.0277
 4356TIP3    H237264   3.521   4.346   8.210 -0.1129  0.9920  0.4161
 4357TIP3   OH237265   1.026   6.321   9.699 -0.0147 -0.2613 -0.1170
 4357TIP3    H137266   1.011   6.409   9.666 -0.4028 -0.1966  0.2190
 4357TIP3    H237267   1.102   6.330   9.757  0.9171 -0.4523 -1.2760
 4358TIP3   OH237268   0.604   4.228   1.531  0.5018  0.3854  0.4908
 4358TIP3    H137269   0.635   4.139   1.512 -1.1567 -0.6853  2.3032
 4358TIP3    H237270   0.648   4.252   1.613  0.1671  0.7937  0.5572
 4359TIP3   OH237271   1.186   4.102   9.931 -0.3520  0.4122  0.2446
 4359TIP3    H137272   1.104   4.147   9.911 -2.1514 -3.2299 -1.3248
 4359TIP3    H237273   1.177   4.075  10.023 -1.1851 -0.4263 -0.0719
 4360TIP3   OH237274   0.849   7.199   0.314  0.2011 -0.3111 -0.0894
 4360TIP3    H137275   0.773   7.233   0.267  1.3514  0.0103 -1.8493
 4360TIP3    H237276   0.818   7.118   0.353 -1.0158 -0.2725 -0.8939
 4361TIP3   OH237277   2.954   5.799   1.851  0.0418  0.0091 -0.0786
 4361TIP3    H137278   2.921   5.755   1.930 -0.4209 -0.1671 -0.3632
 4361TIP3    H237279   2.923   5.889   1.860  2.5674  0.8349  1.4283
 4362TIP3   OH237280   4.667   1.818   9.654  0.2741 -0.9752 -0.2236
 4362TIP3    H137281   4.734   1.802   9.587  0.6576  0.4845 -0.2220
 4362TIP3    H237282   4.707   1.787   9.735  1.6872  1.3931  0.0715
 4363TIP3   OH237283   6.469   6.917   1.657  0.3438 -0.3302  0.2341
 4363TIP3    H137284   6.423   6.910   1.573 -1.5831 -1.8926  1.3140
 4363TIP3    H237285   6.542   6.976   1.640 -0.4969  0.1053 -2.3054
 4364TIP3   OH237286   3.642   5.852   1.959  0.2057 -0.6064  0.0683
 4364TIP3    H137287   3.689   5.934   1.945  0.7137 -1.0591 -0.9917
 4364TIP3    H237288   3.556   5.879   1.992 -0.6946  0.5578 -2.8636
 4365TIP3   OH237289   3.278   7.297   0.562 -0.1818 -0.4357  0.2944
 4365TIP3    H137290   3.320   7.317   0.646  2.0594 -1.0520 -0.6057
 4365TIP3    H237291   3.336   7.233   0.520 -1.2915 -0.2401 -1.6953
 4366TIP3   OH237292   3.152   7.159   0.862  0.4348 -0.4612 -0.2801
 4366TIP3    H137293   3.105   7.079   0.885  0.5364 -0.5955 -0.5344
 4366TIP3    H237294   3.103   7.195   0.788  0.3663 -0.2665 -0.1422
 4367TIP3   OH237295   5.546   7.145   8.711 -1.1685  0.0482  0.4388
 4367TIP3    H137296   5.614   7.115   8.650 -1.4915  0.7614 -0.2946
 4367TIP3    H237297   5.514   7.066   8.753 -0.6949 -0.4202 -0.0671
 4368TIP3   OH237298   0.296   0.061   0.709 -0.6530  0.1668 -0.3815
 4368TIP3    H137299   0.245   0.018   0.639  0.1698 -0.6508 -0.4968
 4368TIP3    H237300   0.256   0.031   0.790  1.2502 -2.6698 -0.3759
 4369TIP3   OH237301   6.003   0.554   0.661  0.2177  0.6032  0.3573
 4369TIP3    H137302   6.094   0.566   0.635  0.1457 -0.1930 -0.3011
 4369TIP3    H237303   5.956   0.541   0.579 -0.3220  0.0173  0.7462
 4370TIP3   OH237304   1.693   0.431   1.749  0.0595 -0.4231 -0.3687
 4370TIP3    H137305   1.668   0.520   1.773 -0.4262 -0.7085  0.2141
 4370TIP3    H237306   1.784   0.438   1.719  0.4316  0.0711  0.8332
 4371TIP3   OH237307   3.050   3.135   9.809  0.0291  0.2188 -0.3760
 4371TIP3    H137308   3.062   3.057   9.754  0.8970 -0.5532  0.8675
 4371TIP3    H237309   2.963   3.124   9.847  0.9744 -1.3025  1.4973
 4372TIP3   OH237310   4.123   5.037   1.302 -1.0773  0.1344  0.2091
 4372TIP3    H137311   4.085   4.956   1.268 -0.3492  0.7574 -2.3157
 4372TIP3    H237312   4.049   5.086   1.337 -1.6696 -1.1398  0.8116
 4373TIP3   OH237313   2.163   7.203   0.758 -0.3373  0.2247 -0.4233
 4373TIP3    H137314   2.190   7.159   0.839  0.8155 -0.0367 -0.9294
 4373TIP3    H237315   2.181   7.139   0.689 -0.1364  0.9021 -1.0097
 4374TIP3   OH237316   1.910   2.945   7.863  0.3467  0.1023  0.5504
 4374TIP3    H137317   1.928   3.032   7.829 -1.6237 -0.3489 -1.9550
 4374TIP3    H237318   1.997   2.905   7.874  1.2086  1.0117 -2.1869
 4375TIP3   OH237319   6.482   5.873   7.683  0.4542  0.0010 -0.1809
 4375TIP3    H137320   6.574   5.897   7.688  0.6321 -0.7518  0.2095
 4375TIP3    H237321   6.480   5.780   7.704 -0.5613  0.3304  1.2838
 4376TIP3   OH237322   7.022   4.933   9.758 -0.0802  0.4666  0.0439
 4376TIP3    H137323   6.980   4.883   9.827  1.7237  0.0042  0.8438
 4376TIP3    H237324   6.963   4.924   9.683 -0.3187 -1.9810  0.4606
 4377TIP3   OH237325   0.243   0.920   1.404 -0.0339  0.1013 -0.0496
 4377TIP3    H137326   0.237   0.895   1.496  0.6931 -0.6445 -0.1944
 4377TIP3    H237327   0.330   0.959   1.395 -0.4305  0.9703 -0.2440
 4378TIP3   OH237328   6.807   6.826   7.281 -0.5907  0.1051 -0.6803
 4378TIP3    H137329   6.818   6.920   7.297  1.2311 -0.2355  0.2903
 4378TIP3    H237330   6.889   6.798   7.242 -1.1743 -1.0765 -1.1017
 4379TIP3   OH237331   4.241   0.260   8.287 -0.0582  0.1323  0.2636
 4379TIP3    H137332   4.207   0.274   8.199  0.2963  3.1031  0.5106
 4379TIP3    H237333   4.293   0.180   8.280  2.5630  1.8619 -3.0933
 4380TIP3   OH237334   0.479   7.459   9.782  0.0420 -0.3657 -0.2307
 4380TIP3    H137335   0.557   7.513   9.795  0.7266 -1.4517  0.3085
 4380TIP3    H237336   0.433   7.500   9.709 -0.4712  2.0759  1.3202
 4381TIP3   OH237337   4.325   1.571   9.244  0.2706 -0.4300  0.7659
 4381TIP3    H137338   4.369   1.502   9.293  0.8279  0.2874  1.2985
 4381TIP3    H237339   4.251   1.597   9.299  0.2005 -0.4339  0.6737
 4382TIP3   OH237340   0.054   2.965   0.590 -0.0357 -0.5088 -1.0220
 4382TIP3    H137341   0.009   2.994   0.669  0.3248 -0.8849 -0.6773
 4382TIP3    H237342   0.132   3.020   0.586  0.2844 -0.9429 -0.7552
 4383TIP3   OH237343   1.597   1.870   1.152  0.1770 -0.3720  0.6960
 4383TIP3    H137344   1.661   1.838   1.089  1.1767 -0.6040  1.7781
 4383TIP3    H237345   1.515   1.878   1.103  0.3262 -2.8317 -0.0776
 4384TIP3   OH237346   0.417   1.264   0.175  0.3228  0.0275  0.3839
 4384TIP3    H137347   0.405   1.205   0.101 -0.3758 -0.3060  0.7568
 4384TIP3    H237348   0.400   1.210   0.252  1.3328  0.2963  0.8091
 4385TIP3   OH237349   0.511   6.921   1.734 -0.6015 -0.4542 -0.1251
 4385TIP3    H137350   0.600   6.926   1.769 -0.6309  1.6364 -0.2282
 4385TIP3    H237351   0.462   6.871   1.799  0.0785  0.6215  1.2574
 4386TIP3   OH237352   6.054   0.245   7.811 -0.4486 -0.0980  0.2193
 4386TIP3    H137353   6.026   0.194   7.735 -1.2401  3.9238 -2.4829
 4386TIP3    H237354   6.137   0.285   7.784 -0.7235  1.4006  1.4319
 4387TIP3   OH237355   6.422   4.399   7.514  0.2565 -0.3723  0.4355
 4387TIP3    H137356   6.507   4.413   7.555  0.8365 -3.3899  0.4737
 4387TIP3    H237357   6.432   4.435   7.426  1.8377 -1.2004  0.2374
 4388TIP3   OH237358   2.372   2.547   1.223  0.1588 -0.1924 -0.2801
 4388TIP3    H137359   2.434   2.485   1.185 -0.0047 -0.9191  0.6130
 4388TIP3    H237360   2.421   2.629   1.228  1.3939 -0.9744  1.2897
 4389TIP3   OH237361   5.073   1.677   9.091 -0.1202 -0.2700 -0.9750
 4389TIP3    H137362   5.114   1.763   9.082 -2.2273  0.8929 -0.1343
 4389TIP3    H237363   5.013   1.672   9.017 -0.7104 -0.5723 -0.4873
 4390TIP3   OH237364   3.390   3.917   9.821  0.0663  0.2705 -0.8162
 4390TIP3    H137365   3.435   3.837   9.795  0.8769  0.1671  0.7684
 4390TIP3    H237366   3.352   3.897   9.907 -0.5062  1.2905 -0.8101
 4391TIP3   OH237367   2.013   6.936   0.130  0.4501  0.0279 -0.7162
 4391TIP3    H137368   1.928   6.902   0.099  1.0728 -1.0004 -1.3714
 4391TIP3    H237369   2.028   7.014   0.077 -0.9953  1.4018  0.7912
 4392TIP3   OH237370   4.411   1.226   1.959 -0.2446 -0.0421 -0.2086
 4392TIP3    H137371   4.506   1.228   1.945 -0.5709  0.4706 -2.9206
 4392TIP3    H237372   4.390   1.314   1.991 -0.0010  0.4279 -1.3102
 4393TIP3   OH237373   2.104   4.345   0.203  0.4576  0.7407 -0.3060
 4393TIP3    H137374   2.094   4.298   0.286  0.5999  0.2465 -0.5635
 4393TIP3    H237375   2.193   4.379   0.205  1.1306 -0.8331 -1.0260
 4394TIP3   OH237376   7.187   0.332   2.686  0.5061 -0.3350 -0.3330
 4394TIP3    H137377   7.227   0.318   2.772 -1.0349  1.2807  0.7298
 4394TIP3    H237378   7.140   0.251   2.667 -1.3864  0.1683  1.7038
 4395TIP3   OH237379   2.981   3.719   0.038  0.3051 -0.2333  0.1432
 4395TIP3    H137380   2.955   3.723   0.130  0.0319  0.1721  0.0519
 4395TIP3    H237381   2.929   3.647   0.002  0.7639 -0.7087  0.4101
 4396TIP3   OH237382   5.098   2.174   0.462 -0.2093  0.6342 -0.4430
 4396TIP3    H137383   5.114   2.258   0.506 -1.3008  0.5542  0.1173
 4396TIP3    H237384   5.078   2.113   0.533  2.2762 -0.5798 -0.6523
 4397TIP3   OH237385   6.236   2.636   8.290  0.0387 -0.0707  0.7042
 4397TIP3    H137386   6.218   2.547   8.260 -0.6450  0.3005 -0.0279
 4397TIP3    H237387   6.170   2.651   8.358 -1.2062  0.5884 -0.6043
 4398TIP3   OH237388   7.323   6.242   0.542  1.0504 -0.1301 -0.1784
 4398TIP3    H137389   7.362   6.328   0.527  1.0841 -0.1337 -0.1128
 4398TIP3    H237390   7.229   6.259   0.547  1.0820 -0.0504  0.1583
 4399TIP3   OH237391   4.794   0.861   9.718 -0.3176  0.5732 -0.0716
 4399TIP3    H137392   4.699   0.865   9.727 -0.3527  1.0518 -0.5937
 4399TIP3    H237393   4.809   0.841   9.626  0.0754 -1.0252  0.3109
 4400TIP3   OH237394   1.102   4.469   2.099 -0.0635  0.2300  0.4350
 4400TIP3    H137395   1.196   4.487   2.093  0.1153 -0.7700  0.1297
 4400TIP3    H237396   1.080   4.484   2.191  0.8924 -1.8238  1.0562
 4401TIP3   OH237397   5.341   6.476   0.020  0.0929 -0.5469  0.3677
 4401TIP3    H137398   5.295   6.392   0.025  1.0414 -1.3189 -2.1947
 4401TIP3    H237399   5.288   6.529  -0.038  0.7987 -0.3034 -0.0647
 4402TIP3   OH237400   0.975   4.908   0.206 -0.0612 -0.1579  0.2005
 4402TIP3    H137401   0.929   4.978   0.160  0.4928  0.1634  0.1221
 4402TIP3    H237402   0.938   4.827   0.171 -1.0771  0.0899  0.6719
 4403TIP3   OH237403   3.467   5.752   8.629 -0.4107  0.2090  0.0141
 4403TIP3    H137404   3.455   5.779   8.719  2.6745  0.0392  0.5842
 4403TIP3    H237405   3.450   5.830   8.577  3.0102  1.9689  1.2355
 4404TIP3   OH237406   5.715   6.484   8.177 -0.2964  0.0616 -0.0113
 4404TIP3    H137407   5.783   6.498   8.111 -0.2777  0.6208  0.1145
 4404TIP3    H237408   5.725   6.393   8.204 -0.0794 -0.0710 -0.5276
 4405TIP3   OH237409   6.104   6.766   9.802  0.6186  0.2282  0.2443
 4405TIP3    H137410   6.161   6.760   9.725 -1.6424 -0.5630 -1.4916
 4405TIP3    H237411   6.087   6.674   9.825 -1.3884  0.3641 -0.4918
 4406TIP3   OH237412   0.865   0.724   1.362  0.2750 -0.1526 -0.2904
 4406TIP3    H137413   0.820   0.658   1.310 -0.0068  0.2444 -0.5638
 4406TIP3    H237414   0.945   0.743   1.312  0.6618 -0.7293  0.1042
 4407TIP3   OH237415   6.543   4.317   1.482  0.2320  0.1215  0.4633
 4407TIP3    H137416   6.627   4.287   1.447  0.5872  1.5064  0.0474
 4407TIP3    H237417   6.566   4.370   1.558 -0.2803  0.3291  0.4746
 4408TIP3   OH237418   4.314   6.861   8.141 -0.1007  0.1293 -0.0634
 4408TIP3    H137419   4.315   6.766   8.147 -0.7629  0.1460  0.4719
 4408TIP3    H237420   4.244   6.881   8.079 -0.6740  0.2879  0.6204
 4409TIP3   OH237421   5.891   4.396   9.410  0.3141 -0.2025 -0.3504
 4409TIP3    H137422   5.886   4.426   9.319  2.8633 -1.5355 -1.0297
 4409TIP3    H237423   5.900   4.477   9.461  3.5755  0.4911 -1.7856
 4410TIP3   OH237424   3.622   4.322   1.069 -0.8463 -0.0014  0.0449
 4410TIP3    H137425   3.602   4.364   1.152 -1.1127 -0.3244  0.1462
 4410TIP3    H237426   3.543   4.333   1.016 -0.4812  0.6889 -0.3698
 4411TIP3   OH237427   4.582   3.427   9.754  0.4168 -0.3359  0.1616
 4411TIP3    H137428   4.617   3.339   9.739  1.3689  0.2192 -1.0140
 4411TIP3    H237429   4.528   3.445   9.676  1.5550  0.7364 -0.4186
 4412TIP3   OH237430   6.743   4.486   9.388 -0.0354 -0.0902 -0.6122
 4412TIP3    H137431   6.712   4.565   9.432 -0.7475  0.2401 -1.6433
 4412TIP3    H237432   6.695   4.486   9.305  0.2542 -1.3982 -0.7935
 4413TIP3   OH237433   4.473   4.595   0.421  0.4313 -0.7051 -0.3117
 4413TIP3    H137434   4.502   4.521   0.367 -0.7032  0.1556 -2.1947
 4413TIP3    H237435   4.482   4.564   0.511  2.0795 -2.3244 -0.9749
 4414TIP3   OH237436   4.606   6.415   8.117  0.2284 -0.4764  0.2977
 4414TIP3    H137437   4.579   6.332   8.078 -2.8580  0.1286  0.8298
 4414TIP3    H237438   4.643   6.391   8.202  2.0405 -1.4259 -0.7038
 4415TIP3   OH237439   2.210   4.809   8.584 -0.2861 -0.3361 -0.1006
 4415TIP3    H137440   2.253   4.887   8.618 -0.3879 -0.4151  0.2132
 4415TIP3    H237441   2.197   4.753   8.661 -2.2364  0.2868  0.0573
 4416TIP3   OH237442   1.740   0.069   0.741  0.2067 -0.4121 -0.0442
 4416TIP3    H137443   1.721   0.022   0.660  0.6111  0.7307 -0.8151
 4416TIP3    H237444   1.835   0.065   0.750  0.0904 -1.4180  0.9334
 4417TIP3   OH237445   6.936   2.776   8.759  0.0133  0.1247  0.3223
 4417TIP3    H137446   6.979   2.847   8.711  1.5054 -0.4201  0.7780
 4417TIP3    H237447   6.867   2.819   8.809  0.8823  1.2725  0.5868
 4418TIP3   OH237448   5.607   4.010   9.884  0.2297 -0.4440  0.4158
 4418TIP3    H137449   5.603   3.924   9.842  0.5869 -0.9117  1.3118
 4418TIP3    H237450   5.671   3.999   9.955  0.1328  0.5093  0.6667
 4419TIP3   OH237451   4.497   6.535   7.577  0.5931  0.0035 -0.5394
 4419TIP3    H137452   4.554   6.610   7.559 -0.3538  1.0731  0.7476
 4419TIP3    H237453   4.556   6.467   7.611  1.0949  1.1837  1.0546
 4420TIP3   OH237454   5.220   0.856   8.738 -0.1509 -0.0156 -0.5862
 4420TIP3    H137455   5.141   0.819   8.699  0.4221  0.5049 -2.3389
 4420TIP3    H237456   5.252   0.788   8.797 -2.5392  0.2286  1.1496
 4421TIP3   OH237457   7.293   0.281   1.198  0.6779 -0.3693 -0.0316
 4421TIP3    H137458   7.334   0.355   1.243 -0.4260  0.7158 -0.7370
 4421TIP3    H237459   7.277   0.216   1.267  0.3219  0.6717  0.8940
 4422TIP3   OH237460   6.094   0.824   8.794  0.3418  0.0316  0.2371
 4422TIP3    H137461   6.047   0.905   8.776 -0.0400 -0.3223 -0.3394
 4422TIP3    H237462   6.153   0.847   8.867  0.0025  0.7340  0.2952
 4423TIP3   OH237463   2.419   1.195   1.335  0.7361 -0.2329  0.4571
 4423TIP3    H137464   2.470   1.186   1.415  0.1841  0.3902  0.8938
 4423TIP3    H237465   2.422   1.289   1.316  1.7741 -0.5127 -0.8708
 4424TIP3   OH237466   0.596   1.150   3.290 -0.0492  0.7383 -0.1348
 4424TIP3    H137467   0.567   1.063   3.318  0.6239  0.1261 -1.2750
 4424TIP3    H237468   0.593   1.147   3.195  2.8462  0.9137 -0.3301
 4425TIP3   OH237469   7.188   5.478   8.290 -0.1136 -0.3033 -0.0729
 4425TIP3    H137470   7.278   5.445   8.288  0.8679  1.7244  3.0589
 4425TIP3    H237471   7.135   5.398   8.299  1.3953 -1.5018 -1.1758
 4426TIP3   OH237472   6.286   1.183   8.822 -0.0368  0.2652 -0.2246
 4426TIP3    H137473   6.370   1.144   8.847 -0.1621 -0.9401 -1.6151
 4426TIP3    H237474   6.290   1.272   8.859  0.6132 -0.7076  2.2491
 4427TIP3   OH237475   7.033   4.856   9.165 -0.1119 -0.0906  0.5313
 4427TIP3    H137476   7.028   4.951   9.171  0.8871 -0.0413  0.7362
 4427TIP3    H237477   7.120   4.839   9.130 -0.9687 -0.8710 -1.3719
 4428TIP3   OH237478   4.420   5.984   9.018 -0.4727  0.1404  0.5121
 4428TIP3    H137479   4.362   6.039   9.071 -0.9739  0.0955  0.0238
 4428TIP3    H237480   4.498   6.037   9.004 -0.6823  0.4764  0.5957
 4429TIP3   OH237481   5.169   5.185   7.775 -0.0269 -0.5387  0.2439
 4429TIP3    H137482   5.232   5.116   7.792 -0.9591 -1.1123  1.5714
 4429TIP3    H237483   5.093   5.140   7.739  0.4242  0.1966 -1.7828
 4430TIP3   OH237484   2.928   3.464   0.297  0.2509 -0.1466 -0.0894
 4430TIP3    H137485   2.928   3.493   0.206  0.0648 -1.1674 -0.4275
 4430TIP3    H237486   2.852   3.507   0.336 -0.4806 -0.7869 -0.7867
 4431TIP3   OH237487   1.824   5.833   9.554  0.0025 -0.0217  0.1108
 4431TIP3    H137488   1.786   5.909   9.598  0.6479  1.0816 -1.1613
 4431TIP3    H237489   1.749   5.775   9.538 -0.4090  0.0525  1.6116
 4432TIP3   OH237490   6.668   3.535   1.228  0.2107 -0.1398  0.4813
 4432TIP3    H137491   6.657   3.580   1.144  0.5992 -2.3931 -0.8486
 4432TIP3    H237492   6.586   3.550   1.274 -0.2512  0.6201 -0.5568
 4433TIP3   OH237493   1.418   4.427   8.778  0.1631  0.4700  0.0662
 4433TIP3    H137494   1.462   4.349   8.746 -0.9494  1.1400 -3.6264
 4433TIP3    H237495   1.330   4.397   8.801 -0.0124  0.4691 -0.5817
 4434TIP3   OH237496   5.780   2.650   9.901  0.0787 -0.0796  0.1745
 4434TIP3    H137497   5.698   2.695   9.880  0.7309  1.1941  0.2652
 4434TIP3    H237498   5.849   2.714   9.880  1.1245 -1.5029 -0.9657
 4435TIP3   OH237499   4.092   7.243   7.003  0.4515 -0.3094  0.0236
 4435TIP3    H137500   4.068   7.313   6.943  0.1359 -1.7069 -1.5392
 4435TIP3    H237501   4.187   7.235   6.995  0.2346 -1.6780 -1.7223
 4436TIP3   OH237502   1.485   3.818   2.756 -0.0686  0.4341  0.3488
 4436TIP3    H137503   1.494   3.825   2.851  0.1017  1.4700  0.2676
 4436TIP3    H237504   1.449   3.731   2.741 -0.6726  0.4959  1.4058
 4437TIP3   OH237505   3.510   0.318   1.579 -0.0256  0.0017 -0.0172
 4437TIP3    H137506   3.431   0.277   1.545 -0.4650 -0.7699  1.7991
 4437TIP3    H237507   3.484   0.352   1.665  1.2417  1.0468 -0.0223
 4438TIP3   OH237508   5.724   2.731   1.522  0.0933  0.2605 -0.0814
 4438TIP3    H137509   5.729   2.818   1.483  2.9191 -0.0456 -0.6343
 4438TIP3    H237510   5.742   2.746   1.615 -0.9523  0.3916  0.1125
 4439TIP3   OH237511   3.187   6.038   8.956 -0.3685 -0.1544 -0.1702
 4439TIP3    H137512   3.212   5.991   9.036  1.4240  0.6663 -0.2025
 4439TIP3    H237513   3.098   6.068   8.973 -1.1787 -2.5862  0.2746
 4440TIP3   OH237514   4.333   1.340   0.485 -0.0506 -0.1427  0.8848
 4440TIP3    H137515   4.244   1.304   0.481 -0.0759  0.0648 -1.6087
 4440TIP3    H237516   4.332   1.397   0.562 -2.3266  0.4650  0.4852
 4441TIP3   OH237517   4.941   5.649   8.613  0.3990  0.1061 -0.4601
 4441TIP3    H137518   4.857   5.628   8.653  0.4947  1.7638  0.7253
 4441TIP3    H237519   4.954   5.581   8.547 -1.5645 -0.5390 -0.2490
 4442TIP3   OH237520   5.488   5.453   0.823 -0.4795  0.6878 -0.1560
 4442TIP3    H137521   5.481   5.366   0.784  2.2260  0.6984 -0.8568
 4442TIP3    H237522   5.405   5.495   0.802 -1.9035 -1.7141  0.3019
 4443TIP3   OH237523   7.159   0.237   9.479 -0.3340 -0.1267 -0.3506
 4443TIP3    H137524   7.078   0.186   9.475 -1.0995  1.0845 -0.8327
 4443TIP3    H237525   7.137   0.313   9.533 -0.5607  1.9276 -3.1037
 4444TIP3   OH237526   1.557   5.584   9.954  0.8009  0.0827  0.4038
 4444TIP3    H137527   1.586   5.501   9.994 -0.9550 -1.0947 -0.6586
 4444TIP3    H237528   1.535   5.561   9.864 -0.5707  1.5277  0.3412
 4445TIP3   OH237529   4.891   0.374   7.252 -0.4381 -0.7847  0.8177
 4445TIP3    H137530   4.879   0.424   7.172  0.2198  0.5896  1.5374
 4445TIP3    H237531   4.945   0.299   7.226 -1.0005 -0.8506 -0.1837
 4446TIP3   OH237532   2.629   3.993   1.464 -0.2010 -0.2595  0.4572
 4446TIP3    H137533   2.670   4.055   1.524  0.0024 -0.2511  0.3105
 4446TIP3    H237534   2.645   4.030   1.377  0.1743 -0.6620  0.3509
 4447TIP3   OH237535   7.178   6.433   8.660 -0.0237  0.0513  0.3511
 4447TIP3    H137536   7.123   6.495   8.611 -1.2998 -0.7381  0.7416
 4447TIP3    H237537   7.155   6.347   8.624  3.1092 -0.1460 -1.5481
 4448TIP3   OH237538   1.682   4.000   0.843  0.2607 -0.0679  0.3109
 4448TIP3    H137539   1.703   3.920   0.795 -2.3997  0.2631 -1.6302
 4448TIP3    H237540   1.757   4.058   0.827  0.2697 -0.6098 -2.0467
 4449TIP3   OH237541   1.881   5.074   7.819 -0.2054  0.3124 -0.0966
 4449TIP3    H137542   1.895   4.981   7.840 -1.8443  0.4053  1.7469
 4449TIP3    H237543   1.920   5.121   7.892  1.3693  1.1817 -1.4348
 4450TIP3   OH237544   3.662   1.561   1.766 -0.1631 -1.1147 -0.1550
 4450TIP3    H137545   3.716   1.639   1.750 -0.3183 -1.2367 -1.4087
 4450TIP3    H237546   3.694   1.496   1.703 -0.1093 -2.0407  0.7985
 4451TIP3   OH237547   1.815   3.677   1.275 -0.2573 -0.0608  0.3605
 4451TIP3    H137548   1.888   3.732   1.304  1.5382 -1.1062 -1.8262
 4451TIP3    H237549   1.857   3.594   1.250 -1.7989  0.0541 -3.0967
 4452TIP3   OH237550   1.823   0.167   8.434 -0.3418  0.1862 -0.4564
 4452TIP3    H137551   1.744   0.116   8.417 -0.9171  0.6788  0.6408
 4452TIP3    H237552   1.809   0.249   8.387 -0.2535  0.0781 -0.6740
 4453TIP3   OH237553   4.576   1.139   7.943  1.5105  0.5094  0.0404
 4453TIP3    H137554   4.596   1.049   7.967 -0.3817 -1.1463 -3.7170
 4453TIP3    H237555   4.484   1.151   7.967  1.4273  1.0614 -0.5241
 4454TIP3   OH237556   1.886   3.012   1.749 -0.5388 -0.1940 -0.1410
 4454TIP3    H137557   1.859   3.103   1.743 -0.4866 -0.1523  0.2216
 4454TIP3    H237558   1.807   2.962   1.730 -1.3213 -0.0937  2.4528
 4455TIP3   OH237559   4.358   4.807   9.714  0.0469 -0.4989  0.4039
 4455TIP3    H137560   4.371   4.833   9.623 -1.5556  1.2776  0.6207
 4455TIP3    H237561   4.443   4.821   9.756  0.1057  1.2940 -0.2581
 4456TIP3   OH237562   7.476   3.271   1.973  0.5003  0.0008 -0.2024
 4456TIP3    H137563   7.545   3.323   2.016  1.7018 -0.7600 -1.1461
 4456TIP3    H237564   7.469   3.192   2.027 -0.0382  0.3043  0.1915
 4457TIP3   OH237565   0.740   6.973   2.924  0.1777  0.0780 -0.1204
 4457TIP3    H137566   0.728   7.047   2.983 -1.3065  0.1016 -0.4101
 4457TIP3    H237567   0.726   6.896   2.979 -2.6377  0.1193 -0.6579
 4458TIP3   OH237568   4.227   5.003   7.736 -0.5626 -0.7604  0.1053
 4458TIP3    H137569   4.255   5.016   7.827  1.3290 -4.1277  0.1474
 4458TIP3    H237570   4.149   4.948   7.743 -0.1526 -1.3981 -0.2988
 4459TIP3   OH237571   2.220   3.528   1.249 -0.9805 -0.0712  0.5237
 4459TIP3    H137572   2.230   3.453   1.309 -0.9625 -0.2804  0.2590
 4459TIP3    H237573   2.218   3.489   1.162 -0.6179  0.2666  0.3613
 4460TIP3   OH237574   2.209   0.326   6.884 -0.2984  0.3148 -0.2408
 4460TIP3    H137575   2.253   0.270   6.948 -0.5271  0.6740  0.2330
 4460TIP3    H237576   2.280   0.356   6.826 -0.1046 -0.0775 -0.2081
 4461TIP3   OH237577   1.555   1.659   7.046 -0.0634  0.3722  0.0261
 4461TIP3    H137578   1.578   1.573   7.081 -1.1001 -0.1195 -0.4468
 4461TIP3    H237579   1.525   1.641   6.957 -0.6724  1.1688  0.0593
 4462TIP3   OH237580   0.457   6.970   7.404 -0.0599  0.6678  0.4438
 4462TIP3    H137581   0.382   6.911   7.415  0.0213  0.8386  2.2125
 4462TIP3    H237582   0.419   7.056   7.387 -0.2149  0.4416 -0.3822
 4463TIP3   OH237583   4.156   0.969   9.339 -0.1998  0.0966 -0.0313
 4463TIP3    H137584   4.079   0.913   9.329 -0.5111 -0.0779  2.5088
 4463TIP3    H237585   4.130   1.052   9.299 -2.2810  0.4551  1.8438
 4464TIP3   OH237586   0.543   2.243   9.993  0.3115  0.8758  0.0127
 4464TIP3    H137587   0.522   2.318   9.938 -1.4542  0.7123  0.4073
 4464TIP3    H237588   0.528   2.273  10.083 -0.7638 -0.0255  0.1604
 4465TIP3   OH237589   3.453   6.181   0.880  0.1847 -0.2725 -0.1840
 4465TIP3    H137590   3.502   6.225   0.950 -0.1652  1.4324 -0.9571
 4465TIP3    H237591   3.513   6.182   0.805  0.1620 -1.1355 -0.2275
 4466TIP3   OH237592   5.100   5.587   8.821  0.4268 -0.3598  0.1144
 4466TIP3    H137593   5.035   5.628   8.763 -0.7814 -1.2522  0.7722
 4466TIP3    H237594   5.150   5.529   8.763  0.5686  0.2560 -0.3876
 4467TIP3   OH237595   2.027   0.435   6.643  0.2563 -0.1970 -0.4722
 4467TIP3    H137596   2.079   0.508   6.676  0.7890 -0.6691 -0.2518
 4467TIP3    H237597   1.947   0.476   6.610 -0.2741  0.3110  1.3055
 4468TIP3   OH237598   0.349   2.009   0.292 -0.1366  0.2731 -0.2065
 4468TIP3    H137599   0.267   2.054   0.311  0.0095 -0.2768  1.8995
 4468TIP3    H237600   0.329   1.916   0.305  1.2374  0.2460  2.3041
 4469TIP3   OH237601   5.122   5.371   2.577  0.4219  0.6244  0.1839
 4469TIP3    H137602   5.164   5.329   2.503 -0.5621  1.1791 -0.7243
 4469TIP3    H237603   5.076   5.300   2.623  1.6665  0.1547  0.7334
 4470TIP3   OH237604   2.701   4.174   1.684 -0.2325  0.0733  0.2179
 4470TIP3    H137605   2.763   4.135   1.746  1.7848  0.8327 -1.2226
 4470TIP3    H237606   2.710   4.268   1.697 -0.4882  0.2093 -0.5556
 4471TIP3   OH237607   0.620   1.581   7.958  0.7292  0.4000  0.2510
 4471TIP3    H137608   0.610   1.675   7.974 -2.5085  0.4315 -1.1184
 4471TIP3    H237609   0.672   1.574   7.878  2.0421  0.9362  1.0393
 4472TIP3   OH237610   0.730   7.023   9.163  0.0221 -0.1505 -0.0661
 4472TIP3    H137611   0.769   7.027   9.076 -1.2538 -0.3999 -0.6700
 4472TIP3    H237612   0.708   7.114   9.184  3.6423  0.4886  1.6177
 4473TIP3   OH237613   6.688   6.880   0.113 -0.2803 -0.3701  0.2605
 4473TIP3    H137614   6.745   6.864   0.189  1.1275  0.2612 -0.6095
 4473TIP3    H237615   6.701   6.803   0.058 -1.3625 -0.8637  0.6782
 4474TIP3   OH237616   5.800   4.095   1.694 -0.3694  0.2181 -0.5108
 4474TIP3    H137617   5.726   4.146   1.728 -0.0317  0.6707 -0.4494
 4474TIP3    H237618   5.815   4.129   1.606 -1.7881 -1.5280 -1.5024
 4475TIP3   OH237619   0.875   3.401   6.909 -0.1389 -0.2578  0.0003
 4475TIP3    H137620   0.956   3.452   6.921 -1.3908  2.2792 -1.4193
 4475TIP3    H237621   0.810   3.448   6.960 -1.2093 -0.8402 -0.7971
 4476TIP3   OH237622   2.245   2.314   8.291  0.0558 -0.4476  0.2678
 4476TIP3    H137623   2.313   2.378   8.267 -0.3640  0.0953  0.5006
 4476TIP3    H237624   2.163   2.363   8.284 -0.4268 -1.3937 -1.0756
 4477TIP3   OH237625   3.593   5.904   1.551  0.3449  0.0218  0.3158
 4477TIP3    H137626   3.609   5.811   1.568  0.6996  0.1510  0.6859
 4477TIP3    H237627   3.639   5.922   1.469  1.8924  0.3194  1.2102
 4478TIP3   OH237628   3.095   6.539   7.996 -0.1750  0.3291 -0.4515
 4478TIP3    H137629   3.097   6.635   7.989 -0.5982  0.5799  2.0796
 4478TIP3    H237630   3.009   6.520   8.034  0.0596 -1.0337 -0.5708
 4479TIP3   OH237631   7.429   4.196   1.738 -0.4955 -0.2551  0.5031
 4479TIP3    H137632   7.482   4.271   1.712  0.9265 -0.5592  2.3297
 4479TIP3    H237633   7.457   4.126   1.679 -0.4754  0.1542  0.0179
 4480TIP3   OH237634   2.641   2.808   9.286 -0.0004 -0.4499 -0.3664
 4480TIP3    H137635   2.564   2.782   9.336  1.3807 -0.7013  1.7756
 4480TIP3    H237636   2.625   2.900   9.265 -1.1032 -0.6370 -0.4084
 4481TIP3   OH237637   2.278   7.067   3.027 -0.8702  0.0856  0.8047
 4481TIP3    H137638   2.245   7.065   3.117 -0.2658 -0.2184  1.0260
 4481TIP3    H237639   2.266   6.978   2.994 -0.2686 -0.0356  0.8949
 4482TIP3   OH237640   2.859   0.948   7.472  0.1717 -0.1171  0.4016
 4482TIP3    H137641   2.853   0.985   7.383 -0.2420 -0.6149  0.2169
 4482TIP3    H237642   2.813   0.864   7.466  1.3339 -0.7885  0.7538
 4483TIP3   OH237643   1.009   0.086   2.511 -0.1628 -0.0566 -0.3207
 4483TIP3    H137644   0.948   0.136   2.564  0.6868  0.1301  0.5000
 4483TIP3    H237645   1.011  -0.001   2.552  0.0542 -0.0900 -0.4029
 4484TIP3   OH237646   2.883   0.269   3.159  0.0569 -0.3292  0.0287
 4484TIP3    H137647   2.929   0.353   3.148 -0.6289  0.4053  2.2829
 4484TIP3    H237648   2.803   0.279   3.107  0.2248  0.1975 -0.1368
 4485TIP3   OH237649   0.120   4.399   2.324 -0.0699  0.0661 -0.5732
 4485TIP3    H137650   0.073   4.473   2.362 -0.3615  0.2609 -1.3187
 4485TIP3    H237651   0.148   4.347   2.400  0.7119  1.2796 -0.0058
 4486TIP3   OH237652   0.681   5.256   0.248 -0.2990 -0.2669 -0.3188
 4486TIP3    H137653   0.641   5.334   0.287 -1.7166 -1.3870  0.5393
 4486TIP3    H237654   0.644   5.252   0.160 -0.0479  0.1251 -0.4493
 4487TIP3   OH237655   0.789   7.433   8.492 -0.0054 -0.0842 -0.3711
 4487TIP3    H137656   0.723   7.502   8.490 -0.1146 -0.1922 -2.2952
 4487TIP3    H237657   0.872   7.479   8.490 -0.0782  0.0261 -1.6518
 4488TIP3   OH237658   1.188   1.148   6.718 -0.2388  0.9519 -0.0799
 4488TIP3    H137659   1.179   1.061   6.679  1.2694  0.4995  0.5045
 4488TIP3    H237660   1.107   1.193   6.695 -2.1470 -1.3664  1.6028
 4489TIP3   OH237661   0.957   6.769   7.172 -0.2959 -0.3781 -0.2720
 4489TIP3    H137662   0.983   6.724   7.092  2.1518 -0.0998  0.2794
 4489TIP3    H237663   0.885   6.825   7.145  0.0361 -0.7639 -2.1382
 4490TIP3   OH237664   2.527   4.311   9.370  0.2122  0.3673 -0.2698
 4490TIP3    H137665   2.450   4.333   9.318  0.6505  1.5144 -0.4822
 4490TIP3    H237666   2.492   4.290   9.457 -0.4149 -0.1473 -0.6402
 4491TIP3   OH237667   1.906   1.224   2.560 -0.4148 -0.4554 -0.6689
 4491TIP3    H137668   1.889   1.318   2.567 -2.3803 -0.8320  0.3317
 4491TIP3    H237669   1.898   1.205   2.466  0.5364  0.4552 -0.9438
 4492TIP3   OH237670   5.092   3.128   1.064  0.4330 -0.5840  0.5074
 4492TIP3    H137671   5.063   3.212   1.028  0.5400 -0.2404  1.2000
 4492TIP3    H237672   5.086   3.139   1.159  2.4434 -0.6188  0.6932
 4493TIP3   OH237673   6.533   5.115   8.917 -0.4025 -0.4830  0.0536
 4493TIP3    H137674   6.569   5.147   9.000 -0.4825 -3.2724  1.2645
 4493TIP3    H237675   6.457   5.170   8.902  0.4507  1.0533  1.0318
 4494TIP3   OH237676   4.785   3.273   1.073 -0.1244  0.2084 -0.0146
 4494TIP3    H137677   4.862   3.291   1.020 -0.1125 -0.9396 -0.4137
 4494TIP3    H237678   4.783   3.177   1.081 -1.5492  0.2098 -0.0933
 4495TIP3   OH237679   2.070   5.344   8.224 -0.0055  0.3990  0.0057
 4495TIP3    H137680   2.035   5.328   8.137  0.4917  0.4938 -0.2165
 4495TIP3    H237681   2.070   5.259   8.267  2.0440 -0.1342 -0.9487
 4496TIP3   OH237682   5.597   1.794   8.697 -0.5008  0.3809  0.1163
 4496TIP3    H137683   5.647   1.824   8.621  1.0183  0.9226  1.2660
 4496TIP3    H237684   5.593   1.699   8.688  2.5765  0.0584  0.9517
 4497TIP3   OH237685   2.551   4.597   8.056 -0.7139  0.4650 -0.2865
 4497TIP3    H137686   2.531   4.648   8.134 -0.4648 -0.1696  0.1970
 4497TIP3    H237687   2.502   4.640   7.986 -1.5833  0.5529  0.3626
 4498TIP3   OH237688   6.746   5.259   1.114  0.0831  0.0392  0.6326
 4498TIP3    H137689   6.745   5.354   1.102  1.2347 -0.0957 -0.9019
 4498TIP3    H237690   6.737   5.224   1.026  1.2745 -1.2452  0.9877
 4499TIP3   OH237691   7.086   6.543   9.122 -0.3803  0.3245  0.4391
 4499TIP3    H137692   7.000   6.536   9.162 -1.5900 -0.4038 -2.0977
 4499TIP3    H237693   7.101   6.638   9.114 -0.8996  0.4514  0.9208
 4500TIP3   OH237694   4.293   5.999   0.450  0.0165  0.5977  0.0599
 4500TIP3    H137695   4.348   5.974   0.524  3.0292 -2.1763 -2.7584
 4500TIP3    H237696   4.220   5.938   0.452 -1.0730  1.8636  1.7399
 4501TIP3   OH237697   1.453   4.692   1.643 -0.1208  0.0035 -0.0325
 4501TIP3    H137698   1.436   4.616   1.698  0.9357 -0.1757  0.0651
 4501TIP3    H237699   1.366   4.720   1.613 -0.4963 -1.4945 -0.4265
 4502TIP3   OH237700   3.734   4.588   7.354  0.2716 -0.0519 -0.3883
 4502TIP3    H137701   3.683   4.594   7.273  0.6660 -1.6624 -0.7794
 4502TIP3    H237702   3.698   4.512   7.399  0.8153  0.1634  0.4248
 4503TIP3   OH237703   3.607   3.687   2.039 -0.6004  0.6236 -0.1855
 4503TIP3    H137704   3.666   3.728   2.102  1.0729  1.8989 -2.4400
 4503TIP3    H237705   3.611   3.593   2.059  0.7827  0.8724  0.8435
 4504TIP3   OH237706   3.601   7.401   2.998 -0.4171  0.0628 -0.9262
 4504TIP3    H137707   3.600   7.497   2.999  1.1417  0.1154  0.2084
 4504TIP3    H237708   3.661   7.378   2.927  0.6574  0.0177 -0.0445
 4505TIP3   OH237709   5.544   3.651   0.856 -0.2430  0.1152 -0.7607
 4505TIP3    H137710   5.596   3.578   0.889 -0.8500 -0.3359 -0.7872
 4505TIP3    H237711   5.609   3.713   0.823  0.2708 -0.5913 -1.1165
 4506TIP3   OH237712   5.350   7.328   0.180 -0.2895 -0.5385 -0.5293
 4506TIP3    H137713   5.411   7.394   0.148 -0.5226 -1.3415 -2.8595
 4506TIP3    H237714   5.270   7.376   0.199  1.0818  0.6215  3.1104
 4507TIP3   OH237715   5.512   2.015   1.521  0.7092  0.2029  0.3734
 4507TIP3    H137716   5.482   2.096   1.561  0.8383 -0.3002  1.5110
 4507TIP3    H237717   5.447   1.997   1.453  0.8558  1.4199 -0.1270
 4508TIP3   OH237718   2.440   2.417   0.179  0.2078  0.2429  0.0029
 4508TIP3    H137719   2.515   2.476   0.186  0.5182 -0.3532  2.5543
 4508TIP3    H237720   2.478   2.334   0.152  0.5523 -0.1151  1.4995
 4509TIP3   OH237721   7.300   7.136   1.896  0.5106 -0.5981 -0.0271
 4509TIP3    H137722   7.392   7.146   1.920  0.7991  0.3418 -1.3997
 4509TIP3    H237723   7.300   7.135   1.800 -0.9454  0.0305 -0.0652
 4510TIP3   OH237724   1.472   1.039   8.358 -0.0405  0.1842 -0.1472
 4510TIP3    H137725   1.453   0.948   8.382  0.0780  0.4542  1.0739
 4510TIP3    H237726   1.527   1.032   8.280 -1.5604 -0.7197 -1.1763
 4511TIP3   OH237727   2.570   0.612   0.216  0.5487 -0.1804 -0.1827
 4511TIP3    H137728   2.610   0.666   0.148 -0.5624  1.5031  0.4323
 4511TIP3    H237729   2.630   0.621   0.291  0.6369 -0.2460 -0.2445
 4512TIP3   OH237730   1.398   1.385   9.274  0.0085 -0.2921 -0.2380
 4512TIP3    H137731   1.452   1.307   9.264 -0.1611 -0.9751  3.0525
 4512TIP3    H237732   1.339   1.383   9.199  0.8357 -2.6267 -0.9206
 4513TIP3   OH237733   1.841   4.243   6.887  0.1981  0.6418  0.7168
 4513TIP3    H137734   1.844   4.204   6.799  3.4795 -1.5819  1.6426
 4513TIP3    H237735   1.754   4.222   6.919  0.6473 -3.2878 -0.1309
 4514TIP3   OH237736   5.103   3.666   8.897  0.1673 -0.0618  0.5203
 4514TIP3    H137737   5.139   3.610   8.966  0.9964  0.7063  0.7249
 4514TIP3    H237738   5.081   3.605   8.826 -2.1249 -1.0766  1.9860
 4515TIP3   OH237739   0.446   4.736   0.264  0.8770  0.3972  0.4481
 4515TIP3    H137740   0.537   4.762   0.277  1.7425 -2.8998  2.1724
 4515TIP3    H237741   0.431   4.745   0.170  3.2780  0.2232 -0.0022
 4516TIP3   OH237742   7.048   1.029   0.857 -0.1317  0.0492  0.0438
 4516TIP3    H137743   7.068   1.119   0.832  1.8344 -0.5725 -0.8038
 4516TIP3    H237744   7.008   1.035   0.944  1.4157  1.6198  0.6828
 4517TIP3   OH237745   4.011   0.355   1.053 -0.5868  0.5625 -0.6643
 4517TIP3    H137746   3.943   0.381   1.115 -1.1309 -0.5717 -0.7471
 4517TIP3    H237747   4.043   0.271   1.087  0.1430  0.6514 -1.1193
 4518TIP3   OH237748   6.155   0.648   9.457  0.0043 -0.7038 -0.5712
 4518TIP3    H137749   6.176   0.612   9.544  1.3480  2.8082  0.7396
 4518TIP3    H237750   6.238   0.647   9.410  0.1641  0.8057 -0.3754
 4519TIP3   OH237751   3.534   6.426   7.135 -0.3004  0.4797 -0.4726
 4519TIP3    H137752   3.623   6.396   7.117 -0.3311  0.4839 -0.6378
 4519TIP3    H237753   3.541   6.521   7.141 -0.2885  0.4778 -0.4556
 4520TIP3   OH237754   0.830   7.409   9.949  0.2665 -0.2041  0.2870
 4520TIP3    H137755   0.875   7.330   9.917  1.2640 -0.1900  1.5885
 4520TIP3    H237756   0.796   7.384  10.035  0.1309  0.6316  0.4852
 4521TIP3   OH237757   2.651   2.641   7.900  0.4782 -0.1041  0.0626
 4521TIP3    H137758   2.635   2.546   7.897  0.0089 -0.0787  1.1693
 4521TIP3    H237759   2.577   2.676   7.949  0.4443  0.8978 -0.6816
 4522TIP3   OH237760   6.843   0.864   1.491 -0.3424 -0.2194  0.2640
 4522TIP3    H137761   6.833   0.953   1.525  0.8649  0.4978 -1.1673
 4522TIP3    H237762   6.928   0.865   1.447 -1.7754 -1.0598 -2.7513
 4523TIP3   OH237763   2.606   6.244   9.092  0.2973  0.7503 -0.5941
 4523TIP3    H137764   2.678   6.293   9.054  0.8600  0.4801  0.1063
 4523TIP3    H237765   2.578   6.185   9.022  0.7233  0.8851 -0.8819
 4524TIP3   OH237766   3.215   2.303   8.772 -0.1723  0.2992  0.5083
 4524TIP3    H137767   3.261   2.221   8.792 -2.4552 -0.8391  1.3704
 4524TIP3    H237768   3.282   2.370   8.781  2.0480 -1.5049 -1.1868
 4525TIP3   OH237769   1.207   5.663   0.273 -0.2210 -0.3580 -0.2312
 4525TIP3    H137770   1.260   5.709   0.337 -0.3963 -0.4213 -0.0385
 4525TIP3    H237771   1.137   5.622   0.325 -1.1012  0.6333 -0.5999
 4526TIP3   OH237772   1.114   1.930   0.082  0.2242  0.2222 -0.1441
 4526TIP3    H137773   1.192   1.920   0.028 -0.2628 -1.7294 -0.5620
 4526TIP3    H237774   1.045   1.956   0.021  0.3059  0.8427  0.0295
 4527TIP3   OH237775   2.127   2.038   0.431 -0.2391  0.2211  0.2553
 4527TIP3    H137776   2.135   1.946   0.454  3.0090  0.0678 -0.9124
 4527TIP3    H237777   2.116   2.083   0.515  0.2216 -1.0915  1.0521
 4528TIP3   OH237778   0.356   1.551   8.912 -0.1317  0.1176 -0.2626
 4528TIP3    H137779   0.401   1.551   8.828  0.5122  0.3920  0.0706
 4528TIP3    H237780   0.415   1.503   8.971  0.4140  1.6731  0.5228
 4529TIP3   OH237781   1.576   4.782   0.089  0.2341  0.4034 -0.1130
 4529TIP3    H137782   1.561   4.688   0.082  0.1731  0.5121 -2.3119
 4529TIP3    H237783   1.631   4.803   0.014  0.6035  2.0689  0.5800
 4530TIP3   OH237784   5.999   3.495   7.564 -0.0790 -0.4276  0.3613
 4530TIP3    H137785   5.908   3.523   7.561  0.2012  0.8851  2.1697
 4530TIP3    H237786   6.003   3.432   7.636  0.1158 -1.9826 -0.9593
 4531TIP3   OH237787   4.372   0.139   9.288 -0.0257  0.8496 -0.1641
 4531TIP3    H137788   4.386   0.105   9.200  2.2004  0.4205  0.2867
 4531TIP3    H237789   4.278   0.130   9.303 -0.4760  1.0805 -2.5207
 4532TIP3   OH237790   2.875   0.404   1.052 -0.4089 -0.4077 -0.3177
 4532TIP3    H137791   2.806   0.470   1.043 -0.8610 -0.9900 -1.3833
 4532TIP3    H237792   2.828   0.325   1.080  0.1269 -0.3040  0.9582
 4533TIP3   OH237793   1.067   7.399   0.356  0.1864  0.0100  0.6748
 4533TIP3    H137794   0.989   7.391   0.302  1.2887 -2.2870 -0.7412
 4533TIP3    H237795   1.058   7.330   0.422  0.3183  0.7522  1.4874
 4534TIP3   OH237796   1.588   0.267   0.875  0.1808 -0.4392  0.6693
 4534TIP3    H137797   1.534   0.284   0.797 -0.8633  0.4918  1.5570
 4534TIP3    H237798   1.669   0.230   0.840 -0.9124 -1.6306 -0.7299
 4535TIP3   OH237799   0.410   2.406   1.829 -0.3395 -0.2150  0.3518
 4535TIP3    H137800   0.505   2.404   1.839 -0.5644 -1.7373  3.4266
 4535TIP3    H237801   0.396   2.422   1.736  2.8821  1.4445  0.0106
 4536TIP3   OH237802   6.100   3.267   1.881  0.2006  0.8218  0.1478
 4536TIP3    H137803   6.010   3.297   1.892  0.1058  0.4142  0.5036
 4536TIP3    H237804   6.095   3.204   1.809 -0.7119 -2.9268  3.2224
 4537TIP3   OH237805   1.278   7.061   7.567  0.7313  0.4933 -0.1862
 4537TIP3    H137806   1.208   7.049   7.504  1.4764 -0.0955 -0.9241
 4537TIP3    H237807   1.238   7.110   7.639 -0.5362 -0.1931 -0.4039
 4538TIP3   OH237808   4.792   3.335   9.058 -0.7568 -0.1162  0.6044
 4538TIP3    H137809   4.817   3.330   8.966 -0.3384 -2.4782  0.7775
 4538TIP3    H237810   4.770   3.427   9.072 -0.2723  0.4155 -1.6904
 4539TIP3   OH237811   2.920   2.395   2.560 -0.2574  0.0017  0.5600
 4539TIP3    H137812   2.965   2.462   2.610 -1.2634  0.2763  1.1357
 4539TIP3    H237813   2.971   2.315   2.574 -0.1702  0.2161  1.5003
 4540TIP3   OH237814   6.784   5.518   1.005 -0.2482 -0.2695 -0.3806
 4540TIP3    H137815   6.748   5.586   1.061 -0.0603  1.0271 -1.7890
 4540TIP3    H237816   6.811   5.563   0.925 -0.8194 -2.1135 -1.6828
 4541TIP3   OH237817   0.881   3.156   7.523  0.2338 -1.1388  0.0358
 4541TIP3    H137818   0.846   3.181   7.438 -1.5114 -2.4216  0.3032
 4541TIP3    H237819   0.827   3.081   7.550  1.7492 -1.7574  1.5701
 4542TIP3   OH237820   0.736   0.738   7.661  0.3700  0.1239  0.0986
 4542TIP3    H137821   0.696   0.692   7.735 -1.9664  2.0360  0.1697
 4542TIP3    H237822   0.815   0.777   7.696 -0.7734  1.1281  1.6962
 4543TIP3   OH237823   0.128   2.181   9.140 -0.4383 -0.4551  0.1293
 4543TIP3    H137824   0.164   2.225   9.218 -1.3338  1.1766 -0.3429
 4543TIP3    H237825   0.088   2.101   9.174  0.6545 -0.6188  1.1064
 4544TIP3   OH237826   2.708   1.059   9.936 -0.1503 -0.1056  0.6822
 4544TIP3    H137827   2.697   1.101   9.851  1.3982  1.5328  1.2214
 4544TIP3    H237828   2.734   1.130   9.994  0.5820 -1.4929  2.1259
 4545TIP3   OH237829   5.625   0.061   1.014 -0.5728  0.0582  0.3573
 4545TIP3    H137830   5.629   0.121   1.088  1.0182  1.3143 -0.6677
 4545TIP3    H237831   5.717   0.038   0.996 -0.6376  1.5621 -2.5404
 4546TIP3   OH237832   7.476   6.907   1.513  0.5472  0.1615 -0.5991
 4546TIP3    H137833   7.559   6.953   1.523  0.1104  0.5282  2.0502
 4546TIP3    H237834   7.410   6.971   1.538 -0.1665 -1.3726  1.7593
 4547TIP3   OH237835   4.294   6.685   1.444 -0.2395 -0.4708 -0.5120
 4547TIP3    H137836   4.289   6.631   1.523 -1.4518 -0.1761 -0.3769
 4547TIP3    H237837   4.321   6.771   1.476  1.9130 -0.9917 -0.7516
 4548TIP3   OH237838   6.551   6.027   9.811  0.3521 -0.1350  0.4149
 4548TIP3    H137839   6.465   6.053   9.779  0.5017 -0.3155 -0.1429
 4548TIP3    H237840   6.536   5.999   9.902 -0.1536 -0.0567  0.3556
 4549TIP3   OH237841   0.585   1.408   0.835 -0.3853 -0.6853  0.3927
 4549TIP3    H137842   0.605   1.499   0.811  1.9682 -1.1181  0.4815
 4549TIP3    H237843   0.572   1.410   0.930 -2.3128 -0.1754  0.1644
 4550TIP3   OH237844   2.637   0.618   0.989 -0.1252  0.2870  0.0558
 4550TIP3    H137845   2.590   0.679   0.933 -1.6091 -0.6785  0.1984
 4550TIP3    H237846   2.632   0.534   0.943  1.3845  0.1202  0.1365
 4551TIP3   OH237847   4.543   2.606   1.377  0.4231  0.7044  0.0696
 4551TIP3    H137848   4.630   2.590   1.413 -0.1681 -0.9086  0.8997
 4551TIP3    H237849   4.529   2.535   1.315  0.4159  2.0277 -1.5111
 4552TIP3   OH237850   7.422   2.977   1.718 -0.9365  0.5917 -0.3684
 4552TIP3    H137851   7.484   2.934   1.776 -1.5474 -0.2407 -0.3055
 4552TIP3    H237852   7.387   2.906   1.664 -2.9661  0.7648  0.6406
 4553TIP3   OH237853   1.478   6.828   9.194  0.4137  0.2934 -0.2456
 4553TIP3    H137854   1.504   6.747   9.237 -1.3385 -0.0623  0.2131
 4553TIP3    H237855   1.424   6.874   9.259  0.3882  1.2608 -0.9249
 4554TIP3   OH237856   4.101   2.348   7.507  0.4604  0.5389 -0.6829
 4554TIP3    H137857   4.109   2.262   7.465  0.8493  0.1541  0.1357
 4554TIP3    H237858   4.092   2.410   7.435 -2.4493 -0.4060 -1.2693
 4555TIP3   OH237859   3.301   2.516   7.592  0.4010 -0.4757  0.1556
 4555TIP3    H137860   3.262   2.603   7.601  0.4433 -0.6111  2.0544
 4555TIP3    H237861   3.369   2.526   7.526 -0.3329  0.6631 -0.4454
 4556TIP3   OH237862   0.348   5.912   2.233  0.0660 -0.5519 -0.4976
 4556TIP3    H137863   0.277   5.886   2.291 -0.0169  0.9414  0.1247
 4556TIP3    H237864   0.428   5.882   2.276 -0.1055 -1.0629 -0.5368
 4557TIP3   OH237865   3.387   4.143   2.113  0.6564 -0.6590 -0.0034
 4557TIP3    H137866   3.381   4.074   2.178 -1.0764  0.6688  1.3582
 4557TIP3    H237867   3.304   4.139   2.065  0.4797  0.4845  0.1603
 4558TIP3   OH237868   4.746   3.653   9.585  0.0215  0.0606 -0.1402
 4558TIP3    H137869   4.714   3.603   9.661 -1.4182 -0.3928 -0.9953
 4558TIP3    H237870   4.745   3.589   9.514 -1.9114  1.2598 -1.2792
 4559TIP3   OH237871   2.299   5.071   7.137 -0.2781  0.2078 -0.3457
 4559TIP3    H137872   2.390   5.081   7.108  0.1555 -2.2817 -0.0901
 4559TIP3    H237873   2.262   5.007   7.077 -1.8520  1.0625 -0.3305
 4560TIP3   OH237874   2.289   6.465   7.546 -0.3068  0.6025  0.1835
 4560TIP3    H137875   2.369   6.425   7.580 -0.4923 -0.6506 -0.8022
 4560TIP3    H237876   2.219   6.426   7.599 -0.5461 -0.9457 -1.1813
 4561TIP3   OH237877   3.981   4.207   8.736  0.1173  0.1695 -0.6133
 4561TIP3    H137878   4.014   4.122   8.767 -0.0155 -0.5664 -2.3759
 4561TIP3    H237879   4.021   4.271   8.795  2.9299 -0.8558 -1.2541
 4562TIP3   OH237880   5.532   4.674   1.866 -0.2098 -0.0960  0.6879
 4562TIP3    H137881   5.439   4.680   1.886 -0.0668 -4.0159  3.8348
 4562TIP3    H237882   5.575   4.720   1.938  0.4437  1.7500 -0.7752
 4563TIP3   OH237883   1.195   0.875   6.584  0.2031 -0.8193 -0.3595
 4563TIP3    H137884   1.214   0.852   6.493 -1.9637  1.6779 -1.5605
 4563TIP3    H237885   1.177   0.791   6.626  1.2402 -2.0402 -2.2237
 4564TIP3   OH237886   0.769   6.278   8.641 -0.7622  0.7262  0.0584
 4564TIP3    H137887   0.737   6.332   8.569  0.4937 -0.1245 -1.1826
 4564TIP3    H237888   0.851   6.319   8.667  0.2572 -0.5679 -0.9662
 4565TIP3   OH237889   2.049   7.233   8.435 -0.4222 -0.5485 -0.4547
 4565TIP3    H137890   2.062   7.240   8.529 -0.6610  1.1725 -0.5273
 4565TIP3    H237891   2.052   7.323   8.403  0.9812 -1.1679 -2.2810
 4566TIP3   OH237892   2.165   3.440   0.331  0.6790 -0.0999  0.3162
 4566TIP3    H137893   2.095   3.431   0.395 -0.5437 -2.5257 -1.1948
 4566TIP3    H237894   2.246   3.424   0.380 -0.1770 -1.4837  1.3379
 4567TIP3   OH237895   4.715   4.502   1.976  0.0306  0.4450 -0.3287
 4567TIP3    H137896   4.705   4.579   2.032  0.2835  0.9370 -0.9518
 4567TIP3    H237897   4.682   4.529   1.891  1.3606  0.3020 -0.9077
 4568TIP3   OH237898   4.189   5.497   8.404  0.1469  0.0849 -0.1840
 4568TIP3    H137899   4.230   5.416   8.436 -1.4120 -0.3853  0.6921
 4568TIP3    H237900   4.228   5.566   8.458  0.3310 -0.2554  0.1250
 4569TIP3   OH237901   2.909   7.185   8.930  0.5670  0.2690 -0.4363
 4569TIP3    H137902   2.981   7.247   8.947  1.1037 -0.7990  1.5080
 4569TIP3    H237903   2.947   7.099   8.948 -1.0637 -0.3543  0.2138
 4570TIP3   OH237904   4.050   2.131   1.148  0.6130  0.0349  0.2758
 4570TIP3    H137905   4.094   2.075   1.213  1.3482 -2.4104 -2.1499
 4570TIP3    H237906   4.004   2.196   1.201  1.2158 -1.7416  3.2503
 4571TIP3   OH237907   2.303   6.790   9.032  0.3135 -0.0742 -0.2182
 4571TIP3    H137908   2.299   6.826   9.120 -1.2786 -0.8797  0.0682
 4571TIP3    H237909   2.213   6.765   9.012  1.0973 -2.6181 -0.9190
 4572TIP3   OH237910   1.244   3.946   7.822 -0.5634  0.1770 -0.6652
 4572TIP3    H137911   1.214   4.037   7.832 -0.2559  0.0519  2.1129
 4572TIP3    H237912   1.249   3.913   7.912 -0.8446 -2.6700 -1.6205
 4573TIP3   OH237913   4.904   6.982   2.783  0.5306  0.2854 -0.0310
 4573TIP3    H137914   4.925   6.914   2.847  3.8317 -0.7312 -1.9365
 4573TIP3    H237915   4.899   7.063   2.834  4.1874 -0.2799  1.5261
 4574TIP3   OH237916   3.035   0.795   7.020 -0.0707  0.1371  0.4677
 4574TIP3    H137917   2.965   0.809   6.957  0.9152 -0.5207 -0.8068
 4574TIP3    H237918   3.094   0.869   7.010  1.0363 -0.8612 -0.7140
 4575TIP3   OH237919   6.904   4.603   8.973 -0.2900 -0.1860  0.0719
 4575TIP3    H137920   6.954   4.529   8.936 -0.4729  0.2768 -1.1429
 4575TIP3    H237921   6.814   4.587   8.945 -0.4862  0.0161  0.5900
 4576TIP3   OH237922   1.395   5.154   7.782 -0.1540 -0.0370  0.3582
 4576TIP3    H137923   1.340   5.076   7.776 -0.6287  0.3016  0.2617
 4576TIP3    H237924   1.422   5.170   7.692 -1.1624  0.6900  0.1728
 4577TIP3   OH237925   4.876   2.894   9.625 -0.5588 -0.0783  1.2019
 4577TIP3    H137926   4.924   2.974   9.645 -1.6742  0.6763  0.9486
 4577TIP3    H237927   4.887   2.881   9.531 -1.1100  0.2783  1.0846
 4578TIP3   OH237928   5.560   4.975   0.891  0.2787  0.0088 -0.4582
 4578TIP3    H137929   5.468   4.992   0.868 -0.2636  0.5730  1.8197
 4578TIP3    H237930   5.597   5.062   0.905  0.4346 -0.2719  1.0480
 4579TIP3   OH237931   3.571   5.934   2.716  0.3492 -0.6373  0.3676
 4579TIP3    H137932   3.482   5.969   2.720 -1.4230 -3.6184 -4.5080
 4579TIP3    H237933   3.626   6.011   2.697 -1.4718  0.9269  1.0535
 4580TIP3   OH237934   4.102   6.857   9.637 -0.2628 -0.1162 -0.0465
 4580TIP3    H137935   4.058   6.793   9.693 -1.1266 -0.2267 -0.8401
 4580TIP3    H237936   4.153   6.911   9.698 -0.1656 -1.0382  0.7111
 4581TIP3   OH237937   1.602   5.667   1.264 -0.6839 -0.4072  0.1588
 4581TIP3    H137938   1.688   5.651   1.224  0.1199  3.1806  0.0993
 4581TIP3    H237939   1.540   5.646   1.195  0.3606 -0.0027 -0.9507
 4582TIP3   OH237940   0.646   3.493   0.939  0.5410 -0.5159  0.4782
 4582TIP3    H137941   0.675   3.557   1.004 -0.8395 -0.0516  0.6687
 4582TIP3    H237942   0.551   3.490   0.949  0.2789 -0.3632 -1.5625
 4583TIP3   OH237943   2.034   1.064   1.398 -0.5718  0.3282 -0.2306
 4583TIP3    H137944   2.026   0.972   1.423 -1.3626 -0.0065 -1.5737
 4583TIP3    H237945   2.090   1.102   1.464  3.1684 -2.0150 -1.7368
 4584TIP3   OH237946   7.092   5.624   0.770  0.1598 -0.2233 -0.4519
 4584TIP3    H137947   7.099   5.529   0.779 -0.5627 -0.1567  1.4796
 4584TIP3    H237948   7.002   5.639   0.742  0.8031 -0.1507 -2.6123
 4585TIP3   OH237949   2.930   6.362   3.041  0.8274  0.3252  0.1439
 4585TIP3    H137950   2.856   6.325   2.992  1.3332  0.5118 -0.7778
 4585TIP3    H237951   2.939   6.305   3.117  0.5879 -0.5042 -0.4354
 4586TIP3   OH237952   4.130   2.522   1.636  0.1579  0.4475 -0.1399
 4586TIP3    H137953   4.168   2.434   1.644  0.6062  0.6189 -0.3747
 4586TIP3    H237954   4.190   2.569   1.578 -0.4037  0.7268 -0.5078
 4587TIP3   OH237955   3.881   3.062   0.657  0.0891  0.0380  0.2286
 4587TIP3    H137956   3.950   3.045   0.593 -1.0275  0.3540 -1.1096
 4587TIP3    H237957   3.926   3.103   0.731  1.7140 -2.0971  0.5082
 4588TIP3   OH237958   4.224   5.086   2.706  0.0220  0.1352 -0.4528
 4588TIP3    H137959   4.259   5.001   2.677 -0.1619 -0.3290  0.6345
 4588TIP3    H237960   4.295   5.124   2.758 -1.5457 -1.5703  3.2299
 4589TIP3   OH237961   2.114   0.806   9.781  0.6572  0.1055 -0.0513
 4589TIP3    H137962   2.196   0.804   9.831  1.0309  1.8952 -0.4955
 4589TIP3    H237963   2.106   0.718   9.745  2.3761 -0.1397  0.0546
 4590TIP3   OH237964   6.999   1.506   9.148  0.2970  0.1397 -0.4985
 4590TIP3    H137965   7.045   1.588   9.167  0.2631  0.0574 -0.0367
 4590TIP3    H237966   6.906   1.528   9.158  0.3403 -0.3539  1.3706
 4591TIP3   OH237967   0.078   0.413   3.054  0.2255 -0.1644 -0.0157
 4591TIP3    H137968   0.115   0.329   3.078 -0.1706  0.1147  1.7277
 4591TIP3    H237969   0.154   0.471   3.043  0.4390 -0.1279  1.4000
 4592TIP3   OH237970   1.153   5.059   9.346  0.0132  0.3126  0.3733
 4592TIP3    H137971   1.089   5.131   9.346 -0.4558 -0.0713 -0.9757
 4592TIP3    H237972   1.142   5.017   9.431  0.0874  1.6454  1.0668
 4593TIP3   OH237973   1.253   3.375   0.579 -0.4552  0.2977 -1.0779
 4593TIP3    H137974   1.273   3.464   0.609  0.4290  0.2526 -1.5027
 4593TIP3    H237975   1.309   3.318   0.633 -2.2271 -0.1758  0.3815
 4594TIP3   OH237976   2.943   1.888   7.710 -0.0875  0.1541  0.0376
 4594TIP3    H137977   2.886   1.846   7.645  1.1881 -0.0307 -0.9952
 4594TIP3    H237978   2.980   1.816   7.760  1.1035  0.0804 -0.8974
 4595TIP3   OH237979   2.450   1.843   9.442  0.0705 -0.0760 -0.3617
 4595TIP3    H137980   2.490   1.768   9.487  1.9093  0.1520 -1.4917
 4595TIP3    H237981   2.452   1.914   9.506 -3.3253 -1.3365  1.3576
 4596TIP3   OH237982   2.973   0.641   2.016 -0.9342 -0.3152 -0.0915
 4596TIP3    H137983   2.897   0.634   2.075 -1.0535 -1.5999 -0.3607
 4596TIP3    H237984   2.978   0.734   1.995 -1.0269  0.1482  1.7548
 4597TIP3   OH237985   4.969   4.908   0.117 -0.3028 -0.6395  0.6471
 4597TIP3    H137986   4.904   4.895   0.048 -0.7959 -0.6454  1.1010
 4597TIP3    H237987   4.963   5.001   0.138  0.3120 -0.5030  0.2326
 4598TIP3   OH237988   3.678   4.777   9.667  0.3827  0.1310  0.2253
 4598TIP3    H137989   3.648   4.841   9.731  3.4845  2.0735 -0.0422
 4598TIP3    H237990   3.638   4.805   9.585 -1.1532 -0.5359  0.7058
 4599TIP3   OH237991   3.868   3.713   1.188 -0.3515 -0.8618 -0.0439
 4599TIP3    H137992   3.896   3.682   1.274  0.3821  0.5575  0.2606
 4599TIP3    H237993   3.789   3.764   1.205 -0.4826 -0.9895 -0.2726
 4600TIP3   OH237994   3.278   0.621   0.836  0.6347  0.3529  0.5548
 4600TIP3    H137995   3.361   0.579   0.859  1.0749 -0.9267 -2.8311
 4600TIP3    H237996   3.227   0.552   0.795 -0.8755  1.8671 -0.2107
 4601TIP3   OH237997   4.112   3.847   9.827  0.3985 -0.2909  0.1310
 4601TIP3    H137998   4.176   3.778   9.808  2.3064  1.1654  0.9988
 4601TIP3    H237999   4.058   3.810   9.897  1.6863 -0.7467  0.9132
 4602TIP3   OH238000   3.250   3.465   2.168  0.1869  0.3958  0.2995
 4602TIP3    H138001   3.254   3.490   2.260  0.7430  0.8247  0.1655
 4602TIP3    H238002   3.230   3.546   2.122  2.1896  0.6768 -0.1588
 4603TIP3   OH238003   0.702   6.263   0.945  0.2974 -0.3844 -0.5390
 4603TIP3    H138004   0.776   6.247   1.003 -0.8713 -1.9923  0.5870
 4603TIP3    H238005   0.629   6.282   1.004 -0.1199  1.8063 -1.6336
 4604TIP3   OH238006   0.035   5.698   2.078 -0.0685  0.5028  0.3120
 4604TIP3    H138007   0.131   5.706   2.083 -0.0141  1.1104 -1.2575
 4604TIP3    H238008   0.015   5.710   1.985 -1.3630 -3.2375 -0.0826
 4605TIP3   OH238009   7.107   0.669   9.906 -0.0909 -0.2096  0.1043
 4605TIP3    H138010   7.068   0.741   9.858 -1.5305  0.4591  2.1466
 4605TIP3    H238011   7.155   0.710   9.977 -0.4447 -1.2365  0.9618
 4606TIP3   OH238012   6.262   5.276   1.910  0.4128 -0.2574 -0.0098
 4606TIP3    H138013   6.239   5.230   1.991  0.1328  1.6600  1.0500
 4606TIP3    H238014   6.351   5.247   1.891  0.9450  0.1985  1.6851
 4607TIP3   OH238015   6.258   1.513   8.830  0.1949  0.1011 -0.0252
 4607TIP3    H138016   6.288   1.476   8.913 -0.8694 -2.1145 -0.5827
 4607TIP3    H238017   6.164   1.499   8.830  0.0489  0.9946 -1.1908
 4608TIP3   OH238018   6.469   4.140   0.455 -0.0080  0.3413  0.0692
 4608TIP3    H138019   6.426   4.192   0.387  2.1808  1.0913 -0.8478
 4608TIP3    H238020   6.521   4.204   0.504  3.2982 -0.9219 -1.5144
 4609TIP3   OH238021   0.908   1.663   1.847 -0.2605 -0.6778 -0.1992
 4609TIP3    H138022   0.968   1.732   1.876 -0.5808 -0.0333 -1.0309
 4609TIP3    H238023   0.903   1.675   1.752 -0.9578 -1.3340 -0.2447
 4610TIP3   OH238024   2.832   6.040   8.519 -0.2702 -0.1384 -0.1406
 4610TIP3    H138025   2.741   6.071   8.519  0.4511  2.1666  0.0144
 4610TIP3    H238026   2.848   6.012   8.609  0.2808  3.2729  0.9504
 4611TIP3   OH238027   6.913   3.394   2.302 -0.2228 -0.2801 -0.1772
 4611TIP3    H138028   7.008   3.409   2.304  0.0121 -1.6372  1.6794
 4611TIP3    H238029   6.875   3.474   2.337  0.4547 -0.7700  1.7807
 4612TIP3   OH238030   0.901   5.080   1.296  0.0921 -0.2411 -0.0967
 4612TIP3    H138031   0.807   5.086   1.315  0.5346  1.6351  1.7978
 4612TIP3    H238032   0.917   5.151   1.234  0.1579 -1.0932 -1.0881
 4613TIP3   OH238033   1.561   0.757   9.582 -0.3892 -0.1130 -0.3774
 4613TIP3    H138034   1.644   0.806   9.584 -1.1621  1.2224  0.3010
 4613TIP3    H238035   1.516   0.791   9.504 -0.3873 -0.7080 -0.6424
 4614TIP3   OH238036   3.907   0.248   7.840 -0.0703 -0.9380 -0.1670
 4614TIP3    H138037   3.952   0.212   7.764  0.0924 -3.2396  0.9184
 4614TIP3    H238038   3.814   0.229   7.823 -0.0497 -1.2975  0.1032
 4615TIP3   OH238039   0.387   0.050   7.576  0.4050 -0.3702 -0.0660
 4615TIP3    H138040   0.384   0.106   7.654 -2.0362 -0.0645 -0.3061
 4615TIP3    H238041   0.400   0.112   7.504  3.2808 -0.7063  0.0672
 4616TIP3   OH238042   2.405   0.839   9.581 -0.1572  0.3324 -0.7102
 4616TIP3    H138043   2.368   0.779   9.645 -1.4252  1.1100 -0.6839
 4616TIP3    H238044   2.495   0.854   9.611 -0.1566 -0.7038 -0.1400
 4617TIP3   OH238045   0.739   5.300   1.161  0.0040 -0.3730  0.3408
 4617TIP3    H138046   0.724   5.273   1.071  1.9825 -1.1153  0.1705
 4617TIP3    H238047   0.782   5.386   1.153 -1.1546  0.2606  0.6661
 4618TIP3   OH238048   7.334   5.472   1.923 -0.0111 -0.6771 -0.0465
 4618TIP3    H138049   7.277   5.547   1.906  0.7131 -0.1146 -0.0375
 4618TIP3    H238050   7.279   5.411   1.972 -0.9445 -0.6400 -1.0238
 4619TIP3   OH238051   5.385   4.950   0.373 -0.0207 -0.0901  0.6730
 4619TIP3    H138052   5.342   4.956   0.288 -0.8536 -1.5139  0.9517
 4619TIP3    H238053   5.347   4.872   0.414  1.8181 -0.6019  1.5283
 4620TIP3   OH238054   4.580   6.551   6.708  0.8439  0.4765  0.3785
 4620TIP3    H138055   4.581   6.537   6.613 -1.9150  0.3338  0.2898
 4620TIP3    H238056   4.522   6.482   6.741  0.5262  1.4773  1.9935
 4621TIP3   OH238057   1.109   5.764   7.810  0.0383  0.1513 -0.3857
 4621TIP3    H138058   1.074   5.725   7.890 -0.1496  2.7442  0.8863
 4621TIP3    H238059   1.204   5.753   7.819  0.1010  1.4321  0.8016
 4622TIP3   OH238060   5.914   1.856   9.110  0.1605  0.3656 -0.6440
 4622TIP3    H138061   5.896   1.849   9.016 -1.9154 -1.5292 -0.1968
 4622TIP3    H238062   5.935   1.766   9.137 -1.7501  0.3637  1.0927
 4623TIP3   OH238063   7.229   1.706   9.211 -0.4263 -0.2934 -0.2556
 4623TIP3    H138064   7.227   1.727   9.304 -3.0040 -0.2253 -0.2707
 4623TIP3    H238065   7.266   1.618   9.207 -1.3853 -0.7771  0.9699
 4624TIP3   OH238066   1.512   6.898   0.607  0.2044  0.2744 -0.3344
 4624TIP3    H138067   1.525   6.982   0.651 -0.6072  0.6909 -0.8643
 4624TIP3    H238068   1.535   6.832   0.672 -1.1645  0.8641  0.7879
 4625TIP3   OH238069   6.073   7.467   2.121  0.7437 -0.2383 -0.2118
 4625TIP3    H138070   6.133   7.541   2.134 -0.0477  0.8483 -2.1743
 4625TIP3    H238071   6.125   7.389   2.138  1.5342  0.7411  2.2250
 4626TIP3   OH238072   5.783   0.290   8.173  0.0402 -0.2858  0.1347
 4626TIP3    H138073   5.811   0.264   8.260 -2.0908 -0.7189  0.7471
 4626TIP3    H238074   5.843   0.245   8.113  0.9276 -0.7513  1.3520
 4627TIP3   OH238075   4.831   3.527   9.911 -0.3182  0.4250 -0.6652
 4627TIP3    H138076   4.790   3.441   9.900  0.5941 -0.4964  2.1627
 4627TIP3    H238077   4.759   3.589   9.901 -1.6978 -0.9120  0.4434
 4628TIP3   OH238078   2.293   5.865   7.268 -0.8232  0.2214  0.0444
 4628TIP3    H138079   2.231   5.793   7.279  1.3757 -2.1085 -1.6864
 4628TIP3    H238080   2.242   5.933   7.224 -2.3176 -1.4011 -0.9052
 4629TIP3   OH238081   4.055   1.710   0.386 -0.3820  0.1079 -0.1551
 4629TIP3    H138082   3.999   1.768   0.334  1.3415  2.2809  0.2471
 4629TIP3    H238083   4.056   1.750   0.473  1.2186 -0.2631  0.0240
 4630TIP3   OH238084   5.065   4.620   2.456 -0.2816 -0.4989  0.1835
 4630TIP3    H138085   4.976   4.651   2.439  0.0019  0.2879  0.1268
 4630TIP3    H238086   5.075   4.544   2.398 -1.5216 -1.7040  1.4500
 4631TIP3   OH238087   0.129   2.941   2.175  0.6239  0.3498 -0.3000
 4631TIP3    H138088   0.187   2.961   2.248  0.4304 -1.4487  0.4111
 4631TIP3    H238089   0.049   2.991   2.193  0.2846 -0.6576  1.1853
 4632TIP3   OH238090   4.664   3.377   1.495 -0.4724 -0.4875 -0.5041
 4632TIP3    H138091   4.654   3.470   1.476  0.4438  0.3651  2.5873
 4632TIP3    H238092   4.585   3.336   1.458 -0.8209  1.4653 -2.0505
 4633TIP3   OH238093   0.691   4.566   9.953  0.2859 -0.4967  0.3838
 4633TIP3    H138094   0.705   4.560   9.858  3.1353  0.9728  0.6044
 4633TIP3    H238095   0.626   4.636   9.963 -0.6324 -1.1943 -0.4585
 4634TIP3   OH238096   4.331   0.050   1.679  0.3091 -0.4413  0.0743
 4634TIP3    H138097   4.274  -0.016   1.641  1.0690  0.0343 -2.0297
 4634TIP3    H238098   4.380   0.003   1.748  0.3489 -1.8921 -0.9009
 4635TIP3   OH238099   2.208   5.609   7.932  0.0994 -0.0896 -0.3717
 4635TIP3    H138100   2.229   5.632   7.841  0.5935  1.1808  0.0433
 4635TIP3    H238101   2.124   5.650   7.948  0.3409  0.2840 -0.0459
 4636TIP3   OH238102   7.371   4.338   8.691 -0.4573  0.9018  0.0810
 4636TIP3    H138103   7.388   4.247   8.716 -0.4942  1.0463  0.6542
 4636TIP3    H238104   7.451   4.366   8.647 -1.0855  0.0678 -1.6771
 4637TIP3   OH238105   0.422   2.541   8.381  0.3049 -0.2532  0.5078
 4637TIP3    H138106   0.461   2.589   8.308 -1.0873  0.0893 -0.0273
 4637TIP3    H238107   0.337   2.582   8.395  0.5429 -0.3011  2.3446
 4638TIP3   OH238108   1.538   7.466   2.279  0.2509 -0.2305  0.0574
 4638TIP3    H138109   1.515   7.374   2.273 -0.4525 -0.0832  0.2943
 4638TIP3    H238110   1.614   7.477   2.223 -1.8943 -0.2206 -3.0976
 4639TIP3   OH238111   0.114   0.709   9.425  0.2336  0.0630 -0.1767
 4639TIP3    H138112   0.031   0.691   9.469 -0.1487  0.8586 -0.5478
 4639TIP3    H238113   0.126   0.636   9.364  0.4924 -0.7567  0.8450
 4640TIP3   OH238114   6.790   2.039   1.708  0.5073 -0.0066  0.1359
 4640TIP3    H138115   6.704   2.048   1.667  0.6874  0.3055 -0.1748
 4640TIP3    H238116   6.843   1.990   1.644  0.2275 -1.2380  0.8166
 4641TIP3   OH238117   4.040   2.055   0.886 -0.4023 -0.3939  0.3789
 4641TIP3    H138118   3.952   2.020   0.869 -1.7086  1.7279  2.2625
 4641TIP3    H238119   4.033   2.098   0.971  2.1342  1.0001 -0.0233
 4642TIP3   OH238120   4.244   0.667   8.838 -0.0617  0.0331 -0.9471
 4642TIP3    H138121   4.196   0.749   8.823  0.9058  0.7753 -0.1570
 4642TIP3    H238122   4.197   0.626   8.911 -0.7594 -0.3034 -1.5725
 4643TIP3   OH238123   2.600   3.019   0.501  0.0580 -0.1307 -0.1844
 4643TIP3    H138124   2.622   2.933   0.464 -0.6321 -0.1417 -0.5729
 4643TIP3    H238125   2.685   3.061   0.514  0.3762 -0.6568 -0.5013
 4644TIP3   OH238126   1.043   5.933   8.776  0.2181 -0.2122  0.0612
 4644TIP3    H138127   1.082   5.941   8.863 -0.0953  0.0637  0.1762
 4644TIP3    H238128   0.957   5.975   8.784 -0.5476 -1.7507  0.0847
 4645TIP3   OH238129   4.238   3.015   1.955 -0.1440  0.6782  0.0088
 4645TIP3    H138130   4.224   2.928   1.991  2.0232  0.1658 -0.2399
 4645TIP3    H238131   4.218   3.006   1.861 -0.9890  0.7520  0.1756
 4646TIP3   OH238132   1.819   6.679   8.909 -0.4012 -0.1845 -0.3250
 4646TIP3    H138133   1.833   6.624   8.986  0.5692  0.7250  0.1709
 4646TIP3    H238134   1.723   6.686   8.902 -0.5189 -1.1687  0.1295
 4647TIP3   OH238135   2.010   0.378   1.960 -0.1636 -0.2882  0.1699
 4647TIP3    H138136   2.000   0.292   1.919 -1.1905 -0.1545  0.1187
 4647TIP3    H238137   1.987   0.440   1.891  0.8273  0.0488  0.1273
 4648TIP3   OH238138   1.216   1.174   9.139 -0.4764 -0.0700 -0.0795
 4648TIP3    H138139   1.236   1.260   9.101  0.0409 -0.2549 -0.2390
 4648TIP3    H238140   1.186   1.121   9.064 -2.1466  0.3573  0.2382
 4649TIP3   OH238141   6.928   6.047   1.280 -0.2428 -0.0947 -0.3411
 4649TIP3    H138142   7.022   6.064   1.280 -0.1625 -0.4938  0.8080
 4649TIP3    H238143   6.905   6.041   1.187  0.9797 -0.6623 -0.6246
 4650TIP3   OH238144   6.862   5.684   8.783  0.3326 -0.1925 -0.1729
 4650TIP3    H138145   6.851   5.724   8.697 -0.4761 -0.9080 -0.4173
 4650TIP3    H238146   6.775   5.651   8.805  0.9087 -1.5737  0.1258
 4651TIP3   OH238147   2.925   0.505   9.801  0.3389 -0.0789  0.0873
 4651TIP3    H138148   3.000   0.554   9.766  1.3354 -0.8979  1.0114
 4651TIP3    H238149   2.964   0.439   9.858 -1.0078 -1.5540 -0.6316
 4652TIP3   OH238150   4.826   3.912   0.125  0.0019  0.3554  0.0092
 4652TIP3    H138151   4.846   3.915   0.219 -2.2591  0.4021  0.5663
 4652TIP3    H238152   4.803   3.820   0.109 -0.6644  0.5591 -0.2285
 4653TIP3   OH238153   2.945   2.241   1.620 -0.0569  0.4965 -0.4919
 4653TIP3    H138154   3.026   2.241   1.567  1.0459 -1.0108  1.0833
 4653TIP3    H238155   2.875   2.227   1.556  1.3973 -3.7275 -1.5130
 4654TIP3   OH238156   4.751   6.950   2.364 -0.0215  0.2151 -0.1872
 4654TIP3    H138157   4.677   6.943   2.423  0.5594 -1.5896  0.3726
 4654TIP3    H238158   4.824   6.976   2.420 -0.3460  2.9467 -0.8820
 4655TIP3   OH238159   2.830   1.054   7.207  0.0844 -0.3656  0.2343
 4655TIP3    H138160   2.875   1.051   7.122  1.6808 -2.7129  1.0702
 4655TIP3    H238161   2.739   1.078   7.185  0.3917 -1.1481 -2.1619
 4656TIP3   OH238162   2.144   1.961   7.577 -0.7257 -0.3457  0.0608
 4656TIP3    H138163   2.135   2.035   7.518 -1.2012 -0.0377  0.5108
 4656TIP3    H238164   2.233   1.967   7.611 -1.1736  0.7640  1.0761
 4657TIP3   OH238165   2.542   1.027   8.658  0.3425 -0.1009  0.5856
 4657TIP3    H138166   2.590   0.947   8.636  1.3189  0.8051 -0.7632
 4657TIP3    H238167   2.547   1.080   8.578 -3.2953 -0.0780  0.1922
 4658TIP3   OH238168   6.174   0.831   0.515 -0.0365  0.3872  0.0079
 4658TIP3    H138169   6.237   0.763   0.542 -1.4696 -1.6463 -1.4655
 4658TIP3    H238170   6.202   0.855   0.426 -2.4677 -2.1825 -1.5997
 4659TIP3   OH238171   7.066   2.295   9.987 -0.2106 -0.4324  0.0664
 4659TIP3    H138172   7.074   2.367   9.924 -1.7345 -0.0723  0.2573
 4659TIP3    H238173   7.040   2.338  10.069 -0.0810 -1.0962  0.4617
 4660TIP3   OH238174   0.559   6.066   0.788 -0.2545 -0.6691 -0.2939
 4660TIP3    H138175   0.619   6.137   0.810 -0.1904 -0.6274 -0.5896
 4660TIP3    H238176   0.544   6.020   0.870 -0.2230 -0.3689 -0.1204
 4661TIP3   OH238177   2.658   1.279   8.760 -0.2497 -0.3794 -0.5726
 4661TIP3    H138178   2.630   1.189   8.742 -1.6267  0.0696 -0.7635
 4661TIP3    H238179   2.577   1.328   8.772  0.4833  0.7992 -0.2022
 4662TIP3   OH238180   4.112   4.604   0.802  0.2577  0.1999  0.5569
 4662TIP3    H138181   4.113   4.539   0.872  0.2666  0.4618  0.7993
 4662TIP3    H238182   4.089   4.554   0.723 -2.0784  0.2853  1.1116
 4663TIP3   OH238183   3.945   1.395   0.927  0.3830  0.1757  0.1526
 4663TIP3    H138184   3.954   1.485   0.897  2.4684  0.0297  0.1503
 4663TIP3    H238185   3.924   1.346   0.847  2.3167  0.2823 -0.4820
 4664TIP3   OH238186   4.233   0.576   8.582 -0.0874 -0.0089 -0.3918
 4664TIP3    H138187   4.254   0.596   8.674 -0.9860 -0.2466 -0.1289
 4664TIP3    H238188   4.255   0.483   8.573 -0.1378 -0.0223 -0.3754
 4665TIP3   OH238189   2.405   7.234   8.116  0.3410  0.4613 -0.0410
 4665TIP3    H138190   2.475   7.288   8.080  0.6015  1.3504  1.7015
 4665TIP3    H238191   2.351   7.212   8.040  1.8289  0.7401 -1.2410
 4666TIP3   OH238192   2.381   4.114   7.792 -0.1753  0.5607 -0.1764
 4666TIP3    H138193   2.300   4.156   7.761  0.1193  0.7960 -0.6328
 4666TIP3    H238194   2.430   4.184   7.834 -0.2860  0.3790  0.2552
 4667TIP3   OH238195   0.050   1.649   7.946  0.9174  0.5415 -0.6114
 4667TIP3    H138196   0.113   1.681   8.010  1.0646  1.1421 -1.0436
 4667TIP3    H238197  -0.035   1.655   7.990  1.1370 -0.1207 -0.0840
 4668TIP3   OH238198   7.407   4.216   0.552  0.0110 -0.1287  0.1261
 4668TIP3    H138199   7.326   4.267   0.560  1.0847  1.4081  2.0101
 4668TIP3    H238200   7.427   4.218   0.459 -3.0186 -2.1238 -0.7243
 4669TIP3   OH238201   5.877   1.548   0.791  0.4740  0.2557  0.1139
 4669TIP3    H138202   5.905   1.458   0.776 -0.1356 -0.1551  1.3571
 4669TIP3    H238203   5.921   1.574   0.872  0.6778  1.0935 -0.2589
 4670TIP3   OH238204   1.499   3.178   8.629  0.0255  0.4334 -0.2656
 4670TIP3    H138205   1.442   3.208   8.700  0.0503 -1.0889  0.4549
 4670TIP3    H238206   1.463   3.092   8.605  0.8682  0.3034 -1.1216
 4671TIP3   OH238207   1.863   2.269   0.053  0.1265  0.1872 -0.0242
 4671TIP3    H138208   1.865   2.183   0.012  0.8268  1.0528 -1.9574
 4671TIP3    H238209   1.779   2.306   0.026  0.8646  1.0111 -1.2835
 4672TIP3   OH238210   0.936   2.432   0.981 -0.2743  0.0770 -0.3454
 4672TIP3    H138211   0.962   2.369   0.914 -0.4066  0.1377 -0.4538
 4672TIP3    H238212   0.865   2.481   0.941 -0.1215  0.3449 -0.2879
 4673TIP3   OH238213   2.761   0.807   3.304  0.8801 -0.5308  0.0824
 4673TIP3    H138214   2.812   0.777   3.379  0.9285  1.7412  1.0290
 4673TIP3    H238215   2.670   0.789   3.329  0.9098  0.0140  0.6127
 4674TIP3   OH238216   3.362   4.253   0.539  0.1960 -0.5458 -0.0880
 4674TIP3    H138217   3.437   4.300   0.577  0.8567 -1.0152 -0.7892
 4674TIP3    H238218   3.331   4.311   0.469 -0.9337  0.2534  1.0220
 4675TIP3   OH238219   0.788   0.558   2.471 -0.0544  0.3873 -0.1115
 4675TIP3    H138220   0.732   0.487   2.502 -1.2879  1.2706 -0.2800
 4675TIP3    H238221   0.772   0.630   2.532  2.0996  0.1833  0.8059
 4676TIP3   OH238222   6.428   3.991   9.806  0.2227 -0.9201  0.0123
 4676TIP3    H138223   6.448   4.084   9.802 -1.5585 -0.4232  1.4992
 4676TIP3    H238224   6.460   3.956   9.722  0.5145  1.0962 -0.7668
 4677TIP3   OH238225   6.575   0.935   1.128 -0.2087  0.0827 -0.1540
 4677TIP3    H138226   6.487   0.902   1.149 -0.1146 -0.0769 -0.0154
 4677TIP3    H238227   6.619   0.862   1.085 -0.7011  0.6840 -1.7522
 4678TIP3   OH238228   5.996   4.355   9.678  0.2197 -0.4782 -0.2561
 4678TIP3    H138229   5.964   4.362   9.589  0.0632 -2.0776 -0.3557
 4678TIP3    H238230   5.940   4.289   9.719  1.4178 -1.0932  0.4659
 4679TIP3   OH238231   3.940   6.369   0.070  0.1191  0.0625  0.3160
 4679TIP3    H138232   3.852   6.379   0.034 -0.0967  1.3802  1.1349
 4679TIP3    H238233   3.965   6.279   0.049 -1.2308 -0.1755 -0.3480
 4680TIP3   OH238234   0.298   3.944   0.020  0.6971 -0.3637  0.3537
 4680TIP3    H138235   0.385   3.951   0.061 -0.3749  0.1784  2.7584
 4680TIP3    H238236   0.255   4.027   0.042  0.2973  0.3561 -2.7834
 4681TIP3   OH238237   3.141   4.614   9.791  0.1795  0.5116  0.2221
 4681TIP3    H138238   3.163   4.559   9.866  1.6269  0.6191 -0.1044
 4681TIP3    H238239   3.147   4.704   9.825  0.1976  0.5426  0.1354
 4682TIP3   OH238240   4.884   6.350   9.278  0.1731 -0.1505 -0.9291
 4682TIP3    H138241   4.837   6.314   9.353 -0.2206 -0.5809 -1.3790
 4682TIP3    H238242   4.947   6.282   9.254  1.2330  0.5290 -0.1594
 4683TIP3   OH238243   3.438   0.387   9.251  0.3546 -0.0335 -0.2368
 4683TIP3    H138244   3.471   0.395   9.340  4.9680 -1.1670 -1.5868
 4683TIP3    H238245   3.446   0.475   9.214  1.8857 -0.2557 -0.4874
 4684TIP3   OH238246   5.590   7.216   7.322 -0.1904  0.0757 -0.5465
 4684TIP3    H138247   5.634   7.139   7.286  1.6053  1.0188 -0.5032
 4684TIP3    H238248   5.572   7.193   7.413  2.5320  0.4904  0.1884
 4685TIP3   OH238249   0.836   1.576   3.118  0.3872  0.0496 -0.0037
 4685TIP3    H138250   0.839   1.605   3.027  2.3609  0.6798  0.2228
 4685TIP3    H238251   0.843   1.657   3.169  2.5581 -0.4997  0.6625
 4686TIP3   OH238252   0.700   1.700   8.496  0.0756  0.0759 -0.0507
 4686TIP3    H138253   0.662   1.622   8.454 -2.3518  0.7522  0.7435
 4686TIP3    H238254   0.777   1.720   8.443  1.5002 -3.4960  0.3716
 4687TIP3   OH238255   3.562   4.026   1.936 -0.1603 -0.1678  0.3742
 4687TIP3    H138256   3.509   4.091   1.982  1.1617  0.5959  0.8982
 4687TIP3    H238257   3.505   3.950   1.927 -0.6053 -0.2257  2.9654
 4688TIP3   OH238258   0.671   5.742   0.925  0.0196  0.7884  0.2507
 4688TIP3    H138259   0.699   5.717   1.013  0.8628  0.3189 -0.1391
 4688TIP3    H238260   0.611   5.816   0.939  0.0791  0.6678  1.2181
 4689TIP3   OH238261   3.847   5.503   2.025  0.5593  0.2808  0.2718
 4689TIP3    H138262   3.860   5.583   2.075  0.7058 -1.1996  2.7644
 4689TIP3    H238263   3.755   5.480   2.038 -0.1102  1.1601 -2.3117
 4690TIP3   OH238264   3.514   6.076   6.991  0.3232 -0.2594 -0.1270
 4690TIP3    H138265   3.550   5.998   6.948  0.2137  0.2470 -1.1731
 4690TIP3    H238266   3.466   6.121   6.921  1.3967  1.3862  0.1408
 4691TIP3   OH238267   0.540   1.115   2.189 -0.2533  0.7868 -0.6919
 4691TIP3    H138268   0.615   1.074   2.233 -0.0091  1.8120 -0.1291
 4691TIP3    H238269   0.553   1.093   2.096  0.1074 -0.0183 -0.4619
 4692TIP3   OH238270   5.223   5.351   0.798  0.0092 -0.7327 -0.9327
 4692TIP3    H138271   5.210   5.320   0.708 -0.0205 -0.2136 -1.1103
 4692TIP3    H238272   5.210   5.445   0.793 -0.6284 -0.7807 -0.2552
 4693TIP3   OH238273   2.313   3.288   1.076  0.0493 -0.1181 -0.2934
 4693TIP3    H138274   2.380   3.295   1.144 -0.1028 -0.3164 -0.1221
 4693TIP3    H238275   2.244   3.234   1.115  0.5826 -1.4320 -1.0690
 4694TIP3   OH238276   5.432   4.234   0.476  0.6020  0.0177 -0.5256
 4694TIP3    H138277   5.407   4.189   0.396 -0.1643  0.0304 -0.3048
 4694TIP3    H238278   5.403   4.176   0.547 -0.3374  0.8098 -0.2436
 4695TIP3   OH238279   4.241   4.594   7.500 -0.1217 -0.2426  0.0549
 4695TIP3    H138280   4.191   4.604   7.419  1.9622  0.8357 -1.1688
 4695TIP3    H238281   4.324   4.637   7.483 -0.0120  1.0858  3.1810
 4696TIP3   OH238282   2.235   7.363   9.366 -0.2682 -0.7979 -0.1126
 4696TIP3    H138283   2.323   7.326   9.360  0.1045 -0.0114  0.3122
 4696TIP3    H238284   2.208   7.346   9.457 -1.0442 -2.0703 -0.5485
 4697TIP3   OH238285   5.586   1.578   8.055  0.0544  0.3847  0.3766
 4697TIP3    H138286   5.654   1.643   8.073  0.0868  0.2382  0.8006
 4697TIP3    H238287   5.634   1.497   8.041 -0.0203  0.3178  0.5021
 4698TIP3   OH238288   2.334   5.509   2.178  0.4947  0.6349 -0.1427
 4698TIP3    H138289   2.287   5.504   2.261 -0.5717  0.1957 -0.7489
 4698TIP3    H238290   2.418   5.466   2.194  0.0913  0.1059  0.5659
 4699TIP3   OH238291   0.867   2.152   1.379  0.2601  0.1740 -0.1347
 4699TIP3    H138292   0.788   2.100   1.362 -1.2597  2.1792  0.4047
 4699TIP3    H238293   0.907   2.110   1.455 -0.1293 -1.0097 -0.5543
 4700TIP3   OH238294   1.703   7.247   7.608 -0.0566  0.1902 -0.4948
 4700TIP3    H138295   1.611   7.264   7.589  0.0050  1.2472  0.0489
 4700TIP3    H238296   1.747   7.258   7.523 -0.1898  1.7091 -0.4101
 4701TIP3   OH238297   1.687   1.367   0.548 -0.1512  0.0104  0.2299
 4701TIP3    H138298   1.599   1.399   0.566  0.8459  2.9320  0.3507
 4701TIP3    H238299   1.711   1.318   0.627 -1.6065 -0.8114  0.2006
 4702TIP3   OH238300   3.408   4.205   9.086 -0.6589  0.3116 -0.2250
 4702TIP3    H138301   3.392   4.170   8.999  0.8576  0.4089 -0.5655
 4702TIP3    H238302   3.321   4.214   9.125 -1.3434  0.2159 -1.6947
 4703TIP3   OH238303   3.202   4.385   1.908  0.3236  0.1602 -0.0524
 4703TIP3    H138304   3.116   4.384   1.866  0.9183  1.7400 -1.4275
 4703TIP3    H238305   3.219   4.293   1.932 -0.3465 -0.7445 -2.7338
 4704TIP3   OH238306   2.594   3.371   0.583  0.3780 -0.1481  0.3553
 4704TIP3    H138307   2.549   3.344   0.663 -0.3422  2.2332  0.8336
 4704TIP3    H238308   2.618   3.289   0.540 -3.2611 -1.5590  0.7115
 4705TIP3   OH238309   5.675   1.239   1.270 -0.5030 -0.0028 -0.1865
 4705TIP3    H138310   5.719   1.176   1.328  0.0683  1.4096  0.9985
 4705TIP3    H238311   5.588   1.249   1.307 -0.7529 -0.4304 -0.6500
 4706TIP3   OH238312   2.085   6.423   1.377  1.0351  0.1187 -0.1539
 4706TIP3    H138313   2.077   6.349   1.318 -3.1809  0.2713 -0.0771
 4706TIP3    H238314   2.092   6.384   1.464  1.3100 -0.1269 -0.2838
 4707TIP3   OH238315   0.572   3.662   2.351 -0.0596 -0.2486 -0.0010
 4707TIP3    H138316   0.513   3.600   2.393  0.0955  0.6677  1.6579
 4707TIP3    H238317   0.542   3.667   2.260 -1.0876 -1.4857  0.2450
 4708TIP3   OH238318   2.904   2.157   2.814 -0.2229 -0.0393  0.8277
 4708TIP3    H138319   2.871   2.242   2.844 -0.2266  0.7855 -1.3768
 4708TIP3    H238320   2.993   2.176   2.782 -0.5360 -0.6562 -0.4690
 4709TIP3   OH238321   1.449   3.707   8.305  0.2713 -0.1386 -0.3179
 4709TIP3    H138322   1.482   3.618   8.297 -0.2696 -0.3898  0.2183
 4709TIP3    H238323   1.520   3.755   8.349  0.2116 -0.5132  0.1972
 4710TIP3   OH238324   7.404   5.965   0.047  0.0491  0.1103 -0.2578
 4710TIP3    H138325   7.412   5.881   0.002 -1.0586 -0.1571  0.0423
 4710TIP3    H238326   7.419   5.945   0.139 -1.1726  0.0649 -0.0556
 4711TIP3   OH238327   2.047   2.973   9.034  0.3281 -0.1335 -0.7854
 4711TIP3    H138328   2.027   2.985   9.126 -0.4136 -1.1855 -0.7872
 4711TIP3    H238329   2.070   3.060   9.002 -0.3562  0.4158  0.1729
 4712TIP3   OH238330   2.315   1.794   8.889  0.8358  0.5119  0.3505
 4712TIP3    H138331   2.355   1.707   8.891 -0.2181  0.0238  1.2002
 4712TIP3    H238332   2.331   1.826   8.801  1.2437 -0.5418  0.0267
 4713TIP3   OH238333   6.191   5.039   1.006 -0.3903  0.0823 -0.4825
 4713TIP3    H138334   6.126   4.971   0.993 -1.2410  0.9806 -0.9998
 4713TIP3    H238335   6.236   5.014   1.087  0.6273 -2.1069 -1.6216
 4714TIP3   OH238336   6.005   7.455   0.409 -0.2312 -0.4221  0.2183
 4714TIP3    H138337   6.056   7.528   0.373 -0.5359 -0.4479 -0.2727
 4714TIP3    H238338   6.056   7.377   0.386  0.1274 -0.3667  0.7995
 4715TIP3   OH238339   0.511   6.257   1.131  0.4288  0.0611  0.0627
 4715TIP3    H138340   0.528   6.347   1.160 -1.8955  1.3695 -2.1958
 4715TIP3    H238341   0.439   6.227   1.187 -0.7835  0.7715 -1.0626
 4716TIP3   OH238342   6.273   4.978   8.461 -0.1811 -0.5206  0.3084
 4716TIP3    H138343   6.227   4.944   8.538 -1.5256 -0.1193 -0.2907
 4716TIP3    H238344   6.272   5.073   8.472  0.8793 -0.5160  0.4758
 4717TIP3   OH238345   3.029   7.212   0.586  0.6009  0.4820  0.2819
 4717TIP3    H138346   3.118   7.238   0.564  0.8273  1.0505  1.7610
 4717TIP3    H238347   3.000   7.160   0.511  2.8929 -1.4665  0.6418
 4718TIP3   OH238348   3.837   2.760   9.646 -0.1419 -0.7195  0.4879
 4718TIP3    H138349   3.819   2.809   9.727  0.9165  0.7376 -0.1195
 4718TIP3    H238350   3.927   2.731   9.655 -0.2754 -1.2477  0.1656
 4719TIP3   OH238351   2.819   4.699   9.407  0.0472  0.0498  0.1086
 4719TIP3    H138352   2.743   4.641   9.398 -0.1909  0.4865 -0.8465
 4719TIP3    H238353   2.890   4.653   9.362 -0.1771  0.5342 -0.7748
 4720TIP3   OH238354   4.309   6.644   1.724  0.7299  0.2043 -0.2347
 4720TIP3    H138355   4.375   6.687   1.780  0.8864  0.8497 -0.8952
 4720TIP3    H238356   4.231   6.638   1.779  1.2639 -0.3270  0.4728
 4721TIP3   OH238357   0.294   0.299   0.383 -0.4862  0.7240  0.0546
 4721TIP3    H138358   0.218   0.358   0.390  0.7363  2.5254 -0.9548
 4721TIP3    H238359   0.319   0.304   0.291  0.9636  0.3048  0.4104
 4722TIP3   OH238360   3.025   4.978   8.140  0.5484  0.0076  0.6550
 4722TIP3    H138361   3.078   4.997   8.063  2.4617  1.2332  2.1469
 4722TIP3    H238362   3.029   4.883   8.150 -0.3630 -0.2511 -1.1223
 4723TIP3   OH238363   4.170   4.507   9.529 -0.4010 -0.3209 -0.1415
 4723TIP3    H138364   4.257   4.540   9.553 -0.0685 -0.9943 -0.3912
 4723TIP3    H238365   4.111   4.549   9.592  0.1234 -0.0075  0.1580
 4724TIP3   OH238366   2.327   6.805   2.933  0.2602 -0.3017 -0.3556
 4724TIP3    H138367   2.347   6.788   2.841  1.4734  0.5273 -0.2619
 4724TIP3    H238368   2.390   6.753   2.982  1.6570  1.5503 -0.0526
 4725TIP3   OH238369   1.507   3.098   2.893 -0.4254  0.2460  0.0335
 4725TIP3    H138370   1.510   3.012   2.935 -1.7050  1.1635  2.2021
 4725TIP3    H238371   1.597   3.131   2.901 -0.5149  0.1770  1.6927
 4726TIP3   OH238372   6.915   0.439   9.880 -0.3428 -0.0565  0.1058
 4726TIP3    H138373   6.985   0.502   9.897 -0.3792  0.0776 -0.2350
 4726TIP3    H238374   6.840   0.493   9.853 -0.0922 -0.3042 -1.1133
 4727TIP3   OH238375   5.597   4.156   1.450  0.1960 -0.4912 -0.0455
 4727TIP3    H138376   5.537   4.223   1.419 -1.4561 -2.0000 -0.2764
 4727TIP3    H238377   5.617   4.182   1.540 -1.5730 -0.4206  0.3636
 4728TIP3   OH238378   2.028   6.671   1.536  0.0764  0.1731 -0.4294
 4728TIP3    H138379   2.068   6.755   1.556 -0.1984  0.4896 -1.1842
 4728TIP3    H238380   2.091   6.628   1.478  0.4596 -0.3670  0.3707
 4729TIP3   OH238381   3.394   4.843   0.175  0.3414  0.2151  0.3323
 4729TIP3    H138382   3.428   4.833   0.264 -0.1947 -0.1730  0.4977
 4729TIP3    H238383   3.432   4.926   0.144  1.5258 -0.2635  0.4631
 4730TIP3   OH238384   1.691   4.919   2.187 -0.1965 -0.7055 -0.5875
 4730TIP3    H138385   1.751   4.929   2.113  0.6449  1.0647  0.2502
 4730TIP3    H238386   1.605   4.906   2.147 -0.2124  2.6370 -2.0565
 4731TIP3   OH238387   4.487   5.890   0.627 -0.2066  0.0242  0.1107
 4731TIP3    H138388   4.582   5.902   0.625 -0.1927  0.0755  0.8370
 4731TIP3    H238389   4.468   5.858   0.715 -0.6945 -1.4897 -0.5063
 4732TIP3   OH238390   2.155   4.956   1.264  0.5932 -0.0874  0.1565
 4732TIP3    H138391   2.065   4.986   1.276  0.4496 -0.7879  0.9030
 4732TIP3    H238392   2.207   5.037   1.258 -0.0911  0.3172 -0.3768
 4733TIP3   OH238393   2.766   1.771   7.545  0.2635  0.1838  0.1947
 4733TIP3    H138394   2.687   1.736   7.504  1.1567 -1.7238 -0.0046
 4733TIP3    H238395   2.797   1.701   7.602  2.0433  0.7014 -0.0581
 4734TIP3   OH238396   5.013   5.383   1.775  0.0411 -0.2264 -0.1631
 4734TIP3    H138397   5.012   5.470   1.815  0.5254 -0.9144  1.4173
 4734TIP3    H238398   5.016   5.401   1.680  0.7310  1.4745  0.1308
 4735TIP3   OH238399   3.735   3.484   8.438 -0.3677 -0.3470 -0.3473
 4735TIP3    H138400   3.788   3.543   8.491  0.8388 -2.0993  0.4927
 4735TIP3    H238401   3.674   3.541   8.392  0.4274  1.4882  0.7756
 4736TIP3   OH238402   4.807   6.627   0.189  0.0045  0.0333  0.6363
 4736TIP3    H138403   4.870   6.558   0.167  0.3770  0.7030 -0.4338
 4736TIP3    H238404   4.843   6.706   0.150 -0.2879  0.9112  2.0782
 4737TIP3   OH238405   3.434   6.344   8.563 -0.5374 -0.4389  0.1299
 4737TIP3    H138406   3.374   6.298   8.623 -1.4168  1.2693  0.6405
 4737TIP3    H238407   3.382   6.356   8.483 -0.9985  1.2117  0.6386
 4738TIP3   OH238408   6.707   5.151   0.823  0.5072 -0.2914  0.1601
 4738TIP3    H138409   6.690   5.091   0.895  3.4708 -0.1572  1.0777
 4738TIP3    H238410   6.694   5.098   0.744 -3.4477 -0.2561  0.5833
 4739TIP3   OH238411   7.111   6.242   1.328 -0.4011 -0.2896 -0.7459
 4739TIP3    H138412   7.184   6.279   1.378 -0.2090 -0.9327 -0.5351
 4739TIP3    H238413   7.034   6.291   1.357 -0.4647 -1.3089  0.9578
 4740TIP3   OH238414   4.849   6.513   6.784  0.1942 -0.0497  0.8649
 4740TIP3    H138415   4.909   6.579   6.819  0.3916  0.9193 -1.1815
 4740TIP3    H238416   4.764   6.556   6.785  0.2756  0.1475 -0.2082
 4741TIP3   OH238417   5.674   4.592   1.653  0.0627  0.0419 -0.2582
 4741TIP3    H138418   5.650   4.609   1.744  1.9335 -0.2087  0.3168
 4741TIP3    H238419   5.674   4.678   1.611 -1.6353  0.0694 -0.2722
 4742TIP3   OH238420   6.308   3.189   2.073 -0.3406 -0.1610 -0.0422
 4742TIP3    H138421   6.254   3.246   2.018 -0.3032 -0.4163 -0.3494
 4742TIP3    H238422   6.312   3.233   2.157 -2.2129 -0.8045  0.4385
 4743TIP3   OH238423   7.162   1.743   2.090 -0.1371  0.2266 -0.5656
 4743TIP3    H138424   7.084   1.700   2.054 -1.6096  2.3495 -0.0593
 4743TIP3    H238425   7.171   1.824   2.039  0.6912  0.8645  0.5628
 4744TIP3   OH238426   2.689   2.492   8.946  0.4615 -0.5537  0.6073
 4744TIP3    H138427   2.622   2.545   8.989  1.3186  0.8371  0.2850
 4744TIP3    H238428   2.676   2.404   8.982 -1.4398 -0.2986  0.6373
 4745TIP3   OH238429   2.373   6.470   6.411 -0.8479  0.1756  0.3768
 4745TIP3    H138430   2.440   6.537   6.426  0.4892 -0.7819 -1.0353
 4745TIP3    H238431   2.416   6.404   6.358 -3.3091  0.1752 -1.8111
 4746TIP3   OH238432   0.709   0.633   3.334 -0.3154  0.1068 -0.1231
 4746TIP3    H138433   0.732   0.671   3.419  0.5844  0.6227 -0.5770
 4746TIP3    H238434   0.621   0.599   3.346 -0.1196 -0.0173  1.0765
 4747TIP3   OH238435   0.042   5.993   7.976 -0.1366  0.0396  0.4418
 4747TIP3    H138436   0.024   5.905   7.943 -1.3090  0.0964  0.8954
 4747TIP3    H238437   0.138   5.996   7.984  0.0970 -0.4862 -1.4893
 4748TIP3   OH238438   5.339   0.557   0.652 -0.2149 -0.7163 -0.5867
 4748TIP3    H138439   5.251   0.519   0.644 -0.5235 -0.5293  1.4224
 4748TIP3    H238440   5.348   0.577   0.745  2.4912 -1.9952 -0.4739
 4749TIP3   OH238441   0.626   7.273   1.478 -0.3066  0.1041  0.2104
 4749TIP3    H138442   0.662   7.222   1.551  0.6533  0.0278 -0.2970
 4749TIP3    H238443   0.703   7.302   1.429 -0.9400 -1.8159 -2.1172
 4750TIP3   OH238444   5.741   1.934   9.316  0.4496 -0.3935  0.0002
 4750TIP3    H138445   5.787   1.923   9.399 -0.4027 -0.3864  0.4855
 4750TIP3    H238446   5.806   1.913   9.249  0.5655 -2.5262  0.7106
 4751TIP3   OH238447   0.947   6.398   9.999  0.5086 -0.1136  0.7666
 4751TIP3    H138448   0.867   6.351   9.975  0.6272  0.4111 -0.8117
 4751TIP3    H238449   0.918   6.464  10.062 -0.1311 -0.5284  0.9249
 4752TIP3   OH238450   4.190   7.325   6.706 -0.3743  0.5053 -0.0413
 4752TIP3    H138451   4.112   7.271   6.696 -0.5719  0.4904  1.3368
 4752TIP3    H238452   4.159   7.415   6.693 -0.5073  0.4581 -0.0468
 4753TIP3   OH238453   5.044   5.403   1.495 -0.3790 -0.1960  0.1561
 4753TIP3    H138454   5.128   5.437   1.463 -0.6244 -0.5527 -0.9073
 4753TIP3    H238455   4.979   5.450   1.444 -0.8748  0.5722  1.4507
 4754TIP3   OH238456   1.409   6.069   8.815  0.1408  0.1173  0.2101
 4754TIP3    H138457   1.494   6.105   8.842  2.4795 -3.9726 -0.7322
 4754TIP3    H238458   1.369   6.039   8.897  1.0775 -0.6136  0.4164
 4755TIP3   OH238459   7.476   6.357   0.158 -0.5580 -0.0981 -0.3056
 4755TIP3    H138460   7.542   6.288   0.149 -0.5784  0.1371 -3.6165
 4755TIP3    H238461   7.397   6.321   0.117 -1.5449  0.8010  0.7101
 4756TIP3   OH238462   3.946   4.469   1.968  0.2561  0.1406 -0.9621
 4756TIP3    H138463   4.035   4.496   1.989  1.1595 -2.7226 -0.6428
 4756TIP3    H238464   3.956   4.402   1.900 -1.1763 -3.1770  1.7886
 4757TIP3   OH238465   3.592   4.527   8.989 -0.1407 -0.1239  0.1151
 4757TIP3    H138466   3.651   4.493   8.922  0.7994 -0.0638  0.9008
 4757TIP3    H238467   3.599   4.622   8.981  1.3014 -0.0832  1.4019
 4758TIP3   OH238468   3.040   2.059   1.316 -0.0841  0.2901 -0.1923
 4758TIP3    H138469   3.093   1.979   1.312  1.4910  1.3220 -0.8745
 4758TIP3    H238470   3.046   2.096   1.228 -0.8385  1.1391  0.0973
 4759TIP3   OH238471   3.098   5.465   8.050 -0.0142 -0.0648  0.2677
 4759TIP3    H138472   3.083   5.385   7.999  1.0980  0.1762 -0.4762
 4759TIP3    H238473   3.079   5.536   7.989 -0.9482  0.2555  0.9101
 4760TIP3   OH238474   6.910   0.107   9.300 -0.0521 -0.2526 -0.2688
 4760TIP3    H138475   6.826   0.104   9.345  0.0515 -0.7620 -0.1001
 4760TIP3    H238476   6.917   0.197   9.267  0.5598  0.6188  2.0488
 4761TIP3   OH238477   0.225   5.901   0.959  0.6295 -0.4320  0.3273
 4761TIP3    H138478   0.292   5.934   1.019 -0.2759  0.6564  0.7799
 4761TIP3    H238479   0.145   5.897   1.013  0.0812 -0.6318 -0.4896
 4762TIP3   OH238480   4.152   3.813   7.043  0.4383  0.3702  0.0654
 4762TIP3    H138481   4.109   3.899   7.038 -0.1619  0.1351  1.0305
 4762TIP3    H238482   4.245   3.833   7.047  0.2658  1.0113  1.1101
 4763TIP3   OH238483   2.483   7.266   1.929  0.1926  0.4282  0.7400
 4763TIP3    H138484   2.471   7.191   1.872 -0.8376  3.0941 -2.9739
 4763TIP3    H238485   2.573   7.257   1.962  0.7383 -1.5340 -1.0297
 4764TIP3   OH238486   7.178   4.109   1.609  0.6080 -0.0671 -0.1083
 4764TIP3    H138487   7.223   4.066   1.536  1.3251  1.3599 -0.5311
 4764TIP3    H238488   7.187   4.046   1.681 -0.3988 -1.6394 -1.2969
 4765TIP3   OH238489   0.315   5.693   7.426 -0.2874 -0.1188 -0.1332
 4765TIP3    H138490   0.285   5.784   7.431  1.5508  0.5284 -0.4407
 4765TIP3    H238491   0.286   5.662   7.340 -1.5226 -0.0788  0.2447
 4766TIP3   OH238492   1.887   5.292   8.578  0.9374  0.2440  0.1307
 4766TIP3    H138493   1.960   5.299   8.516 -0.6244  1.4957 -1.6799
 4766TIP3    H238494   1.859   5.382   8.592  1.1850 -0.0179  2.6772
 4767TIP3   OH238495   2.690   7.388   3.132 -0.3431  0.3184  0.0511
 4767TIP3    H138496   2.706   7.417   3.042  0.7581  0.4034  0.2706
 4767TIP3    H238497   2.762   7.329   3.152 -0.6239  0.2381  0.8616
 4768TIP3   OH238498   0.106   3.639   0.237 -0.3509  0.3181 -0.2204
 4768TIP3    H138499   0.071   3.664   0.322  2.1151 -0.7772  1.2166
 4768TIP3    H238500   0.124   3.545   0.245  1.3982  0.5062 -1.3869
 4769TIP3   OH238501   6.185   4.371   1.336 -0.0556  0.8032  0.3398
 4769TIP3    H138502   6.180   4.464   1.357  0.4205  0.8541  0.2405
 4769TIP3    H238503   6.109   4.355   1.280 -0.8429  0.8551  1.3577
 4770TIP3   OH238504   0.239   1.115   1.128  0.3702  0.2288 -0.1711
 4770TIP3    H138505   0.289   1.100   1.047  0.2122 -0.2111 -0.1873
 4770TIP3    H238506   0.233   1.029   1.169 -1.1067  0.1125 -0.5844
 4771TIP3   OH238507   2.073   4.237   0.471 -0.4199 -0.4788  0.2304
 4771TIP3    H138508   2.000   4.190   0.512 -0.2981  1.1115  2.4547
 4771TIP3    H238509   2.108   4.293   0.541  2.3686 -0.5005 -1.0042
 4772TIP3   OH238510   6.853   4.828   1.657  0.3463 -0.2022 -0.4715
 4772TIP3    H138511   6.830   4.866   1.572  2.0894  2.8582  0.2922
 4772TIP3    H238512   6.778   4.771   1.679 -1.8589  1.7447 -2.3915
 4773TIP3   OH238513   7.298   1.645   7.636  0.1540  0.0306  0.5150
 4773TIP3    H138514   7.247   1.578   7.590  0.9229  0.8715 -1.6752
 4773TIP3    H238515   7.238   1.719   7.645  0.5490  0.5501 -0.8994
 4774TIP3   OH238516   2.956   5.212   1.281  0.5524 -0.4892  0.2723
 4774TIP3    H138517   2.948   5.267   1.204  0.9279 -2.1456 -1.0036
 4774TIP3    H238518   2.975   5.273   1.352 -1.3160  1.2612 -0.6050
 4775TIP3   OH238519   5.057   2.312   8.168  0.1639 -0.5149 -0.4951
 4775TIP3    H138520   5.090   2.223   8.151 -1.6356 -1.7139  1.8536
 4775TIP3    H238521   5.136   2.366   8.169  1.4178 -2.2330 -0.9598
 4776TIP3   OH238522   1.678   6.926   8.762  0.7681 -0.5989 -0.2713
 4776TIP3    H138523   1.658   6.893   8.850  1.6224 -0.2232  0.0771
 4776TIP3    H238524   1.627   6.870   8.703 -2.0198  0.8900  0.5679
 4777TIP3   OH238525   1.105   4.418   9.435 -0.1813 -0.0401 -0.0555
 4777TIP3    H138526   1.023   4.374   9.455  0.9701 -0.9938  3.2766
 4777TIP3    H238527   1.133   4.381   9.351 -2.2731 -0.9610 -0.4076
 4778TIP3   OH238528   7.413   6.878   2.211  0.3410  0.3771  0.3155
 4778TIP3    H138529   7.383   6.796   2.250  0.4597  0.1637 -0.0375
 4778TIP3    H238530   7.338   6.908   2.159  0.5110  0.1776 -0.0457
 4779TIP3   OH238531   2.359   4.667   7.863 -0.1482 -0.6087 -0.2517
 4779TIP3    H138532   2.340   4.755   7.895  0.5627 -0.3769 -0.4575
 4779TIP3    H238533   2.282   4.615   7.889 -1.9673  0.6666 -2.7125
 4780TIP3   OH238534   1.539   0.697   2.365  0.0856  0.0076  0.0833
 4780TIP3    H138535   1.560   0.789   2.353 -0.1755  0.0854  0.2082
 4780TIP3    H238536   1.470   0.680   2.300 -0.3464  0.0751  0.5132
 4781TIP3   OH238537   4.271   2.940   1.422 -0.3465 -0.4170  0.2501
 4781TIP3    H138538   4.230   2.992   1.353 -0.8607  0.3713  1.1164
 4781TIP3    H238539   4.226   2.968   1.502  0.3054 -1.2315  0.9175
 4782TIP3   OH238540   4.588   4.140   1.159 -0.2354 -0.0303  0.4985
 4782TIP3    H138541   4.551   4.172   1.076 -0.5502 -2.3096 -0.3153
 4782TIP3    H238542   4.515   4.095   1.201  0.1406  0.4213  1.6722
 4783TIP3   OH238543   1.859   5.840   2.444 -0.5982  0.0580  0.4905
 4783TIP3    H138544   1.851   5.860   2.350 -1.2893  0.2211  0.5773
 4783TIP3    H238545   1.918   5.765   2.447 -0.9405 -0.2438 -0.1108
 4784TIP3   OH238546   3.565   2.665   1.586  0.0386  0.5278 -0.1718
 4784TIP3    H138547   3.507   2.739   1.570 -0.0325  0.8572  1.4250
 4784TIP3    H238548   3.612   2.688   1.666 -1.1801 -1.8358  1.3482
 4785TIP3   OH238549   3.795   7.116   0.577 -0.0439 -0.1843  0.0210
 4785TIP3    H138550   3.861   7.181   0.554 -0.8462  1.2068  1.4715
 4785TIP3    H238551   3.773   7.136   0.668 -1.7034 -1.2840 -0.1040
 4786TIP3   OH238552   0.472   3.421   2.452  0.4133 -0.3895  0.2398
 4786TIP3    H138553   0.529   3.409   2.527 -0.2448 -1.5916  0.5732
 4786TIP3    H238554   0.497   3.352   2.391 -0.5114 -0.7862  0.2932
 4787TIP3   OH238555   6.129   2.282   0.828 -0.1011  0.4501 -0.0942
 4787TIP3    H138556   6.072   2.233   0.768 -0.2223  1.4603 -0.8315
 4787TIP3    H238557   6.208   2.300   0.778  0.9996 -1.1266  0.9985
 4788TIP3   OH238558   4.115   3.402   2.562  0.0566 -0.2698  1.0444
 4788TIP3    H138559   4.205   3.371   2.576  0.1420  0.2726  1.7121
 4788TIP3    H238560   4.063   3.354   2.626  0.1211  0.5961  1.7707
 4789TIP3   OH238561   0.234   2.225   8.744  0.5662 -0.1166 -0.4587
 4789TIP3    H138562   0.325   2.231   8.775  1.0318  0.3676 -1.8214
 4789TIP3    H238563   0.242   2.218   8.649 -0.8367 -0.1375 -0.5941
 4790TIP3   OH238564   5.129   0.564   1.146 -0.0311 -0.3674  0.3771
 4790TIP3    H138565   5.081   0.620   1.207  0.8358 -0.6972  1.3838
 4790TIP3    H238566   5.134   0.479   1.190  1.2384 -0.4090  0.1849
 4791TIP3   OH238567   6.074   2.479   7.758 -0.2062 -0.8172  0.6758
 4791TIP3    H138568   6.150   2.518   7.714  0.5148 -0.7912  1.8929
 4791TIP3    H238569   6.012   2.552   7.766 -0.3966 -0.8462 -0.3574
 4792TIP3   OH238570   2.862   5.747   7.505  0.1246 -0.3803  0.2371
 4792TIP3    H138571   2.895   5.809   7.570  0.6945  1.5331 -1.7757
 4792TIP3    H238572   2.941   5.709   7.466 -0.2081 -1.1376  0.2777
 4793TIP3   OH238573   2.991   5.409   8.349  0.0193  0.1035 -0.3139
 4793TIP3    H138574   2.957   5.404   8.259 -3.1965 -2.8588  0.8133
 4793TIP3    H238575   2.924   5.365   8.402  0.9047  3.1779  3.8531
 4794TIP3   OH238576   6.904   3.782   0.316  0.1394  0.3637 -0.1999
 4794TIP3    H138577   6.990   3.755   0.284 -0.0862 -0.4894 -0.1300
 4794TIP3    H238578   6.850   3.703   0.307 -0.6500  0.9101 -0.2997
 4795TIP3   OH238579   4.391   5.814   1.172 -0.0489  0.3566  0.4355
 4795TIP3    H138580   4.385   5.907   1.148  0.2799  0.2334 -0.1487
 4795TIP3    H238581   4.306   5.794   1.210 -0.0680  0.9382  0.7255
 4796TIP3   OH238582   5.093   3.269   9.314  0.0151  0.1607  0.3995
 4796TIP3    H138583   5.140   3.197   9.355 -0.7144  0.0249  1.0134
 4796TIP3    H238584   5.006   3.267   9.353 -1.2976 -1.0281 -2.3628
 4797TIP3   OH238585   3.407   1.958   1.516  0.0496  0.1061 -0.5561
 4797TIP3    H138586   3.382   2.050   1.511  0.9039  0.3191 -1.1960
 4797TIP3    H238587   3.493   1.959   1.560 -0.0262 -0.4021 -0.3874
 4798TIP3   OH238588   4.720   6.794   1.477 -0.0475 -0.4868  0.1054
 4798TIP3    H138589   4.678   6.738   1.412  0.8442 -0.5400 -0.4374
 4798TIP3    H238590   4.671   6.876   1.474 -0.1539 -0.5697 -0.4789
 4799TIP3   OH238591   2.328   5.327   0.099  0.1636  0.0149  0.2150
 4799TIP3    H138592   2.381   5.285   0.167  0.3238 -0.7114 -0.3498
 4799TIP3    H238593   2.344   5.420   0.111  2.1340 -0.2045 -0.3838
 4800TIP3   OH238594   4.695   3.946   8.715 -0.1342 -0.1268  0.2393
 4800TIP3    H138595   4.652   4.027   8.686 -1.7170 -0.6384  1.0615
 4800TIP3    H238596   4.659   3.878   8.658  0.3662 -0.4108  0.2599
 4801TIP3   OH238597   2.751   2.233   9.008  0.2871  0.3420  0.0483
 4801TIP3    H138598   2.806   2.245   8.931  0.5545  1.3271  0.3833
 4801TIP3    H238599   2.741   2.138   9.015  0.9461  0.2044 -0.7126
 4802TIP3   OH238600   6.284   0.180   1.647 -0.1033  0.1518  0.4285
 4802TIP3    H138601   6.348   0.221   1.705 -0.1366 -0.4980  0.9369
 4802TIP3    H238602   6.332   0.167   1.565  0.2858  0.0799  0.6607
 4803TIP3   OH238603   5.692   4.053   8.864  0.6493 -0.0056  0.3973
 4803TIP3    H138604   5.717   4.129   8.811 -0.4060  0.1149  0.0410
 4803TIP3    H238605   5.765   4.040   8.924  2.5171 -0.9616 -1.9270
 4804TIP3   OH238606   7.423   7.441   9.803 -0.3663  0.0788 -0.3760
 4804TIP3    H138607   7.505   7.440   9.853 -0.9289  0.7190  0.5874
 4804TIP3    H238608   7.430   7.517   9.745 -0.1647 -0.0350 -0.5023
 4805TIP3   OH238609   1.598   2.342   7.760 -0.5535  0.8015 -0.2634
 4805TIP3    H138610   1.554   2.378   7.683 -2.8607  2.6592  1.7630
 4805TIP3    H238611   1.556   2.256   7.773 -0.3598  0.6052 -0.8927
 4806TIP3   OH238612   1.866   5.301   6.993  0.7114  0.5466  0.1054
 4806TIP3    H138613   1.869   5.354   6.913 -0.9877  0.8928  0.2315
 4806TIP3    H238614   1.916   5.223   6.972  0.6331  0.8120 -1.1703
 4807TIP3   OH238615   6.816   6.162   2.582  0.1102 -0.4909  0.4482
 4807TIP3    H138616   6.842   6.071   2.599 -1.0096 -1.0558 -0.6809
 4807TIP3    H238617   6.899   6.210   2.581  0.7823 -1.6015  0.4697
 4808TIP3   OH238618   3.405   6.115   7.898  0.2848  0.2918  0.2235
 4808TIP3    H138619   3.357   6.185   7.943  0.8943 -0.0518  1.4654
 4808TIP3    H238620   3.443   6.063   7.969  1.7006 -0.0017 -0.7155
 4809TIP3   OH238621   6.779   1.180   0.330  0.2122  0.1724  0.4511
 4809TIP3    H138622   6.859   1.159   0.282  0.7994  0.9406  1.0683
 4809TIP3    H238623   6.729   1.098   0.330  1.2273 -0.4602  0.4880
 4810TIP3   OH238624   0.236   3.229   2.149 -0.1779  0.5128 -0.3454
 4810TIP3    H138625   0.238   3.136   2.173  0.8826  0.1980 -1.5194
 4810TIP3    H238626   0.257   3.275   2.230  1.7451 -0.4236 -0.2456
 4811TIP3   OH238627   6.129   0.906   1.395  0.0889  0.0742  0.3574
 4811TIP3    H138628   6.129   0.993   1.354 -0.0056 -0.0933  0.0015
 4811TIP3    H238629   6.040   0.873   1.383  0.1539 -0.1184  0.3978
 4812TIP3   OH238630   4.922   2.305   7.602  0.3090 -0.0459  0.2531
 4812TIP3    H138631   4.896   2.392   7.569 -0.2143  0.7332  2.5746
 4812TIP3    H238632   4.851   2.247   7.573 -0.0927  0.5774 -0.0446
 4813TIP3   OH238633   7.026   7.042   0.010  0.1436  0.5270  0.2648
 4813TIP3    H138634   7.055   6.953   0.031  0.6712  0.4933 -0.5935
 4813TIP3    H238635   6.934   7.043   0.038  0.5515  0.2049  1.7009
 4814TIP3   OH238636   2.357   2.179   2.260  0.0676 -0.1664 -0.5614
 4814TIP3    H138637   2.436   2.136   2.227  0.7470  0.3715  0.3167
 4814TIP3    H238638   2.380   2.272   2.264  0.1878 -0.2521  1.8470
 4815TIP3   OH238639   0.061   3.090   9.732  0.4008 -0.1116 -0.3420
 4815TIP3    H138640   0.055   3.158   9.665  1.0923  1.0982  0.7776
 4815TIP3    H238641   0.154   3.067   9.736  0.3137 -0.4390 -0.0505
 4816TIP3   OH238642   3.264   5.562   8.262 -0.2336  0.5014  0.2054
 4816TIP3    H138643   3.215   5.517   8.193 -0.1883  0.7223  0.0279
 4816TIP3    H238644   3.347   5.513   8.268  0.0811  0.9396 -0.4314
 4817TIP3   OH238645   2.222   0.824   9.357 -0.0446 -0.1607 -0.1581
 4817TIP3    H138646   2.286   0.834   9.427  1.1902  0.5619 -1.3552
 4817TIP3    H238647   2.194   0.913   9.337  0.2717 -0.2727 -1.1581
 4818TIP3   OH238648   0.019   5.843   0.540 -0.1193  0.6178 -0.2001
 4818TIP3    H138649   0.068   5.763   0.558  1.6012  1.5303 -0.5849
 4818TIP3    H238650   0.047   5.904   0.608 -1.9419  0.7112  0.5133
 4819TIP3   OH238651   6.040   5.783   8.961 -0.4872 -0.0437  0.7647
 4819TIP3    H138652   5.955   5.823   8.979 -0.4250  0.7515 -0.6455
 4819TIP3    H238653   6.045   5.710   9.024 -2.6343 -0.7391  0.2357
 4820TIP3   OH238654   5.617   6.565   0.018 -0.1050 -0.2928 -0.2704
 4820TIP3    H138655   5.568   6.645   0.036 -0.2612 -1.0254  3.4289
 4820TIP3    H238656   5.550   6.501  -0.007  0.1160  0.7804 -4.2528
 4821TIP3   OH238657   7.352   3.510   9.875  0.1835  0.8620 -0.1379
 4821TIP3    H138658   7.299   3.452   9.820  0.8292 -0.0533  0.1637
 4821TIP3    H238659   7.355   3.466   9.960  2.4228  0.2086 -0.4720
 4822TIP3   OH238660   5.633   4.040   7.774 -0.0644 -0.2153  0.2837
 4822TIP3    H138661   5.591   4.126   7.774  1.6868  0.7649  2.4197
 4822TIP3    H238662   5.572   3.983   7.821 -0.2963  0.4170  0.7621
 4823TIP3   OH238663   0.147   3.761   7.831 -0.2826  0.4084  0.6038
 4823TIP3    H138664   0.160   3.847   7.792 -0.9739  1.4997  2.6204
 4823TIP3    H238665   0.057   3.762   7.864  0.2168 -0.4210  2.1388
 4824TIP3   OH238666   1.691   4.891   9.655  0.0416 -0.0087 -0.0935
 4824TIP3    H138667   1.726   4.972   9.693 -2.3861  0.4567  1.3452
 4824TIP3    H238668   1.761   4.827   9.667  1.4935  1.5115 -0.0221
 4825TIP3   OH238669   3.254   5.768   6.589 -0.1420  0.0296 -0.0497
 4825TIP3    H138670   3.236   5.729   6.503  0.0702 -1.1059  0.3991
 4825TIP3    H238671   3.327   5.716   6.624 -1.5423 -0.8871  1.6614
 4826TIP3   OH238672   1.685   6.844   7.490 -0.0631 -0.3773 -0.3348
 4826TIP3    H138673   1.691   6.909   7.560  0.6999  0.4163 -1.1037
 4826TIP3    H238674   1.605   6.866   7.443  0.7044  0.6806 -1.2040
 4827TIP3   OH238675   0.091   2.761   8.728 -0.1069 -0.1519 -0.5440
 4827TIP3    H138676   0.168   2.791   8.775 -0.0173  2.6122 -2.1825
 4827TIP3    H238677   0.121   2.686   8.678  0.9086 -0.4759  0.5095
 4828TIP3   OH238678   1.724   6.364   8.716 -0.3512  0.2521  0.2476
 4828TIP3    H138679   1.650   6.422   8.697 -0.1192  0.4049 -0.2101
 4828TIP3    H238680   1.752   6.333   8.630 -1.0288 -1.2495  0.5363
 4829TIP3   OH238681   6.169   6.782   8.299 -0.2068  0.1855  0.3228
 4829TIP3    H138682   6.141   6.716   8.362  1.4869 -0.5895  0.2995
 4829TIP3    H238683   6.264   6.780   8.302 -0.0608  0.1450 -2.2266
 4830TIP3   OH238684   2.667   5.179   9.014 -0.1678  0.2562  0.8292
 4830TIP3    H138685   2.616   5.148   9.088  0.7663 -1.4461  0.8088
 4830TIP3    H238686   2.602   5.212   8.952 -1.0029  0.9863  2.0528
 4831TIP3   OH238687   7.022   1.763   8.729 -0.2782  0.1584 -0.4709
 4831TIP3    H138688   6.968   1.810   8.666  0.6996 -0.2751 -1.6689
 4831TIP3    H238689   7.059   1.832   8.785 -1.6356  0.4950  0.0350
 4832TIP3   OH238690   3.026   5.530   8.811  0.0563 -0.1063  0.1869
 4832TIP3    H138691   3.100   5.587   8.830  1.3474 -1.4318 -0.6358
 4832TIP3    H238692   2.977   5.574   8.742  0.4223  0.4882  0.3092
 4833TIP3   OH238693   5.390   7.407   0.891  0.0405  0.5298 -0.5184
 4833TIP3    H138694   5.379   7.440   0.801 -0.8991  1.8949  0.0604
 4833TIP3    H238695   5.436   7.477   0.937  1.1527 -0.4587 -0.0891
 4834TIP3   OH238696   0.945   6.008   0.222  0.0276 -0.2337 -0.0057
 4834TIP3    H138697   0.876   5.943   0.213  0.1723 -0.2230 -1.5519
 4834TIP3    H238698   1.021   5.967   0.181  0.1172  0.8990 -1.0225
 4835TIP3   OH238699   2.266   2.832   2.308  0.3817 -0.0064 -0.6439
 4835TIP3    H138700   2.293   2.820   2.399  0.2376 -2.1007 -0.8150
 4835TIP3    H238701   2.173   2.852   2.313  0.3519 -0.2137 -0.3170
 4836TIP3   OH238702   0.275   2.566   0.853  0.2981 -0.6266 -0.1728
 4836TIP3    H138703   0.271   2.657   0.882  1.9993 -0.6979  0.4255
 4836TIP3    H238704   0.239   2.516   0.926 -0.5698 -0.4514 -0.4719
 4837TIP3   OH238705   3.467   0.326   7.487 -0.4292 -0.5901  0.0857
 4837TIP3    H138706   3.533   0.373   7.436  0.5023 -0.5415  1.2899
 4837TIP3    H238707   3.464   0.372   7.571 -1.9897 -0.6198  0.0783
 4838TIP3   OH238708   2.968   0.444   7.736  0.3391 -0.0088  0.4089
 4838TIP3    H138709   2.981   0.539   7.738  1.3444 -0.1327  2.0540
 4838TIP3    H238710   2.891   0.429   7.790  0.4673 -0.1623  0.5504
 4839TIP3   OH238711   2.811   0.068   0.253  0.4138 -0.1142 -0.0614
 4839TIP3    H138712   2.788  -0.015   0.294 -1.4842 -0.2573 -1.2961
 4839TIP3    H238713   2.831   0.126   0.327 -0.9449 -0.9116  0.9966
 4840TIP3   OH238714   4.839   6.075   1.555 -0.4248 -0.5586  0.1781
 4840TIP3    H138715   4.907   6.130   1.516  0.8055 -1.0777  1.4636
 4840TIP3    H238716   4.765   6.081   1.496  0.4576  0.7148 -0.8396
 4841TIP3   OH238717   2.409   6.323   8.708  0.5874 -0.3295 -0.3771
 4841TIP3    H138718   2.449   6.344   8.624  1.5864 -2.6684 -0.5507
 4841TIP3    H238719   2.469   6.359   8.773  2.1640 -2.2492 -0.6651
 4842TIP3   OH238720   3.562   5.248   6.565  0.2221 -0.0008 -0.5606
 4842TIP3    H138721   3.543   5.204   6.482 -0.9565  0.0353 -0.3331
 4842TIP3    H238722   3.540   5.340   6.549 -2.6055 -0.4006  0.5078
 4843TIP3   OH238723   6.324   0.011   0.098 -0.1972 -0.0481 -0.0360
 4843TIP3    H138724   6.408   0.012   0.051 -2.0638  1.2943 -3.8227
 4843TIP3    H238725   6.265  -0.036   0.039 -2.4604  0.3269  1.7891
 4844TIP3   OH238726   2.687   3.664   7.982  0.0320  0.0519  0.7557
 4844TIP3    H138727   2.638   3.745   7.972  1.3976  0.8470  0.1773
 4844TIP3    H238728   2.621   3.595   7.978 -0.9570  1.0178 -0.8802
 4845TIP3   OH238729   2.907   4.828   6.466  0.0870  0.4455  0.2877
 4845TIP3    H138730   2.965   4.901   6.443  0.6619  0.2509  1.0949
 4845TIP3    H238731   2.864   4.806   6.383  0.3308  1.3248 -0.0869
 4846TIP3   OH238732   2.501   2.344   2.769  0.0571 -0.6158  0.0013
 4846TIP3    H138733   2.438   2.408   2.799  1.0127  0.0641  0.6086
 4846TIP3    H238734   2.508   2.281   2.841 -1.5920 -1.9994 -0.9629
 4847TIP3   OH238735   1.232   6.602   0.475 -0.5631  0.0439 -0.1992
 4847TIP3    H138736   1.200   6.532   0.532 -2.3657  1.6954  0.9744
 4847TIP3    H238737   1.219   6.682   0.526 -0.8263  1.4609 -2.3407
 4848TIP3   OH238738   3.137   5.153   8.373 -0.0050 -0.2159  0.0382
 4848TIP3    H138739   3.099   5.097   8.306  0.8409 -0.4705 -0.2438
 4848TIP3    H238740   3.109   5.241   8.350  1.6652 -0.0812 -1.6676
 4849TIP3   OH238741   3.514   5.797   8.881  0.3348 -0.2613  0.5177
 4849TIP3    H138742   3.583   5.831   8.938 -1.8814 -0.9240  3.8829
 4849TIP3    H238743   3.533   5.704   8.872  0.9300 -0.0745 -0.2738
 4850TIP3   OH238744   2.110   6.210   6.722  0.0891  0.1464 -0.3140
 4850TIP3    H138745   2.168   6.220   6.646  0.5615 -1.2475 -0.1691
 4850TIP3    H238746   2.041   6.274   6.708  0.5022  0.3399 -1.6128
 4851TIP3   OH238747   0.542   1.623   2.746 -0.2917  0.5575 -0.2660
 4851TIP3    H138748   0.470   1.642   2.806  0.6589  2.9067  0.2225
 4851TIP3    H238749   0.509   1.550   2.692 -2.4251  0.5690  0.9063
 4852TIP3   OH238750   2.203   1.446   9.365  0.6714  0.3485  0.1690
 4852TIP3    H138751   2.178   1.439   9.273 -0.0645  0.3102  0.3656
 4852TIP3    H238752   2.129   1.411   9.413  0.1280  2.3076  0.8656
 4853TIP3   OH238753   7.263   5.918   8.272 -0.3904  0.1434  0.1492
 4853TIP3    H138754   7.223   5.960   8.196 -1.6841  1.1487  1.3466
 4853TIP3    H238755   7.196   5.857   8.304 -0.0632  0.1216  0.8057
 4854TIP3   OH238756   7.341   4.340   1.430  0.2172 -0.9664 -0.6322
 4854TIP3    H138757   7.257   4.325   1.475 -2.0839  3.3544 -2.8271
 4854TIP3    H238758   7.333   4.292   1.347 -0.9206  0.6641 -1.5250
 4855TIP3   OH238759   5.510   0.493   2.118  0.1147  0.0503  0.5637
 4855TIP3    H138760   5.601   0.519   2.129 -0.0613  0.6949  0.5219
 4855TIP3    H238761   5.472   0.503   2.205  0.2728 -0.9985  0.7676
 4856TIP3   OH238762   6.492   1.858   0.434 -0.2360 -0.0579  0.5239
 4856TIP3    H138763   6.446   1.858   0.350 -0.5944  0.3458  0.7182
 4856TIP3    H238764   6.565   1.797   0.421 -0.9609 -0.9031  0.2854
 4857TIP3   OH238765   4.566   5.361   9.264 -0.5299 -0.3016  0.3123
 4857TIP3    H138766   4.537   5.327   9.348  0.0263 -0.0615  0.6096
 4857TIP3    H238767   4.571   5.456   9.276 -1.1452 -0.1934 -0.2164
 4858TIP3   OH238768   4.100   3.109   1.276 -0.4249  0.6755  0.1711
 4858TIP3    H138769   4.032   3.173   1.295 -0.2352  1.4621 -1.6249
 4858TIP3    H238770   4.054   3.034   1.238 -0.3920  0.8579 -0.2373
 4859TIP3   OH238771   5.761   6.226   2.783  0.3331  0.0646  0.1285
 4859TIP3    H138772   5.673   6.229   2.745  0.1349  1.3621  0.6267
 4859TIP3    H238773   5.788   6.135   2.775 -0.7502 -0.1966 -0.7344
 4860TIP3   OH238774   4.269   2.249   0.932 -0.9300 -0.7898  0.3074
 4860TIP3    H138775   4.267   2.229   1.026  0.2189 -1.4372  0.2085
 4860TIP3    H238776   4.317   2.176   0.893  2.4539  1.5311 -0.2397
 4861TIP3   OH238777   0.271   1.516   2.269 -0.1141  0.1138  0.0940
 4861TIP3    H138778   0.320   1.589   2.308 -0.2225 -1.1247  2.7856
 4861TIP3    H238779   0.227   1.475   2.343  0.8417 -3.3709 -1.0694
 4862TIP3   OH238780   2.084   3.111   7.236  0.0592 -0.2420  0.3017
 4862TIP3    H138781   2.061   3.158   7.316 -1.4463  2.7059 -1.6674
 4862TIP3    H238782   2.166   3.065   7.257  0.8844  2.1567  2.8780
 4863TIP3   OH238783   5.091   6.619   1.104  0.4528  0.1692  0.6250
 4863TIP3    H138784   5.184   6.604   1.114  0.4559  0.8211  1.7074
 4863TIP3    H238785   5.072   6.693   1.163 -0.5892  0.5719 -0.1837
 4864TIP3   OH238786   7.442   1.879   7.502  0.2846  0.0048  0.2021
 4864TIP3    H138787   7.458   1.948   7.438  0.7021 -0.3934 -0.1294
 4864TIP3    H238788   7.351   1.852   7.485  0.8141 -1.0703 -1.2095
 4865TIP3   OH238789   1.799   4.547   1.796 -0.2637  0.5291 -0.1524
 4865TIP3    H138790   1.815   4.627   1.746 -1.8453  0.5517 -0.6775
 4865TIP3    H238791   1.772   4.577   1.882  2.1075  0.4919  0.6772
 4866TIP3   OH238792   6.671   1.196   0.011  0.4941  0.4240  0.5114
 4866TIP3    H138793   6.672   1.278   0.060  0.9181  0.6270  0.1738
 4866TIP3    H238794   6.606   1.142   0.055 -0.5834  1.3434  0.1073
 4867TIP3   OH238795   6.898   5.981   0.670 -0.4744  0.1745 -0.2114
 4867TIP3    H138796   6.904   5.985   0.766  1.8856 -0.3689 -0.2780
 4867TIP3    H238797   6.851   5.900   0.652 -1.6138  0.6580  0.4633
 4868TIP3   OH238798   2.608   1.469   0.277  0.0202 -0.3891  0.6396
 4868TIP3    H138799   2.525   1.494   0.318  0.3420  1.5873  0.1613
 4868TIP3    H238800   2.647   1.552   0.249  0.7420 -1.4867 -1.8841
 4869TIP3   OH238801   1.541   3.726   9.342 -0.0654  0.0976  0.0028
 4869TIP3    H138802   1.590   3.644   9.344 -0.1846 -0.1208 -2.5904
 4869TIP3    H238803   1.451   3.701   9.359 -0.1075 -0.3213 -0.8374
 4870TIP3   OH238804   1.321   4.643   0.484  0.6052 -0.0115 -0.0512
 4870TIP3    H138805   1.291   4.594   0.560 -0.0808 -0.3498 -0.5368
 4870TIP3    H238806   1.408   4.608   0.466  0.0123 -1.2533 -0.5648
 4871TIP3   OH238807   0.101   7.381   9.039  0.3670  0.6610  0.0885
 4871TIP3    H138808   0.150   7.410   8.962  1.7895  1.0101  1.0889
 4871TIP3    H238809   0.102   7.285   9.034 -0.5863  0.6965 -0.9444
 4872TIP3   OH238810   6.412   0.717   2.806  0.1031  0.3110 -0.2268
 4872TIP3    H138811   6.460   0.661   2.745 -1.1596  0.3758 -1.3139
 4872TIP3    H238812   6.368   0.781   2.751 -1.1713  0.2880  0.7255
 4873TIP3   OH238813   0.278   2.974   0.202  0.1323  0.0143 -0.3789
 4873TIP3    H138814   0.229   3.015   0.131 -0.1531  0.0070 -0.1903
 4873TIP3    H238815   0.212   2.925   0.251 -0.0223  1.4782  0.9653
 4874TIP3   OH238816   3.389   6.731   8.113 -0.1297  0.0224 -0.0381
 4874TIP3    H138817   3.305   6.756   8.074  0.0387 -0.6708 -0.8766
 4874TIP3    H238818   3.378   6.640   8.138  0.2324  0.0609  0.2641
 4875TIP3   OH238819   1.723   5.246   8.356  0.0248  0.2477 -0.2558
 4875TIP3    H138820   1.783   5.217   8.425 -0.6581  0.0251  0.2495
 4875TIP3    H238821   1.656   5.296   8.402 -0.2372  0.4047 -0.8070
 4876TIP3   OH238822   5.575   3.310   0.414  0.9933  0.7742  0.5197
 4876TIP3    H138823   5.623   3.286   0.494 -0.2903  0.9279  1.3731
 4876TIP3    H238824   5.547   3.400   0.429  1.6705  1.1794 -0.5927
 4877TIP3   OH238825   3.506   5.072   0.134 -0.2600 -0.0154  0.5249
 4877TIP3    H138826   3.512   5.149   0.192  0.4039 -0.0609  0.5191
 4877TIP3    H238827   3.429   5.089   0.080  1.0790  1.7014 -0.9732
 4878TIP3   OH238828   3.090   7.156   2.038 -0.2758  0.0666  0.0278
 4878TIP3    H138829   3.184   7.174   2.046 -0.0315 -0.3788 -1.5458
 4878TIP3    H238830   3.063   7.203   1.959 -0.9701 -1.3050 -0.5860
 4879TIP3   OH238831   0.061   7.363   0.652  0.5235 -0.5277 -0.2688
 4879TIP3    H138832   0.022   7.402   0.729 -1.5307 -0.8162 -1.1008
 4879TIP3    H238833   0.061   7.432   0.586 -0.7180 -1.1418 -0.9520
 4880TIP3   OH238834   7.452   6.533   8.121  0.1278  0.6079 -0.3645
 4880TIP3    H138835   7.496   6.575   8.047  0.5275  2.1365  0.6842
 4880TIP3    H238836   7.523   6.501   8.177 -0.1516  0.1923 -0.2427
 4881TIP3   OH238837   6.447   5.620   0.491  0.5001  0.1025  0.1200
 4881TIP3    H138838   6.403   5.681   0.431  0.7266  0.1181 -0.0329
 4881TIP3    H238839   6.381   5.598   0.556 -0.9534 -2.7307 -2.1035
 4882TIP3   OH238840   4.262   1.460   8.487  0.1820  0.1286  0.2119
 4882TIP3    H138841   4.194   1.421   8.542  0.4089 -1.8847 -0.8022
 4882TIP3    H238842   4.283   1.543   8.529  0.1460 -1.1395  3.0173
 4883TIP3   OH238843   0.241   0.190   3.039  0.2338 -0.4511  0.2208
 4883TIP3    H138844   0.281   0.108   3.012  0.5267 -0.5813  1.0033
 4883TIP3    H238845   0.308   0.256   3.018 -0.8176 -0.1003 -2.3628
 4884TIP3   OH238846   6.235   3.406   8.650  0.3416  0.9611  0.1661
 4884TIP3    H138847   6.266   3.316   8.657  1.2548  1.1866 -0.7266
 4884TIP3    H238848   6.140   3.398   8.643  0.4140  0.0660  0.0712
 4885TIP3   OH238849   2.262   4.116   1.001  0.6852  0.3909  0.7337
 4885TIP3    H138850   2.249   4.083   0.913 -0.1856  1.6879  0.3488
 4885TIP3    H238851   2.206   4.060   1.056  0.0048  0.5697  0.2381
 4886TIP3   OH238852   7.324   4.883   1.108  0.0682  0.5606 -0.0877
 4886TIP3    H138853   7.322   4.935   1.028  0.6473  1.5659  0.5202
 4886TIP3    H238854   7.363   4.800   1.083 -0.6578  0.4937 -1.0362
 4887TIP3   OH238855   0.687   0.889   3.129  0.6751  0.0364 -0.3349
 4887TIP3    H138856   0.659   0.829   3.198  0.7457 -0.6613 -0.9061
 4887TIP3    H238857   0.742   0.954   3.174 -1.8601  1.5139  0.8468
 4888TIP3   OH238858   1.687   6.654   1.565  0.1871  0.4777 -0.3732
 4888TIP3    H138859   1.715   6.642   1.474  0.0044  1.6510 -0.5955
 4888TIP3    H238860   1.755   6.611   1.617 -0.0702 -0.8465 -1.0695
 4889TIP3   OH238861   2.251   2.619   6.740 -0.6367 -0.6768 -0.2861
 4889TIP3    H138862   2.213   2.690   6.688 -0.5937 -0.8331 -0.5305
 4889TIP3    H238863   2.341   2.611   6.708 -0.6820 -0.9291 -0.3486
 4890TIP3   OH238864   6.381   6.683   9.086 -0.2006  0.3502 -0.2700
 4890TIP3    H138865   6.442   6.728   9.027 -0.5848 -0.6301 -1.4703
 4890TIP3    H238866   6.325   6.631   9.027  0.2005 -1.6581  1.0250
 4891TIP3   OH238867   5.222   6.776   0.815 -0.3279 -0.1503  0.1525
 4891TIP3    H138868   5.280   6.707   0.848  1.1396 -0.0293 -1.9632
 4891TIP3    H238869   5.279   6.851   0.802 -0.8791 -0.0471 -2.1036
 4892TIP3   OH238870   2.129   0.440   8.289  0.3409 -0.2485  0.3907
 4892TIP3    H138871   2.156   0.401   8.373 -0.5132  0.2493  0.9081
 4892TIP3    H238872   2.183   0.518   8.280  0.2708 -0.1753  0.5986
 4893TIP3   OH238873   7.451   6.384   8.637 -0.3460  0.1900  0.6697
 4893TIP3    H138874   7.416   6.362   8.551 -0.3129  1.7279  0.2333
 4893TIP3    H238875   7.376   6.420   8.685  0.1899  1.7415  0.3764
 4894TIP3   OH238876   4.194   2.007   1.719 -0.6955 -0.3477 -0.1958
 4894TIP3    H138877   4.256   2.072   1.751 -1.9212  1.8592 -1.9845
 4894TIP3    H238878   4.249   1.940   1.678  0.5607  0.3091  0.3404
 4895TIP3   OH238879   3.896   0.856   1.729  0.0217 -0.8492  0.5650
 4895TIP3    H138880   3.908   0.867   1.823  1.6674  2.4181  0.1219
 4895TIP3    H238881   3.980   0.823   1.697 -0.7558 -2.6408  0.2576
 4896TIP3   OH238882   2.188   1.685   3.174 -0.3407  0.0420 -0.3372
 4896TIP3    H138883   2.193   1.746   3.100 -0.7935 -0.3457 -0.6856
 4896TIP3    H238884   2.227   1.604   3.140 -2.4001 -0.7905 -0.8234
 4897TIP3   OH238885   6.969   7.236   9.195  0.1997 -0.0298  0.5435
 4897TIP3    H138886   6.991   7.308   9.135 -0.6788  1.6733  2.1284
 4897TIP3    H238887   7.048   7.184   9.200  1.0050  1.0418 -0.4062
 4898TIP3   OH238888   5.173   1.273   1.943 -0.2196  0.8990 -0.5148
 4898TIP3    H138889   5.157   1.348   1.885  0.7620 -0.3083 -2.4418
 4898TIP3    H238890   5.239   1.221   1.898 -0.4981 -0.8942  1.0119
 4899TIP3   OH238891   4.806   3.844   0.638  0.2864  0.0808  0.3779
 4899TIP3    H138892   4.741   3.913   0.628 -0.3842 -0.2291  2.2204
 4899TIP3    H238893   4.801   3.794   0.556  0.8163  2.1810 -1.0012
 4900TIP3   OH238894   4.557   0.261   2.161  0.1178 -0.5531 -0.2672
 4900TIP3    H138895   4.527   0.324   2.227 -0.2640 -1.4518  0.4263
 4900TIP3    H238896   4.616   0.203   2.208 -0.4122 -1.4058 -0.6271
 4901TIP3   OH238897   6.380   5.992   9.467 -0.1455  0.1900 -0.0032
 4901TIP3    H138898   6.287   5.978   9.447  0.4211 -1.9564 -1.4619
 4901TIP3    H238899   6.379   6.056   9.538 -2.7186  0.5431 -0.2401
 4902TIP3   OH238900   1.723   7.147   2.794 -0.1713  0.2969 -0.2916
 4902TIP3    H138901   1.659   7.158   2.864  0.1737  0.2507  0.0337
 4902TIP3    H238902   1.804   7.121   2.838 -0.1874 -0.6613 -0.7779
 4903TIP3   OH238903   2.228   7.056   6.696  0.2087 -0.1837  0.2663
 4903TIP3    H138904   2.292   7.033   6.629 -1.4543  0.4732 -1.6670
 4903TIP3    H238905   2.267   7.130   6.742  0.5421  0.7643 -1.4355
 4904TIP3   OH238906   3.017   0.090   8.400 -0.5741 -0.4786 -0.4132
 4904TIP3    H138907   3.063   0.170   8.426  1.2745 -1.3136 -1.0016
 4904TIP3    H238908   3.036   0.080   8.307 -0.3538 -1.8900 -0.2293
 4905TIP3   OH238909   1.944   0.049   9.314  0.3391 -0.0600 -0.0391
 4905TIP3    H138910   1.901  -0.036   9.325 -0.4070  0.2505 -0.5086
 4905TIP3    H238911   1.982   0.045   9.226  0.8574 -0.1453  0.1852
 4906TIP3   OH238912   3.882   5.499   1.490  0.0866  0.8490  0.0801
 4906TIP3    H138913   3.817   5.567   1.472  0.2682  1.1956  0.6911
 4906TIP3    H238914   3.949   5.511   1.422 -1.2517 -0.5609 -1.5692
 4907TIP3   OH238915   3.235   2.375   1.856 -0.2852 -0.7050 -0.3421
 4907TIP3    H138916   3.293   2.411   1.789 -1.3901  0.3931 -0.7468
 4907TIP3    H238917   3.239   2.280   1.843 -1.9494 -0.4814 -3.2778
 4908TIP3   OH238918   5.958   1.013   2.365 -0.2133 -0.7135  0.4296
 4908TIP3    H138919   6.031   0.961   2.333 -0.2901 -1.2442  1.0786
 4908TIP3    H238920   5.923   1.057   2.288  0.4122 -0.9266  0.0194
 4909TIP3   OH238921   5.802   5.314   0.322  0.4599  0.2730 -0.5334
 4909TIP3    H138922   5.882   5.354   0.356 -0.2199  1.6054 -0.4042
 4909TIP3    H238923   5.779   5.247   0.386  1.1312  0.3060 -0.2457
 4910TIP3   OH238924   4.261   4.981   8.261  0.1548  0.0959 -0.1126
 4910TIP3    H138925   4.357   4.981   8.261  0.1698 -0.0844 -1.0835
 4910TIP3    H238926   4.237   4.888   8.264 -0.0468  0.1641  2.3630
 4911TIP3   OH238927   0.580   0.927   8.066  0.1222  0.3295 -0.2871
 4911TIP3    H138928   0.543   0.880   7.991 -0.5403 -0.1810  0.3573
 4911TIP3    H238929   0.509   0.982   8.098  0.9872  2.1303 -1.2635
 4912TIP3   OH238930   1.722   1.549   7.516  0.0131 -0.1218  0.4689
 4912TIP3    H138931   1.753   1.602   7.444 -1.6499 -1.0664 -1.0247
 4912TIP3    H238932   1.793   1.550   7.580  1.4855  0.8414 -1.1232
 4913TIP3   OH238933   6.094   4.740   8.992  0.4659  0.1875 -0.0561
 4913TIP3    H138934   6.131   4.828   8.987  1.1354  0.0941  2.2171
 4913TIP3    H238935   6.075   4.726   9.084  1.6992 -2.5516 -0.0889
 4914TIP3   OH238936   2.941   0.173   7.663 -0.3211 -0.1262  0.2581
 4914TIP3    H138937   2.961   0.263   7.688 -3.4305  0.2776  1.7010
 4914TIP3    H238938   2.878   0.182   7.591 -2.7384 -0.9779  2.1416
 4915TIP3   OH238939   4.154   4.727   1.420  0.5278 -0.2099  0.4277
 4915TIP3    H138940   4.067   4.764   1.435  0.4297 -0.1709 -0.2038
 4915TIP3    H238941   4.137   4.641   1.383  0.7617 -0.3127  0.5575
 4916TIP3   OH238942   0.890   3.244   7.244  0.5507  0.8581 -0.1784
 4916TIP3    H138943   0.956   3.176   7.256 -0.0750  0.4509  1.1827
 4916TIP3    H238944   0.874   3.246   7.150  2.3099  0.8068 -0.5030
 4917TIP3   OH238945   2.233   5.065   9.859  0.1524 -0.5371  0.1131
 4917TIP3    H138946   2.183   5.112   9.926 -1.4505 -0.4764 -1.0798
 4917TIP3    H238947   2.323   5.096   9.871 -0.0081 -0.7341  2.3916
 4918TIP3   OH238948   2.471   3.851   7.977 -0.2935  0.5687 -0.2601
 4918TIP3    H138949   2.385   3.881   8.007  0.0017  1.2221 -0.0549
 4918TIP3    H238950   2.526   3.929   7.979  0.3862  0.0936 -0.0969
 4919TIP3   OH238951   0.324   6.606   9.414 -0.0186 -0.5891  0.2121
 4919TIP3    H138952   0.361   6.645   9.336 -0.4500  0.4539  0.5184
 4919TIP3    H238953   0.322   6.677   9.478 -0.1895 -1.2823  0.9942
 4920TIP3   OH238954   2.989   1.119   6.969  0.0551 -0.1328  0.1662
 4920TIP3    H138955   2.953   1.175   6.900  0.2092  0.0199  0.2102
 4920TIP3    H238956   3.055   1.173   7.012  0.6316 -0.5517 -0.1809
 4921TIP3   OH238957   1.102   0.795   1.629  0.3647  0.6542 -0.1346
 4921TIP3    H138958   1.105   0.836   1.542 -0.7481 -0.0642 -0.5296
 4921TIP3    H238959   1.164   0.723   1.624  0.8552  1.0714 -0.0882
 4922TIP3   OH238960   6.146   3.638   1.351  0.2995 -0.2676  0.2309
 4922TIP3    H138961   6.204   3.710   1.328 -0.1029 -0.0077  0.0273
 4922TIP3    H238962   6.082   3.676   1.412 -0.1144 -0.3614 -0.1340
 4923TIP3   OH238963   6.881   5.756   7.659  0.0451 -0.2020  0.5653
 4923TIP3    H138964   6.871   5.766   7.565 -2.7786  0.7016  0.8907
 4923TIP3    H238965   6.885   5.661   7.672  0.8001 -0.3316 -0.4415
 4924TIP3   OH238966   3.493   1.151   9.483  0.3530 -0.1023  0.5432
 4924TIP3    H138967   3.528   1.238   9.469  0.6716 -0.3601 -0.3386
 4924TIP3    H238968   3.565   1.101   9.522  0.4043 -0.1650  0.3682
 4925TIP3   OH238969   1.078   2.780   9.201 -0.2829  0.4673 -0.7491
 4925TIP3    H138970   0.997   2.739   9.232  0.3324 -0.7316 -0.6503
 4925TIP3    H238971   1.134   2.706   9.176  1.5956  1.1251  1.1486
 4926TIP3   OH238972   2.541   5.337   2.646  0.0227  0.3200  0.5768
 4926TIP3    H138973   2.600   5.273   2.685 -0.1135  0.7679  1.5386
 4926TIP3    H238974   2.487   5.368   2.718  0.0937  1.5208  0.1437
 4927TIP3   OH238975   0.477   6.546   0.653  0.4105 -0.1469 -0.3005
 4927TIP3    H138976   0.399   6.568   0.704  2.4392  2.4973  1.9715
 4927TIP3    H238977   0.453   6.566   0.562 -1.9043 -0.6609  0.1409
 4928TIP3   OH238978   4.332   7.247   7.224 -0.1911  0.1756 -0.4794
 4928TIP3    H138979   4.347   7.229   7.131  1.6544 -2.1011  0.1244
 4928TIP3    H238980   4.237   7.244   7.235 -0.3748 -1.5172 -2.0102
 4929TIP3   OH238981   3.273   6.102   7.375  0.8195 -0.0679 -0.2734
 4929TIP3    H138982   3.353   6.108   7.426  0.8804  1.0822 -0.4617
 4929TIP3    H238983   3.283   6.023   7.322  2.5284  0.8446 -1.4120
 4930TIP3   OH238984   1.672   3.780   9.087  0.3667  0.0093 -0.0974
 4930TIP3    H138985   1.673   3.876   9.084 -1.9115  0.0650 -1.0574
 4930TIP3    H238986   1.601   3.758   9.147 -0.1156 -1.0437 -1.0037
 4931TIP3   OH238987   1.383   3.540   9.756  0.0576  0.1055 -0.0783
 4931TIP3    H138988   1.332   3.594   9.696 -1.4580  0.6927  1.6558
 4931TIP3    H238989   1.430   3.603   9.811 -0.5578 -0.3462  0.9833
 4932TIP3   OH238990   4.076   6.967   9.058 -0.0916 -0.3370  0.3093
 4932TIP3    H138991   4.056   6.880   9.024 -1.9129 -0.3175  1.2172
 4932TIP3    H238992   4.094   6.953   9.151 -0.2643  0.2388  0.4344
 4933TIP3   OH238993   3.623   2.106   9.243 -0.4083 -0.5218  0.3910
 4933TIP3    H138994   3.600   2.081   9.332  0.8254  1.2467  1.2721
 4933TIP3    H238995   3.576   2.188   9.227  2.3235  1.2951  0.9594
 4934TIP3   OH238996   2.960   0.861   0.799  0.5939  0.0300  0.4361
 4934TIP3    H138997   3.022   0.890   0.866  1.0312  1.5332 -0.5608
 4934TIP3    H238998   2.998   0.780   0.765  2.0291  0.8780 -0.1016
 4935TIP3   OH238999   5.376   3.676   9.548  0.5287  0.0020 -0.9678
 4935TIP3    H139000   5.374   3.584   9.519 -1.0907 -0.1950 -0.3024
 4935TIP3    H239001   5.315   3.680   9.621  0.1707  1.7377 -1.3176
 4936TIP3   OH239002   4.096   7.084   2.550 -0.2178 -0.0115  0.3090
 4936TIP3    H139003   4.047   7.020   2.601  0.1299 -0.0748  0.5719
 4936TIP3    H239004   4.179   7.040   2.530  0.0733  0.3993  0.5968
 4937TIP3   OH239005   6.574   7.408   9.086 -0.2052  0.3225  0.2873
 4937TIP3    H139006   6.600   7.367   9.169 -1.3366 -1.2924 -0.0944
 4937TIP3    H239007   6.645   7.388   9.025  0.0552  0.4415  0.5496
 4938TIP3   OH239008   7.041   5.943   7.758 -1.2954 -0.1172  0.2714
 4938TIP3    H139009   6.988   5.865   7.744 -0.3000 -0.8029  0.2122
 4938TIP3    H239010   7.070   5.970   7.671 -1.8936  0.5213  0.2575
 4939TIP3   OH239011   1.087   0.586   8.277  0.1377  0.8022  0.4323
 4939TIP3    H139012   1.171   0.548   8.303 -0.4761 -0.4344  0.6596
 4939TIP3    H239013   1.111   0.657   8.217  1.2770 -1.0421 -1.4336
 4940TIP3   OH239014   5.989   6.110   8.520 -0.3150 -0.2470 -0.1142
 4940TIP3    H139015   6.074   6.079   8.489 -0.5853 -0.3789 -0.7352
 4940TIP3    H239016   5.926   6.053   8.477 -1.0625  2.9006 -3.7374
 4941TIP3   OH239017   2.750   0.812   0.337 -0.4994 -0.7752 -0.2409
 4941TIP3    H139018   2.799   0.791   0.257 -0.1976  1.0911 -0.6091
 4941TIP3    H239019   2.810   0.867   0.387 -1.0702 -1.0894  0.8027
 4942TIP3   OH239020   2.025   1.059   1.994 -0.0960 -0.0972 -0.1335
 4942TIP3    H139021   1.954   1.009   2.034 -0.7297 -0.0982 -1.2142
 4942TIP3    H239022   2.034   1.023   1.906 -0.3049  1.4075 -0.8086
 4943TIP3   OH239023   3.452   7.206   9.305  0.5986  0.1591  0.1220
 4943TIP3    H139024   3.510   7.145   9.259 -1.5899 -0.8021 -1.5394
 4943TIP3    H239025   3.426   7.269   9.237  0.1776  0.9348  0.9855
 4944TIP3   OH239026   7.183   6.447   1.515  0.2302  1.0979  0.4659
 4944TIP3    H139027   7.225   6.455   1.600 -0.6746 -0.4187  1.1019
 4944TIP3    H239028   7.095   6.484   1.527  0.7307  2.6690 -0.3789
 4945TIP3   OH239029   0.265   4.895   7.851 -0.5701  0.0392  0.3607
 4945TIP3    H139030   0.178   4.863   7.876 -1.2323  0.3681 -1.3779
 4945TIP3    H239031   0.249   4.953   7.777  1.1444  0.1525  0.0392
 4946TIP3   OH239032   3.322   5.463   0.069  0.0068 -0.0781 -0.1084
 4946TIP3    H139033   3.396   5.489   0.124  0.8779 -2.8217  0.1451
 4946TIP3    H239034   3.348   5.488  -0.019  0.7498 -0.0135  0.1226
 4947TIP3   OH239035   6.758   5.395   7.413  0.4619  0.3407  0.0919
 4947TIP3    H139036   6.683   5.387   7.472  0.1717  0.4061 -0.2686
 4947TIP3    H239037   6.750   5.482   7.374  0.7328  0.3541  0.0628
 4948TIP3   OH239038   1.504   0.707   8.717 -0.0670 -0.1546 -0.1661
 4948TIP3    H139039   1.475   0.618   8.737 -3.5403  0.8514 -0.1400
 4948TIP3    H239040   1.453   0.733   8.640 -0.4031  2.3575  0.7980
 4949TIP3   OH239041   6.475   1.655   9.061 -0.4449  0.3347 -0.0824
 4949TIP3    H139042   6.428   1.664   9.144  1.6305  2.2573  1.0146
 4949TIP3    H239043   6.432   1.716   9.002  0.2905  1.7200  0.7617
 4950TIP3   OH239044   6.405   1.426   0.557 -0.3446 -0.1125  0.2715
 4950TIP3    H139045   6.451   1.435   0.640 -0.0568  2.8195 -0.1122
 4950TIP3    H239046   6.319   1.465   0.573 -1.0119 -1.2752 -0.3237
 4951TIP3   OH239047   2.207   1.482   1.889  0.9358  0.2689  0.1006
 4951TIP3    H139048   2.286   1.529   1.914 -0.3911  1.8173  1.6726
 4951TIP3    H239049   2.138   1.549   1.891 -0.8541 -1.4997  1.2622
 4952TIP3   OH239050   2.337   4.773   1.376  0.2390  0.0643  0.3954
 4952TIP3    H139051   2.414   4.828   1.362  1.0454 -0.8433  1.1522
 4952TIP3    H239052   2.264   4.824   1.339  0.7819  2.0888  1.9343
 4953TIP3   OH239053   5.577   0.388   7.123  0.3388  0.4977  0.1691
 4953TIP3    H139054   5.667   0.369   7.151 -0.1501  0.5010  1.8892
 4953TIP3    H239055   5.526   0.313   7.153 -0.5123  1.3286  0.8843
 4954TIP3   OH239056   0.822   2.024   8.225 -0.3290 -0.1132  0.3890
 4954TIP3    H139057   0.904   1.974   8.226 -0.0959  0.2704  0.7957
 4954TIP3    H239058   0.825   2.072   8.142 -1.6554 -2.5355 -1.1815
 4955TIP3   OH239059   2.009   6.298   0.856 -0.6250  0.2671  0.1072
 4955TIP3    H139060   1.980   6.389   0.863 -0.5010  0.2256  1.4095
 4955TIP3    H239061   2.026   6.286   0.763  0.9705  2.0951  0.0927
 4956TIP3   OH239062   7.056   5.372   0.907 -0.1437 -0.1928 -0.3217
 4956TIP3    H139063   7.107   5.314   0.850 -0.0961  1.0008 -1.5378
 4956TIP3    H239064   7.109   5.378   0.987 -0.4100 -2.2167  0.0675
 4957TIP3   OH239065   1.466   6.113   9.107 -0.0235 -0.1083 -0.8587
 4957TIP3    H139066   1.532   6.136   9.042  1.3583  2.1822  1.1452
 4957TIP3    H239067   1.489   6.025   9.136  0.2669 -0.5308 -2.2859
 4958TIP3   OH239068   4.095   1.344   9.437 -0.2719 -0.1806 -0.0496
 4958TIP3    H139069   4.007   1.365   9.468 -0.4745  0.5886 -1.1119
 4958TIP3    H239070   4.088   1.254   9.406 -1.0705  0.3029 -1.3926
 4959TIP3   OH239071   4.051   3.615   2.812  0.4746  0.2342 -0.2364
 4959TIP3    H139072   3.970   3.570   2.835 -0.0451  2.3514  2.6007
 4959TIP3    H239073   4.121   3.559   2.847  0.1610 -0.6759 -1.0308
 4960TIP3   OH239074   7.056   0.421   9.028 -0.1632  0.1483 -0.1900
 4960TIP3    H139075   7.051   0.505   9.074  0.9828 -0.7125  1.6401
 4960TIP3    H239076   6.966   0.386   9.031 -0.2587  0.4500  0.7880
 4961TIP3   OH239077   5.703   4.444   0.155 -0.0609 -0.3563 -0.0571
 4961TIP3    H139078   5.706   4.450   0.251  1.9982 -1.0074 -0.0442
 4961TIP3    H239079   5.774   4.501   0.125 -0.5899 -0.2813 -1.2040
 4962TIP3   OH239080   1.584   7.279   7.043 -0.5741 -0.0746 -0.0696
 4962TIP3    H139081   1.578   7.219   6.969 -0.6779  0.9584 -0.9263
 4962TIP3    H239082   1.658   7.336   7.022 -1.9981  1.6926 -0.5264
 4963TIP3   OH239083   4.498   0.665   9.563  0.0283 -0.0100 -0.8871
 4963TIP3    H139084   4.441   0.631   9.494 -0.8824  0.9458 -0.6185
 4963TIP3    H239085   4.459   0.635   9.644  0.2514  0.1362 -0.7240
 4964TIP3   OH239086   2.916   5.383   1.085  0.2947  0.4583  0.0197
 4964TIP3    H139087   2.961   5.379   1.001  0.5365 -0.3211  0.1745
 4964TIP3    H239088   2.825   5.361   1.065  0.5429 -0.6685  0.0903
 4965TIP3   OH239089   7.086   4.274   1.334  0.8324  0.1117  0.6048
 4965TIP3    H139090   7.047   4.343   1.388 -1.0504  0.8945 -1.6010
 4965TIP3    H239091   7.012   4.221   1.305  2.0684 -1.8304  0.8294
 4966TIP3   OH239092   4.058   1.145   2.161  0.0211 -0.3044  0.1002
 4966TIP3    H139093   4.141   1.185   2.187  1.0353 -1.4723 -1.1862
 4966TIP3    H239094   4.017   1.119   2.244  0.8640  0.3813  0.7543
 4967TIP3   OH239095   1.148   6.884   2.111 -0.0373 -0.0424  0.8554
 4967TIP3    H139096   1.242   6.899   2.123 -0.2388  1.0121  1.1597
 4967TIP3    H239097   1.113   6.880   2.200 -0.6474  2.0447  0.7569
 4968TIP3   OH239098   4.990   0.106   1.250 -0.1573  0.1084  0.8670
 4968TIP3    H139099   5.001   0.065   1.165  0.3903 -0.0578  1.0121
 4968TIP3    H239100   5.048   0.057   1.308  0.3598  0.9475  1.0875
 4969TIP3   OH239101   6.026   0.267   1.889 -0.2479 -0.3174 -0.6412
 4969TIP3    H139102   6.074   0.281   1.970  0.3412 -0.2372 -1.0038
 4969TIP3    H239103   5.936   0.291   1.911  0.1299  0.8978 -0.3396
 4970TIP3   OH239104   3.881   7.266   7.782 -0.0057 -0.1503 -0.0685
 4970TIP3    H139105   3.856   7.318   7.705 -0.1891 -0.1422 -0.0036
 4970TIP3    H239106   3.815   7.288   7.848  0.2035 -0.0945  0.1184
 4971TIP3   OH239107   4.607   2.121   7.977 -0.0697 -0.0342  0.1736
 4971TIP3    H139108   4.617   2.028   7.959  0.2262  0.0523 -0.1158
 4971TIP3    H239109   4.696   2.152   7.996 -0.0945  0.2895 -0.2309
 4972TIP3   OH239110   6.684   1.543   8.630  0.7178 -0.7868  0.0112
 4972TIP3    H139111   6.763   1.536   8.684 -0.6117 -1.7011  1.9581
 4972TIP3    H239112   6.613   1.517   8.689 -0.9396 -0.8800 -1.9415
 4973TIP3   OH239113   0.206   4.463   9.132  0.8396  0.0998 -0.4322
 4973TIP3    H139114   0.111   4.475   9.132  0.7943 -0.1939 -1.0397
 4973TIP3    H239115   0.220   4.386   9.186  0.7961  0.5558  0.2368
 4974TIP3   OH239116   6.557   5.910   7.971  0.1313 -0.2124  0.1166
 4974TIP3    H139117   6.509   5.832   7.942  0.7673 -0.4051 -0.4447
 4974TIP3    H239118   6.632   5.916   7.911  0.1941  0.7234  0.2777
 4975TIP3   OH239119   1.166   1.210   2.390  0.2754  0.0291  0.3214
 4975TIP3    H139120   1.192   1.162   2.469  0.2249  0.9033  0.8837
 4975TIP3    H239121   1.094   1.267   2.419  0.8202  0.9770 -0.1497
 4976TIP3   OH239122   4.643   6.118   8.948  0.3458  0.0254 -0.1872
 4976TIP3    H139123   4.650   6.055   8.876  2.1544  0.7694 -0.7202
 4976TIP3    H239124   4.701   6.190   8.923  1.6043 -0.0102  2.3405
 4977TIP3   OH239125   5.997   3.884   9.334  0.0905  0.4494  0.9241
 4977TIP3    H139126   6.007   3.885   9.239 -2.9399 -2.1504  0.3977
 4977TIP3    H239127   5.958   3.969   9.355 -1.2220  0.2468 -0.5387
 4978TIP3   OH239128   6.533   6.604   0.277 -0.7277  0.8046  0.3547
 4978TIP3    H139129   6.597   6.549   0.232 -1.9009 -1.2728  1.1358
 4978TIP3    H239130   6.461   6.613   0.215 -1.3243 -0.0856  0.9046
 4979TIP3   OH239131   6.541   1.199   8.898  0.1199 -0.3777  0.3488
 4979TIP3    H139132   6.540   1.154   8.983 -0.6000  0.7072  0.9369
 4979TIP3    H239133   6.622   1.168   8.856 -1.1906 -3.6257 -0.0882
 4980TIP3   OH239134   0.471   3.490   0.457  0.2412 -0.3716 -0.0771
 4980TIP3    H139135   0.482   3.563   0.396 -1.3330  1.3607  1.5699
 4980TIP3    H239136   0.528   3.511   0.530 -0.0553 -0.9167  0.3217
 4981TIP3   OH239137   4.766   3.625   0.483  0.5240 -0.5088 -0.1320
 4981TIP3    H139138   4.734   3.541   0.515  0.0756  0.1122  1.1226
 4981TIP3    H239139   4.690   3.667   0.443 -0.4190  1.0269  2.9732
 4982TIP3   OH239140   0.495   1.051   1.416  0.3172 -0.2367  0.1634
 4982TIP3    H139141   0.559   1.121   1.411  0.8948 -0.5311  2.2374
 4982TIP3    H239142   0.540   0.974   1.382  0.5791 -0.1426  0.3002
 4983TIP3   OH239143   6.629   5.906   8.925 -0.7145 -0.5178  0.5407
 4983TIP3    H139144   6.569   5.981   8.913 -0.6876 -0.4708  0.6936
 4983TIP3    H239145   6.651   5.878   8.836 -0.1724  0.0985  0.4726
 4984TIP3   OH239146   3.130   2.275   2.682 -0.2729 -0.5134 -0.0725
 4984TIP3    H139147   3.194   2.215   2.643 -0.0965 -0.3529 -0.0301
 4984TIP3    H239148   3.182   2.348   2.714 -0.5774  0.0360 -0.8228
 4985TIP3   OH239149   2.450   0.691   9.233  0.2597  0.2697 -0.0970
 4985TIP3    H139150   2.376   0.708   9.291 -0.0787 -0.5872 -0.2531
 4985TIP3    H239151   2.417   0.624   9.172  0.6602  0.9968 -1.1549
 4986TIP3   OH239152   3.017   3.912   1.642 -0.4455  0.0381  1.1364
 4986TIP3    H139153   3.039   3.988   1.588  1.1097  0.2024  1.9467
 4986TIP3    H239154   3.044   3.837   1.590  1.0545  0.1959  1.6627
 4987TIP3   OH239155   0.649   0.876   1.277 -0.1008 -0.1102 -0.3128
 4987TIP3    H139156   0.643   0.840   1.188  2.2509  1.3888 -1.1656
 4987TIP3    H239157   0.717   0.825   1.320  0.9614  1.1327 -0.4546
 4988TIP3   OH239158   5.819   0.069   0.199  0.6532  0.1174 -0.3503
 4988TIP3    H139159   5.890   0.087   0.260  1.3432  0.4064 -1.2202
 4988TIP3    H239160   5.862   0.030   0.123 -0.3071 -1.2017 -0.2540
 4989TIP3   OH239161   6.330   4.019   8.167 -0.2102 -0.1866 -0.8883
 4989TIP3    H139162   6.299   4.086   8.106  0.4229  0.0904 -0.9137
 4989TIP3    H239163   6.425   4.019   8.157 -0.2659 -1.9544 -1.7950
 4990TIP3   OH239164   1.441   1.831   8.777 -0.7264 -0.6775  0.7121
 4990TIP3    H139165   1.431   1.874   8.862 -1.6939  0.1872  0.1881
 4990TIP3    H239166   1.531   1.848   8.752 -1.2654  1.7274  0.2024
 4991TIP3   OH239167   0.760   6.587   1.321  0.2234  0.3613  0.4693
 4991TIP3    H139168   0.738   6.586   1.228  0.4992  3.9416  0.2060
 4991TIP3    H239169   0.690   6.639   1.361  0.5056 -0.4860  2.1445
 4992TIP3   OH239170   5.140   0.335   1.258  0.0688  0.8335  0.1982
 4992TIP3    H139171   5.215   0.333   1.318 -0.3154  0.8228  0.6799
 4992TIP3    H239172   5.115   0.244   1.247 -0.5974  0.9244  0.9498
 4993TIP3   OH239173   5.598   0.039   9.861 -0.2732  0.4322 -0.0837
 4993TIP3    H139174   5.511   0.066   9.833 -0.9944 -0.0603  1.5637
 4993TIP3    H239175   5.583  -0.018   9.937  1.3218 -2.1179 -1.5247
 4994TIP3   OH239176   1.243   0.563   0.100 -0.1821 -0.7387  0.4043
 4994TIP3    H139177   1.221   0.653   0.075 -1.9109 -1.2019  0.1471
 4994TIP3    H239178   1.182   0.542   0.170 -0.2966 -1.9736 -0.0470
 4995TIP3   OH239179   0.729   3.829   0.367  0.0004  0.0659  0.3138
 4995TIP3    H139180   0.761   3.850   0.280 -1.1721  1.7846  0.2583
 4995TIP3    H239181   0.660   3.763   0.352 -0.4798  0.6522 -0.1165
 4996TIP3   OH239182   3.186   1.653   8.291 -0.0403  0.3556 -0.2493
 4996TIP3    H139183   3.210   1.603   8.369  0.2754 -0.0809 -0.6193
 4996TIP3    H239184   3.201   1.592   8.218  2.3324  1.5911 -0.9175
 4997TIP3   OH239185   2.532   5.576   0.434  0.1506  0.1663  0.2817
 4997TIP3    H139186   2.595   5.558   0.364  0.4253  0.2529  0.5047
 4997TIP3    H239187   2.554   5.514   0.503 -1.6328 -1.5965 -0.6126
 4998TIP3   OH239188   4.384   7.406   8.026  0.3192 -0.1144 -0.0324
 4998TIP3    H139189   4.346   7.345   8.089 -0.4345  1.2654  0.9124
 4998TIP3    H239190   4.320   7.411   7.955 -0.1886  0.4350  0.4483
 4999TIP3   OH239191   2.685   1.423   1.486 -0.3328  0.5117  0.0586
 4999TIP3    H139192   2.777   1.432   1.459 -0.5987  0.5103 -0.8899
 4999TIP3    H239193   2.688   1.366   1.563  0.3697 -0.4094 -0.6238
 5000TIP3   OH239194   2.138   3.933   0.739 -0.5898 -0.1911 -0.1194
 5000TIP3    H139195   2.234   3.937   0.749 -0.6522 -2.3202  2.4388
 5000TIP3    H239196   2.124   3.864   0.675 -0.3933 -0.6602  0.3312
 5001TIP3   OH239197   0.343   3.496   1.006 -0.0148 -0.3336 -0.3103
 5001TIP3    H139198   0.285   3.433   1.049 -1.2989 -0.2000 -1.7746
 5001TIP3    H239199   0.333   3.576   1.057  0.9686 -1.0135  1.0425
 5002TIP3   OH239200   2.858   1.530   2.315 -0.3244  0.4609 -0.2246
 5002TIP3    H139201   2.783   1.471   2.313  0.5910 -0.8372  1.4254
 5002TIP3    H239202   2.883   1.534   2.407  0.9956  1.7251 -0.5983
 5003TIP3   OH239203   6.032   1.348   9.080  0.2894  0.3719 -0.3630
 5003TIP3    H139204   6.123   1.345   9.050  0.9319  2.3983  1.1856
 5003TIP3    H239205   6.023   1.433   9.124 -2.6213  0.6650 -1.2668
 5004TIP3   OH239206   6.411   6.518   0.893 -0.2941 -0.3627  0.4318
 5004TIP3    H139207   6.335   6.515   0.836 -0.7518  1.0762  0.9193
 5004TIP3    H239208   6.473   6.455   0.856 -1.0324 -0.2824 -0.9625
 5005TIP3   OH239209   4.692   2.406   0.165 -0.2323  0.0361 -0.0327
 5005TIP3    H139210   4.686   2.421   0.071 -0.2832  0.2142 -0.0030
 5005TIP3    H239211   4.783   2.428   0.187  0.3796 -2.0078 -0.3725
 5006TIP3   OH239212   4.142   0.877   9.836 -0.0832  0.0824 -0.2487
 5006TIP3    H139213   4.159   0.931   9.914  1.1937 -0.9624  0.2549
 5006TIP3    H239214   4.136   0.939   9.764 -0.6470  1.0282  0.5844
 5007TIP3   OH239215   1.087   3.796   9.364 -0.0822  0.0126  0.0604
 5007TIP3    H139216   1.102   3.752   9.280  0.1593 -0.6671  0.4462
 5007TIP3    H239217   1.128   3.882   9.353 -1.5604  0.6050 -1.1052
 5008TIP3   OH239218   2.307   3.540   0.111  0.1918  0.1613 -0.7472
 5008TIP3    H139219   2.286   3.467   0.169  2.7894 -0.9844 -1.1268
 5008TIP3    H239220   2.235   3.541   0.047 -1.5536  0.0426  1.0967
 5009TIP3   OH239221   4.866   4.926   7.594  0.0260 -0.6593  0.5127
 5009TIP3    H139222   4.864   4.831   7.583 -0.7424 -0.5590 -0.3468
 5009TIP3    H239223   4.834   4.960   7.510  2.5174  0.4221 -0.1120
 5010TIP3   OH239224   6.869   0.371   9.250 -0.0044 -0.0597  0.0801
 5010TIP3    H139225   6.876   0.401   9.341 -0.6449  0.5002 -0.0456
 5010TIP3    H239226   6.828   0.445   9.204  0.9073 -0.0811 -0.7993
 5011TIP3   OH239227   3.505   0.018   0.252 -0.5540  0.3776 -0.2131
 5011TIP3    H139228   3.571  -0.011   0.189 -0.1183  0.5848  0.1433
 5011TIP3    H239229   3.460   0.090   0.207 -1.1538 -0.3458 -0.8128
 5012TIP3   OH239230   2.906   2.327   7.271  0.0425  0.4096 -0.1893
 5012TIP3    H139231   2.872   2.414   7.293  0.2941  1.0206 -2.0082
 5012TIP3    H239232   2.837   2.287   7.218  1.3847  1.0301 -2.5554
 5013TIP3   OH239233   5.783   0.844   7.402  0.5957  0.0477 -0.0302
 5013TIP3    H139234   5.872   0.868   7.430  0.3053  1.5560 -0.3322
 5013TIP3    H239235   5.793   0.819   7.310  0.4545  2.1120 -0.6628
 5014TIP3   OH239236   7.385   0.491   2.474 -0.1794 -0.6761 -0.0529
 5014TIP3    H139237   7.393   0.543   2.394 -0.2601 -0.1956  0.2462
 5014TIP3    H239238   7.411   0.551   2.544  0.2355 -1.2016  0.2465
 5015TIP3   OH239239   4.341   0.346   7.135  0.0128 -0.0092 -0.4880
 5015TIP3    H139240   4.319   0.274   7.076 -3.2978  1.3090 -1.1098
 5015TIP3    H239241   4.421   0.383   7.100 -0.2194 -1.1324 -2.3412
 5016TIP3   OH239242   5.743   7.273   2.479  0.0959  0.2023  0.0259
 5016TIP3    H139243   5.714   7.356   2.441 -1.5601  0.6826  2.1127
 5016TIP3    H239244   5.817   7.246   2.425  1.1037  3.3312 -0.3734
 5017TIP3   OH239245   4.436   6.647   9.092  0.2737 -0.6456 -0.4138
 5017TIP3    H139246   4.434   6.734   9.052 -0.4320  0.0792  1.1016
 5017TIP3    H239247   4.344   6.622   9.101  0.3447 -0.3737  1.5210
 5018TIP3   OH239248   2.657   2.593   9.846  0.4270  0.1287  0.4224
 5018TIP3    H139249   2.746   2.576   9.879  1.6254  3.1216 -0.8658
 5018TIP3    H239250   2.613   2.639   9.917  0.2637 -0.4031  0.6699
 5019TIP3   OH239251   3.946   0.691   8.599  0.5560  0.4575 -0.1158
 5019TIP3    H139252   4.013   0.623   8.611  1.3104  1.1918 -0.0609
 5019TIP3    H239253   3.987   0.771   8.633  0.4341  1.3372 -1.9362
 5020TIP3   OH239254   2.863   2.241   8.541  0.4954  0.6595  0.0329
 5020TIP3    H139255   2.827   2.153   8.527  0.5447  0.6720 -0.1622
 5020TIP3    H239256   2.909   2.262   8.460 -0.1098  1.1510 -0.1893
 5021TIP3   OH239257   7.084   4.124   2.289 -0.0401  0.6872  0.2064
 5021TIP3    H139258   7.097   4.149   2.198  1.1662 -2.8195 -0.7486
 5021TIP3    H239259   6.995   4.087   2.291  0.0407  0.4985  0.3695
 5022TIP3   OH239260   0.325   4.271   2.192  0.1933 -0.4866  0.1705
 5022TIP3    H139261   0.405   4.301   2.235  0.0180 -0.4807  0.4951
 5022TIP3    H239262   0.254   4.312   2.242  0.0043  1.1885 -1.3412
 5023TIP3   OH239263   2.781   2.421   2.841  0.1463  0.0128 -0.5322
 5023TIP3    H139264   2.686   2.423   2.830  0.1890 -2.1729 -1.9163
 5023TIP3    H239265   2.815   2.394   2.756  2.0400  0.7085 -0.0644
 5024TIP3   OH239266   1.830   1.183   0.716  0.3165  0.0535 -0.7279
 5024TIP3    H139267   1.774   1.228   0.780 -1.2170 -1.5665 -0.8700
 5024TIP3    H239268   1.859   1.104   0.761 -1.3021 -1.4393 -2.1487
 5025TIP3   OH239269   1.114   1.297   8.157  0.1328 -0.0556  0.0010
 5025TIP3    H139270   1.066   1.303   8.240  0.3007  2.6160  0.0106
 5025TIP3    H239271   1.205   1.280   8.183  0.2522  1.1273  0.4541
 5026TIP3   OH239272   5.297   1.685   8.115  0.2208  0.2691  0.0436
 5026TIP3    H139273   5.382   1.694   8.074  0.6043 -0.1608  0.7267
 5026TIP3    H239274   5.304   1.606   8.169 -1.1894 -0.8750 -1.3269
 5027TIP3   OH239275   2.334   2.811   0.242 -0.2712 -0.5053 -0.4674
 5027TIP3    H139276   2.333   2.892   0.295 -1.9975 -0.6430 -0.2419
 5027TIP3    H239277   2.426   2.802   0.215  0.0885  1.1752  0.0454
 5028TIP3   OH239278   6.733   5.944   7.752 -0.5281 -0.3661 -0.0021
 5028TIP3    H139279   6.791   5.890   7.700 -0.9568 -1.8615  0.9983
 5028TIP3    H239280   6.775   6.030   7.754  0.3915 -0.7638 -1.2870
 5029TIP3   OH239281   3.601   1.242   0.641 -0.6714 -0.2696 -0.3995
 5029TIP3    H139282   3.535   1.210   0.581 -1.0157  0.3255 -0.3436
 5029TIP3    H239283   3.587   1.192   0.722 -0.9245 -0.2813 -0.4514
 5030TIP3   OH239284   4.847   6.341   2.070 -0.4401  0.0011 -0.5070
 5030TIP3    H139285   4.854   6.275   2.138  2.3852 -2.0290 -2.5244
 5030TIP3    H239286   4.932   6.384   2.069 -1.7416  2.8209 -0.1942
 5031TIP3   OH239287   4.271   2.523   9.804  0.7832  0.5304  0.2043
 5031TIP3    H139288   4.217   2.495   9.877 -0.6196  1.3136 -0.4986
 5031TIP3    H239289   4.361   2.521   9.838  0.9538 -4.7139  0.2842
 5032TIP3   OH239290   1.734   0.795   8.448 -0.0888  0.2486  0.1974
 5032TIP3    H139291   1.642   0.779   8.469 -0.2850  0.9653 -0.0808
 5032TIP3    H239292   1.742   0.772   8.356 -0.2243  1.0941 -0.0351
 5033TIP3   OH239293   2.877   6.487   1.869 -0.2204 -0.0573 -0.6399
 5033TIP3    H139294   2.787   6.457   1.857  0.0502 -0.4535 -1.7301
 5033TIP3    H239295   2.886   6.496   1.964 -0.9474 -1.4627 -0.4056
 5034TIP3   OH239296   4.616   2.115   0.198  0.3104 -0.7130 -0.0057
 5034TIP3    H139297   4.625   2.210   0.207  1.9927 -0.8387 -0.0552
 5034TIP3    H239298   4.706   2.082   0.203 -0.3681 -2.4646  1.8353
 5035TIP3   OH239299   6.547   6.181   2.006  0.0848  0.2969  0.1471
 5035TIP3    H139300   6.587   6.104   2.047 -0.2909 -0.6863 -1.2531
 5035TIP3    H239301   6.583   6.255   2.054 -0.4880 -0.7855  2.3552
 5036TIP3   OH239302   4.692   5.680   2.112  0.1132  0.3086 -0.8724
 5036TIP3    H139303   4.634   5.639   2.048  1.1190  1.2582 -2.4848
 5036TIP3    H239304   4.727   5.607   2.163 -2.7074 -0.2599  0.4340
 5037TIP3   OH239305   1.188   6.701   2.787  0.0281  0.2100  0.1478
 5037TIP3    H139306   1.108   6.702   2.840 -0.6010 -0.5567 -0.7794
 5037TIP3    H239307   1.157   6.702   2.697  1.0620 -0.4013 -0.2221
 5038TIP3   OH239308   1.017   3.266   0.062  0.6080 -0.1372  0.0593
 5038TIP3    H139309   1.103   3.228   0.077  1.2362  1.2493  0.1128
 5038TIP3    H239310   0.983   3.284   0.150  0.8611  0.5777  0.0177
 5039TIP3   OH239311   2.309   6.883   7.077  0.2147  0.1242  0.1280
 5039TIP3    H139312   2.287   6.945   7.145  0.4972  1.7732 -1.2253
 5039TIP3    H239313   2.237   6.890   7.014  0.6491 -0.3303 -0.4324
 5040TIP3   OH239314   3.207   7.168   7.020 -0.5828 -0.8407 -0.0268
 5040TIP3    H139315   3.274   7.200   7.079  0.2615  0.7661 -1.7366
 5040TIP3    H239316   3.124   7.188   7.064  0.0163  0.4294  0.5651
 5041TIP3   OH239317   1.590   2.870   0.315  0.2256  0.2706 -0.1372
 5041TIP3    H139318   1.557   2.780   0.317 -1.5089  0.8769  0.1229
 5041TIP3    H239319   1.668   2.868   0.370 -0.1846 -0.9256  0.4388
 5042TIP3   OH239320   0.308   3.747   1.125  0.0419 -0.0168  0.3815
 5042TIP3    H139321   0.294   3.746   1.219 -1.3985 -1.5634  0.1840
 5042TIP3    H239322   0.333   3.838   1.106  0.3990  0.3131  2.2276
 5043TIP3   OH239323   5.250   1.795   8.705  0.2457  0.3462  0.4796
 5043TIP3    H139324   5.185   1.805   8.635 -0.7974  2.9483  1.6522
 5043TIP3    H239325   5.256   1.701   8.720 -1.1671 -0.1260 -1.5762
 5044TIP3   OH239326   2.467   6.144   0.114 -0.4748  0.1815 -0.0480
 5044TIP3    H139327   2.482   6.103   0.029 -1.3278 -0.5773  0.1576
 5044TIP3    H239328   2.512   6.087   0.177 -0.2725  0.4661  0.0690
 5045TIP3   OH239329   3.841   5.600   0.957 -0.0116 -0.5976 -0.8394
 5045TIP3    H139330   3.916   5.651   0.988  0.9077 -2.1420 -0.4060
 5045TIP3    H239331   3.804   5.652   0.885  0.2591  1.1328  0.2182
 5046TIP3   OH239332   1.301   3.385   9.438  0.0563 -0.4305  0.8432
 5046TIP3    H139333   1.206   3.394   9.447  0.1057  0.9646  0.2358
 5046TIP3    H239334   1.312   3.330   9.361 -0.2610 -0.2340  0.6542
 5047TIP3   OH239335   0.019   0.105   8.058 -0.4961 -0.0464  0.0102
 5047TIP3    H139336   0.019   0.088   7.964 -0.7218 -0.8928  0.1501
 5047TIP3    H239337   0.111   0.097   8.084 -0.4557  0.0249 -0.1110
 5048TIP3   OH239338   3.538   5.305   2.081  0.0717 -0.5735 -0.5496
 5048TIP3    H139339   3.544   5.398   2.102 -0.6996 -0.8945  1.2804
 5048TIP3    H239340   3.597   5.293   2.006 -0.0612  1.4220 -1.0131
 5049TIP3   OH239341   7.198   4.666   8.049 -0.0384 -0.3018 -0.3793
 5049TIP3    H139342   7.132   4.608   8.012  0.7189 -0.1062 -2.1421
 5049TIP3    H239343   7.155   4.751   8.054 -0.7265 -0.7148  0.9539
 5050TIP3   OH239344   5.077   0.083   0.679 -0.0707 -0.7824  0.1125
 5050TIP3    H139345   5.055   0.136   0.756 -0.3355 -0.0456 -0.4582
 5050TIP3    H239346   5.070  -0.007   0.709  0.0077 -0.4985  1.0026
 5051TIP3   OH239347   2.454   1.741   1.538  0.0321  0.2250  0.8670
 5051TIP3    H139348   2.486   1.709   1.454 -0.7521  2.7273 -0.5029
 5051TIP3    H239349   2.395   1.673   1.569 -0.9333 -0.0860 -1.4508
 5052TIP3   OH239350   3.521   4.626   1.520  0.5541  0.2884  0.6241
 5052TIP3    H139351   3.545   4.591   1.606 -1.8790  2.4376  2.3360
 5052TIP3    H239352   3.431   4.597   1.507  0.6156  0.7031 -0.8274
 5053TIP3   OH239353   5.381   2.154   1.783  0.3088 -0.3178 -0.1936
 5053TIP3    H139354   5.370   2.080   1.842  0.6980 -0.6072 -0.4699
 5053TIP3    H239355   5.474   2.176   1.790 -0.0025  0.7930  0.6349
 5054TIP3   OH239356   1.545   5.134   1.026 -0.5201  0.3278 -0.0743
 5054TIP3    H139357   1.522   5.189   1.101  1.5073 -1.0777  1.6887
 5054TIP3    H239358   1.462   5.092   1.001 -1.1861  0.4740  1.7118
 5055TIP3   OH239359   5.078   6.890   8.696 -0.4144 -0.7391  0.4767
 5055TIP3    H139360   5.080   6.934   8.781 -0.2676  3.0473 -1.3135
 5055TIP3    H239361   4.985   6.877   8.677 -0.5820  0.6545  0.2266
 5056TIP3   OH239362   4.132   0.734   1.659 -0.6767 -0.1257  0.1450
 5056TIP3    H139363   4.203   0.701   1.715 -1.1007  0.5287  1.0818
 5056TIP3    H239364   4.092   0.656   1.622  0.3707 -0.5163 -0.1975
 5057TIP3   OH239365   6.462   3.851   0.260  0.2912  0.0725  0.5928
 5057TIP3    H139366   6.419   3.855   0.345 -2.2507  1.1267 -0.6215
 5057TIP3    H239367   6.468   3.758   0.240 -0.4729 -0.1303  1.2789
 5058TIP3   OH239368   5.241   6.574   9.759  0.2250  0.5721  0.2466
 5058TIP3    H139369   5.315   6.622   9.721 -0.4322 -0.3596 -2.3708
 5058TIP3    H239370   5.243   6.489   9.716 -2.6991  0.7032 -0.3232
 5059TIP3   OH239371   4.006   6.070   7.834  0.9642  1.0444 -0.0582
 5059TIP3    H139372   3.930   6.013   7.841  0.5590  1.4036 -1.3234
 5059TIP3    H239373   3.981   6.150   7.881  1.1024  0.6416  0.7231
 5060TIP3   OH239374   7.031   3.795   0.030 -0.5904  0.3773  0.1045
 5060TIP3    H139375   7.004   3.717  -0.018  0.1096 -0.1894  0.6019
 5060TIP3    H239376   7.084   3.844  -0.032 -0.8805  0.3668 -0.1525
 5061TIP3   OH239377   2.350   1.142   9.362  0.3504 -0.5567 -0.1507
 5061TIP3    H139378   2.382   1.081   9.296  1.4091 -1.8796  1.5126
 5061TIP3    H239379   2.427   1.166   9.412 -0.2375  1.3455 -0.0824
 5062TIP3   OH239380   3.203   1.164   8.478 -0.5070  0.0323  0.5372
 5062TIP3    H139381   3.255   1.187   8.401 -0.4625 -0.2194  0.4920
 5062TIP3    H239382   3.248   1.207   8.551 -0.5625  0.2902  0.4192
 5063TIP3   OH239383   4.112   1.530   1.967 -0.5244  0.6700  0.2116
 5063TIP3    H139384   4.073   1.614   1.944 -1.7983  0.4970  1.5639
 5063TIP3    H239385   4.168   1.549   2.042 -1.1999  0.2463  0.8328
 5064TIP3   OH239386   7.387   1.469   9.811 -0.4871  0.4184 -0.5108
 5064TIP3    H139387   7.365   1.375   9.811  0.3864  0.1855  0.7780
 5064TIP3    H239388   7.429   1.483   9.726  0.7639 -0.7452 -0.1428
 5065TIP3   OH239389   2.437   7.091   9.908 -0.0798 -0.1625 -0.2591
 5065TIP3    H139390   2.514   7.126   9.953  0.6644  0.2515 -1.7934
 5065TIP3    H239391   2.407   7.162   9.851 -0.5588 -0.8908 -0.9466
 5066TIP3   OH239392   3.488   3.630   9.846  0.3602  0.2210 -0.0087
 5066TIP3    H139393   3.412   3.604   9.897  0.3124  1.8197  0.8111
 5066TIP3    H239394   3.522   3.549   9.809  0.9923 -1.2296  3.3798
 5067TIP3   OH239395   4.577   3.245   9.481 -0.2097 -0.3498  1.0746
 5067TIP3    H139396   4.663   3.202   9.474  0.4761  1.0980  0.1016
 5067TIP3    H239397   4.569   3.295   9.400 -2.1713 -0.7636  0.9793
 5068TIP3   OH239398   5.804   7.455   2.278 -0.3115 -0.2008  0.0302
 5068TIP3    H139399   5.888   7.410   2.274  1.2111  2.4345  0.6114
 5068TIP3    H239400   5.790   7.487   2.189  0.7765  1.7913  0.5259
 5069TIP3   OH239401   1.304   4.944   1.489  0.2251  0.2708 -0.0563
 5069TIP3    H139402   1.330   4.888   1.416 -0.7509 -0.0133 -0.2049
 5069TIP3    H239403   1.371   5.013   1.492  1.0548 -0.5088 -0.3040
 5070TIP3   OH239404   1.248   1.306   0.100  0.6853  0.1317 -0.1046
 5070TIP3    H139405   1.275   1.262   0.180 -0.6945  1.6971  1.3077
 5070TIP3    H239406   1.183   1.247   0.062 -0.1489  0.2705  1.0423
 5071TIP3   OH239407   2.682   4.766   0.735  0.1699 -0.2736  0.4380
 5071TIP3    H139408   2.694   4.680   0.775  1.8182 -0.0543  0.4558
 5071TIP3    H239409   2.701   4.752   0.642  1.8880  0.3315  0.6661
 5072TIP3   OH239410   7.442   1.822   1.503 -0.4141  0.2118  0.4776
 5072TIP3    H139411   7.433   1.854   1.593 -0.5041 -0.4078  0.6968
 5072TIP3    H239412   7.531   1.787   1.499  0.4716  2.4188 -0.4054
 5073TIP3   OH239413   1.755   5.421   1.020 -0.0629 -0.2939  0.0968
 5073TIP3    H139414   1.664   5.392   1.012 -0.3632  0.9017 -1.3627
 5073TIP3    H239415   1.796   5.391   0.938  0.1249  1.5225 -0.5251
 5074TIP3   OH239416   5.339   6.940   8.686 -0.2948  0.2474 -0.1439
 5074TIP3    H139417   5.258   6.911   8.644 -0.8694  0.6064  0.6849
 5074TIP3    H239418   5.320   6.937   8.780  0.8957 -0.3398  0.0941
 5075TIP3   OH239419   5.665   4.216   8.125  0.3176  0.1976  0.8305
 5075TIP3    H139420   5.707   4.276   8.064  0.1865  0.8779  1.3962
 5075TIP3    H239421   5.586   4.187   8.080  0.3665  0.4720  0.5677
 5076TIP3   OH239422   3.196   4.423   2.565  0.5952 -0.3919 -0.1027
 5076TIP3    H139423   3.161   4.436   2.653  1.6479 -0.3784  0.3274
 5076TIP3    H239424   3.290   4.440   2.573  0.8723 -1.3305 -1.0286
 5077TIP3   OH239425   0.229   2.598   1.373 -0.5586  0.1978 -0.2102
 5077TIP3    H139426   0.182   2.522   1.341 -1.8493  0.9379 -0.1467
 5077TIP3    H239427   0.318   2.588   1.339 -1.0879 -0.5909 -1.4091
 5078TIP3   OH239428   0.292   7.144   9.268  0.0867  0.3909  0.3266
 5078TIP3    H139429   0.213   7.149   9.215 -1.3718 -3.0104  1.9124
 5078TIP3    H239430   0.341   7.070   9.232  0.2811 -0.3929  2.0922
 5079TIP3   OH239431   4.812   0.853   1.842 -0.3968 -0.3207 -0.2174
 5079TIP3    H139432   4.879   0.784   1.843  1.0126  0.9843 -0.1617
 5079TIP3    H239433   4.811   0.884   1.752  0.3605  0.8263  0.1410
 5080TIP3   OH239434   2.963   3.445   1.799 -0.1260 -0.3293 -0.1183
 5080TIP3    H139435   2.932   3.425   1.887  0.0008  1.2944  0.3415
 5080TIP3    H239436   3.023   3.374   1.777 -0.3366 -0.8769  1.0240
 5081TIP3   OH239437   0.550   5.902   8.147 -0.1880  0.2767  0.3802
 5081TIP3    H139438   0.456   5.890   8.153 -0.1634 -0.1520 -0.0513
 5081TIP3    H239439   0.584   5.863   8.228 -0.2201 -1.4347 -0.3969
 5082TIP3   OH239440   6.964   1.547   0.248  0.1213  0.2415 -0.0269
 5082TIP3    H139441   6.986   1.616   0.311 -1.9201 -1.9553  3.4692
 5082TIP3    H239442   7.031   1.480   0.262  0.7069  0.4617 -1.6355
 5083TIP3   OH239443   7.197   4.457   0.781  0.0237  0.0878 -0.5311
 5083TIP3    H139444   7.163   4.528   0.836 -1.9756 -0.6011 -0.7952
 5083TIP3    H239445   7.249   4.404   0.841  0.2302  0.9043  0.0338
 5084TIP3   OH239446   1.588   1.387   8.981  0.2371 -0.0686  0.4993
 5084TIP3    H139447   1.662   1.411   8.927  0.4792  0.5578  1.0979
 5084TIP3    H239448   1.578   1.459   9.043 -2.3544  1.0415 -1.0406
 5085TIP3   OH239449   2.165   4.171   1.517 -0.4317 -0.0870 -0.1783
 5085TIP3    H139450   2.194   4.195   1.605 -1.4713 -0.0001  0.1527
 5085TIP3    H239451   2.133   4.082   1.526 -0.7157 -0.0086 -0.4336
 5086TIP3   OH239452   0.219   3.489   7.833 -0.3277 -0.4673 -0.1868
 5086TIP3    H139453   0.130   3.457   7.818 -0.6674  0.0761  0.5828
 5086TIP3    H239454   0.210   3.585   7.834 -0.0392 -0.4201  1.5200
 5087TIP3   OH239455   1.295   0.668   7.512 -0.9595  0.2814  0.2532
 5087TIP3    H139456   1.246   0.742   7.548  1.4445  1.2734  1.7488
 5087TIP3    H239457   1.382   0.676   7.551  0.1775 -1.8291 -1.6309
 5088TIP3   OH239458   5.098   2.403   0.654  0.6026 -0.2442  0.4687
 5088TIP3    H139459   5.172   2.451   0.618 -0.8296  1.4655 -0.3040
 5088TIP3    H239460   5.034   2.470   0.678 -1.1358 -1.6969  0.1428
 5089TIP3   OH239461   5.591   3.171   9.828  0.1194 -0.1242  0.3135
 5089TIP3    H139462   5.573   3.107   9.896 -0.4724  0.9860  1.2409
 5089TIP3    H239463   5.519   3.233   9.834  0.6689  0.6197 -0.5621
 5090TIP3   OH239464   1.385   5.897   8.384  0.1833  0.5678  0.1431
 5090TIP3    H139465   1.377   5.903   8.480  2.1343 -1.3902  0.4993
 5090TIP3    H239466   1.298   5.871   8.355  0.6342 -3.9567  2.0196
 5091TIP3   OH239467   3.414   2.495   8.794  0.8736 -0.0333  0.1966
 5091TIP3    H139468   3.377   2.557   8.857 -0.3050 -0.2174 -0.2918
 5091TIP3    H239469   3.491   2.459   8.838 -1.0230 -1.6642  2.3833
 5092TIP3   OH239470   1.095   1.457   3.245 -0.1539  0.0556  0.5140
 5092TIP3    H139471   1.073   1.441   3.337 -2.2003 -0.2494  0.0232
 5092TIP3    H239472   1.020   1.506   3.211  0.9056  0.7892 -0.8290
 5093TIP3   OH239473   4.878   5.672   1.008 -0.1331  0.8935 -0.2190
 5093TIP3    H139474   4.852   5.650   0.918 -0.2404  0.2584 -0.0398
 5093TIP3    H239475   4.807   5.727   1.040 -1.1928 -0.6074  0.1763
 5094TIP3   OH239476   2.755   0.488   3.584 -0.1687  0.2657 -0.2897
 5094TIP3    H139477   2.814   0.491   3.509  0.5115  0.2225  0.2317
 5094TIP3    H239478   2.765   0.574   3.625  1.1628 -0.4554  1.0031
 5095TIP3   OH239479   4.398   4.525   2.587 -0.2287 -0.0936 -0.4151
 5095TIP3    H139480   4.337   4.536   2.513 -1.5020 -1.3344  0.4004
 5095TIP3    H239481   4.342   4.508   2.662  1.0523  0.9827  0.8472
 5096TIP3   OH239482   0.671   0.127   1.938 -0.2841  0.3378  0.5904
 5096TIP3    H139483   0.669   0.142   2.032 -2.1382  0.1103  0.6208
 5096TIP3    H239484   0.635   0.208   1.900  3.1613  1.6893 -0.1825
 5097TIP3   OH239485   4.756   5.078   9.215  0.0243  0.2499  0.3258
 5097TIP3    H139486   4.767   5.143   9.284 -0.0233  0.2695  0.3149
 5097TIP3    H239487   4.663   5.056   9.217  0.4308 -1.6404  1.9769
 5098TIP3   OH239488   4.609   0.343   8.276 -0.5104 -0.3146 -0.3173
 5098TIP3    H139489   4.638   0.341   8.367 -0.9240 -1.9419 -0.1963
 5098TIP3    H239490   4.542   0.276   8.270 -0.1836 -0.5483 -1.9233
 5099TIP3   OH239491   5.007   3.779   8.421  0.4138 -0.5016  0.3857
 5099TIP3    H139492   5.087   3.727   8.433  0.2793 -1.2541 -1.7183
 5099TIP3    H239493   4.937   3.715   8.417 -0.0292  0.0042 -0.0296
 5100TIP3   OH239494   4.045   2.059   9.075 -0.1023  0.6315  0.1594
 5100TIP3    H139495   4.131   2.019   9.082 -0.5445 -0.4135 -0.1595
 5100TIP3    H239496   3.996   2.022   9.149  0.1755  2.4541  1.3177
 5101TIP3   OH239497   6.091   3.291   0.042 -0.4246  0.2126  0.1692
 5101TIP3    H139498   6.141   3.246   0.111 -0.6401 -0.7751 -0.3026
 5101TIP3    H239499   5.999   3.274   0.065 -0.4952 -0.7220 -0.7238
 5102TIP3   OH239500   7.398   1.166   7.870 -0.5333  0.3260  0.5096
 5102TIP3    H139501   7.306   1.148   7.850 -0.1169 -0.9644 -0.4126
 5102TIP3    H239502   7.418   1.109   7.945 -0.2477 -0.1152  0.1048
 5103TIP3   OH239503   6.823   2.759   2.069 -0.2268 -0.3784 -0.2125
 5103TIP3    H139504   6.886   2.807   2.122  0.4493 -0.5623 -0.8449
 5103TIP3    H239505   6.836   2.668   2.093 -1.0304 -0.3371  0.4680
 5104TIP3   OH239506   3.545   6.320   9.313  0.1742  0.1624 -0.9172
 5104TIP3    H139507   3.617   6.315   9.377 -0.2702  0.6964 -0.3590
 5104TIP3    H239508   3.491   6.393   9.344 -1.1114 -0.8087 -0.8086
 5105TIP3   OH239509   4.268   4.855   8.887 -0.1924 -0.5730  0.3874
 5105TIP3    H139510   4.309   4.856   8.801  0.9808 -0.9095  0.9250
 5105TIP3    H239511   4.198   4.920   8.881  1.3907  1.1734 -0.1052
 5106TIP3   OH239512   0.243   0.468   8.114  0.3120  0.2222 -0.8964
 5106TIP3    H139513   0.214   0.451   8.203 -0.0886 -0.5157 -1.1561
 5106TIP3    H239514   0.302   0.544   8.121  0.5248 -0.0228  0.0247
 5107TIP3   OH239515   2.822   3.177   0.527 -0.3062 -0.5976  0.4137
 5107TIP3    H139516   2.900   3.209   0.483  0.3727 -2.2816  0.3037
 5107TIP3    H239517   2.849   3.166   0.619 -1.4226  1.9507  1.1442
 5108TIP3   OH239518   1.826   6.901   9.242  0.4952  0.2142  0.0608
 5108TIP3    H139519   1.777   6.909   9.160  0.0948  0.5755  0.3263
 5108TIP3    H239520   1.779   6.959   9.303 -0.8298 -1.9923  1.2844
 5109TIP3   OH239521   2.050   0.567   0.058 -0.0526 -0.1595 -0.1418
 5109TIP3    H139522   2.004   0.542   0.138  0.4626 -0.4455  0.0688
 5109TIP3    H239523   2.114   0.632   0.086 -0.1843  0.0858 -0.4007
 5110TIP3   OH239524   6.490   3.929   8.571 -0.3263  0.1220  0.1709
 5110TIP3    H139525   6.555   3.994   8.597  0.0710  0.0551 -0.6338
 5110TIP3    H239526   6.421   3.979   8.528  0.0621  0.0074 -0.6070
 5111TIP3   OH239527   5.588   4.871   2.045 -0.0776  0.4155  0.2222
 5111TIP3    H139528   5.554   4.882   2.134 -1.3224 -2.2674  0.1833
 5111TIP3    H239529   5.665   4.928   2.042  0.1605  0.4268  3.0875
 5112TIP3   OH239530   3.788   5.653   8.287  0.2146 -0.0562  1.1071
 5112TIP3    H139531   3.744   5.621   8.209  0.4009 -0.6134  1.2280
 5112TIP3    H239532   3.752   5.601   8.359 -1.3639  1.7165  1.6927
 5113TIP3   OH239533   2.029   7.383   7.622 -0.2531 -0.7213 -0.1110
 5113TIP3    H139534   2.024   7.390   7.527  0.8956 -0.7047 -0.1827
 5113TIP3    H239535   2.074   7.463   7.650 -1.1917 -0.3882  0.5224
 5114TIP3   OH239536   0.461   2.816   9.450  0.9013  0.2785 -0.0628
 5114TIP3    H139537   0.370   2.790   9.437  1.3409 -1.1753 -0.4364
 5114TIP3    H239538   0.485   2.860   9.368  0.6057  0.4392 -0.0637
 5115TIP3   OH239539   4.118   4.968   6.890 -0.2295 -0.4230 -0.0010
 5115TIP3    H139540   4.175   4.913   6.944  0.8734  0.5303 -0.1438
 5115TIP3    H239541   4.150   4.955   6.801  0.0646  0.4368 -0.0352
 5116TIP3   OH239542   4.121   0.863   7.894 -0.2129 -0.5007  0.3028
 5116TIP3    H139543   4.154   0.929   7.955  2.2336 -1.3174 -0.0235
 5116TIP3    H239544   4.144   0.895   7.807  1.8889 -2.1164  0.1793
 5117TIP3   OH239545   6.047   1.370   8.560  0.3580  0.3301 -0.2157
 5117TIP3    H139546   6.134   1.409   8.550  0.7482 -0.9342 -2.2998
 5117TIP3    H239547   5.989   1.445   8.570  1.4068  1.3400 -1.2671
 5118TIP3   OH239548   2.981   5.244   0.417 -0.2597 -0.1248 -0.5205
 5118TIP3    H139549   2.988   5.228   0.322 -0.7683  0.7082 -0.7021
 5118TIP3    H239550   2.977   5.156   0.455  1.1514 -0.5081 -1.1692
 5119TIP3   OH239551   0.952   1.729   8.359 -0.5589 -0.3718 -0.3356
 5119TIP3    H139552   1.009   1.800   8.331 -1.2807  0.0143 -0.8421
 5119TIP3    H239553   0.914   1.695   8.278 -0.1994 -1.3632 -0.1055
 5120TIP3   OH239554   3.636   5.567   8.503  0.4516 -0.8535  0.2704
 5120TIP3    H139555   3.573   5.508   8.463  1.4473 -2.4014  0.9132
 5120TIP3    H239556   3.584   5.624   8.560 -0.5246 -1.0735 -0.3894
 5121TIP3   OH239557   3.353   6.476   9.464  0.3362  0.3828  0.1611
 5121TIP3    H139558   3.319   6.544   9.405  0.6386  0.2360 -0.1821
 5121TIP3    H239559   3.349   6.516   9.551  2.8338  1.8160 -0.2810
 5122TIP3   OH239560   1.094   0.991   9.679 -0.6065 -0.7202 -0.3861
 5122TIP3    H139561   1.118   0.906   9.716 -0.4612 -1.1400 -1.4292
 5122TIP3    H239562   1.045   0.970   9.600  1.0266  0.1599 -1.6852
 5123TIP3   OH239563   2.941   7.213   7.135  0.3765 -0.5679 -0.1378
 5123TIP3    H139564   2.988   7.154   7.194  1.4006  1.1451  0.8243
 5123TIP3    H239565   2.864   7.241   7.186  0.4444 -0.2812 -0.1913
 5124TIP3   OH239566   6.811   6.050   7.394  0.0706  0.7147  0.5020
 5124TIP3    H139567   6.732   6.080   7.348 -0.6204 -1.8380 -0.1753
 5124TIP3    H239568   6.819   6.109   7.469 -2.6744  0.9201  0.7464
 5125TIP3   OH239569   2.741   5.182   2.719  0.5692 -0.0629  0.6884
 5125TIP3    H139570   2.786   5.232   2.787  2.7513  0.0755 -0.7493
 5125TIP3    H239571   2.797   5.107   2.703 -0.1170 -0.3261 -0.6397
 5126TIP3   OH239572   3.429   5.110   1.297 -0.6783  0.6511  0.2671
 5126TIP3    H139573   3.461   5.110   1.387  1.9907  0.9934 -0.6041
 5126TIP3    H239574   3.390   5.023   1.285 -1.3669  0.7095  1.7912
 5127TIP3   OH239575   3.411   1.514   9.681 -0.5765 -0.1191  0.1261
 5127TIP3    H139576   3.370   1.594   9.715 -0.0535  1.1420 -2.0030
 5127TIP3    H239577   3.394   1.517   9.587  1.2680 -1.4324 -0.3004
 5128TIP3   OH239578   2.689   5.162   9.493 -0.5807  0.2810 -0.5423
 5128TIP3    H139579   2.725   5.205   9.570  0.6732  1.0632 -1.5180
 5128TIP3    H239580   2.656   5.078   9.525 -0.4227  0.7384  0.8961
 5129TIP3   OH239581   0.662   3.180   8.221 -0.9330 -0.3951 -0.1483
 5129TIP3    H139582   0.644   3.225   8.138  0.3414  0.6069  0.0835
 5129TIP3    H239583   0.721   3.109   8.197  0.4874  0.6796  0.0351
 5130TIP3   OH239584   6.722   3.757   9.329  0.5944 -0.7186 -0.2112
 5130TIP3    H139585   6.781   3.740   9.256  2.4648  0.8738  0.8401
 5130TIP3    H239586   6.642   3.789   9.287  1.6932  0.3852 -1.5830
 5131TIP3   OH239587   5.367   7.343   7.493  0.0761  0.2293 -0.0889
 5131TIP3    H139588   5.379   7.265   7.548 -0.7592 -1.0552 -1.6361
 5131TIP3    H239589   5.366   7.309   7.403  1.5051  2.2559 -0.9572
 5132TIP3   OH239590   2.767   3.331   1.995  0.3350 -0.4001  0.0081
 5132TIP3    H139591   2.749   3.238   1.980 -1.8846  0.0055 -0.2590
 5132TIP3    H239592   2.778   3.337   2.090  0.6501 -0.9583  0.0142
 5133TIP3   OH239593   4.481   6.677   2.018 -0.0392  0.2304  0.5159
 5133TIP3    H139594   4.545   6.722   1.963 -0.6125 -0.2934 -0.6241
 5133TIP3    H239595   4.495   6.584   2.000  0.9730 -0.0939  2.6576
 5134TIP3   OH239596   5.945   6.149   0.866 -0.0876  0.2769  0.2141
 5134TIP3    H139597   5.943   6.054   0.852 -0.5211  0.0613  1.6065
 5134TIP3    H239598   5.897   6.162   0.947  0.2685  1.6713  0.2229
 5135TIP3   OH239599   0.406   5.239   1.808 -0.4604  0.5077 -0.0647
 5135TIP3    H139600   0.490   5.231   1.763  2.0059  4.3050  3.2147
 5135TIP3    H239601   0.362   5.312   1.765 -0.5830  0.6476  0.2933
 5136TIP3   OH239602   5.105   7.153   1.733  0.0518 -0.1189  0.1868
 5136TIP3    H139603   5.069   7.169   1.646 -1.0474 -0.6082  0.5288
 5136TIP3    H239604   5.029   7.130   1.786  0.8211 -0.7028  1.0675
 5137TIP3   OH239605   5.290   4.960   1.194  0.6449  0.4490 -0.3130
 5137TIP3    H139606   5.348   4.969   1.118  2.2511 -0.3454  0.7591
 5137TIP3    H239607   5.315   4.876   1.233 -1.3298  0.0243  0.1515
 5138TIP3   OH239608   3.100   4.200   8.932  0.2147 -0.1212 -0.3945
 5138TIP3    H139609   3.070   4.259   8.863  1.5557 -0.1818 -1.0729
 5138TIP3    H239610   3.092   4.112   8.894  1.0806 -0.1471 -0.5358
 5139TIP3   OH239611   4.272   0.909   8.174  0.2024  0.4371  0.6788
 5139TIP3    H139612   4.343   0.962   8.212  0.7043  1.0337 -0.9928
 5139TIP3    H239613   4.194   0.962   8.186  0.6192  1.3689 -0.5185
 5140TIP3   OH239614   5.297   1.697   0.758 -0.7238  0.0961  0.4044
 5140TIP3    H139615   5.285   1.659   0.671  0.7415 -0.2326  0.3192
 5140TIP3    H239616   5.214   1.682   0.802 -0.3549 -2.9240  0.2590
 5141TIP3   OH239617   0.383   2.945   1.541  0.5800 -0.0982 -0.1298
 5141TIP3    H139618   0.460   2.897   1.570  2.0993  1.6388 -1.0965
 5141TIP3    H239619   0.401   3.036   1.565 -1.8209  0.2012  0.8699
 5142TIP3   OH239620   1.421   1.911   8.195 -0.2071  0.4671  0.2052
 5142TIP3    H139621   1.404   1.915   8.289 -1.7766  1.9385 -0.1043
 5142TIP3    H239622   1.345   1.866   8.158  0.2999  0.0790 -0.3982
 5143TIP3   OH239623   0.839   2.448   1.374 -0.3808 -0.2345 -0.1795
 5143TIP3    H139624   0.804   2.438   1.463  0.6019 -0.2598  0.2160
 5143TIP3    H239625   0.823   2.363   1.333 -1.6064  0.0431 -0.3253
 5144TIP3   OH239626   0.544   1.788   9.455  0.0043 -0.3380  0.3367
 5144TIP3    H139627   0.452   1.803   9.475  0.5447  0.1376  2.8023
 5144TIP3    H239628   0.564   1.703   9.495  1.1199  0.5842  1.8777
 5145TIP3   OH239629   1.659   5.879   1.961  0.1754 -0.0256  0.3133
 5145TIP3    H139630   1.618   5.803   1.920  0.2334 -0.4220  0.9799
 5145TIP3    H239631   1.606   5.954   1.933  1.2856 -0.0077 -2.0291
 5146TIP3   OH239632   2.357   3.069   0.364 -0.2903  0.2354 -0.0525
 5146TIP3    H139633   2.435   3.047   0.415  0.6037  0.0887 -1.4324
 5146TIP3    H239634   2.293   3.099   0.429  1.2097  1.2210  1.0286
 5147TIP3   OH239635   0.693   4.243   9.195  0.2312 -0.2833  0.1405
 5147TIP3    H139636   0.744   4.316   9.159 -0.8545 -0.1812 -1.2461
 5147TIP3    H239637   0.749   4.167   9.183 -0.6747 -0.5786 -3.4774
 5148TIP3   OH239638   6.815   0.865   2.050 -0.0582  0.3907 -0.4294
 5148TIP3    H139639   6.845   0.774   2.051  0.8053  0.6337 -1.7383
 5148TIP3    H239640   6.843   0.901   2.134 -0.9175 -0.6955  0.3460
 5149TIP3   OH239641   2.656   0.604   0.539  0.1482  0.3484 -0.2826
 5149TIP3    H139642   2.673   0.695   0.567  0.7722  0.5986 -1.4080
 5149TIP3    H239643   2.724   0.586   0.474 -0.8708 -0.4123 -1.1786
 5150TIP3   OH239644   3.251   1.899   6.877 -0.3600 -0.3356 -0.6001
 5150TIP3    H139645   3.286   1.963   6.939 -2.1131  1.8886 -1.7137
 5150TIP3    H239646   3.324   1.881   6.818  0.5713 -0.4446  0.5588
 5151TIP3   OH239647   3.714   5.149   8.364  0.1650 -0.3653  0.0044
 5151TIP3    H139648   3.764   5.229   8.381 -0.0618 -0.1694 -0.2452
 5151TIP3    H239649   3.780   5.084   8.340  0.2320  0.1160 -1.1537
 5152TIP3   OH239650   5.986   6.757   7.033  0.3649 -0.4195 -0.4487
 5152TIP3    H139651   5.897   6.791   7.041  1.2208  2.4521 -1.7182
 5152TIP3    H239652   6.032   6.792   7.110  0.7554 -0.5757 -0.6086
 5153TIP3   OH239653   5.377   1.003   8.350 -0.0097 -0.4204  0.1720
 5153TIP3    H139654   5.340   0.916   8.362  1.2593 -0.9312  0.6004
 5153TIP3    H239655   5.448   0.990   8.286 -0.3283  0.4524 -0.3797
 5154TIP3   OH239656   5.962   7.425   1.591 -0.3784  0.6349  0.0620
 5154TIP3    H139657   5.889   7.365   1.610 -1.5338  1.1847 -2.2644
 5154TIP3    H239658   5.947   7.452   1.501  3.0195  0.4011 -0.6966
 5155TIP3   OH239659   4.891   3.962   0.383  0.0344 -0.3141 -0.2113
 5155TIP3    H139660   4.811   4.014   0.392 -0.9040 -1.9406  1.3918
 5155TIP3    H239661   4.942   3.984   0.461 -0.1502 -1.4028  0.2260
 5156TIP3   OH239662   4.086   1.175   1.068  0.6792 -0.4873  0.5741
 5156TIP3    H139663   4.096   1.239   0.998  1.9650 -1.4468 -0.1669
 5156TIP3    H239664   3.995   1.145   1.060  0.5475  0.0718 -0.1056
 5157TIP3   OH239665   1.479   1.208   0.268 -0.0272 -0.1217 -0.0237
 5157TIP3    H139666   1.486   1.205   0.363 -3.2765  0.4255  0.3624
 5157TIP3    H239667   1.509   1.296   0.243 -1.0415  0.4690  0.7722
 5158TIP3   OH239668   0.666   6.346   9.994 -0.2484  0.0059 -0.6073
 5158TIP3    H139669   0.600   6.388  10.050  0.3254  0.0510  0.0588
 5158TIP3    H239670   0.623   6.269   9.959 -0.7927  0.2688 -0.5309
 5159TIP3   OH239671   3.143   5.076   7.255  0.1740 -0.0314 -0.7979
 5159TIP3    H139672   3.226   5.069   7.208  0.9262 -2.1422  0.6638
 5159TIP3    H239673   3.168   5.069   7.348 -1.6501 -1.8367 -0.3641
 5160TIP3   OH239674   3.419   1.520   1.312  0.1207  0.4441  0.3507
 5160TIP3    H139675   3.418   1.604   1.266  1.8839 -0.5414 -1.6537
 5160TIP3    H239676   3.500   1.521   1.363  1.3744 -0.8364 -1.4756
 5161TIP3   OH239677   2.273   0.749   2.359 -0.8140 -0.7715  0.5273
 5161TIP3    H139678   2.279   0.818   2.294  0.4694 -0.5309  0.8713
 5161TIP3    H239679   2.351   0.696   2.345  0.4524  0.2954  2.9422
 5162TIP3   OH239680   2.946   1.469   0.834 -0.7356 -0.0234  0.0617
 5162TIP3    H139681   2.999   1.506   0.904 -1.9218 -0.2638  1.1144
 5162TIP3    H239682   2.960   1.374   0.840 -0.2742 -0.0004 -0.5141
 5163TIP3   OH239683   2.590   1.873   0.444 -0.0974 -0.8866 -0.4800
 5163TIP3    H139684   2.617   1.794   0.490 -1.5704 -1.4495 -0.5161
 5163TIP3    H239685   2.671   1.918   0.423  0.6834 -1.0907  1.8032
 5164TIP3   OH239686   1.155   5.302   0.324 -0.5305  0.0763 -0.1292
 5164TIP3    H139687   1.135   5.295   0.231  0.1775  0.3402 -0.3074
 5164TIP3    H239688   1.112   5.227   0.364  0.6715 -1.0720 -0.9301
 5165TIP3   OH239689   1.119   2.907   6.983 -0.2597  0.3257  0.3223
 5165TIP3    H139690   1.212   2.884   6.984 -0.6062 -1.1619  0.2771
 5165TIP3    H239691   1.075   2.831   7.019 -1.5294  0.7202 -0.3280
 5166TIP3   OH239692   7.038   2.754   9.122 -0.1508  0.0117 -0.6544
 5166TIP3    H139693   7.060   2.699   9.197  0.3510  1.9171  0.6619
 5166TIP3    H239694   6.943   2.746   9.114 -0.2562  0.0442  0.4135
 5167TIP3   OH239695   6.304   4.919   2.170  0.4193 -0.2505  0.0189
 5167TIP3    H139696   6.291   4.825   2.170 -0.3693 -0.1489 -0.0147
 5167TIP3    H239697   6.399   4.931   2.171  0.5196 -1.0428  0.6430
 5168TIP3   OH239698   1.588   6.933   1.598 -0.7771  0.2372 -0.2792
 5168TIP3    H139699   1.602   6.838   1.596  2.0780  0.5497 -1.4867
 5168TIP3    H239700   1.663   6.967   1.647 -1.1608  1.9352 -0.7992
 5169TIP3   OH239701   1.610   2.576   9.376 -0.0786 -0.1233 -0.2675
 5169TIP3    H139702   1.550   2.507   9.348 -0.7230  0.0819  0.5583
 5169TIP3    H239703   1.675   2.530   9.430  0.1255 -0.2458 -0.6159
 5170TIP3   OH239704   7.108   0.351   8.771  0.0651 -0.3730 -0.1624
 5170TIP3    H139705   7.017   0.329   8.750 -0.0125  0.2901 -0.5380
 5170TIP3    H239706   7.106   0.378   8.863  0.3037 -2.6973  0.5745
 5171TIP3   OH239707   3.323   4.662   3.029 -0.1371 -0.4808  0.2024
 5171TIP3    H139708   3.250   4.710   3.068 -0.5645 -0.3225 -0.7605
 5171TIP3    H239709   3.394   4.725   3.024  0.8063 -1.1497  3.0171
 5172TIP3   OH239710   5.738   3.324   8.476 -0.2444 -0.0590 -0.1062
 5172TIP3    H139711   5.644   3.333   8.460 -0.3684 -0.0051  0.5841
 5172TIP3    H239712   5.746   3.237   8.516  0.0475 -0.2126 -0.5007
 5173TIP3   OH239713   1.152   7.230   8.514  0.1661  0.4697  0.0288
 5173TIP3    H139714   1.172   7.150   8.465  1.2830  1.6417 -1.5522
 5173TIP3    H239715   1.228   7.242   8.571  0.1867  0.5960 -0.0239
 5174TIP3   OH239716   3.900   2.315   6.926  0.2408  0.4052  0.1726
 5174TIP3    H139717   3.823   2.346   6.974  0.9660 -1.7049  2.9530
 5174TIP3    H239718   3.973   2.363   6.965  0.6021  0.8241 -0.9691
 5175TIP3   OH239719   4.660   3.040   9.922 -0.4883 -0.4799 -0.3693
 5175TIP3    H139720   4.576   2.999   9.903  0.2407 -1.7672 -0.9999
 5175TIP3    H239721   4.703   2.978   9.981 -0.5545  0.8800  1.1844
 5176TIP3   OH239722   3.953   6.039   1.197 -0.2913 -0.2711  0.1205
 5176TIP3    H139723   3.887   6.106   1.180 -1.9459 -2.1962 -1.7619
 5176TIP3    H239724   4.026   6.085   1.237 -2.4357  2.1325  1.5220
 5177TIP3   OH239725   4.125   2.599   0.072  0.0674 -0.2646  0.4735
 5177TIP3    H139726   4.215   2.631   0.085 -0.5930  1.3686  1.2197
 5177TIP3    H239727   4.096   2.574   0.160 -0.9988  1.5005  0.6811
 5178TIP3   OH239728   6.900   2.071   8.326  0.1159 -0.1946  0.1908
 5178TIP3    H139729   6.891   2.152   8.275  2.5074 -0.2300 -0.3950
 5178TIP3    H239730   6.978   2.084   8.378  0.4238 -2.0468  0.2624
 5179TIP3   OH239731   1.350   0.115   9.023 -0.1881  0.0883 -0.3188
 5179TIP3    H139732   1.413   0.172   9.066 -0.6664  0.0062  0.5068
 5179TIP3    H239733   1.294   0.082   9.094  0.0583 -1.3801 -0.7666
 5180TIP3   OH239734   4.362   6.369   1.310  0.0044  0.5401 -0.0524
 5180TIP3    H139735   4.433   6.418   1.269 -0.3974  0.2036 -1.1968
 5180TIP3    H239736   4.348   6.412   1.395  2.5252 -0.3004  0.8620
 5181TIP3   OH239737   0.961   0.778   2.678  0.0487  0.5304 -0.3216
 5181TIP3    H139738   0.900   0.851   2.681  1.4006  1.7732 -1.3442
 5181TIP3    H239739   0.976   0.763   2.584 -1.0133 -1.8252 -0.1917
 5182TIP3   OH239740   2.638   3.738   8.835  0.0381 -0.5120 -0.7073
 5182TIP3    H139741   2.574   3.680   8.875  1.3566 -3.0481 -2.0068
 5182TIP3    H239742   2.723   3.702   8.862  0.9848  2.0814  0.0801
 5183TIP3   OH239743   2.459   1.182   0.305  0.1784  0.3316  0.4069
 5183TIP3    H139744   2.416   1.200   0.388  2.3958  1.8490  1.3246
 5183TIP3    H239745   2.428   1.251   0.246  0.3340  0.6429  0.6822
 5184TIP3   OH239746   3.758   5.798   0.604 -0.8599 -0.2356 -0.4706
 5184TIP3    H139747   3.797   5.843   0.529 -0.1816 -0.5015 -0.2783
 5184TIP3    H239748   3.809   5.827   0.679 -1.3029 -0.2597 -0.1554
 5185TIP3   OH239749   5.420   6.115   9.546  0.1810 -0.2757  0.9012
 5185TIP3    H139750   5.367   6.042   9.511  0.3917 -0.4287  0.8995
 5185TIP3    H239751   5.510   6.082   9.543  0.2843  0.0152  0.8298
 5186TIP3   OH239752   6.459   4.885   9.630 -0.3498  0.7933  0.3131
 5186TIP3    H139753   6.423   4.973   9.626  0.2055  0.9964 -2.6833
 5186TIP3    H239754   6.503   4.873   9.545 -1.8865 -2.9678 -0.1629
 5187TIP3   OH239755   1.359   3.918   7.590  0.2307 -0.3466  0.1882
 5187TIP3    H139756   1.351   4.011   7.570 -2.3450 -0.2844  1.0665
 5187TIP3    H239757   1.312   3.908   7.673  0.6123 -2.4019  0.2041
 5188TIP3   OH239758   3.805   2.924   7.936 -0.2285  0.5606 -0.0832
 5188TIP3    H139759   3.863   2.963   7.871  2.2554 -1.6685  0.6169
 5188TIP3    H239760   3.830   2.966   8.018 -1.4858  1.4258 -0.1074
 5189TIP3   OH239761   5.400   1.397   7.963 -0.0949  0.3176 -0.1058
 5189TIP3    H139762   5.456   1.470   7.989  1.7220 -0.8611 -0.5236
 5189TIP3    H239763   5.411   1.333   8.033 -0.9031  0.0393 -0.2288
 5190TIP3   OH239764   5.010   6.421   0.159 -0.3392 -0.1228  0.6736
 5190TIP3    H139765   5.054   6.368   0.093 -0.1354  2.2605 -1.2379
 5190TIP3    H239766   5.068   6.420   0.234  1.5754  0.5122 -0.7310
 5191TIP3   OH239767   5.277   3.812   8.678  0.4355 -0.3834  0.0022
 5191TIP3    H139768   5.324   3.845   8.754  1.2985  1.3038 -1.2034
 5191TIP3    H239769   5.186   3.837   8.693  0.8721  1.5546 -0.2991
 5192TIP3   OH239770   6.124   5.861   8.319 -0.1313 -0.3585 -0.3047
 5192TIP3    H139771   6.088   5.773   8.319  0.4190 -0.5824 -0.4652
 5192TIP3    H239772   6.134   5.884   8.227  0.2074 -0.3241 -0.2602
 5193TIP3   OH239773   0.964   6.916   9.603 -0.1256  0.0714 -0.6231
 5193TIP3    H139774   0.920   6.992   9.563 -2.3230 -0.1236  1.2198
 5193TIP3    H239775   0.893   6.862   9.637  1.4797 -0.3292  2.4964
 5194TIP3   OH239776   6.200   0.327   0.962  0.1457  0.1719 -0.1596
 5194TIP3    H139777   6.206   0.246   1.013  1.4466  0.2125 -0.2106
 5194TIP3    H239778   6.141   0.305   0.890  1.0993 -1.0026 -0.6285
 5195TIP3   OH239779   6.671   2.344   0.543 -0.2471  0.6858  0.0479
 5195TIP3    H139780   6.665   2.280   0.614  0.6891  0.6975  0.1452
 5195TIP3    H239781   6.700   2.293   0.467 -1.0890  0.7030 -0.3045
 5196TIP3   OH239782   1.831   0.895   0.917  0.3146  0.3770  0.4331
 5196TIP3    H139783   1.826   0.802   0.896 -1.0293  0.5467 -0.0926
 5196TIP3    H239784   1.896   0.900   0.987  1.6286 -0.7391 -0.6604
 5197TIP3   OH239785   5.070   5.872   2.066  0.8793  0.1135 -0.0386
 5197TIP3    H139786   5.029   5.921   1.995  0.1286 -0.4644 -0.0162
 5197TIP3    H239787   5.145   5.925   2.092 -1.3331  2.5785  1.7612
 5198TIP3   OH239788   3.365   6.351   9.006  0.1776  0.6478 -0.0835
 5198TIP3    H139789   3.393   6.288   8.939 -0.8712  1.3935 -1.2587
 5198TIP3    H239790   3.429   6.422   9.001  0.5303  0.3604  0.2450
 5199TIP3   OH239791   2.756   1.924   7.255  0.2067  0.1100  0.2438
 5199TIP3    H139792   2.668   1.939   7.221  0.2320 -2.0031 -0.9207
 5199TIP3    H239793   2.743   1.873   7.334  0.3798 -0.4854 -0.1057
 5200TIP3   OH239794   0.087   1.429   0.004 -0.6246 -0.1687  0.0377
 5200TIP3    H139795   0.065   1.336   0.014 -1.2187  0.0370  0.7798
 5200TIP3    H239796   0.003   1.471  -0.016 -0.1883  0.0751 -1.3578
 5201TIP3   OH239797   7.371   1.987   8.303  0.0121  0.5690 -0.3773
 5201TIP3    H139798   7.336   1.988   8.214 -1.1928  1.3193  0.0856
 5201TIP3    H239799   7.462   2.015   8.294  0.1147 -0.0548 -1.4419
 5202TIP3   OH239800   1.848   2.389   1.105 -0.1134  0.2203 -0.6241
 5202TIP3    H139801   1.783   2.459   1.101 -0.0728  0.2340 -1.0633
 5202TIP3    H239802   1.932   2.434   1.096 -0.0093  0.2593  0.4644
 5203TIP3   OH239803   3.573   5.778   9.705  0.3590  0.4186  0.1773
 5203TIP3    H139804   3.664   5.767   9.734 -0.1929 -0.6478  1.6665
 5203TIP3    H239805   3.538   5.844   9.764 -0.8704 -1.9976  2.3659
 5204TIP3   OH239806   1.178   0.245   9.396  0.3984 -0.2358 -0.3375
 5204TIP3    H139807   1.178   0.327   9.346 -1.7413  0.0906  0.1379
 5204TIP3    H239808   1.237   0.262   9.470  0.2063  0.7738 -0.4038
 5205TIP3   OH239809   1.909   6.700   0.460  0.3559  0.2486  0.1524
 5205TIP3    H139810   2.000   6.714   0.486  0.8743 -0.8649 -0.9331
 5205TIP3    H239811   1.898   6.755   0.382  0.2039  0.1187  0.0819
 5206TIP3   OH239812   0.474   5.539   7.993  0.6987 -0.3120 -0.6540
 5206TIP3    H139813   0.490   5.490   7.912 -1.0218  0.6466 -1.6362
 5206TIP3    H239814   0.400   5.596   7.972  0.7065  0.5238  1.3785
 5207TIP3   OH239815   6.940   1.835   9.018  0.1084 -0.3258  0.1766
 5207TIP3    H139816   6.882   1.802   8.949 -1.0519 -0.4838  1.1880
 5207TIP3    H239817   6.881   1.854   9.091  1.4395 -1.4363  1.6008
 5208TIP3   OH239818   5.876   5.607   7.241  0.0254 -0.4279  0.1591
 5208TIP3    H139819   5.955   5.642   7.200 -0.5363  1.4997  0.6336
 5208TIP3    H239820   5.816   5.590   7.168  0.0074  0.4195 -0.0331
 5209TIP3   OH239821   3.551   5.143   1.600  0.6644  0.1464 -0.5535
 5209TIP3    H139822   3.482   5.088   1.639 -0.1135  0.2591 -1.7074
 5209TIP3    H239823   3.619   5.147   1.667 -0.0694 -0.7006  0.2811
 5210TIP3   OH239824   7.094   6.225   9.836  0.0627  0.1260  0.6994
 5210TIP3    H139825   7.118   6.168   9.909 -0.3697 -0.6843  0.2109
 5210TIP3    H239826   7.178   6.253   9.799  0.3008  0.8152  1.6916
 5211TIP3   OH239827   3.346   1.806   2.000 -0.2769  0.1958  0.2298
 5211TIP3    H139828   3.431   1.818   2.041 -0.3991 -0.9412  0.8500
 5211TIP3    H239829   3.365   1.803   1.906  0.3589 -0.0309  0.3649
 5212TIP3   OH239830   6.334   4.943   1.240 -0.3744  0.0484 -0.0230
 5212TIP3    H139831   6.416   4.922   1.285 -0.7466  0.2666  0.7841
 5212TIP3    H239832   6.309   4.861   1.197 -0.8005 -0.6567  1.4815
 5213TIP3   OH239833   6.817   2.255   2.564  0.1911 -0.5326  0.1253
 5213TIP3    H139834   6.775   2.340   2.556 -0.3010 -0.9249 -1.9006
 5213TIP3    H239835   6.910   2.274   2.572  0.1893  0.1941 -1.2929
 5214TIP3   OH239836   5.180   5.167   0.531  0.2720  0.0702  0.5497
 5214TIP3    H139837   5.110   5.124   0.483  0.4530  1.2782 -0.8825
 5214TIP3    H239838   5.259   5.117   0.511  0.1787  0.0001  0.3595
 5215TIP3   OH239839   3.837   2.831   2.653  0.1650  0.1880  0.0977
 5215TIP3    H139840   3.867   2.825   2.744 -0.2581 -0.4068  0.2019
 5215TIP3    H239841   3.903   2.782   2.604 -0.2557 -0.5398  0.2433
 5216TIP3   OH239842   2.910   1.798   8.682  0.1172  0.3105 -0.1762
 5216TIP3    H139843   2.814   1.792   8.687 -0.0630  1.9087 -1.0958
 5216TIP3    H239844   2.930   1.783   8.589  0.8298 -0.6369  0.1166
 5217TIP3   OH239845   1.089   3.519   1.314  0.7559  0.3887  0.4232
 5217TIP3    H139846   1.088   3.575   1.236  1.1044  0.4117  0.4331
 5217TIP3    H239847   1.179   3.488   1.320  0.6426  0.0956  0.6108
 5218TIP3   OH239848   5.811   2.065   0.975  0.1548 -0.5209 -0.7898
 5218TIP3    H139849   5.903   2.045   0.992 -0.0528  0.2467  1.6939
 5218TIP3    H239850   5.767   1.980   0.980  0.2869 -0.5352  2.0177
 5219TIP3   OH239851   1.520   7.065   8.241  0.2985 -0.4322  0.5389
 5219TIP3    H139852   1.470   7.133   8.287  0.3260 -0.1086  0.0908
 5219TIP3    H239853   1.553   7.108   8.162  0.2916 -0.9741  0.2373
 5220TIP3   OH239854   6.502   6.651   2.187  0.4443  0.4105 -0.8101
 5220TIP3    H139855   6.508   6.724   2.248  0.7684  2.6216 -3.2875
 5220TIP3    H239856   6.479   6.692   2.103  0.1581 -2.4154 -2.2378
 5221TIP3   OH239857   2.211   5.197   9.346 -0.0948 -0.2485  0.2566
 5221TIP3    H139858   2.222   5.187   9.441 -0.7697  0.0425  0.3697
 5221TIP3    H239859   2.248   5.283   9.326 -1.8262  0.6180  0.5986
 5222TIP3   OH239860   2.475   2.018   9.034  0.0992 -0.2266 -0.3784
 5222TIP3    H139861   2.472   1.928   9.001 -0.8175 -0.2801 -0.1744
 5222TIP3    H239862   2.414   2.018   9.108 -0.7186  0.8284 -1.0343
 5223TIP3   OH239863   7.369   0.752   2.298 -0.4714  0.3165  0.0980
 5223TIP3    H139864   7.439   0.814   2.320 -0.4892  1.7530 -3.3926
 5223TIP3    H239865   7.288   0.802   2.308 -0.8295 -0.4301  1.1631
 5224TIP3   OH239866   4.434   6.443   1.589 -0.1737 -0.0473 -0.1851
 5224TIP3    H139867   4.395   6.358   1.609 -1.4483  0.7133  0.7520
 5224TIP3    H239868   4.390   6.504   1.649  0.9078  1.2256 -0.6382
 5225TIP3   OH239869   1.977   4.750   2.109  0.5106 -0.2519 -0.4156
 5225TIP3    H139870   1.903   4.792   2.064  0.5078  0.1799 -0.0198
 5225TIP3    H239871   2.044   4.742   2.041  0.3815  0.0772 -0.5883
 5226TIP3   OH239872   1.872   4.536   8.039  0.3667 -0.5068 -0.7863
 5226TIP3    H139873   1.957   4.502   8.068 -0.1605 -1.7740 -0.6458
 5226TIP3    H239874   1.866   4.510   7.947  0.0017 -0.7279 -0.7053
 5227TIP3   OH239875   2.308   4.150   2.979 -0.4283 -0.3772  0.5986
 5227TIP3    H139876   2.297   4.227   2.923 -2.3327  1.6932  3.5115
 5227TIP3    H239877   2.238   4.091   2.952 -0.3319 -0.1347 -0.2183
 5228TIP3   OH239878   0.678   4.245   8.517  0.5842  0.8192  0.2232
 5228TIP3    H139879   0.606   4.188   8.494  1.0160  0.7793 -1.0716
 5228TIP3    H239880   0.702   4.219   8.606 -0.0444 -0.1411  0.1181
 5229TIP3   OH239881   4.680   4.018   2.653 -0.1813 -0.7161 -0.0133
 5229TIP3    H139882   4.734   4.018   2.733  0.2620 -0.6779 -0.3080
 5229TIP3    H239883   4.729   4.074   2.592 -1.4740  0.8744  0.3280
 5230TIP3   OH239884   1.295   0.482   2.705 -0.1794 -0.2336  0.0091
 5230TIP3    H139885   1.350   0.556   2.680  1.6989 -1.8740 -0.9755
 5230TIP3    H239886   1.304   0.476   2.800  0.8323 -0.0376 -0.0626
 5231TIP3   OH239887   0.108   4.944   9.127  0.2944  0.3868 -0.0813
 5231TIP3    H139888   0.189   4.895   9.113  1.7210  2.1650  1.4301
 5231TIP3    H239889   0.103   5.003   9.051 -0.6963 -1.0386 -1.1878
 5232TIP3   OH239890   5.434   5.248   9.530 -0.1851 -0.1600  0.0666
 5232TIP3    H139891   5.356   5.265   9.477 -1.0594  0.9133  1.6261
 5232TIP3    H239892   5.454   5.156   9.514  0.2593  0.3535 -2.9404
 5233TIP3   OH239893   2.723   5.836   6.575 -0.0339 -0.0283 -0.2977
 5233TIP3    H139894   2.645   5.882   6.604 -0.6225 -1.2915  0.1906
 5233TIP3    H239895   2.789   5.905   6.563 -1.6992  1.3310 -2.5683
 5234TIP3   OH239896   5.476   1.440   9.496 -0.4446  0.2975  0.0406
 5234TIP3    H139897   5.556   1.391   9.513  0.3710  1.4817 -0.2964
 5234TIP3    H239898   5.452   1.417   9.406 -0.9151 -0.6139  0.3773
 5235TIP3   OH239899   3.864   2.234   0.652  0.1974  0.5068  0.3475
 5235TIP3    H139900   3.936   2.174   0.631  0.5431  0.9446  0.2823
 5235TIP3    H239901   3.873   2.250   0.746 -0.4919 -0.3187  0.5724
 5236TIP3   OH239902   3.443   5.191   0.856  0.5213  0.2863  0.0948
 5236TIP3    H139903   3.476   5.220   0.941 -0.8785  1.4011  0.3014
 5236TIP3    H239904   3.362   5.145   0.875  0.6795 -0.3049 -0.5824
 5237TIP3   OH239905   2.209   5.445   9.553 -0.5849 -0.1834  0.0992
 5237TIP3    H139906   2.121   5.448   9.590 -1.8547 -1.4773 -2.5434
 5237TIP3    H239907   2.217   5.525   9.502  0.1452  0.3407  1.0013
 5238TIP3   OH239908   5.163   1.303   0.626 -0.2473 -0.3206  0.3231
 5238TIP3    H139909   5.176   1.395   0.605  0.5988 -0.6708 -0.7898
 5238TIP3    H239910   5.176   1.298   0.720 -0.7684  0.7643  0.4694
 5239TIP3   OH239911   4.385   0.458   1.878  0.3117 -0.1398 -0.0073
 5239TIP3    H139912   4.382   0.539   1.827  1.8602  0.0916  0.2193
 5239TIP3    H239913   4.349   0.392   1.820  1.6015  0.2092 -1.2593
 5240TIP3   OH239914   3.790   7.082   1.593 -0.1255  0.2335  0.2673
 5240TIP3    H139915   3.782   7.065   1.499 -2.3251  0.9211  0.2631
 5240TIP3    H239916   3.743   7.165   1.606  0.4310  0.3186  1.9262
 5241TIP3   OH239917   2.022   7.101   8.184 -0.5620 -0.2555 -0.5435
 5241TIP3    H139918   2.102   7.053   8.160 -1.3846 -1.3773 -1.1758
 5241TIP3    H239919   2.042   7.139   8.269  0.0868 -1.9012  0.0915
 5242TIP3   OH239920   3.643   1.188   7.145 -0.3225 -0.4827  0.1314
 5242TIP3    H139921   3.715   1.246   7.120  0.1064  0.8090  3.7098
 5242TIP3    H239922   3.678   1.136   7.217 -2.7730 -0.0937  1.7240
 5243TIP3   OH239923   2.829   2.902   2.182  0.3083  0.4244  0.0830
 5243TIP3    H139924   2.856   2.839   2.248  0.1234  1.5572  1.2786
 5243TIP3    H239925   2.910   2.923   2.135  0.5530  0.0271  0.3238
 5244TIP3   OH239926   5.892   2.058   8.669  0.0191 -0.0508  0.2641
 5244TIP3    H139927   5.928   2.111   8.740 -1.4136 -0.4553  1.3479
 5244TIP3    H239928   5.883   2.119   8.596 -1.2336  1.1589  1.3612
 5245TIP3   OH239929   4.381   6.890   8.957 -0.1967  0.2996 -0.1796
 5245TIP3    H139930   4.294   6.930   8.967 -0.2361  0.3932 -0.8662
 5245TIP3    H239931   4.442   6.963   8.970 -0.2362  0.3407 -0.2256
 5246TIP3   OH239932   1.817   7.332   1.747 -0.4868 -0.1522  0.0290
 5246TIP3    H139933   1.886   7.276   1.712 -2.5539 -2.9588  0.1124
 5246TIP3    H239934   1.776   7.370   1.669 -0.8789 -1.1076 -0.2499
 5247TIP3   OH239935   4.596   6.191   9.367  0.0841 -0.4224  0.1993
 5247TIP3    H139936   4.644   6.195   9.449  0.5789 -1.4159 -0.0240
 5247TIP3    H239937   4.634   6.116   9.321  0.4169  0.6366 -1.3169
 5248TIP3   OH239938   3.123   3.905   8.234 -1.2438 -0.0110  0.2622
 5248TIP3    H139939   3.193   3.884   8.172 -1.0746 -0.3163  0.5560
 5248TIP3    H239940   3.155   3.981   8.282  0.2086 -1.8521  2.4403
 5249TIP3   OH239941   3.827   6.234   8.971  0.0123 -0.0514  0.1146
 5249TIP3    H139942   3.773   6.155   8.968 -0.6644  0.3835  0.5760
 5249TIP3    H239943   3.819   6.271   8.883  0.1797 -0.3901 -0.0468
 5250TIP3   OH239944   2.574   4.069   7.476  0.2757  0.1765 -0.3053
 5250TIP3    H139945   2.663   4.094   7.454  0.5731 -1.8418 -1.7508
 5250TIP3    H239946   2.578   4.040   7.567  1.6898 -2.0216 -0.9766
 5251TIP3   OH239947   7.398   1.074   8.678  0.3898  0.2132  0.4049
 5251TIP3    H139948   7.394   1.166   8.651 -0.3477  0.4643  1.3022
 5251TIP3    H239949   7.361   1.026   8.605 -0.9874  0.8138  0.6827
 5252TIP3   OH239950   0.853   0.048   8.152  0.3214 -0.8354 -0.1127
 5252TIP3    H139951   0.860   0.125   8.209  0.1645 -1.8388  1.3175
 5252TIP3    H239952   0.934  -0.000   8.166  0.7611 -0.5720 -1.5932
 5253TIP3   OH239953   4.833   7.479   7.729  0.1555 -0.4368  0.0113
 5253TIP3    H139954   4.818   7.573   7.741 -1.2821 -0.5745 -0.4497
 5253TIP3    H239955   4.918   7.463   7.768 -0.4444  0.7012  1.9071
 5254TIP3   OH239956   4.702   4.574   7.602 -0.0420 -0.1770  0.2810
 5254TIP3    H139957   4.686   4.607   7.513  0.4890  0.7173  0.5071
 5254TIP3    H239958   4.644   4.626   7.658  0.5228  0.1279  0.5954
 5255TIP3   OH239959   5.650   0.355   1.836  0.5011  0.2544 -0.0816
 5255TIP3    H139960   5.686   0.268   1.819 -2.5650 -1.0259 -0.5369
 5255TIP3    H239961   5.637   0.358   1.930  0.7648  0.2975 -0.0459
 5256TIP3   OH239962   2.212   6.252   8.467  0.1076 -0.1389 -0.2550
 5256TIP3    H139963   2.199   6.195   8.542  3.7168 -1.3404 -0.3702
 5256TIP3    H239964   2.191   6.340   8.500  0.4375 -0.7817  1.7896
 5257TIP3   OH239965   4.338   2.314   1.383  0.0192  0.2333  0.7479
 5257TIP3    H139966   4.287   2.380   1.336 -0.9246  0.9778  2.7180
 5257TIP3    H239967   4.354   2.246   1.318 -3.0912  0.1680 -0.1223
 5258TIP3   OH239968   3.183   5.956   0.261 -0.1367  0.5505 -0.6677
 5258TIP3    H139969   3.189   5.944   0.356  2.1387 -0.6246 -0.9006
 5258TIP3    H239970   3.170   6.050   0.249 -0.4179  0.7239  0.7826
 5259TIP3   OH239971   3.358   3.655   9.499  0.1788  0.2509  0.3264
 5259TIP3    H139972   3.450   3.683   9.496 -0.2320  1.5887 -0.9645
 5259TIP3    H239973   3.330   3.653   9.407 -1.2444  0.4728  0.7274
 5260TIP3   OH239974   2.572   1.453   7.225 -0.5838 -0.2296  0.7149
 5260TIP3    H139975   2.516   1.395   7.174  0.0142  0.4568 -0.8170
 5260TIP3    H239976   2.627   1.496   7.159 -0.5035  1.5089  1.8514
 5261TIP3   OH239977   4.827   3.709   7.061  0.2048 -0.5346 -0.6405
 5261TIP3    H139978   4.757   3.644   7.067  2.2710 -2.8150  0.7811
 5261TIP3    H239979   4.782   3.793   7.064 -2.4504 -1.8810  0.7137
 5262TIP3   OH239980   2.318   5.263   2.476  0.1265  0.2769 -0.6368
 5262TIP3    H139981   2.279   5.348   2.456 -0.7446  0.0145 -0.0859
 5262TIP3    H239982   2.406   5.284   2.508 -0.6819  1.1151  1.1557
 5263TIP3   OH239983   5.966   1.872   0.813  0.6198 -0.7559  0.2668
 5263TIP3    H139984   6.002   1.803   0.870  1.1880 -1.9306 -1.4277
 5263TIP3    H239985   5.874   1.850   0.805  0.6041 -0.7716  0.4876
 5264TIP3   OH239986   5.957   7.117   0.617 -0.0904  0.0141 -0.1876
 5264TIP3    H139987   6.006   7.050   0.665  2.3680  1.7543 -0.0924
 5264TIP3    H239988   6.024   7.173   0.578 -2.0347  1.7985 -1.1829
 5265TIP3   OH239989   0.071   4.479   0.283 -0.1645 -0.8399  0.3496
 5265TIP3    H139990   0.046   4.480   0.191 -1.7109 -3.5609  0.6201
 5265TIP3    H239991  -0.005   4.516   0.329  0.5248  0.3399  0.5484
 5266TIP3   OH239992   2.252   0.366   1.377 -0.3569 -0.2940  1.0060
 5266TIP3    H139993   2.247   0.431   1.306  0.0679 -0.6058  0.6843
 5266TIP3    H239994   2.335   0.321   1.362 -0.2863 -0.3963  1.6826
 5267TIP3   OH239995   0.758   5.935   7.201 -0.1753  0.3271  0.2792
 5267TIP3    H139996   0.784   6.014   7.247 -0.3706  0.4311  0.2143
 5267TIP3    H239997   0.840   5.896   7.171  0.2129 -1.2974  3.1802
 5268TIP3   OH239998   6.388   0.019   1.939 -0.3699  0.2674  0.3212
 5268TIP3    H139999   6.372   0.084   2.008  1.2034  0.3424  0.6593
 5268TIP3    H240000   6.304   0.009   1.895 -0.8435  1.9224  0.7894
 5269TIP3   OH240001   5.073   0.396   7.465 -0.6483 -0.3837 -0.5141
 5269TIP3    H140002   5.129   0.400   7.388 -1.5853 -0.1183 -1.2011
 5269TIP3    H240003   5.029   0.311   7.458 -1.8703  0.2726 -1.1075
 5270TIP3   OH240004   3.122   0.140   1.815  0.5702  0.4986  0.4461
 5270TIP3    H140005   3.141   0.099   1.900  4.0993  0.7070 -0.1020
 5270TIP3    H240006   3.109   0.232   1.836 -2.2819  0.0734  1.0609
 5271TIP3   OH240007   5.358   4.789   8.442  0.0462  0.7034 -0.0096
 5271TIP3    H140008   5.274   4.745   8.431  0.6377 -1.0278  1.6701
 5271TIP3    H240009   5.422   4.718   8.446  1.2851  1.8091  1.0627
 5272TIP3   OH240010   1.120   6.502   2.056  0.4225 -0.0538  0.4474
 5272TIP3    H140011   1.151   6.436   1.994  0.6777  1.0226 -0.6038
 5272TIP3    H240012   1.179   6.576   2.043  0.3735  0.2660  1.8710
 5273TIP3   OH240013   5.594   2.031   9.870  0.2671 -0.3501 -0.3845
 5273TIP3    H140014   5.669   1.985   9.832 -0.2379  1.5209 -4.1147
 5273TIP3    H240015   5.613   2.124   9.855 -1.1438  0.4154  2.0349
 5274TIP3   OH240016   1.961   3.919   1.747 -0.6710 -0.1166 -0.1186
 5274TIP3    H140017   1.955   3.832   1.787  0.1055  0.1829  0.6733
 5274TIP3    H240018   2.054   3.930   1.728 -0.5265  1.1021  1.1046
 5275TIP3   OH240019   0.434   6.647   1.569 -0.0817  0.3931 -0.0942
 5275TIP3    H140020   0.524   6.654   1.601  0.2116  0.2564 -0.8699
 5275TIP3    H240021   0.381   6.688   1.637  0.4067 -0.9129  1.1257
 5276TIP3   OH240022   7.367   0.672   9.562  0.2886 -0.1678  0.5629
 5276TIP3    H140023   7.339   0.760   9.588  0.5855 -0.6351  2.5812
 5276TIP3    H240024   7.319   0.613   9.619  1.0185 -1.2668  0.0747
 5277TIP3   OH240025   0.120   5.791   2.358  0.1309  0.2518 -0.0974
 5277TIP3    H140026   0.049   5.809   2.296  0.5724  0.0252 -0.6735
 5277TIP3    H240027   0.096   5.707   2.397 -0.3896  0.6214  0.3906
 5278TIP3   OH240028   6.081   2.691   8.509  0.0049 -0.0294 -0.5264
 5278TIP3    H140029   6.140   2.697   8.585 -1.2688  1.5054  0.3918
 5278TIP3    H240030   6.020   2.621   8.532 -0.4355  0.4941 -0.0743
 5279TIP3   OH240031   6.882   2.550   0.624 -0.3876  0.5855 -0.4768
 5279TIP3    H140032   6.844   2.534   0.538 -0.4277  1.0986 -0.5567
 5279TIP3    H240033   6.855   2.639   0.646  0.5253  0.8551 -0.4076
 5280TIP3   OH240034   4.051   6.813   2.204 -0.7973 -0.2684 -0.5957
 5280TIP3    H140035   4.111   6.876   2.163 -0.9966 -1.5789 -3.1007
 5280TIP3    H240036   4.076   6.813   2.296 -0.8236  3.4718 -0.4407
 5281TIP3   OH240037   3.990   1.857   2.576 -0.0185 -0.1169 -0.3892
 5281TIP3    H140038   3.992   1.848   2.671  0.2310  2.0070 -0.1485
 5281TIP3    H240039   3.898   1.841   2.552 -0.2179 -0.0013  0.2870
 5282TIP3   OH240040   0.943   6.166   0.717 -0.1270 -0.4641  0.0998
 5282TIP3    H140041   0.953   6.088   0.772  1.5776 -0.4289 -0.1335
 5282TIP3    H240042   0.937   6.238   0.778 -0.9840 -0.6888  0.2957
 5283TIP3   OH240043   1.886   4.626   0.209 -0.1198  0.3676  0.2284
 5283TIP3    H140044   1.912   4.673   0.288 -2.5128  1.5505  0.3925
 5283TIP3    H240045   1.858   4.540   0.241 -0.4439  0.6096  0.6163
 5284TIP3   OH240046   2.044   4.812   8.376 -0.0968  0.4435 -0.1948
 5284TIP3    H140047   1.974   4.759   8.414 -1.0613  0.6394 -1.6098
 5284TIP3    H240048   2.110   4.818   8.445 -0.3785 -1.7959  0.3345
 5285TIP3   OH240049   5.959   4.304   7.968 -0.2330 -0.0498  0.2577
 5285TIP3    H140050   5.879   4.354   7.952  1.0555  1.8617 -0.6472
 5285TIP3    H240051   6.003   4.301   7.883  0.4232 -1.5619  0.6114
 5286TIP3   OH240052   7.467   1.903   9.194  0.1834  0.2447 -0.3658
 5286TIP3    H140053   7.542   1.887   9.252 -1.2625 -3.4518  0.7702
 5286TIP3    H240054   7.484   1.850   9.117 -0.7963  0.2041 -0.5654
 5287TIP3   OH240055   1.435   0.957   3.033  0.1114  0.2380 -0.1594
 5287TIP3    H140056   1.452   0.862   3.035  0.5789  0.2716 -1.4806
 5287TIP3    H240057   1.413   0.979   3.123  1.4836 -0.8579  0.4861
 5288TIP3   OH240058   6.292   5.780   1.295 -0.1950 -0.1334 -0.0432
 5288TIP3    H140059   6.338   5.701   1.324 -0.5063 -0.8208 -1.3457
 5288TIP3    H240060   6.296   5.777   1.200 -0.9442  0.9954 -0.1338
 5289TIP3   OH240061   2.771   4.312   2.256  0.7527 -0.0281  0.2322
 5289TIP3    H140062   2.726   4.381   2.305 -0.9728 -1.2808  0.5004
 5289TIP3    H240063   2.801   4.250   2.322 -4.5753 -3.5499 -0.0810
 5290TIP3   OH240064   5.865   1.269   9.318 -0.2436 -0.6787  0.3125
 5290TIP3    H140065   5.894   1.241   9.231 -2.2777  1.5749 -1.2200
 5290TIP3    H240066   5.908   1.208   9.378  0.5767 -2.8826 -2.3002
 5291TIP3   OH240067   2.336   7.410   7.109  0.0488 -0.1625 -0.3137
 5291TIP3    H140068   2.376   7.489   7.073 -0.8899  0.3219 -0.3179
 5291TIP3    H240069   2.243   7.430   7.115 -0.1318 -1.0690  0.2153
 5292TIP3   OH240070   2.662   5.293   1.018 -0.2095 -1.0080  0.1309
 5292TIP3    H140071   2.642   5.261   0.930 -3.3905  0.3995  0.2271
 5292TIP3    H240072   2.669   5.213   1.071  0.7551 -1.8275 -1.1502
 5293TIP3   OH240073   4.946   6.981   9.678  0.5000  0.3333  0.3365
 5293TIP3    H140074   4.863   6.953   9.639 -0.2169  0.5987  1.6194
 5293TIP3    H240075   4.975   6.904   9.727  1.1942  0.1318 -0.3771
 5294TIP3   OH240076   2.738   6.132   2.416  0.0783 -0.2845  0.3794
 5294TIP3    H140077   2.753   6.042   2.386 -0.6469  0.0871 -1.1772
 5294TIP3    H240078   2.648   6.131   2.450 -1.0303  0.4568 -2.2925
 5295TIP3   OH240079   1.757   2.947   9.617  0.0316  0.1568 -0.1493
 5295TIP3    H140080   1.731   2.967   9.706  0.3062  2.1594 -0.4768
 5295TIP3    H240081   1.849   2.922   9.623  0.0107  0.1526  0.1340
 5296TIP3   OH240082   1.186   0.841   8.558 -0.0479  0.1434  0.2590
 5296TIP3    H140083   1.197   0.745   8.555 -2.8509 -0.2580 -0.0740
 5296TIP3    H240084   1.092   0.854   8.548  0.3729  3.0299 -0.8849
 5297TIP3   OH240085   0.914   4.217   7.800  0.1056  0.4346  0.4842
 5297TIP3    H140086   0.840   4.193   7.745  0.0550 -0.9735  1.1336
 5297TIP3    H240087   0.875   4.261   7.875  0.0986  1.4408 -0.0904
 5298TIP3   OH240088   1.651   2.135   1.244 -0.2026  0.4983  0.1497
 5298TIP3    H140089   1.742   2.125   1.275  0.1818  1.1639 -0.7227
 5298TIP3    H240090   1.627   2.047   1.215  0.4801  0.4934 -0.4299
 5299TIP3   OH240091   3.136   4.810   9.997  0.7506  0.5028 -0.1018
 5299TIP3    H140092   3.193   4.860   9.937  0.5196  0.4158 -0.3981
 5299TIP3    H240093   3.166   4.835  10.084  2.3946 -0.8451 -0.2390
 5300TIP3   OH240094   5.413   7.276   7.977 -0.6282  0.3773 -0.2821
 5300TIP3    H140095   5.405   7.203   7.916 -1.8231  0.0116  0.2967
 5300TIP3    H240096   5.385   7.241   8.062 -0.7773  1.3718  0.0959
 5301TIP3   OH240097   2.389   3.618   8.089 -0.4975  0.3610  0.4215
 5301TIP3    H140098   2.420   3.687   8.030 -0.4865  0.0668  0.0770
 5301TIP3    H240099   2.412   3.649   8.177  1.1568 -0.0387  0.1526
 5302TIP3   OH240100   4.577   4.400   2.271  0.0872 -0.2807  0.3727
 5302TIP3    H140101   4.666   4.420   2.298 -0.0197 -0.3695  0.8008
 5302TIP3    H240102   4.528   4.481   2.288  0.2090 -0.0282 -0.4400
 5303TIP3   OH240103   2.355   5.727   2.011  0.1816  0.1815 -0.3031
 5303TIP3    H140104   2.348   5.660   2.078  0.8067  0.2118 -0.2050
 5303TIP3    H240105   2.274   5.718   1.960  0.2294 -0.6012 -0.2566
 5304TIP3   OH240106   2.132   4.050   2.142 -0.1207 -0.6119 -0.2610
 5304TIP3    H140107   2.101   3.968   2.104  1.4297 -0.8726 -1.0712
 5304TIP3    H240108   2.117   4.115   2.074 -0.1315 -0.4897 -0.1416
 5305TIP3   OH240109   0.846   1.378   8.678  0.4438  0.4509 -0.8420
 5305TIP3    H140110   0.859   1.460   8.725  0.5682  0.3647 -0.7231
 5305TIP3    H240111   0.754   1.379   8.651  0.0861  0.0232  0.3253
 5306TIP3   OH240112   4.285   1.850   9.153 -0.3518 -0.1263  0.1185
 5306TIP3    H140113   4.341   1.921   9.185 -1.3068 -0.4852  2.7662
 5306TIP3    H240114   4.331   1.770   9.178 -1.3840 -0.4200  1.1428
 5307TIP3   OH240115   3.893   1.459   1.575 -0.7625  0.3980 -0.3326
 5307TIP3    H140116   3.989   1.460   1.575 -0.7130  2.4022 -1.8363
 5307TIP3    H240117   3.870   1.382   1.523 -0.0906 -1.5647  2.0932
 5308TIP3   OH240118   3.187   5.467   1.191  0.0811 -0.3153 -0.3218
 5308TIP3    H140119   3.183   5.562   1.205  1.0464 -0.6811  3.5223
 5308TIP3    H240120   3.096   5.441   1.180 -0.0830  1.1719 -3.5065
 5309TIP3   OH240121   2.489   4.971   1.815  0.3997 -0.2235 -0.4262
 5309TIP3    H140122   2.444   4.901   1.769 -0.3995  0.8222 -1.2986
 5309TIP3    H240123   2.465   4.958   1.907  0.0303 -0.9149 -0.6153
 5310TIP3   OH240124   2.677   7.003   1.306 -0.3383 -0.6794 -0.6518
 5310TIP3    H140125   2.770   6.980   1.305 -0.3413 -1.0928  1.9235
 5310TIP3    H240126   2.660   7.038   1.219  1.7371 -2.4920 -1.8985
 5311TIP3   OH240127   0.190   1.819   8.428 -0.6470  0.3508  0.3671
 5311TIP3    H140128   0.245   1.898   8.422 -1.2320  0.8203  1.0415
 5311TIP3    H240129   0.116   1.845   8.483 -0.8970 -0.6516  0.5244
 5312TIP3   OH240130   1.915   4.084   0.726  0.3634 -0.3194 -0.0773
 5312TIP3    H140131   2.003   4.048   0.725  1.3531  1.8961 -1.9295
 5312TIP3    H240132   1.889   4.088   0.633 -1.7521 -1.0302  0.4231
 5313TIP3   OH240133   5.011   2.885   8.749 -0.0181  0.2166 -0.4497
 5313TIP3    H140134   4.995   2.875   8.656 -0.0659  2.7874 -0.7869
 5313TIP3    H240135   4.926   2.871   8.790 -0.4087  0.9662 -0.9870
 5314TIP3   OH240136   2.649   4.060   7.985  0.0739 -0.1060 -0.3113
 5314TIP3    H140137   2.743   4.071   7.989  0.0320  0.1195  0.0553
 5314TIP3    H240138   2.614   4.149   7.996 -0.1898 -0.2473  0.0128
 5315TIP3   OH240139   3.423   6.337   1.502  0.0121  0.7997  0.7432
 5315TIP3    H140140   3.420   6.413   1.559  0.0446  0.6416  0.9591
 5315TIP3    H240141   3.437   6.372   1.414 -2.3374  1.2289  0.4692
 5316TIP3   OH240142   6.888   2.411   8.395  0.0424 -0.5912  0.5553
 5316TIP3    H140143   6.874   2.363   8.313  0.6107 -1.9727  1.2226
 5316TIP3    H240144   6.803   2.451   8.415 -0.6375 -1.8384  0.2665
 5317TIP3   OH240145   5.793   2.747   2.568  0.8296  0.6249 -0.7729
 5317TIP3    H140146   5.725   2.718   2.507  0.2611 -1.6900  0.8273
 5317TIP3    H240147   5.763   2.832   2.600 -1.7029 -0.6001  0.3402
 5318TIP3   OH240148   0.904   3.261   1.874 -0.3737 -0.3517 -0.0544
 5318TIP3    H140149   0.939   3.343   1.841 -0.1933 -0.8474 -1.1266
 5318TIP3    H240150   0.924   3.262   1.968 -0.2153  0.7319 -0.0887
 5319TIP3   OH240151   0.148   1.663   0.741  0.5460 -0.8273  0.5010
 5319TIP3    H140152   0.239   1.674   0.768  0.8165 -0.4147 -0.5289
 5319TIP3    H240153   0.153   1.630   0.651 -0.3168 -0.2345  0.2183
 5320TIP3   OH240154   1.989   5.686   2.865 -0.3201  0.2185  0.2054
 5320TIP3    H140155   1.910   5.703   2.814  0.0765  1.4262 -0.0463
 5320TIP3    H240156   2.054   5.661   2.799 -0.3128 -0.1205  0.3391
 5321TIP3   OH240157   4.420   3.322   8.816 -0.1670 -0.2816 -0.5537
 5321TIP3    H140158   4.451   3.390   8.756  0.6390 -0.0034  0.1582
 5321TIP3    H240159   4.340   3.289   8.775  0.1740  0.1410 -1.6022
 5322TIP3   OH240160   7.272   0.770   8.088  0.2940  0.0075 -0.0740
 5322TIP3    H140161   7.234   0.688   8.060 -0.7300  0.8402 -1.1959
 5322TIP3    H240162   7.243   0.834   8.023  2.2987  0.9846 -0.0819
 5323TIP3   OH240163   6.231   4.434   0.685  0.0979 -0.6971  0.2153
 5323TIP3    H140164   6.215   4.452   0.593 -0.2517 -1.4474  0.1196
 5323TIP3    H240165   6.234   4.338   0.690  1.3252 -0.6407  0.7786
 5324TIP3   OH240166   0.436   0.343   7.237 -0.1160  0.5661 -0.4110
 5324TIP3    H140167   0.480   0.271   7.282 -0.2614  0.8647  0.2176
 5324TIP3    H240168   0.499   0.371   7.170  0.2361  0.3263 -0.1853
 5325TIP3   OH240169   3.063   4.345   2.334  0.3302  0.1440 -0.0380
 5325TIP3    H140170   2.998   4.286   2.371  1.1842 -1.6149 -1.2145
 5325TIP3    H240171   3.117   4.371   2.409 -0.6218  0.1964  0.6515
 5326TIP3   OH240172   4.373   0.064   0.817  0.1413 -0.2613 -0.4888
 5326TIP3    H140173   4.457   0.109   0.825 -0.4398  0.7873 -0.0632
 5326TIP3    H240174   4.349   0.041   0.906 -1.0702  1.4727 -0.3162
 5327TIP3   OH240175   0.458   0.367   8.998 -0.0768 -0.0511 -0.6401
 5327TIP3    H140176   0.441   0.277   8.971  0.3767  0.4785 -2.8625
 5327TIP3    H240177   0.376   0.413   8.980 -0.8657 -0.2763  2.0089
 5328TIP3   OH240178   4.423   5.388   2.680 -0.6919  0.1653  0.1927
 5328TIP3    H140179   4.479   5.444   2.734 -0.8363 -0.0808  0.6056
 5328TIP3    H240180   4.341   5.381   2.730 -0.9140  0.1234 -0.1709
 5329TIP3   OH240181   5.664   1.153   8.289  0.3941  0.3727 -0.2055
 5329TIP3    H140182   5.680   1.081   8.350 -0.0768  0.7168  0.3310
 5329TIP3    H240183   5.745   1.204   8.291 -0.0472  1.0903  1.1188
 5330TIP3   OH240184   4.165   4.516   1.723 -0.3765 -0.1547 -0.3144
 5330TIP3    H140185   4.185   4.532   1.815 -1.3490  0.2125 -0.1503
 5330TIP3    H240186   4.094   4.578   1.702 -0.1954 -0.2536 -1.2999
 5331TIP3   OH240187   0.434   5.512   8.593  0.3653 -0.0697  0.1600
 5331TIP3    H140188   0.526   5.500   8.615  1.0225  2.2537 -0.9283
 5331TIP3    H240189   0.420   5.606   8.603 -2.0328 -0.4318  0.7283
 5332TIP3   OH240190   6.657   5.190   0.447  0.2027 -0.0512  0.1664
 5332TIP3    H140191   6.712   5.260   0.412 -0.9549 -1.0220 -4.2508
 5332TIP3    H240192   6.575   5.234   0.471  1.0205  0.6535  1.7877
 5333TIP3   OH240193   0.201   1.945   8.011 -0.1646 -0.5410 -0.5289
 5333TIP3    H140194   0.138   2.008   7.977  1.2937  2.1450  1.3370
 5333TIP3    H240195   0.285   1.973   7.975  0.2234 -3.4813 -2.2332
 5334TIP3   OH240196   4.207   6.491   9.086 -0.1941 -0.1314 -0.3873
 5334TIP3    H140197   4.272   6.475   9.154  0.9882 -1.0292 -1.6807
 5334TIP3    H240198   4.130   6.442   9.114  0.1561 -0.1978  0.4636
 5335TIP3   OH240199   4.959   6.998   8.431 -0.1853 -0.0587  0.2864
 5335TIP3    H140200   4.958   7.053   8.353 -0.6107 -0.2242  0.1717
 5335TIP3    H240201   5.051   6.971   8.441  0.0932  0.9535  0.5509
 5336TIP3   OH240202   5.385   7.042   0.264  0.8360 -0.2299 -0.6256
 5336TIP3    H140203   5.416   7.128   0.235  0.1223 -0.1014 -1.0478
 5336TIP3    H240204   5.339   7.060   0.346  1.5252 -0.3622 -0.2027
 5337TIP3   OH240205   4.359   3.870   8.540  0.3473  0.1192 -0.9848
 5337TIP3    H140206   4.450   3.845   8.520  1.1457 -0.4721  2.7039
 5337TIP3    H240207   4.309   3.789   8.528  0.3358  0.3031 -2.4403
 5338TIP3   OH240208   5.207   0.177   0.030  0.1366  0.1387  0.2116
 5338TIP3    H140209   5.165   0.200  -0.053  1.1468 -0.1758 -0.3916
 5338TIP3    H240210   5.300   0.192   0.016  0.3465 -0.1091  1.2272
 5339TIP3   OH240211   1.048   5.368   0.916 -0.6044  0.0283  0.3691
 5339TIP3    H140212   1.128   5.378   0.863 -0.5832 -0.6663  0.2610
 5339TIP3    H240213   1.065   5.420   0.994 -0.1622  0.1325  0.2106
 5340TIP3   OH240214   0.124   5.081   9.569  0.0469 -0.3037  0.1583
 5340TIP3    H140215   0.058   5.049   9.508  1.7334  0.1984 -2.0226
 5340TIP3    H240216   0.166   5.154   9.524 -0.3517  1.8979  2.9992
 5341TIP3   OH240217   3.862   2.262   0.975  0.4741 -0.3987 -0.0849
 5341TIP3    H140218   3.932   2.325   0.958  0.5206 -0.5350 -0.3978
 5341TIP3    H240219   3.817   2.298   1.052  0.1624  0.2998 -0.5797
 5342TIP3   OH240220   3.514   6.074   9.579  0.1977  0.6116  0.6210
 5342TIP3    H140221   3.445   6.015   9.608 -0.3835  0.7722 -0.3777
 5342TIP3    H240222   3.509   6.072   9.484  0.9845  1.3176  0.5481
 5343TIP3   OH240223   1.948   1.978   8.801  0.5864 -0.2003 -0.4452
 5343TIP3    H140224   1.988   1.965   8.887 -0.1956  0.2290 -0.0036
 5343TIP3    H240225   1.942   2.073   8.791 -1.0156 -0.2467 -0.1449
 5344TIP3   OH240226   3.452   3.504   0.151  0.1206 -0.6316  0.0112
 5344TIP3    H140227   3.510   3.490   0.225 -1.5313 -0.2523  1.4617
 5344TIP3    H240228   3.467   3.595   0.125 -0.5735 -0.1698  1.1243
 5345TIP3   OH240229   4.443   0.160   6.975  0.6080 -0.9012 -0.3839
 5345TIP3    H140230   4.535   0.180   6.954  0.3331  0.1704 -0.6148
 5345TIP3    H240231   4.420   0.089   6.915  0.6364  0.3377 -1.9169
 5346TIP3   OH240232   5.821   2.367   9.084 -0.6833  0.3210  0.7678
 5346TIP3    H140233   5.831   2.284   9.036  0.3858  0.6396  0.4016
 5346TIP3    H240234   5.806   2.340   9.175 -1.4393 -0.2786  0.4738
 5347TIP3   OH240235   3.516   2.531   7.400  0.2301  0.2907 -0.3840
 5347TIP3    H140236   3.505   2.499   7.310 -1.2433 -0.4416  0.0168
 5347TIP3    H240237   3.576   2.468   7.441 -0.7737 -0.6331 -0.2789
 5348TIP3   OH240238   4.791   3.412   0.630 -0.1044  0.0073  0.0910
 5348TIP3    H140239   4.756   3.336   0.677 -0.6782  0.5434  0.5384
 5348TIP3    H240240   4.875   3.382   0.594 -0.5179 -0.9670 -0.0877
 5349TIP3   OH240241   4.886   4.849   9.144  0.0674  0.6747  1.2239
 5349TIP3    H140242   4.851   4.780   9.201 -2.2590  0.1729 -0.6598
 5349TIP3    H240243   4.849   4.930   9.180 -0.6677  0.4572  0.9763
 5350TIP3   OH240244   0.870   2.874   0.879 -0.8064 -0.2215  0.0311
 5350TIP3    H140245   0.788   2.843   0.842  0.0192 -1.2125 -1.0581
 5350TIP3    H240246   0.914   2.918   0.806  0.6754 -1.8367 -0.1077
 5351TIP3   OH240247   5.985   5.409   8.114 -0.3415 -0.0530  0.0631
 5351TIP3    H140248   5.985   5.397   8.019  2.1839  0.5055 -0.0894
 5351TIP3    H240249   6.045   5.341   8.146 -2.2604 -1.1838  1.4795
 5352TIP3   OH240250   5.288   6.847   9.227 -0.5431 -0.0563 -0.0110
 5352TIP3    H140251   5.381   6.864   9.217 -0.7031  1.5899  1.0716
 5352TIP3    H240252   5.281   6.751   9.226  0.9435 -0.1898 -1.6670
 5353TIP3   OH240253   0.894   4.620   8.257  0.3778  0.5156  0.4207
 5353TIP3    H140254   0.827   4.646   8.193  1.1672  2.2729  0.2467
 5353TIP3    H240255   0.845   4.574   8.325 -0.8846  1.0084 -0.1159
 5354TIP3   OH240256   5.268   0.653   0.913  0.0830  0.2138  0.2091
 5354TIP3    H140257   5.200   0.705   0.870  0.5984  1.3311  0.6900
 5354TIP3    H240258   5.228   0.623   0.995 -0.8036 -1.6781 -0.8587
 5355TIP3   OH240259   3.592   3.662   7.962 -0.1950 -0.5149  0.1882
 5355TIP3    H140260   3.532   3.631   7.895  0.2769 -3.0265  0.8472
 5355TIP3    H240261   3.679   3.646   7.926  0.0622 -1.4150  1.1602
 5356TIP3   OH240262   6.536   0.934   1.709  0.0128  0.3813 -0.4130
 5356TIP3    H140263   6.555   0.973   1.794  0.3893 -2.6989  1.0366
 5356TIP3    H240264   6.620   0.900   1.679  0.0502  2.0953 -2.4735
 5357TIP3   OH240265   0.615   2.282   9.332 -0.1795  0.2402  0.3955
 5357TIP3    H140266   0.707   2.287   9.305 -0.7732  0.7380 -1.7200
 5357TIP3    H240267   0.618   2.287   9.428  2.1505 -2.3828  0.6057
 5358TIP3   OH240268   3.423   6.039   7.623  0.0445 -0.0492 -0.0675
 5358TIP3    H140269   3.417   6.067   7.714  3.1422  0.9002 -0.0329
 5358TIP3    H240270   3.455   5.949   7.627 -1.9982 -0.8542 -0.2891
 5359TIP3   OH240271   0.895   0.349   0.934 -0.1532 -0.3439 -0.2070
 5359TIP3    H140272   0.909   0.427   0.988 -1.3752  1.4573 -2.3126
 5359TIP3    H240273   0.801   0.333   0.939  0.0059 -1.3192 -0.2926
 5360TIP3   OH240274   1.569   3.476   9.485 -0.0949 -0.3348 -0.2328
 5360TIP3    H140275   1.604   3.500   9.571 -1.7273 -1.4314  0.8205
 5360TIP3    H240276   1.476   3.459   9.502 -0.8946  1.2605 -2.6120
 5361TIP3   OH240277   1.720   7.341   3.399 -0.2567  0.3419  0.4464
 5361TIP3    H140278   1.688   7.430   3.389 -0.1883  0.4103  0.8344
 5361TIP3    H240279   1.795   7.348   3.459  0.9979  0.3018 -1.0349
 5362TIP3   OH240280   7.086   5.903   8.048 -0.2088 -0.0792 -0.0171
 5362TIP3    H140281   6.993   5.915   8.065 -0.3210 -0.1679 -0.5667
 5362TIP3    H240282   7.094   5.908   7.953  0.0693 -2.0062 -0.1344
 5363TIP3   OH240283   0.074   1.276   9.204 -0.5553 -0.0980  0.3933
 5363TIP3    H140284   0.137   1.217   9.246  2.0280  0.5491 -2.2200
 5363TIP3    H240285   0.064   1.241   9.116  2.0066  3.7003 -1.6935
 5364TIP3   OH240286   1.850   0.392   8.276 -0.2588  0.1017  0.0567
 5364TIP3    H140287   1.853   0.381   8.180  0.9904 -0.6984  0.1609
 5364TIP3    H240288   1.936   0.427   8.298 -0.1458 -0.7684  1.0098
 5365TIP3   OH240289   2.393   0.459   6.732 -0.1045  0.1955 -0.1332
 5365TIP3    H140290   2.319   0.518   6.717  0.8298  1.3236 -0.4300
 5365TIP3    H240291   2.464   0.516   6.761  1.2808 -0.5626 -1.8435
 5366TIP3   OH240292   2.827   7.267   0.977 -0.0359 -0.5267  0.1897
 5366TIP3    H140293   2.750   7.220   1.010  0.8561 -0.9737  1.7236
 5366TIP3    H240294   2.857   7.319   1.052  0.6578  0.2953 -0.6442
 5367TIP3   OH240295   7.161   6.599   0.651 -0.0067 -0.5135  0.2320
 5367TIP3    H140296   7.107   6.555   0.717 -1.8338 -1.2019 -1.6065
 5367TIP3    H240297   7.176   6.533   0.584  1.2884  0.3357 -0.3567
 5368TIP3   OH240298   4.782   6.209   0.544 -0.5471 -0.3800 -0.1792
 5368TIP3    H140299   4.811   6.118   0.552 -0.7504 -0.4254  0.0369
 5368TIP3    H240300   4.746   6.230   0.630  2.4857  0.9517  0.9048
 5369TIP3   OH240301   5.150   7.296   8.276 -0.0736  0.5088 -0.2503
 5369TIP3    H140302   5.126   7.263   8.189  0.4285 -2.3038  0.5931
 5369TIP3    H240303   5.072   7.344   8.305 -0.5772  0.7370 -1.8789
 5370TIP3   OH240304   3.241   0.368   9.803  0.0336 -0.3278  0.1311
 5370TIP3    H140305   3.336   0.365   9.811 -0.0037 -0.4507  0.5487
 5370TIP3    H240306   3.222   0.456   9.769  0.3417 -0.5577 -0.6648
 5371TIP3   OH240307   4.150   5.447   1.298  0.7475  0.2127  0.1840
 5371TIP3    H140308   4.073   5.389   1.298  0.2041  0.8246 -2.0927
 5371TIP3    H240309   4.224   5.388   1.312  0.0179 -0.7162  0.2341
 5372TIP3   OH240310   1.778   5.670   2.696 -0.0059  0.3482  0.0022
 5372TIP3    H140311   1.717   5.704   2.761 -0.0495 -1.1196  0.7695
 5372TIP3    H240312   1.724   5.657   2.617 -0.3021  0.6695  0.1499
 5373TIP3   OH240313   1.711   1.889   9.332  0.4715  0.1680  0.9449
 5373TIP3    H140314   1.629   1.938   9.320  1.1040  1.4109  1.4871
 5373TIP3    H240315   1.696   1.835   9.410 -0.7576 -1.7085 -0.4983
 5374TIP3   OH240316   3.341   6.832   7.732  0.1290  1.1220  0.3702
 5374TIP3    H140317   3.402   6.876   7.672  0.3795  1.0901  0.6006
 5374TIP3    H240318   3.373   6.743   7.739 -0.8135  0.6703 -0.6922
 5375TIP3   OH240319   0.725   6.537   8.042 -0.1388 -0.6878  0.1568
 5375TIP3    H140320   0.797   6.523   7.981  0.0578  0.3239  0.1407
 5375TIP3    H240321   0.712   6.632   8.043 -0.9956 -0.7973  0.7059
 5376TIP3   OH240322   3.773   2.041   8.453  0.3957  0.1602  0.4273
 5376TIP3    H140323   3.849   1.984   8.449  0.5596  0.3762  0.4809
 5376TIP3    H240324   3.763   2.074   8.364 -0.3775 -0.8337  0.1253
 5377TIP3   OH240325   5.856   2.467   1.321 -0.0831 -0.1305  0.1847
 5377TIP3    H140326   5.785   2.520   1.285 -0.0846 -0.5109 -0.3710
 5377TIP3    H240327   5.835   2.378   1.296  0.8461 -0.1925 -0.4026
 5378TIP3   OH240328   6.773   7.323   1.032  0.2129  0.0554  0.1299
 5378TIP3    H140329   6.824   7.373   1.096  1.6942 -1.5089  0.2313
 5378TIP3    H240330   6.778   7.375   0.952 -0.0487  1.0922  0.7666
 5379TIP3   OH240331   4.456   3.743   1.727 -0.0556  0.3297 -0.1680
 5379TIP3    H140332   4.474   3.730   1.820 -2.9589  1.2270  0.5938
 5379TIP3    H240333   4.476   3.836   1.711 -1.8319  0.7944  0.1811
 5380TIP3   OH240334   6.648   0.582   7.152 -0.3647 -0.0549  0.6495
 5380TIP3    H140335   6.599   0.563   7.232  0.7699 -1.3633  1.0614
 5380TIP3    H240336   6.653   0.678   7.150 -0.3446  0.0026  2.1814
 5381TIP3   OH240337   4.889   0.122   0.439 -0.3315 -0.1611  0.0083
 5381TIP3    H140338   4.949   0.071   0.494 -0.3933 -0.4582 -0.1997
 5381TIP3    H240339   4.881   0.206   0.484 -3.9203 -1.8098  2.9738
 5382TIP3   OH240340   4.298   3.665   7.288  0.0945  0.2069  0.3531
 5382TIP3    H140341   4.227   3.614   7.249 -0.0207  0.7678 -0.1890
 5382TIP3    H240342   4.261   3.700   7.369  0.2714 -0.8018  0.8851
 5383TIP3   OH240343   1.702   6.912   1.055 -0.4401  0.2083 -0.1267
 5383TIP3    H140344   1.651   6.893   1.134 -0.1125  2.1364  0.6110
 5383TIP3    H240345   1.663   6.992   1.019  0.3856  0.2239 -1.0502
 5384TIP3   OH240346   1.061   0.334   8.675 -0.3408 -0.1419  0.6780
 5384TIP3    H140347   0.985   0.310   8.728 -1.4478 -0.5884 -1.0583
 5384TIP3    H240348   1.136   0.309   8.729 -1.3739 -3.9188  0.6592
 5385TIP3   OH240349   2.530   3.920   8.602 -0.3205  0.1397  0.2310
 5385TIP3    H140350   2.535   3.934   8.696 -1.8827  1.2028  0.1901
 5385TIP3    H240351   2.580   3.839   8.587 -0.2078 -0.1515  1.9679
 5386TIP3   OH240352   4.012   0.375   8.702  0.2011 -0.2509  0.2747
 5386TIP3    H140353   4.108   0.373   8.710  0.2122  1.0420  0.5818
 5386TIP3    H240354   3.992   0.299   8.647  1.1224 -2.3645  2.6449
 5387TIP3   OH240355   5.266   0.636   1.765  0.3930 -0.4774 -0.3657
 5387TIP3    H140356   5.242   0.548   1.736 -0.8259 -0.0287 -0.7666
 5387TIP3    H240357   5.302   0.679   1.687  1.3654 -0.7226 -0.0766
 5388TIP3   OH240358   6.184   5.511   9.978  0.4094 -0.0081 -0.5466
 5388TIP3    H140359   6.109   5.504   9.919 -0.3078 -0.8448  0.4444
 5388TIP3    H240360   6.204   5.421  10.003  0.8698  0.3070  0.2768
 5389TIP3   OH240361   7.378   1.027   9.877 -0.7999 -0.3491 -0.0859
 5389TIP3    H140362   7.294   1.070   9.859  0.6025  1.9036 -1.9121
 5389TIP3    H240363   7.414   1.075   9.951 -0.6441 -0.6049  0.0063
 5390TIP3   OH240364   0.591   3.245   0.743 -0.2697  0.0110  0.5739
 5390TIP3    H140365   0.617   3.330   0.709  1.0000 -0.4892  0.2552
 5390TIP3    H240366   0.650   3.182   0.701 -0.5155 -0.9186  1.5608
 5391TIP3   OH240367   4.732   6.470   1.638  0.4608  0.3968  0.1365
 5391TIP3    H140368   4.644   6.443   1.611 -0.3144  2.1508  0.7673
 5391TIP3    H240369   4.769   6.513   1.560 -0.2199  1.8433  0.5750
 5392TIP3   OH240370   6.503   0.113   0.922  0.1746 -0.7251  0.1813
 5392TIP3    H140371   6.578   0.137   0.976  0.9087 -2.5197  0.0448
 5392TIP3    H240372   6.536   0.120   0.832 -0.1210 -0.5976  0.0819
 5393TIP3   OH240373   5.461   1.067   8.686 -0.3071 -0.5263 -0.1229
 5393TIP3    H140374   5.371   1.047   8.660 -0.4996  0.3140 -0.1321
 5393TIP3    H240375   5.481   1.002   8.754 -1.3801  0.0817  0.8210
 5394TIP3   OH240376   1.698   5.640   7.984  0.1839  0.1893 -0.2312
 5394TIP3    H140377   1.787   5.668   7.964  1.0616 -1.7733  0.7234
 5394TIP3    H240378   1.658   5.717   8.026  2.1677  0.4186  1.4021
 5395TIP3   OH240379   6.329   6.873   9.298  0.2948  0.0663  0.4007
 5395TIP3    H140380   6.364   6.809   9.236 -1.3369  0.8111 -1.4100
 5395TIP3    H240381   6.250   6.832   9.334 -0.3884  0.7371 -0.2709
 5396TIP3   OH240382   3.287   6.502   1.678  0.2324 -0.2594  0.1634
 5396TIP3    H140383   3.215   6.565   1.687 -0.3554 -0.7763 -0.6823
 5396TIP3    H240384   3.248   6.417   1.701  0.3614 -0.6497 -0.9730
 5397TIP3   OH240385   3.407   1.327   8.411  0.2305  0.3353 -0.7276
 5397TIP3    H140386   3.377   1.376   8.334  1.9540  0.1622 -1.5598
 5397TIP3    H240387   3.409   1.392   8.481 -0.4329  0.7217 -1.0539
 5398TIP3   OH240388   4.193   4.808   8.535  0.1329  0.2117  0.0153
 5398TIP3    H140389   4.160   4.862   8.607  0.0964 -0.8841  0.8605
 5398TIP3    H240390   4.288   4.814   8.542  0.1692  2.3525 -1.6301
 5399TIP3   OH240391   4.775   5.454   1.364  0.6666 -0.7969 -0.1510
 5399TIP3    H140392   4.702   5.513   1.345  0.6356 -1.5499 -2.6116
 5399TIP3    H240393   4.733   5.376   1.400  0.3776 -0.7558 -0.3986
 5400TIP3   OH240394   1.824   3.625   9.345 -0.5244  0.0505  0.5327
 5400TIP3    H140395   1.866   3.662   9.267  1.8377  1.0488  2.1664
 5400TIP3    H240396   1.811   3.533   9.322  0.9732  0.1009 -0.7430
 5401TIP3   OH240397   6.768   1.173   8.781  0.5968  0.0531 -0.3660
 5401TIP3    H140398   6.802   1.233   8.715 -2.5232  0.5679 -1.7148
 5401TIP3    H240399   6.813   1.091   8.764 -0.6317 -0.0817 -3.8264
 5402TIP3   OH240400   3.706   0.544   8.526  0.0467 -0.0951 -0.0887
 5402TIP3    H140401   3.752   0.588   8.599 -0.2267 -0.1387  0.1101
 5402TIP3    H240402   3.766   0.552   8.452  0.4171 -0.2246  0.1928
 5403TIP3   OH240403   4.568   3.376   0.325  0.1712 -0.1265  0.0277
 5403TIP3    H140404   4.622   3.334   0.391  0.2796  0.1010  0.0860
 5403TIP3    H240405   4.545   3.306   0.264 -0.3256 -0.4434  0.5633
 5404TIP3   OH240406   0.507   1.739   0.131  0.2770 -0.3475  0.0877
 5404TIP3    H140407   0.412   1.723   0.126  0.4096 -0.8635 -1.4790
 5404TIP3    H240408   0.546   1.653   0.117  0.9897 -0.2965  1.6650
 5405TIP3   OH240409   4.326   0.392   2.477 -0.2588 -0.3646  0.0782
 5405TIP3    H140410   4.392   0.326   2.457  0.5065  0.7361 -1.1773
 5405TIP3    H240411   4.246   0.360   2.434  0.5088  0.2682 -1.9094
 5406TIP3   OH240412   1.080   7.076   1.670 -0.2005 -0.2757 -0.3109
 5406TIP3    H140413   1.128   7.132   1.731 -0.7723 -0.1089 -0.0035
 5406TIP3    H240414   1.080   6.990   1.711  2.4383 -1.0549 -1.7237
 5407TIP3   OH240415   6.144   6.005   1.099  0.4785  0.0306 -0.5597
 5407TIP3    H140416   6.193   5.989   1.180 -0.1943  1.1419  0.0948
 5407TIP3    H240417   6.164   6.095   1.076  0.4395 -0.1923 -1.4945
 5408TIP3   OH240418   3.908   1.624   8.405  0.7580  0.8476  0.5634
 5408TIP3    H140419   3.876   1.695   8.461  0.0160  1.8861 -1.0916
 5408TIP3    H240420   3.978   1.663   8.353  1.2230 -0.0025  0.5314
 5409TIP3   OH240421   3.680   7.294   7.982  0.1030  0.0717  0.0719
 5409TIP3    H140422   3.629   7.375   7.991  0.9300  0.5236  0.8836
 5409TIP3    H240423   3.620   7.226   8.013 -1.4799 -0.0248 -2.8696
 5410TIP3   OH240424   6.323   2.642   9.057 -0.5575 -0.0033 -0.0848
 5410TIP3    H140425   6.395   2.606   9.109 -0.2016 -1.0294 -1.2260
 5410TIP3    H240426   6.252   2.579   9.067 -1.0428  0.6128  0.4172
 5411TIP3   OH240427   0.742   6.084   2.823  0.1033 -0.3017 -0.2399
 5411TIP3    H140428   0.743   6.180   2.821 -0.3291 -0.0915  3.2018
 5411TIP3    H240429   0.704   6.059   2.739 -0.2350  2.5411 -1.0601
 5412TIP3   OH240430   6.746   6.947   7.715 -0.3044  0.1019 -0.5617
 5412TIP3    H140431   6.730   6.947   7.621  1.4213  1.0314 -0.9078
 5412TIP3    H240432   6.706   7.028   7.747 -0.1322  0.2260 -0.6575
 5413TIP3   OH240433   6.655   1.408   1.516  0.0569  0.5874 -0.0842
 5413TIP3    H140434   6.608   1.335   1.476  0.3512  0.3463  0.0097
 5413TIP3    H240435   6.703   1.369   1.588 -1.2894  1.1866  1.1885
 5414TIP3   OH240436   0.058   3.880   9.695  0.1824 -0.0898  0.1096
 5414TIP3    H140437   0.007   3.847   9.768  1.0519  0.0616  0.8040
 5414TIP3    H240438   0.076   3.803   9.641  1.2411 -0.5935  1.1258
 5415TIP3   OH240439   1.066   2.326   1.218  0.6126 -1.0137 -0.8655
 5415TIP3    H140440   1.020   2.248   1.250  0.2717 -1.3757 -2.1760
 5415TIP3    H240441   1.014   2.355   1.143  0.3933  0.8438 -0.0507
 5416TIP3   OH240442   2.267   2.332   9.288 -0.2571  0.7100 -0.3858
 5416TIP3    H140443   2.286   2.300   9.377  1.2056  1.2594 -0.4765
 5416TIP3    H240444   2.300   2.422   9.288 -3.3777  1.9979 -0.4380
 5417TIP3   OH240445   2.444   5.586   0.054 -1.0403 -0.5072  0.1273
 5417TIP3    H140446   2.453   5.533  -0.025  0.0451 -2.3143  1.3829
 5417TIP3    H240447   2.519   5.646   0.050 -2.5761  1.4482 -1.5722
 5418TIP3   OH240448   2.451   2.857   3.171 -0.3674  0.2629  0.3496
 5418TIP3    H140449   2.415   2.802   3.241 -0.9720 -0.2581 -0.3418
 5418TIP3    H240450   2.374   2.887   3.122  0.0540  0.3893 -0.2528
 5419TIP3   OH240451   3.229   5.472   2.609  0.3822 -0.1014  0.2892
 5419TIP3    H140452   3.233   5.440   2.699  1.0130 -1.5408 -0.2138
 5419TIP3    H240453   3.191   5.400   2.560  1.1562  0.2052 -0.7905
 5420TIP3   OH240454   1.279   1.182   1.249  0.3789 -0.6583 -0.4444
 5420TIP3    H140455   1.198   1.182   1.300 -0.5178 -0.4298 -1.8181
 5420TIP3    H240456   1.322   1.265   1.273 -1.0747  0.4768 -1.6271
 5421TIP3   OH240457   2.590   1.201   0.673  0.3906  0.2637 -0.2664
 5421TIP3    H140458   2.510   1.152   0.655 -0.2370  1.3759 -0.5691
 5421TIP3    H240459   2.660   1.137   0.663 -0.4906 -0.8432  0.4856
 5422TIP3   OH240460   0.595   0.974   9.558  0.2562 -0.1159  0.1664
 5422TIP3    H140461   0.679   0.976   9.603  1.2631 -1.2498 -1.5459
 5422TIP3    H240462   0.580   0.881   9.538 -0.4750  0.2662 -1.2002
 5423TIP3   OH240463   5.222   7.401   9.771 -0.1407 -0.0411  0.2502
 5423TIP3    H140464   5.133   7.436   9.771  0.1572  0.8519 -1.5248
 5423TIP3    H240465   5.278   7.478   9.760  0.7896 -0.7082  0.1706
 5424TIP3   OH240466   7.237   2.348   1.351 -0.0503  0.9793  0.3649
 5424TIP3    H140467   7.149   2.312   1.354  1.1686 -2.6123 -1.2072
 5424TIP3    H240468   7.226   2.437   1.317 -2.9145 -0.0649 -1.8031
 5425TIP3   OH240469   5.228   3.465   7.980 -0.0619  0.0779 -0.2142
 5425TIP3    H140470   5.292   3.536   7.977  2.7196 -2.2954 -1.6179
 5425TIP3    H240471   5.252   3.413   8.056 -0.9913 -0.2818 -0.1541
 5426TIP3   OH240472   6.772   2.983   9.784  0.3997  0.4165 -0.0994
 5426TIP3    H140473   6.798   3.048   9.720 -2.4791  2.8586  0.9864
 5426TIP3    H240474   6.817   3.009   9.864 -0.4227  0.8652  0.2308
 5427TIP3   OH240475   5.587   7.112   9.432  0.5857  0.8345  0.0919
 5427TIP3    H140476   5.608   7.081   9.520 -0.2193 -2.1138 -0.6626
 5427TIP3    H240477   5.493   7.129   9.435  0.6552  1.2639 -0.0663
 5428TIP3   OH240478   4.249   7.472   2.365  0.0698 -0.4843 -0.2643
 5428TIP3    H140479   4.208   7.400   2.318 -1.6409 -0.9825  1.8251
 5428TIP3    H240480   4.197   7.549   2.342  0.7907 -0.2274 -1.0948
 5429TIP3   OH240481   4.394   4.330   2.001  0.1973 -0.2949  0.1464
 5429TIP3    H140482   4.382   4.235   1.999 -0.4804 -0.2041 -0.5373
 5429TIP3    H240483   4.487   4.342   2.018  0.3054 -1.0789  0.1707
 5430TIP3   OH240484   5.132   7.399   7.665  0.3623 -0.2281  0.5307
 5430TIP3    H140485   5.116   7.305   7.669 -0.0141 -0.1304  1.3830
 5430TIP3    H240486   5.215   7.407   7.618 -0.3615 -0.9012 -0.9148
 5431TIP3   OH240487   5.064   3.018   0.456  0.0324  0.1185  0.0784
 5431TIP3    H140488   5.000   3.019   0.385  0.2471 -0.0728 -0.1162
 5431TIP3    H240489   5.143   2.979   0.418  0.3117  0.4800  0.2785
 5432TIP3   OH240490   5.248   6.324   9.000 -0.2131  0.1079 -0.4352
 5432TIP3    H140491   5.158   6.346   8.975 -1.0390 -1.7088  0.7577
 5432TIP3    H240492   5.287   6.408   9.025 -1.6434  0.9001 -0.7619
 5433TIP3   OH240493   4.742   3.150   9.251 -0.4241  0.4052 -0.4268
 5433TIP3    H140494   4.773   3.066   9.217  1.3817  1.1399 -0.6948
 5433TIP3    H240495   4.771   3.215   9.187 -0.9164  1.3480  0.2731
 5434TIP3   OH240496   5.616   7.086   9.718  0.3129  0.1008  0.2383
 5434TIP3    H140497   5.682   7.103   9.785  1.2556  2.7719 -1.1740
 5434TIP3    H240498   5.538   7.133   9.749  0.9183  1.8043 -0.7032
 5435TIP3   OH240499   5.971   2.799   9.783 -0.4041 -0.1031 -0.3474
 5435TIP3    H140500   6.021   2.820   9.704 -1.5632  0.5135 -0.9407
 5435TIP3    H240501   5.971   2.881   9.833 -0.3995 -0.2435 -0.1178
 5436TIP3   OH240502   6.412   2.337   7.736 -0.0080 -0.5025 -0.2258
 5436TIP3    H140503   6.369   2.408   7.689  0.4381 -0.7962 -1.0794
 5436TIP3    H240504   6.388   2.352   7.828 -0.5589  0.2928 -0.4886
 5437TIP3   OH240505   3.889   4.806   9.305 -0.1079  0.3404 -1.1901
 5437TIP3    H140506   3.847   4.725   9.337  0.3555  0.2669 -0.7658
 5437TIP3    H240507   3.962   4.775   9.252  0.4193  0.4831 -0.5551
 5438TIP3   OH240508   0.501   4.776   9.043  0.9336 -0.2801 -0.0289
 5438TIP3    H140509   0.427   4.739   8.994  0.3071 -0.4983  1.0635
 5438TIP3    H240510   0.555   4.701   9.066  2.7110  0.0439 -2.6615
 5439TIP3   OH240511   3.879   4.359   9.048 -0.1029  0.0622  0.4010
 5439TIP3    H140512   3.957   4.322   9.007 -0.3143  0.6513 -0.5415
 5439TIP3    H240513   3.913   4.417   9.116  0.3003  0.8909 -0.5044
 5440TIP3   OH240514   4.420   6.463   3.048  0.7202 -0.0674 -0.4157
 5440TIP3    H140515   4.450   6.509   2.969  0.0294  1.3139  0.0975
 5440TIP3    H240516   4.384   6.381   3.015 -1.8593  1.5395 -1.8791
 5441TIP3   OH240517   5.993   5.120   8.832  0.2902 -0.0552  0.5509
 5441TIP3    H140518   5.929   5.108   8.903 -0.6141 -1.8190 -0.4878
 5441TIP3    H240519   5.963   5.199   8.786 -0.9217 -0.6119  0.3397
 5442TIP3   OH240520   5.795   5.414   8.309  0.2940  0.3573 -0.1604
 5442TIP3    H140521   5.885   5.385   8.294  0.5267  0.6791  0.5848
 5442TIP3    H240522   5.746   5.381   8.233  1.2087  0.9688 -1.0312
 5443TIP3   OH240523   1.082   7.094   9.795  0.0420 -0.3830 -0.1836
 5443TIP3    H140524   1.030   7.015   9.780 -1.8116  0.8402 -0.6856
 5443TIP3    H240525   1.062   7.150   9.719  1.0596  0.6739  0.2971
 5444TIP3   OH240526   4.532   2.586   9.875 -0.0331 -0.1851 -0.7624
 5444TIP3    H140527   4.614   2.546   9.845  0.2575 -0.8745  0.8656
 5444TIP3    H240528   4.557   2.639   9.950 -0.9311  0.4790 -0.9149
 5445TIP3   OH240529   7.162   0.095   8.559  0.0356  0.4684 -0.6718
 5445TIP3    H140530   7.158   0.154   8.484 -0.2556  1.7094  0.2835
 5445TIP3    H240531   7.246   0.050   8.550 -0.0773  0.4624 -1.8178
 5446TIP3   OH240532   0.253   1.836   9.261  0.1862 -0.0857  0.2566
 5446TIP3    H140533   0.273   1.856   9.169  2.0533 -0.0098  0.6536
 5446TIP3    H240534   0.247   1.740   9.264 -1.3468 -0.0324 -0.1969
 5447TIP3   OH240535   3.633   7.047   9.187 -0.0981  0.0789  0.0665
 5447TIP3    H140536   3.700   7.093   9.136 -0.5868 -0.6805 -1.2844
 5447TIP3    H240537   3.674   6.963   9.210 -0.3823 -0.1508 -0.2689
 5448TIP3   OH240538   3.587   6.679   0.555 -0.1947 -0.4275  0.1574
 5448TIP3    H140539   3.624   6.694   0.467 -0.9705 -0.4313 -0.1799
 5448TIP3    H240540   3.534   6.757   0.572  0.4121 -0.1613  0.8816
 5449TIP3   OH240541   3.803   0.959   8.068 -0.2315 -0.2808 -1.0139
 5449TIP3    H140542   3.844   0.872   8.065 -2.0031 -1.1327 -1.7958
 5449TIP3    H240543   3.725   0.948   8.122  0.4524  1.2949  0.3833
 5450TIP3   OH240544   3.099   1.580   9.689 -0.2431  0.1072 -0.0829
 5450TIP3    H140545   3.148   1.567   9.769  0.6842 -0.8811 -0.7774
 5450TIP3    H240546   3.107   1.673   9.669  1.3612 -0.0286 -0.1688
 5451TIP3   OH240547   0.845   6.903   2.687  0.0579 -0.6339  0.2559
 5451TIP3    H140548   0.801   6.902   2.772  0.4913 -0.7588  0.4833
 5451TIP3    H240549   0.921   6.960   2.701  0.1364 -0.6636 -0.0447
 5452TIP3   OH240550   7.365   2.609   0.028  0.1635  0.0596  0.2918
 5452TIP3    H140551   7.394   2.519   0.011 -0.5269 -0.0664 -0.2991
 5452TIP3    H240552   7.436   2.664  -0.004 -0.6139 -0.2091 -2.1046
 5453TIP3   OH240553   5.400   5.964   1.452 -0.0645 -0.3005  0.8932
 5453TIP3    H140554   5.438   5.882   1.420 -0.2080  0.1008 -0.3613
 5453TIP3    H240555   5.340   5.937   1.521  0.6762 -1.1565  1.2261
 5454TIP3   OH240556   2.527   5.047   9.254  0.0424  0.1056  0.6771
 5454TIP3    H140557   2.450   5.076   9.206 -1.0247 -0.4236  2.0187
 5454TIP3    H240558   2.544   5.117   9.317  1.9299  1.1851 -0.9020
 5455TIP3   OH240559   0.677   2.443   1.897 -0.5961  0.2919 -0.4101
 5455TIP3    H140560   0.655   2.416   1.986 -1.9572  1.3873 -0.3787
 5455TIP3    H240561   0.767   2.476   1.904 -1.1264  1.5834  0.8681
 5456TIP3   OH240562   2.928   2.925   7.332 -0.0107 -0.3598 -0.0962
 5456TIP3    H140563   2.892   3.001   7.376 -0.6433  0.4909 -1.9618
 5456TIP3    H240564   2.852   2.875   7.302  0.3461 -0.1393 -1.4524
 5457TIP3   OH240565   6.268   3.358   1.362 -0.0200 -0.6551 -0.5860
 5457TIP3    H140566   6.312   3.296   1.421  0.0421 -0.8213 -0.8050
 5457TIP3    H240567   6.175   3.347   1.380 -0.0277 -1.0389 -0.8454
 5458TIP3   OH240568   5.160   2.442   9.020 -0.4595 -0.5622 -0.1402
 5458TIP3    H140569   5.177   2.529   9.055  0.0608  0.4568 -2.6801
 5458TIP3    H240570   5.246   2.403   9.008 -0.4860 -0.1630 -1.8604
 5459TIP3   OH240571   4.519   4.036   9.195  0.5221 -0.1061 -0.3730
 5459TIP3    H140572   4.530   4.123   9.233 -1.9013 -0.4696  1.3638
 5459TIP3    H240573   4.595   3.987   9.225  1.3352  1.0629 -0.4348
 5460TIP3   OH240574   7.010   5.900   9.969  0.6782  0.4657  0.3239
 5460TIP3    H140575   6.916   5.892   9.984  0.5451  1.7092  0.2446
 5460TIP3    H240576   7.018   5.920   9.876  1.0183  0.4303  0.3448
 5461TIP3   OH240577   5.513   4.348   2.348  0.1668  0.1640  0.1512
 5461TIP3    H140578   5.455   4.420   2.373 -0.4838  1.3285 -3.8878
 5461TIP3    H240579   5.466   4.269   2.374 -1.4160  1.1609  0.4638
 5462TIP3   OH240580   6.044   6.508   9.832 -0.3047 -0.0785 -0.6815
 5462TIP3    H140581   6.119   6.449   9.846  0.9141  1.9074  2.1248
 5462TIP3    H240582   5.969   6.459   9.865  0.0845 -1.2889 -1.5057
 5463TIP3   OH240583   0.140   3.703   0.863  0.2783 -0.6884  0.5003
 5463TIP3    H140584   0.183   3.686   0.779 -0.8140 -0.2984 -0.1686
 5463TIP3    H240585   0.211   3.709   0.926  1.0886 -1.5709 -0.2977
 5464TIP3   OH240586   6.761   3.429   8.426 -0.0028 -0.6113  0.1798
 5464TIP3    H140587   6.839   3.431   8.482 -1.4798  2.7550  2.4575
 5464TIP3    H240588   6.752   3.519   8.395 -1.2916 -1.6038 -2.6979
 5465TIP3   OH240589   3.543   7.201   0.502 -0.0871  0.3563 -0.6016
 5465TIP3    H140590   3.615   7.166   0.554 -0.1489  0.5665 -0.3735
 5465TIP3    H240591   3.551   7.157   0.417  0.8141  1.0181 -0.8643
 5466TIP3   OH240592   5.271   5.914   1.713 -0.6114 -0.0714 -0.1936
 5466TIP3    H140593   5.197   5.854   1.698 -0.8110  0.3324 -0.8329
 5466TIP3    H240594   5.319   5.874   1.786 -0.0951 -1.6199 -1.3423
 5467TIP3   OH240595   1.418   0.033   3.369 -0.2952 -0.4887  0.1715
 5467TIP3    H140596   1.500   0.081   3.383 -0.1866 -0.4466 -0.5771
 5467TIP3    H240597   1.351   0.101   3.368 -0.5189 -0.6305  2.0514
 5468TIP3   OH240598   6.235   2.232   7.905  0.0859 -0.3178  0.2436
 5468TIP3    H140599   6.141   2.249   7.897 -0.0821 -1.3376 -0.0997
 5468TIP3    H240600   6.261   2.203   7.818  0.9004  0.7345  0.1198
 5469TIP3   OH240601   0.021   2.095   0.027  0.4250  0.1676 -0.2263
 5469TIP3    H140602   0.105   2.108  -0.017  0.4811  2.3781  0.4202
 5469TIP3    H240603   0.043   2.050   0.108  1.1334  1.4370  0.3155
 5470TIP3   OH240604   1.863   7.136   2.289 -0.0614 -0.8612  0.1050
 5470TIP3    H140605   1.917   7.209   2.261  1.2002 -1.7590  0.0940
 5470TIP3    H240606   1.794   7.176   2.342 -0.1663  0.4458 -0.9784
 5471TIP3   OH240607   6.450   7.158   1.329 -0.5226  0.0103  0.2557
 5471TIP3    H140608   6.515   7.195   1.389 -0.0760  1.1472 -0.8815
 5471TIP3    H240609   6.400   7.233   1.298  0.3860 -0.2583 -2.0913
 5472TIP3   OH240610   2.355   5.378   7.100  0.1143  0.1185 -0.3845
 5472TIP3    H140611   2.376   5.285   7.092  0.0019  0.1656 -1.4188
 5472TIP3    H240612   2.329   5.390   7.191  4.5519  0.0619  1.1282
 5473TIP3   OH240613   1.794   2.454   3.153  0.4895 -0.6219  0.2537
 5473TIP3    H140614   1.809   2.438   3.246 -0.0494  1.6016  0.7704
 5473TIP3    H240615   1.832   2.540   3.137  0.1887 -0.7836 -1.5008
 5474TIP3   OH240616   6.822   1.233   2.445 -0.1977  0.5880 -0.3078
 5474TIP3    H140617   6.757   1.196   2.385  0.6863  0.4241 -1.1839
 5474TIP3    H240618   6.883   1.161   2.460 -0.6647  0.4658  1.2055
 5475TIP3   OH240619   6.381   4.356   8.584  0.5006 -0.5784 -0.2458
 5475TIP3    H140620   6.454   4.325   8.530  0.6677  0.1504 -0.4430
 5475TIP3    H240621   6.305   4.354   8.526  0.1853 -2.0673  0.1688
 5476TIP3   OH240622   1.582   4.629   8.063  0.3487  0.1757  0.2982
 5476TIP3    H140623   1.662   4.589   8.029  0.9613  3.5039 -2.8246
 5476TIP3    H240624   1.609   4.671   8.144  0.9278 -1.3130  0.9128
 5477TIP3   OH240625   4.904   0.830   9.098  0.3293  0.5710 -0.4973
 5477TIP3    H140626   4.978   0.860   9.150 -0.0634  0.6402  0.0373
 5477TIP3    H240627   4.876   0.907   9.049 -0.2742  0.9286  0.3845
 5478TIP3   OH240628   1.022   5.360   8.959  0.8973 -0.8854  0.2344
 5478TIP3    H140629   1.029   5.446   8.917  3.2704 -2.5730 -3.3470
 5478TIP3    H240630   0.933   5.357   8.994  0.0365  2.2092 -1.3333
 5479TIP3   OH240631   6.405   3.554   8.816  0.0775 -0.1986 -0.6344
 5479TIP3    H140632   6.454   3.481   8.778 -0.8102 -0.2818 -1.6831
 5479TIP3    H240633   6.320   3.552   8.771 -0.4848  0.6136  0.3426
 5480TIP3   OH240634   3.990   5.938   1.934  0.2267  0.6754  0.3384
 5480TIP3    H140635   3.928   6.005   1.962 -0.3908 -0.0271  0.6717
 5480TIP3    H240636   3.967   5.860   1.986 -0.6309 -0.5238 -1.7195
 5481TIP3   OH240637   4.436   3.374   1.800 -0.0582  0.4205  0.3038
 5481TIP3    H140638   4.532   3.376   1.798 -0.0501  0.7921  0.8155
 5481TIP3    H240639   4.414   3.410   1.886 -0.6605  0.4332  0.1438
 5482TIP3   OH240640   2.181   3.071   7.494 -0.0373 -0.3928 -0.2921
 5482TIP3    H140641   2.198   3.137   7.561  1.2526  0.2556 -1.2159
 5482TIP3    H240642   2.257   3.014   7.497  1.0788  0.8521 -2.5542
 5483TIP3   OH240643   2.407   7.413   1.090 -0.4909  0.2715  0.1637
 5483TIP3    H140644   2.383   7.329   1.130  0.1301 -0.2553 -0.5627
 5483TIP3    H240645   2.407   7.396   0.996  3.1276  0.0661  0.0673
 5484TIP3   OH240646   1.049   4.657   9.554 -0.2310  0.0110  0.4436
 5484TIP3    H140647   1.113   4.636   9.623  0.2411  1.7863  0.5802
 5484TIP3    H240648   1.033   4.573   9.511  2.4424 -0.4528  0.2005
 5485TIP3   OH240649   7.186   0.830   1.600 -0.2932  0.1512 -0.2311
 5485TIP3    H140650   7.259   0.845   1.661 -0.7488  0.6268  0.2113
 5485TIP3    H240651   7.136   0.759   1.640 -1.1450  1.1303  0.4757
 5486TIP3   OH240652   2.715   6.415   9.863 -0.2885  0.2885  0.4043
 5486TIP3    H140653   2.620   6.423   9.869 -0.5034 -0.5210 -1.3495
 5486TIP3    H240654   2.732   6.405   9.769  1.4259 -0.7583  0.7901
 5487TIP3   OH240655   5.140   1.162   2.874  0.0769 -0.4292 -0.4828
 5487TIP3    H140656   5.064   1.144   2.930  1.1765  0.6663  1.4801
 5487TIP3    H240657   5.214   1.165   2.935  1.2204  1.6846 -1.8591
 5488TIP3   OH240658   0.940   6.864   9.214 -0.1596  0.5718  0.0930
 5488TIP3    H140659   0.853   6.892   9.188 -0.6328 -0.6868  0.2417
 5488TIP3    H240660   0.974   6.817   9.138  0.2378  0.7249  0.1733
 5489TIP3   OH240661   5.248   0.007   7.925 -0.0217  0.4173  0.1474
 5489TIP3    H140662   5.313  -0.048   7.969  1.5166  1.3087 -0.8727
 5489TIP3    H240663   5.255  -0.018   7.833 -2.2580 -0.5198  0.1810
 5490TIP3   OH240664   0.928   3.403   0.817 -0.8201 -0.7243  0.0211
 5490TIP3    H140665   0.847   3.422   0.864 -0.2559  2.2493 -0.0654
 5490TIP3    H240666   0.990   3.375   0.885 -0.6838  1.2763  0.7697
 5491TIP3   OH240667   2.321   0.557   9.010  0.2875  0.3183  0.3783
 5491TIP3    H140668   2.292   0.519   8.927  0.3575  0.2080  0.4049
 5491TIP3    H240669   2.244   0.551   9.067  0.0565  0.9355  0.1377
 5492TIP3   OH240670   0.752   2.787   1.838  0.5094 -0.2656 -0.0786
 5492TIP3    H140671   0.804   2.714   1.872 -0.1488 -0.0497  1.4953
 5492TIP3    H240672   0.792   2.807   1.753  0.9446 -2.1805 -0.3767
 5493TIP3   OH240673   3.267   4.841   7.691 -0.5716 -0.2320  0.0333
 5493TIP3    H140674   3.331   4.776   7.718 -0.6434 -1.1184 -1.7480
 5493TIP3    H240675   3.281   4.851   7.597 -3.2949 -0.8334 -0.5490
 5494TIP3   OH240676   7.376   7.358   1.545 -0.0579  0.2372  0.2468
 5494TIP3    H140677   7.299   7.403   1.510 -1.2363 -2.4424 -0.8564
 5494TIP3    H240678   7.447   7.384   1.486 -1.0599 -0.5878 -1.3987
 5495TIP3   OH240679   2.134   6.235   9.495 -0.1407  0.2719  0.1295
 5495TIP3    H140680   2.139   6.322   9.535 -0.6523 -0.1202  1.0654
 5495TIP3    H240681   2.133   6.174   9.569 -1.7650 -0.4447 -0.4429
 5496TIP3   OH240682   2.291   5.938   9.901  0.7943  0.1550  0.4668
 5496TIP3    H140683   2.373   5.987   9.907  1.0659 -0.3270  0.7374
 5496TIP3    H240684   2.313   5.862   9.847  0.9639 -0.8628  1.9311
 5497TIP3   OH240685   7.441   4.649   2.206 -0.7899  0.4851  0.3314
 5497TIP3    H140686   7.522   4.690   2.175 -1.1715  0.6975 -0.3849
 5497TIP3    H240687   7.427   4.686   2.293  0.0946  0.1491  0.6278
 5498TIP3   OH240688   6.875   3.519   0.910  0.7206 -0.0492  0.1804
 5498TIP3    H140689   6.815   3.564   0.971  1.4861 -0.6016  1.3804
 5498TIP3    H240690   6.827   3.442   0.882  0.6371 -0.1920  0.6967
 5499TIP3   OH240691   7.195   3.440   2.282  0.4085  0.2767 -0.3614
 5499TIP3    H140692   7.281   3.419   2.319 -0.1413 -0.3887  0.5475
 5499TIP3    H240693   7.211   3.446   2.187  1.4716  0.2631 -0.1944
 5500TIP3   OH240694   0.562   3.250   9.356 -0.2130  0.0795  0.2622
 5500TIP3    H140695   0.483   3.278   9.309 -0.6313  0.7225  1.3198
 5500TIP3    H240696   0.562   3.154   9.347 -1.3045  0.0419  0.5293
 5501TIP3   OH240697   0.099   4.349   8.107 -0.5346 -0.3758  0.0164
 5501TIP3    H140698   0.149   4.340   8.188 -1.6670 -3.4651  0.5006
 5501TIP3    H240699   0.053   4.433   8.117  1.1712  0.4580  1.4592
 5502TIP3   OH240700   3.804   5.068   0.481  0.0624 -0.7673 -0.0158
 5502TIP3    H140701   3.723   5.067   0.531  0.5634 -0.6569  0.8171
 5502TIP3    H240702   3.834   5.159   0.487  0.5369 -0.9329  0.1721
 5503TIP3   OH240703   6.975   0.410   9.599 -0.5690 -0.8170  0.1552
 5503TIP3    H140704   6.933   0.492   9.571 -1.0563 -0.8437  0.7844
 5503TIP3    H240705   6.966   0.410   9.694  0.6842 -0.9300  0.2871
 5504TIP3   OH240706   1.663   5.635   8.831 -0.1760 -0.1069  0.2571
 5504TIP3    H140707   1.665   5.583   8.912 -0.4628 -1.5190 -0.6011
 5504TIP3    H240708   1.685   5.724   8.859  0.9822 -0.8042  1.7004
 5505TIP3   OH240709   3.450   0.676   9.741 -0.7616  0.0283  0.5535
 5505TIP3    H140710   3.428   0.691   9.833 -2.6498 -0.7733  0.2684
 5505TIP3    H240711   3.385   0.725   9.692 -0.3681 -0.3325 -0.3595
 5506TIP3   OH240712   3.259   5.626   6.366  0.2330  0.2434 -0.0769
 5506TIP3    H140713   3.318   5.644   6.293 -0.0904 -1.8198 -0.9149
 5506TIP3    H240714   3.177   5.599   6.325 -0.1055 -0.5172  1.0321
 5507TIP3   OH240715   2.982   0.549   9.397 -0.3303 -0.3407  0.5102
 5507TIP3    H140716   2.925   0.613   9.355 -0.4041 -0.3755  0.5571
 5507TIP3    H240717   2.922   0.491   9.444 -0.2632 -0.4404  0.4722
 5508TIP3   OH240718   6.144   3.984   9.685  0.4708 -0.1765  0.1689
 5508TIP3    H140719   6.221   3.998   9.740  0.5611 -0.6263  0.1638
 5508TIP3    H240720   6.160   4.038   9.608  0.8476 -0.3697  0.1086
 5509TIP3   OH240721   7.182   4.834   9.481 -0.2061  0.3456  0.7715
 5509TIP3    H140722   7.207   4.924   9.500 -1.2794  0.3368  2.4166
 5509TIP3    H240723   7.109   4.816   9.540 -1.4739 -0.9058 -1.0624
 5510TIP3   OH240724   2.121   3.274   0.730  0.4397 -0.2349 -0.2580
 5510TIP3    H140725   2.124   3.235   0.818  0.3875 -1.6539 -0.8497
 5510TIP3    H240726   2.161   3.360   0.741  0.8663 -0.5655  1.0689
 5511TIP3   OH240727   0.572   7.206   9.792 -0.0223 -0.3919 -0.3977
 5511TIP3    H140728   0.591   7.198   9.699  0.4941  0.9554 -0.4269
 5511TIP3    H240729   0.542   7.296   9.803 -3.1740 -1.3741  0.2377
 5512TIP3   OH240730   1.220   3.495   6.679  0.0701 -0.0297 -0.9198
 5512TIP3    H140731   1.286   3.462   6.619 -0.9764 -0.3102 -1.9585
 5512TIP3    H240732   1.150   3.430   6.676 -0.2933  0.2887  0.1057
 5513TIP3   OH240733   5.998   6.986   9.439 -0.0725  0.5461  0.4972
 5513TIP3    H140734   6.056   6.910   9.445 -2.1595 -1.1022  1.4661
 5513TIP3    H240735   5.985   7.013   9.530  0.4192  1.9308  0.1795
 5514TIP3   OH240736   2.365   1.406   2.763 -0.1325 -0.1471  0.0046
 5514TIP3    H140737   2.282   1.445   2.793 -0.8839 -0.4722 -1.5880
 5514TIP3    H240738   2.388   1.344   2.832 -0.0052  1.5306  1.5768
 5515TIP3   OH240739   4.347   4.835   1.254  0.0313 -0.2841  0.1988
 5515TIP3    H140740   4.286   4.784   1.307 -1.4477 -0.3703 -1.4534
 5515TIP3    H240741   4.291   4.898   1.208  1.0486 -0.8042 -1.8932
 5516TIP3   OH240742   2.091   1.466   9.101  0.3459 -0.4748  0.0821
 5516TIP3    H140743   2.033   1.529   9.143 -0.7806  0.3277 -2.4740
 5516TIP3    H240744   2.040   1.385   9.098  1.0315 -0.9960  1.5764
 5517TIP3   OH240745   2.595   2.597   3.020  0.1648 -0.1605  0.5327
 5517TIP3    H140746   2.625   2.688   3.013  0.4563 -0.2730  0.2459
 5517TIP3    H240747   2.510   2.596   2.977  0.6066 -0.2219 -0.3678
 5518TIP3   OH240748   4.019   4.254   1.274 -0.4245 -0.3696  0.1027
 5518TIP3    H140749   4.015   4.225   1.364 -0.1333  0.4553  0.3959
 5518TIP3    H240750   4.023   4.174   1.222  0.6067 -0.8443  0.8861
 5519TIP3   OH240751   2.751   5.104   2.089  0.0475 -0.1143 -0.2359
 5519TIP3    H140752   2.695   5.070   2.159 -0.1309  0.3301 -0.1593
 5519TIP3    H240753   2.829   5.135   2.134  1.2266 -2.4504 -0.5119
 5520TIP3   OH240754   2.573   5.422   0.654  0.1379  0.8684  0.2423
 5520TIP3    H140755   2.544   5.338   0.688  1.2623  0.6992  0.8508
 5520TIP3    H240756   2.566   5.482   0.728  0.2627  1.0797  0.0868
 5521TIP3   OH240757   6.042   3.777   7.719  0.7502  0.4984 -0.6905
 5521TIP3    H140758   6.020   3.697   7.670  0.0164  0.5298 -0.4199
 5521TIP3    H240759   6.120   3.753   7.769  1.3328  0.3706 -1.6305
 5522TIP3   OH240760   0.254   0.641   0.239 -0.3251  0.5031 -0.5731
 5522TIP3    H140761   0.280   0.659   0.149  0.9031  1.1960 -0.1009
 5522TIP3    H240762   0.294   0.557   0.259 -0.7944  0.2372 -0.7467
 5523TIP3   OH240763   6.254   1.176   0.545 -0.2874 -0.1643  0.1736
 5523TIP3    H140764   6.182   1.200   0.487 -0.9692 -0.6600  0.8087
 5523TIP3    H240765   6.308   1.255   0.550 -1.1890  0.4542  0.2865
 5524TIP3   OH240766   2.172   2.577   0.222  0.1823 -1.6219 -0.3055
 5524TIP3    H140767   2.202   2.668   0.227 -0.5839 -1.4259  1.0692
 5524TIP3    H240768   2.252   2.525   0.236  0.5352 -1.1722 -0.6013
 5525TIP3   OH240769   1.306   3.703   7.405 -0.0561 -0.2770 -0.0303
 5525TIP3    H140770   1.325   3.761   7.479 -1.4512 -1.0919  1.0055
 5525TIP3    H240771   1.276   3.763   7.336  0.0927  0.3794  0.4598
 5526TIP3   OH240772   1.897   6.806   7.154  0.6650 -0.4962 -0.7274
 5526TIP3    H140773   1.834   6.878   7.159  0.2967 -0.8627  0.1905
 5526TIP3    H240774   1.965   6.837   7.095  1.0581  1.0470  0.4802
 5527TIP3   OH240775   5.319   6.918   1.099  0.2354 -0.5373 -0.3749
 5527TIP3    H140776   5.228   6.897   1.121  0.2061  0.2980  0.3622
 5527TIP3    H240777   5.347   6.977   1.169  1.1482 -0.2822 -0.9453
 5528TIP3   OH240778   7.060   3.830   0.859  0.0838  0.4232  0.1092
 5528TIP3    H140779   7.039   3.813   0.767 -0.2874  2.3688 -0.2133
 5528TIP3    H240780   7.025   3.754   0.906 -4.1393  1.4645 -0.8576
 5529TIP3   OH240781   5.508   3.281   8.330 -0.3498 -0.0420  0.2032
 5529TIP3    H140782   5.502   3.371   8.297 -0.8381  0.2748  1.1314
 5529TIP3    H240783   5.569   3.238   8.270  1.4048  1.4023  0.8460
 5530TIP3   OH240784   2.568   3.198   9.475 -1.1332 -0.2571 -0.3082
 5530TIP3    H140785   2.554   3.284   9.514  2.0428  0.0091  0.5403
 5530TIP3    H240786   2.618   3.149   9.541  1.2869 -1.0595 -2.5443
 5531TIP3   OH240787   0.648   3.329   0.066  0.0567  0.1011  0.5642
 5531TIP3    H140788   0.616   3.297   0.150 -0.6218 -0.7737 -0.0033
 5531TIP3    H240789   0.583   3.298   0.003  0.9349  0.1180 -0.3694
 5532TIP3   OH240790   0.121   7.247   7.816 -0.5233  0.5925  0.0317
 5532TIP3    H140791   0.069   7.204   7.884  0.4668 -1.3455 -0.3699
 5532TIP3    H240792   0.166   7.176   7.771  0.5545  2.0073 -1.2489
 5533TIP3   OH240793   4.409   6.904   9.255  0.2102 -0.4275 -0.4725
 5533TIP3    H140794   4.436   6.931   9.343 -1.6215  3.5788 -0.9173
 5533TIP3    H240795   4.315   6.889   9.262  0.3408 -1.8896 -1.4223
 5534TIP3   OH240796   1.592   5.138   2.337 -0.0976 -0.4334 -0.3753
 5534TIP3    H140797   1.646   5.063   2.362  0.6879 -0.1794 -1.2338
 5534TIP3    H240798   1.550   5.112   2.255 -0.2910 -0.1575 -0.3666
 5535TIP3   OH240799   5.925   6.450   2.735  0.3487  0.0158 -0.1129
 5535TIP3    H140800   5.999   6.461   2.794  0.2382  1.4335 -0.2125
 5535TIP3    H240801   5.874   6.377   2.773  0.7809  0.2760  0.9981
 5536TIP3   OH240802   3.945   6.706   0.675 -0.1241 -0.0277  0.1969
 5536TIP3    H140803   3.858   6.670   0.660 -0.3534  0.7281 -0.2954
 5536TIP3    H240804   3.930   6.794   0.710  0.3699  1.5285 -3.0923
 5537TIP3   OH240805   3.765   1.394   8.338 -0.4060  0.2874  0.3431
 5537TIP3    H140806   3.733   1.408   8.250 -0.9851 -0.1706  0.4711
 5537TIP3    H240807   3.801   1.478   8.366 -1.5698  0.8291  0.2224
 5538TIP3   OH240808   5.819   4.242   0.819  0.1414 -0.1997 -0.6696
 5538TIP3    H140809   5.886   4.303   0.789  0.1958 -0.0346 -0.2074
 5538TIP3    H240810   5.752   4.245   0.750 -0.1558  0.8544 -0.3534
 5539TIP3   OH240811   0.510   0.892   8.378 -0.6798 -0.1801 -0.2330
 5539TIP3    H140812   0.564   0.957   8.334 -0.2496  0.5313  1.2770
 5539TIP3    H240813   0.444   0.943   8.424  0.0350 -0.7278  1.4823
 5540TIP3   OH240814   1.069   4.452   8.420 -0.0458  0.1680  0.1205
 5540TIP3    H140815   1.041   4.512   8.351  1.4560 -1.2118 -1.7936
 5540TIP3    H240816   1.016   4.373   8.406 -0.2756  0.1429  1.0643
 5541TIP3   OH240817   7.202   0.221   0.798  0.0215  0.4379 -0.1962
 5541TIP3    H140818   7.195   0.248   0.706 -1.6884  0.5994 -0.0627
 5541TIP3    H240819   7.187   0.302   0.847  0.9723  0.3612  0.2329
 5542TIP3   OH240820   7.050   0.921   9.576  0.5638  0.1297  0.3000
 5542TIP3    H140821   6.988   0.869   9.524  1.0735 -1.0800  0.8661
 5542TIP3    H240822   7.124   0.935   9.517  0.2811  0.5079  0.0326
 5543TIP3   OH240823   6.711   6.066   1.471  0.0213 -0.4074 -0.6700
 5543TIP3    H140824   6.646   5.998   1.453  1.8287 -2.0746 -1.1388
 5543TIP3    H240825   6.768   6.066   1.394  1.3270  0.1408  0.2648
 5544TIP3   OH240826   3.282   6.595   8.777  0.0272  0.1183  0.5851
 5544TIP3    H140827   3.236   6.593   8.860 -0.9903 -0.4633  0.0255
 5544TIP3    H240828   3.246   6.521   8.727  0.2639  0.7379 -0.5494
 5545TIP3   OH240829   6.120   6.339   9.338 -0.1497  0.4747 -0.0564
 5545TIP3    H140830   6.085   6.272   9.280 -0.0033  1.6162 -1.5074
 5545TIP3    H240831   6.076   6.323   9.422 -1.1751 -0.5459 -0.7617
 5546TIP3   OH240832   1.399   3.881   9.581 -0.1666 -0.2975  0.7657
 5546TIP3    H140833   1.320   3.827   9.575 -1.5374  1.1529  3.5495
 5546TIP3    H240834   1.389   3.946   9.511 -0.1747 -1.5441 -0.4386
 5547TIP3   OH240835   5.198   4.456   8.223  0.0184 -0.0185  0.1727
 5547TIP3    H140836   5.284   4.493   8.200  0.2759 -0.6603  0.0791
 5547TIP3    H240837   5.216   4.364   8.245 -0.9389 -0.8380 -2.1158
 5548TIP3   OH240838   0.481   5.527   9.564 -0.4767 -0.1100 -0.0510
 5548TIP3    H140839   0.446   5.463   9.502  0.8366 -0.1356 -0.7998
 5548TIP3    H240840   0.543   5.579   9.513 -0.2756  0.6671  0.9540
 5549TIP3   OH240841   0.743   1.710   9.235 -0.0674 -0.3553 -0.1030
 5549TIP3    H140842   0.659   1.670   9.261 -0.4917  0.4794 -0.1669
 5549TIP3    H240843   0.787   1.729   9.317  0.4837 -1.6284 -0.0702
 5550TIP3   OH240844   2.438   6.445   9.168 -0.4873  0.1165  0.0855
 5550TIP3    H140845   2.379   6.468   9.097  1.3607  1.4356 -1.1034
 5550TIP3    H240846   2.506   6.392   9.127 -0.1462 -0.3207  1.1708
 5551TIP3   OH240847   5.889   2.369   1.001  0.1318  0.0990 -0.6732
 5551TIP3    H140848   5.830   2.366   1.077 -0.7157  0.1488 -1.3141
 5551TIP3    H240849   5.957   2.305   1.021  0.0704  0.3037  0.2528
 5552TIP3   OH240850   6.140   0.566   7.463  0.3469 -0.0431 -0.8775
 5552TIP3    H140851   6.105   0.655   7.470  0.1344 -0.2147  0.2938
 5552TIP3    H240852   6.209   0.562   7.529 -0.3819 -1.0933 -0.1474
 5553TIP3   OH240853   5.675   7.367   7.867 -0.4682  0.2899 -0.5098
 5553TIP3    H140854   5.729   7.296   7.901 -1.4734 -0.7166 -0.9596
 5553TIP3    H240855   5.586   7.346   7.895 -0.7007  1.7412 -0.0600
 5554TIP3   OH240856   1.722   3.727   0.210  0.0850 -0.4831  0.1717
 5554TIP3    H140857   1.787   3.769   0.266 -2.0706  0.1950  2.3258
 5554TIP3    H240858   1.714   3.785   0.134  1.3462 -0.1460  0.2798
 5555TIP3   OH240859   5.597   6.239   7.511  0.1601  0.0400  0.0106
 5555TIP3    H140860   5.503   6.252   7.503 -0.4236 -1.7945  2.5281
 5555TIP3    H240861   5.611   6.146   7.492  1.5971  0.4106 -0.9548
 5556TIP3   OH240862   5.183   4.424   7.675  0.0812 -0.7078 -0.1324
 5556TIP3    H140863   5.176   4.426   7.771  0.4010  0.5102 -0.1159
 5556TIP3    H240864   5.275   4.441   7.658 -0.2094  0.3769 -0.6777
 5557TIP3   OH240865   6.251   3.076   0.125  0.2061  0.2306  0.0202
 5557TIP3    H140866   6.345   3.060   0.132  0.0296 -1.1290 -0.4634
 5557TIP3    H240867   6.211   2.989   0.130 -0.9360  0.6566 -1.0809
 5558TIP3   OH240868   0.338   6.365   9.818 -0.3127  0.4951 -0.2713
 5558TIP3    H140869   0.264   6.422   9.795  0.6679  1.4873 -1.0474
 5558TIP3    H240870   0.347   6.375   9.913 -1.6000 -0.1972 -0.0455
 5559TIP3   OH240871   3.507   0.899   2.265 -0.2963 -0.0363  0.0298
 5559TIP3    H140872   3.528   0.958   2.193  1.0473  1.0619  1.2702
 5559TIP3    H240873   3.591   0.880   2.307 -1.0044 -0.8855  1.1387
 5560TIP3   OH240874   6.667   4.889   8.737  0.1781  0.1988  0.2743
 5560TIP3    H140875   6.736   4.926   8.792  0.2919 -0.4192  0.5602
 5560TIP3    H240876   6.593   4.878   8.796  0.2318 -0.2657  0.2575
 5561TIP3   OH240877   3.924   0.357   8.099 -0.0753 -0.6875 -0.2741
 5561TIP3    H140878   3.892   0.310   8.023  1.0433  0.4196 -1.4862
 5561TIP3    H240879   4.016   0.375   8.079 -0.3181  1.5615  0.3292
 5562TIP3   OH240880   4.307   2.679   1.001 -0.0856  0.2754 -0.5281
 5562TIP3    H140881   4.346   2.700   1.086 -2.6571 -1.2590  1.1502
 5562TIP3    H240882   4.341   2.747   0.942  0.0681  2.7532  2.1917
 5563TIP3   OH240883   3.762   1.386   1.990 -0.2925 -0.1829 -0.3140
 5563TIP3    H140884   3.683   1.340   2.017 -0.8589  0.7661 -0.3103
 5563TIP3    H240885   3.774   1.362   1.898 -1.7516  1.2353 -0.9190
 5564TIP3   OH240886   3.168   1.724   2.177  0.5078 -0.1430 -0.4464
 5564TIP3    H140887   3.104   1.795   2.168  0.2566 -0.2039  0.6712
 5564TIP3    H240888   3.238   1.747   2.115  0.1060  0.7199 -0.5999
 5565TIP3   OH240889   4.365   2.896   0.817  0.3925 -0.4195 -0.7900
 5565TIP3    H140890   4.416   2.962   0.863  0.0415  0.9475 -2.2761
 5565TIP3    H240891   4.409   2.886   0.733 -0.4603 -0.9379 -1.1861
 5566TIP3   OH240892   6.226   7.221   0.545 -0.1775 -0.5445 -0.0402
 5566TIP3    H140893   6.259   7.258   0.463  1.3023 -0.0336  0.7561
 5566TIP3    H240894   6.274   7.140   0.556 -3.3826 -2.9214 -1.7525
 5567TIP3   OH240895   3.933   2.348   9.868  0.0572 -0.4318  0.0721
 5567TIP3    H140896   4.025   2.320   9.868 -0.1356 -1.1201 -0.8398
 5567TIP3    H240897   3.908   2.348   9.961  1.2591  0.7661  0.4181
 5568TIP3   OH240898   3.582   2.720   9.103  0.8179 -0.4658  0.0111
 5568TIP3    H140899   3.568   2.750   9.013  0.9711 -0.1058  0.1063
 5568TIP3    H240900   3.590   2.801   9.154  3.8854 -0.5816 -0.1233
 5569TIP3   OH240901   6.434   0.749   1.457 -0.2158 -0.3239 -0.0084
 5569TIP3    H140902   6.394   0.818   1.403 -1.1068 -2.2251 -1.9101
 5569TIP3    H240903   6.361   0.693   1.483  0.6839 -1.4200  0.2024
 5570TIP3   OH240904   0.145   2.230   1.683  0.3496 -0.0569 -0.1358
 5570TIP3    H140905   0.073   2.242   1.621  0.8941  0.1699 -0.7354
 5570TIP3    H240906   0.215   2.285   1.649  1.1029 -0.9235 -0.0414
 5571TIP3   OH240907   4.215   1.281   8.919  0.3999  0.0495  0.1387
 5571TIP3    H140908   4.186   1.273   9.010  1.0745  0.2425  0.3729
 5571TIP3    H240909   4.238   1.373   8.908 -1.0023  0.3429 -0.6441
 5572TIP3   OH240910   1.711   4.811   8.981  0.2886  0.0373  0.6957
 5572TIP3    H140911   1.681   4.818   9.072 -1.7164  0.3442  0.0551
 5572TIP3    H240912   1.660   4.739   8.944  0.7530  0.2109 -0.3188
 5573TIP3   OH240913   4.863   4.285   8.414 -0.1922 -0.0742 -0.1460
 5573TIP3    H140914   4.902   4.203   8.387  1.5259  0.7837 -0.3882
 5573TIP3    H240915   4.890   4.296   8.505 -0.3417  0.2717 -0.1402
 5574TIP3   OH240916   2.602   7.483   1.731  0.1804 -0.2461  0.1557
 5574TIP3    H140917   2.587   7.412   1.793 -1.3512 -1.0187 -1.0330
 5574TIP3    H240918   2.654   7.444   1.661  1.2860  0.4294  0.5836
 5575TIP3   OH240919   2.400   1.499   3.113 -0.3646  0.0156 -0.5942
 5575TIP3    H140920   2.477   1.549   3.085 -0.6480 -0.2414 -1.9014
 5575TIP3    H240921   2.432   1.410   3.123  0.0031  0.3075  1.1422
 5576TIP3   OH240922   0.913   5.087   8.526 -0.0213 -0.5337  0.4800
 5576TIP3    H140923   0.929   5.099   8.620 -1.7749 -0.4532  0.8017
 5576TIP3    H240924   0.951   5.001   8.507  0.7008 -0.3832  1.1603
 5577TIP3   OH240925   0.438   4.959   8.471 -0.3936 -0.1810 -0.3608
 5577TIP3    H140926   0.413   5.051   8.465  1.6663  0.4898  0.5793
 5577TIP3    H240927   0.446   4.942   8.565 -2.0192 -1.7485 -0.4319
 5578TIP3   OH240928   3.553   3.958   7.485 -0.2593  0.3066 -0.2973
 5578TIP3    H140929   3.576   3.918   7.401  0.4116 -0.1290  0.0782
 5578TIP3    H240930   3.637   3.966   7.530 -0.5338  1.1271  0.0790
 5579TIP3   OH240931   1.729   0.814   3.544  0.1211  0.0496 -0.0657
 5579TIP3    H140932   1.711   0.720   3.538 -1.6443  0.3972 -0.8911
 5579TIP3    H240933   1.731   0.844   3.454  0.7507  0.8109  0.1928
 5580TIP3   OH240934   7.030   1.855   7.989  0.0335 -0.1784  0.3008
 5580TIP3    H140935   6.966   1.835   8.057  0.2745 -2.8235 -0.1255
 5580TIP3    H240936   7.115   1.852   8.034  0.2454 -2.5454 -0.1119
 5581TIP3   OH240937   6.369   2.135   0.499 -0.3275  0.0190  0.2986
 5581TIP3    H140938   6.411   2.077   0.436 -2.1635 -0.2060 -0.7858
 5581TIP3    H240939   6.277   2.138   0.472 -0.3752  3.3071  0.3425
 5582TIP3   OH240940   0.317   5.665   9.963  0.6039 -0.1247 -0.0563
 5582TIP3    H140941   0.365   5.739   9.999  1.2163  0.2875 -1.6367
 5582TIP3    H240942   0.237   5.660  10.016 -0.3490  2.8532 -1.0178
 5583TIP3   OH240943   5.382   7.440   9.417  0.0552 -0.1743  0.2092
 5583TIP3    H140944   5.341   7.452   9.331 -0.4732  1.2618  0.6252
 5583TIP3    H240945   5.352   7.354   9.446 -0.1470 -0.4715 -0.8326
 5584TIP3   OH240946   4.770   1.223   1.288 -0.4950  0.1950 -0.2742
 5584TIP3    H140947   4.835   1.293   1.298  0.0883 -0.4578  0.5331
 5584TIP3    H240948   4.688   1.264   1.315 -0.1379  0.5397  0.3102
 5585TIP3   OH240949   3.199   6.291   7.977  0.2420 -0.0829 -0.1632
 5585TIP3    H140950   3.122   6.253   8.018  0.2794 -1.3362 -1.1975
 5585TIP3    H240951   3.184   6.386   7.982 -1.0693 -0.2866  0.1823
 5586TIP3   OH240952   1.200   6.813   9.552  0.0112  0.1980  0.2273
 5586TIP3    H140953   1.116   6.842   9.587  0.6497  1.1061  1.0340
 5586TIP3    H240954   1.221   6.735   9.604 -1.1700 -1.1459 -1.1974
 5587TIP3   OH240955   6.116   4.640   9.255  0.8806 -0.3632 -0.3481
 5587TIP3    H140956   6.194   4.689   9.281  1.0285  0.2742 -1.8557
 5587TIP3    H240957   6.054   4.652   9.327  1.9176 -0.3086  0.5641
 5588TIP3   OH240958   4.223   5.796   1.706  0.4195 -0.3604  0.0492
 5588TIP3    H140959   4.308   5.782   1.746  0.3583 -1.1336 -0.0787
 5588TIP3    H240960   4.223   5.739   1.628 -0.1588 -0.2721 -0.0225
 5589TIP3   OH240961   3.519   4.393   9.858  0.0762  0.4202 -0.6258
 5589TIP3    H140962   3.459   4.398   9.783 -0.9512 -1.1813  0.0166
 5589TIP3    H240963   3.507   4.476   9.904  1.6429  1.9823 -2.8183
 5590TIP3   OH240964   2.218   0.411   9.423  0.4711  0.1318 -0.4098
 5590TIP3    H140965   2.301   0.438   9.382  0.5697 -0.3514 -0.5321
 5590TIP3    H240966   2.204   0.322   9.392 -1.1765  0.8970 -2.1239
 5591TIP3   OH240967   6.976   1.559   2.646  0.0598 -0.2424  0.1795
 5591TIP3    H140968   7.029   1.479   2.650 -0.4215 -0.6210 -0.6314
 5591TIP3    H240969   6.892   1.533   2.685  0.0179 -0.0437  0.2192
 5592TIP3   OH240970   5.837   5.122   0.529 -0.3313  0.1578  0.5352
 5592TIP3    H140971   5.925   5.086   0.517 -0.9135 -1.0736 -0.2220
 5592TIP3    H240972   5.845   5.182   0.603  1.1224 -0.0109  0.5299
 5593TIP3   OH240973   5.742   7.442   8.771  0.1444  0.0106  0.2567
 5593TIP3    H140974   5.745   7.464   8.864  1.1745  0.5215  0.1190
 5593TIP3    H240975   5.811   7.376   8.759 -1.5435 -1.8566  0.2698
 5594TIP3   OH240976   0.938   1.570   9.084 -0.2848 -0.1196  0.0682
 5594TIP3    H140977   1.003   1.623   9.130 -0.7845 -0.8352  1.6674
 5594TIP3    H240978   0.855   1.614   9.101 -0.1794  1.9493 -3.6115
 5595TIP3   OH240979   4.331   6.789   0.209 -0.0618 -0.1454  0.0918
 5595TIP3    H140980   4.408   6.777   0.153  0.5459  0.4980  0.7712
 5595TIP3    H240981   4.367   6.809   0.295 -0.9642 -1.9361  0.9414
 5596TIP3   OH240982   4.823   4.625   8.452 -0.5585 -0.1768  0.4166
 5596TIP3    H140983   4.759   4.554   8.454 -1.3261  0.4991  0.8832
 5596TIP3    H240984   4.852   4.634   8.543 -0.3345 -0.0151  0.3301
 5597TIP3   OH240985   0.548   1.937   7.943 -0.0749  0.3686  0.1165
 5597TIP3    H140986   0.516   2.027   7.944  2.6338  1.4121  0.3666
 5597TIP3    H240987   0.580   1.924   7.854 -2.3711 -1.1879 -0.5837
 5598TIP3   OH240988   4.915   0.954   7.609 -0.2478  0.3988  0.3219
 5598TIP3    H140989   4.998   0.990   7.639 -0.0339 -0.4089  0.7263
 5598TIP3    H240990   4.912   0.865   7.645 -0.4224 -0.2637 -1.2266
 5599TIP3   OH240991   3.199   2.184   0.803  0.0860  0.5264  0.2063
 5599TIP3    H140992   3.192   2.139   0.718 -0.7315 -1.1860  1.1219
 5599TIP3    H240993   3.162   2.271   0.787 -0.7492 -0.0192 -1.0328
 5600TIP3   OH240994   1.707   3.392   0.650  0.3533 -0.2901 -0.6653
 5600TIP3    H140995   1.684   3.300   0.639  0.0279 -0.0624 -2.1720
 5600TIP3    H240996   1.673   3.435   0.571  0.7287  1.0764 -0.1221
 5601TIP3   OH240997   1.294   6.755   8.301  0.0408  1.1038  0.0676
 5601TIP3    H140998   1.271   6.666   8.273  1.4767  0.9730 -0.8042
 5601TIP3    H240999   1.367   6.779   8.244  0.7417  2.2157  1.3968
 5602TIP3   OH241000   4.227   4.429   9.221  0.1495  0.0639 -0.1800
 5602TIP3    H141001   4.140   4.425   9.260  0.2921  0.4962  0.2035
 5602TIP3    H241002   4.222   4.503   9.160  0.9822  1.8788  1.8094
 5603TIP3   OH241003   1.193   3.155   9.602  0.5016 -0.1390  0.1321
 5603TIP3    H141004   1.288   3.146   9.599  0.5741  0.6880 -0.9735
 5603TIP3    H241005   1.179   3.239   9.646  0.3033 -0.0355 -0.1268
 5604TIP3   OH241006   2.350   2.211   7.791 -0.0199  0.5711  0.1447
 5604TIP3    H141007   2.345   2.132   7.738 -0.4709 -0.3878  1.5700
 5604TIP3    H241008   2.318   2.185   7.877 -0.2160  2.3207  0.6433
 5605TIP3   OH241009   2.104   3.872   7.874  0.1838  0.4720  0.3876
 5605TIP3    H141010   2.160   3.809   7.828 -2.0555 -0.9248 -0.5917
 5605TIP3    H241011   2.050   3.910   7.804 -1.0349  0.7616  1.4693
 5606TIP3   OH241012   3.508   6.914   6.952  0.0961 -0.3068 -0.2807
 5606TIP3    H141013   3.472   6.922   6.863 -1.5655  2.4038  0.5163
 5606TIP3    H241014   3.585   6.970   6.952  1.6262 -2.2996 -0.6250
 5607TIP3   OH241015   0.570   3.332   7.524 -0.9790  0.5131  0.4481
 5607TIP3    H141016   0.634   3.275   7.565 -1.7195  0.4574  1.5827
 5607TIP3    H241017   0.577   3.314   7.430  1.1752  1.0787  0.4604
 5608TIP3   OH241018   5.769   4.803   9.939 -0.6219  0.6152  0.0230
 5608TIP3    H141019   5.756   4.813  10.033  0.1940  0.2222  0.1829
 5608TIP3    H241020   5.794   4.711   9.927 -1.6577  0.4022 -0.6897
 5609TIP3   OH241021   6.098   1.186   9.974 -0.4657 -0.3496  0.1023
 5609TIP3    H141022   6.048   1.257  10.013  1.2404  0.1705  1.4706
 5609TIP3    H241023   6.058   1.172   9.888 -4.1681 -1.3253  1.8237
 5610TIP3   OH241024   3.851   2.644   1.416  0.4705 -0.2352 -0.0580
 5610TIP3    H141025   3.792   2.572   1.439  0.2138 -0.0112 -0.0156
 5610TIP3    H241026   3.797   2.723   1.421  1.2805  0.2512  2.1616
 5611TIP3   OH241027   5.324   1.069   1.010  0.2836  0.2717  0.7075
 5611TIP3    H141028   5.283   1.073   1.096 -1.9672  0.2249 -0.2906
 5611TIP3    H241029   5.360   0.980   1.005 -2.5080 -0.9311  0.4122
 5612TIP3   OH241030   4.268   4.119   9.420 -0.0189 -0.1743 -0.3041
 5612TIP3    H141031   4.224   4.035   9.433  2.7701 -1.8693 -0.9750
 5612TIP3    H241032   4.258   4.136   9.326 -0.8402  0.4585 -0.1176
 5613TIP3   OH241033   2.256   5.115   2.789 -0.8941 -0.1313 -0.3249
 5613TIP3    H141034   2.332   5.172   2.780 -1.2038  0.1764 -1.1246
 5613TIP3    H241035   2.200   5.160   2.852 -1.2929  0.6558 -1.2025
 5614TIP3   OH241036   6.018   0.544   1.012 -0.3890  0.0575 -0.2975
 5614TIP3    H141037   6.108   0.517   0.993  0.0709  0.1566  1.5045
 5614TIP3    H241038   5.980   0.472   1.062 -0.3191  1.1534  1.4495
 5615TIP3   OH241039   3.850   0.924   0.003  0.0905  0.0847 -0.6915
 5615TIP3    H141040   3.889   0.846  -0.037 -1.5449 -1.1860  0.0638
 5615TIP3    H241041   3.914   0.952   0.069  1.0521 -0.1245 -1.5109
 5616TIP3   OH241042   6.597   4.635   7.778 -0.1595  0.5326  0.1381
 5616TIP3    H141043   6.616   4.573   7.708  1.1424  2.5984 -1.4473
 5616TIP3    H241044   6.501   4.645   7.775 -0.1929  0.0387 -0.8536
 5617TIP3   OH241045   6.766   0.430   1.395  0.4172 -0.4460  0.1177
 5617TIP3    H141046   6.745   0.511   1.349  1.8135  0.3204  0.7709
 5617TIP3    H241047   6.852   0.404   1.361 -0.6315 -2.4873 -1.1575
 5618TIP3   OH241048   7.340   2.930   8.028 -0.5822 -0.5314  0.0226
 5618TIP3    H141049   7.379   2.873   7.963 -0.0443  1.0551 -1.1247
 5618TIP3    H241050   7.325   3.013   7.981  0.6474  0.9602  2.1022
 5619TIP3   OH241051   3.425   5.327   9.056 -0.2326  0.0193 -0.5590
 5619TIP3    H141052   3.347   5.303   9.107 -0.4327 -0.8638 -1.2435
 5619TIP3    H241053   3.486   5.363   9.120 -1.3837  1.1884 -0.0761
 5620TIP3   OH241054   2.080   0.473   7.084 -0.1515 -0.2644  0.7019
 5620TIP3    H141055   2.090   0.416   7.008 -2.4759 -0.1426  0.2327
 5620TIP3    H241056   2.096   0.417   7.159 -0.8427 -1.1665  0.1933
 5621TIP3   OH241057   1.843   2.321   7.637  0.0541  0.2932  0.8916
 5621TIP3    H141058   1.764   2.316   7.690  0.0737 -1.3966  0.8357
 5621TIP3    H241059   1.914   2.304   7.699  0.1628 -0.5743  0.5483
 5622TIP3   OH241060   2.061   2.806   1.854 -0.2497 -0.2481  0.7090
 5622TIP3    H141061   1.996   2.868   1.822 -0.8843 -1.0329  0.4312
 5622TIP3    H241062   2.120   2.858   1.908 -1.0374  0.5079  0.8663
 5623TIP3   OH241063   5.971   6.569   1.616  0.0031 -0.4783 -0.1740
 5623TIP3    H141064   6.058   6.533   1.632  1.1818  2.7295  1.7735
 5623TIP3    H241065   5.918   6.539   1.690  0.2649 -0.2864  0.0957
 5624TIP3   OH241066   6.026   3.022   9.926  0.1312 -0.5025  0.3291
 5624TIP3    H141067   5.985   3.078   9.992 -2.1774 -0.8131 -0.7324
 5624TIP3    H241068   6.113   3.060   9.913 -0.4229  1.2786  1.4729
 5625TIP3   OH241069   2.011   6.815   9.028  0.1642  0.2895 -0.9696
 5625TIP3    H141070   2.008   6.910   9.036  0.5414  0.1519  1.4401
 5625TIP3    H241071   1.921   6.790   9.007 -0.6728  0.9960  1.5468
 5626TIP3   OH241072   2.687   2.861   1.563 -0.0152 -0.3048  0.5131
 5626TIP3    H141073   2.727   2.924   1.503  0.1862 -0.9221 -0.0135
 5626TIP3    H241074   2.645   2.797   1.505  1.8529 -2.0083  0.9677
 5627TIP3   OH241075   2.869   1.535   2.579 -0.4045  0.6007  0.1674
 5627TIP3    H141076   2.918   1.538   2.661 -0.3445  2.1253  0.0998
 5627TIP3    H241077   2.790   1.485   2.600  1.3002 -2.3225  0.1577
 5628TIP3   OH241078   4.747   1.336   1.685  0.1422  0.4694  0.2126
 5628TIP3    H141079   4.785   1.357   1.600 -1.0170 -1.8129 -0.9449
 5628TIP3    H241080   4.664   1.385   1.686  0.1718  0.5247  0.0478
 5629TIP3   OH241081   1.256   6.781   7.257  0.3162  0.0849  0.6174
 5629TIP3    H141082   1.344   6.744   7.251 -0.1919 -1.2696  1.2905
 5629TIP3    H241083   1.208   6.740   7.185  0.8017  2.6135 -1.3041
 5630TIP3   OH241084   0.839   4.923   9.276  0.6531  0.3892 -0.1916
 5630TIP3    H141085   0.774   4.869   9.321 -0.4633  1.0318 -1.0048
 5630TIP3    H241086   0.855   4.996   9.336  0.4897  0.3356 -0.0813
 5631TIP3   OH241087   3.581   7.318   2.090 -0.1721  0.1795 -0.1238
 5631TIP3    H141088   3.615   7.404   2.065  0.8615 -0.5840 -1.5280
 5631TIP3    H241089   3.569   7.273   2.006 -1.1227 -0.8951  0.5726
 5632TIP3   OH241090   2.526   6.662   7.043 -0.3057  0.2579  0.3616
 5632TIP3    H141091   2.439   6.702   7.041 -1.0498 -1.2971  0.4586
 5632TIP3    H241092   2.532   6.614   6.961 -0.7601 -2.0661  1.6124
 5633TIP3   OH241093   4.655   3.650   1.217  0.6223 -0.0804 -0.1845
 5633TIP3    H141094   4.615   3.734   1.192  0.0289 -0.2226  0.2456
 5633TIP3    H241095   4.702   3.669   1.298  0.8462 -0.0647 -0.3199
 5634TIP3   OH241096   0.981   3.094   8.898  0.1015  0.0824 -0.8085
 5634TIP3    H141097   0.914   3.137   8.844 -0.9399  0.8394  0.9955
 5634TIP3    H241098   1.063   3.136   8.873 -0.4201  0.7059 -1.5110
 5635TIP3   OH241099   0.579   3.768   0.037  0.1035 -0.6004 -0.0913
 5635TIP3    H141100   0.653   3.785  -0.021 -0.4277  0.9003 -0.3740
 5635TIP3    H241101   0.503   3.765  -0.021 -0.5664  1.8777  0.5487
 5636TIP3   OH241102   5.734   1.084   8.659 -0.3731  0.3397  0.1188
 5636TIP3    H141103   5.753   0.991   8.651 -1.1925  0.1546  0.3038
 5636TIP3    H241104   5.639   1.090   8.661 -0.3352  1.2028 -0.1340
 5637TIP3   OH241105   2.854   7.288   2.508  0.4462 -0.6038  0.0707
 5637TIP3    H141106   2.802   7.208   2.509 -1.4353  0.5512  0.1133
 5637TIP3    H241107   2.911   7.280   2.432 -1.9264 -0.6731 -1.7959
 5638TIP3   OH241108   3.913   7.246   2.065 -0.2894 -0.1676 -0.3302
 5638TIP3    H141109   3.846   7.313   2.052  1.4721  1.5930 -0.8088
 5638TIP3    H241110   3.938   7.219   1.977  1.4042  1.0884 -0.2689
 5639TIP3   OH241111   4.447   0.315   9.807  0.1578 -0.2983 -0.6926
 5639TIP3    H141112   4.378   0.252   9.826  0.3922 -0.8883 -1.7111
 5639TIP3    H241113   4.514   0.264   9.761  0.1095  0.7806 -2.0319
 5640TIP3   OH241114   3.383   0.649   9.126  0.0146 -0.2999  0.5500
 5640TIP3    H141115   3.403   0.635   9.033 -0.4722  1.4547  0.1394
 5640TIP3    H241116   3.290   0.627   9.133  0.1185 -0.6973  0.6848
 5641TIP3   OH241117   3.224   5.642   0.443 -0.4034 -0.9712  0.9809
 5641TIP3    H141118   3.296   5.697   0.412  0.3503 -0.8029  2.9406
 5641TIP3    H241119   3.161   5.703   0.481  0.0233 -1.3709  2.3568
 5642TIP3   OH241120   2.111   6.497   7.796 -0.3978 -0.9289 -0.6329
 5642TIP3    H141121   2.174   6.470   7.863  0.5172  1.2836 -0.5281
 5642TIP3    H241122   2.028   6.503   7.844  0.3516  1.1837  0.5305
 5643TIP3   OH241123   5.341   3.028   0.947  0.2057  0.3726 -0.0754
 5643TIP3    H141124   5.403   3.099   0.966  0.1909  0.7451 -1.3651
 5643TIP3    H241125   5.264   3.048   1.001  1.1937 -0.1327  1.6105
 5644TIP3   OH241126   3.430   3.861   8.998 -0.8808  0.0316 -0.3679
 5644TIP3    H141127   3.380   3.899   9.070 -0.2261 -0.7984  0.5557
 5644TIP3    H241128   3.464   3.937   8.950 -0.7471  0.6169  0.6172
 5645TIP3   OH241129   1.521   2.909   0.598  0.0636  0.2334  0.3934
 5645TIP3    H141130   1.456   2.894   0.529  0.1002  3.1954 -0.4572
 5645TIP3    H241131   1.547   2.822   0.627 -0.6968 -1.1551 -2.6646
 5646TIP3   OH241132   1.432   1.041   0.056 -0.3750 -0.1048  0.3388
 5646TIP3    H141133   1.453   1.104   0.125 -0.3456 -1.1719  1.3463
 5646TIP3    H241134   1.479   1.073  -0.021  1.2268  0.0735  1.3315
 5647TIP3   OH241135   4.908   7.381   9.642  0.2323 -0.8338 -0.6581
 5647TIP3    H141136   4.902   7.444   9.570  3.5243 -0.7411 -1.0012
 5647TIP3    H241137   4.829   7.397   9.694 -0.3367  1.7626 -2.1235
 5648TIP3   OH241138   1.518   7.480   7.774  0.5322 -0.0107  0.1793
 5648TIP3    H141139   1.475   7.566   7.779  0.7730  0.0721  0.8816
 5648TIP3    H241140   1.509   7.455   7.682 -1.8539 -0.4234  0.4529
 5649TIP3   OH241141   4.994   0.632   9.684  0.0678  0.2064  0.5297
 5649TIP3    H141142   4.942   0.709   9.705 -2.3124 -1.7118  2.1462
 5649TIP3    H241143   4.945   0.587   9.615 -0.2274 -1.3356  1.6774
 5650TIP3   OH241144   4.550   7.285   8.780  0.0188 -0.1193 -0.3158
 5650TIP3    H141145   4.616   7.241   8.727  0.4038 -0.0352  0.0918
 5650TIP3    H241146   4.519   7.356   8.724  0.9224  0.4024 -0.1737
 5651TIP3   OH241147   5.439   0.327   9.018  0.4693 -0.1588 -0.2988
 5651TIP3    H141148   5.411   0.238   8.997 -0.3678  0.1331 -0.4619
 5651TIP3    H241149   5.459   0.366   8.933 -0.5161  0.2423 -0.3543
 5652TIP3   OH241150   2.967   6.283   8.195  0.0285 -0.4151  0.3276
 5652TIP3    H141151   2.916   6.202   8.184  0.1283 -0.4939  0.4454
 5652TIP3    H241152   2.918   6.349   8.146 -0.2791 -0.4527  0.5801
 5653TIP3   OH241153   1.460   1.052   7.575  0.4255  0.1361 -0.5889
 5653TIP3    H141154   1.472   0.957   7.572 -0.6953  0.0027 -1.3170
 5653TIP3    H241155   1.549   1.086   7.587  0.8923 -0.9817 -0.6789
 5654TIP3   OH241156   6.474   5.763   9.571 -0.2487 -0.1221 -0.0796
 5654TIP3    H141157   6.562   5.779   9.604  0.5337 -2.0192 -1.1092
 5654TIP3    H241158   6.447   5.846   9.532  1.0209  0.5095  0.3540
 5655TIP3   OH241159   4.616   4.583   0.911  0.2478 -0.2654  0.0775
 5655TIP3    H141160   4.693   4.632   0.937  0.7495 -1.6915  1.4059
 5655TIP3    H241161   4.547   4.612   0.972 -0.4325  1.2949 -1.3511
 5656TIP3   OH241162   6.857   4.896   7.408 -0.0843 -0.2882  0.3867
 5656TIP3    H141163   6.938   4.847   7.421 -0.5664 -0.9257  1.1026
 5656TIP3    H241164   6.885   4.987   7.398  0.7241 -0.5214  0.5010
 5657TIP3   OH241165   3.815   7.165   0.199 -0.1459 -0.5700  0.1764
 5657TIP3    H141166   3.891   7.162   0.258  0.4306  3.0925 -0.1253
 5657TIP3    H241167   3.841   7.111   0.124  1.6863 -0.3851  0.6284
 5658TIP3   OH241168   2.450   0.656   1.904  0.0300 -0.0618  0.2970
 5658TIP3    H141169   2.414   0.728   1.852 -1.1019 -1.2776 -0.6473
 5658TIP3    H241170   2.544   0.657   1.884  0.1256  1.4417  0.6940
 5659TIP3   OH241171   3.408   1.417   9.043  0.1760 -0.4277 -0.3938
 5659TIP3    H141172   3.332   1.388   8.992 -0.5315  0.2916  0.2270
 5659TIP3    H241173   3.384   1.504   9.074  0.9561 -0.4942  0.4308
 5660TIP3   OH241174   4.593   1.347   8.447  0.6633  0.4724 -0.4796
 5660TIP3    H141175   4.670   1.292   8.464  0.7089 -0.3225 -2.9499
 5660TIP3    H241176   4.518   1.289   8.462  0.6204  0.5371 -0.4426
 5661TIP3   OH241177   1.507   5.843   9.218  0.5310  0.3868 -0.3508
 5661TIP3    H141178   1.584   5.786   9.214 -0.9177 -1.6727 -0.5544
 5661TIP3    H241179   1.493   5.857   9.312  0.6864  0.1178 -0.2867
 5662TIP3   OH241180   3.190   4.449   8.040  0.3013 -0.2963  0.2098
 5662TIP3    H141181   3.274   4.405   8.025  0.7407  0.5609  0.1106
 5662TIP3    H241182   3.141   4.387   8.094  0.9107 -0.8992  0.0979
 5663TIP3   OH241183   2.955   2.505   1.861 -0.4702 -0.1922 -0.1860
 5663TIP3    H141184   3.033   2.462   1.827 -0.4701 -1.2564  1.0719
 5663TIP3    H241185   2.922   2.557   1.788 -0.5876 -2.4894 -1.8721
 5664TIP3   OH241186   5.932   4.136   9.334 -0.0342 -0.4964 -0.1979
 5664TIP3    H141187   5.939   4.155   9.241  0.4574 -1.4042 -0.3566
 5664TIP3    H241188   5.888   4.212   9.371  2.8337  1.5330 -0.6061
 5665TIP3   OH241189   6.830   5.834   8.101 -0.4076  0.4037  0.2241
 5665TIP3    H141190   6.753   5.890   8.087 -0.5238  0.2068  0.0598
 5665TIP3    H241191   6.836   5.825   8.196 -0.5952  0.4116  0.2377
 5666TIP3   OH241192   2.380   1.440   9.597  0.1900  0.3980 -0.0571
 5666TIP3    H141193   2.329   1.502   9.650  0.6275  0.3003  0.4910
 5666TIP3    H241194   2.319   1.409   9.530 -0.5260  0.1480  0.6945
 5667TIP3   OH241195   0.154   3.913   9.329  0.1655  0.0258 -0.2724
 5667TIP3    H141196   0.107   3.968   9.392  0.5927 -1.0644  1.0451
 5667TIP3    H241197   0.121   3.941   9.243 -0.6879  1.3100  0.4432
 5668TIP3   OH241198   6.751   1.514   2.438 -0.1735  0.3318  0.0447
 5668TIP3    H141199   6.776   1.426   2.466 -1.9027 -0.0832  0.4193
 5668TIP3    H241200   6.718   1.555   2.518  0.9840  1.4920 -0.0389
 5669TIP3   OH241201   3.399   7.113   7.824  0.1312  0.3881  0.0393
 5669TIP3    H141202   3.355   7.029   7.819  1.2442 -0.2487  0.6200
 5669TIP3    H241203   3.391   7.139   7.916  0.8218  0.3308  0.1203
 5670TIP3   OH241204   0.767   3.590   7.130 -0.4097  0.0653  0.5006
 5670TIP3    H141205   0.818   3.655   7.081 -0.4009  1.0596  1.7760
 5670TIP3    H241206   0.688   3.637   7.156 -0.3279 -0.3841  1.5850
 5671TIP3   OH241207   6.942   5.237   8.746  0.2241 -0.1155  0.1420
 5671TIP3    H141208   7.034   5.261   8.739  1.1700 -3.1427  0.5070
 5671TIP3    H241209   6.921   5.196   8.662 -0.7503  0.3504  0.1389
 5672TIP3   OH241210   1.486   3.075   7.783 -0.4256 -0.4610 -0.7115
 5672TIP3    H141211   1.488   3.130   7.704  1.6512 -0.5886 -0.8011
 5672TIP3    H241212   1.548   3.004   7.764 -0.3938 -0.8580  0.7853
 5673TIP3   OH241213   5.798   2.373   9.843 -0.6414  0.6364 -0.3466
 5673TIP3    H141214   5.806   2.464   9.872 -0.8720  0.7203 -0.5442
 5673TIP3    H241215   5.705   2.362   9.824 -0.6688  0.2668 -0.0183
 5674TIP3   OH241216   0.658   5.184   2.003  0.0902  0.5171  0.1169
 5674TIP3    H141217   0.734   5.172   2.060 -0.0241  0.2136  0.2056
 5674TIP3    H241218   0.587   5.138   2.048 -0.1802  0.9183  0.1058
 5675TIP3   OH241219   1.166   3.092   0.501 -0.5453  0.1828 -0.1297
 5675TIP3    H141220   1.210   3.064   0.421 -0.0732  0.3769  0.0615
 5675TIP3    H241221   1.199   3.181   0.517 -0.3075 -0.0185  0.5171
 5676TIP3   OH241222   4.211   5.504   1.019  0.2062  0.3062 -0.0338
 5676TIP3    H141223   4.123   5.469   1.003  0.6704  0.1488 -2.6433
 5676TIP3    H241224   4.223   5.496   1.114 -1.9727 -1.1335  0.1899
 5677TIP3   OH241225   7.162   2.107   0.721 -0.2301 -0.3540 -0.3495
 5677TIP3    H141226   7.107   2.185   0.712 -0.3119 -0.4068 -0.3093
 5677TIP3    H241227   7.239   2.127   0.668 -0.5392 -0.5069 -0.8690
 5678TIP3   OH241228   6.655   2.899   2.268 -0.0054  0.3378  0.3150
 5678TIP3    H141229   6.709   2.977   2.280 -0.0234  0.4145 -0.0787
 5678TIP3    H241230   6.704   2.846   2.205 -0.4055  0.4292 -0.0797
 5679TIP3   OH241231   5.540   6.228   1.386 -0.1444  0.1845  0.5892
 5679TIP3    H141232   5.461   6.257   1.431  0.7416  1.0998  1.6069
 5679TIP3    H241233   5.526   6.135   1.369 -2.2806  0.7384 -1.0808
 5680TIP3   OH241234   4.508   3.173   0.188 -0.6405  0.2356 -0.0265
 5680TIP3    H141235   4.521   3.083   0.218  2.0958  0.3164 -0.7420
 5680TIP3    H241236   4.445   3.166   0.116 -0.6182 -1.0527  0.0672
 5681TIP3   OH241237   6.856   4.122   8.290  0.4735  0.1953  0.2965
 5681TIP3    H141238   6.925   4.100   8.227 -0.9493 -0.6804 -1.0124
 5681TIP3    H241239   6.775   4.122   8.238 -0.6261  0.3569  1.9518
 5682TIP3   OH241240   0.007   2.097   9.409 -0.1509  0.5423 -0.2045
 5682TIP3    H141241   0.035   2.105   9.500 -0.1233  1.2972 -0.2707
 5682TIP3    H241242  -0.019   2.005   9.399  0.6202  0.2645  0.3373
 5683TIP3   OH241243   5.782   6.251   8.354 -0.2544 -0.2681 -0.8023
 5683TIP3    H141244   5.871   6.229   8.325  0.0555 -0.5875  0.3565
 5683TIP3    H241245   5.775   6.213   8.442 -0.6405  1.9275  0.1709
 5684TIP3   OH241246   1.112   5.009   8.262  0.1865 -0.5278 -0.0893
 5684TIP3    H141247   1.070   4.953   8.198  1.4768 -1.7993  0.1092
 5684TIP3    H241248   1.179   4.954   8.302 -1.2841 -0.1854  3.1835
 5685TIP3   OH241249   5.250   6.231   0.056  0.5873  0.1136 -0.5822
 5685TIP3    H141250   5.213   6.160   0.109  1.4404 -0.0051 -0.1360
 5685TIP3    H241251   5.327   6.192   0.015  1.3581  0.9105  0.0653
 5686TIP3   OH241252   7.180   0.067   7.812  0.1243 -0.0234 -0.3860
 5686TIP3    H141253   7.209   0.158   7.800 -1.6638  0.6020 -0.3565
 5686TIP3    H241254   7.135   0.046   7.730 -0.0772 -0.6368 -0.1199
 5687TIP3   OH241255   5.927   5.435   7.753 -0.3522 -0.0305  0.0990
 5687TIP3    H141256   5.884   5.450   7.669 -0.0552 -0.0943 -0.0670
 5687TIP3    H241257   5.883   5.494   7.814  0.0502  0.7019 -0.3055
 5688TIP3   OH241258   1.301   6.347   1.930 -0.6799 -0.5251 -0.5462
 5688TIP3    H141259   1.332   6.297   1.854  2.4488  2.2715 -1.3464
 5688TIP3    H241260   1.364   6.326   1.999 -1.8058 -0.8266  0.4113
 5689TIP3   OH241261   2.385   5.607   1.392  0.0982 -0.4836 -0.4233
 5689TIP3    H141262   2.411   5.550   1.319  1.1950  1.0923 -1.3316
 5689TIP3    H241263   2.449   5.590   1.460 -0.9611 -2.0029  0.2564
 5690TIP3   OH241264   5.885   4.943   0.834  0.3517  0.5015 -0.1527
 5690TIP3    H141265   5.802   4.940   0.786 -0.1387  1.3811  0.6147
 5690TIP3    H241266   5.921   5.029   0.813 -0.5277  1.4933  2.0730
 5691TIP3   OH241267   5.648   1.429   0.207 -0.3079  0.3127 -0.2544
 5691TIP3    H141268   5.608   1.343   0.192  1.2853 -0.2564 -1.4526
 5691TIP3    H241269   5.696   1.418   0.289  0.0162 -0.0064 -0.4815
 5692TIP3   OH241270   2.027   7.165   9.771  0.0989 -0.1692  0.1968
 5692TIP3    H141271   1.975   7.100   9.725 -0.7130  2.0267 -2.2043
 5692TIP3    H241272   1.972   7.244   9.773  1.9559  1.1964  0.7877
 5693TIP3   OH241273   2.367   0.970   8.390  0.0178  0.0710 -0.1118
 5693TIP3    H141274   2.315   1.005   8.317 -0.0509 -1.4859 -0.8559
 5693TIP3    H241275   2.432   0.913   8.348  0.4645 -0.2740  1.0078
 5694TIP3   OH241276   2.585   0.810   8.297  0.0511 -0.2983  0.0979
 5694TIP3    H141277   2.598   0.716   8.309 -1.0881 -0.4673  0.0798
 5694TIP3    H241278   2.674   0.845   8.286  0.3725 -1.6571 -2.0991
 5695TIP3   OH241279   4.004   2.153   8.809 -0.5412  0.7641 -0.3890
 5695TIP3    H141280   4.009   2.247   8.826  1.9171  0.6639 -0.2584
 5695TIP3    H241281   3.995   2.114   8.896  2.5734  0.7511  0.0535
 5696TIP3   OH241282   2.264   0.159   9.308 -0.0025 -0.0050 -0.1116
 5696TIP3    H141283   2.204   0.089   9.286 -0.6839  0.3264  0.6344
 5696TIP3    H241284   2.296   0.137   9.396  0.9192 -0.1449 -0.4693
 5697TIP3   OH241285   1.491   4.858   2.007  0.0934  0.0765  0.0430
 5697TIP3    H141286   1.399   4.872   2.031  0.8506  1.1967  2.6104
 5697TIP3    H241287   1.501   4.906   1.925 -1.2495  1.3250  0.5549
 5698TIP3   OH241288   5.200   4.369   9.824  0.2304  0.3346 -0.1475
 5698TIP3    H141289   5.212   4.461   9.848  0.3744  0.4756 -0.7357
 5698TIP3    H241290   5.232   4.364   9.733 -1.8716  0.2148 -0.9393
 5699TIP3   OH241291   1.469   5.400   1.968  0.4542 -0.2389  0.1586
 5699TIP3    H141292   1.558   5.432   1.958  0.5087  0.0959  1.5477
 5699TIP3    H241293   1.477   5.321   2.021 -0.2200  0.8405  1.9344
 5700TIP3   OH241294   0.654   0.788   2.565 -0.2728 -0.4067 -0.0812
 5700TIP3    H141295   0.650   0.857   2.632 -1.5675 -1.5278  1.0551
 5700TIP3    H241296   0.602   0.823   2.492  0.0485  0.2843  0.0120
 5701TIP3   OH241297   5.834   3.944   1.918 -0.0668 -0.5150 -0.1837
 5701TIP3    H141298   5.855   3.992   1.838  1.5573 -0.1706  0.4049
 5701TIP3    H241299   5.740   3.958   1.931 -0.0185  0.8417 -1.1020
 5702TIP3   OH241300   6.207   0.330   9.463 -0.1726  0.3195  0.1691
 5702TIP3    H141301   6.137   0.338   9.399  1.4034  0.3688 -1.6506
 5702TIP3    H241302   6.163   0.310   9.545 -2.1812 -1.7879 -1.3136
 5703TIP3   OH241303   0.650   1.716   1.960 -0.1384  0.0197  0.4136
 5703TIP3    H141304   0.635   1.738   1.869 -1.0884 -0.7500  0.3662
 5703TIP3    H241305   0.736   1.674   1.961  0.9043  2.0459  0.2461
 5704TIP3   OH241306   4.580   4.866   1.675 -0.0043 -0.1241  0.1104
 5704TIP3    H141307   4.648   4.888   1.610  0.5949 -2.0601 -0.0138
 5704TIP3    H241308   4.592   4.929   1.745  0.7400  0.6990 -0.7276
 5705TIP3   OH241309   4.995   1.512   0.313 -0.1089 -0.1515 -0.2991
 5705TIP3    H141310   5.022   1.482   0.226  0.0517  0.8787 -0.6192
 5705TIP3    H241311   4.932   1.582   0.296 -0.1093  0.0310  0.4135
 5706TIP3   OH241312   3.886   2.128   9.314 -0.0549 -0.3401  0.4529
 5706TIP3    H141313   3.799   2.100   9.284 -0.4737  0.7850  0.5692
 5706TIP3    H241314   3.896   2.088   9.400 -0.7776  0.1172  0.7576
 5707TIP3   OH241315   0.051   1.142   0.691  0.3658 -0.1552 -0.0422
 5707TIP3    H141316   0.146   1.138   0.705  0.1195 -3.5029  1.5954
 5707TIP3    H241317   0.018   1.196   0.762  0.9713  0.4286 -0.1980
 5708TIP3   OH241318   3.430   1.997   7.848 -0.0102 -0.0300 -0.5054
 5708TIP3    H141319   3.363   2.050   7.806 -0.1557  0.8314  0.7658
 5708TIP3    H241320   3.459   2.049   7.923  1.2911 -0.8702 -0.3893
 5709TIP3   OH241321   5.634   6.326   9.260 -0.1353 -0.2844 -0.4542
 5709TIP3    H141322   5.547   6.338   9.300  0.0054 -0.2087 -0.1686
 5709TIP3    H241323   5.689   6.391   9.303  0.3913 -1.2442  0.3572
 5710TIP3   OH241324   3.293   6.585   2.314  0.0584  0.4905 -0.2710
 5710TIP3    H141325   3.214   6.544   2.349 -0.9164  1.3451 -1.3807
 5710TIP3    H241326   3.364   6.554   2.370 -1.1896  0.4424  1.3258
 5711TIP3   OH241327   4.088   6.812   0.317  0.4094  0.0287  0.0189
 5711TIP3    H141328   4.169   6.811   0.267  1.0657  1.6558  0.9547
 5711TIP3    H241329   4.056   6.721   0.314  0.8903 -0.1308 -2.4832
 5712TIP3   OH241330   4.792   0.057   9.439 -0.0061 -0.1525  0.3338
 5712TIP3    H141331   4.775   0.090   9.351 -0.3486 -2.1898 -0.4194
 5712TIP3    H241332   4.707   0.063   9.484 -0.4602 -1.4216 -0.3143
 5713TIP3   OH241333   2.157   0.353   3.684  0.1539  0.1093  0.6580
 5713TIP3    H141334   2.217   0.353   3.758  0.4708 -0.8219  0.4172
 5713TIP3    H241335   2.095   0.424   3.703  1.4637  1.2688  0.7855
 5714TIP3   OH241336   2.986   7.266   6.859 -0.1923  0.1595  0.4898
 5714TIP3    H141337   3.054   7.214   6.903  1.6896 -0.4489 -2.7703
 5714TIP3    H241338   2.991   7.352   6.899  0.4257 -0.6651  2.3020
 5715TIP3   OH241339   2.549   2.895   8.903 -0.0347 -0.3533 -0.4139
 5715TIP3    H141340   2.546   2.970   8.845  0.7291 -0.5736 -0.7500
 5715TIP3    H241341   2.539   2.819   8.845  1.7425 -0.6251 -0.4081
 5716TIP3   OH241342   1.980   4.473   2.226  0.1930  0.8809  0.3602
 5716TIP3    H141343   1.943   4.558   2.202 -3.2739 -0.6005 -0.1732
 5716TIP3    H241344   1.921   4.440   2.294  2.0777 -0.7016  1.3153
 5717TIP3   OH241345   2.907   3.485   9.446 -0.2992  0.0286  0.8591
 5717TIP3    H141346   2.923   3.578   9.430  0.6988  0.2026  2.5676
 5717TIP3    H241347   2.820   3.483   9.486  0.1560  0.3921  1.9060
 5718TIP3   OH241348   4.561   2.901   0.623  0.0173 -0.0594  0.1651
 5718TIP3    H141349   4.654   2.916   0.641  0.1235 -0.2012 -0.2648
 5718TIP3    H241350   4.560   2.851   0.542 -0.4725  0.7557 -0.3381
 5719TIP3   OH241351   1.722   1.192   7.285 -0.4131 -0.5149  0.2218
 5719TIP3    H141352   1.808   1.155   7.305 -0.2113  0.1526  0.6332
 5719TIP3    H241353   1.673   1.120   7.244  1.6317  0.1429 -3.8334
 5720TIP3   OH241354   0.485   5.738   1.372 -0.3773  0.2940  0.1748
 5720TIP3    H141355   0.390   5.751   1.373 -0.2959  1.3275 -1.5425
 5720TIP3    H241356   0.522   5.825   1.383  0.4114 -0.1837  1.5363
 5721TIP3   OH241357   4.887   7.255   7.545  0.0707  0.1971 -0.3406
 5721TIP3    H141358   4.877   7.316   7.618 -3.9545  0.2054 -0.6772
 5721TIP3    H241359   4.906   7.310   7.469 -0.3857  0.6970 -0.0949
 5722TIP3   OH241360   0.429   2.533   0.605  0.1549  0.0925 -0.5880
 5722TIP3    H141361   0.417   2.442   0.577 -0.7447  0.1727 -0.5068
 5722TIP3    H241362   0.384   2.538   0.690  0.9366  0.4002 -0.1890
 5723TIP3   OH241363   4.577   3.671   7.505 -0.3504 -0.1628  0.1396
 5723TIP3    H141364   4.551   3.753   7.462  0.3791  0.0770  0.1403
 5723TIP3    H241365   4.509   3.656   7.570 -1.4072 -0.4621 -0.9929
 5724TIP3   OH241366   3.111   4.522   0.073  0.2398 -0.0355  0.2836
 5724TIP3    H141367   3.158   4.439   0.067 -0.3268 -0.2751 -1.2125
 5724TIP3    H241368   3.178   4.587   0.094  0.8736 -0.6968  0.3141
 5725TIP3   OH241369   4.828   6.567   9.635  0.1404 -0.0370 -0.4006
 5725TIP3    H141370   4.889   6.532   9.700 -0.9391 -0.0817  0.6224
 5725TIP3    H241371   4.747   6.518   9.648 -0.2395  0.2759 -1.4759
 5726TIP3   OH241372   7.067   2.378   2.545 -0.4790 -0.2561  0.0329
 5726TIP3    H141373   7.093   2.464   2.578 -0.4266 -0.0957 -0.4249
 5726TIP3    H241374   7.052   2.391   2.451  2.0806 -1.3241 -0.6056
 5727TIP3   OH241375   6.795   6.704   8.901 -0.2325 -0.8534 -0.3242
 5727TIP3    H141376   6.822   6.751   8.979  1.1477  1.9447 -2.3033
 5727TIP3    H241377   6.779   6.615   8.931 -0.8195  0.2940  3.2842
 5728TIP3   OH241378   0.541   5.482   0.334  0.0686 -0.1122  0.4352
 5728TIP3    H141379   0.506   5.567   0.308  0.7020  0.0330  0.0409
 5728TIP3    H241380   0.608   5.502   0.399  0.2046 -0.3093  0.3581
 5729TIP3   OH241381   7.330   1.857   0.442 -0.0351  0.5820  0.6519
 5729TIP3    H141382   7.389   1.789   0.412 -1.4151 -0.9058  1.1619
 5729TIP3    H241383   7.344   1.862   0.536  0.3470  1.3179  0.5652
 5730TIP3   OH241384   2.503   2.697   8.565 -0.3785  0.0855 -0.2375
 5730TIP3    H141385   2.592   2.670   8.588 -0.3896  0.3258  0.0964
 5730TIP3    H241386   2.448   2.653   8.628 -0.4796  0.1030 -0.3140
 5731TIP3   OH241387   4.491   2.860   8.984 -0.2866  0.1571 -0.2426
 5731TIP3    H141388   4.538   2.809   9.050 -0.3109 -0.2416 -0.5240
 5731TIP3    H241389   4.537   2.944   8.980 -0.9788  0.6231  1.0877
 5732TIP3   OH241390   6.369   4.673   9.045  0.2665  0.4849  0.4439
 5732TIP3    H141391   6.376   4.737   8.974  1.3694  2.1440  1.9497
 5732TIP3    H241392   6.277   4.675   9.070  0.0218  0.4561 -0.4254
 5733TIP3   OH241393   3.639   3.375   7.396  0.3602  0.5970 -0.5406
 5733TIP3    H141394   3.699   3.439   7.359  1.1820  0.9902  1.3564
 5733TIP3    H241395   3.635   3.304   7.331  0.9984  1.6453 -1.7515
 5734TIP3   OH241396   1.537   0.182   1.778  0.4803 -0.6552 -0.3574
 5734TIP3    H141397   1.492   0.240   1.839  2.0984  0.3678 -0.0493
 5734TIP3    H241398   1.612   0.234   1.747  0.3726 -1.5580 -2.3270
 5735TIP3   OH241399   1.056   1.920   2.391  0.4471 -0.8556 -0.2838
 5735TIP3    H141400   1.132   1.869   2.365  2.2421  1.6489 -0.2898
 5735TIP3    H241401   1.033   1.971   2.313  1.4130  1.4385  0.8374
 5736TIP3   OH241402   1.851   0.088   1.434 -0.3254 -0.2356 -0.0338
 5736TIP3    H141403   1.819   0.165   1.387  0.5385  0.2936  0.2176
 5736TIP3    H241404   1.917   0.123   1.495 -0.2710 -1.1132  0.4215
 5737TIP3   OH241405   7.182   2.460   8.823 -0.1632  0.3766 -0.4238
 5737TIP3    H141406   7.233   2.381   8.842  0.5136  1.1447  1.1205
 5737TIP3    H241407   7.248   2.529   8.814 -0.6947  0.6765 -2.4122
 5738TIP3   OH241408   5.656   5.837   1.709 -0.6865 -0.0250 -0.6677
 5738TIP3    H141409   5.665   5.755   1.661 -0.3009 -0.1643 -0.3635
 5738TIP3    H241410   5.561   5.847   1.722 -0.8195  0.1789 -1.7174
 5739TIP3   OH241411   2.080   2.162   7.092 -0.1890 -0.2817 -0.3216
 5739TIP3    H141412   2.032   2.227   7.040  1.5321  1.7618  0.5302
 5739TIP3    H241413   2.153   2.136   7.037  0.5844  0.4893  0.3100
 5740TIP3   OH241414   3.836   5.343   9.933 -0.3174 -0.6558  0.1499
 5740TIP3    H141415   3.803   5.409   9.994  0.1849 -0.5598  0.3241
 5740TIP3    H241416   3.889   5.393   9.871  0.0922 -0.8951  0.3033
 5741TIP3   OH241417   5.352   3.541   7.252 -0.1260 -0.1211 -0.4699
 5741TIP3    H141418   5.268   3.537   7.206  0.8115  0.5161 -2.3125
 5741TIP3    H241419   5.354   3.460   7.304 -1.9134 -0.0910 -0.2913
 5742TIP3   OH241420   5.566   3.476   1.561  0.0232 -0.2275 -0.5865
 5742TIP3    H141421   5.655   3.470   1.595 -0.1765 -2.4347 -0.2995
 5742TIP3    H241422   5.576   3.505   1.470  0.7637  2.7040  0.3206
 5743TIP3   OH241423   0.479   6.400   9.004 -0.3443  0.4632  0.1353
 5743TIP3    H141424   0.562   6.428   9.043 -0.0243 -1.5438  1.0017
 5743TIP3    H241425   0.415   6.408   9.075 -0.4110 -0.1949  0.1541
 5744TIP3   OH241426   4.198   1.372   9.718  0.0280  0.3607  0.4693
 5744TIP3    H141427   4.116   1.364   9.767 -0.7112  2.0207 -0.4086
 5744TIP3    H241428   4.174   1.353   9.628  0.2293  2.3176 -0.0534
 5745TIP3   OH241429   5.981   0.682   9.870 -0.5539  0.3954  0.0982
 5745TIP3    H141430   5.913   0.697   9.804  1.3993  2.6088 -1.5607
 5745TIP3    H241431   5.959   0.742   9.941 -0.6179  0.7411 -0.2112
 5746TIP3   OH241432   6.394   0.059   0.521 -0.4731 -0.0718  0.1777
 5746TIP3    H141433   6.325   0.054   0.455 -0.5792 -0.0028  0.2838
 5746TIP3    H241434   6.354   0.107   0.594 -0.6113 -0.8350  0.6102
 5747TIP3   OH241435   0.954   6.985   1.939  0.3472  0.2106 -0.1366
 5747TIP3    H141436   0.939   7.068   1.984 -1.6003 -0.9361  1.5079
 5747TIP3    H241437   1.045   6.963   1.959  1.3079  2.4552 -1.6235
 5748TIP3   OH241438   5.671   2.912   9.089 -0.2519  0.0213  0.3237
 5748TIP3    H141439   5.726   2.912   9.011  0.5833 -2.0601  0.8325
 5748TIP3    H241440   5.663   2.820   9.112 -1.3236  0.5189  2.1271
 5749TIP3   OH241441   7.197   7.092   9.217 -0.0615  0.4377 -0.5617
 5749TIP3    H141442   7.233   7.053   9.138  2.1438 -2.5401  1.6895
 5749TIP3    H241443   7.271   7.099   9.277 -1.9673  0.5081  1.9746
 5750TIP3   OH241444   0.938   5.826   2.079  0.1750  0.1066 -0.3975
 5750TIP3    H141445   0.880   5.801   2.151 -0.4690 -3.1079 -1.8594
 5750TIP3    H241446   1.025   5.829   2.118 -0.3129 -0.2731  0.7678
 5751TIP3   OH241447   4.831   6.859   8.620  0.1933  0.2052 -0.2197
 5751TIP3    H141448   4.745   6.856   8.579  0.6486 -0.8306 -1.1663
 5751TIP3    H241449   4.888   6.897   8.554  0.7736 -0.7011 -0.2629
 5752TIP3   OH241450   3.760   7.453   1.932  0.0798 -0.0671  0.3200
 5752TIP3    H141451   3.829   7.510   1.967 -1.0923  1.1181  0.7921
 5752TIP3    H241452   3.696   7.513   1.895 -1.4093 -1.0375  1.2180
 5753TIP3   OH241453   2.485   5.674   7.297 -0.5958 -1.1230  0.5272
 5753TIP3    H141454   2.525   5.661   7.382 -2.2862 -1.0673  1.3782
 5753TIP3    H241455   2.449   5.763   7.300 -1.5915 -1.4931  0.1809
 5754TIP3   OH241456   4.774   5.033   9.655 -0.1001 -0.2890 -0.3565
 5754TIP3    H141457   4.861   4.998   9.673  0.1524 -0.0738 -1.1026
 5754TIP3    H241458   4.789   5.098   9.587 -0.8620 -0.3411 -0.5791
 5755TIP3   OH241459   2.438   0.390   9.619  0.4973 -0.0206  0.1353
 5755TIP3    H141460   2.419   0.454   9.688 -0.4634 -1.3356  1.1381
 5755TIP3    H241461   2.455   0.443   9.541  0.5675  1.4700  1.1218
 5756TIP3   OH241462   6.981   6.869   2.151 -0.1935 -0.1466 -0.0530
 5756TIP3    H141463   7.011   6.779   2.164  0.0177  0.0007  0.5444
 5756TIP3    H241464   7.061   6.922   2.156 -0.4777  0.2123  1.1518
 5757TIP3   OH241465   3.709   2.890   8.564  0.6991 -0.3942  0.1029
 5757TIP3    H141466   3.614   2.883   8.575  0.7105 -1.2759 -0.2306
 5757TIP3    H241467   3.745   2.861   8.648  0.6801 -0.2583  0.1585
 5758TIP3   OH241468   2.012   0.889   1.145  0.3058  0.1907 -0.1732
 5758TIP3    H141469   1.978   0.816   1.196  0.3577 -0.3890 -0.9467
 5758TIP3    H241470   2.007   0.964   1.204 -2.3246  0.1534 -0.2375
 5759TIP3   OH241471   0.835   3.608   7.744  0.6395 -0.3124 -0.1000
 5759TIP3    H141472   0.888   3.528   7.741  0.8171 -0.1996  0.0409
 5759TIP3    H241473   0.876   3.662   7.812  0.8056  0.1021 -0.5265
 5760TIP3   OH241474   1.910   4.317   8.356 -0.2236  0.6421 -0.2417
 5760TIP3    H141475   1.925   4.306   8.262  0.2435  0.2941 -0.1297
 5760TIP3    H241476   1.944   4.405   8.375  0.1125  0.5281 -0.3109
 5761TIP3   OH241477   2.627   4.867   8.023  0.4232  0.4784  0.5488
 5761TIP3    H141478   2.540   4.905   8.014 -0.3232 -1.5141 -1.6132
 5761TIP3    H241479   2.684   4.923   7.970  0.2617  1.1162  1.0363
 5762TIP3   OH241480   2.816   0.489   0.314 -0.0757  0.6030 -0.4760
 5762TIP3    H141481   2.896   0.541   0.328 -0.4552  1.7654 -2.2158
 5762TIP3    H241482   2.826   0.453   0.226 -0.0198 -2.0457  0.5268
 5763TIP3   OH241483   3.241   6.014   6.446 -0.3707  0.3592 -0.5099
 5763TIP3    H141484   3.187   6.074   6.497 -0.8791 -0.0466 -0.5579
 5763TIP3    H241485   3.256   5.939   6.504  0.5060  0.6502 -0.3438
 5764TIP3   OH241486   2.726   5.720   9.778 -0.3811  0.0014  0.6718
 5764TIP3    H141487   2.810   5.738   9.819 -0.4036  0.2392  0.6156
 5764TIP3    H241488   2.704   5.631   9.805  0.4815 -0.5366 -0.3116
 5765TIP3   OH241489   5.315   7.408   7.014  0.2251 -0.1409  0.4510
 5765TIP3    H141490   5.408   7.430   7.009 -0.1435  1.5415  0.5164
 5765TIP3    H241491   5.286   7.407   6.923  0.0760  0.3906  0.4931
 5766TIP3   OH241492   6.305   3.146   1.561  0.5836 -0.3545 -0.1707
 5766TIP3    H141493   6.304   3.146   1.657 -1.0210 -2.1768 -0.1293
 5766TIP3    H241494   6.374   3.084   1.538 -0.5901 -1.7308 -0.1112
 5767TIP3   OH241495   2.339   5.317   8.247 -0.3478 -0.3180 -0.2857
 5767TIP3    H141496   2.375   5.359   8.325  0.7347  2.9983 -2.3311
 5767TIP3    H241497   2.247   5.342   8.245 -0.0862  0.6529 -0.6561
 5768TIP3   OH241498   0.963   2.622   2.426  0.0133  0.2460  0.6462
 5768TIP3    H141499   0.909   2.668   2.362  0.3931  0.0740  0.1939
 5768TIP3    H241500   0.925   2.644   2.511  0.6228  1.9999  0.4961
 5769TIP3   OH241501   0.721   1.538   0.604 -0.0056 -0.1377 -0.5825
 5769TIP3    H141502   0.672   1.515   0.525 -1.5835  1.0693  0.0040
 5769TIP3    H241503   0.803   1.489   0.596  0.1975  0.5098 -3.3218
 5770TIP3   OH241504   4.211   3.668   1.898  0.2493  0.8498 -0.0257
 5770TIP3    H141505   4.275   3.716   1.951  2.7669 -1.9509 -0.3326
 5770TIP3    H241506   4.230   3.694   1.808  1.4644 -0.4724 -0.1731
 5771TIP3   OH241507   4.578   0.581   9.995 -0.4350 -0.7599  0.3027
 5771TIP3    H141508   4.556   0.628   9.914 -1.0276 -2.6244 -0.6753
 5771TIP3    H241509   4.500   0.530  10.015  0.1746 -1.3136  1.3369
 5772TIP3   OH241510   7.133   3.663   2.424 -0.9458  0.1114  0.1813
 5772TIP3    H141511   7.155   3.580   2.382  0.5612  0.4722  0.2225
 5772TIP3    H241512   7.051   3.645   2.470 -0.4232 -1.4864  0.5569
 5773TIP3   OH241513   7.233   2.510   1.051  0.2231 -0.1210 -0.1741
 5773TIP3    H141514   7.148   2.528   1.090 -0.1937  1.2850 -1.6431
 5773TIP3    H241515   7.216   2.502   0.958  1.5833 -0.7816 -0.3981
 5774TIP3   OH241516   6.204   1.987   1.930 -0.2636 -0.8314  0.5285
 5774TIP3    H141517   6.196   2.072   1.973 -1.7397 -0.6033 -0.1581
 5774TIP3    H241518   6.180   1.923   1.997  0.4325 -0.6912  0.9188
 5775TIP3   OH241519   6.242   2.861   9.297  0.3015  0.4035 -0.1827
 5775TIP3    H141520   6.269   2.816   9.378 -0.3732 -0.7968 -0.5996
 5775TIP3    H241521   6.253   2.795   9.229  1.3274  1.5579 -1.1673
 5776TIP3   OH241522   3.082   6.404   0.329 -0.2422 -0.0315 -0.1028
 5776TIP3    H141523   3.031   6.479   0.359  0.4615  0.2375  0.4710
 5776TIP3    H241524   3.171   6.422   0.360 -0.4885 -2.2041  2.1823
 5777TIP3   OH241525   4.174   3.649   8.450  0.3949  0.0187  0.2848
 5777TIP3    H141526   4.187   3.664   8.357  0.3659 -0.5055  0.1960
 5777TIP3    H241527   4.209   3.562   8.466  1.6282  0.6267  1.0199
 5778TIP3   OH241528   3.709   2.119   8.165  0.4596  0.1136  0.2786
 5778TIP3    H141529   3.736   2.076   8.084  1.1326  0.0968  0.5059
 5778TIP3    H241530   3.620   2.088   8.180  0.1148  0.5640 -0.7548
 5779TIP3   OH241531   0.900   6.855   0.001 -0.9067 -0.0524  0.2394
 5779TIP3    H141532   0.947   6.810  -0.070 -1.0997 -0.0167  0.0904
 5779TIP3    H241533   0.837   6.911  -0.044 -1.5316 -0.5736  0.4505
 5780TIP3   OH241534   4.641   2.272   9.006  0.4642  0.0875 -0.0160
 5780TIP3    H141535   4.688   2.272   8.923  0.7000  0.3251  0.1210
 5780TIP3    H241536   4.693   2.327   9.064  0.0342  0.3327  0.1410
 5781TIP3   OH241537   2.624   5.615   0.866  0.5841  0.2614  0.2070
 5781TIP3    H141538   2.717   5.619   0.887  1.0437  1.2240 -1.7297
 5781TIP3    H241539   2.593   5.705   0.877 -0.3071 -0.1599  1.4421
 5782TIP3   OH241540   4.620   4.594   7.216  0.0544  0.5064  0.3297
 5782TIP3    H141541   4.617   4.660   7.147 -0.6659  1.0924  0.9077
 5782TIP3    H241542   4.575   4.635   7.290 -0.6423 -0.7407  0.6138
 5783TIP3   OH241543   6.520   0.448   9.073  0.7665 -0.2233  0.4594
 5783TIP3    H141544   6.578   0.452   8.997  0.6925  1.2781  0.4465
 5783TIP3    H241545   6.500   0.355   9.084  0.9811 -0.4840 -1.1954
 5784TIP3   OH241546   5.796   4.609   0.875 -0.7034 -0.0575  0.3543
 5784TIP3    H141547   5.721   4.549   0.874 -0.0265 -1.0389 -2.5091
 5784TIP3    H241548   5.769   4.681   0.818 -0.4349  0.9793  1.5000
 5785TIP3   OH241549   2.949   3.261   0.884  0.2546 -0.5330 -0.1268
 5785TIP3    H141550   2.884   3.191   0.879  0.0130 -0.5263  1.9685
 5785TIP3    H241551   2.900   3.341   0.863 -0.0242 -0.7290 -0.2225
 5786TIP3   OH241552   2.614   2.438   0.805 -0.1829 -0.0971 -0.2594
 5786TIP3    H141553   2.703   2.454   0.836 -0.1448  0.2112 -0.5207
 5786TIP3    H241554   2.579   2.525   0.786 -1.1393 -0.0594  1.4523
 5787TIP3   OH241555   0.411   3.778   1.446  0.1319  0.4116 -0.1636
 5787TIP3    H141556   0.435   3.802   1.536  0.7642  0.6647 -0.3939
 5787TIP3    H241557   0.388   3.685   1.451  0.1073  0.4384  0.2710
 5788TIP3   OH241558   2.259   2.847   2.571 -0.3661 -0.1771 -0.3623
 5788TIP3    H141559   2.229   2.937   2.582  1.1135  0.4032 -0.8051
 5788TIP3    H241560   2.183   2.794   2.593 -1.0855  1.1585  0.5539
 5789TIP3   OH241561   2.838   5.358   9.161  0.0667 -0.0013  0.1487
 5789TIP3    H141562   2.795   5.323   9.083  0.1354  0.7610 -0.2393
 5789TIP3    H241563   2.892   5.430   9.128  1.5345 -0.8257  0.6293
 5790TIP3   OH241564   3.861   3.739   8.257 -0.4502  0.0847 -0.1318
 5790TIP3    H141565   3.912   3.666   8.222  0.1327  0.1166  0.6270
 5790TIP3    H241566   3.773   3.704   8.270 -0.1916 -0.4636  0.1653
 5791TIP3   OH241567   6.774   2.357   0.008 -0.5650  0.4362  0.7339
 5791TIP3    H141568   6.781   2.364  -0.087 -2.0155 -0.6720  0.5008
 5791TIP3    H241569   6.801   2.268   0.028 -0.8293  0.4727  1.2855
 5792TIP3   OH241570   1.663   4.520   9.712 -0.7395 -0.2870  0.7133
 5792TIP3    H141571   1.713   4.602   9.703  0.9138 -1.2454  0.7974
 5792TIP3    H241572   1.687   4.487   9.798 -0.0904 -1.6812  0.0194
 5793TIP3   OH241573   2.428   3.026   2.219  0.3113  0.7439  0.2847
 5793TIP3    H141574   2.491   3.058   2.284 -0.6783  2.8992  0.2804
 5793TIP3    H241575   2.382   2.956   2.265  1.8694 -0.0549  0.7019
 5794TIP3   OH241576   5.926   2.699   7.815  0.1315  0.0928 -0.5233
 5794TIP3    H141577   5.839   2.660   7.803  0.4435 -0.2685 -1.8820
 5794TIP3    H241578   5.909   2.789   7.843 -0.6729 -0.0807 -0.4322
 5795TIP3   OH241579   5.029   4.180   2.695  0.5344 -0.2007  0.0664
 5795TIP3    H141580   5.021   4.275   2.691 -4.6831 -0.3545 -2.5585
 5795TIP3    H241581   5.073   4.157   2.613  0.6296 -0.0586  0.0772
 5796TIP3   OH241582   7.227   0.102   1.833  0.2587 -0.3402  0.1220
 5796TIP3    H141583   7.189   0.042   1.897  1.9157  0.6218  2.1589
 5796TIP3    H241584   7.160   0.169   1.819  0.1745 -0.0713  1.6264
 5797TIP3   OH241585   1.509   4.508   0.145 -0.3708 -0.2729 -0.6199
 5797TIP3    H141586   1.534   4.417   0.128  1.1636  0.1983 -1.0289
 5797TIP3    H241587   1.547   4.529   0.230 -1.0027 -0.0906 -0.3705
 5798TIP3   OH241588   0.668   5.317   0.640 -0.1808  0.0108  0.2447
 5798TIP3    H141589   0.596   5.379   0.648  0.2949  0.5144  0.7002
 5798TIP3    H241590   0.736   5.364   0.592  0.2227 -0.1140  0.6780
 5799TIP3   OH241591   4.283   3.013   8.413  0.0043 -0.3192  0.1102
 5799TIP3    H141592   4.202   3.064   8.411  0.5725  0.7171  2.0713
 5799TIP3    H241593   4.274   2.957   8.490  1.1219 -0.2622  0.2860
 5800TIP3   OH241594   1.977   3.919   7.624 -0.5289  0.3636 -0.1801
 5800TIP3    H141595   1.917   3.855   7.662  0.9080 -0.9124  0.0429
 5800TIP3    H241596   1.973   3.903   7.530 -0.4715  0.1925 -0.1550
 5801TIP3   OH241597   1.041   7.388   9.670 -0.1929 -1.0131 -0.4933
 5801TIP3    H141598   0.979   7.421   9.605  0.1028 -0.5527 -0.5441
 5801TIP3    H241599   1.048   7.459   9.734  0.2680 -1.0732 -0.4787
 5802TIP3   OH241600   1.858   0.855   7.109 -0.3025 -0.2868  0.0093
 5802TIP3    H141601   1.826   0.832   7.197 -0.9952  0.8511  0.0738
 5802TIP3    H241602   1.797   0.922   7.079  0.8731  0.4810 -0.7017
 5803TIP3   OH241603   3.474   0.825   1.546  0.0586  0.1517  0.1003
 5803TIP3    H141604   3.456   0.750   1.491 -0.3024  0.8818 -0.7991
 5803TIP3    H241605   3.470   0.791   1.636 -0.2359 -0.8559 -0.2878
 5804TIP3   OH241606   2.243   5.973   0.291 -0.5755 -0.3080  0.0370
 5804TIP3    H141607   2.311   6.033   0.261  0.2731 -1.3388 -0.1823
 5804TIP3    H241608   2.291   5.896   0.320 -1.5568 -0.3699  1.5844
 5805TIP3   OH241609   3.100   4.363   0.943  0.5474  0.0838 -0.2831
 5805TIP3    H141610   3.118   4.403   0.858 -0.0248  0.1783 -0.3616
 5805TIP3    H241611   3.013   4.395   0.967 -0.0924 -1.3986 -0.5146
 5806TIP3   OH241612   2.288   2.899   1.352 -1.2061 -0.6482  0.0754
 5806TIP3    H141613   2.270   2.815   1.311 -2.0494 -0.7251  0.5827
 5806TIP3    H241614   2.249   2.893   1.439 -2.2948  0.6560 -0.2736
 5807TIP3   OH241615   6.229   5.491   9.583  0.2454  0.4485  0.3628
 5807TIP3    H141616   6.321   5.516   9.583  0.5134 -0.4239 -0.8773
 5807TIP3    H241617   6.226   5.410   9.532 -0.9410 -0.5732  1.9453
 5808TIP3   OH241618   6.335   6.615   0.082  0.3192 -0.3331 -0.2808
 5808TIP3    H141619   6.342   6.704   0.049 -0.9105  0.2282  0.8707
 5808TIP3    H241620   6.320   6.561   0.003  0.4150  0.5480 -0.9141
 5809TIP3   OH241621   2.650   2.218   2.577  0.1225  0.1934 -0.0055
 5809TIP3    H141622   2.698   2.299   2.563 -0.2497  0.4599  0.2464
 5809TIP3    H241623   2.579   2.242   2.637  0.6658 -0.5491  0.9672
 5810TIP3   OH241624   6.023   5.933   1.603  0.3092  0.2999  0.8338
 5810TIP3    H141625   5.998   5.933   1.695 -1.6134  1.1833  0.3558
 5810TIP3    H241626   6.034   5.840   1.581  1.4273  0.1183  2.0841
 5811TIP3   OH241627   1.102   2.102   2.613 -0.0130  0.2183  0.0675
 5811TIP3    H141628   1.099   2.063   2.526 -1.4616 -1.3567  0.7728
 5811TIP3    H241629   1.026   2.160   2.616 -1.4889 -1.6267  1.0457
 5812TIP3   OH241630   3.511   2.705   1.229 -0.2909  0.1447 -0.2680
 5812TIP3    H141631   3.512   2.736   1.138 -0.2579  1.1515  0.0700
 5812TIP3    H241632   3.591   2.738   1.268  0.6121 -1.8068 -0.3357
 5813TIP3   OH241633   6.816   4.788   0.179 -0.1658 -0.6870  0.3402
 5813TIP3    H141634   6.803   4.718   0.243  1.0177 -1.8742 -0.6712
 5813TIP3    H241635   6.758   4.858   0.209  0.8222 -0.9151  3.1030
 5814TIP3   OH241636   1.558   3.928   3.002  0.0076 -0.0622  0.8817
 5814TIP3    H141637   1.587   4.019   3.004 -0.2094  0.0005  1.3500
 5814TIP3    H241638   1.625   3.880   3.051  0.2737 -0.2033  0.3879
 5815TIP3   OH241639   2.427   3.183   8.143 -0.0143  0.3006 -0.4908
 5815TIP3    H141640   2.376   3.117   8.096 -0.1705  1.1189 -1.5094
 5815TIP3    H241641   2.368   3.258   8.151 -0.4451 -0.2118  2.1671
 5816TIP3   OH241642   4.376   7.150   9.143  0.1097 -0.0320  0.1057
 5816TIP3    H141643   4.395   7.066   9.185  1.9167 -0.0534 -0.6630
 5816TIP3    H241644   4.459   7.198   9.146 -0.6950  1.4389 -0.1290
 5817TIP3   OH241645   3.464   1.822   0.925  0.7363  0.1925  0.3431
 5817TIP3    H141646   3.455   1.914   0.951  2.8702  0.6993 -0.5606
 5817TIP3    H241647   3.522   1.823   0.849 -0.1238 -1.8312 -0.4279
 5818TIP3   OH241648   0.210   2.176   7.410 -0.1903 -0.0717 -0.3182
 5818TIP3    H141649   0.252   2.232   7.475 -0.6739  1.4657 -1.2968
 5818TIP3    H241650   0.268   2.100   7.404  0.5648  0.3692  0.9252
 5819TIP3   OH241651   2.191   3.122   1.233  0.5442  0.4176 -0.1868
 5819TIP3    H141652   2.096   3.120   1.245  0.4559 -0.4154 -0.9578
 5819TIP3    H241653   2.225   3.063   1.300  0.4915  0.4294 -0.1494
 5820TIP3   OH241654   3.285   3.269   7.745  0.3511 -0.0029  0.0025
 5820TIP3    H141655   3.300   3.294   7.836  2.8629  0.3519 -0.4468
 5820TIP3    H241656   3.369   3.283   7.702 -0.1952 -2.1295 -1.9420
 5821TIP3   OH241657   0.724   4.107   7.596  0.2249 -0.2458  0.9754
 5821TIP3    H141658   0.690   4.048   7.663 -0.8780 -1.0302 -0.2383
 5821TIP3    H241659   0.684   4.078   7.514  2.1293  0.1886 -0.1880
 5822TIP3   OH241660   5.733   2.642   9.121 -0.2595  0.2280 -0.0687
 5822TIP3    H141661   5.641   2.616   9.108 -0.0458  0.5125 -2.6987
 5822TIP3    H241662   5.783   2.572   9.078  0.8455 -0.3239  1.9998
 5823TIP3   OH241663   1.233   1.122   2.943  0.3353  0.4862 -0.3539
 5823TIP3    H141664   1.179   1.097   2.867 -2.1185  1.1134  1.0656
 5823TIP3    H241665   1.302   1.056   2.946  0.8516  0.7431 -3.4012
 5824TIP3   OH241666   1.926   3.351   1.418 -0.0720  0.3815 -0.2363
 5824TIP3    H141667   1.859   3.352   1.486 -0.6822  3.1638 -0.7299
 5824TIP3    H241668   2.006   3.324   1.463 -0.7069  0.9798  1.3154
 5825TIP3   OH241669   2.724   2.927   1.149  0.1600 -0.8063  0.2677
 5825TIP3    H141670   2.722   2.919   1.245  0.8609  0.0441  0.3672
 5825TIP3    H241671   2.805   2.975   1.131 -0.0432 -0.8276 -0.7462
 5826TIP3   OH241672   6.803   6.460   0.158 -0.1351 -0.4400  0.9379
 5826TIP3    H141673   6.825   6.456   0.065 -0.8476 -0.6828  0.7691
 5826TIP3    H241674   6.884   6.437   0.204  0.7258  1.4168  0.4425
 5827TIP3   OH241675   4.153   3.776   2.234  0.6849 -0.3902 -0.2957
 5827TIP3    H141676   4.155   3.720   2.311 -1.5688 -0.0971  0.0289
 5827TIP3    H241677   4.243   3.774   2.201  0.9931 -3.1395  0.4392
 5828TIP3   OH241678   1.769   5.707   1.012  0.1466 -0.7833 -0.2319
 5828TIP3    H141679   1.862   5.724   0.999 -0.0089 -0.2145 -0.6497
 5828TIP3    H241680   1.755   5.620   0.973 -0.0394  0.3197 -2.8990
 5829TIP3   OH241681   0.821   0.282   8.819  0.7993  0.1561 -1.0471
 5829TIP3    H141682   0.746   0.320   8.773  0.0225 -0.3682 -0.2559
 5829TIP3    H241683   0.812   0.187   8.805 -0.6393 -0.2423  1.7765
 5830TIP3   OH241684   4.911   1.872   7.983  0.6175 -0.0623  0.2207
 5830TIP3    H141685   4.875   1.892   7.897  0.7734  2.0556  0.5883
 5830TIP3    H241686   4.958   1.789   7.972 -3.2603 -2.3833 -0.5634
 5831TIP3   OH241687   3.193   1.479   0.192  0.2298 -0.0913  0.2127
 5831TIP3    H141688   3.160   1.421   0.123  1.1288  0.5948 -0.8213
 5831TIP3    H241689   3.288   1.479   0.180  0.2465  1.6074  0.1606
 5832TIP3   OH241690   1.785   1.071   9.750  0.1822 -0.1371 -0.1859
 5832TIP3    H141691   1.875   1.088   9.722  0.8060 -0.3355  1.5335
 5832TIP3    H241692   1.772   1.129   9.825 -0.2505 -1.8059  1.0876
 5833TIP3   OH241693   0.005   6.841   9.686  0.4138  0.3304 -0.2962
 5833TIP3    H141694  -0.057   6.836   9.613  0.3366 -0.4986 -0.1812
 5833TIP3    H241695  -0.040   6.893   9.752 -0.7221 -1.3507  0.3172
 5834TIP3   OH241696   5.667   4.786   0.708  0.2218 -0.2330 -0.5543
 5834TIP3    H141697   5.623   4.772   0.624  1.0460  0.8475 -1.2062
 5834TIP3    H241698   5.602   4.830   0.763 -0.1475 -0.4347 -0.8281
 5835TIP3   OH241699   3.668   0.183   7.748 -0.1014  0.0017 -0.6617
 5835TIP3    H141700   3.582   0.224   7.754 -0.0926  0.3242 -2.2273
 5835TIP3    H241701   3.662   0.124   7.673  1.1625  0.3292 -1.0533
 5836TIP3   OH241702   2.135   1.073   8.912 -0.0822  0.3776  0.5036
 5836TIP3    H141703   2.084   1.089   8.992  0.3264  0.9016  0.6645
 5836TIP3    H241704   2.070   1.060   8.844 -0.4540 -0.9206  1.0778
 5837TIP3   OH241705   4.760   5.647   7.849  0.0420 -0.0283 -0.1179
 5837TIP3    H141706   4.687   5.585   7.845 -0.0807  0.1827 -2.0099
 5837TIP3    H241707   4.825   5.613   7.788 -0.5526  2.2636 -2.2204
 5838TIP3   OH241708   4.074   4.996   1.844  0.2044 -0.0730  0.0788
 5838TIP3    H141709   3.989   4.952   1.852  0.5666 -0.7078  0.6067
 5838TIP3    H241710   4.092   4.997   1.751 -0.8231  0.9413 -0.1364
 5839TIP3   OH241711   5.200   6.990   8.953  0.4078  0.1166  0.0823
 5839TIP3    H141712   5.213   6.955   9.041  0.1800  0.6067  0.3195
 5839TIP3    H241713   5.106   7.010   8.950  0.5066  0.5578 -0.0951
 5840TIP3   OH241714   4.770   6.513   7.429  0.2355  0.0566  0.4790
 5840TIP3    H141715   4.785   6.542   7.339  0.5233  0.2917  0.6030
 5840TIP3    H241716   4.737   6.591   7.474  0.5968  0.0791  0.7074
 5841TIP3   OH241717   2.581   1.608   9.540  0.6477 -0.2744  0.4561
 5841TIP3    H141718   2.523   1.535   9.560 -0.0880 -0.0068 -0.6190
 5841TIP3    H241719   2.654   1.569   9.492  0.2627 -0.3004 -0.1050
 5842TIP3   OH241720   6.449   7.044   0.600 -0.7152  0.1895 -0.1950
 5842TIP3    H141721   6.484   7.031   0.512  0.4397  2.5164 -0.1575
 5842TIP3    H241722   6.522   7.082   0.649 -1.4401 -0.7429  1.7006
 5843TIP3   OH241723   1.522   4.030   7.968  0.2611 -0.5982 -0.3644
 5843TIP3    H141724   1.471   3.992   8.039  0.0873 -1.7382 -1.0684
 5843TIP3    H241725   1.553   4.114   8.002 -0.8911 -0.5387  0.5784
 5844TIP3   OH241726   4.606   6.702   1.789 -0.0144  0.0058 -0.0463
 5844TIP3    H141727   4.633   6.656   1.709  0.3277 -0.4289  0.3125
 5844TIP3    H241728   4.651   6.786   1.784  2.9310 -1.3428  1.3698
 5845TIP3   OH241729   5.631   3.568   1.305  0.1291  0.5059 -0.1434
 5845TIP3    H141730   5.704   3.578   1.244  1.5867  1.1393  1.6135
 5845TIP3    H241731   5.568   3.635   1.278  1.1243  1.3519 -0.4418
 5846TIP3   OH241732   1.224   7.422   1.079  0.0581  0.1327  0.1434
 5846TIP3    H141733   1.132   7.403   1.059 -0.7864  1.3481  2.5109
 5846TIP3    H241734   1.269   7.338   1.066 -1.3688 -0.5135 -0.9800
 5847TIP3   OH241735   2.573   3.296   9.841 -0.2537 -1.3960  0.8932
 5847TIP3    H141736   2.480   3.287   9.817 -0.0341 -1.6857  0.1422
 5847TIP3    H241737   2.617   3.318   9.760  0.3244 -1.1154  1.2780
 5848TIP3   OH241738   6.829   5.839   0.355 -0.1254 -0.4433  0.3790
 5848TIP3    H141739   6.812   5.932   0.373 -1.0070 -0.6200  0.5215
 5848TIP3    H241740   6.782   5.822   0.273  1.7531 -0.2745 -0.8037
 5849TIP3   OH241741   3.827   6.321   1.001 -0.0089  0.1438 -0.0706
 5849TIP3    H141742   3.824   6.286   0.912 -0.6430  1.2984 -0.5293
 5849TIP3    H241743   3.846   6.414   0.989  0.8939  0.1202  1.0692
 5850TIP3   OH241744   3.354   1.052   1.494  0.1812 -0.7044  0.5178
 5850TIP3    H141745   3.403   0.975   1.523 -1.5379 -2.2577 -0.5019
 5850TIP3    H241746   3.389   1.071   1.407 -1.1253 -1.9771 -0.3230
 5851TIP3   OH241747   5.924   5.759   9.476  0.6556  0.3067 -0.3832
 5851TIP3    H141748   5.942   5.821   9.547  3.0239 -0.9595  0.2173
 5851TIP3    H241749   5.832   5.734   9.489  0.5407  1.3981  1.1781
 5852TIP3   OH241750   6.570   4.495   7.275 -0.4484 -0.3547 -0.2855
 5852TIP3    H141751   6.646   4.439   7.267  0.3498  0.5870  0.4643
 5852TIP3    H241752   6.604   4.577   7.311 -1.9906 -0.3303  1.2479
 5853TIP3   OH241753   3.677   4.602   7.078 -0.1895 -1.1176 -0.1332
 5853TIP3    H141754   3.770   4.622   7.070  0.2261 -1.5940  2.5732
 5853TIP3    H241755   3.649   4.580   6.989  2.0103  0.0447 -1.1841
 5854TIP3   OH241756   1.410   3.541   1.054  0.5164  0.6365  0.6984
 5854TIP3    H141757   1.425   3.609   1.120 -0.2536  1.6108 -0.1168
 5854TIP3    H241758   1.468   3.469   1.081  0.0008  0.8686  2.6249
 5855TIP3   OH241759   6.233   6.528   2.153  0.3416 -0.2113 -0.9721
 5855TIP3    H141760   6.307   6.559   2.206 -0.3581 -0.9807  0.4924
 5855TIP3    H241761   6.274   6.476   2.084  1.1462 -1.4707  0.4085
 5856TIP3   OH241762   5.069   4.981   8.989 -0.2553  0.2731 -0.2184
 5856TIP3    H141763   4.997   4.936   9.032 -2.2423  0.5286 -3.0106
 5856TIP3    H241764   5.078   5.064   9.036 -2.2576  0.5154 -0.1953
 5857TIP3   OH241765   2.457   0.404   7.650 -0.4659  0.4196  0.1022
 5857TIP3    H141766   2.518   0.478   7.654  0.6624 -0.4166 -1.0446
 5857TIP3    H241767   2.466   0.362   7.736  1.3758 -0.2873 -0.3964
 5858TIP3   OH241768   3.403   4.469   0.940  0.2081 -0.3762  0.2795
 5858TIP3    H141769   3.434   4.555   0.969  0.9362 -0.7122  0.5204
 5858TIP3    H241770   3.328   4.450   0.996  0.1102  0.0544  0.2964
 5859TIP3   OH241771   5.574   1.488   8.376 -0.0006  0.0125 -0.3321
 5859TIP3    H141772   5.499   1.430   8.369 -1.1178  1.3938 -0.2501
 5859TIP3    H241773   5.648   1.437   8.342 -1.5862 -0.1923 -3.9333
 5860TIP3   OH241774   1.852   1.044   8.571 -0.2754  0.0527 -0.1097
 5860TIP3    H141775   1.835   1.082   8.485 -0.1028 -0.2780 -0.2942
 5860TIP3    H241776   1.802   0.963   8.571 -0.5345  0.2156  0.2274
 5861TIP3   OH241777   3.087   2.233   9.994 -0.0847 -0.1096 -0.6175
 5861TIP3    H141778   3.161   2.177  10.020  0.5373  0.4671 -1.1129
 5861TIP3    H241779   3.124   2.293   9.929 -0.9847  0.2202 -0.8338
 5862TIP3   OH241780   3.963   4.143   0.530  0.5272 -0.3237  0.0724
 5862TIP3    H141781   4.035   4.086   0.505  0.1520 -1.4581  1.4112
 5862TIP3    H241782   3.907   4.088   0.585  0.8946  1.6769  2.6850
 5863TIP3   OH241783   5.064   0.094   8.849  0.0165 -0.0394  0.1349
 5863TIP3    H141784   5.099   0.138   8.771  0.1710  1.1844  0.8634
 5863TIP3    H241785   5.103   0.141   8.923 -0.4899 -0.8713  0.9595
 5864TIP3   OH241786   4.678   6.967   1.741  0.1870  0.0639 -0.4716
 5864TIP3    H141787   4.731   7.030   1.790  0.6289 -0.2028 -0.6084
 5864TIP3    H241788   4.665   7.009   1.655 -2.4013  1.5317  0.5184
 5865TIP3   OH241789   0.397   4.174   8.307  0.3518  0.7532 -0.0953
 5865TIP3    H141790   0.353   4.259   8.318  0.7781  0.9208  0.3809
 5865TIP3    H241791   0.390   4.133   8.393 -0.3373  0.0565 -0.4683
 5866TIP3   OH241792   3.439   0.339   1.159 -0.2860 -0.5293 -0.2837
 5866TIP3    H141793   3.364   0.398   1.163  0.0643 -0.0897  0.0163
 5866TIP3    H241794   3.472   0.348   1.069 -0.8531 -1.0679 -0.5538
 5867TIP3   OH241795   0.060   1.184   9.569 -0.2042 -0.1318 -0.0380
 5867TIP3    H141796   0.113   1.264   9.562 -0.2698  0.0052  0.8941
 5867TIP3    H241797   0.100   1.123   9.507 -1.1415  1.1536 -1.9936
 5868TIP3   OH241798   1.347   3.398   7.764  0.0981 -0.0289 -0.5544
 5868TIP3    H141799   1.288   3.346   7.817 -0.2693 -0.9784 -1.8517
 5868TIP3    H241800   1.434   3.368   7.788 -0.0124  0.2974  0.2647
 5869TIP3   OH241801   1.418   2.131   7.199 -0.1075 -0.4954 -0.3500
 5869TIP3    H141802   1.336   2.117   7.153  1.1550 -1.5715 -2.4517
 5869TIP3    H241803   1.480   2.071   7.156  2.0603  1.1197  0.3300
 5870TIP3   OH241804   6.157   5.911   9.309  0.1853  0.0556  0.2266
 5870TIP3    H141805   6.180   5.819   9.299  1.9227  0.5324 -0.4230
 5870TIP3    H241806   6.079   5.910   9.365  0.5826 -1.7552  0.8034
 5871TIP3   OH241807   5.561   6.201   0.914 -0.2383  0.6266 -0.4312
 5871TIP3    H141808   5.575   6.228   0.823 -0.4750  0.2652 -0.5768
 5871TIP3    H241809   5.643   6.221   0.958 -0.2808  1.2290 -0.6224
 5872TIP3   OH241810   2.854   0.346   9.136 -0.0282 -0.4753  0.1049
 5872TIP3    H141811   2.826   0.436   9.120  0.9109 -0.3711 -1.0398
 5872TIP3    H241812   2.830   0.298   9.057  0.8188 -0.8982  0.0924
 5873TIP3   OH241813   2.293   1.752   7.767  0.0557 -0.0887  0.5093
 5873TIP3    H141814   2.200   1.772   7.761  0.1994  0.3683 -0.5594
 5873TIP3    H241815   2.337   1.833   7.740  0.7937 -0.0439  1.7487
 5874TIP3   OH241816   2.525   1.108   0.923  0.4508 -0.0035 -0.5336
 5874TIP3    H141817   2.552   1.134   0.835  1.4843  0.2743 -0.1612
 5874TIP3    H241818   2.502   1.190   0.966  3.6449  0.4490  0.6200
 5875TIP3   OH241819   6.767   7.200   1.347  0.1651 -0.0682 -0.3106
 5875TIP3    H141820   6.860   7.219   1.349  0.0216  0.9607 -1.6337
 5875TIP3    H241821   6.759   7.120   1.295  0.1777  1.0887 -2.1576
 5876TIP3   OH241822   5.063   6.048   0.505 -0.1541  0.3925 -0.3148
 5876TIP3    H141823   5.060   6.112   0.576 -0.3277 -0.4566  0.4673
 5876TIP3    H241824   4.990   5.989   0.524  0.3834 -0.3936 -0.6803
 5877TIP3   OH241825   1.105   6.087   9.883  0.2961  0.6084 -0.2764
 5877TIP3    H141826   1.013   6.067   9.867 -0.3057  1.1912  2.1747
 5877TIP3    H241827   1.108   6.182   9.891  0.9113  0.5088  0.7835
 5878TIP3   OH241828   7.077   1.731   0.426 -0.1545  0.3338  0.7403
 5878TIP3    H141829   7.152   1.790   0.413 -0.1543 -0.2018 -2.3418
 5878TIP3    H241830   7.112   1.663   0.483  2.1000 -0.3902 -1.3112
 5879TIP3   OH241831   3.391   4.531   8.348 -0.2763  0.3734  0.4328
 5879TIP3    H141832   3.392   4.463   8.414 -1.7112  1.3137  1.4842
 5879TIP3    H241833   3.408   4.485   8.266  2.3788 -0.7056  1.4765
 5880TIP3   OH241834   5.216   4.635   9.531 -0.4867  0.3391  0.0356
 5880TIP3    H141835   5.161   4.563   9.502  0.2680 -0.0699 -0.4216
 5880TIP3    H241836   5.232   4.617   9.624 -0.6063  0.1257  0.0158
 5881TIP3   OH241837   2.895   6.224   8.840 -0.3393  0.0674 -0.3133
 5881TIP3    H141838   2.885   6.134   8.809  0.8565 -0.1164 -0.1889
 5881TIP3    H241839   2.959   6.263   8.781 -0.8419  0.8536 -0.3658
 5882TIP3   OH241840   2.968   2.641   9.821 -0.4505  0.2287  0.0069
 5882TIP3    H141841   3.045   2.630   9.765  0.3975  0.8016  1.0454
 5882TIP3    H241842   2.920   2.714   9.781 -0.8414 -0.5664 -1.0378
 5883TIP3   OH241843   2.249   6.649   8.205 -1.0038 -0.0006  0.4437
 5883TIP3    H141844   2.168   6.621   8.247 -1.2034  0.4425  0.3644
 5883TIP3    H241845   2.318   6.599   8.249 -1.1497  0.8294  1.6633
 5884TIP3   OH241846   6.771   4.262   1.831 -0.2961  0.1921  0.8091
 5884TIP3    H141847   6.763   4.166   1.830  1.4490 -0.0064  1.2356
 5884TIP3    H241848   6.847   4.278   1.888 -1.2055  1.8977  1.5964
 5885TIP3   OH241849   3.194   6.125   7.022 -0.9043  0.1385 -0.2028
 5885TIP3    H141850   3.223   6.083   6.941 -0.1558  1.2922 -0.5640
 5885TIP3    H241851   3.174   6.215   6.995  0.2954  0.8130  1.0774
 5886TIP3   OH241852   1.988   0.287   2.428 -0.6216 -0.2084 -0.1171
 5886TIP3    H141853   1.940   0.296   2.346 -1.9857  1.2139  0.7733
 5886TIP3    H241854   2.003   0.377   2.457  0.4581 -0.6744  0.8542
 5887TIP3   OH241855   3.712   7.187   8.697 -0.5421  0.0212 -0.1956
 5887TIP3    H141856   3.739   7.248   8.628 -1.0870  1.7190  1.0090
 5887TIP3    H241857   3.789   7.133   8.713  0.7338  1.8445  0.1453
 5888TIP3   OH241858   7.405   0.251   1.992  0.3181 -0.2219 -0.4592
 5888TIP3    H141859   7.422   0.165   2.030  0.0119  0.4023  1.1929
 5888TIP3    H241860   7.326   0.239   1.939  0.8765 -1.1648 -1.1124
 5889TIP3   OH241861   5.418   3.723   1.103  0.3319 -0.3452  0.1081
 5889TIP3    H141862   5.448   3.707   1.013 -1.5578  1.6638 -0.9903
 5889TIP3    H241863   5.470   3.797   1.133 -1.4771  1.3586 -0.7721
 5890TIP3   OH241864   6.643   4.713   8.280  0.1654  0.1256 -0.1928
 5890TIP3    H141865   6.668   4.736   8.369  1.3989  1.9820 -0.9472
 5890TIP3    H241866   6.708   4.647   8.253 -0.8705 -1.2641  0.6046
 5891TIP3   OH241867   4.415   4.526   1.578  0.0602  0.2175  0.3055
 5891TIP3    H141868   4.321   4.545   1.575 -0.2081 -0.8364  1.3177
 5891TIP3    H241869   4.439   4.506   1.487 -0.4439  1.5261 -0.1451
 5892TIP3   OH241870   6.922   6.163   7.877  0.4328  0.2483 -0.2673
 5892TIP3    H141871   6.929   6.226   7.805 -2.0958 -1.0804 -1.8695
 5892TIP3    H241872   6.942   6.078   7.836  0.8386 -0.3447  1.1016
 5893TIP3   OH241873   1.987   6.876   2.229  0.3432 -0.3957  0.1478
 5893TIP3    H141874   1.983   6.863   2.134 -0.5936 -1.0327  0.2597
 5893TIP3    H241875   1.967   6.969   2.242  1.7421 -0.0106 -0.3464
 5894TIP3   OH241876   0.646   4.799   8.381 -0.2730 -0.7016  0.3197
 5894TIP3    H141877   0.608   4.712   8.372 -0.4542 -0.5410 -0.6726
 5894TIP3    H241878   0.574   4.854   8.410 -0.2537 -0.8105  0.5744
 5895TIP3   OH241879   3.730   6.826   8.187 -0.3267  0.3434 -0.1831
 5895TIP3    H141880   3.696   6.882   8.118  0.3946  0.8789 -0.1142
 5895TIP3    H241881   3.793   6.881   8.234 -0.1728 -0.2844  0.3647
 5896TIP3   OH241882   1.498   3.131   2.601  0.2270  0.4664  0.6146
 5896TIP3    H141883   1.493   3.104   2.693 -1.6214 -1.3636  0.0419
 5896TIP3    H241884   1.437   3.205   2.595  0.3275  0.5694  0.8406
 5897TIP3   OH241885   3.086   2.290   0.267  0.0459 -0.1095 -0.1362
 5897TIP3    H141886   3.081   2.316   0.175  0.2556 -0.2601 -0.1913
 5897TIP3    H241887   3.029   2.213   0.273 -3.7490  2.4632  0.8227
 5898TIP3   OH241888   0.376   2.653   7.563  0.0904 -0.5563  0.2275
 5898TIP3    H141889   0.462   2.687   7.590  0.4660 -1.4271  0.1790
 5898TIP3    H241890   0.313   2.717   7.595  0.8569  0.9701 -1.1768
 5899TIP3   OH241891   2.971   7.229   2.260 -0.1908 -0.4954 -1.0461
 5899TIP3    H141892   3.028   7.236   2.184 -0.7035 -1.2861 -1.5163
 5899TIP3    H241893   2.957   7.135   2.271  0.2837 -0.4427  0.3433
 5900TIP3   OH241894   4.534   2.320   9.636 -0.3156 -0.2916 -0.5847
 5900TIP3    H141895   4.555   2.229   9.614  1.2159  0.0471 -0.5871
 5900TIP3    H241896   4.582   2.337   9.717  0.6816  0.9757 -1.4114
 5901TIP3   OH241897   1.668   2.843   7.764 -0.8751 -0.2586  0.6752
 5901TIP3    H141898   1.684   2.755   7.798 -0.2036 -0.1889  0.5563
 5901TIP3    H241899   1.741   2.895   7.798 -1.6493  0.4182  1.3328
 5902TIP3   OH241900   3.802   1.787   1.705  0.1935  0.2601 -0.4670
 5902TIP3    H141901   3.847   1.798   1.622  0.6289  1.0989 -0.1268
 5902TIP3    H241902   3.871   1.766   1.768 -0.1324 -0.3823 -0.3102
 5903TIP3   OH241903   2.189   6.209   1.606  0.9327 -0.8220 -0.2851
 5903TIP3    H141904   2.210   6.185   1.515  1.2742 -0.4472 -0.3036
 5903TIP3    H241905   2.157   6.127   1.645  0.9478 -1.0263 -0.6912
 5904TIP3   OH241906   0.273   1.023   0.009  0.6791 -0.1649 -0.3786
 5904TIP3    H141907   0.324   0.997  -0.067  2.0048  1.8270 -0.2656
 5904TIP3    H241908   0.319   0.985   0.084  0.9929  0.1368 -0.4109
 5905TIP3   OH241909   1.465   5.560   8.312 -0.1687 -0.0512  0.0592
 5905TIP3    H141910   1.393   5.601   8.360  1.3306  2.1926  0.5362
 5905TIP3    H241911   1.422   5.503   8.249 -2.2872 -0.5850  1.8401
 5906TIP3   OH241912   2.181   3.053   0.575  0.1226  0.0002  0.3112
 5906TIP3    H141913   2.162   3.126   0.633  2.1434 -1.1546  2.6057
 5906TIP3    H241914   2.112   2.989   0.594 -1.4142  1.0190 -1.4153
 5907TIP3   OH241915   2.228   3.224   0.043  0.0216  0.2445 -0.0558
 5907TIP3    H141916   2.156   3.281   0.016 -0.9849 -0.6881  0.5737
 5907TIP3    H241917   2.186   3.140   0.064  1.5360 -0.9867 -1.6479
 5908TIP3   OH241918   3.299   3.881   1.363  0.2663  1.0064  0.1821
 5908TIP3    H141919   3.253   3.937   1.426 -1.2738 -0.2997  0.2809
 5908TIP3    H241920   3.330   3.807   1.416 -2.8482 -1.1885 -0.7523
 5909TIP3   OH241921   6.294   2.594   7.631 -0.0985  0.3546 -0.1654
 5909TIP3    H141922   6.359   2.663   7.646  1.0128 -0.5309 -0.7641
 5909TIP3    H241923   6.249   2.620   7.551 -1.1836  1.4653  0.7621
 5910TIP3   OH241924   1.884   4.691   9.732  0.1320  0.1183  0.0996
 5910TIP3    H141925   1.950   4.750   9.768  0.5894  1.3569 -2.5470
 5910TIP3    H241926   1.935   4.617   9.698 -0.3503 -1.3756  2.3747
 5911TIP3   OH241927   3.887   4.545   8.258 -0.4286  0.0856 -0.1839
 5911TIP3    H141928   3.808   4.558   8.205  1.1842  0.7710 -2.5758
 5911TIP3    H241929   3.943   4.489   8.204  0.5742 -0.7671  1.6549
 5912TIP3   OH241930   0.993   6.138   1.531  0.8624 -0.6722 -0.1284
 5912TIP3    H141931   1.015   6.059   1.482 -1.0100 -0.6610 -1.0969
 5912TIP3    H241932   0.959   6.198   1.464 -1.1456 -0.4051  1.0414
 5913TIP3   OH241933   0.107   1.961   8.840 -0.1162  0.3384  0.2088
 5913TIP3    H141934   0.161   2.040   8.835 -1.8437  1.5400 -0.9891
 5913TIP3    H241935   0.150   1.906   8.905  2.0693  1.5391 -0.1153
 5914TIP3   OH241936   5.257   1.479   0.436  0.3605 -0.2622  0.0597
 5914TIP3    H141937   5.276   1.572   0.427 -0.2695 -0.0525  0.7580
 5914TIP3    H241938   5.168   1.469   0.405 -0.4501 -0.1836  2.1718
 5915TIP3   OH241939   2.017   0.019   0.452  0.1108  0.8274 -0.5244
 5915TIP3    H141940   2.090   0.037   0.511 -0.0770 -1.7776  0.6209
 5915TIP3    H241941   2.022  -0.075   0.435 -3.4430  0.3382  0.3394
 5916TIP3   OH241942   0.121   2.750   9.908 -0.5794 -0.2245 -0.1738
 5916TIP3    H141943   0.205   2.792   9.889 -0.7755  0.3240  0.1760
 5916TIP3    H241944   0.070   2.763   9.828 -0.4960 -0.1608 -0.2183
 5917TIP3   OH241945   1.709   6.169   9.410 -0.0744  0.5466 -0.0506
 5917TIP3    H141946   1.720   6.117   9.489 -0.2382 -0.1599 -0.4759
 5917TIP3    H241947   1.683   6.256   9.441  0.4015  0.4311  0.6829
 5918TIP3   OH241948   3.808   4.914   2.207  0.2974 -0.1425 -0.0590
 5918TIP3    H141949   3.774   4.896   2.294 -0.7979  1.8103 -0.0311
 5918TIP3    H241950   3.732   4.939   2.155  0.6881 -2.6348 -2.0428
 5919TIP3   OH241951   1.829   4.453   7.785  0.5634 -0.0378 -0.1463
 5919TIP3    H141952   1.822   4.378   7.726 -0.7615  0.6616 -0.9439
 5919TIP3    H241953   1.741   4.491   7.784  1.7184  2.9317 -1.6809
 5920TIP3   OH241954   4.899   1.732   8.873  0.6285 -0.3293  1.0960
 5920TIP3    H141955   4.841   1.668   8.914  0.4080 -0.6994  0.2242
 5920TIP3    H241956   4.866   1.741   8.783  0.7422  0.9019  1.1579
 5921TIP3   OH241957   4.880   0.905   7.091 -1.2595 -0.1958 -0.7171
 5921TIP3    H141958   4.867   0.893   7.185 -1.4008  0.2844 -0.6688
 5921TIP3    H241959   4.974   0.923   7.082 -1.0676 -1.2068 -0.7811
 5922TIP3   OH241960   0.434   4.262   7.856  0.5625  0.3447 -0.7067
 5922TIP3    H141961   0.517   4.309   7.854  1.4839 -1.1317  0.3307
 5922TIP3    H241962   0.448   4.185   7.800  0.0423 -0.1109 -0.2317
 5923TIP3   OH241963   2.393   2.842   9.407 -0.3449 -0.0920  0.3342
 5923TIP3    H141964   2.405   2.857   9.501  1.7129  2.4596 -0.2411
 5923TIP3    H241965   2.342   2.917   9.376 -0.1215 -0.3634 -0.7447
 5924TIP3   OH241966   4.356   3.805   9.410  0.1754 -0.1016  0.5001
 5924TIP3    H141967   4.437   3.829   9.455  0.5033 -1.4611  0.6850
 5924TIP3    H241968   4.294   3.874   9.433  1.0634  0.5702  0.9543
 5925TIP3   OH241969   2.614   2.183   0.276  0.2813  0.1074  0.1851
 5925TIP3    H141970   2.674   2.219   0.342 -0.6581  1.9515  0.0876
 5925TIP3    H241971   2.671   2.137   0.214  1.4751  0.8695  0.6905
 5926TIP3   OH241972   4.601   6.513   9.735  0.0698  0.2459  0.8556
 5926TIP3    H141973   4.516   6.548   9.761 -0.5086 -0.6169  0.2088
 5926TIP3    H241974   4.608   6.429   9.781 -0.2333 -0.5181 -0.4327
 5927TIP3   OH241975   4.268   0.637   9.361 -0.2431  0.4181 -0.5769
 5927TIP3    H141976   4.279   0.555   9.410 -0.3239  0.3507 -0.6718
 5927TIP3    H241977   4.218   0.612   9.283 -1.1114  0.7185 -0.1329
 5928TIP3   OH241978   0.460   6.557   0.377  0.9585  0.0851  0.1169
 5928TIP3    H141979   0.464   6.561   0.281  0.4542 -1.3405  0.0224
 5928TIP3    H241980   0.536   6.503   0.401 -0.1343 -1.4116  0.3467
 5929TIP3   OH241981   3.936   3.956   8.104 -0.0152 -0.0658  0.6803
 5929TIP3    H141982   3.923   3.885   8.167  0.3288 -2.0838 -1.4018
 5929TIP3    H241983   4.022   3.939   8.066 -0.0995  1.2535 -0.1637
 5930TIP3   OH241984   2.233   4.680   9.346  0.1631  0.3971  0.0240
 5930TIP3    H141985   2.229   4.776   9.339 -0.2812  0.5068  1.5519
 5930TIP3    H241986   2.142   4.652   9.348  0.2832  0.0301  0.5881
 5931TIP3   OH241987   1.031   2.363   9.655 -0.3209  0.0701  0.0243
 5931TIP3    H141988   0.999   2.420   9.585  0.4050 -0.0318 -0.4054
 5931TIP3    H241989   0.953   2.323   9.692 -0.7275  0.2447 -0.6360
 5932TIP3   OH241990   5.101   2.224   9.688  0.1412  0.2262 -0.0951
 5932TIP3    H141991   5.008   2.243   9.700 -0.4221  0.4316 -3.6820
 5932TIP3    H241992   5.116   2.143   9.738 -1.8289  0.4315  0.9094
 5933TIP3   OH241993   4.674   0.855   7.993  0.3692 -0.3608  0.4724
 5933TIP3    H141994   4.757   0.898   8.014  0.2019  0.5186 -0.6352
 5933TIP3    H241995   4.696   0.792   7.924  0.0430  0.1585 -0.1074
 5934TIP3   OH241996   5.449   1.171   8.137 -0.1942  0.0435  0.2426
 5934TIP3    H141997   5.524   1.189   8.194 -0.4568 -0.5469  0.8061
 5934TIP3    H241998   5.471   1.087   8.095  0.6309  1.1588 -1.6514
 5935TIP3   OH241999   1.334   4.278   1.430  0.2044  0.4047  0.1446
 5935TIP3    H142000   1.285   4.357   1.452 -2.5540 -1.8474  2.9410
 5935TIP3    H242001   1.425   4.300   1.450 -0.4955  2.7374  1.1179
 5936TIP3   OH242002   0.962   4.677   1.598 -0.1731  0.1024  0.0918
 5936TIP3    H142003   0.977   4.764   1.562  0.1483  0.1102  0.2416
 5936TIP3    H242004   0.939   4.623   1.522  0.2187  0.1847 -0.0897
 5937TIP3   OH242005   2.827   1.147   1.389  0.6105 -0.3818 -0.3801
 5937TIP3    H142006   2.865   1.213   1.447  0.5187 -2.0571  1.7358
 5937TIP3    H242007   2.842   1.064   1.435 -0.9328 -1.6350 -2.0141
 5938TIP3   OH242008   7.017   5.325   1.218 -0.0955 -0.3519  0.6008
 5938TIP3    H142009   7.016   5.420   1.206 -2.2074 -0.2093  1.4107
 5938TIP3    H242010   6.942   5.295   1.166  0.0518 -1.4706  1.0228
 5939TIP3   OH242011   4.314   1.031   8.843  0.0700  0.6776  0.0992
 5939TIP3    H142012   4.282   1.111   8.885 -0.8361  1.6637 -2.3123
 5939TIP3    H242013   4.404   1.023   8.873  0.3319  2.8753  0.0657
 5940TIP3   OH242014   1.244   2.064   9.850 -0.8254 -0.2299 -0.3972
 5940TIP3    H142015   1.274   2.066   9.759  2.7246  0.4039  0.6143
 5940TIP3    H242016   1.220   2.154   9.870 -1.5338 -0.3554 -0.6536
 5941TIP3   OH242017   4.205   2.396   1.943  0.2106  0.3489 -0.7523
 5941TIP3    H142018   4.234   2.460   1.877 -0.3108  1.2815 -0.0984
 5941TIP3    H242019   4.159   2.448   2.008 -0.1604 -0.6983 -0.1557
 5942TIP3   OH242020   7.079   2.149   2.134 -0.1828 -0.4151  0.1718
 5942TIP3    H142021   6.990   2.186   2.141 -0.4682 -0.8924 -0.7241
 5942TIP3    H242022   7.111   2.148   2.224 -0.8485  0.3425  0.4408
 5943TIP3   OH242023   0.390   1.430   2.609 -0.4741 -0.1975 -0.1817
 5943TIP3    H142024   0.457   1.405   2.546  0.9623  1.7011  0.4895
 5943TIP3    H242025   0.312   1.447   2.556  0.3634  0.2072 -1.3306
 5944TIP3   OH242026   0.581   4.763   1.923 -0.6243 -0.1308 -0.1476
 5944TIP3    H142027   0.546   4.849   1.944  0.8361  0.7473 -1.1631
 5944TIP3    H242028   0.506   4.715   1.885 -1.3336  0.8313 -0.0041
 5945TIP3   OH242029   5.590   2.590   9.597 -0.2738 -0.1637 -0.1589
 5945TIP3    H142030   5.627   2.538   9.668  0.2078 -1.5718 -1.3905
 5945TIP3    H242031   5.662   2.646   9.568 -0.6755  0.9435  0.8966
 5946TIP3   OH242032   2.625   0.591   2.648 -0.3665 -0.0156  0.4108
 5946TIP3    H142033   2.633   0.683   2.672 -1.3684  0.3516 -0.5811
 5946TIP3    H242034   2.596   0.547   2.728  0.2432  0.5025  0.9213
 5947TIP3   OH242035   7.203   7.054   2.127 -0.3135  0.0801 -0.5618
 5947TIP3    H142036   7.206   7.138   2.174  0.1746 -0.1485 -0.1633
 5947TIP3    H242037   7.246   7.071   2.044  0.3915  0.0711 -0.2087
 5948TIP3   OH242038   0.994   2.770   2.124 -0.6061 -0.2495 -0.3900
 5948TIP3    H142039   0.907   2.741   2.153 -0.2686 -0.1013  0.8283
 5948TIP3    H242040   1.014   2.844   2.181 -0.4502  0.9069 -1.8949
 5949TIP3   OH242041   5.886   5.042   9.956 -0.3753 -0.4256 -0.0616
 5949TIP3    H142042   5.958   5.006  10.007  1.0549  0.4125 -1.4098
 5949TIP3    H242043   5.843   4.967   9.917 -0.3348 -0.9397  0.8503
 5950TIP3   OH242044   6.612   3.246   7.720 -0.1406 -0.1540 -0.3454
 5950TIP3    H142045   6.633   3.258   7.627 -0.6700 -1.6270 -0.6771
 5950TIP3    H242046   6.622   3.152   7.735 -1.2340 -0.1116  0.7932
 5951TIP3   OH242047   1.262   6.013   8.610 -0.2553 -0.5037 -0.3207
 5951TIP3    H142048   1.322   6.019   8.684  0.2231 -1.7687 -0.5805
 5951TIP3    H242049   1.180   5.981   8.647 -1.1226  2.0765  0.1873
 5952TIP3   OH242050   0.456   6.059   9.342 -0.1200 -0.4549 -0.5955
 5952TIP3    H142051   0.541   6.067   9.385  0.0404  1.2157 -1.1137
 5952TIP3    H242052   0.478   6.042   9.250 -0.2288  1.4899 -1.0399
 5953TIP3   OH242053   1.819   6.674   2.356  0.2334  0.2035 -0.1798
 5953TIP3    H142054   1.904   6.653   2.395  0.5538  2.0968  0.2215
 5953TIP3    H242055   1.840   6.729   2.281 -0.5621 -0.9575 -1.3011
 5954TIP3   OH242056   0.545   3.752   8.416  0.4590  0.1567  0.4914
 5954TIP3    H142057   0.522   3.665   8.383  0.3221  0.3072  0.1854
 5954TIP3    H242058   0.461   3.791   8.442  0.0450  1.4011 -2.2899
 5955TIP3   OH242059   1.799   2.130   0.357 -0.1715 -0.4533 -0.7853
 5955TIP3    H142060   1.885   2.089   0.363  1.1404  1.9556 -1.9169
 5955TIP3    H242061   1.769   2.137   0.448  0.1226 -2.6051 -0.4753
 5956TIP3   OH242062   2.824   2.183   2.310 -0.2078 -0.0415 -0.4287
 5956TIP3    H142063   2.835   2.108   2.369 -2.7223  0.0951  0.3004
 5956TIP3    H242064   2.802   2.144   2.226 -3.0683 -0.1876  0.3086
 5957TIP3   OH242065   4.173   5.709   8.841 -0.4972  0.3338  0.3353
 5957TIP3    H142066   4.159   5.637   8.902 -0.9421  2.8786  3.5799
 5957TIP3    H242067   4.085   5.737   8.816 -0.3328 -0.1015 -0.7838
 5958TIP3   OH242068   0.739   0.696   2.251  0.2474 -0.3024  0.5702
 5958TIP3    H142069   0.746   0.791   2.259 -0.2908 -0.3448  1.6991
 5958TIP3    H242070   0.787   0.661   2.326 -0.4943 -0.8909  0.7811
 5959TIP3   OH242071   1.521   5.589   0.575 -0.2343 -0.3793 -0.1816
 5959TIP3    H142072   1.575   5.526   0.527  0.8332 -0.3788  0.9731
 5959TIP3    H242073   1.554   5.586   0.665 -0.9345  0.9891  0.1552
 5960TIP3   OH242074   3.806   0.992   7.782 -0.1143  0.1834  0.1871
 5960TIP3    H142075   3.853   1.052   7.725 -1.8871  1.4574 -0.0179
 5960TIP3    H242076   3.828   1.020   7.871  0.2325  0.1705  0.1059
 5961TIP3   OH242077   2.399   1.095   9.777  0.2843 -0.4795 -0.2080
 5961TIP3    H142078   2.325   1.136   9.822  1.4879  1.3369  0.2118
 5961TIP3    H242079   2.412   1.012   9.823 -1.0353 -0.4948  0.1641
 5962TIP3   OH242080   5.784   3.761   9.520  0.0104 -0.4035  0.0782
 5962TIP3    H142081   5.852   3.790   9.459  0.7082 -3.8467 -1.0069
 5962TIP3    H242082   5.828   3.696   9.575 -1.8640 -1.0394  0.8787
 5963TIP3   OH242083   4.747   0.741   0.628 -0.1192 -0.5358  0.4074
 5963TIP3    H142084   4.805   0.784   0.565  0.0175 -0.0085  0.8829
 5963TIP3    H242085   4.805   0.715   0.700 -0.4439 -0.0905  0.8410
 5964TIP3   OH242086   0.364   4.994   0.922 -0.3364 -0.0649  0.5993
 5964TIP3    H142087   0.350   4.920   0.862 -0.3151  0.6347 -0.2792
 5964TIP3    H242088   0.446   4.973   0.966  0.9660  0.5635 -1.3954
 5965TIP3   OH242089   2.297   1.436   8.119 -0.9682  0.0200  0.0448
 5965TIP3    H142090   2.254   1.503   8.066  0.5845 -0.3594 -1.7792
 5965TIP3    H242091   2.315   1.480   8.202 -0.7611  1.6077 -0.8064
 5966TIP3   OH242092   6.242   6.041   8.479  0.6694 -0.3514  0.5227
 5966TIP3    H142093   6.214   5.974   8.416  1.1483  0.2079 -0.2994
 5966TIP3    H242094   6.270   6.115   8.425  3.4477 -0.7429  1.2833
 5967TIP3   OH242095   1.798   3.274   1.720  0.6572 -0.2971 -0.2265
 5967TIP3    H142096   1.752   3.218   1.658 -0.0761  0.8932 -0.7885
 5967TIP3    H242097   1.729   3.307   1.778  1.0662  0.0644  0.0613
 5968TIP3   OH242098   0.577   7.174   7.207 -0.0581  0.1910  0.0807
 5968TIP3    H142099   0.488   7.147   7.227 -0.6123  1.8024 -0.0404
 5968TIP3    H242100   0.590   7.254   7.259  1.7497 -0.6508  1.0287
 5969TIP3   OH242101   2.007   2.836   1.224  0.4358  0.3846  0.7218
 5969TIP3    H142102   1.980   2.914   1.176 -0.6871  0.6237  1.7257
 5969TIP3    H242103   2.081   2.802   1.173  0.8358  1.9856  0.1699
 5970TIP3   OH242104   7.326   3.681   9.459 -0.1049  0.0502  0.3152
 5970TIP3    H142105   7.299   3.736   9.385 -0.8192  0.5129  0.9070
 5970TIP3    H242106   7.422   3.689   9.461  0.0226 -0.7549 -1.1480
 5971TIP3   OH242107   1.869   5.789   3.187  1.0149 -0.4088  0.1477
 5971TIP3    H142108   1.823   5.855   3.137  1.5527 -1.0511 -1.2446
 5971TIP3    H242109   1.951   5.774   3.139  1.4576 -1.2145  1.0897
 5972TIP3   OH242110   4.014   5.983   8.162 -0.2156 -0.7362  0.3094
 5972TIP3    H142111   4.062   5.972   8.080  0.0485  0.5223  0.2729
 5972TIP3    H242112   3.938   6.036   8.138  0.2235  0.2152  0.9906
 5973TIP3   OH242113   6.655   0.170   0.671  0.2195  0.1802  0.7234
 5973TIP3    H142114   6.563   0.148   0.658  0.5344 -1.1526  0.6201
 5973TIP3    H242115   6.679   0.219   0.591  0.0292 -0.9276 -0.0327
 5974TIP3   OH242116   6.733   2.222   0.309 -0.0665 -0.5493  0.1652
 5974TIP3    H142117   6.724   2.145   0.254  1.7672  1.2227 -2.9296
 5974TIP3    H242118   6.814   2.263   0.279  0.4139  1.2433  3.4746
 5975TIP3   OH242119   3.817   4.933   8.578  0.0630 -0.3375  0.5851
 5975TIP3    H142120   3.736   4.904   8.536 -1.0298  3.7839 -0.6284
 5975TIP3    H242121   3.791   4.954   8.667  0.2904 -0.8824  0.7818
 5976TIP3   OH242122   3.037   1.193   2.645  0.1803  0.0261  0.4065
 5976TIP3    H142123   3.029   1.230   2.732  0.5296 -0.3498  0.6023
 5976TIP3    H242124   3.127   1.212   2.618  1.1332 -2.6232  1.4429
 5977TIP3   OH242125   2.315   4.501   0.904 -0.6836  0.6783  0.1033
 5977TIP3    H142126   2.320   4.596   0.909 -2.5478  0.8884 -0.9655
 5977TIP3    H242127   2.338   4.471   0.992 -0.6643  2.1395  0.6286
 5978TIP3   OH242128   1.605   4.116   7.111  0.2373 -0.1257  0.6085
 5978TIP3    H142129   1.510   4.106   7.117 -0.0008  1.3049 -0.4704
 5978TIP3    H242130   1.633   4.048   7.049 -0.3801  0.8762 -0.7957
 5979TIP3   OH242131   0.104   4.176   9.011 -0.2271  0.2231 -0.2186
 5979TIP3    H142132   0.170   4.245   9.019 -0.3181  0.1675  1.3340
 5979TIP3    H242133   0.144   4.111   8.954  0.1013  1.2666 -1.2236
 5980TIP3   OH242134   4.608   3.974   1.703  0.1529 -0.6475  0.1343
 5980TIP3    H142135   4.624   4.068   1.716 -0.1227 -0.4109 -1.0963
 5980TIP3    H242136   4.673   3.931   1.758 -0.0259  0.2487  1.1035
 5981TIP3   OH242137   2.402   6.036   2.374  0.1828  0.3836 -0.0158
 5981TIP3    H142138   2.308   6.022   2.380  0.0420  0.4042 -1.7001
 5981TIP3    H242139   2.419   6.113   2.428 -0.4684 -0.6215  1.7113
 5982TIP3   OH242140   1.672   2.701   9.012 -0.5635 -0.0016  0.5592
 5982TIP3    H142141   1.663   2.796   9.012 -1.6168 -0.0583 -1.5072
 5982TIP3    H242142   1.599   2.671   9.067  0.3708  0.3741  2.0699
 5983TIP3   OH242143   6.092   3.535   0.311 -0.2718  0.5116  0.4217
 5983TIP3    H142144   6.000   3.509   0.315 -0.4836  1.2126  0.1480
 5983TIP3    H242145   6.139   3.453   0.297 -0.9313  0.2598 -0.4096
 5984TIP3   OH242146   5.077   0.722   8.175 -0.2120 -0.1141  0.3231
 5984TIP3    H142147   5.156   0.739   8.225  0.9480 -0.4373 -1.3121
 5984TIP3    H242148   5.089   0.635   8.139 -1.5809 -0.4020  0.4922
 5985TIP3   OH242149   3.715   2.048   1.561 -0.3388  0.0242 -0.2055
 5985TIP3    H142150   3.688   2.129   1.603  0.7441  0.7108 -0.8006
 5985TIP3    H242151   3.811   2.052   1.560 -0.2991 -0.7413 -1.2392
 5986TIP3   OH242152   2.013   1.779   2.693  0.2581 -0.2953  0.5081
 5986TIP3    H142153   2.032   1.847   2.629  0.4750 -1.0095 -0.1947
 5986TIP3    H242154   1.969   1.825   2.764  0.7803  0.6527  0.2347
 5987TIP3   OH242155   1.434   6.402   7.999  0.1185 -0.3338  0.3147
 5987TIP3    H142156   1.491   6.348   7.945  1.3925  0.2634  1.0388
 5987TIP3    H242157   1.468   6.392   8.088 -0.9862 -0.0570  0.7891
 5988TIP3   OH242158   2.379   1.906   0.771 -0.2325 -0.7297  0.3701
 5988TIP3    H142159   2.358   1.957   0.850  0.3499 -0.4919  0.3753
 5988TIP3    H242160   2.402   1.972   0.706  1.3494 -0.9843  0.6144
 5989TIP3   OH242161   2.991   3.977   2.148 -0.0753 -0.1522  0.3001
 5989TIP3    H142162   3.016   3.936   2.231 -1.6624  1.0200  1.4263
 5989TIP3    H242163   2.897   3.992   2.156  0.2597  3.0610 -0.2546
 5990TIP3   OH242164   2.154   0.593   2.060  0.1901 -0.6620 -1.1617
 5990TIP3    H142165   2.246   0.593   2.088  0.5972 -1.9226 -2.3663
 5990TIP3    H242166   2.131   0.500   2.054 -1.7880 -0.3672  0.9631
 5991TIP3   OH242167   1.216   4.089   0.600  0.3748 -0.1754 -0.1537
 5991TIP3    H142168   1.151   4.031   0.640  0.3775  1.0200  1.7292
 5991TIP3    H242169   1.194   4.089   0.507  0.0842 -2.7589 -0.1464
 5992TIP3   OH242170   0.616   0.090   0.293  0.4434 -0.0115  0.1981
 5992TIP3    H142171   0.579   0.125   0.374  1.2785 -1.9340  1.5014
 5992TIP3    H242172   0.705   0.126   0.290 -0.0433  1.1425 -0.6058
 5993TIP3   OH242173   6.305   4.180   0.701 -0.0609  0.1485 -0.3872
 5993TIP3    H142174   6.319   4.090   0.673  0.7256  0.2670 -0.4053
 5993TIP3    H242175   6.391   4.210   0.730 -0.0885  1.2004 -1.3075
 5994TIP3   OH242176   2.849   1.482   9.541 -0.1044  0.0078  0.2957
 5994TIP3    H142177   2.937   1.495   9.578  0.2533 -1.3232 -0.0555
 5994TIP3    H242178   2.863   1.480   9.447 -0.0395 -3.0470  0.2760
 5995TIP3   OH242179   2.596   2.122   1.139  0.1061 -0.0934  0.7192
 5995TIP3    H142180   2.653   2.128   1.216 -1.2946  0.7660  1.7312
 5995TIP3    H242181   2.626   2.042   1.094  1.4370 -0.2090  1.7321
 5996TIP3   OH242182   6.752   3.838   7.641  0.0561 -0.0185 -0.6681
 5996TIP3    H142183   6.690   3.911   7.632 -0.5679 -0.4992 -0.3037
 5996TIP3    H242184   6.809   3.847   7.565 -0.1621  0.7094 -0.7618
 5997TIP3   OH242185   7.445   0.748   1.450  0.3367  0.2616  0.2081
 5997TIP3    H142186   7.508   0.723   1.518  1.3037  1.3926 -0.2412
 5997TIP3    H242187   7.456   0.842   1.441 -1.2333  0.4315 -0.0985
 5998TIP3   OH242188   1.373   7.131   9.825 -0.2493  0.0089  0.4334
 5998TIP3    H142189   1.405   7.135   9.916 -0.0018 -1.1994  0.4130
 5998TIP3    H242190   1.279   7.148   9.832 -0.3698 -0.8072  1.0185
 5999TIP3   OH242191   7.385   5.653   1.505  0.5895  0.1885 -0.5045
 5999TIP3    H142192   7.480   5.651   1.514  0.4628 -2.0109  1.0983
 5999TIP3    H242193   7.357   5.564   1.524 -1.6393  0.0871 -3.4946
 6000TIP3   OH242194   1.061   6.710   1.546  0.4870  0.0489  0.2344
 6000TIP3    H142195   1.070   6.757   1.628  0.9694  0.4398 -0.0353
 6000TIP3    H242196   1.106   6.765   1.482 -0.7418  0.2591 -0.4902
 6001TIP3   OH242197   5.551   2.476   0.257 -0.0061  0.6476  0.1642
 6001TIP3    H142198   5.471   2.511   0.216 -0.3683  0.8711  1.0293
 6001TIP3    H242199   5.541   2.498   0.349  0.5286 -0.3343  0.4668
 6002TIP3   OH242200   3.234   7.152   9.676  0.2359 -0.6113 -0.2185
 6002TIP3    H142201   3.198   7.183   9.759 -0.0488 -2.9303  0.6129
 6002TIP3    H242202   3.158   7.136   9.621  0.4549  1.6587 -1.2897
 6003TIP3   OH242203   5.379   4.022   1.801  0.4034  0.2107  0.6370
 6003TIP3    H142204   5.392   4.115   1.779 -1.6672  0.3490 -0.2845
 6003TIP3    H242205   5.364   3.980   1.717 -2.6979 -0.1741  1.2468
 6004TIP3   OH242206   6.853   6.830   0.331 -0.6143  0.3506 -0.1676
 6004TIP3    H142207   6.768   6.811   0.369 -0.4189  0.9243  0.5949
 6004TIP3    H242208   6.911   6.839   0.407 -0.2002  1.4459 -0.5947
 6005TIP3   OH242209   4.570   1.157   8.913  0.1354 -0.6450  1.0054
 6005TIP3    H142210   4.533   1.194   8.994 -2.0481  0.0235 -0.2087
 6005TIP3    H242211   4.626   1.226   8.879 -0.0490 -0.3690  1.2475
 6006TIP3   OH242212   2.482   6.022   1.188 -0.1490 -0.1454  0.1542
 6006TIP3    H142213   2.576   6.025   1.167  0.1121 -2.5628  0.5992
 6006TIP3    H242214   2.470   6.090   1.254  1.1842  0.5299 -0.2585
 6007TIP3   OH242215   0.226   1.721   1.448 -0.0184  0.4445  1.2763
 6007TIP3    H142216   0.273   1.803   1.432  2.5148 -1.2201 -0.7156
 6007TIP3    H242217   0.285   1.653   1.416 -2.2542 -2.1595  2.2631
 6008TIP3   OH242218   1.097   6.284   8.924  0.3709 -0.1964 -0.2650
 6008TIP3    H142219   1.041   6.209   8.943 -0.7735  0.8364  0.5687
 6008TIP3    H242220   1.161   6.284   8.996  0.5794 -0.5569 -0.4478
 6009TIP3   OH242221   5.491   4.992   1.813  0.0276  0.0701  0.1300
 6009TIP3    H142222   5.498   4.943   1.895  1.7585  0.3207  0.1645
 6009TIP3    H242223   5.578   4.985   1.773 -0.7421  0.0468 -1.6471
 6010TIP3   OH242224   7.378   2.939   0.826  0.0573  0.4576 -0.0752
 6010TIP3    H142225   7.380   2.967   0.917 -0.9637  0.6666 -0.1011
 6010TIP3    H242226   7.395   2.845   0.829 -0.8858  0.2929  0.4305
 6011TIP3   OH242227   2.090   1.098   9.410 -0.1160  0.0208 -0.0566
 6011TIP3    H142228   2.176   1.138   9.398 -0.2311  0.3348  0.1290
 6011TIP3    H242229   2.084   1.081   9.504 -0.9416  1.6252  0.2157
 6012TIP3   OH242230   5.699   0.536   8.646  0.4458 -0.4276  0.4376
 6012TIP3    H142231   5.617   0.485   8.643  0.5543 -0.6643  1.1066
 6012TIP3    H242232   5.730   0.525   8.736  0.7932  0.3309  0.4201
 6013TIP3   OH242233   7.104   3.135   9.643 -0.2236  0.2045  0.5320
 6013TIP3    H142234   7.175   3.118   9.705  0.9952  1.0482 -0.6094
 6013TIP3    H242235   7.082   3.049   9.608  1.3260  0.1197 -0.2709
 6014TIP3   OH242236   4.283   0.327   1.625 -0.1973  0.0842 -0.2923
 6014TIP3    H142237   4.202   0.341   1.575  2.1458  1.2250 -4.2373
 6014TIP3    H242238   4.292   0.232   1.631 -1.5401 -0.0602 -0.2348
 6015TIP3   OH242239   5.678   5.287   2.875 -0.9654  0.5183  0.1178
 6015TIP3    H142240   5.660   5.375   2.908 -2.1788  0.4018 -0.2019
 6015TIP3    H242241   5.639   5.229   2.939  0.4121  0.1637  0.6785
 6016TIP3   OH242242   3.583   7.067   8.464  0.3751 -0.0076 -0.2880
 6016TIP3    H142243   3.508   7.106   8.509  0.8808  0.3245  0.2803
 6016TIP3    H242244   3.653   7.067   8.529  1.0283  0.1983 -0.9782
 6017TIP3   OH242245   4.924   7.310   9.158  0.0572  0.0990 -0.2785
 6017TIP3    H142246   4.985   7.285   9.088 -0.2013 -1.4198 -0.0029
 6017TIP3    H242247   4.855   7.358   9.112  1.0584  1.1846 -0.7009
 6018TIP3   OH242248   7.161   0.214   8.291 -0.7784 -0.1821 -0.4357
 6018TIP3    H142249   7.131   0.210   8.200  0.3752  1.1381 -0.8946
 6018TIP3    H242250   7.254   0.235   8.285 -0.2969 -1.6706  1.0319
 6019TIP3   OH242251   2.411   0.261   0.759  0.6487 -0.6594  0.2289
 6019TIP3    H142252   2.493   0.287   0.802  1.4978 -1.5541 -0.7698
 6019TIP3    H242253   2.419   0.297   0.670  0.7488 -2.1941 -0.4051
 6020TIP3   OH242254   5.112   1.110   7.302 -0.1949 -0.2487  0.1360
 6020TIP3    H142255   5.193   1.138   7.344  0.1489 -1.0111 -0.0101
 6020TIP3    H242256   5.134   1.102   7.209 -0.5205 -0.1532  0.0483
 6021TIP3   OH242257   2.216   5.140   8.825  0.0655  0.1491 -0.4474
 6021TIP3    H142258   2.288   5.092   8.866  0.7881  0.6744 -1.0731
 6021TIP3    H242259   2.237   5.232   8.839 -0.1039  0.3245 -1.2478
 6022TIP3   OH242260   5.445   5.945   8.418 -0.0228 -0.1382 -0.3510
 6022TIP3    H142261   5.484   5.974   8.336  0.9580 -1.2870 -0.3058
 6022TIP3    H242262   5.500   5.873   8.448 -0.8234 -0.2658  0.9176
 6023TIP3   OH242263   3.154   1.426   1.329 -0.1158  0.1028  0.4301
 6023TIP3    H142264   3.132   1.367   1.257 -0.5390 -0.1339  0.7458
 6023TIP3    H242265   3.249   1.427   1.332 -0.0741  0.7387 -0.6407
 6024TIP3   OH242266   6.919   6.281   9.091 -0.0389  0.0048 -0.0519
 6024TIP3    H142267   6.932   6.221   9.164 -2.7591  0.3531  0.8163
 6024TIP3    H242268   6.978   6.249   9.023 -0.4868 -2.9031  0.8037
 6025TIP3   OH242269   6.159   1.303   2.084 -0.4903 -0.0126 -0.1742
 6025TIP3    H142270   6.151   1.398   2.080  0.1230  0.1121  0.9543
 6025TIP3    H242271   6.247   1.288   2.119 -0.0729 -1.0286 -1.5905
 6026TIP3   OH242272   1.579   4.046   1.092  1.0422 -0.1092 -0.8443
 6026TIP3    H142273   1.483   4.037   1.089  0.9217  1.0997 -1.6997
 6026TIP3    H242274   1.606   4.038   1.000  1.6702  0.3307 -0.7037
 6027TIP3   OH242275   2.591   3.318   8.680 -0.5259  0.0074 -0.2136
 6027TIP3    H142276   2.526   3.387   8.692  1.0588  1.0651  3.4476
 6027TIP3    H242277   2.674   3.365   8.670  0.2288 -1.3524 -0.5230
 6028TIP3   OH242278   5.070   6.035   7.669 -0.2690  0.6106  0.3116
 6028TIP3    H142279   5.057   5.950   7.628  2.5940  0.2443 -0.0692
 6028TIP3    H242280   5.084   6.095   7.596 -0.0641  0.9503  0.6254
 6029TIP3   OH242281   0.245   4.438   8.352 -0.6269  0.5694 -0.3993
 6029TIP3    H142282   0.261   4.532   8.355 -0.0700  0.4569  1.4735
 6029TIP3    H242283   0.210   4.417   8.438  3.5639 -1.6055  1.0082
 6030TIP3   OH242284   3.603   5.931   6.786  0.4992  0.7232  0.0783
 6030TIP3    H142285   3.548   5.889   6.721 -0.0340 -0.3279  1.1633
 6030TIP3    H242286   3.672   5.974   6.736  1.4428 -1.9530 -1.1227
 6031TIP3   OH242287   4.998   0.286   8.013  0.3538 -0.1913  0.2798
 6031TIP3    H142288   5.091   0.304   8.027  0.9576 -1.4483 -1.6464
 6031TIP3    H242289   4.970   0.352   7.949  0.8204 -1.7233 -1.6042
 6032TIP3   OH242290   0.427   0.109   8.344 -0.2132 -0.1894 -0.3717
 6032TIP3    H142291   0.474   0.027   8.327  3.0920  1.7237 -1.5053
 6032TIP3    H242292   0.471   0.146   8.421 -1.0098  0.9516 -0.4380
 6033TIP3   OH242293   4.417   1.823   8.088  0.1129  0.2142  0.1782
 6033TIP3    H142294   4.465   1.861   8.015  2.1845  0.5061  1.6139
 6033TIP3    H242295   4.429   1.885   8.160 -0.6578 -0.7543  1.1861
 6034TIP3   OH242296   3.944   1.799   0.614 -0.2580 -0.5193 -0.3940
 6034TIP3    H142297   3.988   1.766   0.692 -0.2982  1.3217  0.4400
 6034TIP3    H242298   3.884   1.728   0.589  0.4994 -1.5475  0.6182
 6035TIP3   OH242299   1.977   2.016   8.235  0.0823  0.0050  0.3411
 6035TIP3    H142300   2.033   1.940   8.218  0.1049 -0.0247  0.5456
 6035TIP3    H242301   1.888   1.986   8.215  0.2860  0.4873 -1.4277
 6036TIP3   OH242302   1.246   5.152   8.472 -1.0050 -0.6772  0.4259
 6036TIP3    H142303   1.193   5.083   8.432 -3.0143  0.3701  1.1917
 6036TIP3    H242304   1.187   5.197   8.531  0.2043  1.7947 -0.1229
 6037TIP3   OH242305   2.669   0.261   9.831  0.4355  0.3657 -0.3028
 6037TIP3    H142306   2.637   0.346   9.801  0.8660  0.5367 -0.2879
 6037TIP3    H242307   2.696   0.276   9.921  0.2992  0.1561 -0.2277
 6038TIP3   OH242308   2.057   1.360   0.664  0.0344 -0.1605 -0.5667
 6038TIP3    H142309   2.015   1.445   0.670  0.5904  0.0319  1.4029
 6038TIP3    H242310   1.991   1.298   0.694 -0.3653 -0.4584 -1.9838
 6039TIP3   OH242311   2.633   1.168   8.421  0.1789  0.4731  0.0804
 6039TIP3    H142312   2.728   1.173   8.414  0.0896  0.5547 -1.3470
 6039TIP3    H242313   2.603   1.147   8.333 -0.9856 -2.2024  0.9963
 6040TIP3   OH242314   4.490   0.151   2.445 -0.2273 -0.0190 -0.3676
 6040TIP3    H142315   4.576   0.116   2.421  0.0116 -0.0759  0.5152
 6040TIP3    H242316   4.428   0.089   2.406  0.0805  0.7064 -2.0654
 6041TIP3   OH242317   3.132   0.829   9.964 -0.1016 -0.3751  0.4850
 6041TIP3    H142318   3.091   0.865   9.886  0.2831  2.1414  1.3515
 6041TIP3    H242319   3.107   0.889  10.034  3.5606  0.3999  1.3521
 6042TIP3   OH242320   5.366   6.143   0.606  0.0854  0.0988 -0.0307
 6042TIP3    H142321   5.359   6.183   0.520  0.1215 -0.0751 -0.1154
 6042TIP3    H242322   5.438   6.081   0.598  0.9865  1.0623  0.5179
 6043TIP3   OH242323   7.281   6.535   1.777  0.1854 -0.2610 -0.4030
 6043TIP3    H142324   7.340   6.603   1.809 -0.0801 -0.7467  1.1751
 6043TIP3    H242325   7.318   6.453   1.811 -0.5570 -0.7206 -0.6859
 6044TIP3   OH242326   5.912   3.820   8.820  0.6863  0.1317 -0.0181
 6044TIP3    H142327   5.995   3.775   8.834 -0.1311 -1.1369  0.9860
 6044TIP3    H242328   5.936   3.909   8.797  2.3155 -0.1167  0.6210
 6045TIP3   OH242329   2.044   0.537   1.076  0.2150 -0.1218 -0.2312
 6045TIP3    H142330   2.133   0.515   1.105  0.2617 -2.2938 -1.7746
 6045TIP3    H242331   1.999   0.563   1.156  1.8840 -0.2486  0.8032
 6046TIP3   OH242332   2.889   3.287   7.270  0.3914 -0.1101  0.3568
 6046TIP3    H142333   2.820   3.280   7.337  0.8670 -0.3702  0.8229
 6046TIP3    H242334   2.841   3.282   7.187 -0.3174  1.2555  0.6460
 6047TIP3   OH242335   2.632   5.493   8.566 -0.2863 -0.2370  0.6047
 6047TIP3    H142336   2.691   5.431   8.525 -1.8292 -1.9007  0.7674
 6047TIP3    H242337   2.625   5.565   8.504 -0.3103 -1.3381 -0.7058
 6048TIP3   OH242338   0.752   7.375   2.669 -0.3718 -0.9444  0.3216
 6048TIP3    H142339   0.743   7.317   2.593 -0.3130  0.0907 -0.5009
 6048TIP3    H242340   0.847   7.379   2.684 -0.3515 -0.7901  0.1570
 6049TIP3   OH242341   7.468   3.131   0.285  0.5600 -0.6428 -0.5278
 6049TIP3    H142342   7.430   3.055   0.329  0.3117 -0.0362  0.3162
 6049TIP3    H242343   7.492   3.098   0.198 -1.0587 -1.2774 -0.7780
 6050TIP3   OH242344   5.297   1.169   0.427 -0.0378  0.0860 -0.1427
 6050TIP3    H142345   5.344   1.119   0.494 -0.2832  0.3835  0.2605
 6050TIP3    H242346   5.241   1.229   0.477 -0.3376  0.2088 -0.6162
 6051TIP3   OH242347   4.715   2.040   8.496  0.2901 -0.0387 -0.0974
 6051TIP3    H142348   4.644   2.103   8.491  1.3407  1.3309  1.4899
 6051TIP3    H242349   4.794   2.092   8.504  1.2911 -1.5387  0.3344
 6052TIP3   OH242350   2.307   3.374   1.535 -0.0524 -0.2581 -0.0028
 6052TIP3    H142351   2.340   3.395   1.623  0.2714 -0.7430 -0.0034
 6052TIP3    H242352   2.238   3.310   1.550 -1.1260  0.8589  0.0082
 6053TIP3   OH242353   5.785   4.965   9.693 -0.1527 -0.1257  0.0709
 6053TIP3    H142354   5.742   4.909   9.758  2.0402 -0.3047  1.4469
 6053TIP3    H242355   5.726   5.040   9.684 -1.0363 -0.6115  1.4585
 6054TIP3   OH242356   3.519   5.038   8.198 -0.0184 -0.3550 -0.7967
 6054TIP3    H142357   3.523   5.018   8.105  0.2648  3.2196 -1.6972
 6054TIP3    H242358   3.603   5.079   8.218 -0.2586 -0.6161  0.9602
 6055TIP3   OH242359   2.139   1.826   8.163 -0.4262 -0.1003  0.5154
 6055TIP3    H142360   2.162   1.808   8.254  0.8720 -0.5065  0.1339
 6055TIP3    H242361   2.126   1.739   8.125 -1.0270  0.0716  0.3133
 6056TIP3   OH242362   0.561   5.580   0.707 -0.2796  0.1849  0.2622
 6056TIP3    H142363   0.628   5.628   0.754  0.7586 -0.8639 -0.1107
 6056TIP3    H242364   0.482   5.591   0.760 -0.4098  3.2873 -0.4337
 6057TIP3   OH242365   0.982   0.069   2.250  0.2849  0.4638 -0.3853
 6057TIP3    H142366   0.912   0.004   2.245  2.2594 -2.1870  2.3085
 6057TIP3    H242367   1.009   0.067   2.342  4.0075  1.1486 -1.3069
 6058TIP3   OH242368   3.385   4.080   8.821  0.8774 -0.1119  0.7000
 6058TIP3    H142369   3.327   4.066   8.746  1.1879 -0.4430  0.5157
 6058TIP3    H242370   3.442   4.153   8.795  0.8020 -0.0470  0.7209
 6059TIP3   OH242371   1.828   0.763   8.165 -0.4326 -1.0643  0.5132
 6059TIP3    H142372   1.884   0.766   8.243 -0.4417  0.2300  0.4941
 6059TIP3    H242373   1.886   0.735   8.095  0.2586  0.4012  0.4685
 6060TIP3   OH242374   2.982   2.852   8.311 -0.7196  0.0356  0.1393
 6060TIP3    H142375   2.897   2.874   8.273  0.7199  2.8189 -1.8407
 6060TIP3    H242376   2.998   2.920   8.376 -0.1408 -0.6387  0.7148
 6061TIP3   OH242377   2.788   6.223   0.075  0.0004 -0.0216 -0.5377
 6061TIP3    H142378   2.764   6.291   0.012 -0.3822 -0.2316 -0.6151
 6061TIP3    H242379   2.717   6.223   0.139 -0.4447 -0.9619 -1.0188
 6062TIP3   OH242380   5.795   0.751   8.013 -0.3401 -0.1226 -0.5583
 6062TIP3    H142381   5.790   0.656   8.017 -1.4302 -0.0794 -0.6074
 6062TIP3    H242382   5.719   0.777   7.961  0.4178  0.7269 -1.2759
 6063TIP3   OH242383   5.094   4.574   9.238  0.4772  0.0388 -0.5579
 6063TIP3    H142384   5.131   4.492   9.205 -1.6652 -1.0171 -0.5442
 6063TIP3    H242385   5.052   4.550   9.321  0.9393  1.4466  0.1001
 6064TIP3   OH242386   5.829   5.890   8.375  0.1762 -0.8523 -0.1875
 6064TIP3    H142387   5.854   5.848   8.292  0.9363  0.0860 -0.4599
 6064TIP3    H242388   5.857   5.828   8.442 -0.6539 -1.7300 -0.6265
 6065TIP3   OH242389   7.105   4.357   8.646 -0.0888  0.2391  0.3458
 6065TIP3    H142390   7.071   4.272   8.672  0.9610  0.3447  2.1949
 6065TIP3    H242391   7.200   4.348   8.650  0.0442  1.5618  0.8233
 6066TIP3   OH242392   4.872   2.327   1.926  0.0235  0.3799 -0.4857
 6066TIP3    H142393   4.869   2.406   1.871 -1.5666  0.3214 -0.5262
 6066TIP3    H242394   4.891   2.360   2.014 -2.1943  1.0394 -0.1916
 6067TIP3   OH242395   1.484   0.588   0.437  0.0982  0.6154  0.1356
 6067TIP3    H142396   1.487   0.527   0.511 -0.0210 -0.1916 -0.5118
 6067TIP3    H242397   1.397   0.628   0.442  0.5395  1.5346  1.1658
 6068TIP3   OH242398   4.218   6.631   7.559  0.1360 -0.2553  0.0035
 6068TIP3    H142399   4.213   6.723   7.534  2.5999 -0.1484 -0.3444
 6068TIP3    H242400   4.309   6.618   7.586  0.4187 -3.0361 -1.8363
 6069TIP3   OH242401   6.116   5.492   1.320 -0.2337 -0.7207 -0.0910
 6069TIP3    H142402   6.143   5.449   1.239 -0.5662 -1.2454  0.0706
 6069TIP3    H242403   6.024   5.469   1.330 -0.4056 -0.0091  0.0288
 6070TIP3   OH242404   3.934   7.141   1.101  0.1915 -0.6520 -0.2950
 6070TIP3    H142405   3.859   7.082   1.088 -1.0130  1.0423 -1.4599
 6070TIP3    H242406   3.933   7.160   1.195 -0.8775 -0.6136 -0.3033
 6071TIP3   OH242407   5.224   0.478   8.278  0.2299 -0.0807  0.4983
 6071TIP3    H142408   5.303   0.467   8.225 -0.1957  0.4713 -0.2692
 6071TIP3    H242409   5.196   0.388   8.297  1.2720 -0.2855  1.1543
 6072TIP3   OH242410   3.592   1.664   9.820  0.1920  0.2388  0.0037
 6072TIP3    H142411   3.603   1.623   9.906  0.5941 -1.5130 -0.8317
 6072TIP3    H242412   3.532   1.605   9.773 -1.1860  1.9349 -0.4563
 6073TIP3   OH242413   1.034   1.337   2.940 -0.6681 -0.1723 -0.3077
 6073TIP3    H142414   1.003   1.348   3.031 -2.8040 -0.9416 -0.8626
 6073TIP3    H242415   1.107   1.276   2.947  0.6760  1.5140  1.0923
 6074TIP3   OH242416   1.942   0.688   6.907 -0.7467 -0.3874 -0.4424
 6074TIP3    H142417   2.003   0.631   6.952 -2.1260 -2.8170 -1.4813
 6074TIP3    H242418   1.897   0.736   6.977  1.0024  0.0728  0.4010
 6075TIP3   OH242419   4.953   2.026   8.710  0.0411  0.3892 -0.1836
 6075TIP3    H142420   5.034   2.075   8.725 -0.6247  1.4970 -0.0816
 6075TIP3    H242421   4.974   1.965   8.640  0.5240  1.8153 -1.3534
 6076TIP3   OH242422   0.812   1.889   1.154  0.2495  0.1287 -0.2549
 6076TIP3    H142423   0.826   1.831   1.078  0.8470 -0.4105  0.2529
 6076TIP3    H242424   0.827   1.977   1.120  2.1411 -0.2147 -0.4180
 6077TIP3   OH242425   6.935   5.239   9.689  0.3717 -0.4556 -0.2918
 6077TIP3    H142426   6.849   5.201   9.673  0.0145  0.0338  0.4245
 6077TIP3    H242427   6.926   5.286   9.772  0.5079  1.9562 -1.5576
 6078TIP3   OH242428   2.555   6.675   1.709  0.1225 -0.5592 -0.3935
 6078TIP3    H142429   2.629   6.700   1.653 -0.0376  0.0437 -0.3337
 6078TIP3    H242430   2.574   6.584   1.732  0.8432 -0.4224 -0.3963
 6079TIP3   OH242431   3.449   6.616   6.938  0.4220 -0.0139  0.1516
 6079TIP3    H142432   3.498   6.691   6.972 -1.6097  1.4710 -0.0461
 6079TIP3    H242433   3.362   6.650   6.919 -1.5082 -3.0480  2.6904
 6080TIP3   OH242434   1.407   1.443   1.339  0.0927  0.3967 -0.2353
 6080TIP3    H142435   1.345   1.508   1.373  1.1244  0.9383  0.6856
 6080TIP3    H242436   1.490   1.465   1.382  1.5117  1.1138 -3.0956
 6081TIP3   OH242437   0.859   1.544   7.544  0.9032 -0.3078  0.3173
 6081TIP3    H142438   0.766   1.565   7.553  0.9192  0.2369 -0.6291
 6081TIP3    H242439   0.869   1.521   7.451  1.8195  0.1755  0.2893
 6082TIP3   OH242440   4.440   5.264   0.567  0.5669 -0.1627 -0.3665
 6082TIP3    H142441   4.482   5.348   0.587  0.6562 -0.2828 -0.0350
 6082TIP3    H242442   4.380   5.250   0.640  0.1253 -0.1082 -0.7175
 6083TIP3   OH242443   5.171   0.104   9.543 -0.3045  0.0845  0.3135
 6083TIP3    H142444   5.111   0.030   9.549 -1.1451  0.6960 -0.5057
 6083TIP3    H242445   5.248   0.068   9.499 -0.9317 -0.1777 -0.5970
 6084TIP3   OH242446   2.243   5.092   7.407  0.0114  0.7885  1.0516
 6084TIP3    H142447   2.252   5.053   7.321  0.1984  0.1769  1.3419
 6084TIP3    H242448   2.333   5.114   7.433  0.0182  0.4475  1.3255
 6085TIP3   OH242449   4.238   2.787   8.596 -0.2197 -0.2404 -0.1810
 6085TIP3    H142450   4.295   2.717   8.564  1.2672  1.0049 -0.3618
 6085TIP3    H242451   4.233   2.773   8.691  0.2274 -0.4649 -0.1895
 6086TIP3   OH242452   1.591   0.749   7.269  0.3204 -0.0909 -0.2881
 6086TIP3    H142453   1.629   0.688   7.206  1.7291  0.6264 -0.1764
 6086TIP3    H242454   1.609   0.836   7.232 -0.6586  0.2912  0.1056
 6087TIP3   OH242455   4.123   3.408   1.780 -0.0601 -0.5822  0.4086
 6087TIP3    H142456   4.077   3.359   1.848  1.8299 -0.9713  1.4886
 6087TIP3    H242457   4.190   3.457   1.827  0.2511  0.4432 -1.0256
 6088TIP3   OH242458   2.757   5.022   1.806  0.1958 -0.3262 -0.5789
 6088TIP3    H142459   2.664   5.003   1.792  0.2055 -2.0022  1.2154
 6088TIP3    H242460   2.762   5.047   1.898  1.7108 -1.5910 -0.2915
 6089TIP3   OH242461   6.665   3.251   1.692 -0.0008  0.3499  0.3780
 6089TIP3    H142462   6.700   3.162   1.691  0.2279  0.4424 -0.8170
 6089TIP3    H242463   6.598   3.249   1.760  1.1961 -0.2556  1.6106
 6090TIP3   OH242464   0.199   6.339   8.035  0.8480 -0.1368 -0.5023
 6090TIP3    H142465   0.205   6.378   8.122 -0.2503  1.9131 -1.2783
 6090TIP3    H242466   0.289   6.315   8.013  1.3630  0.7391  0.5763
 6091TIP3   OH242467   4.602   0.699   7.542 -0.0661  0.4349 -0.2589
 6091TIP3    H142468   4.515   0.659   7.542 -0.1529  0.5955  0.4646
 6091TIP3    H242469   4.659   0.634   7.501 -0.1265 -0.6280  1.2366
 6092TIP3   OH242470   0.360   1.021   0.906 -0.0084  0.4835  0.0245
 6092TIP3    H142471   0.445   1.044   0.870  0.7138 -0.7762  0.8307
 6092TIP3    H242472   0.320   0.965   0.839  0.5794 -0.3936  0.3785
 6093TIP3   OH242473   2.904   0.526   8.605  0.2812 -0.0228 -0.4213
 6093TIP3    H142474   2.880   0.540   8.514  0.5266  2.4948 -0.1724
 6093TIP3    H242475   2.956   0.445   8.604 -1.5106 -1.2491 -2.1272
 6094TIP3   OH242476   2.658   4.800   6.577 -0.3195  0.4857 -0.4371
 6094TIP3    H142477   2.751   4.795   6.558 -0.4663 -0.0198 -1.0623
 6094TIP3    H242478   2.628   4.878   6.530 -0.7549 -0.9717 -2.7106
 6095TIP3   OH242479   1.534   7.146   2.992  0.0548  0.0404  0.0638
 6095TIP3    H142480   1.441   7.125   2.998  0.1060 -0.1713  0.1530
 6095TIP3    H242481   1.557   7.181   3.078  0.3897 -1.3208  0.5627
 6096TIP3   OH242482   1.002   0.977   2.106 -0.1140  0.1327  0.6520
 6096TIP3    H142483   0.987   0.884   2.122  1.0973  0.2510  2.8688
 6096TIP3    H242484   1.051   0.980   2.024 -0.4339 -1.1550  0.3944
 6097TIP3   OH242485   3.843   6.922   8.730  0.0896 -0.2744 -0.2367
 6097TIP3    H142486   3.823   6.877   8.648 -0.1216 -0.9849  0.1977
 6097TIP3    H242487   3.923   6.881   8.762  0.9442  0.9179 -0.7452
 6098TIP3   OH242488   6.124   6.300   1.425 -0.1983 -0.8041  0.4591
 6098TIP3    H142489   6.131   6.322   1.518  1.0996 -0.2883  0.2644
 6098TIP3    H242490   6.107   6.206   1.424  0.0581 -0.8686  1.2245
 6099TIP3   OH242491   5.234   5.634   0.834 -0.2596 -0.2160  0.0884
 6099TIP3    H142492   5.244   5.668   0.923  0.4371 -0.7103  0.2100
 6099TIP3    H242493   5.188   5.703   0.787  0.9609  0.8389  0.3753
 6100TIP3   OH242494   5.192   5.227   2.341 -0.1245 -0.6883  0.1584
 6100TIP3    H142495   5.206   5.141   2.303 -0.2144 -0.5570 -0.1759
 6100TIP3    H242496   5.203   5.288   2.268 -1.3612 -0.5027  0.1049
 6101TIP3   OH242497   3.027   1.507   0.399  0.1336  0.2121 -0.5443
 6101TIP3    H142498   3.066   1.479   0.316  3.5263 -1.4623  1.3585
 6101TIP3    H242499   3.030   1.428   0.454 -4.1350  0.6393  0.5861
 6102TIP3   OH242500   3.153   3.679   0.943  0.0540 -0.7918 -0.0789
 6102TIP3    H142501   3.122   3.711   1.028  0.2688 -0.7944 -0.0001
 6102TIP3    H242502   3.181   3.589   0.960  0.5677 -0.6264 -0.0437
 6103TIP3   OH242503   4.051   2.684   9.400  0.6241  0.0161 -0.5216
 6103TIP3    H142504   4.092   2.696   9.315 -1.6197 -0.5005 -1.7526
 6103TIP3    H242505   3.967   2.643   9.381  0.0042 -0.0402  1.9448
 6104TIP3   OH242506   0.577   4.091   0.171 -0.0820  0.6318  0.1183
 6104TIP3    H142507   0.645   4.037   0.131  0.3650  1.5090 -0.3438
 6104TIP3    H242508   0.570   4.167   0.113 -1.0021  0.8606  0.5152
 6105TIP3   OH242509   2.281   2.265   1.921 -0.2535 -0.1376 -0.7516
 6105TIP3    H142510   2.356   2.308   1.963 -0.3207  0.4330 -1.1991
 6105TIP3    H242511   2.206   2.322   1.941 -0.0586  0.9247 -2.7864
 6106TIP3   OH242512   4.943   5.491   2.213 -0.2820  0.2667  0.0152
 6106TIP3    H142513   4.958   5.511   2.121 -0.1597 -1.1110 -0.2818
 6106TIP3    H242514   5.025   5.511   2.256 -0.3980  1.0943 -0.1400
 6107TIP3   OH242515   2.165   6.832   6.521 -0.2021 -0.2282  0.2327
 6107TIP3    H142516   2.160   6.897   6.591 -3.3329  0.5049 -0.5316
 6107TIP3    H242517   2.152   6.882   6.441 -0.5369 -1.5408 -0.5570
 6108TIP3   OH242518   2.500   0.913   0.369  0.0597  0.3808 -0.0627
 6108TIP3    H142519   2.508   1.005   0.345 -0.0054  0.9823  2.0212
 6108TIP3    H242520   2.587   0.876   0.353  0.4238  1.1103  0.1786
 6109TIP3   OH242521   4.742   1.548   8.997  0.0419 -0.1884  0.5761
 6109TIP3    H142522   4.788   1.478   8.952  1.8192  0.8373  0.6826
 6109TIP3    H242523   4.740   1.521   9.089 -2.6658 -1.7974  0.1426
 6110TIP3   OH242524   1.801   5.055   0.893  0.7411  0.1473  0.0160
 6110TIP3    H142525   1.744   5.100   0.955  2.0116  1.4035  0.2920
 6110TIP3    H242526   1.741   4.999   0.843 -0.9689  2.3797 -0.5801
 6111TIP3   OH242527   0.787   1.275   9.420  0.2406  0.3724 -0.0947
 6111TIP3    H142528   0.782   1.298   9.327 -0.3837  0.1726 -0.1136
 6111TIP3    H242529   0.881   1.271   9.438  0.3720  1.4859 -0.4418
 6112TIP3   OH242530   4.118   4.350   8.287  0.3898 -0.0770 -0.2664
 6112TIP3    H142531   4.109   4.256   8.307  1.2081 -0.1013  0.0013
 6112TIP3    H242532   4.134   4.391   8.372 -2.1688  0.6296 -0.0141
 6113TIP3   OH242533   0.874   6.097   9.652  0.6914 -0.1457 -0.1130
 6113TIP3    H142534   0.924   6.174   9.680  0.3283  0.7077 -1.6561
 6113TIP3    H242535   0.829   6.067   9.731  0.7839  1.2810  0.5147
 6114TIP3   OH242536   6.443   0.276   7.302  0.7123 -0.3036 -0.6552
 6114TIP3    H142537   6.505   0.208   7.328 -2.2880 -2.1671  2.5661
 6114TIP3    H242538   6.369   0.228   7.266 -0.7421  1.3854 -0.0683
 6115TIP3   OH242539   0.583   7.133   0.844 -0.9407 -0.3230 -0.1513
 6115TIP3    H142540   0.610   7.155   0.755 -2.4949 -1.1854 -0.8725
 6115TIP3    H242541   0.590   7.037   0.848 -0.9344 -0.2963  0.6385
 6116TIP3   OH242542   4.937   5.214   8.047 -0.3575  0.2020  0.0406
 6116TIP3    H142543   4.907   5.198   7.958  0.1966  0.0162 -0.1176
 6116TIP3    H242544   4.993   5.139   8.067 -1.2664 -0.2754  0.9108
 6117TIP3   OH242545   0.776   4.976   9.026 -0.5179  0.2250 -0.5570
 6117TIP3    H142546   0.808   4.960   9.114 -2.7064  0.9962  0.4561
 6117TIP3    H242547   0.735   4.894   8.999  0.1098  0.0043 -0.8753
 6118TIP3   OH242548   3.534   0.174   3.005  0.7475  0.7397 -0.0614
 6118TIP3    H142549   3.450   0.155   3.046  0.4750  0.5766 -0.6772
 6118TIP3    H242550   3.533   0.269   2.992  0.7630  0.7695  0.1488
 6119TIP3   OH242551   4.606   6.068   1.415 -0.4624  0.0692  0.0079
 6119TIP3    H142552   4.585   6.085   1.323 -0.1749  2.0119  0.2435
 6119TIP3    H242553   4.527   6.028   1.450 -1.2210  0.8828 -0.7061
 6120TIP3   OH242554   4.608   0.477   0.658 -0.2532  0.4349 -0.1188
 6120TIP3    H142555   4.591   0.430   0.576 -0.2865  0.2423 -0.0005
 6120TIP3    H242556   4.619   0.569   0.631 -0.0206  0.3351 -0.3702
 6121TIP3   OH242557   0.943   3.732   8.347  0.4314 -0.1990 -0.6830
 6121TIP3    H142558   0.909   3.654   8.305  0.2455 -1.3258  1.4337
 6121TIP3    H242559   0.866   3.785   8.366  0.4092 -0.1954 -0.7819
 6122TIP3   OH242560   3.161   1.327   7.144  0.0986  0.4800  0.0328
 6122TIP3    H142561   3.248   1.362   7.164 -0.7814  1.9305  1.6853
 6122TIP3    H242562   3.132   1.286   7.226 -0.5850 -0.3924 -0.6308
 6123TIP3   OH242563   0.321   7.204   8.904  0.9429 -0.0769 -0.3773
 6123TIP3    H142564   0.286   7.149   8.834 -1.0213  0.6073 -0.0031
 6123TIP3    H242565   0.379   7.266   8.859  1.1828 -0.8263 -1.1265
 6124TIP3   OH242566   2.967   0.056   1.556 -0.1796 -0.0143  0.0056
 6124TIP3    H142567   2.974   0.089   1.466 -0.7957 -0.0875 -0.0769
 6124TIP3    H242568   2.994   0.129   1.611 -1.3503  0.5862 -0.1865
 6125TIP3   OH242569   7.003   7.298   1.476  0.0250  0.0299  0.6859
 6125TIP3    H142570   6.929   7.337   1.524  0.3049  0.0586  1.1019
 6125TIP3    H242571   7.055   7.373   1.447  0.9914 -0.0228  2.1699
 6126TIP3   OH242572   0.214   5.982   2.517  0.0369 -0.7468 -0.1939
 6126TIP3    H142573   0.180   5.902   2.477  0.3399 -0.9914  0.0282
 6126TIP3    H242574   0.258   5.952   2.597 -1.0608 -0.2070  0.6400
 6127TIP3   OH242575   4.318   0.387   9.445  0.3119 -0.9385  0.0968
 6127TIP3    H142576   4.279   0.337   9.516  0.3903 -1.8624 -0.4978
 6127TIP3    H242577   4.345   0.321   9.381 -1.9882 -0.0267 -1.9383
 6128TIP3   OH242578   0.555   2.802   8.275 -0.1426 -0.1491  0.4821
 6128TIP3    H142579   0.650   2.802   8.283 -0.1817  0.0256  0.9481
 6128TIP3    H242580   0.525   2.865   8.340 -0.6002 -0.4931  0.6133
 6129TIP3   OH242581   4.925   6.451   0.573  0.4257  0.0206  0.2149
 6129TIP3    H142582   4.884   6.365   0.573  0.3973 -0.0023 -1.9867
 6129TIP3    H242583   4.981   6.450   0.651 -0.6455 -1.4281  1.0276
 6130TIP3   OH242584   6.090   2.078   1.014 -0.8317 -0.0875  0.2717
 6130TIP3    H142585   6.124   2.003   0.964  1.2668  0.1540  1.2369
 6130TIP3    H242586   6.131   2.154   0.974 -1.0627  0.3177  0.7981
 6131TIP3   OH242587   0.241   5.991   9.850 -0.3713 -0.3305 -0.1806
 6131TIP3    H142588   0.190   6.062   9.888  0.0644 -0.8070  1.3901
 6131TIP3    H242589   0.307   5.971   9.917 -1.3230 -3.0995  0.0671
 6132TIP3   OH242590   1.881   6.236   8.481  0.1616 -0.0607 -0.4162
 6132TIP3    H142591   1.960   6.268   8.437  0.0971  0.0805 -0.4299
 6132TIP3    H242592   1.909   6.218   8.570  0.0768  0.5347 -0.2670
 6133TIP3   OH242593   2.717   5.390   0.335 -0.1882  0.7603 -0.0055
 6133TIP3    H142594   2.796   5.344   0.365 -0.8172 -0.8113 -0.6382
 6133TIP3    H242595   2.723   5.386   0.239 -1.2130  0.2843 -0.0611
 6134TIP3   OH242596   2.436   4.432   6.911  0.2057  0.2770 -0.0276
 6134TIP3    H142597   2.521   4.421   6.868  0.7175  0.8598  0.8095
 6134TIP3    H242598   2.421   4.526   6.911  0.4054  0.3310  1.3840
 6135TIP3   OH242599   0.638   0.936   0.378 -0.2226  0.0757 -0.0432
 6135TIP3    H142600   0.674   0.898   0.458 -1.9581 -0.8462  0.3521
 6135TIP3    H242601   0.629   1.029   0.398  2.5513  0.5026 -0.4382
 6136TIP3   OH242602   0.508   5.798   1.698  0.0795 -0.8140 -0.1364
 6136TIP3    H142603   0.466   5.879   1.727  0.0665 -0.6176 -0.6963
 6136TIP3    H242604   0.445   5.729   1.718  0.3031 -0.7618  0.8328
 6137TIP3   OH242605   3.731   6.387   2.408 -0.3534  0.3178  0.3034
 6137TIP3    H142606   3.804   6.373   2.468  0.6101  0.0746 -0.8728
 6137TIP3    H242607   3.754   6.467   2.361 -1.1731  0.6017  0.3826
 6138TIP3   OH242608   1.644   4.399   1.396 -0.9401 -0.4697  0.1161
 6138TIP3    H142609   1.725   4.353   1.422 -1.0443 -1.5786 -1.4336
 6138TIP3    H242610   1.585   4.386   1.470 -0.1660 -0.8270  0.6888
 6139TIP3   OH242611   7.187   0.347   0.521 -0.2632 -0.3760 -0.4871
 6139TIP3    H142612   7.231   0.409   0.580  1.9830 -1.5194 -0.8193
 6139TIP3    H242613   7.174   0.396   0.440  0.4778  0.0066 -0.3868
 6140TIP3   OH242614   0.556   2.274   1.469  0.1004  0.0259  0.2793
 6140TIP3    H142615   0.582   2.253   1.380 -2.0329 -1.4844 -0.0636
 6140TIP3    H242616   0.571   2.194   1.519 -0.2082  0.3458  0.9065
 6141TIP3   OH242617   1.931   1.956   0.881  0.7345  0.3315  0.2598
 6141TIP3    H142618   1.970   1.928   0.964  0.0996  1.0495  0.8203
 6141TIP3    H242619   1.841   1.926   0.886  0.6198  0.6254 -0.0449
 6142TIP3   OH242620   1.545   2.314   1.049  0.4759 -0.3675 -0.2845
 6142TIP3    H142621   1.609   2.261   1.094  0.7826  0.5044  0.3309
 6142TIP3    H242622   1.504   2.367   1.117 -0.6659 -0.6660 -0.7115
 6143TIP3   OH242623   4.864   0.373   8.990  0.5942 -0.2180  0.4787
 6143TIP3    H142624   4.825   0.455   9.018 -1.4328 -1.1463  0.5394
 6143TIP3    H242625   4.919   0.346   9.063  1.3798  1.1196  0.4033
 6144TIP3   OH242626   0.713   4.503   9.365 -0.0446  0.3657 -0.5353
 6144TIP3    H142627   0.640   4.506   9.428 -0.4196  0.5401 -0.9733
 6144TIP3    H242628   0.670   4.499   9.279  0.4635  0.0040 -0.7789
 6145TIP3   OH242629   5.523   0.131   7.737  0.0923 -0.0877  0.4884
 6145TIP3    H142630   5.587   0.061   7.743  0.5160  0.3482  1.2391
 6145TIP3    H242631   5.479   0.117   7.653 -1.7110 -2.8700  1.7587
 6146TIP3   OH242632   0.316   7.026   7.984 -0.3660 -0.0010 -0.2080
 6146TIP3    H142633   0.259   7.013   7.908  0.4847 -3.3478 -0.4494
 6146TIP3    H242634   0.403   7.037   7.946 -0.4118  2.3392  0.2450
 6147TIP3   OH242635   4.888   3.164   2.409  0.5721  0.1710 -0.3680
 6147TIP3    H142636   4.963   3.124   2.453  0.6305 -0.2413 -0.8364
 6147TIP3    H242637   4.841   3.091   2.371  0.5592  0.5305 -1.0527
 6148TIP3   OH242638   5.169   6.067   1.273  0.0113  0.5369 -0.5274
 6148TIP3    H142639   5.179   5.986   1.323 -2.0118  1.0187  0.7486
 6148TIP3    H242640   5.258   6.090   1.247  1.0468 -0.2914  2.0029
 6149TIP3   OH242641   2.516   2.355   1.061 -0.2090 -0.1661  0.0850
 6149TIP3    H142642   2.544   2.361   0.970 -0.8360  0.7843 -0.0620
 6149TIP3    H242643   2.549   2.270   1.091  2.1309  0.5626 -0.2731
 6150TIP3   OH242644   3.275   4.202   1.106 -0.0176 -0.0703  0.0759
 6150TIP3    H142645   3.202   4.226   1.048 -0.6496  0.6169  1.1167
 6150TIP3    H242646   3.250   4.239   1.191 -0.0806 -2.7558  1.3207
 6151TIP3   OH242647   5.173   4.008   1.296  0.2009 -0.2406 -0.4494
 6151TIP3    H142648   5.109   4.019   1.225  0.6370 -1.0865 -0.9793
 6151TIP3    H242649   5.172   4.093   1.341 -1.7072 -0.4159 -0.0852
 6152TIP3   OH242650   3.693   2.769   7.740 -0.0335 -0.3751 -0.7032
 6152TIP3    H142651   3.625   2.829   7.709  0.1538 -0.1723 -0.7227
 6152TIP3    H242652   3.737   2.817   7.810  1.4573  0.3335 -2.0683
 6153TIP3   OH242653   3.752   5.077   9.979  0.6477  0.1812 -0.4104
 6153TIP3    H142654   3.738   5.168   9.956  0.4693  0.3630  0.3859
 6153TIP3    H242655   3.696   5.063  10.056  1.4190 -0.3218  0.0738
 6154TIP3   OH242656   3.713   7.282   2.334  0.1616 -0.3637  0.4260
 6154TIP3    H142657   3.771   7.358   2.338  0.1619 -0.3426  0.0039
 6154TIP3    H242658   3.638   7.311   2.283 -0.6454 -0.1197  1.6962
 6155TIP3   OH242659   2.914   3.100   6.450  0.4976 -0.0074 -0.1168
 6155TIP3    H142660   3.003   3.099   6.486  0.0626 -0.4447  1.0150
 6155TIP3    H242661   2.858   3.099   6.527 -0.4932 -0.8356 -0.8170
 6156TIP3   OH242662   0.285   3.575   8.681 -0.5860  0.0074  0.6535
 6156TIP3    H142663   0.241   3.491   8.699 -0.9492 -0.2795 -1.3020
 6156TIP3    H242664   0.344   3.555   8.608 -1.3302  1.6322 -0.4386
 6157TIP3   OH242665   1.806   7.360   8.137 -0.3714  0.0800 -0.3641
 6157TIP3    H142666   1.867   7.289   8.155 -0.7669  0.1279  1.3722
 6157TIP3    H242667   1.849   7.413   8.070  2.2471  0.9280  1.8208
 6158TIP3   OH242668   5.253   5.989   8.991  0.2754 -0.5364 -0.0104
 6158TIP3    H142669   5.182   6.049   8.971  0.5260 -0.6794 -1.4430
 6158TIP3    H242670   5.315   6.042   9.041 -0.7232 -0.3579  1.0840
 6159TIP3   OH242671   6.010   1.507   1.827  0.0415 -0.3361 -0.1391
 6159TIP3    H142672   5.932   1.461   1.860 -1.0211  0.1843 -1.7766
 6159TIP3    H242673   6.065   1.518   1.904 -2.2759  0.8191  1.4997
 6160TIP3   OH242674   4.425   7.150   9.449 -0.0065 -0.4136  0.2794
 6160TIP3    H142675   4.352   7.194   9.494 -0.6419 -1.0656 -0.0837
 6160TIP3    H242676   4.493   7.143   9.516  0.2370  1.3888  0.2501
 6161TIP3   OH242677   5.684   2.229   0.276  0.1219  0.0052 -0.1339
 6161TIP3    H142678   5.632   2.302   0.310  0.7191 -0.1128  1.0633
 6161TIP3    H242679   5.774   2.259   0.280  0.2595 -0.2258 -1.1259
 6162TIP3   OH242680   4.249   4.166   9.147  0.0031 -0.5424  0.0557
 6162TIP3    H142681   4.337   4.130   9.140  0.3210  0.0839  0.6810
 6162TIP3    H242682   4.262   4.260   9.161 -0.7967 -0.1605 -1.5158
 6163TIP3   OH242683   1.338   2.586   1.910 -0.2047  0.1128  0.6761
 6163TIP3    H142684   1.401   2.627   1.970 -1.1153 -0.1595  1.8416
 6163TIP3    H242685   1.363   2.619   1.823  2.7462 -1.4698  0.8151
 6164TIP3   OH242686   2.709   3.309   1.109 -0.7047  0.3951  0.5138
 6164TIP3    H142687   2.734   3.401   1.105 -1.7734  0.6606 -1.0021
 6164TIP3    H242688   2.615   3.310   1.126 -0.9753 -0.3491 -0.7557
 6165TIP3   OH242689   1.633   2.457   0.825 -0.4334  0.6093  0.0473
 6165TIP3    H142690   1.593   2.426   0.907 -1.9661 -0.4548 -1.0388
 6165TIP3    H242691   1.726   2.439   0.835 -0.3994  1.5257  1.9720
 6166TIP3   OH242692   0.752   6.671   9.000  0.6690  0.0658  0.2999
 6166TIP3    H142693   0.740   6.593   9.055  0.6495 -0.1193  0.0334
 6166TIP3    H242694   0.847   6.677   8.989  0.5978 -1.0744 -1.3166
 6167TIP3   OH242695   3.974   1.960   2.117  0.5959 -0.1946 -0.2542
 6167TIP3    H142696   3.922   2.000   2.188  0.2638  0.5512 -0.9075
 6167TIP3    H242697   4.011   2.034   2.069 -0.1673 -0.6580 -1.6005
 6168TIP3   OH242698   1.990   2.198   9.047 -0.1116  0.8805  0.0714
 6168TIP3    H142699   2.032   2.115   9.070  1.3550  1.7973  0.8868
 6168TIP3    H242700   2.055   2.243   8.993 -0.9361  1.4703 -0.4553
 6169TIP3   OH242701   6.593   7.444   1.218 -0.6044  0.1179 -0.2690
 6169TIP3    H142702   6.683   7.436   1.249 -1.3680 -0.4344  1.9346
 6169TIP3    H242703   6.586   7.378   1.149  0.8620  0.6828 -0.9972
 6170TIP3   OH242704   7.098   6.828   7.258 -0.3783  0.5508  0.3045
 6170TIP3    H142705   7.096   6.757   7.322 -1.0050 -0.1846 -0.5011
 6170TIP3    H242706   7.181   6.873   7.274  0.1046 -0.4600  0.7202
 6171TIP3   OH242707   0.782   2.723   0.251 -0.4540 -0.0001 -0.5879
 6171TIP3    H142708   0.781   2.818   0.262  1.2512 -0.0358  0.1291
 6171TIP3    H242709   0.867   2.704   0.211  0.1837 -1.3848  1.2734
 6172TIP3   OH242710   2.578   2.009   2.177  0.2231 -0.7706 -0.1335
 6172TIP3    H142711   2.585   2.026   2.084 -1.9192  1.2544 -0.0197
 6172TIP3    H242712   2.512   1.939   2.184  0.2917 -0.8346 -0.1196
 6173TIP3   OH242713   6.935   1.180   9.898  0.4988 -0.0545 -0.2214
 6173TIP3    H142714   6.858   1.170   9.954  0.3097 -1.9650 -0.7218
 6173TIP3    H242715   6.899   1.210   9.814  0.6411  1.6400  0.3010
 6174TIP3   OH242716   3.041   3.298   2.062  0.5592 -0.0595 -0.0985
 6174TIP3    H142717   3.102   3.356   2.108  0.9352  0.4528 -1.2010
 6174TIP3    H242718   2.967   3.290   2.122  1.5114 -0.3536  1.0907
 6175TIP3   OH242719   1.986   5.551   8.847 -0.1941  0.1591  0.4216
 6175TIP3    H142720   1.898   5.516   8.830 -0.0287 -0.6540  1.1735
 6175TIP3    H242721   1.974   5.615   8.917 -0.0614 -0.6239  1.1679
 6176TIP3   OH242722   3.934   5.577   0.077 -0.0303  0.0964 -0.5980
 6176TIP3    H142723   3.991   5.500   0.087 -0.5769 -0.1755  0.5392
 6176TIP3    H242724   3.878   5.576   0.154 -1.1138  0.7645 -1.3490
 6177TIP3   OH242725   1.323   4.455   7.873  0.3479 -0.3090 -0.2745
 6177TIP3    H142726   1.328   4.426   7.782 -0.2045  0.1462 -0.4531
 6177TIP3    H242727   1.249   4.516   7.875  0.1337 -0.5899  0.5553
 6178TIP3   OH242728   7.207   6.165   0.069  0.1751 -0.6438 -0.3618
 6178TIP3    H142729   7.148   6.114   0.126  1.3304  0.0616  1.5724
 6178TIP3    H242730   7.277   6.103   0.047  0.5980 -0.4492  0.4108
 6179TIP3   OH242731   0.028   6.280   9.800  0.5984  0.7084  0.4643
 6179TIP3    H142732   0.082   6.275   9.878 -1.7871 -1.9058  2.1179
 6179TIP3    H242733   0.091   6.288   9.728  2.8962  2.5358  2.4947
 6180TIP3   OH242734   3.464   2.351   9.191 -0.4483 -0.6645 -0.0507
 6180TIP3    H142735   3.429   2.430   9.151  1.4692 -0.6961 -1.9951
 6180TIP3    H242736   3.487   2.377   9.280  0.0652  0.9666 -0.6238
 6181TIP3   OH242737   4.106   4.377   8.902 -0.2598 -0.3189 -0.0764
 6181TIP3    H142738   4.112   4.472   8.894 -1.5955 -0.1506  0.6308
 6181TIP3    H242739   4.175   4.344   8.844 -0.2800  1.0564 -0.9435
 6182TIP3   OH242740   3.716   1.470   7.823  0.1143  0.2969  0.1175
 6182TIP3    H142741   3.722   1.422   7.740  0.9979  0.9256 -0.1885
 6182TIP3    H242742   3.806   1.495   7.843 -0.2113  0.9366  0.8123
 6183TIP3   OH242743   6.413   7.169   7.798  0.1704  0.2654  0.3755
 6183TIP3    H142744   6.424   7.173   7.893  1.0108  1.2027  0.2623
 6183TIP3    H242745   6.502   7.179   7.764  0.2039 -2.3867 -0.4946
 6184TIP3   OH242746   7.405   1.477   9.140 -0.2932 -0.2218 -0.1069
 6184TIP3    H142747   7.348   1.456   9.067 -0.1772 -0.9747  0.0108
 6184TIP3    H242748   7.466   1.403   9.146 -0.7129 -0.4956  1.1504
 6185TIP3   OH242749   2.330   2.026   1.068  0.1773 -0.3714 -0.3951
 6185TIP3    H142750   2.423   2.048   1.077 -0.0010  0.8365 -1.3310
 6185TIP3    H242751   2.329   1.930   1.068  1.3290 -0.4107  0.4846
 6186TIP3   OH242752   4.641   6.070   0.188  0.6529 -0.0450  0.4899
 6186TIP3    H142753   4.603   6.021   0.261 -0.7130 -1.5781 -1.1695
 6186TIP3    H242754   4.683   6.146   0.229  0.1863 -0.9978  2.8677
 6187TIP3   OH242755   3.693   0.633   1.705  0.2817 -0.1374 -0.6304
 6187TIP3    H142756   3.762   0.699   1.706  0.5454 -0.4120 -0.3879
 6187TIP3    H242757   3.619   0.674   1.751  0.2296  0.2065 -1.0099
 6188TIP3   OH242758   5.275   0.294   8.004 -0.0935  0.1804 -0.3329
 6188TIP3    H142759   5.349   0.327   8.055 -1.1507  1.5446  0.4088
 6188TIP3    H242760   5.297   0.203   7.984  1.8936  0.6455 -0.3940
 6189TIP3   OH242761   0.460   3.710   0.279  0.3166 -0.4916  0.4571
 6189TIP3    H142762   0.488   3.731   0.190 -0.8891 -0.3303  0.1069
 6189TIP3    H242763   0.382   3.763   0.294 -0.9248 -2.2841  0.7129
 6190TIP3   OH242764   6.604   4.394   8.420  0.0592 -0.3796 -0.5708
 6190TIP3    H142765   6.580   4.407   8.329  0.7446 -0.5396 -0.7799
 6190TIP3    H242766   6.678   4.454   8.435 -0.1892 -0.1924 -0.0635
 6191TIP3   OH242767   2.881   6.774   0.272  0.3597  0.1276  0.1863
 6191TIP3    H142768   2.930   6.778   0.190  0.6868  2.7521  0.4415
 6191TIP3    H242769   2.790   6.788   0.245  0.0458 -1.9832  0.0090
 6192TIP3   OH242770   6.609   6.937   7.468 -0.1478 -0.1607  0.5192
 6192TIP3    H142771   6.552   6.872   7.426  0.0400  0.0830 -0.1322
 6192TIP3    H242772   6.649   6.984   7.395  0.1475  0.3163  0.9812
 6193TIP3   OH242773   3.267   4.958   8.936 -0.4584  0.4173  0.1532
 6193TIP3    H142774   3.261   4.894   8.865  0.0416  1.2089 -0.6252
 6193TIP3    H242775   3.182   4.955   8.980  0.0244 -1.8031  1.0501
 6194TIP3   OH242776   6.853   3.653   2.493  0.2893 -0.5938 -0.0118
 6194TIP3    H142777   6.781   3.604   2.453  0.5358  0.9045 -2.5523
 6194TIP3    H242778   6.834   3.744   2.472  2.8763 -0.1408 -0.7932
 6195TIP3   OH242779   5.114   4.754   0.836  0.1512  0.1817  0.5991
 6195TIP3    H142780   5.115   4.692   0.763  1.5760 -0.2677  0.9558
 6195TIP3    H242781   5.081   4.835   0.797 -1.7001 -0.7559  0.1172
 6196TIP3   OH242782   6.537   6.829   8.862  0.1335 -0.0255 -0.1723
 6196TIP3    H142783   6.622   6.785   8.858  0.3180  0.2512  0.5320
 6196TIP3    H242784   6.507   6.832   8.772  0.8281 -0.2091 -0.4154
 6197TIP3   OH242785   1.968   1.660   1.411  0.2831  0.1302 -0.2043
 6197TIP3    H142786   1.901   1.662   1.344  1.5675 -0.2859 -1.5543
 6197TIP3    H242787   1.982   1.752   1.434 -0.4448  0.2414 -0.1951
 6198TIP3   OH242788   3.749   7.487   0.089  0.3602  0.0281  0.1168
 6198TIP3    H142789   3.732   7.393   0.084  0.8352 -0.1333  1.1126
 6198TIP3    H242790   3.719   7.522   0.006  1.2537 -1.1734 -0.7421
 6199TIP3   OH242791   4.359   0.945   8.519 -0.2102 -0.2578  0.3137
 6199TIP3    H142792   4.290   0.899   8.566 -0.7541  1.1516  0.9485
 6199TIP3    H242793   4.318   0.976   8.439  0.2014 -0.9898 -0.1958
 6200TIP3   OH242794   4.058   7.066   0.785  0.4012  0.2520 -0.2108
 6200TIP3    H142795   4.026   7.094   0.699 -0.8240  1.1224  0.5098
 6200TIP3    H242796   3.982   7.026   0.827  0.0764  2.6724  1.6736
 6201TIP3   OH242797   1.044   4.923   9.544 -0.5909 -0.3672 -0.2528
 6201TIP3    H142798   1.048   4.831   9.520  1.3290 -0.3625 -0.0521
 6201TIP3    H242799   1.007   4.924   9.632  3.0267 -1.3437  1.4356
 6202TIP3   OH242800   6.199   3.467   9.025 -0.2557 -0.0221  0.5237
 6202TIP3    H142801   6.276   3.501   9.070 -0.8171  1.0100  0.7174
 6202TIP3    H242802   6.177   3.534   8.961 -1.2252 -0.1273  0.7403
 6203TIP3   OH242803   4.318   2.388   9.501 -0.2330 -0.0286 -0.1573
 6203TIP3    H142804   4.407   2.376   9.534 -0.4967 -0.1664  0.5388
 6203TIP3    H242805   4.284   2.300   9.490 -0.4795  0.0214  0.1604
 6204TIP3   OH242806   3.300   6.990   8.807 -0.4259 -0.1529 -0.5755
 6204TIP3    H142807   3.314   6.934   8.730 -0.0929 -0.9969  0.0758
 6204TIP3    H242808   3.388   7.004   8.843 -0.4100  1.5149 -1.1996
 6205TIP3   OH242809   6.600   6.604   8.444  0.6066 -0.2810  0.2531
 6205TIP3    H142810   6.614   6.643   8.358  0.2247  0.0051  0.3215
 6205TIP3    H242811   6.599   6.678   8.505 -0.2783 -0.3831  0.3649
 6206TIP3   OH242812   5.263   1.520   1.371 -0.3102  0.7003  0.4427
 6206TIP3    H142813   5.181   1.559   1.403 -1.1966 -2.1915  2.0448
 6206TIP3    H242814   5.329   1.549   1.434 -0.5001  1.3690  0.3421
 6207TIP3   OH242815   4.423   6.591   8.589 -0.5170 -0.4744 -0.4318
 6207TIP3    H142816   4.403   6.512   8.538  0.1334 -0.2529 -1.0356
 6207TIP3    H242817   4.492   6.564   8.649 -0.0475 -0.2806 -0.8783
 6208TIP3   OH242818   2.028   5.984   7.795 -0.3001 -0.1725  0.2122
 6208TIP3    H142819   1.998   6.062   7.749 -2.7304 -0.5723  0.9856
 6208TIP3    H242820   2.106   6.012   7.843  0.2751  1.1125 -1.3872
 6209TIP3   OH242821   1.694   7.123   7.847 -0.0909  0.1566  0.0780
 6209TIP3    H142822   1.691   7.158   7.758 -0.2984  2.3715  0.8837
 6209TIP3    H242823   1.602   7.107   7.869 -0.0187 -0.6748 -0.1772
 6210TIP3   OH242824   2.102   4.474   8.648 -0.4473  0.1376  0.2692
 6210TIP3    H142825   2.041   4.408   8.681  0.6581 -0.7556  0.6120
 6210TIP3    H242826   2.109   4.539   8.718 -1.7541  0.7825 -0.1807
 6211TIP3   OH242827   6.437   7.062   8.060  0.1166  0.2525  0.0642
 6211TIP3    H142828   6.357   7.059   8.113 -1.9173 -2.4457 -2.8296
 6211TIP3    H242829   6.492   6.993   8.095 -0.3972 -0.2650 -0.1346
 6212TIP3   OH242830   2.150   1.195   9.913 -0.3051 -0.3073 -0.2208
 6212TIP3    H142831   2.121   1.282   9.886 -1.2653 -1.1794 -2.2036
 6212TIP3    H242832   2.128   1.189  10.006  0.2740  1.7224  0.0871
 6213TIP3   OH242833   1.484   1.037   9.759 -0.6111  0.1648 -0.0445
 6213TIP3    H142834   1.578   1.027   9.751 -0.4674  0.4529  1.1309
 6213TIP3    H242835   1.449   0.948   9.754 -0.2683  0.0456 -0.3233
 6214TIP3   OH242836   6.364   2.828   8.829 -0.2249 -0.0765 -0.4464
 6214TIP3    H142837   6.277   2.803   8.798 -1.4753  0.8633  2.0062
 6214TIP3    H242838   6.378   2.774   8.907  0.0579  1.7765  0.8640
 6215TIP3   OH242839   5.675   5.648   8.190  0.4116  0.1395  0.1784
 6215TIP3    H142840   5.671   5.576   8.253 -1.0763 -1.7688 -1.9514
 6215TIP3    H242841   5.591   5.694   8.201  0.5303  0.3566  0.1849
 6216TIP3   OH242842   5.670   4.928   8.611 -0.1610 -0.2985 -0.3142
 6216TIP3    H142843   5.581   4.907   8.637 -0.2597  2.9369  2.8076
 6216TIP3    H242844   5.725   4.872   8.667 -0.2209 -0.8630 -0.8088
 6217TIP3   OH242845   2.561   3.082   1.316  0.3667  0.1532 -0.0270
 6217TIP3    H142846   2.646   3.070   1.358 -0.6942  1.5914  2.7922
 6217TIP3    H242847   2.505   3.014   1.354 -0.2539  0.4912 -0.3219
 6218TIP3   OH242848   0.750   4.795   0.745  0.1836 -0.4191  0.0277
 6218TIP3    H142849   0.696   4.873   0.733  0.8454  0.1695  0.8186
 6218TIP3    H242850   0.725   4.738   0.672 -1.2801 -0.0416  0.2050
 6219TIP3   OH242851   0.169   6.026   1.608  0.4808 -0.5831  0.0258
 6219TIP3    H142852   0.123   6.110   1.614 -0.1719 -0.6980 -2.1749
 6219TIP3    H242853   0.258   6.045   1.635 -0.1590  0.3163  1.6059
 6220TIP3   OH242854   2.409   7.307   2.987  0.0879 -0.2726 -0.0222
 6220TIP3    H142855   2.478   7.295   3.053 -0.9555 -0.1844  1.1314
 6220TIP3    H242856   2.348   7.235   3.003 -0.8316  0.4882 -0.0427
 6221TIP3   OH242857   2.763   6.930   0.604 -0.0777 -0.0375 -0.1926
 6221TIP3    H142858   2.717   6.853   0.572  0.6732 -0.2973 -0.6823
 6221TIP3    H242859   2.855   6.903   0.610  0.0600  0.5496  0.4795
 6222TIP3   OH242860   2.108   0.083   9.101 -0.3923 -0.3421  0.1463
 6222TIP3    H142861   2.155   0.029   9.038  2.0799 -0.5888  2.0355
 6222TIP3    H242862   2.074   0.157   9.049  0.2121 -1.2889 -1.6751
 6223TIP3   OH242863   7.343   0.272   0.228 -0.2388 -0.4701 -0.4413
 6223TIP3    H142864   7.386   0.236   0.150 -1.1484 -0.6114 -0.8882
 6223TIP3    H242865   7.313   0.194   0.276  0.1189 -0.3762 -0.0579
 6224TIP3   OH242866   0.637   5.788   7.448 -0.5405 -0.0464 -0.1131
 6224TIP3    H142867   0.635   5.728   7.374 -0.1823 -0.5139  0.2469
 6224TIP3    H242868   0.670   5.871   7.413  0.5532 -0.5423 -0.2852
 6225TIP3   OH242869   4.954   2.212   9.969 -0.5612 -0.5493  0.0860
 6225TIP3    H142870   5.050   2.206   9.963 -0.3996  1.2035  0.5327
 6225TIP3    H242871   4.934   2.183  10.058 -0.4711 -0.9858 -0.0303
 6226TIP3   OH242872   1.083   3.916   0.393 -0.5469  0.3043  0.1684
 6226TIP3    H142873   1.125   3.855   0.454 -3.1299 -1.1332  0.6248
 6226TIP3    H242874   1.120   3.894   0.308 -1.0064 -1.5900  0.4102
 6227TIP3   OH242875   3.440   4.923   0.481 -0.4831 -0.3482 -0.0742
 6227TIP3    H142876   3.504   4.973   0.532  1.3305 -1.7643 -0.8125
 6227TIP3    H242877   3.390   4.990   0.434  0.1538  0.8485  0.8814
 6228TIP3   OH242878   6.601   7.082   8.973 -0.1881  0.6909 -0.3807
 6228TIP3    H142879   6.589   6.997   8.933  0.5932  1.0297 -1.3931
 6228TIP3    H242880   6.666   7.126   8.918  0.5986  1.3543  1.0024
 6229TIP3   OH242881   2.219   5.407   8.892 -0.1559 -0.1287 -0.2818
 6229TIP3    H142882   2.267   5.489   8.898 -0.2519 -0.0074 -1.1370
 6229TIP3    H242883   2.130   5.433   8.866  0.3226 -0.6244 -2.6283
 6230TIP3   OH242884   2.193   7.317   0.326  0.0987  0.0275  0.3773
 6230TIP3    H142885   2.194   7.242   0.385  1.1432 -0.7118 -0.5509
 6230TIP3    H242886   2.276   7.312   0.279 -0.9470  0.2403 -1.6123
 6231TIP3   OH242887   6.296   3.685   1.007 -0.3007  0.8922 -0.2948
 6231TIP3    H142888   6.322   3.751   1.072 -0.9312  1.4531 -0.6052
 6231TIP3    H242889   6.279   3.735   0.928  2.1064  0.0538 -1.4390
 6232TIP3   OH242890   2.366   3.417   7.147  0.2691 -0.0161 -0.0427
 6232TIP3    H142891   2.278   3.429   7.183  0.2303 -1.4373  0.4115
 6232TIP3    H242892   2.363   3.332   7.103  1.4984 -0.2576  0.2909
 6233TIP3   OH242893   5.339   5.277   1.258  0.1278  0.0926 -0.1845
 6233TIP3    H142894   5.337   5.191   1.216  1.0007 -0.5462  1.0314
 6233TIP3    H242895   5.401   5.328   1.205  1.4871 -0.8128  0.4942
 6234TIP3   OH242896   4.505   3.919   0.351 -0.6766 -0.0774 -0.2605
 6234TIP3    H142897   4.544   3.925   0.438 -2.8423  2.2381  0.6707
 6234TIP3    H242898   4.473   3.829   0.346 -0.7727 -0.1743  1.4711
 6235TIP3   OH242899   1.870   1.241   7.881 -0.1017 -0.2247  0.6878
 6235TIP3    H142900   1.801   1.270   7.941  0.8173  1.4547  0.9954
 6235TIP3    H242901   1.945   1.223   7.938 -0.1664 -1.7564  0.3319
 6236TIP3   OH242902   4.032   0.466   1.601 -0.0096  0.0902 -0.3532
 6236TIP3    H142903   4.039   0.442   1.694  2.8403 -0.5066 -0.6463
 6236TIP3    H242904   3.948   0.429   1.573 -0.5703 -0.3898  1.7834
 6237TIP3   OH242905   0.425   3.056   0.414 -0.5804 -0.0761 -0.0060
 6237TIP3    H142906   0.365   3.010   0.356 -2.1084  2.4081 -0.5325
 6237TIP3    H242907   0.441   3.140   0.371 -0.0156  0.9916  2.1324
 6238TIP3   OH242908   2.321   7.337   2.141 -0.0921 -0.2834  0.2472
 6238TIP3    H142909   2.369   7.309   2.063 -0.6503  0.1357 -0.2592
 6238TIP3    H242910   2.301   7.256   2.187  0.1124 -0.5485 -0.1215
 6239TIP3   OH242911   5.021   2.564   1.045 -0.5217  0.9356 -0.5613
 6239TIP3    H142912   4.994   2.652   1.020 -1.3510  0.4191 -1.5646
 6239TIP3    H242913   5.019   2.564   1.141 -1.5730  1.6805 -0.5675
 6240TIP3   OH242914   2.617   2.393   7.492  0.3407 -0.1929  0.1060
 6240TIP3    H142915   2.685   2.365   7.552  1.6318  0.7383 -0.8613
 6240TIP3    H242916   2.614   2.325   7.425 -1.3768 -1.4393  1.3349
 6241TIP3   OH242917   0.946   3.286   1.516  0.2258 -0.0551 -0.0888
 6241TIP3    H142918   1.020   3.283   1.576 -0.6571 -0.7208  1.0031
 6241TIP3    H242919   0.977   3.338   1.441  2.7191 -2.5420 -0.9446
 6242TIP3   OH242920   2.179   5.731   8.739  0.3437 -0.1408 -0.1469
 6242TIP3    H142921   2.115   5.664   8.763  0.1345  0.2819  0.5084
 6242TIP3    H242922   2.260   5.702   8.780  0.3039 -0.0970 -0.0385
 6243TIP3   OH242923   3.943   0.979   7.205  0.0465  0.4268  0.0819
 6243TIP3    H142924   3.877   1.003   7.270  0.3655  2.0806 -0.1712
 6243TIP3    H242925   4.015   0.943   7.256 -0.0676  0.8697  0.5647
 6244TIP3   OH242926   3.572   4.902   9.865  0.1135 -0.4473 -0.5352
 6244TIP3    H142927   3.575   4.988   9.823  0.1418  0.0200  0.3805
 6244TIP3    H242928   3.638   4.907   9.934 -0.2318 -1.0245 -0.1530
 6245TIP3   OH242929   2.245   3.822   2.019  0.2841 -0.2138  0.4107
 6245TIP3    H142930   2.315   3.793   1.961 -0.8572  0.1586 -1.2199
 6245TIP3    H242931   2.177   3.755   2.010  0.0769 -0.1344  1.3168
 6246TIP3   OH242932   5.077   7.282   0.438  0.3240  0.1034  0.0766
 6246TIP3    H142933   5.157   7.232   0.455  0.8793  0.9290 -0.0283
 6246TIP3    H242934   5.107   7.359   0.389 -0.3507  1.0611  1.1132
 6247TIP3   OH242935   3.703   5.379   9.245 -0.2395 -0.0172 -0.3534
 6247TIP3    H142936   3.659   5.303   9.283  0.0879 -0.8765 -1.6256
 6247TIP3    H242937   3.785   5.345   9.210 -0.3232  0.8071 -1.4225
 6248TIP3   OH242938   2.731   4.236   7.678  0.2215 -1.0295 -0.4176
 6248TIP3    H142939   2.760   4.144   7.683 -1.1527 -1.4688  3.5919
 6248TIP3    H242940   2.784   4.281   7.743  0.9736  1.1557 -2.4323
 6249TIP3   OH242941   1.867   2.377   2.018 -0.3567  0.3168 -0.5045
 6249TIP3    H142942   1.886   2.330   2.099  0.8973  1.7441  0.0869
 6249TIP3    H242943   1.786   2.424   2.036 -0.6024 -0.1292 -0.4337
 6250TIP3   OH242944   2.479   3.394   6.785 -0.1012 -0.0562  0.1188
 6250TIP3    H142945   2.558   3.408   6.733  0.0448  1.1478  0.6336
 6250TIP3    H242946   2.499   3.317   6.839  0.7410  0.2543  0.2661
 6251TIP3   OH242947   2.936   2.569   0.079 -0.4401 -0.4267 -0.1144
 6251TIP3    H142948   2.953   2.596  -0.011 -0.6928 -0.1714 -0.0904
 6251TIP3    H242949   3.007   2.609   0.130 -0.8194  0.2280 -0.0770
 6252TIP3   OH242950   3.005   4.579   8.615 -0.5605  0.5057 -0.0189
 6252TIP3    H142951   2.910   4.587   8.608 -0.5248 -0.5030 -3.1708
 6252TIP3    H242952   3.039   4.620   8.536  1.3912 -1.7335 -0.4588
 6253TIP3   OH242953   1.485   5.677   1.841 -0.3970  0.1015  0.2290
 6253TIP3    H142954   1.405   5.712   1.801  0.0082  1.8068  0.8437
 6253TIP3    H242955   1.504   5.598   1.790 -1.5052  0.6171 -1.0487
 6254TIP3   OH242956   0.500   5.333   1.318  0.3169 -0.1707 -0.4381
 6254TIP3    H142957   0.578   5.344   1.264  0.5824  0.3663  0.0372
 6254TIP3    H242958   0.484   5.239   1.318  0.9803 -0.2935 -0.5212
 6255TIP3   OH242959   5.038   3.425   9.760 -0.0935  0.0042  0.1201
 6255TIP3    H142960   4.988   3.478   9.822 -0.3086  0.5059 -0.4740
 6255TIP3    H242961   5.074   3.488   9.698  1.8907 -0.2550  0.9359
 6256TIP3   OH242962   7.048   5.221   8.311  0.2763  0.1301 -0.0978
 6256TIP3    H142963   7.117   5.166   8.349 -0.0859  0.1874  0.6598
 6256TIP3    H242964   7.066   5.221   8.217  1.1885 -0.0240  0.0691
 6257TIP3   OH242965   4.914   6.185   2.609  0.0582  0.4521  0.2419
 6257TIP3    H142966   4.954   6.266   2.641  0.6549  0.7391 -1.1349
 6257TIP3    H242967   4.825   6.187   2.644 -0.4032  2.4252 -0.8442
 6258TIP3   OH242968   3.078   2.670   0.335 -0.0928  0.4128 -0.2351
 6258TIP3    H142969   2.997   2.718   0.352  0.6851  0.8565  2.8549
 6258TIP3    H242970   3.138   2.737   0.301 -0.2396  0.7161  0.0864
 6259TIP3   OH242971   1.458   5.351   9.776  0.1682 -0.1658  0.5731
 6259TIP3    H142972   1.517   5.348   9.701  0.4176 -0.3864  0.7769
 6259TIP3    H242973   1.474   5.269   9.823 -1.5508 -1.0531 -0.3078
 6260TIP3   OH242974   2.093   7.315   3.311 -0.6275  0.6166  0.3969
 6260TIP3    H142975   2.115   7.227   3.343 -1.7202  1.2846  3.3214
 6260TIP3    H242976   2.177   7.354   3.288  0.2154 -0.2145  1.9063
 6261TIP3   OH242977   5.162   3.367   0.329  0.0845  0.0842  0.5360
 6261TIP3    H142978   5.129   3.446   0.371  0.0724  0.4883 -0.2051
 6261TIP3    H242979   5.083   3.318   0.304  0.0544  0.4018 -0.0277
 6262TIP3   OH242980   3.069   1.112   1.625  0.1144  0.3790 -0.0919
 6262TIP3    H142981   3.045   1.141   1.713  2.9358 -0.1429  0.9405
 6262TIP3    H242982   3.139   1.172   1.598 -0.3480  0.2104 -1.7892
 6263TIP3   OH242983   1.702   6.165   1.372  0.3176 -0.0546  0.2515
 6263TIP3    H142984   1.656   6.249   1.379 -0.9246 -0.5204 -1.5212
 6263TIP3    H242985   1.696   6.127   1.459 -1.3053  0.6327  0.4810
 6264TIP3   OH242986   3.248   6.215   9.455 -0.0082  0.3594 -0.0223
 6264TIP3    H142987   3.298   6.296   9.450 -1.2428  1.1092 -0.4017
 6264TIP3    H242988   3.314   6.146   9.440  1.1540  1.2307  0.8984
 6265TIP3   OH242989   1.850   3.003   6.748 -0.2392 -0.4323 -0.4598
 6265TIP3    H142990   1.917   2.965   6.805 -2.4533 -1.3809  1.7181
 6265TIP3    H242991   1.822   2.930   6.692  0.6833  0.0257 -1.5376
 6266TIP3   OH242992   5.448   0.288   1.648 -0.5288 -0.5407 -0.7385
 6266TIP3    H142993   5.418   0.219   1.708 -0.0066 -2.4481 -2.5256
 6266TIP3    H242994   5.518   0.333   1.696 -0.7278 -1.4085  0.4189
 6267TIP3   OH242995   2.865   3.637   1.501  0.2826  0.6137 -0.2866
 6267TIP3    H142996   2.957   3.637   1.530  0.3014 -0.3437 -0.3405
 6267TIP3    H242997   2.859   3.714   1.444  1.2237  0.3240 -0.8075
 6268TIP3   OH242998   5.363   3.359   7.600 -0.2038  0.1140 -0.3985
 6268TIP3    H142999   5.331   3.269   7.591 -0.6283  0.3707 -1.6424
 6268TIP3    H243000   5.284   3.410   7.618 -0.2294  0.4640 -1.4226
 6269TIP3   OH243001   4.033   0.354   9.307  0.2433  0.0596  0.2198
 6269TIP3    H143002   4.110   0.408   9.289  0.4920 -0.9304 -2.0175
 6269TIP3    H243003   3.992   0.342   9.222 -2.3168  0.3830  1.3189
 6270TIP3   OH243004   1.316   5.169   0.826 -0.2236  0.7824  0.0675
 6270TIP3    H143005   1.342   5.255   0.794 -1.0746  0.6404 -1.0757
 6270TIP3    H243006   1.230   5.183   0.866  0.4459  0.7879  1.5791
 6271TIP3   OH243007   3.769   1.050   9.107 -0.2031 -0.1480 -0.3085
 6271TIP3    H143008   3.718   1.130   9.122  0.5943  0.2626  0.2620
 6271TIP3    H243009   3.704   0.986   9.079 -1.3668 -0.1276  2.0772
 6272TIP3   OH243010   5.416   6.515   9.353 -0.1451  0.4086  0.4362
 6272TIP3    H143011   5.322   6.501   9.363 -0.2025  0.2389 -0.3080
 6272TIP3    H243012   5.443   6.553   9.436 -0.3796 -2.1133  1.7898
 6273TIP3   OH243013   7.446   4.787   8.846 -0.4852 -0.5496  0.0913
 6273TIP3    H143014   7.537   4.762   8.828 -0.5459 -1.2315  0.6701
 6273TIP3    H243015   7.438   4.876   8.812  0.3581 -0.5366 -0.0924
 6274TIP3   OH243016   5.116   1.123   7.681 -0.2975  0.0910 -0.0795
 6274TIP3    H143017   5.148   1.113   7.591 -0.4257  0.3060 -0.1495
 6274TIP3    H243018   5.086   1.214   7.685 -2.0095 -0.4176 -0.3674
 6275TIP3   OH243019   0.778   3.470   1.627  0.6714  0.4299 -0.0246
 6275TIP3    H143020   0.803   3.384   1.592  0.5098  1.1060 -1.9237
 6275TIP3    H243021   0.836   3.483   1.701  0.9797 -1.1457  0.0610
 6276TIP3   OH243022   2.232   6.675   1.333 -0.6201  0.3576  0.3265
 6276TIP3    H143023   2.205   6.592   1.293  1.3827 -0.1155 -0.1932
 6276TIP3    H243024   2.210   6.741   1.268 -0.1619 -0.0530 -0.2586
 6277TIP3   OH243025   3.187   4.311   9.872  0.1630 -0.3577  0.2229
 6277TIP3    H143026   3.113   4.315   9.811  0.0190 -1.5553  0.2923
 6277TIP3    H243027   3.243   4.242   9.837  0.7536 -0.1505  0.7289
 6278TIP3   OH243028   2.482   2.030   9.655  0.3096  0.5072  0.5363
 6278TIP3    H143029   2.576   2.034   9.670  0.4613  0.6488 -0.3599
 6278TIP3    H243030   2.447   1.984   9.731  1.3108 -1.0681  0.0899
 6279TIP3   OH243031   4.145   3.278   9.653  0.0500 -0.1959  0.2418
 6279TIP3    H143032   4.116   3.358   9.698 -0.4161 -0.8411  1.1209
 6279TIP3    H243033   4.093   3.276   9.573 -0.0220  0.3284  0.2713
 6280TIP3   OH243034   4.447   0.710   8.033  0.4414 -0.2557 -0.6108
 6280TIP3    H143035   4.403   0.752   8.106  1.8035 -2.1535  1.4163
 6280TIP3    H243036   4.518   0.770   8.009 -1.0803  1.2107 -1.6521
 6281TIP3   OH243037   6.978   6.265   9.450  0.2491 -0.0375 -0.1025
 6281TIP3    H143038   7.036   6.210   9.503  0.7968  0.1384 -0.5135
 6281TIP3    H243039   7.033   6.296   9.379 -0.1787  0.6728 -0.1328
 6282TIP3   OH243040   3.273   3.647   9.234  0.0468 -0.6535  0.3722
 6282TIP3    H143041   3.292   3.741   9.238  0.7565 -0.8345  1.7694
 6282TIP3    H243042   3.189   3.642   9.190  1.0102  0.4899 -1.7528
 6283TIP3   OH243043   2.540   0.797   0.796  0.0539 -0.1193  0.6120
 6283TIP3    H143044   2.577   0.876   0.756 -2.2606  0.9893  0.4985
 6283TIP3    H243045   2.457   0.784   0.751 -1.6481 -0.0759  3.4973
 6284TIP3   OH243046   2.732   5.029   0.662  0.0076 -0.1843  0.6686
 6284TIP3    H143047   2.825   5.053   0.662  0.4751 -1.6623 -1.9785
 6284TIP3    H243048   2.728   4.951   0.718  0.9026 -1.6860 -1.2664
 6285TIP3   OH243049   6.204   4.872   7.643 -0.1320 -0.5160 -0.2427
 6285TIP3    H143050   6.130   4.900   7.590 -0.1733  0.3071  0.2201
 6285TIP3    H243051   6.230   4.951   7.692  1.7301 -0.4849 -1.1814
 6286TIP3   OH243052   5.466   5.639   8.576 -0.0645 -0.5015  0.1857
 6286TIP3    H143053   5.518   5.561   8.558 -0.3939 -0.4306 -1.2597
 6286TIP3    H243054   5.396   5.636   8.510 -0.8598  0.3191  0.9608
 6287TIP3   OH243055   1.943   0.936   2.956 -0.7732  0.7756 -0.2046
 6287TIP3    H143056   1.920   1.021   2.918 -0.7484  1.1706  0.6341
 6287TIP3    H243057   1.895   0.933   3.038  0.5382  0.7182  0.5866
 6288TIP3   OH243058   3.947   7.373   9.309  0.8896 -0.2256  0.5331
 6288TIP3    H143059   3.883   7.338   9.371  0.0801  1.5209  0.7231
 6288TIP3    H243060   4.014   7.305   9.303  0.3988 -0.9204  2.4264
 6289TIP3   OH243061   4.136   5.970   0.217 -0.9254 -0.0062 -0.1542
 6289TIP3    H143062   4.205   5.989   0.280  0.8621  0.2527 -2.0969
 6289TIP3    H243063   4.153   5.881   0.187 -2.1614 -0.3814  0.1770
 6290TIP3   OH243064   5.305   2.558   0.935 -0.0050  0.1976 -0.1048
 6290TIP3    H143065   5.242   2.597   0.874 -0.6691  2.5783  1.8982
 6290TIP3    H243066   5.380   2.618   0.934  0.4799 -0.3745  0.5320
 6291TIP3   OH243067   7.300   2.410   8.561  0.6968 -0.8569  0.0578
 6291TIP3    H143068   7.385   2.404   8.605  0.8432  0.0871 -0.0601
 6291TIP3    H243069   7.241   2.357   8.615  1.0256 -0.2681  1.0310
 6292TIP3   OH243070   1.826   4.298   6.586  0.2896  0.3688 -0.2818
 6292TIP3    H143071   1.757   4.334   6.531 -0.0737  0.4521  0.2142
 6292TIP3    H243072   1.790   4.214   6.616  0.4838  0.3213 -0.1836
 6293TIP3   OH243073   4.140   2.028   8.591 -0.2577 -0.4529  0.1326
 6293TIP3    H143074   4.092   2.049   8.671  0.1786 -1.4196  0.6636
 6293TIP3    H243075   4.232   2.046   8.613  0.1726 -2.9805  0.6902
 6294TIP3   OH243076   4.011   6.576   2.080  0.4311  0.0753 -0.4332
 6294TIP3    H143077   4.081   6.522   2.116  1.8531  2.7011  1.0471
 6294TIP3    H243078   4.041   6.666   2.093 -3.0477  1.3309 -0.0654
 6295TIP3   OH243079   2.127   2.452   1.097 -0.7210 -0.6063  0.2693
 6295TIP3    H143080   2.148   2.429   1.188 -0.6558  1.5383  0.8676
 6295TIP3    H243081   2.198   2.511   1.071 -1.6655  0.1994 -0.5589
 6296TIP3   OH243082   0.221   0.269   9.853 -0.4380 -0.2274 -0.4626
 6296TIP3    H143083   0.315   0.269   9.870 -0.5503 -1.7370  0.3649
 6296TIP3    H243084   0.210   0.329   9.780  1.2321 -0.3557 -0.8636
 6297TIP3   OH243085   7.325   1.306   8.540 -0.3151 -0.5717 -0.8380
 6297TIP3    H143086   7.388   1.299   8.468  0.6930  1.0842 -0.1670
 6297TIP3    H243087   7.279   1.389   8.524 -3.3005 -2.2575 -1.9860
 6298TIP3   OH243088   1.169   6.381   0.619 -0.1365 -0.2209 -0.1788
 6298TIP3    H143089   1.247   6.326   0.620  0.3652  0.4516 -0.5959
 6298TIP3    H243090   1.106   6.333   0.565 -0.2284 -1.0332  0.6321
 6299TIP3   OH243091   2.679   0.312   6.701  0.2834  0.1533 -0.0162
 6299TIP3    H143092   2.615   0.380   6.723  2.0647  1.3901  1.7476
 6299TIP3    H243093   2.751   0.359   6.659  1.0520 -0.7971  0.1908
 6300TIP3   OH243094   1.968   3.484   2.737  0.2165  0.3908  0.1477
 6300TIP3    H143095   1.971   3.489   2.833 -0.6135 -0.6365  0.2458
 6300TIP3    H243096   1.951   3.392   2.719 -2.2981  0.9690 -0.9035
 6301TIP3   OH243097   4.318   5.352   0.821  0.0173  0.4326  0.1062
 6301TIP3    H143098   4.322   5.436   0.866  0.7556  0.2989  0.3038
 6301TIP3    H243099   4.351   5.289   0.885  1.1729  0.2538 -0.6304
 6302TIP3   OH243100   1.084   3.470   2.352 -0.0501  0.0904 -0.2579
 6302TIP3    H143101   1.157   3.522   2.386  1.3082 -1.0569 -1.3205
 6302TIP3    H243102   1.078   3.395   2.411 -1.0291  0.6555  0.3902
 6303TIP3   OH243103   3.996   6.437   2.753 -0.2039  0.4982 -0.2155
 6303TIP3    H143104   4.033   6.445   2.841 -1.0261  0.9745  0.1060
 6303TIP3    H243105   3.920   6.495   2.754 -0.9185 -0.3902 -0.8609
 6304TIP3   OH243106   5.475   7.404   1.221 -0.0601  0.0572 -0.3875
 6304TIP3    H143107   5.498   7.414   1.128 -0.4174 -0.0958 -0.4953
 6304TIP3    H243108   5.554   7.368   1.262  0.5998  1.4946 -0.3523
 6305TIP3   OH243109   3.796   6.517   9.359  0.3305  0.6632 -0.5528
 6305TIP3    H143110   3.839   6.505   9.274  0.8643  1.4800 -0.4156
 6305TIP3    H243111   3.867   6.543   9.418 -0.1817  0.9668 -0.0635
 6306TIP3   OH243112   3.890   4.442   0.234 -0.2949  0.7692 -0.1352
 6306TIP3    H143113   3.870   4.437   0.141 -1.6703 -0.4024  0.1897
 6306TIP3    H243114   3.823   4.388   0.276 -0.5929  2.3927  1.6638
 6307TIP3   OH243115   5.328   0.437   1.402  0.1402 -0.3839  0.1784
 6307TIP3    H143116   5.400   0.399   1.452  0.6800  0.4830  0.0809
 6307TIP3    H243117   5.324   0.528   1.431 -1.3709 -0.5734  0.6850
 6308TIP3   OH243118   3.228   4.073   2.433  0.1101  0.5089  0.5986
 6308TIP3    H143119   3.289   4.108   2.499 -0.8670  0.6304  1.4603
 6308TIP3    H243120   3.175   4.148   2.407 -1.9763 -0.2186  2.4225
 6309TIP3   OH243121   2.732   6.822   1.533  0.3623 -0.6986 -0.0819
 6309TIP3    H143122   2.722   6.904   1.485 -1.6916 -1.2542 -0.7168
 6309TIP3    H243123   2.747   6.756   1.465  1.6304 -0.9262  0.3937
 6310TIP3   OH243124   3.298   3.560   7.791  0.0766 -0.1660  0.3158
 6310TIP3    H143125   3.204   3.572   7.802  0.1253 -0.6968  1.4376
 6310TIP3    H243126   3.323   3.501   7.863  0.8793 -1.8427 -1.2581
 6311TIP3   OH243127   0.564   5.171   9.925 -0.0527 -0.0213 -0.2247
 6311TIP3    H143128   0.484   5.118   9.927 -0.0603 -0.0241  2.1049
 6311TIP3    H243129   0.534   5.260   9.943  0.5100 -0.1151  1.2557
 6312TIP3   OH243130   1.961   1.323   7.648  0.0470 -0.1719  0.4323
 6312TIP3    H143131   1.944   1.289   7.736  0.5315 -0.3954  0.4399
 6312TIP3    H243132   2.033   1.386   7.660  0.6767 -0.8133  0.0726
 6313TIP3   OH243133   4.125   1.814   8.290 -0.3707 -0.0328  0.4151
 6313TIP3    H143134   4.161   1.753   8.226 -1.3294 -0.4934  0.3129
 6313TIP3    H243135   4.202   1.843   8.340  0.1494 -1.0413  0.2374
 6314TIP3   OH243136   6.525   3.378   2.095 -0.2776  0.5402  0.0452
 6314TIP3    H143137   6.464   3.341   2.031 -1.3290  0.7237  0.9088
 6314TIP3    H243138   6.490   3.351   2.180  1.4294 -0.2218  0.5609
 6315TIP3   OH243139   2.761   2.775   9.672  0.4912  0.0500 -0.2740
 6315TIP3    H143140   2.783   2.735   9.588 -2.2131 -0.7057 -0.6898
 6315TIP3    H243141   2.718   2.706   9.722  2.6090  0.2707  2.0745
 6316TIP3   OH243142   6.371   3.280   1.089  0.1409  0.5136  0.4954
 6316TIP3    H143143   6.325   3.324   1.161 -0.0559 -0.5375  1.0270
 6316TIP3    H243144   6.425   3.214   1.132  0.7139  0.4658 -0.2695
 6317TIP3   OH243145   4.730   1.482   9.990 -0.0513 -0.0829 -0.3883
 6317TIP3    H143146   4.782   1.430   9.929 -0.9129 -0.9645 -0.4066
 6317TIP3    H243147   4.652   1.428  10.007 -1.6922  1.8011 -1.5045
 6318TIP3   OH243148   1.589   4.404   9.141 -0.1401  0.1232  0.0623
 6318TIP3    H143149   1.526   4.399   9.213  0.1523  1.8765  0.4732
 6318TIP3    H243150   1.562   4.334   9.081 -0.9504 -0.7798  1.4083
 6319TIP3   OH243151   0.895   4.229   0.183 -0.1524  0.0360  0.3278
 6319TIP3    H143152   0.980   4.235   0.227 -0.1311 -0.1660  0.3163
 6319TIP3    H243153   0.831   4.248   0.252 -0.1510 -0.8983  0.6047
 6320TIP3   OH243154   1.505   6.799   8.122 -0.1445  0.4203 -0.3817
 6320TIP3    H143155   1.495   6.778   8.029 -0.0179 -0.6413 -0.1625
 6320TIP3    H243156   1.542   6.887   8.122  1.9864 -0.3977 -1.4042
 6321TIP3   OH243157   4.296   1.353   8.232 -0.3486  0.5985  0.0874
 6321TIP3    H143158   4.359   1.283   8.223 -0.9176 -0.0038  0.6592
 6321TIP3    H243159   4.288   1.366   8.327 -1.0661  0.6772  0.0230
 6322TIP3   OH243160   0.981   0.777   7.799 -0.3672  0.9249 -0.0407
 6322TIP3    H143161   1.037   0.854   7.812 -0.5027  0.6475  2.8326
 6322TIP3    H243162   1.030   0.704   7.836 -2.2307  0.5605  1.9725
 6323TIP3   OH243163   4.190   3.060   8.862  0.3233 -0.6790 -0.5324
 6323TIP3    H143164   4.202   2.969   8.832  1.8441 -0.9191  0.6606
 6323TIP3    H243165   4.234   3.063   8.947 -0.1001  1.0735 -0.3434
 6324TIP3   OH243166   1.945   7.395   3.531 -0.9056  0.6061 -0.1477
 6324TIP3    H143167   1.999   7.457   3.579  1.3597 -2.6776  1.9525
 6324TIP3    H243168   2.001   7.365   3.459  0.0918 -2.3610  1.6795
 6325TIP3   OH243169   1.931   5.368   6.493  0.4525  0.0761 -0.0273
 6325TIP3    H143170   1.914   5.458   6.465  0.6486  0.2812  0.4982
 6325TIP3    H243171   1.970   5.326   6.416  0.4596  0.4699 -0.2419
 6326TIP3   OH243172   7.328   5.014   0.260 -0.2820  0.2872  0.1337
 6326TIP3    H143173   7.255   5.016   0.197 -0.3489 -0.6755  0.1760
 6326TIP3    H243174   7.290   5.045   0.342 -1.0770 -1.6906  0.5710
 6327TIP3   OH243175   2.799   1.927   9.044 -0.1392 -0.1361 -0.1855
 6327TIP3    H143176   2.885   1.903   9.008  0.1122 -1.8303  1.3780
 6327TIP3    H243177   2.819   1.970   9.127 -0.7961 -1.4018  0.6523
 6328TIP3   OH243178   3.636   0.775   7.817  0.3254 -0.0299  0.1183
 6328TIP3    H143179   3.687   0.856   7.824 -1.3549  1.0114  0.7981
 6328TIP3    H243180   3.546   0.805   7.804 -0.1621 -1.8199 -0.8185
 6329TIP3   OH243181   7.407   5.051   8.754  0.5041  0.5670  0.4995
 6329TIP3    H143182   7.428   5.137   8.790  0.3828  0.6134  0.4607
 6329TIP3    H243183   7.316   5.036   8.780  0.9245 -0.1229  1.6252
 6330TIP3   OH243184   5.252   4.561   1.625  0.4802 -0.2101  0.1090
 6330TIP3    H143185   5.249   4.638   1.569  0.5231 -0.2200  0.0936
 6330TIP3    H243186   5.178   4.572   1.685 -2.0240 -2.0409 -2.3689
 6331TIP3   OH243187   6.357   6.086   0.924 -0.5914 -0.2071 -0.1917
 6331TIP3    H143188   6.303   6.007   0.932 -0.8309  0.0941  1.4625
 6331TIP3    H243189   6.300   6.150   0.883 -1.0339 -0.3172  0.2407
 6332TIP3   OH243190   4.428   1.314   9.343  0.2904  0.8341  0.4625
 6332TIP3    H143191   4.400   1.277   9.427 -1.4943  3.0723  0.9612
 6332TIP3    H243192   4.396   1.252   9.278 -0.7510  0.4149  1.3324
 6333TIP3   OH243193   2.243   3.725   8.734 -0.0002 -0.4453 -0.1949
 6333TIP3    H143194   2.326   3.773   8.747  0.1859 -1.1499  1.5090
 6333TIP3    H243195   2.209   3.758   8.651  0.4088  2.2337  0.5993
 6334TIP3   OH243196   4.673   6.820   9.616  0.2408  0.3524 -0.5328
 6334TIP3    H143197   4.636   6.878   9.550  0.5873  1.1075 -0.0692
 6334TIP3    H243198   4.670   6.733   9.576 -0.2184  0.6949 -1.2559
 6335TIP3   OH243199   6.024   1.878   9.505  0.7001 -0.8340  0.0970
 6335TIP3    H143200   6.058   1.877   9.595  0.5617 -0.0039  0.1572
 6335TIP3    H243201   6.064   1.954   9.464  2.5295 -2.4107 -1.2532
 6336TIP3   OH243202   0.908   4.239   8.377  0.1509  0.1594 -0.2463
 6336TIP3    H143203   0.854   4.241   8.456  1.8517  0.5553  0.9401
 6336TIP3    H243204   0.849   4.205   8.309 -0.9060 -1.8336  1.5344
 6337TIP3   OH243205   5.121   4.645   8.412 -0.1023  0.0293  0.8539
 6337TIP3    H143206   5.027   4.658   8.415 -0.0416  0.3758  1.8857
 6337TIP3    H243207   5.133   4.562   8.365 -0.8558  0.4393 -0.0889
 6338TIP3   OH243208   0.693   3.339   2.193  0.0703 -0.8421  0.3506
 6338TIP3    H143209   0.648   3.265   2.233  0.8138 -1.4102  0.1681
 6338TIP3    H243210   0.708   3.400   2.266  0.1680 -1.2355  0.6643
 6339TIP3   OH243211   1.091   5.395   1.426  0.0988 -0.2046 -0.1905
 6339TIP3    H143212   1.139   5.319   1.458 -0.0710  0.1993  1.0900
 6339TIP3    H243213   1.010   5.396   1.478 -1.4857 -1.0184 -2.4419
 6340TIP3   OH243214   1.389   3.118   1.231  0.5091  0.6367  0.5169
 6340TIP3    H143215   1.313   3.176   1.236  1.2037  1.4443  3.3327
 6340TIP3    H243216   1.458   3.174   1.195  0.4633  0.7420  0.5894
 6341TIP3   OH243217   4.519   0.636   0.374 -0.2989  0.3983  0.3656
 6341TIP3    H143218   4.576   0.563   0.349 -2.7139 -0.5689 -3.1112
 6341TIP3    H243219   4.574   0.714   0.365  1.6972 -0.7524  1.8094
 6342TIP3   OH243220   4.435   7.245   2.392 -0.1538 -0.0934 -0.1510
 6342TIP3    H143221   4.435   7.199   2.476  1.0213  1.1509  0.5732
 6342TIP3    H243222   4.379   7.321   2.407 -2.4449 -1.4176 -1.4683
 6343TIP3   OH243223   5.922   1.238   2.194  0.0882  0.5143 -0.0391
 6343TIP3    H143224   5.883   1.324   2.210  1.4410  1.1166  0.1166
 6343TIP3    H243225   5.993   1.255   2.132  0.8855 -0.3563  0.6028
 6344TIP3   OH243226   1.734   0.640   6.731 -0.4009  0.6117  0.8031
 6344TIP3    H143227   1.738   0.718   6.676 -1.2964 -0.1400 -0.3714
 6344TIP3    H243228   1.810   0.647   6.789  0.7350  1.3076 -0.7020
 6345TIP3   OH243229   3.086   6.617   9.423  0.4974  0.4729 -0.3042
 6345TIP3    H143230   3.142   6.645   9.351  0.6927  0.1040 -0.3021
 6345TIP3    H243231   3.054   6.531   9.395 -0.4981  0.9031 -0.5450
 6346TIP3   OH243232   1.395   7.222   9.297  0.2313 -0.2325 -0.4058
 6346TIP3    H143233   1.358   7.136   9.318 -0.9894  0.7800  1.9210
 6346TIP3    H243234   1.361   7.281   9.364  3.0994  1.6033 -0.3645
 6347TIP3   OH243235   4.116   3.664   2.493  0.5862  0.8469  0.0695
 6347TIP3    H143236   4.079   3.712   2.567 -0.1804 -0.1263  0.3426
 6347TIP3    H243237   4.109   3.572   2.519 -0.6440  0.4225 -1.6409
 6348TIP3   OH243238   3.700   0.398   8.935  0.3100  0.4982  0.0130
 6348TIP3    H143239   3.725   0.376   9.025 -0.9089  0.5176  0.3895
 6348TIP3    H243240   3.738   0.329   8.882  1.0352  0.4731  0.5442
 6349TIP3   OH243241   5.926   2.153   1.348  0.2685  0.4783 -0.5843
 6349TIP3    H143242   5.965   2.069   1.324  0.3032 -0.7782  3.1683
 6349TIP3    H243243   5.847   2.160   1.294 -0.5504 -2.7529 -0.0000
 6350TIP3   OH243244   3.846   7.007   6.795 -0.0675  0.4745  0.1701
 6350TIP3    H143245   3.871   6.914   6.796 -2.0103 -0.0820  0.9489
 6350TIP3    H243246   3.867   7.038   6.883 -1.5525  0.1330  0.6678
 6351TIP3   OH243247   0.010   4.991   9.794  0.3267  0.7225  0.5758
 6351TIP3    H143248   0.066   5.026   9.725 -0.6622  1.2932  0.0467
 6351TIP3    H243249  -0.070   5.043   9.790 -0.1963  0.0257  1.4144
 6352TIP3   OH243250   1.091   2.988   8.057  0.5643  0.5705  0.0791
 6352TIP3    H143251   1.103   2.896   8.079  0.9867  0.2733 -1.2991
 6352TIP3    H243252   1.132   3.036   8.129  0.4313 -0.3079  0.7587
 6353TIP3   OH243253   6.763   4.757   9.199 -0.2286 -0.1252 -0.0715
 6353TIP3    H143254   6.843   4.779   9.247 -0.0099  0.9674 -0.8867
 6353TIP3    H243255   6.794   4.712   9.121 -0.4370 -0.0315 -0.2083
 6354TIP3   OH243256   4.798   7.053   9.199  0.1280 -1.0762 -0.3305
 6354TIP3    H143257   4.878   7.003   9.182 -0.4429 -1.6053 -1.5588
 6354TIP3    H243258   4.829   7.143   9.212  0.8359 -1.0031 -2.2102
 6355TIP3   OH243259   1.393   4.907   0.871 -0.3947 -0.0858 -0.2396
 6355TIP3    H143260   1.357   4.995   0.854  0.2635  0.4205  0.8982
 6355TIP3    H243261   1.475   4.905   0.821 -0.4007 -0.0549 -0.2511
 6356TIP3   OH243262   0.845   1.982   0.003 -0.5571  0.1999 -0.0344
 6356TIP3    H143263   0.822   1.894   0.031 -1.5217  0.0662 -1.1497
 6356TIP3    H243264   0.764   2.017  -0.035 -0.6446  2.1542  1.7503
 6357TIP3   OH243265   1.073   0.239   1.136  0.1658 -0.4587 -0.5660
 6357TIP3    H143266   1.010   0.203   1.074 -0.0810  0.0296 -0.6047
 6357TIP3    H243267   1.019   0.284   1.201  0.4882  0.2250 -0.7704
 6358TIP3   OH243268   3.161   5.946   9.982 -0.7292 -0.4384 -0.5548
 6358TIP3    H143269   3.251   5.929   9.955 -0.2372  1.0644  0.0125
 6358TIP3    H243270   3.161   5.930  10.077 -0.3656  1.9011 -0.0821
 6359TIP3   OH243271   0.473   0.677   2.278 -0.0590 -0.2161 -0.4345
 6359TIP3    H143272   0.568   0.675   2.277 -0.0477 -0.1711  0.1856
 6359TIP3    H243273   0.447   0.585   2.286 -0.0613 -0.2185 -0.4723
 6360TIP3   OH243274   2.362   3.050   1.696 -0.5167  0.3771  0.0972
 6360TIP3    H143275   2.382   2.971   1.747 -2.3127 -0.6877 -0.7304
 6360TIP3    H243276   2.446   3.096   1.690  0.2049 -0.5209  2.1494
 6361TIP3   OH243277   1.409   1.710   8.425 -0.2455 -0.2840  0.2361
 6361TIP3    H143278   1.384   1.637   8.483 -1.7102  0.0997  0.1414
 6361TIP3    H243279   1.380   1.682   8.339  1.2081 -0.5103 -0.2026
 6362TIP3   OH243280   3.630   3.538   0.632  0.0091  0.6345 -0.0231
 6362TIP3    H143281   3.617   3.451   0.669 -0.5320  1.5425  2.0442
 6362TIP3    H243282   3.545   3.581   0.639  0.2767  1.3700 -0.9508
 6363TIP3   OH243283   4.991   4.073   9.108 -0.0183 -0.5860 -0.1119
 6363TIP3    H143284   5.037   4.044   9.187  0.1556  0.5301  0.2034
 6363TIP3    H243285   5.024   4.015   9.039 -0.5134 -1.8845  0.6925
 6364TIP3   OH243286   0.030   0.795   9.828  0.0818 -0.1370  0.1317
 6364TIP3    H143287   0.007   0.879   9.866  1.5409 -0.1855  1.2351
 6364TIP3    H243288   0.032   0.810   9.734 -0.7403  0.7610  0.2466
 6365TIP3   OH243289   7.121   3.711   8.132  0.4398  0.0453  0.0346
 6365TIP3    H143290   7.192   3.711   8.067  0.1506  2.1037 -0.3516
 6365TIP3    H243291   7.050   3.758   8.089 -1.7534 -3.0935 -0.1079
 6366TIP3   OH243292   0.066   6.649   1.128  0.3989  0.2016 -0.0039
 6366TIP3    H143293   0.059   6.666   1.222 -1.7026  0.0889 -0.0788
 6366TIP3    H243294  -0.008   6.696   1.090  0.6276 -0.5677 -1.4882
 6367TIP3   OH243295   3.774   5.013   1.208  0.3056 -0.2228  0.0693
 6367TIP3    H143296   3.725   4.957   1.268  0.9938 -0.7649  0.1478
 6367TIP3    H243297   3.853   4.962   1.187  0.0440 -0.0735 -1.3678
 6368TIP3   OH243298   1.918   3.098   1.168  0.1879 -0.4509 -0.4205
 6368TIP3    H143299   1.860   3.071   1.097 -0.0663  0.0064 -0.3938
 6368TIP3    H243300   1.874   3.175   1.206  0.3832 -0.6226  0.1514
 6369TIP3   OH243301   3.648   5.529   0.089  0.1388  0.2611 -0.2210
 6369TIP3    H143302   3.615   5.483   0.166  0.9575 -1.7680 -1.0318
 6369TIP3    H243303   3.657   5.620   0.118  2.3842 -0.7591  2.7755
 6370TIP3   OH243304   4.504   2.661   8.542  0.5336 -0.1172 -0.6893
 6370TIP3    H143305   4.580   2.630   8.590  0.9597 -0.9741 -1.8713
 6370TIP3    H243306   4.455   2.582   8.519 -0.7520  0.4219  0.0859
 6371TIP3   OH243307   3.418   0.230   0.055 -0.3004  0.0516  0.7736
 6371TIP3    H143308   3.467   0.164   0.006  0.4427 -0.6863  2.4458
 6371TIP3    H243309   3.453   0.314   0.024  1.3338 -0.4342  1.1891
 6372TIP3   OH243310   2.171   6.611   1.848 -1.2458 -0.1639 -0.1065
 6372TIP3    H143311   2.172   6.518   1.825  1.5765  0.0822 -1.3552
 6372TIP3    H243312   2.210   6.655   1.773 -2.2212  2.0385  0.5977
 6373TIP3   OH243313   5.881   7.134   0.365  0.3543 -0.0187 -0.6872
 6373TIP3    H143314   5.902   7.047   0.331 -1.2542 -1.1050  0.9002
 6373TIP3    H243315   5.889   7.125   0.460  0.4513  1.6532 -0.5137
 6374TIP3   OH243316   4.706   1.977   0.494 -0.2786 -0.5447 -0.2626
 6374TIP3    H143317   4.702   2.051   0.555  2.2144  0.6103 -1.3574
 6374TIP3    H243318   4.634   1.994   0.433 -0.1289  0.6761 -0.1356
 6375TIP3   OH243319   7.043   7.272   1.864 -0.4298 -0.2841  0.2983
 6375TIP3    H143320   6.991   7.196   1.890 -0.9707  0.9975  3.4778
 6375TIP3    H243321   7.130   7.237   1.847 -0.8719 -1.7286  0.8811
 6376TIP3   OH243322   0.324   6.448   0.092  0.0911  0.0659 -0.1405
 6376TIP3    H143323   0.300   6.387   0.162 -0.2072 -0.5364 -0.7521
 6376TIP3    H243324   0.240   6.476   0.055  0.2193  0.9524  0.2088
 6377TIP3   OH243325   2.604   3.283   7.945  0.2480  0.3562  0.3214
 6377TIP3    H143326   2.548   3.253   8.017 -1.2246 -1.5095 -1.4481
 6377TIP3    H243327   2.543   3.300   7.873  1.8237 -0.1726 -1.2160
 6378TIP3   OH243328   6.838   3.983   1.883  0.4404  0.2127 -0.1619
 6378TIP3    H143329   6.850   3.914   1.948  0.2011 -0.0582 -0.4026
 6378TIP3    H243330   6.792   3.940   1.811  0.3719  0.6011 -0.3511
 6379TIP3   OH243331   5.546   0.793   8.791 -0.1294  0.5753  0.1574
 6379TIP3    H143332   5.516   0.742   8.716  0.3128 -0.3485  0.6003
 6379TIP3    H243333   5.483   0.775   8.860 -0.0361  0.7231  0.2833
 6380TIP3   OH243334   0.161   2.846   1.428  0.3422  0.0299  0.7665
 6380TIP3    H143335   0.222   2.879   1.493  1.6509 -0.5794 -0.1202
 6380TIP3    H243336   0.198   2.763   1.399 -0.5517 -0.0256 -0.2928
 6381TIP3   OH243337   3.182   0.406   8.301 -0.4382  0.0688 -0.4854
 6381TIP3    H143338   3.269   0.445   8.309 -0.8283  0.8444  0.1220
 6381TIP3    H243339   3.181   0.369   8.213  1.6836 -2.9654  0.5927
 6382TIP3   OH243340   6.862   5.532   2.251 -0.4651 -0.6368 -0.4513
 6382TIP3    H143341   6.877   5.489   2.166  1.8994  0.8212 -0.8627
 6382TIP3    H243342   6.878   5.463   2.315  1.9013 -0.8202 -1.1336
 6383TIP3   OH243343   0.582   3.794   7.225  0.0733 -0.1805  0.3914
 6383TIP3    H143344   0.615   3.843   7.300 -3.0357  1.3143  0.9585
 6383TIP3    H243345   0.569   3.860   7.157 -0.5069 -0.8872 -0.2046
 6384TIP3   OH243346   3.472   4.056   9.474  0.0144  0.0664 -0.3849
 6384TIP3    H143347   3.471   4.054   9.570 -3.6957 -0.9844 -0.2849
 6384TIP3    H243348   3.451   4.146   9.452 -1.4212 -0.1682 -0.0823
 6385TIP3   OH243349   1.840   3.089   8.103 -0.0572  0.4488  0.3977
 6385TIP3    H143350   1.879   3.021   8.047 -0.0482  1.2171 -0.5518
 6385TIP3    H243351   1.746   3.072   8.100  0.0021  0.0502  0.7386
 6386TIP3   OH243352   6.016   0.053   0.762  0.1023 -0.2847 -0.4031
 6386TIP3    H143353   5.945   0.030   0.702  0.1567 -0.7710 -0.2831
 6386TIP3    H243354   6.027   0.147   0.751 -0.7942 -0.1471 -0.1690
 6387TIP3   OH243355   0.071   0.835   1.998  0.1724 -0.0611  0.2561
 6387TIP3    H143356   0.074   0.828   2.093 -1.6678  0.1991  0.3646
 6387TIP3    H243357   0.156   0.872   1.974  1.0509 -1.0606  1.6888
 6388TIP3   OH243358   1.997   4.645   1.018  0.0800 -0.6231 -0.7620
 6388TIP3    H143359   2.077   4.687   1.051 -1.7947  1.0675  2.1059
 6388TIP3    H243360   2.006   4.553   1.043  0.4262 -0.1148  1.1824
 6389TIP3   OH243361   1.922   3.373   8.121 -0.1044 -0.2410 -0.4208
 6389TIP3    H143362   1.863   3.298   8.106 -1.9773  0.8054  1.1395
 6389TIP3    H243363   1.945   3.366   8.214  1.6554 -0.1701 -0.8230
 6390TIP3   OH243364   5.372   1.280   8.413 -0.1202 -0.7264  0.3041
 6390TIP3    H143365   5.402   1.198   8.374  0.7572  0.1642 -1.0122
 6390TIP3    H243366   5.292   1.257   8.460 -0.0730 -2.2698 -0.3081
 6391TIP3   OH243367   4.776   2.408   9.841 -0.3038  0.0069  0.0812
 6391TIP3    H143368   4.829   2.462   9.782 -0.5097  0.4061  0.2580
 6391TIP3    H243369   4.838   2.348   9.881 -0.1860 -0.3612 -0.6523
 6392TIP3   OH243370   6.787   2.622   7.850  0.2300  0.5014  0.2688
 6392TIP3    H143371   6.854   2.687   7.830 -0.8013  1.3290 -0.6260
 6392TIP3    H243372   6.707   2.657   7.812 -0.2326 -1.6238 -0.8738
 6393TIP3   OH243373   4.221   0.397   7.367  0.0713 -0.1562 -0.3638
 6393TIP3    H143374   4.261   0.395   7.280  1.3502  0.7128  0.1640
 6393TIP3    H243375   4.149   0.335   7.362  1.1489 -1.3837 -1.5385
 6394TIP3   OH243376   1.016   6.488   2.337  0.1962 -0.1122  0.3117
 6394TIP3    H143377   1.089   6.517   2.283  0.7615 -1.4251  0.3355
 6394TIP3    H243378   0.978   6.569   2.372  1.9962  0.5752  0.7661
 6395TIP3   OH243379   6.709   4.143   1.374 -0.2312  0.1313 -0.3167
 6395TIP3    H143380   6.635   4.086   1.394  0.3112 -1.3164 -2.2533
 6395TIP3    H243381   6.784   4.100   1.413 -0.1187  0.6625  0.0711
 6396TIP3   OH243382   6.302   4.176   1.520  0.2936  0.5921  0.0261
 6396TIP3    H143383   6.265   4.246   1.465  0.8060  2.3249  1.7762
 6396TIP3    H243384   6.397   4.187   1.512  0.4048 -0.6186 -0.5073
 6397TIP3   OH243385   3.852   3.381   9.026 -0.0483  0.2398 -0.7019
 6397TIP3    H143386   3.809   3.412   8.947 -3.7093 -0.5422  0.8141
 6397TIP3    H243387   3.868   3.287   9.010  0.1842  0.3065 -0.8723
 6398TIP3   OH243388   4.288   7.162   8.635  0.6505 -0.3827 -0.5025
 6398TIP3    H143389   4.371   7.117   8.618  0.8468  0.4994 -2.1236
 6398TIP3    H243390   4.292   7.187   8.727  1.0284 -2.6211  0.1541
 6399TIP3   OH243391   2.216   4.243   8.371 -0.6736  0.4548  0.1174
 6399TIP3    H143392   2.241   4.333   8.352 -0.8478  0.3202 -0.7862
 6399TIP3    H243393   2.121   4.245   8.378 -0.5556  0.7292  2.2823
 6400TIP3   OH243394   2.119   6.854   0.373  0.0703 -0.2860  0.3244
 6400TIP3    H143395   2.160   6.772   0.346  2.7362  1.3134 -0.9679
 6400TIP3    H243396   2.074   6.885   0.295 -0.6452 -0.3550  0.7066
 6401TIP3   OH243397   4.342   3.993   7.644 -0.0683 -0.2443 -0.2727
 6401TIP3    H143398   4.395   4.044   7.583  1.8243 -0.3013  1.2498
 6401TIP3    H243399   4.317   4.055   7.712 -2.1069 -0.2007 -0.9924
 6402TIP3   OH243400   2.163   6.329   1.855  0.7768 -0.0842  0.7131
 6402TIP3    H143401   2.142   6.263   1.921  0.3776  0.3116  0.9942
 6402TIP3    H243402   2.168   6.281   1.772 -2.9666 -0.0274  0.3054
 6403TIP3   OH243403   5.139   6.064   7.106 -0.0058  0.1458 -0.2607
 6403TIP3    H143404   5.152   5.983   7.058  1.1087  0.2291 -0.1220
 6403TIP3    H243405   5.223   6.081   7.148 -1.0785 -0.2629  2.2410
 6404TIP3   OH243406   3.322   4.231   1.410  0.1314  0.1661  0.8356
 6404TIP3    H143407   3.349   4.320   1.431  2.6973  0.0788 -1.5448
 6404TIP3    H243408   3.381   4.176   1.462  1.4344 -0.0461 -0.7805
 6405TIP3   OH243409   3.440   1.246   9.747 -0.5040 -0.0997 -0.3026
 6405TIP3    H143410   3.430   1.335   9.714  1.4389 -0.0269 -0.8343
 6405TIP3    H243411   3.468   1.195   9.672  0.8122 -0.6185  0.5022
 6406TIP3   OH243412   0.596   0.413   8.736 -0.8864 -0.2141  0.5578
 6406TIP3    H143413   0.554   0.430   8.820 -0.8247  0.2804  0.4889
 6406TIP3    H243414   0.595   0.497   8.691  0.4613 -0.1157  0.6723
 6407TIP3   OH243415   6.409   0.581   6.991  0.0650  0.3113 -0.2176
 6407TIP3    H143416   6.499   0.586   7.023 -0.1774 -2.5658  1.2388
 6407TIP3    H243417   6.362   0.533   7.059 -2.1416  0.0917 -1.7986
 6408TIP3   OH243418   5.926   3.652   0.536  0.3010  0.2519 -0.2473
 6408TIP3    H143419   6.006   3.625   0.582  0.6501 -0.7188 -1.3796
 6408TIP3    H243420   5.946   3.639   0.443 -1.3491 -0.4985 -0.5278
 6409TIP3   OH243421   3.481   6.137   9.127 -0.0350  0.3377  0.2111
 6409TIP3    H143422   3.402   6.166   9.082  0.6699 -0.5932 -1.7377
 6409TIP3    H243423   3.506   6.211   9.183 -1.1696  1.3929 -0.6361
 6410TIP3   OH243424   3.228   1.434   2.036  0.5820  0.3495  0.3414
 6410TIP3    H143425   3.142   1.466   2.061  0.0641  0.3963 -1.3742
 6410TIP3    H243426   3.269   1.406   2.118 -1.9304 -1.8266  0.9705
 6411TIP3   OH243427   5.007   3.156   7.821  0.2751  0.4627  0.5050
 6411TIP3    H143428   5.061   3.193   7.752 -0.6990  0.8273 -0.0710
 6411TIP3    H243429   5.028   3.063   7.820 -1.8156 -0.1079 -2.2818
 6412TIP3   OH243430   1.665   4.641   2.029 -0.0335 -0.2305 -0.1144
 6412TIP3    H143431   1.682   4.651   2.123 -4.4383 -1.4120  1.0229
 6412TIP3    H243432   1.612   4.718   2.006  2.5227  1.0551 -2.2700
 6413TIP3   OH243433   2.036   1.259   0.170  0.0300  0.0814 -0.2583
 6413TIP3    H143434   1.961   1.318   0.158 -0.2788 -0.2446  0.0312
 6413TIP3    H243435   1.996   1.176   0.195  0.4181 -0.4493 -1.3424
 6414TIP3   OH243436   2.728   6.247   2.870 -0.2918  0.7815  0.5407
 6414TIP3    H143437   2.651   6.303   2.870 -0.5274  0.4558 -0.0474
 6414TIP3    H243438   2.706   6.174   2.814  0.2677  0.4342  0.7579
 6415TIP3   OH243439   0.871   2.212   9.816  0.7251 -0.8395 -0.6817
 6415TIP3    H143440   0.833   2.135   9.774  0.2928 -1.5147  0.8664
 6415TIP3    H243441   0.905   2.179   9.900  2.0316  0.3449 -0.7231
 6416TIP3   OH243442   1.618   5.998   0.176 -0.1195  0.0852 -0.0004
 6416TIP3    H143443   1.552   6.066   0.161 -0.9479 -0.7781 -0.4398
 6416TIP3    H243444   1.687   6.017   0.112 -1.2152 -0.5313 -1.4369
 6417TIP3   OH243445   0.791   4.489   9.676  0.0550 -0.3134  0.5574
 6417TIP3    H143446   0.873   4.486   9.725  1.7576  0.7994 -1.9820
 6417TIP3    H243447   0.810   4.440   9.596 -0.4880  2.8884 -1.7097
 6418TIP3   OH243448   4.845   3.619   0.814 -0.6701 -0.3535 -0.0395
 6418TIP3    H143449   4.827   3.700   0.766  0.5807 -0.4962 -0.7983
 6418TIP3    H243450   4.814   3.549   0.756 -0.9816 -0.4531  0.2461
 6419TIP3   OH243451   7.200   2.131   2.404  0.0155 -0.2149  0.2909
 6419TIP3    H143452   7.287   2.124   2.445  0.0591 -0.3403  0.1765
 6419TIP3    H243453   7.150   2.187   2.464 -0.0631 -0.7684  0.7525
 6420TIP3   OH243454   6.256   5.218   8.199  0.0131 -0.4620  0.3425
 6420TIP3    H143455   6.337   5.197   8.246 -0.4129  1.0558  1.8633
 6420TIP3    H243456   6.189   5.221   8.268 -1.3059 -1.3808 -0.8436
 6421TIP3   OH243457   3.164   6.171   0.674 -0.3258 -0.0098 -0.3399
 6421TIP3    H143458   3.070   6.186   0.676 -0.2134  1.9168 -3.0404
 6421TIP3    H243459   3.200   6.239   0.731 -0.5204 -0.7902  0.7476
 6422TIP3   OH243460   5.656   0.052   9.016  0.1888  0.2248 -0.1010
 6422TIP3    H143461   5.561   0.062   9.025  0.1194  0.3739 -0.8897
 6422TIP3    H243462   5.693   0.114   9.078 -0.2030 -1.2577  1.7182
 6423TIP3   OH243463   5.116   6.272   8.670  0.4709  0.2575 -0.1217
 6423TIP3    H143464   5.198   6.313   8.696  1.0240 -1.8404  1.6787
 6423TIP3    H243465   5.141   6.206   8.606 -0.2235  1.4742 -1.7372
 6424TIP3   OH243466   1.173   5.720   9.277  0.1816 -0.5364  0.5577
 6424TIP3    H143467   1.097   5.663   9.262  1.2781 -2.5541  2.0512
 6424TIP3    H243468   1.247   5.669   9.244  0.9906  1.1587 -0.3679
 6425TIP3   OH243469   4.567   2.976   7.699  0.4908  0.1176 -0.1737
 6425TIP3    H143470   4.655   2.946   7.675  0.0168 -1.5885  0.0541
 6425TIP3    H243471   4.509   2.907   7.666 -0.5917  0.2252  1.4213
 6426TIP3   OH243472   2.683   3.209   0.267 -0.3360  0.4587 -0.0996
 6426TIP3    H143473   2.723   3.216   0.353 -0.3733  0.0760 -0.0524
 6426TIP3    H243474   2.649   3.297   0.250  0.9579  0.9312 -0.3610
 6427TIP3   OH243475   4.642   7.166   7.322  0.3432  0.5360  0.3386
 6427TIP3    H143476   4.702   7.233   7.287  0.6125  0.7700  1.2219
 6427TIP3    H243477   4.699   7.100   7.360  0.0495  0.2984  0.3737
 6428TIP3   OH243478   4.371   0.601   7.811  0.2044 -0.3624 -0.6285
 6428TIP3    H143479   4.412   0.667   7.866  1.4628 -0.8483 -0.9437
 6428TIP3    H243480   4.344   0.648   7.732  1.0337 -0.1884 -0.8215
 6429TIP3   OH243481   4.595   5.519   1.914 -0.6889  0.0530 -0.1718
 6429TIP3    H143482   4.581   5.460   1.988  0.3157 -0.8224 -0.6399
 6429TIP3    H243483   4.620   5.461   1.842  1.1420  1.0884 -0.4345
 6430TIP3   OH243484   0.355   6.506   8.504 -0.1768 -0.4175 -0.1973
 6430TIP3    H143485   0.451   6.505   8.504 -0.1766 -0.3866 -0.2032
 6430TIP3    H243486   0.331   6.501   8.596 -0.1624  1.0395 -0.1011
 6431TIP3   OH243487   1.327   4.782   1.263  0.0357  0.2081  0.1126
 6431TIP3    H143488   1.303   4.709   1.206  1.0472 -1.8012  2.0984
 6431TIP3    H243489   1.418   4.802   1.240  0.0746  0.1763  0.2391
 6432TIP3   OH243490   0.760   3.571   0.176  0.0282  0.3093 -0.1014
 6432TIP3    H143491   0.710   3.646   0.143  1.2813  0.7650 -1.0247
 6432TIP3    H243492   0.721   3.495   0.132 -0.2661  0.5862 -0.3236
 6433TIP3   OH243493   0.224   6.754   2.733  0.0705 -0.1881 -0.1499
 6433TIP3    H143494   0.129   6.744   2.730 -0.0673  1.0647 -0.6258
 6433TIP3    H243495   0.248   6.724   2.821 -0.7779 -0.4364  0.0097
 6434TIP3   OH243496   4.457   6.195   7.346 -0.6453 -0.3164  0.8607
 6434TIP3    H143497   4.432   6.111   7.308 -0.8102 -0.1110  0.5108
 6434TIP3    H243498   4.408   6.201   7.427 -3.1047  0.8297 -0.6026
 6435TIP3   OH243499   1.847   6.579   9.499 -0.0609  0.8567  0.5431
 6435TIP3    H143500   1.905   6.600   9.573 -0.3679  1.4234  0.6284
 6435TIP3    H243501   1.887   6.625   9.425  1.4989 -1.4701 -0.1674
 6436TIP3   OH243502   6.323   1.195   8.460  0.1766  0.3385 -0.0583
 6436TIP3    H143503   6.241   1.155   8.433 -0.4543 -0.3183  2.5562
 6436TIP3    H243504   6.362   1.227   8.378 -2.4796  0.3904 -1.4211
 6437TIP3   OH243505   0.526   3.625   7.839  0.5087  0.0178 -0.0891
 6437TIP3    H143506   0.620   3.630   7.852  0.2798 -0.7059  2.2370
 6437TIP3    H243507   0.490   3.693   7.897 -0.4669 -0.9941  0.5321
 6438TIP3   OH243508   3.922   3.840   7.372  0.3247 -0.8114  0.1816
 6438TIP3    H143509   3.867   3.906   7.331 -0.2271  0.4531  2.7396
 6438TIP3    H243510   3.873   3.758   7.364 -0.1856 -0.4312 -0.7463
 6439TIP3   OH243511   0.494   7.120   7.788  0.2523  0.2883  0.3879
 6439TIP3    H143512   0.478   7.171   7.709 -1.1158  0.7575  0.9265
 6439TIP3    H243513   0.548   7.178   7.843  0.2534  0.4184  0.2498
 6440TIP3   OH243514   1.554   4.409   8.526  0.1624 -0.0870 -0.5706
 6440TIP3    H143515   1.586   4.326   8.563 -0.1757 -0.5500 -1.2999
 6440TIP3    H243516   1.577   4.474   8.592  1.0382 -0.6598 -0.2846
 6441TIP3   OH243517   4.929   6.610   9.227  0.2599  0.4323 -0.0571
 6441TIP3    H143518   4.918   6.517   9.244 -1.2153  0.5657 -0.1257
 6441TIP3    H243519   4.978   6.615   9.145  1.7831 -0.2483  0.7747
 6442TIP3   OH243520   1.672   6.425   0.783 -0.4734 -0.0045  0.0264
 6442TIP3    H143521   1.655   6.334   0.761  0.6453 -0.2572  0.1218
 6442TIP3    H243522   1.666   6.429   0.878 -0.3141 -0.0335  0.0388
 6443TIP3   OH243523   3.469   4.010   1.215 -0.2464 -0.2187  0.4538
 6443TIP3    H143524   3.433   4.087   1.171  0.1372  0.7432  1.7725
 6443TIP3    H243525   3.395   3.971   1.261 -0.6969 -1.3526 -1.1433
 6444TIP3   OH243526   2.835   5.020   8.597 -0.0890 -0.4345  0.4168
 6444TIP3    H143527   2.791   4.957   8.540 -0.1924 -0.5174  0.5880
 6444TIP3    H243528   2.793   5.009   8.682  0.6574 -0.9385  0.7379
 6445TIP3   OH243529   0.635   3.856   0.662 -0.5317  0.1102 -0.0065
 6445TIP3    H143530   0.581   3.814   0.595 -0.3841 -2.9567  1.5738
 6445TIP3    H243531   0.723   3.820   0.648  0.3887  2.3968 -0.4490
 6446TIP3   OH243532   7.189   6.121   9.561  0.1188  0.6479 -0.1900
 6446TIP3    H143533   7.231   6.066   9.495  0.6002  0.0871  0.5739
 6446TIP3    H243534   7.243   6.111   9.639 -1.2783  0.1328  0.7457
 6447TIP3   OH243535   5.813   4.503   1.189 -0.3453  0.3628  0.0290
 6447TIP3    H143536   5.751   4.575   1.184 -1.5221 -0.5192  1.2925
 6447TIP3    H243537   5.842   4.502   1.280  0.7965  0.1322 -0.3112
 6448TIP3   OH243538   0.543   5.007   2.176 -0.0269  0.3828 -0.0746
 6448TIP3    H143539   0.475   4.963   2.125 -0.1090  0.0158  0.3444
 6448TIP3    H243540   0.576   4.939   2.235 -0.5611  1.0176  0.9939
 6449TIP3   OH243541   5.926   4.642   9.531  0.1170 -0.5578  0.1550
 6449TIP3    H143542   5.879   4.640   9.615 -0.0418  1.1724  0.1455
 6449TIP3    H243543   5.970   4.728   9.530 -1.4528  0.3164 -2.3563
 6450TIP3   OH243544   3.245   3.485   8.742  0.0696 -0.2453  0.2512
 6450TIP3    H143545   3.222   3.426   8.670 -1.0399  0.0205  0.3693
 6450TIP3    H243546   3.336   3.464   8.761  0.5065 -0.0996 -1.4471
 6451TIP3   OH243547   1.732   0.382   7.369  0.1768  0.0221  0.2888
 6451TIP3    H143548   1.676   0.370   7.446 -0.5044  0.6802 -0.0991
 6451TIP3    H243549   1.817   0.405   7.406 -0.1344  0.2989  0.8515
 6452TIP3   OH243550   3.021   5.573   7.322  0.4926 -0.2264  0.2293
 6452TIP3    H143551   3.019   5.585   7.227  0.4485 -1.1173  0.1060
 6452TIP3    H243552   3.113   5.553   7.341  1.0669  2.5115  0.7445
 6453TIP3   OH243553   0.440   5.988   7.189  0.0353 -0.0940  0.1960
 6453TIP3    H143554   0.532   5.966   7.202  0.4180  1.2236 -0.1135
 6453TIP3    H243555   0.403   5.912   7.144  0.9106 -0.7345  0.5460
 6454TIP3   OH243556   2.758   3.056   0.809  0.2740 -0.3314 -0.2023
 6454TIP3    H143557   2.674   3.013   0.793  0.1960 -0.1302 -0.3459
 6454TIP3    H243558   2.815   2.987   0.841 -0.1062 -0.3572  0.4338
 6455TIP3   OH243559   0.311   0.197   8.091 -0.2030 -0.0184  0.1088
 6455TIP3    H143560   0.278   0.284   8.113 -2.2802 -0.4873 -0.8547
 6455TIP3    H243561   0.319   0.152   8.175 -2.7939 -0.0709  0.4169
 6456TIP3   OH243562   1.653   6.648   9.708 -0.3762 -0.3392  0.2611
 6456TIP3    H143563   1.672   6.727   9.757 -0.2788 -1.7449  2.6524
 6456TIP3    H243564   1.709   6.653   9.630  1.2749  0.9013  1.4804
 6457TIP3   OH243565   0.433   5.256   8.497 -0.4646 -0.0746  0.1586
 6457TIP3    H143566   0.406   5.347   8.511  0.8143  0.3299  0.1166
 6457TIP3    H243567   0.501   5.241   8.561  1.4114 -0.0422 -1.7248
 6458TIP3   OH243568   5.447   6.303   8.032 -0.2701  0.3482 -0.3802
 6458TIP3    H143569   5.363   6.302   8.078  0.4255  0.1892  0.9628
 6458TIP3    H243570   5.434   6.362   7.958 -1.2142  1.2899  0.5042
 6459TIP3   OH243571   1.974   6.024   2.632  0.2255 -0.0192 -0.1628
 6459TIP3    H143572   1.901   6.043   2.573 -0.8234  0.6883  1.3020
 6459TIP3    H243573   1.973   5.929   2.642 -0.1669 -0.0630 -0.5616
 6460TIP3   OH243574   4.495   4.821   1.035  0.1495  0.0125 -0.0726
 6460TIP3    H143575   4.442   4.823   1.115 -0.8590  0.7919 -0.7446
 6460TIP3    H243576   4.565   4.885   1.051 -0.6570  0.9453 -0.2091
 6461TIP3   OH243577   6.013   3.816   1.098 -0.4211  0.4105  0.3467
 6461TIP3    H143578   6.026   3.835   1.006 -1.2799  0.3962  0.2197
 6461TIP3    H243579   6.076   3.872   1.143  0.7292 -0.3273 -0.2842
 6462TIP3   OH243580   3.423   3.394   9.020 -0.3305  0.4190 -0.1400
 6462TIP3    H143581   3.456   3.420   9.106  0.5336 -0.5041 -0.1876
 6462TIP3    H243582   3.456   3.461   8.960  1.5512 -0.5187 -0.1992
 6463TIP3   OH243583   4.518   0.547   1.305 -0.2726 -0.2314 -0.4733
 6463TIP3    H143584   4.474   0.582   1.227 -2.7640 -1.5368  0.2582
 6463TIP3    H243585   4.606   0.526   1.274 -1.3783 -1.4039 -3.1988
 6464TIP3   OH243586   5.440   0.176   7.246  0.0740 -0.2994 -0.0452
 6464TIP3    H143587   5.454   0.151   7.337 -0.3349 -0.8182 -0.1242
 6464TIP3    H243588   5.453   0.096   7.196 -1.0594 -0.3230 -0.3153
 6465TIP3   OH243589   2.635   0.785   2.305 -0.3285  0.6591  0.4018
 6465TIP3    H143590   2.684   0.706   2.284 -0.3127  0.7583  0.0622
 6465TIP3    H243591   2.680   0.823   2.380  0.4954  1.0841 -0.2906
 6466TIP3   OH243592   6.079   1.653   0.985  0.8335  0.2086 -0.0213
 6466TIP3    H143593   6.057   1.568   1.025  0.4820  1.0714  1.7434
 6466TIP3    H243594   6.133   1.697   1.051  0.0746  1.7921 -0.4033
 6467TIP3   OH243595   7.250   4.572   9.422 -0.3223 -0.4272 -0.3224
 6467TIP3    H143596   7.197   4.577   9.342  0.0127  1.5324 -0.4665
 6467TIP3    H243597   7.237   4.656   9.465  1.4199 -0.5069  0.4404
 6468TIP3   OH243598   6.193   4.628   0.181  0.3904  0.5486  0.0849
 6468TIP3    H143599   6.279   4.588   0.167  0.3942  1.0816 -1.7092
 6468TIP3    H243600   6.212   4.722   0.190  0.0596  0.5730  0.5483
 6469TIP3   OH243601   1.446   2.042   0.169 -0.1191 -0.1688  0.1832
 6469TIP3    H143602   1.479   2.125   0.133  0.4136 -0.4545  0.0003
 6469TIP3    H243603   1.478   2.041   0.259 -0.7969  0.1886  0.4296
 6470TIP3   OH243604   1.516   5.761   0.229 -0.5809  0.1520  0.0462
 6470TIP3    H143605   1.537   5.851   0.203 -0.0361 -0.1835 -0.7205
 6470TIP3    H243606   1.586   5.736   0.289  0.0804 -0.2333 -0.8524
 6471TIP3   OH243607   4.817   6.948   0.802 -0.4258 -0.4912 -0.3072
 6471TIP3    H143608   4.805   6.989   0.716  1.1274  1.5055  0.3757
 6471TIP3    H243609   4.883   7.001   0.845 -4.0105  1.2616  3.8233
 6472TIP3   OH243610   6.807   4.076   2.199 -0.3451 -0.2006  0.5075
 6472TIP3    H143611   6.813   4.171   2.187  0.1203 -0.3439 -0.5194
 6472TIP3    H243612   6.747   4.047   2.130 -1.8656 -0.4670  1.8888
 6473TIP3   OH243613   5.189   5.895   8.758 -0.0093 -0.2576  0.2493
 6473TIP3    H143614   5.154   5.810   8.783  0.4380 -0.0117  1.7903
 6473TIP3    H243615   5.182   5.949   8.837 -0.1691  1.1085 -0.6558
 6474TIP3   OH243616   0.637   0.972   8.677 -0.2051 -0.3827 -0.1043
 6474TIP3    H143617   0.712   1.022   8.645 -0.3558 -1.0812 -1.6404
 6474TIP3    H243618   0.564   1.034   8.676 -0.2615 -0.4384 -1.4315
 6475TIP3   OH243619   4.599   0.343   0.902 -0.0712 -0.4314  0.8313
 6475TIP3    H143620   4.630   0.430   0.879 -0.3570 -0.5399 -0.0125
 6475TIP3    H243621   4.516   0.358   0.948 -0.2750 -0.2676  0.4148
 6476TIP3   OH243622   2.719   4.481   0.815  0.0366  0.3211  0.7441
 6476TIP3    H143623   2.706   4.386   0.811 -0.0107  0.3380  0.5141
 6476TIP3    H243624   2.788   4.499   0.751 -0.4252  0.5271  0.2976
 6477TIP3   OH243625   5.169   5.575   2.402  0.0429 -0.0385  0.1759
 6477TIP3    H143626   5.157   5.663   2.436  0.0171 -0.2276  0.6662
 6477TIP3    H243627   5.167   5.518   2.479  1.0694 -0.3747 -0.0245
 6478TIP3   OH243628   4.862   5.198   9.445  0.1069  0.5374  0.0239
 6478TIP3    H143629   4.833   5.284   9.474  0.9671  0.6079  0.7283
 6478TIP3    H243630   4.958   5.202   9.448  0.1589 -0.7040  0.8910
 6479TIP3   OH243631   2.968   0.871   7.952 -0.3204 -0.8890 -0.4324
 6479TIP3    H143632   2.990   0.833   7.867  0.1993 -2.6204  0.4478
 6479TIP3    H243633   3.028   0.830   8.014 -2.1097 -1.3152  1.1099
 6480TIP3   OH243634   0.689   5.355   8.293 -0.0189 -0.0257  0.2402
 6480TIP3    H143635   0.680   5.403   8.376 -1.3165 -0.6334  0.4792
 6480TIP3    H243636   0.682   5.263   8.318 -0.0617 -0.2299 -0.5026
 6481TIP3   OH243637   2.838   1.200   9.697  0.0500 -0.3379 -0.1274
 6481TIP3    H143638   2.915   1.239   9.656 -1.4034  1.0666 -1.6631
 6481TIP3    H243639   2.764   1.248   9.659 -1.5837 -1.5871  1.3445
 6482TIP3   OH243640   2.303   3.689   1.492  0.4423  0.2291  0.4790
 6482TIP3    H143641   2.387   3.660   1.527  0.9394  0.7508 -0.2756
 6482TIP3    H243642   2.259   3.608   1.465  1.3819  0.0844 -0.6534
 6483TIP3   OH243643   2.352   5.947   0.570  0.4527 -0.0500  0.3049
 6483TIP3    H143644   2.280   5.940   0.633  0.8206  0.7050  0.8194
 6483TIP3    H243645   2.335   5.877   0.506 -1.2494  0.7085 -0.1141
 6484TIP3   OH243646   6.696   2.249   8.989 -0.3296 -0.4653 -0.0304
 6484TIP3    H143647   6.788   2.265   9.010  0.7681 -3.3097 -2.0863
 6484TIP3    H243648   6.679   2.304   8.913  0.6796 -2.1427 -1.5365
 6485TIP3   OH243649   6.018   3.544   9.246 -0.2682 -0.2350  0.1070
 6485TIP3    H143650   6.090   3.507   9.196 -1.5365 -1.4929 -0.8563
 6485TIP3    H243651   5.999   3.627   9.203  1.7489  1.0306  1.4925
 6486TIP3   OH243652   5.772   5.024   1.813 -0.0538  0.8958  0.6637
 6486TIP3    H143653   5.828   5.019   1.736  0.2571  1.9710  0.8057
 6486TIP3    H243654   5.819   5.083   1.873 -0.4069  0.2706  1.5721
 6487TIP3   OH243655   4.140   7.182   7.825 -0.4732  0.0174  0.3028
 6487TIP3    H143656   4.217   7.230   7.793 -0.3964 -0.0881  0.3266
 6487TIP3    H243657   4.065   7.232   7.794 -0.3858  0.4472  0.7824
 6488TIP3   OH243658   3.398   0.310   7.135 -1.0918  0.6368 -0.0761
 6488TIP3    H143659   3.443   0.282   7.055 -0.3016  1.5057  0.0502
 6488TIP3    H243660   3.467   0.317   7.200 -1.6863  0.2717  0.6112
 6489TIP3   OH243661   6.191   5.519   2.364  0.3040  0.2739 -0.2231
 6489TIP3    H143662   6.254   5.451   2.386  0.5177 -0.1783 -2.0404
 6489TIP3    H243663   6.143   5.535   2.446 -0.8238 -3.1861 -0.0140
 6490TIP3   OH243664   1.486   3.777   7.834 -0.2202  0.8824 -0.0555
 6490TIP3    H143665   1.526   3.848   7.885  0.7750  1.3203 -1.3862
 6490TIP3    H243666   1.469   3.816   7.748  1.7652 -0.8541 -1.3179
 6491TIP3   OH243667   0.841   0.446   8.405  0.6483  0.0491  0.1331
 6491TIP3    H143668   0.788   0.526   8.402  1.1105  0.3333 -0.7655
 6491TIP3    H243669   0.925   0.470   8.366  1.4715 -0.3970  1.5449
 6492TIP3   OH243670   4.720   1.023   9.278 -0.3394 -0.5614  0.2947
 6492TIP3    H143671   4.662   1.038   9.353 -0.3804 -1.4676  0.4563
 6492TIP3    H243672   4.669   0.967   9.219 -0.2557  0.0280 -0.3540
 6493TIP3   OH243673   5.501   4.638   0.551  0.5389 -0.1854  0.3298
 6493TIP3    H143674   5.461   4.647   0.465  2.3543  2.5433 -0.3627
 6493TIP3    H243675   5.464   4.710   0.602  3.4148  1.6685  0.0274
 6494TIP3   OH243676   5.236   5.577   8.414  0.0378  0.4229  0.1492
 6494TIP3    H143677   5.157   5.610   8.371  0.2841 -1.2656 -1.7576
 6494TIP3    H243678   5.209   5.493   8.451  0.5794  0.5245  0.7918
 6495TIP3   OH243679   6.355   1.305   9.988 -0.2909  0.1184 -0.3012
 6495TIP3    H143680   6.270   1.261   9.997 -0.3988  0.5463  0.9078
 6495TIP3    H243681   6.386   1.316  10.078  3.0128 -3.6961 -0.6649
 6496TIP3   OH243682   0.243   5.183   9.802  0.2149 -0.2845 -0.1893
 6496TIP3    H143683   0.161   5.230   9.818  0.9746  0.4377  1.9608
 6496TIP3    H243684   0.256   5.189   9.708 -2.6801 -1.2921 -0.7814
 6497TIP3   OH243685   3.174   5.844   7.514  0.2088  0.4130 -0.2587
 6497TIP3    H143686   3.097   5.887   7.552  0.1060  1.8459 -1.9176
 6497TIP3    H243687   3.235   5.916   7.496  2.7185 -0.8189  2.4677
 6498TIP3   OH243688   5.765   4.743   2.546 -0.0815 -0.7426 -0.5111
 6498TIP3    H143689   5.712   4.734   2.467  1.0450  0.8462 -1.5274
 6498TIP3    H243690   5.855   4.736   2.515  0.4644  1.7909  0.2549
 6499TIP3   OH243691   5.569   4.888   8.053  0.2559 -0.2048 -0.6258
 6499TIP3    H143692   5.595   4.796   8.042 -0.1072 -0.2325 -1.3107
 6499TIP3    H243693   5.474   4.885   8.058  0.3159 -0.1330  2.1368
 6500TIP3   OH243694   0.283   6.877   2.112 -0.5714  0.4112 -0.6477
 6500TIP3    H143695   0.354   6.866   2.175 -0.8163  2.1951 -0.0338
 6500TIP3    H243696   0.220   6.935   2.155 -0.6555  1.8511 -2.5710
 6501TIP3   OH243697   2.660   0.672   7.828 -0.1005 -0.2056 -0.0120
 6501TIP3    H143698   2.689   0.651   7.739 -0.2202 -1.5710  0.2395
 6501TIP3    H243699   2.694   0.760   7.845 -0.2456  0.1482 -1.4740
 6502TIP3   OH243700   4.970   0.384   0.973  0.1830  0.1090 -0.0419
 6502TIP3    H143701   5.058   0.385   1.011  0.7643 -0.7654 -1.2815
 6502TIP3    H243702   4.921   0.449   1.023  1.6214  0.8443  0.4652
 6503TIP3   OH243703   2.110   5.831   0.737  0.6052 -0.2428 -0.7009
 6503TIP3    H143704   2.094   5.737   0.735  0.4356 -0.3498  2.2543
 6503TIP3    H243705   2.079   5.862   0.652 -1.1692 -2.5779 -0.9959
 6504TIP3   OH243706   5.410   3.473   2.106 -0.3760 -0.1093 -0.0357
 6504TIP3    H143707   5.483   3.446   2.050 -1.3958 -0.7446 -1.1152
 6504TIP3    H243708   5.370   3.546   2.058  0.0460  0.8183  0.9769
 6505TIP3   OH243709   0.835   3.934   0.136  0.2568 -1.1062 -0.2060
 6505TIP3    H143710   0.843   3.923   0.041 -0.8690 -0.6626 -0.3741
 6505TIP3    H243711   0.871   4.021   0.153 -0.3074 -0.8391 -0.3541
 6506TIP3   OH243712   3.280   3.873   2.705  0.0871  0.2580 -0.0424
 6506TIP3    H143713   3.318   3.937   2.645 -0.5087  0.9416  0.2982
 6506TIP3    H243714   3.326   3.887   2.788 -0.5139  0.7257  0.2230
 6507TIP3   OH243715   1.835   3.467   8.736 -0.1242  0.1924 -0.2240
 6507TIP3    H143716   1.820   3.377   8.766  0.9963 -0.5438 -1.7355
 6507TIP3    H243717   1.760   3.516   8.770 -1.2978 -1.5220 -0.1991
 6508TIP3   OH243718   5.193   1.087   8.529  0.1467 -0.4771  0.0726
 6508TIP3    H143719   5.123   1.023   8.517 -0.7413  0.2204  1.2809
 6508TIP3    H243720   5.261   1.061   8.467 -0.9613 -1.4839 -0.7550
 6509TIP3   OH243721   4.632   3.699   9.885  0.1506 -0.6665 -0.6610
 6509TIP3    H143722   4.600   3.788   9.897 -0.6892 -0.8739 -1.2478
 6509TIP3    H243723   4.566   3.657   9.830  0.2572 -1.8109  0.0460
 6510TIP3   OH243724   2.088   7.172   9.219 -0.0058 -0.3921  0.1089
 6510TIP3    H143725   2.104   7.250   9.272 -0.5031 -0.6565  0.6608
 6510TIP3    H243726   2.145   7.183   9.143  1.1524 -0.2683  0.9533
 6511TIP3   OH243727   0.464   0.764   1.602  0.3042 -0.2182 -0.1957
 6511TIP3    H143728   0.507   0.738   1.684  0.2169 -0.0786 -0.1049
 6511TIP3    H243729   0.481   0.692   1.542  0.3441 -0.3349 -0.0443
 6512TIP3   OH243730   2.927   3.555   8.050  0.4932  0.1476 -0.2749
 6512TIP3    H143731   2.887   3.482   8.098  0.7727  1.2394  1.7563
 6512TIP3    H243732   2.854   3.614   8.030  0.5300  0.2224 -0.1900
 6513TIP3   OH243733   1.780   1.320   9.216 -0.5337 -0.4300  0.0822
 6513TIP3    H143734   1.717   1.314   9.288 -0.0098 -0.0853  0.5847
 6513TIP3    H243735   1.734   1.370   9.148  0.0277  2.1341  1.4369
 6514TIP3   OH243736   1.530   5.237   0.265  0.2456 -0.0105  0.1167
 6514TIP3    H143737   1.513   5.144   0.247  0.4851  0.1900 -1.2284
 6514TIP3    H243738   1.553   5.239   0.358  0.0086 -1.2699  0.2231
 6515TIP3   OH243739   4.097   5.788   0.483  0.0343 -0.3938 -0.3166
 6515TIP3    H143740   4.118   5.740   0.403 -2.6142  0.5798 -1.7180
 6515TIP3    H243741   4.071   5.721   0.546 -0.5350 -1.0051 -1.1941
 6516TIP3   OH243742   0.861   6.769   8.579  0.1514 -0.0221  0.3309
 6516TIP3    H143743   0.884   6.862   8.579  1.9649 -0.4161 -0.6063
 6516TIP3    H243744   0.945   6.723   8.571 -0.8038 -1.6726 -1.1856
 6517TIP3   OH243745   1.247   3.654   7.727  0.1359  0.1537  0.1260
 6517TIP3    H143746   1.259   3.559   7.731  1.9684  0.0581 -3.4279
 6517TIP3    H243747   1.324   3.689   7.772 -0.2833 -0.0567  1.0087
 6518TIP3   OH243748   0.300   5.383   1.500 -0.7815 -0.3386  0.1954
 6518TIP3    H143749   0.374   5.350   1.449 -0.0153  0.1184  0.9725
 6518TIP3    H243750   0.259   5.449   1.443  0.7394  0.9770  0.5562
 6519TIP3   OH243751   4.947   0.629   0.797 -0.0621 -0.2183  0.1077
 6519TIP3    H143752   4.922   0.640   0.889 -0.7638 -1.6612  0.1216
 6519TIP3    H243753   4.994   0.546   0.795 -0.8008 -0.6293 -0.9721
 6520TIP3   OH243754   4.318   4.038   9.832 -0.2056 -0.4526  0.1340
 6520TIP3    H143755   4.285   4.110   9.778  1.7285  0.4964  0.1279
 6520TIP3    H243756   4.250   3.971   9.827 -0.7814  0.2267 -2.1986
 6521TIP3   OH243757   4.631   5.255   1.469  0.7316  0.1392 -0.2224
 6521TIP3    H143758   4.590   5.173   1.439 -0.5585  0.1819  1.2889
 6521TIP3    H243759   4.557   5.313   1.488  1.5820  1.0681  0.3536
 6522TIP3   OH243760   6.690   0.547   0.751  0.0413 -0.3007 -0.0824
 6522TIP3    H143761   6.779   0.582   0.758 -0.4266  0.9942 -0.4223
 6522TIP3    H243762   6.704   0.454   0.730  1.3119 -0.8431  2.6659
 6523TIP3   OH243763   1.930   0.229   3.429  0.0692 -0.0502  0.3485
 6523TIP3    H143764   1.958   0.173   3.501 -0.4436 -0.5573  0.1543
 6523TIP3    H243765   1.948   0.318   3.460 -0.3436 -0.2504  1.1883
 6524TIP3   OH243766   7.454   0.696   9.038 -0.7119  0.0633 -0.1053
 6524TIP3    H143767   7.525   0.743   9.082  0.7717 -1.0337 -1.2100
 6524TIP3    H243768   7.392   0.675   9.109  0.2060  0.7891  0.9518
 6525TIP3   OH243769   6.499   5.192   1.509  0.0214  0.6284 -0.4159
 6525TIP3    H143770   6.483   5.253   1.581 -2.7560  1.2427 -1.4059
 6525TIP3    H243771   6.476   5.106   1.545 -1.4636  0.9457 -0.5375
 6526TIP3   OH243772   7.336   4.595   0.365  0.3907  0.3921 -0.1095
 6526TIP3    H143773   7.269   4.629   0.306  0.8938  1.2389 -0.2234
 6526TIP3    H243774   7.362   4.671   0.418 -0.1348 -0.3831  1.2977
 6527TIP3   OH243775   0.938   1.382   7.943  0.0854 -0.2695 -0.1699
 6527TIP3    H143776   0.976   1.297   7.962 -0.4250 -0.5238 -0.2679
 6527TIP3    H243777   0.985   1.413   7.865 -1.7472 -1.8091 -1.9911
 6528TIP3   OH243778   2.006   1.753   8.626  0.7874 -0.5164 -0.1765
 6528TIP3    H143779   1.946   1.772   8.555  2.5051 -0.6895 -1.7613
 6528TIP3    H243780   1.997   1.827   8.686 -1.9973 -1.2399  0.4120
 6529TIP3   OH243781   0.791   3.223   8.776 -0.4741 -0.3470 -0.1115
 6529TIP3    H143782   0.759   3.296   8.828 -0.2736 -0.3266 -0.0127
 6529TIP3    H243783   0.716   3.193   8.726 -0.1256  1.1841 -1.6540
 6530TIP3   OH243784   0.990   7.323   1.004 -0.5894  0.2563  0.2577
 6530TIP3    H143785   0.982   7.230   0.982  1.5112  0.1132 -0.1580
 6530TIP3    H243786   0.901   7.351   1.025 -1.0203 -2.3780  2.5563
 6531TIP3   OH243787   3.143   7.349   1.193 -0.3948  0.1158 -0.4387
 6531TIP3    H143788   3.130   7.361   1.287 -0.0275  0.2916 -0.4107
 6531TIP3    H243789   3.197   7.423   1.166 -0.4936  0.0646 -0.7903
 6532TIP3   OH243790   6.826   0.211   0.009 -0.4627  0.0016 -0.4069
 6532TIP3    H143791   6.858   0.292  -0.032  2.8557 -0.8334  0.2347
 6532TIP3    H243792   6.879   0.142  -0.030 -1.1801 -1.5232  1.1901
 6533TIP3   OH243793   7.065   2.426   9.734  0.3685  0.2467  0.5789
 6533TIP3    H143794   7.122   2.371   9.680  0.7953 -0.6166  1.8827
 6533TIP3    H243795   7.108   2.512   9.732 -0.7038  0.8311 -2.0831
 6534TIP3   OH243796   6.322   0.008   9.577  0.3962  0.8428 -0.4487
 6534TIP3    H143797   6.409   0.012   9.616  0.9023 -2.8261 -0.8065
 6534TIP3    H243798   6.263   0.037   9.647  1.6843 -0.0993  1.0871
 6535TIP3   OH243799   1.140   5.816   8.277  0.0976 -0.1147  0.6611
 6535TIP3    H143800   1.084   5.740   8.290 -0.7447  0.1096 -1.3265
 6535TIP3    H243801   1.213   5.784   8.225 -0.2864  0.4188 -0.2320
 6536TIP3   OH243802   1.015   6.738   2.990 -0.5012  0.6391 -0.4197
 6536TIP3    H143803   1.069   6.687   3.050 -0.1960  1.3999 -0.0331
 6536TIP3    H243804   0.926   6.729   3.024 -0.4162  0.5495 -0.2198
 6537TIP3   OH243805   7.141   3.321   8.932 -0.3669  0.5889  0.0211
 6537TIP3    H143806   7.132   3.338   9.026 -0.1920 -1.4820  0.4648
 6537TIP3    H243807   7.076   3.378   8.891 -2.1963 -0.2294  1.6162
 6538TIP3   OH243808   2.418   3.980   0.473 -0.4007 -1.0214  0.0214
 6538TIP3    H143809   2.407   3.954   0.564 -0.7901 -1.6079 -0.1780
 6538TIP3    H243810   2.328   3.983   0.438 -0.2359 -1.1762 -0.4314
 6539TIP3   OH243811   4.898   4.723   1.033 -0.2413 -0.4096  0.3923
 6539TIP3    H143812   4.906   4.818   1.041 -1.3030 -0.3601  1.0011
 6539TIP3    H243813   4.982   4.695   0.996 -0.5367  0.9267 -1.4276
 6540TIP3   OH243814   1.920   2.335   1.575  0.0815  0.2286  0.2303
 6540TIP3    H143815   1.982   2.388   1.625 -2.7806  3.2442  0.9147
 6540TIP3    H243816   1.895   2.264   1.635  1.2905  0.1522  0.6689
 6541TIP3   OH243817   6.785   5.393   0.702  0.6132 -0.0372 -0.1869
 6541TIP3    H143818   6.759   5.448   0.777  0.2886 -1.2741  0.6439
 6541TIP3    H243819   6.754   5.306   0.726  0.9890 -0.5531 -1.5482
 6542TIP3   OH243820   6.494   6.615   1.498 -0.4401 -0.1645  0.2044
 6542TIP3    H143821   6.550   6.691   1.481 -0.0952 -0.4192  0.2079
 6542TIP3    H243822   6.411   6.653   1.527  0.0387  0.1904  1.1348
 6543TIP3   OH243823   7.445   0.291   8.262  0.3463 -0.4824  0.2450
 6543TIP3    H143824   7.462   0.226   8.194  0.5913 -1.4653  1.2196
 6543TIP3    H243825   7.527   0.297   8.311  0.3193  0.5620  0.1665
 6544TIP3   OH243826   2.681   6.863   8.903  0.0534  0.5359 -0.3158
 6544TIP3    H143827   2.620   6.791   8.886 -0.0924  1.1234 -2.5950
 6544TIP3    H243828   2.746   6.825   8.962 -0.5128 -1.2183 -0.7389
 6545TIP3   OH243829   4.032   0.428   2.545  0.3322 -0.0930  0.0599
 6545TIP3    H143830   3.996   0.439   2.633 -2.7579  0.4629 -1.1506
 6545TIP3    H243831   4.074   0.342   2.547 -0.3970 -0.4488  1.8477
 6546TIP3   OH243832   3.260   2.284   9.426 -0.0582 -0.0434 -0.1300
 6546TIP3    H143833   3.263   2.267   9.520 -0.2029 -0.0922 -0.1335
 6546TIP3    H243834   3.309   2.365   9.415 -0.4133  0.1979  0.0448
 6547TIP3   OH243835   5.776   2.228   9.311 -0.2292 -0.5721  0.3246
 6547TIP3    H143836   5.727   2.154   9.347 -0.2206 -0.7991 -0.1270
 6547TIP3    H243837   5.792   2.285   9.387 -1.1141 -0.5342  0.5009
 6548TIP3   OH243838   6.493   1.885   0.734 -0.5730  0.4085  0.1664
 6548TIP3    H143839   6.498   1.893   0.639 -0.1067  2.0443  0.2915
 6548TIP3    H243840   6.583   1.865   0.761 -0.9998 -1.6500  0.1713
 6549TIP3   OH243841   4.441   5.986   7.752 -0.1289 -0.5111  0.6901
 6549TIP3    H143842   4.502   5.983   7.678 -1.3705 -0.0011 -0.3926
 6549TIP3    H243843   4.482   5.931   7.819  1.2394 -0.6305 -0.2023
 6550TIP3   OH243844   5.764   1.381   1.859 -0.3874  0.2807 -1.1986
 6550TIP3    H143845   5.675   1.377   1.824 -0.2209 -2.8858 -1.5769
 6550TIP3    H243846   5.753   1.405   1.951 -1.4820  1.1732 -1.5424
 6551TIP3   OH243847   0.442   6.731   9.786  0.3219  0.6703  0.2486
 6551TIP3    H143848   0.479   6.646   9.808  0.2446  0.8900  1.2674
 6551TIP3    H243849   0.438   6.778   9.869 -1.7407  0.8498  0.0957
 6552TIP3   OH243850   1.210   5.553   8.415  0.7015  0.1160  0.6922
 6552TIP3    H143851   1.207   5.600   8.499  0.5643 -0.3797  0.9704
 6552TIP3    H243852   1.120   5.555   8.384  1.3016  3.6108 -1.3432
 6553TIP3   OH243853   4.833   1.205   8.540  0.2666 -0.2003  0.3842
 6553TIP3    H143854   4.836   1.122   8.493  0.6191 -0.7819  1.3974
 6553TIP3    H243855   4.902   1.258   8.500 -0.2539 -0.2222 -0.5633
 6554TIP3   OH243856   4.083   5.523   7.892 -0.8123 -0.1222  0.2782
 6554TIP3    H143857   4.032   5.497   7.969 -0.3866 -2.3955 -0.1484
 6554TIP3    H243858   4.161   5.565   7.928 -0.5646 -1.2603  1.1143
 6555TIP3   OH243859   1.594   7.385   9.749 -0.6199 -0.3845 -0.4390
 6555TIP3    H143860   1.566   7.304   9.707 -2.3346  0.4759 -1.0537
 6555TIP3    H243861   1.611   7.445   9.677 -1.6071  0.4920  0.0311
 6556TIP3   OH243862   1.665   6.567   7.493  1.2317 -0.6180 -0.1767
 6556TIP3    H143863   1.658   6.662   7.490 -0.5012 -0.7209 -0.1186
 6556TIP3    H243864   1.748   6.551   7.539  2.1430  0.8421 -1.2370
 6557TIP3   OH243865   2.630   3.075   9.225 -0.0870 -0.7216 -0.2918
 6557TIP3    H143866   2.673   3.153   9.191  1.7440 -1.7102 -0.3819
 6557TIP3    H243867   2.596   3.101   9.311 -2.0001  0.9123 -1.4550
 6558TIP3   OH243868   4.248   2.763   2.296 -0.6322 -0.3562  0.1942
 6558TIP3    H143869   4.330   2.813   2.300 -1.1476  0.5219  0.1004
 6558TIP3    H243870   4.263   2.688   2.353  0.2619 -0.2435  0.1248
 6559TIP3   OH243871   0.589   4.804   1.587 -0.2934 -0.1945  0.3539
 6559TIP3    H143872   0.648   4.736   1.554  1.1134  0.4716  1.3680
 6559TIP3    H243873   0.503   4.778   1.556  0.5279 -1.2006 -1.2084
 6560TIP3   OH243874   4.390   4.602   9.042 -0.3916  0.1497  0.5305
 6560TIP3    H143875   4.363   4.691   9.017 -0.2200 -0.1233 -0.6816
 6560TIP3    H243876   4.478   4.593   9.004  0.7712  0.4273  2.9794
 6561TIP3   OH243877   5.934   1.648   0.191  0.1829 -0.2087  0.4220
 6561TIP3    H143878   5.905   1.605   0.272  1.6206 -0.3350  0.9138
 6561TIP3    H243879   6.008   1.702   0.219  0.1883  0.3709 -0.6822
 6562TIP3   OH243880   1.405   5.150   2.119  0.0881  0.1632  0.2434
 6562TIP3    H143881   1.321   5.189   2.141 -0.6548 -0.0617 -1.9523
 6562TIP3    H243882   1.400   5.131   2.025  2.6111  0.1898  0.0135
 6563TIP3   OH243883   1.066   7.154   0.587 -0.2670  0.0556 -0.4819
 6563TIP3    H143884   1.147   7.147   0.537  1.2449  1.5680  1.5660
 6563TIP3    H243885   1.021   7.071   0.571  1.8670 -1.0211 -1.3721
 6564TIP3   OH243886   6.834   1.189   2.136  0.1667  0.5058 -0.1490
 6564TIP3    H143887   6.877   1.107   2.162 -0.9541  0.5051  1.9881
 6564TIP3    H243888   6.752   1.189   2.185 -0.0109  2.7657 -0.3279
 6565TIP3   OH243889   2.798   0.993   1.722 -0.3180 -0.2868 -0.0570
 6565TIP3    H143890   2.852   0.971   1.647 -1.0170  0.8171 -0.9170
 6565TIP3    H243891   2.849   1.058   1.771 -0.6622  0.4466 -0.6469
 6566TIP3   OH243892   1.727   1.978   7.329  0.4349  0.6202 -0.3404
 6566TIP3    H143893   1.737   2.073   7.323 -0.3819  0.6831 -0.8063
 6566TIP3    H243894   1.662   1.957   7.262  0.6845 -0.2795 -0.2997
 6567TIP3   OH243895   3.025   5.895   9.519  0.1564  0.3620 -0.2848
 6567TIP3    H143896   2.997   5.986   9.515  1.8188  0.8418 -2.4733
 6567TIP3    H243897   2.949   5.845   9.489  0.0444  1.2452 -1.5376
 6568TIP3   OH243898   5.561   1.752   8.321 -0.4367  0.2450  0.7461
 6568TIP3    H143899   5.608   1.782   8.244 -1.3702  0.4058  0.2238
 6568TIP3    H243900   5.589   1.661   8.332  0.2174  0.4250  0.6340
 6569TIP3   OH243901   3.752   6.166   2.714 -0.1593  0.3446  0.7505
 6569TIP3    H143902   3.722   6.256   2.721  0.7306  0.9473 -1.8915
 6569TIP3    H243903   3.843   6.168   2.743  0.2918  0.6346 -0.6154
 6570TIP3   OH243904   3.706   2.872   1.322  0.0986 -0.0532 -0.1217
 6570TIP3    H143905   3.784   2.921   1.347  0.9396 -0.6843 -1.4219
 6570TIP3    H243906   3.646   2.938   1.288  0.4454  0.3140 -0.0298
 6571TIP3   OH243907   1.784   0.922   0.070  0.7609 -0.3421  0.1460
 6571TIP3    H143908   1.710   0.881   0.114  0.8910  0.2447  0.9404
 6571TIP3    H243909   1.804   0.864  -0.003 -0.8615 -0.2139 -0.4392
 6572TIP3   OH243910   3.408   7.437   6.919  0.0344  0.4898  0.0409
 6572TIP3    H143911   3.395   7.513   6.974 -0.4745  0.2161  0.3106
 6572TIP3    H243912   3.390   7.362   6.976 -1.5511  0.2233 -0.7357
 6573TIP3   OH243913   3.787   3.147   0.057 -0.6570  0.0013  0.4825
 6573TIP3    H143914   3.713   3.199   0.025  1.1910  1.7006 -1.2798
 6573TIP3    H243915   3.761   3.056   0.039 -1.2076  0.6857 -2.8136
 6574TIP3   OH243916   0.078   3.308   9.170  0.3899  0.1388  0.5691
 6574TIP3    H143917   0.071   3.257   9.089 -2.7067 -2.8091  2.3841
 6574TIP3    H243918   0.001   3.365   9.169 -0.2806 -0.6961  1.8143
 6575TIP3   OH243919   2.693   3.738   9.844 -0.5204 -0.5853  0.5258
 6575TIP3    H143920   2.725   3.657   9.883 -0.8061 -0.7065  0.5074
 6575TIP3    H243921   2.600   3.741   9.867 -0.3818  0.0318  1.0343
 6576TIP3   OH243922   4.576   5.185   8.065  0.0453 -0.2443 -0.2257
 6576TIP3    H143923   4.662   5.146   8.051 -0.5986 -1.8853  0.1841
 6576TIP3    H243924   4.532   5.126   8.126 -0.9518  1.2001  0.5355
 6577TIP3   OH243925   6.740   5.230   1.403  0.3661  0.0960 -0.1679
 6577TIP3    H143926   6.650   5.217   1.431  0.1293 -0.7331 -1.2617
 6577TIP3    H243927   6.734   5.261   1.313  1.1447  1.7034  0.2936
 6578TIP3   OH243928   4.455   3.032   9.291  0.1575 -0.5729 -0.4864
 6578TIP3    H143929   4.550   3.045   9.293  0.3351 -1.6166  2.1222
 6578TIP3    H243930   4.420   3.108   9.338 -0.0317 -1.5983  1.0833
 6579TIP3   OH243931   5.964   3.338   1.419  0.0859  0.0167 -0.0486
 6579TIP3    H143932   5.903   3.412   1.423 -0.3189 -0.3131 -0.0914
 6579TIP3    H243933   5.942   3.286   1.496  1.9049  1.1199  1.3069
 6580TIP3   OH243934   4.116   1.312   1.371 -0.5690  0.5300  0.8275
 6580TIP3    H143935   4.092   1.254   1.298 -0.7054 -1.6843  2.5251
 6580TIP3    H243936   4.200   1.278   1.402 -0.0705  1.9977  1.1845
 6581TIP3   OH243937   2.117   1.957   9.015 -0.3733 -0.2032  0.7693
 6581TIP3    H143938   2.109   1.915   9.101 -1.4236 -1.3252  0.1374
 6581TIP3    H243939   2.192   1.912   8.974 -1.3139 -1.3041  0.2087
 6582TIP3   OH243940   1.722   7.260   1.991 -0.2228  0.1966 -0.2089
 6582TIP3    H143941   1.750   7.324   2.057 -1.4670 -0.0537  0.5928
 6582TIP3    H243942   1.753   7.296   1.908 -0.7359  1.7650  0.2454
 6583TIP3   OH243943   2.210   5.619   9.847 -0.2828  0.2875 -0.5986
 6583TIP3    H143944   2.212   5.640   9.941 -0.0608 -0.6110 -0.3930
 6583TIP3    H243945   2.130   5.660   9.815  0.3998  1.8975 -0.3384
 6584TIP3   OH243946   7.236   3.917   1.407  0.4481 -0.2580  0.1310
 6584TIP3    H143947   7.172   3.846   1.411  0.7859 -0.5274  1.2140
 6584TIP3    H243948   7.308   3.881   1.356  0.2861 -0.4183  0.0155
 6585TIP3   OH243949   2.061   3.476   7.178  0.5130  0.1449  0.2396
 6585TIP3    H143950   2.055   3.542   7.247  0.9247 -1.1718  1.5894
 6585TIP3    H243951   2.009   3.403   7.209 -1.2348  0.3524 -1.9339
 6586TIP3   OH243952   1.947   7.094   9.010  0.2276 -0.3557  0.5195
 6586TIP3    H143953   1.969   7.110   9.101  1.0985  1.0199  0.1056
 6586TIP3    H243954   1.867   7.143   8.995  0.2860 -0.2784  0.4576
 6587TIP3   OH243955   1.945   5.667   9.788 -0.1846  0.9075  0.2808
 6587TIP3    H143956   1.885   5.682   9.862  0.2243  1.4131  0.5166
 6587TIP3    H243957   1.896   5.698   9.712 -0.6997  0.1708  0.2968
 6588TIP3   OH243958   3.154   4.724   8.111  0.4804 -0.0989  0.0286
 6588TIP3    H143959   3.245   4.706   8.087  1.0400  1.9468  0.4553
 6588TIP3    H243960   3.105   4.649   8.075  1.7565  0.7326 -3.9906
 6589TIP3   OH243961   0.542   7.088   1.308 -0.6957 -0.2602 -0.1070
 6589TIP3    H143962   0.547   7.159   1.371 -1.8292  0.5423 -0.8860
 6589TIP3    H243963   0.592   7.017   1.348  2.4920  1.6898 -0.3436
 6590TIP3   OH243964   4.162   0.297   2.204  0.7199 -0.3144 -0.0514
 6590TIP3    H143965   4.129   0.380   2.170 -0.6030 -0.6299  0.3799
 6590TIP3    H243966   4.221   0.265   2.136  1.7804  1.2669  0.0576
 6591TIP3   OH243967   1.812   0.902   2.132 -1.2425 -0.1076 -0.2173
 6591TIP3    H143968   1.839   0.811   2.141 -1.3510 -0.0990  0.2019
 6591TIP3    H243969   1.758   0.919   2.209 -0.2824  0.6529  0.3166
 6592TIP3   OH243970   5.360   3.126   9.625 -0.5748  0.0480  0.5155
 6592TIP3    H143971   5.345   3.185   9.698 -3.3050  0.2789 -0.1563
 6592TIP3    H243972   5.451   3.097   9.636 -0.9495 -0.1618  4.1543
 6593TIP3   OH243973   4.976   5.661   0.139 -0.1472 -0.0559  0.4645
 6593TIP3    H143974   4.912   5.621   0.198 -0.3059 -1.0319 -0.3581
 6593TIP3    H243975   4.948   5.753   0.133 -2.2107 -0.7072 -0.8245
 6594TIP3   OH243976   1.352   3.514   1.449 -0.1918  0.4654 -0.4094
 6594TIP3    H143977   1.385   3.586   1.503  0.0538 -1.0712  1.5942
 6594TIP3    H243978   1.427   3.491   1.393  0.1553  0.8937 -0.1339
 6595TIP3   OH243979   4.171   0.490   9.977  0.1519  0.0307 -0.2253
 6595TIP3    H143980   4.219   0.462  10.055 -0.1759 -1.8990 -0.6815
 6595TIP3    H243981   4.083   0.456   9.990 -0.2853  0.9126 -0.8057
 6596TIP3   OH243982   2.973   1.901   2.048 -0.1143 -0.2384  0.1259
 6596TIP3    H143983   2.895   1.869   2.094  0.1779  1.9059  2.3159
 6596TIP3    H243984   2.938   1.954   1.976 -0.7247  0.8322  1.1811
 6597TIP3   OH243985   7.230   7.068   9.763 -0.1185 -0.0293  0.3413
 6597TIP3    H143986   7.279   7.023   9.832  0.2972  0.3809  0.3231
 6597TIP3    H243987   7.145   7.086   9.802 -0.9855 -2.4606 -0.2620
 6598TIP3   OH243988   4.380   1.526   9.889 -0.0096  0.1847  0.6036
 6598TIP3    H143989   4.334   1.452   9.850 -0.5113  0.9042 -0.1952
 6598TIP3    H243990   4.423   1.570   9.816 -0.9133  1.5141  0.8276
 6599TIP3   OH243991   2.608   3.896   0.272  0.3577 -1.0739  0.7025
 6599TIP3    H143992   2.554   3.924   0.346 -0.3612  1.0412 -0.5313
 6599TIP3    H243993   2.593   3.963   0.205  2.2328 -2.0468 -0.7799
 6600TIP3   OH243994   0.010   4.080   9.491  0.0023 -0.4085 -0.1127
 6600TIP3    H143995  -0.065   4.138   9.477  0.6784  1.1781  2.2061
 6600TIP3    H243996  -0.020   4.017   9.556  0.5793  0.1227  0.6911
 6601TIP3   OH243997   3.815   6.689   3.080  0.0313  0.6437 -0.9240
 6601TIP3    H143998   3.842   6.781   3.078 -0.0295  0.6607 -0.9648
 6601TIP3    H243999   3.807   6.664   2.988  1.3081  0.2293 -0.9405
 6602TIP3   OH244000   0.806   3.878   9.870  0.4589 -0.5895  0.3386
 6602TIP3    H144001   0.790   3.923   9.787  1.1966 -1.8859 -0.5379
 6602TIP3    H244002   0.888   3.831   9.856  0.5815 -0.8461  1.8047
 6603TIP3   OH244003   3.672   4.862   0.810  0.3805 -0.2520 -0.0058
 6603TIP3    H144004   3.680   4.777   0.767  0.0858 -0.9094  1.1878
 6603TIP3    H244005   3.754   4.871   0.859  0.4443  0.1975 -0.1895
 6604TIP3   OH244006   5.653   2.631   7.683  0.5520 -0.2504 -0.1719
 6604TIP3    H144007   5.611   2.699   7.631 -0.2587  0.6895  1.6120
 6604TIP3    H244008   5.582   2.595   7.737  1.2110 -1.7035 -0.2252
 6605TIP3   OH244009   2.875   4.192   1.253 -0.7422 -0.4702 -0.6056
 6605TIP3    H144010   2.842   4.268   1.302  0.2164 -1.5232  1.8430
 6605TIP3    H244011   2.860   4.215   1.162  0.2037  3.0375 -0.0563
 6606TIP3   OH244012   7.246   2.738   1.662  0.0323  0.3196 -0.1794
 6606TIP3    H144013   7.279   2.716   1.576  2.7451 -2.5679  1.4019
 6606TIP3    H244014   7.193   2.662   1.688 -1.6142  1.5845  0.3825
 6607TIP3   OH244015   0.315   4.682   8.391  0.6275  0.2517  0.5204
 6607TIP3    H144016   0.372   4.662   8.465  1.4030  0.6497  0.0397
 6607TIP3    H244017   0.298   4.776   8.398  2.0788  0.6476 -0.7320
 6608TIP3   OH244018   1.888   1.539   8.446  0.6664  0.2924  0.0613
 6608TIP3    H144019   1.981   1.538   8.423  0.6221 -1.1689 -0.1447
 6608TIP3    H244020   1.863   1.631   8.438  2.2658  0.8524  0.8797
 6609TIP3   OH244021   4.267   5.304   0.220 -0.3821 -0.0015  0.0499
 6609TIP3    H144022   4.192   5.246   0.235 -0.3322 -0.5095 -1.5104
 6609TIP3    H244023   4.232   5.374   0.166  0.1168  0.1401 -0.0882
 6610TIP3   OH244024   5.437   4.692   3.050  0.5600  0.5014  0.6666
 6610TIP3    H144025   5.421   4.756   2.981  0.6174 -0.6153 -0.4261
 6610TIP3    H244026   5.367   4.706   3.113 -0.1353  0.8347 -0.1604
 6611TIP3   OH244027   0.094   0.217   1.720 -0.0241  0.5810 -0.4954
 6611TIP3    H144028   0.034   0.208   1.794  0.1220  1.3408 -0.2814
 6611TIP3    H244029   0.043   0.189   1.644  0.1378 -1.1995  0.0118
 6612TIP3   OH244030   4.074   4.410   0.551  0.6497 -0.5891 -0.5613
 6612TIP3    H144031   4.032   4.422   0.466  1.5680 -2.1615 -1.2890
 6612TIP3    H244032   4.041   4.325   0.582  0.4251 -0.0917  0.6095
 6613TIP3   OH244033   1.171   6.840   1.292 -0.3506 -0.1260  0.1617
 6613TIP3    H144034   1.187   6.828   1.199 -0.4807  0.7990  0.0123
 6613TIP3    H244035   1.165   6.935   1.304  0.0930 -0.2061  1.1769
 6614TIP3   OH244036   4.756   3.981   9.307 -0.3458  0.0196  0.0392
 6614TIP3    H144037   4.804   3.919   9.252 -1.3164 -0.4527 -0.2911
 6614TIP3    H244038   4.815   4.056   9.315  0.3445 -0.4462 -0.5566
 6615TIP3   OH244039   7.310   7.486   9.062 -0.2089  0.0557  0.6138
 6615TIP3    H144040   7.309   7.559   9.000  1.1306  0.6029  1.2029
 6615TIP3    H244041   7.397   7.448   9.054 -0.5486 -0.8492  1.0552
 6616TIP3   OH244042   3.175   3.417   8.417 -0.3981  0.2685  0.0001
 6616TIP3    H144043   3.191   3.480   8.346  0.6011  0.6086  0.4938
 6616TIP3    H244044   3.082   3.398   8.412 -0.1782 -0.4640 -2.0075
 6617TIP3   OH244045   3.522   0.883   8.475  0.0144 -0.5201  0.0102
 6617TIP3    H144046   3.544   0.898   8.567 -0.0525  2.5910 -0.3699
 6617TIP3    H244047   3.606   0.860   8.433  0.0025 -2.1949  0.8169
 6618TIP3   OH244048   3.052   3.101   8.390  0.0574 -0.3374  0.5010
 6618TIP3    H144049   2.981   3.164   8.397 -0.4713 -1.0957  2.6827
 6618TIP3    H244050   3.077   3.102   8.297 -0.6411  2.2514  0.2794
 6619TIP3   OH244051   3.687   6.334   9.985  0.1142 -0.6110  0.2966
 6619TIP3    H144052   3.633   6.411  10.003 -0.8508 -1.5670  1.7712
 6619TIP3    H244053   3.682   6.323   9.890 -2.4040 -0.6974  0.3621
 6620TIP3   OH244054   6.206   5.247   9.439 -0.3817  0.2288 -0.2166
 6620TIP3    H144055   6.111   5.252   9.449 -0.3829 -1.0559  0.5992
 6620TIP3    H244056   6.219   5.215   9.350 -0.6952  0.6882 -0.4308
 6621TIP3   OH244057   5.299   7.431   2.042 -0.3627  0.6441 -0.4395
 6621TIP3    H144058   5.303   7.373   2.118 -1.2452  0.1633 -0.7414
 6621TIP3    H244059   5.216   7.479   2.053 -0.6666  0.3258 -1.2562
 6622TIP3   OH244060   3.850   5.622   8.974  0.1058  0.3187 -0.5241
 6622TIP3    H144061   3.852   5.711   8.941 -1.4523  0.6862  0.2916
 6622TIP3    H244062   3.781   5.622   9.040  1.3485 -1.0309  0.8498
 6623TIP3   OH244063   2.504   2.967   0.775 -0.1451 -0.0165 -0.5314
 6623TIP3    H144064   2.441   2.998   0.841  0.1153  0.9000 -0.6949
 6623TIP3    H244065   2.475   3.009   0.694  0.7830  0.5759 -0.5733
 6624TIP3   OH244066   3.297   2.167   8.348  0.4888  0.3116  0.1303
 6624TIP3    H144067   3.360   2.147   8.418  1.8658 -1.0683 -1.4132
 6624TIP3    H244068   3.340   2.233   8.295  0.9826 -1.0996 -1.2999
 6625TIP3   OH244069   5.830   4.854   2.210  0.3169 -0.7683  0.0919
 6625TIP3    H144070   5.744   4.856   2.251 -0.0566  1.0735 -0.6850
 6625TIP3    H244071   5.886   4.809   2.274 -0.8151 -0.3619  1.4191
 6626TIP3   OH244072   1.762   7.469   6.910 -0.3172  0.1431 -0.1327
 6626TIP3    H144073   1.702   7.538   6.881  0.4278  0.6202 -0.5705
 6626TIP3    H244074   1.849   7.505   6.895  0.1309  0.2136  2.2285
 6627TIP3   OH244075   2.342   2.225   9.542  0.5065 -0.0764 -0.1008
 6627TIP3    H144076   2.385   2.149   9.581  0.4411 -0.6752 -1.1678
 6627TIP3    H244077   2.380   2.300   9.587  1.6397 -0.6679 -0.0437
 6628TIP3   OH244078   1.459   1.367   7.753  0.9546  0.2012  0.3990
 6628TIP3    H144079   1.441   1.454   7.718  1.3007  0.2131  0.2460
 6628TIP3    H244080   1.512   1.324   7.686  0.2353 -0.3625  0.1876
 6629TIP3   OH244081   1.104   0.008   3.239 -1.0737  0.3554  0.4047
 6629TIP3    H144082   1.025   0.056   3.216 -1.0946  0.2814  0.3233
 6629TIP3    H244083   1.145   0.060   3.308 -1.8214 -0.2245  1.3126
 6630TIP3   OH244084   3.208   6.834   2.933  0.0676 -0.1748 -0.7583
 6630TIP3    H144085   3.290   6.826   2.982  0.3645 -0.6160 -1.3099
 6630TIP3    H244086   3.159   6.755   2.956  0.3051 -0.4958 -1.3407
 6631TIP3   OH244087   1.076   4.099   1.082  0.1422 -0.0383 -0.9046
 6631TIP3    H144088   1.090   4.177   1.135  0.0815 -1.7857  1.9194
 6631TIP3    H244089   0.983   4.079   1.092  0.7043 -2.0890  1.0377
 6632TIP3   OH244090   5.089   1.965   9.833  0.5152  0.2961 -0.3123
 6632TIP3    H144091   5.077   1.898   9.901  0.2306 -0.5689 -1.1971
 6632TIP3    H244092   5.157   2.023   9.868  1.6795 -1.1791 -0.0524
 6633TIP3   OH244093   2.617   2.517   0.465 -0.2362  0.5204 -0.6111
 6633TIP3    H144094   2.559   2.583   0.502 -0.3393  0.2802 -0.3377
 6633TIP3    H244095   2.666   2.563   0.397  0.5259  1.1720  0.3493
 6634TIP3   OH244096   6.319   2.339   1.452  0.3652 -0.1672 -0.2067
 6634TIP3    H144097   6.272   2.340   1.369 -1.1900  0.3966  0.6495
 6634TIP3    H244098   6.300   2.424   1.492 -1.7889 -1.6649  2.2480
 6635TIP3   OH244099   1.793   3.317   9.372 -0.1442 -0.1445 -0.1677
 6635TIP3    H144100   1.709   3.362   9.382 -0.4288 -0.4106 -1.2255
 6635TIP3    H244101   1.770   3.226   9.354  0.3962 -0.3802  0.2921
 6636TIP3   OH244102   3.431   3.586   1.129  0.3427 -0.1884  0.1589
 6636TIP3    H144103   3.441   3.681   1.133  0.1780 -0.2169  2.0951
 6636TIP3    H244104   3.415   3.568   1.036 -1.0546  1.8165 -0.0561
 6637TIP3   OH244105   6.481   0.232   8.744  0.2711  0.4020 -0.4306
 6637TIP3    H144106   6.537   0.309   8.746  0.0702  0.5386  0.1379
 6637TIP3    H244107   6.457   0.216   8.835 -0.4120  0.1998 -0.6327
 6638TIP3   OH244108   6.728   6.889   1.820  0.0852  0.1806  0.1022
 6638TIP3    H144109   6.728   6.810   1.875  1.5785  0.1862  0.1559
 6638TIP3    H244110   6.674   6.866   1.745  0.7300 -1.0022 -0.0226
 6639TIP3   OH244111   3.523   1.700   7.321 -0.4135 -0.4577  0.1620
 6639TIP3    H144112   3.557   1.764   7.258  2.0527 -1.2188  0.6405
 6639TIP3    H244113   3.565   1.723   7.404 -2.1734 -0.6231  1.1484
 6640TIP3   OH244114   5.026   3.477   7.432 -0.1847 -0.0017 -0.2221
 6640TIP3    H144115   5.083   3.532   7.378 -0.7826 -0.6432 -1.5766
 6640TIP3    H244116   5.038   3.508   7.521  0.0667  1.8124 -0.8575
 6641TIP3   OH244117   6.444   3.474   0.915 -1.0968  0.7641 -0.0834
 6641TIP3    H144118   6.391   3.546   0.949 -0.2505  0.5239  1.9023
 6641TIP3    H244119   6.418   3.398   0.967  0.7342  0.5128  0.5425
 6642TIP3   OH244120   1.943   6.255   2.101 -0.7110  0.3429 -0.8540
 6642TIP3    H144121   2.032   6.220   2.103 -1.0440 -0.5370 -0.5140
 6642TIP3    H244122   1.905   6.220   2.021 -0.8722  0.3918 -0.7990
 6643TIP3   OH244123   3.123   4.281   0.314  0.4634 -0.2107 -0.0156
 6643TIP3    H144124   3.051   4.221   0.293  0.5285 -0.8184  1.4006
 6643TIP3    H244125   3.194   4.255   0.254  0.5786 -1.7467  0.7415
 6644TIP3   OH244126   3.361   2.859   1.612 -1.2208 -0.2353 -0.2414
 6644TIP3    H144127   3.394   2.949   1.607  0.5219 -0.7887  0.7880
 6644TIP3    H244128   3.324   2.852   1.700  0.2761 -1.0368  0.3467
 6645TIP3   OH244129   6.472   2.907   0.580  0.3060  0.3977  0.3534
 6645TIP3    H144130   6.442   2.818   0.596  2.3415 -0.3328  0.4957
 6645TIP3    H244131   6.519   2.902   0.497  0.4378  1.3353  0.3640
 6646TIP3   OH244132   0.206   5.047   1.209  0.1398 -0.1447 -0.4936
 6646TIP3    H144133   0.265   4.974   1.189 -1.3844 -1.3286 -0.8156
 6646TIP3    H244134   0.184   5.036   1.302  1.6179  1.2417  0.0894
 6647TIP3   OH244135   1.350   2.130   9.571 -0.2351  0.3142 -0.1683
 6647TIP3    H144136   1.402   2.082   9.507 -1.3256 -0.7221 -0.3155
 6647TIP3    H244137   1.407   2.201   9.599  1.3886 -0.9748 -0.0423
 6648TIP3   OH244138   4.974   6.961   2.517 -0.4243  0.7694  0.0737
 6648TIP3    H144139   4.929   6.959   2.601 -0.2112  2.2230  0.2599
 6648TIP3    H244140   5.066   6.971   2.539 -0.0182 -1.5617 -0.3224
 6649TIP3   OH244141   3.129   4.428   9.448 -0.3867  0.8047 -0.0890
 6649TIP3    H144142   3.126   4.452   9.356  0.6571  0.5597 -0.1967
 6649TIP3    H244143   3.057   4.366   9.459 -0.0899  0.3016 -0.8976
 6650TIP3   OH244144   4.717   4.975   9.956 -0.1388  0.1929  0.3816
 6650TIP3    H144145   4.707   5.030   9.878  0.1608 -2.3464 -1.6132
 6650TIP3    H244146   4.631   4.934   9.968 -0.0853  0.3039  1.1934
 6651TIP3   OH244147   2.715   0.144   3.332  0.9049  0.9083  0.3670
 6651TIP3    H144148   2.705   0.055   3.300  0.1331  1.0979  0.0483
 6651TIP3    H244149   2.790   0.179   3.283 -0.2367  1.1838 -1.2869
 6652TIP3   OH244150   0.246   4.671   9.753 -0.4188 -0.0015 -0.7418
 6652TIP3    H144151   0.158   4.675   9.791 -0.6072 -0.6676 -1.0871
 6652TIP3    H244152   0.251   4.583   9.715  0.6630 -0.2425 -0.0815
 6653TIP3   OH244153   4.851   5.419   8.219 -0.2654  0.0123  0.2865
 6653TIP3    H144154   4.872   5.352   8.153 -1.9899  0.1708 -0.4902
 6653TIP3    H244155   4.850   5.501   8.170  1.5998  0.6314  1.1883
 6654TIP3   OH244156   6.282   0.930   0.290 -0.0356  0.3312  0.4593
 6654TIP3    H144157   6.274   0.889   0.204 -0.9001  0.3224  0.5350
 6654TIP3    H244158   6.369   0.969   0.290  0.5891 -0.9915  0.1658
 6655TIP3   OH244159   4.446   3.152   8.221  0.1718 -0.7353  0.7196
 6655TIP3    H144160   4.433   3.122   8.311 -0.1268 -0.7697  0.6672
 6655TIP3    H244161   4.361   3.189   8.195 -0.0845 -1.7468  0.0680
 6656TIP3   OH244162   6.723   3.134   0.195  0.2048  0.5691 -0.1563
 6656TIP3    H144163   6.815   3.118   0.171 -0.1287 -0.6248 -0.6664
 6656TIP3    H244164   6.706   3.223   0.162  1.0875  0.6955 -0.3140
 6657TIP3   OH244165   3.299   6.812   8.610 -0.0948 -0.5808  0.2119
 6657TIP3    H144166   3.288   6.745   8.677  0.1079  0.1123  0.9599
 6657TIP3    H244167   3.350   6.769   8.541 -0.1659 -1.2596  0.5770
 6658TIP3   OH244168   6.789   3.452   2.045 -0.3054  0.0943  0.5028
 6658TIP3    H144169   6.700   3.418   2.055 -0.7034  0.8908 -0.2160
 6658TIP3    H244170   6.819   3.468   2.135 -0.4838 -1.1657  0.7977
 6659TIP3   OH244171   3.881   5.096   8.850 -0.1250  0.3978 -0.2047
 6659TIP3    H144172   3.828   5.175   8.853 -0.0065  0.4444  1.1851
 6659TIP3    H244173   3.843   5.039   8.917  1.8585  0.6397  1.2026
 6660TIP3   OH244174   2.101   0.180   3.244 -0.0751 -0.8012  0.4510
 6660TIP3    H144175   2.031   0.188   3.308 -1.3731 -0.3430 -0.9696
 6660TIP3    H244176   2.057   0.157   3.162  1.3824 -0.1753 -0.5637
 6661TIP3   OH244177   7.484   1.041   8.089  0.7171 -0.5044  0.2909
 6661TIP3    H144178   7.451   0.960   8.128  1.1852 -1.0975 -0.4924
 6661TIP3    H244179   7.488   1.103   8.161  1.6847 -1.6029  1.2296
 6662TIP3   OH244180   3.728   2.566   0.705 -0.1938  0.8736 -0.0211
 6662TIP3    H144181   3.690   2.479   0.716  0.5230  0.5831  0.2035
 6662TIP3    H244182   3.773   2.562   0.621 -1.1649  1.4205 -0.5983
 6663TIP3   OH244183   6.089   0.676   2.452  0.0564  0.1248 -0.6724
 6663TIP3    H144184   6.099   0.709   2.541  0.2035 -0.7207 -0.3603
 6663TIP3    H244185   6.099   0.753   2.396 -0.0771  0.6712  0.0409
 6664TIP3   OH244186   0.149   6.290   7.467 -0.2741 -0.3219  0.6154
 6664TIP3    H144187   0.206   6.241   7.408 -0.3619 -0.2027  0.4308
 6664TIP3    H244188   0.061   6.275   7.434 -0.2173  0.8719 -0.1242
 6665TIP3   OH244189   1.147   3.628   8.726 -0.4860  0.1120  0.3698
 6665TIP3    H144190   1.085   3.556   8.718 -0.7897  0.5369 -1.6317
 6665TIP3    H244191   1.166   3.653   8.636 -0.5033  2.6201  0.9852
 6666TIP3   OH244192   2.459   2.871   9.673  0.6680 -0.5045 -0.7465
 6666TIP3    H144193   2.550   2.877   9.702  0.9234 -0.2670 -1.5874
 6666TIP3    H244194   2.415   2.946   9.714  1.2512  0.4155 -1.7522
 6667TIP3   OH244195   4.799   2.523   1.513 -0.4300  0.1842  0.2722
 6667TIP3    H144196   4.806   2.540   1.607 -0.4982 -2.5651  0.8644
 6667TIP3    H244197   4.861   2.453   1.497 -1.6395 -0.5651 -1.3959
 6668TIP3   OH244198   3.959   0.741   8.059  0.2223 -0.0194  0.2041
 6668TIP3    H144199   4.018   0.722   8.133  0.8971 -0.5129 -0.4477
 6668TIP3    H244200   4.011   0.796   8.001 -0.6265  1.1547  0.5210
 6669TIP3   OH244201   3.101   2.554   0.970  0.1707  0.6607 -0.0161
 6669TIP3    H144202   3.070   2.604   1.047  0.9519  0.2293  0.5890
 6669TIP3    H244203   3.171   2.499   1.004 -0.6661 -0.8679 -0.6677
 6670TIP3   OH244204   4.308   1.692   0.852 -0.7464 -0.1482  0.1056
 6670TIP3    H144205   4.378   1.632   0.824 -1.4610 -0.7780 -0.3506
 6670TIP3    H244206   4.300   1.754   0.779  0.2248  0.7311  0.7216
 6671TIP3   OH244207   3.786   5.727   1.745 -0.0016 -0.0818  0.3295
 6671TIP3    H144208   3.755   5.639   1.724 -1.4761  0.6270 -0.7019
 6671TIP3    H244209   3.732   5.754   1.819  1.1075 -0.3707  1.2697
 6672TIP3   OH244210   4.847   0.443   8.432 -0.3452  0.0461  0.0537
 6672TIP3    H144211   4.769   0.466   8.482  0.6617 -0.3021  1.8913
 6672TIP3    H244212   4.820   0.450   8.340 -1.8079  2.3923  0.5849
 6673TIP3   OH244213   1.667   0.165   3.357  0.3886  0.1042  0.0745
 6673TIP3    H144214   1.732   0.200   3.417  1.1376 -0.7708 -0.2085
 6673TIP3    H244215   1.704   0.179   3.270  0.5134 -1.0054 -0.0585
 6674TIP3   OH244216   6.641   2.013   8.387  0.4992  0.0023  0.6401
 6674TIP3    H144217   6.618   2.078   8.453  1.4598  0.2712  0.7258
 6674TIP3    H244218   6.731   2.035   8.361  1.0583 -1.6149  1.0644
 6675TIP3   OH244219   2.698   5.128   7.880 -0.0566 -0.6809  0.7446
 6675TIP3    H144220   2.768   5.065   7.900 -0.4148 -1.5517 -0.6173
 6675TIP3    H244221   2.668   5.103   7.793 -1.6961  0.0407  1.0787
 6676TIP3   OH244222   2.733   1.139   9.375  0.3397 -0.1800 -0.5178
 6676TIP3    H144223   2.702   1.180   9.294 -0.1131 -3.0131 -1.8840
 6676TIP3    H244224   2.673   1.170   9.442  0.2074  1.5624 -1.3753
 6677TIP3   OH244225   1.577   0.668   1.400 -0.4323 -0.3394  0.3635
 6677TIP3    H144226   1.659   0.663   1.350 -0.4451 -0.0684  0.3130
 6677TIP3    H244227   1.508   0.667   1.333 -0.4137  3.1529  0.0770
 6678TIP3   OH244228   4.824   6.614   8.944 -0.4229  0.4012 -0.3463
 6678TIP3    H144229   4.914   6.618   8.978 -0.6987  0.5252  0.3820
 6678TIP3    H244230   4.777   6.681   8.993 -0.9035  0.3892 -0.7838
 6679TIP3   OH244231   2.753   5.227   2.385 -0.5630 -0.5704 -0.6857
 6679TIP3    H144232   2.833   5.241   2.335  0.8690 -0.2486  1.5655
 6679TIP3    H244233   2.771   5.151   2.440 -1.2572  0.3343  0.8660
 6680TIP3   OH244234   0.364   3.987   0.309 -0.0932 -0.8598  0.3129
 6680TIP3    H144235   0.452   4.001   0.274 -0.3484  0.1491  0.0462
 6680TIP3    H244236   0.317   4.068   0.290 -0.9494 -1.2075  0.8686
 6681TIP3   OH244237   4.908   2.888   0.253 -0.3994 -0.1693  0.2402
 6681TIP3    H144238   4.814   2.870   0.263 -0.4313 -0.1003  0.0813
 6681TIP3    H244239   4.914   2.930   0.167 -0.4347  1.2322  0.8873
 6682TIP3   OH244240   1.826   6.269   7.373 -0.4702 -0.3189 -0.6396
 6682TIP3    H144241   1.856   6.354   7.339 -0.1877 -0.0111  0.3305
 6682TIP3    H244242   1.848   6.206   7.305  2.1011 -0.0554 -0.1549
 6683TIP3   OH244243   4.789   4.717   9.449 -0.3087 -0.3957 -0.0050
 6683TIP3    H144244   4.711   4.698   9.397  0.2086  1.6405 -1.6827
 6683TIP3    H244245   4.756   4.746   9.534 -1.2400 -1.9708  0.2070
 6684TIP3   OH244246   5.738   0.106   2.546 -0.3593 -0.2759  0.5394
 6684TIP3    H144247   5.791   0.103   2.626 -0.5675  0.3527  0.7081
 6684TIP3    H244248   5.754   0.194   2.511  0.4390 -0.8599 -0.5952
 6685TIP3   OH244249   5.907   0.739   0.854 -0.3784 -0.0060  0.2065
 6685TIP3    H144250   5.876   0.724   0.765 -2.7624 -0.6057  1.0644
 6685TIP3    H244251   5.938   0.653   0.883  0.1328  0.1254  0.0493
 6686TIP3   OH244252   1.475   1.485   2.146  0.0907  0.3325 -0.0543
 6686TIP3    H144253   1.510   1.545   2.080  0.2465  0.8386  0.4734
 6686TIP3    H244254   1.382   1.506   2.150  0.0888  0.3309 -0.0899
 6687TIP3   OH244255   3.250   7.419   7.376  0.4376 -0.1559 -0.3219
 6687TIP3    H144256   3.218   7.415   7.466  0.8065  1.8058 -0.0478
 6687TIP3    H244257   3.315   7.349   7.370 -0.3863 -1.0255  0.5886
 6688TIP3   OH244258   3.021   1.521   8.745  0.1298 -0.3498  0.1849
 6688TIP3    H144259   3.038   1.615   8.739  1.0681 -0.5156  0.1810
 6688TIP3    H244260   2.946   1.507   8.688  0.7298  0.2017 -0.7567
 6689TIP3   OH244261   3.306   5.705   1.706 -0.1689  0.0821  0.2304
 6689TIP3    H144262   3.307   5.769   1.777  0.5812 -0.2038  0.4920
 6689TIP3    H244263   3.302   5.620   1.750 -3.2003 -0.0675 -0.1286
 6690TIP3   OH244264   6.312   7.345   9.337 -0.3137  0.1509  0.1166
 6690TIP3    H144265   6.364   7.425   9.336  1.1087 -0.7385  0.3412
 6690TIP3    H244266   6.245   7.361   9.404  0.6798  0.7190  0.9978
 6691TIP3   OH244267   2.043   1.708   7.503 -0.4297  0.4339 -0.0600
 6691TIP3    H144268   1.962   1.717   7.454 -0.9085  0.4218  0.7011
 6691TIP3    H244269   2.068   1.797   7.526  0.1199  0.4841 -0.8280
 6692TIP3   OH244270   0.154   2.822   0.885 -0.3057  0.3512 -0.3466
 6692TIP3    H144271   0.121   2.856   0.968 -0.6826  0.1159 -0.3987
 6692TIP3    H244272   0.185   2.899   0.838 -0.9174  0.5886 -0.3598
 6693TIP3   OH244273   1.708   3.921   0.031  0.3926 -0.1864 -0.2248
 6693TIP3    H144274   1.673   3.998  -0.014  1.5781 -0.0941 -1.0190
 6693TIP3    H244275   1.791   3.902  -0.013  1.1215 -0.6842  1.2804
 6694TIP3   OH244276   0.409   6.702   9.172  0.2913  0.0957 -0.1235
 6694TIP3    H144277   0.504   6.702   9.187  0.2303 -1.4488  0.4831
 6694TIP3    H244278   0.394   6.775   9.113  2.1556 -0.8708 -1.9160
 6695TIP3   OH244279   2.475   7.191   0.499  0.9253  0.0558  1.0338
 6695TIP3    H144280   2.467   7.097   0.519  0.6005  0.5576  3.7547
 6695TIP3    H244281   2.544   7.222   0.558  1.5291  1.4278 -0.3366
 6696TIP3   OH244282   1.790   6.690   6.934  0.6072 -0.2093 -0.4955
 6696TIP3    H144283   1.721   6.755   6.948  0.6720 -0.0261 -0.9999
 6696TIP3    H244284   1.862   6.720   6.989 -0.3401 -1.4163  1.4995
 6697TIP3   OH244285   0.674   0.581   9.897 -0.7775 -0.1044 -0.1728
 6697TIP3    H144286   0.626   0.625   9.967 -1.7216 -1.4059  0.0192
 6697TIP3    H244287   0.712   0.504   9.939 -0.1966 -0.1756 -0.8017
 6698TIP3   OH244288   4.284   7.387   1.228  0.7813 -0.1485 -0.6729
 6698TIP3    H144289   4.366   7.427   1.199  1.0371 -0.8647 -0.9476
 6698TIP3    H244290   4.218   7.422   1.168  0.9455  0.1014 -0.7120
 6699TIP3   OH244291   1.561   0.432   1.231 -0.0985  0.2783  0.3955
 6699TIP3    H144292   1.583   0.487   1.156 -0.9600  0.8696  0.5640
 6699TIP3    H244293   1.477   0.392   1.209  0.7412 -1.4007  0.0641
 6700TIP3   OH244294   0.050   2.284   1.946 -0.7757 -0.5224 -0.7341
 6700TIP3    H144295   0.092   2.281   1.860 -2.0257 -1.0481 -1.3589
 6700TIP3    H244296  -0.005   2.205   1.948  0.7164 -1.5948  1.3491
 6701TIP3   OH244297   0.542   5.217   2.400  0.6729  0.2747  0.0348
 6701TIP3    H144298   0.541   5.152   2.330  1.0227  0.1929  0.1053
 6701TIP3    H244299   0.450   5.227   2.424  0.6927 -0.9547  0.7070
 6702TIP3   OH244300   2.449   2.644   9.057  0.0526  0.3968  0.4522
 6702TIP3    H144301   2.357   2.639   9.085  0.5649 -1.9203  2.0179
 6702TIP3    H244302   2.494   2.687   9.129  0.5005 -0.3282  0.6124
 6703TIP3   OH244303   4.950   4.994   1.059  0.0367 -0.4257  0.1702
 6703TIP3    H144304   4.973   5.054   0.988 -0.0307  0.3391  0.7855
 6703TIP3    H244305   5.016   5.010   1.126 -0.2799 -0.6806  0.5451
 6704TIP3   OH244306   6.033   2.969   9.092  0.0549 -0.0824 -0.0493
 6704TIP3    H144307   6.003   2.999   9.178 -2.0548  0.3873 -0.8846
 6704TIP3    H244308   6.074   3.047   9.053  0.3194 -0.0789  0.2335
 6705TIP3   OH244309   0.307   4.710   9.405  0.0665  0.2030 -0.5924
 6705TIP3    H144310   0.214   4.690   9.417  0.5282 -1.7688  0.1239
 6705TIP3    H244311   0.329   4.769   9.477  0.3104 -2.9122  2.1494
 6706TIP3   OH244312   2.554   7.463   1.380 -0.2271  0.1869  0.1744
 6706TIP3    H144313   2.533   7.417   1.298 -1.9410 -1.1300  1.2970
 6706TIP3    H244314   2.596   7.396   1.434 -2.0925  0.0732  1.5669
 6707TIP3   OH244315   1.338   3.685   2.135  0.1539 -0.1184 -0.2861
 6707TIP3    H144316   1.319   3.595   2.161  0.2462  0.2356  1.1101
 6707TIP3    H244317   1.381   3.723   2.211 -1.5436  1.6278 -0.1131
 6708TIP3   OH244318   4.610   6.880   8.177  0.0874 -0.8302 -0.2466
 6708TIP3    H144319   4.613   6.969   8.212 -1.6264 -0.7821 -0.1443
 6708TIP3    H244320   4.518   6.865   8.155  0.7158 -1.6896 -2.6030
 6709TIP3   OH244321   0.887   5.123   1.586 -0.0895 -0.2558  0.0244
 6709TIP3    H144322   0.969   5.137   1.634 -0.0971  1.1718 -0.3366
 6709TIP3    H244323   0.912   5.069   1.511  0.7050  0.8588 -0.5407
 6710TIP3   OH244324   0.210   0.894   8.564  0.2410 -0.0440  0.1526
 6710TIP3    H144325   0.160   0.862   8.640  0.1288 -0.3989 -0.0682
 6710TIP3    H244326   0.216   0.988   8.578  1.9117 -0.3247  1.6282
 6711TIP3   OH244327   2.796   3.846   0.974  0.3349  0.2056  0.1962
 6711TIP3    H144328   2.856   3.913   0.939  0.6239 -1.0963 -1.9882
 6711TIP3    H244329   2.720   3.896   1.003  0.0539  1.4707 -2.4251
 6712TIP3   OH244330   6.230   0.118   7.253 -0.1485 -0.0354  0.0506
 6712TIP3    H144331   6.146   0.154   7.280  0.3532  1.4581 -0.3177
 6712TIP3    H244332   6.207   0.035   7.211 -1.2785 -0.4220  1.3370
 6713TIP3   OH244333   0.938   4.560   7.028  0.0980  0.1416  0.0828
 6713TIP3    H144334   0.964   4.558   7.120 -0.9433 -0.4275  0.3858
 6713TIP3    H244335   1.013   4.524   6.981  0.8147  0.8696  0.6597
 6714TIP3   OH244336   5.945   6.422   1.242 -0.0156 -0.0726 -0.0925
 6714TIP3    H144337   5.985   6.370   1.312 -0.9631 -1.8338 -0.8079
 6714TIP3    H244338   6.019   6.454   1.191  0.5907 -1.1997  0.0423
 6715TIP3   OH244339   1.014   5.985   2.811  0.4825  0.0452  0.1501
 6715TIP3    H144340   0.927   6.026   2.804 -0.1492 -1.4326 -1.3273
 6715TIP3    H244341   0.997   5.891   2.806  2.2240 -0.2584 -1.2284
 6716TIP3   OH244342   1.444   5.172   8.707  0.0345 -0.2728  0.5182
 6716TIP3    H144343   1.382   5.124   8.653 -1.1825  0.2107  1.4479
 6716TIP3    H244344   1.482   5.237   8.647 -0.2917 -0.6248 -0.0803
 6717TIP3   OH244345   5.731   7.347   0.836 -0.0492  0.6875 -0.7652
 6717TIP3    H144346   5.636   7.341   0.829  0.0797 -1.1599 -1.5137
 6717TIP3    H244347   5.758   7.390   0.755 -0.1149 -1.0756 -1.7818
 6718TIP3   OH244348   3.054   6.631   8.273  0.4436 -0.1563 -0.1128
 6718TIP3    H144349   3.130   6.581   8.243  0.0534 -0.2053 -1.0523
 6718TIP3    H244350   3.086   6.721   8.282  0.9006 -0.3838  0.6360
 6719TIP3   OH244351   2.891   1.911   0.873  0.8734  0.6416  0.0083
 6719TIP3    H144352   2.972   1.865   0.853 -0.1579 -2.0199  1.3996
 6719TIP3    H244353   2.878   1.897   0.967  0.4900  3.9835  0.5704
 6720TIP3   OH244354   2.839   0.002   9.249  0.3262 -0.1295 -0.4346
 6720TIP3    H144355   2.753   0.032   9.279  1.6732  1.1501  2.6219
 6720TIP3    H244356   2.823  -0.087   9.218 -2.2713  0.4895 -1.1878
 6721TIP3   OH244357   1.415   5.615   7.573  0.1806  0.6644  0.0998
 6721TIP3    H144358   1.373   5.545   7.623  0.4234  0.9367  0.6942
 6721TIP3    H244359   1.478   5.569   7.516 -1.6860  0.1299 -1.6693
 6722TIP3   OH244360   1.781   5.541   8.222  0.3429 -0.1648  0.5853
 6722TIP3    H144361   1.808   5.449   8.221  0.1239 -0.2288 -0.4059
 6722TIP3    H244362   1.729   5.551   8.142 -2.0492  0.1032  2.0926
 6723TIP3   OH244363   7.060   6.243   0.919  0.0435 -0.0377  0.1298
 6723TIP3    H144364   7.135   6.211   0.969 -0.2790  2.3486  2.2773
 6723TIP3    H244365   6.991   6.178   0.936  0.2093  0.2429  2.1135
 6724TIP3   OH244366   0.769   1.310   1.733  0.5748 -0.8471  0.5929
 6724TIP3    H144367   0.779   1.215   1.720  1.5014 -0.7464  0.5519
 6724TIP3    H244368   0.845   1.336   1.784  0.5869 -0.0310  0.1769
 6725TIP3   OH244369   6.079   4.304   7.279 -0.5419  0.7969 -0.6453
 6725TIP3    H144370   6.140   4.242   7.238 -1.9835  0.0980 -1.8254
 6725TIP3    H244371   6.127   4.387   7.282  1.4173 -0.3252  0.9353
 6726TIP3   OH244372   4.264   4.250   9.676 -0.7143 -0.2051  0.2906
 6726TIP3    H144373   4.260   4.214   9.588 -1.0185 -1.6053  0.8590
 6726TIP3    H244374   4.337   4.312   9.673 -1.3485  0.5060 -1.1947
 6727TIP3   OH244375   5.018   4.645   7.701  0.1531 -0.2012  0.0546
 6727TIP3    H144376   5.096   4.592   7.720  0.8145  0.9354  0.5856
 6727TIP3    H244377   5.030   4.674   7.611  0.1446 -0.3456  0.0059
 6728TIP3   OH244378   0.992   1.430   0.613  0.0539 -0.3425  0.2731
 6728TIP3    H144379   1.061   1.367   0.632 -1.0829 -1.5776  0.4304
 6728TIP3    H244380   1.038   1.504   0.572  1.4834 -1.0219  0.5868
 6729TIP3   OH244381   5.181   1.798   0.083 -0.2456  0.5690 -0.7597
 6729TIP3    H144382   5.145   1.713   0.059 -1.1745  0.6952  0.1142
 6729TIP3    H244383   5.258   1.808   0.027 -0.5005 -0.5453 -1.3422
 6730TIP3   OH244384   0.979   3.766   7.033  0.1102  0.2966 -0.0534
 6730TIP3    H144385   0.951   3.840   7.087  0.2068 -1.1022  2.0077
 6730TIP3    H244386   1.051   3.800   6.980  1.4970  1.2263  2.2828
 6731TIP3   OH244387   1.148   3.242   1.213  0.3700 -0.2446 -0.4194
 6731TIP3    H144388   1.080   3.300   1.247  0.7420  0.0608 -0.1854
 6731TIP3    H244389   1.103   3.189   1.147  0.2921  1.1553 -1.5544
 6732TIP3   OH244390   3.024   5.515   1.926 -0.4401 -0.6918 -0.1470
 6732TIP3    H144391   2.952   5.570   1.955 -1.1403 -1.0328 -1.1961
 6732TIP3    H244392   3.006   5.498   1.834  0.5785 -1.4062 -0.2288
 6733TIP3   OH244393   2.116   2.088   9.465  0.2614 -0.1627  0.0760
 6733TIP3    H144394   2.129   2.078   9.559  0.7993 -0.2066 -0.0019
 6733TIP3    H244395   2.172   2.162   9.441  0.3645 -0.3501 -0.2642
 6734TIP3   OH244396   5.641   0.730   9.322 -0.1022 -0.1361  0.3318
 6734TIP3    H144397   5.553   0.697   9.303  0.1743 -1.3261  0.9958
 6734TIP3    H244398   5.696   0.692   9.253  0.0569 -0.2783  0.5340
 6735TIP3   OH244399   1.415   2.063   2.277  0.0093  0.2907 -1.0566
 6735TIP3    H144400   1.413   2.024   2.364  0.3433  0.3857 -1.0065
 6735TIP3    H244401   1.369   2.147   2.287  0.9055  0.7621 -0.7401
 6736TIP3   OH244402   0.098   6.875   8.235 -0.0339 -0.2139 -0.0807
 6736TIP3    H144403   0.014   6.921   8.242 -0.0732 -0.2411 -0.3474
 6736TIP3    H244404   0.132   6.900   8.149  1.1823  1.3867  0.8083
 6737TIP3   OH244405   3.315   6.683   9.274  0.3235 -0.1176  0.2637
 6737TIP3    H144406   3.341   6.772   9.298  0.6181  0.0744 -0.7363
 6737TIP3    H244407   3.365   6.664   9.194 -1.3619 -0.3603 -0.7818
 6738TIP3   OH244408   1.577   2.293   0.578 -0.1770 -0.1787 -0.1666
 6738TIP3    H144409   1.484   2.310   0.596  0.2438  0.8630  1.1411
 6738TIP3    H244410   1.621   2.310   0.661  1.3478  0.5855 -1.0967
 6739TIP3   OH244411   6.577   4.847   1.283  0.0562  0.2036 -0.1893
 6739TIP3    H144412   6.657   4.893   1.310  0.4809 -0.2505 -0.6501
 6739TIP3    H244413   6.596   4.755   1.299 -1.3919  0.2645  2.2712
 6740TIP3   OH244414   2.780   3.513   6.967  0.4074  0.1026 -0.4290
 6740TIP3    H144415   2.760   3.521   6.874 -1.5310 -0.3025 -0.1067
 6740TIP3    H244416   2.872   3.487   6.971  0.1129 -1.4032 -2.2821
 6741TIP3   OH244417   7.453   5.820   9.189  0.9199 -0.2347 -0.0802
 6741TIP3    H144418   7.548   5.823   9.196  1.0225 -1.0807 -0.9284
 6741TIP3    H244419   7.434   5.859   9.103  0.4022  1.0034  0.5634
 6742TIP3   OH244420   5.754   0.398   9.631  0.0222 -0.2573  0.2559
 6742TIP3    H144421   5.709   0.316   9.610 -0.5771  0.0031  0.5180
 6742TIP3    H244422   5.825   0.403   9.567 -0.0771 -0.8675  0.0925
 6743TIP3   OH244423   3.616   3.141   9.123 -0.2564  0.3893 -0.3589
 6743TIP3    H144424   3.525   3.121   9.102 -0.0084 -0.5787 -0.5549
 6743TIP3    H244425   3.657   3.056   9.137  0.1309  0.8789  1.8470
 6744TIP3   OH244426   0.795   1.654   2.858 -0.2223 -0.0166 -0.5705
 6744TIP3    H144427   0.830   1.715   2.793 -0.8209  1.8276  0.7466
 6744TIP3    H244428   0.702   1.646   2.834  0.0243 -1.1243 -1.2335
 6745TIP3   OH244429   4.682   1.987   8.787 -0.0404 -0.0168  0.1642
 6745TIP3    H144430   4.732   2.025   8.715 -0.7950  0.4551 -0.1190
 6745TIP3    H244431   4.734   2.007   8.865  0.2223  0.4519 -0.1277
 6746TIP3   OH244432   1.633   0.340   7.625 -0.0708  0.6936 -0.0135
 6746TIP3    H144433   1.712   0.313   7.671 -0.3888  1.1218  0.8065
 6746TIP3    H244434   1.589   0.399   7.686 -0.6138  1.1034 -0.7897
 6747TIP3   OH244435   4.136   2.158   2.035 -0.0064 -0.3603 -0.4147
 6747TIP3    H144436   4.162   2.242   1.998  0.9523  0.2184  1.4060
 6747TIP3    H244437   4.216   2.104   2.030  0.5476  0.1413  1.7672
 6748TIP3   OH244438   6.289   6.702   8.571  0.3432 -0.2452  0.8072
 6748TIP3    H144439   6.252   6.615   8.557  0.2723 -0.1637  0.4741
 6748TIP3    H244440   6.238   6.739   8.643  1.1373 -0.9259  1.7420
 6749TIP3   OH244441   0.058   4.488   1.295 -0.2920 -0.8143  0.0398
 6749TIP3    H144442   0.123   4.436   1.342 -1.7506 -2.2506  0.5584
 6749TIP3    H244443  -0.025   4.444   1.312 -1.3261  0.5669 -1.1593
 6750TIP3   OH244444   2.726   5.932   9.052 -0.2976  0.6073 -0.0465
 6750TIP3    H144445   2.656   5.990   9.021  0.1406  0.7793 -0.7388
 6750TIP3    H244446   2.774   5.908   8.972  0.5181  0.6141  0.4320
 6751TIP3   OH244447   3.314   7.096   1.191  0.0590 -0.2055 -0.5454
 6751TIP3    H144448   3.271   7.178   1.169  1.4351  0.0351 -2.4949
 6751TIP3    H244449   3.253   7.028   1.161 -0.3028  0.0929 -0.4939
 6752TIP3   OH244450   1.272   2.202   6.868  0.0510 -0.0739 -0.8667
 6752TIP3    H144451   1.358   2.161   6.852  0.9057  1.2444  0.1466
 6752TIP3    H244452   1.230   2.144   6.931 -0.0081 -0.9649 -1.6959
 6753TIP3   OH244453   6.247   2.796   1.040  0.0916  0.0168 -0.1362
 6753TIP3    H144454   6.320   2.825   0.986  0.8229 -0.9917  0.2837
 6753TIP3    H244455   6.171   2.846   1.008  1.0637  1.5292 -0.1838
 6754TIP3   OH244456   4.381   0.314   7.695 -0.7039 -0.4948 -0.3167
 6754TIP3    H144457   4.377   0.273   7.782 -1.4161 -0.5368 -0.3653
 6754TIP3    H244458   4.376   0.408   7.712  1.8804 -0.3263 -0.1378
 6755TIP3   OH244459   3.027   2.373   0.662 -0.4542 -0.2134 -0.2855
 6755TIP3    H144460   3.069   2.398   0.580 -0.2346  1.1659  0.2258
 6755TIP3    H244461   2.958   2.312   0.636  0.3508 -0.6907 -1.3692
 6756TIP3   OH244462   4.289   6.225   1.965  0.2857 -0.1879  0.4631
 6756TIP3    H144463   4.262   6.133   1.966  0.8738 -0.3581  0.5552
 6756TIP3    H244464   4.249   6.260   1.885  0.1923 -0.5571  0.3450
 6757TIP3   OH244465   1.833   1.165   0.434  0.1386 -0.3102 -0.5125
 6757TIP3    H144466   1.847   1.154   0.529 -1.7707 -1.0123 -0.2649
 6757TIP3    H244467   1.783   1.246   0.427  0.9155  0.1305 -1.0002
 6758TIP3   OH244468   1.208   4.191   2.625  0.2176 -0.9734 -0.1332
 6758TIP3    H144469   1.113   4.192   2.634  0.1384  0.8728 -0.8378
 6758TIP3    H244470   1.229   4.270   2.576  2.1319 -1.3093  0.0525
 6759TIP3   OH244471   0.870   6.610   1.966  0.1768 -0.3576 -0.2505
 6759TIP3    H144472   0.856   6.561   1.885  0.2562  0.3903 -0.7242
 6759TIP3    H244473   0.960   6.589   1.992  0.5654  0.3187 -1.0017
 6760TIP3   OH244474   0.641   1.067   1.927  0.2106  0.4435 -0.5643
 6760TIP3    H144475   0.604   1.041   1.843 -0.7108 -0.4112  0.0884
 6760TIP3    H244476   0.721   1.015   1.935 -0.3499 -0.4086 -0.3682
 6761TIP3   OH244477   3.939   3.303   7.902  0.1691 -0.2878  0.8849
 6761TIP3    H144478   3.981   3.352   7.973 -0.1481 -0.5631  1.2675
 6761TIP3    H244479   3.869   3.361   7.872 -0.2513 -0.5172  1.3846
 6762TIP3   OH244480   3.457   3.130   1.617  0.6274 -0.7843 -0.2496
 6762TIP3    H144481   3.379   3.130   1.562  0.7503 -1.0152 -0.4289
 6762TIP3    H244482   3.470   3.221   1.641 -1.3402 -1.0375  2.1507
 6763TIP3   OH244483   1.641   3.399   1.906  0.2673  0.0728  0.4121
 6763TIP3    H144484   1.557   3.442   1.922 -0.0422 -0.7836  1.1440
 6763TIP3    H244485   1.645   3.329   1.971  0.8718 -0.8563 -0.5956
 6764TIP3   OH244486   5.945   6.561   9.555 -0.0270  0.1282  0.0211
 6764TIP3    H144487   5.988   6.482   9.522 -1.4606 -0.3953 -0.6619
 6764TIP3    H244488   5.982   6.572   9.643  0.8784 -0.7680 -0.2201
 6765TIP3   OH244489   7.384   0.959   9.611  0.9323  0.1298 -0.3022
 6765TIP3    H144490   7.383   1.011   9.691 -0.1189  0.6315 -0.6303
 6765TIP3    H244491   7.406   1.022   9.542  4.3839 -0.7052 -0.1899
 6766TIP3   OH244492   7.295   6.559   1.023  0.3154 -0.4812  0.7780
 6766TIP3    H144493   7.219   6.542   0.968  2.1170 -1.8456 -1.4695
 6766TIP3    H244494   7.301   6.655   1.026 -0.4291 -0.3713 -0.5495
 6767TIP3   OH244495   0.180   4.222   0.001  0.5286  0.6413  0.3797
 6767TIP3    H144496   0.133   4.240   0.083 -0.0853  1.0927 -0.0601
 6767TIP3    H244497   0.242   4.295  -0.007 -1.4694  2.3062 -1.0428
 6768TIP3   OH244498   4.778   3.207   9.761 -0.3569  0.1464  0.4715
 6768TIP3    H144499   4.870   3.189   9.783 -0.2431 -1.6243 -1.1651
 6768TIP3    H244500   4.729   3.146   9.816 -0.4120 -0.3172 -0.0839
 6769TIP3   OH244501   7.195   3.878   8.380 -0.0323 -0.5537 -0.2064
 6769TIP3    H144502   7.168   3.806   8.436  1.2590 -1.5283 -0.7961
 6769TIP3    H244503   7.249   3.838   8.312  1.7474  1.0869  0.1323
 6770TIP3   OH244504   3.874   6.117   2.122 -0.2914 -0.2287  0.4643
 6770TIP3    H144505   3.938   6.126   2.192 -0.9150 -1.2077  1.1807
 6770TIP3    H244506   3.885   6.196   2.069  0.3375  0.4263  1.5380
 6771TIP3   OH244507   3.072   5.259   8.649 -0.1595  0.2528 -0.3465
 6771TIP3    H144508   3.075   5.172   8.608 -0.6886  0.0493  0.0299
 6771TIP3    H244509   3.140   5.309   8.604  0.1534 -0.3552 -0.5696
 6772TIP3   OH244510   5.141   2.170   0.780  0.0137 -0.1920 -0.7780
 6772TIP3    H144511   5.086   2.101   0.742 -1.3241 -1.5565  3.1928
 6772TIP3    H244512   5.097   2.252   0.755 -1.6185 -1.0826 -0.9465
 6773TIP3   OH244513   7.223   5.288   9.162 -0.3340  0.1260  0.7396
 6773TIP3    H144514   7.143   5.290   9.109 -1.1242 -1.0372  1.8326
 6773TIP3    H244515   7.248   5.380   9.171 -0.6409  0.4065 -0.9263
 6774TIP3   OH244516   4.274   0.982   1.996  0.0253  0.6288 -0.4425
 6774TIP3    H144517   4.343   0.926   1.960 -0.1610  1.4652 -2.1871
 6774TIP3    H244518   4.301   1.071   1.975 -1.1775  1.0194 -0.4543
 6775TIP3   OH244519   2.609   0.447   3.846 -0.1963  0.1636 -0.7059
 6775TIP3    H144520   2.634   0.372   3.791 -0.4076 -0.4215 -0.0133
 6775TIP3    H244521   2.665   0.519   3.815 -0.3056 -0.1584 -1.6800
 6776TIP3   OH244522   5.584   6.392   1.789  0.1071  0.0957  0.5351
 6776TIP3    H144523   5.679   6.404   1.797  0.3754 -0.6980 -1.0351
 6776TIP3    H244524   5.556   6.459   1.727  0.1243 -1.3713 -1.1224
 6777TIP3   OH244525   4.851   2.303   8.819  0.7700  0.8315 -0.0960
 6777TIP3    H144526   4.910   2.369   8.783  0.3942  1.5116  0.5149
 6777TIP3    H244527   4.879   2.221   8.778  0.0453  1.6259 -2.3221
 6778TIP3   OH244528   0.441   2.417   9.556 -0.0569  0.2594  0.1300
 6778TIP3    H144529   0.530   2.417   9.591 -0.7638  0.5691  2.0403
 6778TIP3    H244530   0.410   2.327   9.566 -0.4928  0.4888  1.0136
 6779TIP3   OH244531   6.088   7.052   1.543  0.0012 -0.1666  0.8334
 6779TIP3    H144532   6.139   7.081   1.619  1.2229 -1.6205  0.6308
 6779TIP3    H244533   6.047   6.970   1.571  0.4753 -0.7274 -0.0378
 6780TIP3   OH244534   4.074   4.976   8.711  0.1689  0.0131  0.2544
 6780TIP3    H144535   4.016   4.976   8.636 -0.1327 -0.2377  0.4866
 6780TIP3    H244536   4.028   5.029   8.777  0.9910  1.2802 -0.1640
 6781TIP3   OH244537   7.201   0.282   9.918  0.1515 -0.8215 -0.4401
 6781TIP3    H144538   7.174   0.299  10.008 -0.6785  2.4574 -1.1621
 6781TIP3    H244539   7.293   0.255   9.925  0.3090  0.0661  1.3578
 6782TIP3   OH244540   1.705   3.110   0.124  1.0021 -0.5354  0.4141
 6782TIP3    H144541   1.788   3.149   0.149  0.4306  1.1592 -0.1756
 6782TIP3    H244542   1.645   3.134   0.195  0.4400  0.4634 -0.3665
 6783TIP3   OH244543   2.829   5.711   9.465 -0.8784 -0.1032  0.5115
 6783TIP3    H144544   2.795   5.672   9.384  0.2048 -2.1582  0.9801
 6783TIP3    H244545   2.753   5.718   9.522 -2.2433  3.8437 -1.4384
 6784TIP3   OH244546   3.769   2.195   7.758  0.1053  0.0124 -0.4678
 6784TIP3    H144547   3.752   2.105   7.787  0.4181  0.2942  0.6325
 6784TIP3    H244548   3.817   2.235   7.830  0.5881  0.8661 -1.2390
 6785TIP3   OH244549   4.365   6.081   1.122 -0.2927 -0.3514 -0.0124
 6785TIP3    H144550   4.453   6.119   1.126  0.1108 -0.0542 -4.9475
 6785TIP3    H244551   4.307   6.154   1.145  0.6319 -0.2948  2.4055
 6786TIP3   OH244552   5.021   0.839   2.548 -0.1298 -0.2188  0.1356
 6786TIP3    H144553   5.093   0.876   2.600 -0.1109  1.9088 -1.2974
 6786TIP3    H244554   4.942   0.869   2.593 -0.1296 -0.5764  0.3806
 6787TIP3   OH244555   0.599   0.853   2.846 -0.3738 -0.2344  0.4441
 6787TIP3    H144556   0.585   0.759   2.834  3.1514 -0.7240 -1.1834
 6787TIP3    H244557   0.649   0.860   2.928  1.3759 -0.1318 -0.5742
 6788TIP3   OH244558   2.808   5.477   7.486 -0.3247 -0.1313 -0.3528
 6788TIP3    H144559   2.758   5.553   7.518 -0.8923 -0.4811 -0.3897
 6788TIP3    H244560   2.888   5.515   7.450  1.1248  0.2157  2.8142
 6789TIP3   OH244561   5.346   6.457   0.868  0.1480  0.2994  0.6945
 6789TIP3    H144562   5.271   6.415   0.911  0.5938 -1.0606  0.2039
 6789TIP3    H244563   5.422   6.421   0.912  0.5369  1.2690  0.8294
 6790TIP3   OH244564   2.613   3.406   8.239 -0.4267  0.0478 -0.2118
 6790TIP3    H144565   2.592   3.488   8.194  0.5483 -1.7394 -4.3375
 6790TIP3    H244566   2.529   3.374   8.271 -1.1160  1.6812 -0.2994
 6791TIP3   OH244567   0.266   7.057   1.549 -0.1700  0.4808  0.5267
 6791TIP3    H144568   0.264   7.131   1.488 -0.5870  0.5166  0.5819
 6791TIP3    H244569   0.358   7.030   1.550 -0.1066  0.6631  0.1034
 6792TIP3   OH244570   2.803   2.600   8.156  0.3015  0.4954 -0.1137
 6792TIP3    H144571   2.897   2.618   8.153  0.3503  0.1070 -1.3829
 6792TIP3    H244572   2.769   2.633   8.073 -1.0153  2.2439  1.0380
 6793TIP3   OH244573   2.875   6.397   1.087 -0.0784 -0.1793  0.0868
 6793TIP3    H144574   2.816   6.451   1.035 -0.2764  0.0533  0.5493
 6793TIP3    H244575   2.831   6.387   1.171  0.1226 -0.7608  0.1295
 6794TIP3   OH244576   1.508   6.735   7.175  0.6973 -0.0703  0.0684
 6794TIP3    H144577   1.527   6.785   7.096  0.4302  0.6394  0.4401
 6794TIP3    H244578   1.585   6.680   7.188  0.9816  0.2166 -0.3727
 6795TIP3   OH244579   5.078   0.466   8.794  0.4853  0.2800 -0.2557
 6795TIP3    H144580   4.990   0.432   8.809  0.0794  1.5203  0.2746
 6795TIP3    H244581   5.113   0.482   8.882  1.2071 -0.1082 -0.4651
 6796TIP3   OH244582   4.360   1.196   1.349  0.3753  0.0848  0.1715
 6796TIP3    H144583   4.425   1.167   1.413 -0.8428 -0.2639  1.3044
 6796TIP3    H244584   4.370   1.136   1.275  1.2161 -0.0721  0.4025
 6797TIP3   OH244585   6.862   0.815   0.565  0.3037 -0.1297 -0.5376
 6797TIP3    H144586   6.843   0.909   0.560  3.0166  0.7167  2.0969
 6797TIP3    H244587   6.796   0.774   0.508 -0.4374  3.3843 -2.4925
 6798TIP3   OH244588   0.059   1.487   7.546  0.1095 -0.2226  0.5560
 6798TIP3    H144589  -0.030   1.467   7.573 -0.6617  1.0262 -0.9433
 6798TIP3    H244590   0.099   1.401   7.531 -1.2180 -0.7878  0.1020
 6799TIP3   OH244591   3.926   4.745   7.482  0.4098  0.1385 -0.3363
 6799TIP3    H144592   3.849   4.694   7.458  0.7213 -0.5169  0.0186
 6799TIP3    H244593   3.986   4.735   7.408  1.9986 -3.1524  1.2168
 6800TIP3   OH244594   3.537   1.304   2.148 -0.0365  0.4648  0.0224
 6800TIP3    H144595   3.481   1.359   2.201  0.7467  1.0553  0.2545
 6800TIP3    H244596   3.504   1.314   2.059 -0.5051  0.5345  0.2027
 6801TIP3   OH244597   4.744   2.840   1.324 -0.1774  0.3464 -0.7468
 6801TIP3    H144598   4.704   2.868   1.406 -0.5512 -3.5596  0.5955
 6801TIP3    H244599   4.838   2.834   1.344 -0.2996 -0.8668 -0.4622
 6802TIP3   OH244600   4.975   2.942   7.399 -0.3894  0.2157 -0.0437
 6802TIP3    H144601   5.026   2.892   7.336  1.2679 -0.8641  2.0276
 6802TIP3    H244602   5.003   3.033   7.387  0.1234 -0.0197 -0.6499
 6803TIP3   OH244603   2.977   1.208   0.856 -0.5007  0.2515  0.0152
 6803TIP3    H144604   2.934   1.185   0.938 -0.1952  1.4190  0.5144
 6803TIP3    H244605   3.048   1.144   0.848 -2.0768 -1.5177 -0.6775
 6804TIP3   OH244606   3.863   4.691   6.717 -0.5325  0.1304  0.1646
 6804TIP3    H144607   3.939   4.640   6.744 -1.5545 -0.9901  0.9830
 6804TIP3    H244608   3.791   4.628   6.713 -1.7135  1.3954  0.6849
 6805TIP3   OH244609   3.859   7.366   8.546 -0.5467  0.2604 -0.0813
 6805TIP3    H144610   3.850   7.403   8.459  0.8989 -2.7208 -1.6685
 6805TIP3    H244611   3.923   7.295   8.535 -1.1747 -0.9866  3.1509
 6806TIP3   OH244612   2.280   1.060   8.142  0.8645  0.4855  0.2769
 6806TIP3    H144613   2.206   1.089   8.089  0.6702 -0.7386 -0.1506
 6806TIP3    H244614   2.341   1.022   8.079  2.2937  2.2955  0.5145
 6807TIP3   OH244615   1.323   2.088   1.765 -0.5417  0.1281  0.1346
 6807TIP3    H144616   1.329   2.153   1.695  0.7773  0.2832  0.3661
 6807TIP3    H244617   1.334   2.138   1.846 -2.3104 -0.0102  0.4988
 6808TIP3   OH244618   0.718   6.490   0.361 -0.0472 -0.2957  0.2775
 6808TIP3    H144619   0.769   6.531   0.292  0.8521  0.5010  1.3780
 6808TIP3    H244620   0.745   6.398   0.359  0.0839 -0.2497 -0.3171
 6809TIP3   OH244621   1.416   3.249   0.751 -0.0479 -0.2154  0.1185
 6809TIP3    H144622   1.451   3.280   0.835 -1.0814  0.4890  0.3077
 6809TIP3    H244623   1.355   3.179   0.775  0.4127 -0.7108 -0.1303
 6810TIP3   OH244624   2.089   2.054   2.250 -0.3006 -0.0987 -0.0236
 6810TIP3    H144625   2.031   2.130   2.251 -0.8360 -0.4940 -0.9906
 6810TIP3    H244626   2.174   2.090   2.223 -0.8712 -0.0422 -1.8729
 6811TIP3   OH244627   6.687   5.745   0.580 -0.4052 -0.3648 -0.1674
 6811TIP3    H144628   6.718   5.777   0.494  0.9640 -0.1085  0.3941
 6811TIP3    H244629   6.623   5.678   0.558 -1.9212  1.3504 -1.4049
 6812TIP3   OH244630   3.632   1.214   2.380  0.1144 -0.6145  0.2342
 6812TIP3    H144631   3.606   1.251   2.296  2.1616  1.2255  0.3231
 6812TIP3    H244632   3.585   1.266   2.445 -0.0051 -0.7658  0.2686
 6813TIP3   OH244633   0.838   0.978   3.390  0.1037  0.5059 -0.1021
 6813TIP3    H144634   0.821   1.053   3.447 -0.3095  0.6976 -0.4696
 6813TIP3    H244635   0.929   0.989   3.362  0.0847  0.8023 -0.0527
 6814TIP3   OH244636   0.845   1.769   9.766 -0.1921  0.2230  0.2221
 6814TIP3    H144637   0.835   1.677   9.740  0.4236  0.3175 -0.3741
 6814TIP3    H244638   0.866   1.766   9.859 -0.3581 -0.2290  0.2475
 6815TIP3   OH244639   6.252   4.449   1.922 -0.2869  0.3717 -0.7061
 6815TIP3    H144640   6.257   4.536   1.883  0.7498  0.8642  0.4731
 6815TIP3    H244641   6.343   4.424   1.938 -0.6583  0.2134  1.4007
 6816TIP3   OH244642   4.593   5.442   6.925  0.2939  0.0105  0.4546
 6816TIP3    H144643   4.671   5.410   6.971 -0.3421  0.3395  1.8117
 6816TIP3    H244644   4.605   5.536   6.918  0.8519 -0.1387 -1.0119
 6817TIP3   OH244645   1.417   6.023   1.567 -0.4161  0.7139  0.3707
 6817TIP3    H144646   1.337   6.064   1.600 -2.0171 -2.0553  0.2387
 6817TIP3    H244647   1.473   6.014   1.645 -0.9143  1.1876  0.7882
 6818TIP3   OH244648   3.663   0.809   7.456  0.2865  0.2756 -0.3002
 6818TIP3    H144649   3.695   0.736   7.403  0.4176 -1.9062  2.5359
 6818TIP3    H244650   3.570   0.790   7.470  0.8036 -0.7671  2.3504
 6819TIP3   OH244651   1.326   2.629   7.933 -0.1929  0.2156  0.3697
 6819TIP3    H144652   1.375   2.578   7.998 -0.6176  0.7533  1.1338
 6819TIP3    H244653   1.296   2.563   7.870  1.2491 -0.1600  0.0273
 6820TIP3   OH244654   4.600   4.363   2.677  0.1112 -0.4668  0.5705
 6820TIP3    H144655   4.541   4.435   2.656  2.3766  1.3563  0.0852
 6820TIP3    H244656   4.688   4.400   2.668  1.3656 -2.9110  1.7159
 6821TIP3   OH244657   6.377   1.767   9.929 -0.1283 -0.0259 -1.0177
 6821TIP3    H144658   6.322   1.821   9.985 -0.9003 -1.7150 -0.0426
 6821TIP3    H244659   6.430   1.829   9.879 -0.9955  1.5899 -0.0152
 6822TIP3   OH244660   2.143   5.645   7.333  0.4716 -0.3141  0.0288
 6822TIP3    H144661   2.070   5.625   7.392  0.2063 -0.7755 -0.4482
 6822TIP3    H244662   2.215   5.589   7.365 -0.3154 -2.2614 -1.4013
 6823TIP3   OH244663   3.219   0.442   8.991 -0.4730 -0.1389 -0.0991
 6823TIP3    H144664   3.137   0.491   8.979 -1.1301 -1.2299 -0.1297
 6823TIP3    H244665   3.258   0.441   8.903 -0.4676  0.2913 -0.1073
 6824TIP3   OH244666   0.072   7.222   2.144 -0.0348 -0.0336  0.2921
 6824TIP3    H144667   0.107   7.151   2.198  0.6266  1.1423  1.4611
 6824TIP3    H244668   0.149   7.265   2.108 -0.0610  2.7384  3.0900
 6825TIP3   OH244669   0.959   1.384   2.463  0.0813  0.4209  0.0054
 6825TIP3    H144670   0.963   1.437   2.543  1.1430  0.3103  0.0396
 6825TIP3    H244671   0.877   1.410   2.422 -0.7814  0.0415  1.4241
 6826TIP3   OH244672   5.423   4.892   2.868 -0.7701  0.3386  0.3367
 6826TIP3    H144673   5.344   4.941   2.847 -1.0892 -0.7707 -1.2585
 6826TIP3    H244674   5.479   4.903   2.791 -1.3174 -2.6046 -0.6115
 6827TIP3   OH244675   7.164   1.570   0.648 -0.5284  0.1656 -0.4167
 6827TIP3    H144676   7.237   1.514   0.620 -0.0707 -0.6936  2.2362
 6827TIP3    H244677   7.200   1.626   0.716 -1.9792  0.8162 -0.1291
 6828TIP3   OH244678   0.617   1.211   9.741 -0.4590  0.0808 -0.3516
 6828TIP3    H144679   0.538   1.166   9.771 -0.3812 -0.3407 -0.7643
 6828TIP3    H244680   0.605   1.221   9.647 -1.5013  3.0048  0.0138
 6829TIP3   OH244681   6.755   5.408   1.640 -0.0131 -0.2631 -0.3748
 6829TIP3    H144682   6.752   5.360   1.558  0.3222 -0.2887 -0.3720
 6829TIP3    H244683   6.796   5.492   1.617  0.4161 -0.4132 -0.1628
 6830TIP3   OH244684   6.715   4.958   9.808 -0.6898 -0.0793  0.2829
 6830TIP3    H144685   6.624   4.940   9.830 -1.5121  1.6276 -1.4197
 6830TIP3    H244686   6.743   4.883   9.756 -0.4130 -1.5836  2.4757
 6831TIP3   OH244687   0.537   0.016   2.748  0.0413 -0.2053 -0.5697
 6831TIP3    H144688   0.604  -0.050   2.729 -1.2176 -1.7233  0.1372
 6831TIP3    H244689   0.455  -0.024   2.722 -0.8501  0.7981  0.5963
 6832TIP3   OH244690   3.894   1.051   2.345  0.0362 -0.5753  0.4151
 6832TIP3    H144691   3.823   1.112   2.365  0.3153  0.5791 -1.7453
 6832TIP3    H244692   3.855   0.965   2.357 -0.8040  0.0068  2.1624
 6833TIP3   OH244693   3.449   3.950   2.889 -0.1263 -0.0103  0.4619
 6833TIP3    H144694   3.542   3.927   2.889 -0.3836 -1.2184  1.5571
 6833TIP3    H244695   3.447   4.044   2.909  0.8564  0.0232  0.4329
 6834TIP3   OH244696   6.997   3.245   1.003 -0.4937  0.6319  0.7344
 6834TIP3    H144697   6.976   3.332   0.970 -0.9907  0.7692  1.4147
 6834TIP3    H244698   6.919   3.218   1.051 -0.7485 -0.6123 -0.3144
 6835TIP3   OH244699   3.965   3.960   2.242  0.2127  0.4418 -0.4085
 6835TIP3    H144700   4.024   3.893   2.208 -1.2248 -0.7441 -0.6396
 6835TIP3    H244701   3.905   3.979   2.169 -0.0554  1.2122 -0.0040
 6836TIP3   OH244702   5.695   5.547   0.160 -0.4450 -0.2471  0.4141
 6836TIP3    H144703   5.749   5.504   0.226 -0.0403  0.0863  0.2976
 6836TIP3    H244704   5.611   5.561   0.204  0.1754  1.0247  1.2552
 6837TIP3   OH244705   1.867   6.211   7.659  0.4332 -0.0017 -0.2053
 6837TIP3    H144706   1.849   6.241   7.570  1.1073 -0.6451 -0.5623
 6837TIP3    H244707   1.961   6.226   7.672  0.4060 -0.2062  0.2826
 6838TIP3   OH244708   3.852   5.360   8.447 -0.0574 -0.0188  0.2308
 6838TIP3    H144709   3.938   5.394   8.473  0.2240  0.3312 -1.0707
 6838TIP3    H244710   3.791   5.393   8.513  0.4611  1.6400 -0.0914
 6839TIP3   OH244711   3.338   6.423   7.363 -0.5095 -0.6637  0.4848
 6839TIP3    H144712   3.304   6.334   7.374 -2.0118 -0.3574 -1.2517
 6839TIP3    H244713   3.382   6.421   7.278  1.4680 -0.2960  1.4512
 6840TIP3   OH244714   7.286   7.169   0.791  0.6179  0.0434  0.0202
 6840TIP3    H144715   7.341   7.092   0.775 -1.1363 -1.1303 -0.6115
 6840TIP3    H244716   7.296   7.187   0.884 -0.4919 -2.2362  0.6458
 6841TIP3   OH244717   7.197   3.389   9.184 -0.0988 -0.4747 -0.0893
 6841TIP3    H144718   7.201   3.338   9.265  0.0592 -2.4244 -1.2586
 6841TIP3    H244719   7.273   3.448   9.190 -1.7278  1.6186  2.4636
 6842TIP3   OH244720   5.100   4.471   2.190 -0.4426 -0.5195  0.8792
 6842TIP3    H144721   5.177   4.414   2.188  1.4520  1.7058  3.3428
 6842TIP3    H244722   5.116   4.534   2.119  0.3971  0.2823  1.7384
 6843TIP3   OH244723   4.100   0.545   1.339 -0.2195 -0.0023  0.0977
 6843TIP3    H144724   4.114   0.639   1.349 -0.9030  0.0537  0.5740
 6843TIP3    H244725   4.076   0.514   1.426  0.9163 -0.7868  0.1556
 6844TIP3   OH244726   1.282   6.560   1.313  0.0944  0.2935 -0.2409
 6844TIP3    H144727   1.286   6.633   1.375  2.6509  2.8412 -3.0872
 6844TIP3    H244728   1.197   6.570   1.270 -0.6742 -0.0884  1.1019
 6845TIP3   OH244729   2.585   0.074   9.330  0.5731  0.2928  0.3694
 6845TIP3    H144730   2.528   0.102   9.258  0.0473  0.4508  0.8339
 6845TIP3    H244731   2.536   0.097   9.409  1.2139  0.2711  0.7802
 6846TIP3   OH244732   2.606   6.420   1.792 -0.3642 -0.3124  0.4264
 6846TIP3    H144733   2.537   6.386   1.735 -0.5088 -0.6389  0.7877
 6846TIP3    H244734   2.601   6.366   1.871 -0.9795  0.8889  1.2597
 6847TIP3   OH244735   5.568   0.939   7.993  0.3693 -0.0124  0.4062
 6847TIP3    H144736   5.636   1.004   7.974 -1.8987  2.1885 -0.6246
 6847TIP3    H244737   5.515   0.934   7.914 -0.1373 -2.4332  0.8180
 6848TIP3   OH244738   5.056   1.097   0.845  0.4095 -0.3068  0.7099
 6848TIP3    H144739   4.979   1.109   0.901 -0.1752  0.3177 -0.1756
 6848TIP3    H244740   5.092   1.185   0.836  0.6243 -0.4358  0.2991
 6849TIP3   OH244741   1.739   7.264   7.292  0.3332  0.4700 -0.1192
 6849TIP3    H144742   1.780   7.178   7.289  0.8161  0.6586  0.6881
 6849TIP3    H244743   1.692   7.271   7.209  0.4723 -0.4752 -0.2911
 6850TIP3   OH244744   6.823   3.673   8.987  0.3342 -0.0531 -0.3165
 6850TIP3    H144745   6.752   3.624   9.027  0.5475 -0.3675 -0.3226
 6850TIP3    H244746   6.779   3.742   8.937  0.0602  0.2074  0.2729
 6851TIP3   OH244747   5.785   1.448   9.758 -0.3788  0.2920  0.0714
 6851TIP3    H144748   5.745   1.535   9.758 -1.1180  0.0168  2.3096
 6851TIP3    H244749   5.851   1.452   9.827  0.5366 -0.5333 -0.7300
 6852TIP3   OH244750   2.350   1.491   1.597  0.3924 -0.5703  0.4266
 6852TIP3    H144751   2.363   1.396   1.600  1.3957 -0.4502  0.2044
 6852TIP3    H244752   2.322   1.514   1.686 -0.2883 -1.1265  0.3605
 6853TIP3   OH244753   5.049   0.652   8.586  0.1292  0.4799 -0.3389
 6853TIP3    H144754   5.033   0.616   8.673 -0.2295  1.7454  0.1291
 6853TIP3    H244755   4.993   0.600   8.528  1.6968 -1.5905 -0.1368
 6854TIP3   OH244756   1.881   4.783   1.376  0.0379 -0.2203  0.6130
 6854TIP3    H144757   1.878   4.825   1.290  1.4627 -1.0513  0.1269
 6854TIP3    H244758   1.789   4.776   1.402 -0.3212  2.1847  0.2623
 6855TIP3   OH244759   6.176   2.650   8.752  0.9210 -0.1084  0.3004
 6855TIP3    H144760   6.122   2.664   8.830 -0.3242  0.5265 -0.6468
 6855TIP3    H244761   6.198   2.557   8.755  1.7067  0.0876  1.9051
 6856TIP3   OH244762   2.763   0.435   7.932 -0.1619  0.2789 -0.7054
 6856TIP3    H144763   2.714   0.416   8.013 -0.9910 -0.0312 -1.2683
 6856TIP3    H244764   2.763   0.531   7.927 -0.6601  0.2869 -0.6560
 6857TIP3   OH244765   4.792   6.216   9.568  0.0397 -0.3469  0.5317
 6857TIP3    H144766   4.882   6.248   9.573 -0.0556  0.4570 -1.9068
 6857TIP3    H244767   4.801   6.123   9.549  0.2989 -0.6666  2.0314
 6858TIP3   OH244768   5.200   4.445   1.061  0.2020  0.1642 -0.3707
 6858TIP3    H144769   5.114   4.421   1.027 -0.4109  0.9484  0.5537
 6858TIP3    H244770   5.214   4.385   1.135 -0.8110  1.7477  1.2022
 6859TIP3   OH244771   2.548   5.185   0.779 -0.2735 -0.2437 -0.0037
 6859TIP3    H144772   2.624   5.148   0.735 -0.1153 -0.9183  0.8084
 6859TIP3    H244773   2.486   5.112   0.785 -0.5028 -0.0188  0.4091
 6860TIP3   OH244774   0.639   0.403   9.239 -0.2307 -0.2227  0.1059
 6860TIP3    H144775   0.601   0.373   9.156 -1.3784 -1.3451  0.9938
 6860TIP3    H244776   0.718   0.351   9.250 -0.2471 -0.2967 -0.1148
 6861TIP3   OH244777   2.572   6.078   8.611  0.7388 -0.1777 -0.6606
 6861TIP3    H144778   2.546   6.170   8.612  0.1681 -0.1868  3.6713
 6861TIP3    H244779   2.501   6.033   8.565 -2.4810  0.9088  2.7918
 6862TIP3   OH244780   2.060   4.980   2.401  0.0287 -0.5109  0.0789
 6862TIP3    H144781   1.984   4.927   2.425 -1.1382  1.1457  0.2465
 6862TIP3    H244782   2.025   5.069   2.393  1.9748  0.3249  0.2883
 6863TIP3   OH244783   7.334   1.027   0.961  0.7676 -0.3756  0.1545
 6863TIP3    H144784   7.394   1.100   0.946  0.3016 -0.0535 -0.1916
 6863TIP3    H244785   7.258   1.067   1.004  1.2640 -0.9709  1.6359
 6864TIP3   OH244786   2.629   7.217   9.113  0.7473 -0.6444  0.1228
 6864TIP3    H144787   2.600   7.128   9.094  0.1573 -0.2220 -0.9916
 6864TIP3    H244788   2.707   7.204   9.168  0.6112 -1.8385  0.0758
 6865TIP3   OH244789   0.960   5.795   1.726  0.0647  0.4891 -0.6390
 6865TIP3    H144790   1.031   5.763   1.670 -0.7116 -2.9579  0.1307
 6865TIP3    H244791   0.992   5.783   1.815 -1.0705 -0.1481 -0.2969
 6866TIP3   OH244792   2.820   7.243   9.863 -0.0448 -0.1743 -0.7582
 6866TIP3    H144793   2.726   7.249   9.843 -0.1889  0.9376  0.1516
 6866TIP3    H244794   2.826   7.169   9.924 -0.2262 -0.6570 -1.3089
 6867TIP3   OH244795   5.359   7.020   1.611 -0.1167 -0.4182 -0.2389
 6867TIP3    H144796   5.358   6.955   1.681  1.2699 -1.3230 -1.0235
 6867TIP3    H244797   5.280   7.072   1.626  0.3007 -0.3615  2.1901
 6868TIP3   OH244798   4.641   7.470   8.455  0.4046 -0.2415 -0.1700
 6868TIP3    H144799   4.621   7.377   8.466  1.0409 -0.4795 -0.9696
 6868TIP3    H244800   4.617   7.509   8.539  0.6446 -1.2141  0.3642
 6869TIP3   OH244801   5.885   0.260   2.351 -0.5071  0.1095  0.2119
 6869TIP3    H144802   5.963   0.315   2.346 -0.6956  0.4412  0.8106
 6869TIP3    H244803   5.917   0.171   2.344 -0.0311  0.2252  0.8556
 6870TIP3   OH244804   2.125   1.610   0.359 -0.1729 -0.0452  0.2997
 6870TIP3    H144805   2.067   1.599   0.435 -0.7163  0.5346 -0.0236
 6870TIP3    H244806   2.199   1.660   0.393 -1.3917  2.0804  0.0176
 6871TIP3   OH244807   3.001   5.537   9.525 -0.1074  0.3033 -0.3151
 6871TIP3    H144808   2.935   5.606   9.522 -0.7132 -0.2646 -0.2427
 6871TIP3    H244809   3.079   5.580   9.561 -0.5752  0.8695  0.0454
 6872TIP3   OH244810   7.193   6.097   1.653 -0.3882  0.0400  0.0326
 6872TIP3    H144811   7.182   6.022   1.594 -1.5392  0.7361 -0.6783
 6872TIP3    H244812   7.124   6.158   1.627 -0.0757  0.9409  1.2345
 6873TIP3   OH244813   2.098   1.498   9.842 -0.2596  0.7286  0.9026
 6873TIP3    H144814   2.114   1.548   9.762 -0.1758  0.4940  0.7716
 6873TIP3    H244815   2.170   1.522   9.900  0.2947  0.0700  0.5048
 6874TIP3   OH244816   3.407   5.667   7.955 -0.1056 -0.5396  0.1000
 6874TIP3    H144817   3.331   5.691   7.903  0.6382  1.7905 -0.0451
 6874TIP3    H244818   3.396   5.715   8.037 -0.4512 -2.8778  1.5284
 6875TIP3   OH244819   2.524   2.109   8.779 -0.1992  0.2230 -0.3155
 6875TIP3    H144820   2.581   2.186   8.782  0.7459 -0.5005  1.4760
 6875TIP3    H244821   2.532   2.069   8.865 -0.6046 -1.9567 -1.2173
 6876TIP3   OH244822   5.607   5.635   9.462 -0.8719 -0.0911 -0.3383
 6876TIP3    H144823   5.621   5.550   9.505 -0.6646  0.0375 -0.1499
 6876TIP3    H244824   5.540   5.678   9.516 -2.0500 -0.7219 -1.2601
 6877TIP3   OH244825   0.054   6.624   9.128  0.0704 -0.1223 -0.4316
 6877TIP3    H144826  -0.041   6.622   9.129  0.0459  0.5363  0.7279
 6877TIP3    H244827   0.079   6.567   9.055 -1.1766 -1.3783  0.0886
 6878TIP3   OH244828   5.939   6.840   1.692  0.0843 -0.0828  0.4457
 6878TIP3    H144829   5.976   6.857   1.778 -0.1389  2.0255  0.1814
 6878TIP3    H244830   5.953   6.747   1.678  2.4834  0.0024  1.6684
 6879TIP3   OH244831   1.752   2.826   0.047 -0.0255  0.1888 -0.4971
 6879TIP3    H144832   1.767   2.920   0.037  0.9179 -0.0076 -1.0092
 6879TIP3    H244833   1.700   2.819   0.127  1.4683  1.0119  0.5872
 6880TIP3   OH244834   2.980   5.594   1.662 -0.1413  0.6894  0.1207
 6880TIP3    H144835   2.892   5.560   1.679 -0.1850  0.9200  0.3574
 6880TIP3    H244836   2.986   5.672   1.716  0.5875  0.0986  0.9299
 6881TIP3   OH244837   2.974   2.289   8.281 -0.0149  0.0750 -0.5156
 6881TIP3    H144838   3.012   2.333   8.205  0.5654  1.5040  0.5346
 6881TIP3    H244839   2.926   2.215   8.245 -0.0717  0.9152 -2.2943
 6882TIP3   OH244840   4.619   2.899   8.612 -0.0306  0.4518 -0.4295
 6882TIP3    H144841   4.564   2.822   8.593  0.5052  0.1802 -0.9183
 6882TIP3    H244842   4.674   2.908   8.535 -0.1834  1.4221 -0.4296
 6883TIP3   OH244843   3.726   1.862   6.817 -0.6757 -0.1007 -0.2039
 6883TIP3    H144844   3.799   1.923   6.815  0.5710 -1.5626 -1.2237
 6883TIP3    H244845   3.729   1.822   6.904 -1.1118  0.7887  0.2352
 6884TIP3   OH244846   1.075   6.694   0.756  0.2828 -0.2827 -0.6988
 6884TIP3    H144847   1.146   6.735   0.707 -0.8780  0.3995 -1.8663
 6884TIP3    H244848   1.005   6.683   0.692 -1.2150  0.4513  0.7395
 6885TIP3   OH244849   7.360   6.638   7.573  0.1052 -0.2257  0.3866
 6885TIP3    H144850   7.415   6.697   7.624 -0.2642  0.0519  0.4698
 6885TIP3    H244851   7.307   6.592   7.639  1.1510 -1.4512  0.4113
 6886TIP3   OH244852   5.189   0.690   2.385  0.2159 -0.5665 -0.1336
 6886TIP3    H144853   5.146   0.706   2.468  1.9335 -0.7317  0.8287
 6886TIP3    H244854   5.218   0.776   2.355  0.4767 -0.6271 -0.0583
 6887TIP3   OH244855   4.885   1.878   1.265 -0.4958  0.8022  0.6371
 6887TIP3    H144856   4.829   1.954   1.283  0.5781  2.4491 -2.2650
 6887TIP3    H244857   4.971   1.916   1.247  0.4386 -1.2605  0.4878
 6888TIP3   OH244858   2.584   5.395   7.830  0.3340  0.2617 -0.3224
 6888TIP3    H144859   2.624   5.314   7.863  0.0719  1.1588  2.5060
 6888TIP3    H244860   2.524   5.422   7.900 -1.3785  1.6602 -2.2387
 6889TIP3   OH244861   6.930   2.660   9.471  0.0375 -0.1502 -0.0333
 6889TIP3    H144862   7.001   2.610   9.431  0.1811 -0.4455  0.5788
 6889TIP3    H244863   6.868   2.675   9.399  0.3496 -0.5575 -0.3934
 6890TIP3   OH244864   3.216   3.873   9.599  0.0911  0.1427 -0.1888
 6890TIP3    H144865   3.241   3.791   9.557  1.5212  1.4033 -1.9125
 6890TIP3    H244866   3.271   3.877   9.678  0.9562  0.0295 -0.7744
 6891TIP3   OH244867   4.750   2.116   9.280 -0.1191  0.0928 -0.0306
 6891TIP3    H144868   4.836   2.152   9.258 -0.5112  0.0992 -1.7427
 6891TIP3    H244869   4.741   2.129   9.374  1.5170  0.5938  0.0805
 6892TIP3   OH244870   1.093   0.284   8.214  0.6442  0.3941 -0.6508
 6892TIP3    H144871   1.102   0.287   8.119  0.8292  4.6132 -0.6627
 6892TIP3    H244872   1.163   0.341   8.247 -0.6247  0.6224  1.9015
 6893TIP3   OH244873   4.952   4.916   0.666 -0.0456  0.1798 -0.2222
 6893TIP3    H144874   4.903   4.996   0.684 -0.8337 -0.2067 -0.5947
 6893TIP3    H244875   4.886   4.854   0.635  0.5004 -0.7152  0.3550
 6894TIP3   OH244876   7.190   2.983   2.374 -0.0182  0.5280  0.1631
 6894TIP3    H144877   7.152   3.021   2.295  1.1572  0.1466 -0.6227
 6894TIP3    H244878   7.197   2.890   2.355 -1.3518  0.1334  1.4319
 6895TIP3   OH244879   5.000   4.139   9.670 -0.0705 -0.5100 -0.3280
 6895TIP3    H144880   5.077   4.114   9.721  0.2019  0.2532 -0.3511
 6895TIP3    H244881   4.927   4.095   9.713  0.0985  0.4326  0.9569
 6896TIP3   OH244882   1.356   2.269   8.342  0.1683  0.1049 -0.3002
 6896TIP3    H144883   1.444   2.305   8.350 -0.5194  1.4834  1.8778
 6896TIP3    H244884   1.359   2.186   8.389  0.0820  0.6238  0.6357
 6897TIP3   OH244885   6.170   4.434   0.392 -0.3811  0.2413 -0.5685
 6897TIP3    H144886   6.138   4.493   0.323 -0.5122 -1.3147 -1.8854
 6897TIP3    H244887   6.243   4.388   0.352 -1.0717 -1.3940 -0.0243
 6898TIP3   OH244888   2.621   4.406   0.221  0.0035 -0.8391  0.3193
 6898TIP3    H144889   2.679   4.385   0.294  1.9355  3.7063  0.4147
 6898TIP3    H244890   2.680   4.416   0.146 -1.1263  0.3238 -0.4545
 6899TIP3   OH244891   5.688   6.192   0.678  0.6534 -0.2207  0.3694
 6899TIP3    H144892   5.658   6.102   0.665  0.9862 -0.5534  1.7668
 6899TIP3    H244893   5.783   6.187   0.670  0.7525 -0.1848  1.4532
 6900TIP3   OH244894   1.675   5.762   6.468 -0.0544 -0.3177  0.0664
 6900TIP3    H144895   1.618   5.835   6.494  1.5102  0.0931  2.7050
 6900TIP3    H244896   1.637   5.685   6.511  1.6701  0.0918  2.5157
 6901TIP3   OH244897   3.321   0.202   8.508 -0.0759  0.3894  0.3791
 6901TIP3    H144898   3.393   0.246   8.553  1.3676 -0.4192 -1.0008
 6901TIP3    H244899   3.246   0.259   8.520  0.9515  1.5983  1.3236
 6902TIP3   OH244900   2.099   1.059   7.130  0.0752  0.0234  0.2093
 6902TIP3    H144901   2.191   1.037   7.116  0.1908  0.1708  0.7073
 6902TIP3    H244902   2.055   1.035   7.048  0.3140 -1.3433  0.4660
 6903TIP3   OH244903   6.555   3.582   7.385 -0.7514 -0.1457 -0.6371
 6903TIP3    H144904   6.569   3.672   7.355 -0.6836 -0.5154 -1.7514
 6903TIP3    H244905   6.463   3.580   7.412 -0.1430  0.9140  1.8710
 6904TIP3   OH244906   3.552   6.494   1.298 -0.1154 -0.1602  0.3127
 6904TIP3    H144907   3.634   6.495   1.347  0.2542 -1.7578 -0.2370
 6904TIP3    H244908   3.525   6.586   1.296 -0.2782 -0.0082  3.6852
 6905TIP3   OH244909   2.460   5.255   1.820 -0.0388  0.5644  0.0900
 6905TIP3    H144910   2.494   5.170   1.791 -0.3420 -0.0307  1.4014
 6905TIP3    H244911   2.433   5.240   1.910  0.3426  2.1904  0.5021
 6906TIP3   OH244912   2.199   4.943   0.893  0.0742 -0.0481 -0.2886
 6906TIP3    H144913   2.287   4.947   0.855 -0.3210  3.0135 -1.1319
 6906TIP3    H244914   2.140   4.954   0.818 -0.9474  0.1707  0.5246
 6907TIP3   OH244915   1.572   2.427   9.097 -0.0647  0.7194 -0.0052
 6907TIP3    H144916   1.662   2.415   9.126  0.2198  0.1862 -1.0568
 6907TIP3    H244917   1.546   2.343   9.060 -0.1876  1.4990 -1.8163
 6908TIP3   OH244918   3.649   0.870   9.437 -0.1825 -0.2448  0.1201
 6908TIP3    H144919   3.725   0.901   9.485  0.9176 -0.4332 -1.4144
 6908TIP3    H244920   3.662   0.775   9.429 -0.9105 -0.3794  0.3667
 6909TIP3   OH244921   2.862   2.945   7.986 -0.0773  0.1541  0.1515
 6909TIP3    H144922   2.833   2.994   8.064  0.7950  0.2130  0.4480
 6909TIP3    H244923   2.915   2.873   8.022 -0.1241 -0.1367 -0.3621
 6910TIP3   OH244924   0.697   5.972   7.771  0.1472  0.1189 -0.2502
 6910TIP3    H144925   0.708   6.039   7.839  0.7573 -0.3040  0.0782
 6910TIP3    H244926   0.714   6.019   7.689 -0.1437  0.5297 -0.0837
 6911TIP3   OH244927   3.207   0.011   2.040  0.1876 -0.0692  0.1139
 6911TIP3    H144928   3.247  -0.052   1.980 -1.2819 -0.4098 -0.5379
 6911TIP3    H244929   3.236  -0.016   2.127 -0.0479 -1.3661 -0.2033
 6912TIP3   OH244930   5.117   5.505   1.174 -0.6002  0.8718  0.2319
 6912TIP3    H144931   5.170   5.428   1.195 -0.3819  1.1546  0.7165
 6912TIP3    H244932   5.042   5.469   1.127 -0.8332  0.2740  1.0240
 6913TIP3   OH244933   4.798   1.358   2.787 -0.0399  0.4512  0.7182
 6913TIP3    H144934   4.724   1.311   2.749  0.3747 -0.8636  1.4753
 6913TIP3    H244935   4.767   1.448   2.795 -1.2417  0.1109  0.1965
 6914TIP3   OH244936   3.668   1.882   1.248  0.0191  0.0102 -0.5173
 6914TIP3    H144937   3.682   1.930   1.330  0.6434 -0.6466 -0.2336
 6914TIP3    H244938   3.681   1.948   1.180  3.4249 -0.2218 -0.2418
 6915TIP3   OH244939   6.960   1.924   0.225  0.0390 -0.0713 -0.2379
 6915TIP3    H144940   6.964   1.853   0.289 -2.0970 -0.3972 -0.3876
 6915TIP3    H244941   7.005   1.889   0.148 -1.3646 -1.4813 -0.4606
 6916TIP3   OH244942   5.174   4.823   1.485  0.2754  0.2699  0.4765
 6916TIP3    H144943   5.136   4.900   1.442  0.9140  0.6005  0.4892
 6916TIP3    H244944   5.254   4.856   1.527  0.0462 -0.2044  1.2997
 6917TIP3   OH244945   0.160   0.324   8.665  0.1336 -0.5051  0.0585
 6917TIP3    H144946   0.165   0.369   8.581 -0.2925 -1.4001 -0.4571
 6917TIP3    H244947   0.082   0.269   8.659  2.2823 -3.7257 -0.5669
 6918TIP3   OH244948   1.107   4.599   7.641 -0.2855  0.3153 -0.6421
 6918TIP3    H144949   1.137   4.621   7.730 -1.4216 -0.2368 -0.0937
 6918TIP3    H244950   1.182   4.556   7.600 -0.5473 -1.8970  1.0056
 6919TIP3   OH244951   0.935   1.348   8.362 -0.1219  0.3950 -0.2365
 6919TIP3    H144952   0.991   1.365   8.438 -0.0057 -0.9280 -0.0057
 6919TIP3    H244953   0.852   1.391   8.383  0.1170  0.5598  0.3728
 6920TIP3   OH244954   1.799   1.196   8.794 -0.0166  0.3351  0.5540
 6920TIP3    H144955   1.795   1.292   8.790 -3.5795  0.3126 -0.4574
 6920TIP3    H244956   1.806   1.168   8.703  1.5662 -0.4172  0.8809
 6921TIP3   OH244957   0.447   6.058   9.064 -0.0622 -0.0490  0.0626
 6921TIP3    H144958   0.385   6.124   9.034  1.0253  0.5642 -0.8868
 6921TIP3    H244959   0.516   6.056   8.997  0.7729 -0.9600  0.9063
 6922TIP3   OH244960   6.498   4.360   1.975  0.0886  0.5582 -0.1895
 6922TIP3    H144961   6.486   4.269   1.948  1.3065  0.5928 -0.9348
 6922TIP3    H244962   6.584   4.362   2.016  0.4723  1.5205 -0.9870
 6923TIP3   OH244963   1.324   5.576   1.442 -0.2102  0.0477  0.0665
 6923TIP3    H144964   1.386   5.522   1.491 -0.7478 -0.0314  0.6655
 6923TIP3    H244965   1.247   5.520   1.431  0.0369 -0.0740 -1.2066
 6924TIP3   OH244966   0.659   3.450   8.847  0.5309  0.9037  0.2425
 6924TIP3    H144967   0.693   3.535   8.819 -1.6375  1.8913  0.3955
 6924TIP3    H244968   0.569   3.467   8.873  1.0725 -0.7364  3.8653
 6925TIP3   OH244969   5.415   5.181   2.080  0.0328 -0.5430  0.2675
 6925TIP3    H144970   5.502   5.219   2.093  0.1237  0.2096 -1.9985
 6925TIP3    H244971   5.355   5.250   2.107  0.2082  0.9501 -2.7082
 6926TIP3   OH244972   5.098   5.928   2.733 -0.0257 -0.1223  0.2165
 6926TIP3    H144973   5.045   5.951   2.809 -2.7587 -1.0578 -1.2750
 6926TIP3    H244974   5.151   5.855   2.761  0.9018  1.1331  1.9053
 6927TIP3   OH244975   3.558   3.974   8.297  0.6142 -0.1226  0.1318
 6927TIP3    H144976   3.478   3.925   8.317  0.4152  0.7177  1.4620
 6927TIP3    H244977   3.577   3.951   8.205 -0.8740 -0.7026 -0.0611
 6928TIP3   OH244978   2.896   2.126   7.870  0.3804  0.3459 -0.4522
 6928TIP3    H144979   2.990   2.143   7.865  0.5353 -0.3134  0.0373
 6928TIP3    H244980   2.889   2.031   7.867 -0.1676  0.3205  0.8659
 6929TIP3   OH244981   2.972   0.579   8.883  0.4519  0.1385 -0.0892
 6929TIP3    H144982   2.905   0.575   8.951  0.2312  3.4127  0.0607
 6929TIP3    H244983   2.924   0.565   8.802 -0.5655  2.4429  0.0143
 6930TIP3   OH244984   5.927   4.260   1.517 -0.1550 -0.0500  0.5431
 6930TIP3    H144985   6.021   4.277   1.529  0.5279 -1.3200 -2.1530
 6930TIP3    H244986   5.888   4.347   1.510  1.7095  0.7282 -3.2071
 6931TIP3   OH244987   4.529   2.402   7.405  0.3700  0.5836 -0.1880
 6931TIP3    H144988   4.577   2.431   7.328 -0.9605  0.7534 -0.9886
 6931TIP3    H244989   4.475   2.329   7.374 -0.0862  0.5627  0.6159
 6932TIP3   OH244990   3.094   1.622   9.308 -0.1666 -0.2427  0.0114
 6932TIP3    H144991   3.131   1.628   9.220  1.4970 -1.7113  0.5638
 6932TIP3    H244992   3.029   1.551   9.302 -1.2330  0.7299 -0.3759
 6933TIP3   OH244993   1.818   1.724   7.335  0.3616  0.2117 -0.3436
 6933TIP3    H144994   1.861   1.765   7.260  0.7297  1.4051  0.4837
 6933TIP3    H244995   1.748   1.786   7.358 -1.4962 -1.4070 -1.3132
 6934TIP3   OH244996   4.636   5.970   7.549 -0.3707  0.8442 -0.2163
 6934TIP3    H144997   4.705   5.992   7.612 -0.0767 -0.0285 -0.2232
 6934TIP3    H244998   4.633   6.046   7.490  2.3352 -0.0981 -1.7380
 6935TIP3   OH244999   7.133   5.043   8.801 -0.0168  0.5688 -0.0519
 6935TIP3    H145000   7.144   4.955   8.837 -0.3761  0.3161 -0.5462
 6935TIP3    H245001   7.042   5.066   8.822 -0.6761 -0.1169 -1.8977
 6936TIP3   OH245002   2.261   3.302   9.189 -0.1319  0.4075  0.4593
 6936TIP3    H145003   2.186   3.341   9.143 -1.0558  0.2536  1.7848
 6936TIP3    H245004   2.292   3.233   9.131  1.4358  2.8860 -1.8948
 6937TIP3   OH245005   5.306   5.131   8.742 -0.3098 -0.4296 -0.2503
 6937TIP3    H145006   5.345   5.054   8.701 -1.5009 -0.3180 -1.7233
 6937TIP3    H245007   5.380   5.185   8.767  0.5231 -1.0544 -1.2463
 6938TIP3   OH245008   6.553   3.882   2.092 -0.2219 -0.0552 -0.4334
 6938TIP3    H145009   6.503   3.816   2.043  1.9649 -1.3935 -1.0152
 6938TIP3    H245010   6.511   3.884   2.178 -1.6988 -0.5854 -1.1107
 6939TIP3   OH245011   0.264   1.281   2.117  0.3294  0.1551  0.9347
 6939TIP3    H145012   0.286   1.364   2.076 -1.5604  0.1754 -0.1803
 6939TIP3    H245013   0.284   1.293   2.209  1.4423  1.3283  0.5636
 6940TIP3   OH245014   2.506   1.558   9.211  0.2031  0.5795 -0.4365
 6940TIP3    H145015   2.480   1.614   9.284  1.7285 -0.4412  0.9627
 6940TIP3    H245016   2.431   1.560   9.152 -1.0568  1.5192  1.1014
 6941TIP3   OH245017   2.589   2.659   1.016 -0.4305 -0.7085 -0.2423
 6941TIP3    H145018   2.587   2.732   1.078 -2.2592 -0.2330 -0.7994
 6941TIP3    H245019   2.670   2.613   1.036  1.0158  1.6941 -0.1429
 6942TIP3   OH245020   2.086   5.271   1.627  0.0580 -0.2573 -0.5128
 6942TIP3    H145021   2.067   5.327   1.552 -0.9492 -1.0687 -0.8896
 6942TIP3    H245022   2.000   5.246   1.660  0.4818 -1.6141 -0.3849
 6943TIP3   OH245023   2.770   4.898   6.834 -0.0025  0.1397 -0.0042
 6943TIP3    H145024   2.736   4.864   6.751  0.2145  1.6543 -0.7360
 6943TIP3    H245025   2.696   4.946   6.872  0.2025  0.2892  0.2035
 6944TIP3   OH245026   6.847   0.237   2.035  0.1037 -0.4319  0.0360
 6944TIP3    H145027   6.755   0.262   2.041 -0.1715 -1.6904  2.2530
 6944TIP3    H245028   6.846   0.141   2.034  1.3959 -0.4634 -0.1386
 6945TIP3   OH245029   3.856   2.121   2.314 -0.4707 -0.5748  0.3544
 6945TIP3    H145030   3.785   2.057   2.313 -0.9098 -0.0977  0.5555
 6945TIP3    H245031   3.813   2.204   2.337 -0.3100  0.2477 -1.9920
 6946TIP3   OH245032   1.531   4.853   1.104  0.0287  0.0648 -0.6677
 6946TIP3    H145033   1.593   4.923   1.087  0.6722 -0.7631 -1.9009
 6946TIP3    H245034   1.459   4.868   1.043  0.3911 -0.5822 -1.2784
 6947TIP3   OH245035   0.149   5.641   0.690 -0.0331 -0.1550 -0.0970
 6947TIP3    H145036   0.080   5.585   0.727 -0.0878 -0.6473 -0.9171
 6947TIP3    H245037   0.221   5.634   0.753 -0.6996  0.3276  0.7488
 6948TIP3   OH245038   4.458   7.103   0.903  0.2676 -0.0965  0.2234
 6948TIP3    H145039   4.514   7.032   0.872  1.2758 -0.1120  1.9454
 6948TIP3    H245040   4.378   7.060   0.933 -1.1780  0.0043 -3.0599
 6949TIP3   OH245041   6.672   3.528   2.344 -0.5407 -0.2362 -0.0490
 6949TIP3    H145042   6.627   3.446   2.368 -1.3725 -0.1151 -1.0782
 6949TIP3    H245043   6.613   3.597   2.374 -0.8460 -0.0628 -1.0243
 6950TIP3   OH245044   2.078   6.482   8.530  0.2327 -0.1068  0.5952
 6950TIP3    H145045   2.052   6.521   8.446 -0.4139  1.0680  1.3130
 6950TIP3    H245046   2.020   6.523   8.594 -0.7962 -2.5941  1.3867
 6951TIP3   OH245047   1.206   0.561   7.784 -0.3829  0.1881  0.1896
 6951TIP3    H145048   1.169   0.521   7.705 -1.3596  1.7347 -0.1699
 6951TIP3    H245049   1.300   0.544   7.777 -0.7361 -2.0913  0.1205
 6952TIP3   OH245050   4.806   4.090   9.882 -0.3711  0.1264 -0.3209
 6952TIP3    H145051   4.828   4.028   9.952  0.8303 -0.6249 -1.3160
 6952TIP3    H245052   4.723   4.058   9.847 -0.9251  0.4428  0.6592
 6953TIP3   OH245053   1.468   4.152   1.735  0.3209 -0.6330  0.0172
 6953TIP3    H145054   1.436   4.077   1.685 -0.9436  0.3020 -0.6444
 6953TIP3    H245055   1.414   4.152   1.814  2.3184 -2.1116  1.4887
 6954TIP3   OH245056   6.531   6.791   0.696  0.4371 -0.0092 -0.0324
 6954TIP3    H145057   6.539   6.798   0.791 -1.4035 -0.6853  0.2191
 6954TIP3    H245058   6.486   6.871   0.670 -0.0404 -0.3195 -0.1764
 6955TIP3   OH245059   1.023   4.899   1.483 -0.6992 -0.2871  0.5859
 6955TIP3    H145060   0.997   4.938   1.400  1.7791  0.1325 -0.1034
 6955TIP3    H245061   1.118   4.916   1.488  0.2728 -4.6346  1.0777
 6956TIP3   OH245062   6.947   4.608   0.545  0.0840  0.4711  0.3785
 6956TIP3    H145063   6.893   4.564   0.480  1.7889  1.0384 -1.5291
 6956TIP3    H245064   6.886   4.664   0.593 -1.0239  1.1747 -1.7376
 6957TIP3   OH245065   3.875   7.080   9.916 -0.0018  0.2838 -0.2882
 6957TIP3    H145066   3.848   7.145   9.851  0.3685  0.9037  0.1588
 6957TIP3    H245067   3.855   6.995   9.876 -2.6807  0.6704  0.0465
 6958TIP3   OH245068   5.561   4.137   2.623 -0.2377  0.0967 -0.2944
 6958TIP3    H145069   5.468   4.159   2.611 -0.7020 -1.1591  0.8338
 6958TIP3    H245070   5.604   4.222   2.636 -1.2211  0.6917 -0.8362
 6959TIP3   OH245071   5.546   5.228   8.413 -0.1947 -0.2629 -0.1877
 6959TIP3    H145072   5.631   5.207   8.374  0.9191 -0.2596  2.0630
 6959TIP3    H245073   5.483   5.216   8.342  1.6185 -0.7401 -1.7983
 6960TIP3   OH245074   1.100   4.800   1.020 -0.4604  0.0452 -0.4199
 6960TIP3    H145075   1.174   4.742   1.038  0.8232  2.0643  1.2964
 6960TIP3    H245076   1.138   4.872   0.969 -1.5460  0.4120 -0.7275
 6961TIP3   OH245077   2.215   1.600   1.253  0.4855  0.1109  0.1381
 6961TIP3    H145078   2.161   1.569   1.325  0.4846  2.4759  1.2415
 6961TIP3    H245079   2.304   1.573   1.277  0.3434 -0.0849  0.4554
 6962TIP3   OH245080   6.278   2.339   9.279  0.1520  0.2712 -0.0881
 6962TIP3    H145081   6.252   2.364   9.367  0.3179 -0.7908  0.2713
 6962TIP3    H245082   6.372   2.319   9.286 -0.4104 -2.6148  0.1666
 6963TIP3   OH245083   1.956   0.372   9.867 -0.4714  0.3696  0.1463
 6963TIP3    H145084   2.027   0.413   9.918  0.6447 -1.6466  0.3382
 6963TIP3    H245085   1.888   0.355   9.932  0.2336 -0.6084  0.6669
 6964TIP3   OH245086   4.083   4.656   8.856  0.0703  0.3191 -0.0245
 6964TIP3    H145087   4.010   4.703   8.816  0.6026  2.4422  1.3251
 6964TIP3    H245088   4.162   4.699   8.822  0.5768  0.4316  1.2200
 6965TIP3   OH245089   5.603   2.869   1.153 -0.0760  0.4716  0.0174
 6965TIP3    H145090   5.539   2.847   1.221  0.1678  0.3197  0.2031
 6965TIP3    H245091   5.614   2.963   1.161  1.2186  0.2447  1.3566
 6966TIP3   OH245092   6.443   5.855   9.217 -0.4504 -0.0008 -0.0649
 6966TIP3    H145093   6.466   5.893   9.132 -0.6836 -0.2562 -0.2438
 6966TIP3    H245094   6.452   5.927   9.279 -0.2416  0.1780 -0.3013
 6967TIP3   OH245095   0.631   4.342   8.218 -0.1698  0.2275 -0.1119
 6967TIP3    H145096   0.562   4.302   8.271 -0.4591  1.5454  0.5332
 6967TIP3    H245097   0.680   4.267   8.183 -0.5960 -0.6909  1.1822
 6968TIP3   OH245098   6.035   7.045   8.557 -0.2406 -0.0387  0.3766
 6968TIP3    H145099   6.114   7.010   8.598  0.9654  1.8552 -0.2116
 6968TIP3    H245100   6.017   6.986   8.484  1.6513  0.4000 -0.5172
 6969TIP3   OH245101   5.545   6.934   9.183  0.4614  0.0323  0.3029
 6969TIP3    H145102   5.583   7.005   9.235  0.2508  0.9271 -0.7289
 6969TIP3    H245103   5.616   6.871   9.172  0.1946 -0.7990  2.6689
 6970TIP3   OH245104   1.871   2.078   9.857 -0.3401  0.1632 -0.0516
 6970TIP3    H145105   1.806   2.012   9.880 -3.1439  2.0213 -2.0201
 6970TIP3    H245106   1.875   2.076   9.762  0.0664  2.2754 -0.1289
 6971TIP3   OH245107   3.254   5.388   7.160  0.0345 -0.3764  0.4161
 6971TIP3    H145108   3.232   5.298   7.137  0.8176 -0.0829 -1.6797
 6971TIP3    H245109   3.185   5.441   7.120 -0.6636 -0.0169  1.9934
 6972TIP3   OH245110   6.262   1.098   1.028 -0.5035 -0.0077 -0.3486
 6972TIP3    H145111   6.251   1.083   0.934  0.2452  0.4315 -0.5128
 6972TIP3    H245112   6.284   1.012   1.064 -1.3586 -0.2879 -0.4806
 6973TIP3   OH245113   2.781   5.724   0.390 -0.1483 -0.1628 -0.6440
 6973TIP3    H145114   2.872   5.701   0.370  0.7436  1.9072  0.7035
 6973TIP3    H245115   2.752   5.656   0.451  1.1008  0.0850  0.2634
 6974TIP3   OH245116   6.519   7.460   7.618 -0.3969  0.5348 -0.6482
 6974TIP3    H145117   6.424   7.470   7.616 -0.4587  0.4302  0.8513
 6974TIP3    H245118   6.550   7.509   7.541 -1.6356  0.7152 -1.0518
 6975TIP3   OH245119   2.849   3.995   7.423  0.2295  0.3882  0.2880
 6975TIP3    H145120   2.837   3.981   7.329 -0.1598  2.2116  0.0312
 6975TIP3    H245121   2.925   4.053   7.429  0.9624 -0.6189  1.1897
 6976TIP3   OH245122   4.724   1.769   8.489  0.2061 -0.0646 -0.2188
 6976TIP3    H145123   4.646   1.765   8.434 -0.5622  1.0700  0.7455
 6976TIP3    H245124   4.755   1.860   8.480  0.5625 -0.1040  0.5423
 6977TIP3   OH245125   0.737   6.840   9.725 -0.1610  0.5535 -0.1796
 6977TIP3    H145126   0.652   6.803   9.701  0.4890 -0.4038 -1.0836
 6977TIP3    H245127   0.719   6.894   9.802 -1.3731 -0.5759  0.3581
 6978TIP3   OH245128   3.189   6.034   8.676 -0.0695  0.5610  0.3341
 6978TIP3    H145129   3.097   6.013   8.692  0.0971 -0.5347 -0.0446
 6978TIP3    H245130   3.222   6.066   8.760 -0.5646  0.0780  0.7190
 6979TIP3   OH245131   1.228   0.821   9.363 -0.0775 -0.1018 -0.1945
 6979TIP3    H145132   1.185   0.901   9.333  1.0474  0.8532  0.7003
 6979TIP3    H245133   1.321   0.839   9.355  0.2094 -0.8408  1.2447
 6980TIP3   OH245134   6.005   2.298   1.548  0.1722  0.2682 -0.2882
 6980TIP3    H145135   6.058   2.235   1.597 -0.7485  0.1804  0.6297
 6980TIP3    H245136   5.987   2.253   1.465  2.7526  0.8970 -1.2981
 6981TIP3   OH245137   4.932   1.566   9.681  0.1729  0.1424  0.2028
 6981TIP3    H145138   4.871   1.588   9.610 -0.1017  1.6508  0.8670
 6981TIP3    H245139   5.009   1.533   9.636 -0.5214 -0.2792 -0.7305
 6982TIP3   OH245140   6.034   3.733   9.975  0.1940 -0.6267  0.0789
 6982TIP3    H145141   6.123   3.754  10.001  0.1714  0.1436 -0.4294
 6982TIP3    H245142   6.006   3.666  10.038  0.9003 -0.4176  0.6360
 6983TIP3   OH245143   1.183   5.393   7.987  0.0346 -0.2319  0.1188
 6983TIP3    H145144   1.191   5.388   8.082 -0.2256 -0.8845  0.1102
 6983TIP3    H245145   1.223   5.477   7.964  0.6503 -0.3456  0.7463
 6984TIP3   OH245146   4.008   0.718   0.137 -0.0792  0.4313 -0.3613
 6984TIP3    H145147   4.060   0.643   0.107  1.4633  1.0056  0.7371
 6984TIP3    H245148   4.072   0.779   0.173 -1.5790  0.8615  1.7591
 6985TIP3   OH245149   7.050   4.178   0.717  0.3613 -0.1839 -0.7841
 6985TIP3    H145150   7.114   4.151   0.783 -0.0330 -0.3731 -0.4749
 6985TIP3    H245151   7.046   4.104   0.657  0.5918 -0.0836 -0.9223
 6986TIP3   OH245152   1.597   3.552   7.238 -0.2416 -0.1531 -0.6056
 6986TIP3    H145153   1.501   3.559   7.234 -0.1491  1.0884 -1.0120
 6986TIP3    H245154   1.628   3.636   7.205  0.9498  1.9717  4.8781
 6987TIP3   OH245155   2.978   7.069   9.674 -0.4185  0.1655  0.0417
 6987TIP3    H145156   2.900   7.015   9.664 -1.2624  1.2673  0.4274
 6987TIP3    H245157   2.946   7.151   9.712  0.6976  1.2386 -1.2322
 6988TIP3   OH245158   3.089   0.956   1.349 -0.0402  0.0765 -0.0296
 6988TIP3    H145159   3.170   0.940   1.300 -0.3202 -2.8854  0.2858
 6988TIP3    H245160   3.117   1.001   1.428  0.8487  1.8981 -1.3156
 6989TIP3   OH245161   7.061   4.654   9.666 -0.4758 -0.3528 -0.4171
 6989TIP3    H145162   7.131   4.589   9.673  1.2797  1.5383  0.6013
 6989TIP3    H245163   7.060   4.697   9.751 -2.1409  0.4224 -0.7988
 6990TIP3   OH245164   6.481   3.751   8.355 -0.7082 -0.0641 -0.1431
 6990TIP3    H145165   6.477   3.829   8.411 -3.5563 -0.6286  0.5964
 6990TIP3    H245166   6.460   3.678   8.414 -1.2737 -0.9894 -1.4423
 6991TIP3   OH245167   5.890   0.395   9.328  0.0634 -0.3864 -0.5219
 6991TIP3    H145168   5.830   0.326   9.301  0.8548 -0.8682 -1.0703
 6991TIP3    H245169   5.933   0.423   9.248  0.0795  0.4343 -0.2357
 6992TIP3   OH245170   4.322   4.313   8.764 -0.5615 -0.2765  0.4890
 6992TIP3    H145171   4.321   4.222   8.734 -1.4160  0.4443 -1.8490
 6992TIP3    H245172   4.413   4.328   8.790  0.0869 -1.2266 -1.0832
 6993TIP3   OH245173   6.756   5.297   8.006  0.1977  0.5665 -0.3589
 6993TIP3    H145174   6.711   5.301   7.921 -0.9282  1.4392  0.2379
 6993TIP3    H245175   6.807   5.217   8.002 -0.7052  0.0018 -1.4498
 6994TIP3   OH245176   1.940   5.201   2.319 -0.3911  0.4067  0.1265
 6994TIP3    H145177   1.941   5.287   2.361 -0.3699 -0.0183  1.0166
 6994TIP3    H245178   1.869   5.206   2.255 -2.9215 -0.0570  2.6922
 6995TIP3   OH245179   0.666   0.608   7.906 -0.5182  0.1274  0.4150
 6995TIP3    H145180   0.742   0.615   7.964  1.0679 -0.9365 -1.4404
 6995TIP3    H245181   0.601   0.559   7.957 -0.3198  1.7130  2.3133
 6996TIP3   OH245182   2.221   7.156   1.420  0.3443 -0.2681 -0.2161
 6996TIP3    H145183   2.260   7.069   1.425  2.2796  0.6000  0.7703
 6996TIP3    H245184   2.282   7.207   1.367  0.6767  1.1676  1.4542
 6997TIP3   OH245185   1.521   0.315   2.843  0.3772  0.0495 -0.1676
 6997TIP3    H145186   1.569   0.369   2.906  0.8385 -0.0820 -0.4003
 6997TIP3    H245187   1.558   0.340   2.758 -0.1287  0.1080 -0.3694
 6998TIP3   OH245188   6.802   4.734   1.002  0.0940  0.5309 -0.1926
 6998TIP3    H145189   6.861   4.796   0.960  2.0599 -0.6214  0.7491
 6998TIP3    H245190   6.835   4.725   1.091 -3.6160  2.5087  1.6282
 6999TIP3   OH245191   3.592   3.629   8.977 -0.1888  0.1220  0.0867
 6999TIP3    H145192   3.574   3.721   8.960  2.0913  0.4106 -1.2089
 6999TIP3    H245193   3.635   3.627   9.062  0.3917  0.3739 -0.1937
 7000TIP3   OH245194   0.011   3.596   1.136 -0.4307  0.1536  0.6360
 7000TIP3    H145195   0.090   3.626   1.090 -0.5760 -0.8406 -0.3122
 7000TIP3    H245196  -0.058   3.599   1.070 -0.4693 -2.1346  0.4793
 7001TIP3   OH245197   1.616   5.665   9.519  0.5643  0.1533  0.0995
 7001TIP3    H145198   1.631   5.662   9.425 -1.2955  0.0655 -0.2426
 7001TIP3    H245199   1.525   5.695   9.528  0.9491  0.9276  1.8912
 7002TIP3   OH245200   5.311   0.549   0.158 -0.2009  0.0693 -0.3237
 7002TIP3    H145201   5.320   0.571   0.251 -0.6251  2.1749 -0.7326
 7002TIP3    H245202   5.237   0.489   0.154 -1.3608  1.3917  0.5371
 7003TIP3   OH245203   3.806   6.326   7.101 -0.2454  0.0433 -0.4271
 7003TIP3    H145204   3.870   6.395   7.082 -0.6484  0.3411 -0.7076
 7003TIP3    H245205   3.830   6.254   7.043  0.3025 -0.1337  0.0111
 7004TIP3   OH245206   0.244   1.935   0.983  0.3034 -0.5494  0.0911
 7004TIP3    H145207   0.181   1.918   1.053 -0.7543 -2.3447 -1.2193
 7004TIP3    H245208   0.281   1.849   0.963  1.0054  0.0248 -1.1745
 7005TIP3   OH245209   0.615   4.424   0.264 -0.3749  0.0286  0.2250
 7005TIP3    H145210   0.675   4.382   0.326  0.2247 -0.7390 -0.8274
 7005TIP3    H245211   0.627   4.374   0.183 -2.2267  0.0685 -0.1007
 7006TIP3   OH245212   4.107   5.745   0.934  0.4028  0.3000  0.6002
 7006TIP3    H145213   4.155   5.827   0.936 -0.7230  0.9888  0.6225
 7006TIP3    H245214   4.171   5.678   0.955  2.1161  0.7724 -2.4717
 7007TIP3   OH245215   7.304   0.744   0.755  0.2448  0.3910 -0.3420
 7007TIP3    H145216   7.353   0.774   0.832 -0.2550  0.7900 -0.1719
 7007TIP3    H245217   7.214   0.770   0.773 -0.4263 -2.1159  0.2948
 7008TIP3   OH245218   5.640   6.839   9.580 -0.4451 -0.2068 -0.2383
 7008TIP3    H145219   5.649   6.905   9.649  0.0629  0.2424 -0.7283
 7008TIP3    H245220   5.725   6.840   9.536 -1.5782  1.3599 -2.5504
 7009TIP3   OH245221   5.671   7.314   0.381 -0.8115 -0.2398 -0.6407
 7009TIP3    H145222   5.714   7.364   0.311  0.7052 -0.2897  0.2096
 7009TIP3    H245223   5.718   7.230   0.382 -1.9224 -0.8740 -0.6482
 7010TIP3   OH245224   3.105   0.067   6.875  0.5456  0.0907 -0.2391
 7010TIP3    H145225   3.161   0.011   6.821 -0.7170 -3.1533  1.5365
 7010TIP3    H245226   3.149   0.068   6.961 -1.2044 -1.1988  0.7291
 7011TIP3   OH245227   6.762   0.352   0.258 -0.1688  0.2310 -0.8248
 7011TIP3    H145228   6.791   0.310   0.177  0.1301  1.7341 -1.5247
 7011TIP3    H245229   6.701   0.289   0.297  0.0626 -0.7274 -1.9478
 7012TIP3   OH245230   0.009   6.398   0.917 -0.0604  0.4405  0.1149
 7012TIP3    H145231  -0.041   6.470   0.954 -0.6895 -0.1200  0.3739
 7012TIP3    H245232   0.061   6.364   0.990  0.5004  0.8374 -0.0866
 7013TIP3   OH245233   2.998   0.988   9.212  0.2681 -0.0255  0.3254
 7013TIP3    H145234   3.041   0.962   9.293  0.3663  1.2976  0.7072
 7013TIP3    H245235   3.046   1.064   9.181 -0.8299  0.5428 -0.0531
 7014TIP3   OH245236   4.338   7.266   0.721  0.2792 -0.5788 -0.3748
 7014TIP3    H145237   4.383   7.348   0.741 -0.7613 -0.4716  1.8741
 7014TIP3    H245238   4.369   7.205   0.788 -0.9211 -1.2483 -0.4092
 7015TIP3   OH245239   6.605   2.676   1.533  0.2335  0.0158  0.0615
 7015TIP3    H145240   6.574   2.647   1.619 -0.0899 -1.9150 -0.6741
 7015TIP3    H245241   6.525   2.685   1.481  0.3997  1.4985  0.0160
 7016TIP3   OH245242   2.501   0.981   9.193  0.0277  0.0864 -0.2516
 7016TIP3    H145243   2.497   0.984   9.097  0.2090 -1.6074 -0.3414
 7016TIP3    H245244   2.495   0.888   9.214 -0.5543  0.4702  1.4232
 7017TIP3   OH245245   3.520   5.366   2.667  0.2213 -0.3305 -1.0566
 7017TIP3    H145246   3.578   5.411   2.729 -0.3189 -1.1981  0.1228
 7017TIP3    H245247   3.452   5.327   2.723 -0.9108 -0.2096 -2.3055
 7018TIP3   OH245248   4.760   0.455   9.554  0.2538  0.2115 -0.2378
 7018TIP3    H145249   4.775   0.425   9.644  0.1686 -0.3519 -0.4091
 7018TIP3    H245250   4.673   0.496   9.558  0.1237 -0.0675 -0.1235
 7019TIP3   OH245251   0.285   7.233   9.595 -0.3168  0.0780 -1.1875
 7019TIP3    H145252   0.267   7.326   9.601  0.7506  0.5049 -3.5257
 7019TIP3    H245253   0.199   7.192   9.579 -0.5355  0.9124 -2.2342
 7020TIP3   OH245254   1.770   0.091   1.955 -0.1935  0.4160  0.2504
 7020TIP3    H145255   1.680   0.093   1.921 -0.7106 -0.0799  1.5175
 7020TIP3    H245256   1.825   0.111   1.879 -1.3846  0.9789 -0.4964
 7021TIP3   OH245257   3.225   2.079   1.833  0.5246 -0.5124 -0.3150
 7021TIP3    H145258   3.136   2.046   1.836  0.0998  0.5688 -0.5353
 7021TIP3    H245259   3.274   2.011   1.787 -0.0218 -1.4380  0.4423
 7022TIP3   OH245260   6.177   6.331   8.302 -0.1300 -0.2362  0.0159
 7022TIP3    H145261   6.256   6.325   8.249  0.2289  0.1843  0.4903
 7022TIP3    H245262   6.107   6.299   8.245  0.2530  0.1586 -0.6945
 7023TIP3   OH245263   2.134   3.523   9.894 -0.4779 -0.1780 -0.6198
 7023TIP3    H145264   2.152   3.557   9.806  1.7626  2.1676  0.6083
 7023TIP3    H245265   2.044   3.551   9.913  0.4948  3.3115 -0.5724
 7024TIP3   OH245266   5.562   2.809   9.817  0.1326 -0.0092  0.1792
 7024TIP3    H145267   5.616   2.883   9.845 -0.1960 -0.3119  1.6832
 7024TIP3    H245268   5.533   2.833   9.728  0.8956  1.1658  0.2228
 7025TIP3   OH245269   0.470   6.886   9.566  0.0253 -0.2388 -0.6232
 7025TIP3    H145270   0.463   6.843   9.651  0.1187  3.8744  1.7056
 7025TIP3    H245271   0.381   6.887   9.531 -0.3888 -0.1761  0.4221
 7026TIP3   OH245272   5.053   6.909   7.203 -0.2982  0.1586  0.4127
 7026TIP3    H145273   5.078   6.992   7.163 -0.7910  0.2689  0.3185
 7026TIP3    H245274   4.982   6.876   7.148 -1.2766  0.5157  1.4180
 7027TIP3   OH245275   4.000   2.777   1.621 -0.1647  0.0174  0.4857
 7027TIP3    H145276   3.943   2.734   1.557  1.9019  0.8922 -2.1672
 7027TIP3    H245277   4.073   2.716   1.632  0.5803  0.8374  0.2235
 7028TIP3   OH245278   3.576   4.350   0.175  0.1733 -0.3017 -0.2458
 7028TIP3    H145279   3.648   4.317   0.228  1.4118 -1.0719 -2.3017
 7028TIP3    H245280   3.613   4.362   0.088 -2.0860 -0.3358 -1.2920
 7029TIP3   OH245281   7.317   6.002   9.343  0.1938  0.0130  0.5251
 7029TIP3    H145282   7.336   6.077   9.288 -0.5109 -0.1311  0.0728
 7029TIP3    H245283   7.357   5.928   9.297 -0.8787 -0.1934 -0.0980
 7030TIP3   OH245284   4.799   4.159   2.460 -0.1150 -0.1404  0.5966
 7030TIP3    H145285   4.765   4.249   2.459 -2.3427 -0.9123 -0.8141
 7030TIP3    H245286   4.872   4.160   2.400 -2.8647 -0.0978 -3.0852
 7031TIP3   OH245287   3.498   6.684   1.656 -0.6572  1.1148  0.2120
 7031TIP3    H145288   3.479   6.743   1.730  0.1088  0.6167  0.8293
 7031TIP3    H245289   3.447   6.605   1.674 -0.1675  0.8393  0.4327
 7032TIP3   OH245290   2.178   0.648   1.660 -0.3419  0.0958  0.0277
 7032TIP3    H145291   2.249   0.681   1.605  0.1529 -1.3799 -0.2468
 7032TIP3    H245292   2.179   0.704   1.737  2.2248 -0.9095  0.8036
 7033TIP3   OH245293   3.377   4.632   2.392 -0.2184  0.3192  0.2797
 7033TIP3    H145294   3.434   4.661   2.321 -0.3313 -0.0237  0.0421
 7033TIP3    H245295   3.364   4.539   2.375 -2.7549  0.8165 -1.0763
 7034TIP3   OH245296   7.407   2.189   1.495 -0.4596  0.0584  0.3764
 7034TIP3    H145297   7.340   2.237   1.445  0.1121  0.2987 -0.1779
 7034TIP3    H245298   7.357   2.125   1.546 -1.1254  0.3273  0.0838
 7035TIP3   OH245299   7.030   5.043   1.259 -0.0380  0.1149 -0.2814
 7035TIP3    H145300   7.024   5.029   1.165  1.4093  0.5853 -0.4715
 7035TIP3    H245301   7.003   5.135   1.272 -1.0760 -0.1962 -0.1072
 7036TIP3   OH245302   5.168   1.438   9.565  0.3676  0.2960 -0.5317
 7036TIP3    H145303   5.190   1.347   9.547  1.2655  0.0576  1.4582
 7036TIP3    H245304   5.186   1.484   9.483  0.3038 -1.2325 -1.4371
 7037TIP3   OH245305   1.141   0.459   2.015 -0.3529  0.5667  0.1833
 7037TIP3    H145306   1.159   0.401   2.089  0.1062  0.2895 -0.1421
 7037TIP3    H245307   1.062   0.422   1.975 -2.0978  2.1049  1.9373
 7038TIP3   OH245308   6.290   0.779   0.059 -0.5597  0.8335 -0.2458
 7038TIP3    H145309   6.323   0.697   0.096 -0.3639  1.3324  0.7157
 7038TIP3    H245310   6.317   0.776  -0.033 -0.5898 -0.1940 -0.2342
 7039TIP3   OH245311   0.498   2.080   0.921  0.0084  0.2248 -0.6175
 7039TIP3    H145312   0.538   2.121   0.998  0.4725 -1.3008 -0.0085
 7039TIP3    H245313   0.404   2.092   0.935  0.0428 -0.5914  0.5734
 7040TIP3   OH245314   1.864   5.031   0.339 -0.4211  0.2502 -0.0565
 7040TIP3    H145315   1.865   4.964   0.407 -2.2274 -0.5703 -0.7733
 7040TIP3    H245316   1.952   5.029   0.302 -0.4186 -1.7219 -0.0276
 7041TIP3   OH245317   4.794   6.900   7.067  0.0586  0.0427 -0.1499
 7041TIP3    H145318   4.843   6.981   7.079  1.0475 -0.2910 -1.5908
 7041TIP3    H245319   4.708   6.928   7.034  0.4370  0.5251 -0.7569
 7042TIP3   OH245320   5.543   4.315   9.704 -0.1084 -0.7021  0.0114
 7042TIP3    H145321   5.548   4.388   9.642  1.4062 -1.2752 -0.5951
 7042TIP3    H245322   5.556   4.354   9.790 -0.8598 -0.0755 -0.1460
 7043TIP3   OH245323   6.619   0.733   9.398 -0.1239 -0.4519 -0.6391
 7043TIP3    H145324   6.559   0.791   9.445  2.5538  2.2971 -0.3146
 7043TIP3    H245325   6.573   0.713   9.317 -1.3033  1.9690 -0.6670
 7044TIP3   OH245326   4.627   4.829   8.846  0.4835 -0.1959  0.0328
 7044TIP3    H145327   4.713   4.867   8.828  0.1003  0.9798  0.6122
 7044TIP3    H245328   4.575   4.901   8.881 -0.1887 -1.3225  1.4652
 7045TIP3   OH245329   5.503   2.806   8.784 -0.5559  0.4502 -0.4308
 7045TIP3    H145330   5.470   2.741   8.846  1.4017 -0.3364 -0.1395
 7045TIP3    H245331   5.594   2.822   8.811 -0.1526  1.3110 -2.1142
 7046TIP3   OH245332   6.133   4.517   8.827 -0.4211 -0.2891 -0.0495
 7046TIP3    H145333   6.176   4.474   8.901  1.9572  0.6720 -0.7785
 7046TIP3    H245334   6.125   4.608   8.854 -0.5630 -0.1523 -0.5500
 7047TIP3   OH245335   2.842   0.898   9.488  0.1486 -0.4199 -0.0809
 7047TIP3    H145336   2.833   0.836   9.415  0.7383 -1.4140  0.6703
 7047TIP3    H245337   2.811   0.981   9.452  3.3395 -0.0647 -2.5520
 7048TIP3   OH245338   3.016   4.962   9.422  0.1513 -0.3997 -0.1798
 7048TIP3    H145339   2.981   5.042   9.382 -2.9095 -0.4402  2.0440
 7048TIP3    H245340   2.939   4.917   9.457  1.8574 -3.8931 -0.4537
 7049TIP3   OH245341   3.491   2.060   8.542 -0.3215 -0.1271 -0.4894
 7049TIP3    H145342   3.587   2.050   8.543 -0.2891  0.1056 -0.9186
 7049TIP3    H245343   3.466   2.061   8.634  0.0341 -0.7048 -0.3835
 7050TIP3   OH245344   1.239   6.834   0.611 -0.4956  0.4423 -0.6477
 7050TIP3    H145345   1.172   6.896   0.580 -0.5551  0.1789 -1.0575
 7050TIP3    H245346   1.322   6.880   0.599 -0.5170  0.3344 -1.2304
 7051TIP3   OH245347   2.242   6.919   9.274  0.1461 -0.0088  0.6406
 7051TIP3    H145348   2.305   6.929   9.346  0.7689 -0.1024  0.1202
 7051TIP3    H245349   2.174   6.984   9.292  0.1969 -0.1668  1.4181
 7052TIP3   OH245350   5.094   2.673   9.402  0.0815 -0.0473 -0.0572
 7052TIP3    H145351   5.097   2.578   9.388 -0.8264  0.0432 -1.0010
 7052TIP3    H245352   5.013   2.687   9.452  0.2937  0.2214  0.2150
 7053TIP3   OH245353   6.761   3.557   0.338 -0.1192  0.5328  0.3281
 7053TIP3    H145354   6.767   3.472   0.383 -0.4007  1.6848  2.6587
 7053TIP3    H245355   6.672   3.587   0.355 -0.5769  0.5852 -1.9172
 7054TIP3   OH245356   2.035   4.970   7.513  0.0106  0.2181  0.2722
 7054TIP3    H145357   2.087   5.016   7.447 -0.4942 -0.9155 -0.9599
 7054TIP3    H245358   2.093   4.900   7.544 -0.1764  0.0125  0.1562
 7055TIP3   OH245359   4.419   5.663   0.350  0.1045 -0.2705  0.2255
 7055TIP3    H145360   4.328   5.671   0.321  0.1935 -0.2676 -0.0640
 7055TIP3    H245361   4.436   5.568   0.348 -0.1978 -0.3616  1.2653
 7056TIP3   OH245362   6.625   4.652   0.705  0.1538 -0.1469 -0.2853
 7056TIP3    H145363   6.628   4.557   0.693 -1.7023 -0.2353 -0.2642
 7056TIP3    H245364   6.614   4.664   0.799  1.6450  0.1639 -0.1183
 7057TIP3   OH245365   3.198   7.266   9.930 -0.4742 -0.0789  0.2590
 7057TIP3    H145366   3.181   7.256  10.023 -1.5174  0.3303  0.1213
 7057TIP3    H245367   3.254   7.343   9.923 -0.1311 -0.2973  0.5650
 7058TIP3   OH245368   6.316   1.770   8.875 -0.7505  0.0183  0.3024
 7058TIP3    H145369   6.305   1.676   8.867 -0.3368 -0.0973  1.0654
 7058TIP3    H245370   6.306   1.803   8.786  2.6468 -1.1013 -0.6135
 7059TIP3   OH245371   3.315   0.869   1.218 -0.1674 -0.5148 -0.4575
 7059TIP3    H145372   3.399   0.915   1.221 -1.2212  1.6463 -1.4662
 7059TIP3    H245373   3.335   0.781   1.248  2.1841  0.3103  0.6879
 7060TIP3   OH245374   6.831   3.016   8.449 -0.1585 -0.1000 -0.0579
 7060TIP3    H145375   6.815   2.934   8.403  0.6412 -0.3524  0.0976
 7060TIP3    H245376   6.922   3.037   8.429 -0.2272  0.5176  0.2621
 7061TIP3   OH245377   6.538   6.090   2.432 -0.4015  0.1997 -0.4815
 7061TIP3    H145378   6.603   6.021   2.423 -0.9846 -0.4555  0.1124
 7061TIP3    H245379   6.567   6.141   2.507 -0.5246 -0.0469 -0.2637
 7062TIP3   OH245380   3.755   0.840   1.294  0.1221  0.0794 -0.0595
 7062TIP3    H145381   3.834   0.815   1.342  0.8068 -1.2488 -1.7842
 7062TIP3    H245382   3.787   0.879   1.213 -0.9745 -0.6546 -0.8737
 7063TIP3   OH245383   4.957   6.789   7.598  0.0023 -0.5186  0.3786
 7063TIP3    H145384   4.887   6.725   7.610  0.1246 -0.7236  0.0314
 7063TIP3    H245385   4.978   6.819   7.686 -3.2172  2.5329  0.2862
 7064TIP3   OH245386   5.017   6.683   9.478 -0.3419  0.2310  0.0502
 7064TIP3    H145387   4.960   6.684   9.402 -1.5014 -1.8272  0.7925
 7064TIP3    H245388   4.964   6.643   9.547  1.7479 -1.1491  0.9707
 7065TIP3   OH245389   6.458   0.397   9.584 -0.2037 -0.2084  0.3999
 7065TIP3    H145390   6.376   0.359   9.553 -0.3734  1.7328 -1.8557
 7065TIP3    H245391   6.431   0.474   9.634  0.2328 -0.8539  1.6769
 7066TIP3   OH245392   5.021   4.850   9.572  0.4731 -0.2925  0.3166
 7066TIP3    H145393   4.949   4.808   9.525 -2.5317  3.9129  0.5576
 7066TIP3    H245394   5.087   4.869   9.505 -0.3333 -0.9050 -0.6789
 7067TIP3   OH245395   1.828   0.752   3.818 -0.1139  0.2546 -0.6746
 7067TIP3    H145396   1.864   0.778   3.733  0.0445  1.2467 -0.3202
 7067TIP3    H245397   1.742   0.794   3.820 -0.3898 -0.3056 -0.6085
 7068TIP3   OH245398   2.617   4.216   8.921 -0.0221 -0.3500  0.3666
 7068TIP3    H145399   2.569   4.203   9.003  0.3242 -1.2564  0.4360
 7068TIP3    H245400   2.681   4.145   8.919  0.0676 -0.2557 -0.6229
 7069TIP3   OH245401   5.512   4.844   9.828 -0.5444 -0.4620  0.3815
 7069TIP3    H145402   5.508   4.939   9.819  0.8474 -0.3475  0.6702
 7069TIP3    H245403   5.585   4.829   9.889 -0.7362 -1.7099  0.3300
 7070TIP3   OH245404   5.151   2.058   8.370  0.0637  0.4571  0.1889
 7070TIP3    H145405   5.162   1.978   8.320 -1.7964  0.4170 -0.1957
 7070TIP3    H245406   5.229   2.062   8.426  0.4043 -1.3649 -0.1058
 7071TIP3   OH245407   2.116   3.743   7.301  0.0935 -0.1401  0.4580
 7071TIP3    H145408   2.166   3.770   7.224  0.5710  1.9504  1.4248
 7071TIP3    H245409   2.050   3.812   7.312  0.0704 -0.3687  1.9321
 7072TIP3   OH245410   3.346   5.801   8.185  0.0097 -0.0691 -0.3268
 7072TIP3    H145411   3.327   5.845   8.267  0.0385  1.3838 -1.0636
 7072TIP3    H245412   3.306   5.714   8.194  0.2738 -0.0396  1.3122
 7073TIP3   OH245413   6.998   3.776   9.476  0.1126  0.1803  0.2176
 7073TIP3    H145414   7.068   3.815   9.423 -0.1216 -0.2430 -0.4179
 7073TIP3    H245415   6.991   3.686   9.443 -1.2226  0.4351 -0.2298
 7074TIP3   OH245416   4.827   5.095   0.252 -0.3207 -0.1133 -0.3467
 7074TIP3    H145417   4.772   5.059   0.182 -0.1420 -1.2528  0.0843
 7074TIP3    H245418   4.774   5.088   0.331  0.2443 -0.7676 -0.0115
 7075TIP3   OH245419   5.804   7.097   0.937 -0.0211  0.4859  0.0670
 7075TIP3    H145420   5.887   7.093   0.890  1.8890 -0.6060  3.2565
 7075TIP3    H245421   5.762   7.176   0.904  1.6528  0.4072 -2.5499
 7076TIP3   OH245422   5.686   7.011   1.438 -0.2000 -0.1791  0.2325
 7076TIP3    H145423   5.676   6.998   1.533 -0.3912 -3.1094 -0.1055
 7076TIP3    H245424   5.752   6.948   1.412 -0.0937  0.6388 -1.6053
 7077TIP3   OH245425   1.369   4.543   8.376 -0.1235 -0.5503  0.1940
 7077TIP3    H145426   1.444   4.499   8.416 -0.7803 -1.0882  0.8630
 7077TIP3    H245427   1.295   4.485   8.395 -0.5310 -0.5936 -1.4243
 7078TIP3   OH245428   2.926   3.819   8.431 -0.3642  0.3434  0.4292
 7078TIP3    H145429   2.877   3.898   8.411  0.6172  0.8028 -0.2265
 7078TIP3    H245430   2.987   3.808   8.358  0.5423 -0.1738  1.2204
 7079TIP3   OH245431   3.788   0.299   9.435  0.1595 -0.7905  0.5886
 7079TIP3    H145432   3.877   0.299   9.399  0.3116  2.4557  0.7543
 7079TIP3    H245433   3.733   0.276   9.359  0.9323 -0.0453 -0.2239
 7080TIP3   OH245434   3.038   6.140   9.638 -0.1112 -0.2893 -0.0909
 7080TIP3    H145435   3.064   6.167   9.726 -0.6654  0.1901 -0.0698
 7080TIP3    H245436   3.098   6.186   9.580  2.2207 -2.8434  0.0983
 7081TIP3   OH245437   4.369   3.941   8.948 -0.5371 -0.3411 -0.0469
 7081TIP3    H145438   4.450   3.898   8.977 -0.5356 -0.5608 -0.3767
 7081TIP3    H245439   4.303   3.912   9.012 -0.8612 -2.0230 -1.0841
 7082TIP3   OH245440   7.294   4.836   8.351  0.1539  0.2981  1.1062
 7082TIP3    H145441   7.268   4.913   8.401  0.6748  0.9709  0.3628
 7082TIP3    H245442   7.249   4.763   8.395 -1.7039  1.2104  0.8317
 7083TIP3   OH245443   4.098   6.981   8.004 -0.0292 -0.0150  0.2950
 7083TIP3    H145444   4.141   7.046   7.949  1.4245 -0.3243  1.0166
 7083TIP3    H245445   4.021   7.025   8.039  1.1864  1.5285  1.1640
 7084TIP3   OH245446   7.202   4.381   7.409  0.1383 -0.0266  0.1248
 7084TIP3    H145447   7.270   4.425   7.358  1.1906 -4.1519 -2.5190
 7084TIP3    H245448   7.120   4.418   7.376  0.9513  0.5955 -1.2772
 7085TIP3   OH245449   4.690   3.299   0.019  0.0552 -0.5419 -0.5968
 7085TIP3    H145450   4.617   3.284   0.079  1.6326  0.4398  1.7057
 7085TIP3    H245451   4.690   3.223  -0.039 -1.9440 -1.2109  0.2176
 7086TIP3   OH245452   6.516   4.620   9.262 -0.5052 -0.2345 -0.7328
 7086TIP3    H145453   6.448   4.619   9.195 -0.7544 -0.9842 -0.4846
 7086TIP3    H245454   6.575   4.691   9.237 -1.5148  0.5877 -0.8099
 7087TIP3   OH245455   7.444   0.218   1.490 -0.0197  0.2562 -0.0206
 7087TIP3    H145456   7.422   0.305   1.455  2.4871 -0.5047 -4.0806
 7087TIP3    H245457   7.374   0.161   1.459  0.7561  0.0831 -1.5412
 7088TIP3   OH245458   7.125   1.360   0.362  0.3129  0.1563 -0.0302
 7088TIP3    H145459   7.206   1.370   0.411  0.7813  2.5497 -1.1543
 7088TIP3    H245460   7.136   1.279   0.313  0.8742 -0.9384  1.8072
 7089TIP3   OH245461   3.025   2.935   0.859  0.7330  0.0813 -0.2411
 7089TIP3    H145462   3.120   2.925   0.862  1.0321  1.4577 -2.9404
 7089TIP3    H245463   2.999   2.897   0.775 -1.3685 -1.5967  1.0390
 7090TIP3   OH245464   6.924   2.413   1.065 -0.3812  0.0500 -0.0521
 7090TIP3    H145465   6.972   2.347   1.015 -0.3984  0.7658 -1.0380
 7090TIP3    H245466   6.912   2.374   1.151 -0.3265 -1.2069 -0.5978
 7091TIP3   OH245467   0.861   5.403   8.115 -0.0396  0.5114 -0.1938
 7091TIP3    H145468   0.788   5.412   8.177  0.4616  1.9232  0.2298
 7091TIP3    H245469   0.923   5.346   8.159 -0.1813  0.6136  0.1436
 7092TIP3   OH245470   4.008   3.656   0.298  0.4230  0.4386 -0.3890
 7092TIP3    H145471   3.954   3.638   0.221  0.9284  0.3372 -0.7209
 7092TIP3    H245472   3.978   3.594   0.364 -0.5919  1.0851 -0.2204
 7093TIP3   OH245473   2.656   0.768   9.968  0.7127 -0.6001 -0.3098
 7093TIP3    H145474   2.660   0.861   9.987  2.3591 -0.7749  0.3833
 7093TIP3    H245475   2.664   0.762   9.872  1.7208 -0.0456 -0.2760
 7094TIP3   OH245476   0.834   0.165   2.689 -0.1602 -0.1265 -0.8253
 7094TIP3    H145477   0.766   0.218   2.647  0.0864  0.3632 -0.6109
 7094TIP3    H245478   0.795   0.078   2.696 -1.4675  0.5536  0.9260
 7095TIP3   OH245479   7.005   2.091   8.875 -0.1031  0.1448  0.4135
 7095TIP3    H145480   6.993   2.162   8.938 -0.6678  0.8722 -0.4903
 7095TIP3    H245481   6.974   2.013   8.922  1.6932  0.2379  1.8635
 7096TIP3   OH245482   4.672   4.799   0.624  0.5536  0.2156 -0.0709
 7096TIP3    H145483   4.660   4.705   0.639  0.3718  0.3273  0.5245
 7096TIP3    H245484   4.625   4.841   0.697  0.5013  0.7705 -0.4185
 7097TIP3   OH245485   4.939   7.209   9.879 -0.4825 -0.4215  0.1924
 7097TIP3    H145486   5.016   7.166   9.917 -0.8790 -1.6891 -0.3925
 7097TIP3    H245487   4.951   7.199   9.784 -1.0964 -0.1315  0.0830
 7098TIP3   OH245488   5.454   3.388   9.516 -0.7355  0.1167 -0.2918
 7098TIP3    H145489   5.541   3.373   9.552 -0.5615  1.5535 -0.0421
 7098TIP3    H245490   5.406   3.307   9.535  0.1923 -0.2423  0.6475
 7099TIP3   OH245491   1.516   2.821   9.824  0.0184  0.3898  0.3253
 7099TIP3    H145492   1.558   2.906   9.810 -1.7061  1.4394  1.1743
 7099TIP3    H245493   1.503   2.815   9.919  0.1710 -0.8620  0.2862
 7100TIP3   OH245494   1.946   5.595   0.635 -0.0411  0.3538 -0.0950
 7100TIP3    H145495   1.862   5.642   0.633  0.4157  1.1965  0.3448
 7100TIP3    H245496   1.924   5.509   0.669 -0.8024  0.4200 -0.3930
 7101TIP3   OH245497   6.859   1.455   9.751  0.2185  0.0158  0.0767
 7101TIP3    H145498   6.858   1.513   9.827  0.2522 -0.0643  0.1381
 7101TIP3    H245499   6.787   1.393   9.766  1.5369 -1.3410  1.0788
 7102TIP3   OH245500   4.229   1.532   0.224 -0.2900 -0.5834 -0.6244
 7102TIP3    H145501   4.182   1.589   0.285 -0.1397 -1.3296  0.2101
 7102TIP3    H245502   4.165   1.464   0.201  0.2982 -1.4742  0.3395
 7103TIP3   OH245503   7.180   2.177   8.682  0.6788 -0.1079  0.0463
 7103TIP3    H145504   7.107   2.142   8.733  1.1713  0.1726  0.9658
 7103TIP3    H245505   7.256   2.125   8.708  0.9644  0.1148 -0.3168
 7104TIP3   OH245506   4.640   3.025   1.783  0.0132  0.6833  0.2033
 7104TIP3    H145507   4.678   3.113   1.787 -1.3117  1.2245  1.2764
 7104TIP3    H245508   4.595   3.013   1.866 -2.0198  0.0091 -0.9049
 7105TIP3   OH245509   3.075   5.708   2.881 -0.0263  0.2884  0.1374
 7105TIP3    H145510   2.989   5.711   2.924  0.6846 -0.9783  1.7882
 7105TIP3    H245511   3.056   5.718   2.788 -1.8089  1.5799  0.5829
 7106TIP3   OH245512   3.280   5.923   9.665 -0.1283  0.2656  0.3585
 7106TIP3    H145513   3.205   5.930   9.605  1.2711  1.3938 -1.3444
 7106TIP3    H245514   3.301   5.829   9.665 -1.0984  0.0334  0.3096
 7107TIP3   OH245515   1.127   3.757   1.124 -0.2640  0.2457 -0.1278
 7107TIP3    H145516   1.182   3.736   1.048 -0.8643  1.7788 -1.0338
 7107TIP3    H245517   1.050   3.799   1.087  0.1246  2.4835  1.3836
 7108TIP3   OH245518   4.350   6.574   8.122  0.0419  0.3708  0.2050
 7108TIP3    H145519   4.287   6.518   8.077 -1.8294  0.7850  2.1479
 7108TIP3    H245520   4.418   6.514   8.153  1.0857  0.0104 -2.5370
 7109TIP3   OH245521   0.136   3.438   1.301 -0.0592  1.2198  0.9564
 7109TIP3    H145522   0.069   3.482   1.249 -0.6232 -0.3350  0.3068
 7109TIP3    H245523   0.117   3.344   1.290  1.6097  0.7794  1.5634
 7110TIP3   OH245524   3.034   4.299   8.693 -0.4659 -0.0332  0.3720
 7110TIP3    H145525   2.990   4.382   8.678 -0.1870  0.0821  0.1878
 7110TIP3    H245526   3.077   4.279   8.610  0.7557  0.4127  0.8726
 7111TIP3   OH245527   6.888   2.286   8.154 -0.2425  0.2959  0.2380
 7111TIP3    H145528   6.840   2.236   8.087  2.4740 -1.8579 -0.2609
 7111TIP3    H245529   6.942   2.347   8.104  2.3787 -1.8483  0.2605
 7112TIP3   OH245530   2.211   7.063   3.396  0.2033 -0.3638  0.5273
 7112TIP3    H145531   2.303   7.084   3.386  0.0506  0.2611  0.3989
 7112TIP3    H245532   2.203   6.975   3.360  0.5662 -0.0233 -0.4296
 7113TIP3   OH245533   1.171   3.776   0.183 -0.7464 -0.0342 -0.4911
 7113TIP3    H145534   1.266   3.778   0.174 -0.7257  1.3111 -0.2590
 7113TIP3    H245535   1.140   3.737   0.101  0.0254 -1.3521 -0.1853
 7114TIP3   OH245536   5.847   3.332   8.075  0.0235 -0.0899  0.3582
 7114TIP3    H145537   5.828   3.388   8.150 -1.2447 -1.6361  1.2662
 7114TIP3    H245538   5.905   3.264   8.110  0.8169  0.1266 -0.4981
 7115TIP3   OH245539   4.837   1.047   9.949  0.2708 -0.2988  0.9375
 7115TIP3    H145540   4.812   0.976   9.889  0.4849 -0.6633  1.2675
 7115TIP3    H245541   4.812   1.127   9.904  0.5578 -0.5605  0.3002
 7116TIP3   OH245542   1.101   7.355   1.553  0.6661 -0.2369  0.2578
 7116TIP3    H145543   1.145   7.270   1.551  1.5115  0.2074 -0.8011
 7116TIP3    H245544   1.114   7.385   1.643 -1.2186 -1.9948  1.2021
 7117TIP3   OH245545   2.009   4.058   7.071  0.2323  1.1179  0.1956
 7117TIP3    H145546   2.075   4.125   7.090  0.4257  1.3098 -1.0511
 7117TIP3    H245547   1.946   4.103   7.015  0.1615  0.3546 -0.3455
 7118TIP3   OH245548   4.151   5.678   0.217 -0.9032 -0.1432 -0.5323
 7118TIP3    H145549   4.065   5.650   0.186 -1.3357  0.5752 -0.0248
 7118TIP3    H245550   4.213   5.633   0.160 -1.5786 -1.4593 -0.2590
 7119TIP3   OH245551   7.022   0.695   8.792 -0.0971 -0.0029 -0.2545
 7119TIP3    H145552   6.996   0.738   8.710  0.9624  1.3839  0.0816
 7119TIP3    H245553   7.069   0.617   8.764 -1.9128 -0.9122 -0.8995
 7120TIP3   OH245554   4.573   3.616   0.868 -0.2153 -0.4622 -0.3993
 7120TIP3    H145555   4.668   3.609   0.860 -0.0652 -0.0436  0.8370
 7120TIP3    H245556   4.550   3.552   0.936 -0.5429  0.8790  0.8087
 7121TIP3   OH245557   3.872   2.268   1.992 -0.0817 -0.0133 -0.4492
 7121TIP3    H145558   3.948   2.215   2.016  0.1670  1.1452  1.6835
 7121TIP3    H245559   3.899   2.358   2.013 -1.0672  0.7909 -2.3491
 7122TIP3   OH245560   3.313   2.651   7.040 -0.3941  0.5560  0.3016
 7122TIP3    H145561   3.364   2.712   6.987 -0.2446  1.1180  1.0604
 7122TIP3    H245562   3.379   2.598   7.085 -0.4004  1.9103  2.0124
 7123TIP3   OH245563   5.996   4.757   1.866  0.1479  1.1446 -0.1107
 7123TIP3    H145564   6.044   4.828   1.910  1.3643  0.9449 -1.0617
 7123TIP3    H245565   5.937   4.723   1.933  1.3643  1.3837  1.1301
 7124TIP3   OH245566   4.848   0.206   0.045  0.0427  0.1493  0.5511
 7124TIP3    H145567   4.912   0.251  -0.010 -0.9969  1.7620  0.6177
 7124TIP3    H245568   4.884   0.118   0.056  1.4145  0.5078 -0.7816
 7125TIP3   OH245569   5.226   5.433   0.461 -0.4591  0.1338  0.5519
 7125TIP3    H145570   5.194   5.346   0.485 -1.8042  0.5208  0.2323
 7125TIP3    H245571   5.147   5.487   0.454 -0.6405 -0.1892 -6.0341
 7126TIP3   OH245572   3.695   5.328   9.684 -0.5336 -1.1778 -0.1229
 7126TIP3    H145573   3.679   5.347   9.777  1.3237 -1.9193  0.4053
 7126TIP3    H245574   3.621   5.275   9.657 -1.2820 -0.6633  0.8262
 7127TIP3   OH245575   2.502   5.516   9.555  0.2065 -0.3439  0.1175
 7127TIP3    H145576   2.569   5.474   9.500  0.2881  1.2136 -1.0295
 7127TIP3    H245577   2.419   5.477   9.525  0.4536 -1.3051  0.6292
 7128TIP3   OH245578   6.528   2.182   9.894 -0.5838 -0.1491  0.4922
 7128TIP3    H145579   6.474   2.225   9.960  0.2806  1.5535  0.1427
 7128TIP3    H245580   6.604   2.150   9.943 -0.2496  0.5451  0.4334
 7129TIP3   OH245581   3.278   0.050   8.719  0.2666 -0.3448 -0.2197
 7129TIP3    H145582   3.297   0.087   8.633 -0.0890 -1.7484 -0.9345
 7129TIP3    H245583   3.184   0.034   8.718  0.6015 -2.6233 -0.5434
 7130TIP3   OH245584   3.791   5.562   9.522  0.1440 -0.1392  0.5892
 7130TIP3    H145585   3.774   5.473   9.552  1.3736 -0.5400  0.1568
 7130TIP3    H245586   3.717   5.584   9.466  0.3247 -1.2795 -0.1148
 7131TIP3   OH245587   3.327   2.113   9.670 -0.6737 -0.2825  0.5596
 7131TIP3    H145588   3.385   2.158   9.731  0.7161 -0.6899 -0.4230
 7131TIP3    H245589   3.253   2.084   9.725  0.4933 -0.5924  2.0433
 7132TIP3   OH245590   5.725   0.178   9.348 -0.5718  0.3338 -0.7747
 7132TIP3    H145591   5.768   0.179   9.434 -1.4868  0.6075 -0.3030
 7132TIP3    H245592   5.692   0.089   9.339 -2.2965  0.8274  0.1254
 7133TIP3   OH245593   6.824   5.163   8.511 -0.2937  0.4272  0.0794
 7133TIP3    H145594   6.851   5.151   8.420 -1.0919  3.2621 -0.6348
 7133TIP3    H245595   6.754   5.099   8.524  1.8830 -2.1947 -0.2033
 7134TIP3   OH245596   2.875   2.823   2.490  0.3805  0.1938  0.0680
 7134TIP3    H145597   2.839   2.795   2.573 -2.1258 -3.3337 -1.9659
 7134TIP3    H245598   2.960   2.779   2.484 -0.6289 -1.7942 -0.2982
 7135TIP3   OH245599   4.236   4.941   1.598  0.3109 -0.1268  0.1384
 7135TIP3    H145600   4.197   4.904   1.518 -1.4167 -0.1778  0.9672
 7135TIP3    H245601   4.325   4.906   1.599 -0.3645 -2.0101 -0.5743
 7136TIP3   OH245602   3.439   2.854   6.888  0.0908  0.3123 -0.0914
 7136TIP3    H145603   3.530   2.882   6.873 -0.3250  1.6779 -0.2399
 7136TIP3    H245604   3.403   2.923   6.945 -1.6672  1.3519 -2.3330
 7137TIP3   OH245605   1.962   2.246   8.717  0.3461 -0.0711 -0.1778
 7137TIP3    H145606   2.032   2.311   8.719  1.3318 -1.1254  1.1312
 7137TIP3    H245607   1.958   2.218   8.626  4.6537 -3.0837  0.2949
 7138TIP3   OH245608   7.054   0.840   1.292  0.0495  0.7943  0.3282
 7138TIP3    H145609   7.047   0.745   1.278 -0.1685  1.1099 -2.0936
 7138TIP3    H245610   7.140   0.851   1.332 -0.0989 -0.4554  1.0502
 7139TIP3   OH245611   2.135   5.676   1.487 -0.0645  0.5894 -0.2640
 7139TIP3    H145612   2.225   5.655   1.463 -0.2784 -0.7274  0.0126
 7139TIP3    H245613   2.085   5.597   1.465 -0.7675  0.4543  1.6617
 7140TIP3   OH245614   5.674   4.811   8.348 -0.3602 -0.3734 -0.0782
 7140TIP3    H145615   5.631   4.793   8.431 -1.4906 -0.0755 -0.5825
 7140TIP3    H245616   5.604   4.843   8.291  0.4336 -0.3669 -1.0782
 7141TIP3   OH245617   5.314   3.256   1.888  0.3166  0.5786 -0.2241
 7141TIP3    H145618   5.277   3.334   1.929 -1.5937 -0.0415 -0.6872
 7141TIP3    H245619   5.353   3.207   1.960 -0.9349  0.6255  0.5004
 7142TIP3   OH245620   5.042   6.144   8.896 -0.5398  0.2015  0.0578
 7142TIP3    H145621   5.068   6.180   8.811  0.0284 -1.6225 -0.6010
 7142TIP3    H245622   4.960   6.189   8.918 -1.2539 -0.0253 -1.9620
 7143TIP3   OH245623   1.143   5.214   2.205  0.0453 -0.9132  0.1330
 7143TIP3    H145624   1.048   5.218   2.189 -0.4695  0.8317  2.8497
 7143TIP3    H245625   1.150   5.212   2.300  2.7731 -2.1307 -0.0295
 7144TIP3   OH245626   7.039   5.639   1.197 -0.3568  0.5566  0.0783
 7144TIP3    H145627   7.062   5.703   1.129  0.4527  0.8044  0.5682
 7144TIP3    H245628   6.953   5.667   1.228  0.8863  2.8516  1.8626
 7145TIP3   OH245629   5.861   6.450   7.082  0.2404 -0.3106  0.1125
 7145TIP3    H145630   5.912   6.454   7.001  0.8065 -0.4198  0.4595
 7145TIP3    H245631   5.846   6.357   7.097  0.8993 -0.3409  0.6034
 7146TIP3   OH245632   3.603   2.067   0.630 -0.2576  0.5323  0.2071
 7146TIP3    H145633   3.527   2.024   0.591 -0.2733 -0.0810  0.9062
 7146TIP3    H245634   3.672   2.055   0.564 -0.4756  0.1414  0.0435
 7147TIP3   OH245635   5.924   5.197   7.470  0.2183 -0.0903 -0.1992
 7147TIP3    H145636   5.899   5.289   7.466 -0.7443 -0.2501  1.3577
 7147TIP3    H245637   5.879   5.157   7.395  0.0083  0.5591 -0.4275
 7148TIP3   OH245638   5.863   5.689   0.443 -0.9443  0.1153  0.2284
 7148TIP3    H145639   5.917   5.684   0.363  0.6051  2.2298  1.0645
 7148TIP3    H245640   5.919   5.652   0.511  0.2454  3.7135  1.4096
 7149TIP3   OH245641   1.595   1.285   2.303 -0.0305  0.0625  0.1522
 7149TIP3    H145642   1.534   1.212   2.310  0.1803 -0.0405  1.0038
 7149TIP3    H245643   1.552   1.346   2.243 -2.2204  1.2127  2.6972
 7150TIP3   OH245644   1.975   4.996   8.736  0.4038 -0.4415  0.0897
 7150TIP3    H145645   2.053   5.040   8.769  0.2522 -0.3865  0.3733
 7150TIP3    H245646   1.963   4.921   8.795  1.4143 -1.6386 -1.1380
 7151TIP3   OH245647   0.164   2.492   8.605 -0.1745 -0.2213 -0.1832
 7151TIP3    H145648   0.112   2.478   8.684  0.4940 -1.4570  0.0617
 7151TIP3    H245649   0.194   2.405   8.580  1.8419  0.4466 -0.2789
 7152TIP3   OH245650   2.784   5.869   7.098 -0.1789 -0.3970  0.1523
 7152TIP3    H145651   2.822   5.848   7.183 -0.8844 -0.4802  0.4544
 7152TIP3    H245652   2.705   5.919   7.118  1.1332  2.1126 -0.5309
 7153TIP3   OH245653   0.947   1.046   2.822  0.2928  0.7962  0.0427
 7153TIP3    H145654   0.871   1.085   2.778  0.6296 -0.4737 -1.7850
 7153TIP3    H245655   0.926   1.052   2.916 -0.8253  2.8785 -0.2779
 7154TIP3   OH245656   2.501   0.012   3.446  0.4603  0.0425 -0.3526
 7154TIP3    H145657   2.458   0.012   3.532  0.6743  0.0847 -0.2424
 7154TIP3    H245658   2.542   0.099   3.441  0.5310  0.0028 -0.4543
 7155TIP3   OH245659   1.089   6.465   7.463  0.2144 -0.1440  0.0239
 7155TIP3    H145660   1.037   6.396   7.504  0.8737 -0.4104  0.4350
 7155TIP3    H245661   1.179   6.442   7.484  0.4068  1.4296  1.1561
 7156TIP3   OH245662   5.159   0.020   0.298  0.1159 -0.2452  0.0369
 7156TIP3    H145663   5.163   0.096   0.357  1.5866  0.4951 -0.9457
 7156TIP3    H245664   5.127   0.056   0.215 -0.8859 -1.0604  0.0569
 7157TIP3   OH245665   7.141   1.176   1.807  0.6227 -0.0157  0.0243
 7157TIP3    H145666   7.231   1.156   1.779  0.2691 -0.2840 -0.9716
 7157TIP3    H245667   7.096   1.092   1.802  0.0875  0.2904 -0.4205
 7158TIP3   OH245668   4.270   3.450   0.244 -0.3304 -0.0206  0.1644
 7158TIP3    H145669   4.194   3.506   0.229 -2.2710 -2.6555 -0.6655
 7158TIP3    H245670   4.302   3.429   0.156  0.5111 -0.0267  0.4603
 7159TIP3   OH245671   1.886   0.771   7.381 -0.7152  0.0479  0.2937
 7159TIP3    H145672   1.893   0.819   7.464  1.6656  1.2159 -0.4956
 7159TIP3    H245673   1.886   0.679   7.408 -0.5206  0.4073  1.6267
 7160TIP3   OH245674   1.060   3.901   0.730  0.3168  0.3485  0.3202
 7160TIP3    H145675   1.017   3.905   0.814 -0.2603  0.7729  0.0096
 7160TIP3    H245676   1.011   3.836   0.680  0.2684  0.5484  0.1022
 7161TIP3   OH245677   3.495   5.212   7.802 -0.2139  0.3274  0.0992
 7161TIP3    H145678   3.511   5.127   7.843 -1.6391  0.0910  0.2145
 7161TIP3    H245679   3.540   5.206   7.717 -0.0017 -0.4013  0.2533
 7162TIP3   OH245680   5.855   6.382   1.790 -0.0742 -0.0758 -0.0060
 7162TIP3    H145681   5.816   6.332   1.718  2.5878 -0.4830 -1.2490
 7162TIP3    H245682   5.925   6.326   1.823 -0.0699  0.8811  1.7475
 7163TIP3   OH245683   7.026   1.710   2.417  0.0724 -0.4463 -0.7703
 7163TIP3    H145684   7.008   1.628   2.371 -0.7003  0.3916 -2.0129
 7163TIP3    H245685   7.013   1.688   2.510 -0.2568 -1.6866 -1.0897
 7164TIP3   OH245686   6.266   6.408   8.690  0.2827 -0.0726  0.0832
 7164TIP3    H145687   6.189   6.363   8.655  0.2058  0.9202 -1.1054
 7164TIP3    H245688   6.339   6.373   8.639  0.0656  2.0123 -1.8112
 7165TIP3   OH245689   1.474   1.811   2.153  0.0354  0.0231 -0.2602
 7165TIP3    H145690   1.472   1.899   2.191 -0.2382 -0.7364  1.5619
 7165TIP3    H245691   1.550   1.812   2.095  1.7329  0.6473  1.8558
 7166TIP3   OH245692   0.806   0.486   9.496 -0.1148 -0.1670 -0.3576
 7166TIP3    H145693   0.846   0.416   9.445  1.3746 -0.1435  0.7185
 7166TIP3    H245694   0.827   0.566   9.447  0.2708 -0.2611 -0.3537
 7167TIP3   OH245695   2.035   5.201   9.014  0.0837  0.7502  0.4438
 7167TIP3    H145696   1.957   5.220   8.961 -0.3984 -0.5698  0.6470
 7167TIP3    H245697   2.101   5.174   8.951 -0.1357  0.2955  0.4039
 7168TIP3   OH245698   4.424   4.483   9.699 -0.7313  0.2780  0.2653
 7168TIP3    H145699   4.406   4.569   9.737 -0.1345  0.5696 -0.1132
 7168TIP3    H245700   4.510   4.459   9.732  0.0005  0.7318 -1.2327
 7169TIP3   OH245701   1.672   0.200   0.436  0.1367 -0.1325 -0.2288
 7169TIP3    H145702   1.580   0.183   0.414  0.3165  0.0308 -1.1311
 7169TIP3    H245703   1.722   0.150   0.371  0.6755  2.3067 -1.8158
 7170TIP3   OH245704   4.255   7.039   2.265  0.0410 -0.0973  0.6628
 7170TIP3    H145705   4.255   6.976   2.337 -1.9534  0.3123  1.1052
 7170TIP3    H245706   4.284   7.121   2.306  2.4003 -0.6081  0.1409
 7171TIP3   OH245707   2.586   7.125   1.008  0.7788  0.1796  0.1633
 7171TIP3    H145708   2.626   7.046   0.971  0.9170  0.0544  0.5661
 7171TIP3    H245709   2.550   7.172   0.933 -2.9200 -2.1943  0.1954
 7172TIP3   OH245710   0.164   4.407   8.617  0.1239 -0.0277  0.1762
 7172TIP3    H145711   0.247   4.384   8.660 -1.4307 -1.6945  2.5070
 7172TIP3    H245712   0.160   4.502   8.623  1.0248 -0.0524  1.7898
 7173TIP3   OH245713   5.021   2.578   8.163  0.1240 -0.2472  0.5319
 7173TIP3    H145714   5.013   2.596   8.069 -1.7352 -0.3319  0.6266
 7173TIP3    H245715   5.020   2.482   8.169  1.5815 -0.2838  0.5811
 7174TIP3   OH245716   3.124   3.530   9.606 -0.3945  0.2242  0.3841
 7174TIP3    H145717   3.208   3.562   9.572 -0.8744  0.4762 -0.6299
 7174TIP3    H245718   3.062   3.545   9.534 -0.8040 -2.3693  0.0842
 7175TIP3   OH245719   3.834   1.243   1.768  0.2905 -0.0519 -0.4291
 7175TIP3    H145720   3.852   1.248   1.674 -0.4330 -3.9386 -0.9568
 7175TIP3    H245721   3.920   1.235   1.809  0.5617 -2.6139 -1.3109
 7176TIP3   OH245722   3.604   3.628   8.249 -0.1018  0.3584  0.3098
 7176TIP3    H145723   3.581   3.618   8.157  0.7771 -0.3994  0.1601
 7176TIP3    H245724   3.529   3.672   8.288 -0.9749 -0.3361 -0.5413
 7177TIP3   OH245725   0.648   3.956   8.686  0.0301  0.2055 -0.5839
 7177TIP3    H145726   0.687   3.954   8.773  0.6154  2.5915 -0.7267
 7177TIP3    H245727   0.723   3.961   8.626 -0.4049  0.8165 -1.0908
 7178TIP3   OH245728   5.055   4.462   2.709  0.4270  0.3447  0.8727
 7178TIP3    H145729   5.068   4.520   2.634 -1.9531 -1.0450 -0.7494
 7178TIP3    H245730   4.970   4.488   2.745  1.1328  0.3970  2.5797
 7179TIP3   OH245731   6.065   6.543   8.484  0.1840  0.1863  0.0090
 7179TIP3    H145732   6.116   6.467   8.456 -0.2133 -0.0930  0.0315
 7179TIP3    H245733   5.974   6.518   8.470 -0.1303 -0.4688  2.6505
 7180TIP3   OH245734   5.746   4.523   0.427  0.1020 -0.0120 -0.0998
 7180TIP3    H145735   5.671   4.564   0.469 -0.8985 -1.0424 -0.8457
 7180TIP3    H245736   5.821   4.578   0.453 -1.1909  2.5813 -1.4327
 7181TIP3   OH245737   0.374   6.918   9.012  0.6336 -0.4524 -0.3114
 7181TIP3    H145738   0.338   7.002   8.986  2.0714  0.8135  1.4841
 7181TIP3    H245739   0.446   6.903   8.950  0.0144 -0.6629 -0.9899
 7182TIP3   OH245740   4.980   5.456   9.064 -0.3088  0.0578 -0.2619
 7182TIP3    H145741   4.929   5.389   9.019  0.1785 -0.1552 -0.5027
 7182TIP3    H245742   5.028   5.500   8.994  0.3010 -0.1439  0.0273
 7183TIP3   OH245743   3.649   6.721   7.847 -0.4713 -0.7411  0.1027
 7183TIP3    H145744   3.630   6.631   7.873 -2.9309 -0.8314 -1.6616
 7183TIP3    H245745   3.696   6.713   7.764  0.9152 -0.3768  0.8241
 7184TIP3   OH245746   2.511   4.409   9.895 -0.4051 -0.1097 -0.1950
 7184TIP3    H145747   2.519   4.459   9.976 -0.0127  0.0299 -0.3181
 7184TIP3    H245748   2.571   4.451   9.835  0.4670 -1.1569 -0.0892
 7185TIP3   OH245749   2.808   7.315   9.544  0.1373  0.3475 -0.6027
 7185TIP3    H145750   2.730   7.305   9.598  0.1141 -0.1070 -0.7124
 7185TIP3    H245751   2.843   7.401   9.566  0.7755 -0.2803  0.9964
 7186TIP3   OH245752   6.509   6.348   9.579 -0.3315  0.3220 -0.2311
 7186TIP3    H145753   6.442   6.306   9.633 -1.0850  1.1607 -0.4849
 7186TIP3    H245754   6.459   6.400   9.515  0.5328  2.4210  0.7133
 7187TIP3   OH245755   0.093   5.295   9.175 -0.2224  0.4602  0.9123
 7187TIP3    H145756   0.161   5.263   9.234 -0.3946 -1.0784  0.2990
 7187TIP3    H245757   0.042   5.356   9.229 -1.1132 -1.7781  2.7752
 7188TIP3   OH245758   4.425   3.900   7.197  0.6111  0.1289 -0.1332
 7188TIP3    H145759   4.392   3.820   7.237 -2.6636  0.7286 -1.2648
 7188TIP3    H245760   4.431   3.962   7.270 -0.9054 -0.0427  0.1735
 7189TIP3   OH245761   3.766   4.044   7.256  0.0921  0.1859 -0.0053
 7189TIP3    H145762   3.789   4.078   7.170 -0.0197 -0.7068 -0.3986
 7189TIP3    H245763   3.780   4.118   7.316 -1.4961  1.3658 -1.0100
 7190TIP3   OH245764   6.903   1.608   9.984  0.7235  0.3573 -0.0594
 7190TIP3    H145765   6.812   1.637   9.989  0.2779 -0.9541 -0.0499
 7190TIP3    H245766   6.919   1.567  10.068  1.0577 -0.1377 -0.3606
 7191TIP3   OH245767   3.187   3.692   8.904 -0.0832 -0.4409 -0.2210
 7191TIP3    H145768   3.269   3.717   8.946 -0.3589 -0.4417  0.3270
 7191TIP3    H245769   3.210   3.617   8.849  0.1557 -0.8759  0.4575
 7192TIP3   OH245770   4.596   0.191   1.283 -0.5660  0.0308  0.2218
 7192TIP3    H145771   4.618   0.151   1.367  1.7491  0.5163 -0.0899
 7192TIP3    H245772   4.663   0.258   1.270 -1.7208  0.9607 -1.3578
 7193TIP3   OH245773   0.972   1.419   1.895  0.4167  0.4803  0.5724
 7193TIP3    H145774   1.064   1.414   1.869  0.6433  0.6747  1.3072
 7193TIP3    H245775   0.947   1.509   1.876 -0.3807 -0.2121 -2.0190
 7194TIP3   OH245776   4.812   4.029   2.041  0.1753  0.2642 -0.1884
 7194TIP3    H145777   4.780   3.990   2.123  0.7762 -0.8104 -0.4523
 7194TIP3    H245778   4.861   4.106   2.070 -0.2726  0.3328  0.4094
 7195TIP3   OH245779   1.629   5.939   1.027 -0.6369 -0.0113  0.4749
 7195TIP3    H145780   1.676   5.857   1.040 -1.4669 -0.7380 -0.9352
 7195TIP3    H245781   1.698   6.005   1.018  0.0982 -0.8646 -0.3295
 7196TIP3   OH245782   0.416   5.088   1.442 -0.0149  0.3668 -0.2759
 7196TIP3    H145783   0.482   5.079   1.511 -1.7422 -0.0668  1.4420
 7196TIP3    H245784   0.355   5.016   1.460 -1.4348  1.3013 -1.1922
 7197TIP3   OH245785   2.135   5.649   6.569 -0.7215 -0.2049  0.3614
 7197TIP3    H145786   2.151   5.560   6.601 -0.5055  0.2456  1.5220
 7197TIP3    H245787   2.057   5.641   6.514 -1.5142 -0.8710  1.5562
 7198TIP3   OH245788   2.458   1.616   1.989 -0.1507  0.0525 -0.4452
 7198TIP3    H145789   2.498   1.625   2.075 -0.6352  4.0305 -0.4368
 7198TIP3    H245790   2.532   1.613   1.928  0.1885  0.0091 -0.0310
 7199TIP3   OH245791   0.323   6.926   1.179 -0.1212 -0.0164 -0.0271
 7199TIP3    H145792   0.394   6.984   1.207  1.3109 -1.5936 -0.2753
 7199TIP3    H245793   0.307   6.870   1.255 -0.6833 -0.0767 -0.1868
 7200TIP3   OH245794   3.596   6.200   7.473 -0.0234 -0.1686 -0.8204
 7200TIP3    H145795   3.556   6.133   7.529  0.7298  0.1764  0.1637
 7200TIP3    H245796   3.607   6.157   7.388  0.5505 -1.3430 -0.1766
 7201TIP3   OH245797   1.915   2.661   3.017 -0.2543  0.2361 -0.2415
 7201TIP3    H145798   2.001   2.640   2.981 -0.0686 -2.0065  1.3800
 7201TIP3    H245799   1.877   2.722   2.952  2.3861  1.0905 -1.1180
 7202TIP3   OH245800   0.652   2.046   1.607  0.1371 -0.3368  0.0068
 7202TIP3    H145801   0.676   2.075   1.695  1.2453  0.9235 -0.6678
 7202TIP3    H245802   0.627   1.954   1.618 -2.4934  0.5123  2.0588
 7203TIP3   OH245803   5.856   2.090   9.800 -0.0521  0.2467  0.5455
 7203TIP3    H145804   5.869   2.182   9.777 -1.6264  0.7802  1.5851
 7203TIP3    H245805   5.837   2.047   9.717 -1.9082  1.4016  0.2889
 7204TIP3   OH245806   3.576   3.168   7.251 -0.2881 -0.2498  0.3881
 7204TIP3    H145807   3.494   3.216   7.267  1.4792  3.0822  0.4357
 7204TIP3    H245808   3.565   3.131   7.164 -1.4890  1.0262 -0.0565
 7205TIP3   OH245809   6.422   3.804   8.888 -0.0504 -0.3034 -0.4099
 7205TIP3    H145810   6.415   3.710   8.870 -0.3692 -0.1820 -0.9633
 7205TIP3    H245811   6.482   3.837   8.821 -0.1789 -0.0647 -0.4084
 7206TIP3   OH245812   3.351   4.963   1.685  0.1894 -0.5274  0.1971
 7206TIP3    H145813   3.293   4.985   1.758 -0.2341  1.4726 -0.6589
 7206TIP3    H245814   3.414   4.901   1.722  0.6021  1.1525  2.5733
 7207TIP3   OH245815   6.485   5.612   7.772 -0.1454 -0.0315  0.1138
 7207TIP3    H145816   6.461   5.521   7.753 -1.9364  0.3668  0.3050
 7207TIP3    H245817   6.565   5.605   7.824  0.4419 -1.4274 -0.9120
 7208TIP3   OH245818   0.269   5.805   8.958 -0.3215 -0.0287  0.2169
 7208TIP3    H145819   0.280   5.873   9.025 -0.6877 -1.4952  1.8429
 7208TIP3    H245820   0.250   5.726   9.008  0.6381 -1.4638 -1.5816
 7209TIP3   OH245821   3.460   3.301   0.657  0.4524  0.0524  0.1814
 7209TIP3    H145822   3.503   3.254   0.728  0.9801  0.0782 -0.1168
 7209TIP3    H245823   3.451   3.236   0.587 -0.1278  0.0073  0.2907
 7210TIP3   OH245824   2.148   0.147   7.649 -0.1419 -0.3321  0.1391
 7210TIP3    H145825   2.183   0.157   7.560  0.1801 -0.8022  0.2072
 7210TIP3    H245826   2.225   0.126   7.703 -0.1167  1.2772  0.7789
 7211TIP3   OH245827   3.875   1.275   0.698  0.4474 -0.0607  0.2694
 7211TIP3    H145828   3.885   1.189   0.740  0.3375 -1.2522 -2.0288
 7211TIP3    H245829   3.786   1.274   0.663  0.8236  0.5363 -0.7202
 7212TIP3   OH245830   2.234   6.542   7.049 -0.0091 -0.1406 -0.4057
 7212TIP3    H145831   2.217   6.599   7.123 -0.3849  0.7814 -1.1792
 7212TIP3    H245832   2.245   6.601   6.974 -1.5493 -1.0899 -1.4534
 7213TIP3   OH245833   7.012   6.731   0.099 -0.3954 -0.5662 -0.3692
 7213TIP3    H145834   7.066   6.656   0.125 -0.9883 -1.1413 -0.7837
 7213TIP3    H245835   6.961   6.752   0.178  1.5158  0.9884  0.5554
 7214TIP3   OH245836   3.369   6.551   3.060 -0.5613 -0.2685  0.0617
 7214TIP3    H145837   3.434   6.595   3.114  0.7342  0.1554 -1.7372
 7214TIP3    H245838   3.389   6.458   3.068  0.1262 -0.1549 -0.2808
 7215TIP3   OH245839   1.411   4.593   2.939 -0.2613 -0.4766  0.3045
 7215TIP3    H145840   1.465   4.546   2.876  0.9068  1.0205  0.1363
 7215TIP3    H245841   1.410   4.537   3.017 -0.7516 -1.7841 -0.6077
 7216TIP3   OH245842   1.041   7.188   7.162  0.0459 -0.4144  0.4217
 7216TIP3    H145843   1.088   7.123   7.214 -0.9488 -0.0184  1.8877
 7216TIP3    H245844   0.949   7.169   7.177 -0.2765  1.3601  0.9663
 7217TIP3   OH245845   0.993   1.994   1.591 -0.1801 -0.2950  0.2626
 7217TIP3    H145846   1.049   1.952   1.657  0.4868 -0.2289 -0.2466
 7217TIP3    H245847   0.966   1.923   1.533 -0.0134 -0.2136  0.0817
 7218TIP3   OH245848   4.594   0.203   1.871 -0.2414  0.0750 -0.4062
 7218TIP3    H145849   4.606   0.292   1.839 -0.6564 -0.2513 -1.5150
 7218TIP3    H245850   4.624   0.206   1.962  0.2229  1.2196 -0.5795
 7219TIP3   OH245851   2.302   6.390   8.041 -0.1340 -0.4666 -0.2129
 7219TIP3    H145852   2.263   6.471   8.074  0.5718 -0.1457 -0.1560
 7219TIP3    H245853   2.227   6.332   8.025 -0.5404 -0.4518  1.4559
 7220TIP3   OH245854   5.929   7.192   2.304 -0.2017  0.3716  0.0327
 7220TIP3    H145855   6.019   7.185   2.274 -0.4498 -1.0130 -0.4350
 7220TIP3    H245856   5.910   7.108   2.346 -2.3625 -0.8162 -3.0139
 7221TIP3   OH245857   0.013   5.832   7.303  0.4218  0.1945  0.2054
 7221TIP3    H145858  -0.075   5.868   7.295  0.1344 -0.3251  0.9076
 7221TIP3    H245859  -0.001   5.737   7.305  0.9632  0.1201  0.6440
 7222TIP3   OH245860   1.956   3.391   0.511  0.4018  0.5123  0.4090
 7222TIP3    H145861   1.995   3.356   0.590 -0.1427  1.7603  1.2597
 7222TIP3    H245862   1.861   3.391   0.528 -0.0888 -2.1495 -1.4792
 7223TIP3   OH245863   2.648   0.240   3.583 -0.0098  0.2934 -0.7110
 7223TIP3    H145864   2.691   0.210   3.503  1.2301 -0.4937  0.2173
 7223TIP3    H245865   2.690   0.323   3.603  0.0030  0.2670 -0.6285
 7224TIP3   OH245866   7.471   2.912   1.116  0.5512  0.3485 -0.2755
 7224TIP3    H145867   7.412   2.964   1.172  0.2987  0.0880 -0.2956
 7224TIP3    H245868   7.459   2.822   1.146  0.5318  0.2263 -0.6469
 7225TIP3   OH245869   5.921   0.886   9.117  0.1456  0.2153 -0.6571
 7225TIP3    H145870   6.011   0.912   9.096  0.4299 -0.2508 -0.0395
 7225TIP3    H245871   5.926   0.854   9.207 -0.7283  0.6032 -0.4590
 7226TIP3   OH245872   1.599   5.840   2.257  0.1632 -0.0525 -0.3401
 7226TIP3    H145873   1.554   5.902   2.314 -1.7276 -0.2644 -1.5105
 7226TIP3    H245874   1.583   5.873   2.169  0.2169 -1.5066 -0.9246
 7227TIP3   OH245875   1.046   1.002   0.193 -0.2455 -0.5267 -0.2523
 7227TIP3    H145876   1.007   1.033   0.112 -1.3849 -2.3034 -0.4447
 7227TIP3    H245877   1.020   1.066   0.259 -1.1158 -0.1900 -0.9080
 7228TIP3   OH245878   4.025   1.331   8.195 -0.0912 -0.3799 -0.0597
 7228TIP3    H145879   4.115   1.356   8.218  0.7893 -3.2518  0.0929
 7228TIP3    H245880   3.970   1.381   8.255  1.5670 -0.2430  1.4367
 7229TIP3   OH245881   2.227   6.467   0.542  0.1149 -0.4229 -0.4879
 7229TIP3    H145882   2.229   6.440   0.450 -0.8213  2.3716 -1.4459
 7229TIP3    H245883   2.307   6.518   0.554 -0.4391  0.3898 -0.1713
 7230TIP3   OH245884   3.409   0.878   8.862 -0.7436  0.3227 -0.2968
 7230TIP3    H145885   3.324   0.872   8.906 -0.2563 -0.2944  0.6023
 7230TIP3    H245886   3.441   0.788   8.861  0.9954  0.8617  1.6201
 7231TIP3   OH245887   5.664   5.248   0.993 -0.0176  0.1120 -0.1175
 7231TIP3    H145888   5.616   5.331   0.989 -0.4546 -0.1750 -1.1468
 7231TIP3    H245889   5.755   5.274   1.001 -0.2456  0.6718  0.9384
 7232TIP3   OH245890   0.514   4.704   7.494  0.3791 -0.1652 -0.3442
 7232TIP3    H145891   0.549   4.628   7.447  1.3786 -0.4749  0.8438
 7232TIP3    H245892   0.567   4.778   7.463 -0.9977  0.2041 -1.9626
 7233TIP3   OH245893   0.550   5.269   8.944 -0.0311 -0.7494  0.3221
 7233TIP3    H145894   0.630   5.273   8.996  0.4383  0.3899 -0.4383
 7233TIP3    H245895   0.483   5.236   9.004  1.0713 -2.1351  0.8624
 7234TIP3   OH245896   2.706   4.355   1.999  0.3182 -0.3098  0.1144
 7234TIP3    H145897   2.611   4.370   1.998  0.5546  1.3175 -0.0908
 7234TIP3    H245898   2.728   4.350   2.092  0.2395  0.8698  0.2097
 7235TIP3   OH245899   0.217   7.429   8.173 -0.1057 -0.1008 -0.0406
 7235TIP3    H145900   0.219   7.425   8.269  1.9871  0.1451 -0.0321
 7235TIP3    H245901   0.146   7.369   8.148  1.0393 -2.3028  1.5927
 7236TIP3   OH245902   0.757   0.989   0.019 -0.1507 -0.2287  0.9043
 7236TIP3    H145903   0.752   0.896   0.040 -0.9651 -0.4345 -0.1451
 7236TIP3    H245904   0.752   0.993  -0.076  1.3862  0.8100  0.8312
 7237TIP3   OH245905   0.277   6.423   1.470 -0.3944  0.0904  0.2890
 7237TIP3    H145906   0.352   6.481   1.473 -0.0839 -0.2401 -0.7990
 7237TIP3    H245907   0.212   6.465   1.527 -0.0521  1.3154 -0.2057
 7238TIP3   OH245908   6.399   0.356   8.431  0.1393 -0.1816  0.9535
 7238TIP3    H145909   6.311   0.335   8.464 -0.4902 -0.2695 -0.6800
 7238TIP3    H245910   6.403   0.451   8.431 -0.1366 -0.1664  0.6252
 7239TIP3   OH245911   3.963   4.904   7.731 -0.4296 -0.6383 -0.0173
 7239TIP3    H145912   3.874   4.932   7.751 -0.1412 -0.9129  1.8223
 7239TIP3    H245913   3.953   4.813   7.701 -0.6615 -1.2327  1.7497
 7240TIP3   OH245914   2.398   7.372   7.415 -0.7200  0.1945 -0.3280
 7240TIP3    H145915   2.414   7.466   7.417  0.5674  0.0279 -1.0493
 7240TIP3    H245916   2.405   7.349   7.322 -0.3382 -0.7058 -0.0853
 7241TIP3   OH245917   6.398   2.667   0.012 -0.0265 -0.3967 -0.0363
 7241TIP3    H145918   6.443   2.593   0.053 -0.2768 -0.2331  0.5474
 7241TIP3    H245919   6.466   2.732  -0.002  0.0433 -0.4116  0.2275
 7242TIP3   OH245920   5.210   6.915   8.401 -0.2836 -0.5016 -0.4553
 7242TIP3    H145921   5.296   6.874   8.407  1.2302  2.5022  0.7637
 7242TIP3    H245922   5.169   6.875   8.325  2.7140 -1.1663 -1.8581
 7243TIP3   OH245923   2.566   1.198   1.916 -0.7450 -0.0511 -0.4842
 7243TIP3    H145924   2.503   1.126   1.924 -1.0063  0.1626 -0.5990
 7243TIP3    H245925   2.604   1.206   2.004 -1.6023  0.4730 -0.1526
 7244TIP3   OH245926   6.252   5.961   9.045  0.3371  0.2846 -0.5426
 7244TIP3    H145927   6.193   5.900   9.001 -0.1067  0.1201  0.2498
 7244TIP3    H245928   6.270   5.920   9.130  1.0104  0.6799 -0.4860
 7245TIP3   OH245929   1.382   2.930   9.025  0.1300 -0.2745 -0.2862
 7245TIP3    H145930   1.418   2.883   8.950  0.6564 -0.6042  0.1591
 7245TIP3    H245931   1.290   2.906   9.027  0.0885 -0.1754 -0.8900
 7246TIP3   OH245932   6.963   0.780   8.524 -0.1470  0.0593 -0.1149
 7246TIP3    H145933   7.047   0.762   8.482 -1.0164 -1.8371 -1.2180
 7246TIP3    H245934   6.909   0.816   8.454 -1.2872 -2.1295 -0.4739
 7247TIP3   OH245935   3.425   0.273   7.801 -0.0837 -0.0967 -0.3000
 7247TIP3    H145936   3.391   0.344   7.857 -0.4142  0.0733 -0.7099
 7247TIP3    H245937   3.351   0.250   7.745  0.4357  0.1861 -1.1184
 7248TIP3   OH245938   0.743   5.049   0.444  0.0519  0.4704 -0.2609
 7248TIP3    H145939   0.690   5.108   0.391 -0.0875 -0.2069 -0.8945
 7248TIP3    H245940   0.796   5.001   0.381  0.6081  0.3493  0.2902
 7249TIP3   OH245941   1.794   4.041   1.251 -0.0722 -0.1292 -0.4289
 7249TIP3    H145942   1.717   4.055   1.195 -0.8543  1.7991  0.9841
 7249TIP3    H245943   1.768   3.970   1.310  0.4009 -1.5146 -1.8164
 7250TIP3   OH245944   4.035   0.058   2.099  0.4980  0.1906 -0.5535
 7250TIP3    H145945   4.070  -0.005   2.036  1.0659 -0.9800  0.8791
 7250TIP3    H245946   4.106   0.121   2.111  0.5028  0.2425 -0.8318
 7251TIP3   OH245947   1.298   6.921   2.584 -0.0727  0.9916  0.4513
 7251TIP3    H145948   1.210   6.959   2.583 -0.5970 -0.1802  0.2199
 7251TIP3    H245949   1.294   6.850   2.520  1.0471  0.9107  0.4555
 7252TIP3   OH245950   5.275   4.803   8.928 -0.3695 -0.3920 -0.2239
 7252TIP3    H145951   5.350   4.846   8.969 -0.5357 -0.9148  0.6604
 7252TIP3    H245952   5.203   4.866   8.939 -0.3266 -0.3739 -0.0290
 7253TIP3   OH245953   4.019   1.800   9.248  0.1964  0.0988 -0.4290
 7253TIP3    H145954   4.031   1.731   9.313  0.2427  0.2970 -0.2278
 7253TIP3    H245955   4.101   1.849   9.249 -0.0372  0.4894 -0.1822
 7254TIP3   OH245956   2.814   5.331   7.002  0.0209  0.4628  0.3577
 7254TIP3    H145957   2.793   5.278   7.079  0.7450  0.5614  0.6276
 7254TIP3    H245958   2.790   5.276   6.928  2.4758 -1.0348  0.5807
 7255TIP3   OH245959   7.137   6.808   9.097  0.1292  0.3388 -0.1792
 7255TIP3    H145960   7.188   6.851   9.028  1.0934 -0.8382 -0.2289
 7255TIP3    H245961   7.191   6.816   9.175 -0.3631  0.5055  0.1473
 7256TIP3   OH245962   2.111   1.962   1.848  0.2509 -0.2525  0.4617
 7256TIP3    H145963   2.184   1.951   1.909  1.4511 -0.0530 -0.8925
 7256TIP3    H245964   2.142   2.027   1.785 -1.4390  0.4899  0.3438
 7257TIP3   OH245965   3.241   6.832   0.390 -0.0261 -0.0581  0.2187
 7257TIP3    H145966   3.277   6.857   0.475  0.5521  0.3962 -0.1552
 7257TIP3    H245967   3.238   6.914   0.340  0.6265 -0.4951 -0.5599
 7258TIP3   OH245968   2.146   1.342   1.428  0.7278 -0.1706  0.1066
 7258TIP3    H145969   2.153   1.282   1.502  0.8902  0.6155  0.7587
 7258TIP3    H245970   2.219   1.403   1.441  0.4717  0.2622 -0.4398
 7259TIP3   OH245971   3.749   6.162   8.332  0.2722  0.2314 -0.1532
 7259TIP3    H145972   3.789   6.122   8.409  0.0893  0.3247 -0.0091
 7259TIP3    H245973   3.685   6.225   8.368  0.6419  0.7398 -0.3734
 7260TIP3   OH245974   5.342   2.338   8.257 -0.1271  0.5520  0.3795
 7260TIP3    H145975   5.437   2.331   8.269 -0.5023 -1.7017  3.0437
 7260TIP3    H245976   5.317   2.254   8.217 -0.8362  1.9792 -2.4053
 7261TIP3   OH245977   1.779   1.421   0.177 -0.2316 -0.0223 -0.1838
 7261TIP3    H145978   1.822   1.503   0.154 -0.8664  0.4763  0.3823
 7261TIP3    H245979   1.736   1.439   0.261  0.0536 -1.0854  0.2088
 7262TIP3   OH245980   6.132   4.083   0.344 -0.1943 -0.2776  0.0877
 7262TIP3    H145981   6.076   4.101   0.420  2.0472 -0.2136  1.8161
 7262TIP3    H245982   6.134   3.988   0.338  2.1721 -0.4870  2.2729
 7263TIP3   OH245983   6.796   5.369   8.315  0.5950  0.0806 -0.2785
 7263TIP3    H145984   6.785   5.312   8.239 -0.6399 -1.7024  1.1734
 7263TIP3    H245985   6.874   5.335   8.359  2.4888  2.3117 -1.6592
 7264TIP3   OH245986   0.573   2.751   1.554 -0.4219  0.3750 -0.0925
 7264TIP3    H145987   0.525   2.711   1.481 -0.4364  1.8990 -0.9711
 7264TIP3    H245988   0.625   2.680   1.590 -0.4950 -0.4576 -1.5323
 7265TIP3   OH245989   0.098   2.988   9.353  0.3669  0.3157  0.0549
 7265TIP3    H145990   0.033   2.980   9.283 -1.1473 -1.2206  1.5414
 7265TIP3    H245991   0.121   2.898   9.374  0.8505  0.7527  1.4821
 7266TIP3   OH245992   1.312   1.419   9.014 -0.1572  0.3041  0.1168
 7266TIP3    H145993   1.392   1.382   8.974 -0.5627  0.9144 -1.3338
 7266TIP3    H245994   1.276   1.477   8.946 -0.8510  1.4739  1.4396
 7267TIP3   OH245995   4.044   3.383   1.515 -0.0370  0.3372 -0.1012
 7267TIP3    H145996   4.059   3.383   1.610  1.3402  0.0240 -0.3002
 7267TIP3    H245997   4.131   3.385   1.477 -0.4861 -1.6275 -1.3751
 7268TIP3   OH245998   7.183   4.377   0.440  0.3219 -0.5417  0.0140
 7268TIP3    H145999   7.134   4.356   0.361  0.2752 -0.1183 -0.0714
 7268TIP3    H246000   7.236   4.453   0.416  0.4450 -0.5252  0.3345
 7269TIP3   OH246001   3.021   4.774   6.718  0.3596  0.3997 -0.1474
 7269TIP3    H146002   2.983   4.690   6.741  0.7543  0.5914  1.3104
 7269TIP3    H246003   2.975   4.800   6.638  0.6911 -1.4812 -1.0099
 7270TIP3   OH246004   7.286   1.633   1.110  0.2995 -0.7551  1.2582
 7270TIP3    H146005   7.375   1.624   1.142  0.0891 -2.1919  1.4964
 7270TIP3    H246006   7.232   1.590   1.176 -0.4403 -1.0739  0.4669
 7271TIP3   OH246007   7.377   6.825   8.623  0.2032  0.4674  0.3629
 7271TIP3    H146008   7.286   6.833   8.595 -0.0843 -1.1728  0.6900
 7271TIP3    H246009   7.412   6.753   8.570  0.6463 -0.3877  1.7631
 7272TIP3   OH246010   7.239   5.767   8.890  0.1265 -0.9944  0.0362
 7272TIP3    H146011   7.194   5.684   8.877 -1.2204 -0.1283 -1.1760
 7272TIP3    H246012   7.174   5.833   8.867  2.0154  0.3336 -1.8746
 7273TIP3   OH246013   0.759   4.747   9.457  0.3573  0.3517 -0.1347
 7273TIP3    H146014   0.850   4.737   9.485  0.0530 -0.0390  0.7461
 7273TIP3    H246015   0.737   4.662   9.419  0.0421  0.0806  0.6288
 7274TIP3   OH246016   4.420   2.104   8.988 -0.1856  0.2217 -0.0797
 7274TIP3    H146017   4.354   2.170   9.011 -0.2611  0.2529 -0.3793
 7274TIP3    H246018   4.503   2.150   8.995 -0.0865 -0.1446  1.5049
 7275TIP3   OH246019   3.023   4.413   2.820  0.6753 -0.2930  0.2393
 7275TIP3    H146020   3.016   4.344   2.886 -0.8579  0.2827  0.7245
 7275TIP3    H246021   2.934   4.420   2.784  1.0305  0.7913 -0.4483
 7276TIP3   OH246022   2.650   2.854   2.998 -0.9170 -0.2514 -0.7110
 7276TIP3    H146023   2.578   2.860   3.060 -1.3903  1.6686 -1.3869
 7276TIP3    H246024   2.645   2.934   2.946  2.2573  0.4091 -0.2198
 7277TIP3   OH246025   4.459   1.432   8.772  0.2211 -0.0869  0.1174
 7277TIP3    H146026   4.554   1.439   8.766  0.1811  1.4083  0.8218
 7277TIP3    H246027   4.434   1.375   8.699  1.4640  1.2702 -1.4349
 7278TIP3   OH246028   2.845   0.842   1.381 -0.1160 -0.8306 -0.1525
 7278TIP3    H146029   2.921   0.897   1.367 -0.0467 -0.8197  0.2657
 7278TIP3    H246030   2.814   0.821   1.292 -0.6438  0.5647 -0.3274
 7279TIP3   OH246031   5.229   5.968   0.077 -0.2137  0.2790 -0.9035
 7279TIP3    H146032   5.220   5.877   0.106 -1.8933  0.3161 -1.1805
 7279TIP3    H246033   5.228   5.963  -0.018  0.4903  0.5289 -0.9245
 7280TIP3   OH246034   1.246   5.078   1.131 -0.0120 -0.4082 -0.5425
 7280TIP3    H146035   1.152   5.094   1.139  0.0488 -0.8135  1.5804
 7280TIP3    H246036   1.261   4.995   1.175  1.7806  1.3213  2.4757
 7281TIP3   OH246037   1.417   3.033   9.322 -0.6834  0.0361  0.0793
 7281TIP3    H146038   1.447   3.026   9.231 -1.0938 -0.6994 -0.0073
 7281TIP3    H246039   1.460   2.960   9.367  0.0705  0.8087  0.6386
 7282TIP3   OH246040   2.246   5.904   6.536  0.0928  0.1689  0.3429
 7282TIP3    H146041   2.178   5.941   6.479 -1.7130  0.5546  2.6132
 7282TIP3    H246042   2.224   5.811   6.540 -0.7494  0.3993  1.5825
 7283TIP3   OH246043   5.018   0.498   1.446  0.5602 -0.0697  1.0746
 7283TIP3    H146044   5.096   0.471   1.399 -0.7641 -0.9298 -0.7723
 7283TIP3    H246045   5.024   0.594   1.451  1.9746 -0.1625  1.4918
 7284TIP3   OH246046   1.780   0.995   2.591 -0.1445  0.1932 -0.4793
 7284TIP3    H146047   1.715   0.998   2.662 -2.2381 -1.1067 -2.2339
 7284TIP3    H246048   1.823   1.080   2.595 -0.7503  0.4685  1.8245
 7285TIP3   OH246049   4.805   0.192   6.692 -0.5748 -0.5148  0.4401
 7285TIP3    H146050   4.864   0.118   6.681 -0.6158 -0.2730 -2.1434
 7285TIP3    H246051   4.717   0.155   6.682 -0.6000 -0.2040 -0.7239
 7286TIP3   OH246052   2.498   4.901   6.910 -0.2771 -0.1226 -0.1171
 7286TIP3    H146053   2.534   4.817   6.939  0.3429 -0.2242 -1.1771
 7286TIP3    H246054   2.406   4.882   6.892 -0.2798 -0.4321  0.2025
 7287TIP3   OH246055   6.689   6.517   9.720 -0.3592  0.0919 -0.0158
 7287TIP3    H146056   6.753   6.536   9.651 -0.3591 -2.3172 -0.7611
 7287TIP3    H246057   6.609   6.494   9.673 -0.8364 -0.0054  0.8352
 7288TIP3   OH246058   5.659   5.926   9.512  0.1574 -0.2731 -0.5199
 7288TIP3    H146059   5.733   5.985   9.495  0.6826 -0.5104  0.8022
 7288TIP3    H246060   5.654   5.870   9.434  1.5964 -0.4674 -0.5036
 7289TIP3   OH246061   2.258   5.689   9.434  0.0368 -0.4279 -0.0456
 7289TIP3    H146062   2.270   5.742   9.514  0.9218 -1.1861  0.3376
 7289TIP3    H246063   2.306   5.737   9.367 -1.3182  0.6077 -0.3348
 7290TIP3   OH246064   0.938   0.016   0.631 -0.3813 -0.3996 -0.5962
 7290TIP3    H146065   0.985   0.033   0.549 -2.4606  0.7053 -1.6329
 7290TIP3    H246066   0.992   0.058   0.698  1.0585 -0.8026 -1.4596
 7291TIP3   OH246067   3.376   5.348   8.578 -0.1632 -0.6623  0.0119
 7291TIP3    H146068   3.440   5.277   8.567 -1.1434 -1.2976 -2.0699
 7291TIP3    H246069   3.386   5.402   8.500 -0.3956  0.7350  0.9197
 7292TIP3   OH246070   4.941   0.945   8.070 -0.2406  0.2335 -0.1797
 7292TIP3    H146071   5.005   1.015   8.056  0.9376 -0.4241  1.5906
 7292TIP3    H246072   4.992   0.872   8.103 -2.0258  0.1467  2.7881
 7293TIP3   OH246073   1.132   6.027   1.912 -0.0077  0.6633  0.0828
 7293TIP3    H146074   1.093   5.963   1.972  2.8331 -1.0189  0.3437
 7293TIP3    H246075   1.095   6.111   1.939  0.4284 -0.1328  3.6494
 7294TIP3   OH246076   0.637   0.087   2.408 -0.1491  0.2463  0.0423
 7294TIP3    H146077   0.630   0.164   2.464  1.0479  0.8268 -0.5613
 7294TIP3    H246078   0.566   0.030   2.436  0.8573  0.1571  2.7172
 7295TIP3   OH246079   3.261   5.097   0.369  0.2102 -0.8150  0.2451
 7295TIP3    H146080   3.246   5.189   0.392 -1.6499 -1.5998  2.6572
 7295TIP3    H246081   3.193   5.077   0.305  1.2237 -0.3096 -1.0238
 7296TIP3   OH246082   5.710   1.509   8.719 -0.1361  0.0594  0.1050
 7296TIP3    H146083   5.742   1.447   8.784 -0.4880  0.6271  0.8296
 7296TIP3    H246084   5.641   1.461   8.673  0.5784 -0.5783 -0.3258
 7297TIP3   OH246085   6.155   5.207   1.311  0.8504  0.3076 -0.5502
 7297TIP3    H146086   6.249   5.197   1.325  0.5147 -0.2078  1.7172
 7297TIP3    H246087   6.119   5.224   1.398 -1.1650  0.6033 -1.3707
 7298TIP3   OH246088   1.904   4.789   1.659  0.2026 -0.3156 -0.0950
 7298TIP3    H146089   1.904   4.799   1.563  0.5647  1.5377  0.0732
 7298TIP3    H246090   1.849   4.860   1.691  1.1818 -0.0770  1.1458
 7299TIP3   OH246091   7.414   0.474   8.883 -0.0318  0.1593  0.3382
 7299TIP3    H146092   7.383   0.543   8.942 -0.4384 -0.4386  0.8335
 7299TIP3    H246093   7.398   0.509   8.795  1.0924  1.2932  0.5581
 7300TIP3   OH246094   6.036   3.171   9.330  0.7111 -0.1630 -0.0182
 7300TIP3    H146095   6.131   3.186   9.334  0.9667 -1.8000  0.7366
 7300TIP3    H246096   6.012   3.148   9.420 -0.4735  0.5208 -0.1400
 7301TIP3   OH246097   4.737   0.702   7.791 -0.0344 -0.0255 -0.1999
 7301TIP3    H146098   4.676   0.728   7.722 -0.6377 -0.1951  0.2586
 7301TIP3    H246099   4.808   0.657   7.745  0.2380  1.0116 -0.8426
 7302TIP3   OH246100   4.288   6.891   2.013  0.1637  0.2119  0.1282
 7302TIP3    H146101   4.355   6.825   2.033  0.6057 -0.1288 -2.1071
 7302TIP3    H246102   4.311   6.966   2.067  1.5035 -0.4148  0.4676
 7303TIP3   OH246103   4.515   0.069   9.512 -0.0576 -0.9589 -0.2018
 7303TIP3    H146104   4.472  -0.012   9.540 -2.8871 -0.3692 -2.3680
 7303TIP3    H246105   4.477   0.088   9.426 -0.2531  3.1711  0.5959
 7304TIP3   OH246106   1.216   5.682   8.657  0.5391 -0.7169  0.5553
 7304TIP3    H146107   1.305   5.716   8.669 -0.3520  2.5981 -0.9491
 7304TIP3    H246108   1.170   5.708   8.737 -0.1442  1.9138 -0.5988
 7305TIP3   OH246109   2.298   7.198   9.039  0.1869 -0.1836 -0.1938
 7305TIP3    H146110   2.363   7.127   9.035  1.4074  0.7796  1.2089
 7305TIP3    H246111   2.345   7.275   9.005 -0.8829  0.1355 -1.0069
 7306TIP3   OH246112   6.630   4.223   1.050 -0.0663  0.0865 -0.3072
 7306TIP3    H146113   6.576   4.295   1.084 -2.8093 -2.1105  0.4037
 7306TIP3    H246114   6.653   4.173   1.128  0.3033 -0.7595 -0.9519
 7307TIP3   OH246115   4.414   1.647   9.650 -0.0111  0.0468  0.5649
 7307TIP3    H146116   4.358   1.720   9.622  0.2900  0.0775  0.0224
 7307TIP3    H246117   4.488   1.650   9.589 -0.2207 -0.9965  0.2497
 7308TIP3   OH246118   6.767   2.739   9.220  1.0954 -0.2008 -0.0856
 7308TIP3    H146119   6.728   2.822   9.249  1.4399  0.1876 -0.7189
 7308TIP3    H246120   6.696   2.675   9.231  0.9109  0.1189  0.6647
 7309TIP3   OH246121   5.280   0.077   1.137 -0.3392 -0.3082 -0.2152
 7309TIP3    H146122   5.360   0.058   1.185 -0.7128  0.2129  0.6409
 7309TIP3    H246123   5.262  -0.002   1.087  2.1563  0.4596 -2.5691
 7310TIP3   OH246124   0.194   5.065   7.607 -0.3008  0.4499  0.2084
 7310TIP3    H146125   0.232   5.038   7.523 -0.8389  0.2097  0.0382
 7310TIP3    H246126   0.249   5.139   7.635  1.3110 -0.8892  0.7817
 7311TIP3   OH246127   1.099   0.969   1.839  0.0925 -0.4516  0.3893
 7311TIP3    H146128   1.163   1.038   1.818 -0.8861  0.2089 -0.5176
 7311TIP3    H246129   1.112   0.904   1.770 -0.0448 -0.4315  0.3449
 7312TIP3   OH246130   3.792   3.431   1.322 -0.1359 -0.0657 -0.2743
 7312TIP3    H146131   3.882   3.434   1.356 -0.3478 -1.8095  0.5452
 7312TIP3    H246132   3.798   3.373   1.246 -0.8091 -1.5184  0.7342
 7313TIP3   OH246133   3.534   7.044   6.654  0.2064 -0.5659  0.1962
 7313TIP3    H146134   3.574   7.040   6.567  1.5187  0.2970  0.7192
 7313TIP3    H246135   3.549   7.134   6.683 -1.2662 -0.5061  0.8509
 7314TIP3   OH246136   3.190   7.060   7.291  0.3580 -0.0782  0.2469
 7314TIP3    H146137   3.236   6.977   7.284  0.8139  0.1216  0.7659
 7314TIP3    H246138   3.248   7.115   7.343  0.4896  0.8772 -0.8752
 7315TIP3   OH246139   0.871   0.555   8.104  0.1580 -0.0817 -0.1145
 7315TIP3    H146140   0.865   0.642   8.144  1.9052  0.5292 -1.0964
 7315TIP3    H246141   0.949   0.516   8.143 -0.3539 -1.0455 -0.0255
 7316TIP3   OH246142   0.105   3.704   9.485  0.2415 -0.1046 -0.0712
 7316TIP3    H146143   0.152   3.623   9.466 -0.2439  0.1443 -2.8347
 7316TIP3    H246144   0.141   3.768   9.423  1.2819  2.1233  2.6542
 7317TIP3   OH246145   0.975   1.247   3.444  0.1791  0.7378  0.4709
 7317TIP3    H146146   1.014   1.209   3.365 -0.9975 -1.4198  0.8488
 7317TIP3    H246147   0.904   1.302   3.412  0.0856  0.3489  0.0051
 7318TIP3   OH246148   3.902   6.313   1.915  0.0289 -0.3074  0.4852
 7318TIP3    H146149   3.976   6.303   1.855  0.1772 -0.5293  0.7076
 7318TIP3    H246150   3.905   6.406   1.941 -1.9599  0.7033 -2.3858
 7319TIP3   OH246151   3.561   1.225   9.169  0.1615 -0.2240 -0.2091
 7319TIP3    H146152   3.504   1.246   9.095 -0.0081 -2.3100 -0.7521
 7319TIP3    H246153   3.511   1.162   9.220  0.7900  0.2409  1.0027
 7320TIP3   OH246154   5.617   4.304   1.677  0.3584  0.3691  0.0860
 7320TIP3    H146155   5.534   4.322   1.720 -0.7712 -3.3045 -0.1953
 7320TIP3    H246156   5.654   4.390   1.659 -2.2026  2.1389  2.3920
 7321TIP3   OH246157   3.801   3.936   8.941 -0.6410 -0.4821  1.0425
 7321TIP3    H146158   3.719   3.983   8.923 -0.1944  0.0955  0.4596
 7321TIP3    H246159   3.867   4.005   8.946 -0.0997 -0.9916  0.9722
 7322TIP3   OH246160   0.972   0.521   7.355  0.0640  0.1391 -0.2062
 7322TIP3    H146161   1.011   0.494   7.438 -1.2922 -0.9508  0.1037
 7322TIP3    H246162   0.916   0.596   7.378 -0.7034 -0.4757 -0.0237
 7323TIP3   OH246163   7.171   6.768   1.423  0.8293 -0.2053  0.0350
 7323TIP3    H146164   7.262   6.739   1.423  0.5001 -1.3010 -0.4970
 7323TIP3    H246165   7.160   6.812   1.339  0.4528 -1.5328 -0.6414
 7324TIP3   OH246166   1.911   0.260   7.732 -0.1272 -0.0574 -0.3786
 7324TIP3    H146167   1.992   0.238   7.685 -0.0649  0.5497 -0.5671
 7324TIP3    H246168   1.884   0.178   7.773  2.6619  0.4459  2.9223
 7325TIP3   OH246169   3.472   1.666   8.025 -0.3979 -0.2704  0.1243
 7325TIP3    H146170   3.537   1.728   8.057  0.3809 -0.6396 -0.7039
 7325TIP3    H246171   3.465   1.685   7.931 -0.8685 -0.7888  0.0474
 7326TIP3   OH246172   3.198   3.033   7.858  0.0363  0.0226  0.0577
 7326TIP3    H146173   3.181   2.968   7.790 -2.2740  0.5603  0.0293
 7326TIP3    H246174   3.204   3.116   7.811 -1.1764  0.3434  0.4227
 7327TIP3   OH246175   6.755   6.501   7.757 -0.4209  0.0169  0.2610
 7327TIP3    H146176   6.777   6.559   7.684 -0.1169 -0.2066  0.1732
 7327TIP3    H246177   6.829   6.441   7.763 -1.1002 -0.8794 -0.1688
 7328TIP3   OH246178   0.230   2.181   1.111  0.8295 -0.2300 -0.4210
 7328TIP3    H146179   0.242   2.093   1.074 -1.4365 -0.1504 -1.5634
 7328TIP3    H246180   0.217   2.166   1.205  2.4679 -0.8707 -0.2594
 7329TIP3   OH246181   3.914   5.744   2.104 -0.2066 -0.6509  0.0176
 7329TIP3    H146182   3.856   5.802   2.152 -1.5322 -2.2265  0.4422
 7329TIP3    H246183   3.974   5.709   2.170  1.0209  0.6600 -0.3490
 7330TIP3   OH246184   6.546   4.103   0.796 -0.0425 -0.3956 -0.3096
 7330TIP3    H146185   6.620   4.059   0.754  0.1524  1.0748 -1.5788
 7330TIP3    H246186   6.585   4.148   0.871  0.1330 -0.6034 -0.2747
 7331TIP3   OH246187   2.712   4.108   9.364  0.4476 -0.5180  0.0086
 7331TIP3    H146188   2.730   4.055   9.286  0.7749  0.0905 -0.3296
 7331TIP3    H246189   2.638   4.163   9.339 -0.8992 -1.8569  0.8557
 7332TIP3   OH246190   1.538   0.604   9.799  0.0080 -0.5316 -0.0276
 7332TIP3    H146191   1.611   0.629   9.855  1.0867 -1.8537 -0.7817
 7332TIP3    H246192   1.559   0.642   9.714 -0.8696  0.2183  0.0843
 7333TIP3   OH246193   6.343   3.540   0.526 -0.1353  0.5568  0.5193
 7333TIP3    H146194   6.306   3.615   0.573 -0.1719 -0.5732  2.4014
 7333TIP3    H246195   6.292   3.465   0.557  0.9039 -0.4555 -0.1567
 7334TIP3   OH246196   6.554   1.414   8.427  0.0802  0.5934  0.6685
 7334TIP3    H146197   6.463   1.388   8.413  0.1316  0.5698  0.3694
 7334TIP3    H246198   6.550   1.481   8.495 -0.5535  3.2905 -1.8533
 7335TIP3   OH246199   6.336   5.218   9.178  0.2649 -0.3909  0.4364
 7335TIP3    H146200   6.279   5.241   9.104 -1.5167 -1.4671  1.3998
 7335TIP3    H246201   6.416   5.268   9.162 -0.9788  1.3505 -0.9121
 7336TIP3   OH246202   5.807   6.775   9.896 -0.6222  0.0233 -0.4326
 7336TIP3    H146203   5.781   6.687   9.925  0.3171 -0.1828 -0.1687
 7336TIP3    H246204   5.903   6.774   9.901 -0.6182  1.1840 -0.0934
 7337TIP3   OH246205   1.283   1.236   7.918  0.4409 -0.5005  0.4716
 7337TIP3    H146206   1.223   1.186   7.863 -0.5606  0.5427  0.5597
 7337TIP3    H246207   1.354   1.261   7.859 -0.0321 -0.3931 -0.0674
 7338TIP3   OH246208   5.583   0.402   0.470 -0.3734 -0.4790  0.2166
 7338TIP3    H146209   5.562   0.345   0.395  2.5839  0.2002 -1.2940
 7338TIP3    H246210   5.533   0.482   0.454 -0.5364 -0.7134 -0.4836
 7339TIP3   OH246211   3.011   0.076   9.456  0.5013 -0.1286 -0.7362
 7339TIP3    H146212   2.954   0.091   9.533  0.7428 -0.6022 -0.4641
 7339TIP3    H246213   2.951   0.049   9.387  0.3786 -0.5412 -0.4733
 7340TIP3   OH246214   3.849   5.877   7.089  0.1731 -0.1984 -0.0819
 7340TIP3    H146215   3.885   5.796   7.124  0.2942 -0.6076 -1.1163
 7340TIP3    H246216   3.817   5.925   7.166 -2.1117 -2.2833  0.3996
 7341TIP3   OH246217   6.817   5.061   8.221  0.0911 -0.0370  0.2195
 7341TIP3    H146218   6.793   5.048   8.129 -0.8909 -0.2675  0.4963
 7341TIP3    H246219   6.836   4.972   8.253 -0.3075 -0.0468  0.4333
 7342TIP3   OH246220   4.605   1.130   9.559  0.0112  0.5930 -0.4335
 7342TIP3    H146221   4.551   1.198   9.599 -1.4977 -0.0296 -1.3167
 7342TIP3    H246222   4.598   1.055   9.618 -0.1928  0.4804 -0.5968
 7343TIP3   OH246223   5.452   2.019   8.218  0.1860 -0.1480 -0.4489
 7343TIP3    H146224   5.452   1.992   8.310  0.9499 -1.3825 -0.7959
 7343TIP3    H246225   5.497   2.103   8.217  1.3416 -0.7534  0.1419
 7344TIP3   OH246226   0.111   6.659   0.037 -0.0518  0.4294  0.5430
 7344TIP3    H146227   0.129   6.646  -0.056  0.5238  0.8562  0.5947
 7344TIP3    H246228   0.015   6.655   0.043 -0.0485 -1.5889  0.2374
 7345TIP3   OH246229   7.336   2.021   8.849 -0.2696  0.4271  0.1894
 7345TIP3    H146230   7.283   1.946   8.873 -0.1118  0.1831 -0.2166
 7345TIP3    H246231   7.426   1.991   8.861 -0.2200  0.9377  1.1771
 7346TIP3   OH246232   3.200   5.769   1.955 -0.0896 -0.0371 -0.1147
 7346TIP3    H146233   3.172   5.688   1.997 -1.5482  1.1070  1.2348
 7346TIP3    H246234   3.122   5.800   1.908  0.1889  0.9824  0.0628
 7347TIP3   OH246235   1.710   0.346   9.654 -0.1338 -0.1104 -0.2155
 7347TIP3    H146236   1.769   0.404   9.704 -0.3059  1.2348 -1.4893
 7347TIP3    H246237   1.633   0.337   9.709 -0.0160  0.7256  0.1028
 7348TIP3   OH246238   2.799   1.096   9.047 -0.5364  0.6334 -0.3808
 7348TIP3    H146239   2.879   1.076   9.095  1.5028  4.8554 -1.5655
 7348TIP3    H246240   2.763   1.173   9.090  0.2718  3.3548 -4.0341
 7349TIP3   OH246241   0.761   2.256   8.904  0.1544 -0.2064 -0.0445
 7349TIP3    H146242   0.707   2.221   8.975 -0.5714 -0.8767 -0.9213
 7349TIP3    H246243   0.831   2.192   8.894  0.4250  0.0367  0.2488
 7350TIP3   OH246244   2.992   5.892   2.381  0.0725  0.1236 -0.2147
 7350TIP3    H146245   2.897   5.883   2.375 -0.0047  1.6622 -1.7198
 7350TIP3    H246246   3.011   5.978   2.345  2.0068  0.0709  0.5602
 7351TIP3   OH246247   3.223   7.358   2.453 -0.0345 -0.1084 -0.5725
 7351TIP3    H146248   3.222   7.439   2.402  0.1020 -0.4530 -1.1373
 7351TIP3    H246249   3.168   7.297   2.403  2.6825 -1.5020 -2.1406
 7352TIP3   OH246250   6.175   1.049   0.768  0.0263 -0.1877 -0.0904
 7352TIP3    H146251   6.169   0.955   0.757  0.1765 -0.1648 -0.3736
 7352TIP3    H246252   6.206   1.082   0.683  0.7985  0.0319  0.2672
 7353TIP3   OH246253   0.163   4.888   8.296  0.1702  0.5276  0.1981
 7353TIP3    H146254   0.151   4.958   8.232 -2.4522 -1.8867 -2.2487
 7353TIP3    H246255   0.188   4.811   8.244  0.6543 -0.9421  2.4512
 7354TIP3   OH246256   3.762   4.192   0.311 -0.1176 -0.3019  0.5204
 7354TIP3    H146257   3.708   4.115   0.294 -0.2864 -0.1529  0.3818
 7354TIP3    H246258   3.788   4.183   0.403 -0.9205 -0.0406  0.7834
 7355TIP3   OH246259   1.214   4.653   9.761  0.1886 -0.3525 -0.1232
 7355TIP3    H146260   1.305   4.674   9.742 -0.0791 -0.7181 -2.0544
 7355TIP3    H246261   1.181   4.730   9.808  0.7782  1.0966 -1.9192
 7356TIP3   OH246262   5.003   3.216   8.314  0.0950  0.1783  0.0871
 7356TIP3    H146263   5.019   3.192   8.405  2.0303  0.2082 -0.2077
 7356TIP3    H246264   4.965   3.303   8.318  0.2051  0.1956  0.8653
 7357TIP3   OH246265   0.584   5.743   9.134 -0.8008  0.3313 -0.5901
 7357TIP3    H146266   0.500   5.717   9.094 -2.1084  1.0672  1.5338
 7357TIP3    H246267   0.631   5.787   9.063 -1.4194 -1.6228 -2.3267
 7358TIP3   OH246268   7.106   1.086   2.723  0.3306  0.6249 -0.3620
 7358TIP3    H146269   7.174   1.023   2.747 -1.1005 -0.5703  0.7270
 7358TIP3    H246270   7.074   1.056   2.638  0.0371  0.1965 -0.1036
 7359TIP3   OH246271   4.806   7.343   0.097 -0.0950 -0.1170 -0.3234
 7359TIP3    H146272   4.842   7.305   0.177  2.5269  1.6873 -0.4875
 7359TIP3    H246273   4.831   7.282   0.028  0.2327 -0.2365 -0.1019
 7360TIP3   OH246274   0.818   3.757   2.437  0.1886  0.3189  0.5120
 7360TIP3    H146275   0.829   3.741   2.530  0.8457 -1.1766  0.2042
 7360TIP3    H246276   0.735   3.714   2.415  0.0829  0.5866  0.3834
 7361TIP3   OH246277   3.034   5.435   1.451 -0.1403  0.1654 -0.2367
 7361TIP3    H146278   3.120   5.449   1.412  0.3411 -1.1907  0.2892
 7361TIP3    H246279   3.022   5.511   1.508  1.1745 -0.1285  0.4772
 7362TIP3   OH246280   1.579   2.121   2.015 -0.0770 -0.3006 -0.1079
 7362TIP3    H146281   1.609   2.048   1.960 -0.3228 -0.4391 -0.0603
 7362TIP3    H246282   1.508   2.084   2.067  0.9239 -0.4868  1.1537
 7363TIP3   OH246283   1.073   1.140   9.934  0.0679  0.0535  0.1105
 7363TIP3    H146284   1.013   1.190   9.878 -1.1573 -0.4302  0.9407
 7363TIP3    H246285   1.118   1.081   9.875 -0.7982 -0.0629 -0.4494
 7364TIP3   OH246286   3.537   0.539   0.931  0.0943 -0.0742 -0.3654
 7364TIP3    H146287   3.566   0.562   1.019 -0.3068 -0.9899  0.0267
 7364TIP3    H246288   3.564   0.448   0.921 -1.0731 -0.4064 -0.6525
 7365TIP3   OH246289   2.908   7.102   8.617 -0.3032 -0.1840 -0.0016
 7365TIP3    H146290   2.875   7.085   8.705  0.6545 -0.9430  0.2138
 7365TIP3    H246291   2.993   7.143   8.630  0.2494 -1.1202 -0.5688
 7366TIP3   OH246292   6.893   2.763   8.297 -0.4079  0.4166 -0.5564
 7366TIP3    H146293   6.918   2.690   8.353 -2.0069 -0.1708 -0.5683
 7366TIP3    H246294   6.845   2.723   8.225  0.4341  1.3004 -1.6336
 7367TIP3   OH246295   1.422   2.654   1.668  0.3174 -0.1098 -0.7441
 7367TIP3    H146296   1.350   2.622   1.614 -0.8972 -0.1768  0.8705
 7367TIP3    H246297   1.495   2.665   1.606 -0.6450 -1.3694 -2.1654
 7368TIP3   OH246298   4.547   6.197   2.295  0.7029  0.0373 -0.2951
 7368TIP3    H146299   4.457   6.165   2.301  1.1326 -1.2480 -0.5633
 7368TIP3    H246300   4.599   6.120   2.272  1.9119  0.7194  0.0758
 7369TIP3   OH246301   4.817   2.396   9.150  0.0134  0.1242 -0.0390
 7369TIP3    H146302   4.814   2.402   9.246 -1.1093  1.7095 -0.1319
 7369TIP3    H246303   4.884   2.330   9.132 -2.1022 -2.7400  1.8580
 7370TIP3   OH246304   3.906   1.016   8.790 -0.2276  0.1847 -0.7510
 7370TIP3    H146305   3.917   0.976   8.876 -1.1412 -1.4816 -1.3566
 7370TIP3    H246306   3.816   0.996   8.765  0.8762 -2.2541 -3.4204
 7371TIP3   OH246307   4.322   1.830   1.576 -0.1113  0.3782  0.3653
 7371TIP3    H146308   4.413   1.805   1.558 -0.2358 -0.1670  0.4970
 7371TIP3    H246309   4.280   1.750   1.608 -0.0539  1.1470  2.5308
 7372TIP3   OH246310   0.958   4.434   1.773  0.6907 -0.2360  0.1443
 7372TIP3    H146311   1.019   4.461   1.842  0.5355  0.2401  0.1032
 7372TIP3    H246312   0.946   4.513   1.720  1.3666 -0.7867 -0.8559
 7373TIP3   OH246313   2.645   1.446   8.023 -0.0455 -0.1419 -0.6763
 7373TIP3    H146314   2.571   1.386   8.016  0.3104 -0.4797 -1.6435
 7373TIP3    H246315   2.607   1.533   8.011 -0.3606 -0.2702 -0.6248
 7374TIP3   OH246316   1.874   2.749   8.168 -0.1379  0.0303  0.0778
 7374TIP3    H146317   1.957   2.793   8.147 -0.9500  2.1158  0.9344
 7374TIP3    H246318   1.815   2.774   8.097 -0.8975  1.2691  1.0927
 7375TIP3   OH246319   4.180   3.856   1.704 -0.3301 -0.4386 -0.0633
 7375TIP3    H146320   4.218   3.931   1.658 -0.3132  0.6503  1.6301
 7375TIP3    H246321   4.085   3.866   1.692 -0.3245 -0.1716  0.1014
 7376TIP3   OH246322   6.539   6.080   1.131 -0.2661 -0.2061  0.5327
 7376TIP3    H146323   6.473   6.129   1.082  0.1395  1.3578  1.4534
 7376TIP3    H246324   6.595   6.040   1.064 -0.4467  0.8543 -0.2793
 7377TIP3   OH246325   6.897   6.821   0.608  0.4714 -0.1817  0.5132
 7377TIP3    H146326   6.841   6.808   0.684 -0.3591 -4.8850 -0.5827
 7377TIP3    H246327   6.979   6.856   0.644 -0.8355  0.4174  3.1128
 7378TIP3   OH246328   3.335   4.957   8.383  0.4829 -0.4567  0.1239
 7378TIP3    H146329   3.403   4.977   8.319 -0.1595 -1.3801 -0.8713
 7378TIP3    H246330   3.274   5.031   8.377  1.7118  0.7498  1.5445
 7379TIP3   OH246331   6.557   0.259   0.425 -0.3048  0.1151 -0.0174
 7379TIP3    H146332   6.489   0.319   0.396 -0.0739  0.2591 -0.2729
 7379TIP3    H246333   6.512   0.176   0.438 -0.4222  0.0534 -0.7728
 7380TIP3   OH246334   1.779   5.872   8.896  0.8339 -0.4669 -0.5307
 7380TIP3    H146335   1.829   5.839   8.970  1.1136  0.5646 -0.2448
 7380TIP3    H246336   1.831   5.944   8.862 -0.3018  0.4396 -0.4086
 7381TIP3   OH246337   4.834   6.343   9.000  0.0030 -0.2204  0.1640
 7381TIP3    H146338   4.824   6.432   8.966 -0.7246 -0.1317  0.5799
 7381TIP3    H246339   4.811   6.349   9.093 -0.8412 -0.9751  0.0267
 7382TIP3   OH246340   6.433   1.510   9.555  0.1359 -0.3893 -0.7511
 7382TIP3    H146341   6.405   1.559   9.632  0.5116 -2.8310  1.0366
 7382TIP3    H246342   6.522   1.481   9.576  0.4592 -0.6566 -2.3490
 7383TIP3   OH246343   4.021   3.594   7.161 -0.3013  0.3343 -0.4438
 7383TIP3    H146344   3.961   3.553   7.099 -0.9913  1.2528 -0.4028
 7383TIP3    H246345   4.061   3.666   7.112  0.6989 -0.2023 -0.4378
 7384TIP3   OH246346   2.732   5.869   2.303 -0.2361 -0.0980  0.4000
 7384TIP3    H146347   2.686   5.794   2.341  1.2484 -0.9831  0.5212
 7384TIP3    H246348   2.697   5.876   2.214 -0.9764 -0.4091  0.6553
 7385TIP3   OH246349   4.013   5.727   9.229  0.5300  0.3367  0.4385
 7385TIP3    H146350   4.072   5.799   9.207  2.2736 -1.3610 -0.7305
 7385TIP3    H246351   3.969   5.706   9.147  0.1521 -0.0264  0.7309
 7386TIP3   OH246352   4.313   7.099   0.491 -0.3300  0.3204  0.0907
 7386TIP3    H146353   4.306   7.013   0.532 -0.5798  0.4279  0.2782
 7386TIP3    H246354   4.320   7.160   0.565 -0.6885  0.5067 -0.0257
 7387TIP3   OH246355   3.878   3.913   0.179 -0.1316  0.1319  0.3966
 7387TIP3    H146356   3.931   3.852   0.230 -0.8868 -0.0113  1.0291
 7387TIP3    H246357   3.848   3.862   0.104 -1.2016 -0.4651  1.1963
 7388TIP3   OH246358   4.409   2.652   0.276 -0.7011  0.2269 -0.5255
 7388TIP3    H146359   4.327   2.695   0.300 -0.8040 -0.2320 -0.0397
 7388TIP3    H246360   4.477   2.717   0.293 -0.9065  0.3976 -0.3471
 7389TIP3   OH246361   0.508   5.443   9.957  0.2385  0.3533 -0.1815
 7389TIP3    H146362   0.589   5.484   9.987  0.4915 -2.0321  2.9762
 7389TIP3    H246363   0.440   5.509   9.973  1.0577  0.8793  1.3889
 7390TIP3   OH246364   0.436   5.942   0.582  0.1432 -0.0369  0.3509
 7390TIP3    H146365   0.346   5.962   0.608  0.0314  1.1176 -0.8522
 7390TIP3    H246366   0.489   5.970   0.657 -0.4207  0.0881  0.7113
 7391TIP3   OH246367   7.225   2.043   9.200  0.1254 -0.4202  0.5510
 7391TIP3    H146368   7.275   2.112   9.156 -0.5147  0.6564  1.4528
 7391TIP3    H246369   7.270   1.962   9.176  0.2649  0.1887 -1.4129
 7392TIP3   OH246370   1.947   6.726   7.412 -0.1594 -0.4589  0.1174
 7392TIP3    H146371   1.869   6.755   7.460  0.2922 -0.2622  0.7513
 7392TIP3    H246372   1.916   6.710   7.323 -0.9310 -0.4160  0.3708
 7393TIP3   OH246373   7.045   2.198   9.379  0.0177  0.0538  0.8648
 7393TIP3    H146374   7.092   2.224   9.459 -0.3325  1.6629  0.5737
 7393TIP3    H246375   7.110   2.148   9.329  0.7180  0.3379  1.4615
 7394TIP3   OH246376   1.264   1.757   2.325  0.3584  0.1549  0.2279
 7394TIP3    H146377   1.326   1.804   2.380 -0.1665 -0.7953  1.6845
 7394TIP3    H246378   1.307   1.750   2.240  0.9472  2.1535  0.3281
 7395TIP3   OH246379   0.586   1.069   0.732  0.3848 -0.2343 -0.5473
 7395TIP3    H146380   0.670   1.109   0.755  1.0389 -0.7929 -1.8636
 7395TIP3    H246381   0.608   0.979   0.709 -0.8280 -0.8783  0.7007
 7396TIP3   OH246382   0.859   7.183   9.534 -0.4532  0.2575 -0.0034
 7396TIP3    H146383   0.766   7.158   9.535  0.0129 -1.6339  0.8539
 7396TIP3    H246384   0.858   7.278   9.522 -2.5753  0.5179  1.5715
 7397TIP3   OH246385   5.323   6.550   0.581 -0.2360 -0.3967 -0.6057
 7397TIP3    H146386   5.334   6.644   0.596 -1.6951  0.1121 -2.3698
 7397TIP3    H246387   5.336   6.511   0.668 -0.3778  1.5008  0.3352
 7398TIP3   OH246388   5.006   2.222   9.127  0.3098  0.5760 -0.5668
 7398TIP3    H146389   5.047   2.175   9.200  1.6006  0.7199 -1.1677
 7398TIP3    H246390   5.079   2.264   9.082 -0.7490  2.6647 -0.4186
 7399TIP3   OH246391   1.453   2.573   8.230 -0.1102  0.1334 -0.1052
 7399TIP3    H146392   1.394   2.512   8.185 -0.5896 -0.7181  1.6014
 7399TIP3    H246393   1.522   2.518   8.266  0.6682  0.8923 -0.4118
 7400TIP3   OH246394   2.195   2.384   8.793 -0.1253  0.1265 -0.4914
 7400TIP3    H146395   2.223   2.358   8.881 -0.8180  1.2957  0.0847
 7400TIP3    H246396   2.269   2.359   8.737  0.9854  0.7605  0.6305
 7401TIP3   OH246397   5.094   6.224   0.729  0.5560 -0.1491 -0.0903
 7401TIP3    H146398   5.186   6.211   0.706  0.5908 -1.8406  0.8282
 7401TIP3    H246399   5.094   6.232   0.824 -0.1050  1.5488 -0.1973
 7402TIP3   OH246400   3.116   1.093   3.066  0.0941  0.1581 -0.1045
 7402TIP3    H146401   3.025   1.062   3.066 -0.0027  0.4412 -0.1109
 7402TIP3    H246402   3.111   1.184   3.095  0.3039  0.3725 -0.7050
 7403TIP3   OH246403   0.635   6.850   1.441 -0.4550  0.0461  0.2765
 7403TIP3    H146404   0.716   6.881   1.401  0.4118 -1.0347  1.1317
 7403TIP3    H246405   0.657   6.835   1.533 -1.5746 -0.4355  0.4887
 7404TIP3   OH246406   0.508   1.093   3.024  0.1534 -0.1422 -0.1131
 7404TIP3    H146407   0.554   1.013   2.999 -1.1939 -0.7805 -0.6173
 7404TIP3    H246408   0.509   1.147   2.945 -1.6478 -0.9905 -0.7697
 7405TIP3   OH246409   5.378   3.195   7.979 -0.6138  0.5894 -0.2995
 7405TIP3    H146410   5.358   3.124   7.917 -2.0047  2.1987 -1.7824
 7405TIP3    H246411   5.310   3.260   7.963  1.2435  2.7675  0.2457
 7406TIP3   OH246412   1.104   1.972   8.296  0.1548  0.4490 -0.1287
 7406TIP3    H146413   1.179   1.973   8.355  0.5699 -2.0236 -0.5186
 7406TIP3    H246414   1.137   2.010   8.215  0.9228 -0.3362 -0.1973
 7407TIP3   OH246415   4.702   4.427   9.750 -0.4075 -0.0406  0.6435
 7407TIP3    H146416   4.751   4.509   9.748  1.1387 -0.8799  1.8840
 7407TIP3    H246417   4.713   4.394   9.839 -2.0612 -0.9915  0.5423
 7408TIP3   OH246418   0.794   4.890   1.798 -0.1909 -0.2685 -0.3671
 7408TIP3    H146419   0.797   4.862   1.706 -1.6761  2.0902 -1.2418
 7408TIP3    H246420   0.714   4.850   1.832  0.1292 -0.7858 -0.2073
 7409TIP3   OH246421   2.968   1.337   7.785 -0.1034 -0.2585  0.2348
 7409TIP3    H146422   3.015   1.403   7.835 -0.6745 -1.6067  2.6948
 7409TIP3    H246423   2.956   1.376   7.698  1.3649  1.9858  0.9715
 7410TIP3   OH246424   3.693   5.503   0.511  0.0320  0.2561  0.0981
 7410TIP3    H146425   3.711   5.438   0.579 -1.8479  0.0509  0.4568
 7410TIP3    H246426   3.680   5.585   0.560  1.2717  0.6776 -0.2553
 7411TIP3   OH246427   3.749   6.805   9.213 -0.4764  0.5958  0.2771
 7411TIP3    H146428   3.822   6.777   9.158  1.7505  0.0809  3.2283
 7411TIP3    H246429   3.713   6.723   9.248 -1.2252  0.9439  0.3291
 7412TIP3   OH246430   3.937   6.678   9.073 -0.2075 -0.5371  0.0367
 7412TIP3    H146431   3.949   6.586   9.094  1.8228 -0.3428 -0.0872
 7412TIP3    H246432   3.973   6.687   8.984 -0.6245  0.3183 -0.0528
 7413TIP3   OH246433   0.372   3.837   0.556  0.7736  0.2471  0.5837
 7413TIP3    H146434   0.316   3.760   0.556 -0.5845  1.2078  0.7027
 7413TIP3    H246435   0.359   3.877   0.470  1.1326  0.5777  0.6765
 7414TIP3   OH246436   6.630   4.529   8.895  0.0153 -0.0873 -0.3481
 7414TIP3    H146437   6.569   4.548   8.823 -0.0411  1.2008  0.0011
 7414TIP3    H246438   6.606   4.592   8.963  0.4933 -0.8502  0.5519
 7415TIP3   OH246439   7.110   6.898   1.190  0.1450 -0.4242  0.5578
 7415TIP3    H146440   7.119   6.990   1.217  0.6285 -0.1244 -0.5895
 7415TIP3    H246441   7.038   6.898   1.128  0.5691 -0.7044  0.0577
 7416TIP3   OH246442   0.068   0.046   2.321 -0.0395  0.4011 -0.0596
 7416TIP3    H146443   0.059  -0.042   2.358  0.4924  0.4228  0.1261
 7416TIP3    H246444   0.052   0.034   2.227  2.5284 -0.3656 -0.4771
 7417TIP3   OH246445   2.422   5.821   1.713  0.0370  0.7196  0.8205
 7417TIP3    H146446   2.459   5.734   1.694 -0.2649  1.0596 -1.6395
 7417TIP3    H246447   2.332   5.803   1.738 -0.1358  0.3317 -0.0499
 7418TIP3   OH246448   2.381   3.077   9.072  0.0634  0.3127 -0.8057
 7418TIP3    H146449   2.466   3.067   9.114 -0.4333 -2.3347 -0.2986
 7418TIP3    H246450   2.376   3.004   9.011 -0.6787  2.1055 -3.0308
 7419TIP3   OH246451   2.334   1.490   8.384  0.4295 -0.7545  0.7737
 7419TIP3    H146452   2.278   1.422   8.423  0.1782 -1.3482 -0.5534
 7419TIP3    H246453   2.283   1.571   8.394 -0.1312 -1.0869  0.6771
 7420TIP3   OH246454   6.089   5.675   7.068  0.2559 -0.1847 -0.1407
 7420TIP3    H146455   6.115   5.765   7.049  0.2301  0.1433  1.2440
 7420TIP3    H246456   6.170   5.625   7.065  0.2050 -0.2234 -1.3851
 7421TIP3   OH246457   2.316   1.628   0.667  0.4260  0.7619  0.4895
 7421TIP3    H146458   2.384   1.676   0.714  1.2255 -1.1354  1.3653
 7421TIP3    H246459   2.270   1.578   0.735  0.0711 -0.2251 -0.4393
 7422TIP3   OH246460   6.415   0.500   1.003 -0.3000  0.0963 -0.0673
 7422TIP3    H146461   6.434   0.491   1.096 -1.9126 -1.5632  0.1539
 7422TIP3    H246462   6.340   0.443   0.988  0.0823  0.1149 -2.4519
 7423TIP3   OH246463   0.675   7.313   1.876 -0.1435 -0.8903 -0.1681
 7423TIP3    H146464   0.676   7.408   1.873 -0.6885 -0.9053 -2.1171
 7423TIP3    H246465   0.689   7.291   1.969 -0.6172  1.0728  0.3995
 7424TIP3   OH246466   7.414   2.532   9.627  0.2844  0.6400 -0.2176
 7424TIP3    H146467   7.386   2.459   9.571 -0.2031  0.3757  0.3525
 7424TIP3    H246468   7.509   2.527   9.627  0.2632  0.1592 -0.4033
 7425TIP3   OH246469   5.347   3.935   1.522  0.2356 -0.2705 -0.1202
 7425TIP3    H146470   5.437   3.937   1.492  0.9235 -1.3961  1.7128
 7425TIP3    H246471   5.295   3.950   1.443  1.9382 -1.7653 -1.6082
 7426TIP3   OH246472   2.438   6.165   7.386 -0.2872  0.1328 -0.2055
 7426TIP3    H146473   2.532   6.183   7.386 -0.4008  0.7681  0.7059
 7426TIP3    H246474   2.402   6.223   7.319 -0.1586  0.6441  0.1639
 7427TIP3   OH246475   6.490   1.901   1.667  0.4016 -0.8842  0.1391
 7427TIP3    H146476   6.424   1.911   1.599  2.6972 -0.8935 -2.2327
 7427TIP3    H246477   6.510   1.808   1.669  1.7298 -0.6397 -0.6216
 7428TIP3   OH246478   6.208   2.496   0.972 -0.1569  0.3684 -0.3863
 7428TIP3    H146479   6.169   2.416   0.937 -0.3641  0.4192 -0.2747
 7428TIP3    H246480   6.168   2.566   0.922 -1.0839  0.4990  0.5013
 7429TIP3   OH246481   0.208   0.470   8.935 -0.3063  0.1086 -0.0866
 7429TIP3    H146482   0.115   0.460   8.917  0.0127 -2.1245 -0.7225
 7429TIP3    H246483   0.242   0.515   8.857 -0.6627 -0.0638 -0.3460
 7430TIP3   OH246484   0.415   0.810   7.887  0.2955 -0.2206 -0.3010
 7430TIP3    H146485   0.326   0.844   7.888  0.3443 -0.0508 -1.0296
 7430TIP3    H246486   0.429   0.780   7.797  1.7203  1.7619 -0.8024
 7431TIP3   OH246487   4.515   6.135   8.028 -0.0013 -0.3736 -0.2933
 7431TIP3    H146488   4.556   6.071   7.971  0.5349 -0.1580 -0.1596
 7431TIP3    H246489   4.422   6.131   8.007 -0.0967 -1.7594  0.2675
 7432TIP3   OH246490   4.238   2.590   2.679 -0.1368 -0.5492  0.3781
 7432TIP3    H146491   4.187   2.593   2.761 -0.9721 -1.1809 -0.0981
 7432TIP3    H246492   4.253   2.496   2.664  0.8087 -0.3869  0.2847
 7433TIP3   OH246493   1.483   0.764   7.987  0.2969 -0.1524 -0.0973
 7433TIP3    H146494   1.481   0.693   8.051 -0.3963  0.7068  0.8761
 7433TIP3    H246495   1.539   0.731   7.916 -2.1323 -2.7713 -1.0148
 7434TIP3   OH246496   2.733   0.585   9.017 -0.1238  0.4720 -0.0396
 7434TIP3    H146497   2.731   0.668   8.968  1.5658 -0.8183 -2.5544
 7434TIP3    H246498   2.642   0.568   9.039 -0.5738  2.7130  0.0596
 7435TIP3   OH246499   1.371   6.268   0.318  0.0315 -0.2039  0.4710
 7435TIP3    H146500   1.284   6.279   0.279 -0.1215 -1.2507  0.4884
 7435TIP3    H246501   1.373   6.178   0.349  1.0606 -0.1425  0.6467
 7436TIP3   OH246502   1.208   0.326   7.969  0.3456 -0.3759 -0.2888
 7436TIP3    H146503   1.229   0.417   7.947  1.8524 -0.4433  0.7792
 7436TIP3    H246504   1.226   0.278   7.889  0.8963  0.0754 -0.4447
 7437TIP3   OH246505   5.766   6.648   0.289  0.3956 -0.3600  0.0801
 7437TIP3    H146506   5.822   6.575   0.316  0.9858 -0.7051 -1.9457
 7437TIP3    H246507   5.737   6.625   0.201 -0.3767  1.3101 -0.1389
 7438TIP3   OH246508   5.393   0.894   7.098 -0.2563  0.6175 -0.2190
 7438TIP3    H146509   5.342   0.814   7.107  1.0226 -0.1511  0.4982
 7438TIP3    H246510   5.475   0.867   7.056  0.6715  1.3009  1.0510
 7439TIP3   OH246511   2.205   3.707   9.283  0.3296 -0.1324  0.1957
 7439TIP3    H146512   2.169   3.650   9.215 -0.8174 -1.7498  2.0323
 7439TIP3    H246513   2.128   3.750   9.320  0.9155  0.5838  0.5959
 7440TIP3   OH246514   3.610   5.195   7.276 -0.5914 -0.1730  0.0407
 7440TIP3    H146515   3.526   5.227   7.242 -1.3930  0.0401  2.0777
 7440TIP3    H246516   3.662   5.177   7.198 -2.1562  0.6864 -1.2654
 7441TIP3   OH246517   2.015   3.671   1.871 -0.5093  0.0272  0.4562
 7441TIP3    H146518   1.988   3.584   1.841 -1.3836  0.7969 -1.0862
 7441TIP3    H246519   1.954   3.692   1.942 -0.9491 -0.2076  0.1512
 7442TIP3   OH246520   5.732   7.043   8.558  0.0355 -0.0820  0.1475
 7442TIP3    H146521   5.720   7.001   8.473  0.1153  0.8395 -0.3284
 7442TIP3    H246522   5.818   7.085   8.553  0.2177 -0.3508  0.8316
 7443TIP3   OH246523   0.557   6.930   8.477 -0.3132 -0.0352  0.0924
 7443TIP3    H146524   0.616   6.983   8.423  1.0252 -1.9898 -0.4704
 7443TIP3    H246525   0.487   6.903   8.418 -1.1691  1.2972  0.4585
 7444TIP3   OH246526   0.395   1.938   1.436  0.1906 -0.4054  0.4326
 7444TIP3    H146527   0.479   1.949   1.480  0.6346  0.2929 -0.5478
 7444TIP3    H246528   0.417   1.905   1.349 -0.6668 -1.7562  0.6955
 7445TIP3   OH246529   0.834   5.191   9.383  0.0948  0.0554  0.2776
 7445TIP3    H146530   0.868   5.277   9.407  0.8734  0.4055 -1.8870
 7445TIP3    H246531   0.744   5.191   9.414  0.1550  1.5613  0.5241
 7446TIP3   OH246532   1.298   6.333   9.464  0.2799  0.1333 -0.0120
 7446TIP3    H146533   1.205   6.309   9.463  0.8159 -2.2001 -0.2267
 7446TIP3    H246534   1.333   6.289   9.541  1.3940  0.0967 -0.5212
 7447TIP3   OH246535   4.551   3.846   1.032 -0.2544 -0.7612  0.9296
 7447TIP3    H146536   4.591   3.773   0.984  1.1424 -0.5020  1.6534
 7447TIP3    H246537   4.600   3.923   1.004 -2.6940  0.2108 -0.9917
 7448TIP3   OH246538   3.592   3.220   7.832  0.6046 -0.4368 -0.5344
 7448TIP3    H146539   3.594   3.316   7.829 -1.1105 -0.3492  0.3064
 7448TIP3    H246540   3.667   3.194   7.779  1.2172  1.3651 -0.6458
 7449TIP3   OH246541   0.696   2.650   8.902  0.1008  0.0070 -0.2619
 7449TIP3    H146542   0.784   2.682   8.880  0.0239  0.6577  0.3731
 7449TIP3    H246543   0.706   2.609   8.987 -0.5894  1.8164  0.7384
 7450TIP3   OH246544   2.022   3.826   9.443 -0.3042 -0.1358 -0.4318
 7450TIP3    H146545   1.940   3.786   9.414 -0.4653 -0.2211  0.1305
 7450TIP3    H246546   1.995   3.906   9.488 -0.0481  0.0600 -0.6187
 7451TIP3   OH246547   2.489   1.695   8.000 -0.3870  0.0923  0.1927
 7451TIP3    H146548   2.408   1.683   7.950 -1.9680  1.3094  2.2927
 7451TIP3    H246549   2.508   1.788   7.993  0.2972 -0.0197  0.5157
 7452TIP3   OH246550   3.489   2.452   1.403  0.1133  0.2736 -0.2639
 7452TIP3    H146551   3.574   2.419   1.431 -0.4052  0.8837  2.3515
 7452TIP3    H246552   3.496   2.547   1.411 -0.7896  0.3327  0.0157
 7453TIP3   OH246553   2.340   5.140   1.490 -0.1999 -0.6366  0.3279
 7453TIP3    H146554   2.324   5.172   1.401 -0.6322 -1.3116  0.1614
 7453TIP3    H246555   2.264   5.168   1.540  0.7389  1.1031  0.8742
 7454TIP3   OH246556   3.183   6.899   7.014 -0.1224 -0.1819  0.1023
 7454TIP3    H146557   3.172   6.994   7.019  1.0212  0.0724 -1.2815
 7454TIP3    H246558   3.256   6.880   7.073  1.5484  0.2571 -1.7097
 7455TIP3   OH246559   7.394   1.089   1.741 -0.0537  0.1360 -0.2317
 7455TIP3    H146560   7.454   1.133   1.681  2.9155 -2.6707  0.3547
 7455TIP3    H246561   7.407   0.995   1.723 -4.6174 -0.7388 -0.2171
 7456TIP3   OH246562   6.250   3.780   8.051 -0.1090 -0.4902 -0.0413
 7456TIP3    H146563   6.276   3.841   8.120 -1.0165  0.5295 -0.5686
 7456TIP3    H246564   6.264   3.829   7.970  0.1955 -1.3938 -0.5513
 7457TIP3   OH246565   5.627   4.922   2.690  0.1418 -0.3250 -0.5988
 7457TIP3    H146566   5.668   4.841   2.660  0.9833  0.4298 -1.5208
 7457TIP3    H246567   5.675   4.992   2.646 -0.8849  0.6685 -0.1964
 7458TIP3   OH246568   1.919   5.980   9.326 -0.0794  0.6277 -0.6458
 7458TIP3    H146569   1.919   5.926   9.405  0.7884  0.4006 -0.7896
 7458TIP3    H246570   1.845   6.039   9.338  0.5514  1.2024  0.7592
 7459TIP3   OH246571   5.194   4.309   9.523 -0.2589 -0.4426 -0.2939
 7459TIP3    H146572   5.161   4.349   9.442 -0.2128 -1.7786 -0.9991
 7459TIP3    H246573   5.115   4.278   9.568 -0.4375  1.6743  0.9915
 7460TIP3   OH246574   0.176   2.091   7.699  0.0926 -0.2247 -0.2833
 7460TIP3    H146575   0.124   2.098   7.619  0.2418 -1.7922 -0.5402
 7460TIP3    H246576   0.111   2.073   7.767  0.1668 -1.0809 -0.4259
 7461TIP3   OH246577   4.261   2.508   8.544 -0.4389  0.9194 -0.2962
 7461TIP3    H146578   4.306   2.424   8.554  1.8567  2.0749 -0.3141
 7461TIP3    H246579   4.168   2.486   8.551  0.1421 -1.3268  1.9150
 7462TIP3   OH246580   2.825   4.387   0.403 -0.1428 -0.2499 -0.1579
 7462TIP3    H146581   2.896   4.349   0.456  1.4106  1.7113 -0.7062
 7462TIP3    H246582   2.858   4.385   0.314 -1.1564 -0.0527 -0.5470
 7463TIP3   OH246583   1.681   3.217   1.242 -0.1245 -0.4171 -0.0824
 7463TIP3    H146584   1.659   3.307   1.265  1.9791  0.1612 -0.0647
 7463TIP3    H246585   1.679   3.170   1.325 -1.6433 -0.5195 -0.1496
 7464TIP3   OH246586   3.211   2.327   2.408 -0.4025  0.0050  0.3021
 7464TIP3    H146587   3.245   2.407   2.447 -2.7138  1.4081 -0.3390
 7464TIP3    H246588   3.132   2.355   2.362 -0.4633 -2.4118 -1.2345
 7465TIP3   OH246589   6.817   1.352   8.987  0.4883  0.0625  0.0702
 7465TIP3    H146590   6.833   1.275   8.932 -1.0723 -0.6721  0.5963
 7465TIP3    H246591   6.758   1.407   8.935 -0.2375 -0.1919  0.6108
 7466TIP3   OH246592   3.692   0.219   1.210 -0.2498  0.1598 -0.0937
 7466TIP3    H146593   3.746   0.267   1.147  0.2303  0.1309  0.2899
 7466TIP3    H246594   3.602   0.237   1.183 -0.0569  0.4371 -0.5703
 7467TIP3   OH246595   3.233   7.076   2.817  0.0621  0.1139  0.1801
 7467TIP3    H146596   3.208   7.005   2.876 -1.7925  1.3972  1.0411
 7467TIP3    H246597   3.286   7.135   2.872  0.1316  0.2537 -0.0342
 7468TIP3   OH246598   4.758   3.604   0.176 -0.3600 -0.2705 -0.3867
 7468TIP3    H146599   4.728   3.538   0.238  4.2936 -1.8011  0.6758
 7468TIP3    H246600   4.780   3.556   0.097  0.6202  0.3731 -0.5378
 7469TIP3   OH246601   2.640   2.170   7.960  0.1001  0.3267 -0.1782
 7469TIP3    H146602   2.731   2.182   7.933  0.4052  0.4573  0.8758
 7469TIP3    H246603   2.601   2.257   7.952  0.5696  0.6766  1.1421
 7470TIP3   OH246604   2.359   1.833   7.385  0.0644 -0.2153  0.0588
 7470TIP3    H146605   2.286   1.858   7.442 -1.5183 -2.3848 -0.8830
 7470TIP3    H246606   2.330   1.857   7.297  2.3233  2.7396 -0.0055
 7471TIP3   OH246607   6.484   4.655   1.658 -0.0340  0.0816 -0.0407
 7471TIP3    H146608   6.406   4.674   1.710 -0.4189 -0.2958 -0.4689
 7471TIP3    H246609   6.538   4.599   1.714 -0.0726  0.3344  0.2516
 7472TIP3   OH246610   1.625   4.217   8.717 -0.0511 -0.2769 -0.2336
 7472TIP3    H146611   1.611   4.148   8.652 -1.1126  1.2102 -1.6631
 7472TIP3    H246612   1.721   4.224   8.724  0.0981 -0.5191 -1.6342
 7473TIP3   OH246613   0.468   7.333   8.641  0.0386 -0.5219  0.5411
 7473TIP3    H146614   0.554   7.304   8.671  0.6104  1.9570  1.5671
 7473TIP3    H246615   0.454   7.287   8.558  1.8281 -1.8251  0.9194
 7474TIP3   OH246616   5.499   3.035   8.174 -0.5158 -0.4650 -0.1944
 7474TIP3    H146617   5.551   2.987   8.109 -0.0793  1.0172 -0.9799
 7474TIP3    H246618   5.438   3.087   8.123 -2.5433 -1.8228  0.7048
 7475TIP3   OH246619   1.061   4.074   1.803 -0.1444 -0.0566  0.3933
 7475TIP3    H146620   1.072   3.994   1.854 -0.9567 -0.0624  0.5777
 7475TIP3    H246621   1.109   4.141   1.852  0.2496 -0.3581  0.4193
 7476TIP3   OH246622   7.346   0.668   1.179 -0.9850  0.0642  0.1515
 7476TIP3    H146623   7.410   0.685   1.110  0.1788 -1.0329  0.9340
 7476TIP3    H246624   7.381   0.711   1.256 -0.9832 -0.8597  0.6789
 7477TIP3   OH246625   5.688   6.532   1.327  0.3069  0.0663 -0.2012
 7477TIP3    H146626   5.773   6.488   1.332  0.0116 -0.6056 -0.8634
 7477TIP3    H246627   5.639   6.482   1.262 -0.5489  0.5325  0.0669
 7478TIP3   OH246628   5.655   1.844   0.241 -0.3962  0.4294  0.2414
 7478TIP3    H146629   5.698   1.899   0.175 -2.8879  1.5205 -0.5788
 7478TIP3    H246630   5.672   1.889   0.324 -0.8482  1.4705 -0.2047
 7479TIP3   OH246631   2.018   0.810   0.585  0.0316  0.1504 -0.1555
 7479TIP3    H146632   2.044   0.781   0.673  0.3676 -0.8679 -0.5800
 7479TIP3    H246633   1.923   0.816   0.589 -0.0240 -0.7232  0.0377
 7480TIP3   OH246634   5.930   7.019   8.281 -0.2726  0.2050 -0.4444
 7480TIP3    H146635   5.861   6.953   8.278  0.1389 -0.1995 -1.4298
 7480TIP3    H246636   6.003   6.979   8.233  0.6538  0.6158  0.5847
 7481TIP3   OH246637   1.517   2.273   9.984  0.4840  0.3311  0.4077
 7481TIP3    H146638   1.467   2.354   9.973  1.1148  0.6574 -0.1752
 7481TIP3    H246639   1.550   2.253   9.896  2.7089  1.0200  1.0098
 7482TIP3   OH246640   4.653   4.499   1.390 -0.5224 -0.5349 -0.1632
 7482TIP3    H146641   4.646   4.545   1.474  0.6867 -0.7865  0.0989
 7482TIP3    H246642   4.741   4.461   1.391  0.4469  1.4144 -2.5281
 7483TIP3   OH246643   4.774   3.729   2.072 -0.9749 -0.0190 -0.3875
 7483TIP3    H146644   4.787   3.788   2.146 -1.3380 -1.2022  0.6452
 7483TIP3    H246645   4.853   3.675   2.069  0.0055  1.3696 -2.2065
 7484TIP3   OH246646   0.962   7.038   8.585  0.2833  0.1376  0.3239
 7484TIP3    H146647   1.054   7.032   8.559  0.5537  0.2132  1.2411
 7484TIP3    H246648   0.964   7.061   8.677 -0.6450 -0.9999  0.6519
 7485TIP3   OH246649   1.308   6.612   1.824  0.4419  0.6280 -0.2796
 7485TIP3    H146650   1.304   6.521   1.852 -0.6208  0.8199  0.2533
 7485TIP3    H246651   1.384   6.648   1.869  0.8917 -0.0031 -0.5293
 7486TIP3   OH246652   1.050   0.851   1.030 -0.4055 -0.1697 -0.3096
 7486TIP3    H146653   1.132   0.885   1.064 -0.0662 -0.4909 -0.7833
 7486TIP3    H246654   1.000   0.928   1.004  0.5439 -0.0253 -1.8047
 7487TIP3   OH246655   4.849   1.258   9.344 -0.0907  0.3080 -0.2775
 7487TIP3    H146656   4.930   1.229   9.303 -1.0296 -0.5936 -1.5597
 7487TIP3    H246657   4.782   1.196   9.314 -1.1330  0.5587  1.3539
 7488TIP3   OH246658   5.605   6.703   1.836  0.9132  0.7832 -0.0446
 7488TIP3    H146659   5.639   6.663   1.755  0.7550  0.6457 -0.0439
 7488TIP3    H246660   5.657   6.663   1.906  1.1035  0.9597 -0.0820
 7489TIP3   OH246661   2.257   3.389   8.092  0.2258 -0.6624  0.4696
 7489TIP3    H146662   2.289   3.479   8.090  0.8930 -0.8984 -0.1385
 7489TIP3    H246663   2.178   3.390   8.040 -0.1885 -0.2837  1.0913
 7490TIP3   OH246664   2.451   0.392   2.482 -0.0192 -0.2359  0.6307
 7490TIP3    H146665   2.522   0.331   2.502  0.9972  0.8955  0.6012
 7490TIP3    H246666   2.495   0.469   2.446 -0.8472  1.9960  3.9052
 7491TIP3   OH246667   7.389   6.230   2.229  0.4668  0.3517  0.5316
 7491TIP3    H146668   7.305   6.269   2.254  0.0987 -0.1331  0.0690
 7491TIP3    H246669   7.370   6.182   2.148  1.4653  1.3042 -0.3074
 7492TIP3   OH246670   3.717   0.327   1.955 -0.6806  0.2955 -0.1136
 7492TIP3    H146671   3.656   0.318   2.028 -1.5733  2.0753 -0.5884
 7492TIP3    H246672   3.668   0.297   1.879 -0.3538  0.1251 -0.2612
 7493TIP3   OH246673   2.002   3.065   8.336 -0.0914  0.3386 -0.0317
 7493TIP3    H146674   2.085   3.079   8.290 -0.2692 -0.6346 -0.6758
 7493TIP3    H246675   1.936   3.063   8.266 -0.5530  0.2481  0.3998
 7494TIP3   OH246676   0.250   5.372   8.138  0.5237 -0.2351 -0.5747
 7494TIP3    H146677   0.177   5.397   8.081  1.8118  0.0411 -2.1584
 7494TIP3    H246678   0.269   5.451   8.189 -0.5781 -0.4628  0.2488
 7495TIP3   OH246679   7.124   4.176   9.995 -0.1659 -0.0131  0.0720
 7495TIP3    H146680   7.178   4.097   9.984  0.7609  0.7023 -0.6900
 7495TIP3    H246681   7.054   4.165   9.931 -0.7645 -0.7943  0.8381
 7496TIP3   OH246682   3.196   1.738   8.630  0.7632 -0.5033 -0.6732
 7496TIP3    H146683   3.142   1.707   8.557  0.4056 -0.4421 -0.4386
 7496TIP3    H246684   3.219   1.828   8.607 -0.2141 -0.1161 -0.2498
 7497TIP3   OH246685   1.382   2.225   8.996  0.3064  0.6516 -0.0289
 7497TIP3    H146686   1.334   2.250   9.075 -0.2492  2.4282 -0.8821
 7497TIP3    H246687   1.364   2.296   8.934  0.7923 -0.6643 -1.7290
 7498TIP3   OH246688   3.492   2.386   9.570  0.4590  0.7014 -0.1340
 7498TIP3    H146689   3.473   2.376   9.663 -0.3575 -1.1684 -0.4527
 7498TIP3    H246690   3.513   2.479   9.559  1.4700  0.7889  2.0506
 7499TIP3   OH246691   1.560   6.734   1.973 -0.3840 -0.1917 -0.7015
 7499TIP3    H146692   1.539   6.767   2.060  1.4685 -0.6273 -0.0437
 7499TIP3    H246693   1.542   6.809   1.915 -2.6643 -0.2355 -0.1460
 7500TIP3   OH246694   5.904   6.209   7.525  0.2260 -0.5612 -0.0471
 7500TIP3    H146695   5.809   6.222   7.526  0.4568  1.3877  0.8834
 7500TIP3    H246696   5.916   6.120   7.558 -1.3188 -1.4471 -1.6954
 7501TIP3   OH246697   1.462   5.490   1.085  0.0853  0.1159  0.7444
 7501TIP3    H146698   1.481   5.421   1.149 -0.4496 -0.5385  0.2218
 7501TIP3    H246699   1.374   5.520   1.108 -0.0532 -0.0262  0.4125
 7502TIP3   OH246700   2.447   2.095   0.560  0.4335 -0.2032 -0.3720
 7502TIP3    H146701   2.481   2.028   0.501  1.0762  1.1856 -1.6504
 7502TIP3    H246702   2.525   2.127   0.606  0.0729 -0.6055  0.5361
 7503TIP3   OH246703   5.307   5.590   9.878  0.0338 -0.1788  0.2424
 7503TIP3    H146704   5.222   5.547   9.882  0.1673 -0.5063 -0.2798
 7503TIP3    H246705   5.349   5.552   9.801 -0.5783  2.2735 -1.4012
 7504TIP3   OH246706   2.232   4.778   9.076  0.0017  0.4513  0.0900
 7504TIP3    H146707   2.140   4.770   9.053  0.2336 -0.9470 -0.4247
 7504TIP3    H246708   2.242   4.725   9.155  0.3830  0.5405  0.1050
 7505TIP3   OH246709   6.313   1.435   8.569 -0.1991 -0.0257 -0.0559
 7505TIP3    H146710   6.319   1.462   8.660  1.2820 -0.5790  0.0435
 7505TIP3    H246711   6.326   1.340   8.571  0.1405 -0.0059 -0.8673
 7506TIP3   OH246712   7.043   3.727   1.170  0.1681  0.1720  0.0795
 7506TIP3    H146713   7.073   3.651   1.120  1.5590  0.4934  0.3864
 7506TIP3    H246714   7.028   3.693   1.258  0.7646  0.2457  0.2105
 7507TIP3   OH246715   1.512   5.601   0.851  0.3153 -0.5713 -0.2589
 7507TIP3    H146716   1.488   5.557   0.932 -1.5192  1.9884  0.6961
 7507TIP3    H246717   1.529   5.691   0.876  0.6581  0.0775 -2.5909
 7508TIP3   OH246718   6.122   2.952   9.585  0.0913 -0.2484  0.1000
 7508TIP3    H146719   6.084   3.039   9.595 -0.3611 -0.4578  0.2073
 7508TIP3    H246720   6.204   2.956   9.634 -0.0374  0.0463  0.2923
 7509TIP3   OH246721   0.941   6.691   2.532 -0.2230  0.2199 -0.4569
 7509TIP3    H146722   0.923   6.601   2.556 -1.3075  0.5003 -0.1796
 7509TIP3    H246723   0.901   6.744   2.601 -0.2588  0.9341 -1.0087
 7510TIP3   OH246724   4.219   5.226   1.599 -0.3572 -0.0036 -0.0073
 7510TIP3    H146725   4.132   5.239   1.637  1.0413 -0.3412  3.7292
 7510TIP3    H246726   4.237   5.133   1.613  0.5580  0.0306 -0.8884
 7511TIP3   OH246727   3.273   7.194   8.133 -0.6951  0.1761 -0.1571
 7511TIP3    H146728   3.352   7.166   8.179 -0.1943 -2.2673 -2.2598
 7511TIP3    H246729   3.204   7.191   8.198  0.2241 -1.7490  0.7874
 7512TIP3   OH246730   2.732   6.656   1.311  0.3226  0.3937  0.1819
 7512TIP3    H146731   2.714   6.563   1.325 -0.4543  0.5098 -0.0276
 7512TIP3    H246732   2.676   6.681   1.238  0.6824  0.9842  0.1000
 7513TIP3   OH246733   1.637   0.936   1.692  0.0936  0.5515  0.1406
 7513TIP3    H146734   1.691   0.857   1.690  1.1851  1.2814 -0.3352
 7513TIP3    H246735   1.666   0.983   1.771 -0.2491  0.6720  0.1958
 7514TIP3   OH246736   6.007   1.346   9.626  0.4058  0.2019 -0.3027
 7514TIP3    H146737   5.914   1.352   9.649  0.7077  1.1511  0.7381
 7514TIP3    H246738   6.032   1.436   9.603  0.9255 -0.1537 -1.1649
 7515TIP3   OH246739   4.751   4.229   0.428 -0.1483  0.3341 -0.2167
 7515TIP3    H146740   4.832   4.217   0.378  1.4344  0.3142  2.1748
 7515TIP3    H246741   4.747   4.323   0.444  0.0543  0.1989  0.6596
 7516TIP3   OH246742   3.561   6.504   7.504 -0.0909  0.1528 -0.6306
 7516TIP3    H146743   3.606   6.422   7.484 -0.6740 -0.1685 -0.6470
 7516TIP3    H246744   3.478   6.497   7.457  0.2997  1.2167 -1.5226
 7517TIP3   OH246745   0.767   6.823   8.107 -0.1462  0.4228 -0.4738
 7517TIP3    H146746   0.760   6.790   8.197  0.7960  1.6890  0.1054
 7517TIP3    H246747   0.861   6.838   8.095 -0.5305  3.7179 -0.3318
 7518TIP3   OH246748   4.123   7.477   7.931 -0.2697 -0.6591  0.3785
 7518TIP3    H146749   4.060   7.410   7.903  0.3447 -1.0841  0.0020
 7518TIP3    H246750   4.121   7.542   7.860  1.4882 -1.8695 -0.8752
 7519TIP3   OH246751   2.507   0.374   0.142  0.3903 -0.6869  0.6889
 7519TIP3    H146752   2.512   0.455   0.192  0.6895  0.1239 -0.6324
 7519TIP3    H246753   2.594   0.363   0.104 -0.0117 -0.9703 -0.1594
 7520TIP3   OH246754   3.789   2.403   9.466 -0.8196 -0.1086  0.2563
 7520TIP3    H146755   3.697   2.381   9.485 -0.6447 -1.1673 -0.0693
 7520TIP3    H246756   3.831   2.318   9.453 -0.0129  0.4203 -0.6310
 7521TIP3   OH246757   1.271   3.696   0.623 -0.2266  0.1367  0.6123
 7521TIP3    H146758   1.232   3.753   0.690 -0.6303 -0.5029  0.9231
 7521TIP3    H246759   1.361   3.682   0.654 -0.4514 -0.2687  1.0991
 7522TIP3   OH246760   3.977   2.490   8.557  0.6552 -0.1822  0.1622
 7522TIP3    H146761   3.895   2.494   8.606  1.9796  0.0439  2.5051
 7522TIP3    H246762   3.955   2.443   8.477 -2.5114  2.7996 -0.9698
 7523TIP3   OH246763   5.012   1.822   8.515 -0.0400 -0.4669  0.5074
 7523TIP3    H146764   4.982   1.732   8.501 -2.0534  0.3247 -0.8143
 7523TIP3    H246765   5.031   1.855   8.427  1.0416  0.3080  1.0036
 7524TIP3   OH246766   6.487   3.269   0.331 -0.2094  0.7532 -0.1139
 7524TIP3    H146767   6.483   3.287   0.237  1.4838 -0.9552 -0.5656
 7524TIP3    H246768   6.580   3.269   0.352 -0.5563  0.9618  1.5480
 7525TIP3   OH246769   3.136   1.503   1.017 -0.5647  0.6553 -0.1590
 7525TIP3    H146770   3.185   1.554   1.082  0.0231  1.5516 -1.2713
 7525TIP3    H246771   3.135   1.415   1.053  0.2829  0.9964  0.7747
 7526TIP3   OH246772   1.613   1.414   8.302  0.1509 -0.5800  0.5370
 7526TIP3    H146773   1.579   1.486   8.355  0.0860 -0.3621  0.2040
 7526TIP3    H246774   1.547   1.399   8.235  0.7798 -0.0243 -0.2298
 7527TIP3   OH246775   1.553   4.385   1.635  0.7207 -0.9062 -0.1099
 7527TIP3    H146776   1.604   4.432   1.701 -2.1700  1.8443  0.4385
 7527TIP3    H246777   1.513   4.312   1.684  0.2777 -0.1483  0.6947
 7528TIP3   OH246778   3.824   3.896   9.427 -0.0896  0.3353 -0.4440
 7528TIP3    H146779   3.833   3.977   9.377  0.2892 -0.0666 -1.0409
 7528TIP3    H246780   3.850   3.919   9.516  0.4712  0.7615 -0.7144
 7529TIP3   OH246781   4.122   3.030   7.774 -0.2344 -0.1359 -0.0497
 7529TIP3    H146782   4.180   2.966   7.814 -0.3166 -1.8036 -2.3846
 7529TIP3    H246783   4.165   3.054   7.692 -2.1480 -0.3582 -1.1781
 7530TIP3   OH246784   4.642   7.116   9.680  0.0346  0.0283 -0.4603
 7530TIP3    H146785   4.622   7.207   9.699 -1.3907 -0.2923 -0.3225
 7530TIP3    H246786   4.719   7.097   9.733 -0.1781  0.9030  0.1852
 7531TIP3   OH246787   2.579   0.472   8.216  0.5193  0.5188 -0.0326
 7531TIP3    H146788   2.556   0.412   8.286 -1.0956 -0.2180 -1.1194
 7531TIP3    H246789   2.668   0.502   8.237  0.4213 -0.3673  1.8018
 7532TIP3   OH246790   5.012   0.219   8.409  0.4307  0.6354  0.0595
 7532TIP3    H146791   5.052   0.212   8.496  1.9577  2.7228 -0.3906
 7532TIP3    H246792   4.956   0.297   8.416 -1.0919 -0.3774 -0.2810
 7533TIP3   OH246793   1.491   7.026   7.368  0.0874 -0.1090 -0.1161
 7533TIP3    H146794   1.422   7.032   7.433  0.0573  0.7246 -0.2186
 7533TIP3    H246795   1.452   7.063   7.288  0.6714  0.4288 -0.1565
 7534TIP3   OH246796   3.006   2.376   1.206 -0.1706 -0.1643 -0.3538
 7534TIP3    H146797   2.996   2.295   1.156  0.0257 -0.9545  0.8517
 7534TIP3    H246798   3.098   2.400   1.194 -0.0866 -0.4316 -0.2436
 7535TIP3   OH246799   4.097   2.849   0.859  0.1001 -0.0917  0.1957
 7535TIP3    H146800   4.190   2.871   0.854  0.5897 -1.9284  0.5747
 7535TIP3    H246801   4.091   2.785   0.931 -1.2889 -0.7551 -0.4657
 7536TIP3   OH246802   4.158   0.248   9.633 -0.1107  0.3870  0.1775
 7536TIP3    H146803   4.217   0.218   9.702  0.6415 -0.7963 -0.9457
 7536TIP3    H246804   4.073   0.209   9.655  0.4929 -1.3494 -0.4065
 7537TIP3   OH246805   3.508   3.390   7.063  0.2780 -0.5642  0.0721
 7537TIP3    H146806   3.547   3.320   7.010  1.2144  0.0976 -0.1295
 7537TIP3    H246807   3.414   3.380   7.050  0.4835  0.0418 -2.3466
 7538TIP3   OH246808   5.802   6.067   1.310 -0.3160 -0.2518 -0.3993
 7538TIP3    H146809   5.792   5.980   1.350  0.0317  0.1393  0.5770
 7538TIP3    H246810   5.786   6.128   1.382  0.2882  0.4797 -0.8768
 7539TIP3   OH246811   0.289   3.642   9.841  0.0046 -0.8742  0.5732
 7539TIP3    H146812   0.233   3.662   9.767 -0.2239 -0.5979  0.8169
 7539TIP3    H246813   0.231   3.647   9.917  0.1470 -1.5494  0.7347
 7540TIP3   OH246814   5.627   1.934   0.514 -0.6534 -1.0675 -0.6472
 7540TIP3    H146815   5.634   1.906   0.605  0.0216  1.7838  0.2793
 7540TIP3    H246816   5.547   1.987   0.511 -0.5583 -0.9551 -1.6743
 7541TIP3   OH246817   6.827   0.468   8.345  0.3424 -0.1596 -0.6741
 7541TIP3    H146818   6.814   0.558   8.374  1.3121 -0.4482  0.7612
 7541TIP3    H246819   6.914   0.467   8.304 -0.2800 -0.1483 -2.0602
 7542TIP3   OH246820   4.370   2.480   9.138  0.1226 -0.6446  0.5922
 7542TIP3    H146821   4.311   2.425   9.088  1.2865 -0.7849 -0.6713
 7542TIP3    H246822   4.447   2.426   9.154  0.2622 -0.2032  1.5151
 7543TIP3   OH246823   2.348   2.290   9.016 -0.4118 -0.0583 -0.3677
 7543TIP3    H146824   2.390   2.204   9.011  2.0207  1.1004 -1.2387
 7543TIP3    H246825   2.303   2.289   9.101  0.7127 -1.6994  0.2665
 7544TIP3   OH246826   2.498   3.068   0.108 -0.0011 -0.0258 -0.6319
 7544TIP3    H146827   2.571   3.110   0.154 -0.3713 -0.7775  0.7079
 7544TIP3    H246828   2.427   3.067   0.173 -0.8639 -0.2573 -1.5610
 7545TIP3   OH246829   3.042   6.651   7.121  0.6248 -0.2907  0.0528
 7545TIP3    H146830   3.002   6.624   7.038  1.4430 -0.0957 -0.4175
 7545TIP3    H246831   3.063   6.743   7.109  0.5368 -0.2010  0.5652
 7546TIP3   OH246832   6.116   2.946   7.907  0.2404 -0.0475  0.5385
 7546TIP3    H146833   6.143   3.038   7.913  1.3576 -0.4532  3.2608
 7546TIP3    H246834   6.025   2.949   7.878  0.8920  1.7453 -1.6328
 7547TIP3   OH246835   2.240   4.308   7.382  0.3879 -0.3631 -0.2607
 7547TIP3    H146836   2.205   4.387   7.341  0.0184  0.0764  0.8553
 7547TIP3    H246837   2.329   4.330   7.406  0.2881 -0.2877  0.0418
 7548TIP3   OH246838   7.026   3.016   1.909  0.0018  0.0902  0.3286
 7548TIP3    H146839   7.071   3.021   1.993 -0.2341 -0.9486  0.5322
 7548TIP3    H246840   7.085   3.059   1.847  0.8869 -0.5032  0.7430
 7549TIP3   OH246841   2.296   0.647   8.230 -0.3864 -0.6236  0.1259
 7549TIP3    H146842   2.335   0.620   8.146 -2.1889  0.1386 -1.0140
 7549TIP3    H246843   2.357   0.713   8.263 -0.5634  0.4428 -1.5317
 7550TIP3   OH246844   3.785   5.836   1.245  0.4943 -1.1039  0.1999
 7550TIP3    H146845   3.739   5.844   1.162 -0.8462  0.1641  1.0152
 7550TIP3    H246846   3.847   5.909   1.246 -0.5741 -0.1617  0.9179
 7551TIP3   OH246847   3.116   0.359   9.265  0.1885 -0.0825  0.2316
 7551TIP3    H146848   3.101   0.443   9.308  1.2033  1.1762 -1.7224
 7551TIP3    H246849   3.037   0.344   9.213  0.2572 -0.0309  0.1121
 7552TIP3   OH246850   4.679   1.069   0.826 -0.1245 -0.1241 -0.3989
 7552TIP3    H146851   4.745   1.062   0.757  0.1514  1.9195 -0.4020
 7552TIP3    H246852   4.665   1.163   0.837 -2.1251 -0.4590  0.4890
 7553TIP3   OH246853   0.699   6.159   1.708  0.8932 -0.1743  0.0528
 7553TIP3    H146854   0.713   6.120   1.795 -2.9591  0.1605  0.9980
 7553TIP3    H246855   0.734   6.094   1.647 -0.1572 -2.4895  1.7651
 7554TIP3   OH246856   6.574   5.805   0.908 -0.3504  0.7003 -0.1999
 7554TIP3    H146857   6.593   5.878   0.849 -0.2984 -0.4405 -1.6446
 7554TIP3    H246858   6.648   5.803   0.968 -1.1293  2.8286  0.9318
 7555TIP3   OH246859   2.931   0.280   2.222 -0.0256 -0.3095 -0.5162
 7555TIP3    H146860   2.886   0.257   2.140  0.5085 -1.4660 -0.5076
 7555TIP3    H246861   2.956   0.371   2.211 -0.8895 -0.1348 -1.2070
 7556TIP3   OH246862   2.770   1.617   7.762  0.3281  0.5407 -0.4321
 7556TIP3    H146863   2.819   1.561   7.823  0.4098  2.9520  1.8902
 7556TIP3    H246864   2.679   1.587   7.771  0.2579  1.1344  1.3327
 7557TIP3   OH246865   0.152   5.665   9.493  0.5220  0.6211  0.1325
 7557TIP3    H146866   0.225   5.641   9.436 -1.1235 -0.5665 -1.5772
 7557TIP3    H246867   0.166   5.613   9.572  1.8272  0.8748  0.1044
 7558TIP3   OH246868   2.092   2.146   7.361  0.0776 -0.1631 -0.0585
 7558TIP3    H146869   2.115   2.143   7.269  0.6641  0.1474  0.0751
 7558TIP3    H246870   2.001   2.176   7.362  0.6986  1.8820 -0.4693
 7559TIP3   OH246871   7.347   6.846   1.063 -0.0673 -0.6956  0.2969
 7559TIP3    H146872   7.262   6.875   1.096  0.7104  1.7471  0.2800
 7559TIP3    H246873   7.410   6.903   1.105  1.2507  0.1948 -2.6757
 7560TIP3   OH246874   2.387   4.025   1.333  0.2122 -0.2867 -0.4269
 7560TIP3    H146875   2.437   4.017   1.414 -0.1637 -0.2420 -0.1859
 7560TIP3    H246876   2.354   4.115   1.334 -1.5229 -0.8730  0.4089
 7561TIP3   OH246877   6.173   2.371   8.142  0.2878 -0.1651  0.1718
 7561TIP3    H146878   6.144   2.307   8.207  2.6067 -0.7547  0.6807
 7561TIP3    H246879   6.227   2.321   8.081 -2.5362  0.1452 -2.8875
 7562TIP3   OH246880   3.748   7.220   8.980 -0.3342 -0.4187 -0.3640
 7562TIP3    H146881   3.691   7.207   8.904 -1.1959 -1.1034  0.3762
 7562TIP3    H246882   3.836   7.211   8.945 -0.7039 -0.2508 -1.3759
 7563TIP3   OH246883   0.403   1.654   8.513 -0.0325 -0.6117 -0.1883
 7563TIP3    H146884   0.444   1.733   8.479  2.2105 -1.3525  0.6544
 7563TIP3    H246885   0.322   1.646   8.462 -1.7194  3.5669  1.4692
 7564TIP3   OH246886   0.929   5.988   8.265  0.4916 -0.4837  0.7529
 7564TIP3    H146887   0.997   5.923   8.249  0.2832 -0.5075 -0.1138
 7564TIP3    H246888   0.891   6.004   8.179  1.5527  1.9210  0.6532
 7565TIP3   OH246889   5.874   0.545   8.458 -0.0632 -0.6115 -0.1478
 7565TIP3    H146890   5.946   0.535   8.520 -0.2964  3.6517  1.1454
 7565TIP3    H246891   5.795   0.542   8.512 -0.3209  2.0564 -0.2060
 7566TIP3   OH246892   1.392   0.728   9.135 -0.6461  0.4265  0.8372
 7566TIP3    H146893   1.477   0.695   9.107 -0.6171 -1.3903  2.7697
 7566TIP3    H246894   1.393   0.821   9.113  0.7396 -0.0982 -1.5978
 7567TIP3   OH246895   3.726   2.335   1.193 -0.3083 -0.3913 -0.1075
 7567TIP3    H146896   3.655   2.392   1.222 -0.8884 -0.4094 -1.4471
 7567TIP3    H246897   3.683   2.252   1.171  0.2420 -0.6540 -0.2281
 7568TIP3   OH246898   2.641   5.697   8.754 -0.2784 -0.6103 -0.3765
 7568TIP3    H146899   2.659   5.615   8.707 -0.4760  0.9343 -3.3777
 7568TIP3    H246900   2.727   5.739   8.761  0.0302 -1.5260  2.2668
 7569TIP3   OH246901   5.473   3.223   8.755  0.1797  0.8213  0.2933
 7569TIP3    H146902   5.533   3.293   8.780  0.5895  0.2278  1.0352
 7569TIP3    H246903   5.501   3.148   8.809 -1.5329  0.6580  1.0120
 7570TIP3   OH246904   1.635   3.439   1.374  0.4320 -0.7139 -0.1085
 7570TIP3    H146905   1.689   3.502   1.326 -1.6329 -0.4117 -2.2329
 7570TIP3    H246906   1.626   3.478   1.462 -1.9955  2.9306 -1.7192
 7571TIP3   OH246907   5.471   2.533   9.318 -0.0437 -0.3072 -0.0536
 7571TIP3    H146908   5.471   2.439   9.297 -0.0943 -0.0472 -1.2941
 7571TIP3    H246909   5.489   2.536   9.412  1.4205 -1.5125 -0.2450
 7572TIP3   OH246910   0.285   5.961   8.144  0.3717 -0.3752 -0.4163
 7572TIP3    H146911   0.229   5.914   8.206  1.6118 -0.4230  0.7040
 7572TIP3    H246912   0.314   6.038   8.191 -0.2576  0.6503 -1.6491
 7573TIP3   OH246913   3.159   6.538   9.937  0.1512  0.1123  0.3054
 7573TIP3    H146914   3.204   6.558  10.019  1.1014 -0.6171 -0.0183
 7573TIP3    H246915   3.074   6.581   9.945  1.1412  2.0882  0.6407
 7574TIP3   OH246916   1.508   4.031   9.319  0.4126  0.0936  0.6388
 7574TIP3    H146917   1.578   4.045   9.256 -0.0813 -0.7617 -0.1204
 7574TIP3    H246918   1.548   3.977   9.388  0.8211  0.6348  0.8325
 7575TIP3   OH246919   1.753   5.780   0.636  0.3587  0.2151  0.1583
 7575TIP3    H146920   1.669   5.823   0.656 -0.2907 -1.3418  0.9670
 7575TIP3    H246921   1.742   5.748   0.547  0.0467 -0.0557  0.2902
 7576TIP3   OH246922   6.377   1.523   7.855 -0.3846  0.1950 -0.4590
 7576TIP3    H146923   6.305   1.460   7.853  0.4027 -0.9767  2.4518
 7576TIP3    H246924   6.453   1.472   7.883  0.7875  2.0304 -0.1462
 7577TIP3   OH246925   5.606   1.687   9.306  0.0486 -0.0189  0.3225
 7577TIP3    H146926   5.666   1.620   9.338  0.4793 -0.1213 -0.6496
 7577TIP3    H246927   5.662   1.759   9.278 -0.3527  0.3490  0.4578
 7578TIP3   OH246928   0.964   1.473   1.017 -0.2702 -0.1815 -0.5090
 7578TIP3    H146929   1.006   1.392   0.987  2.3690  1.0849 -0.4655
 7578TIP3    H246930   1.032   1.519   1.065 -1.9854  1.6845  0.2782
 7579TIP3   OH246931   3.497   1.966   8.285  0.5710  0.5010  0.3086
 7579TIP3    H146932   3.408   1.992   8.263  0.7421  2.0907  1.3423
 7579TIP3    H246933   3.506   1.987   8.378  1.6555 -0.7522  0.5256
 7580TIP3   OH246934   0.254   6.777   8.553 -1.2752 -0.3410  0.7671
 7580TIP3    H146935   0.181   6.734   8.509 -1.8994  0.0432  1.4058
 7580TIP3    H246936   0.286   6.711   8.615 -0.2697 -0.9542 -0.3468
 7581TIP3   OH246937   6.775   2.131   9.405 -0.3862 -0.1466  0.2355
 7581TIP3    H146938   6.861   2.162   9.377 -0.6494 -1.2967 -2.0199
 7581TIP3    H246939   6.794   2.077   9.482  1.0759 -1.1201 -0.7486
 7582TIP3   OH246940   4.168   6.520   8.799  0.3266 -0.0276 -0.0558
 7582TIP3    H146941   4.247   6.504   8.747  0.7957  2.0445 -0.0848
 7582TIP3    H246942   4.198   6.519   8.889  0.1662 -0.3308 -0.0055
 7583TIP3   OH246943   6.605   2.840   8.706 -0.6523 -0.2534  0.2193
 7583TIP3    H146944   6.666   2.879   8.768 -0.9295  1.8027 -0.6862
 7583TIP3    H246945   6.525   2.827   8.756  0.3065 -2.5008  1.2881
 7584TIP3   OH246946   4.194   3.785   7.510 -0.4537 -0.9269  0.7297
 7584TIP3    H146947   4.225   3.861   7.559 -0.0217 -0.3981 -0.3192
 7584TIP3    H246948   4.121   3.819   7.457 -0.4636 -1.3124  0.4917
 7585TIP3   OH246949   3.020   2.610   2.698 -0.8346 -0.4885 -0.1548
 7585TIP3    H146950   3.093   2.670   2.679 -1.6084  0.6400  0.2979
 7585TIP3    H246951   2.957   2.664   2.746 -0.6973 -2.1605  2.0559
 7586TIP3   OH246952   5.169   2.798   0.233 -0.5804  0.4895  0.4168
 7586TIP3    H146953   5.195   2.889   0.240  0.3910  0.4064 -1.5256
 7586TIP3    H246954   5.074   2.801   0.216 -0.7412  1.0585  1.3340
 7587TIP3   OH246955   5.398   1.258   1.324 -0.1830  0.3125  0.4466
 7587TIP3    H146956   5.349   1.341   1.328 -0.3709  0.1917  0.6319
 7587TIP3    H246957   5.362   1.212   1.248  0.1922  0.5685  0.1010
 7588TIP3   OH246958   6.972   2.432   0.214 -0.2702 -0.3020  0.2694
 7588TIP3    H146959   6.899   2.486   0.184 -0.0767 -0.1918 -0.0058
 7588TIP3    H246960   7.016   2.486   0.280  0.4553  0.2581 -0.6408
 7589TIP3   OH246961   3.181   1.335   8.885 -0.4426 -0.2236  0.3508
 7589TIP3    H146962   3.162   1.244   8.861  0.5583 -0.0680 -1.1460
 7589TIP3    H246963   3.118   1.387   8.834  0.5201  0.0193 -0.6227
 7590TIP3   OH246964   2.639   1.579   1.761 -0.0499 -0.3317  0.4345
 7590TIP3    H146965   2.629   1.623   1.676 -1.7122 -0.0812  0.7276
 7590TIP3    H246966   2.652   1.487   1.739  2.8108  0.1422 -0.1659
 7591TIP3   OH246967   1.344   3.943   2.545  0.2548 -0.4734  0.2204
 7591TIP3    H146968   1.368   3.914   2.632 -1.3231  0.0191  0.8563
 7591TIP3    H246969   1.331   4.038   2.553 -0.5169 -0.5106 -0.3812
 7592TIP3   OH246970   4.521   5.541   7.960  0.3348 -0.1130 -0.2331
 7592TIP3    H146971   4.583   5.523   8.031  1.0516 -0.1983 -0.8753
 7592TIP3    H246972   4.447   5.483   7.979  0.0951  0.5385  0.9594
 7593TIP3   OH246973   5.772   4.121   8.350  0.6739  0.1098  0.0559
 7593TIP3    H146974   5.729   4.182   8.410  0.8740  0.1826  0.1278
 7593TIP3    H246975   5.750   4.153   8.263 -0.1145 -0.3448  0.0812
 7594TIP3   OH246976   3.372   6.833   0.639 -0.4009  0.1456  0.0197
 7594TIP3    H146977   3.351   6.740   0.648  0.9365 -0.1187  0.6701
 7594TIP3    H246978   3.402   6.859   0.726  0.5023  0.8530 -0.4873
 7595TIP3   OH246979   7.134   1.067   8.201  0.5681  0.3539  0.0089
 7595TIP3    H146980   7.135   1.021   8.116  2.1268 -1.2040  0.7858
 7595TIP3    H246981   7.057   1.034   8.245 -0.3376  1.2826 -0.8198
 7596TIP3   OH246982   0.828   6.103   8.830  0.3239 -0.3188 -0.0465
 7596TIP3    H146983   0.798   6.159   8.759  2.2653  0.3765 -0.3582
 7596TIP3    H246984   0.815   6.156   8.909 -0.3781 -0.5030 -0.0267
 7597TIP3   OH246985   3.383   5.961   2.014 -0.3107  0.4678 -0.1545
 7597TIP3    H146986   3.344   6.000   2.093  1.7722 -0.7347  1.5706
 7597TIP3    H246987   3.318   5.897   1.985 -0.9346  0.6143  0.8594
 7598TIP3   OH246988   7.043   3.217   8.319  0.0628  0.2393 -0.2190
 7598TIP3    H146989   7.086   3.287   8.270  0.5020 -0.0971 -0.3227
 7598TIP3    H246990   7.068   3.137   8.274 -0.3982  0.0083 -0.0739
 7599TIP3   OH246991   1.284   1.193   9.658 -0.6722  0.9369  0.3891
 7599TIP3    H146992   1.219   1.122   9.665 -0.7355  0.9200 -0.2549
 7599TIP3    H246993   1.366   1.154   9.688 -0.5665  0.3778 -0.5647
 7600TIP3   OH246994   0.397   1.483   1.965  0.2993 -0.2784 -0.0675
 7600TIP3    H146995   0.384   1.571   1.928 -0.0739 -0.4574 -0.3695
 7600TIP3    H246996   0.444   1.436   1.897  1.1971 -0.0910  0.4045
 7601TIP3   OH246997   6.121   6.794   7.290  0.0154  0.2825  0.1037
 7601TIP3    H146998   6.195   6.765   7.236 -0.9244  0.1005 -1.1316
 7601TIP3    H246999   6.126   6.890   7.287  0.4361  0.2728  0.3768
 7602TIP3   OH247000   5.902   6.921   2.402 -0.4484  0.0060 -0.0377
 7602TIP3    H147001   5.990   6.890   2.381 -0.3133 -0.5368  1.2664
 7602TIP3    H247002   5.844   6.850   2.376 -0.5135  0.3438 -0.8508
 7603TIP3   OH247003   3.514   5.485   7.751  0.7322  0.3058  0.5260
 7603TIP3    H147004   3.480   5.408   7.796  1.2053  0.1716  0.6614
 7603TIP3    H247005   3.441   5.547   7.750 -0.2505 -0.7921 -1.1803
 7604TIP3   OH247006   1.594   0.125   9.283 -0.4761  0.8087 -0.5122
 7604TIP3    H147007   1.592   0.150   9.375 -1.2011  0.7387 -0.5021
 7604TIP3    H247008   1.637   0.039   9.282 -1.0399  0.5164 -0.1617
 7605TIP3   OH247009   2.591   1.283   7.427 -0.3400 -0.3899 -0.2351
 7605TIP3    H147010   2.598   1.220   7.355  0.2464  0.5184 -0.9853
 7605TIP3    H247011   2.629   1.363   7.393  1.3646 -0.3405  1.5806
 7606TIP3   OH247012   0.775   7.177   2.460  1.1301 -0.2590  0.1254
 7606TIP3    H147013   0.857   7.129   2.450 -0.2150 -2.4018 -1.4691
 7606TIP3    H247014   0.772   7.237   2.386  1.8227  0.8195  0.9355
 7607TIP3   OH247015   0.029   6.148   0.366  0.0750 -0.4374  0.2484
 7607TIP3    H147016  -0.035   6.196   0.418  0.9404  0.3913  0.5805
 7607TIP3    H247017   0.017   6.056   0.391 -0.2086 -0.1647  1.1498
 7608TIP3   OH247018   6.495   5.059   7.999  0.3535 -0.1568  0.4134
 7608TIP3    H147019   6.473   5.075   8.091  0.8339  0.2919  0.4564
 7608TIP3    H247020   6.413   5.071   7.952 -0.0929 -1.2871  0.8854
 7609TIP3   OH247021   2.957   5.584   9.100 -0.2152  0.3408  0.3922
 7609TIP3    H147022   3.051   5.584   9.118 -0.0302 -0.0305 -0.5092
 7609TIP3    H247023   2.951   5.591   9.004 -1.0823 -0.9917  0.3250
 7610TIP3   OH247024   4.886   2.150   8.001 -0.2715  0.5244  0.4597
 7610TIP3    H147025   4.961   2.158   7.942 -1.1674  1.3418 -0.5994
 7610TIP3    H247026   4.892   2.061   8.035  0.0585 -0.1098 -1.1720
 7611TIP3   OH247027   6.161   5.627   0.223  0.5909 -0.2292 -0.1370
 7611TIP3    H147028   6.190   5.590   0.139 -0.2679 -1.1572 -0.0516
 7611TIP3    H247029   6.145   5.550   0.278  0.9864  0.3658  0.8354
 7612TIP3   OH247030   1.112   2.862   8.889 -0.4296 -0.1934  1.0395
 7612TIP3    H147031   1.033   2.916   8.889 -1.1464 -1.0470 -1.9743
 7612TIP3    H247032   1.079   2.772   8.884  0.7399 -0.6367  1.0311
 7613TIP3   OH247033   2.172   5.967   8.578 -0.4243  0.2133 -0.0327
 7613TIP3    H147034   2.085   5.938   8.551 -1.1409  1.3824  0.9171
 7613TIP3    H247035   2.187   5.922   8.661 -0.8743  1.2879  0.6562
 7614TIP3   OH247036   1.378   3.113   1.577  0.3917 -0.5120 -0.3593
 7614TIP3    H147037   1.333   3.078   1.500 -1.2720  1.3070 -0.2994
 7614TIP3    H247038   1.470   3.097   1.561 -0.0784 -2.1261 -1.6915
 7615TIP3   OH247039   4.581   0.395   8.573 -0.1186  0.5388 -0.0038
 7615TIP3    H147040   4.500   0.350   8.546  0.9303 -0.1579 -2.3150
 7615TIP3    H247041   4.596   0.366   8.663 -1.0893 -1.4127 -0.4042
 7616TIP3   OH247042   4.190   0.418   8.044 -0.4120 -0.3207  0.5676
 7616TIP3    H147043   4.231   0.353   7.988 -0.9525 -0.3200  0.1596
 7616TIP3    H247044   4.257   0.485   8.058 -0.0038 -0.7373  0.6179
 7617TIP3   OH247045   4.024   3.116   0.895 -0.0300 -0.6941 -0.0681
 7617TIP3    H147046   4.107   3.119   0.942 -0.3193 -0.8781  0.4602
 7617TIP3    H247047   4.005   3.023   0.886  0.8889 -0.7514 -2.1235
 7618TIP3   OH247048   6.557   0.106   9.685 -0.6630 -0.2159 -0.2711
 7618TIP3    H147049   6.518   0.189   9.657  0.4577  1.1794  2.0404
 7618TIP3    H247050   6.648   0.111   9.656 -0.2560 -0.0262  0.9822
 7619TIP3   OH247051   2.362   2.563   8.188 -0.4768  0.3143  0.0562
 7619TIP3    H147052   2.292   2.601   8.241 -1.5094 -1.0464 -0.2715
 7619TIP3    H247053   2.442   2.581   8.237 -1.2854  0.0162  1.5549
 7620TIP3   OH247054   3.304   5.704   6.971  0.1031  0.5102 -0.4055
 7620TIP3    H147055   3.223   5.680   6.928 -0.2563  0.5043  0.2589
 7620TIP3    H247056   3.366   5.718   6.900 -0.0578 -0.9785 -0.8694
 7621TIP3   OH247057   5.075   6.370   2.740 -0.5516 -0.4901  0.4017
 7621TIP3    H147058   5.094   6.449   2.690  0.4066 -0.9621 -0.0269
 7621TIP3    H247059   4.998   6.391   2.792 -0.0145  0.8857  0.6701
 7622TIP3   OH247060   7.353   5.000   0.836 -0.2783  0.2184  0.1558
 7622TIP3    H147061   7.290   4.948   0.786 -0.4303  1.9781 -1.6268
 7622TIP3    H247062   7.409   5.040   0.769  0.7819  1.1438  1.5406
 7623TIP3   OH247063   3.149   4.209   9.213  0.5655  0.0195 -0.1285
 7623TIP3    H147064   3.066   4.214   9.261  0.4875 -0.3487 -0.2231
 7623TIP3    H247065   3.123   4.212   9.121  0.6380 -0.3640 -0.1633
 7624TIP3   OH247066   1.691   1.899   8.678 -0.6285  0.0090  0.5252
 7624TIP3    H147067   1.728   1.811   8.682 -0.0430  0.2369  0.2774
 7624TIP3    H247068   1.747   1.952   8.736  0.0489  0.5597 -0.5819
 7625TIP3   OH247069   6.792   6.864   8.549 -0.1328  0.1230 -0.7060
 7625TIP3    H147070   6.791   6.769   8.557 -0.4074  0.0375 -1.6350
 7625TIP3    H247071   6.701   6.891   8.561  0.3543  0.6104  2.8393
 7626TIP3   OH247072   2.763   5.142   7.198 -0.3732 -0.2202 -0.7254
 7626TIP3    H147073   2.815   5.095   7.264 -1.0532 -0.2135 -0.1809
 7626TIP3    H247074   2.714   5.074   7.153 -0.2446 -0.1762 -0.9360
 7627TIP3   OH247075   3.338   5.986   1.480  0.1826 -0.2765  0.2367
 7627TIP3    H147076   3.334   6.079   1.500  0.9845 -0.6135  2.1843
 7627TIP3    H247077   3.420   5.956   1.518 -0.9314 -2.1259  1.3453
 7628TIP3   OH247078   5.621   2.262   8.186 -0.5029  0.1471  0.3936
 7628TIP3    H147079   5.685   2.191   8.190 -0.5988  0.0696  0.5942
 7628TIP3    H247080   5.596   2.267   8.094 -0.1212  0.2561  0.2955
 7629TIP3   OH247081   5.802   1.470   0.431 -0.1799 -0.5284 -0.3417
 7629TIP3    H147082   5.840   1.413   0.498  0.6666  1.6613  1.1563
 7629TIP3    H247083   5.725   1.507   0.473  0.8390  1.5341 -0.1856
 7630TIP3   OH247084   3.857   7.046   2.383 -0.0010  0.5062 -0.1995
 7630TIP3    H147085   3.843   7.137   2.357 -2.2520  0.6949  1.3771
 7630TIP3    H247086   3.917   7.050   2.457  0.9414  0.5576 -0.9474
 7631TIP3   OH247087   4.410   7.156   7.451 -0.2000  0.3752 -0.4681
 7631TIP3    H147088   4.344   7.163   7.382 -0.2417 -1.9278 -0.7360
 7631TIP3    H247089   4.494   7.159   7.405 -0.1517  1.1173 -0.3499
 7632TIP3   OH247090   4.553   6.446   0.527  0.3079  0.0527 -0.1783
 7632TIP3    H147091   4.507   6.365   0.549 -3.0297  1.6127 -0.7869
 7632TIP3    H247092   4.634   6.418   0.486 -0.3886 -2.9345  0.3009
 7633TIP3   OH247093   4.869   2.956   9.111 -0.3419  0.1782  0.0377
 7633TIP3    H147094   4.848   2.914   9.028  0.2857 -2.4270  1.0823
 7633TIP3    H247095   4.910   2.887   9.162  0.3414  2.0137  2.1149
 7634TIP3   OH247096   3.755   5.343   7.979 -0.2113  0.0463 -0.3893
 7634TIP3    H147097   3.798   5.377   8.058  0.3946  0.1151 -0.7362
 7634TIP3    H247098   3.784   5.252   7.974 -1.2662 -0.3321  0.1540
 7635TIP3   OH247099   3.151   0.329   0.930  0.4677  0.2159  0.1284
 7635TIP3    H147100   3.213   0.365   0.866  0.5499 -1.5518 -0.8541
 7635TIP3    H247101   3.065   0.345   0.893  0.5065 -0.5673 -0.3373
 7636TIP3   OH247102   4.592   7.053   8.928 -0.1690 -0.2933  0.2808
 7636TIP3    H147103   4.576   7.147   8.928  0.1421 -0.2382  0.5665
 7636TIP3    H247104   4.682   7.043   8.899 -0.0617 -0.4747  0.6646
 7637TIP3   OH247105   1.867   0.339   2.191  0.0013 -0.5296 -0.0705
 7637TIP3    H147106   1.929   0.349   2.119 -1.1870  0.5382 -1.0061
 7637TIP3    H247107   1.784   0.370   2.155 -0.5687  0.3435  1.8630
 7638TIP3   OH247108   5.941   7.281   8.454 -0.5041  0.3885 -0.0292
 7638TIP3    H147109   5.985   7.197   8.465  0.5600  0.3073 -3.6002
 7638TIP3    H247110   5.997   7.344   8.498  0.7769 -0.3260 -0.5992
 7639TIP3   OH247111   2.375   0.831   9.885  0.3333  0.1430 -0.7092
 7639TIP3    H147112   2.334   0.828   9.972  0.4214 -0.9897 -0.7021
 7639TIP3    H247113   2.466   0.809   9.901  0.9117  2.2135 -0.7881
 7640TIP3   OH247114   3.818   5.057   9.368 -0.5702 -0.5511  0.7888
 7640TIP3    H147115   3.811   5.061   9.463  2.1068 -0.9617  1.0716
 7640TIP3    H247116   3.834   4.965   9.349  0.9533 -0.1735  0.1426
 7641TIP3   OH247117   4.666   1.693   1.299 -0.1840 -0.0401 -0.2029
 7641TIP3    H147118   4.659   1.650   1.213  1.1638 -0.0958 -0.3035
 7641TIP3    H247119   4.746   1.744   1.294 -0.4725  0.5359  0.7882
 7642TIP3   OH247120   2.625   1.971   0.904 -0.4927 -0.4932  0.0730
 7642TIP3    H147121   2.564   1.928   0.844  0.6863  1.4628 -2.7533
 7642TIP3    H247122   2.709   1.929   0.888 -0.2050 -0.0857  0.4804
 7643TIP3   OH247123   7.130   5.638   9.846  0.1844  0.9387 -0.5726
 7643TIP3    H147124   7.216   5.620   9.883 -0.3438  0.1544  0.3074
 7643TIP3    H247125   7.081   5.681   9.916 -0.9492 -0.8950 -0.1652
 7644TIP3   OH247126   0.412   7.194   8.417 -0.2056  0.2970  0.0033
 7644TIP3    H147127   0.481   7.236   8.364  1.5811 -1.8693  0.4433
 7644TIP3    H247128   0.397   7.110   8.374 -1.0205 -0.1728  1.1541
 7645TIP3   OH247129   3.672   6.848   2.355 -0.5512 -0.4854  0.2603
 7645TIP3    H147130   3.735   6.918   2.371 -0.3224 -0.0475 -2.1347
 7645TIP3    H247131   3.726   6.775   2.323 -1.0195 -1.0462  0.7178
 7646TIP3   OH247132   4.914   1.465   0.852  0.2341  0.2458 -0.9803
 7646TIP3    H147133   4.958   1.502   0.776  0.7616  0.3600 -0.6218
 7646TIP3    H247134   4.822   1.457   0.825  0.5014 -0.1731 -1.7964
 7647TIP3   OH247135   6.590   4.093   0.114 -0.5786 -0.4679  0.2477
 7647TIP3    H147136   6.570   4.003   0.141 -0.8443 -0.0570  1.4976
 7647TIP3    H247137   6.507   4.128   0.081 -0.3017 -0.9070 -0.9458
 7648TIP3   OH247138   5.893   0.586   1.441  0.2730 -0.0998  0.2626
 7648TIP3    H147139   5.983   0.582   1.408 -0.7605  0.9122 -3.0500
 7648TIP3    H247140   5.884   0.673   1.478  0.5534 -0.0518  0.2178
 7649TIP3   OH247141   4.513   6.962   8.629 -0.2609 -0.2719 -0.0594
 7649TIP3    H147142   4.474   6.919   8.705  1.0942  0.7925  1.2976
 7649TIP3    H247143   4.526   6.892   8.565  0.3024 -1.5585  1.4055
 7650TIP3   OH247144   2.489   1.570   1.296  0.0121  0.0924 -0.5346
 7650TIP3    H147145   2.561   1.592   1.236  1.4729  0.1717  1.1429
 7650TIP3    H247146   2.533   1.529   1.370 -1.7878 -0.4723  0.2552
 7651TIP3   OH247147   1.337   4.456   7.571 -0.7284  0.2749  0.0580
 7651TIP3    H147148   1.350   4.463   7.477  2.1024  1.6562  0.4259
 7651TIP3    H247149   1.327   4.362   7.588  1.5337 -0.3149 -1.3996
 7652TIP3   OH247150   4.847   7.014   7.428 -0.5740 -0.2389 -0.2087
 7652TIP3    H147151   4.856   7.091   7.484  1.1640 -0.9921  0.6021
 7652TIP3    H247152   4.878   6.942   7.481 -2.6146 -1.6241 -0.7843
 7653TIP3   OH247153   5.614   3.819   8.732  0.5154 -0.3016 -0.0461
 7653TIP3    H147154   5.674   3.865   8.791  0.4235  0.4927 -0.5619
 7653TIP3    H247155   5.536   3.803   8.785  1.0018 -0.9376  0.4930
 7654TIP3   OH247156   2.828   2.264   0.084  0.3178  0.1766  0.1686
 7654TIP3    H147157   2.835   2.359   0.085  0.9420  0.1421 -0.2319
 7654TIP3    H247158   2.908   2.234   0.041 -0.4292 -0.4729 -0.8290
 7655TIP3   OH247159   6.113   6.606   8.087  0.6175  0.5846  0.5300
 7655TIP3    H147160   6.133   6.677   8.150  1.7165  1.1958 -0.4718
 7655TIP3    H247161   6.174   6.536   8.111  1.0427  0.8210  0.1535
 7656TIP3   OH247162   0.639   0.716   1.821 -0.8664 -0.1174 -0.3150
 7656TIP3    H147163   0.692   0.671   1.887 -1.6281 -0.6695 -0.0588
 7656TIP3    H247164   0.701   0.769   1.772 -0.4555  1.4767  1.7951
 7657TIP3   OH247165   1.738   2.027   7.905 -0.1049 -0.2918 -0.3702
 7657TIP3    H147166   1.669   2.086   7.936  0.3701  0.0182  0.1112
 7657TIP3    H247167   1.790   2.080   7.845 -1.0234 -0.8912 -1.7401
 7658TIP3   OH247168   6.622   3.248   2.457  0.9406 -0.4527  0.0904
 7658TIP3    H147169   6.669   3.210   2.531  0.1217 -1.2550  0.2309
 7658TIP3    H247170   6.656   3.201   2.381  2.6916  1.2462 -0.2352
 7659TIP3   OH247171   4.328   0.635   7.532 -0.0962  0.4362  0.4209
 7659TIP3    H147172   4.304   0.552   7.491 -0.7989  0.4907  0.7140
 7659TIP3    H247173   4.341   0.695   7.458 -0.8732  0.4053  0.2522
 7660TIP3   OH247174   2.703   7.297   7.271 -0.5300  0.0459 -0.1250
 7660TIP3    H147175   2.643   7.361   7.309 -1.5051  0.0334 -1.5859
 7660TIP3    H247176   2.649   7.219   7.258  0.2155 -0.5040  0.0277
 7661TIP3   OH247177   6.386   4.371   2.270 -0.2532  0.5438  0.5883
 7661TIP3    H147178   6.442   4.322   2.331 -1.0780  0.3089  1.1696
 7661TIP3    H247179   6.445   4.434   2.229  0.5354 -0.0142  0.8497
 7662TIP3   OH247180   4.881   5.386   1.047 -0.6384  0.3862 -0.2027
 7662TIP3    H147181   4.877   5.472   1.006  0.4429  0.1393 -0.8571
 7662TIP3    H247182   4.799   5.380   1.097  0.4959  2.9844  2.2755
 7663TIP3   OH247183   2.007   2.250   7.847 -0.2490  0.1707  0.3983
 7663TIP3    H147184   2.016   2.156   7.837  1.8715  0.5219 -1.7918
 7663TIP3    H247185   2.010   2.265   7.941  3.1374 -1.6851  0.7239
 7664TIP3   OH247186   4.283   5.861   9.391 -0.7337 -0.0439 -0.4150
 7664TIP3    H147187   4.331   5.779   9.377  1.4668  1.2833 -1.2119
 7664TIP3    H247188   4.258   5.889   9.303 -1.1761  0.3079 -0.1806
 7665TIP3   OH247189   1.348   7.379   6.935  0.0193  0.4932  0.3572
 7665TIP3    H147190   1.353   7.390   6.840  0.6753 -0.2078  0.3028
 7665TIP3    H247191   1.429   7.334   6.959 -0.0424  0.8375  1.2818
 7666TIP3   OH247192   4.452   5.781   0.869  0.1637  0.7101  0.0602
 7666TIP3    H147193   4.363   5.814   0.879 -0.5497 -1.2353  0.7716
 7666TIP3    H247194   4.494   5.799   0.953  0.7410  2.3369 -0.5416
 7667TIP3   OH247195   6.072   5.434   8.925  0.0163 -0.5331 -0.2282
 7667TIP3    H147196   6.033   5.401   9.006 -0.0150  0.4631  0.1783
 7667TIP3    H247197   5.998   5.440   8.864 -0.2081 -0.0603  0.0816
 7668TIP3   OH247198   1.988   5.073   6.947  0.4205 -0.0910 -0.2227
 7668TIP3    H147199   2.081   5.092   6.935  0.6964 -0.6274  0.9111
 7668TIP3    H247200   1.983   4.977   6.950 -0.1061 -0.0588  0.1018
 7669TIP3   OH247201   0.374   3.780   8.046 -0.1363 -0.1472  0.5012
 7669TIP3    H147202   0.293   3.775   7.996 -0.3176 -2.0381  0.9237
 7669TIP3    H247203   0.386   3.874   8.064 -1.2055  0.3397 -1.1789
 7670TIP3   OH247204   3.852   3.102   8.137 -0.3695 -0.1271 -0.0131
 7670TIP3    H147205   3.837   3.043   8.212 -1.0099  0.7293  0.5480
 7670TIP3    H247206   3.797   3.178   8.155 -1.7029 -0.5221 -2.1107
 7671TIP3   OH247207   4.880   4.859   1.598  0.1023 -0.4244  0.5574
 7671TIP3    H147208   4.911   4.949   1.601  0.8137 -0.6729  0.9001
 7671TIP3    H247209   4.881   4.836   1.505  1.9927 -0.7602  0.6110
 7672TIP3   OH247210   5.593   5.871   0.977  0.0360  0.5061 -1.0231
 7672TIP3    H147211   5.663   5.936   0.971  0.2946  0.1997 -1.3321
 7672TIP3    H247212   5.513   5.921   0.962  0.0497  1.1176  0.6603
 7673TIP3   OH247213   4.091   4.022   1.140 -0.0303 -0.7979  0.0791
 7673TIP3    H147214   4.167   4.012   1.197  0.5502  0.9114 -0.3480
 7673TIP3    H247215   4.089   3.941   1.089  1.5900 -0.8219  0.0052
 7674TIP3   OH247216   5.160   0.474   0.429 -0.0044 -0.2444 -0.6241
 7674TIP3    H147217   5.116   0.435   0.354 -1.7773  2.0302 -0.8643
 7674TIP3    H247218   5.105   0.451   0.504  1.6947 -2.4099  0.0922
 7675TIP3   OH247219   0.573   0.251   9.569 -0.2485 -0.4364 -0.0957
 7675TIP3    H147220   0.648   0.308   9.587 -0.4947 -0.5584  1.4628
 7675TIP3    H247221   0.531   0.290   9.493 -1.1903  2.3373  1.6965
 7676TIP3   OH247222   2.111   2.497   7.390 -0.2605  0.1226 -0.4034
 7676TIP3    H147223   2.038   2.553   7.417  0.0382  0.4198 -0.2012
 7676TIP3    H247224   2.074   2.439   7.324 -0.7873 -0.0245  0.0197
 7677TIP3   OH247225   0.031   0.030   0.897 -0.6344 -0.1034 -0.8143
 7677TIP3    H147226  -0.053  -0.011   0.918 -0.7418  0.6541  0.3123
 7677TIP3    H247227   0.021   0.121   0.924  0.4886  0.0418 -0.8366
 7678TIP3   OH247228   2.780   1.764   2.195 -0.1183 -1.0317 -0.2268
 7678TIP3    H147229   2.816   1.687   2.238 -0.6502 -0.6368  0.9914
 7678TIP3    H247230   2.686   1.745   2.187 -0.3468 -0.3060  0.5889
 7679TIP3   OH247231   5.826   2.032   0.160 -0.7291 -0.3718 -0.1570
 7679TIP3    H147232   5.911   2.053   0.198  0.2274 -1.0260 -1.8278
 7679TIP3    H247233   5.767   2.099   0.195  0.5151  0.2858  0.7812
 7680TIP3   OH247234   7.026   5.459   1.981 -0.1785  0.5881 -0.0510
 7680TIP3    H147235   7.088   5.389   2.004 -2.1771 -1.9911 -1.8773
 7680TIP3    H247236   7.079   5.522   1.932  1.0510 -1.6921 -1.8781
 7681TIP3   OH247237   3.735   6.705   7.574 -0.1293 -0.4035 -0.2508
 7681TIP3    H147238   3.745   6.767   7.501 -3.2757  2.3038  1.3027
 7681TIP3    H247239   3.678   6.637   7.540 -2.6538  1.5169 -0.1659
 7682TIP3   OH247240   2.037   0.017   8.344 -0.2056  0.0364 -0.8912
 7682TIP3    H147241   1.965   0.067   8.383  0.3630  0.2647 -0.1128
 7682TIP3    H247242   2.013   0.009   8.252 -0.0712  2.1827 -1.1633
 7683TIP3   OH247243   0.290   6.108   7.772  0.2276 -0.4793 -0.3452
 7683TIP3    H147244   0.348   6.115   7.696  0.3920  0.8092 -0.1324
 7683TIP3    H247245   0.342   6.145   7.844 -1.1023  1.4859 -0.3138
 7684TIP3   OH247246   3.942   3.861   9.165  0.4176  0.1151  0.4309
 7684TIP3    H147247   3.896   3.936   9.203  0.0893 -0.0626  0.3973
 7684TIP3    H247248   3.926   3.867   9.071  1.5157  0.7419  0.2742
 7685TIP3   OH247249   6.008   5.954   9.673 -0.0772 -0.2552  0.2723
 7685TIP3    H147250   6.085   5.901   9.693 -0.1372 -0.4687 -0.0685
 7685TIP3    H247251   6.041   6.043   9.667  0.2802 -0.4497 -0.6755
 7686TIP3   OH247252   2.793   1.419   9.009 -0.4097 -0.3730 -0.2914
 7686TIP3    H147253   2.766   1.338   8.966  1.1279 -0.6228 -0.8658
 7686TIP3    H247254   2.749   1.488   8.960 -1.2240 -0.8233 -0.2052
 7687TIP3   OH247255   0.024   1.817   9.558 -0.1196  0.3906  0.4563
 7687TIP3    H147256   0.017   1.722   9.547 -0.0540  0.3817  0.4892
 7687TIP3    H247257  -0.040   1.838   9.625 -0.9398  0.5260 -0.3488
 7688TIP3   OH247258   3.827   4.870   1.897  0.3414  0.1341 -0.2807
 7688TIP3    H147259   3.773   4.818   1.956  2.1715 -0.7619  0.6986
 7688TIP3    H247260   3.781   4.954   1.889 -0.8730 -0.3807  0.9449
 7689TIP3   OH247261   3.727   4.152   1.332 -0.1314 -0.2819  0.6635
 7689TIP3    H147262   3.641   4.143   1.293  0.6234 -0.8953 -0.9317
 7689TIP3    H247263   3.773   4.215   1.277  1.3119 -1.9791 -0.2029
 7690TIP3   OH247264   6.750   1.892   1.220 -0.1153 -0.6391  0.1198
 7690TIP3    H147265   6.803   1.861   1.146 -0.1187 -1.8713  0.6011
 7690TIP3    H247266   6.813   1.900   1.292  0.1099  1.7050 -0.2791
 7691TIP3   OH247267   6.139   5.282   1.606  0.3171  0.1624  0.3148
 7691TIP3    H147268   6.157   5.370   1.638  2.3902  0.2632 -0.9359
 7691TIP3    H247269   6.185   5.224   1.667  2.1144  0.2166 -0.9042
 7692TIP3   OH247270   1.149   5.207   0.051  0.2286 -0.1763  0.1512
 7692TIP3    H147271   1.116   5.216  -0.038  1.6636  0.5427 -0.3436
 7692TIP3    H247272   1.198   5.124   0.050 -1.6453 -1.3762  0.9515
 7693TIP3   OH247273   7.072   5.796   0.986 -0.5925  0.0499 -0.6559
 7693TIP3    H147274   7.088   5.732   0.917  0.2882  1.6660 -2.0161
 7693TIP3    H247275   7.008   5.857   0.949 -0.9812  0.3068  0.3851
 7694TIP3   OH247276   5.468   1.360   0.767 -0.3651 -0.0692 -0.7242
 7694TIP3    H147277   5.464   1.378   0.673 -0.3102 -0.4293 -0.7980
 7694TIP3    H247278   5.530   1.287   0.775  0.9262  1.0424 -0.2481
 7695TIP3   OH247279   3.356   7.155   7.484 -0.0795  0.0745  0.3682
 7695TIP3    H147280   3.357   7.226   7.548 -2.0136  0.7299 -0.2902
 7695TIP3    H247281   3.430   7.099   7.510  0.5591  1.5088  1.7900
 7696TIP3   OH247282   6.834   6.426   8.428  0.5230  0.3604 -0.4660
 7696TIP3    H147283   6.757   6.482   8.422 -0.6873 -1.0564  0.9040
 7696TIP3    H247284   6.908   6.487   8.428 -0.7712  2.2230  3.1758
 7697TIP3   OH247285   2.543   4.317   7.908 -0.0913  0.0307 -0.5618
 7697TIP3    H147286   2.615   4.336   7.848  0.8016 -0.3368  0.3389
 7697TIP3    H247287   2.527   4.399   7.954 -1.1918  0.4760 -1.6999
 7698TIP3   OH247288   4.328   3.957   0.915 -0.0587 -0.0268  0.6456
 7698TIP3    H147289   4.396   3.906   0.959  2.4793  0.3866 -2.4808
 7698TIP3    H247290   4.249   3.942   0.968  1.8140 -2.6437  2.9793
 7699TIP3   OH247291   1.986   5.668   9.414  0.1034 -0.4805  0.3214
 7699TIP3    H147292   1.957   5.717   9.490  1.4930  0.1269  0.4985
 7699TIP3    H247293   2.082   5.667   9.421  0.2406 -0.8256 -1.1511
 7700TIP3   OH247294   1.551   6.699   8.866  0.2537  0.3478  0.2568
 7700TIP3    H147295   1.534   6.633   8.799  3.3683  0.4209 -0.7576
 7700TIP3    H247296   1.464   6.726   8.896 -1.1955 -3.7253  0.3229
 7701TIP3   OH247297   3.362   3.756   8.355 -0.4328  0.1134  0.1537
 7701TIP3    H147298   3.369   3.794   8.442 -0.3763  0.1562  0.1303
 7701TIP3    H247299   3.278   3.788   8.322 -0.5064  0.0046  0.2367
 7702TIP3   OH247300   1.314   0.147   8.405 -0.1048 -0.0165 -0.3866
 7702TIP3    H147301   1.315   0.242   8.411 -1.3282 -0.0331  0.6561
 7702TIP3    H247302   1.225   0.123   8.433  0.5906 -1.5225  0.6667
 7703TIP3   OH247303   1.630   3.848   7.360  0.2123  0.1325  0.4284
 7703TIP3    H147304   1.622   3.815   7.271  0.4977 -0.8792  0.7646
 7703TIP3    H247305   1.540   3.868   7.387  0.2851  2.5191 -0.8075
 7704TIP3   OH247306   6.897   0.723   9.435  0.2901 -0.0118 -0.0233
 7704TIP3    H147307   6.948   0.734   9.355 -1.7432 -0.1054 -1.3973
 7704TIP3    H247308   6.807   0.712   9.405 -0.7496  1.3122  2.3469
 7705TIP3   OH247309   4.163   0.513   2.012  0.0559  0.4819 -0.2813
 7705TIP3    H147310   4.090   0.470   1.968  0.3698 -0.0660 -0.2681
 7705TIP3    H247311   4.241   0.478   1.970  0.3517  0.1891  0.4977
 7706TIP3   OH247312   2.515   2.419   7.797 -0.7323 -0.6855  0.2177
 7706TIP3    H147313   2.545   2.431   7.707  0.0142  0.6368  0.6099
 7706TIP3    H247314   2.464   2.338   7.795 -0.0470 -1.1158 -1.2163
 7707TIP3   OH247315   0.543   5.689   6.828 -0.2677 -0.8403 -0.2571
 7707TIP3    H147316   0.490   5.725   6.898  0.9744 -0.5237  0.5558
 7707TIP3    H247317   0.626   5.666   6.870  1.2169  1.0866 -1.9348
 7708TIP3   OH247318   5.640   2.253   1.819 -0.0878 -0.3095  0.1829
 7708TIP3    H147319   5.667   2.321   1.758  0.1276  0.1102  0.7434
 7708TIP3    H247320   5.706   2.254   1.888 -1.5479  0.8337  1.6439
 7709TIP3   OH247321   0.154   7.095   0.614  0.0363  0.0582 -0.1439
 7709TIP3    H147322   0.131   7.187   0.609  1.4604  0.4490  0.1986
 7709TIP3    H247323   0.096   7.059   0.682 -0.7797  0.6019 -0.5430
 7710TIP3   OH247324   0.858   4.784   1.166 -0.2141 -0.8985 -0.2403
 7710TIP3    H147325   0.865   4.874   1.197 -0.6335 -1.5391  1.8064
 7710TIP3    H247326   0.949   4.759   1.146 -0.1694  0.1632 -1.4927
 7711TIP3   OH247327   2.359   3.897   6.844 -0.1855  0.1680  0.3621
 7711TIP3    H147328   2.321   3.953   6.776 -1.0531 -1.8033 -0.8700
 7711TIP3    H247329   2.358   3.809   6.806  2.2988 -0.5394  1.7155
 7712TIP3   OH247330   3.543   1.030   1.284 -0.0344 -0.3664  0.0749
 7712TIP3    H147331   3.568   1.101   1.224  1.0692 -0.4600  0.3914
 7712TIP3    H247332   3.627   0.997   1.317 -0.5151 -2.0704 -0.3400
 7713TIP3   OH247333   3.993   2.740   6.616  0.6978  0.1256  0.2298
 7713TIP3    H147334   3.934   2.677   6.657 -0.1557 -0.3493 -1.6134
 7713TIP3    H247335   4.079   2.699   6.618  0.0865 -1.3935 -1.3440
 7714TIP3   OH247336   5.091   2.052   1.358  0.3218  0.6700  0.6482
 7714TIP3    H147337   5.182   2.031   1.335 -0.3471 -0.9592 -0.7407
 7714TIP3    H247338   5.071   2.131   1.308  0.2737 -0.3204 -0.9521
 7715TIP3   OH247339   2.725   4.965   9.815  0.4204 -0.1762  0.3094
 7715TIP3    H147340   2.701   4.930   9.729  0.5337  3.2565 -1.2782
 7715TIP3    H247341   2.643   5.000   9.849  0.7986  0.4546  0.5738
 7716TIP3   OH247342   5.103   0.836   9.309  0.2483 -0.2941  0.3138
 7716TIP3    H147343   5.060   0.894   9.372  0.2555  0.2874 -0.2027
 7716TIP3    H247344   5.161   0.781   9.362 -1.0281 -1.0161  1.0148
 7717TIP3   OH247345   6.201   1.203   9.530 -0.2343 -0.1094 -0.2740
 7717TIP3    H147346   6.129   1.264   9.544 -1.1910 -1.7327  2.6197
 7717TIP3    H247347   6.267   1.227   9.596  0.8319 -0.1784 -1.2727
 7718TIP3   OH247348   2.690   0.920   7.743 -0.5822 -0.3992  0.2086
 7718TIP3    H147349   2.715   1.012   7.737  1.3480 -0.8953  0.0348
 7718TIP3    H247350   2.703   0.887   7.654 -1.6636 -0.7712  0.1723
 7719TIP3   OH247351   2.844   0.572   8.332  0.1589 -0.0852 -0.2805
 7719TIP3    H147352   2.836   0.659   8.294 -0.5214 -0.1958 -0.3974
 7719TIP3    H247353   2.901   0.524   8.272 -0.8105 -0.2247 -1.1140
 7720TIP3   OH247354   5.368   1.485   9.959  0.2415  0.4295  0.0702
 7720TIP3    H147355   5.330   1.545   9.895 -0.5417  0.8712  0.9188
 7720TIP3    H247356   5.441   1.533   9.996 -0.0261  0.6343  0.3345
 7721TIP3   OH247357   3.115   6.364   6.905 -0.1716  0.2817  0.0441
 7721TIP3    H147358   3.075   6.443   6.941 -2.4270 -0.7544 -0.0050
 7721TIP3    H247359   3.116   6.379   6.810 -0.8741  0.1569  0.0100
 7722TIP3   OH247360   5.803   3.717   8.573 -0.6662 -0.2327  0.0736
 7722TIP3    H147361   5.858   3.794   8.557 -1.3649 -0.2269 -2.9159
 7722TIP3    H247362   5.738   3.747   8.637 -0.3358  1.3700 -0.2980
 7723TIP3   OH247363   3.838   0.064   2.292  0.8566  0.9120  0.0103
 7723TIP3    H147364   3.892   0.072   2.213 -0.6102  2.5714 -0.9085
 7723TIP3    H247365   3.847   0.149   2.335  0.4884  0.5224  0.8720
 7724TIP3   OH247366   7.479   3.633   8.694 -0.1979  0.7500  0.0400
 7724TIP3    H147367   7.571   3.630   8.668 -0.3318  0.3987 -0.4008
 7724TIP3    H247368   7.432   3.600   8.618 -0.5488 -1.0438  0.9773
 7725TIP3   OH247369   1.134   0.911   0.458 -0.0421  0.0841 -0.3050
 7725TIP3    H147370   1.085   0.885   0.381  0.5161 -0.9223 -0.3336
 7725TIP3    H247371   1.118   1.005   0.466 -1.7587 -0.1660 -0.4563
 7726TIP3   OH247372   3.190   1.909   7.326 -0.9333 -0.2262  0.4820
 7726TIP3    H147373   3.119   1.960   7.364 -1.9991 -2.3079  1.4271
 7726TIP3    H247374   3.250   1.893   7.399 -0.5613 -0.2568  0.1748
 7727TIP3   OH247375   4.541   5.806   7.930  0.0992  0.1687 -0.3643
 7727TIP3    H147376   4.636   5.808   7.924  0.3626 -0.3861  2.2898
 7727TIP3    H247377   4.519   5.712   7.933 -0.2486  0.2774  1.5661
 7728TIP3   OH247378   7.011   4.845   8.245  0.2330  0.0202 -0.6861
 7728TIP3    H147379   7.038   4.889   8.325 -0.4343  1.4503 -1.1987
 7728TIP3    H247380   7.070   4.880   8.178 -0.5803  0.4664 -1.1803
 7729TIP3   OH247381   1.033   6.824   8.045  0.1803 -0.3573 -0.4076
 7729TIP3    H147382   1.095   6.897   8.044  2.2138 -1.9546 -2.7387
 7729TIP3    H247383   1.087   6.748   8.067 -1.7250 -1.3540  1.1631
 7730TIP3   OH247384   3.658   6.438   9.654  0.0895 -0.3888 -0.0100
 7730TIP3    H147385   3.576   6.409   9.693  0.5869 -1.2784  0.4118
 7730TIP3    H247386   3.701   6.357   9.624  0.7484  0.0685 -0.3334
 7731TIP3   OH247387   1.795   6.499   9.134  0.3541 -0.1324 -0.5130
 7731TIP3    H147388   1.707   6.539   9.131  0.6856  0.9251  1.6393
 7731TIP3    H247389   1.778   6.407   9.152 -0.3376  0.1444  0.3525
 7732TIP3   OH247390   3.844   1.571   2.914 -0.3654 -0.2313  0.4374
 7732TIP3    H147391   3.814   1.521   2.839 -1.2403  0.1079  0.5501
 7732TIP3    H247392   3.780   1.552   2.983 -1.4764  1.9957  0.1134
 7733TIP3   OH247393   3.403   4.492   0.394 -0.2463  0.5986 -0.0500
 7733TIP3    H147394   3.443   4.437   0.327 -1.8716  1.4792 -1.8276
 7733TIP3    H247395   3.469   4.558   0.414  1.1081 -0.9880  0.9357
 7734TIP3   OH247396   4.408   7.362   1.896  0.2703  0.1849  0.0009
 7734TIP3    H147397   4.397   7.281   1.846 -3.5301  1.0344 -0.8358
 7734TIP3    H247398   4.424   7.333   1.986  3.7002 -1.3606 -0.9461
 7735TIP3   OH247399   2.410   7.028   8.713  0.6024 -0.0126  0.1338
 7735TIP3    H147400   2.329   7.020   8.763 -0.0697 -1.7843 -1.1193
 7735TIP3    H247401   2.431   7.121   8.716 -0.1713  0.1453  2.4445
 7736TIP3   OH247402   3.100   7.304   1.513  0.1416 -0.0509  0.5650
 7736TIP3    H147403   3.055   7.388   1.524  0.2605 -0.0737  1.2749
 7736TIP3    H247404   3.033   7.238   1.531  0.6547 -0.0784  2.5492
 7737TIP3   OH247405   6.684   4.978   0.626 -0.0378  0.7218  0.1826
 7737TIP3    H147406   6.646   4.896   0.593  1.4541 -0.7543  1.9540
 7737TIP3    H247407   6.679   5.038   0.551 -2.6569 -0.4112 -0.6906
 7738TIP3   OH247408   0.822   4.560   7.642  0.3333  0.0259  0.6494
 7738TIP3    H147409   0.912   4.579   7.671  0.9171 -1.8618  0.2208
 7738TIP3    H247410   0.827   4.472   7.605 -1.4465  0.3962 -0.5828
 7739TIP3   OH247411   1.846   6.099   7.152  0.5300  0.6442  0.1366
 7739TIP3    H147412   1.872   6.158   7.081 -0.1049  0.1907 -0.4798
 7739TIP3    H247413   1.772   6.049   7.116 -0.3595  1.0098  1.4177
 7740TIP3   OH247414   7.333   4.286   9.124 -0.4187  0.0964  0.4659
 7740TIP3    H147415   7.373   4.373   9.114 -1.2581  0.3545 -0.9599
 7740TIP3    H247416   7.387   4.229   9.070 -0.1381 -0.1895  1.0414
 7741TIP3   OH247417   2.934   6.958   1.341  0.5144 -0.1043  0.1814
 7741TIP3    H147418   2.977   6.874   1.351 -0.5030 -0.8997 -1.6237
 7741TIP3    H247419   2.973   6.997   1.262 -1.9500 -0.8990 -1.5773
 7742TIP3   OH247420   2.799   4.436   8.088  0.6830  0.7654 -0.0330
 7742TIP3    H147421   2.862   4.463   8.155 -0.3690  0.3194  1.1757
 7742TIP3    H247422   2.720   4.487   8.107  0.2038  0.2558 -0.6143
 7743TIP3   OH247423   6.941   5.535   9.673 -0.6224  0.0227  0.3531
 7743TIP3    H147424   6.988   5.581   9.743  0.5896 -1.4081  0.5274
 7743TIP3    H247425   7.010   5.505   9.613 -1.5625  0.3685 -0.9420
 7744TIP3   OH247426   1.001   1.187   0.406 -0.0666  0.1900  0.4742
 7744TIP3    H147427   0.959   1.266   0.370 -1.5735 -0.8647 -0.2120
 7744TIP3    H247428   1.052   1.219   0.480 -0.2012  1.8849 -0.1136
 7745TIP3   OH247429   2.979   6.466   1.480 -0.0861  0.4516  0.1610
 7745TIP3    H147430   3.061   6.419   1.466  0.0523  1.0295 -1.0660
 7745TIP3    H247431   2.912   6.397   1.481  0.5065 -0.2077  2.7082
 7746TIP3   OH247432   2.373   6.022   6.934  0.4623  0.3530  0.2410
 7746TIP3    H147433   2.295   6.076   6.922 -0.3410 -0.7459  0.3373
 7746TIP3    H247434   2.405   6.008   6.845 -2.9422 -4.0882 -0.6556
 7747TIP3   OH247435   4.270   5.654   9.711 -0.2100 -0.1834 -0.6104
 7747TIP3    H147436   4.355   5.698   9.720  0.7607 -2.2199  1.6011
 7747TIP3    H247437   4.260   5.640   9.617  1.9294  0.1377 -0.9469
 7748TIP3   OH247438   7.211   2.808   8.537  0.3522  0.2845  0.1192
 7748TIP3    H147439   7.175   2.728   8.500 -0.1142  0.5093  0.0748
 7748TIP3    H247440   7.289   2.825   8.486 -0.3947  0.7008 -0.9204
 7749TIP3   OH247441   4.194   6.089   8.394 -0.3247 -0.1149  0.1307
 7749TIP3    H147442   4.147   6.050   8.467 -3.1273  2.7288  0.0400
 7749TIP3    H247443   4.150   6.054   8.316  0.3430 -0.4360 -0.1114
 7750TIP3   OH247444   0.924   3.220   9.576 -0.0233  0.1996 -0.2256
 7750TIP3    H147445   0.979   3.148   9.546 -0.7021 -0.0031 -1.0214
 7750TIP3    H247446   0.885   3.188   9.657  0.9139  0.2970  0.2776
 7751TIP3   OH247447   3.652   2.540   8.047 -0.2943  0.1689  0.0442
 7751TIP3    H147448   3.640   2.626   8.088 -0.0597  0.9955 -1.5361
 7751TIP3    H247449   3.688   2.560   7.960  1.2982 -1.6160  0.2371
 7752TIP3   OH247450   1.200   3.338   1.613 -0.3680  0.2579  0.2204
 7752TIP3    H147451   1.253   3.405   1.568  0.7566  0.7060  2.0798
 7752TIP3    H247452   1.254   3.259   1.610 -1.9333 -0.8278 -2.4665
 7753TIP3   OH247453   1.579   2.218   9.677 -0.3398  0.4623 -0.4348
 7753TIP3    H147454   1.542   2.133   9.699 -1.7895  1.3729  0.8368
 7753TIP3    H247455   1.645   2.199   9.611  0.2138 -1.7848  0.6692
 7754TIP3   OH247456   5.229   3.594   8.491  0.1056 -0.4113 -0.1307
 7754TIP3    H147457   5.277   3.640   8.559 -0.2195  0.5558 -0.5277
 7754TIP3    H247458   5.293   3.578   8.422 -0.0191  0.4787 -0.4702
 7755TIP3   OH247459   1.436   0.100   2.983  0.0192 -0.2572  0.6335
 7755TIP3    H147460   1.460   0.168   2.920 -1.2938  0.0937  0.4973
 7755TIP3    H247461   1.400   0.148   3.058  1.9605 -0.6361  1.8883
 7756TIP3   OH247462   4.966   1.348   2.407  0.0598  0.3762  0.6443
 7756TIP3    H147463   5.047   1.365   2.359 -1.0878  1.2502 -1.0632
 7756TIP3    H247464   4.992   1.287   2.476  1.9950 -0.0557 -0.3887
 7757TIP3   OH247465   5.925   0.110   7.619 -0.5552  0.3099 -0.0762
 7757TIP3    H147466   5.860   0.040   7.621 -0.7011  0.4591  0.8165
 7757TIP3    H247467   5.938   0.128   7.526  1.4513 -2.7211 -0.5152
 7758TIP3   OH247468   0.642   6.566   8.621  0.7080 -0.1648 -0.0658
 7758TIP3    H147469   0.730   6.604   8.616  0.7486 -0.2197  0.1821
 7758TIP3    H247470   0.593   6.628   8.676  0.5107  0.0159 -0.4412
 7759TIP3   OH247471   0.992   3.598   0.346  0.0547 -0.3994  0.2788
 7759TIP3    H147472   1.045   3.667   0.306  1.0937 -2.0084 -1.2181
 7759TIP3    H247473   0.920   3.584   0.284  1.6342 -2.8572 -1.1629
 7760TIP3   OH247474   4.237   4.848   0.237 -0.0883  0.3394  0.0535
 7760TIP3    H147475   4.180   4.777   0.267  0.3397  0.2296  0.6333
 7760TIP3    H247476   4.297   4.864   0.311  0.6423  0.4365 -0.5428
 7761TIP3   OH247477   6.453   2.845   0.862 -0.0626 -0.3275 -0.0904
 7761TIP3    H147478   6.470   2.878   0.774  0.5740 -0.0252  0.1474
 7761TIP3    H247479   6.508   2.767   0.869 -0.1412 -0.3725  0.0280
 7762TIP3   OH247480   2.402   1.978   7.661 -0.0265  0.3623  0.3052
 7762TIP3    H147481   2.451   1.948   7.738  0.4133  1.9318  0.6798
 7762TIP3    H247482   2.470   2.007   7.600 -0.3479 -1.3118 -0.9145
 7763TIP3   OH247483   7.044   5.557   8.908 -0.2930  0.4292 -0.6351
 7763TIP3    H147484   6.967   5.591   8.863 -0.3656 -0.6988 -1.4028
 7763TIP3    H247485   7.017   5.472   8.943  0.6808 -0.1399 -1.2079
 7764TIP3   OH247486   1.294   7.329   7.973 -0.6812  0.3989 -0.0742
 7764TIP3    H147487   1.286   7.405   8.030  0.7178  1.5721 -1.3567
 7764TIP3    H247488   1.269   7.362   7.886  2.7863  0.2831 -1.2563
 7765TIP3   OH247489   2.961   1.475   2.067  0.6217 -0.4227  0.1988
 7765TIP3    H147490   2.986   1.548   2.010  0.2275 -0.8633 -0.5615
 7765TIP3    H247491   2.945   1.516   2.153  0.2369  0.4128 -0.2517
 7766TIP3   OH247492   2.687   5.638   7.875  0.1381 -0.3776  0.4601
 7766TIP3    H147493   2.683   5.545   7.852  1.4783 -0.6562  1.2527
 7766TIP3    H247494   2.599   5.671   7.857 -0.8618 -2.1737  1.7435
 7767TIP3   OH247495   0.454   0.271   1.683  0.2303 -0.6920  0.7336
 7767TIP3    H147496   0.398   0.298   1.610  1.6291  1.5064  0.3800
 7767TIP3    H247497   0.465   0.177   1.672 -0.1201 -0.5184 -1.5010
 7768TIP3   OH247498   4.342   6.444   0.330 -0.0843 -0.2473  0.7877
 7768TIP3    H147499   4.418   6.488   0.367  1.7794 -2.4827 -0.1809
 7768TIP3    H247500   4.364   6.431   0.238 -0.6815 -2.8506  0.9555
 7769TIP3   OH247501   7.018   0.280   1.817  0.0599 -0.0713 -0.6932
 7769TIP3    H147502   6.952   0.277   1.886  1.9116 -0.3701  1.1527
 7769TIP3    H247503   7.009   0.367   1.778  0.6787  1.1690  1.7488
 7770TIP3   OH247504   3.120   7.107   9.145  0.1029  0.3906 -0.2252
 7770TIP3    H147505   3.115   7.029   9.089  0.2315 -0.8349  1.3749
 7770TIP3    H247506   3.078   7.079   9.227  1.1191  1.6683  0.7663
 7771TIP3   OH247507   4.331   6.608   9.800 -0.0097 -0.2574 -0.0974
 7771TIP3    H147508   4.316   6.699   9.827  1.2124  0.3573 -1.3091
 7771TIP3    H247509   4.287   6.555   9.866  0.5212  1.1834  1.4811
 7772TIP3   OH247510   5.558   6.663   7.999 -0.3887  0.5166 -0.3611
 7772TIP3    H147511   5.613   6.638   8.073  1.5021  5.1572  0.1635
 7772TIP3    H247512   5.616   6.661   7.923 -0.8371  0.9169 -0.7257
 7773TIP3   OH247513   5.408   0.010   0.635  0.1088 -0.2328 -0.0986
 7773TIP3    H147514   5.441   0.099   0.650  2.4594 -1.1871  0.9190
 7773TIP3    H247515   5.341   0.020   0.567  2.2338  1.9813 -2.0680
 7774TIP3   OH247516   0.829   5.582   8.897  0.3995 -0.1830 -0.5112
 7774TIP3    H147517   0.838   5.656   8.957 -0.8644  0.8250 -1.5107
 7774TIP3    H247518   0.735   5.570   8.887  0.5881 -1.2097 -1.2361
 7775TIP3   OH247519   2.174   6.254   7.646  0.0895  0.4582  0.1980
 7775TIP3    H147520   2.238   6.243   7.717 -0.8344 -2.3017  0.7359
 7775TIP3    H247521   2.208   6.200   7.575  0.0546  1.7283 -0.8264
 7776TIP3   OH247522   4.612   1.983   2.434  0.0128 -0.1426 -0.1610
 7776TIP3    H147523   4.616   2.060   2.490 -0.9079 -0.6231  0.5864
 7776TIP3    H247524   4.623   1.909   2.493 -0.5041 -0.6393 -0.6750
 7777TIP3   OH247525   3.496   0.033   9.642 -0.4358  0.0649 -0.2213
 7777TIP3    H147526   3.439   0.076   9.579 -0.7221  1.2427  0.7961
 7777TIP3    H247527   3.497  -0.059   9.614 -1.6830  0.2835 -1.0989
 7778TIP3   OH247528   6.227   4.721   1.089 -0.2820 -0.1908 -0.0914
 7778TIP3    H147529   6.273   4.646   1.050 -0.6162 -0.3516 -0.1757
 7778TIP3    H247530   6.135   4.703   1.075 -0.4369 -0.5393  1.2907
 7779TIP3   OH247531   2.368   1.538   9.934  0.5161  0.2324  0.3355
 7779TIP3    H147532   2.418   1.609   9.894  1.3833 -1.2640 -1.3585
 7779TIP3    H247533   2.387   1.546  10.028 -0.2749  2.8416  0.3546
 7780TIP3   OH247534   5.730   6.864   7.018 -0.9037 -0.8236 -0.2270
 7780TIP3    H147535   5.638   6.871   7.041 -0.9903 -0.1877 -0.7330
 7780TIP3    H247536   5.735   6.896   6.928 -0.3309 -1.7087 -0.5300
 7781TIP3   OH247537   0.308   2.687   1.808  0.1789  0.0796 -0.3774
 7781TIP3    H147538   0.232   2.697   1.751 -0.0081 -2.1152 -0.5654
 7781TIP3    H247539   0.331   2.595   1.802  2.3604  0.5269  0.3407
 7782TIP3   OH247540   1.287   0.200   7.725 -0.1746 -0.3655 -0.2515
 7782TIP3    H147541   1.219   0.136   7.748 -0.8117  0.1926 -0.5393
 7782TIP3    H247542   1.337   0.159   7.656 -0.9423 -0.3340 -0.8414
 7783TIP3   OH247543   3.552   0.011   0.937  0.1108  0.4568  0.0443
 7783TIP3    H147544   3.551  -0.062   0.999 -1.1096  1.1076  0.8309
 7783TIP3    H247545   3.643   0.017   0.908  0.6124 -0.1543  1.4123
 7784TIP3   OH247546   2.418   2.558   1.586  0.4217 -0.1651 -0.1996
 7784TIP3    H147547   2.489   2.543   1.648  0.7244 -1.2969 -0.7790
 7784TIP3    H247548   2.385   2.645   1.606  1.6061  0.1467  0.4485
 7785TIP3   OH247549   2.277   4.467   9.697 -0.2595 -0.0639 -0.7908
 7785TIP3    H147550   2.288   4.551   9.652 -1.2719  0.7300  0.3839
 7785TIP3    H247551   2.344   4.468   9.765  0.8107 -0.9634 -1.7746
 7786TIP3   OH247552   0.924   5.041   0.810 -0.1109 -0.4366 -0.0922
 7786TIP3    H147553   0.922   4.948   0.789 -0.3740 -0.5572  0.4477
 7786TIP3    H247554   0.843   5.076   0.773  0.4692 -0.2176 -1.1878
 7787TIP3   OH247555   6.756   3.549   7.737  0.3949  0.0510 -0.0212
 7787TIP3    H147556   6.777   3.638   7.706 -0.5133  0.3094  0.0633
 7787TIP3    H247557   6.674   3.528   7.692  1.0603 -1.1209 -0.7340
 7788TIP3   OH247558   0.985   1.088   7.990 -0.1107 -0.0656  0.3481
 7788TIP3    H147559   0.954   1.040   8.067  2.4481 -0.4346  1.2393
 7788TIP3    H247560   1.021   1.170   8.025  1.3032 -0.3373 -0.3870
 7789TIP3   OH247561   4.683   4.218   1.840  0.1351  0.2581 -0.0666
 7789TIP3    H147562   4.751   4.186   1.898  0.8574 -0.1236 -1.0822
 7789TIP3    H247563   4.725   4.289   1.791  0.9187 -2.0049 -2.9558
 7790TIP3   OH247564   0.453   4.434   1.115  0.2009 -0.2105 -0.2399
 7790TIP3    H147565   0.511   4.508   1.096  0.9428 -0.5019  0.7850
 7790TIP3    H247566   0.366   4.473   1.122  0.2880  0.2736 -1.5395
 7791TIP3   OH247567   2.044   1.836   1.122 -0.0178  0.3865 -0.0467
 7791TIP3    H147568   2.136   1.857   1.107 -0.2256  1.0464 -0.4075
 7791TIP3    H247569   2.041   1.740   1.120  0.8349  0.3161  1.0165
 7792TIP3   OH247570   3.026   4.909   8.803  0.0493 -0.8405 -0.3765
 7792TIP3    H147571   2.937   4.922   8.835  1.2414  2.6727  2.0320
 7792TIP3    H247572   3.033   4.967   8.728  0.1624 -1.6326 -0.9931
 7793TIP3   OH247573   0.537   2.530   7.348  0.2048  0.2979  0.0340
 7793TIP3    H147574   0.592   2.591   7.297  0.3893 -0.2570 -0.4481
 7793TIP3    H247575   0.504   2.582   7.421 -0.5279  1.2771 -0.9647
 7794TIP3   OH247576   5.020   5.825   9.146  0.1306 -0.5859 -0.3691
 7794TIP3    H147577   5.097   5.788   9.104  0.9616 -0.8154  1.2812
 7794TIP3    H247578   5.011   5.776   9.227  1.4992  2.8866  2.1136
 7795TIP3   OH247579   0.607   2.589   7.802  0.3132  0.5975 -0.6951
 7795TIP3    H147580   0.620   2.644   7.725  1.0164  0.7104 -0.5036
 7795TIP3    H247581   0.629   2.646   7.876  0.7050  0.1689 -0.4755
 7796TIP3   OH247582   7.450   7.149   9.328 -0.0127  0.1432 -0.2327
 7796TIP3    H147583   7.476   7.118   9.241  0.3197 -1.7569  0.4774
 7796TIP3    H247584   7.473   7.242   9.329  0.5288  0.0621 -1.9593
 7797TIP3   OH247585   1.719   1.025   1.923  0.2291  0.0726  0.5383
 7797TIP3    H147586   1.656   1.096   1.932 -2.0006 -1.6718 -0.3233
 7797TIP3    H247587   1.737   0.996   2.012 -0.8721  0.0569  0.7638
 7798TIP3   OH247588   5.985   1.582   9.239  0.2069 -0.5159  0.1812
 7798TIP3    H147589   5.941   1.560   9.322  1.1338 -2.7426  0.1637
 7798TIP3    H247590   6.068   1.620   9.266 -0.2750  0.5308  0.2348
 7799TIP3   OH247591   4.400   1.208   8.618  0.2837  0.2728 -0.7256
 7799TIP3    H147592   4.363   1.129   8.580 -0.0502  0.3939 -0.6542
 7799TIP3    H247593   4.435   1.180   8.703 -0.8628  0.4267 -0.1827
 7800TIP3   OH247594   0.974   2.820   0.014 -0.6084 -0.1908 -0.0192
 7800TIP3    H147595   0.935   2.794  -0.070 -0.9782 -1.0687  0.4174
 7800TIP3    H247596   0.990   2.914   0.004 -1.0349 -0.1996 -0.9237
 7801TIP3   OH247597   3.524   3.830   0.983  0.4942  0.2852  0.4039
 7801TIP3    H147598   3.485   3.858   1.066  2.7209 -0.1307  1.6567
 7801TIP3    H247599   3.601   3.887   0.972  1.4667 -1.1053 -0.2554
 7802TIP3   OH247600   3.548   5.109   8.581  0.6639  0.0151 -0.1208
 7802TIP3    H147601   3.559   5.022   8.620 -0.2926 -0.5918 -1.1497
 7802TIP3    H247602   3.614   5.113   8.512 -0.4596 -0.6304 -1.2675
 7803TIP3   OH247603   0.776   7.161   1.681 -0.7314  0.3402  0.0741
 7803TIP3    H147604   0.870   7.145   1.670 -1.1793 -1.8964 -1.1217
 7803TIP3    H247605   0.771   7.218   1.757  1.5450 -0.4736  0.9480
 7804TIP3   OH247606   1.783   5.971   1.596  0.4135 -0.8687  0.4126
 7804TIP3    H147607   1.844   5.949   1.525  3.5489 -2.4925  3.2660
 7804TIP3    H247608   1.706   5.917   1.579  0.6954 -0.5851 -2.1066
 7805TIP3   OH247609   2.982   5.164   2.208  0.2580  0.3681  0.4580
 7805TIP3    H147610   3.014   5.185   2.120 -1.0850 -1.5002 -0.5373
 7805TIP3    H247611   3.062   5.158   2.262  1.0746  1.9456 -0.4806
 7806TIP3   OH247612   4.258   5.535   9.034 -0.3780 -0.2153 -0.0344
 7806TIP3    H147613   4.314   5.506   9.106 -0.6910 -1.0075 -0.1067
 7806TIP3    H247614   4.171   5.505   9.058 -0.5813 -0.0002 -0.4870
 7807TIP3   OH247615   2.935   1.124   1.123 -0.4373  0.3707 -0.6490
 7807TIP3    H147616   2.950   1.042   1.171 -1.1493 -1.2934 -3.0549
 7807TIP3    H247617   2.881   1.176   1.182  2.6985  0.5969  2.3225
 7808TIP3   OH247618   2.538   0.931   2.103  0.5357 -0.0243 -0.2200
 7808TIP3    H147619   2.565   0.871   2.173  1.5739 -0.9933 -1.3951
 7808TIP3    H247620   2.444   0.942   2.117 -0.1584 -3.4934 -0.9892
 7809TIP3   OH247621   1.514   3.353   6.982 -0.0062  0.3498 -0.0210
 7809TIP3    H147622   1.422   3.374   6.964 -0.5966 -0.4975  1.8609
 7809TIP3    H247623   1.521   3.259   6.965  0.5279  0.4131 -0.1692
 7810TIP3   OH247624   0.541   1.988   9.920  0.0390 -0.2687  0.1067
 7810TIP3    H147625   0.541   2.077   9.956  1.1449  0.0189 -0.5578
 7810TIP3    H247626   0.555   1.932   9.996 -0.2709  0.1467  0.4800
 7811TIP3   OH247627   7.384   2.449   1.633 -0.9560 -0.0297 -0.2510
 7811TIP3    H147628   7.356   2.433   1.542 -2.1544  0.1715  0.0633
 7811TIP3    H247629   7.302   2.460   1.681 -0.3119  0.4821  0.7486
 7812TIP3   OH247630   2.116   0.582   9.195  0.1300 -0.4791 -0.0954
 7812TIP3    H147631   2.083   0.524   9.263  0.6552  0.5070  1.0399
 7812TIP3    H247632   2.177   0.640   9.240  2.2626 -1.2312 -1.8017
 7813TIP3   OH247633   0.950   4.681   9.196 -0.0928 -0.1689  0.5904
 7813TIP3    H147634   1.033   4.715   9.162 -0.8158  0.3725 -0.7335
 7813TIP3    H247635   0.915   4.753   9.248  1.0506 -1.0250  2.6743
 7814TIP3   OH247636   1.264   4.333   8.132 -0.3241 -0.1653 -0.1266
 7814TIP3    H147637   1.187   4.386   8.109 -0.5790 -0.0199  1.0001
 7814TIP3    H247638   1.338   4.383   8.097 -0.5997  0.7109  0.5101
 7815TIP3   OH247639   1.458   0.409   0.227 -0.0971  0.0115  0.5682
 7815TIP3    H147640   1.395   0.438   0.162  1.2426 -1.5615 -1.5413
 7815TIP3    H247641   1.491   0.490   0.267 -0.1634  1.1008 -1.4746
 7816TIP3   OH247642   6.555   7.123   9.805 -0.7412  0.0282 -0.1135
 7816TIP3    H147643   6.597   7.183   9.743  0.0603 -1.1005 -0.6992
 7816TIP3    H247644   6.596   7.143   9.889  1.5099 -1.4360 -0.7665
 7817TIP3   OH247645   5.143   7.017   1.423  0.3507  0.0293  0.0677
 7817TIP3    H147646   5.099   7.100   1.444 -0.3646 -0.3090 -0.0622
 7817TIP3    H247647   5.227   7.043   1.386  0.3249  0.6910  0.4521
 7818TIP3   OH247648   7.063   1.388   1.643 -0.0595  0.1361  0.7773
 7818TIP3    H147649   7.048   1.300   1.680  0.3830  0.8219  2.7086
 7818TIP3    H247650   7.088   1.372   1.552 -0.9338 -1.6834  0.8115
 7819TIP3   OH247651   6.549   2.218   8.577  0.2400  0.7669  0.5147
 7819TIP3    H147652   6.636   2.244   8.606  0.0293  0.0709  1.8318
 7819TIP3    H247653   6.504   2.190   8.656 -1.0784  0.7908 -0.1954
 7820TIP3   OH247654   4.112   5.161   8.974  0.1555 -0.4154  0.3541
 7820TIP3    H147655   4.165   5.205   8.908  0.2312 -3.0277 -1.4980
 7820TIP3    H247656   4.025   5.153   8.934 -0.8191  1.0641  2.0726
 7821TIP3   OH247657   1.006   2.718   1.085  0.0769 -0.2644  0.2999
 7821TIP3    H147658   0.979   2.630   1.109  1.2010 -0.6698  0.1604
 7821TIP3    H247659   0.940   2.748   1.023  1.1943 -2.1434 -1.9204
 7822TIP3   OH247660   1.995   7.143   7.763  0.4182  0.6031  0.4556
 7822TIP3    H147661   2.006   7.204   7.689  0.5290 -0.7757 -0.7185
 7822TIP3    H247662   1.911   7.167   7.802  0.9218  2.1439  0.6655
 7823TIP3   OH247663   1.588   4.688   8.583  0.1736  0.0080 -0.1482
 7823TIP3    H147664   1.601   4.782   8.573 -0.8518  0.3915  1.6220
 7823TIP3    H247665   1.496   4.678   8.605 -0.5845 -1.7705 -3.4895
 7824TIP3   OH247666   6.759   0.192   1.040  0.5691  0.5335 -0.4055
 7824TIP3    H147667   6.836   0.249   1.027  0.9491 -0.0590 -0.7817
 7824TIP3    H247668   6.759   0.174   1.134  1.9915 -0.9654 -0.6450
 7825TIP3   OH247669   4.020   7.395   9.792 -0.7264 -0.0601 -0.1523
 7825TIP3    H147670   3.943   7.339   9.794  0.7265 -2.1514  0.7266
 7825TIP3    H247671   4.006   7.454   9.717 -2.2399 -1.7404 -1.2486
 7826TIP3   OH247672   4.005   1.785   1.891  0.0317 -0.1892  0.2309
 7826TIP3    H147673   4.079   1.822   1.844 -0.8739  1.0841 -0.2579
 7826TIP3    H247674   3.990   1.845   1.965  0.0921 -0.9701  0.8870
 7827TIP3   OH247675   2.670   0.783   9.682 -0.7266  0.1330  0.1925
 7827TIP3    H147676   2.734   0.808   9.615 -0.3085  0.8270  0.8342
 7827TIP3    H247677   2.633   0.701   9.651 -2.0373  1.4332 -1.9663
 7828TIP3   OH247678   3.973   0.789   0.764  0.3473  0.4600  0.3403
 7828TIP3    H147679   3.929   0.720   0.813 -0.3491 -0.8827 -2.0151
 7828TIP3    H247680   3.984   0.753   0.676  1.3871  2.7882 -0.5726
 7829TIP3   OH247681   0.621   0.396   0.309  0.5443 -0.3015 -0.3831
 7829TIP3    H147682   0.656   0.478   0.276 -0.0326  0.5853  1.0762
 7829TIP3    H247683   0.533   0.390   0.272  0.3141  0.1232  0.0852
 7830TIP3   OH247684   4.166   5.169   8.038 -0.0218 -0.0599 -0.3056
 7830TIP3    H147685   4.147   5.225   8.113 -1.9904  0.6083 -1.2108
 7830TIP3    H247686   4.194   5.086   8.076 -1.4042  0.1015  1.2179
 7831TIP3   OH247687   1.116   1.097   3.952  0.0762  0.2280  0.3237
 7831TIP3    H147688   1.055   1.058   3.890  0.1382  1.1967 -0.3594
 7831TIP3    H247689   1.201   1.057   3.930 -0.2569 -1.0325  1.2018
 7832TIP3   OH247690   6.046   5.402   2.126 -0.1494  0.2371 -0.5348
 7832TIP3    H147691   5.979   5.367   2.067  0.4182  1.6152 -2.0578
 7832TIP3    H247692   6.091   5.324   2.159 -2.5177 -0.7415  0.6309
 7833TIP3   OH247693   7.199   1.047   9.350  0.3331  0.5549  0.1517
 7833TIP3    H147694   7.187   1.123   9.293  0.2354 -0.0272 -0.6338
 7833TIP3    H247695   7.283   1.009   9.321 -0.3939 -0.5535 -0.6023
 7834TIP3   OH247696   5.869   3.864   0.273 -0.4944 -0.4820 -0.1310
 7834TIP3    H147697   5.826   3.784   0.245 -2.2370  0.1984  0.4496
 7834TIP3    H247698   5.962   3.842   0.277 -0.8094 -2.1180 -1.0967
 7835TIP3   OH247699   3.109   5.128   9.625 -0.2165  0.0122  0.2611
 7835TIP3    H147700   3.100   5.062   9.556 -3.5259 -0.0618  0.5862
 7835TIP3    H247701   3.109   5.212   9.578 -2.4079 -0.0407  0.0761
 7836TIP3   OH247702   7.468   5.452   8.260 -0.2090 -0.0023 -0.3774
 7836TIP3    H147703   7.446   5.545   8.246  0.6525  0.2185 -0.3174
 7836TIP3    H247704   7.558   5.453   8.291 -0.3742 -0.8372  0.1520
 7837TIP3   OH247705   0.212   6.204   9.054 -0.0976 -0.4268 -0.0473
 7837TIP3    H147706   0.199   6.227   8.962 -2.5577  0.7075  0.4734
 7837TIP3    H247707   0.210   6.288   9.100 -0.8543 -1.0788  1.1834
 7838TIP3   OH247708   4.189   2.212   7.999 -0.0350  0.2043  0.4297
 7838TIP3    H147709   4.204   2.280   8.064 -0.2090  0.2302  0.4425
 7838TIP3    H247710   4.122   2.156   8.038 -0.5704  0.5541  0.0180
 7839TIP3   OH247711   4.051   1.665   9.708  0.3698  0.5946  0.4094
 7839TIP3    H147712   4.090   1.725   9.771  1.3194 -0.3307  0.7246
 7839TIP3    H247713   4.044   1.582   9.755  0.5943  0.0272 -0.5264
 7840TIP3   OH247714   2.618   2.875   1.831 -0.7651  0.2640  0.1113
 7840TIP3    H147715   2.657   2.960   1.851  3.7895 -1.7958  1.4469
 7840TIP3    H247716   2.647   2.856   1.742  2.6277 -1.7009  1.4410
 7841TIP3   OH247717   1.388   4.448   7.296 -0.0467  0.0705 -0.5031
 7841TIP3    H147718   1.305   4.420   7.257  0.7246 -2.8218 -0.2523
 7841TIP3    H247719   1.410   4.529   7.251 -1.5917 -0.6158 -2.6158
 7842TIP3   OH247720   3.738   3.751   2.281 -0.2849  0.5495 -0.2589
 7842TIP3    H147721   3.783   3.768   2.364  0.3167 -1.3620 -0.1474
 7842TIP3    H247722   3.674   3.683   2.302  0.9233 -1.1007 -1.6340
 7843TIP3   OH247723   4.611   3.140   8.927 -0.0488  0.1336  0.2146
 7843TIP3    H147724   4.545   3.199   8.890 -1.8418 -0.0498  2.8204
 7843TIP3    H247725   4.670   3.197   8.976  0.2834  0.0803 -0.1252
 7844TIP3   OH247726   2.361   0.475   9.930 -0.1470  0.1932 -0.1483
 7844TIP3    H147727   2.342   0.566   9.955  0.6768  0.7025 -1.2959
 7844TIP3    H247728   2.383   0.432  10.013 -0.5315  1.0345  0.4125
 7845TIP3   OH247729   5.415   6.678   7.694  0.1106 -0.3025 -0.0822
 7845TIP3    H147730   5.496   6.724   7.718  1.2730 -1.2190 -2.0068
 7845TIP3    H247731   5.395   6.709   7.605 -0.7654 -1.2747 -0.2491
 7846TIP3   OH247732   1.985   6.948   1.669 -0.3298 -0.1920 -0.3227
 7846TIP3    H147733   2.010   7.040   1.682  0.2846 -0.6502  2.1718
 7846TIP3    H247734   1.891   6.946   1.691 -0.1343 -0.3045  0.5308
 7847TIP3   OH247735   2.272   1.810   2.034 -0.5505 -0.0579 -0.2538
 7847TIP3    H147736   2.348   1.756   2.014  0.1809  0.8558 -0.0588
 7847TIP3    H247737   2.265   1.807   2.129  0.2428  1.1069 -0.1249
 7848TIP3   OH247738   3.781   6.633   2.218 -0.4020  0.3027 -0.2822
 7848TIP3    H147739   3.858   6.624   2.163 -0.7452  0.9237 -0.8873
 7848TIP3    H247740   3.707   6.632   2.157 -1.0118 -1.8790  0.4097
 7849TIP3   OH247741   3.163   7.443   2.898  0.4742  0.5328  0.7327
 7849TIP3    H147742   3.111   7.431   2.818  2.0420  1.1659 -0.4337
 7849TIP3    H247743   3.192   7.355   2.922  0.5467  0.4126  0.2079
 7850TIP3   OH247744   4.457   2.059   9.296 -0.4861 -0.1887  0.3169
 7850TIP3    H147745   4.490   2.095   9.214 -1.6804 -0.3810 -0.2693
 7850TIP3    H247746   4.535   2.049   9.351  0.8689 -2.8952 -1.8418
 7851TIP3   OH247747   0.278   6.217   0.527  0.2132  0.1129  0.1408
 7851TIP3    H147748   0.240   6.154   0.588  0.9620 -0.3976  0.0836
 7851TIP3    H247749   0.207   6.237   0.465 -0.0846 -0.5257  0.2745
 7852TIP3   OH247750   5.005   5.937   0.227  0.2468 -0.2501 -1.1615
 7852TIP3    H147751   4.989   5.954   0.319  1.4302 -3.2132 -0.2641
 7852TIP3    H247752   5.081   5.990   0.205 -0.1139  0.5580 -0.4763
 7853TIP3   OH247753   4.171   0.111   7.023 -0.2005 -0.0329  0.3953
 7853TIP3    H147754   4.259   0.088   6.994 -0.2360  1.4929 -1.0866
 7853TIP3    H247755   4.113   0.070   6.959 -0.3641  1.8741 -0.7517
 7854TIP3   OH247756   4.588   0.773   8.536 -0.0175  0.2528  0.1072
 7854TIP3    H147757   4.605   0.736   8.449  0.1859 -1.2151  0.7392
 7854TIP3    H247758   4.502   0.816   8.527  0.2510  0.5886 -0.9484
 7855TIP3   OH247759   5.358   4.364   1.788  0.4721 -0.1885 -0.3955
 7855TIP3    H147760   5.275   4.359   1.836 -0.1025 -2.4708 -1.5154
 7855TIP3    H247761   5.341   4.427   1.718 -0.4751 -0.9441 -0.8713
 7856TIP3   OH247762   1.639   0.970   0.401 -0.1412 -0.6112  0.3066
 7856TIP3    H147763   1.565   1.028   0.415 -0.6434 -0.2567 -3.0627
 7856TIP3    H247764   1.716   1.026   0.414 -0.5083 -0.2877  1.1411
 7857TIP3   OH247765   6.339   0.177   9.238  0.0109  0.5883 -0.1883
 7857TIP3    H147766   6.338   0.227   9.319 -0.4811  0.4240 -0.0910
 7857TIP3    H247767   6.250   0.143   9.230  0.2702 -0.0536 -0.3848
 7858TIP3   OH247768   1.592   6.009   7.869  0.4606  0.5235 -0.2654
 7858TIP3    H147769   1.608   5.981   7.959  0.1783 -0.6587 -0.5657
 7858TIP3    H247770   1.629   5.939   7.815 -0.9251  0.3516 -1.0469
 7859TIP3   OH247771   1.451   0.689   2.640  0.4866 -0.3241 -0.1698
 7859TIP3    H147772   1.394   0.748   2.591 -1.7877 -2.1090  0.1696
 7859TIP3    H247773   1.511   0.654   2.575  1.6129  1.9445 -0.4513
 7860TIP3   OH247774   1.772   3.328   8.482 -0.0066 -0.2797  0.8037
 7860TIP3    H147775   1.765   3.370   8.567 -0.9437  1.5529 -0.1324
 7860TIP3    H247776   1.863   3.343   8.455 -0.2742  0.9741  0.5770
 7861TIP3   OH247777   6.566   4.557   2.186  0.0240  0.2312 -0.5504
 7861TIP3    H147778   6.650   4.559   2.140 -0.3822  1.3366 -1.2828
 7861TIP3    H247779   6.535   4.647   2.183  0.3005  0.5151  2.5647
 7862TIP3   OH247780   3.108   3.764   1.213 -0.0472  0.4803 -0.2494
 7862TIP3    H147781   3.179   3.825   1.233  0.0602  0.1386  0.4523
 7862TIP3    H247782   3.031   3.802   1.255  0.3991 -0.7942  1.8580
 7863TIP3   OH247783   6.056   0.176   9.237  0.0620 -0.1025  0.7863
 7863TIP3    H147784   6.000   0.098   9.238  0.8110 -0.6971 -0.3792
 7863TIP3    H247785   6.006   0.241   9.187  0.9893 -1.1758 -1.7451
 7864TIP3   OH247786   1.280   0.256   3.129 -0.6787 -0.0484 -0.2287
 7864TIP3    H147787   1.316   0.342   3.110 -0.0984 -0.1355  0.4623
 7864TIP3    H247788   1.253   0.260   3.221 -0.2863 -0.7270 -0.0760
 7865TIP3   OH247789   6.536   5.383   9.115  0.5891 -0.2142  0.3393
 7865TIP3    H147790   6.543   5.457   9.176  3.1959  1.1911 -1.4558
 7865TIP3    H247791   6.568   5.418   9.032  0.4376 -2.9846 -0.9944
 7866TIP3   OH247792   3.857   1.777   1.058  0.1226  0.3325  0.6691
 7866TIP3    H147793   3.830   1.867   1.039 -3.0170 -0.6700 -0.1594
 7866TIP3    H247794   3.817   1.758   1.143 -1.7115 -1.1005 -0.4316
 7867TIP3   OH247795   7.243   5.592   0.194 -0.8043  0.1907 -0.1766
 7867TIP3    H147796   7.275   5.629   0.112 -1.9798  3.0592  0.5528
 7867TIP3    H247797   7.149   5.607   0.192 -0.6863  1.8023  2.3259
 7868TIP3   OH247798   0.967   2.625   8.869 -0.1909 -0.7176  0.1606
 7868TIP3    H147799   0.988   2.635   8.776  2.8804  0.9731  0.9269
 7868TIP3    H247800   0.958   2.530   8.881 -0.0660 -1.0070 -1.7118
 7869TIP3   OH247801   1.128   3.386   9.792 -0.0071 -0.0512  0.0248
 7869TIP3    H147802   1.209   3.438   9.789  2.4280 -3.3821  1.0580
 7869TIP3    H247803   1.101   3.389   9.884 -0.1582 -0.1561 -0.0158
 7870TIP3   OH247804   5.702   0.416   0.103 -0.3239 -0.2463  0.7742
 7870TIP3    H147805   5.791   0.394   0.076 -0.8599 -0.2225 -1.1813
 7870TIP3    H247806   5.711   0.500   0.148  0.6591 -0.2685  0.6356
 7871TIP3   OH247807   5.973   6.594   2.490 -0.0340  0.0925  0.4316
 7871TIP3    H147808   5.950   6.580   2.582  0.3647 -3.4000  0.1507
 7871TIP3    H247809   6.012   6.511   2.462  1.9931  1.7750 -2.3096
 7872TIP3   OH247810   3.762   0.424   1.555  0.3615  0.1417 -0.4267
 7872TIP3    H147811   3.682   0.373   1.542  0.1915  0.1454  0.5056
 7872TIP3    H247812   3.738   0.487   1.624  1.0264  0.4540 -0.4796
 7873TIP3   OH247813   1.638   0.489   2.138 -0.0782  0.5019  0.1771
 7873TIP3    H147814   1.560   0.545   2.136 -0.0092  0.5839 -0.3529
 7873TIP3    H247815   1.711   0.551   2.145  0.0807  0.5757 -1.6414
 7874TIP3   OH247816   1.878   1.565   0.659  0.1971 -0.7016  0.1192
 7874TIP3    H147817   1.837   1.564   0.745  1.4882  1.1893  0.8063
 7874TIP3    H247818   1.805   1.549   0.598 -0.7721 -1.8326  1.4982
 7875TIP3   OH247819   5.676   5.453   8.557  0.5723 -0.4337  0.5215
 7875TIP3    H147820   5.715   5.425   8.475 -0.6217 -0.2791 -0.1228
 7875TIP3    H247821   5.618   5.381   8.582  0.1411 -0.0455  0.6691
 7876TIP3   OH247822   1.922   3.419   2.999 -0.4216  0.0887 -0.1442
 7876TIP3    H147823   1.828   3.411   3.012 -0.6401  2.0503 -0.3162
 7876TIP3    H247824   1.961   3.380   3.077 -1.3121 -1.7072 -0.5494
 7877TIP3   OH247825   1.819   7.477   7.791 -0.7481 -0.1430  0.1280
 7877TIP3    H147826   1.874   7.440   7.722  2.1420  0.2917  2.0330
 7877TIP3    H247827   1.734   7.433   7.780  1.0186 -3.7261 -0.6884
 7878TIP3   OH247828   1.515   5.867   9.772  1.0159 -0.0676  0.2435
 7878TIP3    H147829   1.450   5.869   9.843  0.1076  1.0079 -0.5917
 7878TIP3    H247830   1.473   5.816   9.702  1.2846  0.1899 -0.1079
 7879TIP3   OH247831   1.640   4.856   7.851  0.2127  0.3119 -0.4329
 7879TIP3    H147832   1.615   4.861   7.943 -1.2337 -1.5761 -0.6464
 7879TIP3    H247833   1.557   4.865   7.803  0.7640  0.0589 -1.4719
 7880TIP3   OH247834   3.779   3.404   8.761  0.1408 -0.0419 -0.0145
 7880TIP3    H147835   3.827   3.481   8.728  0.8150 -1.1276 -1.7087
 7880TIP3    H247836   3.814   3.331   8.711 -0.6933 -1.4358  1.3681
 7881TIP3   OH247837   4.514   1.478   1.668 -0.7318  0.3832  0.7509
 7881TIP3    H147838   4.532   1.563   1.628 -0.7758 -0.3260 -0.8721
 7881TIP3    H247839   4.423   1.483   1.695 -0.9966  0.5810 -0.1302
 7882TIP3   OH247840   1.604   2.710   1.206  0.0165  0.0837 -0.0042
 7882TIP3    H147841   1.545   2.769   1.160  1.0136  0.9134 -0.2518
 7882TIP3    H247842   1.678   2.765   1.232  0.3582 -0.7803  0.9204
 7883TIP3   OH247843   6.222   5.854   8.671 -0.0374  0.1619 -0.8365
 7883TIP3    H147844   6.242   5.946   8.653  1.3296  0.6450  2.5089
 7883TIP3    H247845   6.140   5.857   8.721 -0.4804 -0.5657 -1.4909
 7884TIP3   OH247846   6.024   5.599   2.570 -0.1498 -0.9394 -0.1402
 7884TIP3    H147847   5.970   5.540   2.623 -0.5561  2.3994  3.6713
 7884TIP3    H247848   5.960   5.658   2.528  0.3538 -1.2504 -1.3922
 7885TIP3   OH247849   0.782   6.220   0.284  0.3480 -0.2908 -0.5245
 7885TIP3    H147850   0.832   6.138   0.284  0.5976 -0.1416 -0.2917
 7885TIP3    H247851   0.691   6.193   0.293  0.4678 -0.5250  0.0322
 7886TIP3   OH247852   0.476   0.749   7.586 -0.2316  0.1182  0.0910
 7886TIP3    H147853   0.477   0.824   7.527 -0.0198  0.3614  0.3989
 7886TIP3    H247854   0.568   0.731   7.604 -0.3085  0.3134  0.6839
 7887TIP3   OH247855   5.286   1.346   8.691  0.7705  0.3255  0.6694
 7887TIP3    H147856   5.338   1.267   8.677  1.0350  0.5696  0.2295
 7887TIP3    H247857   5.272   1.350   8.785 -0.7184 -1.1708  0.5479
 7888TIP3   OH247858   3.277   3.117   8.781 -0.3832  0.1465 -0.2611
 7888TIP3    H147859   3.200   3.173   8.786 -0.3120  0.4191 -1.7033
 7888TIP3    H247860   3.245   3.035   8.743 -0.1747 -0.1828  0.2620
 7889TIP3   OH247861   4.126   6.466   7.830 -0.6909 -0.0526 -0.1662
 7889TIP3    H147862   4.092   6.550   7.799 -0.9342  0.1120  0.5365
 7889TIP3    H247863   4.113   6.406   7.756 -1.9792  0.1460 -0.1186
 7890TIP3   OH247864   0.095   3.469   9.723 -0.2498  0.0369  0.4855
 7890TIP3    H147865   0.140   3.459   9.807  0.2455  0.7291  0.3108
 7890TIP3    H247866   0.002   3.464   9.745 -0.1099 -1.0969  0.8927
 7891TIP3   OH247867   3.716   4.570   9.344  0.5991  0.1972  0.1979
 7891TIP3    H147868   3.652   4.517   9.298 -0.0699  1.6003 -0.5467
 7891TIP3    H247869   3.683   4.575   9.434  1.7219 -2.2476  0.8504
 7892TIP3   OH247870   4.315   0.743   0.517  0.1337  0.2910 -0.1699
 7892TIP3    H147871   4.400   0.741   0.475 -0.1146 -0.1555 -0.6632
 7892TIP3    H247872   4.314   0.666   0.574  0.5340  0.9844  0.8121
 7893TIP3   OH247873   6.256   3.526   2.202  0.1992 -0.3115 -0.4987
 7893TIP3    H147874   6.319   3.493   2.266 -0.3088 -0.3716 -0.0178
 7893TIP3    H247875   6.301   3.599   2.159  0.5957 -0.3587 -0.1695
 7894TIP3   OH247876   0.254   6.388   1.830  0.2310  0.3323  0.3035
 7894TIP3    H147877   0.279   6.300   1.857 -3.2134 -1.0294 -0.3991
 7894TIP3    H247878   0.335   6.428   1.798  1.9111 -2.5537  0.6417
 7895TIP3   OH247879   4.119   4.749   8.275  0.0032  0.7115 -0.1672
 7895TIP3    H147880   4.071   4.667   8.283 -1.3060  1.4699  0.1171
 7895TIP3    H247881   4.137   4.774   8.366 -3.3757  2.7984  0.1432
 7896TIP3   OH247882   1.272   3.797   1.773 -0.1144  0.9824 -0.7438
 7896TIP3    H147883   1.210   3.743   1.725  1.4308 -1.3724 -0.2880
 7896TIP3    H247884   1.336   3.824   1.707  0.0325  0.7893 -0.6840
 7897TIP3   OH247885   6.146   5.297   0.590  0.3153  0.1481 -0.1806
 7897TIP3    H147886   6.115   5.221   0.542 -1.0922  0.7088 -0.1966
 7897TIP3    H247887   6.217   5.263   0.645 -0.5021 -1.2389  0.0615
 7898TIP3   OH247888   1.735   1.916   8.181 -0.1099  0.1228 -0.3294
 7898TIP3    H147889   1.647   1.883   8.200  0.0716 -1.1420 -1.4997
 7898TIP3    H247890   1.740   1.917   8.086  1.7152 -1.4815 -0.3115
 7899TIP3   OH247891   7.040   7.048   1.584 -0.0966  0.1216 -0.0014
 7899TIP3    H147892   7.010   7.139   1.574  0.3955  0.4996  1.5727
 7899TIP3    H247893   6.970   6.995   1.546 -0.4838  1.1528 -0.7748
 7900TIP3   OH247894   2.153   2.602   0.556 -0.2027 -0.9395  0.1351
 7900TIP3    H147895   2.189   2.605   0.467 -0.2616 -0.5531  0.1251
 7900TIP3    H247896   2.204   2.533   0.600  1.3312  0.3346  0.4513
 7901TIP3   OH247897   4.453   4.591   8.402  0.5623  0.4197  0.4881
 7901TIP3    H147898   4.367   4.587   8.444 -0.1200  1.1816 -0.7438
 7901TIP3    H247899   4.503   4.520   8.442 -0.2593  0.6600  2.0302
 7902TIP3   OH247900   1.676   0.443   9.379  0.6215  0.2552  0.2512
 7902TIP3    H147901   1.760   0.484   9.361  0.9312 -0.0559  0.9594
 7902TIP3    H247902   1.676   0.428   9.473  0.0186 -0.2762  0.1746
 7903TIP3   OH247903   2.862   4.391   0.079 -0.2678 -0.2058  0.2183
 7903TIP3    H147904   2.950   4.430   0.077  0.0679 -0.9473 -1.1644
 7903TIP3    H247905   2.876   4.299   0.058 -1.2415 -0.6997  1.5930
 7904TIP3   OH247906   4.117   7.230   8.272  0.6371  0.0813  0.0373
 7904TIP3    H147907   4.086   7.152   8.318  2.5836 -1.7371 -1.5236
 7904TIP3    H247908   4.044   7.291   8.276 -1.0472 -1.8922  1.1612
 7905TIP3   OH247909   2.858   1.516   9.270  0.2885  0.4238 -0.4351
 7905TIP3    H147910   2.820   1.604   9.271 -1.4941 -0.2997  0.2313
 7905TIP3    H247911   2.826   1.478   9.188 -0.5041 -0.2206  0.1630
 7906TIP3   OH247912   2.067   0.036   9.553 -0.2002 -0.1949  0.5382
 7906TIP3    H147913   1.997   0.089   9.592 -1.6108 -0.9619 -0.8233
 7906TIP3    H247914   2.039   0.022   9.463  2.3443  0.4937 -0.4393
 7907TIP3   OH247915   1.595   4.334   0.959  0.2693  0.2692  0.1006
 7907TIP3    H147916   1.675   4.369   0.997  0.4214 -0.3105  0.3336
 7907TIP3    H247917   1.534   4.328   1.032 -0.1735  1.2065 -0.1780
 7908TIP3   OH247918   5.415   0.928   9.665 -0.6072  0.4352  0.6194
 7908TIP3    H147919   5.444   0.914   9.756 -0.3136  0.4416  0.5288
 7908TIP3    H247920   5.497   0.934   9.615 -0.7321  1.7865  0.5482
 7909TIP3   OH247921   5.797   5.470   9.122  0.1984  0.5300  0.2397
 7909TIP3    H147922   5.715   5.510   9.151  0.8792  2.3815 -0.2624
 7909TIP3    H247923   5.800   5.486   9.028  1.0610  0.3495  0.2265
 7910TIP3   OH247924   3.633   6.241   0.434 -0.0127  0.5179 -0.0463
 7910TIP3    H147925   3.549   6.196   0.445  0.5127 -0.6216 -0.4907
 7910TIP3    H247926   3.661   6.217   0.346  1.0584  0.3868  0.3202
 7911TIP3   OH247927   2.197   2.158   1.698  0.0767  0.3418 -0.0008
 7911TIP3    H147928   2.181   2.231   1.638 -0.1567 -0.8772 -1.4816
 7911TIP3    H247929   2.231   2.200   1.777 -1.3056  2.1704 -0.2915
 7912TIP3   OH247930   1.759   5.662   0.374 -0.0202 -0.4741 -0.4539
 7912TIP3    H147931   1.744   5.568   0.363  2.7600 -1.3290  1.7598
 7912TIP3    H247932   1.827   5.682   0.309  3.2401 -1.3821  2.3757
 7913TIP3   OH247933   6.727   7.200   8.746  0.4067 -0.0892  0.0733
 7913TIP3    H147934   6.782   7.123   8.762 -0.3803 -1.0769 -1.7492
 7913TIP3    H247935   6.722   7.207   8.651 -1.1769  1.0337  0.1982
 7914TIP3   OH247936   2.101   4.190   1.906  0.0992 -0.3283  0.3040
 7914TIP3    H147937   2.018   4.223   1.873 -0.5057  1.3936  3.1644
 7914TIP3    H247938   2.167   4.240   1.858 -0.6844  1.2395  0.7828
 7915TIP3   OH247939   4.512   0.726   8.849 -0.3965  0.2398 -0.2899
 7915TIP3    H147940   4.418   0.711   8.839 -0.3195 -2.1227  1.6534
 7915TIP3    H247941   4.550   0.695   8.767 -1.2101  0.2825 -0.6925
 7916TIP3   OH247942   2.862   0.606   2.502  0.0051 -0.0779 -0.5771
 7916TIP3    H147943   2.782   0.593   2.553  1.7481 -1.1090  2.1703
 7916TIP3    H247944   2.931   0.567   2.556  2.4624  1.2618 -2.5182
 7917TIP3   OH247945   6.647   2.753   9.980  0.0945  0.0460 -0.3645
 7917TIP3    H147946   6.731   2.715   9.953 -0.1834  0.1103 -1.3610
 7917TIP3    H247947   6.650   2.843   9.947 -0.6323 -0.1518 -0.9887
 7918TIP3   OH247948   7.391   7.174   1.056 -0.0376  0.1073  0.1236
 7918TIP3    H147949   7.360   7.249   1.107  3.3206  1.6778  0.1096
 7918TIP3    H247950   7.440   7.121   1.119 -0.3731 -0.8567 -0.3912
 7919TIP3   OH247951   0.846   3.093   8.481 -0.1650 -0.4637  0.1150
 7919TIP3    H147952   0.803   3.179   8.485 -0.5536 -0.6441 -0.1116
 7919TIP3    H247953   0.926   3.104   8.534 -0.0299  0.1393 -0.1968
 7920TIP3   OH247954   1.600   4.650   0.410 -0.5559  0.1304 -0.2570
 7920TIP3    H147955   1.661   4.598   0.462 -2.0139 -1.2542  0.1709
 7920TIP3    H247956   1.642   4.735   0.399  1.2220 -0.6395  0.3791
 7921TIP3   OH247957   7.230   2.050   1.643  0.3046  0.0272 -0.2585
 7921TIP3    H147958   7.170   2.080   1.711 -1.0780  0.0956 -1.4673
 7921TIP3    H247959   7.175   2.040   1.565  1.4991 -1.7650 -0.9290
 7922TIP3   OH247960   1.291   0.410   1.357  0.3105 -0.8925  0.6614
 7922TIP3    H147961   1.224   0.404   1.425 -1.2051 -1.7118 -0.8318
 7922TIP3    H247962   1.374   0.412   1.405 -0.7604  1.7521  2.6575
 7923TIP3   OH247963   5.649   7.420   9.346  0.0489 -0.0910  0.0996
 7923TIP3    H147964   5.660   7.332   9.311 -0.1398  0.3349 -1.0683
 7923TIP3    H247965   5.556   7.427   9.366 -0.0512  0.0535 -0.4067
 7924TIP3   OH247966   1.291   3.248   0.063  0.4973 -0.2229  0.0637
 7924TIP3    H147967   1.364   3.269   0.004  0.5478  0.8323  0.4856
 7924TIP3    H247968   1.268   3.331   0.104 -0.8271 -0.5727  0.0868
 7925TIP3   OH247969   5.520   0.482   6.876  0.0055  0.2931  0.4962
 7925TIP3    H147970   5.558   0.414   6.821  0.2041  0.2201  0.7219
 7925TIP3    H247971   5.513   0.442   6.963 -0.6948  0.2656  0.4308
 7926TIP3   OH247972   1.924   3.035   2.059  0.1360 -0.1092 -0.5687
 7926TIP3    H147973   1.928   3.014   1.966  1.1868  2.0365 -1.0833
 7926TIP3    H247974   1.998   2.988   2.097  0.5799  0.1486 -1.0986
 7927TIP3   OH247975   2.199   4.808   7.667  0.3385 -0.1596 -0.3254
 7927TIP3    H147976   2.237   4.893   7.688 -0.5918  0.3115 -0.4602
 7927TIP3    H247977   2.238   4.747   7.730  1.5131  0.2353 -0.6636
 7928TIP3   OH247978   4.486   0.677   1.034 -0.1305 -0.5446 -0.2872
 7928TIP3    H147979   4.495   0.758   0.984  0.2461  1.3555  2.6400
 7928TIP3    H247980   4.406   0.637   1.001 -1.9393  2.4848  0.0635
 7929TIP3   OH247981   2.941   5.726   7.954  0.8983  0.0659  0.1565
 7929TIP3    H147982   2.852   5.719   7.919  1.1369  1.0254 -0.6855
 7929TIP3    H247983   2.994   5.672   7.896  0.9035 -0.3044  0.5075
 7930TIP3   OH247984   1.257   5.329   9.413 -0.0841 -0.3125  0.2308
 7930TIP3    H147985   1.342   5.370   9.397  0.1885 -1.2307 -0.8273
 7930TIP3    H247986   1.219   5.319   9.326 -0.5191 -1.4536  0.5366
 7931TIP3   OH247987   3.214   7.354   7.904 -0.4948 -0.1037 -0.2069
 7931TIP3    H147988   3.264   7.435   7.908  0.8664 -0.9242 -0.0400
 7931TIP3    H247989   3.240   7.306   7.983  0.1909 -1.5121 -1.2468
 7932TIP3   OH247990   4.446   5.790   8.830  0.0472  0.1009 -0.0037
 7932TIP3    H147991   4.426   5.878   8.861 -0.1994 -0.4890  1.6068
 7932TIP3    H247992   4.362   5.744   8.828  0.4533 -0.8165  1.6541
 7933TIP3   OH247993   6.163   0.312   1.281 -0.2919 -0.4173  0.2059
 7933TIP3    H147994   6.209   0.237   1.242 -1.1171 -1.6747  1.5538
 7933TIP3    H247995   6.095   0.333   1.217  0.8662  0.1879 -0.8816
 7934TIP3   OH247996   2.022   3.087   0.328 -0.3697  0.0683 -0.2515
 7934TIP3    H147997   2.063   3.034   0.259 -0.0152 -0.2483  0.1945
 7934TIP3    H247998   2.089   3.091   0.397 -0.4756  0.9149 -0.1879
 7935TIP3   OH247999   2.903   3.218   9.309  0.6342  0.1666 -0.1008
 7935TIP3    H148000   2.861   3.243   9.227  1.2651  1.6708  0.0057
 7935TIP3    H248001   2.878   3.287   9.371  1.8958  0.2092  0.3912
 7936TIP3   OH248002   3.136   5.362   6.508  0.4669 -0.2389 -0.3985
 7936TIP3    H148003   3.139   5.427   6.438  1.9826 -1.1061 -1.1777
 7936TIP3    H248004   3.165   5.409   6.586 -2.4126  1.0685  0.0126
 7937TIP3   OH248005   4.024   2.735   8.440 -0.1915  0.1275 -0.2303
 7937TIP3    H148006   4.000   2.661   8.496 -0.5656  1.1202  0.9687
 7937TIP3    H248007   4.107   2.766   8.476 -0.9883  1.4718  0.5250
 7938TIP3   OH248008   5.384   5.838   0.546  0.1601 -0.1488  0.3789
 7938TIP3    H148009   5.459   5.891   0.520 -0.6595  1.4412  1.0378
 7938TIP3    H248010   5.420   5.751   0.564  1.4736  0.0026 -1.3216
 7939TIP3   OH248011   7.110   7.108   8.777 -0.1893  0.6825  0.0601
 7939TIP3    H148012   7.024   7.070   8.796 -0.4632  1.2126 -0.1199
 7939TIP3    H248013   7.115   7.185   8.833 -0.0096  0.8987 -0.2518
 7940TIP3   OH248014   0.578   1.689   0.778 -0.0641  0.0259 -0.0321
 7940TIP3    H148015   0.629   1.765   0.805 -0.9040  1.2858 -1.8072
 7940TIP3    H248016   0.629   1.651   0.706 -0.3047 -0.3168 -0.0230
 7941TIP3   OH248017   0.620   2.377   8.033  0.5912 -0.2891 -0.0379
 7941TIP3    H148018   0.680   2.311   7.999 -1.3403 -1.6979 -0.8694
 7941TIP3    H248019   0.610   2.440   7.961  2.2934  0.9140  0.6938
 7942TIP3   OH248020   5.375   3.675   8.219  0.2342  0.2018  0.0172
 7942TIP3    H148021   5.340   3.655   8.132  0.2571  0.1685  0.0155
 7942TIP3    H248022   5.322   3.748   8.250  1.6250  1.6877 -0.9172
 7943TIP3   OH248023   0.899   3.862   0.981  0.1434 -0.3927  0.1070
 7943TIP3    H148024   0.875   3.904   1.063 -0.9677 -1.0279  0.1254
 7943TIP3    H248025   0.821   3.870   0.925 -0.3284 -2.7861  0.2813
 7944TIP3   OH248026   6.620   2.928   0.362  0.3467 -0.0500  0.2195
 7944TIP3    H148027   6.651   2.850   0.316 -2.5586 -0.9806 -0.3478
 7944TIP3    H248028   6.649   3.001   0.307  0.9137 -0.8760 -0.6013
 7945TIP3   OH248029   4.277   0.417   6.815  0.1536 -0.5798 -0.2084
 7945TIP3    H148030   4.337   0.373   6.875  1.8487 -0.0605 -1.4373
 7945TIP3    H248031   4.300   0.510   6.822 -1.9420 -0.0654  0.7949
 7946TIP3   OH248032   0.788   4.691   8.984 -0.0117  0.4439 -0.4642
 7946TIP3    H148033   0.825   4.677   9.071 -0.7151  4.8450  0.8047
 7946TIP3    H248034   0.862   4.683   8.924  1.5065  1.7640  1.1261
 7947TIP3   OH248035   6.303   1.969   2.221 -0.3689 -0.3718  0.1229
 7947TIP3    H148036   6.285   2.057   2.187  0.9603  0.0986  0.5702
 7947TIP3    H248037   6.236   1.914   2.181  0.0363  0.4696 -1.8258
 7948TIP3   OH248038   2.576   7.306   9.763  0.0744  0.2877 -0.6941
 7948TIP3    H148039   2.528   7.321   9.682 -2.1188 -3.4258 -0.2786
 7948TIP3    H248040   2.529   7.358   9.828  1.0761  2.2752 -1.4762
 7949TIP3   OH248041   0.813   0.755   3.549 -0.3859  0.1303 -0.1377
 7949TIP3    H148042   0.826   0.823   3.483 -0.5636  0.1571 -0.1449
 7949TIP3    H248043   0.812   0.803   3.632  1.7325 -0.0938  0.0624
 7950TIP3   OH248044   6.119   7.471   1.840  0.3341 -0.5416  0.4720
 7950TIP3    H148045   6.095   7.482   1.932  1.6272  0.6725  0.6893
 7950TIP3    H248046   6.117   7.376   1.826  1.1404 -0.8181  2.0366
 7951TIP3   OH248047   2.286   3.818   7.102 -0.3723 -0.6602  0.5684
 7951TIP3    H148048   2.326   3.882   7.161 -2.7142  1.3871  0.0516
 7951TIP3    H248049   2.309   3.848   7.014 -0.1609 -1.4716  0.3358
 7952TIP3   OH248050   6.493   3.515   1.639  0.0241  0.0704  0.0457
 7952TIP3    H148051   6.462   3.447   1.700  1.5533 -0.4020  0.3390
 7952TIP3    H248052   6.563   3.560   1.687  0.9803 -0.0352 -1.2006
 7953TIP3   OH248053   5.945   4.917   1.644  0.3122  1.4612  0.1736
 7953TIP3    H148054   6.028   4.961   1.626 -0.0469  2.2519  0.4348
 7953TIP3    H248055   5.966   4.854   1.713  1.4856 -0.9058 -2.1246
 7954TIP3   OH248056   2.294   0.192   9.940 -0.7127 -0.0413 -0.0185
 7954TIP3    H148057   2.230   0.153  10.000 -0.7081  1.0303  0.7050
 7954TIP3    H248058   2.272   0.285   9.938  0.0009  0.1257 -0.8053
 7955TIP3   OH248059   6.876   6.581   2.494 -0.0240  0.3839  0.1479
 7955TIP3    H148060   6.815   6.651   2.472 -1.2829 -0.8913 -0.5943
 7955TIP3    H248061   6.959   6.625   2.511 -0.3529  1.9109 -1.9106
 7956TIP3   OH248062   6.002   5.794   7.874  0.7942 -0.2364  0.3824
 7956TIP3    H148063   5.939   5.766   7.941  0.0044  1.7169  0.5106
 7956TIP3    H248064   6.056   5.716   7.858 -0.2028 -1.2955  1.9097
 7957TIP3   OH248065   5.375   2.154   8.582  0.3279  0.1661 -0.3426
 7957TIP3    H148066   5.424   2.221   8.535  1.7341 -0.2786  0.4564
 7957TIP3    H248067   5.421   2.072   8.564 -0.2146 -0.2951  0.2892
 7958TIP3   OH248068   7.103   1.222   8.867 -0.0823 -0.1404 -0.0024
 7958TIP3    H148069   7.181   1.267   8.834 -0.0399 -1.4317 -1.8007
 7958TIP3    H248070   7.086   1.154   8.802 -2.3892 -0.2481  0.6554
 7959TIP3   OH248071   1.213   3.645   8.457 -0.4722 -0.3118  0.0827
 7959TIP3    H148072   1.137   3.679   8.409  0.2948  1.5079  0.0520
 7959TIP3    H248073   1.289   3.676   8.406  0.3319  0.6238  1.7540
 7960TIP3   OH248074   1.769   0.887   0.640  0.0495  0.3639 -0.0818
 7960TIP3    H148075   1.792   0.903   0.731 -0.2471  2.3386 -0.3029
 7960TIP3    H248076   1.705   0.955   0.619  0.3701  0.1684 -1.8571
 7961TIP3   OH248077   6.972   3.337   1.878  0.3504  0.0206  0.6725
 7961TIP3    H148078   6.909   3.370   1.942  0.3604 -0.1705  0.7810
 7961TIP3    H248079   6.931   3.355   1.793  0.0059 -0.3964  0.7523
 7962TIP3   OH248080   6.082   4.946   9.618 -0.2681  0.7059  0.3918
 7962TIP3    H148081   5.988   4.947   9.639 -0.7370 -0.6605 -1.3607
 7962TIP3    H248082   6.125   4.945   9.704 -1.8127  1.8814  1.2456
 7963TIP3   OH248083   1.997   1.785   7.800 -0.3017  0.6488  0.6403
 7963TIP3    H148084   1.965   1.830   7.723 -0.8015 -0.8772 -0.0834
 7963TIP3    H248085   1.934   1.714   7.815  1.6627 -1.2804  0.2951
 7964TIP3   OH248086   4.825   1.562   1.117  0.2877  0.7908  0.0645
 7964TIP3    H148087   4.814   1.510   1.037  1.6492  2.8129 -1.5234
 7964TIP3    H248088   4.904   1.614   1.102  0.0044  2.0205  2.3171
 7965TIP3   OH248089   5.659   1.182   7.614  0.4433  0.0501  0.7493
 7965TIP3    H148090   5.711   1.223   7.683 -0.4144  1.9896  0.2897
 7965TIP3    H248091   5.569   1.210   7.631  0.2253  0.7160 -1.2364
 7966TIP3   OH248092   7.318   1.324   7.630 -0.1655 -0.4493  0.4383
 7966TIP3    H148093   7.388   1.277   7.675  0.1123 -2.1714 -1.6316
 7966TIP3    H248094   7.271   1.257   7.581 -1.4896  1.0713 -0.4954
 7967TIP3   OH248095   0.440   0.115   0.047 -0.0925 -0.9473 -0.0682
 7967TIP3    H148096   0.471   0.096  -0.042 -0.6230 -0.2616 -0.4028
 7967TIP3    H248097   0.520   0.113   0.100  0.2662 -1.1135 -0.6020
 7968TIP3   OH248098   2.317   5.794   1.164 -0.3693  0.1176 -0.0690
 7968TIP3    H148099   2.332   5.760   1.252  0.2375  0.4271 -0.0461
 7968TIP3    H248100   2.376   5.869   1.157 -0.6757  0.3144 -0.6116
 7969TIP3   OH248101   2.786   4.395   1.079 -0.8130 -0.1452 -0.5244
 7969TIP3    H148102   2.776   4.467   1.142 -0.7607 -0.1110 -0.5547
 7969TIP3    H248103   2.757   4.432   0.996 -0.8167 -0.1693 -0.5335
 7970TIP3   OH248104   1.062   2.170   7.752 -0.1587  0.1369  0.2545
 7970TIP3    H148105   1.064   2.262   7.776  1.2775 -0.1027  1.1836
 7970TIP3    H248106   1.154   2.143   7.752 -0.5626 -1.3281  0.1864
 7971TIP3   OH248107   5.569   2.353   8.505 -0.0749  0.2905 -0.0480
 7971TIP3    H148108   5.565   2.445   8.476 -0.3592  0.0915 -0.6600
 7971TIP3    H248109   5.555   2.357   8.599  0.2890  0.9112 -0.0169
 7972TIP3   OH248110   1.978   0.922   1.755  0.3635  0.0648  0.1731
 7972TIP3    H148111   1.897   0.872   1.745  0.7432 -0.8762  1.5216
 7972TIP3    H248112   2.006   0.940   1.665 -1.0438 -0.0715 -0.3194
 7973TIP3   OH248113   1.749   3.595   0.811  0.1604 -0.6178 -0.3532
 7973TIP3    H148114   1.760   3.511   0.766  0.9336 -0.0479 -1.2715
 7973TIP3    H248115   1.825   3.602   0.868  0.4581 -0.2332 -0.7947
 7974TIP3   OH248116   5.581   3.498   8.191  0.1128 -0.9445 -0.2098
 7974TIP3    H148117   5.674   3.520   8.195 -0.2217  0.4106  0.7982
 7974TIP3    H248118   5.536   3.581   8.206 -1.2652 -1.6723 -0.1368
 7975TIP3   OH248119   2.679   2.551   0.196  0.5015 -0.3590  0.3277
 7975TIP3    H148120   2.642   2.636   0.172  1.7974  0.1904  0.2354
 7975TIP3    H248121   2.763   2.547   0.151  0.1715 -1.9889 -0.2116
 7976TIP3   OH248122   4.948   4.501   9.454  0.3627 -0.7862 -0.6606
 7976TIP3    H148123   4.904   4.585   9.440  1.2763 -0.6385 -3.3792
 7976TIP3    H248124   4.877   4.438   9.467 -0.3947  0.1883  0.0401
 7977TIP3   OH248125   4.148   1.473   0.658  0.0030  0.5820  0.0326
 7977TIP3    H148126   4.100   1.465   0.576  1.0804  0.3457 -0.5846
 7977TIP3    H248127   4.098   1.538   0.708 -1.5227 -0.3966 -0.1628
 7978TIP3   OH248128   2.678   6.190   1.954  0.3178  0.1664 -0.2012
 7978TIP3    H148129   2.653   6.113   1.904  0.3137  2.1914 -3.5999
 7978TIP3    H248130   2.774   6.189   1.954  0.4731  1.8989 -3.5377
 7979TIP3   OH248131   4.111   6.630   8.375 -0.0022 -0.1486  0.5846
 7979TIP3    H148132   4.196   6.674   8.385 -0.4077  0.8324 -0.1288
 7979TIP3    H248133   4.111   6.600   8.284  0.0423 -1.1790  0.9080
 7980TIP3   OH248134   2.422   7.177   1.232 -0.6221 -0.3021  0.1687
 7980TIP3    H148135   2.491   7.170   1.166  0.2304 -1.4264  1.1403
 7980TIP3    H248136   2.401   7.087   1.255 -0.7962  0.0601  1.5323
 7981TIP3   OH248137   3.464   0.516   8.428  0.6036 -0.1504 -0.0482
 7981TIP3    H148138   3.544   0.512   8.480  0.6902 -0.7650 -0.2172
 7981TIP3    H248139   3.427   0.603   8.446  3.3613  1.8644 -3.0131
 7982TIP3   OH248140   7.371   0.675   8.627  0.0334  0.3384 -0.0806
 7982TIP3    H148141   7.295   0.680   8.569  0.8751  0.3228 -1.2230
 7982TIP3    H248142   7.439   0.635   8.573  0.8220  0.2725  0.9512
 7983TIP3   OH248143   1.790   7.185   0.860 -0.0275 -0.0522 -0.3940
 7983TIP3    H148144   1.851   7.251   0.827 -0.2214 -0.0371 -0.7209
 7983TIP3    H248145   1.809   7.106   0.809  0.9868 -0.6052  0.7608
 7984TIP3   OH248146   3.330   3.258   7.252  0.5312  0.0391  0.4852
 7984TIP3    H148147   3.268   3.244   7.323  1.5217 -0.4439  1.2931
 7984TIP3    H248148   3.282   3.307   7.186  0.0086  1.8593  2.1259
 7985TIP3   OH248149   6.398   5.670   8.836  0.1195 -0.1723 -0.1668
 7985TIP3    H148150   6.362   5.643   8.920 -0.0773  0.0999 -0.1622
 7985TIP3    H248151   6.329   5.723   8.795  0.2937 -0.1241 -0.4050
 7986TIP3   OH248152   7.435   6.166   0.798  0.4024  0.6080 -0.3307
 7986TIP3    H148153   7.469   6.249   0.832 -1.6636  1.3806 -0.0212
 7986TIP3    H248154   7.364   6.191   0.740 -0.4698 -0.9560 -0.0063
 7987TIP3   OH248155   0.641   1.890   7.690  0.7404 -0.0820  0.5324
 7987TIP3    H148156   0.723   1.887   7.640 -0.0488  0.5626 -0.8659
 7987TIP3    H248157   0.593   1.812   7.661  0.2262  0.3595  0.1891
 7988TIP3   OH248158   0.039   4.738   7.944  0.0707  0.4926 -0.2163
 7988TIP3    H148159   0.044   4.666   8.007  0.2776  0.9041  0.2358
 7988TIP3    H248160  -0.037   4.788   7.970  0.7712  1.2748  0.3624
 7989TIP3   OH248161   3.627   6.686   7.165  0.1686 -0.3923 -0.3482
 7989TIP3    H148162   3.693   6.744   7.127  0.4034 -1.0010 -0.8716
 7989TIP3    H248163   3.671   6.646   7.240 -0.1338  0.4229  0.2842
 7990TIP3   OH248164   3.079   4.505   7.744  0.0491 -0.5507 -0.6267
 7990TIP3    H148165   3.141   4.482   7.814 -0.0369  0.0671 -0.3455
 7990TIP3    H248166   3.116   4.464   7.666  0.8611 -0.1133 -0.4815
 7991TIP3   OH248167   3.604   2.639   9.545  0.5140  0.2056 -0.3388
 7991TIP3    H148168   3.690   2.660   9.580  0.1909  0.3754  0.3743
 7991TIP3    H248169   3.562   2.724   9.531  0.6392  0.1441 -1.1694
 7992TIP3   OH248170   5.016   6.774   9.830 -0.7047 -0.0227 -0.4880
 7992TIP3    H148171   5.052   6.803   9.913 -2.3010 -0.2691  0.3328
 7992TIP3    H248172   5.088   6.729   9.786  0.2254  0.3202  0.6481
 7993TIP3   OH248173   1.745   3.766   7.608  0.7412 -0.3312  0.2268
 7993TIP3    H148174   1.729   3.766   7.514  0.1275 -0.0863  0.3238
 7993TIP3    H248175   1.707   3.848   7.639  0.3110 -0.7355  0.7902
 7994TIP3   OH248176   6.784   2.226   7.874  0.0955  0.5403 -0.0271
 7994TIP3    H148177   6.840   2.208   7.798  0.6939  1.5564  0.1548
 7994TIP3    H248178   6.753   2.316   7.861 -0.6659  0.3519  0.4001
 7995TIP3   OH248179   2.661   2.828   7.256  0.2797  0.1009  0.0028
 7995TIP3    H148180   2.632   2.753   7.308 -0.2691  0.8097  0.7498
 7995TIP3    H248181   2.645   2.802   7.165 -1.0907 -0.2081  0.3076
 7996TIP3   OH248182   5.672   5.097   7.929 -0.0447 -0.2434  0.3265
 7996TIP3    H148183   5.624   5.019   7.957 -0.2839  0.4343  1.9102
 7996TIP3    H248184   5.673   5.092   7.833 -2.5803 -0.6954  0.2659
 7997TIP3   OH248185   3.115   0.845   9.399  0.2199  0.5133  0.0812
 7997TIP3    H148186   3.048   0.828   9.466  0.9416 -2.4251  0.2213
 7997TIP3    H248187   3.169   0.915   9.436  0.1056 -0.4564  2.2432
 7998TIP3   OH248188   3.171   0.136   2.354  0.5422 -0.1961 -0.3964
 7998TIP3    H148189   3.208   0.219   2.384  1.7352 -1.2250  1.1042
 7998TIP3    H248190   3.105   0.162   2.290  1.2170  1.8832 -0.3359
 7999TIP3   OH248191   2.638   4.657   2.209  0.3722  0.2576  0.0493
 7999TIP3    H148192   2.632   4.610   2.292 -0.2177  2.2836  1.2261
 7999TIP3    H248193   2.644   4.749   2.234  2.5660  0.8040 -2.1118
 8000TIP3   OH248194   0.429   0.919   9.316  0.0163  0.3206 -0.2408
 8000TIP3    H148195   0.427   0.973   9.395  0.6013 -0.4203  0.2946
 8000TIP3    H248196   0.513   0.940   9.275 -0.3628  0.8310 -0.7617
 8001TIP3   OH248197   1.760   5.394   0.437 -0.5212 -0.1712 -0.1910
 8001TIP3    H148198   1.836   5.369   0.385 -0.5052 -1.6508  0.5010
 8001TIP3    H248199   1.753   5.326   0.504 -3.1108 -0.7079 -0.9020
 8002TIP3   OH248200   1.069   0.439   2.560 -0.0316  0.7204  0.4581
 8002TIP3    H148201   1.142   0.447   2.621  0.1902  1.7176  0.0792
 8002TIP3    H248202   1.002   0.498   2.595  0.5612  2.2614 -0.8889
 8003TIP3   OH248203   2.351   1.766   1.086 -0.3950 -0.2203 -0.0669
 8003TIP3    H148204   2.405   1.702   1.039 -0.6501  0.5172 -1.4071
 8003TIP3    H248205   2.288   1.712   1.134  0.5659 -1.0338  0.3365
 8004TIP3   OH248206   2.988   6.461   0.689  0.8544 -0.0825 -0.5904
 8004TIP3    H148207   2.979   6.481   0.595 -0.2588 -0.2299 -0.5297
 8004TIP3    H248208   2.962   6.369   0.696  2.7315 -0.6355 -0.3864
 8005TIP3   OH248209   3.695   6.449   2.748 -0.1299 -0.3134  0.0963
 8005TIP3    H148210   3.615   6.479   2.704  0.1830 -0.3243 -0.4835
 8005TIP3    H248211   3.744   6.529   2.766 -0.7402 -0.2067  1.4015
 8006TIP3   OH248212   5.371   6.395   7.749 -0.0917 -0.2777 -0.1444
 8006TIP3    H148213   5.372   6.489   7.731 -1.0879  0.0511  1.3118
 8006TIP3    H248214   5.341   6.355   7.667 -2.2322  0.9131 -0.0176
 8007TIP3   OH248215   1.108   0.654   2.400  0.1737  0.2288 -0.0241
 8007TIP3    H148216   1.083   0.568   2.434 -0.0680  0.1757 -0.3281
 8007TIP3    H248217   1.167   0.634   2.327 -2.0345  0.1793 -1.9452
 8008TIP3   OH248218   6.100   7.469   8.572 -0.0357  0.5512  0.1520
 8008TIP3    H148219   6.135   7.511   8.651  0.3668  0.6677 -0.0894
 8008TIP3    H248220   6.163   7.400   8.551 -0.0785  0.6008 -0.1417
 8009TIP3   OH248221   0.316   3.169   9.245  0.0695  0.3211  0.2056
 8009TIP3    H148222   0.261   3.122   9.308 -0.0207  2.1419  1.5343
 8009TIP3    H248223   0.256   3.227   9.199  0.6013  1.1250  0.5055
 8010TIP3   OH248224   3.131   6.703   1.014  0.2337 -0.0506 -0.1828
 8010TIP3    H148225   3.194   6.731   1.080  2.3645 -0.6111 -1.8381
 8010TIP3    H248226   3.128   6.608   1.022  1.0952 -0.2000 -1.2971
 8011TIP3   OH248227   1.881   6.992   0.701  0.2585 -0.5941  0.2280
 8011TIP3    H148228   1.848   6.905   0.724 -0.8466 -0.3951 -0.5108
 8011TIP3    H248229   1.976   6.985   0.710  0.0949 -1.4900  1.4560
 8012TIP3   OH248230   0.355   0.584   1.110 -0.1834  0.0574  0.3328
 8012TIP3    H148231   0.401   0.580   1.026 -1.3422 -2.9415 -0.2786
 8012TIP3    H248232   0.311   0.669   1.109  0.7909  0.6005 -1.5490
 8013TIP3   OH248233   1.149   4.828   9.064 -0.3937 -0.2463 -0.0201
 8013TIP3    H148234   1.222   4.798   9.118 -0.5061 -1.1649 -0.3646
 8013TIP3    H248235   1.188   4.893   9.006  0.3941 -1.4493 -0.8943
 8014TIP3   OH248236   4.728   4.630   1.650 -0.0862  0.3281  0.2424
 8014TIP3    H148237   4.794   4.699   1.648  0.0337  0.2224  0.4500
 8014TIP3    H248238   4.654   4.669   1.696 -0.7047  0.9037 -1.1983
 8015TIP3   OH248239   7.334   5.237   1.313 -0.3871  0.2173  0.5320
 8015TIP3    H148240   7.249   5.234   1.268  0.0740  0.8327 -0.4030
 8015TIP3    H248241   7.399   5.234   1.243  0.3648  0.4925  1.2006
 8016TIP3   OH248242   2.691   4.194   0.849  0.0096  0.9423  0.1026
 8016TIP3    H148243   2.686   4.146   0.766  2.1278  0.0286  0.4182
 8016TIP3    H248244   2.776   4.169   0.885 -1.1686  0.6534  2.9632
 8017TIP3   OH248245   6.704   6.097   1.755  0.2682  0.1271 -0.3566
 8017TIP3    H148246   6.672   6.187   1.766 -0.4507 -0.2473  0.7471
 8017TIP3    H248247   6.727   6.091   1.662 -0.1245  1.3035 -0.5484
 8018TIP3   OH248248   7.282   4.230   9.382  0.8138 -0.0964 -0.1843
 8018TIP3    H148249   7.195   4.246   9.418  1.3789 -1.3554  1.9439
 8018TIP3    H248250   7.280   4.269   9.295 -1.3460  1.3104  0.4245
 8019TIP3   OH248251   3.041   3.449   2.684  0.2152 -0.3753  0.3890
 8019TIP3    H148252   3.120   3.405   2.716  1.7022  1.3964 -0.6936
 8019TIP3    H248253   3.030   3.524   2.741  0.8896  0.8599 -1.0287
 8020TIP3   OH248254   3.622   4.106   9.746  0.2715  0.2403  0.3022
 8020TIP3    H148255   3.632   4.069   9.833  0.9937  0.5112  0.3395
 8020TIP3    H248256   3.709   4.139   9.724  0.1628 -0.0522 -0.6207
 8021TIP3   OH248257   3.713   3.403   2.176 -0.2384  0.1806 -0.1677
 8021TIP3    H148258   3.705   3.310   2.196 -0.2999  0.1174 -0.4856
 8021TIP3    H248259   3.808   3.418   2.175 -0.2365  0.2302  0.3718
 8022TIP3   OH248260   0.814   2.879   8.310  0.3458  0.7805 -0.1893
 8022TIP3    H148261   0.884   2.816   8.325  0.4346  0.9178 -0.0137
 8022TIP3    H248262   0.826   2.944   8.380 -0.9135 -0.0213  0.8257
 8023TIP3   OH248263   3.676   2.087   1.069  1.1147 -0.0178 -0.4921
 8023TIP3    H148264   3.756   2.123   1.030  0.8133  0.1072 -0.9890
 8023TIP3    H248265   3.611   2.092   1.000  0.0714  1.9137  0.5599
 8024TIP3   OH248266   4.502   3.823   2.290 -0.5183  0.1310  0.3477
 8024TIP3    H148267   4.454   3.759   2.237 -2.7694  2.6078 -0.8153
 8024TIP3    H248268   4.479   3.802   2.380 -3.2209  0.6857 -0.1327
 8025TIP3   OH248269   3.652   4.941   7.409  0.1925  0.8399 -0.2082
 8025TIP3    H148270   3.670   4.849   7.426 -1.2327  0.9643  2.5949
 8025TIP3    H248271   3.702   4.962   7.330 -0.9707 -2.7965 -2.1095
 8026TIP3   OH248272   0.907   4.944   2.051  0.1763  0.4897 -0.2992
 8026TIP3    H148273   0.867   4.961   1.966 -0.5917  1.3204  0.2148
 8026TIP3    H248274   0.879   4.855   2.074  0.4673  0.2225 -0.9388
 8027TIP3   OH248275   5.244   1.928   1.612  0.4638  0.3281  0.2385
 8027TIP3    H148276   5.195   1.860   1.658  0.9280 -0.0676  0.1592
 8027TIP3    H248277   5.334   1.894   1.608  0.3750  0.2006 -1.2495
 8028TIP3   OH248278   2.040   5.779   1.024 -0.3810  0.4490 -0.2592
 8028TIP3    H148279   2.064   5.773   0.931  0.8407 -1.0124  0.1208
 8028TIP3    H248280   2.122   5.764   1.071 -0.4605  3.4610  1.1102
 8029TIP3   OH248281   5.900   4.326   2.465 -0.4265 -0.6764 -0.4673
 8029TIP3    H148282   5.842   4.336   2.541 -2.2231 -2.0990 -1.5828
 8029TIP3    H248283   5.975   4.278   2.499 -0.9079 -0.7416  0.5461
 8030TIP3   OH248284   3.401   5.990   9.349 -0.3718 -0.6886 -0.1189
 8030TIP3    H148285   3.323   5.944   9.318  0.2297 -1.1319 -0.9954
 8030TIP3    H248286   3.437   6.034   9.272 -0.8565  1.1961  0.6661
 8031TIP3   OH248287   1.588   3.539   7.930 -0.1106  0.8005 -0.0991
 8031TIP3    H148288   1.548   3.619   7.897  0.8047  1.9671  1.4526
 8031TIP3    H248289   1.518   3.497   7.981  0.3163  2.4221  1.9447
 8032TIP3   OH248290   1.314   3.898   8.119 -0.8505 -0.0302 -0.0660
 8032TIP3    H148291   1.361   3.816   8.110 -0.6642  0.1609 -0.8955
 8032TIP3    H248292   1.316   3.917   8.213  0.1692 -0.3509 -0.0155
 8033TIP3   OH248293   0.993   5.424   9.922  0.0421 -0.2625  0.0446
 8033TIP3    H148294   0.964   5.336   9.947 -0.3635 -0.2881 -0.4997
 8033TIP3    H248295   0.929   5.453   9.857  0.2057  0.4142  0.1750
 8034TIP3   OH248296   2.089   0.082   2.575 -0.0500  0.4666 -0.5903
 8034TIP3    H148297   2.045   0.113   2.496 -1.2138  0.5869  0.0864
 8034TIP3    H248298   2.047  -0.002   2.595 -0.1984  0.7308  0.2364
 8035TIP3   OH248299   5.732   3.121   1.129 -0.1530 -0.4229  0.2091
 8035TIP3    H148300   5.825   3.126   1.152 -0.0698 -0.5349 -0.0978
 8035TIP3    H248301   5.688   3.175   1.195  0.1375 -0.3029  0.3062
 8036TIP3   OH248302   5.664   4.470   8.270  0.5245 -0.4907 -0.0754
 8036TIP3    H148303   5.674   4.381   8.237 -0.3770 -0.7646  0.3721
 8036TIP3    H248304   5.631   4.520   8.195  1.0141 -0.5216 -0.3203
 8037TIP3   OH248305   1.762   2.846   0.760 -0.4048 -0.9409  0.4210
 8037TIP3    H148306   1.735   2.755   0.763  2.4202 -1.8546  0.6366
 8037TIP3    H248307   1.831   2.849   0.693  0.5348  0.7332  1.3982
 8038TIP3   OH248308   4.730   6.418   2.786  0.4207 -0.0135 -0.7968
 8038TIP3    H148309   4.669   6.491   2.771 -0.9723 -0.5299  1.7734
 8038TIP3    H248310   4.792   6.452   2.851  0.2195 -0.8441 -0.1501
 8039TIP3   OH248311   1.215   3.229   7.193 -0.0059  0.2292  0.3009
 8039TIP3    H148312   1.213   3.294   7.123 -0.9504 -0.6929 -0.5631
 8039TIP3    H248313   1.305   3.196   7.193  0.4970  1.5323  0.7799
 8040TIP3   OH248314   1.898   4.781   7.764  0.4367  0.3655 -0.3706
 8040TIP3    H148315   1.816   4.829   7.780  1.7337  2.2899  0.8426
 8040TIP3    H248316   1.889   4.749   7.674 -2.5680 -1.4586  0.4339
 8041TIP3   OH248317   5.957   2.932   8.400 -0.4572  0.1541  0.1076
 8041TIP3    H148318   5.893   2.973   8.458  0.0680  0.7731  0.2692
 8041TIP3    H248319   6.039   2.978   8.419 -0.0942 -0.2163 -0.5184
 8042TIP3   OH248320   6.291   3.290   9.534 -0.0749 -0.1093  0.1785
 8042TIP3    H148321   6.295   3.293   9.629 -0.5439  0.7061  0.1860
 8042TIP3    H248322   6.274   3.381   9.508  0.8304 -0.1766 -0.7195
 8043TIP3   OH248323   3.130   7.430   7.649 -0.2468 -0.2483 -0.2602
 8043TIP3    H148324   3.044   7.472   7.657  0.2206  0.5538  0.9008
 8043TIP3    H248325   3.134   7.371   7.724  1.5146  2.2412  1.7739
 8044TIP3   OH248326   1.913   4.253   7.461  0.1452 -0.0707  0.2943
 8044TIP3    H148327   1.916   4.206   7.545 -0.1632 -1.4078 -0.4154
 8044TIP3    H248328   2.005   4.268   7.439  0.2195  1.5792  1.5318
 8045TIP3   OH248329   3.774   1.913   9.058 -0.0181  0.1197 -0.2343
 8045TIP3    H148330   3.775   1.937   9.151  0.8581  0.1098 -0.2267
 8045TIP3    H248331   3.732   1.827   9.056 -1.7701  0.9305 -0.0832
 8046TIP3   OH248332   0.819   1.322   3.206  1.2222  0.3819  0.2018
 8046TIP3    H148333   0.797   1.413   3.186  1.4588  0.1524 -1.1595
 8046TIP3    H248334   0.740   1.287   3.248  0.2225  0.5494 -1.4691
 8047TIP3   OH248335   3.575   5.000   2.083  0.4612  0.1517 -0.2074
 8047TIP3    H148336   3.499   5.047   2.118  0.4750 -0.5651  0.8343
 8047TIP3    H248337   3.618   5.064   2.026  0.3740  1.3715  1.0269
 8048TIP3   OH248338   0.746   7.155   8.428 -0.4135 -0.1267  0.3698
 8048TIP3    H148339   0.780   7.238   8.461  0.5528 -0.2516 -0.2888
 8048TIP3    H248340   0.809   7.090   8.456 -1.2632 -0.6872  1.0454
 8049TIP3   OH248341   5.817   6.226   1.093 -0.2617 -0.1002  0.0700
 8049TIP3    H148342   5.849   6.299   1.147  0.8188  0.2016 -0.9297
 8049TIP3    H248343   5.813   6.152   1.152  3.1033 -0.3643  0.1648
 8050TIP3   OH248344   3.150   7.294   8.944  0.0654  0.4600  0.1819
 8050TIP3    H148345   3.141   7.232   9.016 -1.5774  1.0443  0.5248
 8050TIP3    H248346   3.243   7.316   8.943  0.9563 -2.7678 -0.6487
 8051TIP3   OH248347   1.342   5.463   9.076  0.0281  0.2143  0.2569
 8051TIP3    H148348   1.427   5.422   9.064  0.0991  0.2741  0.5502
 8051TIP3    H248349   1.283   5.390   9.098  0.5402  0.4720  2.7346
 8052TIP3   OH248350   3.667   7.346   7.609 -0.3249  0.0144  0.4537
 8052TIP3    H148351   3.634   7.416   7.553 -0.4937  0.7319  1.4291
 8052TIP3    H248352   3.601   7.338   7.678 -0.0687 -0.7890  0.6114
 8053TIP3   OH248353   0.962   1.805   1.368  0.0197 -0.2455  0.4016
 8053TIP3    H148354   0.904   1.837   1.298 -1.5135  0.5147  1.9235
 8053TIP3    H248355   1.050   1.829   1.339 -0.6116  0.5575 -0.9927
 8054TIP3   OH248356   1.230   5.513   9.626 -0.3116 -0.5508 -0.2274
 8054TIP3    H148357   1.270   5.466   9.700  0.3161  0.4507  0.0921
 8054TIP3    H248358   1.243   5.456   9.551 -0.7021 -1.4600  0.3809
 8055TIP3   OH248359   0.090   1.574   8.600 -0.1256 -0.4711 -0.1840
 8055TIP3    H148360   0.160   1.639   8.603 -0.4139 -0.1953  0.8892
 8055TIP3    H248361   0.033   1.603   8.530 -1.9603  2.2687  2.2239
 8056TIP3   OH248362   2.414   3.190   7.035 -0.3676 -0.4638  0.2102
 8056TIP3    H148363   2.480   3.160   6.972  1.1378 -0.9189  1.8960
 8056TIP3    H248364   2.378   3.109   7.072 -0.0846 -0.2121  1.0523
 8057TIP3   OH248365   3.732   3.194   9.715 -0.1865  0.6212 -0.7147
 8057TIP3    H148366   3.685   3.168   9.794 -0.0877  0.5274 -0.6864
 8057TIP3    H248367   3.731   3.116   9.660 -0.6752  0.8312 -1.0072
 8058TIP3   OH248368   6.656   3.663   8.678 -0.0757  0.0475  0.4208
 8058TIP3    H148369   6.650   3.575   8.716 -2.5700  0.6041  1.4743
 8058TIP3    H248370   6.581   3.668   8.618  0.2922  1.3250  0.0392
 8059TIP3   OH248371   1.877   6.405   2.652 -0.3913 -0.0544  0.0175
 8059TIP3    H148372   1.789   6.427   2.624  0.3193  1.2551 -1.3449
 8059TIP3    H248373   1.926   6.393   2.571  0.8793  0.1578  0.7244
 8060TIP3   OH248374   2.967   6.910   2.006  0.3563 -0.0510 -0.0388
 8060TIP3    H148375   2.928   6.929   1.921 -0.4085  1.1585  0.5608
 8060TIP3    H248376   3.010   6.991   2.032  0.8425 -0.5006  0.6070
 8061TIP3   OH248377   1.764   6.467   0.492 -0.8529  0.5471  0.1670
 8061TIP3    H148378   1.790   6.558   0.478  1.4156 -0.0518  0.1043
 8061TIP3    H248379   1.668   6.469   0.489 -0.8303  2.6874 -1.2507
 8062TIP3   OH248380   3.266   0.044   9.869  0.3655  0.8617  0.4660
 8062TIP3    H148381   3.278   0.114   9.933  1.3162  1.8869 -0.7731
 8062TIP3    H248382   3.339   0.055   9.808 -0.8699  0.3498 -1.1805
 8063TIP3   OH248383   1.720   3.783   8.451 -0.0271 -0.0481 -0.2167
 8063TIP3    H148384   1.805   3.746   8.423 -0.2972 -0.7129 -0.1889
 8063TIP3    H248385   1.694   3.729   8.525  0.2513  1.1408  0.7723
 8064TIP3   OH248386   4.367   3.179   1.617 -0.1110  0.3592 -0.3747
 8064TIP3    H148387   4.294   3.122   1.638  0.9589 -0.6181  0.8125
 8064TIP3    H248388   4.359   3.252   1.678 -0.2333  0.3857 -0.4218
 8065TIP3   OH248389   2.301   4.711   8.282  0.3439 -0.2890  0.2250
 8065TIP3    H148390   2.211   4.737   8.302 -0.6483 -2.5296 -0.8748
 8065TIP3    H248391   2.352   4.791   8.291 -2.1823  1.7041 -1.6055
 8066TIP3   OH248392   5.882   6.537   0.634 -0.1625  0.2914 -0.4842
 8066TIP3    H148393   5.889   6.522   0.728  0.8110 -1.2112 -0.7556
 8066TIP3    H248394   5.871   6.632   0.625  1.2737  0.6451  1.0592
 8067TIP3   OH248395   2.895   1.889   0.590  0.4465 -0.3479  0.3229
 8067TIP3    H148396   2.868   1.908   0.680 -1.5309  0.4663 -0.3876
 8067TIP3    H248397   2.915   1.795   0.590  1.4674 -0.1584  1.8135
 8068TIP3   OH248398   1.681   7.264   1.087  0.1900  0.0914  0.1053
 8068TIP3    H148399   1.757   7.285   1.141 -0.5259  0.7164  0.9031
 8068TIP3    H248400   1.717   7.218   1.011  1.3173  0.0529  0.6453
 8069TIP3   OH248401   5.325   0.719   8.350 -0.2418  0.0455 -0.3401
 8069TIP3    H148402   5.276   0.638   8.337  0.8900 -0.4688 -1.6376
 8069TIP3    H248403   5.411   0.702   8.312  1.4464  0.5013  2.9286
 8070TIP3   OH248404   1.655   6.179   8.919  0.4280 -0.3011 -0.0319
 8070TIP3    H148405   1.725   6.195   8.982  0.1789 -0.3696  0.2690
 8070TIP3    H248406   1.669   6.244   8.850  1.9138 -1.5181 -0.9506
 8071TIP3   OH248407   7.458   4.452   0.017 -0.6545  0.0094 -0.1349
 8071TIP3    H148408   7.479   4.379  -0.042  0.7642  0.4907 -0.2680
 8071TIP3    H248409   7.424   4.520  -0.041  0.7521  0.4869 -0.4292
 8072TIP3   OH248410   1.888   4.228   1.425  0.0024  0.6772 -0.7225
 8072TIP3    H148411   1.975   4.213   1.389  0.2149 -0.4250  0.1763
 8072TIP3    H248412   1.830   4.175   1.371  0.1099  0.2276 -0.4049
 8073TIP3   OH248413   3.220   0.072   0.432 -0.2525  0.1470  0.6422
 8073TIP3    H148414   3.235  -0.022   0.445  3.0083  0.4402 -0.0027
 8073TIP3    H248415   3.198   0.105   0.519  0.1119 -0.9934  1.1904
 8074TIP3   OH248416   3.144   5.672   2.234  0.1200 -0.1144  0.5956
 8074TIP3    H148417   3.093   5.592   2.249 -1.7107  0.9869  0.5181
 8074TIP3    H248418   3.091   5.742   2.274  0.7045  1.3158 -1.0308
 8075TIP3   OH248419   0.351   5.638   2.103 -0.5580 -0.2696 -0.0678
 8075TIP3    H148420   0.382   5.712   2.050 -1.5927 -0.0581 -0.4148
 8075TIP3    H248421   0.395   5.649   2.187 -1.2275  1.1702  0.1300
 8076TIP3   OH248422   1.791   1.901   0.205  0.1561  0.3855  0.0188
 8076TIP3    H148423   1.777   1.963   0.277 -1.8943  1.4840 -1.2066
 8076TIP3    H248424   1.864   1.937   0.155 -1.4039  2.2787 -1.0332
 8077TIP3   OH248425   4.107   7.391   2.889 -0.0715 -0.3989 -0.5018
 8077TIP3    H148426   4.142   7.480   2.886  0.5296 -0.6167  0.0278
 8077TIP3    H248427   4.180   7.336   2.917 -0.7182 -0.9195  0.2125
 8078TIP3   OH248428   2.541   0.690   1.237 -0.2847  0.0275 -0.4093
 8078TIP3    H148429   2.513   0.781   1.224  1.7393  0.7040 -0.5531
 8078TIP3    H248430   2.613   0.679   1.175  0.4620 -1.1916  0.6166
 8079TIP3   OH248431   2.574   5.946   0.266  0.7510  0.9442 -0.3705
 8079TIP3    H148432   2.635   5.933   0.339 -1.3162 -1.2135  1.0971
 8079TIP3    H248433   2.562   5.859   0.229 -0.7706  1.4532 -1.1583
 8080TIP3   OH248434   2.938   7.415   6.636 -0.2228  0.3699 -0.9700
 8080TIP3    H148435   3.018   7.459   6.608 -0.6053  0.7485 -1.4890
 8080TIP3    H248436   2.967   7.349   6.699  0.2261  2.4164  1.0943
 8081TIP3   OH248437   4.363   2.200   7.306  0.0394 -0.3263  0.3445
 8081TIP3    H148438   4.288   2.159   7.350 -3.0841  1.0379 -3.1055
 8081TIP3    H248439   4.404   2.128   7.258  0.1224 -0.8526  1.1744
 8082TIP3   OH248440   2.444   0.082   2.203 -0.2024 -0.6813 -0.4350
 8082TIP3    H148441   2.370   0.125   2.247 -0.3709  1.9428 -2.9430
 8082TIP3    H248442   2.406   0.003   2.164 -1.9420  0.8377 -2.0660
 8083TIP3   OH248443   1.414   2.301   1.606  0.1869 -0.6783  0.2652
 8083TIP3    H148444   1.490   2.312   1.663  0.1344 -2.5210  0.7821
 8083TIP3    H248445   1.452   2.274   1.522  0.4167  4.0722 -1.4096
 8084TIP3   OH248446   5.626   2.064   9.052  0.0200 -0.0018 -0.2744
 8084TIP3    H148447   5.630   2.012   9.132 -1.5971 -0.9581 -0.7687
 8084TIP3    H248448   5.703   2.036   9.001  0.4620 -0.1605  0.4697
 8085TIP3   OH248449   2.734   2.009   9.775  0.3745  0.4397 -0.2600
 8085TIP3    H148450   2.781   1.933   9.741 -0.5264  0.1578 -0.9221
 8085TIP3    H248451   2.780   2.084   9.738 -0.5277  0.1447 -2.1071
 8086TIP3   OH248452   0.282   5.239   2.472  0.2316  0.4476 -0.5568
 8086TIP3    H148453   0.310   5.293   2.546 -0.0207 -0.5868  0.3170
 8086TIP3    H248454   0.231   5.168   2.511 -0.3432  0.1530 -1.7714
 8087TIP3   OH248455   1.894   1.343   9.790  0.7580 -0.5464 -0.2064
 8087TIP3    H148456   1.955   1.413   9.814  0.2511 -0.5935  1.3464
 8087TIP3    H248457   1.848   1.322   9.872 -0.9176 -0.9357 -1.2020
 8088TIP3   OH248458   5.028   0.210   9.790  0.1132 -0.1203  0.6376
 8088TIP3    H148459   5.006   0.302   9.770 -0.1425 -0.1434  0.8115
 8088TIP3    H248460   5.095   0.188   9.726  0.2086  0.2041  0.6209
 8089TIP3   OH248461   1.254   1.838   1.574  0.2382  0.4434 -0.3697
 8089TIP3    H148462   1.319   1.828   1.643  1.2418 -1.4199 -1.5261
 8089TIP3    H248463   1.280   1.918   1.528 -0.0028  1.2806  0.8763
 8090TIP3   OH248464   3.352   1.538   9.406  0.0710 -0.0629 -0.1244
 8090TIP3    H148465   3.380   1.630   9.410  1.6982 -0.5812  1.6417
 8090TIP3    H248466   3.262   1.542   9.373  0.0631  2.1667  0.0184
 8091TIP3   OH248467   2.536   1.321   9.878  0.1999  0.0764 -0.3561
 8091TIP3    H148468   2.491   1.252   9.827  1.2120 -1.0765  0.2530
 8091TIP3    H248469   2.467   1.384   9.899 -0.4562  0.0660 -2.2583
 8092TIP3   OH248470   5.177   5.352   2.104  0.0412  0.4534  0.3932
 8092TIP3    H148471   5.188   5.430   2.051  0.0715 -0.7621 -1.4690
 8092TIP3    H248472   5.129   5.291   2.048 -0.1971 -0.7908  1.8797
 8093TIP3   OH248473   1.203   7.065   8.082  0.2374  0.3926  0.3331
 8093TIP3    H148474   1.131   7.072   8.146 -0.3007 -0.1277 -0.2062
 8093TIP3    H248475   1.226   7.156   8.063 -0.8489  0.5883 -0.1149
 8094TIP3   OH248476   2.793   4.513   2.703 -0.2696 -0.2106 -0.0195
 8094TIP3    H148477   2.781   4.602   2.671  0.2907  0.1743  0.8414
 8094TIP3    H248478   2.705   4.486   2.730 -0.6606 -0.3538 -1.3353
 8095TIP3   OH248479   4.819   0.181   0.910  0.3337  0.2052  0.8305
 8095TIP3    H148480   4.883   0.248   0.931  1.6304 -0.2803 -1.1967
 8095TIP3    H248481   4.735   0.226   0.911  1.1688  1.8850 -0.4408
 8096TIP3   OH248482   3.587   4.801   8.470 -0.2713 -0.1104  0.1987
 8096TIP3    H148483   3.538   4.728   8.431  0.6316 -0.4588 -0.3187
 8096TIP3    H248484   3.527   4.876   8.464 -0.4938 -0.3551 -1.0935
 8097TIP3   OH248485   1.463   2.713   6.694  0.2328  0.2545 -0.1268
 8097TIP3    H148486   1.551   2.683   6.716 -0.4848 -0.3068  2.4110
 8097TIP3    H248487   1.463   2.806   6.717  0.9349  1.0543 -2.9696
 8098TIP3   OH248488   4.274   5.477   1.791 -0.2473  0.2978  0.1270
 8098TIP3    H148489   4.269   5.410   1.859  0.2420  0.7533  0.6139
 8098TIP3    H248490   4.304   5.556   1.836 -2.0234  1.2093 -0.1757
 8099TIP3   OH248491   1.759   3.654   9.596 -0.2466 -0.4639 -0.2497
 8099TIP3    H148492   1.723   3.742   9.591  1.2058  0.2989  1.4588
 8099TIP3    H248493   1.772   3.628   9.505 -0.8875  0.9996 -0.7900
 8100TIP3   OH248494   1.620   2.309   1.811 -0.8281  0.3023  0.3958
 8100TIP3    H148495   1.601   2.270   1.897  0.4222  1.1415  1.0999
 8100TIP3    H248496   1.714   2.295   1.799 -1.1865 -0.8166 -1.3937
 8101TIP3   OH248497   1.579   0.062   8.340  0.4290 -0.5605  0.6784
 8101TIP3    H148498   1.491   0.101   8.338  0.8401  0.4257  1.1003
 8101TIP3    H248499   1.586   0.013   8.258 -0.5853 -0.8250  0.7389
 8102TIP3   OH248500   3.212   3.833   6.849  0.3531  0.1950 -0.1431
 8102TIP3    H148501   3.214   3.743   6.816 -1.0731  0.7159 -1.8171
 8102TIP3    H248502   3.303   3.855   6.866  0.7149 -1.5837  0.3660
 8103TIP3   OH248503   6.969   2.254   9.108  0.0973  0.0308 -0.0302
 8103TIP3    H148504   7.011   2.340   9.116 -1.5024  0.8362  0.2710
 8103TIP3    H248505   6.969   2.219   9.197  0.2040 -0.0086 -0.0457
 8104TIP3   OH248506   1.846   4.717   7.505  0.1565 -0.0776 -0.3921
 8104TIP3    H148507   1.755   4.707   7.477  0.3695  1.7976 -1.9493
 8104TIP3    H248508   1.883   4.781   7.444  1.9813  0.6878  1.4064
 8105TIP3   OH248509   0.182   2.643   0.319  0.0912 -0.1551 -0.2336
 8105TIP3    H148510   0.232   2.698   0.380 -0.3462 -0.9399  0.8707
 8105TIP3    H248511   0.248   2.587   0.279  0.2435 -0.4900  0.4647
 8106TIP3   OH248512   5.053   7.298   8.902  0.6439 -0.4006 -0.4287
 8106TIP3    H148513   5.142   7.279   8.872  0.4383  0.4521 -1.6047
 8106TIP3    H248514   5.049   7.393   8.909  0.0953 -0.4764  0.5270
 8107TIP3   OH248515   5.533   2.639   8.540  0.0848  0.2642 -0.5450
 8107TIP3    H148516   5.543   2.682   8.456 -0.6268  0.9566 -0.2805
 8107TIP3    H248517   5.557   2.706   8.605  0.6419 -0.2630 -0.1906
 8108TIP3   OH248518   1.225   0.641   0.483  0.1943 -0.4480  0.3377
 8108TIP3    H148519   1.190   0.730   0.493  1.1568 -0.3041  3.5135
 8108TIP3    H248520   1.176   0.605   0.409 -1.4919  2.1082  0.0475
 8109TIP3   OH248521   0.622   0.120   3.027  0.0035  0.3975 -0.6353
 8109TIP3    H148522   0.582   0.206   3.032 -3.5879 -1.1072 -0.3890
 8109TIP3    H248523   0.590   0.083   2.944 -2.3906 -2.2476  1.2486
 8110TIP3   OH248524   7.418   2.653   9.034  0.0812 -0.3452  0.6930
 8110TIP3    H148525   7.366   2.698   8.968  1.3916  1.3442  0.7210
 8110TIP3    H248526   7.503   2.639   8.992  0.3942 -0.7980  1.4482
 8111TIP3   OH248527   4.057   5.615   9.463  0.1022  0.2634  0.1775
 8111TIP3    H148528   4.038   5.638   9.372 -2.4140 -1.2281  0.2228
 8111TIP3    H248529   3.971   5.612   9.505  0.9827 -1.5211  1.9999
 8112TIP3   OH248530   2.701   5.764   8.436  0.2452  0.5891 -0.3340
 8112TIP3    H148531   2.629   5.822   8.461  0.0607 -0.2156  1.1085
 8112TIP3    H248532   2.678   5.734   8.348 -2.1570 -1.0447  0.7558
 8113TIP3   OH248533   2.264   4.082   8.835  0.4827 -0.5530  0.2076
 8113TIP3    H148534   2.303   4.098   8.921  2.4614 -0.4438 -0.6527
 8113TIP3    H248535   2.318   4.133   8.775 -0.4458 -1.1508 -1.1752
 8114TIP3   OH248536   2.520   3.563   1.616  0.3026 -0.0706 -0.9329
 8114TIP3    H148537   2.485   3.524   1.696 -1.4446  0.6616 -1.2910
 8114TIP3    H248538   2.603   3.518   1.601  0.3742 -0.6410  0.9474
 8115TIP3   OH248539   2.121   4.720   1.858  0.3958  0.1440  0.1355
 8115TIP3    H148540   2.041   4.723   1.807  0.8101 -0.3393 -0.5527
 8115TIP3    H248541   2.191   4.737   1.795  0.8016  1.0962  0.8221
 8116TIP3   OH248542   0.421   4.689   7.771 -0.5481 -0.0520  0.6671
 8116TIP3    H148543   0.381   4.768   7.807 -0.7632 -0.1216  0.5836
 8116TIP3    H248544   0.429   4.708   7.677 -0.0272  0.1144  0.7433
 8117TIP3   OH248545   0.673   4.944   1.339 -0.0583  0.4450  0.5373
 8117TIP3    H148546   0.591   4.935   1.291 -0.3611  0.3152  1.0703
 8117TIP3    H248547   0.648   4.932   1.431  0.5878  0.2098  0.6851
 8118TIP3   OH248548   2.845   1.891   1.150 -0.0709 -0.5981  0.1224
 8118TIP3    H148549   2.915   1.848   1.198  1.3557  1.0348 -0.4099
 8118TIP3    H248550   2.833   1.974   1.195 -0.4392 -0.1090 -0.8570
 8119TIP3   OH248551   0.691   2.471   2.425  0.1567 -0.8745 -0.2471
 8119TIP3    H148552   0.619   2.434   2.375 -0.8270 -0.2125  0.6349
 8119TIP3    H248553   0.653   2.490   2.511  0.8350  1.3563 -0.3805
 8120TIP3   OH248554   2.010   6.748   9.332  0.0803 -0.3242 -0.3911
 8120TIP3    H148555   1.952   6.813   9.292 -0.5013  0.0673  1.0296
 8120TIP3    H248556   2.097   6.786   9.324  0.0101 -0.3432 -1.4251
 8121TIP3   OH248557   6.712   5.629   9.097 -0.1784 -0.1181  0.5209
 8121TIP3    H148558   6.800   5.665   9.105 -0.2422 -0.2053  2.0433
 8121TIP3    H248559   6.699   5.617   9.003  1.1365  0.6057  0.2161
 8122TIP3   OH248560   6.164   6.515   0.679  0.0854  0.2220  0.6702
 8122TIP3    H148561   6.090   6.573   0.664  0.7197  1.3322  1.6310
 8122TIP3    H248562   6.219   6.525   0.600 -0.6114 -0.3675  0.0977
 8123TIP3   OH248563   2.830   7.130   1.838  0.2204  0.0486 -0.2117
 8123TIP3    H148564   2.879   7.200   1.796 -1.1866  0.2325 -1.6211
 8123TIP3    H248565   2.788   7.172   1.913  1.0414  0.2024  0.1790
 8124TIP3   OH248566   2.609   0.355   0.948 -0.2499  0.1075 -0.1052
 8124TIP3    H148567   2.660   0.274   0.949 -0.1943  0.1439 -0.0156
 8124TIP3    H248568   2.537   0.338   1.009  0.0520  0.3150  0.3078
 8125TIP3   OH248569   2.178   1.636   2.863 -0.5997 -0.5935  0.1024
 8125TIP3    H148570   2.102   1.579   2.861 -1.9298  1.0292  1.3805
 8125TIP3    H248571   2.172   1.688   2.782 -2.1492  1.0277  1.1815
 8126TIP3   OH248572   6.758   7.011   2.277 -0.0600  0.9060  0.1072
 8126TIP3    H148573   6.832   6.959   2.245 -0.7745  0.3469 -0.6799
 8126TIP3    H248574   6.799   7.086   2.321  0.9934 -0.3472  1.3535
 8127TIP3   OH248575   3.997   3.615   9.364  0.0951  0.3566 -0.2059
 8127TIP3    H148576   4.074   3.590   9.313 -0.5840 -0.7090 -0.7413
 8127TIP3    H248577   3.947   3.671   9.305 -0.5773 -0.6914 -0.6665
 8128TIP3   OH248578   1.366   6.582   0.034  0.1047 -0.0531 -0.7266
 8128TIP3    H148579   1.418   6.636   0.093 -1.1038 -0.3471  0.6680
 8128TIP3    H248580   1.276   6.589   0.068 -0.5514 -0.5868 -2.2749
 8129TIP3   OH248581   1.096   2.939   0.229  0.1601  0.2878 -0.5263
 8129TIP3    H148582   1.057   2.878   0.167  0.0773  0.8441 -1.0355
 8129TIP3    H248583   1.188   2.944   0.203  0.2541  0.0749 -0.2350
 8130TIP3   OH248584   6.000   1.551   8.868  0.5368  0.0789  0.0253
 8130TIP3    H148585   5.932   1.501   8.913 -0.9241  1.6125 -0.3935
 8130TIP3    H248586   5.959   1.577   8.785  1.5121  1.3536 -0.0798
 8131TIP3   OH248587   3.571   4.483   9.554  0.2338  0.0903 -0.0252
 8131TIP3    H148588   3.528   4.421   9.495  1.2182 -1.3283  0.6701
 8131TIP3    H248589   3.501   4.521   9.605 -0.4618  0.0417 -0.9145
 8132TIP3   OH248590   1.892   4.765   0.807  0.6251  0.0950 -0.2027
 8132TIP3    H148591   1.960   4.762   0.740  1.2134 -1.0522  0.4203
 8132TIP3    H248592   1.919   4.700   0.872 -0.7011  0.1228  0.4109
 8133TIP3   OH248593   6.024   6.135   9.170 -0.0533 -0.2034  0.5946
 8133TIP3    H148594   6.059   6.046   9.165  0.3403 -0.0503  0.6358
 8133TIP3    H248595   6.068   6.182   9.099  1.0068  0.3988  1.6291
 8134TIP3   OH248596   2.139   1.820   0.600  0.2541 -0.8622 -0.0320
 8134TIP3    H148597   2.214   1.762   0.604  1.7871  0.9780 -0.8207
 8134TIP3    H248598   2.143   1.871   0.682  0.6376  0.1047 -0.6320
 8135TIP3   OH248599   5.766   5.867   2.015 -0.2666 -0.0301  0.0874
 8135TIP3    H148600   5.759   5.854   1.920  0.1688 -0.6147  0.1348
 8135TIP3    H248601   5.859   5.874   2.032 -0.3151 -0.4290  0.5381
 8136TIP3   OH248602   3.176   3.132   8.138  0.1009 -0.0230 -0.7150
 8136TIP3    H148603   3.178   3.088   8.053  1.4510 -1.2731 -0.0832
 8136TIP3    H248604   3.267   3.155   8.156 -0.2724  0.9328  0.0485
 8137TIP3   OH248605   7.169   6.321   9.248  0.1126 -0.3092 -0.3591
 8137TIP3    H148606   7.131   6.390   9.195 -0.7114  1.6601  2.5419
 8137TIP3    H248607   7.124   6.241   9.221 -3.7377  1.3621  0.5195
 8138TIP3   OH248608   0.624   2.936   0.522  0.3022 -0.4217 -0.1002
 8138TIP3    H148609   0.699   2.976   0.479  0.0233  0.0974 -0.1105
 8138TIP3    H248610   0.550   2.989   0.496  0.0405 -0.4732  0.5211
 8139TIP3   OH248611   7.355   5.987   9.754  0.1935  0.3405  0.0935
 8139TIP3    H148612   7.367   6.001   9.848  0.3962 -0.3495  0.1747
 8139TIP3    H248613   7.439   5.950   9.724 -0.4793 -1.1712 -0.0081
 8140TIP3   OH248614   3.444   5.414   6.294 -0.2791  0.4968  0.0425
 8140TIP3    H148615   3.472   5.454   6.376  0.4372 -1.6391  0.9132
 8140TIP3    H248616   3.509   5.441   6.230 -0.6990  1.9724  0.2026
 8141TIP3   OH248617   4.456   2.146   0.691  0.2488 -0.0291 -0.2440
 8141TIP3    H148618   4.412   2.143   0.607 -0.6129  1.3601  0.1216
 8141TIP3    H248619   4.549   2.149   0.670  0.1611 -2.0651 -1.0577
 8142TIP3   OH248620   5.061   3.134   9.688 -0.1190 -0.1141 -0.2833
 8142TIP3    H148621   5.131   3.100   9.633 -0.2869 -1.1343  0.1132
 8142TIP3    H248622   5.053   3.226   9.663  0.2040 -0.4173 -1.5439
 8143TIP3   OH248623   1.267   5.825   1.781  0.1264 -0.5031  0.4145
 8143TIP3    H148624   1.227   5.822   1.694  0.6334 -0.1576  0.1655
 8143TIP3    H248625   1.219   5.894   1.827  0.6469  0.1494  0.0012
 8144TIP3   OH248626   6.663   1.838   7.827  0.0655  0.2630 -0.1587
 8144TIP3    H148627   6.656   1.808   7.917 -2.3399 -0.6143 -0.5804
 8144TIP3    H248628   6.728   1.780   7.788 -1.1739 -1.4653  0.2336
 8145TIP3   OH248629   0.764   0.457   3.100 -0.5748 -0.2132 -0.2436
 8145TIP3    H148630   0.684   0.472   3.049 -1.0888 -1.1070  0.2750
 8145TIP3    H248631   0.756   0.517   3.175  0.2532  1.2133 -1.2448
 8146TIP3   OH248632   2.933   3.394   9.769 -0.5741 -0.3688 -0.2860
 8146TIP3    H148633   2.976   3.454   9.709  0.3330  1.7755  2.2872
 8146TIP3    H248634   2.991   3.318   9.774  0.8610  0.7008  0.0222
 8147TIP3   OH248635   0.388   0.070   8.981 -0.4704 -0.0336 -0.4849
 8147TIP3    H148636   0.300   0.080   8.946 -1.4774 -1.8964  1.2770
 8147TIP3    H248637   0.444   0.059   8.904 -1.7720  1.0299 -1.6278
 8148TIP3   OH248638   5.168   5.828   2.494 -0.1569 -0.2655 -0.2130
 8148TIP3    H148639   5.157   5.854   2.585 -3.1357 -1.5200 -0.1254
 8148TIP3    H248640   5.109   5.885   2.445  1.5950  0.5794 -1.4655
 8149TIP3   OH248641   0.738   2.463   8.713  0.0433  0.9232 -0.0634
 8149TIP3    H148642   0.735   2.394   8.780 -0.0677  1.7049  0.7599
 8149TIP3    H248643   0.693   2.537   8.753  0.3811  1.5607 -0.8373
 8150TIP3   OH248644   5.284   0.737   9.503 -0.1626 -0.0359  0.2893
 8150TIP3    H148645   5.333   0.810   9.540 -1.8734  1.1838  0.2803
 8150TIP3    H248646   5.229   0.706   9.575 -0.1250 -0.7182  0.0337
 8151TIP3   OH248647   2.737   5.691   9.218 -0.2752  0.2263  0.3486
 8151TIP3    H148648   2.734   5.776   9.175  1.1842  0.5939  0.9181
 8151TIP3    H248649   2.814   5.648   9.182  0.4221  0.1494  1.8557
 8152TIP3   OH248650   2.913   7.117   1.560  0.2792  0.1905 -0.0564
 8152TIP3    H148651   2.934   7.063   1.483 -0.2822  0.7254 -0.5925
 8152TIP3    H248652   2.873   7.056   1.622  1.3016 -0.3777  0.0799
 8153TIP3   OH248653   0.508   0.003   1.633  0.1669  0.2229 -0.0980
 8153TIP3    H148654   0.534  -0.087   1.612 -0.6585 -0.3620  1.2718
 8153TIP3    H248655   0.442  -0.006   1.702  1.1352  1.9411  1.1250
 8154TIP3   OH248656   2.409   0.173   7.494  0.1472  0.0783  0.1089
 8154TIP3    H148657   2.402   0.244   7.558 -2.5714 -0.5385  0.6077
 8154TIP3    H248658   2.366   0.206   7.416 -1.1376 -0.9545  0.3443
 8155TIP3   OH248659   5.287   4.282   2.143  0.2145 -0.2170  0.2006
 8155TIP3    H148660   5.338   4.203   2.162  1.0202 -0.5617 -2.8271
 8155TIP3    H248661   5.349   4.354   2.155  0.0880 -0.2181  0.8971
 8156TIP3   OH248662   5.783   2.642   9.415  0.5870  0.2454  0.9086
 8156TIP3    H148663   5.857   2.702   9.404 -0.1691  1.1122  0.3963
 8156TIP3    H248664   5.763   2.610   9.327  0.7249 -0.4582  1.1222
 8157TIP3   OH248665   3.177   3.723   8.596 -0.0939 -0.2182  0.9379
 8157TIP3    H148666   3.221   3.643   8.626  1.7693  0.0978 -0.6932
 8157TIP3    H248667   3.107   3.691   8.539 -1.0879 -0.7104  2.3842
 8158TIP3   OH248668   0.444   6.220   7.976  0.2617 -0.1161  0.1171
 8158TIP3    H148669   0.479   6.198   8.062  3.9490 -1.9453 -1.5731
 8158TIP3    H248670   0.521   6.215   7.918 -1.9442  1.3630 -3.2224
 8159TIP3   OH248671   1.198   0.183   6.587  0.2421  0.2966 -0.3357
 8159TIP3    H148672   1.222   0.254   6.527 -2.4743  0.2809 -1.5588
 8159TIP3    H248673   1.198   0.225   6.673 -0.5282  1.6002 -0.9393
 8160TIP3   OH248674   3.315   1.788   9.668 -0.0990 -0.4928 -0.3642
 8160TIP3    H148675   3.276   1.874   9.653 -2.3626 -1.3289  0.2887
 8160TIP3    H248676   3.366   1.770   9.589  0.3469  1.3842 -0.5445
 8161TIP3   OH248677   2.893   3.085   2.509  0.7520  0.7027  0.3279
 8161TIP3    H148678   2.882   2.991   2.493 -0.6763  0.8973 -0.0495
 8161TIP3    H248679   2.977   3.093   2.553  1.1386 -0.6985 -0.1126
 8162TIP3   OH248680   1.683   2.732   1.578 -0.6872  0.7604  0.0580
 8162TIP3    H148681   1.760   2.694   1.536 -1.1702  0.0072 -0.1711
 8162TIP3    H248682   1.676   2.820   1.540 -0.2372  0.6464 -0.2967
 8163TIP3   OH248683   6.059   3.126   1.636  0.5533  0.2762  0.1043
 8163TIP3    H148684   6.035   3.034   1.647 -1.0027  0.7397  0.9498
 8163TIP3    H248685   6.127   3.126   1.569 -0.4033 -1.3636 -0.9270
 8164TIP3   OH248686   4.664   6.262   0.788 -0.0108 -0.2561 -0.0150
 8164TIP3    H148687   4.672   6.179   0.836  1.1893 -0.5335 -0.6834
 8164TIP3    H248688   4.572   6.287   0.800 -0.7188 -2.2993 -0.8114
 8165TIP3   OH248689   2.341   1.508   8.979  0.0041 -0.6870  0.0576
 8165TIP3    H148690   2.373   1.418   8.971 -0.1335 -0.8322  1.0093
 8165TIP3    H248691   2.252   1.499   9.012  0.0038 -0.2015  0.1992
 8166TIP3   OH248692   3.968   7.182   6.654  0.2563  0.5668 -0.3154
 8166TIP3    H148693   3.889   7.219   6.614  0.6206 -0.3615 -2.0133
 8166TIP3    H248694   3.935   7.117   6.715 -0.3117  0.6286 -0.5422
 8167TIP3   OH248695   3.330   2.953   9.262 -0.1675 -0.1541 -0.9225
 8167TIP3    H148696   3.277   2.913   9.193 -1.4486  0.6743 -0.4499
 8167TIP3    H248697   3.297   3.042   9.269 -0.6267 -0.4380  1.3027
 8168TIP3   OH248698   3.277   6.263   8.351 -0.0136  0.1575  0.5581
 8168TIP3    H148699   3.186   6.271   8.380 -0.8375  0.9861 -1.9829
 8168TIP3    H248700   3.298   6.170   8.363 -2.3735 -0.8123 -1.7708
 8169TIP3   OH248701   3.063   7.236   8.308 -0.0993 -0.0170 -0.5095
 8169TIP3    H148702   3.029   7.207   8.393  0.3039 -0.7730 -0.6009
 8169TIP3    H248703   2.993   7.291   8.272 -1.2632 -1.5643 -0.7154
 8170TIP3   OH248704   2.275   3.898   9.739  0.0530  0.8672  0.5977
 8170TIP3    H148705   2.267   3.992   9.755  0.9284  1.4233 -1.8506
 8170TIP3    H248706   2.338   3.891   9.667 -0.9870 -1.5114 -0.1867
 8171TIP3   OH248707   6.360   4.172   9.105  0.4736 -0.2635  0.1632
 8171TIP3    H148708   6.443   4.161   9.058  1.4791  0.4072  1.7204
 8171TIP3    H248709   6.374   4.128   9.189 -1.1924 -1.1984  0.0112
 8172TIP3   OH248710   7.108   3.806   2.156  0.2951 -0.3219 -0.1494
 8172TIP3    H148711   7.017   3.799   2.128  0.5628 -1.2243 -0.8489
 8172TIP3    H248712   7.105   3.790   2.250 -0.4410  1.2654  0.1269
 8173TIP3   OH248713   5.252   0.434   9.802  0.0894  0.2675 -0.2492
 8173TIP3    H148714   5.272   0.527   9.815 -0.0130  0.5476 -1.8395
 8173TIP3    H248715   5.258   0.422   9.707  0.8715 -1.5305 -0.0191
 8174TIP3   OH248716   3.225   5.839   7.861 -0.0344 -0.3288  1.0729
 8174TIP3    H148717   3.134   5.840   7.891 -0.0423  0.6558  1.0436
 8174TIP3    H248718   3.254   5.930   7.868 -0.1320  0.0841 -2.1743
 8175TIP3   OH248719   0.458   6.191   8.260 -0.2803 -0.6552 -0.6325
 8175TIP3    H148720   0.536   6.228   8.301  0.7047  0.5746 -3.3637
 8175TIP3    H248721   0.399   6.173   8.333  1.2753  1.4522  1.3006
 8176TIP3   OH248722   5.774   1.512   9.070  0.3357  0.4177 -0.0888
 8176TIP3    H148723   5.858   1.495   9.113  0.7245 -1.9110 -1.6158
 8176TIP3    H248724   5.725   1.431   9.080 -1.5848  1.5590  0.3203
 8177TIP3   OH248725   1.910   5.698   0.154  0.0488  0.2196  0.0882
 8177TIP3    H148726   1.997   5.709   0.117  0.1971 -0.2033  0.2998
 8177TIP3    H248727   1.852   5.743   0.093  0.4176  0.5212 -0.0429
 8178TIP3   OH248728   3.014   3.602   9.134 -0.0549  0.1820 -0.2487
 8178TIP3    H148729   3.005   3.640   9.046 -1.2013  1.0205  0.2104
 8178TIP3    H248730   2.929   3.617   9.175  0.5452  0.0058  1.0876
 8179TIP3   OH248731   0.518   1.859   1.210 -0.3225  0.6386 -0.2328
 8179TIP3    H148732   0.500   1.882   1.119  0.0658  0.8996 -0.2516
 8179TIP3    H248733   0.612   1.875   1.220 -0.5633  1.7032  0.5124
 8180TIP3   OH248734   6.343   2.333   0.672 -0.4389 -0.0353 -0.0921
 8180TIP3    H148735   6.406   2.402   0.651 -1.0222  0.5125 -0.0739
 8180TIP3    H248736   6.361   2.263   0.608  0.7136 -0.2352  0.4262
 8181TIP3   OH248737   1.892   6.528   1.710  0.0102 -0.1874 -0.9933
 8181TIP3    H148738   1.944   6.594   1.666  0.1081 -0.3351 -1.0976
 8181TIP3    H248739   1.950   6.453   1.720  0.1590  0.0281 -0.1360
 8182TIP3   OH248740   1.854   1.405   3.422  0.1379  0.3364  0.2371
 8182TIP3    H148741   1.949   1.394   3.418  0.2911  0.2132  2.5027
 8182TIP3    H248742   1.819   1.317   3.417  0.2558  0.2445  0.9367
 8183TIP3   OH248743   1.970   6.673   9.727 -1.1690 -0.4138  0.2780
 8183TIP3    H148744   2.030   6.634   9.791 -0.2365  0.6145  0.0750
 8183TIP3    H248745   1.959   6.763   9.758  2.9222  1.6758 -3.2046
 8184TIP3   OH248746   3.420   1.178   8.701 -0.0823  0.0319 -0.3455
 8184TIP3    H148747   3.374   1.107   8.747 -0.8477  0.1149 -0.9497
 8184TIP3    H248748   3.419   1.251   8.762  0.3490 -0.3462  0.1244
 8185TIP3   OH248749   7.097   3.746   9.028  0.0567  0.1272  0.4173
 8185TIP3    H148750   7.127   3.695   8.953  0.6258 -1.3796  1.5999
 8185TIP3    H248751   7.005   3.763   9.011 -0.0204 -0.8895 -0.2697
 8186TIP3   OH248752   0.184   3.809   8.444  0.5111 -0.2125  0.2770
 8186TIP3    H148753   0.155   3.871   8.378  0.6961 -0.4234 -0.0068
 8186TIP3    H248754   0.177   3.724   8.402  0.1904 -0.3907  0.6886
 8187TIP3   OH248755   3.735   3.019   1.653  0.0575  0.2101  0.0988
 8187TIP3    H148756   3.642   3.025   1.629 -0.0919 -1.4536  0.1135
 8187TIP3    H248757   3.782   3.046   1.574 -0.4468 -4.1396 -1.9965
 8188TIP3   OH248758   3.532   0.449   9.516 -0.0727 -0.5080  0.5009
 8188TIP3    H148759   3.499   0.381   9.574 -1.0787 -1.2387 -0.8676
 8188TIP3    H248760   3.559   0.520   9.575  0.0775 -1.6827  1.8994
 8189TIP3   OH248761   1.910   0.493   3.761 -0.6609  0.4126 -0.3481
 8189TIP3    H148762   1.881   0.483   3.671 -0.7283  1.6785 -0.4861
 8189TIP3    H248763   1.858   0.565   3.796 -0.2856  0.2717  0.5512
 8190TIP3   OH248764   2.043   0.433   0.516 -0.7457 -0.3553 -0.4479
 8190TIP3    H148765   2.007   0.372   0.580 -1.2334 -0.7617 -1.0905
 8190TIP3    H248766   2.053   0.516   0.564 -0.5494 -0.8041  0.2955
 8191TIP3   OH248767   4.425   2.895   8.091 -0.5228 -0.2008 -0.5598
 8191TIP3    H148768   4.408   2.825   8.154  0.9379  0.1232  0.2347
 8191TIP3    H248769   4.443   2.972   8.144  2.8235 -0.3799 -1.2215
 8192TIP3   OH248770   2.442   4.993   0.188  0.3910  0.2359  0.2570
 8192TIP3    H148771   2.497   5.012   0.263  1.0599  0.9698 -0.4011
 8192TIP3    H248772   2.355   4.977   0.225  0.7040  0.6267  1.1792
 8193TIP3   OH248773   2.828   2.936   0.124 -0.2782 -0.6360 -0.7945
 8193TIP3    H148774   2.910   2.906   0.083  0.2460 -2.5521  1.4465
 8193TIP3    H248775   2.850   3.022   0.160 -0.4382  0.5925 -3.3946
 8194TIP3   OH248776   2.672   1.448   0.768  0.0270 -0.1470  0.4078
 8194TIP3    H148777   2.657   1.373   0.711  1.4131 -0.6867  0.6935
 8194TIP3    H248778   2.768   1.452   0.777 -0.0885  0.8783  1.4200
 8195TIP3   OH248779   1.011   2.913   0.631  0.0798 -0.0093  0.5208
 8195TIP3    H148780   1.053   2.828   0.637  1.0326  0.4917  1.1783
 8195TIP3    H248781   1.077   2.970   0.592 -0.3225  0.5735  0.6716
 8196TIP3   OH248782   1.480   1.742   0.616  0.2263  0.1654  0.3186
 8196TIP3    H148783   1.516   1.679   0.552  2.9743  3.2759 -1.5491
 8196TIP3    H248784   1.509   1.708   0.701  2.0649 -0.8626 -0.6409
 8197TIP3   OH248785   7.286   7.398   1.189  0.5142  0.0819 -0.6080
 8197TIP3    H148786   7.248   7.441   1.112 -0.1703 -0.8540 -0.8173
 8197TIP3    H248787   7.267   7.457   1.262  0.2544  0.4844 -0.9971
 8198TIP3   OH248788   1.180   6.573   9.276  0.8832  0.3060 -0.3453
 8198TIP3    H148789   1.240   6.501   9.257  1.4986  1.6365 -4.2429
 8198TIP3    H248790   1.236   6.643   9.311  0.6341 -0.2466  1.2532
 8199TIP3   OH248791   3.961   5.797   2.889  0.1318 -0.2548 -0.6302
 8199TIP3    H148792   3.903   5.757   2.954 -0.7700 -1.4656 -2.0973
 8199TIP3    H248793   4.037   5.827   2.939 -0.2813 -1.6130  0.9006
 8200TIP3   OH248794   3.023   6.077   7.265 -0.0555 -0.2125 -0.1039
 8200TIP3    H148795   3.089   6.126   7.314  0.3074  1.8410 -2.4298
 8200TIP3    H248796   3.063   6.063   7.179 -1.5930 -1.4528 -0.6653
 8201TIP3   OH248797   4.283   2.570   7.918 -0.1161  0.1740  0.1125
 8201TIP3    H148798   4.295   2.515   7.840 -0.1029  1.5822 -0.9067
 8201TIP3    H248799   4.325   2.520   7.988  1.1022 -0.5025 -1.0388
 8202TIP3   OH248800   4.544   2.990   7.264  0.1952 -0.0489  0.3257
 8202TIP3    H148801   4.545   3.069   7.211 -1.1181 -0.3853 -0.2182
 8202TIP3    H248802   4.464   2.996   7.316 -0.5942 -1.5849 -0.6323
 8203TIP3   OH248803   5.074   6.825   8.145 -0.4764  0.2902 -0.2630
 8203TIP3    H148804   5.016   6.768   8.197 -1.9653  2.0521  0.1110
 8203TIP3    H248805   5.139   6.765   8.109 -1.1947 -1.4574  1.1509
 8204TIP3   OH248806   3.070   0.848   1.720 -0.1763 -0.1190  0.0521
 8204TIP3    H148807   3.107   0.868   1.806 -0.0171 -0.1376 -0.0119
 8204TIP3    H248808   3.090   0.925   1.667 -0.0564 -0.2134 -0.0383
 8205TIP3   OH248809   6.852   1.094   0.607 -0.3175 -0.1888 -0.7018
 8205TIP3    H148810   6.828   1.150   0.533  0.0317 -0.6724 -1.1918
 8205TIP3    H248811   6.854   1.153   0.682  1.8594  0.8516 -1.5083
 8206TIP3   OH248812   6.819   7.384   8.925  0.0199 -0.0515 -0.4686
 8206TIP3    H148813   6.912   7.405   8.922 -0.2944  1.4638 -0.7726
 8206TIP3    H248814   6.802   7.337   8.844  1.0418 -3.0472  0.8916
 8207TIP3   OH248815   4.187   3.382   7.727 -0.3725 -0.1975  0.2566
 8207TIP3    H148816   4.158   3.336   7.806  0.9622 -2.8019 -0.6319
 8207TIP3    H248817   4.231   3.314   7.675  0.1174  1.7528 -2.0480
 8208TIP3   OH248818   6.620   2.540   0.169  0.6091 -0.2561 -0.1638
 8208TIP3    H148819   6.656   2.458   0.133  3.3249  0.8637 -0.2534
 8208TIP3    H248820   6.635   2.604   0.100  1.4529  0.9294  1.0677
 8209TIP3   OH248821   2.834   5.408   2.835 -0.0881 -0.3654 -0.0280
 8209TIP3    H148822   2.856   5.463   2.910  0.8052 -0.0240 -0.5147
 8209TIP3    H248823   2.790   5.467   2.774  0.9900 -0.1159 -0.6081
 8210TIP3   OH248824   0.681   1.937   0.760  0.0226  0.2210  0.2867
 8210TIP3    H148825   0.717   1.989   0.688  1.2298 -0.4562  0.3691
 8210TIP3    H248826   0.602   1.983   0.786 -0.1864  0.7472 -1.1633
 8211TIP3   OH248827   2.119   7.105   2.782  0.0863 -0.1156 -0.4964
 8211TIP3    H148828   2.054   7.093   2.850 -0.6285  0.0364 -1.1386
 8211TIP3    H248829   2.201   7.119   2.829 -0.3428 -0.2827  0.3191
 8212TIP3   OH248830   3.226   4.875   1.451  0.8840 -0.5284 -0.0892
 8212TIP3    H148831   3.181   4.809   1.503 -0.4651  1.2779  1.1689
 8212TIP3    H248832   3.269   4.931   1.516 -0.8861  1.8294 -0.8086
 8213TIP3   OH248833   0.941   4.634   0.847 -0.0156  0.0624  0.2600
 8213TIP3    H148834   1.005   4.693   0.887  1.2878  0.2173 -1.8764
 8213TIP3    H248835   0.871   4.692   0.818 -0.5566  0.0512  1.4799
 8214TIP3   OH248836   0.345   4.352   2.491 -0.2465 -0.0346  0.2243
 8214TIP3    H148837   0.438   4.364   2.471 -0.3971 -0.5926 -0.9249
 8214TIP3    H248838   0.343   4.309   2.576  0.5622 -0.5139  0.0029
 8215TIP3   OH248839   6.560   5.459   8.147  0.2473  0.2573  0.0282
 8215TIP3    H148840   6.564   5.447   8.242 -0.2252 -1.9365 -0.1700
 8215TIP3    H248841   6.620   5.393   8.112 -0.2427  0.4338 -1.2149
 8216TIP3   OH248842   2.882   2.691   1.662  0.5448 -0.0404 -0.1709
 8216TIP3    H148843   2.925   2.640   1.594 -0.5774 -0.0159 -0.9162
 8216TIP3    H248844   2.809   2.733   1.618  0.3243  0.6851  0.8608
 8217TIP3   OH248845   4.041   0.183   7.273  0.1298 -0.4134  0.1927
 8217TIP3    H148846   3.980   0.238   7.223 -0.6651 -0.9823  0.5144
 8217TIP3    H248847   4.104   0.151   7.208  1.2226  1.6533  0.1579
 8218TIP3   OH248848   3.047   6.930   0.104  0.2556 -0.9759  0.5228
 8218TIP3    H148849   3.126   6.977   0.134 -0.1424 -0.0356  0.1275
 8218TIP3    H248850   3.068   6.904   0.015 -0.3703  0.4699 -0.0752
 8219TIP3   OH248851   4.414   4.636   2.334 -0.8131  0.3015 -0.2216
 8219TIP3    H148852   4.467   4.711   2.359 -2.2515  1.1495  0.3934
 8219TIP3    H248853   4.324   4.664   2.348 -1.4028 -1.4664 -0.1882
 8220TIP3   OH248854   6.762   5.652   8.332 -0.5904  0.0195 -0.1584
 8220TIP3    H148855   6.700   5.657   8.404  0.9145 -0.5511  1.2427
 8220TIP3    H248856   6.763   5.559   8.308  0.3679 -0.1352  0.4430
 8221TIP3   OH248857   5.706   0.290   0.858 -0.4788  0.1639 -0.2229
 8221TIP3    H148858   5.728   0.201   0.832 -0.6113 -1.0729  3.3458
 8221TIP3    H248859   5.627   0.312   0.808 -1.3473 -2.3541 -0.0638
 8222TIP3   OH248860   0.884   6.355   1.394  0.3072  1.1008  0.7620
 8222TIP3    H148861   0.923   6.321   1.313 -0.0747  0.5246  0.8143
 8222TIP3    H248862   0.834   6.432   1.365 -0.8459  0.1780  0.2373
 8223TIP3   OH248863   3.902   3.484   7.629 -0.0495 -0.2469 -0.2391
 8223TIP3    H148864   3.975   3.447   7.679  0.9632  1.1506 -0.6135
 8223TIP3    H248865   3.903   3.577   7.651 -2.8270 -0.4399  1.0484
 8224TIP3   OH248866   3.709   5.892   7.351  0.2033 -0.2255 -0.4450
 8224TIP3    H148867   3.625   5.848   7.366  0.5293 -1.3715 -1.7808
 8224TIP3    H248868   3.690   5.960   7.287  0.4235 -1.0356 -1.3946
 8225TIP3   OH248869   4.196   0.095   7.665  0.3698  0.2299  0.2397
 8225TIP3    H148870   4.281   0.138   7.657  0.9560 -1.2565 -3.8855
 8225TIP3    H248871   4.217   0.002   7.667 -1.1395 -0.1457 -0.4375
 8226TIP3   OH248872   6.772   6.966   0.808 -0.2858 -0.0901 -0.0196
 8226TIP3    H148873   6.758   7.041   0.751  1.8067  1.1837  1.0316
 8226TIP3    H248874   6.686   6.948   0.845 -0.9624  1.3597 -0.7998
 8227TIP3   OH248875   3.302   4.469   9.018 -0.1274  0.2298  0.0737
 8227TIP3    H148876   3.388   4.499   9.046 -0.4363  0.0109  1.3702
 8227TIP3    H248877   3.317   4.382   8.981  0.2497  0.3028  0.0583
 8228TIP3   OH248878   5.951   2.398   9.465 -0.5524  0.5698  0.3564
 8228TIP3    H148879   5.902   2.480   9.462  0.7905  1.3977 -0.2854
 8228TIP3    H248880   6.003   2.404   9.545 -1.7837 -0.5043  1.2732
 8229TIP3   OH248881   4.125   7.402   1.872  0.3174 -0.3073  0.0458
 8229TIP3    H148882   4.213   7.364   1.872  0.4637  0.0236 -0.4675
 8229TIP3    H248883   4.072   7.339   1.822  1.0216  1.1578 -2.7392
 8230TIP3   OH248884   6.547   1.475   8.846  0.4983 -0.8475 -0.6153
 8230TIP3    H148885   6.531   1.381   8.834 -0.9565 -0.7423  0.2362
 8230TIP3    H248886   6.519   1.493   8.936  0.6327  0.4302 -0.8117
 8231TIP3   OH248887   6.730   3.648   1.505  0.3246 -0.2133 -0.1779
 8231TIP3    H148888   6.640   3.643   1.474  0.0066 -1.5581  0.8819
 8231TIP3    H248889   6.782   3.612   1.433 -0.1196 -0.7233 -0.2455
 8232TIP3   OH248890   1.247   2.292   2.281  0.0367  0.2242 -0.4824
 8232TIP3    H148891   1.258   2.358   2.349 -0.3543  0.4071 -0.5968
 8232TIP3    H248892   1.154   2.270   2.283 -0.2660  1.2632 -1.8986
 8233TIP3   OH248893   4.688   5.090   1.969  0.3932  0.2799 -0.6860
 8233TIP3    H148894   4.779   5.063   1.976  0.4155  0.7028  1.4346
 8233TIP3    H248895   4.638   5.008   1.971  0.6635  0.1288  0.1201
 8234TIP3   OH248896   7.185   2.784   2.020 -0.2826  0.0817  0.1113
 8234TIP3    H148897   7.177   2.724   1.946  0.7565  1.0883 -0.8444
 8234TIP3    H248898   7.202   2.727   2.095  2.5764 -0.7850 -1.0599
 8235TIP3   OH248899   4.601   3.199   0.679 -0.2779  0.3566  0.3279
 8235TIP3    H148900   4.565   3.142   0.611  1.0271 -0.0998 -0.0233
 8235TIP3    H248901   4.579   3.155   0.761 -0.7966  0.2594  0.1376
 8236TIP3   OH248902   6.857   1.411   8.412  0.0081  0.2565 -0.2295
 8236TIP3    H148903   6.859   1.506   8.421  1.6470  0.2139  0.2438
 8236TIP3    H248904   6.764   1.389   8.409 -0.4090  1.7880  0.5189
 8237TIP3   OH248905   1.562   1.583   9.174  0.2837  0.6049  0.4336
 8237TIP3    H148906   1.500   1.654   9.158  0.5146  0.4869 -1.1781
 8237TIP3    H248907   1.518   1.528   9.239 -1.9196 -0.1340 -1.5138
 8238TIP3   OH248908   5.715   4.866   0.457 -0.3570  0.0434 -0.3438
 8238TIP3    H148909   5.784   4.820   0.505 -1.2152 -0.1844  0.7201
 8238TIP3    H248910   5.734   4.959   0.471 -2.8811  0.1643  4.1922
 8239TIP3   OH248911   3.704   0.661   9.101 -0.5873 -0.2232  0.4085
 8239TIP3    H148912   3.616   0.622   9.094  0.1040 -1.8534  0.3401
 8239TIP3    H248913   3.741   0.651   9.013 -0.9746  2.1654 -0.0839
 8240TIP3   OH248914   2.083   5.934   1.952  0.1533 -0.3150  0.0641
 8240TIP3    H148915   2.091   5.852   1.903 -0.5363 -0.4211  0.1116
 8240TIP3    H248916   2.036   5.992   1.892  1.2511  0.2882 -0.2431
 8241TIP3   OH248917   3.153   1.519   7.920 -0.3758 -0.0709  0.0378
 8241TIP3    H148918   3.079   1.508   7.979 -0.0737 -0.2403  0.3870
 8241TIP3    H248919   3.168   1.614   7.918 -1.2257  0.0641 -0.8133
 8242TIP3   OH248920   3.553   5.572   2.081 -0.7226  0.1346  0.0965
 8242TIP3    H148921   3.547   5.633   2.008  0.0463 -0.4548 -0.4751
 8242TIP3    H248922   3.520   5.621   2.156 -1.3968  0.7902 -0.6140
 8243TIP3   OH248923   6.747   3.287   0.448  0.0032  0.2771 -0.9536
 8243TIP3    H148924   6.773   3.227   0.377  0.8557 -1.1813  0.5106
 8243TIP3    H248925   6.830   3.312   0.489 -0.4915  0.9427 -0.3346
 8244TIP3   OH248926   0.988   2.122   2.195 -0.4595  0.4247 -0.1051
 8244TIP3    H148927   1.018   2.127   2.104  0.6591  2.4218  0.3335
 8244TIP3    H248928   0.951   2.208   2.213  0.0529  0.3267  1.5788
 8245TIP3   OH248929   0.442   2.162   9.585  0.4501 -0.1204 -0.5962
 8245TIP3    H148930   0.365   2.111   9.562 -2.2690  2.5802  1.6088
 8245TIP3    H248931   0.499   2.101   9.631 -1.9606 -1.5545  0.6691
 8246TIP3   OH248932   0.135   2.903   1.895 -0.9941  0.3394 -0.7887
 8246TIP3    H148933   0.137   2.915   1.990 -0.4572  0.9318 -0.8618
 8246TIP3    H248934   0.196   2.831   1.879 -1.8445 -0.4424 -0.6101
 8247TIP3   OH248935   3.247   4.087   6.980 -0.2100 -0.2005  0.0660
 8247TIP3    H148936   3.250   4.168   7.033  2.7239  0.8577 -1.4858
 8247TIP3    H248937   3.300   4.025   7.030  2.1220  0.6356 -1.2453
 8248TIP3   OH248938   1.660   0.109   1.079  0.7542  0.0314 -0.5041
 8248TIP3    H148939   1.755   0.115   1.065  0.8123  1.6742  0.3392
 8248TIP3    H248940   1.621   0.152   1.003  0.7367  0.3658 -0.3094
 8249TIP3   OH248941   6.980   5.072   0.982  0.1802  1.0179 -0.2531
 8249TIP3    H148942   6.927   5.115   0.915  0.1916  1.0580 -0.2361
 8249TIP3    H248943   7.010   4.991   0.940  0.0705  0.9745 -0.2478
 8250TIP3   OH248944   0.810   2.976   7.986 -0.2862  0.1156  0.5734
 8250TIP3    H148945   0.895   2.961   8.028 -0.0713 -1.3408 -0.2982
 8250TIP3    H248946   0.754   2.907   8.021 -0.7110  0.2224  0.1130
 8251TIP3   OH248947   0.695   0.119   9.819  0.3262  0.3951 -0.1379
 8251TIP3    H148948   0.738   0.055   9.876 -0.4277 -0.7481 -0.8152
 8251TIP3    H248949   0.756   0.193   9.816  2.4925 -1.3176 -1.4191
 8252TIP3   OH248950   1.416   0.324   2.000 -0.1126  0.3338  0.1301
 8252TIP3    H148951   1.475   0.384   2.046 -0.4331 -1.1871  2.7183
 8252TIP3    H248952   1.341   0.315   2.059 -0.8555 -1.2858 -0.9869
 8253TIP3   OH248953   4.369   4.468   0.006  0.5463 -0.1083 -0.2211
 8253TIP3    H148954   4.394   4.461   0.098  1.4469 -1.5011 -0.5374
 8253TIP3    H248955   4.340   4.380  -0.018 -2.9178  0.9275 -0.4387
 8254TIP3   OH248956   2.696   1.869   0.035  0.1078 -0.3964 -0.2241
 8254TIP3    H148957   2.768   1.902   0.090 -0.1723 -0.8975  0.4521
 8254TIP3    H248958   2.731   1.872  -0.054  0.1357  1.6127 -0.1835
 8255TIP3   OH248959   5.520   7.251   0.613  0.3370 -0.4056  0.8744
 8255TIP3    H148960   5.476   7.336   0.620 -0.8357 -1.0097  1.0488
 8255TIP3    H248961   5.572   7.257   0.533 -0.1553  0.2928  0.5970
 8256TIP3   OH248962   5.284   4.428   2.858 -0.4157 -0.1701 -0.4934
 8256TIP3    H148963   5.219   4.453   2.793 -1.6286  1.5062  1.2582
 8256TIP3    H248964   5.236   4.425   2.941  1.0328 -2.3959  0.3516
 8257TIP3   OH248965   5.145   6.944   0.005 -0.1781  0.3793  0.1321
 8257TIP3    H148966   5.188   6.962  -0.079 -0.8255 -0.6890 -0.4618
 8257TIP3    H248967   5.217   6.934   0.067  0.4450 -0.7515 -0.7168
 8258TIP3   OH248968   2.131   0.474   8.806 -0.7738 -0.3655 -0.9795
 8258TIP3    H148969   2.054   0.419   8.787 -1.5372 -0.4033  1.7429
 8258TIP3    H248970   2.094   0.559   8.830  0.0621 -0.1490 -0.4119
 8259TIP3   OH248971   3.421   6.757   6.629 -0.1509 -0.2466  0.2783
 8259TIP3    H148972   3.460   6.843   6.613  0.4095 -0.6205 -0.4308
 8259TIP3    H248973   3.349   6.774   6.690 -0.7051  0.8711 -0.6491
 8260TIP3   OH248974   5.141   1.000   7.021 -0.3342 -0.1178 -0.3377
 8260TIP3    H148975   5.231   0.989   7.053 -0.8425 -0.9147  0.8774
 8260TIP3    H248976   5.152   1.038   6.933  1.1972 -0.5866 -0.3857
 8261TIP3   OH248977   5.238   0.290   0.940  0.1170 -0.6101  0.2411
 8261TIP3    H148978   5.276   0.369   0.978 -1.3913  0.5697 -0.6226
 8261TIP3    H248979   5.247   0.224   1.009  2.2452  0.0164  0.6449
 8262TIP3   OH248980   2.154   6.870   0.799 -0.4414 -0.0283  0.0737
 8262TIP3    H148981   2.131   6.890   0.890 -2.9642 -0.2453 -0.4314
 8262TIP3    H248982   2.152   6.775   0.794 -1.2113  0.0086 -0.4034
 8263TIP3   OH248983   1.489   0.074   1.316  0.3236 -0.2021 -0.2873
 8263TIP3    H148984   1.518  -0.017   1.324  0.2240 -0.2416 -0.3804
 8263TIP3    H248985   1.550   0.114   1.253  2.1369  0.5345  1.8077
 8264TIP3   OH248986   2.000   2.292   8.109  0.5423 -0.1428 -0.1208
 8264TIP3    H148987   2.007   2.209   8.156  2.1043 -0.3143 -0.5713
 8264TIP3    H248988   1.963   2.353   8.173  1.3018 -0.7122  0.9010
 8265TIP3   OH248989   1.325   5.722   1.207  0.2668  0.2537 -0.0799
 8265TIP3    H148990   1.362   5.800   1.247 -0.9874  1.2602 -0.8183
 8265TIP3    H248991   1.336   5.653   1.273  0.5349  1.2659  0.9540
 8266TIP3   OH248992   6.720   1.725   8.904  0.4343  0.0137 -0.5995
 8266TIP3    H148993   6.731   1.682   8.989 -1.1401  0.1774 -0.2800
 8266TIP3    H248994   6.660   1.669   8.856 -0.8717  1.3018 -0.5390
 8267TIP3   OH248995   2.032   1.969   0.063 -0.2491  0.0270  0.3584
 8267TIP3    H148996   2.033   1.979  -0.032  1.3303  0.4780  0.4001
 8267TIP3    H248997   2.092   1.896   0.080  1.2477  1.3607  1.1187
 8268TIP3   OH248998   5.293   1.009   2.619 -0.3801 -0.2372  0.1951
 8268TIP3    H148999   5.382   1.011   2.652 -0.1926 -1.5467 -0.1536
 8268TIP3    H249000   5.259   1.097   2.632  0.9553  0.2591  0.3508
 8269TIP3   OH249001   4.448   5.132   7.366  0.0592  0.4177  0.5466
 8269TIP3    H149002   4.425   5.040   7.379 -0.6168  0.6091  0.7796
 8269TIP3    H249003   4.507   5.152   7.439 -0.0099  0.2436  0.6519
 8270TIP3   OH249004   2.851   3.262   8.039  0.2390  0.1543  0.1878
 8270TIP3    H149005   2.883   3.184   7.994 -0.8889  0.1063 -0.5787
 8270TIP3    H249006   2.756   3.261   8.024  0.2757  2.0192 -0.4331
 8271TIP3   OH249007   1.656   1.963   0.862 -0.5485  0.2513 -0.1742
 8271TIP3    H149008   1.624   1.873   0.855  1.3740 -0.5839  0.8603
 8271TIP3    H249009   1.577   2.016   0.870 -1.7108 -1.5187  0.8214
 8272TIP3   OH249010   5.384   1.257   7.714 -0.0269 -0.2237  0.1318
 8272TIP3    H149011   5.419   1.293   7.795  0.3097 -0.2844  0.0162
 8272TIP3    H249012   5.289   1.256   7.726 -0.0082  0.2531  0.3228
 8273TIP3   OH249013   0.795   5.801   2.689 -0.2277 -0.5841 -0.3159
 8273TIP3    H149014   0.705   5.769   2.693 -0.2206 -0.5218  2.1428
 8273TIP3    H249015   0.786   5.895   2.674 -0.5013 -0.7524 -1.2669
 8274TIP3   OH249016   0.247   1.392   9.554  0.2784 -0.5004  0.0692
 8274TIP3    H149017   0.272   1.400   9.646 -0.4749 -0.6394  0.2934
 8274TIP3    H249018   0.318   1.343   9.514  1.1120  0.4288  0.3583
 8275TIP3   OH249019   2.369   2.877   7.493 -0.0463  0.2392 -0.6092
 8275TIP3    H149020   2.345   2.785   7.506  0.2169  0.4082  1.3660
 8275TIP3    H249021   2.462   2.875   7.472  1.0090  0.1838  3.3909
 8276TIP3   OH249022   3.692   1.612   1.401 -0.1808 -0.0716 -0.2214
 8276TIP3    H149023   3.761   1.572   1.454  0.0080 -0.4959 -0.7795
 8276TIP3    H249024   3.711   1.706   1.404 -0.9986  0.0768  1.6305
 8277TIP3   OH249025   1.225   6.163   1.675  0.6123  0.0068  0.3170
 8277TIP3    H149026   1.176   6.130   1.751  0.6228 -2.7139 -0.7344
 8277TIP3    H249027   1.161   6.213   1.625 -0.0771 -0.3195  0.8568
 8278TIP3   OH249028   4.695   5.825   1.882  0.1529  0.0086  0.1463
 8278TIP3    H149029   4.763   5.890   1.869 -0.2319 -0.0069 -2.3459
 8278TIP3    H249030   4.707   5.796   1.973  1.9390  1.6753  0.5075
 8279TIP3   OH249031   6.799   0.233   8.965 -0.0787  0.6357 -0.1701
 8279TIP3    H149032   6.832   0.145   8.951  2.7598  1.4684  0.5161
 8279TIP3    H249033   6.758   0.230   9.052 -1.0224 -0.2434 -0.6343
 8280TIP3   OH249034   2.551   5.128   8.123 -0.1799  0.0987 -0.8974
 8280TIP3    H149035   2.567   5.141   8.030 -0.5558  1.0721 -0.8456
 8280TIP3    H249036   2.462   5.160   8.136 -1.1576 -2.4519 -0.6658
 8281TIP3   OH249037   0.186   5.595   1.380  0.7741  1.1510 -0.2654
 8281TIP3    H149038   0.197   5.689   1.367  1.8957  0.9847 -0.6115
 8281TIP3    H249039   0.181   5.559   1.292 -1.2219  1.0187 -0.1579
 8282TIP3   OH249040   4.167   4.866   0.704  0.4762  0.0458  0.7007
 8282TIP3    H149041   4.109   4.855   0.629  1.8006  2.4962 -0.8380
 8282TIP3    H249042   4.170   4.780   0.745  0.7035 -1.8341 -2.8504
 8283TIP3   OH249043   6.426   2.066   2.487 -0.1575 -0.5671 -0.0140
 8283TIP3    H149044   6.375   2.023   2.419 -1.5485  1.8263 -0.5993
 8283TIP3    H249045   6.365   2.077   2.560  0.7811 -1.4338  0.9407
 8284TIP3   OH249046   5.821   1.280   8.845 -0.4448  0.1425  0.1745
 8284TIP3    H149047   5.831   1.222   8.920 -1.0047  0.3820  0.4419
 8284TIP3    H249048   5.821   1.221   8.769 -0.5945 -0.1668  0.4126
 8285TIP3   OH249049   5.555   0.764   8.209 -0.4934 -0.1973  0.1785
 8285TIP3    H149050   5.582   0.835   8.152  2.5764  1.2393  3.0401
 8285TIP3    H249051   5.631   0.706   8.213 -1.1133 -0.9665  1.6886
 8286TIP3   OH249052   2.660   3.063   8.619  0.3337 -0.9794  0.1697
 8286TIP3    H149053   2.645   3.150   8.655 -0.2870 -1.4403  1.0562
 8286TIP3    H249054   2.627   3.069   8.529  0.4545 -0.2547  0.1686
 8287TIP3   OH249055   6.593   4.586   1.242 -0.1964 -0.1055  0.3365
 8287TIP3    H149056   6.546   4.506   1.220 -0.0872  0.1115 -0.7768
 8287TIP3    H249057   6.686   4.564   1.228 -0.2527  0.6370 -1.5971
 8288TIP3   OH249058   5.812   2.318   2.398  0.0283 -0.1538  0.1048
 8288TIP3    H149059   5.866   2.249   2.359  2.2548  0.4955  1.8303
 8288TIP3    H249060   5.832   2.395   2.346  1.6284  0.3105  1.3330
 8289TIP3   OH249061   1.200   1.588   0.075  0.2661  0.2581 -0.2985
 8289TIP3    H149062   1.200   1.599  -0.021  2.4560 -0.4540 -0.4369
 8289TIP3    H249063   1.218   1.495   0.088  3.1860  0.8613  0.7357
 8290TIP3   OH249064   2.288   2.626   9.293 -0.1619  0.0145  0.0287
 8290TIP3    H149065   2.236   2.674   9.229 -0.6160 -0.1163  0.2967
 8290TIP3    H249066   2.325   2.693   9.350  1.1770  0.2303 -1.0317
 8291TIP3   OH249067   5.028   2.660   0.427 -0.4737  0.5041  0.1098
 8291TIP3    H149068   4.945   2.691   0.393 -1.0510 -0.6910  0.3748
 8291TIP3    H249069   5.094   2.712   0.381 -1.3311  0.8268 -0.7853
 8292TIP3   OH249070   1.481   1.312   1.654  0.1817  0.0132  0.9007
 8292TIP3    H149071   1.495   1.236   1.597 -0.7565 -0.2473  0.9949
 8292TIP3    H249072   1.526   1.384   1.609 -0.3841 -0.2321 -0.0871
 8293TIP3   OH249073   3.278   3.085   1.370 -0.0344  0.0971 -0.4988
 8293TIP3    H149074   3.229   3.152   1.416  0.3267  1.1456 -1.5907
 8293TIP3    H249075   3.213   3.016   1.352 -0.8645  0.9687 -0.9576
 8294TIP3   OH249076   1.747   5.488   9.064  0.4380 -0.6295  0.1861
 8294TIP3    H149077   1.824   5.470   9.010 -1.0890 -0.9402 -2.0198
 8294TIP3    H249078   1.689   5.413   9.049 -0.7078  0.0564  1.0043
 8295TIP3   OH249079   0.903   0.853   8.522 -0.0028  0.4856  0.1712
 8295TIP3    H149080   0.831   0.790   8.525 -1.0910  1.6288  4.1939
 8295TIP3    H249081   0.861   0.939   8.519  1.1658  1.1507  1.4632
 8296TIP3   OH249082   2.709   0.864   8.959 -0.0876  1.0140  0.0923
 8296TIP3    H149083   2.748   0.947   8.986  0.5036  0.7541  0.0495
 8296TIP3    H249084   2.616   0.873   8.979  0.2845  0.9153  2.0200
 8297TIP3   OH249085   2.416   1.355   1.037  0.5408 -0.0917 -0.0199
 8297TIP3    H149086   2.366   1.406   0.975 -0.0514  0.2939  0.7565
 8297TIP3    H249087   2.497   1.404   1.049  0.4659  0.0617 -0.1484
 8298TIP3   OH249088   3.257   0.404   2.373 -0.4145  0.0197 -0.1915
 8298TIP3    H149089   3.346   0.415   2.339 -0.7472 -0.7155 -1.3310
 8298TIP3    H249090   3.208   0.478   2.336 -0.5171 -0.1507 -0.3953
 8299TIP3   OH249091   0.114   7.436   7.587 -0.4069 -0.1105 -0.6390
 8299TIP3    H149092   0.207   7.446   7.566 -0.2600 -0.5873 -0.2245
 8299TIP3    H249093   0.113   7.378   7.663 -0.9554  1.2274  0.4088
 8300TIP3   OH249094   3.065   3.934   0.395  0.1115 -0.5395 -0.2315
 8300TIP3    H149095   3.090   3.888   0.475  0.0285  0.5470  0.4462
 8300TIP3    H249096   3.022   3.867   0.341 -2.2204 -0.7802  1.7254
 8301TIP3   OH249097   1.041   7.112   9.349  1.1201 -0.4418  0.0067
 8301TIP3    H149098   0.986   7.039   9.320 -1.8008  2.2311 -1.7418
 8301TIP3    H249099   1.000   7.142   9.429  0.1125  1.3932 -1.1464
 8302TIP3   OH249100   4.070   1.259   1.914 -0.6031 -0.1448  0.2621
 8302TIP3    H149101   4.079   1.223   2.002 -0.2489 -0.4428  0.1086
 8302TIP3    H249102   4.073   1.354   1.926 -0.5710 -0.1867  0.5721
 8303TIP3   OH249103   4.855   6.755   2.208  0.1931 -0.2451  0.1829
 8303TIP3    H149104   4.903   6.699   2.270 -0.3549 -0.3689  0.5045
 8303TIP3    H249105   4.818   6.824   2.263  0.6854  0.3220 -0.1831
 8304TIP3   OH249106   2.275   5.097   7.759  0.1225  0.5000 -0.1409
 8304TIP3    H149107   2.282   5.136   7.672 -0.9516  1.6231  0.2416
 8304TIP3    H249108   2.213   5.154   7.806 -0.7644 -1.1371  0.7669
 8305TIP3   OH249109   7.088   4.780   8.872 -0.0372  0.5072 -0.2818
 8305TIP3    H149110   7.127   4.698   8.841 -0.9428  0.5518 -1.6204
 8305TIP3    H249111   7.005   4.754   8.912  0.9979  0.4823  1.9952
 8306TIP3   OH249112   0.456   2.497   9.912  0.1493 -0.7339  0.4000
 8306TIP3    H149113   0.472   2.592   9.910  0.8527 -0.8629 -0.2122
 8306TIP3    H249114   0.437   2.479  10.004  3.1476 -0.4905  1.1712
 8307TIP3   OH249115   4.889   2.829   1.004  0.4964 -0.3165 -0.1508
 8307TIP3    H149116   4.812   2.787   1.041 -0.5345  0.0847 -1.7463
 8307TIP3    H249117   4.856   2.908   0.961  1.6493 -0.5451 -1.5662
 8308TIP3   OH249118   1.499   7.290   1.284 -0.7135  0.0123  0.0863
 8308TIP3    H149119   1.537   7.319   1.201 -0.0354 -0.4408  0.2307
 8308TIP3    H249120   1.454   7.209   1.263  1.2279 -1.2578  0.5205
 8309TIP3   OH249121   3.583   3.967   9.224 -0.4661 -0.0193 -0.3926
 8309TIP3    H149122   3.613   4.037   9.167  0.2936 -0.6614 -0.7990
 8309TIP3    H249123   3.579   4.006   9.312 -1.5953  0.9563 -0.8546
 8310TIP3   OH249124   4.679   0.945   1.362  0.3407 -0.0808  0.4376
 8310TIP3    H149125   4.643   0.977   1.280  0.9217  1.9897  0.9300
 8310TIP3    H249126   4.727   1.020   1.398 -1.3105 -0.3037  3.4849
 8311TIP3   OH249127   5.311   6.294   2.027 -0.4227 -0.4028  0.3804
 8311TIP3    H149128   5.247   6.269   2.093 -0.6015  0.0674  0.3886
 8311TIP3    H249129   5.351   6.374   2.061  0.3215 -0.8111  0.4770
 8312TIP3   OH249130   2.609   5.368   9.337 -0.0762  0.5837 -0.2397
 8312TIP3    H149131   2.632   5.285   9.378  1.3628  0.7309 -0.6839
 8312TIP3    H249132   2.687   5.392   9.287 -0.2991  2.4029  0.2182
 8313TIP3   OH249133   2.446   6.227   1.618  0.0766 -0.5791 -0.3523
 8313TIP3    H149134   2.463   6.137   1.588  0.4202 -0.5180 -0.3376
 8313TIP3    H249135   2.350   6.235   1.613  0.1182 -0.5563 -1.4697
 8314TIP3   OH249136   4.280   6.800   8.677 -0.2561  0.0409 -0.1230
 8314TIP3    H149137   4.321   6.713   8.678 -1.2127 -0.4291 -0.2054
 8314TIP3    H249138   4.254   6.813   8.586  1.3507  1.1412 -0.4477
 8315TIP3   OH249139   0.942   6.294   1.114  0.5035  0.4058  0.0273
 8315TIP3    H149140   1.029   6.257   1.099  0.3232  0.5178 -1.3622
 8315TIP3    H249141   0.955   6.389   1.112  0.7402  0.4949  2.3086
 8316TIP3   OH249142   3.801   0.713   0.315 -0.4720  0.0129 -0.3288
 8316TIP3    H149143   3.792   0.625   0.350 -2.8954 -0.2826 -1.5197
 8316TIP3    H249144   3.880   0.709   0.261 -1.9680 -2.2715 -2.5433
 8317TIP3   OH249145   6.004   5.568   9.779  0.1201 -0.0305 -0.0834
 8317TIP3    H149146   6.095   5.581   9.753 -0.0618  0.1469 -0.6421
 8317TIP3    H249147   5.970   5.656   9.796  0.2304 -0.1393  0.7574
 8318TIP3   OH249148   2.483   6.567   0.595 -0.4693  0.2172  0.0683
 8318TIP3    H149149   2.548   6.498   0.583 -0.2739 -0.2169  2.8066
 8318TIP3    H249150   2.525   6.646   0.561  1.3648 -0.1387  1.3568
 8319TIP3   OH249151   3.876   4.122   9.303 -0.5252 -0.3216 -0.0865
 8319TIP3    H149152   3.827   4.142   9.223 -0.4426 -0.9552 -0.2968
 8319TIP3    H249153   3.937   4.195   9.311 -0.6314 -0.1779 -0.5224
 8320TIP3   OH249154   6.362   0.619   8.482 -0.1144  0.0218 -0.5736
 8320TIP3    H149155   6.367   0.706   8.522  1.8065  0.2995 -1.3357
 8320TIP3    H249156   6.278   0.620   8.435  0.5042  2.0195 -1.7635
 8321TIP3   OH249157   3.996   6.563   0.288 -0.5087 -0.4967 -0.5841
 8321TIP3    H149158   3.906   6.587   0.312 -0.1856 -0.3008  0.4415
 8321TIP3    H249159   3.985   6.488   0.229 -1.2793 -2.0344  1.4042
 8322TIP3   OH249160   0.976   3.542   1.793 -0.0667 -0.4384  0.0734
 8322TIP3    H149161   1.029   3.595   1.733  1.2765 -1.7348  0.0813
 8322TIP3    H249162   1.020   3.551   1.878  0.1344 -1.4993  0.0880
 8323TIP3   OH249163   1.007   3.567   2.065 -0.5103  0.2477  0.6001
 8323TIP3    H149164   0.936   3.624   2.095 -1.1191 -1.1636  2.0019
 8323TIP3    H249165   1.015   3.500   2.134  2.0898  0.2631  0.4185
 8324TIP3   OH249166   1.092   7.113   1.315  0.2161  0.3185 -0.3993
 8324TIP3    H149167   1.068   7.204   1.299  1.2453  0.8025  0.6783
 8324TIP3    H249168   1.166   7.118   1.375  1.8112 -1.1562 -2.1215
 8325TIP3   OH249169   6.122   2.087   1.679 -0.1277  0.4728  0.0960
 8325TIP3    H149170   6.149   2.044   1.760 -0.2444 -1.1743 -0.6917
 8325TIP3    H249171   6.148   2.026   1.610 -2.3305  0.6218 -0.9447
 8326TIP3   OH249172   1.233   1.111   8.552  0.1076  0.6719 -0.3621
 8326TIP3    H149173   1.204   1.020   8.554 -0.5515  0.7676 -2.4957
 8326TIP3    H249174   1.282   1.118   8.470 -0.9170  2.5263 -0.8690
 8327TIP3   OH249175   4.595   1.535   0.647  0.3363  0.4039  0.4260
 8327TIP3    H149176   4.551   1.608   0.604 -0.4398 -0.3654 -0.1028
 8327TIP3    H249177   4.667   1.512   0.588  0.0118  0.1319  0.1394
 8328TIP3   OH249178   2.661   2.035   7.530 -0.1158 -0.2811 -0.0199
 8328TIP3    H149179   2.705   1.955   7.559 -2.6309 -0.7548  3.0155
 8328TIP3    H249180   2.698   2.104   7.585 -1.3165 -0.2550  0.7814
 8329TIP3   OH249181   6.505   5.428   9.593  0.0690 -0.4714 -0.0561
 8329TIP3    H149182   6.556   5.509   9.583 -3.3391  2.0048  0.6403
 8329TIP3    H249183   6.532   5.393   9.677  0.7374  0.6695  0.2322
 8330TIP3   OH249184   5.801   6.416   9.050 -0.0517 -0.3511 -0.7000
 8330TIP3    H149185   5.750   6.387   9.125  0.7070  0.2244  0.0624
 8330TIP3    H249186   5.880   6.362   9.052 -0.6883 -1.3784 -1.9899
 8331TIP3   OH249187   0.610   4.460   7.787  1.1031  0.1751  0.2488
 8331TIP3    H149188   0.681   4.502   7.739  1.9083 -1.0550  0.3024
 8331TIP3    H249189   0.536   4.520   7.779  2.3874  1.9278  0.9303
 8332TIP3   OH249190   3.734   1.739   9.434  0.1869 -0.2689 -0.0898
 8332TIP3    H149191   3.788   1.817   9.433 -0.3089  0.0890 -1.3405
 8332TIP3    H249192   3.781   1.676   9.379 -0.0456 -0.3994 -0.1426
 8333TIP3   OH249193   5.364   1.030   0.719  0.5572 -0.5069  0.0347
 8333TIP3    H149194   5.299   0.960   0.720  1.1001 -1.0368 -0.6358
 8333TIP3    H249195   5.365   1.063   0.809  1.9701 -2.9421  1.0183
 8334TIP3   OH249196   2.058   6.046   2.956  0.0119  0.0254  0.2582
 8334TIP3    H149197   2.071   6.107   2.883  1.0657 -0.2256  0.2117
 8334TIP3    H249198   1.964   6.028   2.957 -0.1872  0.9961 -0.2530
 8335TIP3   OH249199   2.502   5.102   9.923 -0.0912  0.3720 -0.3414
 8335TIP3    H149200   2.484   5.067  10.011 -0.1485 -0.7735 -0.7993
 8335TIP3    H249201   2.512   5.196   9.937 -0.2884  0.2321  0.8694
 8336TIP3   OH249202   0.934   4.147   1.581  0.3735  0.1579 -0.3626
 8336TIP3    H149203   0.866   4.193   1.630 -0.9762 -1.3898 -0.6747
 8336TIP3    H249204   0.993   4.113   1.649 -1.6051 -2.1563  0.3313
 8337TIP3   OH249205   6.496   4.975   0.030 -0.3098  0.2101 -0.0973
 8337TIP3    H149206   6.467   5.066   0.026 -1.2855 -0.1068 -0.4790
 8337TIP3    H249207   6.533   4.966   0.118 -0.5537  0.8770  0.0822
 8338TIP3   OH249208   0.100   6.562   1.650  0.5299  0.5205  0.3503
 8338TIP3    H149209   0.137   6.491   1.703  0.6330  0.1153 -0.2535
 8338TIP3    H249210   0.068   6.626   1.714  1.9688  0.7295  0.9067
 8339TIP3   OH249211   2.368   3.070   9.857 -0.4509  0.0521  0.1527
 8339TIP3    H149212   2.397   3.083   9.947 -0.7261  0.2217  0.2145
 8339TIP3    H249213   2.306   3.141   9.840 -0.8017 -0.2871  0.0012
 8340TIP3   OH249214   5.110   3.736   0.197  0.4653  0.1004  0.4344
 8340TIP3    H149215   5.188   3.722   0.249 -0.1376 -2.7704  0.7840
 8340TIP3    H249216   5.041   3.689   0.244 -1.1316  1.2433 -0.6445
 8341TIP3   OH249217   4.206   3.555   9.725  0.4665  0.4768 -0.1165
 8341TIP3    H149218   4.134   3.566   9.664  0.0530  0.9798  0.4534
 8341TIP3    H249219   4.282   3.537   9.669  0.0952  0.9090 -0.7695
 8342TIP3   OH249220   3.540   7.102   0.196 -0.3648  0.1238 -0.3756
 8342TIP3    H149221   3.546   7.028   0.256 -2.8685 -1.5820 -2.0514
 8342TIP3    H249222   3.631   7.134   0.189  0.8241 -2.7701  0.4144
 8343TIP3   OH249223   3.591   6.676   9.513  0.2063  0.4845 -0.2958
 8343TIP3    H149224   3.570   6.637   9.598  1.2395 -0.5076 -0.4671
 8343TIP3    H249225   3.678   6.642   9.492  0.4434  1.5982 -1.2430
 8344TIP3   OH249226   0.718   1.977   9.387  0.2730  0.0313 -0.6905
 8344TIP3    H149227   0.646   1.914   9.378  0.2162  0.2995 -2.6422
 8344TIP3    H249228   0.746   1.969   9.478 -3.2677  1.0747  0.6721
 8345TIP3   OH249229   4.304   0.292   8.562 -0.1877 -0.4046 -0.0827
 8345TIP3    H149230   4.288   0.201   8.588 -1.3474 -0.8686 -2.1626
 8345TIP3    H249231   4.287   0.293   8.468  0.9567  1.7319 -0.3405
 8346TIP3   OH249232   5.017   5.595   1.969 -0.7078 -0.3577  0.0654
 8346TIP3    H149233   5.040   5.672   2.021 -0.7911 -0.1186 -0.2460
 8346TIP3    H249234   4.938   5.621   1.921 -0.7036 -0.6152 -0.0831
 8347TIP3   OH249235   2.393   5.997   7.751  0.1799  0.5070  0.5342
 8347TIP3    H149236   2.359   5.976   7.664  0.6263  0.4871  0.3598
 8347TIP3    H249237   2.359   6.085   7.770 -0.1211  0.4099  0.4476
 8348TIP3   OH249238   3.481   3.903   6.912 -0.9339  0.3859 -0.2107
 8348TIP3    H149239   3.536   3.952   6.974 -1.3109 -0.6098  0.9337
 8348TIP3    H249240   3.531   3.824   6.893 -2.1759 -0.8077  1.2857
 8349TIP3   OH249241   0.795   4.111   8.179  0.2541  0.4745  0.6497
 8349TIP3    H149242   0.873   4.057   8.184 -1.0310 -1.4119  1.6347
 8349TIP3    H249243   0.754   4.087   8.096  0.2357  0.7692  0.5722
 8350TIP3   OH249244   2.546   2.936   2.443  0.8150 -0.2683  0.2373
 8350TIP3    H149245   2.620   2.878   2.426  0.7105 -0.0052 -1.2414
 8350TIP3    H249246   2.483   2.882   2.490  0.5183 -1.5526 -1.5237
 8351TIP3   OH249247   0.742   7.380   2.262 -0.1790 -0.4340  0.0147
 8351TIP3    H149248   0.686   7.458   2.273 -0.0911  0.0094 -2.2487
 8351TIP3    H249249   0.685   7.316   2.220  0.3409 -0.8366 -0.0803
 8352TIP3   OH249250   5.498   6.606   9.604 -0.4265 -0.2151 -0.2279
 8352TIP3    H149251   5.581   6.561   9.621 -0.1660 -0.5227 -2.0617
 8352TIP3    H249252   5.522   6.697   9.588 -0.5564 -0.1038  0.2146
 8353TIP3   OH249253   6.512   3.348   8.072  0.3269  0.1639 -0.5042
 8353TIP3    H149254   6.548   3.319   7.988 -0.1754  0.9876 -1.0216
 8353TIP3    H249255   6.582   3.333   8.136  1.0177  0.2988 -1.2160
 8354TIP3   OH249256   1.176   3.401   0.960 -0.0664  0.1080  0.2375
 8354TIP3    H149257   1.253   3.458   0.961 -0.7178  1.0021  0.2587
 8354TIP3    H249258   1.178   3.357   1.045  1.9648 -2.0298 -0.8020
 8355TIP3   OH249259   4.300   6.826   0.588 -0.3940  0.1741  0.0638
 8355TIP3    H149260   4.393   6.803   0.585  0.1697  2.1488  0.7163
 8355TIP3    H249261   4.254   6.742   0.586  1.4524 -0.9419  1.3781
 8356TIP3   OH249262   0.352   5.243   1.068  0.0560  0.0816 -0.2109
 8356TIP3    H149263   0.298   5.182   1.118 -0.3919  1.1132  0.6085
 8356TIP3    H249264   0.308   5.251   0.984 -0.9780  0.7648  0.3840
 8357TIP3   OH249265   3.371   6.384   6.651  0.2964  0.3858 -0.1030
 8357TIP3    H149266   3.378   6.360   6.744 -0.8696  0.6968  0.0822
 8357TIP3    H249267   3.283   6.421   6.643 -0.7155 -2.1140 -1.8706
 8358TIP3   OH249268   5.318   3.361   1.270 -0.3509 -0.3049  0.5710
 8358TIP3    H149269   5.234   3.317   1.276 -0.6386  0.0277 -0.7434
 8358TIP3    H249270   5.297   3.454   1.280 -0.2674 -0.1460 -0.5817
 8359TIP3   OH249271   5.175   5.345   8.010 -0.8644 -0.0856  0.1686
 8359TIP3    H149272   5.100   5.306   8.054 -0.2815 -2.1968 -0.5946
 8359TIP3    H249273   5.175   5.306   7.923 -0.7385  2.3612 -1.0227
 8360TIP3   OH249274   2.940   6.628   8.629 -0.1640 -0.6554 -0.2506
 8360TIP3    H149275   2.894   6.592   8.552 -0.3751 -0.2804 -0.3055
 8360TIP3    H249276   2.967   6.715   8.601  0.0913 -0.6631 -0.0236
 8361TIP3   OH249277   7.340   2.201   0.545 -0.0223  0.5021  0.2588
 8361TIP3    H149278   7.310   2.167   0.460  0.1486 -1.3270  0.8861
 8361TIP3    H249279   7.346   2.296   0.532 -0.4625  0.3148 -1.6214
 8362TIP3   OH249280   1.376   5.010   8.953 -0.1282  0.2354  0.1165
 8362TIP3    H149281   1.456   5.047   8.915 -0.1512  0.2463  0.0788
 8362TIP3    H249282   1.392   5.010   9.047  0.7451 -1.6819  0.0129
 8363TIP3   OH249283   0.077   3.613   8.949 -0.1003  0.2320 -0.1959
 8363TIP3    H149284   0.058   3.619   8.855  0.1956  0.2752 -0.2562
 8363TIP3    H249285   0.171   3.593   8.953 -0.4673 -1.6188  0.0642
 8364TIP3   OH249286   4.833   6.602   1.906 -0.2864  0.3999  0.1543
 8364TIP3    H149287   4.790   6.667   1.962  0.1113  0.0764  0.8588
 8364TIP3    H249288   4.874   6.653   1.837 -1.5108  0.7375 -0.3363
 8365TIP3   OH249289   6.793   0.585   2.301 -0.3659 -0.3072  0.0477
 8365TIP3    H149290   6.744   0.504   2.308  0.6010 -0.9360 -0.2080
 8365TIP3    H249291   6.778   0.630   2.384 -0.2519 -1.1297  0.5191
 8366TIP3   OH249292   6.289   0.409   0.350  0.6103 -0.4327 -0.5382
 8366TIP3    H149293   6.238   0.404   0.430  0.1044 -1.1416 -0.8913
 8366TIP3    H249294   6.252   0.484   0.303  1.4503  0.4932  0.2418
 8367TIP3   OH249295   0.154   2.443   1.067 -0.2512 -0.0733 -0.0987
 8367TIP3    H149296   0.079   2.430   1.010  0.8178  1.5599 -2.0375
 8367TIP3    H249297   0.173   2.356   1.104 -2.9247 -0.5422  0.3563
 8368TIP3   OH249298   1.957   5.382   9.383 -0.4648  0.1166 -0.2133
 8368TIP3    H149299   1.919   5.361   9.469  0.5382  0.7728  0.4168
 8368TIP3    H249300   1.964   5.477   9.383  1.4616  0.0303 -0.1350
 8369TIP3   OH249301   3.298   0.707   8.586  0.0929  0.3481 -0.0821
 8369TIP3    H149302   3.212   0.741   8.612 -0.1915 -1.2271  1.2101
 8369TIP3    H249303   3.338   0.778   8.537 -1.7009  1.3505 -0.1771
 8370TIP3   OH249304   5.358   0.071   8.984  0.4876  0.2542  0.4970
 8370TIP3    H149305   5.347   0.001   8.919  1.5540 -1.5003  2.0974
 8370TIP3    H249306   5.282   0.062   9.042 -0.3233  1.6414 -0.3037
 8371TIP3   OH249307   7.212   1.807   8.953 -0.0483 -0.1821 -0.1313
 8371TIP3    H149308   7.243   1.759   9.030  1.1857 -0.6377 -0.8766
 8371TIP3    H249309   7.117   1.816   8.967  0.3370  1.2074  2.2208
 8372TIP3   OH249310   2.041   0.293   8.527  0.4976  0.0992 -0.5965
 8372TIP3    H149311   1.986   0.370   8.541 -1.4970 -1.3328 -0.0996
 8372TIP3    H249312   1.997   0.244   8.457  1.7227 -0.5918 -0.9137
 8373TIP3   OH249313   4.739   2.625   0.461  0.1393  0.1797  0.0687
 8373TIP3    H149314   4.687   2.680   0.402  2.3430  1.5605 -0.7088
 8373TIP3    H249315   4.696   2.539   0.457 -2.7976  1.4995  0.5137
 8374TIP3   OH249316   5.418   0.091   1.816  0.3035  0.7759 -0.3764
 8374TIP3    H149317   5.391   0.002   1.837  1.0522 -0.3135 -3.4266
 8374TIP3    H249318   5.399   0.142   1.894 -0.8673 -1.9018  1.1985
 8375TIP3   OH249319   7.411   5.210   0.009 -0.4038  0.2836 -0.6028
 8375TIP3    H149320   7.444   5.146  -0.055 -1.3086 -0.9818  0.1377
 8375TIP3    H249321   7.346   5.261  -0.039 -0.7179 -0.3295 -0.8387
 8376TIP3   OH249322   4.850   7.096   7.893  0.4259 -0.0279 -0.1223
 8376TIP3    H149323   4.782   7.032   7.911  1.5050 -1.3749 -0.6904
 8376TIP3    H249324   4.806   7.181   7.903 -1.9682 -0.8122 -2.6907
 8377TIP3   OH249325   3.895   2.013   9.568  0.1072 -0.3656 -0.0358
 8377TIP3    H149326   3.976   2.044   9.608 -0.4692  0.1338  0.7667
 8377TIP3    H249327   3.849   1.967   9.637 -0.3734 -0.5057 -0.4401
 8378TIP3   OH249328   7.001   6.346   0.337 -0.2841 -0.2361 -0.7603
 8378TIP3    H149329   6.950   6.396   0.400 -0.2786 -0.3839 -0.6392
 8378TIP3    H249330   7.092   6.358   0.363 -0.3051 -0.5988 -0.5205
 8379TIP3   OH249331   3.620   6.525   2.029  0.1340  0.1718  0.2100
 8379TIP3    H149332   3.701   6.558   1.990  0.1730  1.0392  0.9898
 8379TIP3    H249333   3.611   6.437   1.993  2.7615 -0.9562  1.9379
 8380TIP3   OH249334   4.775   7.428   1.490 -0.1351 -0.6407  0.0211
 8380TIP3    H149335   4.854   7.464   1.529 -0.1850  0.3020 -0.7269
 8380TIP3    H249336   4.709   7.496   1.502 -0.1214 -0.2477 -1.8129
 8381TIP3   OH249337   1.484   2.136   8.067 -0.5146 -0.1358 -0.2769
 8381TIP3    H149338   1.442   2.113   7.984  0.2847  0.0317 -0.7503
 8381TIP3    H249339   1.487   2.054   8.116 -1.6223 -0.0869 -0.1238
 8382TIP3   OH249340   3.791   0.341   2.402  0.7965 -0.5123 -0.1310
 8382TIP3    H149341   3.744   0.423   2.412 -0.7129 -1.5068  1.3110
 8382TIP3    H249342   3.872   0.353   2.451 -0.2377 -0.4852  1.6278
 8383TIP3   OH249343   3.597   4.406   1.353  0.4876  0.4805 -0.4007
 8383TIP3    H149344   3.650   4.348   1.407  0.2702  0.7480  0.1131
 8383TIP3    H249345   3.587   4.485   1.406 -1.3627  0.0259  0.0015
 8384TIP3   OH249346   0.864   1.079   8.244 -0.0561  0.3736 -0.2121
 8384TIP3    H149347   0.772   1.102   8.258 -0.0424 -0.4710  1.5508
 8384TIP3    H249348   0.912   1.159   8.265 -0.2868  0.1967  1.0824
 8385TIP3   OH249349   0.331   6.531   1.039  0.3833  0.7473  1.1038
 8385TIP3    H149350   0.248   6.565   1.073 -0.0187  1.4565 -0.5048
 8385TIP3    H249351   0.306   6.466   0.974  1.1006  0.7227  0.8476
 8386TIP3   OH249352   6.797   7.409   9.558 -0.2507  0.1934  0.1590
 8386TIP3    H149353   6.822   7.477   9.621  0.5018 -0.2532  0.3588
 8386TIP3    H249354   6.831   7.328   9.595 -0.5708 -0.2038 -0.3967
 8387TIP3   OH249355   2.965   1.668   1.598 -0.1335 -0.1831 -0.5437
 8387TIP3    H149356   2.953   1.573   1.590  0.5243 -0.4642  1.2647
 8387TIP3    H249357   2.880   1.705   1.574 -1.2595 -1.4060  1.3026
 8388TIP3   OH249358   5.994   0.591   2.167 -0.2644 -0.3502  0.6904
 8388TIP3    H149359   6.043   0.607   2.248  1.9929  0.3233 -0.7237
 8388TIP3    H249360   6.025   0.505   2.137  0.6766  0.4269 -0.6311
 8389TIP3   OH249361   2.293   6.870   0.051 -0.0940  0.3340 -0.0962
 8389TIP3    H149362   2.304   6.939  -0.015  0.2866  1.4011  1.0480
 8389TIP3    H249363   2.221   6.901   0.106  1.3101  0.8110  1.5849
 8390TIP3   OH249364   5.406   0.199   8.544  0.2216  0.0400 -0.7145
 8390TIP3    H149365   5.391   0.109   8.573  2.4904 -0.6450 -1.4318
 8390TIP3    H249366   5.382   0.200   8.452 -1.6534  0.7431 -0.2682
 8391TIP3   OH249367   4.276   1.887   8.839 -0.2632 -0.0089  0.1108
 8391TIP3    H149368   4.306   1.936   8.916 -0.1932 -1.3837  0.9924
 8391TIP3    H249369   4.181   1.888   8.846 -0.3125  0.8961 -0.4737
 8392TIP3   OH249370   3.764   1.932   0.847 -0.2506  0.0996 -0.4084
 8392TIP3    H149371   3.735   1.851   0.805  1.7650  0.0320 -1.7757
 8392TIP3    H249372   3.714   2.001   0.804 -1.3177 -0.3147  0.1316
 8393TIP3   OH249373   2.433   4.679   9.627  0.3337  0.5788  0.1298
 8393TIP3    H149374   2.370   4.747   9.601  0.1303  0.6536  0.8104
 8393TIP3    H249375   2.460   4.703   9.715  1.1031  0.3821 -0.0444
 8394TIP3   OH249376   2.423   7.301   8.621 -0.4174  0.0281 -0.2784
 8394TIP3    H149377   2.432   7.250   8.541 -1.3471  0.0233 -0.3887
 8394TIP3    H249378   2.461   7.386   8.600  1.4206 -0.6855  0.0038
 8395TIP3   OH249379   1.029   4.425   0.486 -0.1438 -0.2898  0.0307
 8395TIP3    H149380   1.089   4.407   0.559 -0.7890 -1.7604  0.2328
 8395TIP3    H249381   1.073   4.389   0.409 -0.3961 -0.6329  0.0448
 8396TIP3   OH249382   0.544   1.914   8.730  0.3136 -0.4100  0.1371
 8396TIP3    H149383   0.570   1.850   8.663  1.5659  1.1209 -0.9186
 8396TIP3    H249384   0.605   1.899   8.801  1.4484  0.4198 -0.6341
 8397TIP3   OH249385   0.754   6.702   0.535  0.4602 -0.1829  0.5749
 8397TIP3    H149386   0.736   6.624   0.482 -0.9032 -0.8198  1.9031
 8397TIP3    H249387   0.712   6.684   0.619 -1.0427  2.5251  0.5057
 8398TIP3   OH249388   6.632   4.971   0.261 -0.6332 -0.6778 -0.1483
 8398TIP3    H149389   6.655   5.060   0.288 -0.6059 -0.2282 -1.5833
 8398TIP3    H249390   6.587   4.935   0.336 -1.5051  0.8836  0.1261
 8399TIP3   OH249391   2.343   3.491   9.392 -0.3764  0.2946 -0.0780
 8399TIP3    H149392   2.299   3.572   9.367 -0.6840  0.0473 -0.3485
 8399TIP3    H249393   2.315   3.427   9.326  0.6917  0.2225 -0.4736
 8400TIP3   OH249394   4.267   5.386   7.079  0.3609 -0.0201 -0.0491
 8400TIP3    H149395   4.258   5.481   7.071  0.1878 -0.0424 -0.1219
 8400TIP3    H249396   4.203   5.351   7.017 -0.3576 -0.1986  0.7729
 8401TIP3   OH249397   4.668   4.979   8.513 -0.1435 -0.2631 -0.5225
 8401TIP3    H149398   4.675   5.040   8.586 -1.0086 -0.8777  0.0988
 8401TIP3    H249399   4.758   4.964   8.485  0.1314  0.6891 -0.1862
 8402TIP3   OH249400   0.509   2.551   1.319 -0.2468  0.5508  0.2473
 8402TIP3    H149401   0.593   2.505   1.324  0.6146  1.9298 -0.6882
 8402TIP3    H249402   0.494   2.564   1.225 -1.9117 -0.3221  0.3547
 8403TIP3   OH249403   0.766   0.067   1.537  0.3688 -0.6381  0.1028
 8403TIP3    H149404   0.720   0.115   1.468  1.8838  2.4523  1.0596
 8403TIP3    H249405   0.705   0.068   1.611 -0.3299 -1.8829 -0.4354
 8404TIP3   OH249406   5.617   1.163   7.364  0.1710  0.3096  0.5917
 8404TIP3    H149407   5.692   1.119   7.323  1.2016  0.8619  1.8272
 8404TIP3    H249408   5.639   1.167   7.457 -1.4653  0.3781  1.0055
 8405TIP3   OH249409   1.115   1.848   9.240 -0.2200  0.5626 -0.0601
 8405TIP3    H149410   1.123   1.930   9.289 -0.7056  2.6359 -3.1726
 8405TIP3    H249411   1.022   1.825   9.247 -0.0681  0.1776  0.8856
 8406TIP3   OH249412   2.214   5.845   8.145  0.0945 -0.5630 -0.7358
 8406TIP3    H149413   2.121   5.843   8.165  0.1286 -1.0941 -0.6182
 8406TIP3    H249414   2.249   5.765   8.184  0.4936 -0.6598 -1.2699
 8407TIP3   OH249415   2.649   3.049   2.055  0.1125  0.3232  0.1588
 8407TIP3    H149416   2.710   3.016   2.121  0.2612 -1.1109 -0.6603
 8407TIP3    H249417   2.562   3.033   2.093  0.1966 -0.5685 -0.0086
 8408TIP3   OH249418   1.894   5.946   2.167  0.4711  0.3516 -0.2942
 8408TIP3    H149419   1.808   5.945   2.127  0.4917  0.2431 -0.3378
 8408TIP3    H249420   1.955   5.934   2.094  0.4836 -0.3780 -0.1754
 8409TIP3   OH249421   3.552   5.133   9.295  0.4679  0.5455 -0.1118
 8409TIP3    H149422   3.623   5.073   9.270  0.3803  0.7172 -0.7899
 8409TIP3    H249423   3.485   5.120   9.228  0.1497  0.8919  0.1366
 8410TIP3   OH249424   2.449   0.440   0.550 -0.0176 -0.4510 -0.6087
 8410TIP3    H149425   2.383   0.486   0.601  0.6954 -0.9327  0.7867
 8410TIP3    H249426   2.518   0.505   0.536 -0.1934 -0.3320 -0.9437
 8411TIP3   OH249427   2.465   6.642   0.100 -0.6406 -0.2074 -0.1423
 8411TIP3    H149428   2.381   6.666   0.140 -0.3357 -0.7180  0.8544
 8411TIP3    H249429   2.485   6.556   0.138  1.2160  0.7088  1.0872
 8412TIP3   OH249430   5.475   0.975   9.966  0.2147 -0.1694 -0.0280
 8412TIP3    H149431   5.539   1.044   9.985  1.3776 -1.2618  0.2164
 8412TIP3    H249432   5.390   1.018   9.969  0.9441  1.3268 -0.3057
 8413TIP3   OH249433   7.290   3.907   1.829 -0.4459  0.5182 -0.4418
 8413TIP3    H149434   7.369   3.920   1.880 -0.0388 -0.3201 -0.8400
 8413TIP3    H249435   7.318   3.856   1.753 -1.6472 -1.2212  0.2280
 8414TIP3   OH249436   3.510   3.773   0.126  0.1839 -0.5980  0.1213
 8414TIP3    H149437   3.433   3.830   0.124  0.7912  0.2247 -0.3526
 8414TIP3    H249438   3.521   3.752   0.219 -1.4522 -1.9156  0.0545
 8415TIP3   OH249439   4.962   6.196   2.280  0.0135  0.3676 -0.1485
 8415TIP3    H149440   5.014   6.116   2.292 -1.1506 -0.4376 -0.3008
 8415TIP3    H249441   5.010   6.262   2.329  2.0307  0.0574 -1.5644
 8416TIP3   OH249442   3.346   4.829   8.668  0.4209  0.6102 -0.0702
 8416TIP3    H149443   3.314   4.739   8.680  2.3256 -0.2052 -0.6503
 8416TIP3    H249444   3.288   4.865   8.600  0.6282 -0.7641 -1.0405
 8417TIP3   OH249445   1.824   5.908   7.453 -0.0972  0.2436  0.6025
 8417TIP3    H149446   1.872   5.987   7.429 -0.6851  0.9625  1.7049
 8417TIP3    H249447   1.887   5.856   7.504  0.4261 -0.2349 -0.4817
 8418TIP3   OH249448   7.007   7.417   8.050  0.1467  0.1082  0.1007
 8418TIP3    H149449   6.952   7.400   7.974 -0.0957  0.7363  0.1298
 8418TIP3    H249450   7.061   7.491   8.025  2.1646 -1.4929 -0.5269
 8419TIP3   OH249451   3.174   5.422   7.579 -0.4654 -0.3144 -0.4087
 8419TIP3    H149452   3.214   5.337   7.564  0.3256 -0.2730  1.2180
 8419TIP3    H249453   3.200   5.475   7.504 -0.7883 -1.4344 -1.3266
 8420TIP3   OH249454   0.042   0.520   9.922 -0.7810  0.0733  0.3438
 8420TIP3    H149455  -0.007   0.485   9.848 -0.8258 -1.2363  0.9711
 8420TIP3    H249456   0.035   0.615   9.912 -1.9588 -0.0805 -0.5534
 8421TIP3   OH249457   2.097   6.430   9.850  0.2208  0.0249  0.2134
 8421TIP3    H149458   2.149   6.509   9.862  0.4354 -0.1622  0.5389
 8421TIP3    H249459   2.127   6.371   9.919 -0.2009 -0.2020  0.2058
 8422TIP3   OH249460   0.232   1.654   0.075 -0.1468  0.3189 -0.5016
 8422TIP3    H149461   0.201   1.714   0.007 -1.6203  0.4509  0.2521
 8422TIP3    H249462   0.185   1.572   0.058 -0.6181  0.3869  0.3990
 8423TIP3   OH249463   2.364   3.805   7.449 -0.4715  0.4821 -0.0260
 8423TIP3    H149464   2.414   3.844   7.520  0.7897 -1.8318  0.4786
 8423TIP3    H249465   2.321   3.879   7.406  1.7125  2.3804  0.8250
 8424TIP3   OH249466   0.631   4.301   9.995 -0.4348  0.0667  0.1157
 8424TIP3    H149467   0.594   4.270   9.913  1.3493 -1.4041 -0.1893
 8424TIP3    H249468   0.657   4.392   9.978  0.1534 -0.3052 -1.0377
 8425TIP3   OH249469   2.396   0.111   7.827 -0.0890 -0.2399  0.1608
 8425TIP3    H149470   2.433   0.047   7.888 -2.0646 -1.1372  0.4790
 8425TIP3    H249471   2.462   0.119   7.758  0.1008 -2.8502 -0.0420
 8426TIP3   OH249472   5.228   6.189   1.790  0.1686 -0.0180  0.7701
 8426TIP3    H149473   5.285   6.219   1.861  1.5367 -2.3628  0.7661
 8426TIP3    H249474   5.243   6.095   1.785  0.1462  0.0374 -2.6261
 8427TIP3   OH249475   1.251   3.243   9.202 -0.0652 -0.6423  0.2482
 8427TIP3    H149476   1.337   3.200   9.205 -0.6474 -1.9502 -0.8185
 8427TIP3    H249477   1.188   3.171   9.201 -1.1607  0.2853  0.2221
 8428TIP3   OH249478   3.029   5.877   8.378 -0.2762  0.4371 -0.2860
 8428TIP3    H149479   3.052   5.962   8.342 -0.9451  0.8883  0.3321
 8428TIP3    H249480   2.960   5.895   8.442 -0.4676 -0.5697 -0.1832
 8429TIP3   OH249481   1.700   1.002   9.134 -0.3011  0.5471  0.2367
 8429TIP3    H149482   1.688   0.907   9.138 -3.7355  0.8767  2.1265
 8429TIP3    H249483   1.752   1.016   9.055 -0.9557 -2.8119 -0.9876
 8430TIP3   OH249484   0.202   3.276   7.604 -0.3900 -0.3907 -0.2909
 8430TIP3    H149485   0.108   3.263   7.617 -0.7859  0.9306 -1.4997
 8430TIP3    H249486   0.212   3.278   7.509  0.8343 -0.2582 -0.1677
 8431TIP3   OH249487   3.557   7.236   1.069  0.6495 -0.4034  0.0351
 8431TIP3    H149488   3.535   7.199   1.155  0.7077 -0.5828 -0.0268
 8431TIP3    H249489   3.500   7.190   1.008  0.9929 -0.6681 -0.0911
 8432TIP3   OH249490   3.744   0.810   0.998 -0.0929  0.2412  0.1926
 8432TIP3    H149491   3.783   0.723   0.984 -3.0507 -1.3407  0.9592
 8432TIP3    H249492   3.664   0.809   0.945 -0.9878  1.9131  1.4260
 8433TIP3   OH249493   2.865   1.520   8.427  0.0956 -0.5144 -0.0110
 8433TIP3    H149494   2.771   1.518   8.443  0.2888 -1.0253  1.1546
 8433TIP3    H249495   2.887   1.433   8.395  0.1278 -0.2852 -0.6370
 8434TIP3   OH249496   1.064   2.995   9.420  0.0537 -0.7292  0.3475
 8434TIP3    H149497   1.074   3.012   9.326  0.5541 -1.3586  0.2810
 8434TIP3    H249498   1.144   3.029   9.459  0.5836 -1.9277  0.3406
 8435TIP3   OH249499   5.289   1.565   2.282 -0.7359  0.0646 -0.6844
 8435TIP3    H149500   5.224   1.635   2.293 -0.6983 -0.0495  0.2787
 8435TIP3    H249501   5.242   1.496   2.234 -2.0856 -0.9768  1.9257
 8436TIP3   OH249502   2.244   7.086   1.009  0.3136 -0.5525  0.6557
 8436TIP3    H149503   2.320   7.028   1.001 -0.9533 -2.1324 -0.8175
 8436TIP3    H249504   2.192   7.048   1.080  0.0178 -0.5924  0.4226
 8437TIP3   OH249505   5.295   4.274   2.560 -0.4198 -0.4837 -0.3159
 8437TIP3    H149506   5.273   4.363   2.585  0.1887 -0.5298  0.4484
 8437TIP3    H249507   5.249   4.259   2.478 -0.4276  0.5742 -0.5143
 8438TIP3   OH249508   1.463   1.619   7.582  0.0997 -0.4276  0.1549
 8438TIP3    H149509   1.549   1.597   7.548  0.8058 -0.6797  2.0104
 8438TIP3    H249510   1.430   1.686   7.522  1.1989 -0.9472 -1.0781
 8439TIP3   OH249511   5.831   3.356   9.315 -0.0165  0.2351  0.3085
 8439TIP3    H149512   5.876   3.437   9.291  1.7838 -0.4732  1.1260
 8439TIP3    H249513   5.901   3.292   9.325 -1.4074 -1.5254 -0.5856
 8440TIP3   OH249514   7.083   2.997   8.700 -0.4886  0.1814  0.1559
 8440TIP3    H149515   7.131   2.944   8.636 -0.2260 -0.4416  0.8515
 8440TIP3    H249516   7.114   3.086   8.684 -1.5621  0.2942 -1.5965
 8441TIP3   OH249517   0.341   4.695   1.519  0.0108 -0.1273  0.1708
 8441TIP3    H149518   0.376   4.629   1.459 -2.0762  0.4722 -1.8162
 8441TIP3    H249519   0.254   4.715   1.485  0.1094  2.8208  1.3852
 8442TIP3   OH249520   0.399   0.378   0.137  0.7778  0.3720 -0.1936
 8442TIP3    H149521   0.339   0.433   0.087 -0.1090 -0.3177  0.0859
 8442TIP3    H249522   0.421   0.306   0.077  1.6645  0.8409 -0.4407
 8443TIP3   OH249523   4.770   7.179   2.223  0.1417 -0.4095  0.6315
 8443TIP3    H149524   4.769   7.092   2.264  0.7767 -2.3394 -3.0206
 8443TIP3    H249525   4.863   7.198   2.211 -0.0100 -0.6761 -1.2196
 8444TIP3   OH249526   3.514   5.492   2.430 -0.1358  0.4390 -0.2938
 8444TIP3    H149527   3.473   5.579   2.436  1.7089  1.3483  0.0710
 8444TIP3    H249528   3.493   5.450   2.513  1.6217  1.8570  0.9631
 8445TIP3   OH249529   5.028   5.495   9.922 -0.2687  0.2621 -0.3452
 8445TIP3    H149530   4.960   5.428   9.930  0.2829 -0.3548 -0.7215
 8445TIP3    H249531   5.032   5.536  10.008 -1.3729  0.5739 -0.4150
 8446TIP3   OH249532   0.870   7.441   7.855 -0.4332 -0.0872  0.3839
 8446TIP3    H149533   0.797   7.409   7.908 -1.1459  2.1058  0.8281
 8446TIP3    H249534   0.922   7.494   7.915 -0.2657  0.9929 -0.6757
 8447TIP3   OH249535   4.954   4.144   9.390 -0.2541  0.3710  0.1969
 8447TIP3    H149536   4.889   4.197   9.436 -0.6085  0.3965 -0.3192
 8447TIP3    H249537   4.997   4.094   9.459 -2.8227 -1.8738  0.3600
 8448TIP3   OH249538   5.332   3.152   0.374  0.4741 -0.2200 -0.5925
 8448TIP3    H149539   5.423   3.181   0.386 -0.1309  0.7492  2.9914
 8448TIP3    H249540   5.282   3.233   0.364 -0.2795 -0.5261  0.5044
 8449TIP3   OH249541   6.485   7.417   1.638 -0.4201  0.0531  0.0987
 8449TIP3    H149542   6.391   7.408   1.624 -0.4056 -0.1595  0.1325
 8449TIP3    H249543   6.510   7.494   1.587 -0.4320 -0.5094 -0.7825
 8450TIP3   OH249544   7.369   3.359   0.824  0.1928 -0.3168 -0.3949
 8450TIP3    H149545   7.306   3.306   0.774  0.8252 -0.1227 -1.4426
 8450TIP3    H249546   7.350   3.340   0.915 -1.6119 -0.0081 -0.6670
 8451TIP3   OH249547   2.251   7.114   2.287  0.4178 -0.6972 -0.7582
 8451TIP3    H149548   2.241   7.087   2.378 -1.3848  1.2880 -0.2969
 8451TIP3    H249549   2.265   7.032   2.239 -1.2370 -2.0707  0.9721
 8452TIP3   OH249550   5.400   5.898   1.981 -0.0344 -0.0569  0.7596
 8452TIP3    H149551   5.457   5.954   1.929  0.2709 -2.0534 -1.1876
 8452TIP3    H249552   5.367   5.955   2.051  0.8808  2.2902 -0.6265
 8453TIP3   OH249553   6.480   2.616   1.767  0.1907  0.8475  0.1031
 8453TIP3    H149554   6.528   2.600   1.848  0.5759 -0.8984 -0.4311
 8453TIP3    H249555   6.446   2.530   1.742 -1.7933  1.7418 -0.4398
 8454TIP3   OH249556   2.181   5.842   3.060  0.7648  0.2456 -0.3120
 8454TIP3    H149557   2.166   5.795   2.979  1.1925  2.2115 -1.6055
 8454TIP3    H249558   2.145   5.930   3.044 -1.9361 -0.1187  2.6951
 8455TIP3   OH249559   5.272   2.877   9.078  0.1007 -0.5647  0.3743
 8455TIP3    H149560   5.316   2.961   9.070  0.4591 -0.7238  0.6535
 8455TIP3    H249561   5.274   2.857   9.171  0.1024 -0.9244  0.3012
 8456TIP3   OH249562   4.513   0.527   7.299  0.3746  0.0489 -0.2724
 8456TIP3    H149563   4.527   0.490   7.212  0.2652  1.5291 -0.9451
 8456TIP3    H249564   4.430   0.575   7.292  0.9473  1.1737  0.2893
 8457TIP3   OH249565   3.861   0.846   9.622 -0.5579  0.5237  0.3983
 8457TIP3    H149566   3.926   0.786   9.587 -2.0645  0.0019 -1.6630
 8457TIP3    H249567   3.848   0.816   9.712  1.1377 -0.0826  0.4876
 8458TIP3   OH249568   1.938   0.468   1.660  1.0174 -0.0179  0.3697
 8458TIP3    H149569   1.930   0.391   1.604 -0.9446  0.9699 -0.8039
 8458TIP3    H249570   2.027   0.500   1.644  0.8660 -0.3745 -1.3722
 8459TIP3   OH249571   0.081   1.703   9.053  0.4169 -0.5266  0.6478
 8459TIP3    H149572   0.079   1.656   8.970 -1.2008  0.5083  0.0473
 8459TIP3    H249573   0.011   1.664   9.104 -1.2687  1.4467 -0.0397
 8460TIP3   OH249574   4.690   7.483   2.023 -0.3560  0.0642 -0.7490
 8460TIP3    H149575   4.650   7.407   2.065  0.8174 -1.0109 -1.5117
 8460TIP3    H249576   4.625   7.510   1.958 -2.2532  1.8370  1.6825
 8461TIP3   OH249577   1.559   5.021   0.571  0.2530  0.1607 -0.0310
 8461TIP3    H149578   1.540   4.994   0.481  0.5796 -1.4992  0.3488
 8461TIP3    H249579   1.561   4.938   0.620  0.2064  1.0231  1.4731
 8462TIP3   OH249580   4.968   2.328   1.464 -0.3067 -0.2943 -0.0351
 8462TIP3    H149581   5.037   2.294   1.521  0.1251  2.1261  0.9890
 8462TIP3    H249582   5.010   2.334   1.378  1.0738  1.8312  0.7153
 8463TIP3   OH249583   6.422   0.936   9.461  0.4303 -0.4051 -0.3981
 8463TIP3    H149584   6.366   0.929   9.538  1.4440  0.2193  0.4217
 8463TIP3    H249585   6.363   0.966   9.392 -0.3599 -0.3131  0.2972
 8464TIP3   OH249586   0.403   5.144   9.161  0.3679  0.1958  0.0402
 8464TIP3    H149587   0.372   5.202   9.230 -1.7291 -1.7705  0.8657
 8464TIP3    H249588   0.434   5.066   9.207 -0.1433 -0.7537 -1.1745
 8465TIP3   OH249589   0.080   4.715   1.435  0.1394  0.1862 -0.0596
 8465TIP3    H149590   0.037   4.798   1.413  2.1648  1.0952 -0.8168
 8465TIP3    H249591   0.085   4.668   1.352 -1.2481 -0.8631  0.4153
 8466TIP3   OH249592   1.826   3.614   9.854 -0.3396  0.7546 -0.2105
 8466TIP3    H149593   1.781   3.607   9.770  0.8376  0.1602 -0.8101
 8466TIP3    H249594   1.827   3.524   9.888  0.1389  0.8098 -0.0723
 8467TIP3   OH249595   4.414   5.872   1.486 -0.3945  0.5074  0.6572
 8467TIP3    H149596   4.471   5.799   1.511  1.3635  0.4412 -2.8474
 8467TIP3    H249597   4.335   5.830   1.452  1.4638 -0.2106 -3.4340
 8468TIP3   OH249598   7.440   4.794   2.433  0.3052 -0.0624 -0.3458
 8468TIP3    H149599   7.522   4.827   2.397  1.6932 -1.8112  0.9677
 8468TIP3    H249600   7.400   4.870   2.476  1.3994  0.7666 -0.7527
 8469TIP3   OH249601   2.712   5.398   2.046  0.1529  0.2990 -0.4011
 8469TIP3    H149602   2.769   5.326   2.074 -0.2552 -0.3759 -1.2721
 8469TIP3    H249603   2.625   5.359   2.039  0.0070  0.7718 -1.3126
 8470TIP3   OH249604   3.263   0.962   7.315 -0.2986  0.5850  0.1659
 8470TIP3    H149605   3.269   0.970   7.220 -1.2107  0.5081  0.0949
 8470TIP3    H249606   3.248   0.868   7.331  1.5715  0.3143  0.4940
 8471TIP3   OH249607   4.815   4.341   9.995  0.5219  0.4095  0.4470
 8471TIP3    H149608   4.899   4.384  10.010  0.6261  0.3011  0.1757
 8471TIP3    H249609   4.838   4.253   9.966  0.3286  0.6715 -0.5138
 8472TIP3   OH249610   3.879   4.581   8.516  0.5449 -0.1908 -0.1695
 8472TIP3    H149611   3.878   4.674   8.539 -1.9220  0.3080 -1.8544
 8472TIP3    H249612   3.913   4.579   8.427  1.3856 -1.0128  0.1646
 8473TIP3   OH249613   6.834   6.979   9.432  0.1848  0.0941  0.5295
 8473TIP3    H149614   6.892   7.055   9.439 -0.9252  0.8779  1.6259
 8473TIP3    H249615   6.892   6.904   9.428  1.4441  1.0346 -2.7543
 8474TIP3   OH249616   2.073   2.008   7.957  0.8993 -0.2225 -0.4782
 8474TIP3    H149617   2.038   1.946   7.894 -0.2241  1.3794 -1.5209
 8474TIP3    H249618   2.108   1.954   8.028  0.2088 -2.0131 -1.4467
 8475TIP3   OH249619   3.833   1.794   0.232 -0.2112 -0.7977 -0.0898
 8475TIP3    H149620   3.779   1.790   0.311  0.6197  0.4353  0.5639
 8475TIP3    H249621   3.852   1.887   0.220  2.9577 -1.2430  0.5723
 8476TIP3   OH249622   0.956   2.619   8.357 -0.1768  0.1601  0.0219
 8476TIP3    H149623   1.016   2.637   8.285 -1.3452  2.0629 -0.5559
 8476TIP3    H249624   0.907   2.541   8.329 -0.4730  0.7547 -1.1771
 8477TIP3   OH249625   1.279   5.394   7.687  0.2933  0.2309  0.3558
 8477TIP3    H149626   1.267   5.349   7.771  2.2631  0.4953  0.8466
 8477TIP3    H249627   1.231   5.341   7.624  0.3341 -1.0429  1.3539
 8478TIP3   OH249628   3.014   6.931   0.887  0.6084 -0.0441  0.8424
 8478TIP3    H149629   3.030   6.859   0.949 -0.0543 -0.5343  0.4516
 8478TIP3    H249630   3.019   6.890   0.801  0.7725  0.4951  0.5899
 8479TIP3   OH249631   6.627   2.485   8.462  0.7587  0.3546 -0.5447
 8479TIP3    H149632   6.587   2.454   8.381 -2.1140  1.5939  0.2886
 8479TIP3    H249633   6.591   2.427   8.530  0.9457  1.0642  0.1752
 8480TIP3   OH249634   7.106   2.868   9.538 -0.4225  0.3001 -0.7338
 8480TIP3    H149635   7.057   2.787   9.521 -0.7663 -0.0608  1.5863
 8480TIP3    H249636   7.195   2.848   9.509 -0.2237 -1.3891  0.8127
 8481TIP3   OH249637   1.863   0.942   7.580 -0.1157 -0.1893 -0.2375
 8481TIP3    H149638   1.949   0.971   7.609  0.7915 -1.6749 -1.2423
 8481TIP3    H249639   1.825   1.018   7.537  1.0676  0.2572 -0.5328
 8482TIP3   OH249640   2.873   6.515   7.306 -0.2811  1.0011  0.4779
 8482TIP3    H149641   2.938   6.557   7.249 -0.5051 -0.8837 -1.2753
 8482TIP3    H249642   2.822   6.587   7.341  0.8079  2.3351 -0.5581
 8483TIP3   OH249643   1.241   2.007   0.368 -0.1315 -0.3196  0.0561
 8483TIP3    H149644   1.217   1.996   0.276  0.3969  0.6397 -0.2117
 8483TIP3    H249645   1.337   2.003   0.369 -0.0268  1.4167  0.2917
 8484TIP3   OH249646   7.399   4.058   8.737 -0.0626  0.0751 -0.5016
 8484TIP3    H149647   7.326   4.019   8.783  0.0537  0.1867 -0.2192
 8484TIP3    H249648   7.476   4.037   8.791  0.3091 -1.2286 -1.5056
 8485TIP3   OH249649   6.601   2.597   0.513  0.3184 -0.6793 -0.2938
 8485TIP3    H149650   6.542   2.596   0.438  0.3302 -0.9457 -0.3032
 8485TIP3    H249651   6.626   2.505   0.524  0.6612 -0.5818 -0.2365
 8486TIP3   OH249652   3.617   3.024   9.517  0.1025  0.9376 -0.1366
 8486TIP3    H149653   3.582   3.020   9.605 -0.3163 -0.1771 -0.3369
 8486TIP3    H249654   3.580   3.104   9.479 -0.8138  0.6993  0.2410
 8487TIP3   OH249655   3.570   5.489   7.484 -0.1242 -0.1482  0.3139
 8487TIP3    H149656   3.576   5.507   7.578 -0.4276  3.2822 -0.1771
 8487TIP3    H249657   3.661   5.481   7.456  0.0291  0.1615  0.7094
 8488TIP3   OH249658   4.923   5.960   2.429 -0.0174  0.1769 -0.1512
 8488TIP3    H149659   4.841   5.966   2.380 -0.2625  2.0872  0.4115
 8488TIP3    H249660   4.929   6.043   2.477  1.5020 -0.5454  1.0100
 8489TIP3   OH249661   1.189   5.337   1.894 -0.1424 -0.0709 -0.0385
 8489TIP3    H149662   1.151   5.270   1.951 -1.0924 -0.4710 -1.1239
 8489TIP3    H249663   1.273   5.357   1.935 -0.4231 -0.9610  1.0348
 8490TIP3   OH249664   4.847   2.361   9.409  0.3020  0.3502 -0.3127
 8490TIP3    H149665   4.860   2.292   9.474  1.7695  0.2125 -0.7107
 8490TIP3    H249666   4.780   2.418   9.447 -0.8943 -1.2482  0.0475
 8491TIP3   OH249667   5.308   5.610   7.943 -0.4377 -0.4899 -0.3978
 8491TIP3    H149668   5.270   5.524   7.956 -0.9543 -0.2361 -0.1971
 8491TIP3    H249669   5.296   5.654   8.028 -1.5915  0.3200 -0.9626
 8492TIP3   OH249670   4.881   2.355   0.914  0.3292  0.2803 -0.6086
 8492TIP3    H149671   4.815   2.412   0.876  0.8502  0.1709 -1.7203
 8492TIP3    H249672   4.945   2.415   0.953 -1.3139  0.3863  2.1828
 8493TIP3   OH249673   4.611   3.867   9.501 -0.1274 -0.0929 -0.5352
 8493TIP3    H149674   4.679   3.908   9.448  0.5673  1.4792  1.4729
 8493TIP3    H249675   4.649   3.784   9.530 -0.4115 -0.8404 -2.1568
 8494TIP3   OH249676   6.364   3.596   9.211  0.2343  0.1788 -0.3631
 8494TIP3    H149677   6.417   3.674   9.224 -1.9794  2.0492 -1.5975
 8494TIP3    H249678   6.336   3.571   9.298  1.2878  0.5190  0.0898
 8495TIP3   OH249679   3.958   2.936   1.145 -0.1091  0.6551  0.1836
 8495TIP3    H149680   3.978   2.845   1.122  1.9726  1.1688 -0.2851
 8495TIP3    H249681   3.872   2.952   1.107 -0.7275 -1.2310  0.6642
 8496TIP3   OH249682   3.910   2.039   6.899 -0.5018  0.5935  0.3191
 8496TIP3    H149683   3.865   2.122   6.915  0.8183  1.4157 -0.0642
 8496TIP3    H249684   4.000   2.055   6.925 -0.3070 -0.8645  0.6272
 8497TIP3   OH249685   3.542   5.498   0.975  0.0695 -0.0145  0.0219
 8497TIP3    H149686   3.625   5.546   0.978 -0.2798  0.5629  1.7404
 8497TIP3    H249687   3.502   5.523   0.892  1.1263  0.5408 -0.3348
 8498TIP3   OH249688   4.033   6.195   9.279  0.2255  0.0511 -0.0370
 8498TIP3    H149689   4.015   6.175   9.371  1.4127 -0.4252  0.1186
 8498TIP3    H249690   4.008   6.115   9.233 -1.7984  0.8072 -0.3584
 8499TIP3   OH249691   0.536   4.203   0.586 -0.7857  0.1823 -0.4037
 8499TIP3    H149692   0.611   4.229   0.532 -0.6759 -0.4438 -0.5633
 8499TIP3    H249693   0.564   4.123   0.629 -0.7099  0.9101  0.9440
 8500TIP3   OH249694   3.580   1.270   1.108 -0.0986  0.6081 -0.1922
 8500TIP3    H149695   3.529   1.335   1.156 -0.9447 -0.5651  0.5556
 8500TIP3    H249696   3.667   1.309   1.099 -0.1971  1.2761  1.4304
 8501TIP3   OH249697   2.057   6.851   7.901  0.3508 -0.1492 -0.2757
 8501TIP3    H149698   1.991   6.896   7.847 -3.0649 -0.7127  3.0102
 8501TIP3    H249699   2.097   6.921   7.952 -0.3955 -0.1436  0.3197
 8502TIP3   OH249700   7.481   2.638   1.171  0.0214  0.5307  0.5563
 8502TIP3    H149701   7.413   2.580   1.135 -0.7679  0.9683  1.3020
 8502TIP3    H249702   7.563   2.595   1.150 -0.2181  1.5193 -3.2910
 8503TIP3   OH249703   5.418   7.377   8.331  0.0832 -0.5121  0.1117
 8503TIP3    H149704   5.326   7.363   8.311 -0.7197  1.6062  1.9123
 8503TIP3    H249705   5.448   7.295   8.369 -0.8775 -1.3982 -0.9695
 8504TIP3   OH249706   5.137   0.766   0.484  0.2381 -0.9454  0.0124
 8504TIP3    H149707   5.125   0.769   0.579  0.2489 -1.3385  0.0296
 8504TIP3    H249708   5.154   0.673   0.465 -1.4175 -1.1639 -0.5666
 8505TIP3   OH249709   0.807   3.446   2.433 -0.1558 -0.4109  0.4641
 8505TIP3    H149710   0.811   3.520   2.494 -0.5590  0.2677 -0.3066
 8505TIP3    H249711   0.898   3.428   2.412 -0.0620  0.0733  0.4263
 8506TIP3   OH249712   1.144   0.117   1.406 -0.4562  0.2423 -0.0638
 8506TIP3    H149713   1.128   0.040   1.460 -0.6618  0.1948 -0.1922
 8506TIP3    H249714   1.149   0.190   1.468 -0.6697  0.1841  0.0233
 8507TIP3   OH249715   5.224   0.674   7.076 -0.0868 -0.0124  0.2337
 8507TIP3    H149716   5.153   0.715   7.126  1.2506 -1.1784  3.3353
 8507TIP3    H249717   5.204   0.581   7.080  0.6159 -0.2028 -0.5816
 8508TIP3   OH249718   5.651   1.198   9.781 -0.0799  0.4820  0.1306
 8508TIP3    H149719   5.588   1.214   9.850 -1.4159  0.2875 -0.9968
 8508TIP3    H249720   5.699   1.281   9.773 -2.0926  1.6362 -0.8444
 8509TIP3   OH249721   3.810   3.323   7.176  0.3034  0.1236  0.3587
 8509TIP3    H149722   3.814   3.385   7.103 -1.6974  1.8182  1.5880
 8509TIP3    H249723   3.728   3.275   7.162  0.8865 -0.9446  0.4609
 8510TIP3   OH249724   7.266   4.575   8.808  0.1625  0.0998  0.4180
 8510TIP3    H149725   7.317   4.648   8.773  0.3067 -0.3320 -0.3073
 8510TIP3    H249726   7.294   4.499   8.756 -3.3046  0.3333 -2.1231
 8511TIP3   OH249727   1.152   4.921   7.517  0.6272 -0.1307  0.3945
 8511TIP3    H149728   1.225   4.867   7.486 -0.0876 -0.3438 -1.0033
 8511TIP3    H249729   1.166   5.006   7.475 -0.5328 -0.5163 -0.8414
 8512TIP3   OH249730   1.189   1.388   1.684 -0.1154 -0.0212  0.4027
 8512TIP3    H149731   1.271   1.343   1.665 -0.7622 -1.0719  0.0746
 8512TIP3    H249732   1.215   1.459   1.744  0.9227 -0.7589  0.8627
 8513TIP3   OH249733   2.059   0.717   0.828 -0.4685 -0.5818 -0.4151
 8513TIP3    H149734   2.095   0.778   0.894 -0.9585  0.4036 -1.0279
 8513TIP3    H249735   2.014   0.651   0.879  0.2591 -0.5584  0.2876
 8514TIP3   OH249736   5.902   7.434   9.180 -0.1884  0.5486 -0.0851
 8514TIP3    H149737   5.904   7.345   9.213 -1.5888  1.1942  1.9532
 8514TIP3    H249738   5.820   7.441   9.132 -0.9570  1.1711  1.2583
 8515TIP3   OH249739   5.332   6.572   9.075 -0.1729 -0.4850  0.2268
 8515TIP3    H149740   5.412   6.599   9.029  0.4200 -2.3562  0.0681
 8515TIP3    H249741   5.363   6.546   9.162 -0.5759 -1.3594  0.1178
 8516TIP3   OH249742   1.420   6.038   0.458  0.0851 -0.5394  0.5447
 8516TIP3    H149743   1.404   5.945   0.475  0.8939 -0.6042  0.9858
 8516TIP3    H249744   1.490   6.062   0.518  0.6694  0.0792 -0.3526
 8517TIP3   OH249745   1.212   7.310   7.395 -0.2065  0.2572 -0.5141
 8517TIP3    H149746   1.203   7.318   7.300  0.2869 -2.8744 -0.9236
 8517TIP3    H249747   1.133   7.265   7.424  1.0379 -1.7080  0.0264
 8518TIP3   OH249748   4.831   0.716   1.265  0.2176  0.4409 -0.5123
 8518TIP3    H149749   4.767   0.783   1.287 -0.2936  0.1968 -1.2004
 8518TIP3    H249750   4.914   0.749   1.300 -0.2413  0.8596  0.2063
 8519TIP3   OH249751   2.265   2.632   7.596 -0.3140 -0.1109 -0.2147
 8519TIP3    H149752   2.234   2.569   7.532 -0.1694  0.2055 -0.5976
 8519TIP3    H249753   2.250   2.589   7.681 -0.1228 -0.6973 -0.4722
 8520TIP3   OH249754   4.795   6.276   0.257  0.3947  0.4289  0.2669
 8520TIP3    H149755   4.842   6.355   0.230 -1.7598  2.2087  1.4102
 8520TIP3    H249756   4.791   6.282   0.352 -0.9570 -0.3400  0.2834
 8521TIP3   OH249757   0.536   3.310   1.325 -0.2114  0.4309  0.0316
 8521TIP3    H149758   0.500   3.251   1.258 -3.5532 -0.2851  2.2054
 8521TIP3    H249759   0.602   3.257   1.369 -1.2027 -0.7630  0.1599
 8522TIP3   OH249760   5.468   1.653   0.353 -0.8415 -0.2792 -0.5371
 8522TIP3    H149761   5.390   1.703   0.330 -1.7441 -1.7527 -0.8514
 8522TIP3    H249762   5.541   1.704   0.318 -1.6690  1.0360 -0.4040
 8523TIP3   OH249763   3.627   5.950   1.058  0.3794  0.0532 -0.3062
 8523TIP3    H149764   3.556   5.935   1.121 -0.3869  0.7573 -0.9790
 8523TIP3    H249765   3.583   5.960   0.974  1.2719  0.6180 -0.7208
 8524TIP3   OH249766   6.259   4.537   7.264  0.3225  0.2669 -0.1992
 8524TIP3    H149767   6.327   4.511   7.201 -0.9444  0.1407 -1.5901
 8524TIP3    H249768   6.294   4.614   7.307  2.0612 -0.7935  0.3762
 8525TIP3   OH249769   4.652   4.585   8.969 -0.2688 -0.3720  0.4645
 8525TIP3    H149770   4.746   4.579   8.980 -0.2072 -2.3743 -0.6163
 8525TIP3    H249771   4.638   4.668   8.922  0.9499 -0.1059  0.5575
 8526TIP3   OH249772   6.228   3.289   0.668  0.3762 -0.1987  0.3509
 8526TIP3    H149773   6.195   3.221   0.727  1.0681 -0.0089  0.9662
 8526TIP3    H249774   6.320   3.300   0.693  0.1067  1.4478  0.7372
 8527TIP3   OH249775   3.829   2.897   8.330  0.0774 -0.6564 -0.1823
 8527TIP3    H149776   3.777   2.909   8.409 -0.1213 -0.1879 -0.3822
 8527TIP3    H249777   3.896   2.834   8.355 -0.2571 -0.8531  0.2309
 8528TIP3   OH249778   3.980   2.774   0.636  0.1045 -0.0912 -0.0420
 8528TIP3    H149779   4.010   2.796   0.724  3.2576  0.1767 -1.0549
 8528TIP3    H249780   3.996   2.853   0.584 -0.0806 -0.7791 -1.1915
 8529TIP3   OH249781   6.332   1.663   9.290  0.2314  0.5444  0.2374
 8529TIP3    H149782   6.331   1.730   9.358 -0.5406  1.4576 -0.6461
 8529TIP3    H249783   6.403   1.604   9.316 -0.2570  0.6689  2.0117
 8530TIP3   OH249784   5.080   6.174   8.326 -0.3201 -0.4771 -0.3050
 8530TIP3    H149785   4.994   6.135   8.340  0.1332 -1.0023  1.2764
 8530TIP3    H249786   5.135   6.134   8.394  1.0733  0.1379 -1.0361
 8531TIP3   OH249787   5.779   6.871   8.093  0.0570 -0.0261 -0.0863
 8531TIP3    H149788   5.806   6.788   8.053  2.8470 -0.1825  1.8139
 8531TIP3    H249789   5.826   6.938   8.043 -0.6704  0.2555 -0.4024
 8532TIP3   OH249790   7.387   0.608   7.754  0.0750 -0.4410  0.3048
 8532TIP3    H149791   7.379   0.575   7.664 -0.4132 -0.1840  0.2509
 8532TIP3    H249792   7.454   0.552   7.794 -0.0236 -0.8439 -0.0854
 8533TIP3   OH249793   0.372   4.271   8.990 -0.1117  0.2259  0.2085
 8533TIP3    H149794   0.400   4.331   9.058 -0.7726 -0.6268  1.2699
 8533TIP3    H249795   0.413   4.187   9.013  1.6906  0.4561 -1.8432
 8534TIP3   OH249796   2.849   2.570   9.469 -0.8303  0.3679 -0.2612
 8534TIP3    H149797   2.801   2.511   9.411  0.0754 -0.1091 -0.5456
 8534TIP3    H249798   2.903   2.624   9.410 -1.0566  0.9408  0.0454
 8535TIP3   OH249799   5.327   7.173   9.396  0.4197 -0.3193  0.1303
 8535TIP3    H149800   5.334   7.194   9.302 -1.5098  0.1261  0.0299
 8535TIP3    H249801   5.277   7.091   9.398  1.3160 -0.8702  0.7717
 8536TIP3   OH249802   6.789   2.341   9.727  0.6694 -0.7810 -0.4214
 8536TIP3    H149803   6.740   2.420   9.705  2.1999  1.6845  3.9053
 8536TIP3    H249804   6.880   2.363   9.709  1.1042 -1.6557  0.6182
 8537TIP3   OH249805   5.609   5.271   9.166  0.6516  0.1973 -0.1940
 8537TIP3    H149806   5.655   5.354   9.174 -1.0808  1.2982 -1.0074
 8537TIP3    H249807   5.517   5.296   9.155 -0.0029 -1.8556  0.2701
 8538TIP3   OH249808   7.208   6.171   8.031  0.3394 -0.2923 -0.2587
 8538TIP3    H149809   7.130   6.208   7.991 -0.3806  1.1312  2.2215
 8538TIP3    H249810   7.195   6.077   8.028 -0.8687 -0.1251 -0.9780
 8539TIP3   OH249811   4.959   3.649   1.057 -0.0761 -0.3495  0.5293
 8539TIP3    H149812   4.925   3.734   1.086  1.1613  0.1709  0.5182
 8539TIP3    H249813   4.913   3.632   0.974 -1.1276 -0.2273  1.0663
 8540TIP3   OH249814   5.057   5.807   9.582 -0.5077 -0.3200  0.3165
 8540TIP3    H149815   5.029   5.812   9.673  0.9182  0.7452  0.7138
 8540TIP3    H249816   5.110   5.727   9.578  3.1775  1.8018  1.5904
 8541TIP3   OH249817   6.038   1.883   1.313 -0.0015 -0.1592  0.7521
 8541TIP3    H149818   5.963   1.824   1.304 -0.3693  0.4230 -0.2532
 8541TIP3    H249819   6.109   1.839   1.267 -0.0052 -0.2829  0.8676
 8542TIP3   OH249820   3.857   0.439   0.058  0.9812 -0.9587 -0.0723
 8542TIP3    H149821   3.844   0.413   0.149  0.3293 -0.4287 -0.0120
 8542TIP3    H249822   3.852   0.534   0.059  0.1164 -0.9859 -0.7886
 8543TIP3   OH249823   6.129   2.584   9.953 -0.0744  0.3417  0.1776
 8543TIP3    H149824   6.088   2.663   9.919  0.4484  0.1397 -0.9616
 8543TIP3    H249825   6.222   2.605   9.959  0.0076 -0.0374  0.3078
 8544TIP3   OH249826   2.696   3.817   1.720 -0.5342 -0.0573  0.1164
 8544TIP3    H149827   2.721   3.791   1.631 -0.7450 -1.4179  0.4350
 8544TIP3    H249828   2.735   3.750   1.776  0.2746  1.2260  1.1432
 8545TIP3   OH249829   6.385   4.780   9.863 -0.4795  0.0483  0.0716
 8545TIP3    H149830   6.413   4.859   9.908 -0.3345 -0.4987  0.9616
 8545TIP3    H249831   6.369   4.808   9.772 -1.4642  1.3233  0.6091
 8546TIP3   OH249832   3.474   4.093   2.589 -0.7028  0.0602  0.2177
 8546TIP3    H149833   3.503   4.058   2.673 -0.1274 -1.4309 -0.5570
 8546TIP3    H249834   3.547   4.147   2.560 -0.8066  0.3930  0.5714
 8547TIP3   OH249835   4.027   5.341   0.809 -0.3052 -0.1246  0.6353
 8547TIP3    H149836   4.085   5.412   0.782 -1.4931  1.3356  1.7015
 8547TIP3    H249837   4.085   5.276   0.847  0.9670 -0.4216 -1.6398
 8548TIP3   OH249838   2.845   5.937   0.820  0.8139 -0.6647 -0.1390
 8548TIP3    H149839   2.828   5.844   0.802 -0.1984 -0.4989 -0.1338
 8548TIP3    H249840   2.892   5.937   0.903 -1.3570 -1.0918  1.1779
 8549TIP3   OH249841   2.486   6.926   8.029 -0.0208  0.9084  0.2066
 8549TIP3    H149842   2.502   6.871   8.105  1.1429 -1.7227 -1.7490
 8549TIP3    H249843   2.560   6.987   8.026 -0.9151  2.1618  1.9764
 8550TIP3   OH249844   2.889   0.187   2.742 -0.1214 -0.1779  0.0506
 8550TIP3    H149845   2.943   0.129   2.688 -1.6875 -0.1738 -1.6392
 8550TIP3    H249846   2.952   0.243   2.788  1.3527 -1.8482  0.1520
 8551TIP3   OH249847   2.504   6.885   6.723 -0.5282  0.5456  0.3823
 8551TIP3    H149848   2.483   6.927   6.640 -0.5321  0.6250  0.4234
 8551TIP3    H249849   2.501   6.791   6.704  1.0890  0.5601 -0.1241
 8552TIP3   OH249850   2.492   5.095   7.514  0.3417  0.8083 -0.2736
 8552TIP3    H149851   2.494   5.007   7.475  0.7358  1.5717 -2.0689
 8552TIP3    H249852   2.583   5.114   7.535  0.0326  0.0190  2.0515
 8553TIP3   OH249853   3.054   5.155   0.167 -0.3987 -0.3768 -0.1058
 8553TIP3    H149854   3.059   5.182   0.075  0.9687 -0.1101  0.0362
 8553TIP3    H249855   2.992   5.082   0.166 -2.4621  1.2807 -0.8291
 8554TIP3   OH249856   2.912   3.690   8.903  0.6479  0.2706 -0.4273
 8554TIP3    H149857   2.996   3.711   8.863 -0.0372 -0.6385 -2.4350
 8554TIP3    H249858   2.873   3.776   8.922  2.2975  0.7068  1.2468
 8555TIP3   OH249859   4.698   6.246   9.812  0.5525 -0.2170 -0.4213
 8555TIP3    H149860   4.749   6.245   9.731 -0.2173  0.4838 -0.9357
 8555TIP3    H249861   4.730   6.171   9.862  1.4895 -0.2743 -1.0906
 8556TIP3   OH249862   0.607   2.827   0.764  0.2356  0.5509  0.0041
 8556TIP3    H149863   0.576   2.869   0.684  0.6454 -0.3560 -0.6531
 8556TIP3    H249864   0.563   2.874   0.835 -1.3289  0.3950 -0.8137
 8557TIP3   OH249865   3.180   5.909   9.224  0.0875  0.0294  0.3482
 8557TIP3    H149866   3.188   5.840   9.290  0.7739 -1.2240 -0.9929
 8557TIP3    H249867   3.086   5.931   9.225 -0.1916 -1.0932  0.6296
 8558TIP3   OH249868   0.496   1.851   2.570 -0.0336 -0.2019 -0.0152
 8558TIP3    H149869   0.503   1.788   2.642 -0.0950  1.2664  1.3266
 8558TIP3    H249870   0.564   1.916   2.589  0.5694 -0.2469 -1.8094
 8559TIP3   OH249871   0.241   5.145   0.528 -0.4387 -0.3047 -0.0721
 8559TIP3    H149872   0.257   5.085   0.455 -0.8478 -0.2273 -0.2276
 8559TIP3    H249873   0.235   5.232   0.487 -0.1434 -0.1918  0.1177
 8560TIP3   OH249874   2.100   6.028   0.075  0.1076  0.1334 -0.4242
 8560TIP3    H149875   2.161   5.985   0.015  2.6723  1.5564  1.0062
 8560TIP3    H249876   2.126   5.998   0.162  0.0517  2.2537  0.3714
 8561TIP3   OH249877   5.118   1.148   9.752 -0.0010 -0.2858  0.1190
 8561TIP3    H149878   5.186   1.172   9.688  0.3969 -1.5805  0.0378
 8561TIP3    H249879   5.152   1.179   9.836  1.0594 -1.5719  0.1911
 8562TIP3   OH249880   5.806   5.314   1.810  0.4619  0.0338 -0.0870
 8562TIP3    H149881   5.712   5.293   1.813  0.5464 -0.2972  2.7069
 8562TIP3    H249882   5.827   5.315   1.716 -2.4611  0.8060 -0.8403
 8563TIP3   OH249883   6.755   3.906   1.627  0.3589  0.5904 -0.0166
 8563TIP3    H149884   6.831   3.945   1.585  0.3194 -1.2414 -1.9782
 8563TIP3    H249885   6.765   3.812   1.612 -1.1305  0.0984  1.7125
 8564TIP3   OH249886   3.074   1.629   9.029 -0.8051  0.3678 -0.1610
 8564TIP3    H149887   3.040   1.581   8.953 -0.1730  0.3804 -0.4595
 8564TIP3    H249888   3.055   1.721   9.009 -1.5626  0.2937  0.1779
 8565TIP3   OH249889   3.131   5.730   1.343 -0.5068 -0.2308 -0.3681
 8565TIP3    H149890   3.111   5.797   1.408  2.6664  0.7698 -0.2414
 8565TIP3    H249891   3.202   5.679   1.382 -1.5829 -2.5611 -1.2453
 8566TIP3   OH249892   7.459   2.338   0.890 -0.0786 -0.8926  0.6698
 8566TIP3    H149893   7.434   2.301   0.975  1.7212  0.3581  1.8245
 8566TIP3    H249894   7.384   2.391   0.864 -0.2743 -0.4774  2.0058
 8567TIP3   OH249895   5.223   4.012   9.763 -0.9218 -0.7867 -0.1139
 8567TIP3    H149896   5.246   3.984   9.852  1.3235  2.3787  0.4796
 8567TIP3    H249897   5.281   3.961   9.706 -0.1926 -0.6474  0.4957
 8568TIP3   OH249898   7.426   1.840   0.728  0.0176 -0.2973  0.1646
 8568TIP3    H149899   7.497   1.783   0.758 -0.7228 -0.0106  2.7203
 8568TIP3    H249900   7.465   1.928   0.728  0.4740 -0.4793 -1.3948
 8569TIP3   OH249901   3.571   4.933   2.623  0.5063  0.2380  0.3945
 8569TIP3    H149902   3.617   4.898   2.546  0.1851 -0.1036  0.3528
 8569TIP3    H249903   3.494   4.877   2.631  0.1522  0.7446  0.5242
 8570TIP3   OH249904   4.813   4.657   9.924 -0.0794 -0.2770  0.2150
 8570TIP3    H149905   4.779   4.696  10.004 -0.0667  0.9621 -0.3603
 8570TIP3    H249906   4.864   4.582   9.954  1.1998  1.0406  1.5279
 8571TIP3   OH249907   4.933   2.224   8.446 -0.1634  0.6695 -0.3466
 8571TIP3    H149908   4.960   2.293   8.508 -1.7714  0.9018  0.1291
 8571TIP3    H249909   5.015   2.195   8.406  0.9477  0.5263  1.8793
 8572TIP3   OH249910   1.511   0.282   2.354  0.2008  0.5086  1.1360
 8572TIP3    H149911   1.533   0.197   2.316 -1.0291  1.1253 -1.1648
 8572TIP3    H249912   1.571   0.344   2.312  0.1676  0.9564  1.7417
 8573TIP3   OH249913   4.115   3.078   8.086 -0.5281  0.3854  0.6162
 8573TIP3    H149914   4.127   3.046   7.996  0.1342 -0.0857  0.8682
 8573TIP3    H249915   4.022   3.062   8.104 -0.6524  0.4272  0.0379
 8574TIP3   OH249916   4.026   1.670   0.850  0.0773  1.2082 -0.3872
 8574TIP3    H149917   4.117   1.695   0.863  0.4609 -0.3274  0.0698
 8574TIP3    H249918   3.978   1.715   0.920  0.5171  1.7564 -0.4322
 8575TIP3   OH249919   4.842   0.310   0.628  0.0813 -0.1811 -0.1436
 8575TIP3    H149920   4.807   0.394   0.657 -1.2820 -0.7286 -0.1391
 8575TIP3    H249921   4.813   0.248   0.695  0.6129 -0.7579 -0.4344
 8576TIP3   OH249922   3.338   4.368   2.259 -0.3271  0.2747 -0.4453
 8576TIP3    H149923   3.374   4.297   2.205 -0.3722  0.5857 -0.8946
 8576TIP3    H249924   3.243   4.357   2.253 -0.3267  0.0001 -0.0012
 8577TIP3   OH249925   7.134   6.651   7.944  0.3108  0.5154  0.0864
 8577TIP3    H149926   7.074   6.599   7.998 -1.9776  1.6459 -1.2597
 8577TIP3    H249927   7.176   6.587   7.887 -1.5492 -0.0601 -0.6977
 8578TIP3   OH249928   1.719   4.958   8.603  0.0304  0.6168  0.3397
 8578TIP3    H149929   1.742   4.943   8.511  0.8990  2.4029  0.2242
 8578TIP3    H249930   1.795   5.004   8.639 -1.3967  2.4186  1.2028
 8579TIP3   OH249931   5.574   3.295   9.210  0.3644  0.1161 -0.1005
 8579TIP3    H149932   5.571   3.388   9.187 -2.5594  0.5938  1.6826
 8579TIP3    H249933   5.648   3.287   9.269 -0.7373  1.9347  1.6736
 8580TIP3   OH249934   1.095   3.378   8.186  0.0745 -0.5872  0.5142
 8580TIP3    H149935   1.094   3.302   8.244  0.4238 -1.6974 -0.8687
 8580TIP3    H249936   1.188   3.392   8.166 -0.1354 -1.7020 -1.5672
 8581TIP3   OH249937   4.222   6.485   0.802  0.5945  0.0981  0.6351
 8581TIP3    H149938   4.214   6.509   0.710 -1.6652 -0.7468  0.5406
 8581TIP3    H249939   4.191   6.562   0.850 -2.6428 -0.9818  0.4695
 8582TIP3   OH249940   0.497   1.496   9.290 -0.3270  0.3200 -0.0580
 8582TIP3    H149941   0.405   1.514   9.272  0.0824  1.5210 -1.0566
 8582TIP3    H249942   0.532   1.463   9.207 -0.0653 -1.1507  0.5904
 8583TIP3   OH249943   3.891   6.269   0.726  0.5075 -0.1637 -0.1023
 8583TIP3    H149944   3.976   6.229   0.708  1.4257  1.2682  0.8034
 8583TIP3    H249945   3.892   6.350   0.676 -0.1872  0.0257  0.1778
 8584TIP3   OH249946   4.817   5.785   8.930  0.6063  0.1310  0.0045
 8584TIP3    H149947   4.807   5.699   8.971 -0.2734  1.3203  2.4287
 8584TIP3    H249948   4.895   5.822   8.971  2.0829 -0.1303 -2.3490
 8585TIP3   OH249949   2.912   4.060   8.668 -0.8674 -0.6023 -0.3611
 8585TIP3    H149950   2.899   4.055   8.573 -1.6085  1.0654 -0.3894
 8585TIP3    H249951   2.927   4.152   8.685 -1.9514 -0.6788  1.2750
 8586TIP3   OH249952   4.279   5.304   2.018  0.2293  0.3178 -0.1571
 8586TIP3    H149953   4.272   5.370   2.087  1.7837  1.5594 -1.1216
 8586TIP3    H249954   4.339   5.238   2.055 -1.1603 -0.4913  0.7267
 8587TIP3   OH249955   0.854   7.460   9.464 -0.4560 -0.5468 -0.1973
 8587TIP3    H149956   0.886   7.507   9.387  0.5640  0.9984  1.1194
 8587TIP3    H249957   0.759   7.469   9.460 -0.4494 -0.8574 -1.4858
 8588TIP3   OH249958   1.631   3.493   7.669  0.1968  0.0018  0.4752
 8588TIP3    H149959   1.601   3.525   7.755 -0.4575  2.2132 -0.4742
 8588TIP3    H249960   1.643   3.573   7.618 -1.3594 -1.2827 -2.1029
 8589TIP3   OH249961   6.065   2.092   9.104  0.2802 -1.0193  0.5223
 8589TIP3    H149962   6.009   2.016   9.119 -1.0717  0.0508  1.0289
 8589TIP3    H249963   6.154   2.056   9.102 -0.4775 -2.9951 -1.9749
 8590TIP3   OH249964   3.931   6.571   0.954  0.3890 -0.0232 -0.0390
 8590TIP3    H149965   3.935   6.616   0.870 -0.8571  0.4969  0.1674
 8590TIP3    H249966   3.961   6.635   1.018  2.4832 -0.7850 -0.1823
 8591TIP3   OH249967   2.999   5.526   7.051 -0.6253 -0.2624  0.0410
 8591TIP3    H149968   2.963   5.446   7.014  0.5002  0.2249 -2.3094
 8591TIP3    H249969   2.995   5.590   6.979  1.8258  0.7207  0.6523
 8592TIP3   OH249970   6.088   3.725   9.709  0.5099 -0.0152  0.1010
 8592TIP3    H149971   6.093   3.820   9.693 -1.1136  0.3259  1.3683
 8592TIP3    H249972   6.042   3.717   9.792  0.1906 -1.9455 -0.2202
 8593TIP3   OH249973   3.645   6.190   1.500 -0.7764 -0.2082  0.3837
 8593TIP3    H149974   3.630   6.115   1.557 -0.8090 -0.1967  0.3904
 8593TIP3    H249975   3.562   6.237   1.499 -1.4639 -1.3544 -1.3758
 8594TIP3   OH249976   6.145   3.808   0.286 -0.0866 -0.0055 -0.3254
 8594TIP3    H149977   6.141   3.718   0.318  0.5822  0.4228  1.0556
 8594TIP3    H249978   6.211   3.807   0.217  2.2828 -0.0359  1.7975
 8595TIP3   OH249979   0.385   3.499   1.408 -0.0676 -0.1534  0.3448
 8595TIP3    H149980   0.304   3.478   1.362  0.6395 -3.2029  0.3116
 8595TIP3    H249981   0.450   3.437   1.374  1.6888  0.5970  2.0799
 8596TIP3   OH249982   2.419   4.292   0.401 -0.4107 -0.1234 -0.4875
 8596TIP3    H149983   2.373   4.209   0.416 -0.3948  0.0170  0.4154
 8596TIP3    H249984   2.486   4.294   0.469 -1.8853  1.6953  1.0079
 8597TIP3   OH249985   4.127   0.530   9.091 -0.5754 -0.4517  0.7322
 8597TIP3    H149986   4.177   0.461   9.048 -0.9305 -0.0136 -0.4122
 8597TIP3    H249987   4.036   0.502   9.084 -0.6058 -0.6624  1.7501
 8598TIP3   OH249988   3.239   1.114   0.871  0.3231 -0.2003  0.2012
 8598TIP3    H149989   3.221   1.025   0.901  0.1276 -0.4821 -0.7281
 8598TIP3    H249990   3.286   1.103   0.789 -3.4003  0.4560 -2.2895
 8599TIP3   OH249991   6.765   2.884   8.948 -0.0957  0.2376 -0.6394
 8599TIP3    H149992   6.719   2.963   8.976  1.9242  1.0254  0.6545
 8599TIP3    H249993   6.809   2.853   9.027  0.0050 -1.5988 -1.3793
 8600TIP3   OH249994   4.310   0.546   2.699  0.3952 -0.0134  0.5251
 8600TIP3    H149995   4.310   0.636   2.665  1.2686  0.6130  2.0705
 8600TIP3    H249996   4.301   0.491   2.621  1.5919  1.3701 -0.6645
 8601TIP3   OH249997   3.957   6.405   9.137 -1.0139  0.0034  0.3350
 8601TIP3    H149998   3.975   6.346   9.211 -1.3954  0.7471  1.0445
 8601TIP3    H249999   3.936   6.346   9.064  0.7908 -0.7883  0.4086
 8602TIP3   OH250000   6.496   4.347   8.180  0.5446  0.0014  0.3276
 8602TIP3    H150001   6.552   4.408   8.131 -2.0438  0.6468 -2.1423
 8602TIP3    H250002   6.537   4.262   8.167  1.8038  0.6234 -0.0253
 8603TIP3   OH250003   4.311   2.494   8.230 -0.1801  0.8488  0.0050
 8603TIP3    H150004   4.321   2.572   8.283 -0.3971  0.9377 -0.0824
 8603TIP3    H250005   4.216   2.478   8.227 -0.0797 -0.0671  0.9551
 8604TIP3   OH250006   5.307   1.218   9.932 -0.2320 -0.0086  0.5637
 8604TIP3    H150007   5.314   1.187  10.022  0.8875  1.1863  0.9219
 8604TIP3    H250008   5.310   1.313   9.939 -0.2499  0.1039 -0.7285
 8605TIP3   OH250009   4.182   7.236   9.578 -0.0806  0.0601  0.3833
 8605TIP3    H150010   4.140   7.309   9.622  0.4717  0.0495  0.9492
 8605TIP3    H250011   4.204   7.175   9.648  1.9218  0.5890  0.2871
 8606TIP3   OH250012   0.574   0.284   8.088 -0.4194  0.8492 -0.4287
 8606TIP3    H150013   0.584   0.321   8.176 -0.9204 -0.0994  0.0418
 8606TIP3    H250014   0.486   0.246   8.088  0.4294 -1.2272 -0.5531
 8607TIP3   OH250015   4.054   2.136   2.620  0.1497 -0.3125 -0.1196
 8607TIP3    H150016   3.993   2.152   2.692 -0.0230 -0.5134 -0.2178
 8607TIP3    H250017   4.025   2.053   2.582  1.3664 -1.1487  0.7169
 8608TIP3   OH250018   2.873   6.631   7.736 -0.3145  0.1525  0.2543
 8608TIP3    H150019   2.938   6.700   7.720 -1.4628  0.8433 -1.8606
 8608TIP3    H250020   2.924   6.551   7.739  0.6069  0.4412 -3.2472
 8609TIP3   OH250021   3.051   5.155   9.897 -0.1155  0.3657 -0.0801
 8609TIP3    H150022   3.045   5.072   9.850  0.0675 -0.4841  1.3255
 8609TIP3    H250023   3.019   5.221   9.835 -1.0566 -0.8596 -0.9389
 8610TIP3   OH250024   0.559   5.752   9.426  0.4783  0.2269  0.4971
 8610TIP3    H150025   0.486   5.812   9.438 -0.5784 -0.8748 -0.2159
 8610TIP3    H250026   0.573   5.750   9.331 -0.7294 -2.0019  0.2967
 8611TIP3   OH250027   3.621   3.750   7.676 -0.0496 -0.0296  0.1745
 8611TIP3    H150028   3.530   3.751   7.705  0.1478 -0.8733  0.8700
 8611TIP3    H250029   3.646   3.842   7.672 -0.9906  0.2242 -0.2522
 8612TIP3   OH250030   3.259   7.083   0.231  0.2923  0.2032 -0.0109
 8612TIP3    H150031   3.243   7.177   0.218  1.1307  0.2350 -0.9901
 8612TIP3    H250032   3.352   7.072   0.211 -0.0426 -1.0161 -1.0364
 8613TIP3   OH250033   5.530   0.045   0.163  0.0580 -0.0766 -0.5973
 8613TIP3    H150034   5.486   0.130   0.151 -0.3875  0.1119  1.9404
 8613TIP3    H250035   5.622   0.068   0.179 -0.4945  0.2279  2.7414
 8614TIP3   OH250036   6.672   0.698   8.381 -0.1017 -0.0266 -0.4767
 8614TIP3    H150037   6.684   0.758   8.307  1.5646  2.3974  1.5770
 8614TIP3    H250038   6.580   0.711   8.407 -0.2899  0.1864 -1.2029
 8615TIP3   OH250039   0.293   4.353   0.560  0.1016  0.1093  0.3690
 8615TIP3    H150040   0.385   4.333   0.540 -0.7146 -1.3964 -2.2381
 8615TIP3    H250041   0.279   4.440   0.524  0.1928 -0.1841 -0.3866
 8616TIP3   OH250042   0.332   0.632   8.714  0.4995 -0.0417  0.0355
 8616TIP3    H150043   0.276   0.706   8.737  1.1478  0.5689 -0.3042
 8616TIP3    H250044   0.420   0.658   8.743  0.6815 -0.8282  0.2282
 8617TIP3   OH250045   1.332   5.663   6.768 -0.0434 -0.2815 -0.3926
 8617TIP3    H150046   1.363   5.730   6.707  0.8656 -0.2123  0.1230
 8617TIP3    H250047   1.259   5.705   6.814 -1.2348 -0.5998 -1.9307
 8618TIP3   OH250048   0.177   5.775   8.299  0.4456  0.2785 -0.2592
 8618TIP3    H150049   0.229   5.697   8.319 -0.0272  0.3647  1.4813
 8618TIP3    H250050   0.105   5.741   8.245 -1.2539 -1.1150  2.5897
 8619TIP3   OH250051   3.842   2.606   8.992 -0.1686  0.1446 -0.1311
 8619TIP3    H150052   3.799   2.602   9.078  0.2747 -1.5435  0.0455
 8619TIP3    H250053   3.920   2.660   9.006  0.1291 -0.4721  0.6387
 8620TIP3   OH250054   2.273   6.985   2.538 -0.6243 -0.0462 -0.3972
 8620TIP3    H150055   2.365   7.005   2.556 -0.7107 -1.0606  1.4038
 8620TIP3    H250056   2.225   7.025   2.611 -1.5343 -0.2128 -0.8922
 8621TIP3   OH250057   3.034   4.867   1.826  0.0155  0.1392 -0.0844
 8621TIP3    H150058   3.116   4.883   1.872  0.1121  0.0103 -0.2106
 8621TIP3    H250059   3.032   4.932   1.756  0.1064  0.0102 -0.2066
 8622TIP3   OH250060   3.983   4.465   9.316  0.3988  0.3257  0.9043
 8622TIP3    H150061   4.027   4.471   9.401 -0.3499  1.0283  1.2562
 8622TIP3    H250062   3.897   4.503   9.331  1.5925  4.3684 -1.1446
 8623TIP3   OH250063   5.628   3.524   2.419  0.0571  0.4395  0.3274
 8623TIP3    H150064   5.543   3.483   2.405 -0.0253  0.1079  1.6713
 8623TIP3    H250065   5.687   3.476   2.360 -0.2001 -1.1228  1.2752
 8624TIP3   OH250066   0.029   5.480   8.600  0.3987 -0.2251  0.3133
 8624TIP3    H150067  -0.054   5.450   8.637 -1.6472  2.0556 -1.9759
 8624TIP3    H250068   0.033   5.573   8.623  0.5028  0.5529 -2.4140
 8625TIP3   OH250069   4.598   6.783   8.458  0.3202  0.6252 -0.1996
 8625TIP3    H150070   4.620   6.692   8.475 -0.7386  0.1342 -1.3011
 8625TIP3    H250071   4.653   6.807   8.384  0.3499  0.7786 -0.1281
 8626TIP3   OH250072   6.965   2.298   0.688  0.0870  0.0999 -0.4278
 8626TIP3    H150073   6.933   2.383   0.657  1.1763  0.7032  0.0528
 8626TIP3    H250074   6.892   2.238   0.672 -0.8460  1.1974 -0.4186
 8627TIP3   OH250075   0.212   0.296   8.375  0.7511  0.1425  0.8490
 8627TIP3    H150076   0.213   0.205   8.404  1.0428 -0.5366 -1.1425
 8627TIP3    H250077   0.301   0.327   8.388  0.5512  0.2979  1.9243
 8628TIP3   OH250078   3.356   6.439   0.388  0.1622  0.1908  0.7211
 8628TIP3    H150079   3.371   6.344   0.380 -1.2622 -0.0928  1.1177
 8628TIP3    H250080   3.442   6.475   0.407  0.4767 -1.2192  2.1925
 8629TIP3   OH250081   3.307   1.539   0.458  0.1549 -0.0538 -0.3590
 8629TIP3    H150082   3.259   1.550   0.540  2.9410 -2.8707  1.9028
 8629TIP3    H250083   3.238   1.529   0.391 -2.2553  0.8696  1.8092
 8630TIP3   OH250084   6.449   1.512   1.294  0.1784 -0.0804 -0.2853
 8630TIP3    H150085   6.367   1.462   1.295 -0.8177  1.4821 -0.0306
 8630TIP3    H250086   6.468   1.527   1.387  1.5435 -1.6316 -0.2861
 8631TIP3   OH250087   1.558   6.911   1.305  0.3852 -0.5963  0.6574
 8631TIP3    H150088   1.488   6.930   1.367 -0.1410  1.1044 -0.3823
 8631TIP3    H250089   1.636   6.900   1.358 -0.4467 -1.4299  1.7562
 8632TIP3   OH250090   2.793   5.979   1.582 -0.1834  0.1807  0.0601
 8632TIP3    H150091   2.883   5.946   1.577  0.2454  1.4447 -1.6180
 8632TIP3    H250092   2.745   5.929   1.517 -0.8151 -0.7385  1.2010
 8633TIP3   OH250093   3.753   1.265   1.417  0.4028 -0.6092  0.4253
 8633TIP3    H150094   3.671   1.218   1.431 -0.2355  0.9116  2.4279
 8633TIP3    H250095   3.742   1.310   1.333 -1.5460  0.8164  1.3583
 8634TIP3   OH250096   2.508   0.036   9.893 -0.3295 -0.5645  0.1093
 8634TIP3    H150097   2.562   0.113   9.874 -1.1013 -0.1860 -0.6372
 8634TIP3    H250098   2.420   0.071   9.906 -0.9623 -1.3985 -1.5458
 8635TIP3   OH250099   1.908   6.748   1.060 -0.3670 -0.3861 -0.4686
 8635TIP3    H150100   1.873   6.685   0.998 -2.5593  0.8268 -0.6011
 8635TIP3    H250101   1.832   6.803   1.083  0.3130 -0.7468  3.2419
 8636TIP3   OH250102   6.620   5.304   8.705  0.3375  0.4055 -0.1748
 8636TIP3    H150103   6.604   5.211   8.719 -2.3636  0.5408 -1.5878
 8636TIP3    H250104   6.707   5.308   8.665  1.3569 -1.2622  1.7188
 8637TIP3   OH250105   4.582   3.438   1.045  0.7551 -0.0896  0.0220
 8637TIP3    H150106   4.601   3.500   1.116 -1.3324  2.1382 -1.1973
 8637TIP3    H250107   4.648   3.370   1.055  0.5214  0.0106  4.1452
 8638TIP3   OH250108   3.620   3.622   7.164  0.1742  0.0722  0.2830
 8638TIP3    H150109   3.587   3.542   7.124  1.5788 -0.8190  0.8303
 8638TIP3    H250110   3.700   3.595   7.209  0.9576  1.8862  0.0488
 8639TIP3   OH250111   1.405   1.611   6.821  0.0336 -0.2656 -0.3878
 8639TIP3    H150112   1.333   1.637   6.764  0.2788 -0.1240 -0.6301
 8639TIP3    H250113   1.395   1.516   6.829 -0.0704 -0.2711 -0.5714
 8640TIP3   OH250114   0.584   1.481   9.040 -0.5553  0.1343 -0.3299
 8640TIP3    H150115   0.599   1.387   9.033  0.6139  0.3622 -1.2530
 8640TIP3    H250116   0.587   1.513   8.949  0.8640  1.2909  0.0819
 8641TIP3   OH250117   0.682   4.001   0.862 -0.1090 -0.6623  0.2334
 8641TIP3    H150118   0.613   3.982   0.925 -0.8033 -0.9042 -0.5779
 8641TIP3    H250119   0.656   3.954   0.783 -0.0566  0.8304 -0.7190
 8642TIP3   OH250120   3.136   0.118   0.682  0.1393  0.2803 -0.3575
 8642TIP3    H150121   3.048   0.085   0.702 -0.0785  1.8817  1.6881
 8642TIP3    H250122   3.194   0.059   0.731 -0.0235  0.8487  0.5539
 8643TIP3   OH250123   3.886   2.338   9.103  0.1614 -0.1874 -0.4440
 8643TIP3    H150124   3.900   2.251   9.141 -0.9919 -0.4776 -0.6597
 8643TIP3    H250125   3.872   2.395   9.178  0.1568 -0.3294 -0.3353
 8644TIP3   OH250126   3.635   2.787   8.158  0.2646  0.0255  0.0003
 8644TIP3    H150127   3.562   2.847   8.168  0.7679  0.8526 -1.1506
 8644TIP3    H250128   3.705   2.824   8.212 -0.0614 -0.6330  0.9031
 8645TIP3   OH250129   6.518   5.193   8.324  0.1316  0.5999  0.4117
 8645TIP3    H150130   6.579   5.162   8.257 -0.2626 -0.6609  0.6179
 8645TIP3    H250131   6.555   5.164   8.407 -0.5948  0.0558  0.5584
 8646TIP3   OH250132   3.813   5.669   7.759 -0.1891  0.1001  0.0444
 8646TIP3    H150133   3.883   5.679   7.823 -0.9826  1.2055  0.7741
 8646TIP3    H250134   3.817   5.577   7.733  0.2645 -0.3386  1.5672
 8647TIP3   OH250135   1.259   0.378   9.892  0.6825  0.2225 -0.1100
 8647TIP3    H150136   1.246   0.443   9.962  0.1160 -0.3403  0.3150
 8647TIP3    H250137   1.354   0.365   9.890  0.6823  0.0124  0.7723
 8648TIP3   OH250138   5.968   4.912   9.337 -0.0689  0.0992  0.2202
 8648TIP3    H150139   5.892   4.968   9.330 -0.9702 -1.0528  0.4721
 8648TIP3    H250140   6.000   4.926   9.427  1.2913  2.1126 -0.5102
 8649TIP3   OH250141   5.724   1.789   1.061 -0.3711  0.2805  0.1415
 8649TIP3    H150142   5.668   1.713   1.045  1.9341 -1.5779  0.3801
 8649TIP3    H250143   5.740   1.789   1.155 -0.8446  1.4516  0.2335
 8650TIP3   OH250144   2.529   7.265   6.986  0.0187  0.2612 -0.2814
 8650TIP3    H150145   2.495   7.280   6.897 -0.8072  0.5859  0.0774
 8650TIP3    H250146   2.451   7.265   7.041  0.5802  0.6213  0.5246
 8651TIP3   OH250147   1.450   6.216   1.132  0.4248  0.0110 -0.0849
 8651TIP3    H150148   1.461   6.289   1.193 -1.7575 -0.3525  0.8601
 8651TIP3    H250149   1.497   6.143   1.173  1.5730  0.5335 -0.4227
 8652TIP3   OH250150   0.256   6.415   9.208  0.0893 -0.6135  0.0595
 8652TIP3    H150151   0.245   6.388   9.299  2.1241  0.1467  0.5797
 8652TIP3    H250152   0.247   6.510   9.210 -0.0414 -0.6066 -0.5672
 8653TIP3   OH250153   2.380   6.553   2.028 -0.0602 -0.0404  0.0734
 8653TIP3    H150154   2.304   6.572   1.973 -1.1166 -2.1096  0.7344
 8653TIP3    H250155   2.400   6.461   2.012 -1.3098 -1.2239  4.1055
 8654TIP3   OH250156   6.280   5.231   8.885  0.3686 -0.1123 -0.5905
 8654TIP3    H150157   6.215   5.163   8.903  0.0346  0.1038 -0.9734
 8654TIP3    H250158   6.229   5.312   8.878  1.0064  0.7742  2.9019
 8655TIP3   OH250159   0.283   2.283   8.475 -0.7468  0.1976 -0.0228
 8655TIP3    H150160   0.318   2.354   8.422 -1.0263  0.5811  0.2917
 8655TIP3    H250161   0.359   2.232   8.501 -0.7290 -0.8637 -1.9861
 8656TIP3   OH250162   6.157   0.224   8.061  0.1988 -0.1256  0.4028
 8656TIP3    H150163   6.107   0.205   7.982 -0.2590  2.0987  0.0967
 8656TIP3    H250164   6.217   0.150   8.070  0.3533 -0.3739 -2.0826
 8657TIP3   OH250165   7.418   6.385   9.328 -0.1958  0.0561  0.3192
 8657TIP3    H150166   7.323   6.380   9.329 -0.1853 -0.2305  0.0750
 8657TIP3    H250167   7.446   6.306   9.282  0.0540  1.5544 -2.3026
 8658TIP3   OH250168   2.553   1.692   9.799 -0.6485 -0.8472 -0.1556
 8658TIP3    H150169   2.633   1.682   9.852 -1.4071  1.4960  1.6156
 8658TIP3    H250170   2.567   1.635   9.724  2.6013 -0.7122  0.1883
 8659TIP3   OH250171   3.872   5.860   0.327 -0.6822  0.2799 -0.2204
 8659TIP3    H150172   3.882   5.950   0.298 -0.7605  0.6759  0.9368
 8659TIP3    H250173   3.955   5.839   0.371 -0.9641  0.0780  0.2301
 8660TIP3   OH250174   0.045   6.192   2.490  0.0589  0.5359  0.1748
 8660TIP3    H150175  -0.001   6.166   2.411  0.3809  1.8126 -0.4569
 8660TIP3    H250176   0.092   6.113   2.518  0.5943  0.2707 -1.3719
 8661TIP3   OH250177   1.796   2.246   7.359  0.7559 -0.0841  0.2783
 8661TIP3    H150178   1.842   2.324   7.327 -0.5636  0.4286 -0.4260
 8661TIP3    H250179   1.800   2.254   7.455  1.7783  0.1407  0.2325
 8662TIP3   OH250180   4.507   5.517   2.443  0.0103  0.0179  0.0378
 8662TIP3    H150181   4.435   5.501   2.504 -0.6214  0.0779 -0.6772
 8662TIP3    H250182   4.568   5.573   2.491 -0.7929  0.6132  0.3825
 8663TIP3   OH250183   0.467   3.858   9.269  0.0694 -0.0918 -0.0909
 8663TIP3    H150184   0.380   3.839   9.305 -0.0720  2.4268  1.1012
 8663TIP3    H250185   0.516   3.777   9.282 -1.3055 -0.6998  1.7534
 8664TIP3   OH250186   3.614   7.459   0.523  0.2064 -0.1395  0.3198
 8664TIP3    H150187   3.591   7.486   0.435  1.1966  0.4737  0.2364
 8664TIP3    H250188   3.567   7.376   0.536 -0.2921 -0.0098 -0.6123
 8665TIP3   OH250189   0.722   3.350   8.463  0.1432  0.5229  0.5111
 8665TIP3    H150190   0.644   3.403   8.479 -0.5529 -0.4549  0.4645
 8665TIP3    H250191   0.717   3.328   8.370  1.2822  1.6676  0.1397
 8666TIP3   OH250192   1.502   1.861   6.737 -0.1460 -0.3095  0.0645
 8666TIP3    H150193   1.506   1.773   6.774  2.2437 -1.1730 -1.9006
 8666TIP3    H250194   1.433   1.857   6.671  1.2873 -1.4230 -1.4449
 8667TIP3   OH250195   5.941   3.968   8.488 -0.0319  0.2985  0.4805
 8667TIP3    H150196   5.968   4.011   8.568  1.1609 -0.1628  0.3515
 8667TIP3    H250197   5.906   4.038   8.433 -0.2592  0.7168  1.1533
 8668TIP3   OH250198   6.993   0.955   1.835  0.0524 -0.0704  0.3650
 8668TIP3    H150199   7.049   0.884   1.867  0.4223  0.2572  0.4508
 8668TIP3    H250200   6.914   0.950   1.888 -0.3247 -1.0104 -0.2496
 8669TIP3   OH250201   2.997   2.417   7.549 -0.0495  0.0692  0.0069
 8669TIP3    H150202   2.954   2.469   7.481  1.0949 -0.7024 -1.3628
 8669TIP3    H250203   3.090   2.438   7.540  0.1523 -0.3139  1.1146
 8670TIP3   OH250204   4.269   4.563   1.072  0.5776  0.1686  0.0590
 8670TIP3    H150205   4.304   4.650   1.092  0.3261 -0.0658  1.6522
 8670TIP3    H250206   4.343   4.503   1.086  0.4662  0.0193  0.0119
 8671TIP3   OH250207   5.914   5.969   7.647  0.4307  0.5268 -0.1117
 8671TIP3    H150208   5.938   5.907   7.578  1.9259  1.7175 -0.7276
 8671TIP3    H250209   5.956   5.935   7.726 -1.4014 -0.9170  0.3015
 8672TIP3   OH250210   6.077   5.024   0.436  0.4433 -0.2601  0.1916
 8672TIP3    H150211   6.138   4.961   0.475  0.6464  0.2663  0.7382
 8672TIP3    H250212   6.103   5.029   0.344 -0.5869 -2.1567 -0.2502
 8673TIP3   OH250213   4.060   1.241   0.484  0.1317  0.1174 -0.1484
 8673TIP3    H150214   4.009   1.246   0.565 -0.8496  0.3133 -0.7628
 8673TIP3    H250215   4.056   1.149   0.459 -2.6958  0.6002 -1.8849
 8674TIP3   OH250216   4.872   5.720   2.582 -0.1158 -0.5032 -0.1430
 8674TIP3    H150217   4.881   5.812   2.557 -0.1208 -0.4174  0.1782
 8674TIP3    H250218   4.902   5.672   2.504  1.1761 -0.2309  0.1678
 8675TIP3   OH250219   3.165   2.898   8.686 -0.5406 -0.0892 -0.3229
 8675TIP3    H150220   3.077   2.883   8.652 -0.5355  0.2564 -0.4826
 8675TIP3    H250221   3.215   2.822   8.656 -0.4218  0.4237 -1.4700
 8676TIP3   OH250222   1.423   1.415   0.623 -0.3183 -0.5246  0.3629
 8676TIP3    H150223   1.368   1.469   0.566  0.3156 -1.5329 -1.3088
 8676TIP3    H250224   1.418   1.457   0.709 -0.5983  1.6192 -0.6253
 8677TIP3   OH250225   1.399   5.584   2.673 -0.1945  0.1260 -0.0931
 8677TIP3    H150226   1.452   5.616   2.600  1.3572  0.7265  1.2254
 8677TIP3    H250227   1.392   5.490   2.658  0.6779  0.1441 -0.6832
 8678TIP3   OH250228   2.727   5.057   1.196 -0.1489  0.7132  0.4434
 8678TIP3    H150229   2.750   4.965   1.211  0.2969  0.5872 -0.8762
 8678TIP3    H250230   2.803   5.106   1.229  1.3931  0.3788 -2.2649
 8679TIP3   OH250231   3.429   5.837   0.367 -0.2089 -0.2348 -0.3852
 8679TIP3    H150232   3.449   5.877   0.452  2.0924  0.6530 -1.2468
 8679TIP3    H250233   3.416   5.912   0.308  1.5601 -0.7159 -1.4752
 8680TIP3   OH250234   2.378   2.920   8.284  0.2323  0.6786 -0.3449
 8680TIP3    H150235   2.429   2.841   8.300 -0.1040  0.7849  1.5360
 8680TIP3    H250236   2.422   2.989   8.334 -0.1799  1.3955 -0.9405
 8681TIP3   OH250237   5.199   3.305   8.838  0.4940 -0.1209  0.2234
 8681TIP3    H150238   5.283   3.274   8.804  0.5938 -1.1288  1.3364
 8681TIP3    H250239   5.163   3.230   8.886 -1.3740  0.0477 -0.7970
 8682TIP3   OH250240   7.132   2.640   2.654 -0.0424  0.1057 -0.1278
 8682TIP3    H150241   7.119   2.625   2.748  1.3883 -0.9461 -0.0566
 8682TIP3    H250242   7.120   2.734   2.643  0.8720  0.4393  1.3329
 8683TIP3   OH250243   3.145   1.768   7.097 -0.2884 -0.1230  0.4090
 8683TIP3    H150244   3.161   1.817   7.177  0.2355  1.4132 -0.5817
 8683TIP3    H250245   3.207   1.805   7.034 -1.1713 -0.7857 -0.8917
 8684TIP3   OH250246   1.484   5.991   7.234 -0.0057  0.0666  0.5562
 8684TIP3    H150247   1.406   5.952   7.195 -0.1154 -0.4854  1.2945
 8684TIP3    H250248   1.549   5.993   7.163 -0.3088 -0.5898  0.2548
 8685TIP3   OH250249   2.321   5.663   8.349  0.7280  0.1451 -0.0001
 8685TIP3    H150250   2.251   5.606   8.381  0.8502 -0.9394 -1.5379
 8685TIP3    H250251   2.319   5.738   8.407 -0.9431 -0.3986  0.7129
 8686TIP3   OH250252   3.871   6.226   8.077 -0.2882  0.2990 -0.1246
 8686TIP3    H150253   3.847   6.246   8.168 -1.2897  1.8795 -0.6760
 8686TIP3    H250254   3.891   6.312   8.039 -0.0989 -0.3151 -1.4484
 8687TIP3   OH250255   6.607   6.810   0.410  0.5330 -0.4071 -0.0599
 8687TIP3    H150256   6.594   6.785   0.501  0.8242 -1.6711 -0.3431
 8687TIP3    H250257   6.565   6.740   0.360  0.4713  0.2141 -0.8925
 8688TIP3   OH250258   3.332   1.048   0.632 -0.1852  0.2760 -0.0550
 8688TIP3    H150259   3.403   0.984   0.621  0.9779  1.7954 -1.9772
 8688TIP3    H250260   3.286   1.046   0.548 -0.3755  1.6686  0.0073
 8689TIP3   OH250261   2.519   5.063   6.642  0.2258  0.2239 -0.1089
 8689TIP3    H150262   2.487   5.130   6.703 -0.9948  0.6370 -1.1773
 8689TIP3    H250263   2.559   5.113   6.570  3.8806 -0.2470  1.3590
 8690TIP3   OH250264   5.279   3.472   9.275  0.2076  0.1655 -0.0464
 8690TIP3    H150265   5.342   3.445   9.341  1.6567 -0.7836 -1.7294
 8690TIP3    H250266   5.231   3.392   9.253  0.0555  0.3690 -0.4673
 8691TIP3   OH250267   7.336   7.458   8.257  0.2535  0.1558 -0.0008
 8691TIP3    H150268   7.241   7.465   8.243  0.0514 -0.2367  1.0719
 8691TIP3    H250269   7.375   7.501   8.181 -0.7790 -0.1576 -0.7260
 8692TIP3   OH250270   0.591   7.378   8.292 -0.4340  0.0715  0.0595
 8692TIP3    H150271   0.641   7.369   8.373 -1.1441  1.6089  0.7152
 8692TIP3    H250272   0.657   7.398   8.225 -0.1174  1.9893  0.8933
 8693TIP3   OH250273   4.633   0.302   8.841 -0.0403 -0.1811 -0.0412
 8693TIP3    H150274   4.580   0.338   8.912  0.9981  1.9550 -0.2713
 8693TIP3    H250275   4.723   0.316   8.870  0.4100 -1.6635 -0.6583
 8694TIP3   OH250276   3.553   7.149   8.183  0.0969  0.5811 -0.5681
 8694TIP3    H150277   3.570   7.084   8.115 -0.7744  1.0485 -1.2593
 8694TIP3    H250278   3.567   7.103   8.265  0.2667 -0.2526 -1.0563
 8695TIP3   OH250279   3.082   6.979   2.609 -0.3523 -0.2097 -0.4762
 8695TIP3    H150280   3.080   6.887   2.635 -0.8304 -0.6412 -1.9049
 8695TIP3    H250281   3.142   7.020   2.671 -0.1202 -1.4809  0.1878
 8696TIP3   OH250282   0.170   5.160   8.375 -0.0583 -0.6639  0.0532
 8696TIP3    H150283   0.258   5.194   8.390  0.6990 -1.1197 -2.7150
 8696TIP3    H250284   0.161   5.158   8.280 -2.8555 -1.2191  0.2397
 8697TIP3   OH250285   5.074   3.580   7.155 -0.0117 -0.1571 -0.1292
 8697TIP3    H150286   5.047   3.489   7.148  0.7363 -0.2983 -1.6461
 8697TIP3    H250287   5.003   3.630   7.115 -1.1070  0.0944  2.0174
 8698TIP3   OH250288   4.733   5.339   1.792  0.0328  0.4161  0.4107
 8698TIP3    H150289   4.827   5.350   1.780  0.1128 -1.6334 -1.4831
 8698TIP3    H250290   4.724   5.257   1.841 -0.7552  0.5017  0.4288
 8699TIP3   OH250291   0.030   5.337   9.760  0.5040 -0.3472  0.2298
 8699TIP3    H150292  -0.009   5.307   9.678  1.8352 -0.0171 -0.5589
 8699TIP3    H250293   0.085   5.411   9.735 -1.4276  1.8070  1.8815
 8700TIP3   OH250294   4.945   1.987   1.601 -0.2787 -0.4366  0.3820
 8700TIP3    H150295   5.032   1.979   1.639 -0.1684  1.0251  0.4911
 8700TIP3    H250296   4.961   1.995   1.507 -0.4478 -2.2599  0.1594
 8701TIP3   OH250297   5.209   1.439   8.265 -0.1123 -0.2041  0.0866
 8701TIP3    H150298   5.211   1.520   8.317  1.8285 -0.2417  0.1501
 8701TIP3    H250299   5.276   1.383   8.305  0.3220 -0.8476 -1.4853
 8702TIP3   OH250300   1.598   6.861   2.452 -0.0288  0.4731  0.3617
 8702TIP3    H150301   1.556   6.811   2.523 -0.1693  2.0087  1.4247
 8702TIP3    H250302   1.686   6.826   2.447  0.6695  1.6291  2.7554
 8703TIP3   OH250303   7.024   7.354   0.789 -0.3407 -0.0034 -0.2528
 8703TIP3    H150304   6.956   7.420   0.789  0.1071  0.4666 -0.8369
 8703TIP3    H250305   6.981   7.274   0.758 -0.4433  0.4820 -1.3698
 8704TIP3   OH250306   1.915   1.656   0.177 -0.2136 -0.3440  0.3110
 8704TIP3    H150307   2.001   1.663   0.219 -0.0871 -0.5499  0.0942
 8704TIP3    H250308   1.873   1.740   0.194  0.5911  0.3138 -0.7728
 8705TIP3   OH250309   1.235   3.400   1.902 -0.3236  0.4079  0.3867
 8705TIP3    H150310   1.313   3.455   1.912 -0.0323 -0.1517  1.2912
 8705TIP3    H250311   1.226   3.389   1.807  0.9898  0.0972  0.2722
 8706TIP3   OH250312   4.133   2.778   9.713  0.0707 -0.2204  0.2192
 8706TIP3    H150313   4.195   2.849   9.727 -1.3334  1.0368  0.4157
 8706TIP3    H250314   4.084   2.771   9.795  0.5659 -1.8366  0.4092
 8707TIP3   OH250315   5.019   5.769   7.870  0.1166 -0.1963  0.0110
 8707TIP3    H150316   5.055   5.683   7.848  2.1276  0.8830 -1.1635
 8707TIP3    H250317   4.999   5.809   7.786 -1.6775  0.1940  0.5687
 8708TIP3   OH250318   7.183   3.011   8.223  0.3197  0.1511  0.3348
 8708TIP3    H150319   7.262   2.983   8.176 -0.3456  0.4916 -1.0644
 8708TIP3    H250320   7.111   2.964   8.179 -0.3633  0.7117  0.8237
 8709TIP3   OH250321   7.354   3.426   9.553  0.1576 -0.7939  0.0053
 8709TIP3    H150322   7.374   3.505   9.503  0.3356 -0.6324  0.3271
 8709TIP3    H250323   7.425   3.366   9.532  1.8990  0.2993  2.2838
 8710TIP3   OH250324   4.409   7.468   0.290  0.4834 -0.7806  0.1424
 8710TIP3    H150325   4.470   7.488   0.219  0.1570 -0.5943 -0.0885
 8710TIP3    H250326   4.464   7.464   0.368  0.7551 -0.3240 -0.0174
 8711TIP3   OH250327   4.665   2.503   8.705  0.0549  0.2299 -0.4823
 8711TIP3    H150328   4.692   2.415   8.679  1.4076  0.8287 -1.1788
 8711TIP3    H250329   4.737   2.535   8.760 -1.1303  0.3378  1.1043
 8712TIP3   OH250330   6.933   6.039   9.666  0.4641  0.4687 -0.6696
 8712TIP3    H150331   6.999   6.093   9.710 -0.2924  0.4605  0.5130
 8712TIP3    H250332   6.854   6.094   9.664 -0.5199 -0.7861  1.1794
 8713TIP3   OH250333   4.202   4.109   7.049 -0.2267  0.4401  0.0238
 8713TIP3    H150334   4.218   4.070   7.134  0.3061  1.3992  0.3827
 8713TIP3    H250335   4.277   4.167   7.035 -0.0500 -0.0784 -1.3274
 8714TIP3   OH250336   3.823   2.064   9.958  0.0656  0.0117 -0.3780
 8714TIP3    H150337   3.765   2.095   9.889  0.5155  0.0051 -0.7640
 8714TIP3    H250338   3.876   1.996   9.916 -0.2987 -0.6487  0.2230
 8715TIP3   OH250339   2.729   1.300   1.727 -0.4630  0.1658 -0.1911
 8715TIP3    H150340   2.807   1.259   1.766 -0.6763  1.0803  1.2476
 8715TIP3    H250341   2.658   1.276   1.786 -1.3833 -0.9447 -1.6809
 8716TIP3   OH250342   0.894   2.277   9.296  0.0913 -0.0781 -0.1115
 8716TIP3    H150343   0.872   2.187   9.271  0.8314 -0.8124  1.7070
 8716TIP3    H250344   0.970   2.268   9.353 -0.3243  1.6273  0.7868
 8717TIP3   OH250345   3.122   4.384   8.453 -0.1792 -0.1306  0.5234
 8717TIP3    H150346   3.207   4.426   8.463  0.5452 -1.6598  1.1376
 8717TIP3    H250347   3.083   4.427   8.377  1.2922  0.3648  0.0134
 8718TIP3   OH250348   5.274   4.691   0.412 -0.0530 -0.0079  0.3431
 8718TIP3    H150349   5.202   4.735   0.367 -0.8010 -1.2221  0.3208
 8718TIP3    H250350   5.232   4.632   0.474  0.9517  0.4417  1.4955
 8719TIP3   OH250351   1.030   4.280   2.372  0.1116 -0.5166 -0.2506
 8719TIP3    H150352   0.934   4.284   2.366  0.1320  0.4986 -0.0153
 8719TIP3    H250353   1.047   4.204   2.427 -0.5356 -1.0103 -0.7071
 8720TIP3   OH250354   2.772   4.551   8.881  0.2466 -0.5252 -0.3617
 8720TIP3    H150355   2.743   4.461   8.897 -0.5934 -0.3474 -0.8190
 8720TIP3    H250356   2.780   4.556   8.786  0.3473 -0.1279 -0.3310
 8721TIP3   OH250357   5.976   3.231   8.764 -0.1115 -0.0523  0.5609
 8721TIP3    H150358   5.911   3.181   8.814  0.5321 -0.1627  1.3192
 8721TIP3    H250359   5.925   3.296   8.716 -0.7377  0.3490  1.7076
 8722TIP3   OH250360   3.757   3.145   8.519  0.5395 -0.9150  0.2529
 8722TIP3    H150361   3.722   3.057   8.501  0.1698 -0.7022 -0.0665
 8722TIP3    H250362   3.843   3.145   8.478  0.1980 -0.8459 -0.4755
 8723TIP3   OH250363   4.065   0.816   1.298 -0.3653 -0.4730 -0.5305
 8723TIP3    H150364   4.117   0.817   1.218  1.7928  0.4207  0.7693
 8723TIP3    H250365   4.041   0.908   1.313  1.2678 -0.2263  0.9758
 8724TIP3   OH250366   4.073   3.705   8.908  0.2720 -0.1323 -0.1416
 8724TIP3    H150367   3.986   3.716   8.946  0.1805 -0.4340 -0.2621
 8724TIP3    H250368   4.059   3.708   8.813  0.5239  0.8055 -0.1615
 8725TIP3   OH250369   7.197   5.392   8.770 -0.0981 -0.4950 -0.9135
 8725TIP3    H150370   7.153   5.466   8.811 -1.0861 -1.4274 -0.2440
 8725TIP3    H250371   7.242   5.348   8.842 -1.2504 -1.7369 -0.9150
 8726TIP3   OH250372   1.020   3.905   8.117 -0.0654 -0.3036  0.0008
 8726TIP3    H150373   0.996   3.823   8.161  0.1574 -0.6018 -0.4296
 8726TIP3    H250374   1.115   3.909   8.126  0.0483 -0.6776 -0.9911
 8727TIP3   OH250375   4.558   3.444   9.279  0.0550 -0.3603 -0.0355
 8727TIP3    H150376   4.483   3.395   9.246 -0.2663 -0.8285  1.3234
 8727TIP3    H250377   4.551   3.529   9.236 -2.5885  0.4412  1.7049
 8728TIP3   OH250378   1.770   1.048   9.399 -0.2681  0.1550 -0.0311
 8728TIP3    H150379   1.754   1.040   9.305  0.6622  1.9302 -0.3981
 8728TIP3    H250380   1.865   1.046   9.407 -0.3566 -0.4144  0.9262
 8729TIP3   OH250381   6.051   2.425   9.732  0.3095  0.4122  0.0179
 8729TIP3    H150382   5.971   2.385   9.767 -1.2070  2.7615 -0.4791
 8729TIP3    H250383   6.091   2.467   9.808  1.1936 -0.8801  0.2936
 8730TIP3   OH250384   0.232   3.058   8.452 -0.4810  0.0804  0.0962
 8730TIP3    H150385   0.213   3.054   8.546  0.0967  0.5561  0.2369
 8730TIP3    H250386   0.308   3.116   8.446  1.3431 -2.2444 -0.4083
 8731TIP3   OH250387   0.868   1.975   9.175  0.3594 -0.0093  0.3266
 8731TIP3    H150388   0.810   1.960   9.249  0.0049 -1.5817 -0.2364
 8731TIP3    H250389   0.810   2.005   9.105  0.5937  0.8016  0.4709
 8732TIP3   OH250390   2.576   4.727   1.056 -0.5439  0.0508 -0.0322
 8732TIP3    H150391   2.511   4.796   1.066 -0.6048  0.4386 -2.4094
 8732TIP3    H250392   2.621   4.748   0.974 -0.7794 -2.8519 -1.0318
 8733TIP3   OH250393   4.963   2.377   0.252  0.2057 -0.0964  0.3861
 8733TIP3    H150394   4.986   2.469   0.260  0.0433  0.0863 -0.9697
 8733TIP3    H250395   4.989   2.338   0.335  1.9251  0.8234  0.3255
 8734TIP3   OH250396   4.749   2.086   1.938 -0.7745 -0.3236 -0.4312
 8734TIP3    H150397   4.772   2.082   2.031  1.6287 -2.3448 -1.0238
 8734TIP3    H250398   4.793   2.165   1.906  1.4829 -1.5478 -0.5232
 8735TIP3   OH250399   1.221   4.387   0.667  0.0767  0.3937  0.2333
 8735TIP3    H150400   1.188   4.393   0.756 -0.6621 -0.3405  0.0296
 8735TIP3    H250401   1.240   4.293   0.655 -1.1223  0.2553 -0.8060
 8736TIP3   OH250402   6.650   6.033   0.140  0.3440 -0.2732  0.3791
 8736TIP3    H150403   6.697   6.077   0.211  0.0274  0.4408  0.1556
 8736TIP3    H250404   6.558   6.043   0.164  0.2379 -0.0471 -0.1266
 8737TIP3   OH250405   1.726   2.926   8.742 -0.3555  0.2943  0.4675
 8737TIP3    H150406   1.747   2.890   8.828 -1.2407 -2.5049 -0.4088
 8737TIP3    H250407   1.650   2.877   8.713 -0.4046  1.5340 -1.7175
 8738TIP3   OH250408   5.561   0.271   7.980  0.4468 -0.7894  0.3865
 8738TIP3    H150409   5.635   0.238   8.032  0.7412  0.0083  0.4903
 8738TIP3    H250410   5.565   0.221   7.898  1.5046 -0.3150  0.1237
 8739TIP3   OH250411   4.933   7.138   1.949  0.5145 -0.5627 -0.0942
 8739TIP3    H150412   4.975   7.056   1.974  0.2329 -0.6222  0.1834
 8739TIP3    H250413   4.969   7.203   2.010 -0.2963 -0.7382  0.5931
 8740TIP3   OH250414   3.007   5.776   9.825 -0.2410 -0.4434 -0.8729
 8740TIP3    H150415   3.036   5.781   9.733  0.4442  1.3671 -0.5957
 8740TIP3    H250416   3.055   5.846   9.869 -0.0230 -1.7188  1.0420
 8741TIP3   OH250417   6.148   0.030   8.840 -0.0722  0.5199 -0.7038
 8741TIP3    H150418   6.236  -0.007   8.841  0.0614  0.8398  0.1431
 8741TIP3    H250419   6.103  -0.012   8.913  0.5192  2.9795  1.2166
 8742TIP3   OH250420   1.450   3.443   9.056 -0.3024 -0.5074  0.3503
 8742TIP3    H150421   1.369   3.452   9.107 -0.5733 -2.4146  0.3401
 8742TIP3    H250422   1.473   3.350   9.064  0.8715 -0.3903 -1.1780
 8743TIP3   OH250423   1.727   7.287   9.030  0.1308  0.1317  0.3261
 8743TIP3    H150424   1.650   7.318   8.982  0.5605  0.8547  0.0908
 8743TIP3    H250425   1.801   7.318   8.978  0.5863 -0.9412  0.3093
 8744TIP3   OH250426   4.154   1.892   2.355  0.0854 -0.0144  0.0303
 8744TIP3    H150427   4.125   1.876   2.445 -0.1463 -0.9664 -0.2024
 8744TIP3    H250428   4.080   1.939   2.315  1.2382  2.9080  1.0451
 8745TIP3   OH250429   7.368   5.777   7.606  0.5274 -0.5354 -0.4064
 8745TIP3    H150430   7.418   5.859   7.605  0.5064 -0.5153 -2.0930
 8745TIP3    H250431   7.426   5.714   7.648  1.1029  0.0087 -0.3707
 8746TIP3   OH250432   1.510   2.096   6.869 -0.0402 -0.4006 -0.4577
 8746TIP3    H150433   1.481   2.027   6.809 -1.5909  1.1881 -1.6307
 8746TIP3    H250434   1.599   2.116   6.841  0.3267 -1.6770 -0.2960
 8747TIP3   OH250435   4.575   3.065   1.197 -0.3290 -0.4449 -0.3199
 8747TIP3    H150436   4.616   3.002   1.256 -1.3698 -0.7360  0.1102
 8747TIP3    H250437   4.524   3.122   1.255 -1.2436 -0.6442 -0.9082
 8748TIP3   OH250438   6.027   6.711   9.076 -0.0359  0.2040  0.1216
 8748TIP3    H150439   6.007   6.724   8.983 -1.6821  2.0273  0.6658
 8748TIP3    H250440   5.998   6.622   9.095 -1.0033  0.2986 -0.8162
 8749TIP3   OH250441   3.326   1.115   9.055 -0.3669 -0.4673  0.0869
 8749TIP3    H150442   3.369   1.036   9.086 -0.1260  0.2634  1.7222
 8749TIP3    H250443   3.306   1.097   8.963 -0.1968 -2.3531  0.3789
 8750TIP3   OH250444   3.785   4.698   0.229 -0.5592 -0.5786 -0.0318
 8750TIP3    H150445   3.797   4.604   0.214  3.4211 -0.4242  0.8999
 8750TIP3    H250446   3.863   4.738   0.189 -0.4369  1.9332  2.4370
 8751TIP3   OH250447   3.236   3.733   0.275 -0.0179  0.1998 -0.4223
 8751TIP3    H150448   3.183   3.663   0.314 -0.7268  1.5606  1.1803
 8751TIP3    H250449   3.321   3.724   0.317 -0.0466  0.1637 -0.3704
 8752TIP3   OH250450   5.943   5.207   0.776  0.8453 -0.0237  0.2682
 8752TIP3    H150451   5.980   5.276   0.721  0.2691 -0.0953 -0.2156
 8752TIP3    H250452   5.924   5.250   0.859  1.0084  0.2606  0.1599
 8753TIP3   OH250453   4.864   3.289   8.790 -0.5626 -0.2418 -0.1572
 8753TIP3    H150454   4.903   3.351   8.729 -0.3603 -0.9775 -0.7970
 8753TIP3    H250455   4.932   3.225   8.807 -0.4092  0.2653  1.3439
 8754TIP3   OH250456   0.233   5.874   1.383  0.1078 -0.0019 -0.2985
 8754TIP3    H150457   0.142   5.903   1.372  0.5758  0.6915 -3.0970
 8754TIP3    H250458   0.258   5.907   1.469 -1.9295  0.7703  0.0723
 8755TIP3   OH250459   5.795   0.111   1.768 -0.3549  0.1383 -0.4612
 8755TIP3    H150460   5.807   0.051   1.842  0.0404  0.5804 -0.1543
 8755TIP3    H250461   5.719   0.077   1.721 -0.7086 -0.0686  0.2403
 8756TIP3   OH250462   1.322   4.157   8.638 -0.2075  0.0187 -0.0205
 8756TIP3    H150463   1.376   4.082   8.661  0.9236  1.0229  0.7169
 8756TIP3    H250464   1.343   4.174   8.546  2.1030  1.4300  0.6935
 8757TIP3   OH250465   3.445   1.796   9.405 -0.4014 -0.0187  0.0734
 8757TIP3    H150466   3.538   1.773   9.395 -0.3473  0.8561 -1.7811
 8757TIP3    H250467   3.441   1.889   9.383 -1.4513  0.4467  2.0260
 8758TIP3   OH250468   3.779   6.437   7.816  0.4313  0.1450  0.0025
 8758TIP3    H150469   3.807   6.365   7.759  1.9479 -0.4168  1.3527
 8758TIP3    H250470   3.825   6.514   7.783  1.4261 -0.2098  0.5140
 8759TIP3   OH250471   0.143   4.371   1.638 -0.0032  0.0070  0.4372
 8759TIP3    H150472   0.233   4.343   1.655  0.4635  2.0656  1.6406
 8759TIP3    H250473   0.149   4.429   1.562 -0.0096  1.5117  1.5495
 8760TIP3   OH250474   6.734   6.560   1.044  0.1178  0.0727  0.3375
 8760TIP3    H150475   6.744   6.466   1.037  0.1419  0.2049 -2.5997
 8760TIP3    H250476   6.796   6.586   1.113  0.8014 -1.9355  0.5339
 8761TIP3   OH250477   0.099   2.058   0.504  0.1235  0.1415  0.5848
 8761TIP3    H150478   0.021   2.112   0.514 -0.9069 -1.5659  2.1622
 8761TIP3    H250479   0.154   2.080   0.579  0.3443  0.0231  0.4598
 8762TIP3   OH250480   3.351   1.729   8.863  0.0541  0.2837 -0.0413
 8762TIP3    H150481   3.294   1.711   8.788  0.5866  2.7840 -1.1529
 8762TIP3    H250482   3.439   1.708   8.833  0.0921 -0.4125  0.5293
 8763TIP3   OH250483   5.836   3.459   1.653 -0.1452  0.0154  0.2021
 8763TIP3    H150484   5.830   3.550   1.683 -0.9075  0.0435 -0.0227
 8763TIP3    H250485   5.832   3.407   1.734  2.4404  0.2053  0.5626
 8764TIP3   OH250486   2.912   3.109   1.667  0.6282 -0.0278 -0.2622
 8764TIP3    H150487   2.912   3.028   1.718  1.1971  0.8158  1.1431
 8764TIP3    H250488   3.002   3.139   1.670  0.4267  0.6545 -0.7859
 8765TIP3   OH250489   3.525   2.418   1.004 -0.2278  0.2959 -0.5441
 8765TIP3    H150490   3.550   2.397   0.914 -0.8982  0.9018 -0.8800
 8765TIP3    H250491   3.581   2.492   1.028  2.1976 -1.7961  0.6705
 8766TIP3   OH250492   2.868   0.995   3.135 -0.0970  0.4140 -0.0179
 8766TIP3    H150493   2.841   0.926   3.196 -0.7396  0.0241 -0.7224
 8766TIP3    H250494   2.790   1.011   3.082  0.0840  1.6101  0.0565
 8767TIP3   OH250495   3.747   1.364   2.729 -0.0888 -0.0489  0.2661
 8767TIP3    H150496   3.802   1.292   2.699  0.0135  0.4982 -0.8974
 8767TIP3    H250497   3.660   1.345   2.692  0.4208  1.4995 -1.9021
 8768TIP3   OH250498   3.593   6.950   8.921 -0.0576  0.3541  0.1955
 8768TIP3    H150499   3.604   7.005   8.998  0.4450 -2.4049  2.2753
 8768TIP3    H250500   3.673   6.961   8.870 -0.2476  1.9401  0.1950
 8769TIP3   OH250501   5.004   0.649   7.766  0.6674 -0.4583 -0.0171
 8769TIP3    H150502   5.081   0.640   7.709  1.6870  1.2013  0.9972
 8769TIP3    H250503   5.041   0.663   7.853 -0.7853  0.3124  0.5055
 8770TIP3   OH250504   0.228   0.369   1.504  0.5508  0.7360 -0.0155
 8770TIP3    H150505   0.240   0.283   1.465  0.4716  0.7816 -0.1401
 8770TIP3    H250506   0.159   0.357   1.569 -1.2762  1.2299 -1.7490
 8771TIP3   OH250507   2.096   4.701   7.935  0.3146  0.2016 -0.2450
 8771TIP3    H150508   2.030   4.718   7.868  0.0145 -0.5693 -0.1643
 8771TIP3    H250509   2.082   4.769   8.000  1.7304  2.0189 -1.7406
 8772TIP3   OH250510   5.231   6.213   0.374 -0.6948  0.2436 -0.3150
 8772TIP3    H150511   5.174   6.141   0.401 -2.1465  1.2127 -0.6293
 8772TIP3    H250512   5.176   6.291   0.384  0.6801  1.2510 -0.4170
 8773TIP3   OH250513   5.766   7.231   1.629  0.3266  0.2001 -0.3096
 8773TIP3    H150514   5.676   7.264   1.623  0.6421  1.4093  1.0488
 8773TIP3    H250515   5.757   7.148   1.677 -0.0007  0.7844  0.6797
 8774TIP3   OH250516   2.607   4.837   8.519  0.4241 -0.0829  0.4129
 8774TIP3    H150517   2.555   4.854   8.597  1.4619  2.0683  0.7091
 8774TIP3    H250518   2.554   4.871   8.447  0.0502 -0.8565  0.3067
 8775TIP3   OH250519   2.519   4.688   1.971 -0.2072  0.0406  0.5389
 8775TIP3    H150520   2.529   4.687   2.066 -1.0311 -0.6404  0.6373
 8775TIP3    H250521   2.425   4.703   1.957 -0.3481 -1.2825 -0.1208
 8776TIP3   OH250522   0.018   1.257   1.566 -0.7573 -0.0988  0.3383
 8776TIP3    H150523   0.101   1.248   1.521 -1.4977 -0.3830 -1.0275
 8776TIP3    H250524   0.001   1.351   1.568  0.4700  0.1313  2.3394
 8777TIP3   OH250525   4.005   1.361   0.246 -0.7857 -0.0005  0.1393
 8777TIP3    H150526   3.932   1.420   0.230 -0.2261  0.3278 -1.3401
 8777TIP3    H250527   4.012   1.358   0.341 -2.1120  0.7048  0.2905
 8778TIP3   OH250528   7.157   5.027   1.643 -0.4378  0.4334  0.2664
 8778TIP3    H150529   7.166   5.055   1.552  0.9564  2.3538  0.9425
 8778TIP3    H250530   7.199   5.095   1.694 -1.8374 -0.2171  2.4444
 8779TIP3   OH250531   1.304   1.766   7.125  0.3058 -0.1134 -0.2244
 8779TIP3    H150532   1.373   1.701   7.110  1.1222  0.1584  1.8893
 8779TIP3    H250533   1.237   1.718   7.173 -0.3988 -0.0519 -1.1317
 8780TIP3   OH250534   4.867   1.458   1.365 -0.0920  0.3822 -0.1747
 8780TIP3    H150535   4.853   1.503   1.282 -0.2492  1.5761  0.4822
 8780TIP3    H250536   4.929   1.513   1.412  1.1816 -1.0593 -0.0844
 8781TIP3   OH250537   1.236   5.748   7.409  0.0403  0.1487  0.3258
 8781TIP3    H150538   1.292   5.692   7.462 -0.0407  0.2467  0.5187
 8781TIP3    H250539   1.287   5.828   7.398  0.7480 -0.4772 -1.1473
 8782TIP3   OH250540   3.773   5.204   7.057 -0.2037 -0.2647 -0.0779
 8782TIP3    H150541   3.692   5.224   7.010  0.4460  2.4683 -0.1868
 8782TIP3    H250542   3.833   5.172   6.990 -0.8799 -1.4123 -0.1542
 8783TIP3   OH250543   6.752   3.250   1.131  0.4552 -0.1007  0.3917
 8783TIP3    H150544   6.713   3.323   1.179 -0.7888  0.3616 -1.2167
 8783TIP3    H250545   6.720   3.172   1.177 -0.1260  0.3293  0.7417
 8784TIP3   OH250546   3.384   1.681   9.118  0.2470 -0.1035  0.4063
 8784TIP3    H150547   3.373   1.695   9.024  0.0342 -1.6040  0.1959
 8784TIP3    H250548   3.394   1.770   9.153 -1.0286  0.5922 -0.8513
 8785TIP3   OH250549   3.043   6.621   3.002 -0.3443 -0.3602  0.0805
 8785TIP3    H150550   3.116   6.559   3.003 -1.6679 -2.0013  1.1623
 8785TIP3    H250551   2.970   6.571   3.039 -2.3407  0.8130 -2.0595
 8786TIP3   OH250552   0.199   4.001   8.627 -0.1498 -0.0921 -0.2599
 8786TIP3    H150553   0.193   3.934   8.559  0.1983  1.1357 -1.5484
 8786TIP3    H250554   0.125   4.060   8.610  0.8167  1.0820 -0.5593
 8787TIP3   OH250555   3.875   5.094   6.843  0.6405 -0.9656 -0.0931
 8787TIP3    H150556   3.821   5.049   6.778  0.0533 -1.6252  0.8228
 8787TIP3    H250557   3.949   5.035   6.858  1.6645 -0.0487 -1.3693
 8788TIP3   OH250558   6.530   2.744   1.225  0.6858  0.2438  0.1525
 8788TIP3    H150559   6.482   2.817   1.187 -1.5532  0.4464  3.0436
 8788TIP3    H250560   6.477   2.667   1.206  0.9868 -0.0539  0.4924
 8789TIP3   OH250561   5.013   4.186   7.830 -0.4631 -0.2381 -0.1880
 8789TIP3    H150562   5.109   4.179   7.836 -0.4754 -0.0140  0.2961
 8789TIP3    H250563   4.981   4.106   7.871 -0.4886 -0.2746 -0.2785
 8790TIP3   OH250564   2.819   0.740   9.269  0.4972  0.0800  0.3764
 8790TIP3    H150565   2.728   0.744   9.240  0.1394 -1.1547  1.2982
 8790TIP3    H250566   2.864   0.804   9.213 -0.9791  0.9550  0.1403
 8791TIP3   OH250567   3.969   4.309   8.000  0.0468  0.1933  0.2701
 8791TIP3    H150568   3.996   4.296   8.091 -0.7621 -1.1273  0.3430
 8791TIP3    H250569   4.045   4.281   7.949 -0.0747 -0.6359  0.5241
 8792TIP3   OH250570   2.887   4.890   0.032  0.1860 -0.2912 -0.2501
 8792TIP3    H150571   2.974   4.855   0.016 -0.0697 -0.4500 -1.4373
 8792TIP3    H250572   2.862   4.931  -0.051 -0.7755 -0.0589  0.1362
 8793TIP3   OH250573   0.937   1.928   0.285 -0.2938 -0.2342  0.1519
 8793TIP3    H150574   0.941   2.014   0.327  0.3745 -0.6935  1.0296
 8793TIP3    H250575   0.985   1.939   0.203  0.2437  0.0908  0.5084
 8794TIP3   OH250576   3.554   6.936   2.069  0.3447 -0.5216 -0.0118
 8794TIP3    H150577   3.644   6.970   2.078 -0.5911  1.5776  3.1276
 8794TIP3    H250578   3.548   6.867   2.135 -0.6578  0.1579  0.6209
 8795TIP3   OH250579   5.748   5.825   7.361 -0.0575 -0.4739  0.1043
 8795TIP3    H150580   5.724   5.749   7.415  0.6869 -1.8100 -1.3538
 8795TIP3    H250581   5.786   5.787   7.282 -1.8840  1.3927 -1.7891
 8796TIP3   OH250582   5.506   0.943   7.553 -0.3363 -0.1150 -0.3356
 8796TIP3    H150583   5.476   0.875   7.492 -1.5654 -0.4716  0.6186
 8796TIP3    H250584   5.587   0.975   7.515 -0.1024 -1.6155 -1.1970
 8797TIP3   OH250585   0.776   3.681   2.133  0.0938  0.7562  0.7925
 8797TIP3    H150586   0.777   3.722   2.219 -0.8321 -0.4546  1.4017
 8797TIP3    H250587   0.686   3.690   2.103  0.5048  1.5871 -0.2854
 8798TIP3   OH250588   1.433   7.096   7.939  0.1840  0.7187 -0.0531
 8798TIP3    H150589   1.405   7.188   7.932 -2.4996 -0.1356 -3.3013
 8798TIP3    H250590   1.355   7.050   7.969 -0.2095 -0.9763 -3.2039
 8799TIP3   OH250591   1.840   4.345   1.074  0.2530  0.3836 -0.5020
 8799TIP3    H150592   1.866   4.359   1.165 -2.3958  1.2644  0.2033
 8799TIP3    H250593   1.922   4.327   1.028  1.6511 -0.2889  2.0709
 8800TIP3   OH250594   1.982   5.730   9.046  0.2298 -0.1118  0.3596
 8800TIP3    H150595   2.038   5.794   9.090  0.9082 -1.7744  2.0703
 8800TIP3    H250596   1.992   5.650   9.098 -4.9460 -0.1744  1.7537
 8801TIP3   OH250597   0.818   3.868   9.169  0.6224 -0.0643  0.0367
 8801TIP3    H150598   0.805   3.912   9.254  1.8827 -0.2738  0.3650
 8801TIP3    H250599   0.841   3.778   9.192  0.1805 -0.3363 -0.5640
 8802TIP3   OH250600   1.479   6.425   9.838  0.4761 -0.4782 -0.6059
 8802TIP3    H150601   1.449   6.478   9.912  0.4632 -0.8018 -0.3807
 8802TIP3    H250602   1.542   6.481   9.792  0.0810 -0.0706 -0.6619
 8803TIP3   OH250603   1.158   1.259   0.986  0.1130  0.3556 -0.1341
 8803TIP3    H150604   1.185   1.227   1.072  1.3433  1.8850  0.0960
 8803TIP3    H250605   1.232   1.239   0.929 -0.1567  0.5121 -0.5421
 8804TIP3   OH250606   1.730   7.079   9.458 -0.1005  0.5139  0.1810
 8804TIP3    H150607   1.741   7.167   9.421  1.5201  0.5467  0.6437
 8804TIP3    H250608   1.654   7.086   9.515 -0.0993  1.5837  0.0716
 8805TIP3   OH250609   4.344   0.537   0.695  0.1394 -0.6389 -0.5856
 8805TIP3    H150610   4.426   0.488   0.694  0.1504 -0.6030 -1.4592
 8805TIP3    H250611   4.317   0.535   0.787  1.2973 -0.3480 -0.2194
 8806TIP3   OH250612   5.417   1.567   8.596 -0.5597 -0.1221 -0.5427
 8806TIP3    H150613   5.482   1.521   8.542 -0.0912  0.3249 -0.3691
 8806TIP3    H250614   5.370   1.498   8.642  0.1033 -0.4352 -0.3238
 8807TIP3   OH250615   5.385   6.774   1.490 -0.4772  0.2032  0.0142
 8807TIP3    H150616   5.354   6.759   1.580 -1.9991 -0.0657 -0.5222
 8807TIP3    H250617   5.404   6.868   1.487 -0.4617  0.2237  0.6038
 8808TIP3   OH250618   0.431   7.152   1.856 -0.0367 -0.1068 -0.1263
 8808TIP3    H150619   0.466   7.084   1.798 -1.0276 -1.1434  0.4295
 8808TIP3    H250620   0.505   7.210   1.873  0.9687 -1.2840 -0.2926
 8809TIP3   OH250621   2.569   3.535   9.208 -0.5157  0.6826 -0.1662
 8809TIP3    H150622   2.642   3.583   9.248  0.9032 -3.9672  3.9312
 8809TIP3    H250623   2.506   3.523   9.279 -1.8074 -1.4515 -1.5634
 8810TIP3   OH250624   7.061   4.056   8.138 -0.6172 -0.1336  0.3242
 8810TIP3    H150625   7.122   4.035   8.209  1.0690  0.6892 -0.8282
 8810TIP3    H250626   7.093   4.007   8.063  0.2692  2.2791 -1.0016
 8811TIP3   OH250627   1.977   4.170   7.714 -0.1961 -0.1022 -0.0470
 8811TIP3    H150628   1.991   4.083   7.677  0.8670 -1.0589  2.3470
 8811TIP3    H250629   1.953   4.153   7.805 -0.8442  2.1077  0.2484
 8812TIP3   OH250630   3.984   6.109   7.321 -0.5260 -0.4467  0.0193
 8812TIP3    H150631   3.940   6.084   7.403 -0.0116  1.1899  0.8311
 8812TIP3    H250632   4.008   6.025   7.281 -1.8463 -1.3139  0.9366
 8813TIP3   OH250633   6.446   3.085   8.807 -0.2381 -0.0715 -0.0956
 8813TIP3    H150634   6.397   3.006   8.827  0.6130 -0.8312 -0.9321
 8813TIP3    H250635   6.403   3.122   8.730  1.1614 -1.4003 -1.5929
 8814TIP3   OH250636   5.205   4.931   1.864 -0.4374  0.4405  0.2697
 8814TIP3    H150637   5.296   4.951   1.843 -1.0460  1.0924 -1.9432
 8814TIP3    H250638   5.211   4.859   1.927  1.5969 -0.0403 -0.3974
 8815TIP3   OH250639   6.567   2.349   1.308 -0.0344 -0.5244  0.2291
 8815TIP3    H150640   6.506   2.358   1.381 -2.4044 -2.9975 -1.2495
 8815TIP3    H250641   6.524   2.395   1.236  0.9203 -0.4996 -0.3437
 8816TIP3   OH250642   5.117   4.905   0.424  0.1107 -0.1501  0.0410
 8816TIP3    H150643   5.022   4.903   0.412  0.0379 -2.0324  0.6061
 8816TIP3    H250644   5.131   4.889   0.517  0.9827 -0.0415 -0.0562
 8817TIP3   OH250645   3.734   4.621   0.661 -0.7017 -0.8000  0.4161
 8817TIP3    H150646   3.674   4.612   0.587 -1.0838 -0.2485  0.6540
 8817TIP3    H250647   3.803   4.679   0.629 -0.1452 -1.6211  0.0638
 8818TIP3   OH250648   7.255   4.052   9.665 -0.5376  0.2482 -0.0365
 8818TIP3    H150649   7.164   4.081   9.665 -1.0206 -1.0481  1.9628
 8818TIP3    H250650   7.252   3.964   9.703  1.6786  0.7159  1.3920
 8819TIP3   OH250651   6.608   2.136   7.628  0.3584 -0.0233  0.0893
 8819TIP3    H150652   6.691   2.160   7.669 -0.5729  1.2201  1.3413
 8819TIP3    H250653   6.542   2.189   7.673 -1.1829 -1.2664 -0.5797
 8820TIP3   OH250654   2.647   0.806   2.800  0.2648 -0.4017  1.1079
 8820TIP3    H150655   2.616   0.782   2.887  1.4659 -2.7526  0.9510
 8820TIP3    H250656   2.723   0.862   2.817 -0.3600  0.3454  1.5207
 8821TIP3   OH250657   4.733   1.596   0.233  0.2630 -0.0925  0.0045
 8821TIP3    H150658   4.755   1.561   0.147  0.1399 -0.7375  0.2229
 8821TIP3    H250659   4.638   1.606   0.231  0.3157  0.3813 -0.1108
 8822TIP3   OH250660   5.074   2.165   7.780 -0.4098 -0.4069 -0.1235
 8822TIP3    H150661   5.014   2.218   7.728 -0.0917 -0.0315 -0.1062
 8822TIP3    H250662   5.156   2.214   7.781 -0.6802  0.0546  1.5337
 8823TIP3   OH250663   3.243   0.190   7.625 -0.7968  0.3735 -0.4005
 8823TIP3    H150664   3.314   0.185   7.561 -1.2408 -2.4935 -0.8130
 8823TIP3    H250665   3.223   0.098   7.645 -3.3574  1.1268  0.8642
 8824TIP3   OH250666   1.723   6.495   1.040 -0.2865  0.4129  0.0556
 8824TIP3    H150667   1.662   6.565   1.016 -0.3236  0.6066  0.6934
 8824TIP3    H250668   1.748   6.515   1.130  0.8698  0.4400 -0.2613
 8825TIP3   OH250669   3.764   6.109   6.624 -0.2156  0.6930  0.2302
 8825TIP3    H150670   3.669   6.117   6.619 -0.1886  0.4756 -2.6001
 8825TIP3    H250671   3.796   6.163   6.552  1.7228 -0.3021  0.2823
 8826TIP3   OH250672   0.583   1.482   8.332  0.2413  0.0606  0.4426
 8826TIP3    H150673   0.626   1.448   8.253  0.4970 -2.2627  1.5080
 8826TIP3    H250674   0.490   1.479   8.312  0.2995 -0.6277  0.2674
 8827TIP3   OH250675   0.878   7.341   1.400  0.0404 -0.1860 -0.4879
 8827TIP3    H150676   0.845   7.424   1.434 -0.3361 -1.1207  1.5777
 8827TIP3    H250677   0.960   7.326   1.447  0.5410 -0.5892 -1.4541
 8828TIP3   OH250678   2.609   2.671   1.365  0.2502  0.2499  0.0808
 8828TIP3    H150679   2.670   2.614   1.317 -0.7847 -2.3173  1.6052
 8828TIP3    H250680   2.552   2.610   1.413 -1.1406  2.6094  1.6200
 8829TIP3   OH250681   3.540   3.192   0.910 -0.1231  0.9132 -0.2086
 8829TIP3    H150682   3.574   3.105   0.929 -0.4516  0.5415 -1.2450
 8829TIP3    H250683   3.545   3.239   0.993  1.8711  0.5203 -0.0718
 8830TIP3   OH250684   4.889   5.135   1.567  0.0684 -0.2474 -0.1942
 8830TIP3    H150685   4.797   5.159   1.564  0.4952  1.8552  1.1769
 8830TIP3    H250686   4.932   5.195   1.507  0.6782 -0.4681  0.0118
 8831TIP3   OH250687   1.252   6.653   8.802 -0.0192  0.5964  0.7047
 8831TIP3    H150688   1.329   6.620   8.757 -0.2042 -1.3207  1.6985
 8831TIP3    H250689   1.190   6.675   8.732  1.0956  1.4197 -0.0687
 8832TIP3   OH250690   0.763   4.427   7.985  0.1608  0.1987  0.3492
 8832TIP3    H150691   0.695   4.424   7.919  0.3322  4.2095 -0.2545
 8832TIP3    H250692   0.718   4.410   8.068 -0.7199 -1.2424 -0.3920
 8833TIP3   OH250693   3.842   6.905   0.843 -0.2202 -0.2380 -0.4625
 8833TIP3    H150694   3.805   6.992   0.858 -0.0403 -0.2684  0.1929
 8833TIP3    H250695   3.773   6.844   0.869 -0.7977 -0.3121 -2.0580
 8834TIP3   OH250696   4.971   4.946   2.089 -0.0696 -0.4878 -0.2988
 8834TIP3    H150697   4.980   5.038   2.065  0.2379  0.2726  2.4807
 8834TIP3    H250698   5.059   4.910   2.082 -0.5750 -1.5566 -4.3987
 8835TIP3   OH250699   1.436   7.351   0.531 -0.6257 -0.2187 -0.0945
 8835TIP3    H150700   1.465   7.272   0.576  1.7156  0.1218 -0.8683
 8835TIP3    H250701   1.400   7.406   0.601  0.8042 -0.6281  1.0108
 8836TIP3   OH250702   3.418   4.628   7.995  0.4087  0.4013 -0.0540
 8836TIP3    H150703   3.456   4.655   7.911  0.8867 -1.0457 -0.3325
 8836TIP3    H250704   3.340   4.578   7.971  0.2780  0.3956  0.3775
 8837TIP3   OH250705   4.148   7.412   0.362 -0.2673 -0.3879  0.1712
 8837TIP3    H150706   4.105   7.393   0.279  0.7691 -0.1835 -0.4264
 8837TIP3    H250707   4.239   7.426   0.339  0.0399 -0.3480  1.3524
 8838TIP3   OH250708   0.244   5.481   1.142  0.2691 -0.1008  0.0958
 8838TIP3    H150709   0.313   5.417   1.156 -0.7836 -1.0886  1.0072
 8838TIP3    H250710   0.203   5.455   1.059  0.4886  0.0050 -0.0451
 8839TIP3   OH250711   5.337   2.297   0.938  0.2956 -0.2692 -0.0105
 8839TIP3    H150712   5.270   2.245   0.895 -0.8380  0.3095  0.9934
 8839TIP3    H250713   5.303   2.387   0.934  1.3095  0.1216 -0.0457
 8840TIP3   OH250714   2.692   0.249   2.935  0.1431  0.0066 -0.1902
 8840TIP3    H150715   2.757   0.215   2.875 -1.6029 -2.0237 -1.0683
 8840TIP3    H250716   2.611   0.203   2.912 -1.2294  1.1645  1.9323
 8841TIP3   OH250717   4.982   7.257   8.585  0.5394  0.1407 -0.1973
 8841TIP3    H150718   4.985   7.349   8.560 -1.2851 -0.1490 -1.7163
 8841TIP3    H250719   4.913   7.220   8.530  0.7986 -1.9988  0.8364
 8842TIP3   OH250720   0.466   2.928   9.186  0.0536 -0.0294  0.1411
 8842TIP3    H150721   0.414   3.007   9.176  1.4637  0.9970  0.6159
 8842TIP3    H250722   0.553   2.952   9.156  0.4228 -1.5225 -0.0751
 8843TIP3   OH250723   2.969   2.138   1.014  0.4354 -0.3856  0.6042
 8843TIP3    H150724   3.054   2.144   0.971 -0.4107  0.5375 -1.0213
 8843TIP3    H250725   2.923   2.069   0.967 -0.7965  1.1760 -0.5859
 8844TIP3   OH250726   2.815   3.104   7.488 -0.3520 -0.2229 -0.6625
 8844TIP3    H150727   2.787   3.057   7.567 -2.0965  0.5372 -0.7918
 8844TIP3    H250728   2.735   3.142   7.453  0.8212  2.0471 -1.0872
 8845TIP3   OH250729   0.041   0.144   7.776 -0.1509  0.5350  0.1749
 8845TIP3    H150730  -0.027   0.206   7.751  0.8569  1.4678 -0.3433
 8845TIP3    H250731   0.059   0.093   7.697  0.5721  1.1093 -0.0479
 8846TIP3   OH250732   6.182   3.331   9.769 -0.0565  0.3455 -0.3705
 8846TIP3    H150733   6.201   3.425   9.770 -0.1063  0.3573  0.6015
 8846TIP3    H250734   6.129   3.317   9.848 -0.7581 -0.3565 -0.9531
 8847TIP3   OH250735   2.983   6.668   9.651 -0.1282  0.3373  0.0912
 8847TIP3    H150736   2.925   6.592   9.642 -0.3517  0.4992  0.1446
 8847TIP3    H250737   3.022   6.679   9.565  0.0757  0.0243  0.1440
 8848TIP3   OH250738   4.255   3.457   1.339  0.4952  0.1799 -0.0651
 8848TIP3    H150739   4.327   3.491   1.392  1.1354 -0.3124 -0.5985
 8848TIP3    H250740   4.193   3.529   1.333  1.7341  1.2027 -1.0127
 8849TIP3   OH250741   4.529   5.399   0.310 -0.0560 -0.8226  0.4216
 8849TIP3    H150742   4.448   5.356   0.283 -0.2270 -0.0209 -0.3666
 8849TIP3    H250743   4.599   5.342   0.278 -0.2954 -1.1441  0.4702
 8850TIP3   OH250744   5.335   5.293   2.975 -0.1879  0.6910  0.1765
 8850TIP3    H150745   5.261   5.241   2.942  0.6792 -0.9042  0.6740
 8850TIP3    H250746   5.335   5.279   3.069  0.3959  1.1773  0.2559
 8851TIP3   OH250747   5.205   0.375   1.699 -0.3785 -0.1149 -0.5767
 8851TIP3    H150748   5.144   0.329   1.640 -0.5566 -1.1458  0.3862
 8851TIP3    H250749   5.291   0.342   1.675 -0.4528 -0.5479 -0.2634
 8852TIP3   OH250750   0.880   0.502   0.705  0.2127  0.6418  0.2205
 8852TIP3    H150751   0.841   0.430   0.655 -1.1858  1.0735  0.6269
 8852TIP3    H250752   0.902   0.463   0.790 -0.5680  0.6818  0.4496
 8853TIP3   OH250753   7.312   6.016   8.598  0.4720  0.0504 -0.3094
 8853TIP3    H150754   7.392   5.972   8.627 -0.2775 -1.0949  0.0483
 8853TIP3    H250755   7.316   6.012   8.503  1.6383  1.4886 -0.3678
 8854TIP3   OH250756   6.541   0.768   9.940  0.5720  0.1635  0.2682
 8854TIP3    H150757   6.598   0.803   9.872  1.8425 -2.0592  0.0780
 8854TIP3    H250758   6.600   0.718   9.997 -1.0020 -1.1525  0.8039
 8855TIP3   OH250759   1.161   2.392   1.682 -0.3319 -0.1006  0.0402
 8855TIP3    H150760   1.242   2.377   1.634  0.6352  0.9785  1.2521
 8855TIP3    H250761   1.121   2.467   1.638  0.7848  1.1874  1.0929
 8856TIP3   OH250762   2.594   6.603   7.625  0.3724 -0.3134  0.2883
 8856TIP3    H150763   2.557   6.682   7.665  0.8448 -0.1190  0.3469
 8856TIP3    H250764   2.685   6.602   7.654  0.4577 -0.6987  0.0107
 8857TIP3   OH250765   6.048   7.224   1.324 -0.3534  0.0463 -0.0510
 8857TIP3    H150766   5.992   7.157   1.284  1.4405 -1.3615 -0.3334
 8857TIP3    H250767   6.055   7.198   1.416 -2.5934  1.9889  0.7855
 8858TIP3   OH250768   4.798   1.229   0.216  0.0387  0.8547 -0.2099
 8858TIP3    H150769   4.760   1.202   0.132 -0.8679  1.1108  0.1021
 8858TIP3    H250770   4.727   1.216   0.280  0.5836  1.0415  0.4480
 8859TIP3   OH250771   0.773   1.121   1.148 -0.0743 -0.7864 -0.6248
 8859TIP3    H150772   0.712   1.047   1.146  0.5523 -1.3503  0.2208
 8859TIP3    H250773   0.852   1.088   1.105  0.2633 -0.6774 -0.1057
 8860TIP3   OH250774   3.417   2.765   7.292 -0.1843 -0.4599 -0.3687
 8860TIP3    H150775   3.381   2.743   7.207  1.2665 -0.6792 -0.9527
 8860TIP3    H250776   3.418   2.682   7.340 -0.3447 -0.4684 -0.3779
 8861TIP3   OH250777   7.299   0.505   8.377 -0.1287  0.2723 -0.4171
 8861TIP3    H150778   7.357   0.449   8.325 -0.9381 -0.1969 -0.8387
 8861TIP3    H250779   7.241   0.444   8.423  0.1410  0.7096  0.5281
 8862TIP3   OH250780   4.701   4.038   0.907 -0.5833  0.1213  0.0001
 8862TIP3    H150781   4.776   4.045   0.849 -1.8393  2.1663 -1.5246
 8862TIP3    H250782   4.684   4.128   0.935 -1.3787 -0.5291  1.7976
 8863TIP3   OH250783   0.080   5.474   0.109 -0.3617 -0.0081  0.3400
 8863TIP3    H150784   0.065   5.451   0.017 -2.9623 -0.3235  0.7535
 8863TIP3    H250785   0.102   5.392   0.152  0.4255  0.0661  0.0905
 8864TIP3   OH250786   2.037   2.678   9.409 -0.3600 -0.0886 -0.7258
 8864TIP3    H150787   2.110   2.619   9.423 -0.6332 -0.3340 -0.3027
 8864TIP3    H250788   1.960   2.621   9.405 -0.6887  0.2658  0.1891
 8865TIP3   OH250789   2.786   6.816   2.218 -0.2563  0.8076 -0.5589
 8865TIP3    H150790   2.847   6.804   2.291 -0.8687 -0.8343 -0.2930
 8865TIP3    H250791   2.841   6.853   2.148  0.2157  3.0500  0.8708
 8866TIP3   OH250792   5.093   5.171   1.910 -0.0372  0.3614  0.2336
 8866TIP3    H150793   5.067   5.230   1.839 -3.1669 -0.8400  0.1934
 8866TIP3    H250794   5.116   5.089   1.866 -0.7485  0.0009  0.5187
 8867TIP3   OH250795   3.143   2.634   9.605  0.0011 -0.1800  0.2091
 8867TIP3    H150796   3.078   2.684   9.555  0.1863 -0.4979 -0.3616
 8867TIP3    H250797   3.225   2.646   9.558 -0.4459 -3.2255 -1.6138
 8868TIP3   OH250798   3.508   5.933   9.939 -0.5695  0.9132 -0.0590
 8868TIP3    H150799   3.581   5.987   9.968 -0.3577 -0.5393  2.4304
 8868TIP3    H250800   3.488   5.877  10.014 -3.2426  0.1715 -1.1848
 8869TIP3   OH250801   1.396   3.893   8.725 -0.2381 -0.5712 -0.7607
 8869TIP3    H150802   1.392   3.907   8.820  1.8018  1.0606 -0.8284
 8869TIP3    H250803   1.360   3.805   8.712 -0.6275 -0.8163  1.5063
 8870TIP3   OH250804   6.246   5.399   7.958 -0.5120  0.0126  0.2506
 8870TIP3    H150805   6.264   5.360   8.044 -0.5037  0.9951  0.7079
 8870TIP3    H250806   6.329   5.395   7.911  0.3122  2.2349  1.4185
 8871TIP3   OH250807   0.441   6.457   2.481  0.4404 -0.2139  0.6059
 8871TIP3    H150808   0.537   6.466   2.478  0.4683 -0.7720 -0.4519
 8871TIP3    H250809   0.425   6.365   2.464 -0.1788 -0.8170  3.7484
 8872TIP3   OH250810   3.105   0.313   8.634  0.4814 -0.2457 -0.0366
 8872TIP3    H150811   3.155   0.391   8.659 -1.8625  2.2767 -2.5267
 8872TIP3    H250812   3.076   0.276   8.718 -0.2288  2.9560  1.2833
 8873TIP3   OH250813   3.446   2.195   7.415 -0.2188  0.1455 -0.2341
 8873TIP3    H150814   3.360   2.210   7.377 -0.3661  1.1309  0.4386
 8873TIP3    H250815   3.430   2.184   7.508  0.3515  0.0836 -0.1380
 8874TIP3   OH250816   4.411   3.537   9.531 -0.2340 -0.0296 -0.4527
 8874TIP3    H150817   4.414   3.615   9.475  1.3274 -0.1541 -0.5760
 8874TIP3    H250818   4.382   3.467   9.472  3.3986 -0.6112 -1.7657
 8875TIP3   OH250819   3.757   3.341   8.207 -0.3577  0.1812 -0.0670
 8875TIP3    H150820   3.832   3.394   8.180 -1.8679  0.6779 -4.0524
 8875TIP3    H250821   3.734   3.374   8.293  3.1966  0.7971  0.8079
 8876TIP3   OH250822   2.815   2.749   0.658 -0.5053  0.2525 -0.3439
 8876TIP3    H150823   2.719   2.755   0.659 -0.4779  0.7293  0.2344
 8876TIP3    H250824   2.835   2.682   0.722 -0.4491  0.2043 -0.4122
 8877TIP3   OH250825   6.419   6.133   7.777 -0.2910 -0.1029 -0.7116
 8877TIP3    H150826   6.435   6.186   7.699 -1.8088 -0.1442 -1.0734
 8877TIP3    H250827   6.431   6.042   7.747 -0.9964 -0.1260 -0.9455
 8878TIP3   OH250828   2.205   2.675   7.208  0.4147 -0.2524 -0.0058
 8878TIP3    H150829   2.129   2.675   7.151  0.8548 -3.7500 -0.8132
 8878TIP3    H250830   2.175   2.634   7.289  1.3622 -1.5743 -0.2915
 8879TIP3   OH250831   2.382   5.200   2.072 -0.2430  0.1806 -0.4353
 8879TIP3    H150832   2.290   5.178   2.084  0.2519 -1.7461  0.2263
 8879TIP3    H250833   2.424   5.170   2.153  1.1562 -0.3322 -1.3131
 8880TIP3   OH250834   0.963   0.386   2.229 -0.4025  0.6447  0.5010
 8880TIP3    H150835   1.005   0.308   2.265  1.9115  1.3125 -0.5609
 8880TIP3    H250836   0.946   0.442   2.305  0.3521  0.2001  1.0081
 8881TIP3   OH250837   1.419   1.443   9.879 -0.3939 -0.6971 -0.0690
 8881TIP3    H150838   1.345   1.478   9.830  0.5440 -1.4900 -2.1638
 8881TIP3    H250839   1.380   1.393   9.951 -1.8138  0.3719 -0.0537
 8882TIP3   OH250840   7.255   6.192   1.107 -0.4089  0.5631  0.8743
 8882TIP3    H150841   7.207   6.217   1.186  1.2574  1.4442  1.6577
 8882TIP3    H250842   7.301   6.272   1.080  0.4407 -0.1765  0.0325
 8883TIP3   OH250843   3.353   6.168   0.467  0.5317  0.0328  0.4544
 8883TIP3    H150844   3.276   6.202   0.513  0.4360  0.0375  0.2918
 8883TIP3    H250845   3.391   6.105   0.527 -0.2098 -0.7661  0.1026
 8884TIP3   OH250846   7.422   0.798   1.758 -0.1237  0.0376  0.4609
 8884TIP3    H150847   7.497   0.751   1.722 -0.7026 -0.7610  0.2723
 8884TIP3    H250848   7.444   0.811   1.850  0.8265  1.0091  0.1228
 8885TIP3   OH250849   1.856   1.458   8.132 -0.4852 -0.5072  0.5115
 8885TIP3    H150850   1.803   1.492   8.204 -2.3950  1.9646 -1.8596
 8885TIP3    H250851   1.804   1.386   8.096  0.4372 -1.6992  1.5078
 8886TIP3   OH250852   1.034   1.943   9.656  0.0030  0.0282  0.2786
 8886TIP3    H150853   1.083   1.986   9.725 -2.7042  2.8208  0.6803
 8886TIP3    H250854   0.973   1.885   9.702  0.5604 -0.7955 -0.0059
 8887TIP3   OH250855   3.920   5.995   1.629  0.1946 -0.1905  0.3455
 8887TIP3    H150856   3.925   6.068   1.568 -1.4535 -1.6827 -1.7360
 8887TIP3    H250857   3.847   6.017   1.688 -0.6033 -0.3175 -0.5681
 8888TIP3   OH250858   2.999   6.691   1.330 -0.0929 -0.2355 -0.0747
 8888TIP3    H150859   3.028   6.631   1.399  0.8889  1.2650  0.8775
 8888TIP3    H250860   2.905   6.674   1.322 -0.0293 -1.1668  0.8809
 8889TIP3   OH250861   3.042   6.939   8.936  0.6912 -0.2548  0.2780
 8889TIP3    H150862   3.029   6.846   8.952 -0.9540 -0.0216  0.4502
 8889TIP3    H250863   3.124   6.944   8.887  0.3367 -1.8643 -0.5369
 8890TIP3   OH250864   6.960   5.864   9.453 -0.2402  0.0109  0.4639
 8890TIP3    H150865   7.043   5.836   9.413 -0.8170  0.8155 -1.4450
 8890TIP3    H250866   6.987   5.926   9.521  0.7441  1.0958 -0.8371
 8891TIP3   OH250867   7.226   4.645   8.518 -0.1830 -0.6358  0.2702
 8891TIP3    H150868   7.199   4.571   8.572  0.2464 -0.1607  1.1539
 8891TIP3    H250869   7.322   4.637   8.514 -0.2717 -1.3234 -1.3953
 8892TIP3   OH250870   1.632   1.344   7.996  0.0508  0.0410 -0.0714
 8892TIP3    H150871   1.571   1.416   7.982 -0.2065  0.4599  2.7078
 8892TIP3    H250872   1.578   1.271   8.025  0.6029 -0.4160 -0.1623
 8893TIP3   OH250873   3.810   6.002   9.926  0.4967 -0.1920 -0.3859
 8893TIP3    H150874   3.810   5.907   9.933  0.5348 -0.0928  1.7458
 8893TIP3    H250875   3.902   6.025   9.911  0.4168 -0.5048 -1.3681
 8894TIP3   OH250876   4.475   6.011   9.946 -0.5610  0.0578  1.0267
 8894TIP3    H150877   4.484   6.031  10.039  0.1380  2.3434  0.5095
 8894TIP3    H250878   4.415   6.078   9.912 -1.1918 -1.0229 -0.1165
 8895TIP3   OH250879   6.223   2.713   7.936 -0.0324  0.3720  0.5325
 8895TIP3    H150880   6.195   2.787   7.883 -1.2643  0.6076  1.4663
 8895TIP3    H250881   6.171   2.639   7.904  1.2622 -0.1489 -0.4644
 8896TIP3   OH250882   2.789   3.469   0.832  0.1087 -0.1033 -0.2937
 8896TIP3    H150883   2.732   3.442   0.759  0.0256  0.6742 -0.5286
 8896TIP3    H250884   2.747   3.548   0.866  0.0056 -0.6078  0.7783
 8897TIP3   OH250885   1.926   5.383   0.807 -0.1499 -0.0876  0.0577
 8897TIP3    H150886   2.015   5.415   0.819 -0.7863  1.0223  2.4727
 8897TIP3    H250887   1.937   5.289   0.791  1.4726  0.1495 -0.3836
 8898TIP3   OH250888   1.865   2.568   7.465 -0.2187 -0.0739 -0.5558
 8898TIP3    H150889   1.785   2.530   7.429  0.6087 -1.1404 -1.3218
 8898TIP3    H250890   1.886   2.515   7.541 -0.1315  0.0869 -0.4655
 8899TIP3   OH250891   3.733   7.199   7.366 -0.0944  0.0151  0.2763
 8899TIP3    H150892   3.784   7.269   7.325 -0.2547  0.5730  0.9998
 8899TIP3    H250893   3.693   7.241   7.443 -0.4386 -0.7961  0.5480
 8900TIP3   OH250894   4.372   3.585   8.100 -0.5084  0.5437 -0.0704
 8900TIP3    H150895   4.278   3.591   8.118 -0.4323  0.7915  0.2588
 8900TIP3    H250896   4.379   3.522   8.028 -0.8953  0.2586  0.1376
 8901TIP3   OH250897   0.264   5.641   0.422 -0.5583 -0.2989  0.2978
 8901TIP3    H150898   0.259   5.670   0.513  1.6086 -0.1564  0.4385
 8901TIP3    H250899   0.284   5.547   0.428  1.9203  0.1477  0.0886
 8902TIP3   OH250900   0.325   5.617   1.693  0.3521  0.2407  0.4152
 8902TIP3    H150901   0.251   5.577   1.737 -0.5918  1.0446 -0.3780
 8902TIP3    H250902   0.337   5.565   1.613 -0.6753  1.2952 -0.4591
 8903TIP3   OH250903   4.021   7.439   0.074  0.3447  0.1787  0.0340
 8903TIP3    H150904   4.037   7.413  -0.016  0.6637 -0.1484  0.1839
 8903TIP3    H250905   3.930   7.413   0.091  0.7279 -1.0893  0.2608
 8904TIP3   OH250906   0.527   2.619   0.347 -0.1419 -0.0842 -0.1161
 8904TIP3    H150907   0.607   2.669   0.333 -1.5559  2.4468  0.2393
 8904TIP3    H250908   0.531   2.593   0.439  0.3454 -0.1596 -0.1535
 8905TIP3   OH250909   3.375   2.207   8.039 -0.9354 -0.4076  0.1448
 8905TIP3    H150910   3.414   2.263   8.106 -1.3186 -0.7004  0.6201
 8905TIP3    H250911   3.377   2.260   7.959  2.4842 -1.1876 -0.4275
 8906TIP3   OH250912   0.858   5.104   8.810  0.0127 -0.5700 -0.1788
 8906TIP3    H150913   0.811   5.052   8.875 -0.4011  0.3370  0.2771
 8906TIP3    H250914   0.946   5.116   8.846 -0.7238  1.4421  1.1500
 8907TIP3   OH250915   3.985   2.433   1.250 -0.4601 -0.2696  0.7069
 8907TIP3    H150916   3.963   2.506   1.308  0.7119  0.8486 -0.1979
 8907TIP3    H250917   3.900   2.396   1.225 -1.1045  0.9268  1.0164
 8908TIP3   OH250918   1.345   4.198   9.733 -0.0349 -0.0280 -0.4763
 8908TIP3    H150919   1.412   4.205   9.800 -0.0566 -2.2145 -0.1389
 8908TIP3    H250920   1.272   4.153   9.776 -0.5765 -0.2491 -1.5750
 8909TIP3   OH250921   0.781   5.945   8.525  0.1716 -0.4521  0.1847
 8909TIP3    H150922   0.822   6.004   8.589 -0.2619 -1.4977  1.4781
 8909TIP3    H250923   0.834   5.955   8.446  1.2460  0.2625  0.9613
 8910TIP3   OH250924   3.331   3.306   9.648  0.3912 -0.4895  0.5867
 8910TIP3    H150925   3.419   3.337   9.626  0.3801 -0.5075  0.5159
 8910TIP3    H250926   3.273   3.367   9.603  0.3631 -1.5345 -0.8822
 8911TIP3   OH250927   3.648   2.409   8.905 -0.8668  0.4817 -0.2435
 8911TIP3    H150928   3.667   2.336   8.963 -0.3030  1.6809  1.1309
 8911TIP3    H250929   3.713   2.476   8.927  1.0681  0.1224 -4.0313
 8912TIP3   OH250930   1.478   3.201   0.328 -0.4267  0.2251 -0.3385
 8912TIP3    H150931   1.554   3.177   0.380 -1.2122 -1.0857  0.2726
 8912TIP3    H250932   1.501   3.285   0.288  0.5311  0.8871  1.4703
 8913TIP3   OH250933   4.437   3.100   0.474 -0.1970 -0.1383 -0.4180
 8913TIP3    H150934   4.483   3.024   0.441 -1.8577 -1.7010  0.6715
 8913TIP3    H250935   4.376   3.124   0.405  0.3400  0.2448 -0.7684
 8914TIP3   OH250936   4.545   2.045   9.593  0.2291  0.0559 -0.9597
 8914TIP3    H150937   4.567   1.954   9.609  0.4286  0.1941 -0.4007
 8914TIP3    H250938   4.449   2.046   9.585  0.3047 -0.3545 -2.0739
 8915TIP3   OH250939   6.585   3.417   9.357  0.9238  0.0931 -0.4609
 8915TIP3    H150940   6.528   3.358   9.308  1.3987 -0.6531 -0.1339
 8915TIP3    H250941   6.616   3.480   9.292  0.8903 -0.3794 -0.9399
 8916TIP3   OH250942   2.425   6.845   1.062  0.2758 -0.2496  0.0523
 8916TIP3    H150943   2.486   6.779   1.027  0.5141 -0.7684  1.4068
 8916TIP3    H250944   2.357   6.794   1.106  0.8240  0.3999  1.7199
 8917TIP3   OH250945   7.134   3.113   2.141  0.0256 -0.9236  0.7785
 8917TIP3    H150946   7.218   3.088   2.102  0.9256 -0.6761  2.4782
 8917TIP3    H250947   7.142   3.207   2.155 -1.0069 -0.6903 -0.0791
 8918TIP3   OH250948   7.450   4.955   1.354 -0.4018 -0.3821  0.1793
 8918TIP3    H150949   7.414   4.945   1.266  0.6763  1.3659 -0.5290
 8918TIP3    H250950   7.428   5.045   1.378  0.3538 -0.4548  1.2099
 8919TIP3   OH250951   6.910   2.393   1.899  0.3460  0.4182 -0.5906
 8919TIP3    H150952   6.882   2.447   1.972  1.2461  0.5104 -0.3005
 8919TIP3    H250953   6.828   2.366   1.856 -0.1290  2.0237 -0.7692
 8920TIP3   OH250954   2.082   7.263   1.646  0.5744  0.4095 -0.5558
 8920TIP3    H150955   2.141   7.304   1.709  1.7516 -2.6524  0.4977
 8920TIP3    H250956   2.138   7.235   1.574  0.1359 -0.9240 -0.4003
 8921TIP3   OH250957   1.350   6.072   0.888  0.4742 -0.5297  0.0214
 8921TIP3    H150958   1.382   6.133   0.954  0.3075 -0.0122 -0.3735
 8921TIP3    H250959   1.325   5.994   0.938 -1.1626  0.4310  0.7617
 8922TIP3   OH250960   2.814   3.679   0.619 -0.3551 -0.3249  0.3648
 8922TIP3    H150961   2.777   3.654   0.535 -0.2591  1.0207 -0.1035
 8922TIP3    H250962   2.760   3.753   0.648 -0.3136 -0.6995  1.4292
 8923TIP3   OH250963   6.624   1.433   0.143  0.4189 -0.0257 -0.1982
 8923TIP3    H150964   6.668   1.504   0.190  2.6324 -0.9246 -0.7785
 8923TIP3    H250965   6.536   1.430   0.181  0.8508  1.8209  1.0991
 8924TIP3   OH250966   0.100   6.388   9.564 -0.1582  0.2370  0.0920
 8924TIP3    H150967   0.175   6.355   9.515 -0.5710 -0.8765  0.1797
 8924TIP3    H250968   0.028   6.387   9.501 -0.5648 -0.6646  0.5629
 8925TIP3   OH250969   4.700   5.837   9.580 -0.2071  0.2284  0.1912
 8925TIP3    H150970   4.771   5.887   9.539 -0.0754 -0.4184 -0.4058
 8925TIP3    H250971   4.659   5.791   9.506 -1.4198  0.8009  0.4938
 8926TIP3   OH250972   6.502   4.687   0.185 -0.1896  0.4808 -0.4603
 8926TIP3    H150973   6.492   4.770   0.139  1.4338 -0.8792 -3.5781
 8926TIP3    H250974   6.540   4.627   0.120  0.9407 -2.0791  2.2751
 8927TIP3   OH250975   4.659   4.309   0.896  0.2621 -0.2192 -0.1065
 8927TIP3    H150976   4.641   4.403   0.903  1.3675  0.0534 -0.7746
 8927TIP3    H250977   4.611   4.280   0.819  0.4326 -0.0727 -0.2669
 8928TIP3   OH250978   7.328   3.338   1.756  0.2169 -0.4262  0.6628
 8928TIP3    H150979   7.388   3.298   1.819  0.8395 -0.8099 -0.1652
 8928TIP3    H250980   7.270   3.267   1.729  0.1978 -0.3514  0.5077
 8929TIP3   OH250981   6.569   0.966   0.329 -0.2490 -0.1686 -0.2385
 8929TIP3    H150982   6.568   0.971   0.234  2.8873 -0.5277 -0.3858
 8929TIP3    H250983   6.573   0.872   0.348  0.4887 -0.0636  0.1719
 8930TIP3   OH250984   5.447   2.089   0.132  0.0656  0.3455 -0.4193
 8930TIP3    H150985   5.489   2.051   0.055 -1.5549  1.5363 -1.9777
 8930TIP3    H250986   5.517   2.136   0.177  1.2015 -0.9896 -0.7336
 8931TIP3   OH250987   2.945   3.942   7.848  0.0289 -0.2376  0.0500
 8931TIP3    H150988   2.919   3.938   7.940  0.2079 -0.5784  0.0872
 8931TIP3    H250989   2.999   4.021   7.842 -0.5877  0.1932  0.0792
 8932TIP3   OH250990   4.999   7.262   1.498  0.2957  0.0015 -0.0331
 8932TIP3    H150991   5.045   7.341   1.468  0.9644  0.5693  2.2800
 8932TIP3    H250992   4.909   7.290   1.511  0.6518  0.5742  1.3250
 8933TIP3   OH250993   1.210   2.395   0.432  0.5089 -0.3164  0.6392
 8933TIP3    H150994   1.201   2.382   0.338 -0.7517 -1.1924  0.8572
 8933TIP3    H250995   1.122   2.381   0.467  0.7963  0.7593  1.8674
 8934TIP3   OH250996   5.132   6.460   0.403  0.3381 -0.4162 -0.3825
 8934TIP3    H150997   5.199   6.512   0.447  0.2102  0.3652 -1.0865
 8934TIP3    H250998   5.054   6.470   0.457 -0.6827  2.9586 -2.1628
 8935TIP3   OH250999   2.479   7.115   7.570 -0.0995  0.0325  0.2493
 8935TIP3    H151000   2.470   7.196   7.621  2.9102  0.8577 -0.3291
 8935TIP3    H251001   2.390   7.083   7.560 -1.3119  2.7378  1.3672
 8936TIP3   OH251002   2.791   6.845   9.750  0.4614 -0.7390 -0.3180
 8936TIP3    H151003   2.706   6.864   9.710  0.4663 -0.2314 -0.0932
 8936TIP3    H251004   2.830   6.779   9.693 -0.7165 -2.0990  0.3928
 8937TIP3   OH251005   3.057   1.132   8.055  0.2820  0.0677 -0.3632
 8937TIP3    H151006   2.985   1.183   8.091 -0.0661 -1.3906  1.1329
 8937TIP3    H251007   3.017   1.080   7.986  0.0467 -0.1787 -0.0447
 8938TIP3   OH251008   4.667   6.512   8.742 -0.8163 -0.0569  0.4716
 8938TIP3    H151009   4.711   6.548   8.819 -1.6530 -0.2661  1.0611
 8938TIP3    H251010   4.718   6.434   8.719 -0.0922  0.4502  0.3140
 8939TIP3   OH251011   4.070   6.150   2.328  0.8616  0.1377  0.7811
 8939TIP3    H151012   4.059   6.057   2.350 -1.4849  0.3266  0.7361
 8939TIP3    H251013   4.033   6.196   2.404  0.6546  0.9805  0.1775
 8940TIP3   OH251014   2.540   1.927   8.236 -0.3797  0.3094  0.4060
 8940TIP3    H151015   2.502   2.014   8.229  0.9153  1.2576  3.3283
 8940TIP3    H251016   2.481   1.879   8.294 -0.7563 -0.5930 -0.6856
 8941TIP3   OH251017   6.136   3.943   9.043 -0.1718  0.5573 -0.1992
 8941TIP3    H151018   6.110   3.868   8.989 -0.6241  0.7475 -0.2545
 8941TIP3    H251019   6.227   3.959   9.020 -0.0673  0.0108 -0.1702
 8942TIP3   OH251020   2.494   2.401   2.066 -0.8589 -0.3617 -0.0113
 8942TIP3    H151021   2.586   2.400   2.038 -0.9226 -0.2507 -0.2345
 8942TIP3    H251022   2.484   2.485   2.111 -0.9038 -0.2728 -0.1828
 8943TIP3   OH251023   7.015   4.278   9.655 -0.2750 -0.1893  0.2036
 8943TIP3    H151024   6.993   4.293   9.564  1.1700  0.1687 -0.1174
 8943TIP3    H251025   7.086   4.340   9.673 -0.8635  0.0903  1.7075
 8944TIP3   OH251026   1.944   0.552   8.561 -0.3615 -0.4247 -0.3415
 8944TIP3    H151027   1.968   0.585   8.475 -2.4493 -0.3725 -0.9747
 8944TIP3    H251028   1.969   0.622   8.621  0.3945 -0.1164 -0.9981
 8945TIP3   OH251029   3.501   1.968   9.854 -0.8148 -0.3098  0.1788
 8945TIP3    H151030   3.565   1.966   9.783  1.1630  0.9567  1.8211
 8945TIP3    H251031   3.432   1.908   9.826  0.0894 -0.1972 -2.5771
 8946TIP3   OH251032   4.489   4.593   1.826 -0.1458 -0.1651  0.1572
 8946TIP3    H151033   4.465   4.580   1.734 -1.9129  0.6111  0.4591
 8946TIP3    H251034   4.411   4.565   1.875 -0.3939  2.2215  1.2563
 8947TIP3   OH251035   2.678   2.472   2.390  0.0988 -0.1550 -0.5714
 8947TIP3    H151036   2.739   2.491   2.462 -0.7482  0.1547  0.0836
 8947TIP3    H251037   2.734   2.443   2.318  0.8804 -2.0094  0.6971
 8948TIP3   OH251038   6.957   5.531   0.513 -0.1460 -0.2100 -0.3107
 8948TIP3    H151039   6.901   5.498   0.582  1.4666  0.4051  1.3740
 8948TIP3    H251040   7.024   5.464   0.502  0.2718  0.2208 -0.4447
 8949TIP3   OH251041   4.579   1.198   0.449 -0.2857 -0.0314 -0.2350
 8949TIP3    H151042   4.636   1.256   0.500  0.4513  0.5720 -1.6973
 8949TIP3    H251043   4.498   1.248   0.438  0.2674  0.6751 -1.3028
 8950TIP3   OH251044   2.160   2.062   9.741  0.3826  0.0631 -0.1472
 8950TIP3    H151045   2.222   2.003   9.785  0.0904  0.7144  1.1926
 8950TIP3    H251046   2.141   2.130   9.806 -0.8283  0.5366 -0.9548
 8951TIP3   OH251047   6.723   5.626   7.960 -0.6411  0.5425  0.3008
 8951TIP3    H151048   6.779   5.700   7.982  1.3626 -0.4642 -1.1104
 8951TIP3    H251049   6.712   5.579   8.043  1.6027  0.1698  0.4585
 8952TIP3   OH251050   1.304   4.966   0.024  0.6963 -0.1669 -0.2161
 8952TIP3    H151051   1.313   4.895   0.088  0.3043 -0.0399 -0.0217
 8952TIP3    H251052   1.225   4.945  -0.026 -0.9165  1.4233  1.5055
 8953TIP3   OH251053   6.314   2.678   0.666 -0.3867  0.0116 -0.0350
 8953TIP3    H151054   6.246   2.667   0.733 -0.2065  0.7320  0.2782
 8953TIP3    H251055   6.392   2.636   0.703 -0.1423  0.8688  0.4485
 8954TIP3   OH251056   5.338   7.140   1.239  0.3558  0.3686  0.7547
 8954TIP3    H151057   5.270   7.158   1.174  1.9545  0.2495 -1.0777
 8954TIP3    H251058   5.385   7.223   1.248  0.0919  0.4099  1.8614
 8955TIP3   OH251059   2.727   3.590   2.487  0.0487  0.0539  0.3935
 8955TIP3    H151060   2.756   3.602   2.578 -0.9555  2.0338  0.5045
 8955TIP3    H251061   2.789   3.526   2.451 -0.9585 -2.6673  3.0860
 8956TIP3   OH251062   1.374   7.284   8.280  0.1730 -0.0029  0.5525
 8956TIP3    H151063   1.439   7.334   8.231 -0.3763 -0.1122 -0.3156
 8956TIP3    H251064   1.293   7.293   8.229 -0.1454 -1.0512  0.8333
 8957TIP3   OH251065   6.509   0.123   1.423 -0.3835  0.8597 -0.6119
 8957TIP3    H151066   6.602   0.131   1.445  0.0501 -2.2323 -0.8866
 8957TIP3    H251067   6.509   0.088   1.333 -1.7209 -0.5040 -0.1299
 8958TIP3   OH251068   2.580   5.647   8.195 -0.5699 -0.0054 -0.9762
 8958TIP3    H151069   2.495   5.633   8.238 -0.6397  0.9244 -0.7989
 8958TIP3    H251070   2.562   5.713   8.129  0.4505  1.8319  0.4975
 8959TIP3   OH251071   6.729   1.616   9.173 -0.2366  0.5497 -0.2047
 8959TIP3    H151072   6.639   1.616   9.142 -0.9365  0.7509  1.7025
 8959TIP3    H251073   6.723   1.597   9.267  1.7517 -0.0631 -0.1460
 8960TIP3   OH251074   2.700   3.817   6.849 -0.3516  0.5747  0.1350
 8960TIP3    H151075   2.708   3.743   6.789 -0.0204  1.2198 -0.6328
 8960TIP3    H251076   2.662   3.887   6.796 -0.1757  1.1243  0.7171
 8961TIP3   OH251077   1.932   5.502   7.471  0.1432  0.3111  0.1331
 8961TIP3    H151078   1.873   5.475   7.401 -0.0733  0.6080  0.1957
 8961TIP3    H251079   1.957   5.421   7.515  0.8190  0.0525 -0.7040
 8962TIP3   OH251080   5.174   2.179   8.762 -0.2428 -0.3113  0.3284
 8962TIP3    H151081   5.222   2.188   8.844 -0.3827 -0.5936  0.4427
 8962TIP3    H251082   5.242   2.176   8.695 -0.1553  0.8435  0.3407
 8963TIP3   OH251083   2.673   6.844   7.189 -0.6251  0.4455 -0.0453
 8963TIP3    H151084   2.634   6.759   7.174 -0.9567  0.6183 -0.1540
 8963TIP3    H251085   2.742   6.827   7.254  0.7495 -0.2788 -1.6179
 8964TIP3   OH251086   3.946   0.453   8.372  0.3468 -0.2275  0.1994
 8964TIP3    H151087   3.911   0.429   8.286 -1.0216  0.4856  0.5279
 8964TIP3    H251088   4.005   0.526   8.354 -1.0571  0.9054 -0.0155
 8965TIP3   OH251089   6.130   1.518   1.366 -0.2148  0.0452  0.4668
 8965TIP3    H151090   6.130   1.430   1.404 -1.3654 -0.8252 -1.3945
 8965TIP3    H251091   6.068   1.567   1.420 -0.4491 -0.6229  0.8234
 8966TIP3   OH251092   6.234   5.901   6.977 -0.3825  0.5817 -0.2887
 8966TIP3    H151093   6.259   5.961   6.907  0.9059 -1.0042 -1.2719
 8966TIP3    H251094   6.257   5.948   7.057  1.6747  1.0082 -1.0497
 8967TIP3   OH251095   2.707   4.032   0.573  0.2980 -0.7583  0.3419
 8967TIP3    H151096   2.789   4.061   0.534 -0.2811  0.1153 -0.2859
 8967TIP3    H251097   2.645   4.030   0.500 -0.3547 -0.9557  0.8847
 8968TIP3   OH251098   7.199   1.987   1.146  0.2221  0.0103 -0.2793
 8968TIP3    H151099   7.185   1.917   1.083  1.7002  0.0736 -0.7321
 8968TIP3    H251100   7.230   1.943   1.225 -2.0314 -0.1078  0.6099
 8969TIP3   OH251101   2.076   7.371   1.042  0.4283  0.7183  0.7963
 8969TIP3    H151102   2.039   7.400   0.958  2.3612  1.1230  0.0089
 8969TIP3    H251103   2.112   7.284   1.024  2.1005  1.3759  0.7578
 8970TIP3   OH251104   4.847   4.433   2.303 -0.0728 -0.2517  0.3047
 8970TIP3    H151105   4.926   4.448   2.252 -0.5187 -1.3910 -0.7828
 8970TIP3    H251106   4.821   4.520   2.333  1.5365  0.1587  0.6399
 8971TIP3   OH251107   2.765   1.598   7.076 -0.1486  0.3507  0.2226
 8971TIP3    H151108   2.747   1.682   7.033 -1.0028 -0.7775 -1.7712
 8971TIP3    H251109   2.857   1.581   7.058  0.5765  1.7191  2.3195
 8972TIP3   OH251110   3.439   2.386   8.255 -0.4266 -0.2028  0.0827
 8972TIP3    H151111   3.402   2.419   8.337 -1.9906  1.6477 -1.2889
 8972TIP3    H251112   3.509   2.447   8.233 -0.3625 -0.3844 -0.2288
 8973TIP3   OH251113   5.777   2.441   1.664 -0.3054  0.2666  0.4830
 8973TIP3    H151114   5.774   2.524   1.616 -0.1674 -0.3862 -0.6890
 8973TIP3    H251115   5.854   2.397   1.630  0.2566  0.1118  1.9046
 8974TIP3   OH251116   5.125   0.081   9.148  0.1724 -0.6850 -0.4650
 8974TIP3    H151117   5.104   0.019   9.218 -0.4456 -0.5047 -0.4808
 8974TIP3    H251118   5.058   0.149   9.156 -0.6452 -1.2780 -2.0010
 8975TIP3   OH251119   5.252   3.473   0.066 -0.8383  0.4784 -0.3211
 8975TIP3    H151120   5.235   3.428   0.148  1.7244 -0.9344 -0.4831
 8975TIP3    H251121   5.246   3.566   0.088 -0.1308  0.1305  1.5026
 8976TIP3   OH251122   3.290   5.551   1.473 -0.0159  0.2199 -0.6716
 8976TIP3    H151123   3.280   5.615   1.544 -0.3417  0.0705 -0.5816
 8976TIP3    H251124   3.364   5.496   1.500  0.5704  0.8425 -0.9686
 8977TIP3   OH251125   6.521   2.422   8.175 -0.0484 -0.3507 -0.5007
 8977TIP3    H151126   6.480   2.477   8.109 -0.1842 -1.3366 -1.2650
 8977TIP3    H251127   6.479   2.337   8.165 -0.0352 -0.5400  0.8292
 8978TIP3   OH251128   3.361   6.529   7.711  0.7033  0.3007 -0.0078
 8978TIP3    H151129   3.422   6.526   7.637 -0.6743 -2.1581 -1.1822
 8978TIP3    H251130   3.403   6.476   7.778  0.8459  0.4576  0.0273
 8979TIP3   OH251131   0.750   0.956   8.914  0.1004  0.2627 -0.0931
 8979TIP3    H151132   0.709   0.964   8.828  0.1829 -0.1785 -0.1731
 8979TIP3    H251133   0.823   1.018   8.912 -0.4747  0.9612  0.0054
 8980TIP3   OH251134   2.163   3.991   0.388  0.1247  0.3435  0.1270
 8980TIP3    H151135   2.111   4.065   0.420  0.0752  0.0751  0.6928
 8980TIP3    H251136   2.144   3.986   0.294 -2.4156 -0.9185  0.6056
 8981TIP3   OH251137   4.875   6.334   0.948 -0.2659 -0.4576 -0.8699
 8981TIP3    H151138   4.817   6.289   0.887 -1.4660  0.6370 -0.5723
 8981TIP3    H251139   4.913   6.405   0.896 -2.2501  1.2670 -0.1258
 8982TIP3   OH251140   0.734   5.843   0.122 -0.3473  0.4827  0.2002
 8982TIP3    H151141   0.702   5.818   0.209  2.7441 -0.4436  1.1875
 8982TIP3    H251142   0.710   5.768   0.066 -2.0617  0.9393  0.2651
 8983TIP3   OH251143   6.140   2.491   1.708  0.7138 -0.5068 -0.3936
 8983TIP3    H151144   6.070   2.426   1.695  0.0690 -0.1140  0.9051
 8983TIP3    H251145   6.220   2.444   1.686  0.1692 -1.4319 -0.4926
 8984TIP3   OH251146   5.035   6.850   7.855  0.1255  0.2361  0.4483
 8984TIP3    H151147   5.104   6.910   7.882 -0.2793  1.4007 -0.9632
 8984TIP3    H251148   4.957   6.880   7.900  0.0292  0.4722  0.1290
 8985TIP3   OH251149   5.922   2.517   8.082  0.0535 -0.3951 -0.6584
 8985TIP3    H151150   5.939   2.587   8.020  0.3820 -1.3640 -1.6900
 8985TIP3    H251151   6.007   2.495   8.119 -0.1484  0.2264  0.2184
 8986TIP3   OH251152   6.579   7.076   8.459  0.0284  0.1166  0.0223
 8986TIP3    H151153   6.664   7.101   8.425 -0.0175  0.4789  0.1700
 8986TIP3    H251154   6.521   7.149   8.437 -0.1975 -0.0381  0.0987
 8987TIP3   OH251155   7.270   6.724   1.964 -0.7474 -0.2189 -0.4074
 8987TIP3    H151156   7.209   6.677   2.022 -1.3308  0.4147 -0.4929
 8987TIP3    H251157   7.213   6.766   1.900 -0.1005 -0.9924 -1.5088
 8988TIP3   OH251158   2.413   6.704   2.674 -0.6166 -0.3226  0.5708
 8988TIP3    H151159   2.378   6.622   2.638 -0.0378 -1.1257  1.7961
 8988TIP3    H251160   2.463   6.742   2.601  0.8614 -2.1159  0.5698
 8989TIP3   OH251161   0.207   5.347   8.795  0.3246 -0.2026 -0.0022
 8989TIP3    H151162   0.284   5.391   8.758  0.7006 -1.1132 -0.3342
 8989TIP3    H251163   0.134   5.406   8.774  0.8598  0.4484 -0.0963
 8990TIP3   OH251164   2.499   2.165   2.995  0.1806  0.7033  0.3866
 8990TIP3    H151165   2.450   2.092   3.032  1.0078 -0.5633 -0.8976
 8990TIP3    H251166   2.552   2.198   3.068 -0.9838  0.7233  1.2429
 8991TIP3   OH251167   0.959   6.160   7.906  0.9188 -0.3068 -0.0376
 8991TIP3    H151168   0.885   6.138   7.963 -0.3404  3.7406  0.2466
 8991TIP3    H251169   1.026   6.194   7.966  1.5476 -0.5222 -0.6056
 8992TIP3   OH251170   4.204   3.539   9.181 -0.0993 -0.2123 -0.4598
 8992TIP3    H151171   4.276   3.484   9.151  0.2961  0.3630 -0.5734
 8992TIP3    H251172   4.225   3.626   9.148 -0.9865 -0.0934 -0.7342
 8993TIP3   OH251173   1.652   2.384   2.557  0.0840  0.2545 -0.2631
 8993TIP3    H151174   1.711   2.346   2.491 -0.9318  1.3685 -1.8941
 8993TIP3    H251175   1.574   2.328   2.554  0.3362 -0.1611  0.6040
 8994TIP3   OH251176   5.298   5.776   2.796 -0.3297 -0.4268  0.1557
 8994TIP3    H151177   5.316   5.685   2.819  0.2898 -0.3461  0.0129
 8994TIP3    H251178   5.384   5.818   2.794 -0.1558 -0.6546 -3.2156
 8995TIP3   OH251179   6.899   4.588   8.224  0.0973  0.2000  0.0611
 8995TIP3    H151180   6.930   4.518   8.281  1.2517 -0.5429 -1.4207
 8995TIP3    H251181   6.944   4.666   8.256 -0.6867  0.1746  1.2996
 8996TIP3   OH251182   6.989   0.106   0.529 -0.5336  0.0885 -0.2576
 8996TIP3    H151183   7.035   0.125   0.446  1.0093 -1.4318  0.1857
 8996TIP3    H251184   7.056   0.118   0.596 -1.2733 -0.4596  0.5952
 8997TIP3   OH251185   6.643   4.715   7.446  0.3054 -0.1930 -0.1403
 8997TIP3    H151186   6.650   4.646   7.512  0.6250 -0.2617 -0.2426
 8997TIP3    H251187   6.732   4.751   7.439  0.6160 -1.1302 -1.5261
 8998TIP3   OH251188   1.436   6.063   9.434 -0.2995  0.4786  0.2748
 8998TIP3    H151189   1.427   6.110   9.517 -0.9015  1.6302 -0.4143
 8998TIP3    H251190   1.496   6.118   9.382  1.7432 -1.2460  0.6352
 8999TIP3   OH251191   2.250   2.410   0.753 -0.2093 -0.0368  0.0911
 8999TIP3    H151192   2.208   2.355   0.818  0.6830 -0.0933  0.6346
 8999TIP3    H251193   2.272   2.350   0.681 -0.6428 -0.0875 -0.0017
 9000TIP3   OH251194   5.615   5.056   3.020  0.1817  0.4083  0.5940
 9000TIP3    H151195   5.660   4.994   2.962 -1.9477 -0.1394 -0.5971
 9000TIP3    H251196   5.543   5.005   3.057 -0.9871  1.8788  0.4301
 9001TIP3   OH251197   1.282   7.146   0.409 -0.5358  0.2294 -0.1299
 9001TIP3    H151198   1.267   7.138   0.314  0.3347 -0.6884 -0.2007
 9001TIP3    H251199   1.340   7.222   0.417 -0.5384  0.2550 -0.3373
 9002TIP3   OH251200   7.057   6.202   8.849 -0.0202 -0.5724 -0.2897
 9002TIP3    H151201   7.060   6.107   8.844 -2.1571 -0.7702  1.0996
 9002TIP3    H251202   7.057   6.231   8.758  1.0258 -1.8554 -0.7252
 9003TIP3   OH251203   2.031   0.730   8.368 -0.4760 -0.5653  0.9304
 9003TIP3    H151204   2.052   0.787   8.442  1.3134  0.4747 -0.3030
 9003TIP3    H251205   2.114   0.716   8.323 -1.3638 -1.8520 -0.4339
 9004TIP3   OH251206   3.278   2.062   7.128  0.3462  0.0534 -0.3019
 9004TIP3    H151207   3.244   2.143   7.166  0.2565 -0.3400  0.4626
 9004TIP3    H251208   3.250   1.993   7.188  1.0049 -0.4704 -0.5850
 9005TIP3   OH251209   0.646   4.620   0.499  0.0524  0.2068 -0.1955
 9005TIP3    H151210   0.563   4.661   0.522  0.0890  0.3656 -0.3436
 9005TIP3    H251211   0.622   4.545   0.445 -0.1337 -1.1120  1.6382
 9006TIP3   OH251212   3.577   3.475   7.674 -0.0217  0.3679 -0.1658
 9006TIP3    H151213   3.609   3.564   7.693 -1.6253  0.8621  0.4341
 9006TIP3    H251214   3.602   3.459   7.583  0.0317  1.5647 -0.3804
 9007TIP3   OH251215   1.056   4.846   9.893  0.4252 -0.2363 -0.2901
 9007TIP3    H151216   1.031   4.788   9.964 -0.7367  1.0220  0.3971
 9007TIP3    H251217   0.978   4.849   9.836  1.0769 -0.6533 -1.2353
 9008TIP3   OH251218   7.318   3.016   1.966 -0.0969  0.0807 -0.9563
 9008TIP3    H151219   7.274   2.931   1.977 -0.2606  0.2784 -0.0735
 9008TIP3    H251220   7.366   3.007   1.883  0.6171 -1.1920 -0.4288
 9009TIP3   OH251221   4.512   5.326   8.997  0.2946 -0.0465  0.3697
 9009TIP3    H151222   4.472   5.410   8.973 -0.1492 -0.2963  0.2323
 9009TIP3    H251223   4.528   5.333   9.091 -1.6604 -0.6003  0.7672
 9010TIP3   OH251224   6.465   5.384   1.718  0.3727  0.0051  0.6654
 9010TIP3    H151225   6.559   5.395   1.707  0.5974 -0.6148  1.8042
 9010TIP3    H251226   6.448   5.414   1.807 -0.4163 -0.3757  0.6529
 9011TIP3   OH251227   4.085   0.231   0.125  0.4392  0.4394  0.7861
 9011TIP3    H151228   4.088   0.232   0.221  0.2685  1.2980  0.7895
 9011TIP3    H251229   4.032   0.155   0.104 -0.3302  0.7900  1.4093
 9012TIP3   OH251230   3.594   3.417   9.627  0.3572 -0.3373 -0.0453
 9012TIP3    H151231   3.623   3.437   9.538 -0.8476  0.6161 -0.2490
 9012TIP3    H251232   3.646   3.341   9.652  0.2463 -1.0587 -1.8256
 9013TIP3   OH251233   2.472   0.099   2.850  0.1215  0.5968  0.1495
 9013TIP3    H151234   2.388   0.128   2.813  0.4267  0.6228 -0.5438
 9013TIP3    H251235   2.448   0.035   2.916 -0.4363  0.1682 -0.4492
 9014TIP3   OH251236   0.812   0.368   9.744  0.1424 -0.1480 -0.3975
 9014TIP3    H151237   0.777   0.445   9.788 -2.1090 -0.5229 -1.3954
 9014TIP3    H251238   0.827   0.396   9.654 -1.7830 -1.1004 -1.0639
 9015TIP3   OH251239   1.656   1.548   8.590 -0.0340  0.1423 -0.3170
 9015TIP3    H151240   1.742   1.535   8.551 -0.4573 -1.3626 -0.7946
 9015TIP3    H251241   1.661   1.503   8.674 -0.6253 -0.7255 -0.7353
 9016TIP3   OH251242   1.103   3.233   2.524  0.3156  0.1509 -0.6708
 9016TIP3    H151243   1.087   3.139   2.534 -0.9878  0.3115 -0.9876
 9016TIP3    H251244   1.198   3.241   2.516  0.3770 -1.2417 -1.6844
 9017TIP3   OH251245   4.961   0.238   7.684 -0.0253 -0.0245 -0.5720
 9017TIP3    H151246   4.878   0.284   7.694  0.6718  0.6781  3.2725
 9017TIP3    H251247   5.021   0.303   7.646  0.0423  1.2666  1.5741
 9018TIP3   OH251248   5.061   3.096   8.929 -0.3869 -0.2314 -0.2946
 9018TIP3    H151249   5.048   3.016   8.878 -1.0046  1.3984 -2.8964
 9018TIP3    H251250   5.037   3.071   9.018  0.5883 -3.2207 -0.7315
 9019TIP3   OH251251   2.074   2.434   9.597 -0.0385  0.0702 -0.0962
 9019TIP3    H151252   2.116   2.348   9.604 -2.3135 -0.9360  2.7572
 9019TIP3    H251253   2.147   2.496   9.597  1.6147 -1.6696  2.6949
 9020TIP3   OH251254   4.051   6.368   7.312  0.3981  0.1660  0.4356
 9020TIP3    H151255   4.023   6.277   7.309  0.5157  0.1451 -1.9943
 9020TIP3    H251256   4.134   6.369   7.265 -0.6125  1.7820 -1.5110
 9021TIP3   OH251257   2.609   4.908   2.280 -0.0078  0.1566  0.1582
 9021TIP3    H151258   2.672   4.949   2.340 -0.7625  0.5350  0.7083
 9021TIP3    H251259   2.524   4.932   2.315 -0.4642  0.0496 -0.8603
 9022TIP3   OH251260   0.941   5.704   1.116 -0.1300  0.3753  0.1431
 9022TIP3    H151261   0.956   5.798   1.109 -0.2756  0.4494  0.7188
 9022TIP3    H251262   0.864   5.697   1.174 -1.5667 -0.0155 -1.7235
 9023TIP3   OH251263   7.471   0.252   9.963  0.4006 -0.2076  0.2581
 9023TIP3    H151264   7.501   0.334  10.001  0.7536 -0.3273  0.2426
 9023TIP3    H251265   7.548   0.216   9.919 -0.1363  0.2064 -1.0591
 9024TIP3   OH251266   7.339   1.144   0.490  0.1379  0.8793 -0.0574
 9024TIP3    H151267   7.399   1.143   0.564 -0.4060  0.4244  0.3929
 9024TIP3    H251268   7.272   1.080   0.513 -0.2252  0.9785 -0.7942
 9025TIP3   OH251269   1.768   6.876   9.824  0.3363 -0.1897  0.7979
 9025TIP3    H151270   1.811   6.893   9.740  0.7105 -0.4936  0.9239
 9025TIP3    H251271   1.758   6.963   9.864 -1.8030  0.2132 -0.4729
 9026TIP3   OH251272   6.861   3.125   9.334  0.1996  0.0800 -0.4596
 9026TIP3    H151273   6.834   3.177   9.259 -0.9240  1.7766  1.0185
 9026TIP3    H251274   6.850   3.185   9.409 -0.4166 -2.0447  1.2416
 9027TIP3   OH251275   3.269   1.270   7.960  0.1618  0.1409 -0.0640
 9027TIP3    H151276   3.199   1.213   7.991  0.8349 -0.8690 -0.3080
 9027TIP3    H251277   3.226   1.351   7.936 -1.0154 -0.6506 -0.7430
 9028TIP3   OH251278   4.543   0.062   8.705 -0.1678  0.3388 -0.3041
 9028TIP3    H151279   4.566   0.153   8.723 -1.0168  0.4809  0.1576
 9028TIP3    H251280   4.462   0.048   8.754  1.2955 -1.4387  1.8067
 9029TIP3   OH251281   3.227   0.141   1.111  0.2046 -0.3993 -0.1925
 9029TIP3    H151282   3.222   0.177   1.023 -1.6056 -0.5858 -0.1993
 9029TIP3    H251283   3.292   0.196   1.156  0.5872  0.1744 -1.4070
 9030TIP3   OH251284   5.722   5.604   0.786 -0.7899  0.1407  0.1215
 9030TIP3    H151285   5.690   5.658   0.714 -0.0755 -2.0592 -1.9546
 9030TIP3    H251286   5.652   5.540   0.801 -0.6314  0.1421  0.9373
 9031TIP3   OH251287   3.789   6.451   0.527  0.5553 -0.4963  0.3682
 9031TIP3    H151288   3.790   6.509   0.450  2.8586 -0.4230  0.3908
 9031TIP3    H251289   3.737   6.375   0.498 -2.6322  1.4747  0.3761
 9032TIP3   OH251290   6.148   2.385   1.252  0.1462  0.5064  0.0427
 9032TIP3    H151291   6.072   2.433   1.283 -0.9230 -0.7423 -0.5729
 9032TIP3    H251292   6.171   2.427   1.169 -0.9274 -0.1434 -0.6098
 9033TIP3   OH251293   3.665   2.229   1.801  0.1580  0.2566  0.3053
 9033TIP3    H151294   3.632   2.140   1.813  1.6553 -0.3869 -0.1152
 9033TIP3    H251295   3.740   2.235   1.859 -0.0894  1.3530  0.5297
 9034TIP3   OH251296   2.738   2.728   7.614 -0.2404 -0.1404 -0.0363
 9034TIP3    H151297   2.701   2.714   7.702 -2.0653  0.4484 -0.6746
 9034TIP3    H251298   2.794   2.805   7.624 -0.6372  0.0832  0.5574
 9035TIP3   OH251299   0.475   4.497   9.505 -0.0413 -0.1718 -0.6873
 9035TIP3    H151300   0.422   4.553   9.448 -0.9556  1.8452  1.9463
 9035TIP3    H251301   0.428   4.414   9.508 -1.3735  0.5524 -0.8729
 9036TIP3   OH251302   5.526   6.758   0.605  0.3452  0.2804  0.0725
 9036TIP3    H151303   5.570   6.842   0.604  0.1199  0.4142  0.9133
 9036TIP3    H251304   5.521   6.734   0.697 -1.1135  0.1566 -0.0127
 9037TIP3   OH251305   0.855   1.670   7.791  0.3925 -0.0054  0.3483
 9037TIP3    H151306   0.893   1.758   7.782  0.9992 -0.2410  0.5658
 9037TIP3    H251307   0.860   1.633   7.704  0.0623  0.2041  0.2383
 9038TIP3   OH251308   0.173   4.730   8.686 -0.8227 -0.5896  0.0769
 9038TIP3    H151309   0.264   4.759   8.692 -0.5492 -1.5316  0.7650
 9038TIP3    H251310   0.130   4.797   8.633  0.6028 -0.9580 -1.6520
 9039TIP3   OH251311   3.468   1.307   0.371  0.2036 -0.0094 -0.2303
 9039TIP3    H151312   3.390   1.337   0.419  2.2018  3.3649  1.2854
 9039TIP3    H251313   3.472   1.364   0.295  1.5660  0.3978  0.1270
 9040TIP3   OH251314   7.143   2.139   0.305 -0.7379  0.2900  0.0283
 9040TIP3    H151315   7.087   2.065   0.284  0.7897 -0.9178  0.0539
 9040TIP3    H251316   7.104   2.212   0.256 -0.6494 -1.1446 -2.3696
 9041TIP3   OH251317   0.711   3.990   8.943  0.1813  0.5932 -0.0355
 9041TIP3    H151318   0.636   4.009   9.000 -1.0429 -0.2765 -1.2947
 9041TIP3    H251319   0.771   3.940   8.998 -0.8011  0.1044  0.6138
 9042TIP3   OH251320   2.516   3.877   9.569  0.0574  1.0057 -0.6894
 9042TIP3    H151321   2.588   3.939   9.583  0.6520  0.2249 -0.2302
 9042TIP3    H251322   2.558   3.798   9.537 -0.7974  1.1087 -2.1549
 9043TIP3   OH251323   2.546   6.663   6.479 -0.2824 -0.0401  0.0989
 9043TIP3    H151324   2.626   6.667   6.531 -1.5557 -1.2703  2.3252
 9043TIP3    H251325   2.567   6.710   6.398  2.1092  1.1840  1.3291
 9044TIP3   OH251326   2.724   0.979   8.046  0.3531  0.4577  0.1030
 9044TIP3    H151327   2.780   0.944   7.977 -1.7507 -1.3395 -0.8083
 9044TIP3    H251328   2.635   0.963   8.015 -0.6915 -0.5048  3.2162
 9045TIP3   OH251329   1.683   5.271   8.035 -0.8358  0.1926 -1.0404
 9045TIP3    H151330   1.730   5.211   8.093 -1.4645 -0.7310 -1.4572
 9045TIP3    H251331   1.591   5.248   8.047 -0.9993  0.2266 -2.1188
 9046TIP3   OH251332   1.576   5.269   0.685 -0.0251 -0.1791  0.5144
 9046TIP3    H151333   1.586   5.186   0.638  0.2693  0.4929 -0.6195
 9046TIP3    H251334   1.492   5.303   0.656 -0.8327 -0.7399  2.0679
 9047TIP3   OH251335   6.542   5.926   0.425  0.5554 -0.4657  0.1506
 9047TIP3    H151336   6.454   5.890   0.418  1.3558 -2.5633 -0.1444
 9047TIP3    H251337   6.530   6.016   0.455 -1.6798 -0.5550 -0.3105
 9048TIP3   OH251338   1.896   2.514   0.571  0.2885 -0.3133 -0.0581
 9048TIP3    H151339   1.901   2.456   0.647  0.5864 -0.6805 -0.3562
 9048TIP3    H251340   1.980   2.559   0.569 -0.1503  0.5427  0.4954
 9049TIP3   OH251341   4.971   3.959   8.039  0.2150  0.8460 -0.3087
 9049TIP3    H151342   5.061   3.930   8.048 -0.6329 -1.6331  1.3183
 9049TIP3    H251343   4.919   3.881   8.057 -2.2781  1.7739 -2.7746
 9050TIP3   OH251344   4.338   2.358   1.652 -0.3602  0.0318  0.2375
 9050TIP3    H151345   4.377   2.282   1.696  1.0273  0.5851  0.0081
 9050TIP3    H251346   4.344   2.336   1.559  0.8611  0.7614  0.1182
 9051TIP3   OH251347   4.236   5.671   1.452 -0.4648 -0.7997  0.4600
 9051TIP3    H151348   4.159   5.703   1.404 -0.1385 -0.7337 -0.0254
 9051TIP3    H251349   4.236   5.577   1.436 -0.1510 -0.7278  0.0288
 9052TIP3   OH251350   4.273   3.396   8.469 -0.9099 -0.4352  0.6974
 9052TIP3    H151351   4.363   3.378   8.497 -0.7486 -0.7147  0.0265
 9052TIP3    H251352   4.270   3.368   8.378 -2.0309 -1.6338  1.0632
 9053TIP3   OH251353   2.503   3.442   9.598  0.2054 -0.1741  0.3381
 9053TIP3    H151354   2.443   3.420   9.669 -0.0503  3.2173  1.3199
 9053TIP3    H251355   2.446   3.469   9.526  0.4295  2.1680  0.9629
 9054TIP3   OH251356   5.843   4.505   1.470 -0.7333  0.4302  0.1465
 9054TIP3    H151357   5.773   4.530   1.531 -1.9892  1.5113 -1.6482
 9054TIP3    H251358   5.901   4.581   1.468 -0.6656  0.3755  0.0373
 9055TIP3   OH251359   6.816   6.484   1.745 -0.4068 -0.8799 -0.7266
 9055TIP3    H151360   6.848   6.558   1.694 -0.1583 -1.9104 -2.1069
 9055TIP3    H251361   6.731   6.513   1.779  0.7104  0.8826  0.7482
 9056TIP3   OH251362   5.020   1.653   1.453  0.3936 -0.0296  0.0685
 9056TIP3    H151363   5.031   1.687   1.541  1.6843  1.7300 -0.7201
 9056TIP3    H251364   4.982   1.725   1.403 -0.6630 -1.1145 -0.7746
 9057TIP3   OH251365   5.592   2.429   0.921 -0.0546  0.4641  0.3549
 9057TIP3    H151366   5.512   2.380   0.941  0.5737 -0.2018  1.2982
 9057TIP3    H251367   5.658   2.362   0.903  0.5878  0.9824  0.7441
 9058TIP3   OH251368   6.573   0.250   2.054 -0.8430  0.0437 -1.0833
 9058TIP3    H151369   6.580   0.179   2.118 -1.1503 -0.7362 -1.8981
 9058TIP3    H251370   6.504   0.307   2.089 -2.0711 -1.1674 -1.4458
 9059TIP3   OH251371   1.913   1.866   1.686 -0.1827 -0.3331  0.2127
 9059TIP3    H151372   1.974   1.920   1.735 -0.0485  0.8684 -1.2190
 9059TIP3    H251373   1.912   1.904   1.598 -3.1161 -0.1745  0.2128
 9060TIP3   OH251374   2.642   2.733   2.094  0.1376 -0.1820 -0.2214
 9060TIP3    H151375   2.699   2.793   2.142 -1.3985  1.5425 -0.4286
 9060TIP3    H251376   2.645   2.764   2.004  1.2263 -1.9875 -0.8395
 9061TIP3   OH251377   5.416   4.917   1.531  0.2814  0.4995  0.0781
 9061TIP3    H151378   5.485   4.884   1.588  1.9545  2.3438 -0.7538
 9061TIP3    H251379   5.387   4.999   1.572  0.3871  1.0249 -0.8599
 9062TIP3   OH251380   4.320   0.472   0.227 -0.3390 -0.1980  0.4147
 9062TIP3    H151381   4.386   0.407   0.251 -0.4302 -0.5441 -0.2294
 9062TIP3    H251382   4.354   0.555   0.262 -0.3939 -0.6443  1.5465
 9063TIP3   OH251383   5.177   1.330   2.226 -0.2634 -0.5475 -0.3476
 9063TIP3    H151384   5.182   1.282   2.143  1.0594 -0.8481 -0.1085
 9063TIP3    H251385   5.238   1.285   2.284  1.2753  1.5783 -0.1921
 9064TIP3   OH251386   7.252   7.291   9.501  0.2844 -0.1317  0.0393
 9064TIP3    H151387   7.236   7.359   9.436  2.5386 -0.6523 -1.1782
 9064TIP3    H251388   7.347   7.283   9.504  0.1348 -2.3308  1.0905
 9065TIP3   OH251389   3.944   4.568   7.893  0.1682 -0.7438 -0.4071
 9065TIP3    H151390   3.953   4.550   7.799  1.7708 -1.9544 -0.0666
 9065TIP3    H251391   3.958   4.483   7.935  0.3327 -0.0658  0.9549
 9066TIP3   OH251392   2.849   1.819   9.575 -0.8479  0.2018  0.1891
 9066TIP3    H151393   2.809   1.771   9.502  1.3021 -0.1180 -0.8631
 9066TIP3    H251394   2.937   1.841   9.543  0.9290 -1.6306  3.3584
 9067TIP3   OH251395   6.602   4.115   9.032 -0.5862 -0.2251  0.0064
 9067TIP3    H151396   6.666   4.168   9.079 -2.0279  0.6390  1.0303
 9067TIP3    H251397   6.649   4.086   8.953  0.8642  0.8882  0.4236
 9068TIP3   OH251398   4.707   3.284   1.745  0.5414 -0.1121  0.3833
 9068TIP3    H151399   4.747   3.362   1.784 -1.1467  0.4913  1.0025
 9068TIP3    H251400   4.681   3.312   1.657  2.3774 -0.8265 -0.4337
 9069TIP3   OH251401   4.828   5.513   9.463 -0.0080 -0.3942 -0.4376
 9069TIP3    H151402   4.755   5.568   9.435  1.0068  0.7915 -0.8655
 9069TIP3    H251403   4.828   5.520   9.559  0.8656  1.4415 -0.5255
 9070TIP3   OH251404   0.091   0.790   8.790  0.6898  0.4297  0.3658
 9070TIP3    H151405   0.047   0.793   8.875  0.4509  1.6951  0.2241
 9070TIP3    H251406   0.021   0.770   8.727  0.7585  0.0645  0.4065
 9071TIP3   OH251407   6.487   1.432   9.298 -0.4530 -0.1346  0.0348
 9071TIP3    H151408   6.547   1.357   9.302  0.0237  0.2949  1.5663
 9071TIP3    H251409   6.438   1.427   9.380 -1.1430  0.6350 -0.3315
 9072TIP3   OH251410   2.984   7.009   8.083 -0.3964  0.3253  0.2924
 9072TIP3    H151411   3.017   6.970   8.164 -0.8248  0.4844  0.5498
 9072TIP3    H251412   3.048   7.076   8.061  0.5047 -0.7081 -0.3185
 9073TIP3   OH251413   5.620   3.030   1.935 -0.1595  0.2594  0.3120
 9073TIP3    H151414   5.596   3.105   1.991  1.2072  0.8074  0.2130
 9073TIP3    H251415   5.559   2.961   1.960 -1.7744  1.5397  0.0745
 9074TIP3   OH251416   1.771   3.455   6.949  0.2225 -0.0579 -0.5697
 9074TIP3    H151417   1.771   3.384   6.885  0.1435 -1.0955  0.5393
 9074TIP3    H251418   1.680   3.465   6.975 -0.5887  3.4396 -3.7846
 9075TIP3   OH251419   1.087   0.176   7.331 -0.1131  0.2063 -0.2129
 9075TIP3    H151420   1.123   0.092   7.301  0.9675  0.4979  0.2184
 9075TIP3    H251421   1.025   0.152   7.400  0.5387 -0.2280  0.2405
 9076TIP3   OH251422   0.569   0.403   8.355  0.2255 -0.1795  1.2842
 9076TIP3    H151423   0.535   0.492   8.360 -0.6902 -0.5220  1.3201
 9076TIP3    H251424   0.661   0.410   8.383 -0.0737  0.6161  2.1003
 9077TIP3   OH251425   0.426   0.573   1.401  0.0208  0.1386  0.1728
 9077TIP3    H151426   0.380   0.594   1.320 -0.1806 -1.2232 -0.0833
 9077TIP3    H251427   0.367   0.514   1.448 -0.0708  1.2585  1.5436
 9078TIP3   OH251428   0.546   4.591   8.173  0.8905  0.2569  0.1368
 9078TIP3    H151429   0.586   4.512   8.208  0.7102  0.5218  0.9714
 9078TIP3    H251430   0.452   4.573   8.174  0.7589  0.8681  1.3864
 9079TIP3   OH251431   3.835   5.350   1.059  0.3481  0.1401 -0.6266
 9079TIP3    H151432   3.819   5.436   1.021 -0.2316  1.2063  1.8106
 9079TIP3    H251433   3.748   5.318   1.082  0.7337  0.8759  2.3144
 9080TIP3   OH251434   1.767   3.161   0.404  0.0830  0.3782 -0.3954
 9080TIP3    H151435   1.860   3.136   0.402  0.5759  1.9455  1.0045
 9080TIP3    H251436   1.743   3.158   0.496 -1.3691 -0.2596 -0.7589
 9081TIP3   OH251437   5.049   4.687   1.765 -0.0653 -0.0363  0.3386
 9081TIP3    H151438   5.019   4.769   1.725 -1.0355 -0.7629 -0.4519
 9081TIP3    H251439   5.079   4.714   1.852  0.2921  1.2680 -0.1523
 9082TIP3   OH251440   3.483   4.641   9.986  0.3149 -0.2142 -1.0792
 9082TIP3    H151441   3.562   4.678   9.947  0.0009  0.1302 -1.3984
 9082TIP3    H251442   3.459   4.703  10.055  1.1787 -1.1031  0.0405
 9083TIP3   OH251443   6.488   3.164   1.871 -0.1304  0.5218  0.3967
 9083TIP3    H151444   6.418   3.173   1.936 -0.0254 -1.2877  0.8369
 9083TIP3    H251445   6.515   3.072   1.879  2.3246  1.1790  0.2491
 9084TIP3   OH251446   1.318   1.821   9.746  0.6757  0.0376  0.4687
 9084TIP3    H151447   1.339   1.901   9.793 -1.7758  1.9606 -1.4905
 9084TIP3    H251448   1.374   1.823   9.668  0.3331  0.0243  0.2223
 9085TIP3   OH251449   6.871   6.978   8.809  0.0826 -0.2047 -0.3326
 9085TIP3    H151450   6.855   6.895   8.764  0.3067  0.0884 -0.9586
 9085TIP3    H251451   6.886   6.953   8.900  0.1126 -0.8505 -0.5092
 9086TIP3   OH251452   6.218   3.248   0.380  0.1138  0.0263 -0.6195
 9086TIP3    H151453   6.241   3.273   0.469 -1.6287  0.7641 -0.3379
 9086TIP3    H251454   6.302   3.234   0.337  0.9962 -2.4535  1.6666
 9087TIP3   OH251455   5.345   4.818   0.683 -0.2927  0.0266 -0.2389
 9087TIP3    H151456   5.304   4.777   0.759  2.4773 -0.1868  1.2733
 9087TIP3    H251457   5.339   4.912   0.700 -3.0818  0.2232 -1.7512
 9088TIP3   OH251458   2.374   5.889   9.261  0.1567  1.0059 -0.0375
 9088TIP3    H151459   2.302   5.936   9.221 -0.4441  1.0433  1.0647
 9088TIP3    H251460   2.445   5.953   9.267 -0.0198  1.2223 -0.2704
 9089TIP3   OH251461   5.372   6.831   1.814 -0.0107  0.9938  0.1069
 9089TIP3    H151462   5.326   6.779   1.880  1.0438  0.7433  0.6665
 9089TIP3    H251463   5.463   6.801   1.820 -0.0293  0.3686 -2.0300
 9090TIP3   OH251464   3.144   4.122   9.551 -0.0799  0.1870  0.0044
 9090TIP3    H151465   3.221   4.174   9.576  0.3712 -0.9842  1.1454
 9090TIP3    H251466   3.155   4.039   9.598 -0.7911 -0.9518 -1.7508
 9091TIP3   OH251467   1.422   3.928   0.758 -0.3530 -0.2678  0.2299
 9091TIP3    H151468   1.508   3.958   0.788 -0.1784  0.3388 -0.8293
 9091TIP3    H251469   1.369   4.007   0.754 -0.3537 -0.3083 -1.0623
 9092TIP3   OH251470   3.467   1.408   1.885  0.2909 -0.3534  0.1071
 9092TIP3    H151471   3.523   1.476   1.849  0.3468  0.2559  1.3130
 9092TIP3    H251472   3.395   1.455   1.927  0.1587 -1.0381  0.6718
 9093TIP3   OH251473   5.514   4.542   0.893 -0.3800  0.0537  0.2285
 9093TIP3    H151474   5.484   4.632   0.909 -1.5972 -0.3496  0.3145
 9093TIP3    H251475   5.462   4.512   0.819  1.3737  0.0415 -1.0534
 9094TIP3   OH251476   3.926   2.089   2.855  0.1592  0.3927  0.0290
 9094TIP3    H151477   3.986   2.016   2.867  0.6419  0.6063 -1.0098
 9094TIP3    H251478   3.839   2.053   2.873  0.4873 -0.1694  0.5160
 9095TIP3   OH251479   5.629   3.796   1.616  0.2793 -0.4099 -0.3803
 9095TIP3    H151480   5.595   3.822   1.530 -0.3262  0.6472  0.1496
 9095TIP3    H251481   5.724   3.804   1.608  0.1626  1.3889 -0.4682
 9096TIP3   OH251482   4.523   0.618   2.066  0.2488  0.6162 -0.2648
 9096TIP3    H151483   4.548   0.593   2.155 -3.4787  1.4335  1.1823
 9096TIP3    H251484   4.467   0.547   2.035 -1.7973  2.1602 -0.2885
 9097TIP3   OH251485   2.036   1.843   7.183  0.4003 -0.4931 -0.0286
 9097TIP3    H151486   2.118   1.871   7.144  0.6927 -2.2176 -0.7424
 9097TIP3    H251487   1.999   1.922   7.222  1.0463  0.9020 -2.0919
 9098TIP3   OH251488   1.865   3.275   0.929  0.2448 -0.0979 -0.0737
 9098TIP3    H151489   1.840   3.303   0.841 -0.2735  1.3525  0.4944
 9098TIP3    H251490   1.914   3.194   0.916 -0.4810 -0.3212 -1.6229
 9099TIP3   OH251491   6.212   4.671   8.611  0.0017 -0.1733  0.3675
 9099TIP3    H151492   6.159   4.628   8.677  0.3318  0.1103  0.8241
 9099TIP3    H251493   6.302   4.664   8.643  0.1481  0.1222  0.0396
 9100TIP3   OH251494   7.019   2.141   1.415 -0.2927 -0.1994 -0.3186
 9100TIP3    H151495   6.939   2.188   1.390  0.2903  0.1515 -1.5961
 9100TIP3    H251496   7.038   2.084   1.341  1.4556  0.8285 -0.7268
 9101TIP3   OH251497   4.235   6.943   0.977 -0.1101 -0.2812  0.3810
 9101TIP3    H151498   4.272   6.856   0.960  0.9044  0.1682  0.1758
 9101TIP3    H251499   4.181   6.962   0.900 -0.2766 -0.7028  0.3949
 9102TIP3   OH251500   3.430   2.826   2.181 -0.2040  0.7627  0.2063
 9102TIP3    H151501   3.345   2.783   2.189  1.3593 -2.5025  1.4654
 9102TIP3    H251502   3.418   2.912   2.222 -2.3818 -0.4644  2.4344
 9103TIP3   OH251503   0.523   1.581   2.189  0.3555  0.2961  0.8507
 9103TIP3    H151504   0.562   1.629   2.116 -0.7925 -0.7622 -0.5032
 9103TIP3    H251505   0.458   1.523   2.148  1.5489 -2.3061  2.4102
 9104TIP3   OH251506   1.435   5.266   1.245  0.4288 -0.2870  0.1142
 9104TIP3    H151507   1.352   5.222   1.228  0.0405  0.2772  0.5358
 9104TIP3    H251508   1.458   5.242   1.334 -1.5253  3.0214  1.7066
 9105TIP3   OH251509   4.997   4.020   1.095 -0.1541  0.3435  0.1918
 9105TIP3    H151510   4.916   4.044   1.140 -1.1027 -0.7015 -0.8618
 9105TIP3    H251511   4.975   4.025   1.002  1.0510  0.2282 -0.1157
 9106TIP3   OH251512   2.391   0.189   7.071  0.1958 -0.4350 -0.0866
 9106TIP3    H151513   2.330   0.223   7.137  1.0874 -1.1752  1.1612
 9106TIP3    H251514   2.477   0.197   7.111  0.6364 -2.1075 -0.6026
 9107TIP3   OH251515   2.030   2.854   9.674 -0.5745  0.1670  0.6949
 9107TIP3    H151516   2.053   2.818   9.760  2.3531  2.6384  1.1438
 9107TIP3    H251517   2.076   2.797   9.612 -0.3624  0.0331  0.9718
 9108TIP3   OH251518   3.007   0.148   8.870 -0.1416  0.1281  0.2092
 9108TIP3    H151519   2.917   0.114   8.867  0.4531 -1.4663 -1.9767
 9108TIP3    H251520   3.042   0.114   8.953 -0.9132 -1.0520  0.0803
 9109TIP3   OH251521   6.002   2.745   8.961  0.0168  0.1308  0.0541
 9109TIP3    H151522   6.026   2.678   9.025  0.1266  0.2394  0.1269
 9109TIP3    H251523   6.009   2.827   9.008 -1.9050  0.0895  0.5163
 9110TIP3   OH251524   5.577   1.639   0.046 -0.3082  0.3168 -0.2848
 9110TIP3    H151525   5.604   1.723   0.083 -0.3467 -0.2621  1.1445
 9110TIP3    H251526   5.590   1.577   0.118 -2.3292 -0.5282 -0.5824
 9111TIP3   OH251527   2.117   3.140   9.661  0.4345 -0.0281 -0.0259
 9111TIP3    H151528   2.067   3.061   9.643 -0.4189  0.7013 -0.9863
 9111TIP3    H251529   2.055   3.211   9.644  1.4110  0.8586  0.0650
 9112TIP3   OH251530   4.694   1.753   2.559 -0.6167  0.2048  0.3926
 9112TIP3    H151531   4.744   1.700   2.496 -0.5107 -0.1640  0.7828
 9112TIP3    H251532   4.673   1.692   2.629 -1.9372  0.2560  0.0695
 9113TIP3   OH251533   4.306   1.174   7.940 -0.1618 -0.1644  0.1748
 9113TIP3    H151534   4.298   1.265   7.910 -0.0763  0.3325  1.5812
 9113TIP3    H251535   4.221   1.155   7.980  0.8748  0.4699  2.8816
 9114TIP3   OH251536   7.051   0.505   8.222  0.2993  0.4154  0.1399
 9114TIP3    H151537   7.061   0.499   8.127 -0.8867 -0.1467  0.0344
 9114TIP3    H251538   7.130   0.462   8.257 -0.3849 -1.5887 -0.6096
 9115TIP3   OH251539   3.202   6.718   6.799  0.5101 -0.3371 -0.3526
 9115TIP3    H151540   3.163   6.767   6.872 -0.3177 -2.4862  0.7482
 9115TIP3    H251541   3.127   6.682   6.753  1.0038  1.3663 -2.6542
 9116TIP3   OH251542   0.205   5.942   9.203 -0.0944 -0.4065 -0.0890
 9116TIP3    H151543   0.280   5.965   9.257  1.1614 -1.0778 -1.4798
 9116TIP3    H251544   0.185   6.021   9.153  0.6222 -0.6343 -0.7550
 9117TIP3   OH251545   4.574   4.342   8.879  0.0871  0.2787 -0.1668
 9117TIP3    H151546   4.617   4.413   8.927 -0.9820  0.7960  0.0394
 9117TIP3    H251547   4.645   4.281   8.858  0.7414  0.5627  1.1449
 9118TIP3   OH251548   1.063   0.570   7.102 -0.1861 -0.1348  0.0651
 9118TIP3    H151549   1.066   0.476   7.082  1.4044 -0.2819  0.7662
 9118TIP3    H251550   1.023   0.574   7.189  1.1062 -0.3387  0.7003
 9119TIP3   OH251551   3.525   4.009   0.305  0.2616  0.0840  0.3006
 9119TIP3    H151552   3.482   3.939   0.355  0.9653 -0.6544 -0.1092
 9119TIP3    H251553   3.478   4.088   0.331 -1.9837 -0.7823 -0.8214
 9120TIP3   OH251554   6.679   4.215   9.448 -0.2139 -0.5677 -0.1450
 9120TIP3    H151555   6.705   4.303   9.475 -0.2367 -0.4671 -0.4460
 9120TIP3    H251556   6.736   4.157   9.498 -0.8636 -0.4176  0.7974
 9121TIP3   OH251557   3.267   4.832   9.319  0.7437 -0.1024  0.3476
 9121TIP3    H151558   3.239   4.830   9.228 -1.4302 -1.1708  0.9910
 9121TIP3    H251559   3.189   4.857   9.368  1.6293 -0.4340  2.0096
 9122TIP3   OH251560   3.104   3.792   7.666 -0.0203 -0.2088  0.2568
 9122TIP3    H151561   3.067   3.709   7.695 -0.3116 -0.0161  0.4324
 9122TIP3    H251562   3.059   3.859   7.717  1.2059 -0.0169  1.1485
 9123TIP3   OH251563   5.845   3.544   9.673  0.2714 -0.3415  0.4315
 9123TIP3    H151564   5.841   3.449   9.669  2.8192 -0.5605  1.2355
 9123TIP3    H251565   5.938   3.564   9.686 -0.3837  2.1772  2.0035
 9124TIP3   OH251566   5.332   4.892   9.611 -0.7384 -0.2828 -0.5716
 9124TIP3    H151567   5.288   4.819   9.567  0.9350 -1.4412 -0.3956
 9124TIP3    H251568   5.396   4.851   9.669  0.5108  1.3287 -0.7358
 9125TIP3   OH251569   3.308   5.702   9.393  0.0703 -0.0678 -0.3315
 9125TIP3    H151570   3.399   5.680   9.373  0.8350  1.1472  1.5307
 9125TIP3    H251571   3.295   5.667   9.481 -2.0545 -2.2685 -1.4077
 9126TIP3   OH251572   1.475   5.517   9.310 -0.0198 -0.2200  0.3380
 9126TIP3    H151573   1.555   5.472   9.281  0.2849  0.5104  0.0139
 9126TIP3    H251574   1.443   5.560   9.231  0.1049  0.7386  0.8010
 9127TIP3   OH251575   5.470   1.474   9.197 -0.5530  0.3108  0.7430
 9127TIP3    H151576   5.541   1.418   9.166 -0.0901 -0.5998  3.2284
 9127TIP3    H251577   5.513   1.548   9.239 -1.1310  0.8472  0.4188
 9128TIP3   OH251578   4.440   4.931   0.776  0.1487  0.1382  0.2143
 9128TIP3    H151579   4.352   4.953   0.744  0.3693  2.0656  0.7893
 9128TIP3    H251580   4.425   4.873   0.850 -0.5971 -0.1477 -0.1507
 9129TIP3   OH251581   6.291   7.266   8.583  0.5589 -0.1680 -0.2810
 9129TIP3    H151582   6.358   7.241   8.519 -0.7459 -0.7288 -1.4770
 9129TIP3    H251583   6.288   7.193   8.645  0.5863 -0.4569 -0.6185
 9130TIP3   OH251584   3.497   0.905   9.158  0.4552 -0.4385  0.0854
 9130TIP3    H151585   3.528   0.893   9.248 -0.7814 -0.9868  0.4632
 9130TIP3    H251586   3.459   0.820   9.134 -0.3214  0.0581 -0.5032
 9131TIP3   OH251587   3.897   4.776   0.923  0.0938 -0.1580 -0.0993
 9131TIP3    H151588   3.953   4.729   0.861 -0.7181 -0.7862 -0.3774
 9131TIP3    H251589   3.843   4.708   0.962  2.1119 -0.1532  3.0523
 9132TIP3   OH251590   4.383   3.335   9.087 -0.5081  0.3718  0.4784
 9132TIP3    H151591   4.418   3.358   9.001  1.4914  2.5506  1.7549
 9132TIP3    H251592   4.314   3.271   9.069  1.2931 -0.9171 -2.5500
 9133TIP3   OH251593   3.110   2.578   8.690 -0.0601 -0.0824  0.1133
 9133TIP3    H151594   3.042   2.591   8.756  0.3004 -2.7030  1.1275
 9133TIP3    H251595   3.062   2.571   8.608 -0.8592 -0.1810  0.5769
 9134TIP3   OH251596   2.634   1.433   2.664 -0.3879  0.5280  0.7309
 9134TIP3    H151597   2.673   1.368   2.723  1.1969 -0.0223 -0.8489
 9134TIP3    H251598   2.556   1.463   2.711 -0.9998 -2.2251  1.6890
 9135TIP3   OH251599   1.308   2.796   9.595  0.6420 -0.3752  0.3165
 9135TIP3    H151600   1.382   2.790   9.535  0.2823 -1.1557 -0.0560
 9135TIP3    H251601   1.348   2.804   9.682  1.1763  1.1422 -0.0240
 9136TIP3   OH251602   1.197   6.264   1.032 -0.1906  0.2858  0.4072
 9136TIP3    H151603   1.229   6.215   0.956 -0.2897  1.1872 -0.2157
 9136TIP3    H251604   1.265   6.250   1.099  1.9433  2.7177 -1.0963
 9137TIP3   OH251605   6.819   3.143   7.384 -0.3922  0.1103 -0.3374
 9137TIP3    H151606   6.801   3.052   7.405 -0.6292  0.1183 -0.4969
 9137TIP3    H251607   6.735   3.188   7.395 -0.0598  0.5016  0.7205
 9138TIP3   OH251608   0.931   0.329   1.893 -0.2960  0.2111  0.0092
 9138TIP3    H151609   0.925   0.240   1.929  0.5338  1.4138  3.5136
 9138TIP3    H251610   0.858   0.335   1.832 -1.6771 -2.1943  1.2631
 9139TIP3   OH251611   0.922   0.882   9.249 -0.0114 -0.2691 -0.3883
 9139TIP3    H151612   0.974   0.862   9.172 -2.9703 -1.4280 -2.2561
 9139TIP3    H251613   0.935   0.808   9.308 -0.7150 -1.3471 -1.5441
 9140TIP3   OH251614   7.243   3.132   0.992 -0.4451 -0.2435  0.7420
 9140TIP3    H151615   7.210   3.043   0.979  0.1848 -0.3425 -0.2327
 9140TIP3    H251616   7.164   3.187   0.993 -0.9345 -0.9044  2.4408
 9141TIP3   OH251617   6.693   4.504   8.030  0.0657  0.5831  0.3960
 9141TIP3    H151618   6.789   4.501   8.029  0.1109 -1.3389 -2.6425
 9141TIP3    H251619   6.670   4.564   7.959 -1.0176  0.7082  0.8298
 9142TIP3   OH251620   1.530   1.641   9.576 -0.0879 -0.2177 -0.2707
 9142TIP3    H151621   1.572   1.567   9.619 -0.9809  0.1776  1.3689
 9142TIP3    H251622   1.448   1.606   9.541 -0.1076 -0.1903 -0.2525
 9143TIP3   OH251623   0.030   7.259   8.264  0.1563  0.1026  0.1481
 9143TIP3    H151624   0.044   7.183   8.321  0.2618  0.9267  1.2494
 9143TIP3    H251625  -0.057   7.290   8.288 -0.3823 -0.3609 -1.1448
 9144TIP3   OH251626   7.288   1.257   9.666  0.0466  0.6356  0.5914
 9144TIP3    H151627   7.253   1.280   9.579  0.9173 -2.0390 -0.5784
 9144TIP3    H251628   7.382   1.250   9.652  0.2130  0.3073  1.8126
 9145TIP3   OH251629   1.126   3.361   8.950 -0.4425  0.0339 -0.1160
 9145TIP3    H151630   1.140   3.348   9.044 -1.7785  1.8102  0.3768
 9145TIP3    H251631   1.057   3.427   8.945 -0.0798  0.3039 -2.3662
 9146TIP3   OH251632   1.521   4.291   0.666  0.3139 -0.2618 -0.0930
 9146TIP3    H151633   1.529   4.277   0.760  1.7390  0.4722 -0.0710
 9146TIP3    H251634   1.491   4.381   0.657  4.1192  1.1837 -0.2850
 9147TIP3   OH251635   1.486   3.567   0.736 -0.3032 -0.9130 -0.2548
 9147TIP3    H151636   1.568   3.617   0.744 -0.7120 -0.5577  2.3462
 9147TIP3    H251637   1.485   3.510   0.812 -2.6915 -0.5955  0.0281
 9148TIP3   OH251638   1.822   5.430   6.751  0.0063  0.1630 -0.0063
 9148TIP3    H151639   1.752   5.483   6.713 -0.2688 -0.1887  0.0145
 9148TIP3    H251640   1.869   5.396   6.675  0.7427  1.1629 -0.0269
 9149TIP3   OH251641   5.848   4.799   8.821  0.5652  0.4255 -0.1421
 9149TIP3    H151642   5.913   4.778   8.889  0.9790 -0.9439 -0.9270
 9149TIP3    H251643   5.763   4.782   8.863  0.5481  3.5239  1.3470
 9150TIP3   OH251644   2.661   0.212   8.976 -0.4701  0.0879 -0.6176
 9150TIP3    H151645   2.573   0.196   9.012  0.1475  0.2828  1.0617
 9150TIP3    H251646   2.688   0.126   8.942 -0.2517 -0.6722  1.3421
 9151TIP3   OH251647   1.904   1.439   2.010  0.8983  0.4964 -0.3580
 9151TIP3    H151648   1.919   1.524   1.969 -2.0059  0.5891 -1.4707
 9151TIP3    H251649   1.877   1.382   1.938 -1.5642 -0.1028  0.9154
 9152TIP3   OH251650   5.785   0.007   0.605 -0.2309  0.3412  0.2075
 9152TIP3    H151651   5.834  -0.037   0.536  0.0780 -0.9452  1.2152
 9152TIP3    H251652   5.702   0.030   0.564 -0.2781 -0.9122 -0.4422
 9153TIP3   OH251653   1.259   0.846   0.114  0.2886 -0.2175  0.3522
 9153TIP3    H151654   1.328   0.908   0.093 -0.5312  0.1694 -1.4442
 9153TIP3    H251655   1.197   0.896   0.167  0.9832 -0.3349  1.2867
 9154TIP3   OH251656   4.266   1.912   0.673  0.0101  0.2167 -0.0413
 9154TIP3    H151657   4.183   1.958   0.663  1.8977  3.6786 -1.6644
 9154TIP3    H251658   4.313   1.961   0.740  0.7559 -1.7622  0.9508
 9155TIP3   OH251659   1.163   5.211   1.607 -0.3716  0.2546 -0.3839
 9155TIP3    H151660   1.190   5.257   1.686  0.7084  0.7716 -1.0285
 9155TIP3    H251661   1.235   5.152   1.588 -0.5416  0.2624 -1.0758
 9156TIP3   OH251662   4.251   2.333   2.573  0.1847 -0.1685 -0.0600
 9156TIP3    H151663   4.235   2.254   2.624  0.7927  0.1293  0.6143
 9156TIP3    H251664   4.191   2.327   2.499 -0.6118 -0.6822  0.6159
 9157TIP3   OH251665   2.978   7.402   0.795 -0.4936  0.7267 -0.1901
 9157TIP3    H151666   2.984   7.328   0.735  2.8962 -1.1513  2.1246
 9157TIP3    H251667   2.935   7.367   0.873  1.7989  0.8697  1.2133
 9158TIP3   OH251668   6.196   4.968   1.690  0.5704 -0.1327 -0.2032
 9158TIP3    H151669   6.287   4.953   1.663  0.9984  1.4140  0.2209
 9158TIP3    H251670   6.198   4.961   1.786  0.1458 -0.5615 -0.2254
 9159TIP3   OH251671   4.449   3.875   8.000 -0.0828 -0.5878 -0.0516
 9159TIP3    H151672   4.434   3.939   7.931 -0.9308 -0.9735 -0.2339
 9159TIP3    H251673   4.505   3.809   7.958  2.8701  1.1742  0.8214
 9160TIP3   OH251674   1.068   3.061   1.014  0.1602 -0.1161  0.2059
 9160TIP3    H151675   1.137   3.118   0.982 -0.3824 -0.3566 -1.5229
 9160TIP3    H251676   1.070   2.985   0.955 -1.5000 -0.1644  0.1522
 9161TIP3   OH251677   1.382   0.608   2.119 -0.0792  0.0259  0.0532
 9161TIP3    H151678   1.414   0.658   2.044  0.2775 -0.3071 -0.0224
 9161TIP3    H251679   1.288   0.601   2.106 -0.2508  1.3017  0.4396
 9162TIP3   OH251680   2.933   6.702   2.740 -0.1309 -0.5875  0.6269
 9162TIP3    H151681   2.959   6.727   2.829  0.8647 -0.7592  0.3955
 9162TIP3    H251682   2.842   6.676   2.748 -0.4251  0.5842  1.3738
 9163TIP3   OH251683   0.694   2.727   8.051  0.3011 -0.0144  0.5037
 9163TIP3    H151684   0.632   2.711   8.122 -0.4141 -1.3121 -0.4000
 9163TIP3    H251685   0.767   2.668   8.069 -0.7318 -1.7633 -0.8535
 9164TIP3   OH251686   0.502   1.300   1.795  0.0825 -0.1930  0.0042
 9164TIP3    H151687   0.595   1.297   1.770  0.6105 -0.3224  1.8428
 9164TIP3    H251688   0.481   1.210   1.820 -0.7408 -0.2967 -1.0134
 9165TIP3   OH251689   3.055   1.163   7.353 -0.6454  0.2048 -0.5277
 9165TIP3    H151690   2.980   1.138   7.300 -0.9443 -0.5460  0.2182
 9165TIP3    H251691   3.119   1.093   7.339  0.5825  1.6157 -2.3911
 9166TIP3   OH251692   6.166   4.019   1.248 -0.1142  0.0206 -0.7532
 9166TIP3    H151693   6.088   4.065   1.216 -1.3507 -1.3087  0.2154
 9166TIP3    H251694   6.209   4.082   1.306 -1.1287  0.3804 -0.3677
 9167TIP3   OH251695   1.270   4.819   0.257 -0.1836 -0.6957  0.0251
 9167TIP3    H151696   1.176   4.823   0.241 -0.1173  1.1989 -0.1463
 9167TIP3    H251697   1.279   4.765   0.336 -1.2332 -2.4077 -0.9617
 9168TIP3   OH251698   4.916   2.063   0.206 -0.1334  0.0628  0.8672
 9168TIP3    H151699   4.931   1.969   0.199 -1.7845 -0.2881  1.6126
 9168TIP3    H251700   4.953   2.087   0.291 -0.0033  0.0334  0.8193
 9169TIP3   OH251701   6.380   1.371   0.264  0.2727  0.1926 -0.5496
 9169TIP3    H151702   6.288   1.380   0.288  0.7879  1.0024  1.2769
 9169TIP3    H251703   6.428   1.388   0.345  2.0147 -1.2042 -1.2222
 9170TIP3   OH251704   3.507   0.414   9.830 -0.0797  0.4440 -0.4399
 9170TIP3    H151705   3.601   0.400   9.816 -0.4461 -1.6697 -1.1615
 9170TIP3    H251706   3.498   0.509   9.836  1.6021  1.0440 -4.3486
 9171TIP3   OH251707   3.654   2.441   0.010  0.0178 -0.1394  0.4846
 9171TIP3    H151708   3.700   2.525   0.013 -0.6308  0.3255 -1.0689
 9171TIP3    H251709   3.690   2.391   0.083 -1.0535  2.2277  2.8194
 9172TIP3   OH251710   4.748   5.089   2.747  0.1247  0.1797 -0.1018
 9172TIP3    H151711   4.776   5.018   2.689 -0.5035 -0.3690  0.2543
 9172TIP3    H251712   4.828   5.141   2.761  0.1222  0.8156 -2.1060
 9173TIP3   OH251713   5.366   4.347   0.055 -0.1160  0.0997 -0.3129
 9173TIP3    H151714   5.425   4.405   0.008  0.3897  1.0857  1.4244
 9173TIP3    H251715   5.306   4.313  -0.011 -0.7178  2.9779 -1.3517
 9174TIP3   OH251716   4.189   0.623   7.035 -0.1171 -0.3270 -0.5058
 9174TIP3    H151717   4.219   0.652   7.121 -1.8053 -0.8363  0.2972
 9174TIP3    H251718   4.264   0.637   6.978  0.5603  1.4570  0.7177
 9175TIP3   OH251719   4.583   0.502   2.754 -0.0500  0.3036  0.0145
 9175TIP3    H151720   4.497   0.545   2.747  0.0046  0.4100 -0.0027
 9175TIP3    H251721   4.641   0.557   2.701  0.0555  0.3002  0.1284
 9176TIP3   OH251722   2.878   7.247   0.191  0.1178 -0.4618  0.5920
 9176TIP3    H151723   2.926   7.222   0.270 -0.2682  1.2843  1.4288
 9176TIP3    H251724   2.866   7.165   0.143  1.9787 -1.2858  1.4234
 9177TIP3   OH251725   3.276   3.928   9.268  0.2765  0.0260  0.6525
 9177TIP3    H151726   3.247   3.975   9.346 -0.8267  0.1202  0.2115
 9177TIP3    H251727   3.371   3.930   9.272  0.2523 -0.9963  2.6058
 9178TIP3   OH251728   2.246   6.655   9.872  0.1701  0.1428 -0.0898
 9178TIP3    H151729   2.246   6.740   9.916  0.9366 -0.5593  1.3623
 9178TIP3    H251730   2.338   6.640   9.851 -0.0225 -0.1433 -0.7508
 9179TIP3   OH251731   2.718   1.274   0.401 -0.4769 -0.0427 -0.2273
 9179TIP3    H151732   2.675   1.212   0.343 -1.8803  1.6047 -1.0488
 9179TIP3    H251733   2.686   1.360   0.372  1.2925  1.0739  0.9161
 9180TIP3   OH251734   0.744   3.621   1.140  0.0800  0.3212 -0.0045
 9180TIP3    H151735   0.715   3.601   1.229  0.1159 -1.1198 -0.2913
 9180TIP3    H251736   0.818   3.680   1.152 -0.2989  0.6278  0.8955
 9181TIP3   OH251737   1.228   6.076   6.737 -0.2182  0.4609  0.4957
 9181TIP3    H151738   1.166   6.144   6.709 -1.0466 -0.3786  0.2307
 9181TIP3    H251739   1.183   6.031   6.809  0.2774  0.1242  0.5952
 9182TIP3   OH251740   6.548   5.526   8.456  0.8360  0.1444  0.3575
 9182TIP3    H151741   6.547   5.431   8.461 -0.4786  0.0345 -1.0844
 9182TIP3    H251742   6.484   5.554   8.523  0.3833 -0.0571  0.0159
 9183TIP3   OH251743   2.555   4.507   1.202 -0.0004 -0.5505  0.2601
 9183TIP3    H151744   2.569   4.557   1.122  0.1002 -1.5946 -0.3956
 9183TIP3    H251745   2.493   4.438   1.177  0.7313 -1.4429  0.8261
 9184TIP3   OH251746   5.283   3.966   8.423 -0.1839  0.2631 -0.4778
 9184TIP3    H151747   5.374   3.937   8.412  0.8580  2.9975  0.2074
 9184TIP3    H251748   5.254   3.922   8.503  1.3847  1.1890  0.6539
 9185TIP3   OH251749   6.422   2.180   8.127 -0.5859 -0.0845  0.3183
 9185TIP3    H151750   6.503   2.134   8.104  0.3159  1.8615 -0.6946
 9185TIP3    H251751   6.364   2.166   8.052 -1.7309 -2.5027  1.5674
 9186TIP3   OH251752   2.502   3.637   7.075 -0.4636  0.4823  0.2452
 9186TIP3    H151753   2.454   3.558   7.097 -0.7771  0.8958  1.1286
 9186TIP3    H251754   2.436   3.706   7.076 -0.4554  0.5738 -1.8923
 9187TIP3   OH251755   3.808   6.540   8.169  0.2063  0.0531 -0.0207
 9187TIP3    H151756   3.777   6.628   8.148  0.8559 -0.0727 -1.7120
 9187TIP3    H251757   3.730   6.494   8.201  0.2324  1.6991  2.7093
 9188TIP3   OH251758   5.182   3.033   9.421  0.3832 -0.5810 -0.0064
 9188TIP3    H151759   5.187   2.949   9.376 -0.0595 -0.0658 -1.0431
 9188TIP3    H251760   5.257   3.032   9.481  0.3329 -1.7388  0.0599
 9189TIP3   OH251761   1.209   2.335   9.864  0.0606  0.1586  0.5983
 9189TIP3    H151762   1.266   2.412   9.866 -2.9411  2.6687 -0.9407
 9189TIP3    H251763   1.164   2.341   9.780 -0.8518 -2.9194  0.7628
 9190TIP3   OH251764   1.830   0.807   3.197 -0.0056  0.4870 -0.4022
 9190TIP3    H151765   1.743   0.842   3.218 -0.1097  0.4737 -0.7947
 9190TIP3    H251766   1.891   0.872   3.231 -0.2116  1.6758 -2.1533
 9191TIP3   OH251767   4.679   0.469   1.845  0.0913 -0.0111  0.2078
 9191TIP3    H151768   4.666   0.543   1.904  1.1846  0.2167  0.1924
 9191TIP3    H251769   4.629   0.493   1.766 -0.3036  0.2850  0.5438
 9192TIP3   OH251770   5.666   3.112   0.854 -0.3316  0.4789  0.3549
 9192TIP3    H151771   5.758   3.093   0.836 -0.5085  0.8382 -1.0313
 9192TIP3    H251772   5.660   3.109   0.950  1.3825  1.6852  0.5557
 9193TIP3   OH251773   0.334   3.221   1.584 -0.0793 -0.2886 -0.8043
 9193TIP3    H151774   0.391   3.297   1.572 -1.4643  0.7336 -1.2565
 9193TIP3    H251775   0.322   3.214   1.679  0.4631 -0.2720 -0.7320
 9194TIP3   OH251776   2.616   6.997   1.754 -0.5126  0.3184  0.2445
 9194TIP3    H151777   2.695   7.038   1.788 -0.6105 -0.7719  1.9088
 9194TIP3    H251778   2.646   6.913   1.719 -0.9538 -0.2197  1.1320
 9195TIP3   OH251779   5.415   4.873   8.678 -0.4120 -0.4968 -1.0024
 9195TIP3    H151780   5.398   4.821   8.599 -0.3870 -2.3424  0.1562
 9195TIP3    H251781   5.387   4.817   8.750 -0.0908  1.0029  0.3395
 9196TIP3   OH251782   6.635   7.456   0.264  0.3909  0.0858  0.6236
 9196TIP3    H151783   6.586   7.431   0.186 -0.5431 -1.1979  1.5720
 9196TIP3    H251784   6.568   7.484   0.327  0.7418 -1.9202  2.0267
 9197TIP3   OH251785   0.903   0.325   9.061  0.8611 -0.2670 -0.1980
 9197TIP3    H151786   0.863   0.315   8.974  0.5064 -0.1577 -0.0509
 9197TIP3    H251787   0.988   0.366   9.043  1.4022 -1.5362 -0.6035
 9198TIP3   OH251788   5.617   5.665   0.556 -0.2575  0.5034 -0.2924
 9198TIP3    H151789   5.603   5.579   0.516  0.0004  0.1141  0.4174
 9198TIP3    H251790   5.679   5.709   0.498  0.2366 -0.1117 -0.2481
 9199TIP3   OH251791   7.170   5.962   0.576 -0.3042  0.5267 -0.0574
 9199TIP3    H151792   7.193   6.044   0.533 -1.1657 -0.2437 -2.1151
 9199TIP3    H251793   7.081   5.977   0.608  0.0113  0.8054  0.7044
 9200TIP3   OH251794   2.951   1.925   2.674 -0.8572  0.3360 -0.1583
 9200TIP3    H151795   2.915   2.001   2.719 -2.7146 -0.0013 -0.9429
 9200TIP3    H251796   2.918   1.850   2.723  0.2854  0.0088  0.1340
 9201TIP3   OH251797   3.537   5.104   8.938 -0.5199 -0.2783 -0.3701
 9201TIP3    H151798   3.528   5.196   8.966 -1.2579  0.3189 -2.3818
 9201TIP3    H251799   3.449   5.068   8.948  0.0095 -1.1552  1.5126
 9202TIP3   OH251800   6.280   1.886   8.624 -0.4212  0.0115 -0.1893
 9202TIP3    H151801   6.195   1.895   8.580  0.2853  2.6016 -1.2000
 9202TIP3    H251802   6.339   1.857   8.555  0.1382  1.4563 -0.3590
 9203TIP3   OH251803   4.155   6.262   1.040 -0.2483 -0.2791  0.1918
 9203TIP3    H151804   4.168   6.293   1.130 -1.1583 -0.0213  0.2425
 9203TIP3    H251805   4.060   6.256   1.030 -0.2274  1.1411 -1.2471
 9204TIP3   OH251806   0.836   5.532   2.660  0.2333  0.3301 -0.6928
 9204TIP3    H151807   0.852   5.505   2.570 -1.5646 -0.4180 -0.8351
 9204TIP3    H251808   0.792   5.617   2.652  0.3408  0.4029 -0.5120
 9205TIP3   OH251809   1.181   4.479   1.549  0.4893  0.2975  0.0579
 9205TIP3    H151810   1.211   4.435   1.629 -0.5050 -0.8665 -0.1831
 9205TIP3    H251811   1.136   4.558   1.579  0.7837  0.2612  0.5983
 9206TIP3   OH251812   2.615   5.159   6.416 -0.0363 -0.1260  0.5806
 9206TIP3    H151813   2.584   5.223   6.352 -1.6833 -1.4012  0.0451
 9206TIP3    H251814   2.708   5.149   6.396 -0.0733  1.0135 -0.2686
 9207TIP3   OH251815   6.687   6.729   7.934  0.4422  0.4789 -0.4028
 9207TIP3    H151816   6.724   6.658   7.883  1.0003 -0.2791  0.9984
 9207TIP3    H251817   6.693   6.806   7.877 -1.7319 -0.8501 -2.6062
 9208TIP3   OH251818   2.033   2.852   6.918 -0.6235  0.0177 -0.4051
 9208TIP3    H151819   2.121   2.820   6.898 -0.6760 -0.1533 -0.3661
 9208TIP3    H251820   1.991   2.779   6.966  0.2834  1.2335  2.4581
 9209TIP3   OH251821   0.251   0.854   0.713  0.3794  0.3101  0.2342
 9209TIP3    H151822   0.242   0.850   0.618  0.0659 -0.9394  0.3050
 9209TIP3    H251823   0.312   0.784   0.735 -0.2422  0.0060  1.0419
 9210TIP3   OH251824   6.113   3.493   1.107  0.4221 -0.8397  0.1157
 9210TIP3    H151825   6.162   3.556   1.054 -1.2546  1.7483  1.4266
 9210TIP3    H251826   6.121   3.526   1.196 -2.9810 -0.6885  0.4802
 9211TIP3   OH251827   5.124   3.662   9.160  0.4405  0.4020 -0.0550
 9211TIP3    H151828   5.136   3.744   9.208 -0.7509  0.3995  0.2638
 9211TIP3    H251829   5.177   3.598   9.208  0.7962  0.8208  0.1173
 9212TIP3   OH251830   0.917   6.422   7.833  0.5700 -0.4271 -0.8214
 9212TIP3    H151831   0.935   6.328   7.840  0.5326 -0.4054 -0.4337
 9212TIP3    H251832   1.001   6.461   7.809  0.7723 -0.4632 -0.1752
 9213TIP3   OH251833   0.501   1.746   0.513 -0.1712 -0.0587 -0.4412
 9213TIP3    H151834   0.506   1.762   0.607 -2.1284  4.3583 -0.8201
 9213TIP3    H251835   0.591   1.734   0.486  0.3740 -2.7688  2.0169
 9214TIP3   OH251836   1.627   4.249   0.230 -0.0621  0.0763 -0.0097
 9214TIP3    H151837   1.595   4.181   0.289  1.9113 -0.8717  0.0529
 9214TIP3    H251838   1.690   4.299   0.283  0.4869  0.2726 -0.8282
 9215TIP3   OH251839   3.517   3.141   7.565  0.2297  0.0079 -0.4153
 9215TIP3    H151840   3.566   3.138   7.647 -1.2505  2.4156  0.6434
 9215TIP3    H251841   3.570   3.196   7.507 -0.6693  1.8066  0.4041
 9216TIP3   OH251842   4.186   5.475   9.986  0.5310 -0.1659  0.5760
 9216TIP3    H151843   4.262   5.513   9.943 -0.4949  0.2069 -0.9894
 9216TIP3    H251844   4.119   5.471   9.918 -0.5790 -1.3229  1.6655
 9217TIP3   OH251845   1.745   0.356   0.092 -0.1046  0.4853 -0.0326
 9217TIP3    H151846   1.677   0.320   0.148  0.9164  0.1635  1.0655
 9217TIP3    H251847   1.817   0.377   0.153 -0.3609  3.7388 -0.6770
 9218TIP3   OH251848   3.554   6.018   8.126 -0.3334 -0.8013  0.7111
 9218TIP3    H151849   3.517   5.937   8.160  1.2688 -0.9268  2.2516
 9218TIP3    H251850   3.606   6.053   8.198 -1.6562  2.0766  0.4187
 9219TIP3   OH251851   6.310   3.097   9.174  0.9548 -0.2314  0.7984
 9219TIP3    H151852   6.251   3.139   9.112  2.1893  0.7674  0.2566
 9219TIP3    H251853   6.265   3.016   9.199 -0.4990  0.3639  0.2118
 9220TIP3   OH251854   5.544   3.914   1.999 -0.3321  0.1452  0.3895
 9220TIP3    H151855   5.500   3.985   1.952  2.8039  1.8378 -0.2574
 9220TIP3    H251856   5.517   3.835   1.953  0.5817  1.4916 -2.7984
 9221TIP3   OH251857   7.280   6.983   8.940 -0.3461  0.0670 -0.2332
 9221TIP3    H151858   7.227   7.030   8.875  0.4522  0.6604 -0.4690
 9221TIP3    H251859   7.370   6.991   8.908 -0.0214 -0.2298  0.5848
 9222TIP3   OH251860   4.208   2.283   9.027  0.3948  0.4131  0.4312
 9222TIP3    H151861   4.144   2.332   8.976 -0.4309 -0.7529  0.3123
 9222TIP3    H251862   4.157   2.217   9.073  1.3893  0.1211  1.1470
 9223TIP3   OH251863   0.164   0.921   7.891  0.3742 -0.3394 -0.0098
 9223TIP3    H151864   0.114   0.949   7.814  0.1928 -2.1708 -0.6245
 9223TIP3    H251865   0.107   0.941   7.965  0.1216  0.5512 -0.4318
 9224TIP3   OH251866   6.218   5.252   8.575 -0.4330 -0.1761 -0.5697
 9224TIP3    H151867   6.251   5.340   8.558 -1.6017  0.2641 -0.6300
 9224TIP3    H251868   6.231   5.240   8.670  0.1623 -0.1431 -0.6393
 9225TIP3   OH251869   1.162   5.986   1.364  0.1776 -0.2592 -0.0770
 9225TIP3    H151870   1.170   6.081   1.354  1.3691 -0.5280 -2.2028
 9225TIP3    H251871   1.238   5.961   1.417  1.3133 -0.2691 -1.6468
 9226TIP3   OH251872   0.316   1.043   8.985 -0.2079  0.6188  0.0054
 9226TIP3    H151873   0.335   1.106   9.055 -0.4561  1.5555 -0.7529
 9226TIP3    H251874   0.392   0.986   8.984  0.5562  1.6061 -0.0397
 9227TIP3   OH251875   6.488   2.773   8.429  0.4044  0.3024  0.0110
 9227TIP3    H151876   6.566   2.820   8.458  0.5975 -0.3202  0.5182
 9227TIP3    H251877   6.501   2.683   8.458 -0.2085  0.0433 -0.4731
 9228TIP3   OH251878   7.056   0.249   1.032 -0.3548 -0.3629  0.0462
 9228TIP3    H151879   7.099   0.228   0.949 -0.2931 -2.5787  0.5731
 9228TIP3    H251880   7.127   0.253   1.095 -0.5608 -0.2661  0.2724
 9229TIP3   OH251881   2.231   7.223   9.626  0.3790 -0.6611  0.3163
 9229TIP3    H151882   2.243   7.304   9.674 -2.2602  0.3321 -0.5351
 9229TIP3    H251883   2.162   7.176   9.673  0.1392 -1.2468 -0.5773
 9230TIP3   OH251884   0.830   1.506   9.670  0.0933 -0.3890  0.3349
 9230TIP3    H151885   0.883   1.495   9.591  0.1457 -0.9855  0.4442
 9230TIP3    H251886   0.742   1.525   9.637  0.7180  2.6005  0.1534
 9231TIP3   OH251887   2.665   5.728   0.105 -0.2070 -0.6655  0.0824
 9231TIP3    H151888   2.720   5.729   0.183  0.5417 -0.3566 -0.4419
 9231TIP3    H251889   2.725   5.748   0.032 -0.7581 -1.6684 -0.6667
 9232TIP3   OH251890   2.826   5.155   6.788  0.1200 -0.3379 -0.0298
 9232TIP3    H151891   2.885   5.080   6.786  2.5861  1.5028 -1.9148
 9232TIP3    H251892   2.782   5.153   6.703 -1.8814 -1.1186  0.9706
 9233TIP3   OH251893   1.873   5.101   8.132  0.2871 -0.5200  0.1590
 9233TIP3    H151894   1.828   5.135   8.209  1.0585 -0.3022  0.5157
 9233TIP3    H251895   1.851   5.008   8.130  0.7003 -0.6394  0.9545
 9234TIP3   OH251896   6.123   1.941   9.995 -0.0023  0.0064 -0.1790
 9234TIP3    H151897   6.031   1.915  10.004 -0.7334  2.6356  0.6294
 9234TIP3    H251898   6.129   1.972   9.904 -0.3573  1.3144  0.2277
 9235TIP3   OH251899   4.241   0.570   0.977  0.1423  0.4098 -0.7047
 9235TIP3    H151900   4.255   0.487   1.023  0.0905  1.5534  1.5606
 9235TIP3    H251901   4.148   0.570   0.956 -0.0430  0.2154  0.0571
 9236TIP3   OH251902   3.580   0.288   8.617 -0.1598 -0.4915  0.2413
 9236TIP3    H151903   3.638   0.339   8.560 -0.8476 -0.6621 -0.6364
 9236TIP3    H251904   3.639   0.237   8.673  0.5416 -1.0674 -0.9941
 9237TIP3   OH251905   4.653   6.130   1.154  0.7570 -0.0436  0.3905
 9237TIP3    H151906   4.680   6.123   1.062  0.7845 -2.2242  0.5062
 9237TIP3    H251907   4.735   6.144   1.202  0.9836 -0.7028  0.2131
 9238TIP3   OH251908   5.169   0.233   8.659 -0.7009  0.2830  0.6499
 9238TIP3    H151909   5.258   0.258   8.633 -0.1355 -0.6989  1.5486
 9238TIP3    H251910   5.131   0.313   8.695  0.3417  0.3622  1.6153
 9239TIP3   OH251911   7.404   4.584   1.592 -0.2252 -0.5089  0.2147
 9239TIP3    H151912   7.469   4.628   1.537 -1.4022 -0.5256 -1.2708
 9239TIP3    H251913   7.395   4.497   1.552 -0.8111 -0.6630  0.6697
 9240TIP3   OH251914   0.238   3.004   1.129  0.3516  0.2174 -0.3318
 9240TIP3    H151915   0.145   2.979   1.124  0.6952 -0.9329 -2.3927
 9240TIP3    H251916   0.247   3.049   1.213 -2.4340  1.8534 -0.7756
 9241TIP3   OH251917   2.531   3.412   2.602  0.3326 -0.4308  0.1165
 9241TIP3    H151918   2.594   3.342   2.587  2.2974  0.6202  2.7672
 9241TIP3    H251919   2.584   3.489   2.620 -1.7636  1.1960 -0.2246
 9242TIP3   OH251920   3.537   6.543   8.690 -0.9808  0.1365  0.5650
 9242TIP3    H151921   3.509   6.466   8.641 -1.7608  1.7755 -1.6955
 9242TIP3    H251922   3.456   6.579   8.727 -0.8354  0.6637  0.3844
 9243TIP3   OH251923   4.826   0.875   8.670  0.8406 -0.0969 -0.0995
 9243TIP3    H151924   4.740   0.860   8.629  1.4827  0.0270 -1.5333
 9243TIP3    H251925   4.809   0.866   8.764 -0.4907 -1.3477 -0.4230
 9244TIP3   OH251926   0.780   3.966   9.428 -0.2847 -0.1206 -0.2250
 9244TIP3    H151927   0.705   3.913   9.453  0.0491 -0.0269  1.0629
 9244TIP3    H251928   0.829   3.979   9.510  1.6783 -1.0142 -1.1908
 9245TIP3   OH251929   3.418   7.360   9.041 -0.2654 -0.0020  0.2159
 9245TIP3    H151930   3.456   7.328   8.958  0.8702  0.2588  0.6187
 9245TIP3    H251931   3.428   7.455   9.037 -1.9947  0.1883 -0.1859
 9246TIP3   OH251932   2.830   5.652   2.069 -0.3024 -0.2953 -0.2562
 9246TIP3    H151933   2.755   5.712   2.072 -0.5667 -0.5726 -0.9206
 9246TIP3    H251934   2.791   5.564   2.073 -0.1054 -0.4667 -1.5563
 9247TIP3   OH251935   3.320   3.601   2.701 -0.1320 -0.3906 -0.1962
 9247TIP3    H151936   3.301   3.517   2.742 -0.0769 -0.3106  0.0009
 9247TIP3    H251937   3.300   3.665   2.770 -1.0749 -0.1816 -0.6505
 9248TIP3   OH251938   2.918   1.187   1.880  0.1650 -0.0230 -0.4839
 9248TIP3    H151939   2.982   1.259   1.878  0.5425 -0.1549  2.3794
 9248TIP3    H251940   2.932   1.146   1.965 -1.9506 -1.7605 -0.9060
 9249TIP3   OH251941   5.724   0.572   8.221  0.2296  0.0123 -0.1637
 9249TIP3    H151942   5.790   0.601   8.284 -0.7064  0.3412  0.6809
 9249TIP3    H251943   5.738   0.477   8.215 -0.3056 -0.1967  1.3290
 9250TIP3   OH251944   1.249   3.426   0.295 -0.1481  0.7688  0.5777
 9250TIP3    H151945   1.282   3.435   0.384 -2.3995  1.2434  1.4199
 9250TIP3    H251946   1.154   3.432   0.303 -0.5253 -0.8349 -1.6668
 9251TIP3   OH251947   1.569   1.926   9.640  0.2870 -0.4020  0.0751
 9251TIP3    H151948   1.632   1.919   9.711  0.7566  0.0330 -0.2849
 9251TIP3    H251949   1.547   1.836   9.618  2.8334 -0.7292 -1.5686
 9252TIP3   OH251950   0.079   1.628   2.096 -0.0347  0.3677  0.5999
 9252TIP3    H151951   0.147   1.576   2.140  0.7704  1.2324  0.3968
 9252TIP3    H251952   0.088   1.606   2.004 -0.2295  0.2734  0.6017
 9253TIP3   OH251953   5.768   3.938   9.151  0.0540 -0.8255 -0.2181
 9253TIP3    H151954   5.742   3.994   9.224  1.0236 -1.2262  0.4530
 9253TIP3    H251955   5.704   3.957   9.083 -0.1115  0.5081  0.2717
 9254TIP3   OH251956   2.022   7.183   7.143 -0.1103 -0.2837 -0.4090
 9254TIP3    H151957   2.078   7.249   7.103 -0.5212  0.3492  0.0388
 9254TIP3    H251958   2.076   7.142   7.210 -0.0085 -0.0450 -0.3430
 9255TIP3   OH251959   5.819   4.624   2.039 -0.5192  0.2020  0.1495
 9255TIP3    H151960   5.797   4.699   2.095 -1.3003 -0.4049  0.6887
 9255TIP3    H251961   5.808   4.548   2.096  0.2247 -0.3312 -0.4002
 9256TIP3   OH251962   4.452   1.720   7.400 -0.1371  0.3558 -0.3145
 9256TIP3    H151963   4.497   1.741   7.482  1.5767  1.1150 -1.3970
 9256TIP3    H251964   4.479   1.630   7.381 -1.5445 -0.2911  0.5391
 9257TIP3   OH251965   3.880   1.154   2.629  0.1872 -0.1283 -0.0158
 9257TIP3    H151966   3.946   1.160   2.559 -0.9824 -0.5529 -1.2003
 9257TIP3    H251967   3.896   1.069   2.670 -0.3989 -0.7972 -1.1348
 9258TIP3   OH251968   6.063   2.661   0.809 -0.1927  0.5221 -0.7750
 9258TIP3    H151969   6.011   2.656   0.728 -1.4566  1.0217 -0.0188
 9258TIP3    H251970   6.012   2.717   0.867  1.1842  0.9998  0.0357
 9259TIP3   OH251971   3.296   5.663   7.674  0.1297  0.3152 -0.2088
 9259TIP3    H151972   3.242   5.732   7.714 -1.4214 -1.1838  0.3855
 9259TIP3    H251973   3.277   5.669   7.581  0.7248  1.2581 -0.2919
 9260TIP3   OH251974   1.654   5.780   7.298  0.0364 -0.3539 -0.2704
 9260TIP3    H151975   1.590   5.851   7.297  0.8457  0.4490  1.2439
 9260TIP3    H251976   1.726   5.813   7.353  1.6896 -1.2818 -1.7733
 9261TIP3   OH251977   2.682   0.145   6.405  0.5305 -0.1488 -0.0438
 9261TIP3    H151978   2.621   0.174   6.473  0.4402  1.5528 -0.7910
 9261TIP3    H251979   2.760   0.199   6.419  1.6126 -1.7584  0.4151
 9262TIP3   OH251980   2.732   4.612   9.983 -0.3744  0.0032 -0.2410
 9262TIP3    H151981   2.775   4.694   9.955 -0.8184  0.6928  0.9976
 9262TIP3    H251982   2.803   4.548   9.987 -0.1355  0.1108 -1.9300
 9263TIP3   OH251983   0.415   5.751   8.722 -0.5052  0.1932 -0.2651
 9263TIP3    H151984   0.366   5.757   8.804 -0.7501  1.1318 -0.4751
 9263TIP3    H251985   0.441   5.841   8.703 -1.1729  0.1144 -1.6446
 9264TIP3   OH251986   4.955   5.004   8.454  0.1471 -0.1139  0.0814
 9264TIP3    H151987   5.049   4.990   8.467 -0.0373 -0.8250  0.7246
 9264TIP3    H251988   4.935   5.080   8.509  0.3347 -0.0024 -0.0039
 9265TIP3   OH251989   4.341   6.471   6.252 -0.3802 -0.0657 -0.6989
 9265TIP3    H151990   4.311   6.496   6.339 -0.5204 -0.6650 -0.5757
 9265TIP3    H251991   4.337   6.376   6.251  1.8406 -0.2149 -0.5515
 9266TIP3   OH251992   5.669   0.243   1.229 -0.5844  0.0628  0.3700
 9266TIP3    H151993   5.633   0.323   1.269 -0.9116  0.2580 -0.3031
 9266TIP3    H251994   5.671   0.180   1.301  2.0169  1.3537  1.5881
 9267TIP3   OH251995   0.761   4.515   8.452  0.4159 -0.1154  0.4850
 9267TIP3    H151996   0.760   4.547   8.543  1.5542 -1.3011  0.9526
 9267TIP3    H251997   0.720   4.429   8.457  0.5688 -0.2268 -0.1160
 9268TIP3   OH251998   0.109   2.164   8.297  0.1028 -0.2571 -0.3141
 9268TIP3    H151999   0.163   2.209   8.361 -0.0524  0.7630 -0.8814
 9268TIP3    H252000   0.167   2.152   8.221 -0.3058  0.4058 -0.7429
 9269TIP3   OH252001   1.867   4.480   9.122  0.0307  0.0290 -0.2726
 9269TIP3    H152002   1.777   4.449   9.131  0.3714 -1.0612 -0.5682
 9269TIP3    H252003   1.904   4.428   9.051  1.0632  0.0690  0.2156
 9270TIP3   OH252004   3.870   2.343   0.159 -0.1711 -0.1401  1.0398
 9270TIP3    H152005   3.823   2.317   0.239 -0.8384 -1.4769  0.2445
 9270TIP3    H252006   3.950   2.291   0.160 -1.2773 -2.0033 -0.3033
 9271TIP3   OH252007   0.302   4.792   0.745 -0.0808 -0.5906  0.1161
 9271TIP3    H152008   0.351   4.774   0.664 -0.5366 -0.3897 -0.2100
 9271TIP3    H252009   0.310   4.712   0.796 -0.5292 -1.0514 -0.5127
 9272TIP3   OH252010   0.383   1.514   1.625 -0.6809  0.3629  0.4099
 9272TIP3    H152011   0.298   1.513   1.668 -0.3320 -1.2389  1.1636
 9272TIP3    H252012   0.434   1.447   1.672  0.4312  0.0898 -1.1054
 9273TIP3   OH252013   4.524   6.916   7.275 -0.8154  0.3011 -0.2681
 9273TIP3    H152014   4.566   7.002   7.276  0.3874 -0.2711 -0.4715
 9273TIP3    H252015   4.464   6.920   7.200 -0.6711  0.9095 -0.3601
 9274TIP3   OH252016   1.775   3.005   9.015  0.4399 -0.2252 -0.0300
 9274TIP3    H152017   1.762   3.030   9.106  0.2760 -1.2813  0.2529
 9274TIP3    H252018   1.868   2.987   9.008  0.7228  1.2593 -0.4603
 9275TIP3   OH252019   3.852   3.631   6.715 -0.0921  0.4096  0.2563
 9275TIP3    H152020   3.775   3.658   6.765  0.2754  0.1994  0.9379
 9275TIP3    H252021   3.902   3.712   6.704 -0.5661  0.6129 -0.4789
 9276TIP3   OH252022   0.867   5.184   2.188 -0.1302 -0.1635 -0.0633
 9276TIP3    H152023   0.859   5.177   2.283 -0.6494 -0.5852 -0.1369
 9276TIP3    H252024   0.866   5.093   2.157 -1.2296  0.0046 -0.5681
 9277TIP3   OH252025   1.398   7.251   2.240  0.1374  0.4033  0.8556
 9277TIP3    H152026   1.308   7.227   2.217  0.3023  1.0602 -0.6017
 9277TIP3    H252027   1.414   7.209   2.325 -0.9463 -1.1634  0.3186
 9278TIP3   OH252028   1.959   1.263   1.042 -0.0848 -0.0764  0.0337
 9278TIP3    H152029   2.028   1.279   1.107  0.2841 -2.5708  0.3473
 9278TIP3    H252030   1.996   1.197   0.984 -1.2856  0.4409 -1.3785
 9279TIP3   OH252031   2.420   0.209   1.085 -0.0694  0.1079  0.2529
 9279TIP3    H152032   2.415   0.114   1.086 -0.9136  0.1392  0.3639
 9279TIP3    H252033   2.334   0.237   1.053 -0.3417  0.8609  1.5477
 9280TIP3   OH252034   1.079   5.226   9.601  0.1670  1.2283  0.1387
 9280TIP3    H152035   1.134   5.151   9.577 -1.5837 -0.5674  1.2955
 9280TIP3    H252036   1.087   5.287   9.529 -0.6287 -1.4361 -2.4260
 9281TIP3   OH252037   1.092   0.775   9.061  0.3312 -0.2074 -0.3857
 9281TIP3    H152038   1.114   0.829   8.984  0.6662 -1.7888 -1.4485
 9281TIP3    H252039   1.176   0.751   9.098  0.2159 -0.8536 -0.5400
 9282TIP3   OH252040   2.884   2.529   0.817  0.1488  0.5413 -0.0246
 9282TIP3    H152041   2.909   2.473   0.744  0.0889  1.5238 -0.8219
 9282TIP3    H252042   2.956   2.521   0.879  0.2739 -0.1768 -0.2499
 9283TIP3   OH252043   1.693   6.371   2.161  0.4231 -0.4702 -0.2699
 9283TIP3    H152044   1.780   6.332   2.164 -0.0737 -1.6549 -0.5956
 9283TIP3    H252045   1.707   6.459   2.126  1.5707 -0.3493  0.4534
 9284TIP3   OH252046   6.949   4.460   1.496 -0.1079 -0.4353 -0.4854
 9284TIP3    H152047   6.867   4.457   1.544 -0.2330 -3.0348 -0.6917
 9284TIP3    H252048   7.001   4.528   1.539 -0.9621 -1.3179  2.0786
 9285TIP3   OH252049   5.415   1.854   9.164 -0.1750  0.0403  0.7181
 9285TIP3    H152050   5.430   1.789   9.096  2.0669  0.3764  0.8106
 9285TIP3    H252051   5.466   1.822   9.239  0.0130  1.2933  1.1447
 9286TIP3   OH252052   1.231   2.751   0.426  0.1299  0.1130  0.7597
 9286TIP3    H152053   1.181   2.824   0.390 -0.9552 -1.0357 -0.1710
 9286TIP3    H252054   1.258   2.700   0.349 -0.8509 -1.5251  1.4339
 9287TIP3   OH252055   1.060   0.506   0.324  0.9110  0.2803 -0.0317
 9287TIP3    H152056   1.038   0.418   0.355  0.1087  0.2835 -0.5487
 9287TIP3    H252057   0.976   0.552   0.323  1.0054  0.4845 -1.5102
 9288TIP3   OH252058   4.226   1.280   0.825 -0.1563 -0.3892  0.7192
 9288TIP3    H152059   4.181   1.352   0.782 -2.0006  0.0678  3.1890
 9288TIP3    H252060   4.203   1.203   0.774 -1.8313  0.1913  0.5408
 9289TIP3   OH252061   2.590   3.698   1.385  0.3075  0.0374 -0.1068
 9289TIP3    H152062   2.548   3.642   1.450  0.6935  0.9703  0.9684
 9289TIP3    H252063   2.612   3.778   1.432  3.0953 -0.2932 -0.6722
 9290TIP3   OH252064   6.529   1.153   1.448  0.0123  0.6953 -0.2100
 9290TIP3    H152065   6.437   1.171   1.430 -1.2437 -2.4938  2.0817
 9290TIP3    H252066   6.565   1.122   1.365 -1.4585  0.4123 -0.7560
 9291TIP3   OH252067   3.393   4.307   9.392  0.4180  0.2030  0.6137
 9291TIP3    H152068   3.303   4.318   9.423 -0.0747 -0.2738 -0.5864
 9291TIP3    H252069   3.386   4.310   9.297  1.3140 -2.2985  0.3972
 9292TIP3   OH252070   2.200   1.478   0.862 -0.0423  0.0346 -0.2881
 9292TIP3    H152071   2.165   1.415   0.799 -0.9045 -0.6553  0.8431
 9292TIP3    H252072   2.122   1.517   0.903  0.4959  0.4955  0.3229
 9293TIP3   OH252073   1.174   0.980   0.776  0.1663 -0.2978 -0.3803
 9293TIP3    H152074   1.243   0.949   0.834  0.9477  1.7156 -0.1338
 9293TIP3    H252075   1.206   0.960   0.688  1.2864  0.9263 -0.2855
 9294TIP3   OH252076   3.951   2.938   9.436  0.2312 -0.0730 -0.2269
 9294TIP3    H152077   3.996   2.853   9.433 -0.9406 -0.7028 -0.9374
 9294TIP3    H252078   3.874   2.922   9.490  0.6770  0.9107  0.7278
 9295TIP3   OH252079   2.212   6.207   0.653 -0.1824 -0.1173 -0.0019
 9295TIP3    H152080   2.243   6.168   0.571 -0.9478  0.1898 -0.4530
 9295TIP3    H252081   2.242   6.297   0.649 -0.4938 -0.0134 -0.1100
 9296TIP3   OH252082   5.673   4.328   0.602  0.0194 -0.4093  0.3927
 9296TIP3    H152083   5.596   4.285   0.565 -1.0555  0.8068  1.0988
 9296TIP3    H252084   5.691   4.401   0.542  1.1597 -1.1866 -0.2248
 9297TIP3   OH252085   4.698   2.048   1.672  0.0593 -0.3367  0.5177
 9297TIP3    H152086   4.789   2.048   1.643  0.1324  0.6310  0.7028
 9297TIP3    H252087   4.702   2.020   1.764  0.3108  0.8682  0.8846
 9298TIP3   OH252088   6.792   0.115   8.125  0.0701  0.1377  0.5535
 9298TIP3    H152089   6.884   0.098   8.104 -0.3024  1.2271 -2.4647
 9298TIP3    H252090   6.744   0.080   8.050 -1.8432  1.1967  1.2261
 9299TIP3   OH252091   7.088   0.960   9.851  0.3696  0.4958  0.1849
 9299TIP3    H152092   7.030   1.033   9.872  0.4054  0.1184  1.7243
 9299TIP3    H252093   7.104   0.968   9.757  1.9199  3.6038  0.6119
 9300TIP3   OH252094   5.249   5.280   0.148 -0.3615  0.8911  0.1344
 9300TIP3    H152095   5.221   5.330   0.224 -1.7940  1.4131 -0.7023
 9300TIP3    H252096   5.320   5.331   0.109  0.2849  0.6893  1.0144
 9301TIP3   OH252097   6.604   1.899   8.727 -0.2820  0.2279 -0.3490
 9301TIP3    H152098   6.663   1.878   8.799  3.2943  2.9653 -2.1475
 9301TIP3    H252099   6.532   1.947   8.769  1.3656  1.2285  1.5183
 9302TIP3   OH252100   0.315   7.139   9.873 -0.0939  0.5903 -0.2899
 9302TIP3    H152101   0.393   7.185   9.844  1.7252 -1.3146  1.2061
 9302TIP3    H252102   0.272   7.111   9.793  1.8004  0.0934 -1.1958
 9303TIP3   OH252103   1.925   7.064   2.962  0.2949 -0.3431 -0.3117
 9303TIP3    H152104   1.891   7.121   3.030  1.8627  0.6197 -0.3021
 9303TIP3    H252105   1.970   6.994   3.009 -0.2248 -0.7128 -0.3518
 9304TIP3   OH252106   4.467   0.802   1.503  0.6082  0.1725  0.6018
 9304TIP3    H152107   4.530   0.759   1.445  0.0000  0.4064 -0.2660
 9304TIP3    H252108   4.481   0.896   1.489  0.1729  0.2290  0.5059
 9305TIP3   OH252109   5.819   5.075   8.441 -0.2699 -0.0663  0.0970
 9305TIP3    H152110   5.751   5.018   8.406  0.7306 -0.1625 -1.8629
 9305TIP3    H252111   5.872   5.018   8.497 -1.9521  0.1015  1.9448
 9306TIP3   OH252112   6.107   3.219   9.014 -0.5742 -0.3005 -0.1837
 9306TIP3    H152113   6.078   3.216   8.923  0.1296 -0.0671 -0.4162
 9306TIP3    H252114   6.129   3.310   9.030 -0.2414 -0.4234  0.0740
 9307TIP3   OH252115   4.441   6.680   7.882  0.3429  0.3240 -0.1155
 9307TIP3    H152116   4.405   6.653   7.966 -0.8674 -0.7062 -0.9194
 9307TIP3    H252117   4.365   6.682   7.823  1.2807  0.1324 -1.3810
 9308TIP3   OH252118   4.218   1.276   1.673 -0.6868 -0.0108 -0.2767
 9308TIP3    H152119   4.188   1.259   1.762 -1.4913  1.2921 -0.2654
 9308TIP3    H252120   4.218   1.190   1.630 -0.9762 -0.5450  0.7739
 9309TIP3   OH252121   4.720   1.327   8.761 -0.1872 -0.0291  0.2795
 9309TIP3    H152122   4.747   1.295   8.675 -2.0475  0.5698 -0.5624
 9309TIP3    H252123   4.802   1.338   8.809  0.8391 -1.0510 -1.1589
 9310TIP3   OH252124   6.762   6.158   0.362  0.0858  0.4926 -0.2098
 9310TIP3    H152125   6.728   6.177   0.450  2.2380 -1.1270  1.0621
 9310TIP3    H252126   6.847   6.202   0.360  0.6798 -0.6692 -0.9449
 9311TIP3   OH252127   0.407   2.135   7.854  0.2053 -0.4523  0.7026
 9311TIP3    H152128   0.343   2.113   7.786  1.1440  1.2905 -0.8151
 9311TIP3    H252129   0.411   2.230   7.854  3.1355 -0.4822  0.4085
 9312TIP3   OH252130   6.761   1.914   9.203 -0.3340 -0.1230  0.4658
 9312TIP3    H152131   6.717   1.850   9.259  1.8602 -0.7880  1.5441
 9312TIP3    H252132   6.756   1.996   9.253 -0.0250 -0.2914  0.7821
 9313TIP3   OH252133   0.916   1.690   0.078 -0.0934  0.2664 -0.1422
 9313TIP3    H152134   1.011   1.695   0.069  0.0345 -1.4582 -0.1050
 9313TIP3    H252135   0.899   1.598   0.102 -1.7747  0.5032 -0.3143
 9314TIP3   OH252136   3.194   0.449   1.162  0.6275 -0.1847 -0.0409
 9314TIP3    H152137   3.182   0.377   1.100 -1.0589 -0.3301  0.3945
 9314TIP3    H252138   3.135   0.517   1.130 -1.5149 -0.8493  2.2029
 9315TIP3   OH252139   0.831   1.695   1.589  0.2423 -0.4267  0.0582
 9315TIP3    H152140   0.874   1.751   1.525 -2.1231  0.1575 -1.1430
 9315TIP3    H252141   0.819   1.611   1.544  1.5958 -1.1585  0.9944
 9316TIP3   OH252142   7.188   0.764   1.899  0.3461 -0.2542 -0.2325
 9316TIP3    H152143   7.185   0.701   1.971 -1.0940 -1.7274 -1.5101
 9316TIP3    H252144   7.269   0.742   1.852  1.4319  0.8909  1.0360
 9317TIP3   OH252145   3.473   0.224   0.634 -0.0675  0.8376 -0.2326
 9317TIP3    H152146   3.531   0.149   0.619 -2.4107 -0.9570 -0.8420
 9317TIP3    H252147   3.470   0.268   0.549 -0.7152  0.0666 -0.6255
 9318TIP3   OH252148   3.727   6.971   1.263 -0.0700  0.0256 -0.3624
 9318TIP3    H152149   3.646   7.006   1.299 -0.1440  0.8877 -1.3060
 9318TIP3    H252150   3.715   6.877   1.261  0.2125 -0.1581  2.4813
 9319TIP3   OH252151   6.142   0.283   8.524 -0.2064  0.1181 -0.6601
 9319TIP3    H152152   6.128   0.343   8.450  0.7340 -0.3094 -1.2102
 9319TIP3    H252153   6.062   0.232   8.530 -0.7295  0.9217 -0.6586
 9320TIP3   OH252154   3.808   1.526   0.107  0.1359 -0.3698  0.1409
 9320TIP3    H152155   3.819   1.616   0.138 -1.5391 -0.1985  0.3438
 9320TIP3    H252156   3.715   1.520   0.084  0.1010 -2.2024  0.6362
 9321TIP3   OH252157   2.669   4.785   1.325  0.5045  0.3337  0.0939
 9321TIP3    H152158   2.668   4.744   1.412  2.5348 -0.8788 -0.3965
 9321TIP3    H252159   2.599   4.741   1.277  0.1504  0.1732  0.7368
 9322TIP3   OH252160   4.248   4.221   0.025 -0.2838  0.0963 -0.0234
 9322TIP3    H152161   4.323   4.163   0.011 -0.1567  0.0674  0.7780
 9322TIP3    H252162   4.194   4.176   0.091 -1.5207 -0.3639 -1.2796
 9323TIP3   OH252163   1.005   5.285   0.583 -0.6986  0.2403 -0.1600
 9323TIP3    H152164   0.978   5.215   0.524  1.0751  0.4692 -1.3133
 9323TIP3    H252165   1.025   5.240   0.665 -1.5405 -0.3042 -0.2374
 9324TIP3   OH252166   5.466   0.391   8.732 -0.5106  0.6280  0.4531
 9324TIP3    H152167   5.431   0.462   8.679 -0.7991  0.0855 -0.0933
 9324TIP3    H252168   5.450   0.312   8.681 -2.0608 -0.0856  1.9223
 9325TIP3   OH252169   3.634   0.889   9.802  0.4406  0.1431  0.2246
 9325TIP3    H152170   3.578   0.829   9.753  0.2112  1.2721 -0.9670
 9325TIP3    H252171   3.687   0.832   9.858 -1.3705 -0.9945  0.8757
 9326TIP3   OH252172   3.511   2.623   9.808 -0.7300 -0.1048 -0.5332
 9326TIP3    H152173   3.545   2.619   9.719 -1.3400 -3.9344 -0.7680
 9326TIP3    H252174   3.587   2.644   9.862  0.1620 -0.0785 -1.7662
 9327TIP3   OH252175   3.621   6.097   2.401 -0.2123 -0.1896 -0.5373
 9327TIP3    H152176   3.532   6.130   2.414  0.2325  0.9479 -0.3004
 9327TIP3    H252177   3.674   6.175   2.386  0.7966 -0.8373 -0.4402
 9328TIP3   OH252178   1.785   1.139   1.220 -0.4459  0.2771  0.8631
 9328TIP3    H152179   1.832   1.208   1.173  0.3269 -0.0723  1.1127
 9328TIP3    H252180   1.845   1.112   1.289  0.5760 -2.7698 -1.0412
 9329TIP3   OH252181   5.151   5.223   9.125  0.3053 -0.3097 -0.0840
 9329TIP3    H152182   5.147   5.200   9.218 -1.4138 -0.1088 -0.0833
 9329TIP3    H252183   5.091   5.296   9.115  1.5085  0.6021 -1.1287
 9330TIP3   OH252184   5.064   5.758   1.253 -0.1606  0.0898  0.2913
 9330TIP3    H152185   5.023   5.823   1.196  0.3089  1.0139  0.9737
 9330TIP3    H252186   5.066   5.678   1.200 -0.6661  0.6440 -0.6058
 9331TIP3   OH252187   1.697   2.275   8.888 -0.2801  0.4086 -0.1336
 9331TIP3    H152188   1.787   2.267   8.857 -0.3701  1.4737 -0.7314
 9331TIP3    H252189   1.681   2.194   8.936  0.3504 -0.6882 -1.6731
 9332TIP3   OH252190   1.065   4.433   9.812 -0.2786 -0.3416  0.3668
 9332TIP3    H152191   1.121   4.390   9.747 -0.1307  0.0406  0.2426
 9332TIP3    H252192   1.106   4.518   9.827 -0.6809 -0.1641  0.4710
 9333TIP3   OH252193   1.773   0.671   9.961  0.6394  0.2995  0.3213
 9333TIP3    H152194   1.729   0.669  10.046  1.5403 -0.3582  0.7908
 9333TIP3    H252195   1.851   0.617   9.974 -0.4820 -1.9510 -1.6415
 9334TIP3   OH252196   6.139   2.846   0.513 -0.0641  0.1361 -0.5693
 9334TIP3    H152197   6.126   2.777   0.448 -0.6155 -1.0344  0.7322
 9334TIP3    H252198   6.205   2.811   0.572 -2.0293 -0.3501  1.4707
 9335TIP3   OH252199   3.592   1.772   0.689  0.2242 -0.4121  0.1089
 9335TIP3    H152200   3.561   1.682   0.682  0.1041 -0.4710  1.1450
 9335TIP3    H252201   3.556   1.817   0.613 -1.5123 -0.7425  0.6916
 9336TIP3   OH252202   6.698   0.684   1.315  0.0709  0.6300 -0.5980
 9336TIP3    H152203   6.741   0.755   1.363  1.3828 -2.0071  2.5104
 9336TIP3    H252204   6.605   0.695   1.335  0.4239  0.5901  1.3142
 9337TIP3   OH252205   2.768   4.044   8.403 -0.8012 -0.4443  0.2282
 9337TIP3    H152206   2.774   4.134   8.436 -0.8637  0.0331 -1.0312
 9337TIP3    H252207   2.674   4.026   8.401 -1.0046  0.5678 -2.3379
 9338TIP3   OH252208   0.093   2.539   9.242 -0.2483 -0.0912 -0.4529
 9338TIP3    H152209   0.149   2.462   9.244 -0.8617 -0.5318  0.3057
 9338TIP3    H252210   0.051   2.536   9.156 -0.1952 -0.5475 -0.4639
 9339TIP3   OH252211   3.716   2.449   8.650 -0.0197 -0.8104  0.1273
 9339TIP3    H152212   3.647   2.414   8.594 -1.2334  0.1091  0.9947
 9339TIP3    H252213   3.690   2.424   8.739 -0.1950  1.0366  0.6362
 9340TIP3   OH252214   5.072   7.143   9.521 -0.7298  0.5256  0.6548
 9340TIP3    H152215   5.035   7.221   9.564 -1.0472  0.5532  0.3327
 9340TIP3    H252216   5.064   7.074   9.586  0.1688  0.9061  1.1987
 9341TIP3   OH252217   4.647   1.388   0.891  0.3553 -0.6899 -0.1325
 9341TIP3    H152218   4.612   1.416   0.806 -0.2906  1.1323  0.6915
 9341TIP3    H252219   4.575   1.338   0.931 -0.3106  0.6422  0.3827
 9342TIP3   OH252220   6.845   3.794   2.158 -0.3891  0.7902  0.2746
 9342TIP3    H152221   6.752   3.777   2.143 -0.1090  0.3401 -1.0571
 9342TIP3    H252222   6.847   3.884   2.192 -1.3723  0.4519  1.3236
 9343TIP3   OH252223   0.639   0.332   7.034  0.1758  0.6565 -0.4527
 9343TIP3    H152224   0.728   0.356   7.060 -0.3658  2.3638 -0.0372
 9343TIP3    H252225   0.639   0.237   7.031  2.4095  0.6311 -1.8871
 9344TIP3   OH252226   2.770   6.658   2.470  0.1029 -0.2250 -0.0629
 9344TIP3    H152227   2.732   6.578   2.505  1.5663 -0.5193  0.9316
 9344TIP3    H252228   2.742   6.727   2.531 -0.6592 -0.0451 -0.5897
 9345TIP3   OH252229   4.364   5.336   7.636 -0.8322 -0.0168 -0.1148
 9345TIP3    H152230   4.340   5.342   7.728 -0.3930 -1.9791  0.1782
 9345TIP3    H252231   4.458   5.317   7.638 -1.1796 -2.0233 -0.8561
 9346TIP3   OH252232   3.950   3.754   7.666  0.0709 -0.2136  0.2355
 9346TIP3    H152233   3.880   3.791   7.611 -0.5746 -1.1197  0.4211
 9346TIP3    H252234   4.004   3.829   7.689 -0.1842  0.3332 -0.8602
 9347TIP3   OH252235   2.292   4.846   2.037 -0.0657  0.5975 -0.1798
 9347TIP3    H152236   2.236   4.909   2.083  0.7661  1.2451 -0.0257
 9347TIP3    H252237   2.233   4.802   1.976 -0.9800  0.4449  0.7789
 9348TIP3   OH252238   6.124   0.659   8.349  0.4379 -1.1502 -0.3211
 9348TIP3    H152239   6.144   0.605   8.272  1.0305 -2.5793  0.7919
 9348TIP3    H252240   6.036   0.632   8.375  0.6701 -1.4798  0.1383
 9349TIP3   OH252241   4.918   3.311   9.533 -0.1790  0.7928  0.1870
 9349TIP3    H152242   4.961   3.363   9.601  0.3268  0.7765 -0.1083
 9349TIP3    H252243   4.869   3.245   9.581  0.1447  0.8023  0.5418
 9350TIP3   OH252244   2.826   2.598   7.140 -0.0049  0.1535 -0.2032
 9350TIP3    H152245   2.760   2.583   7.072 -1.1909  2.0370  0.4627
 9350TIP3    H252246   2.898   2.641   7.094 -1.2070  2.3229 -0.1793
 9351TIP3   OH252247   3.081   6.857   9.849 -0.4737  0.4638 -0.4074
 9351TIP3    H152248   3.042   6.787   9.796  0.6625  1.3129 -2.5063
 9351TIP3    H252249   3.037   6.936   9.818 -0.5248  0.8785  0.7128
 9352TIP3   OH252250   4.703   6.835   9.038  0.2748 -0.0828  0.0795
 9352TIP3    H152251   4.687   6.842   9.133 -0.2824  1.4225 -0.0918
 9352TIP3    H252252   4.644   6.900   8.999  1.8517  0.6929 -1.1500
 9353TIP3   OH252253   1.041   6.354   8.677 -0.2516 -0.4290  0.3138
 9353TIP3    H152254   1.090   6.280   8.642 -1.5507 -0.9296 -0.4963
 9353TIP3    H252255   1.067   6.359   8.769  1.6957 -0.3533 -0.1992
 9354TIP3   OH252256   5.263   2.156   8.060 -0.3715 -0.0546 -0.0171
 9354TIP3    H152257   5.301   2.077   8.100 -1.4545 -0.2304  0.7076
 9354TIP3    H252258   5.299   2.157   7.972 -1.3808 -2.1781 -0.5438
 9355TIP3   OH252259   7.227   3.758   9.720  0.0649  0.0208 -0.4588
 9355TIP3    H152260   7.228   3.761   9.624 -0.6203 -0.6933 -0.4985
 9355TIP3    H252261   7.203   3.668   9.741  1.6860 -0.2512  0.4041
 9356TIP3   OH252262   2.887   0.989   2.804 -0.1813 -0.2682  0.1541
 9356TIP3    H152263   2.940   0.945   2.869  2.0987  1.2659 -0.5414
 9356TIP3    H252264   2.890   1.082   2.828 -0.7632  0.1183 -1.1410
 9357TIP3   OH252265   1.037   1.408   7.696 -0.2126  0.0264 -0.2625
 9357TIP3    H152266   0.959   1.423   7.642 -0.4897 -0.9588 -0.1594
 9357TIP3    H252267   1.094   1.483   7.677 -1.1404  0.7183 -0.4071
 9358TIP3   OH252268   3.502   4.810   7.183 -0.6622  0.0778  0.8655
 9358TIP3    H152269   3.452   4.728   7.189  0.1670 -0.4432  0.9427
 9358TIP3    H252270   3.589   4.782   7.153 -1.8181  1.4620 -4.7984
 9359TIP3   OH252271   0.014   5.495   9.358  0.1971 -0.2779 -0.3738
 9359TIP3    H152272  -0.049   5.541   9.303 -0.2746 -1.3648 -0.7788
 9359TIP3    H252273   0.065   5.564   9.400 -0.5853  0.5995 -0.8361
 9360TIP3   OH252274   4.523   2.230   7.643 -0.7589  0.3220 -0.0764
 9360TIP3    H152275   4.560   2.293   7.581 -0.9676  0.2731 -0.2522
 9360TIP3    H252276   4.588   2.160   7.648 -1.5466 -0.5778 -1.6545
 9361TIP3   OH252277   1.705   1.971   2.610 -0.0155 -0.3671 -0.0324
 9361TIP3    H152278   1.675   1.917   2.683  1.0203  1.5893  1.9574
 9361TIP3    H252279   1.797   1.947   2.598 -0.0299 -0.2833 -0.3381
 9362TIP3   OH252280   1.894   2.268   2.270  0.3860 -0.8212 -0.8242
 9362TIP3    H152281   1.803   2.247   2.289  0.4329 -0.6970 -0.4618
 9362TIP3    H252282   1.921   2.328   2.340 -0.2904  1.9945 -2.8109
 9363TIP3   OH252283   1.925   2.630   1.425 -0.4640  0.1619  0.4119
 9363TIP3    H152284   1.956   2.696   1.364 -0.1094  0.3581  0.8009
 9363TIP3    H252285   2.003   2.602   1.473 -0.7434  0.0536  0.8144
 9364TIP3   OH252286   4.309   6.143   1.647  1.2010  0.2799  0.0274
 9364TIP3    H152287   4.282   6.087   1.574  0.6557  0.6701 -0.0777
 9364TIP3    H252288   4.349   6.083   1.709  0.7772 -0.2078 -0.1583
 9365TIP3   OH252289   2.954   2.962   8.906 -0.2880  0.1510 -0.6909
 9365TIP3    H152290   2.885   2.911   8.949  0.7685 -0.7931 -0.0494
 9365TIP3    H252291   3.035   2.934   8.949  0.5612  0.8414 -1.7775
 9366TIP3   OH252292   5.980   4.169   9.020  0.2278  0.4268  0.7301
 9366TIP3    H152293   6.056   4.204   8.975 -0.7303  2.3307  0.4896
 9366TIP3    H252294   5.997   4.075   9.027  2.3017  0.7155  0.1772
 9367TIP3   OH252295   2.634   1.566   2.953 -0.6086  0.0389  0.0212
 9367TIP3    H152296   2.700   1.604   3.011  0.4761 -1.2021 -0.3678
 9367TIP3    H252297   2.664   1.476   2.938 -1.4241  0.0190 -1.6255
 9368TIP3   OH252298   3.199   0.852   0.962 -0.0191  0.3951  0.3921
 9368TIP3    H152299   3.240   0.786   0.906  0.4627 -0.7569  2.0059
 9368TIP3    H252300   3.258   0.858   1.038  0.3005  3.1949  0.0361
 9369TIP3   OH252301   6.481   0.042   2.269 -0.3115 -0.2166 -0.1314
 9369TIP3    H152302   6.463  -0.051   2.280 -1.5198  0.1276  1.1879
 9369TIP3    H252303   6.401   0.077   2.229  0.5907  0.0839 -1.7354
 9370TIP3   OH252304   5.977   6.445   2.076  0.0840 -0.2549  0.4225
 9370TIP3    H152305   6.005   6.359   2.044 -0.4183  0.3408 -1.7374
 9370TIP3    H252306   6.056   6.483   2.114  0.2603 -1.7207  1.6529
 9371TIP3   OH252307   0.629   4.464   1.910 -0.7277  0.3294 -0.4615
 9371TIP3    H152308   0.633   4.558   1.921  1.8410  0.1768  0.6526
 9371TIP3    H252309   0.604   4.430   1.995 -2.4338 -0.0048 -1.0609
 9372TIP3   OH252310   0.524   5.429   1.009  0.1437  0.2822  0.0006
 9372TIP3    H152311   0.606   5.407   0.964  0.5434  2.1450 -0.2637
 9372TIP3    H252312   0.480   5.345   1.021  1.6291 -0.6463 -0.7547
 9373TIP3   OH252313   6.054   5.675   1.543  0.2801  0.5458 -0.0234
 9373TIP3    H152314   6.087   5.627   1.619  1.0002  1.2270  0.1107
 9373TIP3    H252315   6.081   5.623   1.467  0.1105  0.1881  0.1596
 9374TIP3   OH252316   2.590   5.280   1.463 -0.1857  0.0223 -0.7409
 9374TIP3    H152317   2.511   5.227   1.477 -1.4356  1.8369 -0.6180
 9374TIP3    H252318   2.657   5.237   1.516 -1.6275 -0.3809  0.8506
 9375TIP3   OH252319   0.909   0.748   0.143  0.0901 -0.6508  0.2060
 9375TIP3    H152320   0.936   0.698   0.066 -0.3520 -1.4386  0.5558
 9375TIP3    H252321   0.964   0.826   0.141  0.4580 -0.9187 -0.6106
 9376TIP3   OH252322   2.753   6.115   7.362  0.6242 -0.0643 -0.2333
 9376TIP3    H152323   2.829   6.062   7.336  0.8731  1.1454 -2.1828
 9376TIP3    H252324   2.791   6.199   7.389  0.0135  0.6423 -1.4721
 9377TIP3   OH252325   3.313   2.037   0.031 -0.0151  0.1846  0.2561
 9377TIP3    H152326   3.301   1.949   0.067  1.7354 -0.1682  0.0843
 9377TIP3    H252327   3.358   2.022  -0.052 -0.8829  1.1883 -0.4141
 9378TIP3   OH252328   6.258   5.094   7.845 -0.5218  0.0431 -0.1627
 9378TIP3    H152329   6.293   5.181   7.861 -0.7401  0.3795 -1.4396
 9378TIP3    H252330   6.180   5.108   7.792  0.3809 -1.0028 -1.8590
 9379TIP3   OH252331   5.796   0.679   8.856 -0.3809  0.3099  0.2837
 9379TIP3    H152332   5.721   0.709   8.804  1.0339  0.4086 -1.8284
 9379TIP3    H252333   5.872   0.721   8.815  1.1514 -2.0788  0.4633
 9380TIP3   OH252334   1.457   2.031   2.866  0.3091 -0.4247 -0.1885
 9380TIP3    H152335   1.380   1.983   2.835  0.9863 -1.2175 -0.6927
 9380TIP3    H252336   1.531   1.973   2.846  1.1032  0.5881 -0.2887
 9381TIP3   OH252337   5.201   4.063   0.336 -0.7133  0.4480 -0.8766
 9381TIP3    H152338   5.260   4.001   0.294  0.2593  1.7894 -1.5596
 9381TIP3    H252339   5.139   4.087   0.266 -1.2912  0.0346 -0.5231
 9382TIP3   OH252340   4.728   4.330   9.501  0.4668 -0.3082  0.1532
 9382TIP3    H152341   4.663   4.260   9.492  0.4846 -0.4426  1.0316
 9382TIP3    H252342   4.702   4.377   9.580  1.8711 -0.8329  0.9534
 9383TIP3   OH252343   6.906   1.870   1.474 -0.0187  0.9654  0.0419
 9383TIP3    H152344   6.909   1.787   1.523 -1.6211  1.3780  0.8936
 9383TIP3    H252345   6.988   1.913   1.496  1.2109 -0.6856 -1.0166
 9384TIP3   OH252346   7.054   0.676   9.203 -0.4570  0.0538 -0.1035
 9384TIP3    H152347   7.141   0.664   9.239 -0.8729  0.3499  1.0403
 9384TIP3    H252348   7.065   0.735   9.129  0.1581  0.9957  0.7298
 9385TIP3   OH252349   5.694   5.918   8.830  0.2397 -0.2526  0.1663
 9385TIP3    H152350   5.629   5.848   8.822 -0.3318  0.4158 -1.6710
 9385TIP3    H252351   5.642   5.998   8.836  0.8925  0.2179 -0.3647
 9386TIP3   OH252352   6.006   0.308   1.543 -0.1052  0.4688 -0.4769
 9386TIP3    H152353   5.947   0.373   1.504 -0.2677  0.7883  0.2808
 9386TIP3    H252354   6.079   0.302   1.481 -0.8971  0.1011 -1.4101
 9387TIP3   OH252355   0.356   6.771   1.885 -1.0541 -0.5931  0.6393
 9387TIP3    H152356   0.266   6.742   1.867 -1.0677 -0.1135 -0.1040
 9387TIP3    H252357   0.353   6.800   1.977 -1.2350 -2.1235  1.1405
 9388TIP3   OH252358   0.642   0.674   9.201  0.7291 -0.1232  0.3029
 9388TIP3    H152359   0.699   0.695   9.128  1.4536  1.3926  1.2618
 9388TIP3    H252360   0.661   0.582   9.221  1.1112 -0.3142 -0.8707
 9389TIP3   OH252361   1.740   5.689   9.262 -0.3771 -0.4668 -0.1532
 9389TIP3    H152362   1.764   5.636   9.186 -0.2344  0.3838 -0.7073
 9389TIP3    H252363   1.822   5.728   9.291 -0.4369 -0.7521  0.4231
 9390TIP3   OH252364   1.604   0.410   8.489 -0.1539  0.6538 -0.1357
 9390TIP3    H152365   1.514   0.427   8.459 -0.1331  2.1760  0.5944
 9390TIP3    H252366   1.656   0.414   8.409 -0.9027 -2.0041 -0.8512
 9391TIP3   OH252367   3.772   3.297   9.268  0.1204  0.0037 -0.6991
 9391TIP3    H152368   3.709   3.237   9.229  0.3416  0.4317 -1.7243
 9391TIP3    H252369   3.800   3.354   9.197 -1.3801  2.5175  0.5883
 9392TIP3   OH252370   1.280   5.355   8.241  0.1858  0.3380  0.2819
 9392TIP3    H152371   1.301   5.269   8.277  1.2586  0.2444 -0.5322
 9392TIP3    H252372   1.281   5.413   8.316 -0.9832 -0.4151  0.9156
 9393TIP3   OH252373   6.247   3.571   7.532  0.3649  0.0427 -0.2378
 9393TIP3    H152374   6.156   3.544   7.538  0.3738  0.2001  1.0213
 9393TIP3    H252375   6.243   3.665   7.514  0.2791  0.0237 -0.3167
 9394TIP3   OH252376   6.508   3.037   0.011 -0.2013 -0.0682 -0.1940
 9394TIP3    H152377   6.496   3.110  -0.049  0.6486  1.6102  1.5638
 9394TIP3    H252378   6.598   3.047   0.043 -0.5303 -1.0356  1.1538
 9395TIP3   OH252379   6.140   4.954   1.961  0.4088  0.2860  0.0418
 9395TIP3    H152380   6.197   4.962   2.037 -0.7718 -0.2020  1.0184
 9395TIP3    H252381   6.100   5.041   1.951 -0.5157 -0.0203  0.8947
 9396TIP3   OH252382   1.996   3.280   7.453  0.0344 -0.1550 -0.3376
 9396TIP3    H152383   1.949   3.352   7.494 -1.8993 -0.6943 -1.4938
 9396TIP3    H252384   2.061   3.254   7.518 -2.3705 -0.5101  2.1165
 9397TIP3   OH252385   1.290   0.421   0.893  0.6938 -0.3789 -0.0822
 9397TIP3    H152386   1.221   0.482   0.867 -0.6632 -1.9025 -0.2935
 9397TIP3    H252387   1.332   0.395   0.811 -0.2063 -1.3394 -0.2738
 9398TIP3   OH252388   2.980   2.520   3.007 -0.0989 -0.9724  0.0398
 9398TIP3    H152389   3.051   2.491   2.950 -0.2589  0.3113 -0.8561
 9398TIP3    H252390   2.902   2.478   2.970  0.2139 -2.9071  1.4073
 9399TIP3   OH252391   4.936   5.359   0.609  0.1049 -0.5830 -0.4540
 9399TIP3    H152392   4.914   5.418   0.681  0.3028  0.2652 -1.0634
 9399TIP3    H252393   4.894   5.276   0.631 -0.8616  0.0198  0.0448
 9400TIP3   OH252394   5.718   0.185   8.619  0.1883  0.0535 -0.0606
 9400TIP3    H152395   5.699   0.095   8.643  0.7350  0.0694  0.4379
 9400TIP3    H252396   5.639   0.215   8.574 -0.3431 -0.3841  0.5663
 9401TIP3   OH252397   6.439   3.088   9.412  0.2758 -0.4533 -0.5266
 9401TIP3    H152398   6.385   3.068   9.337 -0.5910 -0.0230 -0.0300
 9401TIP3    H252399   6.394   3.159   9.457  2.2339  1.2594 -1.1408
 9402TIP3   OH252400   4.274   7.321   2.659  0.0668 -0.4194  0.1936
 9402TIP3    H152401   4.228   7.239   2.672  0.6337 -0.4739  2.1648
 9402TIP3    H252402   4.207   7.383   2.631 -0.4924 -1.3596 -0.5890
 9403TIP3   OH252403   5.564   5.194   8.672  0.0324  0.3349 -0.7900
 9403TIP3    H152404   5.644   5.144   8.689  0.4161  1.6061  1.4458
 9403TIP3    H252405   5.558   5.196   8.576  2.0297 -0.7659 -1.0015
 9404TIP3   OH252406   0.601   1.321   8.605 -0.3208  0.4960  0.0467
 9404TIP3    H152407   0.564   1.245   8.649  1.0847 -2.6810 -3.7160
 9404TIP3    H252408   0.535   1.348   8.542  0.6332 -0.1057 -1.2423
 9405TIP3   OH252409   5.474   2.319   0.637  0.2965 -0.4073  0.2198
 9405TIP3    H152410   5.417   2.323   0.714  1.8874  0.6903  1.4060
 9405TIP3    H252411   5.551   2.270   0.666  0.9684  0.1206 -0.6094
 9406TIP3   OH252412   2.492   6.998   9.026  0.1173  0.1968 -0.4926
 9406TIP3    H152413   2.427   6.929   9.015 -0.3123  0.6468 -0.8038
 9406TIP3    H252414   2.567   6.969   8.974  0.0075 -0.1136 -0.4831
 9407TIP3   OH252415   5.449   6.576   2.146  0.8851  0.2050  0.1132
 9407TIP3    H152416   5.486   6.587   2.234  0.6631  0.6777  0.1493
 9407TIP3    H252417   5.368   6.627   2.147  1.1518  0.6532 -0.5318
 9408TIP3   OH252418   0.448   1.506   1.093 -0.5935  0.1553 -0.2901
 9408TIP3    H152419   0.535   1.473   1.116 -1.4224 -1.0290  1.3537
 9408TIP3    H252420   0.400   1.509   1.176 -2.6224 -0.7469 -1.3572
 9409TIP3   OH252421   6.481   0.180   9.012  0.4721  1.0971 -0.2157
 9409TIP3    H152422   6.423   0.180   9.088 -0.1969  0.5160 -0.7066
 9409TIP3    H252423   6.529   0.097   9.019  0.6004  1.1635 -0.2929
 9410TIP3   OH252424   3.284   3.979   1.773 -0.4045 -0.2586 -0.3447
 9410TIP3    H152425   3.194   3.959   1.748 -0.5923 -1.0827  0.9112
 9410TIP3    H252426   3.306   3.914   1.839  0.6256  0.8261  0.4329
 9411TIP3   OH252427   6.510   3.672   0.733  0.2628 -0.5972  0.1466
 9411TIP3    H152428   6.531   3.588   0.773  1.5910  0.8956  2.8745
 9411TIP3    H252429   6.589   3.696   0.684 -0.7211 -1.6071 -2.0721
 9412TIP3   OH252430   3.146   2.354   8.104  0.3302 -0.0606 -0.3149
 9412TIP3    H152431   3.187   2.274   8.136  2.1587  1.5630  1.6523
 9412TIP3    H252432   3.214   2.421   8.111 -1.4156  1.8966 -0.9589
 9413TIP3   OH252433   1.947   3.504   7.605 -0.2588  0.1101 -0.0500
 9413TIP3    H152434   1.894   3.508   7.685  0.1955 -0.3217  0.2805
 9413TIP3    H252435   1.895   3.551   7.540 -1.0463 -0.2768  0.2720
 9414TIP3   OH252436   2.630   4.868   7.184  0.4616 -0.2052 -0.1068
 9414TIP3    H152437   2.583   4.890   7.265  1.4319 -1.0962  0.7287
 9414TIP3    H252438   2.579   4.796   7.146 -0.8830  1.2143 -1.1595
 9415TIP3   OH252439   4.221   1.560   1.135 -0.0703  0.1822  0.1349
 9415TIP3    H152440   4.253   1.497   1.200  2.2422  0.3084 -0.7783
 9415TIP3    H252441   4.270   1.539   1.056 -1.9334  0.8176 -1.2564
 9416TIP3   OH252442   5.516   2.087   1.055  0.6556  0.6493 -0.1412
 9416TIP3    H152443   5.448   2.132   1.006 -0.1361 -0.9250 -0.5542
 9416TIP3    H252444   5.553   2.025   0.992  0.1636 -0.8438  0.9882
 9417TIP3   OH252445   6.753   5.769   1.175 -0.2092  0.2783 -0.3591
 9417TIP3    H152446   6.695   5.822   1.229  2.8979 -0.2918  4.0940
 9417TIP3    H252447   6.806   5.833   1.126  0.6820  1.2175  1.7354
 9418TIP3   OH252448   5.222   0.962   2.349 -0.1007 -0.4064  0.2698
 9418TIP3    H152449   5.247   1.039   2.298  0.7949  0.9494  2.6058
 9418TIP3    H252450   5.261   0.977   2.435 -0.3633 -3.2413  0.9725
 9419TIP3   OH252451   2.779   4.995   8.869 -0.0177 -0.0005  0.1099
 9419TIP3    H152452   2.767   5.079   8.914  0.2176 -0.1121  0.3804
 9419TIP3    H252453   2.729   4.933   8.921 -0.7319  0.0872 -0.4578
 9420TIP3   OH252454   3.587   5.786   9.423 -0.2229  0.3119 -0.2410
 9420TIP3    H152455   3.528   5.857   9.396 -0.0633  0.4709 -0.1740
 9420TIP3    H252456   3.601   5.801   9.516 -2.5102 -1.4909  0.4702
 9421TIP3   OH252457   5.017   6.574   0.839 -0.7265  0.3357 -0.1300
 9421TIP3    H152458   5.028   6.576   0.934 -1.3723 -0.8865 -0.0080
 9421TIP3    H252459   5.075   6.643   0.806  0.1995  0.1593  1.0833
 9422TIP3   OH252460   4.834   0.921   1.598 -0.2494  0.1229 -0.5342
 9422TIP3    H152461   4.751   0.885   1.567 -2.5633  4.6218 -0.2868
 9422TIP3    H252462   4.899   0.886   1.538 -2.5851 -1.9362 -2.0733
 9423TIP3   OH252463   4.179   2.769   2.024 -0.5046  0.1108  0.6105
 9423TIP3    H152464   4.196   2.694   1.967  2.3326  0.0614  1.3516
 9423TIP3    H252465   4.183   2.734   2.112 -2.7796  0.5552  0.9389
 9424TIP3   OH252466   2.143   5.536   0.441  0.2459 -0.2299  0.5992
 9424TIP3    H152467   2.071   5.560   0.500 -0.2384 -0.3828  0.0826
 9424TIP3    H252468   2.140   5.440   0.438 -0.1112 -0.2008 -0.1305
 9425TIP3   OH252469   2.594   5.331   7.298  0.5795 -0.0353  0.6701
 9425TIP3    H152470   2.649   5.347   7.374 -1.2042 -0.7786  2.1724
 9425TIP3    H252471   2.630   5.252   7.259 -0.3620 -1.4936  2.6171
 9426TIP3   OH252472   0.748   1.222   2.730  0.9372  0.7451  0.2790
 9426TIP3    H152473   0.656   1.229   2.755  1.4546  1.8289  2.0884
 9426TIP3    H252474   0.783   1.311   2.743  2.1397  0.4630 -0.8418
 9427TIP3   OH252475   3.227   5.634   8.558  0.0681  0.0707 -0.4444
 9427TIP3    H152476   3.193   5.621   8.647 -1.2779 -0.0545 -0.9604
 9427TIP3    H252477   3.319   5.655   8.571  0.0332 -0.5209  0.9546
 9428TIP3   OH252478   4.135   1.049   0.059 -0.2113 -0.2283 -0.3434
 9428TIP3    H152479   4.059   1.088   0.102 -0.2785  1.2174 -1.6878
 9428TIP3    H252480   4.205   1.053   0.124 -0.4532  1.3825 -0.1521
 9429TIP3   OH252481   4.162   7.409   1.498  0.1104 -0.2401  0.2787
 9429TIP3    H152482   4.204   7.389   1.414 -0.6609  1.3670 -0.5377
 9429TIP3    H252483   4.084   7.459   1.474  0.6700  1.5830  2.0100
 9430TIP3   OH252484   4.211   0.966   0.664 -0.2588  0.0137  0.6330
 9430TIP3    H152485   4.279   0.914   0.620 -0.6220 -0.0092  0.0924
 9430TIP3    H252486   4.129   0.938   0.623 -0.3921  1.5773 -0.2378
 9431TIP3   OH252487   0.511   3.465   1.709 -0.4061 -0.0669 -0.2925
 9431TIP3    H152488   0.531   3.411   1.785 -0.6091  2.9961  2.1667
 9431TIP3    H252489   0.585   3.453   1.650  0.3897 -1.6047  0.9399
 9432TIP3   OH252490   5.912   6.827   7.552  0.8085 -0.5989  0.3782
 9432TIP3    H152491   5.821   6.855   7.545  0.6106 -1.5056 -1.5042
 9432TIP3    H252492   5.951   6.851   7.468  1.9623 -1.3576  0.6705
 9433TIP3   OH252493   5.840   0.486   7.939 -0.1861 -0.1099 -0.0807
 9433TIP3    H152494   5.871   0.404   7.902 -1.0378 -0.5007  0.0481
 9433TIP3    H252495   5.870   0.484   8.030  0.0477 -0.1353 -0.1564
 9434TIP3   OH252496   1.492   1.496   0.293  0.6822 -0.0095 -0.4117
 9434TIP3    H152497   1.572   1.536   0.328 -0.2803  0.9720  0.7757
 9434TIP3    H252498   1.444   1.569   0.254  0.3636 -0.5967 -1.1489
 9435TIP3   OH252499   5.733   3.196   8.935 -0.2542 -0.5571  0.0421
 9435TIP3    H152500   5.701   3.141   9.007  0.3435 -0.4096  0.4371
 9435TIP3    H252501   5.770   3.273   8.979  0.6242 -0.7232 -0.3881
 9436TIP3   OH252502   1.291   0.049   8.733 -0.0138 -0.5415 -0.5133
 9436TIP3    H152503   1.205   0.011   8.747  0.3396 -1.4209 -0.6798
 9436TIP3    H252504   1.316   0.084   8.819 -0.2774 -0.8110 -0.3286
 9437TIP3   OH252505   3.442   1.959   0.424 -0.2777  0.7127 -0.0827
 9437TIP3    H152506   3.438   2.034   0.364  0.6038  0.3368 -0.6170
 9437TIP3    H252507   3.465   1.885   0.369 -0.0968  0.2373  0.6236
 9438TIP3   OH252508   0.770   5.345   0.890 -0.4335  0.2707  0.1007
 9438TIP3    H152509   0.861   5.372   0.901 -0.9259  2.3716 -0.5628
 9438TIP3    H252510   0.763   5.320   0.798 -0.0084 -2.2784  0.6787
 9439TIP3   OH252511   6.657   3.661   0.992  0.5513  0.0528  0.0545
 9439TIP3    H152512   6.596   3.639   0.922  1.3068  1.7966 -1.2336
 9439TIP3    H252513   6.666   3.757   0.988  1.6617  0.0707  1.6490
 9440TIP3   OH252514   4.018   5.572   1.801  0.7445 -0.3025  0.1729
 9440TIP3    H152515   4.096   5.521   1.781  1.6506  0.4764  1.5449
 9440TIP3    H252516   3.992   5.545   1.889  1.2796  1.5653  0.9659
 9441TIP3   OH252517   2.707   3.070   2.765  0.0429  0.2845  0.8096
 9441TIP3    H152518   2.738   3.069   2.675  0.3112 -0.7375  0.9002
 9441TIP3    H252519   2.717   3.161   2.793  1.2876  0.3278  0.2693
 9442TIP3   OH252520   2.813   4.105   6.361 -0.1353  0.0472  0.3438
 9442TIP3    H152521   2.752   4.140   6.426 -0.0364  0.7176  0.0919
 9442TIP3    H252522   2.856   4.183   6.325 -0.4370 -0.2741 -0.7583
 9443TIP3   OH252523   3.475   7.254   9.588 -0.4503  0.1016  0.2582
 9443TIP3    H152524   3.415   7.204   9.644 -0.1111  0.2936  0.8016
 9443TIP3    H252525   3.446   7.234   9.499 -2.8926  2.0630  0.4880
 9444TIP3   OH252526   6.730   6.248   9.708 -0.3440  0.2427  0.0736
 9444TIP3    H152527   6.662   6.202   9.757 -0.4799  0.0383 -0.3011
 9444TIP3    H252528   6.689   6.330   9.679 -0.8296 -0.4168 -1.1787
 9445TIP3   OH252529   0.511   2.444   0.994 -0.2530  0.1170 -0.2944
 9445TIP3    H152530   0.585   2.486   0.949 -1.9036  2.2054 -1.2044
 9445TIP3    H252531   0.434   2.489   0.961 -1.8371 -0.7182  2.0063
 9446TIP3   OH252532   2.255   6.310   0.293  0.2522  0.0382  0.2109
 9446TIP3    H152533   2.242   6.338   0.202  1.2716  1.2542  0.4032
 9446TIP3    H252534   2.188   6.243   0.308 -0.6268  0.5822 -1.1075
 9447TIP3   OH252535   0.151   1.797   9.841 -0.2774  0.4640  0.3433
 9447TIP3    H152536   0.168   1.747   9.761  1.2980  1.6970 -0.1607
 9447TIP3    H252537   0.089   1.865   9.814 -1.1698 -0.2125  0.6409
 9448TIP3   OH252538   4.375   3.385   0.589 -0.5090 -0.2710 -0.1164
 9448TIP3    H152539   4.395   3.291   0.586 -0.5381 -0.3119  0.7330
 9448TIP3    H252540   4.390   3.409   0.680 -0.0834  0.6517 -0.4250
 9449TIP3   OH252541   3.698   0.172   8.362  0.4177  0.8358 -0.4646
 9449TIP3    H152542   3.657   0.247   8.317 -0.8257  0.0161 -0.7687
 9449TIP3    H252543   3.655   0.095   8.323  1.0188  0.0051  0.4704
 9450TIP3   OH252544   6.670   3.620   1.829  0.6880 -0.3344 -0.2683
 9450TIP3    H152545   6.714   3.705   1.818 -0.4911  0.6558  1.8553
 9450TIP3    H252546   6.738   3.562   1.864  0.5660  1.0545  2.5787
 9451TIP3   OH252547   3.067   0.575   1.400  0.2845 -0.1765  0.3548
 9451TIP3    H152548   3.095   0.525   1.324  0.5855 -0.7238  0.8187
 9451TIP3    H252549   3.038   0.659   1.364  0.4289 -0.4232 -0.3573
 9452TIP3   OH252550   3.671   4.492   6.802 -0.5792  0.1063  0.0965
 9452TIP3    H152551   3.647   4.410   6.846 -0.3356 -0.5389 -0.9325
 9452TIP3    H252552   3.625   4.488   6.718  0.8524  0.1667 -0.7207
 9453TIP3   OH252553   0.598   1.221   0.450  0.1144  0.2561 -0.0302
 9453TIP3    H152554   0.591   1.207   0.545 -3.5900 -1.5483 -0.4110
 9453TIP3    H252555   0.537   1.292   0.431  2.2987  2.0271 -0.9571
 9454TIP3   OH252556   1.609   1.083   2.800 -0.4310 -0.3227 -0.2495
 9454TIP3    H152557   1.681   1.130   2.841  0.4117  1.6251 -3.6037
 9454TIP3    H252558   1.597   1.005   2.855  2.5681  0.4900  1.8101
 9455TIP3   OH252559   3.339   2.991   7.442 -0.1343 -0.2523  0.0275
 9455TIP3    H152560   3.385   2.937   7.378  1.0571  1.0314 -0.2270
 9455TIP3    H252561   3.407   3.042   7.485 -1.2007  0.9448  0.3658
 9456TIP3   OH252562   1.728   1.224   9.989  0.8215  0.3889  0.0610
 9456TIP3    H152563   1.708   1.142  10.034 -0.3413  0.0909 -0.9306
 9456TIP3    H252564   1.726   1.290  10.058 -1.5429  0.0375  0.4260
 9457TIP3   OH252565   0.292   0.725   9.953  0.1558  0.5045 -0.5744
 9457TIP3    H152566   0.314   0.679   9.872 -1.1841  0.8454 -1.1539
 9457TIP3    H252567   0.216   0.778   9.931  0.1205  1.0499  0.7625
 9458TIP3   OH252568   2.716   7.232   2.066 -0.4305 -0.2848  0.1396
 9458TIP3    H152569   2.670   7.164   2.115 -1.1940 -0.0033 -0.1705
 9458TIP3    H252570   2.799   7.243   2.113 -0.9895 -0.2732  1.1687
 9459TIP3   OH252571   3.195   5.297   1.667  0.4605 -0.1288 -0.1365
 9459TIP3    H152572   3.193   5.357   1.593 -1.8347 -0.4100 -0.3696
 9459TIP3    H252573   3.246   5.344   1.734  0.7277  1.0538 -1.1261
 9460TIP3   OH252574   3.588   3.574   1.427 -0.2253  0.0558 -0.5289
 9460TIP3    H152575   3.617   3.657   1.390  0.9258  0.7115  1.7085
 9460TIP3    H252576   3.665   3.516   1.421  0.1920  0.3608  1.2505
 9461TIP3   OH252577   0.164   2.115   0.789  0.3320 -0.2440  0.0823
 9461TIP3    H152578   0.181   2.048   0.855 -1.2437  0.2309  1.0285
 9461TIP3    H252579   0.099   2.172   0.829  0.3799  0.8897 -1.3567
 9462TIP3   OH252580   4.578   7.020   1.501  0.5871  0.1670  1.1157
 9462TIP3    H152581   4.557   7.059   1.416 -1.2144 -0.2833  1.3146
 9462TIP3    H252582   4.494   6.990   1.535  1.6852 -2.5651  1.6388
 9463TIP3   OH252583   2.590   6.287   0.887 -0.5285 -0.0783  0.4661
 9463TIP3    H152584   2.542   6.369   0.872 -1.6017 -0.7161  0.2820
 9463TIP3    H252585   2.558   6.228   0.819  0.4404 -0.5736  0.4252
 9464TIP3   OH252586   3.606   1.854   2.095  0.4887 -0.2016  0.3375
 9464TIP3    H152587   3.640   1.906   2.167 -0.3923  0.5645  0.2220
 9464TIP3    H252588   3.661   1.776   2.093  0.6398 -0.1514  1.7253
 9465TIP3   OH252589   7.470   0.685   2.638 -0.3550 -0.3636 -0.3550
 9465TIP3    H152590   7.395   0.714   2.690  0.2889  1.1718 -0.2287
 9465TIP3    H252591   7.534   0.756   2.647  0.6532 -1.1086 -1.4083
 9466TIP3   OH252592   2.758   3.719   7.572 -0.1987  0.3004  0.7925
 9466TIP3    H152593   2.748   3.808   7.538  1.5283  0.8683  1.6295
 9466TIP3    H252594   2.812   3.730   7.651  0.7567 -1.5672  0.4414
 9467TIP3   OH252595   6.622   5.532   8.856 -0.6382  0.2803  0.3729
 9467TIP3    H152596   6.623   5.457   8.796  0.4337  0.7796 -0.2773
 9467TIP3    H252597   6.536   5.572   8.843 -1.3940 -1.0533  1.0450
 9468TIP3   OH252598   5.472   2.573   0.490 -0.8098 -0.1650 -0.0168
 9468TIP3    H152599   5.555   2.613   0.515 -0.3048  0.2897 -2.1955
 9468TIP3    H252600   5.450   2.514   0.562  0.1180  1.5595  1.7599
 9469TIP3   OH252601   2.025   4.497   9.614  0.8416 -0.5568  0.0950
 9469TIP3    H152602   2.004   4.548   9.535 -0.1134 -1.9563 -0.6061
 9469TIP3    H252603   2.110   4.457   9.596 -0.1970 -2.3925 -1.1036
 9470TIP3   OH252604   0.315   5.945   0.339 -0.5656  0.5380 -0.0012
 9470TIP3    H152605   0.354   5.952   0.426  0.4299 -0.5333 -0.3432
 9470TIP3    H252606   0.258   5.868   0.344  1.5256 -1.1717 -1.0011
 9471TIP3   OH252607   4.308   7.240   8.899 -0.2272  0.2380  0.1057
 9471TIP3    H152608   4.315   7.207   8.989 -0.3178 -3.3958 -1.0494
 9471TIP3    H252609   4.398   7.260   8.874 -0.1075  0.5215  0.7338
 9472TIP3   OH252610   5.917   4.011   0.556 -0.1367  0.1761 -0.2573
 9472TIP3    H152611   5.842   3.975   0.508 -1.5726  0.9151  1.3190
 9472TIP3    H252612   5.924   4.101   0.526 -1.3051  0.7699  1.1266
 9473TIP3   OH252613   6.071   6.915   0.771  0.2181  0.5395 -0.1792
 9473TIP3    H152614   6.082   6.997   0.818 -0.6282  0.5117  0.0898
 9473TIP3    H252615   6.140   6.858   0.805  0.6186  1.0417 -0.1498
 9474TIP3   OH252616   2.291   3.645   6.678 -0.2957  0.0331  0.1801
 9474TIP3    H152617   2.335   3.562   6.699  0.5550  0.2743 -0.6090
 9474TIP3    H252618   2.206   3.618   6.642  0.2997 -0.5398 -0.8367
 9475TIP3   OH252619   7.110   7.011   8.305 -0.8725 -0.0333  0.2151
 9475TIP3    H152620   7.161   6.961   8.241 -0.1410  0.7252  0.1856
 9475TIP3    H252621   7.064   7.077   8.252 -0.1839  0.6612  0.4681
 9476TIP3   OH252622   3.565   0.277   2.266 -0.1275 -0.9199 -0.0701
 9476TIP3    H152623   3.652   0.277   2.304 -0.2811 -0.0921  0.2968
 9476TIP3    H252624   3.537   0.368   2.269 -0.9827 -1.1659 -0.2324
 9477TIP3   OH252625   2.590   6.872   8.283 -0.0466 -0.3474 -0.2144
 9477TIP3    H152626   2.590   6.883   8.378 -1.2846 -1.0005 -0.1294
 9477TIP3    H252627   2.625   6.955   8.250 -0.0672  0.0751  0.7872
 9478TIP3   OH252628   2.903   5.687   8.612 -0.5406 -0.3740 -0.6678
 9478TIP3    H152629   2.902   5.762   8.671  0.0835 -0.6060 -0.3476
 9478TIP3    H252630   2.829   5.701   8.553 -1.9928 -0.7586  0.9447
 9479TIP3   OH252631   1.114   4.012   2.388 -0.0989  0.0330  0.0200
 9479TIP3    H152632   1.171   4.000   2.464  1.8723  0.5094 -1.2886
 9479TIP3    H252633   1.091   3.923   2.361  0.6859 -0.2042  0.1200
 9480TIP3   OH252634   2.186   6.110   2.102  0.4401 -0.4126 -0.2023
 9480TIP3    H152635   2.169   6.027   2.056  0.3460 -0.1426 -0.6645
 9480TIP3    H252636   2.192   6.085   2.194  0.2298 -0.9103 -0.3159
 9481TIP3   OH252637   6.266   4.137   8.854  0.8044  0.6037 -0.0339
 9481TIP3    H152638   6.273   4.142   8.949  0.7900  0.0620  0.0007
 9481TIP3    H252639   6.339   4.191   8.821 -1.5851  4.3530  0.2088
 9482TIP3   OH252640   6.111   4.712   8.380  0.0837  0.1636  0.1843
 9482TIP3    H152641   6.171   4.718   8.306  0.5056  1.4417  0.6043
 9482TIP3    H252642   6.165   4.680   8.452 -0.0697 -0.0229  0.2177
 9483TIP3   OH252643   3.372   0.032   8.287  0.6586 -0.6258 -0.4271
 9483TIP3    H152644   3.360   0.109   8.342  1.2861 -0.6028 -0.3157
 9483TIP3    H252645   3.285  -0.008   8.282  0.4814 -0.3138  0.1200
 9484TIP3   OH252646   2.289   4.450   8.209  0.7460  0.2482  0.3411
 9484TIP3    H152647   2.273   4.428   8.117 -1.9043 -1.0264  1.0050
 9484TIP3    H252648   2.304   4.544   8.210  1.7393  0.1525 -1.4529
 9485TIP3   OH252649   1.400   2.714   2.846 -0.8016 -0.0840 -0.3107
 9485TIP3    H152650   1.425   2.780   2.910  1.6731 -0.2071 -1.0592
 9485TIP3    H252651   1.441   2.633   2.877 -0.9171 -0.5024 -1.2127
 9486TIP3   OH252652   5.349   4.406   8.817 -0.1660 -0.6488 -0.3360
 9486TIP3    H152653   5.322   4.324   8.858 -0.1372 -1.1973 -1.3806
 9486TIP3    H252654   5.301   4.408   8.734 -1.0307  0.9329  0.1628
 9487TIP3   OH252655   3.800   7.453   6.590 -0.0741 -0.0699 -0.0813
 9487TIP3    H152656   3.733   7.502   6.637  0.6648 -0.3916  1.3628
 9487TIP3    H252657   3.752   7.380   6.549 -1.0456  1.3364 -1.5839
 9488TIP3   OH252658   1.711   7.349   1.486 -0.2805  0.2281 -0.3452
 9488TIP3    H152659   1.762   7.428   1.468  2.7048 -1.3502  0.4886
 9488TIP3    H252660   1.676   7.323   1.400 -1.0077  2.1731 -0.6921
 9489TIP3   OH252661   4.897   2.627   8.849 -0.1417 -0.7730 -0.6287
 9489TIP3    H152662   4.943   2.558   8.896 -0.4419 -0.2626  0.4521
 9489TIP3    H252663   4.960   2.659   8.783  0.9418 -0.3210  0.5827
 9490TIP3   OH252664   6.764   0.630   9.143  0.1947  0.0872 -0.1167
 9490TIP3    H152665   6.719   0.646   9.060  1.3342  0.4615 -0.6861
 9490TIP3    H252666   6.833   0.697   9.146  0.1337  0.1241  1.1643
 9491TIP3   OH252667   5.113   5.899   1.001 -0.0708 -0.1988 -0.6208
 9491TIP3    H152668   5.100   5.868   0.911  2.0680 -0.4135 -0.9148
 9491TIP3    H252669   5.208   5.902   1.012 -0.2444  1.7035  1.0129
 9492TIP3   OH252670   6.187   4.990   9.983 -0.0044 -0.4712 -0.3139
 9492TIP3    H152671   6.149   4.911   9.943  0.9357 -0.8598 -0.4668
 9492TIP3    H252672   6.268   5.005   9.933 -0.5389  1.0240 -0.7651
 9493TIP3   OH252673   6.015   4.070   8.748 -0.3153 -0.1065  0.4891
 9493TIP3    H152674   6.104   4.075   8.781  0.1068 -0.6778 -0.5052
 9493TIP3    H252675   5.993   4.159   8.722  0.5911 -0.2110 -0.7647
 9494TIP3   OH252676   6.758   0.017   2.302  0.5416  0.4473  0.2299
 9494TIP3    H152677   6.776  -0.059   2.358  0.5708 -0.0691 -0.4739
 9494TIP3    H252678   6.670   0.046   2.327 -0.1911 -0.8913 -0.7010
 9495TIP3   OH252679   3.374   7.253   3.011 -0.2149  0.4297 -0.0568
 9495TIP3    H152680   3.448   7.309   2.986 -2.2895  4.6036  1.9835
 9495TIP3    H252681   3.403   7.211   3.092  1.0718 -0.8337 -1.1284
 9496TIP3   OH252682   6.745   2.675   1.041 -0.3309  0.3063 -0.0641
 9496TIP3    H152683   6.821   2.618   1.052  0.8399  1.9537  0.8550
 9496TIP3    H252684   6.673   2.629   1.083  0.5026 -0.6366  0.3600
 9497TIP3   OH252685   1.518   4.195   9.993 -0.1936  0.8993 -0.9267
 9497TIP3    H152686   1.430   4.175  10.024  0.1455  2.3960  1.2275
 9497TIP3    H252687   1.573   4.192  10.071  1.5157  0.8567 -2.0722
 9498TIP3   OH252688   0.225   5.506   8.416  0.8627 -0.3972  0.1243
 9498TIP3    H152689   0.301   5.501   8.475 -0.1237  0.8124  1.5836
 9498TIP3    H252690   0.150   5.493   8.473 -0.0962 -0.2808 -1.0726
 9499TIP3   OH252691   7.223   3.160   0.700 -0.2268  0.1909  0.3386
 9499TIP3    H152692   7.270   3.080   0.723  0.1550  0.3254  0.0353
 9499TIP3    H252693   7.132   3.131   0.688 -0.3696  0.0542  1.5967
 9500TIP3   OH252694   3.951   7.455   7.548 -0.2153  0.1172 -0.0545
 9500TIP3    H152695   3.946   7.424   7.457  0.2473  1.4571 -0.5514
 9500TIP3    H252696   4.025   7.514   7.550 -0.8230  0.8826  0.9680
 9501TIP3   OH252697   7.234   4.640   9.954 -0.0145 -0.8854  0.3957
 9501TIP3    H152698   7.247   4.669  10.044 -1.2231 -2.0270  0.9687
 9501TIP3    H252699   7.181   4.560   9.961 -1.5546 -0.1132 -1.3889
 9502TIP3   OH252700   5.869   0.896   1.302  0.1948 -0.0475  0.3591
 9502TIP3    H152701   5.839   0.961   1.366 -0.7627 -1.0557  0.9683
 9502TIP3    H252702   5.788   0.856   1.269  0.6822  0.3107 -1.3605
 9503TIP3   OH252703   2.838   4.297   8.466 -0.3082 -0.0189 -0.2481
 9503TIP3    H152704   2.760   4.347   8.491  0.8590  0.9930  1.6533
 9503TIP3    H252705   2.909   4.361   8.470  0.6648 -0.9337 -1.8608
 9504TIP3   OH252706   3.953   3.995   0.860  0.5447  0.4240  0.2483
 9504TIP3    H152707   3.979   3.921   0.915 -1.0841 -0.4083 -0.0396
 9504TIP3    H252708   3.877   3.963   0.812  1.2925  1.4725 -1.7446
 9505TIP3   OH252709   4.503   2.170   9.953  0.4149 -0.1281 -0.4754
 9505TIP3    H152710   4.532   2.126  10.033  0.6603 -1.5315 -1.3011
 9505TIP3    H252711   4.564   2.140   9.885 -0.7333 -0.2356 -1.5035
 9506TIP3   OH252712   5.068   4.572   0.608 -0.4986  0.1295 -0.2530
 9506TIP3    H152713   5.005   4.509   0.573  0.7082 -0.3216 -1.7086
 9506TIP3    H252714   5.144   4.518   0.631 -0.0527  0.8587  0.0015
 9507TIP3   OH252715   3.739   1.411   9.023  0.2654 -0.0046  0.3514
 9507TIP3    H152716   3.676   1.370   9.082 -0.4166  0.4971 -0.0060
 9507TIP3    H252717   3.706   1.392   8.935 -0.4908  1.8592  0.1693
 9508TIP3   OH252718   7.168   5.474   9.522 -0.1973  0.1699  0.2287
 9508TIP3    H152719   7.211   5.560   9.529  1.5429 -0.4049 -2.1099
 9508TIP3    H252720   7.235   5.412   9.551  0.5106 -0.7017 -2.9130
 9509TIP3   OH252721   3.752   6.677   8.545  0.5538 -0.2131 -0.7272
 9509TIP3    H152722   3.761   6.624   8.466 -0.0356 -1.0092 -0.2653
 9509TIP3    H252723   3.673   6.645   8.587  0.0627  1.1659 -0.5371
 9510TIP3   OH252724   5.764   6.540   9.361  0.5805  0.3035 -0.3884
 9510TIP3    H152725   5.814   6.537   9.443 -0.4393 -0.5584  0.2284
 9510TIP3    H252726   5.751   6.634   9.346  0.1213  0.4647  0.8638
 9511TIP3   OH252727   4.822   2.575   1.804 -0.2865  0.1756  0.2830
 9511TIP3    H152728   4.734   2.536   1.809 -1.1637  2.0337  0.0921
 9511TIP3    H252729   4.821   2.643   1.871  0.8066  0.6455 -0.1699
 9512TIP3   OH252730   4.499   6.421   0.065 -0.2164 -0.2592  0.1115
 9512TIP3    H152731   4.513   6.511   0.035 -0.4402 -0.5184 -0.8117
 9512TIP3    H252732   4.587   6.390   0.088 -0.1250  0.1618  0.3457
 9513TIP3   OH252733   2.387   1.887   9.873  0.3350 -0.1184 -0.0516
 9513TIP3    H152734   2.431   1.908   9.955  0.1127  0.2522 -0.0264
 9513TIP3    H252735   2.424   1.803   9.847  0.6039 -0.1069  0.2883
 9514TIP3   OH252736   6.708   5.954   9.343  0.0417 -0.3300 -0.6857
 9514TIP3    H152737   6.795   5.941   9.383 -0.3382 -1.8889 -0.2659
 9514TIP3    H252738   6.683   6.042   9.368  0.9186 -0.3624  0.3987
 9515TIP3   OH252739   6.503   5.723   0.171 -0.6211  0.3709  0.0426
 9515TIP3    H152740   6.429   5.744   0.228 -0.2882  0.3268  0.4880
 9515TIP3    H252741   6.465   5.720   0.083 -1.3856 -0.7636  0.3867
 9516TIP3   OH252742   0.701   4.817   0.291  0.3720  0.3767  0.1165
 9516TIP3    H152743   0.743   4.831   0.206  1.4142 -0.6925  0.4316
 9516TIP3    H252744   0.763   4.764   0.340 -0.3663  0.6986  1.4395
 9517TIP3   OH252745   5.330   1.551   1.085 -0.2441 -0.2211 -0.0548
 9517TIP3    H152746   5.329   1.528   1.178 -1.7018 -1.5968 -0.3633
 9517TIP3    H252747   5.419   1.582   1.069  0.4992 -1.4335  1.4549
 9518TIP3   OH252748   2.724   3.576   1.881 -0.0401 -0.7891  0.3932
 9518TIP3    H152749   2.694   3.513   1.946  1.2966 -0.9811  0.8630
 9518TIP3    H252750   2.797   3.532   1.837  0.7731  0.3175  0.5793
 9519TIP3   OH252751   0.593   5.773   0.352 -0.3037 -1.0550  0.2594
 9519TIP3    H152752   0.524   5.828   0.389 -1.3961 -2.1747 -0.0472
 9519TIP3    H252753   0.638   5.737   0.428 -0.0402 -0.3322  0.4618
 9520TIP3   OH252754   4.778   0.706   0.200  0.6712 -0.4747  0.0984
 9520TIP3    H152755   4.843   0.703   0.129 -1.0481  0.2173 -1.6104
 9520TIP3    H252756   4.694   0.699   0.155 -0.4994 -0.1269  2.1130
 9521TIP3   OH252757   0.572   7.205   2.152  0.2303 -0.1579  0.3099
 9521TIP3    H152758   0.546   7.114   2.166 -2.3577  0.5124  0.1978
 9521TIP3    H252759   0.491   7.255   2.159  1.5623  2.1448  0.2012
 9522TIP3   OH252760   4.572   2.995   1.508 -0.4787 -0.2958 -0.8994
 9522TIP3    H152761   4.613   3.014   1.593 -1.8615 -1.9591  0.2091
 9522TIP3    H252762   4.492   3.048   1.507 -0.7432 -0.6885 -0.9080
 9523TIP3   OH252763   5.027   0.852   1.061 -0.5192  0.1605 -0.2627
 9523TIP3    H152764   5.018   0.830   1.153 -1.0304 -0.2755 -0.4141
 9523TIP3    H252765   4.988   0.938   1.052  0.1992  0.5282  0.0636
 9524TIP3   OH252766   5.475   5.755   0.285 -0.2422  0.1049  0.0255
 9524TIP3    H152767   5.384   5.744   0.258  0.4176 -0.7845 -1.9909
 9524TIP3    H252768   5.481   5.847   0.311 -1.2091  0.7867 -1.9514
 9525TIP3   OH252769   0.150   0.026   8.448 -0.4111  0.5700  0.1310
 9525TIP3    H152770   0.063  -0.007   8.472 -1.1514  1.4395 -1.2242
 9525TIP3    H252771   0.210  -0.025   8.502 -1.7406 -0.1894  0.9717
 9526TIP3   OH252772   1.938   2.498   2.455 -0.3795 -0.3336 -0.2188
 9526TIP3    H152773   1.853   2.538   2.436  0.0507 -0.2891 -2.2582
 9526TIP3    H252774   1.974   2.553   2.525 -1.3979  0.5386 -0.3416
 9527TIP3   OH252775   6.279   3.167   8.200 -0.2171  0.0007 -0.3732
 9527TIP3    H152776   6.320   3.216   8.271 -0.2510 -1.1247  0.4572
 9527TIP3    H252777   6.308   3.211   8.121 -0.4563  1.5103  0.3360
 9528TIP3   OH252778   1.004   2.370   9.023 -0.2335 -0.5758 -0.2458
 9528TIP3    H152779   0.989   2.294   8.966  1.2637 -1.3028  0.2536
 9528TIP3    H252780   0.918   2.391   9.059 -0.6314 -2.2835 -0.1050
 9529TIP3   OH252781   0.959   7.141   8.185 -1.0980  0.4963  0.2170
 9529TIP3    H152782   0.960   7.198   8.262  0.3132 -0.6781  1.1555
 9529TIP3    H252783   0.869   7.141   8.155 -1.2564  2.6591  0.5795
 9530TIP3   OH252784   0.726   0.805   9.751  0.2508  0.3890  0.3565
 9530TIP3    H152785   0.718   0.718   9.789 -2.5829 -0.4536 -1.7951
 9530TIP3    H252786   0.807   0.802   9.700  0.5851 -0.7326  0.9248
 9531TIP3   OH252787   1.346   0.791   9.831  0.0389 -1.4395  0.2596
 9531TIP3    H152788   1.393   0.708   9.835 -1.2796 -2.1973  0.8056
 9531TIP3    H252789   1.337   0.817   9.923 -1.2415 -1.7058  0.2271
 9532TIP3   OH252790   7.253   0.828   0.081 -0.5971  0.1736  0.0829
 9532TIP3    H152791   7.183   0.877   0.124 -1.5527  0.2399 -1.4671
 9532TIP3    H252792   7.278   0.882   0.006 -1.0393 -1.2568 -1.1488
 9533TIP3   OH252793   1.855   5.163   9.247  0.0877 -0.0999  0.0434
 9533TIP3    H152794   1.909   5.164   9.168 -2.3759  2.3349 -1.7756
 9533TIP3    H252795   1.888   5.236   9.300 -0.0816  0.0536 -0.0641
 9534TIP3   OH252796   4.540   6.710   1.282 -0.0709  0.1778  0.5264
 9534TIP3    H152797   4.450   6.699   1.313 -1.2122  0.7993 -2.3082
 9534TIP3    H252798   4.558   6.632   1.230  0.2675  1.0044 -0.6182
 9535TIP3   OH252799   2.758   4.593   7.681 -0.2547  0.8845 -0.1301
 9535TIP3    H152800   2.838   4.552   7.648 -0.4433 -0.3719  0.9100
 9535TIP3    H252801   2.788   4.662   7.740  0.0580  1.8491 -1.3746
 9536TIP3   OH252802   6.003   0.890   2.051  0.3830  0.1888  0.1337
 9536TIP3    H152803   5.921   0.842   2.065 -1.0572  2.8019  1.3192
 9536TIP3    H252804   5.981   0.956   1.985  1.1394  1.7144  1.3579
 9537TIP3   OH252805   0.362   2.113   9.022 -0.0362  0.0804 -0.1887
 9537TIP3    H152806   0.272   2.137   9.043  0.0293 -1.9250  3.0874
 9537TIP3    H252807   0.355   2.031   8.974  0.0570  1.4240 -2.6572
 9538TIP3   OH252808   1.501   1.970   0.452 -0.2031 -0.3580 -0.4675
 9538TIP3    H152809   1.540   2.001   0.534  0.6198 -1.4578 -0.4083
 9538TIP3    H252810   1.455   1.890   0.476 -1.6940  0.3915 -0.7327
 9539TIP3   OH252811   0.829   1.132   8.599 -0.3603 -0.1321 -0.2552
 9539TIP3    H152812   0.899   1.136   8.535  0.3399  1.9027  0.5717
 9539TIP3    H252813   0.825   1.220   8.637 -0.1063 -1.4052  3.1457
 9540TIP3   OH252814   3.769   0.182   8.755 -0.4632 -0.4408 -0.9648
 9540TIP3    H152815   3.819   0.180   8.673 -0.8960  1.1696 -1.3222
 9540TIP3    H252816   3.809   0.115   8.810  1.4163  0.0771 -1.6269
 9541TIP3   OH252817   1.254   7.259   1.769 -0.2834 -0.0720  0.0383
 9541TIP3    H152818   1.259   7.324   1.839 -0.1868 -0.0684  0.0287
 9541TIP3    H252819   1.345   7.236   1.751 -0.2824  0.2047 -0.3394
 9542TIP3   OH252820   0.169   3.611   2.352 -0.1211  0.3376 -0.3959
 9542TIP3    H152821   0.233   3.676   2.382 -0.7521  0.7347  0.1192
 9542TIP3    H252822   0.088   3.636   2.395 -0.0335 -1.7669  1.1959
 9543TIP3   OH252823   6.470   0.977   0.595 -0.0047 -0.1900 -0.7731
 9543TIP3    H152824   6.523   0.966   0.516  0.3193 -0.6843 -0.4946
 9543TIP3    H252825   6.401   1.038   0.569 -0.9657 -1.6941 -1.9619
 9544TIP3   OH252826   1.042   3.069   9.162  0.2217 -0.0330  0.0722
 9544TIP3    H152827   1.072   2.979   9.151 -0.2539 -0.2908  0.7827
 9544TIP3    H252828   1.006   3.093   9.077  1.6270 -0.0161 -0.5340
 9545TIP3   OH252829   5.088   4.633   1.285  0.2032 -0.8916  0.1071
 9545TIP3    H152830   5.166   4.658   1.236  0.2408 -0.2821  0.4624
 9545TIP3    H252831   5.098   4.677   1.370 -0.0941 -1.5311  0.4814
 9546TIP3   OH252832   1.697   0.704   9.192 -0.1340 -0.2276  0.1212
 9546TIP3    H152833   1.759   0.707   9.265 -0.3064 -0.4706  0.2797
 9546TIP3    H252834   1.750   0.680   9.116  0.0961  0.3161  0.1101
 9547TIP3   OH252835   5.565   3.774   9.712 -0.0420  0.0344 -0.4729
 9547TIP3    H152836   5.634   3.776   9.645  0.0303  1.2174 -0.3886
 9547TIP3    H252837   5.495   3.722   9.672  0.4995 -0.3319 -0.9651
 9548TIP3   OH252838   2.126   5.906   1.634  0.0920 -0.1156 -0.8065
 9548TIP3    H152839   2.151   5.835   1.575  1.1031 -0.6208  0.1983
 9548TIP3    H252840   2.042   5.878   1.670  0.7966 -1.1802  0.1044
 9549TIP3   OH252841   0.523   4.346   9.736  0.5351  0.8703 -0.2845
 9549TIP3    H152842   0.550   4.417   9.678  1.1543  0.9331  0.0633
 9549TIP3    H252843   0.428   4.353   9.740  0.4824  0.8152 -1.3381
 9550TIP3   OH252844   4.508   3.762   2.000  0.6287  0.1894 -0.0615
 9550TIP3    H152845   4.466   3.687   2.043 -0.2338  0.6796 -0.0363
 9550TIP3    H252846   4.602   3.749   2.017  0.5939 -1.3743 -0.8409
 9551TIP3   OH252847   1.714   4.646   8.318 -0.1653  0.3239  0.1191
 9551TIP3    H152848   1.640   4.596   8.353 -0.4235 -0.4198 -1.3935
 9551TIP3    H252849   1.786   4.629   8.379 -0.5124 -1.1518  0.1603
 9552TIP3   OH252850   2.835   5.597   6.649 -0.2936 -0.0104  0.2486
 9552TIP3    H152851   2.758   5.540   6.644 -0.5936  0.3292  0.8669
 9552TIP3    H252852   2.801   5.684   6.628 -0.0031  0.0783  0.1472
 9553TIP3   OH252853   3.968   5.233   2.088 -0.7018 -0.1790  0.2686
 9553TIP3    H152854   3.883   5.201   2.058 -1.6112  2.4729 -0.2067
 9553TIP3    H252855   3.964   5.327   2.076  2.4611  0.0153 -0.0971
 9554TIP3   OH252856   1.601   2.528   8.799  0.4552  0.3602  0.3996
 9554TIP3    H152857   1.594   2.582   8.877  1.8765 -0.1538  0.9101
 9554TIP3    H252858   1.652   2.452   8.826 -0.5973 -0.7240 -0.5755
 9555TIP3   OH252859   4.441   1.910   0.276  0.3527  0.2987 -0.1541
 9555TIP3    H152860   4.496   1.978   0.237 -1.2229  0.4452 -2.2714
 9555TIP3    H252861   4.430   1.845   0.207 -3.2451  0.9649 -0.4049
 9556TIP3   OH252862   4.183   5.440   2.241  0.4647 -0.1769 -0.0908
 9556TIP3    H152863   4.221   5.391   2.314  2.5145  0.5185 -0.6177
 9556TIP3    H252864   4.139   5.514   2.282 -0.1387 -0.8675  0.5355
 9557TIP3   OH252865   1.961   3.721   8.324 -0.2394 -0.2352  0.4421
 9557TIP3    H152866   1.982   3.627   8.328 -1.0199 -0.3848  1.3323
 9557TIP3    H252867   1.945   3.738   8.231  3.0402 -0.2507 -0.2276
 9558TIP3   OH252868   2.230   5.153   6.860 -0.3277 -0.0915  0.2071
 9558TIP3    H152869   2.310   5.199   6.832  0.4505 -0.1760  2.1393
 9558TIP3    H252870   2.161   5.190   6.805  1.1033 -0.4757 -1.9719
 9559TIP3   OH252871   0.614   1.135   8.303 -0.5067 -0.2081 -0.4353
 9559TIP3    H152872   0.604   1.229   8.315 -2.4766 -0.3172 -0.8308
 9559TIP3    H252873   0.535   1.109   8.256 -0.2345 -2.1409  0.1030
 9560TIP3   OH252874   2.689   5.807   1.396 -0.3343 -0.0971 -0.2968
 9560TIP3    H152875   2.696   5.833   1.305  1.0262  1.0114  0.0930
 9560TIP3    H252876   2.715   5.715   1.397 -0.2453 -0.0801 -1.0110
 9561TIP3   OH252877   2.080   1.508   2.221 -0.6902  0.0416 -0.1616
 9561TIP3    H152878   2.057   1.489   2.129  0.8546 -0.1060 -0.5356
 9561TIP3    H252879   2.159   1.456   2.237 -1.9905 -1.4693  1.8746
 9562TIP3   OH252880   5.677   5.090   1.416  0.5168  0.3296  0.4333
 9562TIP3    H152881   5.706   5.059   1.330  0.5516 -0.3235  0.6716
 9562TIP3    H252882   5.756   5.128   1.456  0.4472  0.8444  0.0911
 9563TIP3   OH252883   0.923   1.815   8.694  0.5784 -0.6601  0.0843
 9563TIP3    H152884   0.968   1.793   8.613  2.5053 -0.2412  0.9808
 9563TIP3    H252885   0.993   1.825   8.758 -0.6258  1.8821  1.1504
 9564TIP3   OH252886   4.381   2.936   9.797 -0.1448  0.5348 -0.7088
 9564TIP3    H152887   4.448   2.875   9.765 -0.2777  0.8187 -1.5580
 9564TIP3    H252888   4.390   3.013   9.741 -0.5276  0.9670 -0.1826
 9565TIP3   OH252889   5.791   1.039   2.570 -0.1838  0.5577 -0.0406
 9565TIP3    H152890   5.839   1.102   2.624  0.0821  0.6091 -0.3393
 9565TIP3    H252891   5.859   0.990   2.523 -0.3440 -0.5238  0.8133
 9566TIP3   OH252892   1.644   1.525   1.517 -0.1788 -0.0649  0.3547
 9566TIP3    H152893   1.728   1.486   1.541  0.0303  0.7866  1.0410
 9566TIP3    H252894   1.665   1.589   1.448 -0.4008 -0.5149 -0.1404
 9567TIP3   OH252895   0.123   2.620   1.637  0.5678 -0.4966  0.6163
 9567TIP3    H152896   0.034   2.590   1.624  0.7415 -1.6808  1.9538
 9567TIP3    H252897   0.166   2.605   1.552  0.2542 -2.6936  0.8019
 9568TIP3   OH252898   6.410   0.888   8.456  0.3543  0.0707  0.0456
 9568TIP3    H152899   6.327   0.922   8.490  0.6543 -0.2407  1.1465
 9568TIP3    H252900   6.463   0.966   8.441 -0.3230  0.3099 -1.2142
 9569TIP3   OH252901   1.532   6.812   0.134 -0.0515  0.6900  0.3108
 9569TIP3    H152902   1.620   6.793   0.101 -0.0773 -0.3523  0.7861
 9569TIP3    H252903   1.538   6.792   0.228 -0.8017  0.5800  0.3366
 9570TIP3   OH252904   3.463   4.932   3.031  0.8106  0.1513 -0.3985
 9570TIP3    H152905   3.375   4.968   3.039  0.1192 -1.3135 -1.0748
 9570TIP3    H252906   3.500   4.975   2.954 -0.6267 -1.6891 -2.2315
 9571TIP3   OH252907   4.139   1.612   9.455  0.0958  0.3071 -0.1905
 9571TIP3    H152908   4.105   1.637   9.541  2.2739  0.8196  0.6047
 9571TIP3    H252909   4.112   1.521   9.444 -1.3961  0.6611  0.3972
 9572TIP3   OH252910   4.261   5.966   0.889  0.0764  0.1535 -0.2261
 9572TIP3    H152911   4.217   6.036   0.841 -0.0986  0.1580 -0.0621
 9572TIP3    H252912   4.286   6.006   0.972 -0.3235 -0.0722  0.0032
 9573TIP3   OH252913   4.805   0.165   8.192 -0.1886 -0.6295 -0.3427
 9573TIP3    H152914   4.876   0.194   8.134 -0.9206  0.6212 -0.6389
 9573TIP3    H252915   4.733   0.225   8.174 -1.2407 -1.7146  0.1552
 9574TIP3   OH252916   6.576   0.693   0.402  0.0919 -0.1040  0.1658
 9574TIP3    H152917   6.572   0.615   0.346 -0.6707 -0.3293  0.5312
 9574TIP3    H252918   6.515   0.675   0.473 -1.5357  1.5970 -0.7340
 9575TIP3   OH252919   0.368   7.412   7.942  0.7915  0.2158 -0.2775
 9575TIP3    H152920   0.294   7.391   7.885  1.0236 -0.5038 -0.3218
 9575TIP3    H252921   0.327   7.432   8.026  0.4793  0.8175 -0.5658
 9576TIP3   OH252922   3.069   2.906   9.992 -0.2026 -0.1977 -0.5741
 9576TIP3    H152923   3.114   2.990   9.979 -0.3448  0.0061  0.1729
 9576TIP3    H252924   3.098   2.851   9.919  0.5512  0.2251 -0.6002
 9577TIP3   OH252925   4.651   0.158   9.173 -0.1545 -0.0021 -0.0149
 9577TIP3    H152926   4.731   0.167   9.122 -1.3588  1.7040 -1.7554
 9577TIP3    H252927   4.589   0.116   9.113 -0.5593 -1.4051  1.3377
 9578TIP3   OH252928   1.013   5.133   7.899  0.5498  0.8671 -0.5512
 9578TIP3    H152929   1.017   5.052   7.950 -1.7931  0.2868 -1.1657
 9578TIP3    H252930   1.066   5.195   7.948  0.7578 -0.4869  1.0136
 9579TIP3   OH252931   5.363   0.621   8.616 -0.2677  0.4691 -0.2411
 9579TIP3    H152932   5.277   0.580   8.626 -0.2930  0.4071 -0.6620
 9579TIP3    H252933   5.354   0.677   8.539  0.2523 -0.0439 -0.6934
 9580TIP3   OH252934   4.078   4.123   0.200  0.0711 -0.0998 -0.9677
 9580TIP3    H152935   4.084   4.110   0.295  0.0847 -0.4177 -1.0131
 9580TIP3    H252936   3.988   4.101   0.178 -0.2312  0.9816 -0.8743
 9581TIP3   OH252937   1.666   3.499   0.403  0.3198 -0.3172 -0.4180
 9581TIP3    H152938   1.668   3.430   0.338 -0.8504 -0.7127 -0.0598
 9581TIP3    H252939   1.698   3.577   0.357 -0.2972 -0.6326 -1.4005
 9582TIP3   OH252940   5.074   3.137   8.568 -0.2647 -0.1027  0.4255
 9582TIP3    H152941   5.050   3.130   8.660 -1.5837  0.9950  0.1992
 9582TIP3    H252942   5.159   3.182   8.569 -0.7206  0.7760  1.0890
 9583TIP3   OH252943   3.236   6.340   0.884  0.1347 -0.0418  0.0663
 9583TIP3    H152944   3.324   6.307   0.864  0.1491  0.0784 -0.0712
 9583TIP3    H252945   3.222   6.318   0.976  0.2895 -0.1043  0.0749
 9584TIP3   OH252946   2.752   5.204   7.546  0.2898 -0.1466  0.3769
 9584TIP3    H152947   2.790   5.290   7.526  0.3261 -0.5339 -1.3435
 9584TIP3    H252948   2.817   5.141   7.515 -1.3296 -0.8090 -1.8618
 9585TIP3   OH252949   2.715   3.052   9.655  0.5068 -0.1765  0.3251
 9585TIP3    H152950   2.742   3.082   9.742 -1.4153 -0.0134  0.9033
 9585TIP3    H252951   2.758   2.967   9.646  0.2611 -0.4854  1.7114
 9586TIP3   OH252952   1.798   4.430   0.007  0.0196 -0.3521  0.1753
 9586TIP3    H152953   1.827   4.518   0.032 -1.7552  0.4624 -0.4517
 9586TIP3    H252954   1.802   4.379   0.088 -0.3523  0.7365  0.9049
 9587TIP3   OH252955   6.248   2.407   9.539 -0.0792 -0.1826  0.3536
 9587TIP3    H152956   6.321   2.375   9.592  0.8086  2.2004  0.6810
 9587TIP3    H252957   6.179   2.426   9.603  0.7152  1.9451  0.6569
 9588TIP3   OH252958   6.269   2.889   1.291  0.0471 -0.4268 -0.3237
 9588TIP3    H152959   6.179   2.919   1.303  0.1647  0.2145 -0.9620
 9588TIP3    H252960   6.265   2.827   1.219 -0.0115 -1.0411  0.2070
 9589TIP3   OH252961   3.014   2.522   8.427 -0.1324 -0.4257 -0.5606
 9589TIP3    H152962   3.029   2.438   8.384  1.1417 -0.6087  0.1935
 9589TIP3    H252963   2.975   2.577   8.359 -0.2427 -1.3795 -1.2879
 9590TIP3   OH252964   3.919   0.104   9.641  0.4245  0.0897  0.4042
 9590TIP3    H152965   3.860   0.147   9.704  0.1869 -2.7630  2.3433
 9590TIP3    H252966   3.863   0.083   9.566 -0.1946  0.4348  0.7609
 9591TIP3   OH252967   3.220   5.579   9.154 -0.3169 -0.3253 -0.3415
 9591TIP3    H152968   3.275   5.624   9.089  1.7684 -0.1425  1.4477
 9591TIP3    H252969   3.219   5.637   9.229 -0.7806 -1.5392  0.6257
 9592TIP3   OH252970   1.423   1.308   2.963 -0.3281  0.8395  0.1849
 9592TIP3    H152971   1.350   1.251   2.940 -0.8455  1.2836  0.6730
 9592TIP3    H252972   1.381   1.383   3.007  0.2566  1.9220 -1.0274
 9593TIP3   OH252973   1.023   2.660   8.619  0.4664  0.1647  0.2891
 9593TIP3    H152974   0.962   2.641   8.548 -0.7943  0.9766  1.1112
 9593TIP3    H252975   1.108   2.633   8.586 -0.0620  0.6825 -1.5949
 9594TIP3   OH252976   0.463   4.908   9.288  0.0853  0.2789  0.1146
 9594TIP3    H152977   0.384   4.867   9.323 -0.2438  1.3827  0.7193
 9594TIP3    H252978   0.489   4.852   9.215 -0.7865 -0.5543  0.4221
 9595TIP3   OH252979   1.991   2.828   2.355 -0.3658  0.3044  0.4635
 9595TIP3    H152980   1.925   2.762   2.379  1.7762 -0.9626  3.5227
 9595TIP3    H252981   1.988   2.892   2.426  0.7829  0.8989  0.0023
 9596TIP3   OH252982   3.931   5.807   8.777 -0.0420 -0.0010 -0.0338
 9596TIP3    H152983   3.942   5.895   8.813  0.8984  0.7073 -1.8987
 9596TIP3    H252984   3.885   5.821   8.694  1.9001 -0.9732 -1.3510
 9597TIP3   OH252985   2.016   6.828   1.979  0.0759  0.1591 -0.6320
 9597TIP3    H152986   2.055   6.746   1.950 -1.1405  0.0863 -2.1972
 9597TIP3    H252987   2.020   6.885   1.902  0.5992  1.4616  0.3265
 9598TIP3   OH252988   4.760   3.887   2.291  0.1357 -0.1209  0.0828
 9598TIP3    H152989   4.671   3.855   2.305  1.2475 -3.6095  0.0481
 9598TIP3    H252990   4.773   3.953   2.360 -2.8163  1.4579 -0.7221
 9599TIP3   OH252991   2.584   2.704   8.304  0.1839  0.2399  0.6182
 9599TIP3    H152992   2.655   2.651   8.269  0.7386  1.0932  0.4312
 9599TIP3    H252993   2.581   2.683   8.397  0.2986 -0.2227  0.5201
 9600TIP3   OH252994   3.675   3.904   2.704 -0.1219 -0.3728  0.0074
 9600TIP3    H152995   3.690   3.998   2.713 -3.4017  0.3495 -0.7761
 9600TIP3    H252996   3.738   3.876   2.638 -0.2793  1.6891 -1.1042
 9601TIP3   OH252997   5.700   1.800   1.542 -0.2819 -0.0820 -0.2236
 9601TIP3    H152998   5.636   1.867   1.519 -1.3684 -0.4684  1.4819
 9601TIP3    H252999   5.750   1.785   1.462 -1.4638  1.1756 -1.2309
 9602TIP3   OH253000   0.362   2.983   9.665  0.4694  0.4088 -0.4144
 9602TIP3    H153001   0.433   3.040   9.694  0.6563 -0.3703  0.7548
 9602TIP3    H253002   0.390   2.951   9.579  1.0371  0.9195 -0.4259
 9603TIP3   OH253003   3.853   4.575   9.620  0.2760 -0.0109 -0.3656
 9603TIP3    H153004   3.770   4.529   9.617 -0.4068  1.1358  0.1264
 9603TIP3    H253005   3.829   4.667   9.633  1.5541  0.5866 -1.8530
 9604TIP3   OH253006   0.082   4.304   0.746 -0.4861 -0.2071  0.8236
 9604TIP3    H153007   0.158   4.327   0.692 -1.2338  1.0751  0.2758
 9604TIP3    H253008   0.016   4.276   0.683 -2.0703  3.2099  0.7356
 9605TIP3   OH253009   5.090   6.256   9.607  0.7006 -0.2984 -0.4282
 9605TIP3    H153010   5.087   6.176   9.659 -0.8808  0.9155  1.5195
 9605TIP3    H253011   5.163   6.306   9.644 -0.7675  0.8089  1.1629
 9606TIP3   OH253012   1.248   6.832   7.772 -0.1120  0.3605  0.2149
 9606TIP3    H153013   1.266   6.848   7.679 -0.6240 -0.5868 -0.0541
 9606TIP3    H253014   1.334   6.820   7.812  0.0894  0.4037 -0.2047
 9607TIP3   OH253015   4.888   1.140   1.058 -0.0076 -0.1643  0.9049
 9607TIP3    H153016   4.874   1.233   1.037  0.9489 -0.3959 -0.9589
 9607TIP3    H253017   4.839   1.127   1.139  0.3601  2.1199  1.5836
 9608TIP3   OH253018   4.831   0.541   8.112 -0.2171  0.0905  0.6609
 9608TIP3    H153019   4.874   0.607   8.058  0.0331 -0.7571 -0.1971
 9608TIP3    H253020   4.886   0.463   8.104 -2.1291 -1.1906 -0.8974
 9609TIP3   OH253021   2.109   4.351   6.693  0.0480  0.1823  0.1811
 9609TIP3    H153022   2.026   4.312   6.665 -0.3108  0.7927  0.3882
 9609TIP3    H253023   2.094   4.445   6.689  0.7004  0.2960  0.3257
 9610TIP3   OH253024   1.904   4.048   0.190  0.4368  0.2490  0.0984
 9610TIP3    H153025   1.845   4.009   0.126  0.8648  0.9785 -0.7701
 9610TIP3    H253026   1.992   4.025   0.158  0.6777  1.3869 -0.1022
 9611TIP3   OH253027   0.826   3.428   9.834  0.3026  0.3712 -0.2125
 9611TIP3    H153028   0.921   3.419   9.823  0.2698  1.4437 -1.5299
 9611TIP3    H253029   0.802   3.355   9.891  1.8522 -0.1733 -0.2128
 9612TIP3   OH253030   0.869   3.340   1.103 -0.5990  0.1912  0.6649
 9612TIP3    H153031   0.810   3.415   1.095 -1.5857 -0.7562 -1.8153
 9612TIP3    H253032   0.811   3.264   1.106  0.3746 -0.8053 -2.2485
 9613TIP3   OH253033   1.959   1.874   2.064  0.4187  0.2241 -0.2168
 9613TIP3    H153034   2.026   1.901   2.002  0.4970  0.1934 -0.1460
 9613TIP3    H253035   1.980   1.921   2.145 -0.2093  0.9675 -0.4744
 9614TIP3   OH253036   7.363   7.393   8.514  0.3966 -0.3295  0.2308
 9614TIP3    H153037   7.346   7.304   8.545 -1.6588  0.4751  1.6445
 9614TIP3    H253038   7.334   7.393   8.423  0.7067 -1.1653  0.1223
 9615TIP3   OH253039   2.431   3.654   9.011 -0.3172 -0.5019  0.0022
 9615TIP3    H153040   2.372   3.708   9.063  1.1222 -0.7089  1.9578
 9615TIP3    H253041   2.472   3.595   9.074  0.1058 -2.1062 -1.6779
 9616TIP3   OH253042   4.743   3.037   8.169 -0.4739  0.3524  0.4061
 9616TIP3    H153043   4.654   3.072   8.166 -0.9906 -0.9828 -0.6304
 9616TIP3    H253044   4.797   3.107   8.132 -0.9308  1.5141  1.8301
 9617TIP3   OH253045   0.097   3.975   0.619  0.1637 -0.6233  0.5524
 9617TIP3    H153046   0.147   4.045   0.577 -2.8070  1.6225  0.3760
 9617TIP3    H253047   0.154   3.941   0.687  1.7410  2.0575  0.6935
 9618TIP3   OH253048   6.289   5.164   0.784 -0.2363 -0.3450  0.2106
 9618TIP3    H153049   6.318   5.083   0.741 -1.0981 -0.5623  0.0183
 9618TIP3    H253050   6.246   5.135   0.864  1.2945  0.0574  1.2190
 9619TIP3   OH253051   5.298   1.954   7.695  0.5583 -0.6669 -0.2406
 9619TIP3    H153052   5.343   1.945   7.779  0.1158  0.7083  0.1635
 9619TIP3    H253053   5.228   2.017   7.711 -1.7279 -2.8961 -0.7728
 9620TIP3   OH253054   2.460   3.715   1.876 -0.0106  0.0133 -0.1116
 9620TIP3    H153055   2.542   3.694   1.921  0.8438 -0.8194 -1.9566
 9620TIP3    H253056   2.485   3.778   1.809 -0.2385 -2.2767 -2.5377
 9621TIP3   OH253057   3.115   6.342   1.847  0.2036  0.3179 -0.3364
 9621TIP3    H153058   3.040   6.400   1.834 -0.7944 -0.5213  1.4080
 9621TIP3    H253059   3.105   6.308   1.936  2.0892 -0.6487 -0.4306
 9622TIP3   OH253060   0.639   6.521   2.084 -0.0483  0.0674 -0.9143
 9622TIP3    H153061   0.640   6.558   2.172 -2.2919  1.2075 -1.3070
 9622TIP3    H253062   0.719   6.556   2.043  0.8054 -0.1437  0.4911
 9623TIP3   OH253063   2.811   6.905   7.827  0.3989  0.2680  0.0962
 9623TIP3    H153064   2.786   6.902   7.734  0.0277  0.7159  0.1805
 9623TIP3    H253065   2.800   6.814   7.857  2.2486 -0.2905 -0.7285
 9624TIP3   OH253066   0.041   6.677   8.425  0.6093 -0.0485 -0.3865
 9624TIP3    H153067   0.059   6.734   8.350  0.8061 -0.4811 -0.6679
 9624TIP3    H253068  -0.037   6.628   8.401 -0.3162  0.9905  0.3668
 9625TIP3   OH253069   3.075   5.838   1.086  0.1316 -0.0031  0.4510
 9625TIP3    H153070   3.137   5.902   1.050 -0.4963  0.5080  0.2536
 9625TIP3    H253071   3.097   5.832   1.178 -0.3177  1.1239  0.6469
 9626TIP3   OH253072   3.459   2.098   0.861 -0.7274 -0.2359 -0.4390
 9626TIP3    H153073   3.366   2.116   0.850 -0.4648  1.1751 -0.5352
 9626TIP3    H253074   3.499   2.128   0.780 -0.1623 -0.6048 -0.2985
 9627TIP3   OH253075   1.741   0.016   0.219  0.5700 -0.1804 -0.3388
 9627TIP3    H153076   1.791  -0.058   0.185  0.3099 -0.4006 -0.2502
 9627TIP3    H253077   1.687   0.044   0.146  0.5730 -0.1638 -0.3345
 9628TIP3   OH253078   0.563   4.683   9.731 -0.0948 -0.1735  0.4118
 9628TIP3    H153079   0.500   4.750   9.706 -0.7446 -0.4463  1.2410
 9628TIP3    H253080   0.598   4.650   9.649  0.1125  1.0532 -0.0136
 9629TIP3   OH253081   2.057   4.041   8.676 -0.2018 -0.0839 -0.5731
 9629TIP3    H153082   2.086   3.958   8.639  0.4743 -0.4691  0.7745
 9629TIP3    H253083   2.128   4.069   8.733 -0.8306  0.9374 -0.2504
 9630TIP3   OH253084   7.033   5.939   8.812 -0.3449  0.2206 -0.0589
 9630TIP3    H153085   6.955   5.887   8.795  1.0610 -1.4533 -1.7615
 9630TIP3    H253086   7.071   5.957   8.726  2.4645 -1.2178  0.7320
 9631TIP3   OH253087   5.884   7.010   1.180  0.5348 -0.3785  0.0348
 9631TIP3    H153088   5.845   7.027   1.095  0.4816 -0.3125  0.0728
 9631TIP3    H253089   5.859   6.919   1.200  1.2426 -0.6816 -0.3968
 9632TIP3   OH253090   6.912   4.867   0.785  0.3498  0.1250  0.4878
 9632TIP3    H153091   6.827   4.885   0.745  0.7024 -1.6491 -1.2098
 9632TIP3    H253092   6.976   4.906   0.725  0.8113 -0.5644  0.5110
 9633TIP3   OH253093   3.696   5.295   8.786  0.0655 -0.7432  0.6276
 9633TIP3    H153094   3.626   5.344   8.829 -0.0076 -0.9071  0.6986
 9633TIP3    H253095   3.650   5.223   8.741 -0.2765  1.1967 -2.4450
 9634TIP3   OH253096   1.904   4.599   8.502  0.3267 -0.3232 -0.2597
 9634TIP3    H153097   1.846   4.600   8.578  0.4462  0.1827 -0.1737
 9634TIP3    H253098   1.989   4.574   8.536  0.7784  1.5331  0.0720
 9635TIP3   OH253099   2.245   6.503   8.963 -0.0839 -0.0124  0.3567
 9635TIP3    H153100   2.196   6.433   8.920 -1.3240  1.4917 -0.8445
 9635TIP3    H253101   2.185   6.536   9.030 -0.0184  0.6763  0.0871
 9636TIP3   OH253102   4.653   1.388   7.362  0.4051  0.5511  0.0612
 9636TIP3    H153103   4.724   1.449   7.382  2.9880 -2.7609  2.0421
 9636TIP3    H253104   4.679   1.347   7.280 -1.6240  2.3221 -1.5861
 9637TIP3   OH253105   5.235   6.162   2.676  0.1092  0.0143 -0.0963
 9637TIP3    H153106   5.189   6.079   2.687  0.9521 -0.9839 -3.0546
 9637TIP3    H253107   5.177   6.228   2.714 -1.8537 -1.6228 -0.1227
 9638TIP3   OH253108   3.621   7.413   8.265 -0.1650 -0.0641  0.3333
 9638TIP3    H153109   3.602   7.320   8.258 -0.6617 -0.2305  2.8143
 9638TIP3    H253110   3.540   7.451   8.299  0.4736  1.0483  0.6694
 9639TIP3   OH253111   5.760   6.268   7.958 -0.2170  0.6624  0.3692
 9639TIP3    H153112   5.669   6.259   7.987 -0.7105 -0.6918 -1.4391
 9639TIP3    H253113   5.755   6.310   7.872  0.5902 -1.9172 -1.0338
 9640TIP3   OH253114   3.415   4.364   1.704  0.7190 -0.0340 -0.0238
 9640TIP3    H153115   3.333   4.378   1.751  1.1554 -1.3462  1.1929
 9640TIP3    H253116   3.479   4.420   1.749  0.6134  0.6077 -0.6552
 9641TIP3   OH253117   5.295   6.661   8.059 -0.1260 -0.0264 -0.1543
 9641TIP3    H153118   5.386   6.667   8.030 -0.0712  1.7592  0.2544
 9641TIP3    H253119   5.300   6.613   8.142  0.5451  0.5969  0.1844
 9642TIP3   OH253120   0.424   7.264   7.571 -0.3449  0.5310 -0.0851
 9642TIP3    H153121   0.430   7.360   7.573 -0.8530  0.6436 -1.9235
 9642TIP3    H253122   0.373   7.245   7.492 -0.3459 -1.2616  0.3025
 9643TIP3   OH253123   2.994   7.046   0.346 -0.0434  0.0738 -0.1599
 9643TIP3    H153124   3.071   7.063   0.291 -1.4962  1.2993 -1.9820
 9643TIP3    H253125   2.969   6.956   0.325  0.5617 -0.1480  0.0402
 9644TIP3   OH253126   2.776   2.812   9.042  0.2680  0.2139 -0.3405
 9644TIP3    H153127   2.764   2.808   9.136 -1.4951 -0.6474 -0.5594
 9644TIP3    H253128   2.687   2.822   9.007  0.9345  1.1273 -1.8844
 9645TIP3   OH253129   6.183   1.770   1.766  0.4456  0.2690 -0.3488
 9645TIP3    H153130   6.264   1.795   1.811  1.6531 -1.4410 -1.4801
 9645TIP3    H253131   6.196   1.797   1.676  0.1554 -0.8420 -0.7367
 9646TIP3   OH253132   3.772   4.645   2.083 -0.2727 -0.3869 -0.6376
 9646TIP3    H153133   3.829   4.652   2.159  0.1425 -4.5574 -0.3719
 9646TIP3    H253134   3.820   4.588   2.022 -4.0365 -4.4283 -0.2764
 9647TIP3   OH253135   3.185   2.453   0.455  0.1863 -0.1326  0.4464
 9647TIP3    H153136   3.162   2.539   0.420  0.3662  0.4603  1.7229
 9647TIP3    H253137   3.152   2.391   0.390 -2.9028  0.7629  0.9702
 9648TIP3   OH253138   2.744   5.440   1.764 -0.1910  0.8401 -0.2729
 9648TIP3    H153139   2.728   5.414   1.855 -0.7100  0.7656 -0.3832
 9648TIP3    H253140   2.752   5.356   1.717 -2.9654  0.7787 -0.8302
 9649TIP3   OH253141   2.874   6.353   7.579  0.1158 -0.3660  0.4424
 9649TIP3    H153142   2.956   6.358   7.628 -0.2265  0.2999  0.9744
 9649TIP3    H253143   2.898   6.382   7.491  0.1144  1.6839  1.0637
 9650TIP3   OH253144   3.538   4.105   0.753 -0.5625  0.0997 -0.1426
 9650TIP3    H153145   3.588   4.091   0.833  0.6923 -0.2936 -0.9662
 9650TIP3    H253146   3.545   4.200   0.738 -0.6510  0.1486  0.1187
 9651TIP3   OH253147   3.330   0.661   0.003 -0.0222 -0.4412  0.4424
 9651TIP3    H153148   3.274   0.735  -0.019  1.7951  1.0344  0.5910
 9651TIP3    H253149   3.271   0.597   0.044 -2.2149 -0.4324 -2.4365
 9652TIP3   OH253150   2.348   0.779   8.635  0.6852  0.1829 -0.5051
 9652TIP3    H153151   2.255   0.801   8.626  0.5300  1.2849  2.6505
 9652TIP3    H253152   2.390   0.820   8.559 -1.1466  1.5000 -0.8796
 9653TIP3   OH253153   2.807   7.029   0.040 -0.0485 -0.5288  0.0528
 9653TIP3    H153154   2.747   6.965   0.077 -0.1820  1.1213  2.9344
 9653TIP3    H253155   2.894   6.998   0.064  0.0953 -1.1485 -1.1856
 9654TIP3   OH253156   1.332   0.666   1.579 -0.6525 -0.3903  0.3840
 9654TIP3    H153157   1.415   0.660   1.531 -1.2861 -2.6080 -0.5742
 9654TIP3    H253158   1.333   0.591   1.639 -2.3998 -1.1197 -0.4261
 9655TIP3   OH253159   1.356   1.330   6.870 -0.1410 -0.8121  0.2890
 9655TIP3    H153160   1.402   1.262   6.920 -1.3528 -2.7110 -1.0633
 9655TIP3    H253161   1.293   1.283   6.816 -1.4399  1.4493 -0.3326
 9656TIP3   OH253162   0.703   5.070   9.682 -0.4805  0.5448 -0.1936
 9656TIP3    H153163   0.644   5.121   9.737 -0.2885  0.3425  0.1999
 9656TIP3    H253164   0.664   5.075   9.594 -0.8934  0.6985 -0.0029
 9657TIP3   OH253165   0.664   6.645   2.329  0.6153 -0.5916 -0.9316
 9657TIP3    H153166   0.684   6.581   2.398 -1.8312 -0.9816 -0.4821
 9657TIP3    H253167   0.737   6.706   2.332  1.1926 -1.2722  1.2115
 9658TIP3   OH253168   6.828   7.376   0.454  0.2717 -0.2104 -0.1339
 9658TIP3    H153169   6.778   7.424   0.388 -0.4490  2.3381  2.0743
 9658TIP3    H253170   6.885   7.442   0.494  0.4064 -1.5355  2.0049
 9659TIP3   OH253171   4.107   4.161   2.714  0.0753 -0.2391  0.2871
 9659TIP3    H153172   4.079   4.122   2.797  0.4328  1.4429  1.2501
 9659TIP3    H253173   4.029   4.201   2.678 -0.2630 -1.6428 -0.6408
 9660TIP3   OH253174   3.831   1.380   9.560  0.4470 -0.2258 -0.2512
 9660TIP3    H153175   3.842   1.411   9.650  1.5094 -0.2796 -0.3538
 9660TIP3    H253176   3.737   1.363   9.553  0.7815 -4.2437  2.1731
 9661TIP3   OH253177   5.605   4.697   2.328  0.1244  0.0049 -0.4020
 9661TIP3    H153178   5.654   4.616   2.319 -0.5086 -0.4972  0.5369
 9661TIP3    H253179   5.513   4.670   2.323 -0.1493  0.3914  1.6548
 9662TIP3   OH253180   1.475   2.634   0.695 -0.7028 -0.3369 -0.0971
 9662TIP3    H153181   1.388   2.601   0.716 -0.4809 -1.3389 -0.6857
 9662TIP3    H253182   1.535   2.569   0.732 -0.1710  0.7078  0.9393
 9663TIP3   OH253183   0.210   1.210   1.378  0.2479  0.4917  0.5215
 9663TIP3    H153184   0.239   1.135   1.430 -1.2535  0.6131  1.6081
 9663TIP3    H253185   0.221   1.182   1.287  1.5294 -0.2893  0.8916
 9664TIP3   OH253186   3.691   3.992   9.990  0.6032 -0.2967  0.1594
 9664TIP3    H153187   3.729   4.067  10.035  0.1345  0.0782 -0.0659
 9664TIP3    H253188   3.623   3.960  10.049 -0.3193  0.4695 -0.4656
 9665TIP3   OH253189   6.886   4.323   0.475 -0.7108  0.4851  0.2054
 9665TIP3    H153190   6.914   4.234   0.454 -1.2549  0.6849 -1.4946
 9665TIP3    H253191   6.863   4.362   0.391 -1.7509  1.8077  1.0591
 9666TIP3   OH253192   1.577   0.120   9.584  0.1505  0.2855 -0.1908
 9666TIP3    H153193   1.625   0.203   9.587 -3.1948  2.3931  1.6229
 9666TIP3    H253194   1.486   0.146   9.574 -0.8615 -3.3936 -2.4569
 9667TIP3   OH253195   2.553   0.036   8.517  0.0769  0.2453 -0.0056
 9667TIP3    H153196   2.564   0.093   8.593 -1.3980  0.4963  0.0510
 9667TIP3    H253197   2.466   0.057   8.484 -0.7906 -2.4015  0.3858
 9668TIP3   OH253198   4.341   6.198   7.590  0.1843  0.6366 -0.2098
 9668TIP3    H153199   4.351   6.152   7.674  1.5819  3.3076  1.2009
 9668TIP3    H253200   4.266   6.255   7.602  0.0219  0.5991 -1.0016
 9669TIP3   OH253201   5.571   6.119   8.199 -0.2262  0.1710  0.8128
 9669TIP3    H153202   5.523   6.189   8.156  2.1726  1.6556  0.3786
 9669TIP3    H253203   5.629   6.164   8.261 -0.1403 -1.5959  2.0936
 9670TIP3   OH253204   4.860   2.915   0.623  0.3919 -1.1403  0.4915
 9670TIP3    H153205   4.940   2.950   0.586  0.5648 -0.7051  1.2583
 9670TIP3    H253206   4.877   2.821   0.633 -0.3486 -1.6396 -2.2717
 9671TIP3   OH253207   3.847   7.440   1.206  0.4636 -0.1021 -0.0182
 9671TIP3    H153208   3.782   7.503   1.174  2.0027  2.0067  0.7804
 9671TIP3    H253209   3.885   7.402   1.126 -2.1656 -1.9503 -0.5056
 9672TIP3   OH253210   5.124   1.757   0.451  0.2389 -0.2670  0.1490
 9672TIP3    H153211   5.177   1.811   0.392 -0.1086  1.1871  1.1206
 9672TIP3    H253212   5.035   1.764   0.416 -0.3264  2.1577  1.8091
 9673TIP3   OH253213   1.328   2.398   1.238 -0.5498  0.0769  0.0866
 9673TIP3    H153214   1.234   2.388   1.256 -0.8220  0.6466 -0.9335
 9673TIP3    H253215   1.356   2.469   1.296 -0.0942 -1.8935  2.4395
 9674TIP3   OH253216   0.867   0.323   1.574 -0.2230 -0.3992 -0.4765
 9674TIP3    H153217   0.878   0.229   1.582  1.1541 -0.2818 -0.7595
 9674TIP3    H253218   0.788   0.342   1.624 -1.3886 -1.8803 -1.6732
 9675TIP3   OH253219   4.592   4.749   0.126  0.0102  0.4108 -0.0638
 9675TIP3    H153220   4.546   4.731   0.208 -1.1246  2.4850 -0.1628
 9675TIP3    H253221   4.522   4.758   0.061  0.7472  0.7990 -0.8265
 9676TIP3   OH253222   4.893   6.557   1.428 -0.1755  0.5209 -0.1123
 9676TIP3    H153223   4.854   6.640   1.454 -0.0722  0.3376  0.6363
 9676TIP3    H253224   4.881   6.554   1.333 -0.7308  1.1023 -0.0662
 9677TIP3   OH253225   1.370   1.771   9.118  0.3287  0.5460 -0.4009
 9677TIP3    H153226   1.422   1.849   9.100  2.7341 -0.2936  2.0788
 9677TIP3    H253227   1.301   1.801   9.177  0.8165  0.9405 -0.0239
 9678TIP3   OH253228   4.536   4.995   1.394 -0.6417 -0.3042  0.2389
 9678TIP3    H153229   4.598   4.996   1.322 -2.7398  3.4077 -1.8362
 9678TIP3    H253230   4.477   4.922   1.375  0.3588 -0.9888 -0.2988
 9679TIP3   OH253231   5.178   6.589   1.644  0.3499 -0.3523  0.6841
 9679TIP3    H153232   5.163   6.665   1.699  0.0872 -1.9602  2.9667
 9679TIP3    H253233   5.099   6.582   1.590  1.9177  3.1268 -2.5280
 9680TIP3   OH253234   1.858   7.207   3.174  0.0852  0.4498 -0.3910
 9680TIP3    H153235   1.938   7.249   3.204  0.2641 -0.8061  0.9786
 9680TIP3    H253236   1.791   7.233   3.237  0.2083 -1.2881  0.5150
 9681TIP3   OH253237   6.644   5.572   9.813 -0.5342  0.3075 -0.0580
 9681TIP3    H153238   6.693   5.652   9.798  0.8087 -0.6628 -1.0820
 9681TIP3    H253239   6.710   5.506   9.835 -1.7064 -0.2758  2.0838
 9682TIP3   OH253240   3.095   5.536   0.181 -0.2575  0.3114  0.1372
 9682TIP3    H153241   3.091   5.465   0.246 -2.1067  0.4902  0.2703
 9682TIP3    H253242   3.185   5.533   0.147  0.0927 -1.2073  1.1188
 9683TIP3   OH253243   5.844   5.482   1.322  0.7222  0.5558 -0.3741
 9683TIP3    H153244   5.766   5.517   1.365 -0.3925 -2.2693  0.1319
 9683TIP3    H253245   5.822   5.479   1.229 -0.1627 -1.0006 -0.1444
 9684TIP3   OH253246   1.829   4.103   7.928  0.4176 -0.1083 -0.2125
 9684TIP3    H153247   1.790   4.187   7.951 -0.2937  0.2551 -2.4649
 9684TIP3    H253248   1.754   4.044   7.916  0.8650 -0.8424  0.5254
 9685TIP3   OH253249   1.909   0.329   9.255  0.1036 -0.1138 -0.2308
 9685TIP3    H153250   1.940   0.239   9.268 -0.3678 -0.2474 -0.0256
 9685TIP3    H253251   1.817   0.327   9.279  0.7060  1.0586  2.5278
 9686TIP3   OH253252   3.265   2.885   1.865  0.3212  0.4809 -0.1475
 9686TIP3    H153253   3.270   2.955   1.930  0.6351  0.6370 -0.3347
 9686TIP3    H253254   3.267   2.805   1.916 -1.3432  0.6026  0.1586
 9687TIP3   OH253255   6.141   0.958   8.379  0.1960  0.2078 -0.4179
 9687TIP3    H153256   6.061   1.009   8.383  0.0250 -0.0971  0.1091
 9687TIP3    H253257   6.114   0.872   8.346  0.1285 -0.2327  0.7590
 9688TIP3   OH253258   0.980   3.351   0.563  0.5346  0.1515  0.3847
 9688TIP3    H153259   0.959   3.385   0.649  2.1361  0.3925  0.7033
 9688TIP3    H253260   1.075   3.359   0.556  0.4721 -0.1791 -1.2650
 9689TIP3   OH253261   3.885   7.125   8.077  0.2782  0.2029  0.7348
 9689TIP3    H153262   3.796   7.135   8.046  0.0296 -1.6038  0.7141
 9689TIP3    H253263   3.912   7.212   8.106 -1.2679  0.8823  0.1915
 9690TIP3   OH253264   6.554   2.284   9.259 -0.3031  0.0031 -0.0897
 9690TIP3    H153265   6.616   2.242   9.319 -1.8232 -0.2973  1.3687
 9690TIP3    H253266   6.601   2.290   9.176  1.0358 -1.8536  0.4572
 9691TIP3   OH253267   2.367   4.180   9.847  0.0748  0.5669 -0.0738
 9691TIP3    H153268   2.408   4.266   9.852 -1.3247  1.1605  2.3472
 9691TIP3    H253269   2.287   4.187   9.899  0.4554 -2.4710  1.1431
 9692TIP3   OH253270   5.830   2.768   0.595 -0.1033 -0.1927  0.1047
 9692TIP3    H153271   5.759   2.745   0.655 -0.8953 -0.8338 -1.0371
 9692TIP3    H253272   5.815   2.713   0.518  1.6226 -0.3034 -0.1858
 9693TIP3   OH253273   5.398   0.196   9.783  0.1652 -0.1319 -0.5378
 9693TIP3    H153274   5.353   0.273   9.818  1.2503 -0.4360  1.7148
 9693TIP3    H253275   5.424   0.221   9.694 -1.9897  1.0217 -0.9043
 9694TIP3   OH253276   1.378   6.943   1.785  0.0964  0.2773 -0.0046
 9694TIP3    H153277   1.437   6.933   1.710 -0.9941  0.6981 -0.9461
 9694TIP3    H253278   1.420   7.010   1.839  0.8560  0.0312 -0.2724
 9695TIP3   OH253279   2.395   6.820   7.417 -0.2699 -0.3035  0.2911
 9695TIP3    H153280   2.346   6.746   7.382 -1.4456 -0.6272  2.4510
 9695TIP3    H253281   2.384   6.813   7.512  0.2087  2.2269  0.5938
 9696TIP3   OH253282   1.324   4.524   1.799 -0.5438  0.7946  0.3887
 9696TIP3    H153283   1.242   4.558   1.834 -0.2665  1.8119  0.0781
 9696TIP3    H253284   1.372   4.492   1.876 -1.1602  0.3225  0.5851
 9697TIP3   OH253285   2.354   4.070   7.296 -0.6885 -0.0904  0.6570
 9697TIP3    H153286   2.425   4.075   7.359 -0.3514 -0.4180  0.3104
 9697TIP3    H253287   2.288   4.130   7.329 -0.0762  0.5365  0.7594
 9698TIP3   OH253288   6.987   5.951   8.527 -0.2850 -0.6630 -0.5456
 9698TIP3    H153289   7.027   5.879   8.479  0.3865 -0.8228  0.2220
 9698TIP3    H253290   6.907   5.971   8.479 -1.0296 -2.6204 -0.2054
 9699TIP3   OH253291   0.197   3.211   0.537 -0.2671  0.4704 -0.6255
 9699TIP3    H153292   0.292   3.205   0.532 -0.3376 -0.0363 -1.6511
 9699TIP3    H253293   0.180   3.258   0.618  0.7658 -2.6492  1.6078
 9700TIP3   OH253294   3.907   6.216   1.469  0.6063 -0.2306 -0.3714
 9700TIP3    H153295   3.811   6.208   1.471  0.6113 -1.6316 -2.7689
 9700TIP3    H253296   3.923   6.289   1.409  1.0357 -0.7338 -0.8774
 9701TIP3   OH253297   2.623   2.467   1.745 -0.0081 -0.0368  0.4899
 9701TIP3    H153298   2.703   2.519   1.735  0.4525 -0.7899  0.2217
 9701TIP3    H253299   2.638   2.412   1.821 -0.3452 -0.0526  0.5501
 9702TIP3   OH253300   6.105   1.595   9.577 -0.0958  0.3876  0.3053
 9702TIP3    H153301   6.158   1.592   9.656 -1.1707  1.2880  1.0999
 9702TIP3    H253302   6.141   1.668   9.527  2.1823 -1.6571 -1.3011
 9703TIP3   OH253303   1.698   4.062   9.115 -0.1790  0.0557  0.3002
 9703TIP3    H153304   1.785   4.099   9.101  0.3341 -0.7549  1.1950
 9703TIP3    H253305   1.641   4.109   9.053  0.5637  1.7773  0.8718
 9704TIP3   OH253306   3.762   6.409   8.743  0.4197 -0.0978  0.1660
 9704TIP3    H153307   3.683   6.460   8.723  0.4905  0.6856  1.7700
 9704TIP3    H253308   3.826   6.438   8.677 -0.1890  0.3017 -0.2680
 9705TIP3   OH253309   2.955   4.114   0.861 -0.3858 -0.6322  0.1186
 9705TIP3    H153310   2.988   4.081   0.777 -1.4485 -0.9002 -0.2038
 9705TIP3    H253311   3.022   4.176   0.889 -1.0789  1.2504 -2.0608
 9706TIP3   OH253312   6.474   5.543   1.211  0.5443 -0.0050  0.3235
 9706TIP3    H153313   6.457   5.449   1.213 -1.7485  0.3313 -0.3803
 9706TIP3    H253314   6.523   5.560   1.291 -1.0224 -1.5037  1.6902
 9707TIP3   OH253315   1.654   4.919   1.742  0.2135  0.1980 -0.4076
 9707TIP3    H153316   1.632   4.989   1.680  0.5046 -0.1823 -0.9526
 9707TIP3    H253317   1.592   4.849   1.721  1.9754 -0.9649 -2.1029
 9708TIP3   OH253318   2.534   4.258   7.139  0.0675 -0.4445 -0.4986
 9708TIP3    H153319   2.494   4.308   7.068  0.5657 -1.4649 -1.5334
 9708TIP3    H253320   2.481   4.178   7.144 -0.8006  0.1873  1.2178
 9709TIP3   OH253321   4.051   3.254   8.700 -0.2252  0.2110  0.4930
 9709TIP3    H153322   4.063   3.180   8.759  1.8367  0.2199  0.1762
 9709TIP3    H253323   4.097   3.326   8.743  0.0380  0.5994 -0.4009
 9710TIP3   OH253324   0.898   5.708   9.818 -0.9962  0.0084  0.3687
 9710TIP3    H153325   0.828   5.772   9.805 -1.4797 -0.2986  1.3283
 9710TIP3    H253326   0.931   5.690   9.730 -0.4399  2.0022  0.1224
 9711TIP3   OH253327   0.073   5.484   1.790 -0.0039 -0.2785  0.4056
 9711TIP3    H153328   0.055   5.394   1.764 -1.4085 -0.3868  1.6563
 9711TIP3    H253329  -0.007   5.514   1.834  1.2397  0.7842  2.1022
 9712TIP3   OH253330   6.664   1.098   7.286  0.3206 -0.5226  0.2543
 9712TIP3    H153331   6.582   1.144   7.305 -0.6449 -1.6564 -1.0037
 9712TIP3    H253332   6.732   1.159   7.314 -0.9235  1.2457 -0.4084
 9713TIP3   OH253333   5.488   6.136   0.211 -0.7186 -0.4605  0.2119
 9713TIP3    H153334   5.434   6.058   0.220 -1.5525  0.0558 -0.1937
 9713TIP3    H253335   5.471   6.167   0.122 -1.1152  0.6956  0.6629
 9714TIP3   OH253336   3.157   2.788   7.687 -0.0306 -0.2492  0.2609
 9714TIP3    H153337   3.093   2.720   7.706  0.2192 -0.9994 -1.4408
 9714TIP3    H253338   3.173   2.782   7.593 -0.2817  2.4392 -0.0339
 9715TIP3   OH253339   4.123   0.129   1.208 -0.1072  0.4923  0.2020
 9715TIP3    H153340   4.089   0.107   1.295  0.7087  2.0063  0.9212
 9715TIP3    H253341   4.210   0.164   1.223  0.0834  0.7139 -1.2367
 9716TIP3   OH253342   4.109   0.140   2.571 -0.1035 -0.1429 -0.6606
 9716TIP3    H153343   4.162   0.112   2.646 -0.7616  1.7574  0.5788
 9716TIP3    H253344   4.074   0.058   2.535 -0.1832 -1.0952  1.4275
 9717TIP3   OH253345   4.261   0.647   9.776  0.8782 -0.4174  0.2157
 9717TIP3    H153346   4.219   0.728   9.807 -0.3537 -0.6729 -0.7000
 9717TIP3    H253347   4.239   0.582   9.842  0.2922 -0.4180  0.0271
 9718TIP3   OH253348   3.149   4.526   0.435  0.0310  0.1026 -0.3228
 9718TIP3    H153349   3.111   4.450   0.391  0.6185  0.0747 -0.7940
 9718TIP3    H253350   3.242   4.524   0.411 -0.1470  1.6016 -1.2808
 9719TIP3   OH253351   6.724   1.784   9.693 -0.1439 -0.3720 -0.0480
 9719TIP3    H153352   6.809   1.827   9.690 -0.6662  0.8098  1.0793
 9719TIP3    H253353   6.723   1.737   9.776  0.1505 -2.0706 -0.9612
 9720TIP3   OH253354   4.785   6.315   6.595 -0.3371  0.0812 -0.5887
 9720TIP3    H153355   4.841   6.382   6.635 -1.4433  1.1697 -0.8061
 9720TIP3    H253356   4.712   6.364   6.558 -1.7879 -1.3408  0.2628
 9721TIP3   OH253357   4.326   2.692   1.541 -0.4894 -0.0934 -0.1440
 9721TIP3    H153358   4.308   2.781   1.509 -0.1191  0.9298  2.3196
 9721TIP3    H253359   4.402   2.664   1.490 -0.8089  0.8365 -1.1942
 9722TIP3   OH253360   1.171   4.928   1.795 -0.2097  0.4816  0.1443
 9722TIP3    H153361   1.149   4.901   1.705  1.6657 -1.4805  0.1720
 9722TIP3    H253362   1.148   4.852   1.849  1.3740  0.4589  0.8594
 9723TIP3   OH253363   6.523   3.750   2.487  0.1441  0.4474  0.5785
 9723TIP3    H153364   6.594   3.805   2.518  0.6006  0.9240 -1.1910
 9723TIP3    H253365   6.465   3.810   2.440  0.7606 -0.5263 -1.5800
 9724TIP3   OH253366   5.597   1.143   0.449 -0.0582  0.3141 -0.4484
 9724TIP3    H153367   5.584   1.228   0.492  1.4762 -0.5941  2.0098
 9724TIP3    H253368   5.693   1.133   0.446 -0.2152 -1.0158 -1.3666
 9725TIP3   OH253369   1.558   2.842   9.458  0.4770  0.0432 -0.7720
 9725TIP3    H153370   1.585   2.755   9.429  0.7660 -1.0137  2.2802
 9725TIP3    H253371   1.630   2.873   9.513  0.0614  1.9217 -1.1925
 9726TIP3   OH253372   0.706   1.992   9.710  0.1797  0.1515 -0.3530
 9726TIP3    H153373   0.757   1.911   9.719 -1.1621 -0.9825 -2.2034
 9726TIP3    H253374   0.656   1.998   9.791 -0.1473 -1.2162 -0.4306
 9727TIP3   OH253375   7.202   4.816   0.668 -0.5629  0.6358  0.1980
 9727TIP3    H153376   7.131   4.810   0.604  0.6828 -2.2955 -1.1012
 9727TIP3    H253377   7.174   4.760   0.740  0.4724 -0.8597 -0.4948
 9728TIP3   OH253378   3.052   0.259   9.960 -0.0744 -0.1395  0.3672
 9728TIP3    H153379   3.050   0.178   9.909 -1.5353  0.3186 -0.3457
 9728TIP3    H253380   3.110   0.317   9.911 -1.1357  0.1500 -0.5749
 9729TIP3   OH253381   5.684   0.520   1.031 -0.6093  0.5487 -0.2404
 9729TIP3    H153382   5.696   0.456   0.962  0.6277 -0.2366  0.6596
 9729TIP3    H253383   5.694   0.605   0.988  0.2505  0.0704 -1.0077
 9730TIP3   OH253384   6.435   3.678   1.956  0.0874  0.1963 -0.2410
 9730TIP3    H153385   6.384   3.606   1.919 -0.0378 -0.7688  1.6871
 9730TIP3    H253386   6.521   3.670   1.916  0.5398 -2.0018  1.0253
 9731TIP3   OH253387   0.923   4.207   9.891  0.0484  0.0746  0.1167
 9731TIP3    H153388   0.930   4.302   9.886 -1.2690  0.1465 -1.0958
 9731TIP3    H253389   0.866   4.192   9.966  1.1660  0.1627  1.0098
 9732TIP3   OH253390   4.601   6.410   7.109 -0.2664 -0.1692  0.2221
 9732TIP3    H153391   4.589   6.385   7.201 -0.5790  1.6934  0.7290
 9732TIP3    H253392   4.654   6.490   7.113 -0.4666  0.0559 -1.1943
 9733TIP3   OH253393   4.333   7.073   1.792  0.0559  0.1322  0.0953
 9733TIP3    H153394   4.329   6.994   1.845 -1.6036  1.1842  1.6570
 9733TIP3    H253395   4.326   7.041   1.702 -3.4817 -1.4197  0.7581
 9734TIP3   OH253396   0.620   5.992   2.575 -0.1891 -0.3199  0.1889
 9734TIP3    H153397   0.570   5.958   2.501  1.9095 -0.5843 -1.1807
 9734TIP3    H253398   0.672   6.063   2.539 -0.1803  0.5169  1.7555
 9735TIP3   OH253399   3.311   5.196   9.972 -0.4027  0.3708  0.4084
 9735TIP3    H153400   3.218   5.172   9.966 -0.1112 -0.6946  0.0267
 9735TIP3    H253401   3.310   5.283  10.012 -1.4528 -0.9689  3.6869
 9736TIP3   OH253402   5.952   4.410   9.123  0.3293 -0.8877  0.7093
 9736TIP3    H153403   5.948   4.322   9.085  1.4033 -1.3366  1.5764
 9736TIP3    H253404   6.041   4.440   9.106 -0.4598  0.7131 -0.9625
 9737TIP3   OH253405   3.697   4.471   8.692  0.4088  0.5844  0.0959
 9737TIP3    H153406   3.766   4.437   8.749  0.4377 -1.2427 -0.9608
 9737TIP3    H253407   3.745   4.513   8.620  0.3733  1.5824  0.6325
 9738TIP3   OH253408   1.752   6.004   9.751  0.0041 -0.1789 -0.4244
 9738TIP3    H153409   1.777   6.052   9.830 -1.7743  0.6799 -0.3309
 9738TIP3    H253410   1.670   5.960   9.775 -2.3592  2.6142 -2.6122
 9739TIP3   OH253411   6.320   0.262   0.698  0.4433 -0.0691 -0.3140
 9739TIP3    H153412   6.321   0.269   0.794 -1.5699  0.7749 -0.2960
 9739TIP3    H253413   6.311   0.353   0.668  0.1005 -0.4017 -1.2496
 9740TIP3   OH253414   6.511   7.446   7.926  0.0464 -0.3267 -0.1292
 9740TIP3    H153415   6.472   7.417   7.844 -1.2093 -0.0185  0.3240
 9740TIP3    H253416   6.605   7.449   7.909 -0.2597  0.8334 -1.9160
 9741TIP3   OH253417   7.028   1.677   1.656 -0.2327 -0.4942 -0.0880
 9741TIP3    H153418   6.997   1.587   1.664  0.6601 -0.8561 -0.4962
 9741TIP3    H253419   7.048   1.704   1.746 -2.5772  0.1051  0.3255
 9742TIP3   OH253420   3.284   5.606   9.660  0.9466  0.3289 -0.1355
 9742TIP3    H153421   3.279   5.515   9.632 -0.4342  0.2199  0.3821
 9742TIP3    H253422   3.336   5.604   9.740  0.8606 -0.0223 -0.0876
 9743TIP3   OH253423   3.168   1.890   1.090  0.2976  0.0287  0.0666
 9743TIP3    H153424   3.237   1.830   1.119  0.1910  0.2574  0.8042
 9743TIP3    H253425   3.160   1.873   0.996 -0.5512 -1.9733  0.4376
 9744TIP3   OH253426   3.294   1.761   3.051  0.4077  0.5437 -0.0538
 9744TIP3    H153427   3.281   1.710   3.130  1.4881  0.6302  0.2033
 9744TIP3    H253428   3.206   1.777   3.017  0.0020 -0.6050  0.4123
 9745TIP3   OH253429   5.802   2.838   8.148 -0.7191  0.3191  0.0577
 9745TIP3    H153430   5.850   2.864   8.227 -1.1110  0.5282  0.2255
 9745TIP3    H253431   5.829   2.902   8.082  2.7648 -2.0757 -1.1889
 9746TIP3   OH253432   1.276   4.122   1.963  0.6282 -0.0684 -0.5540
 9746TIP3    H153433   1.239   4.033   1.965 -0.1153  0.2147 -1.1173
 9746TIP3    H253434   1.281   4.147   2.055  0.7284 -0.6486 -0.3945
 9747TIP3   OH253435   4.226   2.124   9.413  0.3049  0.1792  0.2159
 9747TIP3    H153436   4.205   2.048   9.469  0.7727  0.5769  0.9529
 9747TIP3    H253437   4.310   2.101   9.373 -0.6832 -0.7073 -1.4529
 9748TIP3   OH253438   1.779   1.539   2.320 -0.2332  0.2295 -0.0458
 9748TIP3    H153439   1.713   1.538   2.250  1.2408 -1.1007 -1.5140
 9748TIP3    H253440   1.855   1.497   2.281  1.6307  1.9787  1.4786
 9749TIP3   OH253441   6.628   1.041   1.941  0.0264  0.5997 -0.0512
 9749TIP3    H153442   6.705   0.985   1.941  0.2551  0.8822  1.3183
 9749TIP3    H253443   6.607   1.054   2.034 -2.3556 -0.4018 -0.3755
 9750TIP3   OH253444   3.075   4.683   1.590 -0.4282 -0.3137  0.0834
 9750TIP3    H153445   2.995   4.645   1.554 -0.3704 -0.7983  0.4483
 9750TIP3    H253446   3.046   4.736   1.664 -0.4657 -0.0135 -0.1455
 9751TIP3   OH253447   6.690   0.838   8.161 -0.3679 -0.2287  0.7846
 9751TIP3    H153448   6.606   0.874   8.132 -1.2384 -0.8876  2.3690
 9751TIP3    H253449   6.747   0.846   8.085 -1.4416  1.5591  0.1142
 9752TIP3   OH253450   3.283   6.620   0.164  0.2369  0.0598 -0.5005
 9752TIP3    H153451   3.254   6.547   0.220  1.9400  0.2847  0.7641
 9752TIP3    H253452   3.297   6.692   0.225  2.4006  0.2491 -1.1361
 9753TIP3   OH253453   5.730   2.967   9.384 -0.2046 -0.0190 -0.4945
 9753TIP3    H153454   5.708   2.974   9.291  0.7429  0.2002 -0.7164
 9753TIP3    H253455   5.821   2.936   9.384  0.2069  1.1531  0.3323
 9754TIP3   OH253456   6.981   4.345   0.186 -0.2218 -0.4353 -0.1769
 9754TIP3    H153457   6.941   4.259   0.189 -0.6083 -0.3743 -1.9925
 9754TIP3    H253458   7.049   4.337   0.119  2.5211 -0.3801  2.3848
 9755TIP3   OH253459   4.109   3.914   9.440 -0.0021 -0.0334 -0.4061
 9755TIP3    H153460   4.047   3.858   9.393 -1.1325  0.5874  0.2903
 9755TIP3    H253461   4.058   3.951   9.512  1.6172 -0.8412  1.2497
 9756TIP3   OH253462   5.683   6.931   1.689 -0.0070  0.2647 -0.7335
 9756TIP3    H153463   5.647   6.867   1.751 -1.1577  0.5133 -1.1220
 9756TIP3    H253464   5.765   6.891   1.660 -0.7771 -1.1524 -1.0950
 9757TIP3   OH253465   5.142   1.911   8.942  0.2522 -0.0613 -0.5121
 9757TIP3    H153466   5.050   1.898   8.920 -0.0874 -0.7906  1.1896
 9757TIP3    H253467   5.190   1.859   8.878 -0.5652 -0.3158 -0.9305
 9758TIP3   OH253468   1.927   0.154   7.166 -0.0568  0.2946 -0.1880
 9758TIP3    H153469   1.850   0.135   7.220  0.9585 -1.1348  0.8407
 9758TIP3    H253470   1.998   0.165   7.229  1.2837 -1.9631 -1.1693
 9759TIP3   OH253471   1.050   3.763   2.295 -0.3230 -0.1711  0.0630
 9759TIP3    H153472   0.964   3.771   2.336 -0.4720 -1.2907 -0.0069
 9759TIP3    H253473   1.069   3.669   2.296  1.0030  0.0748  0.2773
 9760TIP3   OH253474   1.733   2.987   1.004 -0.0898 -0.2592  0.0694
 9760TIP3    H153475   1.648   2.943   1.006  0.3303 -1.1113  0.0287
 9760TIP3    H253476   1.781   2.942   0.934 -0.3008  1.5717 -1.3357
 9761TIP3   OH253477   6.221   1.016   9.282 -0.0919  0.2107  0.7644
 9761TIP3    H153478   6.217   0.944   9.220 -1.1297  0.0805  0.9773
 9761TIP3    H253479   6.238   1.093   9.228 -1.4478  0.1730  0.2479
 9762TIP3   OH253480   2.980   0.483   8.094  0.3185 -0.3101  0.7325
 9762TIP3    H153481   2.957   0.424   8.022 -1.1993  2.2363 -1.0338
 9762TIP3    H253482   3.069   0.511   8.074  0.4171 -0.6890  0.6331
 9763TIP3   OH253483   5.731   4.572   9.756  0.0415  0.3191 -0.0384
 9763TIP3    H153484   5.676   4.576   9.678  1.2381 -1.0850 -1.0113
 9763TIP3    H253485   5.673   4.540   9.826 -0.7549  0.4339 -0.6387
 9764TIP3   OH253486   2.089   5.236   6.661 -0.9474  0.0970  0.1139
 9764TIP3    H153487   2.167   5.292   6.657 -0.7146 -0.1993  0.4138
 9764TIP3    H253488   2.031   5.270   6.592 -0.4765  0.2056 -0.2365
 9765TIP3   OH253489   3.759   1.054   7.396  0.2017  0.2581 -0.3751
 9765TIP3    H153490   3.743   0.964   7.426  1.3877  0.1489 -0.0443
 9765TIP3    H253491   3.810   1.095   7.466  0.8576  0.7627 -1.1317
 9766TIP3   OH253492   3.751   5.866   8.515  0.3548 -0.3714 -0.3074
 9766TIP3    H153493   3.819   5.871   8.448 -0.4171 -0.8974 -1.1494
 9766TIP3    H253494   3.724   5.774   8.516  0.5811 -0.4511  0.9737
 9767TIP3   OH253495   3.957   1.627   9.017  0.9694  0.0738  0.0537
 9767TIP3    H153496   3.925   1.659   9.102  2.1408  0.5216  0.3471
 9767TIP3    H253497   3.911   1.545   9.004  1.3920 -0.4430  1.5457
 9768TIP3   OH253498   6.249   5.925   9.957  0.5647 -0.7622 -0.3527
 9768TIP3    H153499   6.194   5.996   9.923 -0.1314 -1.7601 -1.4030
 9768TIP3    H253500   6.319   5.970  10.004 -0.0106  0.6135 -0.7338
 9769TIP3   OH253501   5.921   3.967   9.945 -0.2726 -0.0321 -0.3118
 9769TIP3    H153502   5.962   3.888   9.979 -1.0354  0.2075  1.2976
 9769TIP3    H253503   5.924   3.958   9.850  0.5306 -1.5190 -0.1644
 9770TIP3   OH253504   5.941   1.548   1.559  0.3254  0.2005  0.0147
 9770TIP3    H153505   5.955   1.524   1.651 -0.0795  1.9214  0.5722
 9770TIP3    H253506   5.852   1.519   1.540  0.3533 -0.0203  0.2199
 9771TIP3   OH253507   5.643   7.005   0.671 -0.3293  0.4660 -0.1698
 9771TIP3    H153508   5.598   7.077   0.625  0.5339  0.6724 -0.7091
 9771TIP3    H253509   5.734   7.034   0.677  0.1677 -0.8849 -0.9895
 9772TIP3   OH253510   0.345   1.196   9.220 -0.7953 -0.7308  0.4918
 9772TIP3    H153511   0.431   1.238   9.212 -0.3609 -1.6636  0.1529
 9772TIP3    H253512   0.351   1.144   9.301 -1.8667  1.0333  1.7891
 9773TIP3   OH253513   1.616   2.389   8.346  0.6524  0.3373 -0.0506
 9773TIP3    H153514   1.652   2.444   8.415 -0.6580 -0.3583  1.2478
 9773TIP3    H253515   1.651   2.302   8.364  0.1460  0.1136 -0.1268
 9774TIP3   OH253516   6.984   4.366   9.401 -0.6182  0.3597 -0.0789
 9774TIP3    H153517   6.901   4.412   9.387  0.0706  1.9626  0.8745
 9774TIP3    H253518   7.049   4.435   9.407  0.9048 -0.9025 -1.3003
 9775TIP3   OH253519   5.468   4.012   9.025  0.0992 -0.3285  0.3501
 9775TIP3    H153520   5.547   4.006   8.970  1.3962 -0.2541  2.1261
 9775TIP3    H253521   5.411   4.073   8.978  1.8719  1.0571 -0.1012
 9776TIP3   OH253522   4.977   2.127   1.072  0.9052 -0.5350  0.1661
 9776TIP3    H153523   4.973   2.207   1.020  0.0998 -0.7974 -0.2031
 9776TIP3    H253524   5.061   2.088   1.050  0.8128 -0.3576 -0.5262
 9777TIP3   OH253525   0.407   2.436   0.186  0.3157  0.0937  0.4730
 9777TIP3    H153526   0.467   2.490   0.237 -0.0233 -0.1761  1.1770
 9777TIP3    H253527   0.359   2.385   0.252  0.7588 -1.2064 -0.1713
 9778TIP3   OH253528   4.840   5.791   9.851  0.5465  0.2904 -0.1231
 9778TIP3    H153529   4.750   5.761   9.860  0.7425 -0.9010 -1.6620
 9778TIP3    H253530   4.849   5.861   9.916 -1.4703  0.4381  0.0540
 9779TIP3   OH253531   2.520   6.078   8.896 -0.5713  0.9170 -0.3927
 9779TIP3    H153532   2.539   6.062   8.804  0.5551  0.1940 -0.0490
 9779TIP3    H253533   2.429   6.049   8.907  0.2515 -1.9733 -0.6090
 9780TIP3   OH253534   5.103   3.543   9.532 -0.0196 -0.0982 -0.7811
 9780TIP3    H153535   5.100   3.536   9.436 -0.5365  0.7273 -0.8405
 9780TIP3    H253536   5.054   3.623   9.551 -1.4602 -1.1726  0.2918
 9781TIP3   OH253537   2.693   7.300   6.568 -0.7801 -0.1494  0.2348
 9781TIP3    H153538   2.706   7.247   6.489 -3.0075 -2.2788  1.1818
 9781TIP3    H253539   2.780   7.337   6.585  0.4979 -2.0428 -1.5316
 9782TIP3   OH253540   1.490   6.476   0.449  0.2173  0.0656  0.5671
 9782TIP3    H153541   1.455   6.401   0.401 -1.1974  1.6083 -0.9211
 9782TIP3    H253542   1.413   6.527   0.473  1.2154  1.6104  0.5777
 9783TIP3   OH253543   6.796   2.073   9.686 -0.3723  0.2205 -0.0190
 9783TIP3    H153544   6.774   2.165   9.700 -1.2991 -0.2551  2.0779
 9783TIP3    H253545   6.875   2.058   9.738  0.1340 -0.0235 -0.8541
 9784TIP3   OH253546   5.873   3.699   9.076 -0.2479  0.2258  0.1080
 9784TIP3    H153547   5.874   3.721   8.983 -0.7757 -0.0218  0.0402
 9784TIP3    H253548   5.842   3.778   9.120 -1.1253 -0.0304 -0.0379
 9785TIP3   OH253549   6.110   0.300   9.728  0.1806 -0.4106 -0.1110
 9785TIP3    H153550   6.049   0.357   9.776  2.4420  0.3342  2.0684
 9785TIP3    H253551   6.175   0.274   9.793  1.9750 -1.5372 -2.2212
 9786TIP3   OH253552   3.530   4.344   6.980  0.2311 -0.2676  0.5317
 9786TIP3    H153553   3.525   4.325   7.074  0.0904  0.0643  0.5909
 9786TIP3    H253554   3.452   4.396   6.961 -0.0365 -0.8109  0.1150
 9787TIP3   OH253555   3.974   0.391   1.851  0.2742 -0.2097 -0.0277
 9787TIP3    H153556   3.957   0.303   1.816  0.8259 -0.0536 -0.7038
 9787TIP3    H253557   3.888   0.423   1.879  0.1088 -1.0727  0.4850
 9788TIP3   OH253558   3.754   2.790   0.493  0.6012  0.0126  0.3030
 9788TIP3    H153559   3.803   2.837   0.426 -0.7332  1.6754  0.4192
 9788TIP3    H253560   3.820   2.738   0.540  2.1258  1.6228  0.0300
 9789TIP3   OH253561   0.975   5.664   8.029  0.5452  0.3555  0.2056
 9789TIP3    H153562   0.890   5.694   7.999  0.1713 -0.6199  0.2599
 9789TIP3    H253563   0.957   5.584   8.078  1.4276  0.4787  0.7653
 9790TIP3   OH253564   4.321   4.285   0.510 -0.0517 -0.1319 -0.1020
 9790TIP3    H153565   4.269   4.334   0.573 -1.3991 -0.8260 -0.6192
 9790TIP3    H253566   4.262   4.272   0.435  1.4666  0.6162 -1.4896
 9791TIP3   OH253567   5.343   5.489   2.798 -0.1128 -0.1196  0.0001
 9791TIP3    H153568   5.270   5.468   2.740  0.0312  0.8940 -0.5611
 9791TIP3    H253569   5.333   5.428   2.871 -0.9794 -0.6206 -0.5161
 9792TIP3   OH253570   2.632   0.120   8.266  0.3927 -0.2298  0.0510
 9792TIP3    H153571   2.630   0.092   8.358 -0.6025 -2.7324 -0.6497
 9792TIP3    H253572   2.555   0.177   8.258 -0.8103 -1.7334  0.3382
 9793TIP3   OH253573   2.682   6.381   1.288  0.7904  0.3511 -0.0269
 9793TIP3    H153574   2.598   6.382   1.242  0.8393  1.4247 -0.1088
 9793TIP3    H253575   2.667   6.322   1.363 -0.4198  1.4717  0.6611
 9794TIP3   OH253576   7.480   7.191   9.681  0.2016 -0.2167  0.3166
 9794TIP3    H153577   7.488   7.264   9.743 -0.7727 -1.7983  2.4139
 9794TIP3    H253578   7.391   7.159   9.692 -0.5568  0.3580 -3.1012
 9795TIP3   OH253579   4.720   0.454   7.450 -0.0897  0.0325  0.3601
 9795TIP3    H153580   4.648   0.487   7.396  0.5072  0.5133 -0.1514
 9795TIP3    H253581   4.786   0.425   7.387 -0.1928 -1.2488  0.8144
 9796TIP3   OH253582   4.496   4.346   9.156 -0.1009  0.0127 -0.8321
 9796TIP3    H153583   4.428   4.404   9.191  1.1010  0.2403  1.3438
 9796TIP3    H253584   4.495   4.361   9.062 -1.2482  1.9967 -0.5545
 9797TIP3   OH253585   1.371   5.767   9.572  0.3737  0.3490  0.2688
 9797TIP3    H153586   1.306   5.825   9.613 -0.0223 -2.3363  4.0071
 9797TIP3    H253587   1.325   5.683   9.562  2.4518 -0.8744  0.4383
 9798TIP3   OH253588   1.718   0.370   8.989 -0.3316  0.2851  0.5498
 9798TIP3    H153589   1.690   0.324   8.910  1.8327 -2.0970  1.0326
 9798TIP3    H253590   1.639   0.378   9.042 -1.2127 -0.8333 -0.5583
 9799TIP3   OH253591   0.668   0.669   7.370 -0.4377  0.4496  0.3136
 9799TIP3    H153592   0.675   0.648   7.464  0.2738  1.2570  0.4507
 9799TIP3    H253593   0.744   0.724   7.352 -0.0235 -0.4957 -0.9738
 9800TIP3   OH253594   2.829   0.526   6.583 -0.5826  0.4112 -0.2843
 9800TIP3    H153595   2.776   0.570   6.649  1.5231 -0.4591  2.1537
 9800TIP3    H253596   2.870   0.597   6.533 -0.8736  1.1331  0.4912
 9801TIP3   OH253597   3.293   5.957   8.433 -0.7524  0.4691  0.2021
 9801TIP3    H153598   3.209   5.918   8.408 -0.2677 -1.4131  1.3511
 9801TIP3    H253599   3.274   6.004   8.515 -0.7266  0.2193  0.3512
 9802TIP3   OH253600   3.929   2.917   0.290 -0.3057  0.0020  0.3437
 9802TIP3    H153601   3.971   3.002   0.277  2.1857 -1.2188 -0.1171
 9802TIP3    H253602   3.860   2.915   0.223 -1.3692  2.1602  1.2622
 9803TIP3   OH253603   7.132   1.841   7.727  0.6871  0.2088  0.6988
 9803TIP3    H153604   7.099   1.823   7.815  0.7559  1.1028  0.9205
 9803TIP3    H253605   7.158   1.933   7.730 -0.5971  0.6446 -0.6684
 9804TIP3   OH253606   2.106   2.240   0.950 -0.0647 -0.1119 -0.5817
 9804TIP3    H153607   2.114   2.326   0.992 -1.0689 -0.0945 -0.3999
 9804TIP3    H253608   2.118   2.177   1.021 -2.2009 -0.0811 -0.1093
 9805TIP3   OH253609   2.232   4.356   1.723  0.7245  0.4077 -0.1752
 9805TIP3    H153610   2.137   4.364   1.713  0.7813  1.2174 -0.1320
 9805TIP3    H253611   2.268   4.417   1.659  1.1566  2.8255  2.1751
 9806TIP3   OH253612   0.579   3.432   1.973 -0.2687  0.1690 -0.0536
 9806TIP3    H153613   0.581   3.509   2.030  1.0273 -0.3767  0.6966
 9806TIP3    H253614   0.622   3.363   2.025  0.8976 -0.3735 -1.6614
 9807TIP3   OH253615   3.418   3.911   2.280 -0.2283  0.5025 -0.4925
 9807TIP3    H153616   3.466   3.851   2.337  0.7269  0.5398 -1.2308
 9807TIP3    H253617   3.351   3.949   2.336  0.0606 -0.1915  0.3479
 9808TIP3   OH253618   2.527   5.946   7.151  0.6565 -0.2701  0.1885
 9808TIP3    H153619   2.474   5.977   7.077  0.1870 -1.5593 -0.0336
 9808TIP3    H253620   2.466   5.900   7.207  1.6648 -2.7953 -0.6312
 9809TIP3   OH253621   6.425   0.809   2.458 -0.0355  0.4979 -0.7439
 9809TIP3    H153622   6.428   0.898   2.424 -1.1206 -0.0515 -2.4002
 9809TIP3    H253623   6.331   0.788   2.462  0.0585  0.2646  2.0295
 9810TIP3   OH253624   7.153   2.603   1.324 -0.3566  0.4401  0.0411
 9810TIP3    H153625   7.201   2.676   1.363 -0.0088 -0.8601  2.2314
 9810TIP3    H253626   7.092   2.644   1.263  0.2016  2.4905  0.7858
 9811TIP3   OH253627   3.187   3.711   2.079  0.1077  0.1595 -0.1152
 9811TIP3    H153628   3.156   3.743   2.163  1.8365  0.7518  0.3345
 9811TIP3    H253629   3.111   3.720   2.021 -0.5534  1.5983  0.8941
 9812TIP3   OH253630   1.634   0.949   8.139 -0.2512  0.3157 -0.5026
 9812TIP3    H153631   1.692   0.873   8.148 -0.9305 -0.0570  0.9829
 9812TIP3    H253632   1.568   0.921   8.076 -0.6577 -0.4474  0.2421
 9813TIP3   OH253633   6.225   5.643   7.861  0.1083  0.0600  0.3018
 9813TIP3    H153634   6.222   5.562   7.911  0.8073  0.7824  1.5705
 9813TIP3    H253635   6.317   5.651   7.833 -0.1766 -0.1027 -0.7348
 9814TIP3   OH253636   5.458   1.598   1.565 -0.5010 -0.8653  0.2025
 9814TIP3    H153637   5.525   1.650   1.521  1.2995 -1.8868  1.5784
 9814TIP3    H253638   5.476   1.610   1.658 -4.5092  1.6835  0.8914
 9815TIP3   OH253639   1.312   3.006   0.790 -0.0592  0.6955  0.2336
 9815TIP3    H153640   1.376   2.981   0.723  0.2681  1.3371  0.3022
 9815TIP3    H253641   1.287   2.923   0.831  3.2318  0.6492  2.4988
 9816TIP3   OH253642   3.203   2.279   7.276 -0.2534 -0.7464  0.2043
 9816TIP3    H153643   3.222   2.371   7.297  0.6090 -1.4675  3.1266
 9816TIP3    H253644   3.109   2.270   7.288  0.0294 -0.8196  3.0610
 9817TIP3   OH253645   0.991   3.278   2.168 -0.0198 -0.1968  0.3061
 9817TIP3    H153646   0.900   3.309   2.172 -0.4814 -1.4567 -0.1145
 9817TIP3    H253647   1.040   3.344   2.216 -1.2310  0.2351  0.9967
 9818TIP3   OH253648   6.259   1.910   1.495  0.0824 -0.3874  0.1002
 9818TIP3    H153649   6.325   1.931   1.430 -0.2369  0.8788  0.1447
 9818TIP3    H253650   6.177   1.907   1.446 -0.0289 -0.4096  0.2852
 9819TIP3   OH253651   0.128   6.129   2.106  0.5825  0.4103  0.2041
 9819TIP3    H153652   0.057   6.174   2.152  0.6744  0.2243  0.5306
 9819TIP3    H253653   0.108   6.036   2.115  0.9681  0.3483  0.4726
 9820TIP3   OH253654   7.201   2.669   9.779  0.4012 -0.2793 -0.7276
 9820TIP3    H153655   7.262   2.638   9.713  1.1242  0.2270 -0.3159
 9820TIP3    H253656   7.236   2.634   9.862 -0.2991 -0.6268 -0.5747
 9821TIP3   OH253657   0.857   1.066   1.695 -0.3047  0.3350 -0.1976
 9821TIP3    H153658   0.858   0.976   1.663 -0.4172 -0.5722  2.1552
 9821TIP3    H253659   0.934   1.073   1.752 -1.4612  1.0028  1.3774
 9822TIP3   OH253660   2.240   6.906   8.502  0.6168  0.0178 -0.0798
 9822TIP3    H153661   2.307   6.947   8.558  0.8307  0.0883 -0.3877
 9822TIP3    H253662   2.274   6.916   8.413  1.2024 -1.7751 -0.0938
 9823TIP3   OH253663   2.383   5.427   9.233  0.1663  0.0448  0.4448
 9823TIP3    H153664   2.463   5.405   9.282  0.3102  0.5270  0.4415
 9823TIP3    H253665   2.395   5.520   9.211 -0.0931 -0.0603 -0.1351
 9824TIP3   OH253666   4.923   1.052   2.001 -1.0561  0.2910 -0.4540
 9824TIP3    H153667   4.996   1.003   2.039 -0.9633 -0.6168 -1.7523
 9824TIP3    H253668   4.874   0.988   1.951 -1.2542  1.4118 -1.7468
 9825TIP3   OH253669   0.785   6.575   0.808  0.3716 -0.3024 -0.2293
 9825TIP3    H153670   0.745   6.489   0.821  0.1433 -0.0257  1.0364
 9825TIP3    H253671   0.846   6.584   0.881  0.1455  0.7398 -0.1562
 9826TIP3   OH253672   5.284   0.245   2.527  0.4193 -0.3360 -0.1636
 9826TIP3    H153673   5.231   0.297   2.588  0.4386 -0.1854 -0.2742
 9826TIP3    H253674   5.322   0.176   2.581 -1.3140 -1.5434 -0.3961
 9827TIP3   OH253675   6.504   3.087   1.250 -0.3426  0.5809  0.2216
 9827TIP3    H153676   6.437   3.031   1.287 -0.0994  0.3996  0.3906
 9827TIP3    H253677   6.553   3.119   1.326 -0.3797  0.8945  0.1162
 9828TIP3   OH253678   5.828   3.207   0.083  0.3431 -0.0252 -0.0734
 9828TIP3    H153679   5.760   3.273   0.093  0.0579 -0.3178 -0.0711
 9828TIP3    H253680   5.852   3.184   0.173  0.8958  0.5309 -0.0677
 9829TIP3   OH253681   3.711   2.914   9.263  0.5297  0.6354  0.4371
 9829TIP3    H153682   3.800   2.902   9.296  0.7529  1.6603  0.2610
 9829TIP3    H253683   3.660   2.941   9.340  0.8660  2.1958  0.1453
 9830TIP3   OH253684   4.317   5.579   9.377 -0.1358  0.4707 -0.1290
 9830TIP3    H153685   4.227   5.589   9.407  0.0469  1.1374  0.2345
 9830TIP3    H253686   4.337   5.487   9.389 -0.6614  0.3882  0.1097
 9831TIP3   OH253687   6.776   0.159   1.424 -0.1498 -0.1637  0.5457
 9831TIP3    H153688   6.846   0.140   1.487  1.2436 -0.2828 -0.9734
 9831TIP3    H253689   6.772   0.255   1.422  1.2823 -0.0914 -0.6786
 9832TIP3   OH253690   3.409   2.216   0.233 -0.2187 -0.2038  0.2886
 9832TIP3    H153691   3.319   2.232   0.260 -0.4514 -0.2846 -0.4172
 9832TIP3    H253692   3.402   2.147   0.167  0.1808  0.9699 -1.0208
 9833TIP3   OH253693   6.844   7.255   2.426  0.3422  0.0973 -0.0856
 9833TIP3    H153694   6.936   7.279   2.442 -0.1351  0.9608  1.5689
 9833TIP3    H253695   6.819   7.204   2.503 -0.6202 -0.0100 -0.4591
 9834TIP3   OH253696   0.310   6.183   1.309 -0.4299  0.1385 -0.2421
 9834TIP3    H153697   0.250   6.117   1.344 -0.4626 -0.1595 -0.8572
 9834TIP3    H253698   0.321   6.245   1.381  1.8831 -2.0233  1.4480
 9835TIP3   OH253699   4.281   6.959   1.515  0.2551 -0.3698 -0.4189
 9835TIP3    H153700   4.272   6.947   1.420  1.4487 -1.7482 -0.3864
 9835TIP3    H253701   4.216   7.026   1.536 -0.5878 -0.5974 -2.0818
 9836TIP3   OH253702   2.103   2.030   3.479  0.3170 -0.0887 -0.1619
 9836TIP3    H153703   2.154   1.985   3.412 -0.2396 -0.7181 -0.1790
 9836TIP3    H253704   2.019   1.983   3.480 -0.0205  0.5116  0.3139
 9837TIP3   OH253705   6.654   2.435   8.764  0.0697 -0.3101 -0.2336
 9837TIP3    H153706   6.615   2.516   8.796 -0.8828 -0.9068  0.1438
 9837TIP3    H253707   6.729   2.464   8.711 -0.1749  0.8017  0.0049
 9838TIP3   OH253708   7.447   6.069   1.328 -0.2492  0.3618  0.1127
 9838TIP3    H153709   7.471   6.111   1.411 -3.0326  0.6862  0.8490
 9838TIP3    H253710   7.421   6.141   1.271 -2.2425 -0.0835  0.3888
 9839TIP3   OH253711   2.420   2.046   1.606  0.0820  0.8935  0.1304
 9839TIP3    H153712   2.400   1.960   1.570 -1.4113  1.0702  0.4805
 9839TIP3    H253713   2.335   2.089   1.615  0.7951  2.4489 -0.1283
 9840TIP3   OH253714   1.408   4.835   9.728 -0.2404 -0.4971  0.1450
 9840TIP3    H153715   1.382   4.911   9.780 -2.4523 -0.7983 -0.3891
 9840TIP3    H253716   1.501   4.846   9.713 -0.1489  1.1381  1.6301
 9841TIP3   OH253717   2.140   3.185   1.586  0.4599 -0.4490 -0.3654
 9841TIP3    H153718   2.087   3.115   1.548  1.8927 -1.0135 -1.4199
 9841TIP3    H253719   2.220   3.141   1.616  1.6737  0.7676 -1.6288
 9842TIP3   OH253720   1.709   5.368   0.042 -0.0318 -0.3963  0.2331
 9842TIP3    H153721   1.768   5.379   0.116 -2.2158  1.1563  1.8747
 9842TIP3    H253722   1.650   5.298   0.068 -1.6035  0.9931  0.5916
 9843TIP3   OH253723   0.592   3.611   9.348 -0.1905  0.2493  0.9801
 9843TIP3    H153724   0.685   3.625   9.330 -0.3885 -0.8678 -1.3137
 9843TIP3    H253725   0.589   3.579   9.438  1.7569 -0.5897  0.7910
 9844TIP3   OH253726   4.572   5.681   1.633  0.2084 -0.3707 -0.3920
 9844TIP3    H153727   4.600   5.673   1.724 -2.2427  1.8006  0.6633
 9844TIP3    H253728   4.640   5.734   1.592 -0.3094  1.5563  1.1136
 9845TIP3   OH253729   0.451   7.128   0.215  0.0089  0.2719  0.0567
 9845TIP3    H153730   0.357   7.142   0.200  0.1350  1.2616  0.1816
 9845TIP3    H253731   0.454   7.049   0.269 -0.6754 -0.5622 -1.0470
 9846TIP3   OH253732   4.322   5.214   1.306  0.0019 -0.1860  0.1209
 9846TIP3    H153733   4.250   5.155   1.284 -0.7374  1.2127 -1.4485
 9846TIP3    H253734   4.324   5.215   1.402  0.7153 -3.4639  0.2452
 9847TIP3   OH253735   3.766   0.099   7.228 -0.3656 -0.1340 -0.2625
 9847TIP3    H153736   3.739   0.075   7.139  0.5320  0.5223 -0.7320
 9847TIP3    H253737   3.762   0.194   7.229  2.5015  0.0925 -0.6193
 9848TIP3   OH253738   0.875   6.956   1.320  0.4265 -0.1754  0.0492
 9848TIP3    H153739   0.943   7.023   1.326  0.0581  0.0835  1.8524
 9848TIP3    H253740   0.918   6.875   1.345  0.4077 -0.2755 -0.2370
 9849TIP3   OH253741   4.753   0.408   9.803  0.5519  0.3478 -0.5415
 9849TIP3    H153742   4.680   0.448   9.850  1.1813 -1.0815  1.8254
 9849TIP3    H253743   4.831   0.432   9.853  1.1485 -1.9987 -0.2145
 9850TIP3   OH253744   6.945   3.134   9.926  0.1660 -0.0034 -0.4286
 9850TIP3    H153745   6.956   3.177  10.011 -1.3954 -1.4258  0.5530
 9850TIP3    H253746   7.028   3.150   9.880  0.2622  2.6350  0.4746
 9851TIP3   OH253747   2.571   3.397   0.091  0.4398 -0.6310  0.5558
 9851TIP3    H153748   2.503   3.463   0.083 -0.1021 -1.2904 -0.4935
 9851TIP3    H253749   2.558   3.339   0.016  2.5733 -0.4014 -0.0729
 9852TIP3   OH253750   1.540   0.060   8.604 -0.6139  0.0239 -0.0061
 9852TIP3    H153751   1.555   0.040   8.511 -1.1291  0.5990 -0.2210
 9852TIP3    H253752   1.447   0.080   8.609 -0.1395  2.4844  0.1565
 9853TIP3   OH253753   3.662   4.511   1.746  0.2327 -0.5977 -0.2743
 9853TIP3    H153754   3.675   4.422   1.779  0.4758 -0.5485 -0.2357
 9853TIP3    H253755   3.750   4.545   1.735  0.1527 -0.6036 -0.9461
 9854TIP3   OH253756   4.924   6.046   1.153  0.2271  0.7610 -0.2013
 9854TIP3    H153757   4.967   6.023   1.071  0.0218  1.0518 -0.3932
 9854TIP3    H253758   4.995   6.074   1.211  0.3952  0.3609 -0.2110
 9855TIP3   OH253759   3.050   3.206   0.242  0.2794 -0.4017 -0.7071
 9855TIP3    H153760   3.123   3.223   0.183  1.7275 -1.9270  0.5652
 9855TIP3    H253761   2.997   3.286   0.238  3.4999  1.9625  0.4583
 9856TIP3   OH253762   2.992   6.984   9.379  0.1463  1.0574 -0.1929
 9856TIP3    H153763   3.064   6.964   9.438  0.1317 -0.7034 -0.7051
 9856TIP3    H253764   2.924   6.921   9.402 -0.0658  0.6894 -1.7098
 9857TIP3   OH253765   2.852   3.494   8.684 -0.5837 -0.0134 -0.1117
 9857TIP3    H153766   2.848   3.526   8.774  0.0650 -1.1624  0.3396
 9857TIP3    H253767   2.930   3.439   8.681 -0.5595  0.0631 -1.4010
 9858TIP3   OH253768   3.623   4.834   1.366 -0.3708 -0.4170 -0.2221
 9858TIP3    H153769   3.590   4.759   1.414 -1.5567  0.4801  0.4118
 9858TIP3    H253770   3.558   4.850   1.298 -0.2938  0.2343 -0.1482
 9859TIP3   OH253771   6.501   0.408   1.259 -0.1092  0.4740  0.2840
 9859TIP3    H153772   6.439   0.340   1.286 -0.1774  0.3088 -0.2866
 9859TIP3    H253773   6.581   0.388   1.308 -0.5309  0.7558  1.1146
 9860TIP3   OH253774   5.523   2.312   9.777  0.1706 -0.4780 -0.7178
 9860TIP3    H153775   5.495   2.339   9.689 -0.6420 -1.6500 -0.8468
 9860TIP3    H253776   5.452   2.339   9.834  0.3015 -0.5000 -0.5445
 9861TIP3   OH253777   3.112   5.219   2.543 -0.2022 -0.1396 -0.0158
 9861TIP3    H153778   3.069   5.134   2.551  1.4962 -1.0980 -0.7468
 9861TIP3    H253779   3.205   5.200   2.548  0.2652  1.5307 -1.3378
 9862TIP3   OH253780   1.990   7.331   2.625 -0.4020 -0.0657 -0.0999
 9862TIP3    H153781   1.986   7.245   2.667 -0.6045 -1.0013 -1.9050
 9862TIP3    H253782   1.899   7.350   2.600 -0.2157  0.2034 -0.5894
 9863TIP3   OH253783   4.479   3.651   0.592 -0.1675  0.1793 -0.2560
 9863TIP3    H153784   4.513   3.627   0.678  0.4544  0.1970 -0.4887
 9863TIP3    H253785   4.437   3.735   0.605 -1.1094 -0.3538  0.2723
 9864TIP3   OH253786   6.779   3.327   8.154 -0.5814  0.0645  0.2708
 9864TIP3    H153787   6.789   3.323   8.249 -0.8214  1.2826  0.3599
 9864TIP3    H253788   6.798   3.418   8.132 -3.6761  0.6219 -0.4532
 9865TIP3   OH253789   1.263   4.676   0.756 -0.4460  0.3184  0.0474
 9865TIP3    H153790   1.345   4.667   0.806 -0.0713  1.2855 -0.3637
 9865TIP3    H253791   1.254   4.770   0.742 -1.6581  0.2268  0.1116
 9866TIP3   OH253792   2.940   0.529   7.279 -0.4400 -0.1416  0.0049
 9866TIP3    H153793   3.011   0.496   7.333  0.7544  0.0605 -1.3900
 9866TIP3    H253794   2.873   0.557   7.341  1.9502  2.6529  1.5510
 9867TIP3   OH253795   1.956   5.884   1.385  0.1648  0.4916  0.3830
 9867TIP3    H153796   2.005   5.801   1.389 -1.0170 -0.2376  0.2096
 9867TIP3    H253797   2.016   5.944   1.341  1.7024  0.2254  2.0001
 9868TIP3   OH253798   3.664   3.821   1.328  0.0021  0.3623  0.0590
 9868TIP3    H153799   3.603   3.887   1.294  0.6006  0.5591 -0.6604
 9868TIP3    H253800   3.712   3.866   1.398 -1.5531 -0.1814  1.5497
 9869TIP3   OH253801   0.819   7.141   7.762 -0.7195  0.1582 -0.4974
 9869TIP3    H153802   0.814   7.182   7.675  0.4911  2.1452  0.2771
 9869TIP3    H253803   0.781   7.206   7.821 -1.5350 -1.1621  0.4806
 9870TIP3   OH253804   0.208   3.262   1.028 -0.0744  0.0005 -0.3826
 9870TIP3    H153805   0.250   3.178   1.046 -0.3649 -0.3286 -1.1796
 9870TIP3    H253806   0.120   3.254   1.065  0.4238  0.5444  0.9399
 9871TIP3   OH253807   1.483   3.759   2.364 -0.0540 -0.7148  0.3587
 9871TIP3    H153808   1.462   3.847   2.397 -1.9752 -0.9177 -0.1822
 9871TIP3    H253809   1.473   3.702   2.440  0.8826 -0.5101  0.6394
 9872TIP3   OH253810   4.564   6.452   6.427 -0.1734  0.0931  0.7569
 9872TIP3    H153811   4.529   6.370   6.461 -0.7448  0.0746  0.1511
 9872TIP3    H253812   4.501   6.478   6.360  0.3272  0.7118  0.5237
 9873TIP3   OH253813   7.098   6.196   8.564 -0.0290 -0.1854 -0.3823
 9873TIP3    H153814   7.173   6.136   8.569 -1.1160 -1.4901  2.4890
 9873TIP3    H253815   7.022   6.138   8.555 -1.1129  0.6506  2.3832
 9874TIP3   OH253816   1.082   5.555   0.490 -0.3722  0.4591  0.0507
 9874TIP3    H153817   1.060   5.467   0.521 -0.3609  0.5072  0.1998
 9874TIP3    H253818   1.053   5.613   0.561  1.0440  0.4625  0.6584
 9875TIP3   OH253819   1.151   3.883   2.011 -0.0269  0.0241  0.6889
 9875TIP3    H153820   1.135   3.829   2.089 -0.2709 -0.1335  0.5335
 9875TIP3    H253821   1.184   3.821   1.946 -2.2407 -0.3807 -0.1593
 9876TIP3   OH253822   4.428   4.966   0.016 -0.0433 -0.2577 -0.6035
 9876TIP3    H153823   4.386   5.040  -0.029 -1.0158 -0.8544 -0.7048
 9876TIP3    H253824   4.358   4.927   0.068  0.7614 -0.3621  0.4402
 9877TIP3   OH253825   6.564   3.831   8.111 -0.9000  0.6061  0.2970
 9877TIP3    H153826   6.484   3.798   8.070 -1.4255 -0.3216  1.9941
 9877TIP3    H253827   6.562   3.797   8.200  0.9225  1.3651  0.6812
 9878TIP3   OH253828   3.385   0.167   8.939  0.1731 -0.5386 -0.3270
 9878TIP3    H153829   3.347   0.117   8.867  1.1020 -1.2797 -0.3303
 9878TIP3    H253830   3.457   0.215   8.899  0.2486 -0.3975 -0.0231
 9879TIP3   OH253831   0.019   5.836   1.151 -0.3490 -0.3351  1.1382
 9879TIP3    H153832  -0.043   5.774   1.188 -0.2659 -0.3211  1.3033
 9879TIP3    H253833  -0.012   5.922   1.180 -0.1404 -0.3427  1.3903
 9880TIP3   OH253834   5.376   2.889   1.294  0.3029  0.3836 -0.0551
 9880TIP3    H153835   5.297   2.860   1.248  1.4652 -0.0381 -1.9287
 9880TIP3    H253836   5.350   2.970   1.338 -1.1898  0.2011 -0.5391
 9881TIP3   OH253837   2.072   1.281   8.468 -0.4877 -0.5143 -0.0389
 9881TIP3    H153838   2.062   1.228   8.389  0.4636  0.0822 -0.5662
 9881TIP3    H253839   2.143   1.239   8.517 -0.9087 -0.7365  0.4010
 9882TIP3   OH253840   4.510   3.655   0.232 -0.0601 -0.5151 -0.2253
 9882TIP3    H153841   4.600   3.672   0.205  0.0713  0.7212  0.8939
 9882TIP3    H253842   4.476   3.593   0.167  1.2179 -0.1011 -1.3156
 9883TIP3   OH253843   0.114   4.969   0.657  0.2702  0.5804  1.0571
 9883TIP3    H153844   0.162   4.901   0.703 -0.1368 -0.0443  0.5793
 9883TIP3    H253845   0.181   5.029   0.624  0.5837  0.8112  2.1031
 9884TIP3   OH253846   1.631   5.881   8.120  0.7770 -0.8160 -0.3736
 9884TIP3    H153847   1.642   5.844   8.208  0.5486 -2.0799 -0.8474
 9884TIP3    H253848   1.714   5.925   8.101  0.5860  0.0638  0.7275
 9885TIP3   OH253849   3.953   6.716   0.012 -0.9304 -0.3016  0.4281
 9885TIP3    H153850   4.021   6.651   0.027  0.6782  1.2284  0.0772
 9885TIP3    H253851   3.947   6.722  -0.084 -0.5429  0.5759  0.4536
 9886TIP3   OH253852   2.510   5.154   7.003  0.5450 -0.0826 -0.2125
 9886TIP3    H153853   2.505   5.222   6.936  1.4365 -0.6646 -0.8826
 9886TIP3    H253854   2.508   5.072   6.955  0.9638 -0.5104  0.4912
 9887TIP3   OH253855   2.313   2.590   0.936  0.5021 -0.0011  0.7122
 9887TIP3    H153856   2.282   2.535   0.865 -1.0994  1.3979  0.2501
 9887TIP3    H253857   2.403   2.561   0.953  0.1877 -1.7458 -0.4452
 9888TIP3   OH253858   1.887   0.476   3.495  0.1463  0.5260  0.4265
 9888TIP3    H153859   1.936   0.553   3.467  0.3273  0.5272  0.7440
 9888TIP3    H253860   1.796   0.498   3.478  0.3259  0.0300 -1.3924
 9889TIP3   OH253861   6.016   1.579   8.334 -0.0940 -0.1535 -0.0899
 9889TIP3    H153862   5.978   1.626   8.409 -0.0065 -0.2266  0.0005
 9889TIP3    H253863   6.109   1.601   8.337 -0.1691  0.2151 -0.4526
 9890TIP3   OH253864   5.041   5.177   8.693 -0.3190  0.6765  0.1574
 9890TIP3    H153865   5.042   5.273   8.695  0.7463  0.7375 -1.4686
 9890TIP3    H253866   5.132   5.151   8.707 -0.3464 -0.0307 -0.8520
 9891TIP3   OH253867   5.834   3.445   8.953 -0.1097  0.9833 -0.1404
 9891TIP3    H153868   5.782   3.492   8.887 -1.5792  1.4572  1.2741
 9891TIP3    H253869   5.836   3.505   9.027  0.5478  0.0066  0.6385
 9892TIP3   OH253870   5.596   4.501   9.492  0.2534 -0.3162  0.3606
 9892TIP3    H153871   5.520   4.505   9.433 -0.8254  1.0040  1.7604
 9892TIP3    H253872   5.657   4.442   9.448 -1.5624 -1.3952 -0.8355
 9893TIP3   OH253873   5.426   2.524   7.842 -0.3550 -0.2994 -0.3559
 9893TIP3    H153874   5.453   2.513   7.934  0.4261 -0.9575 -0.6445
 9893TIP3    H253875   5.370   2.601   7.842  1.9823  1.5214  0.2207
 9894TIP3   OH253876   4.525   2.600   2.613 -0.3290  0.0703 -0.5029
 9894TIP3    H153877   4.447   2.618   2.666  0.2701 -1.5953  1.0733
 9894TIP3    H253878   4.557   2.687   2.588 -1.9659  0.8305 -0.1465
 9895TIP3   OH253879   5.216   7.071   7.545 -0.2157  0.2259  0.1025
 9895TIP3    H153880   5.136   7.068   7.597 -0.8230 -0.3036 -0.8433
 9895TIP3    H253881   5.188   7.104   7.459  0.9378  2.0821  0.3846
 9896TIP3   OH253882   1.787   0.787   8.709 -0.2341 -0.3534  0.4322
 9896TIP3    H153883   1.796   0.757   8.618 -1.0031  1.3619 -0.2591
 9896TIP3    H253884   1.694   0.780   8.727 -0.0571 -0.8813  1.1841
 9897TIP3   OH253885   4.141   5.858   1.270  0.0811 -0.2250 -0.1361
 9897TIP3    H153886   4.180   5.944   1.259 -1.8553  1.0441  1.8808
 9897TIP3    H253887   4.049   5.870   1.248  0.1314 -2.3579 -1.8766
 9898TIP3   OH253888   6.842   0.856   0.066  0.1495 -0.2898 -0.1611
 9898TIP3    H153889   6.781   0.790   0.099  0.0571 -0.4026 -0.5533
 9898TIP3    H253890   6.903   0.871   0.139 -0.6236  0.1733  0.4136
 9899TIP3   OH253891   6.776   3.581   8.072 -0.5420  0.0124  0.7790
 9899TIP3    H153892   6.774   3.611   8.163 -1.3611 -1.1512  1.1618
 9899TIP3    H253893   6.792   3.661   8.021  3.2061  0.2887  2.0845
 9900TIP3   OH253894   7.122   2.557   8.434 -0.0347 -0.0211 -0.1786
 9900TIP3    H153895   7.059   2.490   8.408  0.7481 -0.2470 -1.5961
 9900TIP3    H253896   7.196   2.508   8.471  0.1050  0.1146 -0.2736
 9901TIP3   OH253897   5.942   0.201   8.821  0.7350  0.4229  0.3071
 9901TIP3    H153898   5.915   0.196   8.730 -0.0275  0.4726  0.5273
 9901TIP3    H253899   6.002   0.128   8.833  0.7035  0.3171 -0.1895
 9902TIP3   OH253900   0.720   6.026   1.951  0.2924  0.1809  0.0523
 9902TIP3    H153901   0.728   6.084   2.027  0.0498  0.3440 -0.0451
 9902TIP3    H253902   0.790   5.962   1.962  0.6991  0.6216  0.0502
 9903TIP3   OH253903   2.876   4.933   7.839  0.5173 -0.3010 -0.0402
 9903TIP3    H153904   2.966   4.941   7.807  0.0165 -0.8479 -1.6951
 9903TIP3    H253905   2.876   4.850   7.888  1.3392  0.6297  1.6055
 9904TIP3   OH253906   7.075   0.866   8.998  0.4049 -0.1864 -0.2095
 9904TIP3    H153907   7.149   0.923   8.976  2.5193 -2.4205  0.5849
 9904TIP3    H253908   7.073   0.801   8.927  0.3432 -1.1392  0.6351
 9905TIP3   OH253909   3.763   3.736   8.687 -0.2043  0.0036  0.0882
 9905TIP3    H153910   3.792   3.820   8.722  1.0858 -1.4134  2.7108
 9905TIP3    H253911   3.844   3.691   8.662 -0.5699 -1.5025  1.4131
 9906TIP3   OH253912   2.042   6.288   7.987  0.0687 -0.2199 -0.0763
 9906TIP3    H153913   2.072   6.199   8.006 -1.6628 -0.5940  1.0974
 9906TIP3    H253914   1.955   6.294   8.027  0.9104  2.6356  1.6331
 9907TIP3   OH253915   1.075   5.541   2.187 -0.0544  0.0297  0.3179
 9907TIP3    H153916   1.165   5.528   2.216 -0.4964 -0.6270  1.4681
 9907TIP3    H253917   1.082   5.598   2.110  1.4267 -1.2262 -0.5204
 9908TIP3   OH253918   6.812   4.547   0.303  0.4779 -0.3600 -0.1914
 9908TIP3    H153919   6.884   4.523   0.244  0.9126  1.7528 -0.6193
 9908TIP3    H253920   6.736   4.503   0.266  1.3129 -1.6367 -0.4573
 9909TIP3   OH253921   3.623   6.444   8.983  0.0151 -0.3807 -0.0808
 9909TIP3    H153922   3.660   6.466   8.898 -1.5500 -0.0983 -0.7324
 9909TIP3    H253923   3.695   6.404   9.032  0.4366 -2.5193 -2.2824
 9910TIP3   OH253924   1.312   2.959   8.715  0.2160 -0.3673  0.0995
 9910TIP3    H153925   1.243   2.924   8.771  0.5950 -0.5193  0.4763
 9910TIP3    H253926   1.356   2.882   8.679 -0.1328 -0.2714 -0.5464
 9911TIP3   OH253927   3.352   4.075   7.242  0.0328 -0.0217 -0.6307
 9911TIP3    H153928   3.440   4.037   7.247 -0.0878 -0.1733  0.8946
 9911TIP3    H253929   3.366   4.169   7.242  0.2415 -0.0294 -2.1461
 9912TIP3   OH253930   2.046   7.353   8.953 -0.2810 -0.1226  0.0397
 9912TIP3    H153931   2.068   7.260   8.959 -0.8847 -0.2056  1.0698
 9912TIP3    H253932   2.074   7.378   8.864  5.1602  0.1052  1.4627
 9913TIP3   OH253933   3.197   6.873   1.651  0.4804 -0.7454  0.0179
 9913TIP3    H153934   3.160   6.785   1.657  2.0179 -1.3974  0.4635
 9913TIP3    H253935   3.252   6.881   1.730 -0.6168  1.1030  0.6538
 9914TIP3   OH253936   2.095   1.583   8.000  0.0140 -1.3240  0.5183
 9914TIP3    H153937   2.013   1.535   8.016 -2.2005  2.0068  0.2706
 9914TIP3    H253938   2.082   1.625   7.915  2.8731 -2.1356 -0.4361
 9915TIP3   OH253939   4.597   2.729   9.178 -0.2832 -0.5690 -0.6203
 9915TIP3    H153940   4.568   2.652   9.228  0.9140 -1.1780 -0.8132
 9915TIP3    H253941   4.692   2.725   9.182 -0.1898  0.2879 -1.5723
 9916TIP3   OH253942   1.331   0.906   2.231 -0.5452 -0.4506  0.2463
 9916TIP3    H153943   1.305   0.867   2.148  1.0507 -1.7754  0.3065
 9916TIP3    H253944   1.362   0.993   2.209 -0.0744 -0.8175 -0.5655
 9917TIP3   OH253945   1.980   4.598   9.364  0.2260  0.4078 -0.0363
 9917TIP3    H153946   1.974   4.537   9.291  0.4530  0.7134 -0.3192
 9917TIP3    H253947   1.899   4.649   9.359 -0.9071 -1.1441  1.3953
 9918TIP3   OH253948   5.759   1.475   2.115 -0.5696 -0.0144  0.4681
 9918TIP3    H153949   5.677   1.502   2.155 -0.4089  0.1735  0.6751
 9918TIP3    H253950   5.805   1.557   2.097 -0.9304 -0.0677 -0.7355
 9919TIP3   OH253951   1.900   6.523   0.066 -0.1866  0.3856 -1.1480
 9919TIP3    H153952   1.934   6.461   0.131 -1.3896  1.5366  0.6541
 9919TIP3    H253953   1.842   6.470   0.011  0.3081 -0.4773 -0.8680
 9920TIP3   OH253954   2.342   1.903   2.384  0.5919 -0.2020  0.3895
 9920TIP3    H153955   2.316   1.995   2.379  0.5839 -0.2547 -1.1551
 9920TIP3    H253956   2.260   1.854   2.378  0.7323 -0.3153 -0.9930
 9921TIP3   OH253957   6.739   3.790   0.094 -0.1693  0.4077  0.0121
 9921TIP3    H153958   6.757   3.814   0.186  2.0547 -2.3801  0.4431
 9921TIP3    H253959   6.826   3.784   0.054 -0.8861 -1.5463 -1.3805
 9922TIP3   OH253960   1.602   4.596   1.169  0.0936  0.1905 -0.2909
 9922TIP3    H153961   1.622   4.689   1.163 -2.1731  0.8319  0.7875
 9922TIP3    H253962   1.606   4.577   1.263 -1.0408 -0.3552 -0.3342
 9923TIP3   OH253963   2.509   2.396   9.718  0.2909  0.5543 -0.2278
 9923TIP3    H153964   2.492   2.335   9.789 -1.2419  0.8372 -0.2986
 9923TIP3    H253965   2.571   2.459   9.754 -0.1265  0.4413  0.7203
 9924TIP3   OH253966   5.396   4.382   1.406 -0.3104 -0.6036 -0.1756
 9924TIP3    H153967   5.456   4.421   1.343  0.2220 -1.5774 -0.3028
 9924TIP3    H253968   5.358   4.456   1.454  1.2714  0.0211  0.1588
 9925TIP3   OH253969   5.780   2.273   2.041 -0.3413 -0.3914  0.7343
 9925TIP3    H153970   5.814   2.359   2.066 -0.9009 -0.2825  1.1556
 9925TIP3    H253971   5.831   2.211   2.093  1.0679 -0.4344 -0.6370
 9926TIP3   OH253972   1.307   0.465   1.786  0.5087  0.0186  0.2787
 9926TIP3    H153973   1.366   0.402   1.827 -0.0289 -0.1249  0.8547
 9926TIP3    H253974   1.240   0.480   1.852  1.4282  2.3548  0.8056
 9927TIP3   OH253975   0.685   0.827   0.644 -0.0187 -0.4975  0.6324
 9927TIP3    H153976   0.754   0.796   0.702 -0.7403 -1.2076  1.1432
 9927TIP3    H253977   0.634   0.748   0.624  0.6656 -0.4372 -1.6134
 9928TIP3   OH253978   5.549   6.945   8.913 -0.0400 -0.2123  0.2546
 9928TIP3    H153979   5.515   6.946   9.003 -1.4194  0.8723 -0.2522
 9928TIP3    H253980   5.628   6.999   8.917 -0.6811  0.7177  0.6109
 9929TIP3   OH253981   2.406   6.522   0.853 -0.0167  0.4239 -0.1009
 9929TIP3    H153982   2.428   6.530   0.760  1.9056 -3.7980 -0.2585
 9929TIP3    H253983   2.312   6.505   0.854  0.0633 -0.2342 -1.3858
 9930TIP3   OH253984   3.191   2.414   9.805  0.1046 -0.0253  0.4964
 9930TIP3    H153985   3.203   2.491   9.860 -1.9025  0.2834  0.5767
 9930TIP3    H253986   3.189   2.449   9.716  0.5509 -0.1710  0.4261
 9931TIP3   OH253987   6.747   1.205   0.855 -0.5515  0.5573 -0.0668
 9931TIP3    H153988   6.707   1.258   0.924 -0.2051  1.4168 -0.5149
 9931TIP3    H253989   6.681   1.201   0.786  0.8152  3.9253 -1.8200
 9932TIP3   OH253990   0.370   6.191   2.390  0.2479 -0.2197  0.8252
 9932TIP3    H153991   0.424   6.170   2.314 -1.8488  0.2388 -0.9025
 9932TIP3    H253992   0.323   6.110   2.410  0.7806 -0.3328  1.6340
 9933TIP3   OH253993   0.826   3.014   0.274 -0.6469  0.3395 -0.1090
 9933TIP3    H153994   0.917   2.994   0.252 -0.6545 -0.2549  0.3627
 9933TIP3    H253995   0.822   3.110   0.274 -0.0101  0.3713 -0.0914
 9934TIP3   OH253996   6.470   1.033   0.067 -0.1359  0.3505 -0.4058
 9934TIP3    H153997   6.483   0.947   0.027 -2.2691  0.0503 -0.5794
 9934TIP3    H253998   6.399   1.073   0.017 -0.3590  1.5024  0.7482
 9935TIP3   OH253999   6.353   4.487   0.960 -0.1205 -0.7140 -0.1346
 9935TIP3    H154000   6.284   4.485   0.894 -0.6365 -0.1403  0.3741
 9935TIP3    H254001   6.365   4.396   0.986  0.5703 -1.0492 -1.4946
 9936TIP3   OH254002   6.807   3.210   9.060 -0.8539  0.3578  0.5122
 9936TIP3    H154003   6.873   3.191   8.994 -0.2591 -1.8189  1.6589
 9936TIP3    H254004   6.725   3.217   9.010 -0.3349 -0.6326 -0.5298
 9937TIP3   OH254005   1.020   5.693   9.589 -0.0370 -0.4163  0.2016
 9937TIP3    H154006   1.069   5.610   9.596 -0.3567 -0.4829  2.3540
 9937TIP3    H254007   1.083   5.760   9.616 -0.0061 -0.0174 -0.8110
 9938TIP3   OH254008   5.547   5.547   9.221  0.0699 -0.1265  0.5843
 9938TIP3    H154009   5.464   5.595   9.214 -0.5419 -1.2819 -0.7116
 9938TIP3    H254010   5.589   5.582   9.299 -1.8044  0.2486  1.4784
 9939TIP3   OH254011   4.881   1.083   0.588  0.1102 -0.2328 -0.2241
 9939TIP3    H154012   4.970   1.119   0.589 -1.0368  3.0089 -1.1721
 9939TIP3    H254013   4.880   1.024   0.512  1.4400 -0.3813 -0.1489
 9940TIP3   OH254014   6.967   1.010   8.681  0.1921  0.5156  0.2785
 9940TIP3    H154015   6.953   0.928   8.633 -1.2271  1.2123 -0.5608
 9940TIP3    H254016   7.022   1.063   8.622  1.2432  0.1426  0.8883
 9941TIP3   OH254017   2.071   3.467   6.623 -0.3730 -0.4093  0.1964
 9941TIP3    H154018   2.104   3.417   6.549 -0.3619 -1.1942  0.7164
 9941TIP3    H254019   2.012   3.407   6.669 -0.8866  0.2772  0.4621
 9942TIP3   OH254020   6.081   6.339   8.959 -0.0287  0.2166 -0.7917
 9942TIP3    H154021   6.168   6.377   8.948 -0.5251  0.9843 -2.3045
 9942TIP3    H254022   6.036   6.357   8.877 -1.2598 -1.1466 -0.4624
 9943TIP3   OH254023   4.435   4.191   0.739  0.2831 -0.6344 -0.8239
 9943TIP3    H154024   4.401   4.199   0.650 -1.0855  0.4525 -0.2406
 9943TIP3    H254025   4.380   4.125   0.780  0.0124 -0.1547 -0.3971
 9944TIP3   OH254026   1.536   0.768   7.547 -0.1519 -0.1350  0.3089
 9944TIP3    H154027   1.564   0.776   7.455 -1.4767 -0.4538 -0.1464
 9944TIP3    H254028   1.617   0.766   7.597  0.5881  1.4145 -0.7423
 9945TIP3   OH254029   3.305   7.417   0.823  0.2725  0.2064  0.1784
 9945TIP3    H154030   3.262   7.361   0.888  0.8050 -1.8193 -1.1045
 9945TIP3    H254031   3.395   7.425   0.855  0.6419 -1.1287 -0.4816
 9946TIP3   OH254032   6.375   4.860   0.779 -0.5468 -0.2274  0.3307
 9946TIP3    H154033   6.341   4.874   0.868  1.6075  2.3637  0.8435
 9946TIP3    H254034   6.450   4.803   0.791  0.4367  1.0416  0.3713
 9947TIP3   OH254035   2.471   5.677   9.137  0.3754 -0.1487  0.0183
 9947TIP3    H154036   2.430   5.751   9.182 -0.4656 -1.1174  0.9122
 9947TIP3    H254037   2.564   5.688   9.153  0.3272  1.0407 -0.3885
 9948TIP3   OH254038   0.702   3.407   9.522 -0.2283 -0.0792 -0.4608
 9948TIP3    H154039   0.638   3.351   9.478 -1.3229  0.1237  0.7911
 9948TIP3    H254040   0.786   3.363   9.510 -0.3984  0.1261 -2.9647
 9949TIP3   OH254041   2.727   1.779   1.505 -0.4427  0.3103 -0.4508
 9949TIP3    H154042   2.750   1.863   1.466 -0.9488  1.0652  0.8524
 9949TIP3    H254043   2.631   1.780   1.509 -0.3950  0.7878  1.8900
 9950TIP3   OH254044   2.130   6.576   0.784  0.0853 -0.6222 -0.2396
 9950TIP3    H154045   2.038   6.596   0.766 -0.2804 -2.1655 -0.2242
 9950TIP3    H254046   2.163   6.539   0.702  0.3082 -1.3546  0.1765
 9951TIP3   OH254047   5.918   6.422   0.385  0.1004  0.0517  0.3397
 9951TIP3    H154048   5.904   6.460   0.471  2.3674 -1.0790  1.3089
 9951TIP3    H254049   5.896   6.330   0.396 -0.4276  0.0625 -0.5491
 9952TIP3   OH254050   5.845   3.714   2.458 -0.2077 -0.2456  0.1104
 9952TIP3    H154051   5.766   3.660   2.457  0.3875 -1.1392 -1.5851
 9952TIP3    H254052   5.815   3.800   2.488 -1.5624 -0.9232  0.7868
 9953TIP3   OH254053   2.636   4.671   1.570  0.0571  0.0923 -0.1169
 9953TIP3    H154054   2.671   4.720   1.644  1.9323 -0.2757 -0.7142
 9953TIP3    H254055   2.602   4.590   1.608 -0.6207  0.6792  0.5403
 9954TIP3   OH254056   5.552   4.758   9.274  0.0607 -0.1224 -0.4146
 9954TIP3    H154057   5.638   4.729   9.242  0.0846 -1.7805  0.9328
 9954TIP3    H254058   5.512   4.677   9.308 -1.6912  0.7737 -0.2630
 9955TIP3   OH254059   5.623   1.257   9.097  0.9232 -0.0093  0.0734
 9955TIP3    H154060   5.669   1.194   9.152  0.6657 -0.7920 -0.5836
 9955TIP3    H254061   5.601   1.208   9.017 -0.3613  0.5582  0.0503
 9956TIP3   OH254062   4.241   1.625   8.122  0.5905 -0.9887 -0.1430
 9956TIP3    H154063   4.316   1.684   8.110  0.3275 -0.6970 -0.3684
 9956TIP3    H254064   4.281   1.542   8.148  0.8831 -0.3757  1.4762
 9957TIP3   OH254065   5.998   2.081   0.629 -0.3728  0.3152 -0.0750
 9957TIP3    H154066   6.033   2.032   0.704  1.1212  0.8857 -0.3623
 9957TIP3    H254067   5.944   2.018   0.582 -0.5860 -0.3121  0.9724
 9958TIP3   OH254068   1.219   7.201   0.811 -0.6316  0.7703 -0.0308
 9958TIP3    H154069   1.183   7.119   0.845  0.4890 -0.6202 -2.0045
 9958TIP3    H254070   1.171   7.217   0.730  1.7207 -0.0979 -1.7021
 9959TIP3   OH254071   6.674   4.670   1.856 -0.4172  0.0084 -0.2738
 9959TIP3    H154072   6.628   4.752   1.874 -0.3838  0.2950 -1.4199
 9959TIP3    H254073   6.730   4.656   1.932 -2.5869 -0.5083  1.3080
 9960TIP3   OH254074   5.839   3.317   9.816 -0.4601 -0.2133 -0.4351
 9960TIP3    H154075   5.846   3.307   9.911 -0.2189 -0.7400 -0.5007
 9960TIP3    H254076   5.755   3.276   9.794  0.9022 -3.1123 -0.8035
 9961TIP3   OH254077   3.300   0.377   6.828 -0.5209 -0.5149 -0.4088
 9961TIP3    H154078   3.336   0.464   6.808  0.1940 -0.8291 -0.5007
 9961TIP3    H254079   3.371   0.331   6.872 -1.1889 -0.7652  0.4364
 9962TIP3   OH254080   2.005   5.362   1.134 -0.5646 -0.1651  0.5638
 9962TIP3    H154081   1.916   5.393   1.119 -0.4813 -0.0161  0.3565
 9962TIP3    H254082   2.024   5.305   1.059 -0.0179  0.8648 -0.1186
 9963TIP3   OH254083   0.335   1.788   1.803  0.0178  0.6738  0.2704
 9963TIP3    H154084   0.300   1.721   1.744  0.8571  0.9708 -0.5890
 9963TIP3    H254085   0.388   1.845   1.746 -0.3984  1.8680  1.0461
 9964TIP3   OH254086   1.494   7.294   3.218 -0.1230  0.2713 -0.1352
 9964TIP3    H154087   1.536   7.271   3.301 -0.9852  1.2029  0.5840
 9964TIP3    H254088   1.466   7.385   3.230  1.4346  1.1037 -2.1339
 9965TIP3   OH254089   0.159   1.247   7.542  0.2356  0.1803  0.2052
 9965TIP3    H154090   0.110   1.165   7.543  0.2268 -0.0198 -3.2701
 9965TIP3    H254091   0.232   1.231   7.482  0.0559  2.7356 -0.8426
 9966TIP3   OH254092   0.098   1.628   1.197 -0.1238  0.2019 -0.2178
 9966TIP3    H154093   0.089   1.587   1.283 -1.8343 -0.4014 -0.6523
 9966TIP3    H254094   0.122   1.556   1.139 -2.2649 -0.0927 -0.8209
 9967TIP3   OH254095   4.123   6.335   1.763 -0.1448 -0.4696  0.2871
 9967TIP3    H154096   4.089   6.403   1.704  1.1238  0.5562  0.6970
 9967TIP3    H254097   4.153   6.266   1.704  2.1637  1.0231 -0.4289
 9968TIP3   OH254098   3.475   3.374   1.762 -0.6094 -0.2756  0.6248
 9968TIP3    H154099   3.474   3.364   1.858  0.2754 -0.2335  0.6479
 9968TIP3    H254100   3.443   3.463   1.747 -0.4689 -0.1757  0.8971
 9969TIP3   OH254101   7.180   4.324   7.986 -0.2442  0.5937 -0.1169
 9969TIP3    H154102   7.256   4.382   7.981 -1.1045  1.7025 -1.0334
 9969TIP3    H254103   7.150   4.332   8.076  2.0555 -1.7013  0.9634
 9970TIP3   OH254104   4.672   5.941   8.724  0.2873 -0.0412  0.3340
 9970TIP3    H154105   4.594   5.910   8.679  0.6909 -0.1134 -0.3353
 9970TIP3    H254106   4.715   5.861   8.755  0.4821 -0.0528  0.0392
 9971TIP3   OH254107   5.660   6.450   7.701  0.0721  0.5843 -0.6987
 9971TIP3    H154108   5.625   6.376   7.651 -0.4756 -0.9736  1.8201
 9971TIP3    H254109   5.582   6.502   7.724  0.3062  1.2241 -1.3158
 9972TIP3   OH254110   2.070   5.483   9.137 -0.5203 -0.8079 -0.1238
 9972TIP3    H154111   2.035   5.425   9.204  0.6229 -2.2135 -0.7011
 9972TIP3    H254112   2.092   5.426   9.064 -0.2466  0.4832 -1.1023
 9973TIP3   OH254113   0.251   5.090   8.916  0.0812 -0.3731 -0.1307
 9973TIP3    H154114   0.240   5.183   8.898 -0.9191 -0.1551  1.4004
 9973TIP3    H254115   0.303   5.087   8.996  0.9374 -1.1734 -0.6996
 9974TIP3   OH254116   3.080   5.064   1.632 -0.1761  0.3032 -0.3386
 9974TIP3    H154117   3.112   5.028   1.549  1.5086  0.1693  0.3310
 9974TIP3    H254118   3.125   5.147   1.641 -0.1082  0.1780  0.5825
 9975TIP3   OH254119   3.648   0.393   8.239  0.0128 -0.7687 -0.1332
 9975TIP3    H154120   3.578   0.427   8.294 -1.8355 -3.1733 -0.8197
 9975TIP3    H254121   3.697   0.470   8.212 -2.3258  1.0247  0.4308
 9976TIP3   OH254122   1.795   2.791   2.821  0.2803 -0.2593  0.1487
 9976TIP3    H154123   1.751   2.737   2.755  1.9583  0.6941 -1.8499
 9976TIP3    H254124   1.779   2.881   2.794  2.5478  0.1337 -0.0859
 9977TIP3   OH254125   7.394   5.212   0.520 -0.2157  0.2376 -0.0167
 9977TIP3    H154126   7.481   5.172   0.518 -0.3202  0.0522 -1.1724
 9977TIP3    H254127   7.388   5.262   0.439 -1.0585  0.5379  0.2174
 9978TIP3   OH254128   6.746   0.594   9.757  0.2841 -0.1643  0.0226
 9978TIP3    H154129   6.737   0.581   9.663  1.4321  2.4168 -0.5283
 9978TIP3    H254130   6.743   0.689   9.769  0.3606 -0.3964  2.5931
 9979TIP3   OH254131   2.008   0.820   6.597 -0.1785 -0.0217  0.5875
 9979TIP3    H154132   2.098   0.850   6.580  0.0614 -0.4693  1.0239
 9979TIP3    H254133   1.953   0.884   6.552  0.3834 -0.4107 -0.7046
 9980TIP3   OH254134   4.838   3.888   1.818 -0.3084  0.1956  0.7371
 9980TIP3    H154135   4.816   3.936   1.898  1.3726  0.4702  1.0581
 9980TIP3    H254136   4.927   3.915   1.797 -1.0592  1.0232 -1.8880
 9981TIP3   OH254137   5.940   2.440   8.541  0.1800 -0.4482 -0.1313
 9981TIP3    H154138   5.879   2.453   8.469  0.2994 -1.6040 -0.4772
 9981TIP3    H254139   5.991   2.363   8.515 -0.0013 -1.1092  1.3319
 9982TIP3   OH254140   5.792   7.363   9.583 -0.5731  0.2908  0.5763
 9982TIP3    H154141   5.713   7.320   9.615 -1.0516  0.7740  0.0616
 9982TIP3    H254142   5.775   7.380   9.490  0.5235 -0.4878  0.2073
 9983TIP3   OH254143   0.809   3.673   8.820 -0.3683 -0.6614 -0.1994
 9983TIP3    H154144   0.846   3.619   8.750 -0.7329 -1.2842  0.0843
 9983TIP3    H254145   0.878   3.737   8.839 -0.1829 -0.6257 -0.9734
 9984TIP3   OH254146   6.082   4.757   9.841 -0.0965  0.1829  0.2713
 9984TIP3    H154147   6.014   4.713   9.892 -0.9541  0.7931 -0.3269
 9984TIP3    H254148   6.123   4.688   9.790 -0.5298 -0.1272  0.3404
 9985TIP3   OH254149   3.953   5.643   6.523 -0.2769 -0.2533  0.4025
 9985TIP3    H154150   3.865   5.664   6.490 -0.2754 -0.8069  0.0246
 9985TIP3    H254151   3.947   5.551   6.549 -0.0811 -0.0132  1.3289
 9986TIP3   OH254152   1.145   6.534   7.753 -0.7018  0.4771 -0.0647
 9986TIP3    H154153   1.184   6.508   7.669 -0.7632 -0.4588  0.1940
 9986TIP3    H254154   1.143   6.630   7.749 -1.4567  0.4348 -1.4840
 9987TIP3   OH254155   5.828   7.406   1.958 -0.1189 -0.3829  0.6411
 9987TIP3    H154156   5.882   7.410   2.036  1.4239  1.4151 -0.4151
 9987TIP3    H254157   5.741   7.436   1.986  0.1267 -0.7882  1.8532
 9988TIP3   OH254158   3.180   3.216   2.439  0.0540  0.5457  0.5122
 9988TIP3    H154159   3.252   3.173   2.391 -0.1156  0.8792 -0.0491
 9988TIP3    H254160   3.159   3.155   2.509  0.2014 -0.0298  0.0666
 9989TIP3   OH254161   5.220   3.606   1.230 -0.0048  0.3306 -0.1673
 9989TIP3    H154162   5.136   3.597   1.183 -0.5626  0.9170  0.6935
 9989TIP3    H254163   5.280   3.640   1.164  0.2782 -2.5308 -1.5306
 9990TIP3   OH254164   5.687   6.450   2.577 -0.0652 -0.5432  0.2166
 9990TIP3    H154165   5.768   6.473   2.622 -0.6029 -0.2979  1.0921
 9990TIP3    H254166   5.647   6.382   2.631 -0.6695 -0.3265  0.0605
 9991TIP3   OH254167   4.814   3.737   8.145  0.4187 -0.6760 -0.3083
 9991TIP3    H154168   4.850   3.651   8.166  0.2618 -0.3916  1.2453
 9991TIP3    H254169   4.730   3.739   8.191 -0.7374 -0.5996 -2.3140
 9992TIP3   OH254170   2.509   4.799   2.572  0.0969 -0.3271  0.3392
 9992TIP3    H154171   2.531   4.726   2.514 -0.2446 -0.4992  0.4271
 9992TIP3    H254172   2.594   4.830   2.604  0.1870 -1.8254  1.7001
 9993TIP3   OH254173   1.209   6.578   8.039 -0.2173  0.8144  0.4770
 9993TIP3    H154174   1.300   6.553   8.056  0.2768  2.3068  0.1299
 9993TIP3    H254175   1.199   6.567   7.945 -0.2301  1.1933  0.4352
 9994TIP3   OH254176   4.836   2.917   7.640 -0.1475  0.5156  0.3614
 9994TIP3    H154177   4.882   2.890   7.560 -0.1310  0.2453  0.4597
 9994TIP3    H254178   4.907   2.939   7.701 -0.0981 -1.0458  0.9113
 9995TIP3   OH254179   3.145   6.200   2.115 -0.4780 -0.4336 -0.1405
 9995TIP3    H154180   3.175   6.121   2.160 -2.8888 -2.5038 -1.8345
 9995TIP3    H254181   3.069   6.228   2.166  0.4129  0.9329  0.4982
 9996TIP3   OH254182   4.569   3.823   8.253 -0.2775 -0.4040  0.4095
 9996TIP3    H154183   4.575   3.796   8.162 -0.4221  1.3211 -0.1446
 9996TIP3    H254184   4.495   3.884   8.255 -0.5957 -0.8061  1.7784
 9997TIP3   OH254185   4.399   1.475   1.333 -0.3402 -0.4879 -0.0420
 9997TIP3    H154186   4.489   1.507   1.339 -1.0602  1.4752  0.9702
 9997TIP3    H254187   4.407   1.380   1.341  1.5930 -0.3231  0.5009
 9998TIP3   OH254188   7.471   5.013   1.759 -0.0151 -0.3498 -0.1185
 9998TIP3    H154189   7.416   5.083   1.724 -0.1829 -0.1234  0.5935
 9998TIP3    H254190   7.531   4.992   1.687  0.2906  0.7854 -0.2038
 9999TIP3   OH254191   3.866   1.161   9.840 -0.0543  0.2947  0.4796
 9999TIP3    H154192   3.831   1.239   9.884 -1.0983 -0.1384  0.4616
 9999TIP3    H254193   3.834   1.088   9.893 -2.0745 -0.3054 -1.4073
10000TIP3   OH254194   2.281   5.648   7.663 -0.4294 -0.5017  0.1551
10000TIP3    H154195   2.272   5.558   7.632  0.4894 -0.8666  0.9163
10000TIP3    H254196   2.372   5.671   7.645 -1.1489  1.0102 -1.8843
10001TIP3   OH254197   3.623   4.122   8.629 -0.2912  0.4206  0.1612
10001TIP3    H154198   3.654   4.035   8.607 -0.2919 -0.1266  2.1144
10001TIP3    H254199   3.693   4.181   8.601 -0.1768 -0.2162 -0.9254
10002TIP3   OH254200   0.186   1.328   8.598  0.2487 -0.4122 -0.3200
10002TIP3    H154201   0.153   1.417   8.593  2.0654  0.2363 -1.3206
10002TIP3    H254202   0.157   1.286   8.517 -2.0226 -1.3196  0.8532
10003TIP3   OH254203   1.555   4.207   7.535 -0.3815  0.1344  0.6209
10003TIP3    H154204   1.587   4.297   7.543  0.8510 -0.0403 -1.5030
10003TIP3    H254205   1.463   4.217   7.510 -0.1594  0.8512  0.0327
10004TIP3   OH254206   4.759   2.329   8.174 -0.0281 -0.2279  0.7370
10004TIP3    H154207   4.842   2.282   8.182  0.5083  0.1552 -1.8688
10004TIP3    H254208   4.700   2.267   8.133 -0.4824  0.1087  0.8712
10005TIP3   OH254209   1.952   3.200   7.741  0.1734 -0.1990 -0.5622
10005TIP3    H154210   1.882   3.225   7.680  0.1655  0.1433 -0.4147
10005TIP3    H254211   2.028   3.250   7.711  0.7537 -1.5959 -1.5828
10006TIP3   OH254212   4.659   7.173   8.535  0.0727 -0.8415 -0.1699
10006TIP3    H154213   4.649   7.160   8.441 -0.3429 -0.9649 -0.1065
10006TIP3    H254214   4.605   7.106   8.576  0.3071 -0.8353  0.1599
10007TIP3   OH254215   2.829   5.511   0.601  0.1365  0.2699  0.8218
10007TIP3    H154216   2.742   5.475   0.614  0.3102 -1.0938 -1.3473
10007TIP3    H254217   2.865   5.463   0.527  2.5994  1.0741  1.3814
10008TIP3   OH254218   7.059   1.369   2.362 -0.1243 -0.2123  0.2950
10008TIP3    H154219   7.110   1.362   2.442  0.9016 -1.8928 -0.4405
10008TIP3    H254220   6.975   1.327   2.382 -0.0016 -0.3166  0.5926
10009TIP3   OH254221   1.234   1.208   8.818 -0.0134  0.5660 -0.3507
10009TIP3    H154222   1.328   1.222   8.816  0.4064 -1.8429 -0.9927
10009TIP3    H254223   1.207   1.205   8.727 -0.2921 -0.8941 -0.2493
10010TIP3   OH254224   1.134   6.939   0.938  0.4316 -0.0550 -0.3293
10010TIP3    H154225   1.119   6.870   0.874 -0.4979 -0.1943  0.0165
10010TIP3    H254226   1.051   6.946   0.986  0.3151  1.6802 -0.7179
10011TIP3   OH254227   6.947   4.455   9.919 -0.4374  0.6309  0.2600
10011TIP3    H154228   6.971   4.405   9.841  1.0701  2.0284 -0.2152
10011TIP3    H254229   6.883   4.399   9.963 -0.7523 -0.5515 -1.5520
10012TIP3   OH254230   5.081   1.818   8.208 -0.0041  0.0648 -0.4208
10012TIP3    H154231   5.162   1.806   8.160  0.3510  0.5812  0.0320
10012TIP3    H254232   5.025   1.868   8.149 -0.0180 -0.3509 -0.7590
10013TIP3   OH254233   2.902   1.779   9.823  0.7606 -0.4468 -0.2340
10013TIP3    H154234   2.868   1.693   9.846  1.8157 -1.0435 -0.8351
10013TIP3    H254235   2.898   1.782   9.728  1.5154 -0.1804 -0.2660
10014TIP3   OH254236   6.965   4.006   1.177  0.2411 -0.0541 -0.2222
10014TIP3    H154237   7.027   3.934   1.164 -0.6626 -0.7462 -0.7985
10014TIP3    H254238   6.879   3.967   1.163 -0.3667  0.8009  0.9636
10015TIP3   OH254239   0.922   3.353   7.740 -0.0590  0.3575 -0.0843
10015TIP3    H154240   0.873   3.271   7.729 -0.6043  0.7497 -0.6226
10015TIP3    H254241   0.999   3.328   7.791  1.0290 -0.9593 -2.2451
10016TIP3   OH254242   0.543   2.906   0.130  0.0285 -0.1825 -0.0845
10016TIP3    H154243   0.461   2.936   0.167  0.9049  1.4814  0.5887
10016TIP3    H254244   0.597   2.883   0.206  1.2879  1.7720 -0.3289
10017TIP3   OH254245   5.952   2.149   2.225 -0.4188 -0.0172 -0.5260
10017TIP3    H154246   5.979   2.074   2.277 -1.3625  0.1909  0.3034
10017TIP3    H254247   6.030   2.173   2.174  0.3155 -0.6520  0.2772
10018TIP3   OH254248   4.835   3.059   0.860  0.3074  0.7326 -0.2127
10018TIP3    H154249   4.930   3.072   0.859  0.4483  0.0115 -2.5040
10018TIP3    H254250   4.813   3.040   0.769 -2.0649  0.9394  0.2657
10019TIP3   OH254251   3.331   5.384   9.433  0.4977  0.6789 -0.5393
10019TIP3    H154252   3.331   5.288   9.431 -1.6048  0.5359  1.6157
10019TIP3    H254253   3.291   5.410   9.351 -1.2180 -0.4312 -0.1107
10020TIP3   OH254254   6.692   0.685   1.032  0.3368  0.0948 -0.1107
10020TIP3    H154255   6.717   0.693   1.123  1.5378 -0.8896 -0.3260
10020TIP3    H254256   6.775   0.675   0.985 -0.3412 -1.1554 -1.0943
10021TIP3   OH254257   0.106   0.598   8.490  0.6887 -0.3999  0.1189
10021TIP3    H154258   0.195   0.617   8.520  0.4181  1.5250 -0.2133
10021TIP3    H254259   0.108   0.614   8.396 -0.2408  0.6240  0.2598
10022TIP3   OH254260   0.406   4.624   1.766  0.2045 -0.8535  0.4370
10022TIP3    H154261   0.381   4.665   1.683 -0.4502  1.3129  1.6181
10022TIP3    H254262   0.423   4.533   1.744  1.0848 -0.1269 -2.2642
10023TIP3   OH254263   1.518   4.597   0.891  0.1496 -0.2260 -0.3267
10023TIP3    H154264   1.520   4.602   0.986  1.3307 -0.6748 -0.3046
10023TIP3    H254265   1.591   4.539   0.869  2.4927  2.9178 -1.6704
10024TIP3   OH254266   2.961   1.253   0.224  0.0941 -0.0502 -0.0375
10024TIP3    H154267   2.914   1.255   0.307  1.2227 -0.4720  0.6361
10024TIP3    H254268   2.903   1.299   0.163  0.7072  3.5023  1.7648
10025TIP3   OH254269   0.842   4.220   8.797  0.7600  0.1770 -0.0638
10025TIP3    H154270   0.897   4.270   8.857  0.4148 -0.2907  0.6667
10025TIP3    H254271   0.816   4.143   8.848 -0.7640  0.5025 -0.2899
10026TIP3   OH254272   5.447   5.892   2.399 -0.1760  0.3210  0.1769
10026TIP3    H154273   5.369   5.857   2.443 -0.7215  3.5891  2.1743
10026TIP3    H254274   5.513   5.899   2.469  0.1723  2.2333 -0.2872
10027TIP3   OH254275   0.508   0.611   7.077 -0.4200  0.1947  0.1365
10027TIP3    H154276   0.520   0.534   7.021 -1.0194 -0.3285  0.7106
10027TIP3    H254277   0.586   0.664   7.061  0.4533 -0.9596  0.4048
10028TIP3   OH254278   2.425   6.396   9.839  0.0325 -0.6431  0.0271
10028TIP3    H154279   2.367   6.347   9.896  0.5204  0.2358  1.3218
10028TIP3    H254280   2.413   6.356   9.752 -1.7451 -1.1124  0.4503
10029TIP3   OH254281   4.532   4.867   1.970  0.6766  0.2821  0.4864
10029TIP3    H154282   4.504   4.799   1.909  3.5139 -2.1264  1.5743
10029TIP3    H254283   4.598   4.824   2.025  0.7012  3.2164  3.0822
10030TIP3   OH254284   6.280   3.834   0.029  0.3940  0.8215 -1.0330
10030TIP3    H154285   6.252   3.924   0.011  1.7993  1.0461 -2.2746
10030TIP3    H254286   6.373   3.833   0.008  0.7634 -0.5530  0.4657
10031TIP3   OH254287   6.732   3.380   0.090 -0.7879  0.4036 -0.0077
10031TIP3    H154288   6.727   3.465   0.133 -0.1128  0.1843  0.5130
10031TIP3    H254289   6.740   3.401  -0.003  0.3901  0.9453  0.1998
10032TIP3   OH254290   6.764   2.051   0.033  0.1350 -0.1271 -0.2124
10032TIP3    H154291   6.814   1.980   0.075 -1.5173 -0.9874  0.4127
10032TIP3    H254292   6.808   2.065  -0.051  1.3808 -0.8615  0.2868
10033TIP3   OH254293   0.358   1.702   0.939 -0.2357 -0.2070 -0.4479
10033TIP3    H154294   0.379   1.652   1.018 -2.2242 -0.6673 -0.1538
10033TIP3    H254295   0.440   1.703   0.888  0.7951 -0.7699  1.1281
10034TIP3   OH254296   0.967   5.622   8.331 -0.3375  0.2375  0.1040
10034TIP3    H154297   0.893   5.673   8.297  0.3599  0.3743 -1.2648
10034TIP3    H254298   0.926   5.553   8.383 -1.3866  0.8570  0.1338
10035TIP3   OH254299   4.250   7.009   1.240 -0.9946 -0.5355 -0.1648
10035TIP3    H154300   4.333   7.057   1.242 -0.5274 -1.2014 -1.7583
10035TIP3    H254301   4.247   6.971   1.152 -1.8093 -2.5861  0.7027
10036TIP3   OH254302   5.954   4.374   8.667 -0.2860  0.1228  0.2762
10036TIP3    H154303   6.022   4.420   8.718  0.4477 -0.7585  0.1157
10036TIP3    H254304   5.922   4.441   8.606 -0.1133  0.7714  0.8767
10037TIP3   OH254305   0.708   6.973   0.444  0.0973  0.5248 -0.3137
10037TIP3    H154306   0.624   6.972   0.399  1.5856 -1.3645 -3.4207
10037TIP3    H254307   0.719   6.884   0.477  0.8299  0.7583  0.0925
10038TIP3   OH254308   1.596   3.580   8.872 -0.3421 -0.0825 -0.4680
10038TIP3    H154309   1.614   3.656   8.928 -1.7507 -0.0285 -0.0618
10038TIP3    H254310   1.537   3.525   8.924  0.6435 -1.4804 -0.7501
10039TIP3   OH254311   7.220   0.764   8.366 -0.1708  0.6038 -0.1294
10039TIP3    H154312   7.189   0.792   8.279 -0.0580  0.7672 -0.1185
10039TIP3    H254313   7.262   0.680   8.350 -0.6500  0.3618 -0.1381
10040TIP3   OH254314   5.610   1.135   0.771  0.7719  0.0027  0.0152
10040TIP3    H154315   5.533   1.087   0.737  1.3056 -1.3056  0.5905
10040TIP3    H254316   5.684   1.097   0.723  0.9715  2.2050 -1.5415
10041TIP3   OH254317   3.843   2.448   0.485 -0.4784  0.2371 -0.6300
10041TIP3    H154318   3.782   2.431   0.413  1.4867 -2.1394 -1.8982
10041TIP3    H254319   3.850   2.364   0.530  1.5439  0.5282 -0.3161
10042TIP3   OH254320   2.352   0.818   0.588  0.4822 -0.6475  0.3452
10042TIP3    H154321   2.264   0.849   0.569  0.7758  0.0621  0.1074
10042TIP3    H254322   2.404   0.845   0.512  0.6931 -1.9977 -0.0172
10043TIP3   OH254323   4.838   5.116   7.813 -0.2143 -0.3426  0.2489
10043TIP3    H154324   4.837   5.189   7.751 -1.5241 -0.6571 -0.1397
10043TIP3    H254325   4.855   5.039   7.759  2.9426 -0.2175  0.8727
10044TIP3   OH254326   2.800   0.347   1.509  0.4479 -0.1201  0.5367
10044TIP3    H154327   2.773   0.303   1.589  1.7190 -1.9518  0.0357
10044TIP3    H254328   2.753   0.430   1.509 -0.2434 -0.4628  2.7266
10045TIP3   OH254329   4.978   3.786   9.633  0.0918  0.8161 -0.1405
10045TIP3    H154330   4.998   3.784   9.727  1.3113  0.2857 -0.3862
10045TIP3    H254331   4.886   3.762   9.628  0.4010 -0.7802  0.8437
10046TIP3   OH254332   2.716   5.407   0.066  0.4236  0.3912  0.5185
10046TIP3    H154333   2.787   5.456   0.024  0.6094  1.0202  1.5356
10046TIP3    H254334   2.644   5.410   0.003  1.2160 -0.0746 -0.4340
10047TIP3   OH254335   0.177   4.444   7.818  0.3906 -0.4090 -0.0184
10047TIP3    H154336   0.225   4.524   7.839 -1.4409  0.8171 -0.1878
10047TIP3    H254337   0.104   4.443   7.880 -1.6484  0.0298 -2.2268
10048TIP3   OH254338   3.729   4.137   6.949  0.3960 -0.2169 -0.5580
10048TIP3    H154339   3.656   4.198   6.943  0.6512 -0.0112 -1.7457
10048TIP3    H254340   3.802   4.190   6.982  0.1151 -0.3523  0.3215
10049TIP3   OH254341   5.796   6.076   1.740  0.4209 -0.3596  0.0404
10049TIP3    H154342   5.872   6.049   1.791  0.1803  1.7197  1.6360
10049TIP3    H254343   5.753   5.994   1.716  1.4827 -1.4840  1.7536
10050TIP3   OH254344   2.428   6.944   0.609  0.2150  0.3681 -0.2716
10050TIP3    H154345   2.336   6.969   0.611 -0.1649 -0.7969 -1.5109
10050TIP3    H254346   2.437   6.879   0.679 -0.4642 -1.1334 -1.5099
10051TIP3   OH254347   2.119   4.200   9.965 -0.4449  0.6442 -0.7854
10051TIP3    H154348   2.062   4.227   9.893 -2.0092  0.9687  0.4976
10051TIP3    H254349   2.089   4.253  10.039  1.3308  0.5611  0.0331
10052TIP3   OH254350   4.915   0.579   6.891 -0.2096 -0.3060 -0.4039
10052TIP3    H154351   4.991   0.522   6.891  0.0119 -0.1202  2.3012
10052TIP3    H254352   4.948   0.664   6.860  0.5386 -0.3868  0.1657
10053TIP3   OH254353   1.921   2.218   1.300  0.1010 -0.8064  0.3216
10053TIP3    H154354   1.918   2.278   1.225 -0.2227 -0.0824  0.9016
10053TIP3    H254355   1.923   2.275   1.377  1.0771 -1.5321  0.8589
10054TIP3   OH254356   1.856   1.817   8.418  0.1799 -0.0279 -0.8864
10054TIP3    H154357   1.764   1.840   8.425  0.9227  2.9640  0.4449
10054TIP3    H254358   1.884   1.853   8.334  0.1250 -1.1879 -1.4262
10055TIP3   OH254359   1.972   1.885   9.300 -0.5553  0.3304 -0.0916
10055TIP3    H154360   2.010   1.955   9.353  1.0727 -1.3907  1.1412
10055TIP3    H254361   1.879   1.883   9.326 -0.4485  1.5116  0.4248
10056TIP3   OH254362   2.589   1.992   1.841 -0.5059 -0.4219 -0.1781
10056TIP3    H154363   2.516   1.994   1.779  0.3865  0.4192 -1.2237
10056TIP3    H254364   2.638   1.913   1.819 -0.9648 -0.8713  0.3839
10057TIP3   OH254365   0.049   1.170   0.095  1.3455 -0.1769 -0.4134
10057TIP3    H154366   0.095   1.210   0.169  0.9105  0.5229 -0.5113
10057TIP3    H254367   0.105   1.097   0.069  0.8514 -1.2754  1.4458
10058TIP3   OH254368   0.944   2.593   7.765  0.3288 -0.7119 -0.2818
10058TIP3    H154369   0.906   2.658   7.705  2.8290  1.2814  0.0936
10058TIP3    H254370   0.996   2.536   7.709  0.5885 -0.4585 -0.3024
10059TIP3   OH254371   5.650   0.835   1.659  0.5688 -0.1549 -0.1487
10059TIP3    H154372   5.649   0.897   1.732 -0.0266 -0.8671  0.4494
10059TIP3    H254373   5.630   0.750   1.698  0.4310 -0.5801 -1.1091
10060TIP3   OH254374   0.656   2.028   7.221  0.1843 -0.3662 -0.2800
10060TIP3    H154375   0.627   2.111   7.181 -1.5613 -1.3282 -1.1557
10060TIP3    H254376   0.721   1.994   7.160 -0.4216 -0.4803 -0.8800
10061TIP3   OH254377   3.548   4.380   0.712  0.0371  0.1786  0.5874
10061TIP3    H154378   3.644   4.379   0.714  0.0236 -0.6773  2.0649
10061TIP3    H254379   3.523   4.421   0.795 -0.8653 -2.1881  1.5498
10062TIP3   OH254380   2.788   0.548   2.229 -0.3503  0.8101 -0.4009
10062TIP3    H154381   2.725   0.477   2.217 -0.8435  1.4210 -1.6613
10062TIP3    H254382   2.822   0.536   2.318 -1.2917 -0.2943 -0.1702
10063TIP3   OH254383   1.702   2.458   9.758  0.6777 -0.0802 -0.1398
10063TIP3    H154384   1.736   2.471   9.669 -1.7103  2.1105 -0.8526
10063TIP3    H254385   1.653   2.376   9.753  0.7494 -0.0924 -0.7904
10064TIP3   OH254386   0.350   0.196   7.786  0.1772 -0.4209  0.4548
10064TIP3    H154387   0.255   0.200   7.771  0.4373  0.6621 -1.0960
10064TIP3    H254388   0.358   0.171   7.878 -1.6493  3.4778  1.8845
10065TIP3   OH254389   0.244   7.236   1.343  0.4350 -0.3478 -0.0862
10065TIP3    H154390   0.186   7.311   1.330  0.2946 -0.3115  0.6996
10065TIP3    H254391   0.307   7.241   1.271 -0.5889 -0.4396 -0.9949
10066TIP3   OH254392   0.735   5.377   9.741 -0.0845  0.0056  0.7346
10066TIP3    H154393   0.642   5.398   9.750  0.2944  1.6897  1.1022
10066TIP3    H254394   0.739   5.282   9.749 -1.9308 -0.2561 -0.8224
10067TIP3   OH254395   2.085   4.356   0.957 -0.5448 -0.3384 -0.4842
10067TIP3    H154396   2.127   4.270   0.968  0.3901  0.2930  1.2194
10067TIP3    H254397   2.158   4.418   0.958 -1.3012  0.5632 -0.5396
10068TIP3   OH254398   5.876   5.244   1.517  0.3105  0.2035 -0.4243
10068TIP3    H154399   5.858   5.318   1.459 -0.0127  2.0012  1.8196
10068TIP3    H254400   5.971   5.245   1.529  0.0886  2.6155  2.3080
10069TIP3   OH254401   3.017   0.120   6.241  0.4709 -0.1561 -0.1114
10069TIP3    H154402   3.108   0.091   6.250  0.0621 -1.2178  0.9398
10069TIP3    H254403   3.007   0.188   6.307  0.7716  0.7405 -0.9593
10070TIP3   OH254404   5.551   4.498   9.946  0.5552 -0.0865 -0.2359
10070TIP3    H154405   5.614   4.475  10.015  0.9995  1.6103 -0.0309
10070TIP3    H254406   5.511   4.579   9.977  1.1071  0.9744 -2.1705
10071TIP3   OH254407   4.931   2.699   8.502  0.3470 -0.2804 -0.1479
10071TIP3    H154408   4.890   2.784   8.486  1.0189 -0.0119 -0.4779
10071TIP3    H254409   4.881   2.638   8.448 -0.2211 -0.1178  0.1933
10072TIP3   OH254410   5.697   0.053   1.423  0.6503  0.6101  0.0685
10072TIP3    H154411   5.707  -0.033   1.465  1.9643  0.9399  0.4643
10072TIP3    H254412   5.765   0.055   1.356  0.7493  1.4251  0.1878
10073TIP3   OH254413   5.133   3.213   9.960  0.1479 -0.6220  0.5754
10073TIP3    H154414   5.123   3.301   9.995 -0.6187 -0.6233  0.3656
10073TIP3    H254415   5.129   3.225   9.865 -1.4711 -1.0475  0.5668
10074TIP3   OH254416   2.143   4.364   9.034  0.2071  0.2276 -0.1079
10074TIP3    H154417   2.080   4.380   8.963  1.5985 -0.9751 -1.7018
10074TIP3    H254418   2.229   4.366   8.991  1.1256 -0.4267  1.5782
10075TIP3   OH254419   4.092   3.776   1.027 -0.1836  0.5421  0.0191
10075TIP3    H154420   4.131   3.700   0.983  1.7722  1.7264 -0.3677
10075TIP3    H254421   4.018   3.739   1.077  1.3739 -1.8076  0.7522
10076TIP3   OH254422   0.616   0.454   1.243 -0.3130  0.2491 -0.3284
10076TIP3    H154423   0.610   0.491   1.155 -0.5130  1.1913  0.0718
10076TIP3    H254424   0.548   0.499   1.293 -1.6622 -1.7977 -0.1900
10077TIP3   OH254425   5.393   6.821   0.013 -0.6844 -0.0360  0.1158
10077TIP3    H154426   5.469   6.878   0.023 -1.1424  0.5879  0.0627
10077TIP3    H254427   5.352   6.850  -0.069 -1.5116  0.2646  0.6259
10078TIP3   OH254428   4.460   1.944   8.602  0.3285  0.2898 -0.1063
10078TIP3    H154429   4.549   1.979   8.611  0.2298  0.7434 -0.7777
10078TIP3    H254430   4.430   1.931   8.692  0.5857  1.4272  0.1640
10079TIP3   OH254431   6.231   2.393   8.699 -0.4703 -0.1705 -0.4554
10079TIP3    H154432   6.161   2.353   8.647 -1.2512 -0.6964  0.9450
10079TIP3    H254433   6.290   2.321   8.720  0.6642  0.3144 -1.8321
10080TIP3   OH254434   4.423   2.805   1.228  0.3347 -0.2981  0.3152
10080TIP3    H154435   4.459   2.751   1.298 -0.1934  0.5048  1.2323
10080TIP3    H254436   4.380   2.877   1.273  0.9971  0.8850 -0.8748
10081TIP3   OH254437   5.296   1.920   0.293  0.3355  0.5743  0.0845
10081TIP3    H154438   5.233   1.891   0.227 -1.2901  1.5140  1.1576
10081TIP3    H254439   5.354   1.980   0.245  0.8808 -0.8214 -1.0744
10082TIP3   OH254440   7.091   2.907   2.613 -0.2428  0.1887  0.6295
10082TIP3    H154441   7.037   2.984   2.632 -2.0307 -0.4835 -1.3182
10082TIP3    H254442   7.140   2.930   2.535  0.6536 -0.0196  1.1093
10083TIP3   OH254443   0.946   6.722   7.450 -0.0852  0.0698  0.0840
10083TIP3    H154444   1.006   6.648   7.439  2.2555  1.8953 -0.2490
10083TIP3    H254445   0.933   6.756   7.361 -1.8367 -0.4044  0.1255
10084TIP3   OH254446   0.850   1.418   0.089  0.0887 -0.2184  0.3394
10084TIP3    H154447   0.887   1.381   0.009 -1.8015  1.1949 -1.2937
10084TIP3    H254448   0.831   1.343   0.145 -1.5822 -1.6056 -1.9350
10085TIP3   OH254449   1.406   5.065   1.839  1.0133  0.2702 -0.7459
10085TIP3    H154450   1.435   5.105   1.757 -0.0188  1.3379 -0.6156
10085TIP3    H254451   1.320   5.027   1.818 -0.5359  2.8294  0.3891
10086TIP3   OH254452   3.947   3.553   8.598  0.0528 -0.0231  0.6612
10086TIP3    H154453   3.991   3.469   8.597 -0.7899 -0.4827  0.8539
10086TIP3    H254454   4.003   3.611   8.547 -0.5862 -1.3468 -1.6989
10087TIP3   OH254455   2.541   2.646   6.702  0.5055 -0.0251 -0.1403
10087TIP3    H154456   2.533   2.735   6.667  1.3333 -0.1244 -0.6261
10087TIP3    H254457   2.626   2.646   6.747 -0.4839  0.0597  1.7951
10088TIP3   OH254458   4.010   5.510   9.756 -0.3721  0.2823 -0.4471
10088TIP3    H154459   3.942   5.497   9.690  0.9097  0.6303 -1.9136
10088TIP3    H254460   4.088   5.532   9.705  1.7487 -3.3011  0.8638
10089TIP3   OH254461   3.065   4.140   1.472 -0.0179  0.5413  0.0985
10089TIP3    H154462   3.119   4.219   1.483 -0.7324  1.0912 -0.2036
10089TIP3    H254463   3.021   4.154   1.388  1.3080 -1.0853 -0.9234
10090TIP3   OH254464   2.885   4.137   0.191  0.0582 -0.3785 -0.4922
10090TIP3    H154465   2.804   4.111   0.148 -0.1105 -1.0799  0.2419
10090TIP3    H254466   2.937   4.057   0.196 -0.3517 -0.5684  1.5395
10091TIP3   OH254467   4.591   5.876   0.365  0.0280  0.4501  0.3771
10091TIP3    H154468   4.665   5.869   0.424  0.2792 -1.5906 -0.1025
10091TIP3    H254469   4.530   5.809   0.395 -0.6258  0.5851 -0.6014
10092TIP3   OH254470   6.284   7.332   0.295 -0.2315 -0.0246 -0.4040
10092TIP3    H154471   6.325   7.395   0.236 -0.0570  0.3893  0.1516
10092TIP3    H254472   6.285   7.250   0.246  0.3356  0.2092 -0.7967
10093TIP3   OH254473   4.194   6.391   2.163 -0.3980 -0.0938  0.4178
10093TIP3    H154474   4.177   6.309   2.209 -0.4414  0.6577  1.7981
10093TIP3    H254475   4.264   6.369   2.101 -2.0499 -1.7233 -0.9826
10094TIP3   OH254476   7.453   5.826   1.833  0.2203 -0.1594  0.1247
10094TIP3    H154477   7.517   5.847   1.765 -1.8861 -0.5690 -2.1258
10094TIP3    H254478   7.429   5.910   1.871  3.3172 -0.1203  2.3542
10095TIP3   OH254479   1.550   6.698   0.786 -0.3157  0.6320  0.0517
10095TIP3    H154480   1.619   6.632   0.779 -0.2789  0.5717  0.8355
10095TIP3    H254481   1.525   6.696   0.879 -2.4727 -0.4738 -0.4820
10096TIP3   OH254482   4.615   3.752   8.530  0.1445  0.0421 -0.1501
10096TIP3    H154483   4.698   3.704   8.535  0.3644  0.4316 -0.0223
10096TIP3    H254484   4.593   3.752   8.436  0.9805  1.0986 -0.3571
10097TIP3   OH254485   0.804   1.840   7.436  0.0758  0.6254 -0.2358
10097TIP3    H154486   0.752   1.839   7.356 -0.8829 -0.0829  0.3725
10097TIP3    H254487   0.850   1.755   7.437  0.4908  0.8448 -0.2848
10098TIP3   OH254488   5.467   6.109   9.159  0.0712  0.0384 -0.3551
10098TIP3    H154489   5.394   6.168   9.180 -0.1888 -0.0518 -0.9836
10098TIP3    H254490   5.544   6.166   9.158 -0.0589  0.2192 -0.1410
10099TIP3   OH254491   2.012   4.265   8.122  0.0210  0.6517  0.0519
10099TIP3    H154492   2.090   4.302   8.080  1.1346 -1.1288  0.4217
10099TIP3    H254493   2.000   4.180   8.079 -1.2930  0.5845  0.5111
10100TIP3   OH254494   2.718   6.928   0.900 -0.4687  0.2086 -0.0079
10100TIP3    H154495   2.789   6.871   0.931 -1.6186 -0.3616  1.6921
10100TIP3    H254496   2.754   6.969   0.822  0.7278 -2.2001 -0.8319
10101TIP3   OH254497   5.009   3.929   8.656  0.5759  0.3398  0.3246
10101TIP3    H154498   5.022   3.907   8.563 -0.7827  0.0658  0.1854
10101TIP3    H254499   4.917   3.953   8.662  1.1176  2.3991  1.2234
10102TIP3   OH254500   5.272   3.946   7.926 -0.2081 -0.6793 -0.4873
10102TIP3    H154501   5.352   3.895   7.940 -0.0304 -1.1945 -2.9226
10102TIP3    H254502   5.277   3.975   7.835 -2.3265  0.1367 -0.4128
10103TIP3   OH254503   0.951   2.851   1.610  0.3994  0.1715 -0.3144
10103TIP3    H154504   0.887   2.922   1.617  2.2577  1.7956  1.5440
10103TIP3    H254505   1.005   2.875   1.534  1.8077  1.5364  1.0441
10104TIP3   OH254506   4.875   3.173   1.499  0.0195  0.0413 -0.5363
10104TIP3    H154507   4.841   3.262   1.501  1.4700  0.6576 -1.4831
10104TIP3    H254508   4.807   3.122   1.454 -1.3080  0.4023  0.9833
10105TIP3   OH254509   5.299   0.169   8.298 -0.2689  0.0402  0.2034
10105TIP3    H154510   5.208   0.138   8.299 -0.2549  0.0002  0.3244
10105TIP3    H254511   5.349   0.094   8.268 -0.2919  0.1076 -0.0025
10106TIP3   OH254512   5.747   0.631   2.056  0.1287 -0.2533  0.3989
10106TIP3    H154513   5.757   0.721   2.087  1.8227 -0.6803  1.2024
10106TIP3    H254514   5.820   0.583   2.096 -0.2512 -1.8138 -0.6682
10107TIP3   OH254515   4.941   4.266   8.670  0.6912  0.1590 -1.0061
10107TIP3    H154516   5.036   4.277   8.667  0.5322  1.6527 -1.4091
10107TIP3    H254517   4.922   4.243   8.761  1.1854  3.0211 -0.0744
10108TIP3   OH254518   7.313   3.069   8.482 -0.0218  0.4384 -0.6482
10108TIP3    H154519   7.372   2.999   8.456 -1.4597 -1.5782  1.2177
10108TIP3    H254520   7.236   3.057   8.428 -1.2327 -1.0178  1.2708
10109TIP3   OH254521   1.764   3.345   9.948  0.1084 -0.0706 -0.2000
10109TIP3    H154522   1.821   3.306  10.014  0.7491  0.4402 -0.4370
10109TIP3    H254523   1.750   3.276   9.884  1.7859  0.2498 -0.9677
10110TIP3   OH254524   4.957   4.445   1.856  0.0004  0.6354  0.8685
10110TIP3    H154525   4.907   4.466   1.935 -2.1880  2.0914 -0.7882
10110TIP3    H254526   4.968   4.529   1.812  1.1671 -0.1474 -0.4103
10111TIP3   OH254527   3.049   3.716   1.849  0.4876  0.2416  0.1832
10111TIP3    H154528   3.034   3.626   1.819 -1.2513 -0.1524  2.0407
10111TIP3    H254529   3.056   3.767   1.768  2.1191 -1.6020 -0.9386
10112TIP3   OH254530   1.748   0.628   0.526 -0.4789  0.6763  1.0920
10112TIP3    H154531   1.743   0.716   0.562 -1.7295  0.8928  0.4311
10112TIP3    H254532   1.673   0.622   0.467 -0.2220 -0.7227  0.8828
10113TIP3   OH254533   3.647   2.068   8.806  0.1895  0.0672 -0.0465
10113TIP3    H154534   3.727   2.088   8.757  0.8040  0.2059  0.9758
10113TIP3    H254535   3.664   1.984   8.848 -0.1031  0.1992  0.3533
10114TIP3   OH254536   1.457   6.605   9.471 -0.1284 -0.5500  0.1208
10114TIP3    H154537   1.430   6.655   9.548 -1.2778  1.8187 -1.6840
10114TIP3    H254538   1.399   6.528   9.472  0.2114 -0.8302  1.8304
10115TIP3   OH254539   6.641   2.898   1.908  0.0907 -0.3553  0.1085
10115TIP3    H154540   6.691   2.847   1.972  1.8594  1.8185  0.5570
10115TIP3    H254541   6.707   2.939   1.852 -1.2757  0.7908 -0.7318
10116TIP3   OH254542   2.598   4.000   1.159  0.4165  0.3825  0.5728
10116TIP3    H154543   2.553   4.064   1.103 -0.6511 -0.7304  0.0970
10116TIP3    H254544   2.529   3.967   1.217  0.2522 -2.2256 -0.9467
10117TIP3   OH254545   5.435   5.780   8.824 -0.0902  0.6067 -0.5295
10117TIP3    H154546   5.367   5.845   8.837 -0.4922  0.1683 -0.4293
10117TIP3    H254547   5.421   5.748   8.735 -2.2148 -1.9621  0.5987
10118TIP3   OH254548   3.860   0.438   1.274  0.7044 -0.0780 -0.2208
10118TIP3    H154549   3.822   0.417   1.359 -0.7486  0.4187 -0.7233
10118TIP3    H254550   3.941   0.485   1.295  1.6256 -2.0297  0.8812
10119TIP3   OH254551   2.512   6.536   6.790 -0.4480 -0.0767  0.7806
10119TIP3    H154552   2.466   6.463   6.749 -1.5974  1.6718 -1.3181
10119TIP3    H254553   2.581   6.558   6.727 -1.1379  1.5974  0.5611
10120TIP3   OH254554   1.385   0.266   0.677 -0.2366  0.1238 -0.0803
10120TIP3    H154555   1.342   0.186   0.706  3.2904 -1.8488  0.2908
10120TIP3    H254556   1.388   0.259   0.581 -0.6924  0.2576 -0.1048
10121TIP3   OH254557   1.881   1.720   9.865 -0.6330 -0.2995  0.2423
10121TIP3    H154558   1.804   1.695   9.916 -0.9318  1.2070  0.5496
10121TIP3    H254559   1.955   1.685   9.915 -1.0815 -2.1622 -0.2894
10122TIP3   OH254560   2.497   1.565   7.693 -0.5020 -0.1490  0.2246
10122TIP3    H154561   2.450   1.637   7.734 -0.9469 -0.8186  0.9208
10122TIP3    H254562   2.524   1.599   7.608 -1.8659  0.3908 -0.0055
10123TIP3   OH254563   1.052   5.041   0.441 -0.8353 -0.2961  0.5021
10123TIP3    H154564   1.053   5.007   0.351  1.3658  1.7538 -0.3648
10123TIP3    H254565   1.086   4.969   0.494  1.4766 -0.3440 -0.9147
10124TIP3   OH254566   3.308   3.391   8.007 -0.0278 -0.0175  0.4140
10124TIP3    H154567   3.244   3.418   8.073 -2.2063 -0.6192 -1.3477
10124TIP3    H254568   3.363   3.327   8.051 -0.1387  1.0618  2.2033
10125TIP3   OH254569   4.657   1.799   0.845 -0.2988 -0.8673  0.5459
10125TIP3    H154570   4.666   1.708   0.816 -0.2835 -0.7034  0.0164
10125TIP3    H254571   4.742   1.819   0.885  0.1110 -0.7469 -0.3423
10126TIP3   OH254572   0.512   4.858   0.564 -0.1799 -0.1042 -0.6035
10126TIP3    H154573   0.493   4.919   0.635 -0.6589 -0.3856 -0.4847
10126TIP3    H254574   0.577   4.903   0.510  1.0858 -0.3518  0.6406
10127TIP3   OH254575   4.837   3.437   8.277 -0.0434  0.2227  0.1567
10127TIP3    H154576   4.874   3.435   8.189 -0.4179 -0.8246  0.0091
10127TIP3    H254577   4.743   3.422   8.264 -0.0360 -0.4038  0.7546
10128TIP3   OH254578   0.461   0.969   9.798 -0.1965 -0.4200  0.5167
10128TIP3    H154579   0.406   0.946   9.723 -1.4666  0.8431  1.0050
10128TIP3    H254580   0.539   0.914   9.789 -0.0399  0.1083 -2.0408
10129TIP3   OH254581   2.734   6.852   9.469  0.2023 -0.1179  0.2734
10129TIP3    H154582   2.717   6.765   9.432  2.3560 -1.5330  2.3264
10129TIP3    H254583   2.681   6.911   9.416  1.1446 -2.2269 -3.3362
10130TIP3   OH254584   5.325   4.656   9.793 -0.6313  0.1369 -0.0472
10130TIP3    H154585   5.250   4.706   9.826 -0.0725 -0.1520  1.7126
10130TIP3    H254586   5.399   4.716   9.799 -0.5662  0.2037 -1.1836
10131TIP3   OH254587   3.113   0.623   9.643 -0.9591 -0.0660 -0.3233
10131TIP3    H154588   3.076   0.580   9.566  0.1522 -1.9891  0.1684
10131TIP3    H254589   3.174   0.687   9.607 -3.1293  1.7279 -1.0820
10132TIP3   OH254590   4.342   5.689   2.162 -0.4264 -0.2565  0.3270
10132TIP3    H154591   4.268   5.650   2.209  0.1496 -0.5043  1.0471
10132TIP3    H254592   4.398   5.723   2.231  0.3917 -0.5363 -0.1940
10133TIP3   OH254593   4.257   0.102   8.802  0.3207 -0.0048  0.1850
10133TIP3    H154594   4.189   0.065   8.747  0.1153  0.8933 -0.1866
10133TIP3    H254595   4.265   0.041   8.876 -0.9674 -0.0558  0.2951
10134TIP3   OH254596   6.775   0.034   7.865 -0.5861  0.0859 -0.5949
10134TIP3    H154597   6.833  -0.026   7.817  0.4636 -0.2362  1.0181
10134TIP3    H254598   6.805   0.121   7.841 -1.4447  0.0063 -2.1318
10135TIP3   OH254599   0.963   1.221   8.911  0.7306  0.3635 -0.1016
10135TIP3    H154600   1.058   1.224   8.897  1.0305 -1.2638  1.2971
10135TIP3    H254601   0.927   1.258   8.831  2.5219 -0.4073 -1.3536
10136TIP3   OH254602   1.887   7.078   6.908 -0.1178  0.1714  0.0020
10136TIP3    H154603   1.916   7.097   6.997  1.0249 -2.1119  0.1820
10136TIP3    H254604   1.796   7.108   6.905  0.6790  2.9633  0.9699
10137TIP3   OH254605   4.763   6.169   8.226 -0.0553  0.3026  0.1794
10137TIP3    H154606   4.678   6.127   8.216  0.6314 -0.9907 -0.3554
10137TIP3    H254607   4.791   6.189   8.137  0.4753  0.1888  0.3194
10138TIP3   OH254608   6.218   0.187   7.546  0.4462  0.6033 -0.5372
10138TIP3    H154609   6.228   0.092   7.554 -1.9902  0.3704  0.7974
10138TIP3    H254610   6.175   0.200   7.461  0.2679  0.4325 -0.4757
10139TIP3   OH254611   4.034   6.062   8.957  0.1802  0.5587 -0.1377
10139TIP3    H154612   3.964   6.122   8.982 -0.2144  0.5846 -1.2150
10139TIP3    H254613   4.104   6.118   8.926  0.3595  0.5061  0.1714
10140TIP3   OH254614   5.476   4.119   0.174 -0.0181  0.1390 -0.1885
10140TIP3    H154615   5.571   4.125   0.178 -0.1001  1.0824  1.3744
10140TIP3    H254616   5.448   4.203   0.138 -0.2476 -0.4042 -1.3091
10141TIP3   OH254617   1.443   3.792   0.202  0.2636  0.3056 -0.5126
10141TIP3    H154618   1.443   3.783   0.297 -0.6787  0.1760 -0.5080
10141TIP3    H254619   1.524   3.750   0.173 -0.0589 -0.8280  0.1540
10142TIP3   OH254620   2.203   5.675   0.117 -0.0110  0.4299  0.1574
10142TIP3    H154621   2.295   5.650   0.108  0.1478  1.4730 -1.6793
10142TIP3    H254622   2.186   5.672   0.211  1.3735 -1.5560  0.4062
10143TIP3   OH254623   2.121   3.455   7.845  0.0644 -0.1386  0.8295
10143TIP3    H154624   2.129   3.510   7.767  0.8289  0.3878  1.2687
10143TIP3    H254625   2.035   3.479   7.882  0.5463  1.0739  1.2255
10144TIP3   OH254626   4.043   1.105   8.055  0.5603  0.2576 -0.0876
10144TIP3    H154627   3.958   1.062   8.046  1.6465 -1.8209 -1.1553
10144TIP3    H254628   4.024   1.187   8.100 -2.2291  0.6376 -1.7181
10145TIP3   OH254629   4.060   6.726   1.239 -0.7439 -0.5192 -0.7210
10145TIP3    H154630   4.136   6.673   1.262 -0.7378 -0.5420 -0.7951
10145TIP3    H254631   4.062   6.799   1.302 -0.6426 -0.5011 -0.7447
10146TIP3   OH254632   3.232   1.794   1.395  0.4495 -0.7155  0.4942
10146TIP3    H154633   3.300   1.756   1.340  0.0713  0.8703 -1.2049
10146TIP3    H254634   3.273   1.872   1.432 -0.8258  1.3558 -2.0616
10147TIP3   OH254635   5.488   6.127   8.836  0.2151 -0.3082  0.1135
10147TIP3    H154636   5.393   6.118   8.843 -0.1214  0.9118 -2.0768
10147TIP3    H254637   5.504   6.221   8.833  1.1946 -0.4766 -2.1235
10148TIP3   OH254638   0.817   5.138   2.462 -0.0361  0.0848  0.4340
10148TIP3    H154639   0.731   5.171   2.433 -0.4402 -0.6591  0.7599
10148TIP3    H254640   0.833   5.185   2.544 -0.2769  0.0015  0.5311
10149TIP3   OH254641   7.445   5.276   8.911 -0.7069  0.6126  0.6560
10149TIP3    H154642   7.536   5.301   8.895 -1.1506  0.9784 -1.6630
10149TIP3    H254643   7.444   5.248   9.002  1.5072  1.5397  1.0419
10150TIP3   OH254644   2.920   7.157   7.797 -0.7039  0.3514 -0.1761
10150TIP3    H154645   2.893   7.070   7.825 -0.9771  0.2245 -0.8070
10150TIP3    H254646   2.969   7.142   7.716 -0.5223  0.7636 -0.1491
10151TIP3   OH254647   0.730   3.130   1.435 -0.2424  0.0935 -0.3280
10151TIP3    H154648   0.765   3.077   1.365  0.2119  0.8259 -0.6706
10151TIP3    H254649   0.799   3.193   1.455 -1.3300  1.5858 -1.0396
10152TIP3   OH254650   3.318   1.761   0.101  0.6034 -0.1853  0.2608
10152TIP3    H154651   3.331   1.667   0.098  0.5230 -0.2169  0.9076
10152TIP3    H254652   3.404   1.797   0.125  1.3930  0.1142 -2.6313
10153TIP3   OH254653   6.829   3.125   2.290 -0.3849 -0.1842 -0.1927
10153TIP3    H154654   6.917   3.091   2.271 -0.4875 -0.6600  0.1548
10153TIP3    H254655   6.843   3.218   2.306  0.0653 -0.2595 -0.1222
10154TIP3   OH254656   5.881   5.026   7.258  0.2166 -0.3991 -0.3211
10154TIP3    H154657   5.973   5.003   7.267  0.2624 -0.1070 -0.0120
10154TIP3    H254658   5.835   4.942   7.256  0.6753 -0.6627 -3.0076
10155TIP3   OH254659   0.282   6.743   1.375 -0.5469 -0.1258  0.0171
10155TIP3    H154660   0.245   6.655   1.371  0.6621 -0.6354 -0.4376
10155TIP3    H254661   0.352   6.737   1.440 -2.2363  1.2389  2.1131
10156TIP3   OH254662   4.386   4.943   6.811 -0.4925  0.2869 -0.2503
10156TIP3    H154663   4.389   5.030   6.852 -0.7765 -0.9498  2.5803
10156TIP3    H254664   4.476   4.913   6.812 -0.8954 -1.3297  3.3984
10157TIP3   OH254665   0.314   4.594   0.443  0.2670 -1.0269  0.3226
10157TIP3    H154666   0.235   4.584   0.390 -0.6191  0.2175  1.3327
10157TIP3    H254667   0.372   4.648   0.389 -1.5914  2.3726  1.4176
10158TIP3   OH254668   5.482   1.950   7.910  0.0076 -0.4283  0.1317
10158TIP3    H154669   5.570   1.919   7.889 -0.2749 -0.4824 -1.0368
10158TIP3    H254670   5.480   1.952   8.006  1.5964  0.5120  0.1925
10159TIP3   OH254671   0.402   0.915   0.227  0.1111 -0.0585  0.0015
10159TIP3    H154672   0.478   0.918   0.287  0.2389 -0.6273 -0.1333
10159TIP3    H254673   0.341   0.855   0.269  0.0829 -0.2432 -0.3066
10160TIP3   OH254674   0.753   4.280   1.744  0.4955 -0.4605  0.1530
10160TIP3    H154675   0.843   4.312   1.745  0.0615  0.9652 -1.6979
10160TIP3    H254676   0.705   4.342   1.800  0.6767 -1.3993  1.3947
10161TIP3   OH254677   0.252   5.549   9.034  0.7505 -0.3745  0.4094
10161TIP3    H154678   0.317   5.543   9.103  0.6955 -1.7011  0.3646
10161TIP3    H254679   0.209   5.464   9.033  0.0355 -0.0266 -0.5650
10162TIP3   OH254680   0.858   0.994   9.488 -0.0056 -0.1971  0.3132
10162TIP3    H154681   0.812   1.076   9.469 -0.2830 -0.1300  1.2360
10162TIP3    H254682   0.886   0.963   9.402 -2.3528 -0.5828 -0.4028
10163TIP3   OH254683   2.859   1.852   7.008 -0.7866  0.3693 -0.0750
10163TIP3    H154684   2.830   1.888   7.092 -0.6287 -0.1175  0.1937
10163TIP3    H254685   2.954   1.842   7.018 -1.0605 -2.2460  0.7218
10164TIP3   OH254686   5.947   5.878   0.790 -0.5283  0.6730 -0.0904
10164TIP3    H154687   5.904   5.868   0.875  2.5512  2.3029  1.8768
10164TIP3    H254688   6.013   5.809   0.788 -1.8859 -0.6421 -2.1734
10165TIP3   OH254689   4.213   1.846   1.151  0.0673  0.4940 -0.3609
10165TIP3    H154690   4.193   1.890   1.069 -1.8871  0.8549  0.2539
10165TIP3    H254691   4.203   1.752   1.132  2.5544  0.3408 -1.2355
10166TIP3   OH254692   0.942   1.079   0.952 -0.2132  0.2694  0.2950
10166TIP3    H154693   0.911   1.085   0.862  0.4442 -0.7461 -0.0240
10166TIP3    H254694   1.014   1.141   0.957  1.6199 -1.6486 -0.7488
10167TIP3   OH254695   5.074   6.495   2.069 -0.3016  0.5836 -0.4311
10167TIP3    H154696   5.113   6.544   2.141 -2.3773  0.6120  0.7298
10167TIP3    H254697   5.053   6.561   2.003  2.5813  0.4436 -1.6526
10168TIP3   OH254698   5.315   4.729   1.006 -0.2584 -0.0064 -0.3159
10168TIP3    H154699   5.244   4.779   0.967  0.1593  0.2022 -0.8246
10168TIP3    H254700   5.277   4.643   1.024 -1.2565  0.7522  1.4588
10169TIP3   OH254701   1.282   2.260   9.255 -0.4362 -0.3571  0.3603
10169TIP3    H154702   1.225   2.188   9.282 -2.3169  0.3812 -1.3993
10169TIP3    H254703   1.227   2.338   9.258 -0.1015  0.1653 -2.8583
10170TIP3   OH254704   0.621   2.742   8.589  0.2240  0.2726 -0.1809
10170TIP3    H154705   0.575   2.695   8.658  0.4481  0.8047  0.3424
10170TIP3    H254706   0.671   2.675   8.542 -1.4321 -0.3822 -1.0691
10171TIP3   OH254707   5.927   3.036   0.830 -0.5236  0.4792 -0.3696
10171TIP3    H154708   6.018   3.062   0.845 -1.0315  0.9956  2.2025
10171TIP3    H254709   5.931   2.979   0.753  1.8983  0.8228 -0.5787
10172TIP3   OH254710   2.010   1.143   9.136  0.1470  0.3206 -0.1456
10172TIP3    H154711   2.040   1.127   9.226 -0.8845 -2.7552 -0.2296
10172TIP3    H254712   1.922   1.179   9.146  0.6798  1.6619  0.0181
10173TIP3   OH254713   2.092   5.016   0.618  0.5221  0.0440  0.0276
10173TIP3    H154714   2.049   4.943   0.572  0.3944  0.8541 -1.1831
10173TIP3    H254715   2.022   5.080   0.631  0.8530  0.3845  0.1458
10174TIP3   OH254716   5.827   0.813   8.614 -0.5758 -0.1123 -0.7890
10174TIP3    H154717   5.786   0.738   8.571  0.0530 -1.9625  1.6193
10174TIP3    H254718   5.910   0.778   8.649 -0.9651  1.2637  1.6895
10175TIP3   OH254719   3.112   0.488   3.173 -0.4146 -0.2916  0.0140
10175TIP3    H154720   3.182   0.467   3.110  1.1044 -0.9064  1.8157
10175TIP3    H254721   3.108   0.584   3.173 -0.4036 -0.2829 -0.9684
10176TIP3   OH254722   6.385   3.345   0.086  0.2494  0.1923  0.2050
10176TIP3    H154723   6.292   3.330   0.072 -0.1191  1.0034  1.6032
10176TIP3    H254724   6.425   3.334  -0.001 -1.0430 -0.7720 -0.2928
10177TIP3   OH254725   1.672   7.298   6.681 -0.0872 -0.5532 -0.1906
10177TIP3    H154726   1.666   7.221   6.737  0.8308 -1.2502 -1.0189
10177TIP3    H254727   1.703   7.367   6.740 -2.2310 -0.4112  0.8803
10178TIP3   OH254728   7.108   3.728   8.660  0.6365 -0.0303 -0.3382
10178TIP3    H154729   7.171   3.791   8.697  1.4276 -1.6380  1.1707
10178TIP3    H254730   7.139   3.643   8.691 -2.1007 -0.9234  0.1492
10179TIP3   OH254731   3.796   1.518   9.275 -0.0329 -0.1687  0.7161
10179TIP3    H154732   3.749   1.455   9.329  0.9447 -2.8619 -1.3412
10179TIP3    H254733   3.804   1.476   9.190  1.2844  2.5045 -0.6190
10180TIP3   OH254734   4.196   5.835   7.956 -0.2007 -0.5991 -0.1741
10180TIP3    H154735   4.210   5.764   8.019 -0.3902  0.2099  0.7973
10180TIP3    H254736   4.263   5.900   7.978 -2.5126  1.3436  1.6410
10181TIP3   OH254737   4.538   5.710   9.078 -0.3268 -0.2929 -0.3070
10181TIP3    H154738   4.505   5.795   9.048 -0.8900 -0.8960 -1.5052
10181TIP3    H254739   4.565   5.665   8.997  0.8808 -0.8839  0.4017
10182TIP3   OH254740   4.587   4.696   9.275  0.3199  0.8410 -0.5260
10182TIP3    H154741   4.533   4.628   9.314  1.9624 -0.2932 -0.1445
10182TIP3    H254742   4.613   4.661   9.190  1.0428  1.0522 -0.3981
10183TIP3   OH254743   0.114   6.590   7.873  0.3890 -0.0184 -0.1266
10183TIP3    H154744   0.084   6.662   7.817 -0.2925 -0.1036  0.1224
10183TIP3    H254745   0.194   6.623   7.914 -1.2263  1.6004  1.9397
10184TIP3   OH254746   7.453   3.771   1.336 -0.4563  0.3417  0.0746
10184TIP3    H154747   7.447   3.705   1.267 -0.3186 -0.0205  0.4027
10184TIP3    H254748   7.526   3.828   1.309 -0.0796 -0.0923  0.1632
10185TIP3   OH254749   2.544   0.872   1.677  0.2743 -0.3157  0.0429
10185TIP3    H154750   2.562   0.801   1.616 -1.7978 -0.4662 -0.4924
10185TIP3    H254751   2.628   0.916   1.689  0.9579 -0.9111 -2.1312
10186TIP3   OH254752   0.228   1.541   9.239 -0.1144 -0.5785  0.0257
10186TIP3    H154753   0.183   1.570   9.160 -0.5558  0.4180  0.6304
10186TIP3    H254754   0.194   1.453   9.255 -1.0457 -0.2593 -0.1288
10187TIP3   OH254755   6.374   3.880   0.518  0.1010  0.4765  0.3284
10187TIP3    H154756   6.454   3.840   0.551  1.3874  0.8270 -2.1572
10187TIP3    H254757   6.404   3.957   0.469 -1.8098  0.9127 -0.2437
10188TIP3   OH254758   6.857   3.809   8.584  0.3772 -0.1419 -0.2791
10188TIP3    H154759   6.938   3.766   8.614  0.2238 -0.1102  0.1871
10188TIP3    H254760   6.787   3.761   8.627  0.1524 -0.0712 -0.5665
10189TIP3   OH254761   2.913   2.958   9.403  0.0576 -0.3851  0.2141
10189TIP3    H154762   2.889   2.881   9.351  0.4317 -0.8202  0.6726
10189TIP3    H254763   2.905   3.031   9.342 -2.1626 -0.5251  0.2563
10190TIP3   OH254764   3.014   0.714   2.945  0.4875  0.2178 -0.0365
10190TIP3    H154765   3.094   0.661   2.941  1.2621  1.1977  1.4968
10190TIP3    H254766   3.014   0.750   3.033 -1.4490  0.5956 -0.1533
10191TIP3   OH254767   4.744   4.756   2.127 -0.0716 -0.0735 -0.5164
10191TIP3    H154768   4.769   4.734   2.217  3.0218 -1.2480 -1.5505
10191TIP3    H254769   4.818   4.806   2.093 -2.3075  2.7331 -1.6831
10192TIP3   OH254770   1.096   0.286   9.708 -0.3388 -0.6302  0.3738
10192TIP3    H154771   1.010   0.262   9.742 -0.3291 -1.9609 -0.4806
10192TIP3    H254772   1.140   0.329   9.782 -1.5555 -0.3561  0.9562
10193TIP3   OH254773   2.133   5.264   0.438  0.1161  0.2322 -0.1747
10193TIP3    H154774   2.116   5.196   0.504 -0.5491 -0.6926 -1.2592
10193TIP3    H254775   2.215   5.237   0.397 -0.2895 -0.0933 -0.7938
10194TIP3   OH254776   1.429   7.055   6.506  0.2118 -0.1840 -0.6069
10194TIP3    H154777   1.380   6.980   6.475 -0.5718 -0.2174  0.6167
10194TIP3    H254778   1.507   7.018   6.547 -1.2307 -0.6047  2.0203
10195TIP3   OH254779   3.519   4.745   7.752 -0.6236  1.1555 -0.2595
10195TIP3    H154780   3.554   4.657   7.736 -0.0441  1.2065  0.6885
10195TIP3    H254781   3.573   4.803   7.698 -0.9454  0.9540 -0.8123
10196TIP3   OH254782   3.946   5.248   1.285 -0.2789  0.5779 -0.5064
10196TIP3    H154783   3.886   5.222   1.355  1.5898 -1.3581  0.5068
10196TIP3    H254784   3.890   5.264   1.209 -2.0553 -1.3845  0.3095
10197TIP3   OH254785   1.411   6.199   9.672  0.1855  0.0514 -0.6326
10197TIP3    H154786   1.443   6.279   9.714  0.7864 -0.3546 -0.3068
10197TIP3    H254787   1.459   6.128   9.715  1.6018 -0.3297 -2.6835
10198TIP3   OH254788   2.445   4.059   1.993 -0.1071 -0.2122  0.0408
10198TIP3    H154789   2.362   4.023   2.023 -0.4354  1.1202  0.8099
10198TIP3    H254790   2.451   4.032   1.901 -0.5708 -1.7427  0.4369
10199TIP3   OH254791   4.816   1.004   2.628 -0.6647 -0.1701 -0.1592
10199TIP3    H154792   4.840   1.094   2.607 -3.1973  1.1083  1.8333
10199TIP3    H254793   4.722   0.999   2.611 -0.5118 -2.6260 -0.6955
10200TIP3   OH254794   4.661   4.780   9.710 -0.0926 -0.2340 -0.6439
10200TIP3    H154795   4.691   4.871   9.707  1.3047 -0.6836 -1.4453
10200TIP3    H254796   4.707   4.742   9.785 -0.2405 -0.4033 -0.6394
10201TIP3   OH254797   4.674   5.950   2.273 -0.1936  0.6528 -0.0787
10201TIP3    H154798   4.596   5.913   2.313 -0.2256  0.4449 -0.3301
10201TIP3    H254799   4.707   5.881   2.215  1.0492  0.1480  1.1732
10202TIP3   OH254800   5.095   2.867   1.184 -0.1961  0.0081 -0.2273
10202TIP3    H154801   5.028   2.808   1.219 -1.7949  1.1466 -1.2218
10202TIP3    H254802   5.057   2.901   1.103  1.0867  1.6079 -0.2161
10203TIP3   OH254803   0.293   3.191   1.873  0.1995 -0.2837  0.5096
10203TIP3    H154804   0.218   3.135   1.855 -0.3878  0.6933 -0.1636
10203TIP3    H254805   0.287   3.210   1.967  1.4500 -2.7834  1.1775
10204TIP3   OH254806   3.754   2.594   0.978 -0.3085 -0.8216  0.1697
10204TIP3    H154807   3.846   2.618   0.989 -0.1012 -1.6003  0.1817
10204TIP3    H254808   3.746   2.575   0.884 -0.4360 -0.8256  0.1819
10205TIP3   OH254809   4.935   6.954   8.941 -1.0107 -0.3266 -0.0246
10205TIP3    H154810   4.903   7.029   8.891  0.6442  1.2868  1.2404
10205TIP3    H254811   4.860   6.895   8.944 -1.5136 -0.0955 -3.4951
10206TIP3   OH254812   2.462   4.750   9.905  0.7200  0.5142  0.1706
10206TIP3    H154813   2.478   4.843   9.923 -0.3504  0.5582  1.0195
10206TIP3    H254814   2.534   4.705   9.948  0.6205  0.8920  0.7440
10207TIP3   OH254815   3.191   6.666   7.343 -0.0144 -0.6984 -0.2468
10207TIP3    H154816   3.133   6.644   7.270 -2.4872 -1.1041  1.7011
10207TIP3    H254817   3.248   6.589   7.352 -0.7151 -1.2984 -0.7892
10208TIP3   OH254818   0.093   1.293   1.856 -0.3334  0.2550 -0.6211
10208TIP3    H154819   0.016   1.244   1.828  0.1804 -0.9409  0.0180
10208TIP3    H254820   0.151   1.228   1.896  0.3501  1.3817  0.2970
10209TIP3   OH254821   2.110   4.481   7.166 -0.5952 -0.1056  0.1476
10209TIP3    H154822   2.024   4.517   7.147 -0.1591  0.9637  0.1160
10209TIP3    H254823   2.134   4.433   7.087  1.1174  4.1302 -2.2159
10210TIP3   OH254824   4.843   5.641   7.396 -0.2256 -0.6985  0.0723
10210TIP3    H154825   4.797   5.564   7.431 -1.0565  0.5581  1.9038
10210TIP3    H254826   4.936   5.619   7.406 -0.4399 -1.0921  1.5603
10211TIP3   OH254827   5.427   4.165   8.012 -0.4842  0.0477  0.4235
10211TIP3    H154828   5.403   4.231   7.946  2.3690  0.7108 -0.0890
10211TIP3    H254829   5.371   4.090   7.992 -1.6082  1.2078 -1.0130
10212TIP3   OH254830   3.938   4.277   9.671 -0.3287 -0.0671 -0.3637
10212TIP3    H154831   3.918   4.369   9.654  1.6635  0.3480 -0.7267
10212TIP3    H254832   4.026   4.279   9.709  0.0414 -1.8772 -1.0563
10213TIP3   OH254833   0.277   7.041   8.649 -0.0510  0.4598  0.3577
10213TIP3    H154834   0.287   6.947   8.638  1.3783  0.5130  1.0044
10213TIP3    H254835   0.305   7.078   8.565  0.9531  0.3777  0.6483
10214TIP3   OH254836   4.716   3.201   8.545 -0.5034  0.0809 -0.3328
10214TIP3    H154837   4.637   3.256   8.551 -1.5606 -1.2389 -1.4078
10214TIP3    H254838   4.738   3.181   8.635  0.5247  3.0285  0.1900
10215TIP3   OH254839   4.169   6.163   1.315 -0.2353 -0.1042 -0.4587
10215TIP3    H154840   4.249   6.209   1.337 -0.3672 -0.7510  1.5239
10215TIP3    H254841   4.106   6.191   1.381 -1.6501  0.2947 -1.8945
10216TIP3   OH254842   0.950   1.483   2.712  0.0715 -0.5011 -0.1943
10216TIP3    H154843   0.883   1.540   2.750  0.1154  0.5716 -1.6467
10216TIP3    H254844   0.993   1.443   2.788 -0.4831  0.8044  0.8480
10217TIP3   OH254845   6.245   4.657   2.170  0.4171 -0.5134 -0.2004
10217TIP3    H154846   6.211   4.600   2.239  1.0367 -0.0781  0.4803
10217TIP3    H254847   6.231   4.607   2.089 -0.4713 -0.9648  0.2067
10218TIP3   OH254848   5.152   2.899   8.453 -0.4309 -0.2002 -0.6332
10218TIP3    H154849   5.225   2.906   8.515  0.6134 -0.0921 -1.8137
10218TIP3    H254850   5.114   2.986   8.450 -0.4113 -0.1769 -0.2380
10219TIP3   OH254851   2.232   0.066   0.619 -0.2327  0.5547  0.0904
10219TIP3    H154852   2.262   0.127   0.552 -0.1473  0.5022  0.0803
10219TIP3    H254853   2.307   0.058   0.679  0.0734 -0.2185 -0.3857
10220TIP3   OH254854   0.540   6.246   0.412  0.3428  0.1460 -0.2598
10220TIP3    H154855   0.459   6.213   0.450 -0.2995  1.6469 -0.2534
10220TIP3    H254856   0.593   6.272   0.487  1.2440 -1.6931 -0.2243
10221TIP3   OH254857   6.090   4.791   0.718  0.5262  0.0701  0.4972
10221TIP3    H154858   6.012   4.836   0.751 -0.1023 -0.1930 -0.5707
10221TIP3    H254859   6.145   4.778   0.795 -1.4693 -1.7569  1.7230
10222TIP3   OH254860   2.081   5.594   2.107  0.2595 -0.6708  0.0215
10222TIP3    H154861   2.157   5.541   2.127 -0.6941 -2.3201 -0.4770
10222TIP3    H254862   2.036   5.605   2.190 -0.0707 -1.5815 -0.0165
10223TIP3   OH254863   0.007   0.301   1.016 -0.1850 -0.1326 -0.5706
10223TIP3    H154864  -0.075   0.289   1.065 -0.0252 -0.0063 -0.2683
10223TIP3    H254865   0.065   0.346   1.077 -0.0199  0.1303 -0.9203
10224TIP3   OH254866   7.341   0.207   8.898  0.0080 -0.8394 -0.2880
10224TIP3    H154867   7.377   0.296   8.906  0.3740 -1.1288  1.6956
10224TIP3    H254868   7.251   0.220   8.867 -0.3878  0.3214  1.2707
10225TIP3   OH254869   6.228   2.412   0.137 -0.0991 -0.0621 -0.1876
10225TIP3    H154870   6.205   2.347   0.071  0.3321 -0.0353 -0.3695
10225TIP3    H254871   6.181   2.491   0.112  0.1290 -0.0277 -0.5135
10226TIP3   OH254872   1.515   5.037   2.768  0.3156 -0.3047 -0.0882
10226TIP3    H154873   1.507   5.069   2.858 -0.2245 -0.6995  0.0162
10226TIP3    H254874   1.455   5.093   2.718  0.6940 -0.0179 -0.2239
10227TIP3   OH254875   2.662   7.075   2.257 -0.3595  0.2263 -0.3652
10227TIP3    H154876   2.685   6.986   2.230  0.5647  0.5804 -0.7885
10227TIP3    H254877   2.683   7.078   2.350 -1.1754 -0.2382 -0.1532
10228TIP3   OH254878   3.159   3.359   1.021 -0.0048 -0.1560  0.5938
10228TIP3    H154879   3.098   3.403   1.079  0.3292  0.3414  0.5765
10228TIP3    H254880   3.105   3.302   0.967 -0.4576  0.3150  0.5422
10229TIP3   OH254881   4.394   6.362   8.467  0.1760  0.6267 -0.0748
10229TIP3    H154882   4.365   6.275   8.442 -1.4564  1.0017  0.3942
10229TIP3    H254883   4.486   6.366   8.438  1.2935 -2.2724  2.4311
10230TIP3   OH254884   3.559   5.806   7.703  0.1312  0.1315  0.2885
10230TIP3    H154885   3.632   5.760   7.743  1.0290  0.8610 -0.4511
10230TIP3    H254886   3.483   5.751   7.720  1.0678 -1.3020 -0.0650
10231TIP3   OH254887   1.711   3.243   7.570  0.1979  0.4599  0.1672
10231TIP3    H154888   1.681   3.248   7.479 -1.3628  0.2439  0.6238
10231TIP3    H254889   1.662   3.311   7.615 -1.2296 -1.2355  1.3543
10232TIP3   OH254890   6.594   6.470   8.152 -0.2546  0.3680  0.7685
10232TIP3    H154891   6.677   6.515   8.142 -0.2039  0.1807  0.3108
10232TIP3    H254892   6.599   6.396   8.090  0.0009 -0.7581  2.0920
10233TIP3   OH254893   6.673   5.118   9.151  0.0687 -0.7138  0.2290
10233TIP3    H154894   6.657   5.039   9.204 -1.7083 -0.6167 -0.1005
10233TIP3    H254895   6.699   5.184   9.215  3.3706 -1.9228  0.3480
10234TIP3   OH254896   3.879   5.500   0.327  0.6834 -0.2049 -0.0146
10234TIP3    H154897   3.922   5.424   0.367  1.6613  1.6822  2.8466
10234TIP3    H254898   3.801   5.514   0.380  0.0942  0.3633 -1.0096
10235TIP3   OH254899   3.736   7.035   7.736 -0.0025  0.2155  0.1274
10235TIP3    H154900   3.769   7.123   7.719  0.2644 -0.0556 -0.8054
10235TIP3    H254901   3.813   6.979   7.726 -0.3685 -0.2267 -0.2259
10236TIP3   OH254902   5.268   4.470   8.549 -0.3077 -0.4160 -0.2166
10236TIP3    H154903   5.327   4.505   8.482  0.9278 -0.5511  0.7623
10236TIP3    H254904   5.184   4.514   8.533  0.6346  1.4700 -0.2979
10237TIP3   OH254905   2.996   4.693   9.001  0.0088  0.7217 -0.0761
10237TIP3    H154906   3.016   4.763   8.939 -1.2397  0.5291 -0.7473
10237TIP3    H254907   2.912   4.658   8.970 -0.9314  0.9506  1.9956
10238TIP3   OH254908   1.738   2.591   7.853  0.4782 -0.1589  0.0054
10238TIP3    H154909   1.832   2.572   7.862  0.1821 -1.7274 -0.0092
10238TIP3    H254910   1.697   2.506   7.839 -1.2487  0.1620  2.4822
10239TIP3   OH254911   4.417   4.535   9.400 -0.1732 -0.1064 -0.0747
10239TIP3    H154912   4.345   4.480   9.368  0.2788 -0.2528 -0.8906
10239TIP3    H254913   4.432   4.505   9.489 -2.1650  1.0024  0.6934
10240TIP3   OH254914   0.281   1.057   1.957  0.6985  0.0043  0.1857
10240TIP3    H154915   0.333   0.991   2.003  0.7971 -0.2870 -0.3376
10240TIP3    H254916   0.295   1.138   2.007  2.9319  0.3110 -0.8468
10241TIP3   OH254917   2.661   2.180   0.726  0.1710 -0.5097  0.1686
10241TIP3    H154918   2.652   2.130   0.807  0.2361  0.2663  0.6609
10241TIP3    H254919   2.637   2.269   0.749 -0.7948 -0.4623 -0.8997
10242TIP3   OH254920   5.378   6.008   0.877  0.1426  0.5408  0.1364
10242TIP3    H154921   5.317   5.995   0.804 -2.5732  1.2686  2.1364
10242TIP3    H254922   5.415   6.095   0.862 -2.5015  1.8873  0.9839
10243TIP3   OH254923   2.738   6.182   7.958  0.9461 -0.2071  0.0614
10243TIP3    H154924   2.661   6.150   8.006  0.3133 -1.0277 -1.4301
10243TIP3    H254925   2.725   6.150   7.869  2.3574  0.8144 -0.5393
10244TIP3   OH254926   3.196   6.706   2.650  0.4615  0.2391  0.3656
10244TIP3    H154927   3.256   6.661   2.709  0.5418  1.4015  1.1939
10244TIP3    H254928   3.111   6.699   2.692 -0.0604 -1.4529 -0.8329
10245TIP3   OH254929   5.864   6.945   7.262 -0.2169  0.2591 -0.5214
10245TIP3    H154930   5.889   7.037   7.273 -1.7749  0.6027  0.5413
10245TIP3    H254931   5.782   6.949   7.213 -1.0359 -0.4402  0.7281
10246TIP3   OH254932   5.405   1.171   9.280 -0.2143  1.2609 -0.3073
10246TIP3    H154933   5.468   1.177   9.352  0.3900  1.2152 -0.8183
10246TIP3    H254934   5.450   1.211   9.206 -0.3888  0.3127 -0.9471
10247TIP3   OH254935   2.668   0.805   3.622 -0.1640 -0.3966  0.4183
10247TIP3    H154936   2.713   0.888   3.608 -0.3126 -0.0976  1.6128
10247TIP3    H254937   2.587   0.814   3.573  0.4276 -0.3945 -0.6017
10248TIP3   OH254938   2.910   6.259   2.238 -0.0120  0.2817 -0.0234
10248TIP3    H154939   2.887   6.347   2.206 -0.3228  0.6205  1.0856
10248TIP3    H254940   2.831   6.228   2.281 -1.0387 -1.9339 -3.1479
10249TIP3   OH254941   4.052   2.429   0.906  0.2719  0.7270 -0.4061
10249TIP3    H154942   4.137   2.387   0.921  0.5205  1.8976  1.7507
10249TIP3    H254943   4.057   2.460   0.815  0.3577 -3.0609 -1.8832
10250TIP3   OH254944   5.020   2.452   8.627 -0.2711  0.0748  0.3538
10250TIP3    H154945   5.115   2.461   8.616 -0.5255  0.3985 -2.1304
10250TIP3    H254946   4.983   2.517   8.568 -2.0736 -0.3558  0.9457
10251TIP3   OH254947   4.211   5.245   9.210 -0.1128  0.6235  0.0296
10251TIP3    H154948   4.193   5.200   9.128 -1.2181  0.6596  0.2317
10251TIP3    H254949   4.132   5.297   9.226  0.7556  1.9243  0.2703
10252TIP3   OH254950   6.179   7.061   1.794  0.3111  0.1862 -0.2340
10252TIP3    H154951   6.227   7.046   1.876  1.1193  2.2199 -0.2779
10252TIP3    H254952   6.107   7.118   1.819  0.6119  0.8865 -0.9361
10253TIP3   OH254953   0.933   2.407   2.218  0.9564  0.5272 -0.2612
10253TIP3    H154954   0.993   2.474   2.253  1.0880  0.0494  0.4483
10253TIP3    H254955   0.848   2.429   2.255  0.6237  1.3326 -1.4393
10254TIP3   OH254956   1.257   4.190   2.238  0.2053  0.1597  0.5072
10254TIP3    H154957   1.226   4.110   2.281 -1.5269 -0.3876 -1.5976
10254TIP3    H254958   1.213   4.261   2.285 -0.8339 -0.3464  0.3133
10255TIP3   OH254959   4.866   4.042   2.861 -0.0698 -0.0760  0.0465
10255TIP3    H154960   4.919   4.084   2.793  1.0891 -0.1632  0.8755
10255TIP3    H254961   4.916   4.055   2.941 -2.6293  2.3837  1.4021
10256TIP3   OH254962   4.296   6.334   7.155  0.2318  0.1921  0.3888
10256TIP3    H154963   4.308   6.261   7.094 -1.0296  1.8565 -1.9865
10256TIP3    H254964   4.364   6.321   7.221  2.7505 -0.8849 -2.1923
10257TIP3   OH254965   0.792   6.644   0.145 -0.3104  0.2155 -0.1793
10257TIP3    H154966   0.818   6.723   0.099  0.4602 -0.9887 -1.9592
10257TIP3    H254967   0.703   6.626   0.113 -0.0785 -0.1957 -0.6054
10258TIP3   OH254968   4.154   7.159   9.297 -0.0223 -0.0290  0.1450
10258TIP3    H154969   4.182   7.191   9.383 -1.2232 -2.0106  1.3746
10258TIP3    H254970   4.230   7.171   9.240  1.9376 -1.4342  2.2758
10259TIP3   OH254971   5.229   3.335   8.214  0.4714  0.2380 -0.5666
10259TIP3    H154972   5.235   3.357   8.307  1.1865 -0.4333 -0.4460
10259TIP3    H254973   5.188   3.249   8.212  0.9801 -0.0057 -0.8316
10260TIP3   OH254974   2.712   1.280   0.097  0.2855 -0.0213 -0.3508
10260TIP3    H154975   2.663   1.324   0.167 -0.8363 -2.5341  0.5809
10260TIP3    H254976   2.661   1.296   0.018 -0.9181 -0.8090  0.2380
10261TIP3   OH254977   0.049   6.963   8.825  0.0447  0.0427  0.0246
10261TIP3    H154978  -0.020   6.935   8.765  0.7866 -0.6525 -0.5208
10261TIP3    H254979   0.130   6.934   8.784  0.5621 -0.5603  1.4285
10262TIP3   OH254980   1.151   6.565   0.207 -0.5101 -0.1424 -0.1799
10262TIP3    H154981   1.166   6.588   0.299 -2.1283  0.4207 -0.0363
10262TIP3    H254982   1.146   6.469   0.207 -0.4722 -0.1483  0.3042
10263TIP3   OH254983   5.723   1.301   1.006  0.0552  0.0836  0.2667
10263TIP3    H154984   5.683   1.259   0.930  1.1017 -0.3962 -0.0317
10263TIP3    H254985   5.684   1.256   1.081  1.5230 -1.8239 -0.0548
10264TIP3   OH254986   2.105   4.611   7.465  0.1786 -0.1819  0.0828
10264TIP3    H154987   2.010   4.613   7.472  0.1762 -1.6486  0.9987
10264TIP3    H254988   2.136   4.651   7.547  0.4109  1.9267 -0.9671
10265TIP3   OH254989   0.740   5.741   7.927 -0.0467 -0.2765 -0.2230
10265TIP3    H154990   0.681   5.739   8.002  1.4353  0.5048  0.9923
10265TIP3    H254991   0.730   5.829   7.891  2.2725  0.8320  1.6121
10266TIP3   OH254992   2.840   3.491   0.018 -0.3049 -0.0224  0.1481
10266TIP3    H154993   2.772   3.449   0.072 -1.7328  0.9311 -0.8597
10266TIP3    H254994   2.861   3.425  -0.048  0.1961 -0.5413  0.8070
10267TIP3   OH254995   0.311   1.408   9.818  0.0711  0.1847  0.7615
10267TIP3    H154996   0.367   1.378   9.890  0.9125  0.8468  0.4120
10267TIP3    H254997   0.235   1.446   9.862  0.9273  1.2859  1.3630
10268TIP3   OH254998   5.431   6.755   8.432  0.4277  0.6331  0.4045
10268TIP3    H154999   5.418   6.681   8.373 -0.3393  1.7013 -0.8465
10268TIP3    H255000   5.406   6.723   8.518  2.3388 -1.2293  0.3592
10269TIP3   OH255001   7.220   2.224   9.611 -0.2219  0.4258 -0.2591
10269TIP3    H155002   7.310   2.205   9.634 -0.4444  0.9175  1.0934
10269TIP3    H255003   7.172   2.144   9.634 -0.4018  0.8207  0.7914
10270TIP3   OH255004   1.827   6.188   9.153 -0.0954 -0.6578  0.5118
10270TIP3    H155005   1.765   6.197   9.226 -1.3027  1.9918 -0.7237
10270TIP3    H255006   1.898   6.135   9.189 -0.4727  0.7765  3.7553
10271TIP3   OH255007   1.788   6.773   0.059 -0.0461 -0.1034 -0.0236
10271TIP3    H155008   1.775   6.803  -0.031  1.1660  0.5248 -0.0138
10271TIP3    H255009   1.835   6.690   0.050 -1.8891 -1.2102  0.0002
10272TIP3   OH255010   2.413   1.207   2.302 -0.1225 -0.5648 -0.7111
10272TIP3    H155011   2.344   1.243   2.357 -0.1564  0.0269 -1.1250
10272TIP3    H255012   2.378   1.214   2.213  0.1780 -0.9325 -0.8594
10273TIP3   OH255013   3.295   7.113   1.553  0.1907 -0.0275 -0.2656
10273TIP3    H155014   3.248   7.034   1.579  1.6988 -0.7795  0.3351
10273TIP3    H255015   3.229   7.183   1.555 -0.3851 -0.5235  3.1153
10274TIP3   OH255016   1.905   1.496   2.560 -0.0249  0.1178 -0.0280
10274TIP3    H155017   1.912   1.577   2.612  0.7275 -0.1730  0.3444
10274TIP3    H255018   1.877   1.525   2.474 -0.7265  0.6747  0.3829
10275TIP3   OH255019   1.243   1.585   1.879  0.1029 -0.2580 -0.8912
10275TIP3    H155020   1.253   1.581   1.974  0.5973  0.9752 -0.8773
10275TIP3    H255021   1.280   1.669   1.854 -1.6835  0.2669 -1.9751
10276TIP3   OH255022   2.611   0.332   2.161 -0.3256 -0.2410 -0.3815
10276TIP3    H155023   2.545   0.264   2.174 -1.2045  0.3760 -1.4348
10276TIP3    H255024   2.667   0.299   2.091 -0.7532  0.0965 -0.8940
10277TIP3   OH255025   4.710   2.209   0.633 -0.1721 -0.1217 -0.4198
10277TIP3    H155026   4.683   2.272   0.565  2.2977 -1.0511 -2.4370
10277TIP3    H255027   4.770   2.259   0.688 -0.0834 -0.0776 -0.5550
10278TIP3   OH255028   3.477   6.503   2.513 -0.1945  0.6526  0.6318
10278TIP3    H155029   3.559   6.456   2.497  0.1138  1.6933 -1.0922
10278TIP3    H255030   3.420   6.437   2.553  0.4799 -0.9906 -0.9436
10279TIP3   OH255031   5.586   4.372   1.112  0.1798  0.4455  0.1735
10279TIP3    H155032   5.545   4.429   1.045  0.5901 -0.1590 -0.6035
10279TIP3    H255033   5.655   4.426   1.150  0.6735  0.4350 -0.6750
10280TIP3   OH255034   6.673   2.376   0.947  0.4410 -0.4611 -0.0216
10280TIP3    H155035   6.763   2.387   0.980  0.9425 -0.3433 -1.3583
10280TIP3    H255036   6.662   2.281   0.940  0.7849 -0.4611 -0.6608
10281TIP3   OH255037   0.951   2.444   0.529  0.6564 -0.5153  0.0755
10281TIP3    H155038   0.938   2.388   0.453  0.7075 -1.2434  0.5869
10281TIP3    H255039   0.865   2.450   0.570  0.5131  0.3081 -0.3134
10282TIP3   OH255040   4.085   6.134   0.002  0.1174 -0.1795  0.3835
10282TIP3    H155041   4.174   6.164  -0.019  0.0163  1.8890  2.5365
10282TIP3    H255042   4.097   6.069   0.071 -0.0172 -0.3055  0.2877
10283TIP3   OH255043   5.594   5.686   2.160 -0.5478  0.1323  0.6459
10283TIP3    H155044   5.532   5.634   2.110 -1.0060  0.7204  0.5867
10283TIP3    H255045   5.628   5.750   2.097 -1.2295  0.9646  1.1064
10284TIP3   OH255046   2.077   7.467   8.037  0.1496  0.2877  0.0516
10284TIP3    H155047   2.149   7.419   7.997  0.6203  0.6357  0.4765
10284TIP3    H255048   2.030   7.506   7.963 -1.7323 -2.7746 -0.5667
10285TIP3   OH255049   3.342   7.217   2.151  0.1687  0.0649 -0.0320
10285TIP3    H155050   3.430   7.252   2.137 -0.1719  0.4567 -1.2895
10285TIP3    H255051   3.351   7.161   2.228  1.1730  1.2821  0.7710
10286TIP3   OH255052   4.028   6.910   7.770  0.4841 -0.4285 -0.3011
10286TIP3    H155053   4.041   6.895   7.864  3.7476 -0.6916 -0.7092
10286TIP3    H255054   4.049   7.003   7.758 -3.2829  0.5925 -0.3817
10287TIP3   OH255055   3.764   4.029   7.652 -0.3070  0.4044  0.0435
10287TIP3    H155056   3.845   4.056   7.696  0.4657  0.7155 -1.5055
10287TIP3    H255057   3.731   4.108   7.611 -0.3400 -0.1030 -0.9381
10288TIP3   OH255058   1.919   4.396   8.852  0.7373 -0.4451  0.2084
10288TIP3    H155059   1.882   4.339   8.784 -1.7883 -0.4345  1.4517
10288TIP3    H255060   1.886   4.483   8.831 -0.4071 -0.5038  1.5938
10289TIP3   OH255061   1.927   5.834   8.494 -0.3040  0.0756  0.1520
10289TIP3    H155062   1.942   5.743   8.519  0.3080  0.1951  0.2252
10289TIP3    H255063   1.831   5.841   8.487 -0.3232 -0.8103 -0.7616
10290TIP3   OH255064   0.895   6.995   1.032 -0.0948  0.0847 -0.3242
10290TIP3    H155065   0.822   7.051   1.007 -0.8879 -0.4655  0.6697
10290TIP3    H255066   0.895   6.996   1.128  0.9996 -0.1899 -0.2991
10291TIP3   OH255067   2.474   0.093   6.811 -0.2492  0.4052 -0.1327
10291TIP3    H155068   2.454   0.136   6.894  0.5985  2.5293 -0.9509
10291TIP3    H255069   2.569   0.089   6.808 -0.2350  1.0267 -1.2857
10292TIP3   OH255070   2.014   0.804   1.502  0.0193  0.0771  0.2853
10292TIP3    H155071   2.064   0.734   1.543 -0.5599 -0.2342  0.4832
10292TIP3    H255072   1.957   0.760   1.439  0.3291  0.4723 -0.2826
10293TIP3   OH255073   4.361   2.130   0.441 -0.4321 -0.1192 -0.1133
10293TIP3    H155074   4.367   2.046   0.396 -0.0472  0.1636 -0.5919
10293TIP3    H255075   4.383   2.195   0.375  0.1639  0.3002  0.4854
10294TIP3   OH255076   6.320   4.236   0.257  0.6583  0.2695  0.0290
10294TIP3    H155077   6.254   4.167   0.257  1.1644 -0.2188  0.6141
10294TIP3    H255078   6.359   4.232   0.169  1.8192 -1.2961  0.5767
10295TIP3   OH255079   0.927   2.261   1.732 -0.1108  0.2242 -0.3732
10295TIP3    H155080   0.950   2.183   1.682  2.5533 -0.6897  2.0426
10295TIP3    H255081   1.000   2.321   1.718 -0.5218  0.9398  0.4417
10296TIP3   OH255082   0.717   5.756   8.328  0.0748  0.4327  0.4585
10296TIP3    H155083   0.650   5.692   8.352  2.7097 -2.3981  0.7869
10296TIP3    H255084   0.739   5.800   8.410 -0.4928  0.5169  0.5707
10297TIP3   OH255085   3.378   5.827   0.887  0.3735 -0.1335  0.7294
10297TIP3    H155086   3.325   5.885   0.942  1.4172 -0.9050  2.6152
10297TIP3    H255087   3.334   5.743   0.891  0.5786 -0.2498  0.5546
10298TIP3   OH255088   2.980   3.959   9.944  0.0446 -0.0853 -0.0555
10298TIP3    H155089   2.980   3.865   9.962  0.3476 -0.0573  0.0986
10298TIP3    H255090   2.936   3.968   9.860  0.7975 -0.4383 -0.4853
10299TIP3   OH255091   0.703   1.449   1.493  0.0840 -0.4756 -0.1763
10299TIP3    H155092   0.709   1.421   1.584 -1.9744 -0.8746 -0.1356
10299TIP3    H255093   0.689   1.368   1.443  0.8848 -0.2288 -0.8277
10300TIP3   OH255094   2.686   0.326   7.058  0.4996  0.3449  0.7608
10300TIP3    H155095   2.756   0.269   7.025  0.2004  0.2226  0.3400
10300TIP3    H255096   2.709   0.413   7.027 -0.2288  0.1043 -0.5162
10301TIP3   OH255097   6.796   2.901   7.547  0.7107  0.1251 -0.1928
10301TIP3    H155098   6.753   2.868   7.468  0.1899  0.6249 -0.1281
10301TIP3    H255099   6.723   2.928   7.604  1.1224  1.5378 -0.3129
10302TIP3   OH255100   1.224   3.957   8.375 -0.2388 -0.3728 -0.2199
10302TIP3    H155101   1.143   3.988   8.416  0.7694  0.2882  1.3477
10302TIP3    H255102   1.287   4.028   8.389  0.2464 -0.1843 -2.8038
10303TIP3   OH255103   3.014   7.354   1.823  0.2803  0.3248  0.0520
10303TIP3    H155104   2.977   7.413   1.758  0.1730 -1.5653 -1.6996
10303TIP3    H255105   3.108   7.366   1.815  0.2380  1.7002  1.1795
10304TIP3   OH255106   0.712   3.700   1.872  0.6393  0.0481 -0.2539
10304TIP3    H155107   0.651   3.631   1.845  0.8078 -0.0475 -0.3982
10304TIP3    H255108   0.762   3.660   1.944 -1.3083  1.0536  1.7607
10305TIP3   OH255109   3.378   4.391   7.756 -0.0087 -0.4284  0.0999
10305TIP3    H155110   3.411   4.313   7.800  1.4709  1.0633  1.7563
10305TIP3    H255111   3.452   4.452   7.754 -1.9679  2.2578  2.0568
10306TIP3   OH255112   1.464   2.897   1.056 -0.2336 -0.7040 -0.2346
10306TIP3    H155113   1.415   2.960   1.108  0.1484 -1.4023  0.9907
10306TIP3    H255114   1.401   2.865   0.991 -0.8318 -0.1466  0.0658
10307TIP3   OH255115   5.132   5.381   9.675  0.2625  0.2920 -0.3842
10307TIP3    H155116   5.102   5.390   9.765 -0.7368  0.8968 -0.7705
10307TIP3    H255117   5.135   5.287   9.660 -0.7223  0.2105 -0.0973
10308TIP3   OH255118   6.544   1.835   2.236  0.0415  0.5388  0.2930
10308TIP3    H155119   6.456   1.866   2.257 -0.1921 -0.4770  0.8649
10308TIP3    H255120   6.554   1.853   2.142 -0.2899  1.7747  0.4735
10309TIP3   OH255121   1.740   5.601   2.234  0.1732  0.0484  0.1122
10309TIP3    H155122   1.696   5.685   2.221 -1.5888 -0.3761  2.5527
10309TIP3    H255123   1.828   5.624   2.264  0.1644  0.9869 -0.5488
10310TIP3   OH255124   7.319   1.713   8.122  0.4149 -0.0482  0.1584
10310TIP3    H155125   7.310   1.808   8.115  2.4525  0.2174  0.5002
10310TIP3    H255126   7.339   1.698   8.214  1.7574 -0.6032 -0.1987
10311TIP3   OH255127   5.345   2.261   7.788 -0.1120 -0.0083  0.1735
10311TIP3    H155128   5.433   2.247   7.823  0.0272  0.7867  0.1459
10311TIP3    H255129   5.341   2.354   7.768  0.4650 -0.6315 -3.6084
10312TIP3   OH255130   2.224   6.243   0.008  0.1039 -0.4964  0.0837
10312TIP3    H155131   2.306   6.195   0.016 -0.6817 -2.1034 -0.9407
10312TIP3    H255132   2.156   6.180   0.030 -0.9177  0.5334  0.0202
10313TIP3   OH255133   4.400   2.010   2.011  0.0543 -0.6910  0.3360
10313TIP3    H155134   4.345   1.934   2.032  0.0895 -0.5128  1.1304
10313TIP3    H255135   4.419   2.049   2.097  0.4901 -0.1047 -0.0242
10314TIP3   OH255136   6.265   2.086   9.501  0.2480 -0.4295  0.7221
10314TIP3    H155137   6.188   2.126   9.462 -0.6487 -1.7559  1.0280
10314TIP3    H255138   6.340   2.126   9.457 -0.5958  1.1392  0.6642
10315TIP3   OH255139   6.315   3.939   7.778 -0.5027 -0.2053 -0.3887
10315TIP3    H155140   6.233   3.985   7.796 -0.2675  0.0245  0.1313
10315TIP3    H255141   6.316   3.926   7.683 -0.5652  0.8935 -0.5466
10316TIP3   OH255142   1.038   6.198   9.431  0.0050 -0.1628  0.0290
10316TIP3    H155143   0.985   6.181   9.509 -0.2668  0.2190 -0.0645
10316TIP3    H255144   1.085   6.117   9.414  2.0771  0.4928  2.1078
10317TIP3   OH255145   5.955   3.455   8.608  0.2323  0.1895  0.0608
10317TIP3    H155146   5.913   3.541   8.606 -2.8533 -1.1320  0.7544
10317TIP3    H255147   5.923   3.411   8.529  1.4562 -0.4731 -0.0853
10318TIP3   OH255148   1.038   6.728   8.977 -0.2909  0.4501  0.2362
10318TIP3    H155149   1.090   6.721   8.898 -2.3422  0.8876 -1.2318
10318TIP3    H255150   1.093   6.689   9.046  1.3843 -0.2792 -1.4327
10319TIP3   OH255151   5.576   5.426   2.018 -0.3402 -0.1121  0.1913
10319TIP3    H155152   5.558   5.361   1.950  1.9027 -0.6349  0.0161
10319TIP3    H255153   5.605   5.376   2.093 -1.6262  0.5491  1.1820
10320TIP3   OH255154   3.344   3.057   7.042  0.0121  0.5486 -0.6264
10320TIP3    H155155   3.295   3.126   7.087  1.3633  0.1545  1.5803
10320TIP3    H255156   3.404   3.104   6.983 -0.0396  1.2038 -0.1575
10321TIP3   OH255157   4.455   6.394   0.894 -0.4808 -0.5618 -0.3970
10321TIP3    H155158   4.503   6.470   0.861  1.9859 -1.9893 -0.3615
10321TIP3    H255159   4.363   6.415   0.879  0.0755  2.4568 -0.2823
10322TIP3   OH255160   5.972   1.058   9.430 -0.3465 -0.2046 -0.1183
10322TIP3    H155161   6.061   1.073   9.462 -0.3992 -0.6248  0.2306
10322TIP3    H255162   5.963   0.963   9.427 -0.2891 -0.1875 -1.5291
10323TIP3   OH255163   7.344   6.178   8.893 -0.0189  0.2687  0.1039
10323TIP3    H155164   7.297   6.259   8.912 -0.9951 -0.0880 -0.6726
10323TIP3    H255165   7.309   6.150   8.808  0.6061 -0.7462  0.1651
10324TIP3   OH255166   1.888   6.634   7.948 -0.4412  0.0534 -0.2161
10324TIP3    H155167   1.973   6.677   7.955  0.4740 -1.6909  0.0598
10324TIP3    H255168   1.842   6.658   8.028  0.4010 -0.2052  0.3568
10325TIP3   OH255169   7.119   1.079   1.530  0.2983 -0.2468 -0.0418
10325TIP3    H155170   7.127   1.002   1.587  0.2788 -1.0276 -1.0764
10325TIP3    H255171   7.026   1.085   1.509 -0.0679  1.3229  1.6999
10326TIP3   OH255172   3.331   1.113   2.848 -0.1267 -0.0957  0.2032
10326TIP3    H155173   3.346   1.201   2.812  2.3358 -0.8940 -0.9741
10326TIP3    H255174   3.263   1.125   2.914 -0.2788  2.5827 -0.3315
10327TIP3   OH255175   6.144   4.308   8.455  0.4124 -0.6868  0.4284
10327TIP3    H155176   6.073   4.333   8.515 -0.2537 -1.2901 -0.0825
10327TIP3    H255177   6.102   4.305   8.369  0.7901 -2.0986  0.2707
10328TIP3   OH255178   5.201   1.312   9.008 -0.4345 -0.5675  0.2700
10328TIP3    H155179   5.180   1.229   8.967  0.5356 -0.2926 -0.8188
10328TIP3    H255180   5.213   1.291   9.101 -0.1119 -1.6421 -0.0080
10329TIP3   OH255181   2.253   4.742   1.069  0.1850  0.1623  0.3411
10329TIP3    H155182   2.276   4.774   1.156 -1.5999 -0.0684  0.9442
10329TIP3    H255183   2.213   4.817   1.025 -0.4027 -0.1645  0.3154
10330TIP3   OH255184   4.666   1.940   9.115 -0.4601  0.1953 -0.2321
10330TIP3    H155185   4.736   1.941   9.050 -0.1376 -1.6265  0.0126
10330TIP3    H255186   4.698   1.995   9.187  0.6314 -0.4148 -0.2354
10331TIP3   OH255187   3.575   1.105   0.873 -0.5007 -0.2808  0.1154
10331TIP3    H155188   3.581   1.151   0.957  0.7412 -1.0911  0.4989
10331TIP3    H255189   3.535   1.021   0.895 -1.6361  0.1144 -0.3826
10332TIP3   OH255190   5.900   1.239   1.672  0.2031 -0.1809  0.4319
10332TIP3    H155191   5.841   1.269   1.741 -2.0604  0.3919 -1.6022
10332TIP3    H255192   5.943   1.162   1.710 -2.9129 -1.5127  1.6614
10333TIP3   OH255193   4.812   1.683   9.442  0.5175  0.3776 -0.2203
10333TIP3    H155194   4.888   1.737   9.418  1.8339 -1.0047  0.7199
10333TIP3    H255195   4.818   1.606   9.385 -0.3718  0.3809 -0.3412
10334TIP3   OH255196   5.327   2.433   9.944  0.1152 -0.0926 -0.4322
10334TIP3    H155197   5.314   2.501   9.878  0.6559  0.6847  0.2381
10334TIP3    H255198   5.309   2.476  10.027 -2.7381 -1.6093 -0.1243
10335TIP3   OH255199   4.199   1.000   1.579 -0.3527  0.3549 -0.1629
10335TIP3    H155200   4.110   1.020   1.551 -0.7424  0.9543  1.4224
10335TIP3    H255201   4.199   0.905   1.591 -0.0238 -0.0077 -2.5655
10336TIP3   OH255202   6.738   7.320   9.301 -0.2973 -0.0984  0.4739
10336TIP3    H155203   6.760   7.355   9.387 -0.7987 -0.1185  0.6097
10336TIP3    H255204   6.819   7.278   9.271  0.1305  0.6467  0.5660
10337TIP3   OH255205   7.211   1.338   1.399  0.0604 -0.4816  0.1832
10337TIP3    H155206   7.208   1.257   1.451  0.9602 -2.8727 -3.1796
10337TIP3    H255207   7.304   1.359   1.394  0.2168 -1.4123 -1.8769
10338TIP3   OH255208   7.002   3.380   8.540  0.5095 -0.3000 -0.8705
10338TIP3    H155209   6.976   3.323   8.467  0.1474 -0.3760 -0.6820
10338TIP3    H255210   7.098   3.385   8.533  0.5452 -0.9199 -0.8962
10339TIP3   OH255211   1.054   1.072   3.659  0.4953  0.5857 -0.0341
10339TIP3    H155212   1.116   1.011   3.620 -1.5050 -0.6076 -1.5464
10339TIP3    H255213   1.017   1.119   3.584 -2.6528 -0.9854  0.3609
10340TIP3   OH255214   0.634   1.233   9.029 -0.3097  0.1269 -0.0034
10340TIP3    H155215   0.632   1.144   9.065 -0.8379  0.1025 -0.0905
10340TIP3    H255216   0.721   1.265   9.051 -0.3588 -0.1655  0.6308
10341TIP3   OH255217   4.202   3.820   8.141  0.3348  0.4254 -0.6988
10341TIP3    H155218   4.151   3.740   8.122 -1.7633  1.7537 -1.0003
10341TIP3    H255219   4.275   3.817   8.079  0.1967 -1.1697 -0.8300
10342TIP3   OH255220   5.517   6.772   0.897 -0.0144 -0.1069 -0.2510
10342TIP3    H155221   5.487   6.812   0.978 -1.0519  0.0988 -0.7184
10342TIP3    H255222   5.556   6.689   0.923  1.8714  1.0062  0.7093
10343TIP3   OH255223   6.310   0.852   1.185  0.4111  0.1942  0.0407
10343TIP3    H155224   6.242   0.877   1.247  1.4132 -1.6751  1.9973
10343TIP3    H255225   6.274   0.776   1.139 -0.2547  1.4606 -1.6556
10344TIP3   OH255226   2.799   0.303   7.435 -0.0377  0.1267 -0.0323
10344TIP3    H155227   2.803   0.387   7.480  0.1391  0.1233 -0.0401
10344TIP3    H255228   2.844   0.318   7.352 -0.3263  0.1222 -0.1910
10345TIP3   OH255229   1.201   1.688   2.680  0.1476 -0.0469  0.2452
10345TIP3    H155230   1.177   1.767   2.728 -0.4960  1.3683 -2.2074
10345TIP3    H255231   1.118   1.654   2.646  0.5141 -1.3108  0.5513
10346TIP3   OH255232   1.216   5.946   1.086 -0.1829 -0.0776  0.3137
10346TIP3    H155233   1.213   5.991   1.170  0.8355 -2.0072  1.4706
10346TIP3    H255234   1.226   5.853   1.109 -0.6426 -0.7555 -1.9356
10347TIP3   OH255235   5.631   2.573   1.168 -0.2550  0.5708 -0.4236
10347TIP3    H155236   5.623   2.661   1.131 -0.6377  0.2441 -1.1391
10347TIP3    H255237   5.648   2.517   1.092  0.4217  0.0841  0.0801
10348TIP3   OH255238   1.749   5.450   1.381  0.1470 -0.1847 -0.3032
10348TIP3    H155239   1.663   5.408   1.372  0.2448 -0.1613 -1.5325
10348TIP3    H255240   1.731   5.530   1.430 -0.5331 -0.1954 -0.5162
10349TIP3   OH255241   1.069   1.225   9.393 -0.4571  0.2987  0.2937
10349TIP3    H155242   1.091   1.208   9.302 -2.6773 -2.0389  0.0765
10349TIP3    H255243   1.127   1.167   9.443 -0.2869  0.4527  0.2753
10350TIP3   OH255244   1.377   1.994   8.468 -0.2295  0.0458  0.5815
10350TIP3    H155245   1.411   1.904   8.476  0.4480  0.2375  0.0260
10350TIP3    H255246   1.434   2.046   8.524 -0.4926  0.1629  0.7410
10351TIP3   OH255247   1.390   5.574   7.993  0.0037 -0.2521 -0.1545
10351TIP3    H155248   1.453   5.503   8.004  1.6001  1.2182  0.7482
10351TIP3    H255249   1.428   5.628   7.923 -0.2274  0.6501  0.4023
10352TIP3   OH255250   4.186   4.664   9.915  0.1067 -0.2145  0.3165
10352TIP3    H155251   4.263   4.613   9.940 -0.0224 -1.5401 -1.7537
10352TIP3    H255252   4.222   4.741   9.870  0.2461 -0.0724  0.6701
10353TIP3   OH255253   7.357   6.911   9.939 -0.1617  0.1967 -0.4627
10353TIP3    H155254   7.299   6.852   9.987 -2.3899  1.3591 -1.5683
10353TIP3    H255255   7.423   6.937  10.003 -1.3000 -0.5832  1.0990
10354TIP3   OH255256   7.174   1.722   9.515 -0.0591  0.4438  0.2803
10354TIP3    H155257   7.181   1.665   9.592 -0.3578 -1.5492 -1.0797
10354TIP3    H255258   7.083   1.711   9.486  0.1401  0.9420 -0.5439
10355TIP3   OH255259   6.508   1.781   8.491  0.3954 -0.3507 -0.1067
10355TIP3    H155260   6.557   1.840   8.435  1.2554 -0.9215  0.0319
10355TIP3    H255261   6.540   1.798   8.579 -0.4722  0.0707  0.1391
10356TIP3   OH255262   5.345   0.720   8.979 -0.3507 -0.1452 -0.0805
10356TIP3    H155263   5.300   0.659   9.038  1.4615  0.1898  1.7568
10356TIP3    H255264   5.357   0.800   9.031  1.6358  0.0399 -0.7298
10357TIP3   OH255265   4.201   4.664   7.780  0.4462  0.2166 -0.3745
10357TIP3    H155266   4.211   4.639   7.689  0.2091 -0.0999 -0.3172
10357TIP3    H255267   4.106   4.669   7.793  0.4807  0.7920 -0.2869
10358TIP3   OH255268   2.988   7.466   9.798  0.1328  0.0995 -0.1533
10358TIP3    H155269   3.083   7.464   9.803  0.1483  1.7045  0.9785
10358TIP3    H255270   2.959   7.392   9.852  0.7321  0.7097  1.0233
10359TIP3   OH255271   6.305   1.081   1.618 -0.1137 -0.0962 -0.2168
10359TIP3    H155272   6.304   1.058   1.711 -0.3616 -0.2728 -0.2615
10359TIP3    H255273   6.392   1.055   1.588  0.2772  0.7528  0.1569
10360TIP3   OH255274   4.004   4.790   0.074 -0.3240 -0.1773 -0.0899
10360TIP3    H155275   4.046   4.733   0.009 -0.5845 -1.5301  0.8954
10360TIP3    H255276   4.077   4.832   0.120  0.0002 -2.0295  1.1793
10361TIP3   OH255277   0.106   5.755   0.175  0.0064 -0.6042 -0.2382
10361TIP3    H155278   0.111   5.668   0.216 -0.2559 -0.5030  0.0100
10361TIP3    H255279   0.033   5.798   0.219 -1.4253 -1.1056 -1.9908
10362TIP3   OH255280   4.865   2.032   8.962  0.0065 -0.5511  0.0415
10362TIP3    H155281   4.899   2.105   9.015 -0.9779 -0.3947  0.4875
10362TIP3    H255282   4.916   2.035   8.881 -0.4971  1.0925 -0.2521
10363TIP3   OH255283   4.790   3.540   9.349 -0.4700 -0.1762 -0.4166
10363TIP3    H155284   4.854   3.475   9.321  0.0811  0.7819 -1.4541
10363TIP3    H255285   4.705   3.497   9.336 -0.0739 -1.2564  0.4667
10364TIP3   OH255286   0.918   6.596   9.693  0.1220 -0.1903 -0.1139
10364TIP3    H155287   0.829   6.580   9.725 -0.6956 -0.5572 -2.4082
10364TIP3    H255288   0.906   6.644   9.611  2.1001  0.6795  0.0558
10365TIP3   OH255289   4.982   7.485   7.996  0.1604  0.4812  0.2451
10365TIP3    H155290   4.985   7.580   7.987  2.0663  0.3117 -1.9172
10365TIP3    H255291   5.074   7.458   8.001 -0.3131 -1.3109  0.1497
10366TIP3   OH255292   0.263   3.030   8.163 -0.2983 -0.3108 -0.1833
10366TIP3    H155293   0.269   3.074   8.248 -0.9740 -1.0291  0.2530
10366TIP3    H255294   0.222   2.946   8.183  0.6637 -1.0059 -1.0534
10367TIP3   OH255295   2.553   4.120   0.134 -0.0677  0.5857 -0.5655
10367TIP3    H155296   2.531   4.208   0.165 -1.6664 -0.2308  0.7907
10367TIP3    H255297   2.518   4.117   0.045 -0.6764  1.1093 -0.3584
10368TIP3   OH255298   1.734   2.555   8.540 -0.3301 -0.0141 -0.3230
10368TIP3    H155299   1.788   2.631   8.520 -3.1784  2.1936 -0.1212
10368TIP3    H255300   1.722   2.558   8.635 -1.1588 -0.2266 -0.4142
10369TIP3   OH255301   3.947   6.648   7.732  0.0542 -0.1958  0.2682
10369TIP3    H155302   4.001   6.726   7.726 -1.6792  1.0129 -0.4359
10369TIP3    H255303   3.871   6.667   7.676 -0.4897 -2.3198  0.1982
10370TIP3   OH255304   5.704   2.211   0.757 -0.1470 -0.3712 -0.2353
10370TIP3    H155305   5.775   2.272   0.739  0.8642 -1.0836  1.1144
10370TIP3    H255306   5.740   2.152   0.824 -2.2785 -0.2521  1.0905
10371TIP3   OH255307   7.413   1.633   1.817 -0.1232 -0.1836 -0.0672
10371TIP3    H155308   7.361   1.711   1.836 -0.4599 -1.0465  3.0775
10371TIP3    H255309   7.365   1.561   1.859  1.9450 -1.5290  0.1385
10372TIP3   OH255310   1.636   6.618   8.501 -0.5771  0.0919  0.0114
10372TIP3    H155311   1.723   6.618   8.542 -1.3262  0.9320  1.7381
10372TIP3    H255312   1.621   6.710   8.477 -1.2973  0.1113  0.4969
10373TIP3   OH255313   4.370   2.255   8.696  0.1380 -0.2780 -0.3086
10373TIP3    H155314   4.348   2.327   8.755  1.0650 -0.3953  0.2084
10373TIP3    H255315   4.380   2.179   8.755  2.7562 -0.0556 -0.3314
10374TIP3   OH255316   3.744   5.881   2.266  0.7634  0.2367 -0.7448
10374TIP3    H155317   3.776   5.971   2.259  1.5827  0.0958  0.8236
10374TIP3    H255318   3.655   5.890   2.299  0.7567  0.4641 -0.8202
10375TIP3   OH255319   1.180   5.690   0.793 -0.0139  0.2227  0.1741
10375TIP3    H155320   1.088   5.691   0.766 -0.7686 -0.7915  2.4252
10375TIP3    H255321   1.187   5.614   0.850  2.0365  0.7690  0.7415
10376TIP3   OH255322   3.513   6.377   7.892  0.2125 -0.3511  0.1162
10376TIP3    H155323   3.495   6.285   7.910 -0.5566 -0.8968 -2.8430
10376TIP3    H255324   3.609   6.382   7.886  0.3353 -0.6396  1.5321
10377TIP3   OH255325   0.245   6.198   9.433  0.9506 -0.2710 -0.0336
10377TIP3    H155326   0.181   6.135   9.465 -0.6423  0.8673 -0.8237
10377TIP3    H255327   0.308   6.146   9.384 -1.2522 -1.1594 -2.1241
10378TIP3   OH255328   2.625   6.853   0.150 -0.6153 -0.3915 -0.3711
10378TIP3    H155329   2.553   6.799   0.118 -0.6220  0.7821 -2.6113
10378TIP3    H255330   2.585   6.938   0.168 -0.0007 -0.0334 -0.6471
10379TIP3   OH255331   4.890   6.605   8.568  0.3448  0.4419 -0.5512
10379TIP3    H155332   4.840   6.541   8.618 -1.0999  0.7538 -1.5248
10379TIP3    H255333   4.863   6.690   8.604 -0.0499  0.6219 -1.2419
10380TIP3   OH255334   5.695   3.997   2.248  0.0274  0.0471  0.2449
10380TIP3    H155335   5.665   3.941   2.177 -1.2981  0.0456  0.7950
10380TIP3    H255336   5.695   4.085   2.210  1.3502 -0.1830 -0.3709
10381TIP3   OH255337   7.435   6.213   1.544 -0.6842  0.1827 -0.2352
10381TIP3    H155338   7.400   6.300   1.524 -0.7879  0.4695  1.0751
10381TIP3    H255339   7.361   6.166   1.582  0.0447  0.4741  1.6551
10382TIP3   OH255340   7.396   2.370   9.405  0.1577 -0.5551 -0.0249
10382TIP3    H155341   7.458   2.421   9.354  1.4947 -0.3155  1.7431
10382TIP3    H255342   7.415   2.279   9.383  1.2410 -0.4882  0.5905
10383TIP3   OH255343   4.591   5.065   0.463  0.2425 -0.1419  0.4691
10383TIP3    H155344   4.534   4.989   0.450 -0.3749  0.2070  1.1165
10383TIP3    H255345   4.532   5.139   0.472  0.6978  0.0361  2.5931
10384TIP3   OH255346   2.885   2.885   8.644  0.4541  0.3905 -0.1773
10384TIP3    H155347   2.903   2.902   8.737 -0.2967 -0.1742  0.0849
10384TIP3    H255348   2.807   2.936   8.625 -0.3289 -0.7138 -0.0558
10385TIP3   OH255349   4.263   0.142   9.904  0.9021  0.3277  0.3726
10385TIP3    H155350   4.234   0.199   9.975 -0.5482 -0.3656  0.3750
10385TIP3    H255351   4.287   0.060   9.948 -2.1846 -0.9400 -0.0177
10386TIP3   OH255352   4.832   6.530   1.140 -0.4090  0.1195  0.6906
10386TIP3    H155353   4.843   6.474   1.063  1.4289  0.3218  0.7438
10386TIP3    H255354   4.918   6.571   1.151 -0.5014 -0.2014  3.0722
10387TIP3   OH255355   6.744   6.283   1.009 -0.2959  0.2536 -0.2571
10387TIP3    H155356   6.749   6.188   0.998  0.3255  0.4001 -1.4197
10387TIP3    H255357   6.678   6.311   0.946 -1.3100  0.4959  0.8798
10388TIP3   OH255358   5.577   0.625   1.841 -0.7387  0.0838 -0.3725
10388TIP3    H155359   5.565   0.533   1.863 -0.9412 -0.2951 -1.9701
10388TIP3    H255360   5.643   0.656   1.903 -0.6920 -1.1162  0.2001
10389TIP3   OH255361   4.165   1.209   2.482 -0.0253 -0.2656 -0.3835
10389TIP3    H155362   4.235   1.146   2.464  0.9282  0.8682 -0.7833
10389TIP3    H255363   4.205   1.295   2.468 -0.7530  0.5418  1.8971
10390TIP3   OH255364   0.248   1.473   0.531 -0.4094  0.5939 -0.0478
10390TIP3    H155365   0.318   1.477   0.466  0.4461  0.3624  0.8414
10390TIP3    H255366   0.279   1.411   0.597 -2.0589 -0.6152 -0.3245
10391TIP3   OH255367   5.563   7.408   7.134  0.4514  0.1163 -0.1773
10391TIP3    H155368   5.638   7.453   7.173  0.0127 -1.2130  2.4002
10391TIP3    H255369   5.559   7.324   7.179 -1.2584 -0.7881 -1.8631
10392TIP3   OH255370   1.428   6.254   8.535 -0.2454 -0.4921  0.6030
10392TIP3    H155371   1.508   6.225   8.493  1.8983  0.4702  3.6874
10392TIP3    H255372   1.378   6.173   8.552  0.1131 -1.1170 -1.1522
10393TIP3   OH255373   6.998   7.192   9.470 -0.1418  0.3048  0.5243
10393TIP3    H155374   6.984   7.204   9.376  0.6627  2.0993  0.5907
10393TIP3    H255375   7.092   7.206   9.482 -0.3176  0.6072  1.6601
10394TIP3   OH255376   2.265   3.115   6.670 -0.3532  0.1007  0.2622
10394TIP3    H155377   2.355   3.132   6.697 -0.1480  0.6643 -0.7211
10394TIP3    H255378   2.212   3.176   6.721 -0.1543 -0.0709  0.6747
10395TIP3   OH255379   4.678   6.152   1.791 -1.0430 -0.4305  0.3448
10395TIP3    H155380   4.597   6.102   1.782 -1.1957  0.0115 -0.9818
10395TIP3    H255381   4.740   6.108   1.733 -0.5999 -0.2217  0.6528
10396TIP3   OH255382   7.378   3.348   0.105  0.6839  0.5276  0.0326
10396TIP3    H155383   7.414   3.275   0.156  0.0183 -1.2356 -1.8948
10396TIP3    H255384   7.291   3.362   0.141  0.8594  0.4897  0.4838
10397TIP3   OH255385   5.154   0.639   7.538  0.1413 -0.0610  0.1051
10397TIP3    H155386   5.104   0.561   7.512  1.5340 -0.4493 -1.5974
10397TIP3    H255387   5.245   0.615   7.524  0.6494  1.6209  0.3123
10398TIP3   OH255388   0.703   6.681   8.328 -0.0458  0.3687  0.2553
10398TIP3    H155389   0.706   6.591   8.296  0.9151  0.6828 -0.6038
10398TIP3    H255390   0.757   6.680   8.407  0.2961  0.2667  0.0238
10399TIP3   OH255391   1.501   4.194   8.972  0.4280  0.4038  0.3363
10399TIP3    H155392   1.427   4.134   8.979  0.3901  0.6076  2.2818
10399TIP3    H255393   1.496   4.230   8.884 -0.7557 -0.8974 -0.1530
10400TIP3   OH255394   2.022   3.021   0.874 -0.0845 -0.0192  0.1221
10400TIP3    H155395   2.093   3.025   0.938  1.2840  0.6131 -1.3369
10400TIP3    H255396   2.027   2.932   0.838 -0.0757 -0.0023  0.0808
10401TIP3   OH255397   3.016   6.341   9.331  0.0854 -0.1123  0.0447
10401TIP3    H155398   2.958   6.266   9.317 -0.3861  0.6943 -2.8474
10401TIP3    H255399   3.094   6.303   9.370 -0.0321 -2.1987 -1.5626
10402TIP3   OH255400   1.894   0.488   0.279  0.1102 -0.1831 -0.4337
10402TIP3    H155401   1.968   0.477   0.339  0.9165  0.9998 -1.1775
10402TIP3    H255402   1.850   0.567   0.309  0.4842  0.3857 -1.3462
10403TIP3   OH255403   5.553   0.392   9.280 -0.4632  0.2964  0.0240
10403TIP3    H155404   5.515   0.363   9.197  0.6978  1.7339 -1.0610
10403TIP3    H255405   5.626   0.332   9.295 -0.7335 -0.0262  0.0702
10404TIP3   OH255406   0.896   6.664   9.432  0.1095  0.1086 -0.4554
10404TIP3    H155407   0.881   6.740   9.376  0.7359  0.0343 -0.7355
10404TIP3    H255408   0.986   6.638   9.413 -0.1012 -0.7054 -0.3605
10405TIP3   OH255409   4.746   0.219   6.958  0.7547  0.5159  0.6117
10405TIP3    H155410   4.809   0.176   7.016 -1.0573 -2.9832  0.2647
10405TIP3    H255411   4.775   0.196   6.870 -1.0270 -1.5287  0.4474
10406TIP3   OH255412   2.682   5.584   2.464 -0.1800 -0.5072 -0.2132
10406TIP3    H155413   2.610   5.621   2.413  1.3293 -0.6345 -2.5875
10406TIP3    H255414   2.653   5.496   2.486 -1.2248 -0.1369 -0.0611
10407TIP3   OH255415   1.200   5.238   9.142 -0.9485 -0.2132 -0.0529
10407TIP3    H155416   1.180   5.219   9.050  0.4813 -1.9687 -0.0383
10407TIP3    H255417   1.207   5.152   9.183  2.2721  0.3539  0.8411
10408TIP3   OH255418   2.941   4.250   9.416  0.7868 -0.2100  0.4668
10408TIP3    H155419   2.872   4.184   9.404 -0.9461  1.5191  0.3013
10408TIP3    H255420   3.007   4.207   9.471  0.0393 -2.2568 -0.1619
10409TIP3   OH255421   1.007   0.354   2.823  0.4855  0.0239 -0.1805
10409TIP3    H155422   0.945   0.313   2.763 -1.0572  1.2119  0.5282
10409TIP3    H255423   1.068   0.284   2.845 -0.5447 -1.1844 -1.0014
10410TIP3   OH255424   2.173   4.418   7.959  0.0515 -0.1064 -0.0190
10410TIP3    H155425   2.192   4.389   7.870 -2.5492 -1.5724 -0.2023
10410TIP3    H255426   2.112   4.491   7.949 -2.8915 -2.3200  0.4223
10411TIP3   OH255427   5.452   2.970   0.680 -0.1993  0.0733 -0.7027
10411TIP3    H155428   5.483   3.021   0.755 -0.9841 -0.9033  0.3173
10411TIP3    H255429   5.372   2.927   0.711 -0.4933 -0.4322 -2.0752
10412TIP3   OH255430   4.812   5.235   8.979  0.7936  0.0606  0.3832
10412TIP3    H155431   4.815   5.158   9.035  2.7995  0.1928  0.5483
10412TIP3    H255432   4.726   5.273   8.994  0.6096 -0.9085  1.9918
10413TIP3   OH255433   1.329   7.270   8.708 -0.4365  0.0022  0.3029
10413TIP3    H155434   1.319   7.365   8.719 -2.9800 -0.2583  0.8181
10413TIP3    H255435   1.419   7.259   8.678 -0.1562  2.5949 -0.0408
10414TIP3   OH255436   0.876   2.263   0.331 -0.1970  0.6262  0.7269
10414TIP3    H155437   0.913   2.283   0.246  0.3375 -1.3634  0.4433
10414TIP3    H255438   0.788   2.231   0.313  0.8086 -2.2854  0.6104
10415TIP3   OH255439   3.365   1.197   0.021  0.4310 -0.1796 -0.3086
10415TIP3    H155440   3.421   1.274   0.032  0.4920 -0.1979 -0.4886
10415TIP3    H255441   3.365   1.181  -0.074  0.7457 -0.6443 -0.2332
10416TIP3   OH255442   2.372   4.425   8.917  0.0727  0.5109  0.2180
10416TIP3    H155443   2.406   4.479   8.989 -1.5208  2.0397 -0.0959
10416TIP3    H255444   2.448   4.405   8.863  1.2958 -0.5976  2.2507
10417TIP3   OH255445   5.823   4.526   2.307  0.0454 -0.5946  0.5334
10417TIP3    H155446   5.840   4.448   2.360  0.1404 -0.5237  0.6082
10417TIP3    H255447   5.882   4.592   2.343  0.9964 -0.8725 -0.4326
10418TIP3   OH255448   7.459   7.453   2.052 -0.5967  0.0400 -0.2176
10418TIP3    H155449   7.450   7.432   1.959  1.2045 -0.3908 -0.3390
10418TIP3    H255450   7.446   7.369   2.096  0.4885 -0.1680 -0.2541
10419TIP3   OH255451   4.048   4.434   9.925  0.7396  0.3646  0.2741
10419TIP3    H155452   4.122   4.383   9.956  1.3284  1.9415  1.5927
10419TIP3    H255453   4.081   4.524   9.920 -0.2618  0.6859 -1.9340
10420TIP3   OH255454   2.737   1.622   1.212  0.5252 -0.2149  0.6710
10420TIP3    H155455   2.812   1.600   1.267 -0.0845 -1.3055  1.0930
10420TIP3    H255456   2.750   1.714   1.189  1.0351  0.1303  2.2444
10421TIP3   OH255457   0.317   6.065   8.473 -0.9305  0.3015  0.2576
10421TIP3    H155458   0.377   6.010   8.524  0.2708  0.7137 -0.6549
10421TIP3    H255459   0.232   6.022   8.481  0.0453 -1.9684 -0.7868
10422TIP3   OH255460   7.040   6.836   9.648 -0.5570  0.4816 -0.0490
10422TIP3    H155461   7.119   6.882   9.673 -1.6151  2.5992 -0.4033
10422TIP3    H255462   6.968   6.890   9.683 -1.8817 -0.4977 -1.1406
10423TIP3   OH255463   7.016   6.360   2.589  0.0565  0.4749  0.0298
10423TIP3    H155464   6.979   6.449   2.586  0.2897  0.5604 -2.3773
10423TIP3    H255465   7.106   6.370   2.558 -0.1342 -0.6819 -0.9657
10424TIP3   OH255466   4.289   5.747   8.448  0.8538 -0.1394 -0.6794
10424TIP3    H155467   4.315   5.830   8.488  0.7120 -0.8336  0.9253
10424TIP3    H255468   4.199   5.761   8.420  0.5548  0.0272  0.3072
10425TIP3   OH255469   0.800   1.309   2.067  0.3509  0.9263 -0.8033
10425TIP3    H155470   0.865   1.340   2.004 -1.8669  2.5840 -2.4480
10425TIP3    H255471   0.736   1.261   2.015  0.0217 -0.3622  0.7064
10426TIP3   OH255472   0.774   1.183   1.425  0.2683  0.1438  0.5314
10426TIP3    H155473   0.847   1.166   1.485  0.0599 -1.1762  0.4378
10426TIP3    H255474   0.805   1.150   1.341 -1.0528 -2.1184  0.8457
10427TIP3   OH255475   3.696   1.965   7.937  0.1194  0.6223  0.6031
10427TIP3    H155476   3.719   1.884   7.983  1.1637  1.0625  0.8849
10427TIP3    H255477   3.625   1.940   7.878  1.3810 -0.8442 -0.3571
10428TIP3   OH255478   6.157   6.037   0.649  0.3264 -0.0207  0.0973
10428TIP3    H155479   6.195   5.952   0.671 -1.1121 -1.4043 -2.4198
10428TIP3    H255480   6.063   6.026   0.664  0.1147  1.1300 -0.2804
10429TIP3   OH255481   0.319   4.978   9.979  0.1105  0.1841 -0.2775
10429TIP3    H155482   0.246   4.988  10.039  0.5521  0.0105  0.2981
10429TIP3    H255483   0.293   5.026   9.900 -1.9471 -2.4011 -1.3031
10430TIP3   OH255484   5.782   0.972   7.741 -0.0473  0.2775  0.0318
10430TIP3    H155485   5.736   1.014   7.668  0.2998  0.6665  0.0294
10430TIP3    H255486   5.768   1.031   7.815 -0.5245 -0.1927  0.3225
10431TIP3   OH255487   3.945   0.087   1.456  0.2517  0.3204  0.1411
10431TIP3    H155488   3.874   0.100   1.393  0.0879 -1.2433 -0.0321
10431TIP3    H255489   3.910   0.121   1.538 -0.3429  0.4352 -0.1533
10432TIP3   OH255490   3.556   7.143   1.856 -0.0090  0.6187  0.2606
10432TIP3    H155491   3.539   7.075   1.921  1.8046  1.3106  1.5648
10432TIP3    H255492   3.579   7.094   1.776 -1.0064 -0.2622  0.4906
10433TIP3   OH255493   2.759   1.995   8.437 -1.4031 -0.4254  0.1712
10433TIP3    H155494   2.822   1.923   8.446 -2.0027 -0.9327  0.3322
10433TIP3    H255495   2.681   1.955   8.399 -1.9887  0.0050  0.8972
10434TIP3   OH255496   7.277   0.310   7.775 -0.1830 -0.1060 -0.3667
10434TIP3    H155497   7.224   0.375   7.820  0.6398 -0.0272  0.5167
10434TIP3    H255498   7.258   0.324   7.682  0.0648  1.4778 -0.2109
10435TIP3   OH255499   6.229   2.122   1.241  0.2991 -0.5013  0.6414
10435TIP3    H155500   6.164   2.107   1.174  0.9773 -1.1583  0.1163
10435TIP3    H255501   6.198   2.200   1.287  0.7953  1.1680 -1.6670
10436TIP3   OH255502   0.161   7.027   2.304 -0.2120  0.3273 -0.0312
10436TIP3    H155503   0.165   7.093   2.374 -0.2561  0.4853 -0.1756
10436TIP3    H255504   0.074   6.990   2.311 -0.3046  0.5174 -0.1575
10437TIP3   OH255505   5.505   6.431   1.145  0.1096 -0.6617  0.3203
10437TIP3    H155506   5.440   6.497   1.167 -0.7088 -1.5120  0.5000
10437TIP3    H255507   5.486   6.358   1.203  0.8229 -1.1690 -0.0704
10438TIP3   OH255508   4.656   0.843   2.252 -0.3086  0.5702  0.2447
10438TIP3    H155509   4.644   0.848   2.347 -2.1064 -0.8478  0.1433
10438TIP3    H255510   4.751   0.850   2.240  0.0263 -0.0147  2.2081
10439TIP3   OH255511   2.899   6.194   0.665 -0.5231 -0.6351  0.0029
10439TIP3    H155512   2.835   6.185   0.594 -0.9148  1.2489  0.0866
10439TIP3    H255513   2.881   6.120   0.723 -1.1632 -1.3704 -1.1008
   7.48707   7.48707  10.00000
